/*--------------------------------*- C++ -*----------------------------------*\
| =========                 |                                                 |
| \\      /  F ield         | foam-extend: Open Source CFD                    |
|  \\    /   O peration     | Version:     3.1                                |
|   \\  /    A nd           | Web:         http://www.extend-project.de       |
|    \\/     M anipulation  |                                                 |
\*---------------------------------------------------------------------------*/
FoamFile
{
    version     2.0;
    format      ascii;
    class       volScalarField;
    location    "9.5";
    object      alpha1;
}
// * * * * * * * * * * * * * * * * * * * * * * * * * * * * * * * * * * * * * //

dimensions      [0 0 0 0 0 0 0];

internalField   nonuniform List<scalar> 
119952
(
0.9999999
1
0.9999999
0.9999998
0.9999996
0.9999998
0.9999992
0.9999973
0.9999956
0.9999998
1
0.9999999
1
1
1
1
0.9999997
1
0.9999996
0.9999999
1
1
1
1
1
1
1
0.9999986
0.9999928
1
1
0.999999
0.9999204
0.999959
0.9999699
0.9997775
0.9994003
0.9999946
0.9999492
0.9985089
0.9999934
0.9999993
0.9999189
1
0.9999919
0.9969905
0.9999999
0.9995474
0.9999911
0.9996759
0.9996691
0.9998737
0.9995847
0.9940994
0.9943864
0.9976947
0.998978
0.9975244
0.9965915
0.9948124
0.9935729
0.9968835
0.9966584
0.9958563
0.9975467
0.997967
0.999382
0.9998806
0.9999544
0.9999443
0.9998282
0.9998522
0.9999196
0.9999273
0.9999586
0.9998069
0.9998845
0.9998051
0.9999198
0.9999635
0.9999577
0.9999394
0.9998806
0.9999854
0.9999899
0.9999909
0.9999893
0.9999897
0.9999962
0.9999582
0.9993612
0.999122
0.9986936
0.9996766
0.9999016
0.9999849
0.9999948
0.999962
0.9999863
0.999833
0.9993387
0.9999583
0.999863
0.9997433
0.9999624
0.9999916
0.9999568
0.9999996
0.9999997
0.9999993
0.9999997
0.9999997
0.9999998
0.9999864
0.999977
0.9999998
1
0.9999974
0.9999847
0.9999992
0.9999999
0.9999998
0.9999999
0.9999999
1
0.9999987
0.9999983
0.9999905
0.9999013
0.9999494
0.9999954
0.9999266
0.999821
0.9996671
0.9992433
0.9992199
0.9985344
0.9982616
0.9985603
0.9966387
0.995144
0.994481
0.9923687
0.9947429
0.9970655
0.9984234
0.9995802
0.9999596
0.9999991
0.999994
0.9999202
0.9999484
0.999971
0.9987581
0.9977335
0.9996679
0.9974975
0.9963749
0.9990333
0.9867663
0.9963591
0.9999439
0.9997397
0.9986584
0.9996233
0.9964771
0.9981649
0.9999907
1
1
1
1
0.9999999
0.9999998
1
1
1
1
1
1
1
1
1
1
1
1
1
1
1
1
1
1
1
1
1
1
1
1
1
1
1
1
1
1
1
1
1
1
1
1
1
1
1
1
1
1
1
1
1
1
1
1
1
1
1
1
1
1
1
1
1
1
1
1
1
1
1
1
1
1
1
1
1
1
1
1
1
1
1
1
1
1
1
1
1
1
1
1
1
1
1
1
1
1
1
1
1
1
1
1
1
1
1
1
1
1
1
1
1
1
1
1
1
1
1
1
1
1
1
1
1
1
1
1
1
1
1
1
1
1
1
1
1
1
1
1
1
1
1
1
1
1
1
1
1
0.9999999
1
1
1
1
1
1
1
1
1
1
1
1
1
1
1
0.9999999
1
0.9999999
1
1
1
1
1
1
1
1
1
1
1
0.9999999
0.9999999
1
0.9999999
1
1
1
0.9999999
1
1
1
1
1
1
1
1
1
1
1
0.9999999
1
1
1
1
1
1
1
1
0.9999999
0.9999999
1
1
1
1
1
1
1
1
1
1
1
1
1
1
1
1
1
1
1
1
1
1
1
1
0.9999999
1
1
1
1
1
1
1
1
1
1
1
1
1
1
1
1
0.9999999
1
1
1
0.9999992
0.9999954
0.9999821
0.9999837
0.9999613
0.9999854
0.9999977
0.9999997
1
1
1
1
1
0.9999999
0.9999999
1
1
1
0.9999998
0.9999999
1
0.9999998
0.9999951
0.9999982
0.9999795
0.9990753
0.9997135
0.9997182
0.9989522
0.999499
0.9992653
0.9985368
0.9999356
0.999994
0.9999362
0.9914536
0.9643016
0.9984762
0.9994981
0.9927727
0.9719474
0.9719482
0.9720828
0.9719953
0.9776747
0.9937456
0.9960723
0.993474
0.9808603
0.9754007
0.9754007
0.9778233
0.9896383
0.9845686
0.9759638
0.9768771
0.9844399
0.9772483
0.9744612
0.9744612
0.9775606
0.9864222
0.9953579
0.9991448
0.9997839
0.9997932
0.9995645
0.9993178
0.9989041
0.9988565
0.9991348
0.9993824
0.999086
0.9993454
0.999711
0.9993324
0.9977817
0.9949388
0.9971375
0.9992352
0.9993424
0.9994684
0.9996463
0.9985224
0.995377
0.9944527
0.994453
0.9951002
0.9974214
0.9976391
0.9989372
0.9996912
0.9998489
0.999799
0.9998833
0.9999579
0.9999336
0.9999512
0.9999917
0.9999955
0.9999993
0.9999995
0.9999964
0.9999799
0.9999521
0.9999586
0.9999848
0.999994
0.9999975
0.9999995
0.9999998
0.9999998
0.9999998
0.9999999
0.9999999
0.999999
0.9999931
0.9999775
0.9999646
0.9999721
0.9999904
0.9999966
0.9999979
0.9999966
0.9999951
0.9999929
0.9999881
0.9999765
0.9999384
0.9997978
0.9992966
0.9977749
0.9941855
0.9840475
0.9759293
0.9745039
0.9745039
0.9866355
0.9966607
0.9995707
0.9999707
0.9999872
0.9999304
0.9992271
0.9969493
0.997353
0.9987006
0.999558
0.9994784
0.9996862
0.9998822
0.9999714
0.9999498
0.9998736
0.9999134
0.9998943
0.9997713
0.9997865
0.999852
0.9998083
0.9996574
0.9995866
0.9998105
0.9998526
0.9995452
0.9994828
0.9996619
0.9999349
0.9999978
1
1
1
1
1
1
1
1
1
1
1
1
1
1
0.9999999
0.9999999
0.9999999
1
1
1
1
1
1
1
1
1
1
1
1
1
1
1
1
1
1
0.9999997
0.9999989
1
1
1
1
1
1
1
1
1
1
1
1
1
1
1
1
1
1
1
1
1
1
1
1
1
1
1
1
1
1
1
1
1
1
1
1
1
1
1
1
1
1
1
1
1
1
1
1
1
1
1
1
1
1
1
1
1
1
1
1
1
1
1
1
1
1
1
1
1
1
1
1
1
1
1
1
1
1
1
1
1
1
1
1
1
1
1
1
1
1
1
1
1
1
1
1
1
1
1
1
1
1
1
1
1
1
1
1
1
1
1
1
1
1
1
1
1
1
1
1
1
1
1
1
1
1
1
1
1
1
1
1
1
1
1
1
1
1
1
1
1
1
1
1
1
1
1
1
1
1
1
1
1
1
1
1
1
1
1
1
1
1
1
1
1
1
1
1
1
1
1
1
1
1
1
1
1
1
1
1
1
1
1
1
1
1
1
1
1
1
1
1
1
0.9999999
1
1
1
1
1
1
1
1
1
1
1
1
1
1
1
1
1
1
1
1
1
1
1
1
1
1
1
1
1
1
1
1
0.9999999
0.9999999
1
0.9999999
1
1
0.9999993
0.9999994
1
0.9999997
0.9999997
1
1
1
0.9999993
0.9999981
0.9999931
0.9999855
0.9999714
0.9998726
0.9999673
0.9999966
0.999998
0.9999817
0.9999957
0.9999978
0.9999995
0.9999999
0.9999999
0.9999998
0.9999978
0.9999861
0.9999782
0.9999845
0.9999974
0.9999944
0.9999673
0.99997
0.9999915
0.99998
0.9999146
0.9998806
0.9998861
0.9993476
0.9980428
0.9971254
0.9979163
0.9995282
0.9991638
0.9909547
0.9751271
0.9737412
0.9930767
0.996118
0.9780079
0.9637201
0.9637201
0.9667197
0.9927506
0.9986087
0.9991391
0.9990153
0.9960289
0.9886931
0.9831828
0.9896508
0.9988955
0.9996066
0.9993576
0.9987023
0.9986668
0.9989019
0.999067
0.9990755
0.999316
0.9993909
0.9988718
0.9964017
0.9838877
0.9605975
0.9709617
0.9846482
0.9917884
0.9959546
0.9991179
0.9997094
0.9996665
0.9990966
0.9972944
0.9933561
0.9942043
0.997175
0.9991111
0.998921
0.9959158
0.9886792
0.9826879
0.9835875
0.9875978
0.9878187
0.9939283
0.9981795
0.9992572
0.9995582
0.9995002
0.9987798
0.9978157
0.9946262
0.9934443
0.9963637
0.9983297
0.9994359
0.9991113
0.9985167
0.9989098
0.9996739
0.9999174
0.9999793
0.999998
0.9999991
0.9999995
0.9999987
0.9999893
0.9999375
0.9998668
0.9998668
0.999925
0.9999817
0.9999973
0.9999994
0.9999998
0.9999999
0.9999999
0.9999999
0.9999997
0.9999953
0.9999742
0.9999595
0.9999595
0.9999602
0.9999887
0.9999988
0.9999994
0.9999993
0.9999986
0.9999991
0.9999994
0.9999991
0.9999966
0.9999881
0.9999402
0.9997661
0.9994347
0.9975281
0.9937445
0.9953043
0.9976507
0.9993292
0.9999119
0.9999884
0.9999884
0.9999784
0.9997398
0.9952524
0.9858725
0.9875542
0.9938477
0.9983126
0.9997069
0.9999753
0.9999905
0.9999118
0.9994975
0.9995374
0.9998404
0.9999806
0.9999867
0.9999747
0.9999817
0.9999826
0.9999771
0.9999809
0.9999772
0.9999468
0.999718
0.9995578
0.9996896
0.9999378
0.9999978
1
1
1
1
1
1
1
1
1
1
1
1
1
0.9999999
0.9999996
0.9999991
0.9999992
0.9999996
0.9999999
1
1
1
1
1
1
1
1
1
1
1
0.9999999
0.9999996
0.9999988
0.9999966
0.9999904
0.9999708
0.999938
0.9999424
0.9999766
0.9999901
0.9999967
0.9999992
0.9999999
1
1
1
1
1
1
1
1
1
1
1
1
1
1
1
1
1
1
1
1
1
1
1
1
1
1
1
1
1
1
1
1
1
1
1
1
1
1
1
1
1
1
1
1
1
1
1
1
1
1
1
1
1
1
1
1
1
1
1
1
1
1
1
1
1
1
1
1
1
1
1
1
1
1
1
1
1
1
1
1
1
1
1
1
1
1
1
1
1
1
1
1
1
1
1
1
1
1
1
1
1
1
1
1
1
1
1
1
1
1
1
1
1
1
1
1
1
1
1
1
1
1
1
1
1
1
1
1
1
1
1
1
1
1
1
1
1
1
1
1
1
1
1
1
1
1
1
1
1
1
1
1
1
1
1
1
1
1
1
1
1
1
1
1
1
1
1
1
1
1
1
1
1
1
1
1
1
1
1
1
1
1
1
1
1
1
1
1
1
0.9999999
1
1
1
1
1
1
1
1
1
1
1
1
1
1
1
1
1
1
1
1
1
1
1
1
1
1
1
1
1
1
1
1
1
1
1
1
1
0.9999999
0.9999995
0.9999989
0.9999995
1
1
1
1
0.9999999
0.9999997
0.9999994
0.9999988
0.9999973
0.9999977
0.9999995
1
0.9999991
0.9999641
0.9997081
0.9990729
0.9984124
0.9994028
0.9998789
0.9999808
0.9999493
0.9996809
0.9994764
0.999618
0.9999041
0.9999964
0.9999994
0.9999975
0.9999956
0.9999912
0.9999478
0.9998913
0.9999245
0.9999829
0.9999945
0.9999793
0.999846
0.9999036
0.9999653
0.9998667
0.9996063
0.9995663
0.9994367
0.9968809
0.9865605
0.9758632
0.9814311
0.995914
0.9986769
0.9926972
0.9743917
0.9684836
0.9684836
0.9769761
0.9953001
0.9966237
0.9952128
0.9941226
0.9939505
0.9971182
0.9993749
0.9998071
0.9998599
0.9998585
0.9998538
0.9998721
0.9998646
0.999844
0.9998206
0.9998122
0.9998693
0.9999476
0.9999862
0.999998
0.9999993
0.9999993
0.9999989
0.999997
0.9999912
0.999973
0.9998695
0.9978366
0.9831112
0.9847535
0.9943672
0.9991163
0.9995302
0.9995275
0.9991848
0.9946938
0.9914084
0.9916579
0.9945474
0.9982295
0.9973836
0.9894259
0.9825825
0.9825825
0.9825825
0.9825825
0.9902007
0.9972222
0.9990854
0.9995643
0.9999151
0.9999592
0.9999179
0.9998626
0.9998161
0.9991197
0.9978399
0.9992025
0.9994415
0.9976932
0.994726
0.9957238
0.9983886
0.9998655
0.9999927
0.9999992
0.9999995
0.9999987
0.9999964
0.9999806
0.9999317
0.9998901
0.9998751
0.9998751
0.9999084
0.9999751
0.9999973
0.9999996
0.9999998
0.9999999
0.9999999
0.9999996
0.9999965
0.9999877
0.9999775
0.9999772
0.9999935
0.9999984
0.9999993
0.9999967
0.9999915
0.9999858
0.9999819
0.9999877
0.9999955
0.9999993
0.9999987
0.9999955
0.9999759
0.9998926
0.9995537
0.9988979
0.9992565
0.9997173
0.9999122
0.9999779
0.9999884
0.9999866
0.9998768
0.9970223
0.9567832
0.918296
0.945765
0.9839466
0.9982875
0.9999471
0.9999961
0.9999661
0.9995935
0.9995407
0.9997922
0.99997
0.9998882
0.9990806
0.9988525
0.9993182
0.9997856
0.999969
0.9999968
0.9999971
0.9999818
0.9999382
0.9997148
0.9998456
0.9999548
0.999995
0.9999999
1
1
1
1
1
1
1
1
1
1
1
1
0.9999998
0.9999988
0.9999966
0.9999948
0.9999962
0.9999996
1
1
1
1
1
1
1
1
1
1
1
1
0.9999998
0.9999992
0.9999975
0.9999899
0.99995
0.9997312
0.9994431
0.9995177
0.9997034
0.9998641
0.9999553
0.9999834
0.9999963
0.9999997
1
1
1
1
0.9999999
0.9999999
0.9999999
1
1
1
1
1
1
1
1
1
1
1
1
1
1
1
1
1
1
1
1
1
1
1
1
1
1
1
1
1
1
1
1
1
1
1
1
1
1
1
1
1
1
1
1
1
1
1
1
1
1
1
1
1
1
1
1
1
1
1
1
1
1
1
1
1
1
1
1
1
1
1
1
1
1
1
1
1
1
1
1
1
1
1
1
1
1
1
1
1
1
1
1
1
1
1
1
1
1
1
1
1
1
1
1
1
1
1
1
1
1
1
1
1
1
1
1
1
1
1
1
1
1
1
1
1
1
1
1
1
1
1
1
1
1
1
1
1
1
1
1
1
1
1
1
1
1
1
1
1
1
1
1
1
1
1
1
1
1
1
1
1
1
1
1
1
1
1
1
1
1
1
1
1
1
1
1
1
1
1
1
1
1
1
1
1
1
1
1
1
0.9999999
1
1
1
1
1
1
1
1
1
1
1
1
1
1
1
1
1
1
1
1
1
1
1
1
1
1
1
1
1
1
1
1
1
1
1
1
1
1
1
0.9999997
0.9999932
0.999987
0.9999919
0.999998
0.9999999
1
1
0.9999999
0.9999995
0.9999975
0.9999927
0.9999947
0.9999992
1
0.9999978
0.9998837
0.9988096
0.9967267
0.9966886
0.9975764
0.9996071
0.9999295
0.9998957
0.9989482
0.9970788
0.996995
0.9991856
0.9999962
0.9999984
0.9999901
0.9999736
0.999898
0.9998873
0.9999159
0.9999764
0.9999844
0.9998967
0.999398
0.9996636
0.9998903
0.999901
0.9996163
0.9987586
0.9990226
0.9993987
0.995263
0.9804931
0.9758632
0.9758632
0.9764981
0.9921832
0.9981689
0.9955004
0.9868214
0.9778739
0.9751329
0.9897852
0.9978557
0.9995116
0.9998556
0.9999339
0.9999544
0.9999544
0.9999544
0.999954
0.9999552
0.9999544
0.9999618
0.9999722
0.9999714
0.9999323
0.9997572
0.9997243
0.9998313
0.9999435
0.9999913
0.9999994
0.9999995
0.9999995
0.9999995
0.9999995
0.9999988
0.9999948
0.9999794
0.9999166
0.999864
0.9997542
0.9962716
0.9857827
0.9882312
0.9956453
0.9988758
0.9978742
0.9916321
0.9914084
0.9914084
0.9968634
0.9953576
0.9886997
0.9825825
0.9825825
0.9869841
0.994614
0.9984631
0.9997133
0.9999705
0.9999946
0.9999929
0.9999627
0.9998489
0.9998488
0.9999097
0.9999634
0.999988
0.9999861
0.9998661
0.9966924
0.9903778
0.9920598
0.9975494
0.999832
0.9999977
0.9999995
0.9999995
0.9999986
0.9999936
0.9999862
0.999968
0.9999296
0.9999082
0.9999014
0.9999092
0.9999319
0.9999822
0.9999979
0.9999993
0.9999997
0.9999999
0.9999998
0.9999992
0.9999989
0.9999995
0.9999997
0.9999997
0.9999982
0.9999947
0.9999873
0.9999636
0.9999067
0.9998332
0.9998356
0.9999562
0.9999967
0.999999
0.9999959
0.9999703
0.999794
0.9978266
0.9924089
0.9924804
0.9951448
0.9984146
0.9998311
0.9999731
0.9998942
0.9978177
0.9314529
0.846088
0.8529614
0.9407915
0.9922548
0.9997449
0.9999948
0.9999894
0.9998977
0.9998267
0.9998908
0.9999769
0.9999691
0.9998622
0.998672
0.9943591
0.9941711
0.9968725
0.9993941
0.999971
0.9999964
0.9999951
0.9999482
0.9997313
0.999787
0.9999239
0.9999893
0.9999995
1
1
1
1
1
1
1
1
1
1
1
1
0.9999998
0.9999984
0.9999904
0.9999791
0.9999831
0.9999962
0.9999998
1
1
1
1
1
1
1
1
1
1
1
1
0.9999999
0.9999995
0.9999957
0.9999543
0.9996103
0.997729
0.9972872
0.9982098
0.9989734
0.9995155
0.9998784
0.9999863
0.9999986
0.9999996
0.9999998
0.9999998
0.9999992
0.9999974
0.9999965
0.999997
0.9999992
0.9999999
1
1
1
1
1
1
1
1
1
1
1
1
1
1
1
1
1
1
1
1
1
1
1
1
1
1
1
1
1
1
1
1
1
1
1
1
1
1
1
1
1
1
1
1
1
1
1
1
1
1
1
1
1
1
1
1
1
1
1
1
1
1
1
1
1
1
1
1
1
1
1
1
1
1
1
1
1
1
1
1
1
1
1
1
1
1
1
1
1
1
1
1
1
1
1
1
1
1
1
1
1
1
1
1
1
1
1
1
1
1
1
1
1
1
1
1
1
1
1
1
1
1
1
1
1
1
1
1
1
1
1
1
1
1
1
1
1
1
1
1
1
1
1
1
1
1
1
1
1
1
1
1
1
1
1
1
1
1
1
1
1
1
1
1
1
1
1
1
1
1
1
1
1
1
1
1
1
1
1
1
1
1
1
1
1
1
1
1
1
1
1
1
1
1
1
1
1
1
1
1
1
1
1
1
1
1
1
1
1
1
1
1
0.9999999
0.9999999
0.9999999
0.9999999
1
1
1
1
1
1
1
1
1
1
1
1
1
1
1
1
1
1
0.9999999
0.9999995
0.9999993
0.9999966
0.9999321
0.9998682
0.9999027
0.9999618
0.9999941
0.9999997
0.9999999
0.9999998
0.99998
0.9999726
0.9999877
0.9999989
1
0.9999972
0.9998997
0.9991783
0.99765
0.9966886
0.9966886
0.9981671
0.9997145
0.9998992
0.9987222
0.9939703
0.9901808
0.9960155
0.9997871
0.9999944
0.999991
0.9999699
0.9999622
0.9999692
0.9999703
0.9999636
0.9996986
0.9994469
0.9997
0.9997092
0.9997793
0.9997991
0.9992178
0.9984457
0.9988953
0.9998545
0.9984161
0.99246
0.9837883
0.9775299
0.9807552
0.9938659
0.999046
0.9996404
0.999322
0.9984689
0.9982793
0.9988287
0.9988692
0.9993032
0.999097
0.9991517
0.9994367
0.999686
0.9998169
0.9999074
0.9999538
0.9999556
0.999934
0.9999588
0.9999865
0.999993
0.9999792
0.9997772
0.9996728
0.9998243
0.9999643
0.9999955
0.9999991
0.9999991
0.9999988
0.9999981
0.9999972
0.9999978
0.9999983
0.9999975
0.9999773
0.9998126
0.9995152
0.9982577
0.9970352
0.9979821
0.9993345
0.9986421
0.9939252
0.9916359
0.9946261
0.994999
0.9927366
0.9890969
0.9888496
0.9914102
0.9960495
0.9988659
0.9997873
0.9999792
0.9999957
0.9999957
0.9999957
0.9999827
0.9997495
0.9993499
0.999639
0.9999308
0.9999967
0.9999993
0.9999914
0.9998269
0.9966424
0.9920758
0.9948921
0.998929
0.9999453
0.9999967
0.9999991
0.9999991
0.999998
0.9999964
0.9999915
0.9999745
0.9999688
0.9999673
0.9999686
0.9999538
0.9999474
0.9999603
0.9999884
0.9999983
0.9999998
1
1
1
1
1
0.9999994
0.9999941
0.9999753
0.9999581
0.999919
0.9998321
0.9995305
0.9992463
0.9995498
0.9998763
0.9999873
0.9999965
0.9999836
0.9998253
0.9984282
0.987067
0.9522141
0.9477453
0.9725742
0.9936017
0.998441
0.9991589
0.9982267
0.9839354
0.8763977
0.8470724
0.895559
0.9784342
0.9987992
0.9999838
0.9999985
0.9999947
0.9999891
0.9999904
0.9999967
0.9999957
0.9999591
0.9992177
0.9891282
0.9805254
0.9836762
0.9944863
0.999465
0.9999885
0.999995
0.9999671
0.9996132
0.9994711
0.9996666
0.9998866
0.9999781
0.9999977
0.9999999
1
1
1
1
1
1
1
1
1
1
1
0.9999999
0.999999
0.9999876
0.9999276
0.9999348
0.9999756
0.9999974
0.9999999
1
1
1
1
1
1
1
1
1
1
1
1
0.9999998
0.9999941
0.9998961
0.9988535
0.9966821
0.9966629
0.9966629
0.997439
0.9991912
0.9998504
0.999969
0.9999902
0.9999967
0.9999993
0.9999986
0.9999947
0.9999824
0.9999568
0.999954
0.999976
0.9999918
0.9999987
0.9999999
1
1
1
1
1
1
1
1
1
1
1
1
1
1
1
1
1
1
1
1
1
1
1
1
1
1
1
1
1
1
1
1
1
1
1
1
1
1
1
1
1
1
1
1
1
1
1
1
1
1
1
1
1
1
1
1
1
1
1
1
1
1
1
1
1
1
1
1
1
1
1
1
1
1
1
1
1
1
1
1
1
1
1
1
1
1
1
1
1
1
1
1
1
1
1
1
1
1
1
1
1
1
1
1
1
1
1
1
1
1
1
1
1
1
1
1
1
1
1
1
1
1
1
1
1
1
1
1
1
1
1
1
1
1
1
1
1
1
1
1
1
1
1
1
1
1
1
1
1
1
1
1
1
1
1
1
1
1
1
1
1
1
1
1
1
1
1
1
1
1
1
1
1
1
1
1
1
1
1
1
1
1
1
1
1
1
1
1
1
1
1
1
1
1
1
1
1
1
1
1
1
1
1
1
1
1
1
1
1
1
1
0.9999999
0.9999999
0.9999999
0.9999999
0.9999999
0.9999997
0.9999994
0.9999993
0.9999994
0.9999998
1
1
1
1
1
1
1
1
1
1
1
1
1
1
0.9999995
0.9999915
0.9999371
0.9999123
0.999957
0.9999208
0.9993072
0.9990917
0.9993962
0.9998098
0.9999764
0.999999
0.9999998
0.9999881
0.9999565
0.9999723
0.9999964
0.9999999
0.9999961
0.9999517
0.9997911
0.999468
0.998865
0.9982813
0.9978169
0.9988703
0.9997537
0.9992138
0.9947686
0.9839976
0.9828206
0.9946113
0.9999506
0.9999989
0.9999989
0.9999937
0.9999491
0.9997996
0.9991516
0.9991485
0.9996258
0.9997119
0.999461
0.9986432
0.9995619
0.9992579
0.9984457
0.9988274
0.9998669
0.999777
0.9990086
0.9970278
0.995209
0.9958205
0.9983779
0.9991267
0.9994299
0.9990271
0.9977058
0.9970676
0.9984875
0.9988705
0.9972962
0.9940231
0.9887962
0.9855026
0.9869254
0.9904767
0.993426
0.9969895
0.9987967
0.9988663
0.998241
0.9986311
0.999417
0.9998643
0.9999781
0.999998
0.999998
0.9999958
0.9999838
0.999962
0.9999
0.9997755
0.9997644
0.9998262
0.9999336
0.9999925
0.9999994
0.999993
0.9998548
0.9993062
0.9993593
0.999663
0.9998686
0.9998669
0.9993676
0.9951708
0.9947354
0.9979482
0.9980457
0.9965457
0.9934796
0.9903311
0.9939902
0.9980322
0.999468
0.9998031
0.9999437
0.999984
0.9999914
0.9999913
0.9999844
0.9998414
0.9992779
0.9993784
0.9997569
0.9999721
0.9999992
0.9999994
0.9999978
0.9999891
0.9999203
0.9990016
0.9963741
0.9976691
0.9993253
0.9999327
0.9999972
0.9999992
0.9999994
0.9999983
0.9999876
0.9999787
0.9999868
0.9999883
0.9999883
0.9999679
0.99995
0.99995
0.9999822
0.9999982
0.9999999
1
1
1
1
0.9999993
0.9999929
0.9999514
0.9998161
0.9994918
0.9993107
0.9992274
0.9989933
0.9989933
0.9993222
0.9997679
0.9999676
0.99999
0.9999636
0.9995031
0.991742
0.9170318
0.8753776
0.8954485
0.9457721
0.9718889
0.9842404
0.9936908
0.9938075
0.9758114
0.897188
0.9185842
0.9783837
0.9982889
0.9999648
0.9999985
0.9999985
0.9999984
0.999998
0.9999986
0.9999984
0.9999816
0.9995749
0.991821
0.9805254
0.9810253
0.9925266
0.9991146
0.999979
0.999995
0.9999814
0.999671
0.9987583
0.9988003
0.9992153
0.9997422
0.9999676
0.9999939
0.9999934
0.9999936
0.9999964
0.9999991
0.9999999
1
1
1
1
0.9999999
0.9999999
0.9999999
0.9999999
0.9999988
0.9999744
0.9997976
0.9998032
0.9999147
0.9999884
0.9999997
1
1
1
1
1
1
1
1
1
1
1
1
0.9999996
0.9999918
0.999891
0.9996341
0.9992603
0.997383
0.9971128
0.9982721
0.9995737
0.9998843
0.9999605
0.9999899
0.9999984
0.9999988
0.9999963
0.9999846
0.9999248
0.9997175
0.999588
0.9996992
0.9998976
0.9999888
0.9999997
1
1
1
1
1
1
1
1
1
1
1
1
1
1
1
1
1
1
1
1
1
1
1
1
1
1
1
1
1
1
1
1
1
1
1
1
1
1
1
1
1
1
1
1
1
1
1
1
1
1
1
1
1
1
1
1
1
1
1
1
1
1
1
1
1
1
1
1
1
1
1
1
1
1
1
1
1
1
1
1
1
1
1
1
1
1
1
1
1
1
1
1
1
1
1
1
1
1
1
1
1
1
1
1
1
1
1
1
1
1
1
1
1
1
1
1
1
1
1
1
1
1
1
1
1
1
1
1
1
1
1
1
1
1
1
1
1
1
1
1
1
1
1
1
1
1
1
1
1
1
1
1
1
1
1
1
1
1
1
1
1
1
1
1
1
1
1
1
1
1
1
1
1
1
1
1
1
1
1
1
1
1
1
1
1
1
1
1
1
1
1
1
1
1
1
1
1
1
1
1
1
1
1
1
1
1
1
1
1
1
1
0.9999999
0.9999999
0.9999998
0.9999999
0.9999999
0.9999997
0.9999988
0.9999976
0.9999976
0.9999984
0.9999994
0.9999999
1
1
1
1
1
1
1
1
1
1
0.9999998
0.9999912
0.9998153
0.9988153
0.9984936
0.9992331
0.99975
0.9988475
0.9959381
0.9968097
0.9986
0.9995999
0.9998767
0.99998
0.9999922
0.9998225
0.9998366
0.9999733
0.9999995
0.9999961
0.9999904
0.9999872
0.9999765
0.9999421
0.9998738
0.9996969
0.9993953
0.9992919
0.9998475
0.99925
0.9909206
0.9702288
0.9701815
0.9988215
0.9999925
0.9999991
0.9999875
0.999789
0.9990395
0.9983856
0.9993114
0.9997833
0.9992374
0.9978309
0.9974917
0.9987111
0.9994799
0.9992617
0.9989918
0.9986685
0.9978905
0.9925001
0.9775225
0.9650211
0.973746
0.9877309
0.9847691
0.9795429
0.9741683
0.9743254
0.9832679
0.9936893
0.9981459
0.9968253
0.9930149
0.982649
0.9570155
0.9466832
0.9473379
0.951574
0.9687316
0.9889304
0.9975852
0.9934294
0.9823537
0.98181
0.9901285
0.9979196
0.9998575
0.9999965
0.9999986
0.9999887
0.999822
0.9983565
0.9932796
0.9931261
0.9963508
0.9993576
0.9999778
0.9999994
0.9999994
0.9999948
0.9999075
0.9996049
0.9997128
0.9999368
0.9999793
0.9998536
0.9986756
0.9964563
0.997804
0.9994616
0.9993624
0.9984013
0.9962162
0.9944391
0.9944212
0.9948004
0.9962002
0.9976001
0.9990267
0.9997395
0.999726
0.9995363
0.9992266
0.9992451
0.9996479
0.9998572
0.999968
0.9999974
0.9999996
0.9999995
0.9999988
0.9999956
0.9999668
0.9995213
0.9946022
0.9941378
0.9970875
0.9994921
0.9999731
0.9999993
0.9999996
0.9999979
0.9999945
0.9999821
0.999962
0.9999684
0.9999904
0.999978
0.9999566
0.9999691
0.9999917
0.9999992
1
1
1
1
0.9999998
0.9999975
0.9999686
0.9996773
0.9985752
0.9978242
0.9983447
0.9992821
0.9990405
0.9989933
0.9991391
0.9996689
0.9999591
0.9999764
0.9998564
0.9972389
0.9737209
0.8927287
0.874319
0.8743193
0.8873758
0.9209663
0.9636318
0.9933133
0.9970059
0.9937391
0.9759026
0.9564849
0.9717851
0.9932495
0.9994953
0.9999065
0.999893
0.9998671
0.999925
0.9999892
0.9999851
0.9998583
0.9984455
0.9920855
0.9903741
0.9948744
0.9991197
0.9999655
0.999995
0.9999829
0.9997684
0.9972577
0.9916957
0.9947852
0.9987496
0.9999112
0.9999939
0.9999707
0.9999286
0.9999364
0.999967
0.999993
0.9999993
0.9999999
1
1
0.9999998
0.9999996
0.9999998
0.9999999
0.9999999
0.9999972
0.9999348
0.9995321
0.9995516
0.9998156
0.9999746
0.9999992
1
1
1
1
1
1
1
1
1
1
1
1
0.9999998
0.9999984
0.9999942
0.9999723
0.9998163
0.9998473
0.9999151
0.9998608
0.9998573
0.9999364
0.9999874
0.9999983
0.9999995
0.9999989
0.999995
0.999963
0.999672
0.9985755
0.9984145
0.9990296
0.999736
0.9999722
0.9999987
1
1
1
1
1
1
1
1
1
1
1
1
1
1
1
1
1
1
1
1
1
1
1
1
1
1
1
1
1
1
1
1
1
1
1
1
1
1
1
1
1
1
1
1
1
1
1
1
1
1
1
1
1
1
1
1
1
1
1
1
1
1
1
1
1
1
1
1
1
1
1
1
1
1
1
1
1
1
1
1
1
1
1
1
1
1
1
1
1
1
1
1
1
1
1
1
1
1
1
1
1
1
1
1
1
1
1
1
1
1
1
1
1
1
1
1
1
1
1
1
1
1
1
1
1
1
1
1
1
1
1
1
1
1
1
1
1
1
1
1
1
1
1
1
1
1
1
1
1
1
1
1
1
1
1
1
1
1
1
1
1
1
1
1
1
1
1
1
1
1
1
1
1
1
1
1
1
1
1
1
1
1
1
1
1
1
1
1
1
0.9999999
0.9999999
0.9999999
1
1
1
1
1
1
1
1
1
1
1
1
1
1
1
1
1
1
1
1
1
1
1
1
1
1
1
1
1
1
1
1
1
1
1
1
1
0.9999999
0.9999998
0.9999997
0.9999998
0.9999998
0.9999995
0.9999971
0.9999956
0.9999959
0.9999975
0.9999992
0.9999999
1
1
1
1
1
1
1
1
0.9999985
0.9999208
0.9984142
0.9927148
0.9929857
0.9964663
0.999265
0.9989126
0.9933211
0.9855557
0.9877707
0.9892325
0.9936426
0.99914
0.9999818
0.9998591
0.9997301
0.9999182
0.9999968
0.9999987
0.9999994
0.9999999
0.9999999
0.9999997
0.9999994
0.9999979
0.9999838
0.9999517
0.9999521
0.9999264
0.9976648
0.9773358
0.950304
0.9898743
0.9993357
0.9999969
0.9999879
0.9997392
0.9987376
0.9983856
0.999662
0.9993277
0.9977228
0.9974917
0.9974917
0.9974935
0.9995139
0.9998621
0.9991009
0.9973236
0.9945145
0.9896057
0.983509
0.9797072
0.9775143
0.9713691
0.9695126
0.957953
0.9371074
0.9632254
0.9860445
0.9960833
0.9992866
0.999337
0.9986317
0.9967705
0.9898824
0.9588348
0.9277395
0.9276952
0.9344006
0.9763519
0.9976281
0.9963902
0.9719797
0.9351868
0.9422497
0.9691925
0.9905295
0.9987527
0.9999503
0.9999685
0.9996244
0.9939187
0.9626873
0.957176
0.9798486
0.9972566
0.9999292
0.9999944
0.9999924
0.9999937
0.9999938
0.9999618
0.9999268
0.999959
0.9999936
0.9999857
0.9998597
0.9990943
0.9985894
0.9992986
0.9998685
0.9998186
0.9992369
0.9981114
0.9975433
0.9954802
0.994595
0.994595
0.9947452
0.9978153
0.9984936
0.9967884
0.9968943
0.9986493
0.9998201
0.9999801
0.999979
0.9999869
0.9999973
0.9999996
0.9999994
0.9999977
0.9999938
0.9999715
0.9994933
0.9900919
0.9870237
0.9930621
0.9983304
0.9998112
0.9999916
0.9999989
0.9999991
0.9999953
0.9999723
0.9999628
0.9999659
0.9999859
0.9999889
0.9999854
0.9999892
0.9999965
0.9999995
1
1
1
0.9999999
0.9999991
0.9999832
0.9995788
0.9978014
0.9977731
0.9977731
0.9990773
0.9996729
0.9991107
0.9989933
0.9992107
0.9998025
0.9999763
0.9999545
0.9998189
0.9989208
0.9885331
0.9159369
0.8743196
0.8743196
0.8743196
0.927263
0.98244
0.9972602
0.9983025
0.9978714
0.9709265
0.8185699
0.791972
0.8494221
0.9596223
0.9958839
0.9998125
0.9999904
0.9999991
0.9999976
0.9999831
0.9998839
0.9994072
0.9988854
0.9989489
0.9994694
0.9999213
0.9999899
0.9999366
0.9992516
0.9917137
0.9854019
0.9873359
0.9957505
0.9995612
0.9999846
0.9999888
0.9998702
0.9996105
0.9997759
0.9999374
0.9999847
0.9999938
0.9999975
0.9999995
0.9999998
0.9999994
0.9999992
0.9999996
0.9999999
0.9999997
0.9999945
0.9998893
0.9993957
0.9993094
0.9995205
0.9998651
0.9999872
0.9999997
1
1
1
1
1
1
1
1
1
1
1
1
0.9999999
0.9999998
0.9999991
0.9999995
0.9999998
0.9999999
0.9999999
0.9999997
0.9999995
0.9999995
0.9999998
0.9999998
0.9999989
0.9999878
0.9998318
0.9986
0.9978029
0.9978029
0.9985127
0.9994985
0.9999136
0.999994
0.9999999
1
1
1
0.9999999
0.9999999
0.9999999
1
1
1
1
1
1
1
1
1
1
1
1
1
1
1
1
1
1
1
1
1
1
1
1
1
1
1
1
1
1
1
1
1
1
1
1
1
1
1
1
1
1
1
1
1
1
1
1
1
1
1
1
1
1
1
1
1
1
1
1
1
1
1
1
1
1
1
1
1
1
1
1
1
1
1
1
1
1
1
1
1
1
1
1
1
1
1
1
1
1
1
1
1
1
1
1
1
1
1
1
1
1
1
1
1
1
1
1
1
1
1
1
1
1
1
1
1
1
1
1
1
1
1
1
1
1
1
1
1
1
1
1
1
1
1
1
1
1
1
1
1
1
1
1
1
1
1
1
1
1
1
1
1
1
1
1
1
1
1
1
1
1
1
1
1
1
1
1
1
1
1
1
1
1
1
1
1
1
1
1
1
1
1
1
1
1
1
1
1
1
1
1
1
0.9999999
0.9999999
0.9999999
0.9999999
0.9999999
1
1
1
1
1
1
1
1
1
1
1
1
1
1
1
1
1
1
1
1
1
1
1
1
1
1
1
1
1
1
1
1
1
1
1
1
1
1
0.9999998
0.9999997
0.9999998
0.9999998
0.9999998
0.9999998
0.9999988
0.9999921
0.9999928
0.999997
0.9999994
1
1
1
1
1
1
1
0.9999926
0.9996822
0.9947663
0.9804598
0.9810236
0.9825593
0.9894221
0.9943432
0.9841558
0.8850271
0.748684
0.8507662
0.9759484
0.999194
0.9999932
0.9999577
0.9997301
0.9998481
0.9999794
0.9999984
0.9999999
1
1
1
1
1
1
0.9999998
0.9999978
0.9999947
0.9998158
0.996156
0.9833288
0.9627235
0.9906482
0.9998425
0.9999909
0.9998185
0.9991226
0.9989701
0.9998349
0.999334
0.9974917
0.9974917
0.9974917
0.9979375
0.9996556
0.99994
0.9995988
0.9981281
0.9968272
0.9968608
0.9977424
0.9984844
0.9989023
0.999857
0.9998639
0.9998268
0.9998633
0.999883
0.999904
0.9999218
0.9999388
0.999935
0.999906
0.9998468
0.9997542
0.9993978
0.9938915
0.9764625
0.9810837
0.9916483
0.9986881
0.9989869
0.996274
0.9710143
0.9254394
0.9249051
0.9334214
0.9751803
0.9968965
0.9997999
0.9988767
0.9797633
0.9318278
0.9316055
0.9592976
0.9941521
0.9996766
0.9996034
0.9993957
0.9994418
0.9996286
0.9998107
0.9998785
0.9999359
0.9999878
0.999998
0.9999934
0.9999305
0.9997141
0.9997059
0.999884
0.9999708
0.9999145
0.9997344
0.9995763
0.9991107
0.9981564
0.9949924
0.9957295
0.9986038
0.9986492
0.9967895
0.9967411
0.9972962
0.9992457
0.9999499
0.9999978
0.9999975
0.9999973
0.9999989
0.9999999
0.9999997
0.9999984
0.9999906
0.9999652
0.9997102
0.9985968
0.9861125
0.980978
0.9901555
0.9979766
0.9998268
0.9999942
0.9999984
0.9999962
0.9999775
0.9999659
0.9999728
0.999992
0.9999979
0.9999968
0.9999974
0.999999
0.9999999
1
1
1
0.9999994
0.9999868
0.9994794
0.9977731
0.9977731
0.9977731
0.9986964
0.9998451
0.9997944
0.9991487
0.9992725
0.9997318
0.9999545
0.9999757
0.9999753
0.9999525
0.9995572
0.993891
0.9436706
0.8786497
0.9267592
0.9680251
0.975062
0.9862534
0.9955225
0.9992455
0.9988521
0.9911412
0.8999356
0.7973286
0.8039042
0.9235938
0.9899831
0.9996667
0.9999978
0.9999995
0.9999994
0.9999985
0.9999943
0.9999834
0.9999575
0.9999479
0.9999777
0.9999819
0.9998571
0.9967595
0.9856561
0.9854019
0.9854019
0.9904792
0.9981317
0.9999156
0.9999892
0.9999482
0.9998851
0.9997902
0.9995687
0.9997193
0.9998729
0.9999507
0.9999871
0.9999987
0.9999995
0.9999987
0.9999987
0.9999994
0.9999998
0.9999996
0.9999977
0.9999824
0.9998156
0.9990235
0.9989263
0.9995031
0.9999178
0.9999966
1
1
1
1
1
1
1
1
1
1
1
1
1
1
1
1
1
1
1
1
1
1
1
0.9999998
0.9999977
0.9999828
0.9998891
0.999213
0.9979691
0.9977603
0.9981018
0.9993078
0.9999021
0.9999943
0.9999952
0.9999952
0.9999964
0.9999979
0.9999992
0.9999999
1
1
1
1
1
1
1
1
1
1
1
1
1
1
1
1
1
1
1
1
1
1
1
1
1
1
1
1
1
1
1
1
1
1
1
1
1
1
1
1
0.9999999
0.9999999
1
1
1
1
1
1
1
1
1
1
1
1
1
1
1
1
1
1
1
1
1
1
1
1
1
1
1
1
1
1
1
1
1
1
1
1
1
1
1
1
1
1
1
1
1
1
1
1
1
1
1
1
1
1
1
1
1
1
1
1
1
1
1
1
1
1
1
1
1
1
1
1
1
1
1
1
1
1
1
1
1
1
1
1
1
1
1
1
1
1
1
1
1
1
1
1
1
1
1
1
1
1
1
1
1
1
1
1
1
1
1
1
1
1
1
1
1
1
1
1
1
0.9999999
0.9999999
1
1
1
1
1
1
1
1
1
1
1
1
1
1
1
1
1
1
1
1
1
1
1
1
1
1
1
1
1
1
1
1
1
1
1
1
1
1
1
1
1
1
0.9999999
0.9999999
0.9999999
0.9999999
0.9999999
1
1
1
1
1
1
1
1
1
1
1
1
1
1
1
1
1
1
1
1
1
1
1
1
1
1
1
1
1
1
1
1
0.9999998
0.9999996
0.9999997
0.9999998
0.9999999
0.9999999
0.9999998
0.9999998
0.9999997
0.9999994
0.9999986
0.9999968
0.9999929
0.999988
0.9999867
0.9999878
0.9999919
0.9999974
0.9999997
1
1
1
0.9999999
0.9999837
0.9993731
0.9924848
0.9776022
0.9541553
0.8553955
0.816175
0.9005359
0.8882038
0.5084734
0.5265648
0.8499804
0.9830297
0.9994908
0.999997
0.9999953
0.9998823
0.9997627
0.9998622
0.9999795
0.9999986
0.9999999
1
1
1
1
1
1
1
0.9999999
0.9999988
0.9999908
0.9964287
0.9464829
0.9693744
0.9964888
0.9999721
0.9998963
0.9995083
0.9997183
0.9999487
0.9997433
0.9984789
0.9974917
0.9975704
0.9991837
0.9998949
0.9999311
0.9994885
0.9986487
0.9994938
0.9997904
0.9999479
0.9999857
0.9999926
0.9999954
0.9999956
0.999991
0.9999836
0.9999853
0.9999906
0.9999957
0.999998
0.9999986
0.9999986
0.9999981
0.9999962
0.99999
0.999978
0.9999635
0.9999445
0.999908
0.9998612
0.9998376
0.9998173
0.9996734
0.9972765
0.9643666
0.9267642
0.9425644
0.9839915
0.9985703
0.9950529
0.9480004
0.9316055
0.9352235
0.9738616
0.9954266
0.9946123
0.9880095
0.9861562
0.987624
0.9891509
0.9925332
0.998024
0.9998411
0.9999905
0.999995
0.9999973
0.9999973
0.9999909
0.9999767
0.9999804
0.9999933
0.9999893
0.9999795
0.9999625
0.9999199
0.9996959
0.9987451
0.9987153
0.9993691
0.9996179
0.9992367
0.9970778
0.9968696
0.9985066
0.9998028
0.9999936
0.9999999
0.9999999
0.9999999
0.9999998
0.9999999
0.9999998
0.9999993
0.9999942
0.9999803
0.999908
0.9991602
0.9958938
0.9644653
0.9701293
0.9886642
0.9980804
0.9998776
0.9999959
0.9999966
0.9999844
0.9999795
0.9999906
0.9999986
0.9999998
0.9999996
0.9999997
0.9999999
1
1
1
0.9999998
0.9999934
0.9997801
0.9981775
0.9977731
0.9977731
0.9991388
0.9999048
0.9999719
0.9999186
0.9998865
0.9998655
0.999896
0.9999278
0.9999683
0.9999846
0.9999634
0.9993776
0.993833
0.9906321
0.9922464
0.9961048
0.9906399
0.9808739
0.9901868
0.9982573
0.9998821
0.9999447
0.9999043
0.9996636
0.9986099
0.9955139
0.9946989
0.9974945
0.9995898
0.9999815
0.9999995
0.9999995
0.9999995
0.9999993
0.9999891
0.9998962
0.9997552
0.9997927
0.9997501
0.9981234
0.9884534
0.9854019
0.9854019
0.9854019
0.9941247
0.9993673