/*--------------------------------*- C++ -*----------------------------------*\
| =========                 |                                                 |
| \\      /  F ield         | foam-extend: Open Source CFD                    |
|  \\    /   O peration     | Version:     3.1                                |
|   \\  /    A nd           | Web:         http://www.extend-project.de       |
|    \\/     M anipulation  |                                                 |
\*---------------------------------------------------------------------------*/
FoamFile
{
    version     2.0;
    format      ascii;
    class       volScalarField;
    location    "9.5";
    object      p;
}
// * * * * * * * * * * * * * * * * * * * * * * * * * * * * * * * * * * * * * //

dimensions      [1 -1 -2 0 0 0 0];

internalField   nonuniform List<scalar> 
119952
(
6767.227
6779.174
6867.758
6868.691
6908.71
6888.451
6874.382
6844.886
6806.535
6757.835
6708.128
6656.131
6587.363
6514.392
6438.638
6297.985
6266.419
6109.064
6050.219
5905.242
5875.139
5802.823
5725.661
5744.472
5749.098
5829.423
5833.762
5886.737
5950.628
8149.938
5555.603
5524.888
5489.881
5495.015
5409.385
5449.723
5434.088
5439.109
5303.304
5212.465
5469.474
5445.041
5463.83
5475.544
5497.017
5523.128
5560.508
5608.599
5842.88
5870.779
5858.152
5881.822
5912.369
5949.892
5976.14
6033.189
6005.504
6010.449
5988.943
6021.794
6039.61
6048.266
6070.294
6109.289
6169.796
6240.445
6323.214
6406.424
6485.246
6542.696
6589.936
6614.45
6628.315
6621.945
6603.384
6572.595
6532.952
6486.84
6435.144
6378.034
6312.087
6239.298
6157.403
6067.041
5976.791
5875.117
5773.84
5667.329
5578.516
5496.368
5436.791
5425.3
5438.875
5491.528
5545.712
5618.688
5748.253
5859.198
5943.743
6021.39
6097.633
6166.017
6235.039
6304.09
6365.715
6420.311
6462.64
6494.078
6512.991
6519.275
6511.498
6492.703
6465.652
6433.545
6385.937
6328.665
6272.608
6221.132
6176.933
6132.817
6096.403
6057.54
6025.582
5993.495
5964.092
5941.91
5930.827
5936.732
5963.65
6015.835
6100.008
6199.137
6300.12
6416.832
6535.325
6642.802
6748.436
6838.403
6923.375
7001.11
7065.626
7130.4
7189.234
7242.541
7291.768
7337.899
7375.891
7429.232
7434.819
7478.748
7511.283
7516.143
7515.712
7509.676
7489.028
7472.565
7463.904
7458.729
7460.358
7467.109
7476.319
7484.348
7493.03
7502.398
7511.642
7519.683
7528.806
7538.872
7549.41
7559.492
7569.063
7579.366
7593.453
7610.256
7625.716
7638.032
7646.485
7636.06
7622.83
7598.112
7564.176
7529.684
7485.716
7435.236
7388.825
7321.194
7280.546
7227.096
7187.804
7191.202
7234.426
7292.745
7343.828
7393.976
7440.184
7470.232
7470.751
7508.867
7536.821
7538.279
7531.99
7533.748
7529.267
7552.664
7557.252
7560.773
7563.317
7566.862
7566.652
7565.644
7562.576
7560.621
7560.588
7570.309
7568.214
7554.127
7576.101
7565.263
7565.449
7558.728
7566.131
7563.767
7565.636
7573.077
7581.035
7590.184
7598.818
7611.701
7626.749
7639.112
7651.543
7665.817
7676.346
7692.004
7705.847
7715.019
7724.14
7732.759
7740.964
7746.734
7751.067
7756.365
7759.915
7761.924
7762.724
7763.791
7764.193
7766.029
7766.817
7772.179
7762.858
7755.481
7746.799
7753.536
7737.708
7782.355
7783.102
7762.737
7779.316
7779.521
7774.4
7770.293
7765.554
7761.219
7753.817
7753.694
7737.121
7682.105
7683.988
7686.123
7677.331
7655.026
7620.588
7589.343
7583.429
7590.348
7609.554
7617.807
7620.718
7629.976
7626.788
7609.875
7584.041
7585.697
7587.218
7613.038
7626.09
7624.082
7631.231
7637.815
7639.775
7639.241
7635.384
7631.441
7629.16
7625.231
7621.077
7617.784
7615.508
7609.917
7606.881
7612.837
7620.813
7628.099
7638.782
7648.949
7656.189
7657.237
7662.818
7665.679
7667.66
7668.414
7669.986
7671.966
7673.786
7676.568
7678.647
7678.84
7676.932
7672.438
7665.006
7649.317
7643.707
7611.844
7613.839
7641.403
7653.542
7687.34
7707.264
7725.091
7733.93
7743.288
7747.52
7750.243
7756.511
7749.638
7718.535
7675.047
7662.622
7699.197
7729.764
7762.698
7783.381
7798.897
7811.46
7813.291
7814.009
7815.619
7815.187
7813.413
7808.688
7810.549
7809.988
7779.455
7725.445
7732.27
7771.161
7812.677
7831.901
7842.035
7849.454
7852.549
7856.068
7859.833
7860.13
7854.829
7845.608
7834.912
7816.794
7810.563
7838.047
7862.49
7868.388
7877.302
7878.879
7878.177
7877.889
7879.711
7880.936
7896.591
7883.002
7897.179
7897.138
7898.517
7900.675
7901.432
7902.184
7903.567
7905.064
7904.64
7903.737
7905.933
7907.773
7909.275
7910.274
7910.943
7911.959
7913.439
7914.398
7914.427
7916.373
7920.289
7921.157
7911.254
7891.195
7875.392
6473.379
6374.262
6436.172
6380.023
6310.132
6237.451
6145.273
6071.805
5984.323
5860.571
5633.182
5464.482
5340.525
5235.747
5182.029
5158.983
5156.342
5160.339
5174.127
5182.987
5177.858
5159.903
5142.851
5136.484
5158.045
5194.27
5226.365
5241.985
5260.938
5267.636
5299.112
5318.752
5333.461
5341.877
5339.49
5327.676
5303.216
5275.489
5251.746
5212.629
5194.021
5171.941
5155.9
5125.916
5086.031
5094.666
5109.392
5122.312
5137.494
5157.703
5183.576
5217.067
5258.793
5307.239
5380.6
5471.205
5491.942
5541.98
5584.061
5627.827
5669.684
5695.933
5705.506
5704.502
5699.508
5699.871
5702.915
5701.996
5699.414
5719.367
5764.01
5824.739
5908.981
6003.237
6100.823
6185.307
6252.697
6303.753
6333.527
6344.932
6336.413
6311.449
6271.974
6224.74
6174.218
6117.331
6051.7
5978.028
5897.528
5811.017
5718.438
5617.227
5509.947
5397.888
5288.407
5187.798
5111.494
5066.635
5055.428
5083.375
5146.459
5237.055
5342.666
5451.847
5550.495
5640.898
5727.937
5807.468
5878.366
5948.11
6014.966
6077.645
6131.548
6175.761
6207.689
6224.044
6225.978
6213.861
6183.247
6136.286
6089.26
6041.522
5991.666
5938.69
5890.591
5848.971
5810.737
5774.061
5739.61
5705.143
5668.229
5634.099
5606.791
5590.001
5597.303
5629.171
5683.768
5764.834
5869.541
5985.471
6108.882
6227.543
6338.651
6442.792
6535.907
6622.216
6698.824
6770.12
6834.29
6892.02
6943.733
6988.264
7029.398
7067.598
7103.173
7133.935
7162.693
7180.693
7183.781
7176.284
7167.26
7152.013
7142.542
7140.624
7151.62
7157.502
7163.818
7171.418
7180.05
7189.234
7197.369
7204.677
7213.201
7221.479
7230.95
7240.844
7252.094
7262.814
7272.998
7292.726
7314.883
7326.962
7335.667
7346.639
7338.778
7318.899
7288.461
7248.112
7206.953
7154.706
7104.194
7047.081
6986.562
6927.552
6871.011
6840.516
6863.353
6926.742
6995.248
7051.396
7078.213
7132.401
7186.736
7173.466
7243.918
7248.871
7246.283
7248.166
7257.454
7268.142
7276.473
7282.682
7286.685
7289.527
7290.598
7289.529
7288.547
7286.582
7287.01
7292.086
7293.949
7293.491
7290.714
7283.108
7283.635
7283.764
7279.858
7281.531
7284.845
7289.676
7297.084
7304.76
7314.489
7326.771
7340.252
7352.848
7365.807
7379.537
7392.737
7406.58
7420.054
7433.297
7443.437
7450.609
7459.659
7466.991
7473.121
7477.767
7481.916
7485.454
7487.577
7489.102
7490.228
7491.098
7491.888
7492.371
7496.689
7479.051
7476.254
7469.931
7480.673
7491.202
7503.058
7512.191
7508.424
7505.071
7502.483
7498.115
7493.773
7489.653
7484.791
7476.473
7467.185
7455.574
7374.492
7377.215
7382.878
7372.675
7338.329
7296.275
7264.021
7261.391
7284.06
7302.43
7312.04
7316.55
7321.57
7318.493
7303.032
7285.483
7281.759
7294.573
7310.397
7317.861
7321.219
7324.414
7327.535
7329.399
7329.289
7326.225
7321.721
7317.647
7313.926
7310.762
7308.392
7306.179
7302.063
7300.086
7308.735
7318.449
7326.381
7334.53
7342.644
7348.492
7352.154
7354.15
7356.158
7358.699
7360.764
7362.868
7364.661
7367.093
7370.084
7371.453
7369.561
7368.129
7364.58
7355.554
7344.539
7325.677
7304.975
7304.95
7333.327
7362.165
7385.934
7405.057
7418.236
7428.133
7435.481
7439.765
7444.622
7443.447
7433.34
7403.537
7367.765
7369.451
7390.719
7419.965
7454.432
7478.805
7490.674
7496.807
7499.457
7502.656
7507.271
7508.563
7506.596
7501.098
7499.167
7498.703
7477.533
7450.813
7449.721
7471.281
7499.528
7519.594
7534.187
7540.24
7542.714
7545.318
7548.06
7549.386
7546.726
7539.059
7530.544
7526.565
7525.56
7536.008
7553.247
7562.822
7567.283
7569.014
7570.741
7572.384
7574.607
7577.648
7581.136
7583.898
7586.069
7588.153
7590.012
7591.684
7593.251
7594.424
7595.619
7596.664
7597.72
7598.718
7599.701
7600.692
7601.522
7602.108
7602.786
7603.547
7604.3
7605.098
7605.945
7606.377
7605.821
7603.031
7597.294
7588.956
7583.558
4135.664
4303.267
4426.523
4512.517
4702.035
4766.057
4863.884
4919.439
4936.513
4846.873
5029.737
4962.219
4916.57
4845.643
4744.842
4657.256
4569.781
4473.71
4426.971
4308.331
4283.311
4298.348
4354.49
4455.777
4591.76
4739.231
4916.333
5159.02
5447.985
5656.157
5904.292
6094.58
6243.413
6343.384
6397.11
6425.121
6426.992
6367.532
6306.854
6264.04
6205.337
6126.62
6047.736
5953.222
5862.825
5768.362
5620.971
5435.146
5265.791
5113.01
4988.321
4902.548
4857.637
4844.9
4855.488
4875.226
4822.061
4835.166
4829.772
4818.31
4806.102
4812.87
4842.796
4879.115
4912.655
4939.118
4964.875
4986.889
5003.604
5021.526
5036.27
5046.791
5045.001
5028.446
4997.809
4950.273
4898.744
4855.583
4822.47
4792.603
4766.793
4747.936
4740.452
4743.497
4750.558
4763.069
4786.544
4819.416
4857.111
4904.984
4963.632
5030.282
5099.917
5163.459
5228.544
5289.413
5345.221
5388.548
5423.706
5452.401
5483.966
5494.521
5488.509
5476.622
5453.763
5431.487
5416.555
5421.725
5455.578
5513.067
5601.856
5708.714
5821.06
5923.026
6005.655
6064.549
6096.794
6106.481
6096.924
6070.597
6031.379
5980.475
5925.371
5865.717
5797.546
5720.986
5637.861
5549.053
5452.18
5346.619
5233.401
5112.17
4995.921
4887.52
4802.73
4754.344
4745.362
4776.243
4843.335
4940.72
5061.933
5182.596
5294.09
5390.777
5478.2
5558.537
5633.08
5705.397
5775.663
5843.211
5906.553
5950.728
5979.935
5992.177
5987.762
5966.578
5928.091
5885.008
5842.392
5798.241
5741.662
5677.907
5634.632
5598.029
5560.159
5526.649
5492.754
5456.124
5415.601
5374.134
5336.606
5310.018
5302.992
5327.194
5380.469
5463.32
5572.065
5695.814
5824.291
5949.588
6064.837
6169.634
6264.259
6350.494
6429.617
6503.758
6571.509
6631.323
6683.633
6726.246
6765.386
6801.967
6836.898
6866.364
6888.784
6898.627
6897.329
6883.076
6860.143
6864.852
6880.626
6898.336
6902.103
6912.133
6925.361
6924.915
6929.829
6939.696
6948.301
6957.129
6966.842
6976.935
6987.978
6999.538
7011.084
7022.667
7033.383
7045.757
7056.755
7069.704
7105.366
7134.941
7109.927
7080.042
7045.733
7003.302
6953.266
6900.874
6847.902
6786.541
6710.353
6651.745
6597.045
6575.126
6588.64
6662.829
6715.009
6772.13
6843.411
6889.345
6913.51
6931.253
6934.408
6938.046
6942.519
6950.625
6958.884
6967.542
6974.523
6979.298
6980.761
6981.91
6983.734
6983.872
6983.434
6982.785
6983.638
6985.014
6985.182
6983.155
6979.642
6976.498
6975.273
6974.403
6973.203
6974.029
6977.547
6982.999
6989.473
6997.988
7008.516
7021.425
7034.504
7048.248
7061.094
7075.749
7089.587
7102.981
7115.695
7129.815
7139.179
7147.792
7155.565
7162.522
7168.372
7173.138
7176.749
7179.57
7182.045
7183.889
7185.014
7185.389
7185.461
7185.181
7183.752
7180.694
7176.489
7175.346
7180.635
7189.347
7195.567
7198.157
7197.962
7195.653
7192.382
7188.441
7184.609
7179.869
7173.588
7165.693
7157.355
7149.589
7143.14
7137.678
7133.854
7122.89
7095.53
7059.413
7030.941
7023.432
7038.577
7053.445
7063.398
7069.221
7074.107
7073.175
7061.077
7046.524
7040.884
7043.398
7052.081
7059.53
7064.213
7067.924
7070.596
7072.794
7074.301
7075.2
7076.534
7076.844
7073.98
7070.846
7068.843
7066.17
7061.524
7058.724
7060.843
7065.854
7071.948
7078.671
7085.91
7093.085
7098.844
7103.955
7108.023
7111.428
7114.224
7116.734
7118.689
7120.627
7122.188
7122.93
7121.854
7118.972
7116.437
7111.558
7102.412
7092.508
7084.124
7082.284
7101.065
7123.195
7142.373
7156.668
7168.488
7178.373
7187.402
7193.375
7194.977
7192.394
7182.697
7168.251
7155.89
7160.823
7179.307
7197.803
7218.459
7232.031
7242.02
7247.259
7248.437
7252.698
7257.507
7257.697
7255.499
7253.11
7250.781
7245.618
7237.645
7224.605
7228.831
7244.778
7265.875
7278.914
7287.955
7294.454
7297.569
7299.464
7300.663
7299.706
7297.41
7294.389
7290.411
7288.446
7290.319
7300.702
7310.58
7316.37
7319.338
7322.429
7325.095
7327.025
7329.761
7333.115
7336.187
7338.927
7341.303
7343.362
7345.08
7346.244
7346.985
7347.651
7348.275
7349.174
7350.181
7351.142
7352.041
7352.839
7353.644
7354.495
7355.299
7356.092
7356.808
7357.286
7357.429
7357.124
7356.063
7353.952
7350.531
7345.945
7341.799
3061.107
3000.065
2781.846
3144.579
3121.996
3169.833
3152.489
3210.68
3293.724
3359.165
3458.886
3572.622
3699.425
3871.73
4046.378
4220.092
4365.259
4475.53
4568.696
4648.585
4705.436
4747.707
4749.208
4709.447
4654.244
4551.665
4459.577
4378.401
4283.488
4194.299
4110.05
3964.514
3947.575
3967.521
4020.923
4109.944
4233.765
4385.268
4575.946
4832.023
5117.211
5397.833
5642.392
5832.565
5985.396
6074.909
6128.576
6153.929
6150.964
6109.607
6042.818
5973.484
5899.274
5808.7
5706.146
5589.346
5447.331
5307.118
5135.775
4956.25
4786.365
4640.437
4532.129
4463.869
4435.741
4434.751
4456.997
4489.731
4497.581
4511.767
4524.397
4520.51
4520.983
4541.478
4581.656
4624.527
4666.339
4702.205
4725.324
4738.012
4755.064
4774.94
4793.386
4805.828
4806.704
4777.582
4725.352
4668.257
4607.967
4554.986
4515.271
4481.858
4454.715
4440.056
4438.557
4447.468
4460.072
4476.737
4503.388
4542.49
4588.237
4641.548
4705.004
4773.86
4846.429
4921.785
4993.666
5057.477
5119.171
5166.955
5203.099
5237.789
5248.561
5246.879
5232.049
5207.97
5182.764
5148.623
5121.869
5113.987
5129.46
5177.397
5265.303
5383.727
5512.939
5634.072
5732.441
5802.944
5846.658
5866.446
5860.374
5826.352
5774.894
5718.535
5662.582
5602.48
5531.907
5449.598
5358.646
5263.95
5166.551
5060.647
4942.56
4817.574
4695.284
4580.205
4488.138
4438.351
4434.074
4473.361
4554.174
4665.549
4806.081
4928.783
5041.364
5139.269
5228.098
5310.662
5390.637
5468.058
5535.63
5603.74
5667.959
5723.376
5754.174
5761.512
5749.722
5727.128
5692.234
5647.795
5598.426
5544.024
5482.173
5423.826
5383.033
5348.727
5316.173
5285.555
5252.032
5209.966
5162.073
5109.736
5056.894
5016.569
4998.358
5012.551
5060.379
5144.264
5260.839
5394.152
5534.523
5668.868
5789.725
5896.181
5989.283
6073.352
6151.426
6225.174
6294.307
6357.488
6411.97
6456.043
6492.124
6526.259
6558.12
6588.465
6612.279
6618.139
6616.284
6605.376
6590.269
6588.547
6617.151
6647.557
6658.162
6666.357
6661.807
6665.054
6678.62
6690.902
6699.916
6708.456
6717.791
6727.431
6737.076
6747.249
6757.737
6769.223
6783.764
6801.106
6817.017
6825.582
6845.714
6872.605
6867.042
6830.488
6783.95
6734.893
6685.241
6632.561
6578.518
6505.458
6433.811
6394.588
6345.624
6327.212
6362.966
6434.936
6502.871
6566.085
6628.5
6637.301
6644.272
6680.109
6669.671
6669.764
6688.94
6701.137
6715.483
6725.927
6729.031
6732.885
6736.201
6738.927
6740.523
6739.906
6738.555
6737.824
6738.219
6738.977
6738.91
6737.507
6735.014
6730.874
6728.721
6726.878
6724.432
6725.187
6728.459
6732.64
6739.05
6747.349
6758.152
6771.533
6785.207
6799.543
6813.914
6828.589
6843.086
6854.642
6871.675
6883.049
6890.366
6899.291
6910.015
6918.31
6924.303
6928.6
6932.084
6935.142
6937.151
6938.671
6939.801
6940.487
6940.522
6939.913
6938.443
6936.404
6934.724
6934.354
6937.251
6942.477
6946.945
6948.868
6948.841
6947.459
6944.871
6941.444
6937.373
6932.464
6926.54
6919.105
6910.997
6902.788
6894.072
6887.165
6880.546
6869.776
6851.202
6828.067
6809.592
6802.446
6806.397
6814.183
6818.165
6819.741
6821.151
6819.971
6814.838
6806.715
6802.338
6805.61
6813.032
6819.25
6823.54
6826.506
6827.773
6827.948
6827.987
6828.167
6826.696
6824.18
6821.738
6819.385
6818.16
6817.791
6815.918
6814.869
6818.187
6824.543
6830.862
6836.548
6842.404
6848.105
6853.007
6856.738
6859.465
6861.798
6864.452
6867.212
6868.994
6870.631
6872.191
6873.156
6872.024
6870.837
6870.207
6869.319
6863.127
6856.854
6853.231
6850.34
6861.255
6876.68
6893.601
6907.172
6918.418
6927.683
6934.522
6938.466
6941.937
6942.616
6941.753
6937.195
6933.93
6934.857
6944.133
6954.412
6964.198
6971.707
6980.877
6991.694
7001.189
7007.679
7010.83
7011.64
7008.248
7007.37
7006.377
7003.177
7001.86
6999.43
7003.301
7011.304
7020.344
7026.11
7032.701
7040.865
7045.966
7049.678
7051.907
7053.431
7053.286
7051.52
7049.832
7049.76
7051.985
7057.076
7062.977
7068.445
7072.781
7076.806
7079.527
7081.044
7083.475
7086.313
7089.014
7091.435
7093.447
7095.221
7096.907
7098.314
7099.52
7100.649
7101.808
7102.858
7103.883
7104.87
7105.777
7106.569
7107.279
7107.966
7108.569
7109.121
7109.547
7109.757
7109.663
7109.252
7108.402
7106.96
7104.873
7102.201
7100.279
2815.283
2793.048
2778.081
2774.471
2766.687
2753.689
2747.518
2711.042
2729.255
2756.202
2720.326
2757.94
2774.398
2767.628
2811.538
2804.012
2799.485
2819.669
2844.286
2885.536
2968.354
3085.23
3225.804
3399.171
3574.157
3747.324
3925.275
4078.42
4205.443
4310.213
4391.602
4434.437
4451.347
4463.508
4434.428
4351.575
4250.188
4152.35
4053.799
3946.091
3839.667
3724.342
3613.012
3583.185
3612.945
3671.82
3762.256
3899.746
4044.099
4217.986
4454.355
4739.006
5025.926
5285.789
5515.558
5700.86
5828.207
5881.411
5901.925
5911.19
5869.944
5796.106
5728.24
5654.974
5565.197
5455.316
5314.605
5140.87
4949.672
4747.109
4549.211
4373.189
4229.689
4126.429
4064.393
4039.281
4051.14
4087.746
4129.426
4164.846
4200.589
4232.589
4255.518
4270.907
4297.616
4340.37
4383.798
4436.684
4471.117
4487.428
4490.443
4498.176
4516.758
4539.504
4554.286
4542.554
4496.77
4425.683
4354.211
4290.523
4238.664
4194.021
4158.431
4137.109
4131.006
4136.636
4152.42
4174.039
4199.878
4234.48
4279.654
4334.606
4397.565
4469.008
4545.539
4624.668
4699.238
4768.635
4835.28
4897.57
4947.028
4988.24
5027.093
5032.325
5019.021
4996.019
4962.2
4928.814
4888.187
4846.663
4817.918
4809.254
4834.24
4912.648
5034.522
5175.646
5314.832
5433.645
5516.771
5559.804
5568.67
5556.316
5530.842
5494.326
5443.885
5381.529
5312.638
5238.824
5160.086
5075.274
4983.887
4881.505
4768.127
4647.308
4523.07
4399.577
4284.56
4194.192
4145.958
4146.765
4192.547
4274.12
4391.456
4530.795
4665.112
4784.769
4887.117
4978.517
5062.883
5140.044
5214.267
5286.973
5359.287
5427.007
5482.845
5519.225
5530.629
5518.502
5496.532
5460.979
5408.543
5356.498
5309.416
5258.451
5205.698
5142.025
5101.061
5073.253
5045.656
5014.223
4967.128
4908.419
4838.951
4768.647
4707.868
4674.503
4677.76
4720.382
4806.379
4934.708
5084.213
5238.782
5384.947
5514.437
5624.367
5716.131
5797.573
5872.59
5943.931
6012.515
6077.642
6135.785
6183.805
6217.642
6248.744
6279.466
6308.959
6333.248
6338.972
6341.942
6345.391
6338.167
6332.652
6360.026
6396.747
6410.143
6416.587
6418.299
6421.296
6431.959
6443.196
6452.052
6459.973
6468.6
6476.948
6486.754
6496.813
6506.976
6519.092
6531.816
6546.318
6567.158
6599.308
6597.266
6575.236
6581.807
6574.106
6531.959
6477.852
6421.382
6364.792
6300.639
6240.863
6189.233
6143.492
6124.774
6126.061
6158.815
6217.334
6291.126
6331.087
6362.079
6385.375
6401.518
6427.626
6431.208
6440.824
6444.445
6445.981
6457.875
6470.873
6483.254
6492.932
6497.517
6495.131
6494.752
6496.599
6496.903
6495.043
6493.907
6493.825
6493.527
6491.903
6488.834
6484.956
6481.645
6478.82
6476.99
6476.296
6477.865
6482.267
6488.022
6496.266
6507.645
6521.053
6535.212
6549.598
6565.531
6582.2
6597.095
6610.709
6626.128
6637.586
6643.276
6653.636
6665.793
6674.521
6680.18
6683.762
6686.955
6690.082
6692.139
6694.019
6695.569
6696.586
6696.951
6696.748
6696.244
6695.243
6694.287
6694.29
6695.924
6699.436
6702.86
6704.32
6703.88
6702.204
6699.315
6695.61
6691.19
6685.872
6679.729
6672.746
6664.957
6657.44
6650.176
6642.318
6633.479
6623.713
6609.761
6591.914
6575.905
6567.4
6567.072
6569.593
6571.919
6572.471
6572.311
6571.705
6568.853
6564.646
6561.194
6560.825
6563.492
6567.49
6570.086
6572.109
6573.764
6574.727
6575.546
6576.146
6576.044
6575.875
6575.243
6574.505
6573.845
6573.11
6572.324
6572.344
6574.897
6579.359
6583.609
6587.477
6592.038
6597.154
6601.896
6605.767
6609.384
6612.715
6615.88
6618.63
6620.773
6622.508
6623.728
6624.797
6624.746
6624.801
6625.197
6626.571
6622.728
6617.559
6617.5
6620.417
6627.523
6637.791
6649.537
6661.83
6672.586
6681.416
6688.264
6693.234
6695.749
6697.787
6698.11
6696.924
6695.263
6695.177
6702.421
6708.965
6717.043
6728.109
6738.841
6748.464
6756.963
6760.001
6761.223
6763.661
6761.454
6760.726
6761.96
6761.411
6761.495
6761.104
6764.543
6769.633
6775.719
6780.988
6785.991
6792.087
6798.238
6802.853
6806.19
6807.716
6808.229
6807.908
6807.491
6807.914
6809.854
6813.787
6818.926
6823.855
6828.011
6831.361
6833.75
6835.291
6837.215
6840.281
6843.53
6846.364
6848.442
6849.899
6851.202
6852.524
6853.778
6855.012
6855.897
6856.706
6857.556
6858.487
6859.286
6859.918
6860.402
6860.874
6861.339
6861.821
6862.157
6862.26
6862.109
6861.76
6861.187
6860.359
6859.152
6857.516
6856.305
2890.826
2909.703
2929.997
2865.41
2832.603
2754.826
2705.914
2656.025
2600.174
2555.543
2524.673
2504.096
2493.99
2494.009
2499.671
2456.283
2438.235
2413.468
2405.81
2389.944
2393.073
2411.796
2422.053
2428.251
2470.106
2533.39
2501.809
2478.663
2552.718
2606.781
2677.698
2790.237
2934.854
3108.016
3288.744
3489.931
3660.094
3799.743
3942.973
4061.791
4138.585
4186.558
4214.966
4218.815
4193.689
4121.267
4014.386
3902.019
3786.176
3662.122
3541.229
3422.005
3340.07
3311.404
3325.098
3377.881
3465.942
3583.77
3713.746
3865.893
4078.734
4340.688
4581.88
4799.201
5003.219
5178.831
5325.777
5434.913
5548.044
5620.065
5582.91
5507.955
5441.526
5368.599
5281.495
5160.075
5000.161
4798.822
4561.255
4322.066
4098.049
3906.154
3760.739
3661.996
3609.485
3596.578
3623.824
3677.74
3743.413
3810.095
3880.589
3945.019
3999.405
4047.901
4098.09
4152.875
4206.406
4240.262
4257.445
4257.141
4243.574
4234.434
4242.911
4263.879
4274.546
4244.044
4176.766
4096.006
4016.923
3953.468
3904.213
3866.205
3838.735
3825.741
3827.858
3838.757
3859.819
3890.595
3927.751
3973.948
4030.061
4091.068
4160.645
4238.303
4316.23
4398.864
4476.724
4544.941
4613.197
4679.179
4727.872
4765.694
4798.716
4807.994
4786.364
4756.752
4724.623
4680.786
4627.731
4574.907
4531.799
4505.235
4501.33
4564.356
4681.43
4822.518
4964.773
5091.709
5182.754
5235.216
5252.681
5241.22
5208.796
5166.086
5118.336
5065.898
5007.005
4935.912
4853.448
4764.468
4668.989
4567.516
4462.401
4353.003
4236.473
4117.486
4007.099
3918.452
3872.151
3877.985
3925.587
4014.11
4138.22
4281.729
4419.454
4538.266
4639.481
4726.775
4806.793
4884.324
4959.763
5034.678
5108.805
5175.888
5231.111
5274.163
5288.259
5285.899
5267.71
5231.198
5183.147
5133.747
5082.11
5019.07
4953.324
4903.227
4873.581
4844.356
4812.893
4771.795
4713.34
4638.068
4553.041
4466.634
4393.149
4345.606
4335.619
4373.797
4463.436
4605.724
4772.252
4940.959
5099.758
5237.773
5351.52
5444.883
5525.266
5598.058
5666.803
5731.637
5797.445
5858.293
5911.361
5948.86
5977.096
6004.893
6031.275
6056.54
6074.188
6088.505
6102.37
6102.026
6107.149
6119.356
6148.628
6163.728
6161.493
6166.41
6171.264
6182.197
6193.906
6203.265
6212.314
6221.274
6229.173
6238.507
6248.778
6258.626
6267.807
6280.654
6299.317
6319.426
6342.217
6332.417
6303.812
6296.931
6294.545
6271.392
6222.46
6160.495
6113.224
6075.252
6030.441
5973.918
5925.365
5924.294
5938.515
5960.08
5993.035
6036.63
6067.858
6092.398
6126.189
6158.34
6191.557
6215.769
6217.688
6210.965
6209.791
6210.708
6214.351
6224.561
6234.676
6241.207
6248.798
6254.351
6253.32
6251.071
6249.396
6249.951
6250.172
6248.283
6245.714
6242.428
6238.093
6233.934
6229.898
6227.343
6224.308
6223.575
6226.931
6231.475
6239.636
6252.61
6267.067
6283.439
6297.08
6313.321
6333.346
6349.717
6364.254
6377.585
6392.136
6401.614
6410.719
6420.545
6427.624
6432.815
6436.767
6440.216
6443.879
6446.984
6449.513
6451.412
6452.682
6453.173
6453.068
6452.647
6452.031
6451.717
6451.966
6452.806
6454.716
6456.666
6457.287
6456.387
6454.312
6451.493
6447.964
6443.58
6438.34
6432.609
6426.126
6418.678
6411.113
6403.591
6395.113
6386.147
6376.991
6365.443
6351.181
6338.747
6331.472
6329.275
6329.3
6329.939
6329.287
6327.389
6325.292
6323.582
6321.617
6318.78
6316.097
6315.567
6319.447
6323.072
6324.501
6325.709
6326.678
6327.56
6328.217
6328.195
6327.613
6327.008
6326.117
6325.375
6325.315
6325.617
6326.508
6328.822
6332.405
6336.466
6340.791
6345.335
6350.012
6354.49
6358.448
6361.979
6365.136
6367.721
6370.224
6372.375
6374.289
6375.737
6376.917
6377.695
6378.266
6379.23
6381.312
6380.165
6376.765
6377.2
6383.055
6390.16
6397.304
6405.096
6414.984
6424.974
6432.74
6437.978
6442.078
6445.707
6448.693
6451.447
6452.842
6452.311
6454.986
6461.958
6468.913
6477.353
6487.129
6494.861
6501.501
6507.582
6510.839
6512.84
6514.814
6514.52
6514.551
6516.585
6517.51
6518.533
6519.849
6523.08
6527.451
6532.486
6537.319
6541.404
6546.751
6552.153
6555.163
6557.539
6560.305
6562.401
6563.703
6564.558
6565.524
6567.415
6570.485
6574.162
6578.366
6582.782
6586.119
6588.502
6590.509
6592.452
6594.823
6597.123
6599.314
6601.202
6602.667
6603.919
6605.215
6606.434
6607.275
6608.076
6609.322
6610.926
6611.95
6612.563
6613.028
6613.454
6613.929
6614.359
6614.723
6614.966
6614.996
6614.858
6614.594
6614.231
6613.733
6612.956
6612.105
6611.482
2655.989
2629.761
2634.051
2639.711
2633.116
2628.75
2626.328
2624.273
2603.626
2563.286
2432.049
2385.455
2321.247
2255.976
2215.905
2182.898
2170.951
2173.231
2159.784
2157.023
2195.46
2206.418
2184.173
2146.156
2111.685
2121.17
2148.401
2163.618
2168.562
2148.863
2151.025
2182.752
2198.406
2243.433
2299.574
2352.54
2469.569
2617.072
2801.951
2996.34
3195.597
3382.241
3533.18
3674.707
3798.363
3881.617
3929.133
3956.819
3954.426
3926.018
3863.564
3766.682
3653.096
3527.467
3397.62
3274.616
3162.352
3061.829
3022.061
3022.121
3065.229
3156.112
3265.684
3386.939
3521.051
3693.989
3904.723
4080.546
4204.517
4307.687
4419.888
4526.97
4655.7
4827.909
4987.749
5112.329
5159.941
5116.783
5046.303
4955.236
4825.515
4641.098
4400.376
4120.456
3837.984
3583.22
3379.891
3235.615
3147.109
3107.518
3112.516
3152.637
3228.533
3332.363
3444.913
3554.882
3667.113
3759.856
3844.879
3918.381
3980.342
4027.38
4049.444
4045.375
4016.714
3977.433
3947.957
3945.916
3965.634
3954.519
3907.22
3828.954
3743.144
3665.569
3603.119
3558.442
3533.812
3517.678
3513.528
3525.269
3547.543
3576.81
3615.798
3663.713
3719.785
3786.485
3854.951
3930.286
4014.449
4094.296
4176.08
4258.836
4327.527
4389.736
4456.514
4511.136
4545.055
4574.034
4583.961
4560.03
4520.843
4476.069
4419.397
4356.865
4298.492
4247.781
4208.06
4180.359
4221.022
4324.376
4454.859
4594.229
4722.657
4810.585
4859.66
4875.936
4864.327
4833.766
4799.579
4766.242
4724.826
4666.778
4599.062
4529.033
4450.07
4357.877
4259.054
4158.336
4054.753
3946.089
3841.328
3747.773
3673.816
3639.235
3652.904
3704.648
3791.188
3908.386
4045.826
4179.463
4294.75
4391.222
4475.582
4553.475
4629.093
4703.037
4778.353
4852.202
4917.389
4979.801
5027.889
5050.975
5055.795
5041.527
5009.132
4960.441
4908.568
4853.167
4794.741
4744.467
4697.41
4650.708
4611.683
4572.315
4522.064
4454.964
4370.618
4275.096
4180.625
4102.409
4049.741
4032.743
4052.627
4134.151
4287.512
4467.976
4650.502
4818.402
4963.072
5079.581
5174.128
5254.243
5326.174
5393.708
5456.753
5520.268
5585.064
5643.505
5691.328
5722.672
5748.421
5770.897
5794.51
5819.763
5843.638
5863.269
5873.259
5889.248
5899.609
5915.735
5926.612
5923.006
5925.215
5927.095
5936.059
5947.425
5957.56
5965.96
5973.993
5982.182
5990.355
5999.377
6008.852
6020.038
6034.361
6049.94
6059.839
6064.524
6056.432
6038.569
6019.849
6005.638
5992.643
5965.237
5929.887
5897.496
5870.484
5816.103
5758.549
5721.923
5716.24
5723.965
5742.285
5769.776
5800.467
5835.261
5866.342
5893.333
5920.761
5939.749
5958.443
5967.979
5968.145
5971.212
5975.16
5978.829
5983.03
5984.244
5987.625
5994.333
6003.197
6010.148
6009.334
6006.204
6004.048
6002.823
6002.196
6001.388
5996.335
5990.58
5985.034
5979.583
5974.907
5971.462
5971.158
5973.107
5977.753
5986.161
5997.123
6011.214
6028.925
6042.151
6062.611
6081.555
6093.565
6108.273
6126.446
6139.48
6146.256
6158.646
6170.508
6176.97
6181.846
6186.614
6191.279
6197.138
6201.881
6205.366
6207.125
6209.116
6210.578
6210.871
6210.204
6209.561
6209.402
6209.75
6210.42
6211.438
6212.493
6212.633
6211.574
6209.339
6206.197
6202.474
6197.971
6192.628
6186.629
6180.082
6172.758
6165.117
6157.599
6149.485
6140.584
6131.466
6121.444
6110.1
6099.442
6092.182
6088.209
6085.883
6084.079
6082.614
6081.097
6079.428
6078.012
6076.327
6074.823
6072.459
6069.598
6069.964
6072.723
6075.035
6076.465
6077.217
6077.622
6077.803
6077.78
6077.769
6077.681
6077.563
6077.74
6078.367
6079.182
6080.456
6082.8
6086.149
6089.825
6093.598
6097.419
6101.293
6105.291
6108.924
6112.351
6115.504
6118.519
6121.124
6123.943
6126.26
6127.953
6129.356
6130.772
6131.945
6133.834
6136.592
6136.606
6136.227
6138.502
6143.643
6150.712
6156.51
6163.424
6171.234
6179.05
6185.143
6190.021
6194.713
6198.92
6202.33
6204.896
6207.546
6210.446
6214.358
6220.281
6226.923
6234.444
6241.883
6248.258
6254.119
6259.264
6263.041
6265.771
6267.978
6269.232
6270.303
6272.113
6273.746
6275.651
6277.905
6281.06
6284.975
6289.333
6293.762
6298.107
6303.334
6307.578
6309.36
6311.116
6313.843
6316.578
6318.723
6320.565
6322.338
6324.331
6326.926
6330.157
6333.806
6337.539
6340.846
6343.51
6345.82
6347.685
6349.087
6350.568
6352.381
6354.426
6356.247
6357.728
6359.624
6361.313
6362.367
6362.669
6363.136
6364.176
6365.105
6365.603
6366.047
6366.591
6367.205
6367.739
6367.95
6367.937
6367.875
6367.763
6367.644
6367.462
6367.206
6366.811
6366.362
6365.879
2402.392
2374.745
2310.955
2311.506
2307.531
2309.529
2317.5
2325.031
2312.482
2275.784
2227.467
2151.569
2058.197
1981.604
1947.154
1915.217
1889.108
1871.887
1858.119
1878.651
1908.266
1913.499
1901.3
1881.762
1872.849
1878.664
1903.683
1916.659
1916.539
1890.004
1867.638
1889.72
1962.175
1930.519
1940.738
2015.736
2136.706
2295.674
2475.097
2675.428
2872.438
3060.404
3231.412
3376.857
3501.481
3581.997
3624.639
3647.473
3641.066
3611.774
3558.3
3472.629
3360.746
3233.979
3099.602
2976.33
2869.434
2782.025
2748.923
2749.892
2793.473
2888.521
2997.349
3111.725
3239.199
3368.644
3489.662
3571.532
3597.647
3603.494
3612.133
3639.346
3693.985
3822.624
4094.014
4377.571
4565.815
4653.803
4644.09
4561.248
4433.817
4233.582
3956.674
3620.39
3284.213
2999.139
2792.864
2652.143
2574.059
2556.168
2585.63
2653.492
2757.197
2896.97
3065.979
3228.973