/*--------------------------------*- C++ -*----------------------------------*\
| =========                 |                                                 |
| \\      /  F ield         | foam-extend: Open Source CFD                    |
|  \\    /   O peration     | Version:     3.1                                |
|   \\  /    A nd           | Web:         http://www.extend-project.de       |
|    \\/     M anipulation  |                                                 |
\*---------------------------------------------------------------------------*/
FoamFile
{
    version     2.0;
    format      ascii;
    class       volScalarField;
    location    "9.5";
    object      pd;
}
// * * * * * * * * * * * * * * * * * * * * * * * * * * * * * * * * * * * * * //

dimensions      [1 -1 -2 0 0 0 0];

internalField   nonuniform List<scalar> 
119952
(
6797.922
6816.589
6904.552
6902.218
6939.422
6919.802
6906.347
6877.464
6839.726
6791.639
6742.545
6691.161
6623.007
6550.649
6475.507
6335.468
6304.515
6147.773
6089.541
5945.177
5910.428
5838.373
5761.469
5775.134
5779.76
5860.085
5864.424
5917.399
5981.322
8180.633
5846.088
5811.832
5773.535
5775.414
5686.519
5723.533
5704.534
5706.448
5567.364
5473.999
5745.378
5720.947
5739.714
5751.45
5772.921
5798.204
5836.415
5884.381
6118.784
6177.242
6164.614
6188.346
6218.804
6254.648
6280.984
6339.045
6311.754
6316.254
6294.462
6326.768
6344.205
6353.874
6375.833
6414.583
6475.607
6546.385
6629.587
6712.95
6791.795
6849.241
6896.446
6920.967
6934.853
6928.485
6909.934
6879.099
6839.479
6793.343
6741.682
6684.585
6618.636
6545.842
6463.929
6373.599
6283.35
6181.676
6080.399
5973.889
5885.078
5802.918
5743.158
5731.594
5745.037
5797.992
5852.244
5925.246
6054.814
6165.749
6250.301
6327.901
6403.993
6472.567
6541.559
6610.573
6672.266
6726.871
6769.189
6800.641
6819.553
6825.837
6818.06
6799.266
6772.215
6740.104
6692.492
6635.228
6579.17
6527.693
6483.49
6439.379
6402.966
6364.103
6332.144
6300.057
6270.655
6248.472
6237.389
6243.292
6270.182
6322.382
6406.569
6505.677
6606.628
6723.292
6841.656
6949.125
7054.55
7144.433
7229.497
7306.644
7370.701
7435.272
7493.46
7547.493
7597.432
7643.979
7682.325
7735.783
7741.381
7785.309
7817.821
7822.689
7822.266
7815.858
7794.897
7779.026
7769.7
7764.182
7766.625
7769.619
7781.767
7790.894
7799.513
7808.55
7818.089
7825.166
7834.806
7845.432
7855.972
7866.055
7875.625
7885.928
7900.015
7916.819
7932.279
7944.595
7953.047
7942.622
7929.392
7904.674
7870.739
7836.247
7792.278
7741.799
7695.388
7627.756
7587.108
7533.659
7494.367
7497.765
7540.988
7599.308
7650.39
7700.539
7746.746
7776.794
7777.313
7784.774
7812.727
7814.185
7807.896
7809.654
7805.174
7828.57
7833.158
7836.679
7839.223
7842.768
7842.559
7841.55
7838.482
7836.527
7836.495
7846.215
7844.12
7830.033
7852.007
7841.169
7841.355
7834.634
7842.038
7839.673
7841.543
7848.983
7856.941
7866.09
7874.724
7887.607
7902.655
7915.018
7927.449
7941.723
7952.252
7967.91
7981.754
7990.925
8000.046
8008.666
8016.871
8022.64
8026.973
8032.271
8035.821
8037.83
8038.631
8039.697
8040.1
8041.935
8042.723
8048.085
8038.764
8031.387
8022.706
8029.442
8013.614
8058.262
8059.009
8038.643
8055.223
8055.427
8050.306
8046.2
8041.46
8037.125
8029.724
8029.6
8013.028
7988.668
7990.55
7992.686
7983.894
7961.588
7927.15
7895.906
7889.992
7896.91
7916.116
7924.37
7927.281
7936.539
7933.35
7916.438
7890.603
7892.259
7893.781
7919.601
7932.652
7930.645
7937.793
7944.378
7946.338
7945.804
7941.947
7938.004
7935.723
7931.793
7927.639
7924.347
7922.071
7916.479
7913.444
7919.4
7927.375
7934.661
7945.345
7955.511
7962.752
7963.8
7969.381
7972.242
7974.223
7974.976
7976.548
7978.529
7980.349
7983.13
7985.21
7985.402
7983.494
7979.001
7971.569
7955.879
7950.269
7918.407
7920.402
7947.965
7960.105
7993.903
8013.826
8031.653
8040.493
8049.851
8054.083
8056.806
8063.073
8056.201
8025.097
7981.609
7969.184
8005.759
8036.326
8069.261
8089.943
8105.459
8118.023
8119.854
8120.572
8122.182
8121.75
8119.976
8115.251
8117.112
8116.55
8086.018
8032.008
8038.832
8077.723
8119.239
8138.463
8148.598
8156.017
8159.112
8162.631
8166.395
8166.692
8161.391
8152.17
8141.474
8123.356
8117.126
8144.61
8169.052
8174.95
8183.865
8185.441
8184.74
8184.451
8186.273
8187.498
8203.154
8189.565
8203.742
8203.7
8205.08
8207.238
8207.994
8208.746
8210.13
8211.626
8211.203
8210.299
8212.495
8214.335
8215.837
8216.836
8217.505
8218.522
8220.002
8220.961
8220.99
8222.936
8226.851
8227.719
8217.816
8197.758
8181.954
7007.221
6904.823
6963.465
6904.049
6830.891
6754.942
6659.497
6582.762
6492.176
6381.728
6154.338
5985.639
5861.681
5756.903
5703.185
5680.137
5677.488
5681.487
5725.918
5734.791
5729.669
5711.715
5694.663
5688.296
5709.858
5746.082
5778.177
5793.798
5812.751
5819.449
5850.925
5870.565
5885.273
5893.689
5891.303
5879.488
5855.026
5827.301
5803.547
5763.932
5745.675
5723.598
5707.135
5677.452
5637.439
5645.672
5661.169
5674.121
5689.271
5704.805
5715.713
5768.04
5810.329
5855.068
5916.952
6007.557
6087.971
6137.955
6183.515
6237.122
6280.404
6305.061
6306.91
6302.562
6297.568
6299.415
6309.694
6305.671
6297.82
6318.332
6367.606
6423.931
6506.466
6600.722
6700.207
6790.117
6862.98
6916.354
6946.519
6957.931
6949.271
6924.156
6884.428
6837.165
6786.813
6730.077
6664.265
6590.752
6510.476
6423.733
6330.204
6227.253
6121.319
6010.545
5901.129
5800.598
5724.403
5678.856
5665.722
5693.103
5756.187
5847.179
5954.212
6063.527
6162.969
6253.834
6340.97
6420.47
6491.42
6561.209
6628.05
6690.74
6744.668
6788.883
6820.814
6837.168
6839.101
6826.974
6796.343
6749.385
6702.375
6654.643
6604.79
6551.814
6503.716
6462.096
6423.862
6387.186
6352.735
6318.268
6281.35
6247.211
6219.894
6203.109
6210.423
6242.294
6296.892
6377.957
6482.663
6598.591
6722
6840.654
6951.738
7055.793
7148.601
7233.979
7308.388
7373.476
7432.674
7489.531
7541.245
7593.205
7640.478
7680.46
7716.28
7747.052
7775.776
7793.345
7795.038
7787.788
7779.589
7764.867
7755.347
7753.557
7764.673
7770.609
7776.913
7784.465
7793.122
7802.294
7810.354
7817.672
7826.235
7834.487
7843.866
7853.716
7865.103
7875.849
7885.845
7905.534
7927.801
7940.048
7948.791
7959.764
7951.903
7932.024
7901.586
7861.238
7820.078
7767.831
7717.319
7660.206
7599.687
7540.677
7484.136
7453.641
7476.478
7539.867
7608.373
7664.521
7691.338
7745.526
7799.861
7786.591
7795.73
7800.683
7798.096
7799.979
7809.267
7819.954
7828.286
7834.494
7838.497
7841.34
7842.41
7841.341
7840.36
7838.394
7838.822
7843.898
7845.762
7845.303
7842.527
7834.921
7835.447
7835.577
7831.671
7833.343
7836.658
7841.489
7848.897
7856.572
7866.301
7878.583
7892.065
7904.661
7917.62
7931.35
7944.549
7958.393
7971.867
7985.109
7995.249
8002.421
8011.471
8018.803
8024.934
8029.579
8033.729
8037.267
8039.389
8040.914
8042.041
8042.911
8043.701
8044.183
8048.502
8030.864
8028.066
8021.743
8032.486
8043.014
8054.87
8064.003
8060.237
8056.884
8054.296
8049.928
8045.586
8041.466
8036.604
8028.285
8018.997
8007.387
7987.617
7990.34
7996.003
7985.8
7951.454
7909.4
7877.146
7874.516
7897.185
7915.555
7925.165
7929.675
7934.695
7931.618
7916.157
7898.608
7894.884
7907.698
7923.522
7930.986
7934.344
7937.539
7940.66
7942.524
7942.414
7939.35
7934.846
7930.772
7927.051
7923.887
7921.517
7919.304
7915.188
7913.211
7921.86
7931.574
7939.506
7947.655
7955.769
7961.617
7965.279
7967.275
7969.283
7971.824
7973.889
7975.993
7977.786
7980.218
7983.209
7984.578
7982.686
7981.255
7977.705
7968.679
7957.664
7938.802
7918.1
7918.075
7946.452
7975.29
7999.059
8018.182
8031.361
8041.258
8048.606
8052.89
8057.747
8056.572
8046.465
8016.662
7980.89
7982.576
8003.844
8033.09
8067.557
8091.93
8103.799
8109.932
8112.582
8115.781
8120.396
8121.688
8119.721
8114.223
8112.292
8111.828
8090.658
8063.938
8062.846
8084.406
8112.653
8132.719
8147.312
8153.365
8155.839
8158.443
8161.185
8162.511
8159.851
8152.184
8143.669
8139.69
8138.685
8149.133
8166.372
8175.947
8180.408
8182.139
8183.866
8185.509
8187.732
8190.773
8194.261
8197.023
8199.194
8201.278
8203.137
8204.809
8206.376
8207.549
8208.744
8209.789
8210.845
8211.843
8212.826
8213.817
8214.647
8215.233
8215.911
8216.672
8217.425
8218.223
8219.07
8219.502
8218.946
8216.156
8210.419
8202.081
8196.683
4916.649
5080.711
5200.7
5283.427
5469.678
5530.428
5624.992
5677.28
5691.086
5599.297
5796.143
5728.625
5682.977
5612.049
5511.248
5423.662
5336.188
5240.116
5193.377
5105.393
5080.373
5095.411
5151.552
5252.839
5388.823
5536.293
5713.396
5956.082
6245.047
6453.22
6701.354
6891.642
7040.476
7140.446
7194.172
7222.183
7224.054
7164.595
7103.917
7061.102
7002.399
6923.682
6844.798
6750.284
6659.888
6565.425
6418.034
6232.208
6062.852
5910.067
5785.372
5699.587
5654.598
5641.937
5652.547
5672.287
5680.42
5693.538
5688.145
5676.685
5664.477
5671.245
5701.171
5737.488
5771.018
5797.474
5823.237
5845.262
5861.974
5879.873
5894.62
5905.159
5903.359
5886.748
5856.082
5808.55
5756.559
5712.28
5678.381
5649.191
5624.763
5605.594
5591.072
5580.548
5586.42
5615.509
5641.59
5658.936
5684.381
5732.255
5793.474
5882.442
5957.099
6021.096
6086.074
6144.384
6193.902
6232.504
6273.208
6309.829
6342.004
6352.345
6345.772
6333.854
6311.197
6289.062
6274.137
6279.513
6313.431
6370.475
6457.146
6553.275
6645.654
6756.505
6850.869
6915.884
6951.701
6964.1
6955.05
6928.686
6888.979
6836.53
6778.05
6719.123
6653.499
6578.599
6495.311
6403.927
6300.849
6190.151
6077.704
5959.912
5843.852
5740.689
5659.545
5612.083
5603.358
5634.189
5700.664
5797.222
5915.701
6035.351
6149.347
6247.72
6336.092
6416.15
6490.183
6562.838
6633.759
6701.515
6764.91
6809.101
6838.309
6850.552
6846.136
6824.943
6786.413
6743.269
6700.653
6656.552
6600.021
6536.28
6493.006
6456.404
6418.534
6385.024
6351.129
6314.499
6273.972
6232.487
6194.946
6168.358
6161.333
6185.559
6238.843
6321.694
6430.439
6554.188
6682.665
6807.962
6923.211
7028.006
7122.624
7208.817
7287.791
7361.648
7427.764
7484.335
7537.982
7582.607
7623.186
7660.266
7695.263
7724.729
7747.141
7756.779
7751.634
7729.339
7707.848
7717.953
7737.554
7756.459
7760.457
7770.5
7783.661
7782.859
7787.807
7797.934
7806.659
7815.493
7825.196
7835.294
7846.338
7857.893
7869.442
7881.022
7891.712
7903.89
7914.751
7927.812
7963.688
7993.314
7968.302
7938.417
7904.108
7861.677
7811.641
7759.249
7706.277
7644.916
7568.728
7510.12
7455.42
7433.501
7447.015
7521.204
7573.384
7630.504
7701.786
7747.719
7771.885
7789.628
7792.783
7796.421
7800.894
7809
7817.259
7825.917
7832.898
7837.673
7839.136
7840.285
7842.109
7842.247
7841.808
7841.157
7842.005
7843.364
7843.503
7841.48
7837.997
7834.864
7833.645
7832.778
7831.578
7832.404
7835.922
7841.374
7847.848
7856.363
7866.891
7879.8
7892.879
7906.623
7919.469
7934.124
7947.962
7961.356
7974.07
7988.19
7997.554
8006.167
8013.94
8020.897
8026.747
8031.513
8035.124
8037.945
8040.42
8042.264
8043.389
8043.764
8043.836
8043.556
8042.127
8039.069
8034.864
8033.721
8039.01
8047.722
8053.942
8056.532
8056.337
8054.028
8050.757
8046.816
8042.984
8038.244
8031.963
8024.068
8015.73
8007.964
8001.515
7996.053
7992.229
7981.265
7953.905
7917.788
7889.316
7881.807
7896.952
7911.82
7921.773
7927.596
7932.482
7931.55
7919.452
7904.899
7899.259
7901.773
7910.456
7917.905
7922.588
7926.299
7928.971
7931.169
7932.676
7933.575
7934.909
7935.219
7932.355
7929.221
7927.218
7924.545
7919.899
7917.099
7919.218
7924.229
7930.323
7937.046
7944.285
7951.46
7957.219
7962.33
7966.398
7969.803
7972.599
7975.109
7977.064
7979.003
7980.563
7981.305
7980.23
7977.347
7974.812
7969.933
7960.787
7950.883
7942.499
7940.659
7959.44
7981.57
8000.748
8015.043
8026.863
8036.748
8045.777
8051.75
8053.352
8050.769
8041.072
8026.626
8014.265
8019.198
8037.682
8056.178
8076.834
8090.406
8100.395
8105.634
8106.812
8111.073
8115.882
8116.072
8113.874
8111.485
8109.156
8103.993
8096.02
8082.98
8087.206
8103.153
8124.25
8137.289
8146.331
8152.829
8155.944
8157.839
8159.038
8158.081
8155.785
8152.764
8148.786
8146.821
8148.694
8159.077
8168.955
8174.745
8177.713
8180.804
8183.47
8185.4
8188.136
8191.49
8194.562
8197.302
8199.678
8201.737
8203.455
8204.619
8205.36
8206.026
8206.65
8207.549
8208.556
8209.517
8210.416
8211.214
8212.019
8212.87
8213.674
8214.467
8215.183
8215.661
8215.804
8215.499
8214.438
8212.327
8208.906
8204.32
8200.174
4078.311
4005.716
3784.022
4156.235
4133.652
4212.145
4194.801
4252.992
4336.036
4401.478
4501.198
4614.934
4741.738
4914.043
5088.69
5262.404
5407.571
5517.842
5611.009
5690.898
5747.748
5790.019
5791.52
5751.76
5696.557
5593.978
5501.889
5420.713
5325.8
5236.611
5152.363
5068.139
5051.2
5071.146
5124.548
5213.569
5337.39
5488.893
5679.571
5935.648
6220.836
6501.457
6746.017
6936.189
7089.021
7178.534
7232.201
7257.554
7254.589
7213.232
7146.443
7077.108
7002.898
6912.322
6809.768
6692.971
6550.956
6410.742
6239.36
6059.553
5888.968
5742.312
5635.096
5567.36
5539.345
5538.32
5560.27
5592.779
5600.785
5615.286
5628.018
5624.134
5624.606
5645.098
5685.272
5728.095
5769.845
5805.747
5828.93
5841.631
5858.666
5878.395
5896.905
5909.415
5910.182
5880.773
5828.498
5771.261
5708.154
5643.796
5592.29
5565.014
5553.836
5542.223
5534.132
5522.865
5528.956
5545.622
5581.634
5640.934
5688.14
5739.896
5802.151
5870.816
5946.877
6024.721
6097.078
6160.948
6222.64
6270.419
6306.583
6341.264
6352.014
6350.306
6335.467
6311.451
6286.331
6252.233
6225.492
6217.611
6233.084
6281.021
6368.925
6487.342
6616.534
6737.554
6833.682
6887.953
6933.477
6963.862
6963.025
6929.459
6877.998
6821.261
6760.358
6696.634
6626.336
6547.213
6460.319
6364.69
6258.52
6145.072
6026.986
5902
5779.71
5673.028
5588.701
5540.968
5537.218
5576.893
5657.754
5769.083
5909.555
6032.205
6144.018
6240.513
6330.843
6413.672
6491.719
6565.869
6634.541
6705.589
6771.435
6826.993
6857.798
6865.136
6853.346
6830.749
6795.838
6751.344
6701.93
6647.511
6585.661
6527.35
6486.631
6452.349
6419.797
6389.18
6355.657
6313.591
6265.698
6213.357
6160.506
6120.169
6101.958
6116.169
6164.002
6247.889
6364.46
6497.768
6638.132
6772.473
6893.337
6999.801
7092.907
7176.975
7255.046
7328.773
7397.814
7460.621
7514.38
7558.848
7595.438
7629.787
7661.721
7692.078
7715.89
7721.628
7716.627
7661.363
7603.832
7632.389
7703.081
7749.295
7761.729
7769.978
7765.395
7768.231
7781.739
7794.298
7803.508
7811.958
7820.403
7829.792
7839.949
7850.638
7861.327
7872.844
7887.386
7904.711
7920.574
7928.893
7949.169
7976.18
7970.661
7934.112
7887.575
7838.518
7788.866
7736.186
7682.143
7609.083
7537.436
7498.213
7449.248
7430.837
7466.591
7538.561
7606.495
7669.708
7732.121
7740.921
7747.892
7783.733
7773.296
7773.389
7792.565
7804.762
7819.108
7829.552
7832.656
7836.51
7839.826
7842.552
7844.148
7843.531
7842.179
7841.449
7841.841
7842.591
7842.48
7840.835
7838.025
7833.968
7832.019
7830.354
7828.008
7828.794
7832.08
7836.264
7842.675
7850.974
7861.777
7875.158
7888.832
7903.168
7917.538
7932.213
7946.711
7958.267
7975.3
7986.674
7993.991
8002.916
8013.64
8021.935
8027.928
8032.225
8035.709
8038.767
8040.776
8042.296
8043.426
8044.112
8044.147
8043.538
8042.068
8040.029
8038.349
8037.979
8040.876
8046.102
8050.57
8052.493
8052.466
8051.084
8048.496
8045.069
8040.998
8036.089
8030.165
8022.73
8014.622
8006.413
7997.697
7990.79
7984.171
7973.401
7954.827
7931.692
7913.217
7906.071
7910.022
7917.808
7921.79
7923.366
7924.776
7923.596
7918.463
7910.34
7905.963
7909.235
7916.657
7922.875
7927.165
7930.131
7931.398
7931.573
7931.612
7931.792
7930.321
7927.805
7925.363
7923.01
7921.785
7921.416
7919.543
7918.494
7921.812
7928.168
7934.487
7940.173
7946.029
7951.73
7956.632
7960.363
7963.09
7965.423
7968.077
7970.837
7972.619
7974.256
7975.816
7976.781
7975.649
7974.462
7973.832
7972.944
7966.752
7960.479
7956.856
7953.965
7964.88
7980.305
7997.226
8010.797
8022.043
8031.308
8038.147
8042.091
8045.562
8046.241
8045.378
8040.82
8037.555
8038.482
8047.758
8058.037
8067.823
8075.332
8084.502
8095.319
8104.814
8111.304
8114.455
8115.265
8111.873
8110.995
8110.002
8106.802
8105.485
8103.055
8106.926
8114.929
8123.969
8129.735
8136.326
8144.49
8149.591
8153.303
8155.532
8157.056
8156.911
8155.145
8153.457
8153.385
8155.61
8160.701
8166.602
8172.07
8176.406
8180.431
8183.152
8184.669
8187.1
8189.938
8192.639
8195.06
8197.072
8198.846
8200.533
8201.939
8203.145
8204.274
8205.433
8206.483
8207.508
8208.495
8209.402
8210.194
8210.904
8211.591
8212.194
8212.746
8213.172
8213.382
8213.288
8212.877
8212.027
8210.585
8208.498
8205.826
8203.904
4083.628
4049.675
4023.684
4031.377
4023.593
4041.251
4035.08
3998.605
4016.817
4043.765
4007.888
4045.503
4061.96
4055.19
4099.1
4091.575
4148.36
4168.544
4193.161
4234.411
4317.229
4434.105
4574.679
4748.046
4923.032
5096.199
5274.15
5427.295
5554.318
5659.088
5740.477
5783.312
5800.222
5812.383
5783.303
5700.45
5599.063
5501.225
5402.674
5294.966
5188.542
5073.217
4961.887
4932.06
4961.82
5020.695
5111.131
5248.621
5392.974
5566.861
5803.23
6087.881
6374.801
6634.664
6864.424
7049.717
7177.071
7230.283
7250.799
7260.065
7218.819
7144.98
7077.114
7003.846
6914.062
6804.184
6663.479
6489.745
6298.544
6095.827
5896.482
5717.654
5574.103
5472.039
5412.739
5388.061
5399.874
5435.204
5474.365
5509.672
5548.367
5581.459
5604.391
5619.769
5646.455
5689.107
5732.521
5785.445
5819.96
5836.282
5839.179
5846.24
5865.179
5888.231
5903.028
5890.912
5843.973
5773.242
5702.276
5633.016
5561.258
5510.378
5474.787
5454.321
5469.35
5483.044
5495.233
5505.159
5518.943
5549.852
5614.767
5680.592
5745.782
5817.688
5894.325
5973.481
6048.052
6117.448
6184.093
6246.384
6295.841
6337.064
6375.931
6381.161
6367.805
6344.566
6310.704
6277.462
6236.986
6195.526
6166.792
6158.128
6183.114
6261.522
6383.396
6524.519
6663.7
6782.492
6865.533
6908.496
6917.214
6900.168
6860.563
6827.346
6786.893
6728.889
6658.649
6576.425
6497.386
6412.574
6328.537
6224.126
6101.777
5972.718
5848.479
5730.917
5626.179
5540.997
5494.447
5495.6
5541.414
5622.986
5740.28
5879.467
6013.784
6133.522
6235.943
6327.376
6411.74
6488.738
6558.686
6622.884
6697.465
6772.58
6831.494
6868.097
6879.503
6867.376
6845.406
6809.845
6757.399
6705.329
6658.196
6607.203
6554.44
6490.778
6449.844
6422.104
6394.528
6363.097
6316.003
6257.294
6187.826
6117.521
6056.741
6023.378
6026.635
6069.257
6155.251
6283.576
6433.07
6587.608
6733.696
6863.087
6973.02
7064.947
7146.444
7221.463
7292.8
7361.35
7426.239
7481.731
7522.452
7556.386
7591.078
7626.206
7657.607
7682.087
7687.704
7687.877
7601.916
7479.683
7483.429
7629.132
7735.188
7758.674
7765.455
7767.16
7770.033
7780.601
7791.924
7800.896
7808.806
7817.289
7824.034
7828.029
7837.835
7851.638
7867.151
7880.652
7895.188
7916.026
7948.113
7945.779
7923.824
7930.58
7922.966
7880.833
7826.727
7770.257
7713.667
7649.514
7589.738
7538.108
7492.367
7473.649
7474.936
7507.69
7566.209
7640.001
7679.962
7710.952
7734.237
7750.365
7776.479
7780.078
7789.699
7793.32
7794.856
7806.75
7819.748
7832.129
7841.807
7846.392
7844.006
7843.627
7845.474
7845.778
7843.918
7842.782
7842.699
7842.397
7840.717
7837.184
7830.772
7826.865
7825.283
7824.482
7824.519
7826.576
7831.124
7836.895
7845.141
7856.52
7869.928
7884.086
7898.47
7914.401
7931.071
7945.969
7959.584
7975.003
7986.461
7992.151
8002.511
8014.668
8023.396
8029.055
8032.637
8035.83
8038.957
8041.014
8042.894
8044.444
8045.461
8045.826
8045.623
8045.119
8044.118
8043.162
8043.165
8044.799
8048.311
8051.735
8053.195
8052.755
8051.079
8048.19
8044.485
8040.065
8034.747
8028.604
8021.621
8013.832
8006.315
7999.051
7991.193
7982.354
7972.588
7958.636
7940.789
7924.78
7916.275
7915.947
7918.468
7920.794
7921.346
7921.186
7920.58
7917.728
7913.521
7910.069
7909.7
7912.367
7916.365
7918.961
7920.984
7922.639
7923.602
7924.421
7925.021
7924.919
7924.75
7924.118
7923.38
7922.72
7921.985
7921.199
7921.219
7923.772
7928.234
7932.484
7936.352
7940.913
7946.029
7950.771
7954.642
7958.259
7961.59
7964.755
7967.505
7969.648
7971.383
7972.603
7973.672
7973.621
7973.676
7974.072
7975.446
7971.603
7966.434
7966.375
7969.292
7976.398
7986.666
7998.413
8010.705
8021.461
8030.291
8037.139
8042.109
8044.624
8046.662
8046.985
8045.799
8044.138
8044.052
8051.296
8057.84
8065.918
8076.984
8087.716
8097.339
8105.838
8108.876
8110.098
8112.536
8110.329
8109.601
8110.835
8110.286
8110.37
8109.979
8113.418
8118.508
8124.594
8129.863
8134.866
8140.962
8147.113
8151.728
8155.065
8156.591
8157.104
8156.783
8156.367
8156.789
8158.729
8162.662
8167.801
8172.73
8176.886
8180.236
8182.625
8184.166
8186.09
8189.156
8192.405
8195.239
8197.317
8198.774
8200.077
8201.399
8202.653
8203.887
8204.772
8205.581
8206.431
8207.362
8208.161
8208.793
8209.277
8209.749
8210.214
8210.696
8211.032
8211.135
8210.984
8210.635
8210.062
8209.234
8208.027
8206.391
8205.18
4398.461
4405.789
4422.635
4367.566
4334.76
4287.638
4238.727
4188.837
4132.986
4088.356
4057.485
4036.909
4026.803
4026.821
4032.483
4050.408
4032.36
4007.593
3999.935
3984.069
3987.198
4005.921
4016.178
4022.376
4064.231
4127.515
4095.934
4072.788
4146.843
4200.906
4271.823
4384.362
4528.979
4702.141
4882.869
5084.056
5254.219
5393.868
5537.098
5655.916
5732.71
5780.682
5809.091
5812.94
5787.814
5715.392
5608.511
5496.144
5380.301
5256.247
5135.354
5016.13
4934.195
4905.529
4919.223
4972.006
5060.067
5177.895
5307.871
5460.018
5672.859
5934.813
6176.004
6393.325
6597.338
6772.848
6919.692
7028.883
7142.108
7214.18
7177.035
7102.08
7035.65
6962.692
6875.576
6754.18
6594.285
6392.947
6155.376
5916.031
5690.866
5496.537
5349.592
5250.849
5200.692
5190.248
5217.788
5269.831
5327.937
5388.586
5468.37
5538.805
5593.522
5642.012
5692.167
5746.94
5800.482
5834.339
5851.512
5850.786
5836.818
5828.081
5836.573
5857.652
5868.351
5836.923
5768.416
5688.372
5610.816
5545.071
5486.333
5434.518
5397.083
5389.225
5412.217
5431.363
5453.371
5483.64
5519.438
5565.333
5622.321
5683.393
5753.661
5830.99
5909.004
5992.092
6070.349
6138.775
6207.175
6273.231
6321.926
6359.714
6392.776
6402.098
6380.478
6350.844
6318.393
6274.39
6221.577
6168.975
6125.917
6099.358
6095.453
6158.479
6275.552
6416.639
6558.894
6685.831
6776.875
6829.305
6846.507
6834.573
6800.147
6755.491
6709.248
6658.964
6598.968
6520.365
6434.256
6350.036
6255.151
6150.076
6039.166
5929.374
5816.921
5705.321
5599.419
5512.238
5466.243
5472.103
5519.705
5608.229
5732.318
5875.455
6012.544
6131.816
6233.496
6320.895
6400.917
6478.435
6553.612
6623.457
6690.313
6761.881
6823.531
6868.201
6882.379
6880.023
6861.834
6825.319
6777.267
6727.858
6676.194
6613.145
6547.397
6497.302
6467.633
6438.398
6406.955
6365.902
6307.462
6232.192
6147.165
6060.759
5987.274
5939.731
5929.744
5967.921
6057.552
6199.81
6366.311
6534.955
6693.615
6831.151
6944.445
7038.291
7119.194
7192.162
7260.923
7325.735
7391.292
7449.916
7484.894
7466.899
7488.021
7555.35
7615.212
7648.182
7666.974
7679.807
7670.917
7499.35
7457.781
7547.189
7708.416
7755.942
7755.592
7760.532
7765.38
7776.304
7788.016
7797.385
7806.432
7815.334
7822.052
7815.322
7811.895
7826.76
7853.153
7873.927
7893.424
7913.543
7936.289
7925.926
7897.094
7890.525
7888.489
7865.482
7816.582
7754.62
7707.349
7669.377
7624.566
7568.043
7519.49
7518.419
7532.64
7554.205
7587.16
7630.755
7661.983
7686.523
7720.313
7752.445
7785.567
7809.79
7811.774
7805.086
7803.916
7804.833
7808.476
7818.686
7828.801
7835.332
7842.923
7848.476
7847.445
7845.196
7843.521
7844.076
7844.297
7842.408
7839.83
7836.388
7830.393
7822.776
7818.71
7816.154
7814.356
7816.413
7820.818
7825.551
7833.745
7846.73
7861.191
7877.561
7891.197
7907.418
7927.402
7943.769
7958.341
7971.697
7986.259
7995.739
8004.844
8014.67
8021.749
8026.94
8030.892
8034.341
8038.004
8041.109
8043.638
8045.537
8046.807
8047.298
8047.193
8046.772
8046.156
8045.842
8046.091
8046.931
8048.841
8050.791
8051.412
8050.512
8048.437
8045.618
8042.089
8037.705
8032.465
8026.734
8020.251
8012.803
8005.238
7997.716
7989.238
7980.272
7971.116
7959.568
7945.306
7932.872
7925.597
7923.4
7923.425
7924.064
7923.412
7921.514
7919.417
7917.707
7915.742
7912.905
7910.222
7909.692
7913.572
7917.197
7918.626
7919.834
7920.803
7921.685
7922.342
7922.32
7921.738
7921.133
7920.242
7919.5
7919.44
7919.742
7920.633
7922.947
7926.53
7930.591
7934.916
7939.46
7944.137
7948.615
7952.573
7956.104
7959.261
7961.846
7964.349
7966.5
7968.414
7969.862
7971.042
7971.82
7972.391
7973.355
7975.437
7974.29
7970.89
7971.325
7977.18
7984.285
7991.429
7999.221
8009.109
8019.099
8026.865
8032.103
8036.203
8039.832
8042.818
8045.572
8046.967
8046.436
8049.111
8056.083
8063.038
8071.478
8081.254
8088.986
8095.626
8101.707
8104.964
8106.965
8108.939
8108.645
8108.676
8110.71
8111.635
8112.658
8113.974
8117.205
8121.576
8126.611
8131.444
8135.529
8140.876
8146.278
8149.288
8151.664
8154.43
8156.526
8157.828
8158.683
8159.649
8161.54
8164.61
8168.287
8172.491
8176.907
8180.244
8182.627
8184.634
8186.577
8188.948
8191.248
8193.439
8195.327
8196.792
8198.044
8199.34
8200.559
8201.4
8202.201
8203.447
8205.051
8206.075
8206.688
8207.153
8207.579
8208.054
8208.484
8208.848
8209.091
8209.121
8208.983
8208.719
8208.356
8207.858
8207.081
8206.23
8205.607
4404.238
4407.823
4412.113
4417.774
4411.179
4406.813
4404.391
4402.335
4381.689
4341.348
4271.424
4224.83
4160.622
4095.351
4055.28
4022.273
4010.326
4012.606
3999.159
3996.398
4034.835
4045.793
4023.548
3985.531
3951.06
3960.545
3987.776
4002.993
4007.937
3988.238
3990.4
4022.127
4037.781
4082.808
4138.949
4191.915
4308.944
4456.447
4641.326
4835.715
5034.972
5221.616
5372.555
5514.082
5637.737
5720.992
5768.508
5796.193
5793.8
5765.392
5702.938
5606.057
5492.471
5366.842
5236.995
5113.991
5001.727
4901.204
4861.436
4861.496
4904.604
4995.487
5105.059
5226.314
5360.426
5533.363
5744.082
5919.806
6043.731
6146.983
6259.117
6365.072
6493.406
6666.175
6826.774
6951.661
6999.314
6956.157
6885.657
6794.531
6664.839
6480.467
6239.75
5959.824
5677.271
5422.211
5218.288
5072.904
4983.326
4942.882
4949.815
4991.56
5066.464
5162.127
5254.889
5362.695
5496.588
5599.14
5684.252
5757.754
5819.705
5866.661
5888.451
5883.192
5854.524
5816.121
5786.802
5784.301
5802.516
5793.089
5745.231
5665.473
5580.365
5504.699
5442.084
5395.995
5367.727
5348.251
5345.225
5361.664
5385.314
5415.137
5453.386
5498.873
5553.773
5623.081
5692.251
5764.694
5842.844
5913.087
5988.821
6074.191
6149.406
6217.033
6290.359
6348.3
6382.347
6410.177
6420.821
6398.334
6359.969
6315.404
6258.768
6196.236
6137.86
6087.126
6047.365
6019.55
6059.984
6163.319
6293.914
6433.482
6562.018
6649.959
6699.022
6715.044
6702.427
6671.964
6638.335
6605.376
6563.957
6504.992
6429.565
6358.736
6285.675
6193.661
6092.083
5985.732
5876.365
5774.423
5677.087
5586.171
5512.829
5478.506
5492.249
5544.007
5630.547
5747.733
5884.91
6017.512
6132.983
6230.15
6314.906
6392.849
6468.467
6542.408
6617.708
6691.43
6754.93
6812.515
6862.981
6889.11
6895.046
6880.897
6848.506
6799.815
6747.94
6692.519
6634.077
6583.817
6536.764
6490.062
6450.999
6411.598
6361.348
6294.306
6209.989
6114.471
6020
5941.784
5889.116
5872.118
5892
5973.513
6126.798
6307.013
6488.944
6656.51
6801.028
6917.107
7011.653
7092.373
7165.123
7233.024
7296.11
7359.576
7423.526
7467.709
7378.276
7333.095
7395.718
7510.646
7582.24
7630.185
7671.422
7691.267
7668.196
7539.74
7589.409
7715.397
7762.843
7762.316
7764.587
7766.467
7775.431
7786.796
7796.933
7805.332
7813.334
7820.776
7814.704
7802.974
7813.367
7845.683
7872.109
7889.277
7899.205
7903.864
7895.203
7875.663
7857.02
7843.571
7831.544
7804.552
7769.25
7736.859
7709.848
7655.471
7597.922
7561.298
7555.615
7563.34
7581.66
7609.151
7639.842
7674.636
7705.717
7732.708
7760.134
7779.077
7797.446
7806.993
7807.363
7810.566
7814.535
7818.204
7822.405
7823.619
7827
7833.708
7842.572
7849.523
7848.709
7845.579
7843.423
7842.198
7841.571
7840.763
7835.695
7829.755
7823.737
7817.599
7809.474
7805.532
7807.358
7811.699
7816.916
7825.464
7836.479
7850.586
7868.298
7881.519
7901.958
7920.792
7932.421
7946.891
7965.269
7978.667
7985.61
7998.021
8009.883
8016.345
8021.221
8025.989
8030.654
8036.513
8041.256
8044.741
8046.5
8048.491
8049.953
8050.246
8049.579
8048.936
8048.777
8049.125
8049.795
8050.813
8051.868
8052.008
8050.949
8048.714
8045.572
8041.849
8037.346
8032.003
8026.004
8019.457
8012.133
8004.492
7996.974
7988.86
7979.959
7970.841
7960.819
7949.475
7938.817
7931.558
7927.584
7925.258
7923.454
7921.989
7920.472
7918.803
7917.387
7915.702
7914.198
7911.834
7908.973
7909.339
7912.098
7914.41
7915.84
7916.592
7916.997
7917.178
7917.155
7917.144
7917.056
7916.938
7917.115
7917.742
7918.557
7919.831
7922.175
7925.524
7929.2
7932.973
7936.794
7940.668
7944.666
7948.299
7951.726
7954.879
7957.894
7960.499
7963.318
7965.635
7967.328
7968.731
7970.147
7971.32
7973.209
7975.967
7975.981
7975.602
7977.877
7983.018
7990.087
7995.885
8002.799
8010.609
8018.425
8024.518
8029.396
8034.088
8038.295
8041.705
8044.271
8046.921
8049.821
8053.733
8059.656
8066.298
8073.819
8081.258
8087.633
8093.494
8098.639
8102.416
8105.146
8107.353
8108.607
8109.678
8111.488
8113.121
8115.026
8117.28
8120.435
8124.35
8128.708
8133.137
8137.482
8142.709
8146.953
8148.735
8150.491
8153.218
8155.953
8158.098
8159.94
8161.713
8163.706
8166.301
8169.532
8173.181
8176.914
8180.221
8182.885
8185.195
8187.06
8188.462
8189.943
8191.756
8193.801
8195.622
8197.103
8198.999
8200.688
8201.742
8202.044
8202.511
8203.551
8204.48
8204.978
8205.422
8205.966
8206.58
8207.114
8207.325
8207.312
8207.25
8207.138
8207.019
8206.837
8206.581
8206.186
8205.737
8205.254
4395.046
4398.057
4395.58
4396.131
4392.156
4394.154
4402.125
4409.656
4397.107
4360.409
4312.092
4236.194
4142.822
4066.229
4031.779
3999.842
3973.733
3956.512
3942.744
3963.276
3992.891
3998.124
3985.925
3966.387
3957.474
3963.289
3988.308
4001.284
4001.164
3974.629
3952.263
3974.345
4046.8
4015.144
4025.363
4100.361
4221.331
4380.299
4559.722
4760.053
4957.063
5145.029
5316.037
5461.482
5586.106
5666.622
5709.264
5732.097
5725.688
5696.395
5642.92
5557.251
5445.37
5318.604
5184.227
5060.955
4954.059
4866.65
4833.548
4834.517
4878.098
4973.146
5081.974
5196.35
5323.824
5453.251
5573.903
5653.691
5679.136
5686.522
5696.238
5721.571
5770.153
5900.607
6175.724
6461.362
6650.184
6738.386
6728.699
6645.504
6518.102
6318.151
6041.298
5705.007
5368.818
5083.737
4877.44
4736.647
4658.422
4640.162
4668.996
4736.643
4841.505
4980.033
5131.7
5251.61
5409.163
5610.185