/*--------------------------------*- C++ -*----------------------------------*\
| =========                 |                                                 |
| \\      /  F ield         | foam-extend: Open Source CFD                    |
|  \\    /   O peration     | Version:     3.1                                |
|   \\  /    A nd           | Web:         http://www.extend-project.de       |
|    \\/     M anipulation  |                                                 |
\*---------------------------------------------------------------------------*/
FoamFile
{
    version     2.0;
    format      ascii;
    class       surfaceScalarField;
    location    "12.5";
    object      phi;
}
// * * * * * * * * * * * * * * * * * * * * * * * * * * * * * * * * * * * * * //

dimensions      [0 3 -1 0 0 0 0];

internalField   nonuniform List<scalar> 
275122
(
-0.0003633653
0.0003661618
-3.881326e-07
-2.408344e-06
-0.000317693
0.0002992845
1.301907e-06
1.710662e-05
-0.0003037106
0.0003091362
-3.379157e-07
-5.087682e-06
-0.0003271456
0.0003330685
-4.297516e-07
-5.4932e-06
-0.0003467927
0.0003476069
-4.984006e-07
-3.157966e-07
-0.0003375463
0.0003338307
-4.454762e-07
4.161082e-06
-0.0003235212
0.0003200354
-4.125918e-07
3.898336e-06
-0.0003098318
0.0003066713
-3.723231e-07
3.532814e-06
-0.0002979723
0.0002953658
-3.176853e-07
2.924165e-06
-0.0002884853
0.0002865701
-2.690656e-07
2.184335e-06
-0.0002818503
0.0002804846
-2.354321e-07
1.601134e-06
-0.0002768958
0.0002758569
-2.069299e-07
1.245829e-06
-0.000273108
0.0002722988
-1.778389e-07
9.869656e-07
-0.0002700822
0.0002693982
-1.50605e-07
8.346043e-07
-0.0002674268
0.0002667847
-1.298274e-07
7.719684e-07
-0.0002648336
0.0002641694
-1.138711e-07
7.780386e-07
-0.0002619981
0.0002612304
-9.988059e-08
8.675896e-07
-0.0002587192
0.0002578823
-9.664334e-08
9.335772e-07
-0.0002552991
0.0002545795
-1.46565e-07
8.661564e-07
-0.0002533195
0.0002539794
-4.484857e-07
-2.114221e-07
-0.0002828855
0.0002945068
-9.623779e-07
-1.065893e-05
-0.0002988852
0.0002989709
-1.969615e-07
1.11267e-07
-0.0003023721
0.0003042122
-1.029764e-07
-1.737124e-06
-0.0003369987
0.0003491596
2.707852e-07
-1.243175e-05
-0.0003505167
0.0003495547
4.734733e-07
4.885197e-07
-0.0003501203
0.0003494216
-9.080422e-08
7.894377e-07
-0.0003458169
0.000343659
-1.260429e-07
2.283917e-06
-0.0003355454
0.0003305249
-7.787518e-08
5.098368e-06
-0.0003053004
0.0002832735
-9.546226e-08
2.212228e-05
-0.0001479629
0.0001518264
3.158965e-09
-3.86658e-06
-0.0002233109
0.000234351
-6.041255e-08
-1.09797e-05
-0.0002651544
0.0002752916
6.638256e-09
-1.014383e-05
-0.0003055832
0.000315593
6.582177e-09
-1.00164e-05
-0.0003455324
0.0003554482
9.108193e-09
-9.924873e-06
-0.0003851696
0.0003950087
8.926798e-09
-9.848037e-06
-0.0004242913
0.0004339511
7.840948e-09
-9.667642e-06
-0.0004626573
0.0004721215
6.65211e-09
-9.470875e-06
-0.0005002178
0.0005094884
6.119477e-09
-9.276703e-06
-0.0005370381
0.0005461597
5.137543e-09
-9.126727e-06
-0.000573041
0.0005834224
1.715604e-07
-1.055294e-05
8.767365e-06
-0.0003937775
0.0003942158
-3.989979e-10
-9.205285e-06
8.631277e-06
-0.0003953568
0.0003958331
-1.125416e-09
-9.106469e-06
8.977627e-06
-0.0003973407
0.0003978864
-2.072632e-09
-9.521273e-06
9.447087e-06
-0.0003996745
0.0004003661
-1.860514e-09
-1.013691e-05
1.014111e-05
-0.0004025847
0.0004033683
-1.391227e-09
-1.092329e-05
1.097145e-05
-0.0004060377
0.0004070315
-8.863402e-10
-1.196438e-05
1.18506e-05
-0.0004104328
0.0004117051
-6.238877e-10
-1.312219e-05
1.27895e-05
-0.0004160566
0.0004176684
-4.900621e-10
-1.440081e-05
1.484198e-05
-0.000423261
0.0004237223
-1.281056e-10
-1.53032e-05
1.3483e-05
-0.001747174
0.001769285
-8.686789e-11
-7.555943e-05
1.325563e-05
1.346411e-05
1.324554e-05
1.525579e-05
-0.001790482
0.001811107
-8.706586e-11
-8.29073e-05
1.590901e-05
1.523091e-05
1.58865e-05
1.644579e-05
-0.001832206
0.001854744
-5.679504e-11
-8.878946e-05
1.670079e-05
1.642362e-05
1.668156e-05
1.742686e-05
-0.001877831
0.001901701
-3.761736e-11
-9.403531e-05
1.767381e-05
1.740796e-05
1.765619e-05
1.834449e-05
-0.001925973
0.00195067
-4.104957e-11
-9.839379e-05
1.852109e-05
1.832679e-05
1.850445e-05
1.902223e-05
-0.001975471
0.002000107
-5.317038e-11
-0.0001009446
1.914784e-05
1.900607e-05
1.913239e-05
1.943914e-05
-0.002024561
0.00204831
-5.712656e-11
-0.0001016464
1.952442e-05
1.942428e-05
1.950973e-05
1.956242e-05
-0.002071553
0.002093448
-5.693349e-11
-0.0001002502
1.962903e-05
1.954883e-05
1.961516e-05
1.930435e-05
-0.002114822
0.002134739
-5.521262e-11
-9.707755e-05
1.928047e-05
1.929843e-05
1.927739e-05
1.871696e-05
-0.002151655
0.002168303
-5.198853e-11
-9.05106e-05
1.823966e-05
1.867842e-05
1.822735e-05
1.767398e-05
-0.002185275
0.002198854
-4.713707e-11
-8.449663e-05
1.779074e-05
1.766831e-05
1.778498e-05
1.689721e-05
-0.002210534
0.002219735
-2.252205e-11
-7.632636e-05
1.666813e-05
1.689358e-05
1.666586e-05
1.564997e-05
-0.002227655
0.002233297
-1.647464e-11
-6.77574e-05
1.540773e-05
1.564987e-05
1.540781e-05
1.435551e-05
-0.002237615
0.002239651
-2.284998e-11
-5.89605e-05
1.41071e-05
1.435406e-05
1.410745e-05
1.292256e-05
-0.002240572
0.002239876
-2.782791e-11
-5.045003e-05
1.266402e-05
1.290888e-05
1.265116e-05
1.180858e-05
-0.002237657
0.002233469
-3.410205e-11
-4.235665e-05
1.149399e-05
1.176975e-05
1.14728e-05
1.065046e-05
-0.002228531
0.002221952
-5.771504e-11
-3.526278e-05
1.043212e-05
1.046997e-05
1.028949e-05
1.048283e-05
-0.002214256
0.00220393
-8.871758e-11
-3.001878e-05
1.049262e-05
9.692772e-06
9.676667e-06
1.352937e-05
-0.002189746
0.002164889
-1.091604e-10
-2.460822e-05
1.442475e-05
1.112224e-05
1.038916e-05
-6.134394e-06
-0.002132117
0.002139606
-1.098714e-10
-1.354037e-06
-1.121224e-05
-0.00214576
0.002137611
-6.902549e-11
1.93607e-05
-1.994648e-06
-0.00212502
0.002110331
-4.307781e-11
1.668351e-05
-8.395317e-06
-0.002095533
0.002081018
-1.862581e-11
2.290979e-05
-2.171211e-05
-0.002066776
0.002054405
-8.932132e-12
3.408371e-05
-3.538119e-05
-0.002045172
0.002036327
-1.354254e-11
4.422634e-05
-3.545293e-05
-0.002025944
0.00201523
-2.419982e-11
4.616639e-05
-3.328633e-05
-0.002004533
0.001993716
-3.820316e-11
4.410347e-05
-2.899786e-05
-0.001982819
0.001972126
-5.030246e-11
3.969147e-05
-2.33128e-05
-0.001961452
0.001951154
-5.955321e-11
3.361081e-05
-1.767598e-05
-0.001941128
0.001931836
-6.771786e-11
2.696845e-05
-1.25389e-05
-0.001923025
0.001915113
-7.532527e-11
2.045045e-05
-8.066314e-06
-0.001907794
0.001901438
-7.924162e-11
1.442322e-05
-4.374882e-06
-0.001895727
0.001890966
-7.513597e-11
9.136179e-06
-1.454099e-06
-0.001886863
0.00188363
-6.045962e-11
4.687016e-06
5.456072e-07
-0.001880987
0.00187926
-3.700379e-11
1.181515e-06
2.080436e-06
-0.001878042
0.001877678
-9.512509e-12
-1.716421e-06
3.31194e-06
-0.00187769
0.00187852
8.007452e-12
-4.141934e-06
5.11504e-06
-0.001879471
0.001880971
1.266149e-11
-6.615281e-06
8.585795e-06
-0.001881933
0.001883045
8.272054e-12
-9.697854e-06
1.501309e-05
-0.001881499
0.001879892
-8.847982e-12
-1.340631e-05
8.774579e-06
-0.001881873
0.001884634
-1.830924e-11
-1.153549e-05
1.670579e-05
-0.001885399
0.001883855
-3.029562e-11
-1.516251e-05
3.153326e-05
-0.0018731
0.001860104
-5.051298e-11
-1.853683e-05
5.756844e-06
-0.001852969
0.001850696
-7.193426e-11
-3.483385e-06
-1.201862e-05
-0.001847653
0.001843354
-7.826326e-11
1.631686e-05
-2.716381e-05
-0.001837225
0.001830552
-7.752985e-11
3.383663e-05
-5.068686e-05
-0.001823451
0.001818989
-6.452178e-11
5.514875e-05
-9.242291e-05
-0.001812596
0.001821774
-4.200142e-11
8.324492e-05
-2.179929e-05
-0.001831788
0.001822577
-3.892945e-12
8.824989e-05
-1.781768e-05
-2.172163e-05
-1.769976e-05
-1.602335e-05
-0.00180556
0.001790965
2.692967e-11
7.895638e-05
-1.666388e-05
-1.558416e-05
-1.608965e-05
-1.692104e-05
-0.001774235
0.001755162
7.206723e-11
8.530271e-05
-1.685581e-05
-1.625246e-05
-1.620026e-05
-1.803208e-05
-0.001735474
0.001715596
1.15729e-10
9.112593e-05
-1.84412e-05
-1.723005e-05
-1.754437e-05
-1.924097e-05
-0.001695157
0.001673719
1.473933e-10
9.6877e-05
-1.933985e-05
-1.838771e-05
-1.847084e-05
-1.88986e-05
-0.001651249
0.001627261
1.519307e-10
9.830836e-05
-1.859531e-05
-1.84822e-05
-1.834503e-05
-1.689709e-05
-0.001601575
0.001573985
1.359527e-10
9.477962e-05
-1.636559e-05
-1.71626e-05
-1.676364e-05
-1.428324e-05
-0.001544601
0.001513734
1.258323e-10
8.813753e-05
-1.379333e-05
-1.483684e-05
-1.435721e-05
-1.200275e-05
-0.001481806
0.001449379
1.31365e-10
8.054578e-05
-1.163651e-05
-1.244055e-05
-1.203897e-05
-1.019702e-05
-0.001416886
0.001384837
1.421349e-10
7.280747e-05
-9.924478e-06
-1.047167e-05
-1.016575e-05
-8.760613e-06
-0.001353465
0.001323259
1.414886e-10
6.515917e-05
-8.548934e-06
-8.933862e-06
-8.709512e-06
-7.602601e-06
-0.00129427
0.001266901
1.179689e-10
5.769946e-05
-7.436677e-06
-7.730746e-06
-7.559697e-06
-6.641264e-06
-0.001241016
0.001216936
7.569941e-11
5.054027e-05
-6.503654e-06
-6.7301e-06
-6.585529e-06
-5.77224e-06
-0.001194362
0.001173567
2.186265e-11
4.373534e-05
-5.645889e-06
-5.828058e-06
-5.693939e-06
-4.938427e-06
-0.00115415
0.001136369
-3.843947e-11
3.73355e-05
-4.811971e-06
-4.967835e-06
-4.836773e-06
-4.138065e-06
-0.001119795
0.001104688
-8.936971e-11
3.14577e-05
-4.021529e-06
-4.154603e-06
-4.035853e-06
-3.425243e-06
-0.001090632
0.001077882
-1.256466e-10
2.626549e-05
-3.323042e-06
-3.435247e-06
-3.331805e-06
-2.812175e-06
-0.001066051
0.001055381
-1.439466e-10
2.175617e-05
-2.72534e-06
-2.817986e-06
-2.730312e-06
-2.293188e-06
-0.0010455
0.001036646
-1.468203e-10
1.788393e-05
-2.219838e-06
-2.295469e-06
-2.221504e-06
-1.852177e-06
-0.001028465
0.001021175
-1.364837e-10
1.457545e-05
-1.789456e-06
-1.854033e-06
-1.790223e-06
-1.499319e-06
-0.00101446
0.001008538
-1.17623e-10
1.182004e-05
-1.451582e-06
-1.49752e-06
-1.44966e-06
-1.21878e-06
-0.001003113
0.0009983758
-9.537949e-11
9.531279e-06
-1.180366e-06
-1.216579e-06
-1.178395e-06
-9.933181e-07
-0.0009940563
0.000990328
-7.302346e-11
7.635743e-06
-9.622198e-07
-9.913705e-07
-9.605112e-07
-8.144499e-07
-0.0009869473
0.0009840803
-5.314796e-11
6.072139e-06
-7.895527e-07
-8.126295e-07
-7.884735e-07
-6.712584e-07
-0.0009815026
0.000979364
-3.629956e-11
4.783793e-06
-6.525987e-07
-6.699482e-07
-6.512974e-07
-5.555824e-07
0.0009759481
-2.291418e-11
3.715549e-06
-5.435521e-07
-5.547678e-07
-5.424479e-07
-0.0009774672
-4.694133e-07
-0.0009746395
0.0009736627
-1.289751e-11
2.829049e-06
-4.573065e-07
-4.68809e-07
-4.566541e-07
-3.965087e-07
-0.0009728599
0.0009723541
-5.523188e-12
2.071886e-06
-3.86989e-07
-3.960869e-07
-3.864469e-07
-3.361627e-07
-0.0009719984
0.0009719133
-4.807903e-13
1.413641e-06
-3.284318e-07
-3.358594e-07
-3.280634e-07
-2.834825e-07
-0.0009719575
0.0009722466
2.527208e-12
8.315188e-07
-2.769641e-07
-2.83347e-07
-2.767949e-07
-2.356579e-07
-0.0009726632
0.0009733031
4.595687e-12
2.904028e-07
-2.294782e-07
-2.356614e-07
-2.294568e-07
-1.900981e-07
-0.0009740735
0.000975043
5.868904e-12
-2.196835e-07
-1.846988e-07
-1.902105e-07
-1.848006e-07
-1.430756e-07
-0.0009761403
0.0009774518
6.525874e-12
-7.500415e-07
-1.374768e-07
-1.432742e-07
-1.376714e-07
-9.829527e-08
-0.0009788761
0.0009804978
6.886303e-12
-1.237627e-06
-9.352316e-08
-9.854364e-08
-9.377015e-08
-5.499356e-08
-0.0009822376
0.0009841688
7.022011e-12
-1.719403e-06
-5.064808e-08
-5.526066e-08
-5.09158e-08
-1.435108e-08
-0.0009862137
0.000988437
6.940126e-12
-2.176463e-06
-8.798878e-09
-1.466549e-08
-9.104834e-09
2.07094e-08
-0.0009907708
0.0009932828
6.923115e-12
-2.600379e-06
2.36631e-08
2.049092e-08
2.343688e-08
5.039704e-08
-0.0009958971
0.0009986773
6.603259e-12
-2.985718e-06
5.261175e-08
5.01356e-08
5.233236e-08
7.246302e-08
-0.001001553
0.001004578
6.532535e-12
-3.31702e-06
7.357939e-08
7.215792e-08
7.325307e-08
8.511938e-08
-0.001007689
0.00101093
6.621383e-12
-3.580708e-06
8.480559e-08
8.47788e-08
8.447489e-08
8.668494e-08
-0.001014246
0.001017669
6.917895e-12
-3.764975e-06
8.463158e-08
8.632297e-08
8.419182e-08
7.66496e-08
-0.001021151
0.001024714
7.208982e-12
-3.860323e-06
7.283822e-08
7.589424e-08
7.202447e-08
5.358292e-08
-0.00102832
0.001031978
7.413958e-12
-3.860022e-06
4.81645e-08
5.300463e-08
4.759475e-08
1.744687e-08
-0.001035662
0.001039369
7.642014e-12
-3.762652e-06
1.086809e-08
1.707949e-08
1.057857e-08
-3.02119e-08
-0.001043085
0.001046794
8.074482e-12
-3.571335e-06
-3.855748e-08
-3.064165e-08
-3.906199e-08
-8.780838e-08
-0.001050494
0.001054162
8.235953e-12
-3.296468e-06
-9.752767e-08
-8.825593e-08
-9.802128e-08
-1.520128e-07
-0.001057802
0.001061391
8.10019e-12
-2.959831e-06
-1.62462e-07
-1.524427e-07
-1.629206e-07
-2.158614e-07
-0.001064937
0.001068427
8.104863e-12
-2.610116e-06
-2.233963e-07
-2.162409e-07
-2.238218e-07
-2.49772e-07
-0.001071837
0.00107511
7.760414e-12
-2.313271e-06
-2.298743e-07
-2.50049e-07
-2.302938e-07
-1.918799e-07
-0.001078079
0.001080826
7.381002e-12
-2.133311e-06
-1.144112e-07
-1.914704e-07
-1.156512e-07
-1.781937e-07
-0.001083946
0.001086297
5.986201e-12
-1.515546e-06
-2.418972e-07
-1.759523e-07
-2.393731e-07
-4.929239e-07
-0.001089051
0.001091706
5.039946e-12
-6.861571e-07
-4.956765e-07
-4.889787e-07
-4.916474e-07
-5.885274e-07
-0.001094208
0.001096567
6.106375e-12
-6.035445e-09
-5.920926e-07
-5.843209e-07
-5.87951e-07
-6.809907e-07
-0.001098795
0.001100885
6.950921e-12
6.400181e-07
-6.872073e-07
-6.776081e-07
-6.843704e-07
-7.564189e-07
-0.001102897
0.001104785
6.591141e-12
1.147386e-06
-7.633547e-07
-7.542661e-07
-7.612858e-07
-8.199818e-07
-0.001106605
0.001108315
5.608971e-12
1.575034e-06
-8.243214e-07
-8.178363e-07
-8.222239e-07
-8.70697e-07
-0.001109963
0.001111508
4.76888e-12
1.942852e-06
-8.748808e-07
-8.686517e-07
-8.728793e-07
-9.099893e-07
-0.001113002
0.001114417
3.853791e-12
2.227865e-06
-9.129185e-07
-9.081375e-07
-9.111006e-07
-9.363715e-07
-0.001115792
0.001117109
2.806489e-12
2.428656e-06
-9.381576e-07
-9.347133e-07
-9.364926e-07
-9.514344e-07
-0.001118397
0.00111965
1.861626e-12
2.551797e-06
-9.520086e-07
-9.499457e-07
-9.506388e-07
-9.562133e-07
-0.001120885
0.001122105
1.222946e-12
2.601511e-06
-9.558564e-07
-9.550666e-07
-9.548057e-07
-9.523524e-07
-0.001123321
0.001124539
9.147405e-13
2.586456e-06
-9.510622e-07
-9.514669e-07
-9.501724e-07
-9.414424e-07
-0.001125763
0.001127008
8.988417e-13
2.515717e-06
-9.394348e-07
-9.406181e-07
-9.386546e-07
-9.246453e-07
-0.001128268
0.001129564
1.107504e-12
2.39629e-06
-9.220745e-07
-9.239163e-07
-9.213611e-07
-9.029833e-07
-0.001130884
0.001132254
1.394007e-12
2.234843e-06
-8.999259e-07
-9.023388e-07
-8.992683e-07
-8.772904e-07
-0.001133657
0.001135122
1.566775e-12
2.035869e-06
-8.738574e-07
-8.767265e-07
-8.733163e-07
-8.47968e-07
-0.001136631
0.001138215
1.599092e-12
1.799649e-06
-8.442895e-07
-8.474996e-07
-8.438172e-07
-8.167931e-07
-0.001139846
0.001141558
1.58172e-12
1.546743e-06
-8.132627e-07
-8.164085e-07
-8.128698e-07
-7.856304e-07
-0.001143322
0.001145174
1.555547e-12
1.282204e-06
-7.818806e-07
-7.85317e-07
-7.81574e-07
-7.523521e-07
-0.001147085
0.001149091
1.666243e-12
9.952894e-07
-7.485343e-07
-7.520906e-07
-7.482719e-07
-7.179992e-07
-0.001151159
0.001153329
2.16401e-12
6.940049e-07
-7.141924e-07
-7.177433e-07
-7.139582e-07
-6.825645e-07
-0.001155567
0.001157911
2.844156e-12
3.781383e-07
-6.786924e-07
-6.823385e-07
-6.784974e-07
-6.457722e-07
-0.001160324
0.00116284
3.48366e-12
6.023609e-08
-6.423085e-07
-6.45627e-07
-6.421365e-07
-6.077809e-07
-0.001165438
0.001168161
4.018556e-12
-3.015564e-07
-6.030901e-07
-6.076296e-07
-6.028857e-07
-5.704975e-07
-0.00117096
0.001173885
4.362623e-12
-6.522493e-07
-5.663655e-07
-5.703119e-07
-5.660905e-07
-5.344962e-07
0.001180027
4.727458e-12
-1.006725e-06
-0.001176891
-5.30416e-07
-5.342101e-07
-5.302588e-07
-4.995178e-07
-0.001183248
0.001186602
5.097848e-12
-1.363883e-06
-4.958796e-07
-4.994098e-07
-4.958652e-07
-4.666326e-07
-0.001190045
0.001193623
5.424691e-12
-1.718523e-06
-4.631961e-07
-4.666782e-07
-4.631719e-07
-4.367198e-07
-0.001197292
0.001201096
5.704656e-12
-2.063285e-06
-4.33738e-07
-4.366467e-07
-4.336907e-07
-4.109089e-07
-0.001204992
0.00120902
5.883345e-12
-2.389245e-06
-4.085304e-07
-4.108052e-07
-4.084383e-07
-3.903152e-07
-0.001213139
0.001217384
5.945314e-12
-2.687522e-06
-3.886235e-07
-3.902036e-07
-3.884979e-07
-3.761875e-07
-0.001221718
0.001226169
5.89692e-12
-2.947963e-06
-3.752779e-07
-3.760988e-07
-3.752136e-07
-3.696631e-07
-0.001230704
0.001235343
5.767898e-12
-3.160467e-06
-3.697333e-07
-3.696e-07
-3.696394e-07
-3.719185e-07
-0.001240059
0.001244864
5.556153e-12
-3.314436e-06
-3.731156e-07
-3.718616e-07
-3.730154e-07
-3.842228e-07
-0.001249737
0.001254677
5.209821e-12
-3.398879e-06
-3.866146e-07
-3.841698e-07
-3.865564e-07
-4.074473e-07
-0.001259673
0.001264714
4.745618e-12
-3.402885e-06
-4.111633e-07
-4.074093e-07
-4.111222e-07
-4.423591e-07
-0.001269794
0.001274891
4.120042e-12
-3.317479e-06
-4.474146e-07
-4.422913e-07
-4.473757e-07
-4.890818e-07
-0.00128001
0.001285116
3.43363e-12
-3.136753e-06
-4.955961e-07
-4.890172e-07
-4.955704e-07
-5.469904e-07
-0.001290224
0.001295288
2.671897e-12
-2.859524e-06
-5.55028e-07
-5.470149e-07
-5.549956e-07
-6.151254e-07
-0.001300329
0.001305297
1.629107e-12
-2.489184e-06
-6.246013e-07
-6.151233e-07
-6.244747e-07
-6.910024e-07
-0.001310219
0.001315043
6.84073e-13
-2.037953e-06
-7.020778e-07
-6.909364e-07
-7.01823e-07
-7.717873e-07
-0.001319796
0.001324436
5.654125e-13
-1.529521e-06
-7.834297e-07
-7.714654e-07
-7.833837e-07
-8.533266e-07
-0.00132898
0.001333402
-1.802375e-12
-9.845688e-07
-8.653447e-07
-8.531737e-07
-8.655129e-07
-9.347416e-07
-0.001337699
0.001341869
-3.315322e-12
-4.143709e-07
-9.427871e-07
-9.349991e-07
-9.427918e-07
-1.001339e-06
-0.001345851
0.001349772
2.304325e-12
1.156915e-07
-1.017173e-06
-1.001183e-06
-1.017305e-06
-1.056768e-06
-0.001353524
0.001357186
-3.372873e-11
5.952229e-07
-1.072606e-06
-1.055844e-06
-1.071745e-06
-1.113499e-06
-0.001360675
0.001364144
2.232642e-11
1.012275e-06
-1.126753e-06
-1.114378e-06
-1.127202e-06
-1.147572e-06
-0.001367413
0.001370735
-2.713327e-11
1.287107e-06
-1.157477e-06
-1.146843e-06
-1.157473e-06
-1.123167e-06
-0.001373852
0.001377078
1.585594e-11
1.293868e-06
-1.13624e-06
-1.124011e-06
-1.13661e-06
-9.379799e-07
-0.001379916
0.001382192
6.211232e-12
9.346248e-07
-6.664372e-07
-9.384047e-07
-6.678473e-07
-1.596072e-07
-0.0003448907
0.0003441469
-1.99313e-11
9.03429e-07
-8.59944e-07
-0.0003435173
0.0003433241
-8.30143e-11
1.053263e-06
-1.001536e-06
-0.0003430289
0.000342996
-6.217444e-11
1.034538e-06
-1.090938e-06
-0.0003430566
0.0003431253
-4.437943e-11
1.022352e-06
-1.15775e-06
-0.0003434371
0.0003435692
-2.202782e-11
1.025633e-06
-1.201699e-06
-0.0003440342
0.0003442073
-8.667579e-12
1.028544e-06
-1.233184e-06
-0.0003447725
0.0003449735
-4.422171e-12
1.032214e-06
-1.256187e-06
-0.000345608
0.0003458285
4.263031e-12
1.0357e-06
-1.275633e-06
-0.0003465126
0.0003467473
2.039621e-11
1.04086e-06
-1.294094e-06
-0.0003474689
0.0003477142
3.265514e-11
1.048822e-06
-1.313616e-06
-0.0003484617
0.0003487141
2.781062e-11
1.061216e-06
-1.334334e-06
-0.0003494777
0.0003497337
2.792782e-11
1.078335e-06
-1.356453e-06
-0.0003505045
0.0003507617
4.072165e-11
1.099229e-06
-1.380124e-06
-0.0003515336
0.0003517901
4.923449e-11
1.123548e-06
-1.405287e-06
-0.0003525569
0.0003528106
5.535839e-11
1.151552e-06
-1.431855e-06
-0.0003535656
0.0003538142
5.488622e-11
1.183269e-06
-1.459383e-06
-0.0003545509
0.0003547923
6.156391e-11
1.217923e-06
-1.487072e-06
-0.0003555052
0.0003557378
6.663221e-11
1.254337e-06
-1.514538e-06
-0.0003564228
0.0003566455
6.510648e-11
1.291834e-06
-1.541313e-06
-0.0003572984
0.0003575098
6.939263e-11
1.329861e-06
-1.566825e-06
-0.0003581268
0.0003583253
7.331295e-11
1.368211e-06
-1.591337e-06
-0.0003589025
0.0003590873
7.810186e-11
1.406446e-06
-1.606908e-06
-0.0003596278
0.0003597967
7.694511e-11
1.437928e-06
-1.621582e-06
-0.0003602931
0.0003604468
4.120479e-11
1.467845e-06
-1.636178e-06
-0.0003609019
0.0003610477
5.895489e-11
1.490321e-06
-1.646544e-06
-0.0003614815
0.0003616238
8.389874e-11
1.504125e-06
-1.641759e-06
-0.0003620591
0.0003621907
5.905846e-11
1.510122e-06
-1.66465e-06
-0.0003626105
0.0003627434
2.210015e-11
1.53177e-06
-1.686534e-06
-0.0003631383
0.000363259
6.843843e-11
1.565744e-06
-1.723978e-06
-0.0003636225
0.0003637177
7.804881e-11
1.628698e-06
-1.752363e-06
-0.0003640223
0.0003640506
6.475528e-11
1.723957e-06
-1.818043e-06
-0.0003642337
0.0003641783
4.947128e-11
1.873315e-06
-1.939429e-06
-0.0003641828
0.0003640456
1.92287e-11
2.076564e-06
-2.07879e-06
-0.0003638031
0.0003635633
-5.647373e-11
2.318584e-06
-2.164745e-06
-0.0003631553
0.0003628915
-1.99644e-10
2.428799e-06
-8.30137e-07
-0.0003621585
0.0003611809
-1.069748e-10
1.807831e-06
-2.190222e-07
-0.0003585699
0.0003578134
2.919208e-10
9.751404e-07
-1.495001e-07
-0.0003550437
0.0003540993
6.022483e-10
1.093341e-06
-1.544797e-08
-0.0003512161
0.0003502273
3.40246e-10
1.00396e-06
3.390629e-07
-0.0003470451
0.0003459459
4.259673e-11
7.60058e-07
4.464431e-07
-0.0003426071
0.0003414725
-5.379388e-11
6.882542e-07
5.19471e-07
-0.0003380095
0.0003368289
-8.681531e-11
6.611904e-07
5.809731e-07
-0.0003332206
0.0003319935
-1.187174e-10
6.462976e-07
6.341372e-07
-0.0003282611
0.0003270017
-1.6695e-10
6.253685e-07
6.794102e-07
-0.0003232076
0.0003219423
-2.230147e-10
5.860592e-07
7.210348e-07
-0.0003181754
0.0003169352
-2.603497e-10
5.193728e-07
7.615778e-07
-0.0003132882
0.0003121026
-2.952638e-10
4.24362e-07
8.041241e-07
-0.0003086518
0.0003075421
-3.601903e-10
3.0588e-07
8.478029e-07
-0.0003043419
0.0003033228
-4.216882e-10
1.717343e-07
8.891265e-07
-0.0003004074
0.0002994841
-4.537663e-10
3.463251e-08
9.256487e-07
-0.0002968632
0.0002960407
-4.41036e-10
-1.027667e-07
9.508925e-07
-0.0002937056
0.0002929697
-3.957364e-10
-2.145924e-07
9.545625e-07
-0.0002908711
0.0002902031
-3.397055e-10
-2.86212e-07
9.187105e-07
-0.0002882699
0.00028764
-2.776001e-10
-2.885301e-07
8.256815e-07
-0.0002857824
0.0002851586
-2.362673e-10
-2.016925e-07
6.536784e-07
-0.0002832487
0.0002825827
-2.455466e-10
1.25375e-08
3.769435e-07
-0.000280501
0.0002797345
-3.511643e-10
3.899301e-07
1.521019e-08
-0.0002771214
0.0002761439
-8.663102e-10
9.631719e-07
-7.742189e-07
-0.0002724141
0.0002708395
-4.123873e-09
2.352903e-06
-2.662376e-06
-0.0002656085
0.000262886
-7.81152e-09
5.392708e-06
-1.516514e-05
-0.000254594
0.0002533018
-7.514806e-09
1.64648e-05
-7.990005e-06
-0.0002470862
0.0002429865
1.852145e-08
1.207126e-05
2.141523e-06
-0.0002296482
0.0002257793
-1.615316e-09
1.72904e-06
2.466731e-06
-0.000216112
0.0002133086
1.475153e-08
3.21935e-07
8.153306e-07
-0.0002052988
0.0002025812
2.744001e-08
1.874779e-06
-4.120783e-07
-0.0001940543
0.0001913634
4.715261e-09
3.098264e-06
2.521789e-07
-0.0001845231
0.0001826607
-1.255458e-08
1.622759e-06
4.426294e-07
-0.0001782508
0.0001769989
-1.292117e-08
8.221645e-07
5.994765e-08
-0.0001733161
0.0001720957
-6.90207e-09
1.167351e-06
-2.480494e-07
-0.0001685287
0.0001673488
-1.841982e-09
1.429757e-06
-1.022719e-06
-0.0001622377
0.0006684807
4.010921e-12
1.318633e-05
-1.197482e-06
-1.023024e-06
-1.20555e-06
-0.0001622464
-0.0001763616
-0.0001763725
-6.9643e-07
-0.000660423
0.0006508467
-1.785184e-10
1.196934e-05
-4.919786e-07
-7.043452e-07
-5.000267e-07
-4.009036e-07
-0.0006427841
0.000635835
-2.878843e-10
8.429838e-06
-3.311796e-07
-4.090287e-07
-3.393034e-07
-2.84068e-08
-0.0006298482
0.0006251414
-2.864724e-10
4.652605e-06
6.341003e-08
-3.55211e-08
5.504008e-08
2.905755e-07
-0.0006211266
0.000618062
-2.216997e-10
1.835277e-06
3.30933e-07
2.836824e-07
3.243796e-07
4.283507e-07
-0.0006155062
0.0006134465
-1.441084e-10
3.289022e-07
4.429057e-07
4.22309e-07
4.372992e-07
4.701915e-07
-0.0006115723
0.0006098237
-8.56214e-11
-1.254053e-07
4.718633e-07
4.650794e-07
4.669522e-07
4.487479e-07
-0.0006080717
0.000606271
-5.081191e-11
1.694993e-08
4.468904e-07
4.448754e-07
4.432965e-07
4.233302e-07
-0.0006044168
0.0006025156
-3.201584e-11
2.170663e-07
4.217938e-07
4.202086e-07
4.188426e-07
4.09397e-07
-0.0006005762
0.0005986215
-2.171264e-11
3.234959e-07
4.087555e-07
4.068458e-07
4.062936e-07
4.056025e-07
-0.0005966513
0.0005946949
-1.530298e-11
3.368162e-07
4.061196e-07
4.036037e-07
4.042877e-07
4.138397e-07
-0.0005927459
0.0005908365
-1.192176e-11
2.550507e-07
4.151084e-07
4.120711e-07
4.133745e-07
4.243633e-07
-0.0005889552
0.0005870969
-8.959735e-12
1.562985e-07
4.266318e-07
4.240986e-07
4.268667e-07
4.403167e-07
-0.0005852438
0.0005833985
-4.562092e-12
8.351091e-08
4.412624e-07
4.397282e-07
4.405169e-07
4.444039e-07
-0.0005815558
0.0005797041
-3.018312e-12
7.473039e-08
4.446813e-07
4.437643e-07
4.44087e-07
4.389919e-07
-0.0005778407
0.000575943
-2.018025e-12
1.439992e-07
4.382234e-07
4.386103e-07
4.379479e-07
4.196571e-07
-0.0005740237
0.0005720639
-1.386128e-12
2.917851e-07
4.140406e-07
4.201322e-07
4.142127e-07
3.852087e-07
-0.000570072
0.0005680009
-8.146155e-13
5.402824e-07
3.803734e-07
3.85014e-07
3.802073e-07
3.356899e-07
-0.0005658783
0.0005636574
-2.890358e-13
8.928727e-07
3.283924e-07
3.356092e-07
3.283385e-07
2.698821e-07
-0.0005613722
0.0005589685
1.892909e-13
1.34227e-06
2.608337e-07
2.698761e-07
2.608288e-07
1.930434e-07
-0.0005564875
0.0005538719
5.32688e-13
1.863575e-06
1.829912e-07
1.930385e-07
1.829848e-07
1.110023e-07
-0.0005511705
0.0005483279
5.375953e-13
2.419353e-06
1.006014e-07
1.110271e-07
1.006228e-07
2.666726e-08
-0.0005454002
0.0005423431
1.938644e-13
2.973259e-06
1.52271e-08
2.671393e-08
1.525468e-08
-4.855391e-08
-0.0005392022
0.0005359276
-3.184318e-13
3.486946e-06
-5.769289e-08
-4.844443e-08
-5.760657e-08
-1.170056e-07
-0.0005325855
0.0005291376
-8.996703e-13
3.932052e-06
-1.251237e-07
-1.169674e-07
-1.250727e-07
-1.744065e-07
-0.0005256412
0.0005220672
-1.564473e-12
4.284609e-06
-1.809264e-07
-1.744059e-07
-1.809186e-07
-2.17837e-07
-0.0005184654
0.0005148204
-2.238547e-12
4.525518e-06
-2.224601e-07
-2.177538e-07
-2.223841e-07
-2.450189e-07
-0.0005111702
0.0005075156
-2.869301e-12
4.639397e-06
-2.474616e-07
-2.449221e-07
-2.473592e-07
-2.541544e-07
-0.0005038801
0.0005002825
-3.381585e-12
4.614123e-06
-2.541983e-07
-2.540545e-07
-2.540869e-07
-2.436576e-07
-0.0004967292
0.0004932584
-3.717609e-12
4.440061e-06
-2.410714e-07
-2.435695e-07
-2.409836e-07
-2.120695e-07
-0.0004898577
0.0004865854
-3.862414e-12
4.109658e-06
-2.067216e-07
-2.119993e-07
-2.066482e-07
-1.581418e-07
-0.0004834093
0.0004804083
-3.774939e-12
3.617216e-06
-1.499972e-07
-1.580865e-07
-1.499448e-07
-8.158371e-08
-0.0004775311
0.0004748775
-3.42699e-12
2.95877e-06
-7.103155e-08
-8.156139e-08
-7.101639e-08
1.616693e-08
-0.0004723843
0.0004701581
-2.822586e-12
2.132374e-06
3.074996e-08
1.615035e-08
3.075805e-08
1.408006e-07
-0.0004681121
0.0004663817
-2.067562e-12
1.132182e-06
1.583105e-07
1.4081e-07
1.583393e-07
2.860352e-07
-0.0004648721
0.0004637222
-1.04848e-12
-3.788791e-08
3.078836e-07
2.8598e-07
3.078322e-07
4.557993e-07
-0.0004628001
0.0004623055
2.018539e-13
-1.382201e-06
4.828431e-07
4.555349e-07
4.826002e-07
6.527419e-07
-0.0004620524
0.0004622634
1.451683e-12
-2.879108e-06
6.817051e-07
6.523186e-07
6.813205e-07
8.670048e-07
-0.000462735
0.0004637079
2.832579e-12
-4.5025e-06
8.983443e-07
8.664495e-07
8.97869e-07
1.099035e-06
-0.0004649563
0.0004667385
4.119267e-12
-6.245681e-06
1.133364e-06
1.098323e-06
1.132761e-06
1.347241e-06
-0.0004688084
0.0004714358
5.310245e-12
-8.088414e-06
1.384031e-06
1.346419e-06
1.383309e-06
1.607636e-06
-0.0004743589
0.0004778533
6.394827e-12
-1.00002e-05
1.64617e-06
1.606704e-06
1.645319e-06
1.874404e-06
-0.0004816456
0.0004860097
7.349722e-12
-1.193808e-05
1.913643e-06
1.873278e-06
1.912614e-06
2.137913e-06
-0.0004906667
0.0004958805
8.120838e-12
-1.383951e-05
2.176149e-06
2.136644e-06
2.174986e-06
2.377172e-06
-0.0005013781
0.000507422
8.468944e-12
-1.561244e-05
2.408436e-06
2.375783e-06
2.407137e-06
2.552375e-06
-0.000513778
0.0005207042
8.670181e-12
-1.715577e-05
2.563845e-06
2.550919e-06
2.562409e-06
2.711207e-06
-0.0005279288
0.000535611
8.802627e-12
-1.858047e-05
2.739497e-06
2.709576e-06
2.737935e-06
2.90136e-06
-0.000543509
0.0005517959
8.591625e-12
-1.994307e-05
2.928418e-06
2.899639e-06
2.926753e-06
3.064382e-06
-0.0005602704
0.0005690641
8.036448e-12
-2.109099e-05
3.086016e-06
3.062605e-06
3.084253e-06
3.192963e-06
-0.0005780058
0.0005871886
7.272224e-12
-2.198894e-05
3.211953e-06
3.191201e-06
3.210059e-06
3.286242e-06
-0.0005964798
0.0006059367
8.648064e-12
-2.263654e-05
3.305396e-06
3.28452e-06
3.303488e-06
3.353182e-06
-0.0006154655
0.0006250801
4.216261e-12
-2.304589e-05
3.364252e-06
3.351534e-06
3.362291e-06
3.397765e-06
-0.0006347179
0.0006443093
1.038881e-12
-2.321498e-05
3.415596e-06
3.39642e-06
3.413883e-06
3.362207e-06
-0.0006537247
0.0006632557
4.163677e-12
-2.307053e-05
3.408557e-06
3.361209e-06
3.407503e-06
3.190242e-06
-0.0006735196
0.0006829995
8.73711e-12
-2.232089e-05
3.233224e-06
3.187229e-06
3.23028e-06
3.176476e-06
-0.0006922337
0.0007014533
-2.646236e-12
-2.179235e-05
3.110405e-06
3.175791e-06
3.110106e-06
3.044245e-06
-0.0007106301
0.0007195615
-6.09193e-12
-2.10548e-05
3.017635e-06
3.044178e-06
3.017307e-06
2.938395e-06
-0.0007283844
0.0007369485
-7.140192e-12
-2.027172e-05
2.915802e-06
2.938045e-06
2.915477e-06
2.827386e-06
-0.0007453903
0.0007535504
-2.517999e-12
-1.943158e-05
2.808432e-06
2.827309e-06
2.808364e-06
2.710759e-06
-0.0007615732
0.000769297
-2.090449e-12
-1.85288e-05
2.691847e-06
2.710669e-06
2.6917e-06
2.579038e-06
-0.0007768742
0.0007841323
-3.202507e-12
-1.753141e-05
2.557852e-06
2.578805e-06
2.557588e-06
2.427607e-06
-0.0007912319
0.000797988
-3.067237e-12
-1.641816e-05
2.4037e-06
2.42733e-06
2.403407e-06
2.258334e-06
-0.0008045714
0.0008107893
-2.08144e-12
-1.519846e-05
2.232247e-06
2.258033e-06
2.231938e-06
2.077096e-06
-0.0008168223
0.0008224767
-1.809117e-12
-1.390767e-05
2.049867e-06
2.076796e-06
2.04957e-06
1.891546e-06
-0.0008279384
0.000833019
-2.229569e-12
-1.259166e-05
1.864263e-06
1.891297e-06
1.864012e-06
1.70833e-06
-0.0008379053
0.0008424174
-2.330819e-12
-1.129229e-05
1.681969e-06
1.708116e-06
1.681754e-06
1.532695e-06
-0.0008467383
0.0008506996
-1.930365e-12
-1.004201e-05
1.507834e-06
1.532517e-06