/*--------------------------------*- C++ -*----------------------------------*\
| =========                 |                                                 |
| \\      /  F ield         | foam-extend: Open Source CFD                    |
|  \\    /   O peration     | Version:     3.1                                |
|   \\  /    A nd           | Web:         http://www.extend-project.de       |
|    \\/     M anipulation  |                                                 |
\*---------------------------------------------------------------------------*/
FoamFile
{
    version     2.0;
    format      ascii;
    class       volScalarField;
    location    "4";
    object      k;
}
// * * * * * * * * * * * * * * * * * * * * * * * * * * * * * * * * * * * * * //

dimensions      [0 2 -2 0 0 0 0];

internalField   nonuniform List<scalar> 
119952
(
0.01189111
0.0105549
0.01028687
0.01033292
0.01031722
0.01014768
0.01018452
0.01032313
0.01049982
0.01068585
0.01086736
0.01103797
0.01119569
0.01134096
0.01147553
0.01160174
0.01172264
0.01184321
0.01197546
0.01216931
0.01279939
0.01256289
0.01268146
0.01327458
0.01288063
0.01273789
0.01263444
0.01252949
0.01217368
0.01065195
0.02272254
0.02069806
0.01950315
0.01887406
0.01862543
0.0186098
0.01870668
0.01883316
0.01894896
0.0190968
0.01999076
0.02188867
0.02394086
0.02577255
0.02724109
0.0283349
0.02910911
0.02965125
0.03001904
0.03305261
0.03337572
0.03351983
0.03350607
0.03340927
0.03329066
0.03317268
0.03307483
0.0329911
0.03296386
0.03294293
0.03283073
0.03270856
0.03258842
0.03247615
0.03237232
0.03227282
0.032161
0.03206254
0.03251639
0.03236081
0.03207858
0.0320054
0.03197705
0.03187504
0.03168548
0.0314748
0.03126666
0.03106502
0.03087095
0.03068416
0.03050311
0.03032634
0.03015246
0.02997927
0.0298045
0.02962524
0.02943583
0.02923204
0.02907334
0.02894261
0.02873335
0.02863766
0.02876259
0.02877242
0.02870332
0.02867363
0.0286482
0.02795306
0.02735993
0.02692358
0.0265671
0.02624976
0.0259582
0.02568593
0.0254268
0.02517713
0.02493511
0.02469995
0.02447134
0.0242492
0.02403356
0.02382445
0.02362197
0.0234262
0.02323725
0.02305524
0.02288033
0.02271263
0.02255229
0.02239941
0.02225407
0.02211627
0.02198597
0.02186311
0.02174766
0.02163924
0.02153735
0.02144141
0.02135081
0.02126483
0.02118275
0.02110377
0.02102699
0.02095167
0.02087745
0.02080323
0.02072813
0.02065149
0.02057241
0.02048995
0.02040327
0.0203117
0.0202148
0.02011228
0.0200037
0.01988723
0.01976398
0.01965333
0.01957795
0.0195071
0.01943921
0.01936989
0.01929778
0.01922237
0.01914397
0.01906333
0.01898105
0.01889743
0.01881355
0.0187305
0.01864899
0.01856971
0.01849315
0.01841964
0.01834943
0.01828272
0.01821963
0.01816023
0.01810446
0.01805212
0.01800337
0.01795789
0.01791602
0.01787716
0.01784155
0.01780884
0.01777907
0.01775253
0.01772862
0.01770731
0.01768856
0.01767209
0.01765769
0.01764515
0.01763437
0.01762538
0.01761812
0.01761263
0.01760889
0.01760698
0.01760688
0.01760872
0.0176124
0.01761788
0.01762454
0.01762965
0.01763473
0.01779689
0.01815162
0.01836751
0.01850575
0.018593
0.01864725
0.01868058
0.01870074
0.01871264
0.01871937
0.01872278
0.01872406
0.01872399
0.01872285
0.01871984
0.01871075
0.01869733
0.01868197
0.0186665
0.01865237
0.01864064
0.01863221
0.01862783
0.01862833
0.01863463
0.01864499
0.01865875
0.01867633
0.01869816
0.01872472
0.01875634
0.01879339
0.01883611
0.01888346
0.01892973
0.0189276
0.01896026
0.01901653
0.01907061
0.01912197
0.01916437
0.01919814
0.01922329
0.01923971
0.01924764
0.01924742
0.01923959
0.01922479
0.01920366
0.01917685
0.01914501
0.01910869
0.01906844
0.01902474
0.01897798
0.01892866
0.01887721
0.0188239
0.01876911
0.01871319
0.01865648
0.01859881
0.01854053
0.01848186
0.01842287
0.01836363
0.01830424
0.01824488
0.01818658
0.01812842
0.01759701
0.017635
0.01760676
0.017494
0.01734684
0.01718315
0.01701911
0.01686478
0.01672553
0.01660382
0.01650047
0.01641531
0.01634752
0.01629616
0.01626011
0.01623784
0.01622741
0.01622733
0.01623605
0.0162522
0.01627447
0.0163017
0.01633283
0.01636693
0.01640317
0.01644078
0.01647911
0.01651759
0.01655574
0.0165932
0.0166295
0.01666321
0.01669302
0.0167198
0.01674484
0.01676897
0.01679258
0.01681577
0.01683853
0.01686091
0.01688298
0.0169048
0.01692525
0.01694687
0.01697082
0.01699763
0.01701589
0.01702853
0.01704114
0.01705335
0.01706546
0.01707799
0.01709069
0.01711629
0.01718008
0.01716105
0.01713449
0.01709846
0.01705468
0.01700568
0.0169542
0.01690314
0.01685516
0.01681262
0.01677744
0.01675097
0.01673408
0.01672717
0.01673031
0.01674332
0.01676587
0.01679716
0.01683653
0.01688322
0.01693632
0.0169948
0.01705753
0.01712337
0.01719115
0.01725969
0.01732779
0.01739439
0.01745847
0.01751948
0.01757767
0.01763372
0.01768817
0.01774134
0.01779342
0.01784452
0.01789469
0.01794389
0.01799207
0.01803944
0.01808624
0.01813256
0.01817846
0.018224
0.01826923
0.01831419
0.01835894
0.0184035
0.01844793
0.01849225
0.0185365
0.0185807
0.01862487
0.01866903
0.0187132
0.01875738
0.01880158
0.0188458
0.01889004
0.0189343
0.01897857
0.01902283
0.01906709
0.01911131
0.0191555
0.01919964
0.01924371
0.0192877
0.0193316
0.0193754
0.01941911
0.01946272
0.01950625
0.01954974
0.01959322
0.01963677
0.01968048
0.01972449
0.01976896
0.0198139
0.0198569
0.01989759
0.01995625
0.020118
0.02057094
0.04776279
0.04515674
0.04418558
0.0441237
0.04454334
0.04516028
0.04580109
0.04636325
0.04682123
0.04581254
0.0456468
0.04693441
0.04875933
0.05062765
0.05230267
0.05371416
0.05484236
0.05570754
0.06194837
0.06198328
0.06188986
0.06156801
0.06111777
0.06062374
0.0601359
0.05967586
0.05924842
0.05883635
0.05863001
0.05826349
0.05778984
0.05728332
0.05676541
0.05624581
0.05573075
0.05522577
0.05473098
0.05442462
0.05416145
0.05372795
0.05328305
0.05283535
0.0523804
0.0519262
0.05147862
0.05104169
0.05061737
0.05018008
0.04976628
0.04939213
0.04903153
0.04868065
0.04834069
0.04800765
0.04768779
0.04741815
0.04992045
0.04950801
0.04913912
0.048794
0.04845662
0.04812315
0.04779094
0.04745944
0.04712796
0.04679921
0.04647983
0.04616521
0.04585343
0.04554665
0.04524948
0.04496016
0.0446886
0.04444849
0.04429391
0.04415099
0.04390761
0.04367716
0.04349916
0.04332502
0.04311922
0.04289034
0.04265354
0.04241358
0.04217284
0.04193308
0.04169541
0.04146006
0.04122617
0.04099221
0.04075696
0.04051773
0.04027282
0.04002154
0.03977366
0.0395362
0.03929606
0.03907725
0.03892865
0.03881811
0.03869717
0.03856276
0.03838145
0.03807127
0.03763518
0.03722604
0.03686168
0.03651259
0.03617455
0.03584536
0.03552254
0.03520432
0.03488963
0.03457814
0.03426997
0.03396547
0.03366511
0.0333694
0.03307893
0.03279427
0.03251601
0.03224472
0.03198092
0.03172512
0.03147777
0.03123929
0.03101003
0.03079027
0.03058021
0.03037999
0.03018964
0.03000904
0.02983799
0.02967619
0.02952323
0.02937857
0.02924156
0.02911145
0.02898739
0.02886845
0.02875363
0.02864188
0.02853215
0.02842334
0.02831433
0.02820403
0.02809133
0.0279752
0.02785462
0.02772862
0.02759626
0.02745679
0.02730998
0.02715632
0.02699692
0.02683058
0.02665499
0.02647108
0.02627991
0.02608228
0.02587923
0.02567196
0.02546167
0.02524966
0.0250373
0.02482607
0.02461803
0.0244147
0.02421668
0.02402468
0.02383936
0.02366134
0.02349113
0.02332912
0.0231757
0.02303115
0.02289551
0.02276868
0.02265047
0.0225406
0.02243876
0.02234455
0.02225753
0.02217726
0.02210334
0.02203524
0.02197248
0.02191466
0.02186129
0.02181192
0.02176613
0.02172355
0.02168376
0.02164649
0.02161131
0.02157808
0.02154634
0.0215161
0.02148677
0.02145854
0.02143054
0.02140326
0.02137616
0.02135305
0.02111706
0.02082615
0.02060719
0.02043599
0.02029838
0.02018472
0.02008876
0.02000641
0.01993487
0.01987214
0.01981673
0.01976742
0.01972324
0.01968343
0.01964725
0.01961418
0.01958374
0.0195555
0.01952904
0.01950392
0.01947975
0.01945619
0.01943294
0.01940977
0.01938655
0.01936317
0.01933961
0.01931582
0.01929182
0.01926761
0.01924313
0.01921824
0.01919257
0.01916529
0.01913572
0.01910863
0.01909581
0.01909847
0.01910812
0.01912167
0.01913817
0.01915708
0.01917794
0.01920056
0.01922481
0.01925067
0.01927814
0.01930724
0.01933799
0.01937041
0.01940454
0.01944042
0.01947808
0.01951754
0.01955883
0.01960195
0.01964692
0.01969371
0.01974231
0.01979268
0.01984477
0.01989851
0.0199538
0.02001051
0.02006855
0.02012772
0.02018792
0.02024888
0.02031046
0.02037173
0.02174766
0.0218063
0.02187866
0.02195603
0.02203253
0.02210663
0.022178
0.0222462
0.02231103
0.02237263
0.02243127
0.0224872
0.02254071
0.02259216
0.02264194
0.02269046
0.02273806
0.02278506
0.02283172
0.02287828
0.02292497
0.02297196
0.02301943
0.02306749
0.02311625
0.02316577
0.0232161
0.02326723
0.02331915
0.02337178
0.023425
0.02347871
0.02353272
0.02358689
0.02364117
0.02369555
0.02375003
0.0238046
0.02385927
0.02391405
0.023969
0.0240242
0.02407974
0.02413565
0.02419183
0.02424755
0.02430174
0.02435457
0.02440667
0.02445787
0.02450792
0.0245569
0.02460525
0.02465879
0.02471498
0.02476182
0.0248018
0.02483984
0.02487788
0.02491615
0.02495427
0.02499191
0.02502888
0.02506513
0.02510066
0.02513556
0.02516997
0.02520414
0.02523834
0.0252729
0.02530813
0.02534435
0.02538188
0.02542098
0.02546185
0.02550466
0.02554949
0.02559633
0.02564518
0.02569608
0.02574911
0.02580423
0.02586122
0.02591974
0.02597943
0.02604004
0.02610137
0.02616326
0.02622559
0.02628824
0.02635108
0.02641401
0.02647692
0.02653974
0.02660238
0.02666478
0.02672689
0.02678866
0.02685009
0.02691114
0.02697182
0.02703212
0.02709207
0.02715165
0.02721089
0.02726979
0.02732836
0.02738661
0.02744456
0.02750219
0.02755952
0.02761653
0.02767324
0.02772962
0.02778568
0.02784139
0.02789674
0.02795172
0.02800631
0.0280605
0.02811426
0.02816758
0.02822046
0.02827288
0.02832484
0.02837636
0.02842746
0.02847818
0.02852859
0.02857882
0.02862907
0.02867974
0.0287315
0.02878616
0.0288466
0.02892037
0.02901
0.02914021
0.02924766
0.04407073
0.04820411
0.05278579
0.05717078
0.06162277
0.06617651
0.07029388
0.07419929
0.07842714
0.08798586
0.1404298
0.1437902
0.1458775
0.1472569
0.1480077
0.1482252
0.1480788
0.147729
0.1468741
0.1641145
0.1625715
0.1609254
0.1594377
0.1579266
0.1562527
0.1543762
0.152323
0.1501301
0.1479072
0.1454887
0.1429749
0.1404839
0.1380928
0.1358176
0.1336486
0.1315671
0.1295517
0.1276229
0.1255993
0.1235243
0.1214213
0.1193688
0.1173909
0.1154873
0.1136568
0.1118942
0.1101974
0.1085867
0.1069796
0.1054109
0.1038876
0.1023909
0.1009184
0.09946837
0.09804849
0.09669191
0.09988311
0.09854972
0.09725321
0.09600879
0.09478777
0.09357537
0.09237095
0.09118318
0.09000958
0.08884366
0.08769679
0.0865754
0.08546538
0.08436074
0.08326303
0.08217489
0.08109866
0.08003657
0.07899007
0.07796
0.07693531
0.07591071
0.07489383
0.07388479
0.07288532
0.07189795
0.07092302
0.06996023
0.06901084
0.06807198
0.06713742
0.06621545
0.06530621
0.06441658
0.0635406
0.0626895
0.06183232
0.06096342
0.06024344
0.05952746
0.0588127
0.05811305
0.05743701
0.05678662
0.05616156
0.05556209
0.05498859
0.05444064
0.05391701
0.05341571
0.05293829
0.0524861
0.05206056
0.05166333
0.05129895
0.0509726
0.05068898
0.05043554
0.05017738
0.04991936
0.04968082
0.0494609
0.04924197
0.04901477
0.0487809
0.04854435
0.04830782
0.04807224
0.0478372
0.0476021
0.04736576
0.04712666
0.04688393
0.04663626
0.04638234
0.04612301
0.04586096
0.04560332
0.04535038
0.04511647
0.04491072
0.04473108
0.04455293
0.04435447
0.04412054
0.0438147
0.04343165
0.0430237
0.04262342
0.04223923
0.04186579
0.04149765
0.04113247
0.04076976
0.0404095
0.04005177
0.03969683
0.03934508
0.03899712
0.0386536
0.03831523
0.03798272
0.0376568
0.03733813
0.03702737
0.03672514
0.03643199
0.03614846
0.03587499
0.035612
0.0353598
0.03511864
0.03488869
0.03466999
0.03446251
0.03426611
0.03408052
0.03390536
0.03374014
0.03358424
0.03343696
0.03329745
0.03316481
0.03303805
0.03291611
0.03279788
0.03268224
0.03256803
0.03245408
0.03233921
0.03222229
0.03210218
0.03197784
0.03184832
0.03171296
0.03157144
0.03142377
0.03126951
0.03110765
0.03093789
0.0307605
0.03057599
0.03038495
0.03018818
0.02998659
0.02978118
0.02957302
0.02936313
0.02915207
0.0289407
0.02873061
0.02852331
0.02832016
0.02812236
0.02793105
0.02774749
0.02757283
0.02740722
0.02725078
0.02710363
0.02696578
0.02683716
0.02671763
0.02660693
0.02650475
0.02641075
0.02632453
0.02624564
0.02617362
0.02610797
0.02604823
0.02599388
0.02594449
0.02589953
0.02585864
0.02582132
0.02578729
0.02575603
0.02572744
0.02570093
0.02567663
0.02565376
0.02563282
0.02561278
0.02559468
0.02557584
0.02553417
0.0255022
0.02547712
0.02545705
0.02544052
0.02542635
0.02541373
0.0254021
0.02539108
0.02538043
0.02537003
0.02535981
0.02534974
0.02533982
0.02533008
0.02532057
0.02531135
0.02530248
0.02529401
0.02528599
0.02527844
0.02527139
0.02526482
0.0252588
0.02525332
0.0252484
0.02524406
0.02524032
0.02523718
0.02523467
0.02523277
0.02523153
0.02523109
0.02523208
0.02523647
0.02524532
0.02526043
0.02528143
0.02530629
0.02533405
0.02536418
0.02539622
0.0254298
0.02546466
0.02550062
0.02553757
0.02557541
0.0256141
0.02565359
0.02569387
0.02573495
0.02577682
0.0258195
0.02586302
0.0259074
0.02595267
0.02599886
0.026046
0.0260941
0.02614322
0.02619334
0.02624452
0.0262967
0.02634999
0.02640419
0.02645954
0.02651554
0.02657283
0.0266303
0.02669294
0.02675767
0.02682257
0.02688346
0.02694087
0.0269976
0.0270549
0.02711286
0.02717118
0.02722957
0.02728788
0.02734609
0.02740414
0.027462
0.0275196
0.02757691
0.02763393
0.02769066
0.0277471
0.02780328
0.02785923
0.02791496
0.02797051
0.0280259
0.02808117
0.02813634
0.02819142
0.02824642
0.02830132
0.02835611
0.02841071
0.02846502
0.02851896
0.02857266
0.02862622
0.0286797
0.02873309
0.02878639
0.02883956
0.02889256
0.02894538
0.02899799
0.02905031
0.02910233
0.02915388
0.02920473
0.02925441
0.02930278
0.02935038
0.02939758
0.02944448
0.02949112
0.02953751
0.02958393
0.0296303
0.02967337
0.02971637
0.02976102
0.02980689
0.02985314
0.02989938
0.02994561
0.02999186
0.03003806
0.03008422
0.03013033
0.03017635
0.03022229
0.03026815
0.03031396
0.03035977
0.03040564
0.03045166
0.03049792
0.03054452
0.03059155
0.03063912
0.0306873
0.03073618
0.03078589
0.03083663
0.03088863
0.030942
0.03099676
0.03105278
0.03110992
0.03116803
0.03122701
0.03128674
0.03134712
0.03140808
0.03146951
0.03153133
0.03159343
0.03165573
0.03171815
0.03178061
0.03184304
0.03190539
0.03196762
0.03202971
0.03209162
0.03215334
0.03221485
0.03227616
0.03233726
0.03239815
0.03245882
0.03251928
0.03257951
0.03263952
0.0326993
0.03275883
0.03281811
0.03287711
0.03293583
0.03299425
0.03305233
0.03311006
0.03316742
0.03322438
0.03328093
0.03333703
0.03339268
0.03344786
0.03350259
0.03355687
0.03361076
0.03366432
0.03371768
0.03377107
0.03382483
0.03387965
0.03393654
0.0339976
0.03406538
0.03414662
0.03424157
0.03436045
0.0344308
0.03593369
0.04195638
0.0474614
0.07655585
0.1041857
0.1393072
0.1605603
0.1811689
0.1998455
0.2172412
0.2326729
0.244771
0.2546298
0.2628887
0.2695686
0.2747907
0.2787954
0.2814086
0.2825937
0.2823706
0.2809485
0.2792058
0.2766641
0.2730751
0.2686934
0.263736
0.258384
0.2527795
0.2470298
0.2411771
0.2349556
0.2296319
0.2244956
0.2193472
0.2142682
0.209291
0.204363
0.1995533
0.1948937
0.1904074
0.1860934
0.1819356
0.1779484
0.1741133
0.1704228
0.1668755
0.1634711
0.1602088
0.1570903
0.1540984
0.1512129
0.148448
0.1458013
0.1432595
0.1408151
0.1384622
0.1361965
0.1340155
0.1319087
0.129875
0.1279174
0.1260264
0.1241911
0.1224144
0.1206867
0.1190154
0.1173677
0.1157251
0.1141331
0.1125906
0.1110842
0.1096145
0.1081808
0.1067801
0.1054043
0.1040436
0.1026983
0.1013688
0.1000554
0.09875227
0.09745683
0.09617099
0.09489691
0.09363573
0.09238742
0.09115171
0.08992734
0.08871262
0.08750158
0.08629445
0.08509694
0.08391173
0.08273874
0.08157738
0.08042751
0.07928837
0.07816024
0.07704296
0.07593808
0.07484767
0.07377387
0.07271798
0.07168259
0.07066826
0.06967751
0.06871261
0.06778368
0.06687295
0.06597436
0.06509644
0.06424549
0.06342332
0.06262975
0.06186656
0.06113674
0.06044003
0.05977557
0.05914304
0.05854335
0.05797732
0.05744581
0.05695008
0.05649155
0.05607135
0.05569007
0.05534549
0.0550223
0.05471255
0.05442283
0.05415661
0.05390562
0.05366044
0.05341833
0.05318045
0.05294788
0.05272015
0.05249564
0.0522728
0.05205033
0.05182665
0.05159977
0.05136814
0.0511306
0.05088774
0.05064077
0.05039503
0.05015225
0.0499181
0.04969761
0.04948883
0.049277
0.04904611
0.0487834
0.04847488
0.04811391
0.04772042
0.04732025
0.04692417
0.04653159
0.04613987
0.04574805
0.04535645
0.04496562
0.04457599
0.04418798
0.0438022
0.04341936
0.04304028
0.04266583
0.04229684
0.04193416
0.04157859
0.04123088
0.04089176
0.04056191
0.04024194
0.03993242
0.03963386
0.0393467
0.0390713
0.03880797
0.03855689
0.03831819
0.03809188
0.03787786
0.03767594
0.03748578
0.03730697
0.03713892
0.03698098
0.03683235
0.03669215
0.03655939
0.03643303
0.036312
0.03619514
0.03608126
0.03596914
0.03585758
0.03574535
0.03563129
0.0355143
0.03539341
0.03526789
0.0351372
0.03500079
0.03485794
0.03470809
0.03455109
0.03438709
0.03421639
0.03403946
0.03385691
0.0336695
0.03347811
0.03328369
0.03308724
0.03288986
0.03269273
0.03249702
0.03230389
0.03211443
0.03192964
0.03175026
0.0315767
0.03140984
0.03125048
0.03109918
0.03095635
0.03082222
0.03069687
0.03058029
0.03047239
0.03037305
0.03028187
0.03019845
0.03012234
0.03005312
0.02999031
0.02993346
0.0298821
0.02983576
0.02979402
0.02975645
0.02972268
0.02969229
0.029665
0.02964043
0.0296184
0.02959854
0.02958079
0.02956486
0.02955079
0.02953805
0.02952535
0.02951287
0.02950074
0.0294891
0.02947804
0.02946763
0.02945789
0.02944887
0.0294405
0.02943277
0.02942565
0.02941912
0.02941314
0.02940771
0.02940278
0.02939839
0.02939451
0.02939115
0.02938833
0.02938606
0.02938433
0.02938322
0.02938271
0.02938284
0.02938363
0.02938517
0.02938748
0.02939063
0.02939468
0.02939974
0.02940589
0.02941339
0.02942254
0.02943412
0.02944918
0.02946706
0.02948871
0.02951432
0.0295433
0.02957505
0.02960907
0.029645
0.02968257
0.02972157
0.02976181
0.02980319
0.02984558
0.0298889
0.02993304
0.02997801
0.03002374
0.03007019
0.03011733
0.03016514
0.03021362
0.03026274
0.03031252
0.03036293
0.030414
0.03046573
0.03051812
0.03057117
0.0306249
0.03067933
0.03073448
0.03079044
0.03084719
0.03090452
0.03096201
0.0310196
0.03107693
0.03113316
0.03118923
0.03124651
0.03130514
0.03136456
0.03142421
0.03148378
0.03154316
0.03160237
0.03166141
0.03172031
0.03177911
0.03183782
0.03189643
0.03195495
0.03201338
0.03207172
0.03212997
0.03218813
0.03224619
0.03230414
0.03236197
0.03241968
0.03247725
0.03253465
0.03259187
0.03264887
0.03270561
0.03276205
0.03281814
0.03287387
0.03292927
0.03298437
0.0330392
0.03309376
0.03314804
0.03320201
0.03325563
0.03330888
0.0333617
0.03341405
0.03346585
0.033517
0.03356734
0.03361669
0.03366498
0.03371244
0.0337594
0.0338061
0.03385269
0.03389928
0.03394597
0.03399315
0.03404047
0.03408772
0.03413465
0.03418127
0.03422789
0.03427482
0.03432232
0.03437048
0.03441927
0.03446861
0.03451845
0.03456874
0.03461942
0.03467042
0.03472171
0.03477321
0.0348249
0.03487674
0.03492869
0.03498074
0.03503289
0.03508512
0.03513744
0.03518991
0.03524262
0.0352957
0.03534935
0.03540368
0.03545876
0.0355146
0.03557116
0.03562841
0.03568628
0.03574475
0.03580375
0.03586325
0.03592318
0.0359835
0.03604414
0.03610504
0.03616614
0.03622739
0.03628873
0.03635012
0.03641153
0.03647293
0.03653428
0.03659559
0.03665684
0.03671801
0.03677911
0.03684012
0.03690104
0.03696186
0.03702258
0.0370832
0.03714368
0.03720404
0.03726424
0.03732427
0.03738411
0.03744374
0.03750312
0.03756224
0.03762107
0.03767958
0.03773774
0.03779553
0.03785294
0.03790997
0.0379666
0.03802288
0.03807885
0.03813461
0.03819033
0.03824629
0.0383029
0.03836088
0.03842124
0.03848566
0.03855594
0.03863557
0.03872239
0.03882157
0.03888485
0.02007308
0.02284426
0.02556744
0.03569325
0.0479385
0.06929636
0.08301362
0.09695935
0.1114533
0.1258655
0.1405175
0.1562944
0.1730667
0.1899723
0.2072075
0.2263516
0.2580152
0.2710556
0.2838155
0.2960564
0.3076077
0.3174741
0.3254221
0.3310684
0.3340622
0.3347433
0.3334045
0.3301527
0.3248009
0.3176692
0.3098549
0.3015442
0.2930117
0.2842589
0.2754613
0.2668097
0.2584259
0.250374
0.2427052
0.2354246
0.2285627
0.2219877
0.2152468
0.2090917
0.2034204
0.1981211
0.1931406
0.1884431
0.1840125
0.1798315
0.1758833
0.1721544
0.1686339
0.1652699
0.162042
0.1589544
0.1560093
0.1532065
0.1505439
0.1480164
0.1456178
0.1433379
0.1411703
0.1391079
0.1371437
0.1352723
0.1334881
0.1317852
0.1301573
0.1285982
0.1271026
0.1256657
0.1242802
0.1229423
0.1216476
0.1203938
0.1191727
0.117978
0.1167954
0.1156391
0.1144913
0.1133408
0.1121954
0.1110629
0.1099449
0.1088394
0.107743
0.1066519
0.1055629
0.1044731
0.1033805
0.1022842
0.1011844
0.1000814
0.09897487
0.09786408
0.09674847
0.0956275
0.09450079
0.09336799
0.09223016
0.09108931
0.08994691
0.0888033
0.08765828
0.08651234
0.08536629
0.08422186
0.08308096
0.08194543
0.08081674
0.0796973
0.07858931
0.07749554
0.07641784
0.07535822
0.07431751
0.07329981
0.07230514
0.07133283
0.07038387
0.06946061
0.0685649
0.06769689
0.06685402
0.06603547
0.06524413
0.06448205
0.06375061
0.06305243
0.06239048
0.06176592
0.06117939
0.0606315
0.06012278
0.05965334
0.05922133
0.05882005
0.05844392
0.05809324
0.05776908
0.05746787
0.05718384
0.05691353
0.05665598
0.05641074
0.05617662
0.05595158
0.05573378
0.05552141
0.05531189
0.05510273
0.05489219
0.05467899
0.05446286
0.05424417
0.05402502
0.05380674
0.05359101
0.05337943
0.05316967
0.05295299
0.0527185
0.05245621
0.05215919
0.05182317
0.0514569
0.05107582
0.05068936
0.05029982
0.04990682
0.04951032
0.04911099
0.04870967
0.04830714
0.04790415
0.04750154
0.04710027
0.04670133
0.04630576
0.04591457
0.04552873
0.04514918
0.04477682
0.04441248
0.04405697
0.04371102
0.0433753
0.04305044
0.04273701
0.04243549
0.04214631
0.04186981
0.04160627
0.04135586
0.04111867
0.04089467
0.04068373
0.04048561
0.04029992
0.04012618
0.03996377
0.03981194
0.03966981
0.03953646
0.03941088
0.03929199
0.03917866
0.03906969
0.0389639
0.03886004
0.03875685
0.03865307
0.0385475
0.03843903
0.03832675
0.03820995
0.03808793
0.03796007
0.03782596
0.03768543
0.0375385
0.03738537
0.03722638
0.03706208
0.03689312
0.03672031
0.03654453
0.03636679
0.03618813
0.03600962
0.03583233
0.03565731
0.03548554
0.03531789
0.0351552
0.03499821
0.03484757
0.03470381
0.03456734
0.03443847
0.03431739
0.03420417
0.03409876
0.034001
0.03391075
0.03382779
0.03375186
0.03368262
0.0336197
0.03356272
0.03351126
0.03346492
0.0334233
0.03338601
0.03335269
0.03332297
0.03329655
0.0332731
0.03325236
0.03323407
0.03321801
0.03320393
0.03319167
0.03318107
0.03317189
0.03316386
0.03315663
0.03314992
0.03314368
0.03313791
0.03313261
0.0331278
0.03312348
0.03311967
0.03311638
0.03311364
0.03311146
0.03310988
0.03310889
0.03310853
0.03310881
0.03310976
0.0331114
0.0331137
0.03311665
0.03312026
0.03312455
0.03312955
0.0331353
0.03314185
0.03314924
0.03315755
0.03316686
0.03317727
0.03318893
0.0332021
0.03321732
0.03323485
0.03325446
0.03327661
0.03330173
0.03332998
0.03336118
0.03339496
0.03343095
0.03346889
0.03350857
0.03354979
0.03359239
0.03363625
0.03368124
0.03372725
0.03377421
0.03382203
0.03387063
0.03392
0.03397007
0.03402079
0.03407212
0.03412402
0.03417647
0.03422943
0.03428289
0.03433685
0.03439133
0.03444636
0.03450176
0.03455725
0.03461269
0.03466798
0.03472295
0.03477791
0.03483289
0.03488807
0.03494346
0.03499894
0.03505447
0.03511022
0.03516632
0.03522287
0.03527987
0.03533724
0.03539492
0.03545285
0.03551098
0.03556925
0.03562763
0.03568609
0.03574463
0.03580322
0.03586187
0.03592056
0.03597929
0.03603805
0.03609682
0.03615558
0.03621433
0.03627305
0.0363317
0.03639026
0.03644871
0.03650699
0.03656506
0.03662289
0.03668042
0.03673763
0.03679453
0.03685113
0.03690742
0.03696339
0.03701901
0.03707426
0.03712908
0.03718344
0.03723729
0.03729058
0.03734323
0.03739518
0.03744634
0.03749662
0.03754601
0.03759466
0.03764278
0.0376906
0.03773825
0.03778586
0.0378335
0.03788127
0.03792895
0.03797652
0.03802418
0.03807216
0.03812062
0.03816966
0.03821934
0.0382697
0.03832072
0.0383724
0.03842471
0.03847764
0.03853115
0.03858518
0.0386397
0.03869464
0.03874993
0.03880551
0.03886131
0.03891726
0.0389733
0.03902936
0.0390854
0.0391414
0.03919738
0.03925337
0.03930945
0.03936563
0.03942188
0.03947818
0.03953475
0.03959169
0.03964901
0.0397067
0.03976474
0.03982311
0.0398818
0.03994078
0.04000001
0.04005947
0.04011912
0.04017893
0.04023887
0.04029892
0.04035905
0.04041925
0.04047951
0.04053982
0.04060018
0.04066057
0.04072099
0.04078145
0.04084195
0.04090246
0.04096299
0.04102354
0.04108408
0.04114461
0.0412051
0.04126554
0.04132591
0.04138618
0.04144632
0.04150631
0.04156612
0.04162572
0.04168508
0.04174419
0.04180302
0.04186158
0.04191988
0.04197795
0.04203586
0.04209373
0.04215175
0.04221022
0.04226955
0.04233041
0.04239367
0.04246056
0.04253222
0.04261045
0.0426927
0.04278204
0.04283772
0.01118177
0.0128819
0.01423178
0.02182394
0.03002611
0.04070759
0.04841913
0.05672924
0.06532583
0.07422677
0.08364463
0.0946177
0.1063876
0.1192674
0.1345421
0.1594713
0.1720216
0.1852372
0.1987442
0.2124949
0.2264548
0.2405467
0.2545395
0.2682521
0.2814596
0.2937159
0.3047432
0.3159651
0.3262751
0.3348142
0.3414951
0.3462419
0.348576
0.3482312
0.3451235
0.3387797
0.3300485
0.319797
0.3083077
0.2960515
0.2835007
0.271014
0.258893
0.2473042
0.2363377
0.226063
0.2165156
0.2077017
0.1996006
0.1921767
0.1853815
0.179154
0.1734528
0.1682397
0.1635033
0.1592004
0.1552775
0.1517092
0.1484697
0.1455224
0.1428373
0.1403861
0.1381091
0.1359671
0.1339523
0.1320629
0.1302951
0.1286437
0.1271028
0.1256654
0.1243251
0.1230735
0.1219016
0.1208031
0.119773
0.1188071
0.1179006
0.1170487
0.1162463
0.115489
0.1147719
0.1140906
0.113441
0.1128202
0.1122226
0.1116373
0.1110431
0.11045
0.1098663
0.1092893
0.1087141
0.1081353
0.1075513
0.1069634
0.1063708
0.1057706
0.1051591
0.1045327
0.1038888
0.1032256
0.1025417
0.1018358
0.1011072
0.1003553
0.09957999
0.09878091
0.09795811
0.09711181
0.09624248
0.09535072
0.09443717
0.09350297
0.09254947
0.09157786
0.09058913
0.08958458
0.08856581
0.08753488
0.08649396
0.08544527
0.08439118
0.08333446
0.0822781
0.08122497
0.08017788
0.07913924
0.07811164
0.07709857
0.07610174
0.07512095
0.07415706
0.07321265
0.07229016
0.07139124
0.07051701
0.06966797
0.06884462
0.0680481
0.06727932
0.06653793
0.06582488
0.06514305
0.0644945
0.06388082
0.06330305
0.06276142
0.06225544
0.06178293
0.06134081
0.06092761
0.06054289
0.06018507
0.0598511
0.05953822
0.05924471
0.05896943
0.05871116
0.05846833
0.058239
0.05802094
0.05781157
0.05760851
0.0574098
0.05721372
0.0570192
0.05682561
0.05663296
0.05644132
0.05625045
0.05605938
0.05586552
0.05566307
0.05544481
0.05520274
0.05493235
0.05463234
0.05430491
0.0539589
0.05360183
0.05323643
0.05286341
0.0524833
0.05209701
0.05170559
0.05131011
0.05091159
0.05051109
0.05010976
0.04970876
0.04930926
0.04891243
0.04851937
0.04813115
0.0477488
0.04737329
0.04700553
0.04664638
0.04629665
0.04595706
0.0456283
0.045311
0.04500571
0.04471292
0.04443305
0.04416645
0.04391337
0.04367398
0.04344834
0.0432364
0.04303798
0.04285279
0.04268041
0.04252027
0.04237165
0.04223375
0.04210566
0.04198634
0.04187471
0.04176974
0.04167039
0.04157551
0.04148386
0.04139407
0.0413047
0.04121419
0.04112086
0.04102411
0.04092348
0.04081833
0.04070808
0.0405923
0.04047075
0.04034335
0.04021023
0.04007167
0.03992813
0.03978021
0.03962863
0.03947423
0.03931791
0.03916064
0.03900338
0.03884712
0.03869279
0.03854128
0.03839343
0.03825001
0.03811167
0.03797898
0.03785241
0.03773231
0.03761894
0.03751245
0.03741292
0.0373203
0.0372345
0.03715537
0.0370827
0.03701621
0.03695561
0.03690058
0.03685079
0.0368059
0.03676555
0.03672942
0.03669717
0.03666848
0.03664306
0.03662063
0.03660091
0.03658367
0.03656869
0.03655577
0.03654475
0.03653547
0.03652778
0.0365215
0.03651636
0.03651202
0.03650841
0.03650547
0.03650318
0.0365015
0.0365004
0.03649987
0.0364999
0.03650046
0.03650157
0.03650323
0.03650544
0.03650822
0.03651156
0.0365155
0.03652005
0.03652527
0.03653124
0.03653801
0.0365456
0.03655406
0.03656341
0.0365737
0.03658498
0.03659729
0.03661073
0.03662539
0.03664144
0.03665902
0.03667816
0.03669904
0.03672191
0.03674703
0.03677463
0.03680486
0.03683764
0.03687278
0.03691007
0.03694927
0.03699022
0.03703277
0.03707675
0.03712206
0.03716857
0.03721618
0.03726481
0.03731437
0.03736478
0.03741598
0.03746791
0.03752052
0.03757374
0.03762754
0.03768188
0.03773678
0.03779206
0.03784743
0.0379027
0.03795777
0.03801277
0.03806778
0.03812278
0.03817773
0.03823254
0.0382872
0.03834178
0.03839638
0.03845093
0.03850539
0.03855989
0.03861469
0.03866998
0.03872582
0.03878214
0.03883885
0.03889586
0.03895311
0.03901055
0.03906814
0.03912586
0.03918369
0.03924162
0.03929966
0.03935778
0.039416
0.0394743
0.03953268
0.03959113
0.03964965
0.03970822
0.03976683
0.03982546
0.03988409
0.03994268
0.0400012
0.04005961
0.04011788
0.04017596
0.04023382
0.04029146
0.04034885
0.04040598
0.04046282
0.04051933
0.04057547
0.04063121
0.04068647
0.04074122
0.04079539
0.04084893
0.04090179
0.0409539
0.04100522
0.04105578
0.04110566
0.04115502
0.04120402
0.04125278
0.04130142
0.04134999
0.04139857
0.04144716
0.04149582
0.04154469
0.04159393
0.04164363
0.04169386
0.0417447
0.0417962
0.04184841
0.04190134
0.041955
0.04200939
0.04206448
0.04212025
0.04217667
0.04223368
0.04229123
0.04234926
0.0424077
0.04246649
0.04252556
0.04258485
0.04264431
0.04270392
0.04276368
0.04282362
0.0428838
0.04294424
0.04300497
0.04306597
0.04312727
0.04318885
0.04325071
0.04331285
0.04337525
0.04343791
0.04350082
0.04356397
0.04362735
0.04369095
0.04375473
0.04381869
0.04388281
0.04394709
0.0440115
0.04407605
0.04414073
0.04420554
0.04427047
0.04433554
0.04440074
0.04446606
0.04453152
0.04459709
0.04466279
0.04472858
0.04479448
0.04486045
0.04492648
0.04499254
0.04505861
0.04512467
0.04519068
0.0452566
0.04532242
0.04538809
0.0454536
0.04551892
0.04558403
0.04564894
0.04571367
0.04577825
0.04584278
0.04590737
0.04597222
0.04603763
0.04610399
0.04617186
0.04624194
0.04631512
0.04639211
0.04647403
0.04655827
0.04664805
0.04670554
0.004028336
0.0141138
0.02082388
0.02784035
0.03478757
0.04207677
0.04985083
0.05782029
0.06628111
0.07617518
0.09168222
0.1000395