/*--------------------------------*- C++ -*----------------------------------*\
| =========                 |                                                 |
| \\      /  F ield         | foam-extend: Open Source CFD                    |
|  \\    /   O peration     | Version:     3.1                                |
|   \\  /    A nd           | Web:         http://www.extend-project.de       |
|    \\/     M anipulation  |                                                 |
\*---------------------------------------------------------------------------*/
FoamFile
{
    version     2.0;
    format      ascii;
    class       volScalarField;
    location    "4";
    object      omega;
}
// * * * * * * * * * * * * * * * * * * * * * * * * * * * * * * * * * * * * * //

dimensions      [0 0 -1 0 0 0 0];

internalField   nonuniform List<scalar> 
119952
(
155.4644
191.7954
181.1834
160.1363
145.5143
147.1325
150.4888
154.7497
159.4784
164.479
169.6607
174.9871
180.4549
186.0807
191.8931
197.9283
204.2319
210.871
217.9826
226.0674
190.8789
191.1218
194.0547
164.4187
161.9673
161.0701
160.4168
159.7512
157.3042
147.1399
395.25
320.9759
266.9507
229.7176
202.7962
182.4332
166.2357
152.8806
141.5441
129.1238
111.7809
100.8253
93.53537
88.01747
83.34548
79.11725
75.17734
71.48583
68.08541
56.12612
53.94426
51.67536
49.42608
47.26334
45.22442
43.3185
41.55009
39.90145
38.3987
37.01686
35.65572
34.34352
33.08746
31.89064
30.75396
29.67257
28.6302
27.60976
27.15533
26.68193
26.06649
25.53063
25.05877
24.61736
24.17362
23.74279
23.332
22.94205
22.57311
22.22512
21.89773
21.59011
21.30121
21.02941
20.77194
20.52375
20.27496
20.01135
19.74536
19.4937
19.19333
18.89086
18.71063
18.57228
18.47835
18.58991
19.28051
20.45653
20.65123
20.65154
20.56333
20.44466
20.30994
20.16917
20.03092
19.89969
19.77783
19.66652
19.56628
19.47728
19.39947
19.33268
19.2767
19.23124
19.19601
19.17067
19.15489
19.14832
19.1506
19.16141
19.18044
19.20745
19.24221
19.28431
19.33345
19.38985
19.45377
19.52551
19.60543
19.69398
19.79164
19.89891
20.01609
20.14377
20.28315
20.43441
20.59817
20.775
20.96532
21.16933
21.38719
21.61892
21.86433
22.12274
22.39195
22.6619
22.90432
23.17071
23.52107
23.89199
24.27567
24.66537
25.0571
25.44869
25.83925
26.22723
26.61122
26.98882
27.36159
27.72823
28.08808
28.44087
28.7867
29.1258
29.4584
29.78498
30.10621
30.42278
30.73516
31.0443
31.35189
31.65857
31.96554
32.27339
32.58377
32.89701
33.21477
33.53819
33.86691
34.2022
34.54489
34.89457
35.25208
35.6185
35.9946
36.38108
36.7787
37.18819
37.61032
38.04594
38.49578
38.96051
39.44041
39.93519
40.44425
40.95355
41.35199
43.11669
46.76415
49.92735
52.61094
54.88816
56.83329
58.51573
59.9945
61.31737
62.52257
63.64088
64.69525
65.70546
66.68791
67.65309
68.60815
69.55993
70.51641
71.48502
72.47082
73.47887
74.51391
75.57985
76.67993
77.81752
78.99303
80.20526
81.4609
82.75752
84.09799
85.48175
86.90606
88.36607
89.82351
91.16367
91.15282
89.7083
88.34894
87.03561
85.76029
84.50034
83.25151
82.00969
80.77212
79.53774
78.30644
77.07901
75.85678
74.64117
73.4336
72.2354
71.04769
69.87158
68.70828
67.55871
66.42473
65.30752
64.20801
63.12804
62.06846
61.03073
60.01524
59.02334
58.05644
57.11511
56.20023
55.3128
54.45445
53.62802
52.83235
40.90414
40.33439
39.64614
38.8188
37.96254
37.11321
36.28061
35.47862
34.71886
34.00613
33.34149
32.72363
32.14961
31.61605
31.11896
30.65459
30.21865
29.80775
29.41876
29.04895
28.69591
28.35756
28.03212
27.71812
27.41437
27.11994
26.83413
26.55645
26.28668
26.02474
25.76994
25.51767
25.26281
25.00635
24.74975
24.49415
24.24043
23.98938
23.74169
23.49806
23.25914
23.02555
22.79706
22.57618
22.36623
22.17151
21.98774
21.80919
21.63748
21.47177
21.31106
21.1558
21.00529
20.86104
20.76587
20.62261
20.46599
20.29457
20.10696
19.90617
19.69637
19.48199
19.26703
19.05508
18.84917
18.65166
18.46427
18.28808
18.12357
17.97082
17.82961
17.69928
17.57907
17.46814
17.36558
17.27046
17.1819
17.09911
17.02119
16.94689
16.87415
16.80036
16.72304
16.64112
16.55543
16.46757
16.37886
16.29015
16.20205
16.11501
16.02945
15.94592
15.86515
15.78654
15.70936
15.63348
15.55888
15.4856
15.41366
15.34308
15.27387
15.20603
15.13958
15.07451
15.01081
14.94847
14.88749
14.82784
14.76951
14.71248
14.65674
14.60225
14.54899
14.49693
14.44606
14.39632
14.34771
14.30017
14.25367
14.20817
14.16362
14.11998
14.07718
14.03516
13.99383
13.9531
13.91284
13.8729
13.83305
13.793
13.75228
13.71016
13.66545
13.61626
13.56435
13.50556
13.40874
13.25551
13.40173
530.9536
437.1666
374.7161
330.3651
296.9643
270.5216
248.7307
230.226
213.4841
183.7439
153.8244
134.2644
120.6507
110.5701
102.6843
96.25628
90.83399
86.14725
67.99969
65.39433
62.89772
60.48216
58.21815
56.13668
54.24153
52.52337
50.96618
49.5535
48.3527
47.20778
46.08802
45.01162
43.97896
42.99035
42.04547
41.14339
40.28149
39.6286
39.15078
38.57878
37.97482
37.35541
36.72491
36.09064
35.45908
34.83548
34.22054
33.60558
33.00394
32.42083
31.84522
31.27361
30.70524
30.13825
29.5763
29.04489
25.77404
25.3111
24.86199
24.42083
23.98314
23.54793
23.11477
22.68352
22.25467
21.82909
21.40885
20.99296
20.58089
20.17358
19.7721
19.37699
18.99034
18.61681
18.26802
17.93711
17.59814
17.26872
16.95858
16.66169
16.3702
16.08345
15.80307
15.52928
15.262
15.0012
14.74679
14.49859
14.25643
14.02006
13.78905
13.56263
13.34008
13.12076
12.90568
12.69603
12.49051
12.29215
12.11208
11.9495
11.7991
11.66338
11.55572
11.46134
11.34665
11.21809
11.09086
10.96701
10.84799
10.73324
10.6222
10.51449
10.40984
10.30813
10.20926
10.1132
10.01991
9.929389
9.84162
9.756598
9.67432
9.594775
9.517949
9.443818
9.372356
9.30353
9.237301
9.173633
9.112486
9.05383
8.997646
8.943918
8.892634
8.843791
8.797399
8.753477
8.712056
8.673179
8.636897
8.603271
8.57237
8.544272
8.519057
8.496807
8.477599
8.461503
8.448574
8.438847
8.432322
8.428951
8.428634
8.431208
8.436509
8.444507
8.455602
8.470803
8.49117
8.516148
8.54537
8.57857
8.615304
8.65513
8.697612
8.742298
8.788736
8.83637
8.884242
8.931669
8.97855
9.024771
9.070201
9.114702
9.158146
9.200409
9.241399
9.281119
9.319587
9.356853
9.392968
9.428033
9.462131
9.495401
9.527917
9.559819
9.591257
9.6223
9.653068
9.683696
9.714258
9.744847
9.775545
9.80642
9.837521
9.868902
9.900578
9.932582
9.964894
9.997516
10.03035
10.06329
10.09584
10.12726
10.15641
10.16941
10.49702
10.92943
11.27263
11.54468
11.76185
11.93671
12.0791
12.19681
12.29587
12.38092
12.45549
12.52227
12.58342
12.64072
12.69538
12.74822
12.79975
12.85032
12.90017
12.94946
12.99835
13.04694
13.09526
13.14329
13.19095
13.2381
13.28455
13.33007
13.37433
13.41685
13.45697
13.49352
13.52415
13.54386
13.54347
13.51292
13.46691
13.41584
13.36128
13.30356
13.24339
13.18143
13.11811
13.05381
12.98883
12.92341
12.85777
12.79209
12.72654
12.66127
12.59641
12.53205
12.4683
12.40526
12.34302
12.28165
12.22123
12.16182
12.10348
12.04626
11.99019
11.93532
11.88166
11.82925
11.77813
11.72832
11.67991
11.63297
11.58763
11.54526
10.15171
10.08817
10.03326
9.983642
9.937068
9.892507
9.849513
9.807663
9.76655
9.725893
9.685521
9.645315
9.605198
9.565133
9.525114
9.485175
9.445365
9.405739
9.366365
9.327312
9.288654
9.250461
9.212802
9.175742
9.13934
9.103651
9.068723
9.034595
9.001294
8.968817
8.937112
8.906074
8.875639
8.84575
8.816345
8.787373
8.7588
8.730606
8.702787
8.675349
8.648319
8.621734
8.595632
8.570066
8.54509
8.520668
8.49668
8.473237
8.450681
8.429478
8.409741
8.391417
8.375284
8.361479
8.347379
8.331665
8.317062
8.303322
8.289931
8.276649
8.263314
8.249761
8.235808
8.221301
8.206138
8.190262
8.173659
8.156363
8.138438
8.119979
8.101105
8.081941
8.062622
8.043292
8.024093
8.005161
7.986605
7.968491
7.950798
7.933405
7.916145
7.898893
7.881602
7.86428
7.846949
7.82963
7.812337
7.795083
7.777878
7.760729
7.743642
7.726621
7.709665
7.692773
7.675945
7.659187
7.642505
7.625908
7.609404
7.593001
7.57671
7.560538
7.544496
7.528591
7.512832
7.497229
7.48179
7.466524
7.451437
7.436538
7.421833
7.407328
7.393028
7.378937
7.365058
7.351392
7.33794
7.324699
7.311667
7.298837
7.286201
7.273745
7.261453
7.249302
7.237263
7.225295
7.213343
7.201335
7.189168
7.176697
7.163707
7.149876
7.134699
7.117377
7.096747
7.072148
7.049271
7.032321
7.018289
549.8753
489.375
438.8342
399.557
368.6967
343.8912
322.1454
303.381
287.9066
277.1229
133.241
127.3543
122.0142
116.9853
112.2484
107.7957
103.4966
99.21982
95.15533
73.45929
67.87658
63.73463
60.71784
58.43977
56.61099
55.05662
53.67617
52.40971
51.25181
50.08846
48.82802
47.53333
46.26299
45.05611
43.93052
42.88977
41.92947
41.02514
40.67653
40.16773
39.55586
38.89241
38.21055
37.53059
36.86533
36.22239
35.60761
35.02636
34.46727
33.93346
33.42354
32.93211
32.45719
31.99776
31.5551
31.14468
28.42411
28.07564
27.7487
27.44373
27.15464
26.87687
26.60652
26.33941
26.07532
25.81322
25.55525
25.30282
25.05358
24.80649
24.56166
24.31936
24.07982
23.84321
23.60962
23.38105
23.15671
22.93102
22.70585
22.48182
22.25831
22.03519
21.81225
21.58952
21.3679
21.14775
20.92754
20.70836
20.48983
20.27285
20.05595
19.84091
19.62157
19.3909
19.21252
19.02741
18.83201
18.62849
18.41951
18.20658
17.99064
17.77248
17.55276
17.33188
17.11014
16.88764
16.66499
16.44288
16.22187
16.00281
15.78677
15.57538
15.3698
15.1697
14.96968
14.76931
14.57134
14.37653
14.18247
13.98731
13.79089
13.59375
13.39638
13.19915
13.0022
12.80574
12.61001
12.41512
12.22123
12.02845
11.83682
11.64666
11.4585
11.27364
11.09256
10.91753
10.75057
10.59272
10.44185
10.29574
10.15362
10.01599
9.872328
9.724704
9.581216
9.443194
9.31019
9.181522
9.056803
8.935859
8.818566
8.7048
8.594442
8.487381
8.383524
8.282783
8.185081
8.090343
7.998498
7.909474
7.823203
7.739616
7.658645
7.580223
7.504287
7.430773
7.359626
7.290792
7.224224
7.159881
7.097729
7.037744
6.979908
6.92421
6.870649
6.81923
6.769964
6.722868
6.677961
6.63527
6.594818
6.556631
6.520736
6.487157
6.455913
6.427013
6.400456
6.376231
6.354313
6.334673
6.317294
6.3022
6.289473
6.279203
6.271375
6.265932
6.26281
6.261939
6.263203
6.266477
6.271615
6.278468
6.286906
6.29689
6.308671
6.322303
6.337382
6.353554
6.370508
6.387966
6.405681
6.423343
6.440604
6.457436
6.473836
6.4898
6.50533
6.520442
6.535155
6.549503
6.563515
6.577228
6.590697
6.603965
6.617077
6.630084
6.643032
6.655964
6.668927
6.681949
6.695069
6.708301
6.721678
6.735188
6.748863
6.762643
6.776562
6.790479
6.804429
6.818198
6.831978
6.84501
6.870758
6.889551
6.903556
6.914299
6.922994
6.930492
6.937378
6.944037
6.950727
6.957604
6.964763
6.972261
6.980126
6.988371
6.996989
7.005956
7.015247
7.024834
7.034693
7.044806
7.055153
7.065708
7.076437
7.087307
7.098267
7.109253
7.120188
7.130974
7.141487
7.151563
7.160965
7.169316
7.17607
7.180479
7.181504
7.180398
7.177857
7.174248
7.16975
7.164458
7.15846
7.151822
7.144592
7.13681
7.128512
7.119721
7.110467
7.100777
7.090675
7.080185
7.069332
7.058141
7.046637
7.034849
7.022804
7.010531
6.998059
6.985419
6.97264
6.959755
6.946795
6.933791
6.920776
6.907782
6.894845
6.881993
6.869269
6.856657
6.844109
6.829779
6.834759
6.837589
6.837627
6.835392
6.831601
6.826671
6.82081
6.814137
6.806746
6.798732
6.790183
6.781169
6.771748
6.761958
6.751831
6.741396
6.730679
6.719704
6.708498
6.697089
6.685507
6.673785
6.661957
6.650061
6.638134
6.626214
6.614341
6.602558
6.590906
6.579428
6.56816
6.557137
6.546304
6.535614
6.525054
6.514626
6.504345
6.494231
6.484306
6.474599
6.46514
6.455974
6.447138
6.438701
6.430706
6.423192
6.416093
6.409229
6.402554
6.396103
6.389918
6.384003
6.378159
6.372261
6.367225
6.362535
6.358021
6.353674
6.349397
6.345085
6.340686
6.336188
6.331573
6.326787
6.321778
6.316502
6.310922
6.305009
6.29874
6.2921
6.285085
6.277697
6.269949
6.261859
6.253455
6.244766
6.235822
6.22664
6.217224
6.207559
6.197632
6.187442
6.177007
6.166354
6.155511
6.144506
6.133361
6.122096
6.11073
6.09928
6.087762
6.07619
6.064578
6.052939
6.041287
6.029633
6.017988
6.006362
5.994766
5.983209
5.971698
5.960242
5.948849
5.937526
5.926281
5.915122
5.904057
5.893091
5.882234
5.87149
5.860868
5.850374
5.840011
5.829787
5.819704
5.809766
5.799975
5.790331
5.780835
5.771482
5.76227
5.753189
5.744231
5.735379
5.726614
5.717908
5.709227
5.70052
5.691721
5.682742
5.673457
5.663695
5.653221
5.641742
5.628936
5.614632
5.599101
5.584015
5.571281
329.9957
243.759
332.5477
151.8895
118.7355
84.94004
73.57757
63.95424
56.38978
52.87768
51.61767
51.14856
51.06396
51.48279
51.8619
52.26565
52.66872
53.00386
53.18181
53.16883
52.97997
52.52642
51.57079
50.91966
50.25861
49.52172
48.71049
47.83982
46.92668
45.97854
44.98248
42.34949
41.39721
40.45523
39.52379
38.61036
37.72476
36.87187
36.05321
35.2696
34.52014
33.80173
33.11568
32.45986
31.83229
31.23188
30.65784
30.10959
29.58681
29.08781
28.61158
28.15907
27.72944
27.32055
26.9308
26.55888
26.20372
25.86449
25.53976
25.22897
24.93206
24.64776
24.37478
24.11296
23.86137
23.62009
23.38607
23.15122
22.96206
22.77483
22.58581
22.39631
22.20732
22.0195
21.83481
21.65659
21.48419
21.31705
21.15437
20.9949
20.83754
20.68187
20.5277
20.37476
20.2226
20.07073
19.91874
19.76592
19.61129
19.45427
19.29485
19.13345
18.97001
18.80426
18.63604
18.46525
18.29183
18.11597
17.93817
17.75846
17.5774
17.39484
17.21182
17.02755
16.84439
16.65933
16.47734
16.29692
16.11925
15.9451
15.77458
15.60739
15.44293
15.27997
15.11773
14.95656
14.79668
14.63833
14.48176
14.3272
14.17486
14.02507
13.87813
13.73442
13.59416
13.45737
13.32212
13.18696
13.05238
12.91882
12.78517
12.64998
12.51261
12.37304
12.23135
12.08757
11.94163
11.79353
11.64341
11.49142
11.33765
11.18226
11.0255
10.86782
10.70974
10.55234
10.39626
10.24265
10.09261
9.946575
9.803534
9.66212
9.521217
9.379625
9.236146
9.092225
8.95043
8.811987
8.676952
8.545094
8.416309
8.290607
8.168004
8.048484
7.932017
7.818566
7.708099
7.600582
7.49598
7.39425
7.295348
7.199223
7.105821
7.015085
6.926956
6.841374
6.75828
6.677615
6.599322
6.523351
6.449651
6.37818
6.308901
6.241782
6.1768
6.113935
6.053175
5.994514
5.937949
5.883482
5.831116
5.780858
5.732714
5.68669
5.642796
5.601038
5.561419
5.523938
5.48859
5.455364
5.424249
5.39523
5.368297
5.343451
5.3207
5.300048
5.281456
5.264866
5.25022
5.237464
5.226537
5.217366
5.209875
5.203974
5.199585
5.196635
5.195066
5.19481
5.195768
5.197824
5.200847
5.20472
5.209339
5.214678
5.220762
5.227406
5.234449
5.241762
5.249244
5.256818
5.264426
5.272032
5.279601
5.287092
5.294521
5.301902
5.30925
5.316582
5.323918
5.331275
5.338674
5.346132
5.353666
5.361289
5.369012
5.376838
5.384774
5.392811
5.400947
5.409159
5.417444
5.425754
5.434095
5.442487
5.451519
5.46092
5.470457
5.479932
5.489269
5.498444
5.50744
5.516266
5.524934
5.533458
5.541854
5.550142
5.558339
5.566466
5.574526
5.582538
5.590507
5.598442
5.606349
5.614238
5.622102
5.629945
5.637765
5.645546
5.653264
5.660898
5.668411
5.675754
5.682865
5.689658
5.69601
5.701762
5.706717
5.710604
5.713233
5.715137
5.71639
5.717111
5.717388
5.717278
5.716812
5.716011
5.714892
5.713472
5.711755
5.70975
5.707467
5.704914
5.702089
5.699005
5.695665
5.692078
5.688248
5.684183
5.679892
5.675381
5.670661
5.66574
5.660628
5.655336
5.649876
5.644262
5.638501
5.632606
5.626594
5.620472
5.614255
5.608009
5.601778
5.595531
5.589996
5.585198
5.58103
5.577156
5.573431
5.56978
5.566159
5.562535
5.558885
5.555195
5.55146
5.547678
5.543834
5.539919
5.535928
5.531854
5.527695
5.523448
5.519115
5.514697
5.510199
5.505626
5.500988
5.496294
5.491557
5.48679
5.482009
5.47723
5.472471
5.467746
5.463066
5.458437
5.453855
5.449322
5.444841
5.44042
5.436069
5.4318
5.427626
5.42356
5.419617
5.415813
5.412164
5.408686
5.405393
5.40229
5.399355
5.396543
5.393821
5.391174
5.388594
5.386067
5.383593
5.381216
5.379009
5.376844
5.374633
5.37236
5.370024
5.367623
5.365148
5.362593
5.359949
5.357198
5.354324
5.351307
5.34813
5.344774
5.341219
5.33745
5.333447
5.329199
5.324692
5.319918
5.314869
5.309543
5.303936
5.298042
5.291858
5.285379
5.278602
5.271533
5.264184
5.256569
5.248705
5.240611
5.232306
5.223811
5.215143
5.206324
5.197371
5.188305
5.179143
5.169904
5.160604
5.151259
5.141884
5.132493
5.123097
5.113709
5.104338
5.094994
5.085686
5.076424
5.067214
5.058065
5.048985
5.039981
5.03106
5.022228
5.013493
5.004859
4.996333
4.987919
4.979622
4.971445
4.963391
4.955461
4.947656
4.939975
4.932415
4.924972
4.917639
4.910407
4.903261
4.896186
4.889157
4.882143
4.875107
4.867997
4.86075
4.853285
4.845506
4.837316
4.828604
4.819386
4.809577
4.800224
4.790953
314.2435
213.6298
162.7553
138.6024
112.2525
90.95839
77.42075
71.90758
66.04003
62.75364
60.1212
56.7494
53.50523
50.59344
48.15687
45.67214
41.59787
41.02414
40.84577
41.16181
41.98199
43.13702
44.35793
45.56165
46.72927
47.77979
48.62458
49.2495
49.64761
49.73251
49.53519
49.1265
48.53392
47.7466
46.80865
45.76879
44.66295
43.51607
42.35453
41.19188
40.0532
38.92093
37.77713
36.69488
35.6685
34.68572
33.74531
32.84766
31.99393
31.18369
30.41571
29.68893
29.00251
28.35607
27.74771
27.17509
26.63613
26.1289
25.65159
25.20233
24.77943
24.38098
24.00536
23.65108
23.31676
23.00124
22.70343
22.42223
22.15651
21.90526
21.66748
21.44227
21.22854
21.02562
20.83264
20.64915
20.47372
20.30427
20.13573
19.97127
19.81159
19.65787
19.50959
19.36701
19.22996
19.09792
18.97043
18.8469
18.72671
18.60926
18.49403
18.38055
18.26841
18.15722
18.04654
17.9359
17.82479
17.71274
17.59922
17.48384
17.3662
17.24599
17.12301
16.99704
16.86779
16.73509
16.59886
16.45918
16.31622
16.17026
16.02142
15.87008
15.71649
15.5612
15.40437
15.2466
15.08766
14.92847
14.76971
14.61156
14.45415
14.29794
14.14336
13.99072
13.84096
13.695
13.55272
13.41402
13.27869
13.1462
13.01631
12.88938
12.76567
12.64538
12.52866
12.41555
12.30586
12.19875
12.09335
11.98943
11.88685
11.78502
11.68302
11.58016
11.47604
11.37044
11.26307
11.15365
11.04198
10.92792
10.81133
10.6921
10.57026
10.44595
10.31944
10.1911
10.06153
9.931276
9.800935
9.671117
9.542064
9.413375
9.28435
9.154319
9.022776
8.889425
8.755121
8.621318
8.489022
8.358583
8.230073
8.103563
7.979164
7.856984
7.737105
7.619587
7.50448
7.391826
7.28166
7.174005
7.068875
6.966271
6.866186
6.768603
6.673498
6.580838
6.49059
6.402715
6.317172
6.233922
6.152924
6.074141
5.997541
5.923092
5.850769
5.780552
5.712426
5.646379
5.582404
5.520499
5.460663
5.402896
5.347199
5.293572
5.242016
5.192535
5.145131
5.099801
5.056543
5.015348
4.976207
4.939109
4.904044
4.871002
4.839973
4.810947
4.783903
4.758805
4.735606
4.714259
4.694718
4.676936
4.66086
4.646434
4.633602
4.622295
4.612454
4.60401
4.596893
4.591027
4.586333
4.582727
4.580122
4.578435
4.577589
4.577514
4.578134
4.579368
4.581137
4.583369
4.585997
4.588962
4.592215
4.595725
4.599469
4.603407
4.60751
4.611756
4.616132
4.620628
4.625238
4.629961
4.634795
4.639738
4.64479
4.64995
4.655215
4.660583
4.66605
4.67161
4.677256
4.682984
4.688799
4.694703
4.700698
4.706824
4.713112
4.719571
4.726195
4.732944
4.739788
4.746702
4.753664
4.760657
4.767664
4.77467
4.781664
4.788636
4.795579
4.80249
4.809355
4.816174
4.822944
4.829662
4.836334
4.842962
4.849541
4.856067
4.862529
4.868917
4.875206
4.881377
4.887404
4.893249
4.898868
4.904202
4.909175
4.913668
4.917624
4.921151
4.924248
4.926952
4.929317
4.931394
4.933205
4.934771
4.936108
4.937227
4.938138
4.938847
4.939359
4.939681
4.939816
4.93977
4.939544
4.939138
4.938555
4.937799
4.936874
4.935781
4.934523
4.933102
4.931518
4.929776
4.927877
4.92583
4.923623
4.921302
4.918908
4.916465
4.913999
4.911537
4.909027
4.906461
4.903832
4.901216
4.898614
4.895982
4.893303
4.890583
4.887847
4.885113
4.882397
4.879704
4.877037
4.874398
4.871788
4.869202
4.866638
4.864093
4.861563
4.859046
4.856536
4.854032
4.851532
4.849033
4.846535
4.844038
4.841544
4.839055
4.836575
4.834108
4.831659
4.829233
4.826837
4.824474
4.822146
4.819857
4.817608
4.815404
4.813248
4.811145
4.809101
4.807119
4.805205
4.803363
4.801597
4.79991
4.798303
4.796774
4.795319
4.793924
4.792572
4.791246
4.789932
4.788618
4.787297
4.785963
4.784608
4.783216
4.781766
4.780251
4.778672
4.777022
4.775291
4.773468
4.771544
4.769515
4.767374
4.765115
4.762733
4.76022
4.757568
4.754768
4.751812
4.748689
4.745388
4.7419
4.738215
4.734323
4.730216
4.725885
4.721324
4.716527
4.711491
4.706216
4.700706
4.69497
4.689016
4.682835
4.676432
4.669815
4.663
4.656001
4.648835
4.641516
4.634064
4.626494
4.618824
4.61107
4.603249
4.595373
4.587459
4.579519
4.571564
4.563607
4.555658
4.547727
4.539823
4.531954
4.52413
4.516357
4.508644
4.500997
4.493424
4.48593
4.478521
4.471203
4.46398
4.456857
4.449837
4.442922
4.436116
4.429418
4.422829
4.416346
4.409969
4.40369
4.397505
4.391404
4.385375
4.379403
4.373468
4.367548
4.361613
4.355628
4.349557
4.343354
4.336984
4.330397
4.323622
4.316533
4.309796
4.302622
183.8992
134.908
198.4507
95.21984
79.8314
65.99003
61.75907
58.56708
55.38336
53.91775
52.25151
50.10803
48.21265
46.38457
44.41643
40.2441
39.49828
38.89931
38.4064
38.01867
37.68453
37.43609
37.31434
37.34214
37.53609
37.88868
38.33494
38.9329
39.74116
40.7964
42.06669
43.45762
44.79749
45.96564
46.93698
47.69254
48.05803
48.08299
47.81063
47.26196
46.4703
45.48082
44.34634
43.10167
41.77613
40.40515
39.02023
37.64681
36.3041
35.00525
33.76022
32.56975
31.44134
30.38044
29.39079
28.46769
27.60542
26.8024
26.05728
25.36638
24.7261
24.13278
23.58308
23.07223
22.59666
22.15399
21.74199
21.35858
21.00182
20.66986
20.36104
20.07364
19.80595
19.55654
19.32425
19.10802
18.90682
18.71965
18.54555
18.38363
18.23297
18.09275
17.96219
17.84063
17.72706
17.61883
17.51001
17.40314
17.30248
17.20733
17.11715
17.0313
16.94923
16.87078
16.79575
16.7237
16.65409
16.58642
16.52019
16.45498
16.39041
16.32609
16.26161
16.19661
16.13072
16.06359
15.99484
15.92413
15.85111
15.77544
15.69677
15.61476
15.52915
15.43971
15.34623
15.24854
15.14659
15.04038
14.93001
14.81564
14.69746
14.57578
14.45093
14.3233
14.19324
14.06115
13.92737
13.79243
13.65676
13.52053
13.38391
13.24733
13.11122
12.97599
12.8421
12.70989
12.57965
12.45167
12.32623
12.20398
12.08549
11.97076
11.85979
11.75252
11.64888
11.5487
11.45171
11.35757
11.26595
11.17653
11.0891
11.00325
10.91847
10.83423
10.75012
10.66579
10.58086
10.49493
10.40769
10.31885
10.22809
10.13517
10.03993
9.942278
9.842256
9.739989
9.635712
9.529709
9.422263
9.313616
9.203881
9.092885
8.980308
8.865703
8.748902
8.630027
8.509416
8.387985
8.266576
8.145606
8.0253
7.905843
7.787429
7.670244
7.554454
7.4402
7.327608
7.216789
7.107841
7.000847
6.895873
6.792973
6.692183
6.593529
6.497024
6.402671
6.310466
6.220397
6.132447
6.046598
5.96283
5.88112
5.801449
5.723799
5.648157
5.57451
5.502852
5.433177
5.365486
5.299779
5.236059
5.174332
5.1146
5.056864
5.001126
4.947387
4.895652
4.845923
4.798196
4.752464
4.708718
4.666952
4.627159
4.589336
4.553487
4.519618
4.487688
4.457651
4.429465
4.403092
4.378497
4.355646
4.3345
4.315018
4.297152
4.280863
4.266093
4.252785
4.24088
4.230316
4.221023
4.212932
4.205971
4.200065
4.195141
4.191125
4.187947
4.185537
4.183825
4.182746
4.182237
4.182239
4.182699
4.183568
4.184804
4.186369
4.18823
4.190357
4.192724
4.195311
4.198098
4.201069
4.20421
4.207508
4.210952
4.214532
4.218238
4.222062
4.225996
4.230034
4.234167
4.238391
4.242702
4.247096
4.251576
4.256144
4.260808
4.265571
4.270442
4.275414
4.280476
4.285621
4.290842
4.296132
4.301484
4.30689
4.312344
4.317839
4.323368
4.328925
4.334502
4.340094
4.345694
4.351295
4.356884
4.362447
4.367978
4.373465
4.378901
4.384274
4.389571
4.394777
4.399874
4.404837
4.40964
4.414248
4.418626
4.42277
4.426659
4.430285
4.433651
4.436773
4.439674
4.442376
4.444894
4.447241
4.449426
4.451456
4.453336
4.455073
4.456668
4.458127
4.459451
4.460644
4.461707
4.462646
4.463453
4.464134
4.464689
4.46512
4.465426
4.465607
4.465659
4.465601
4.465464
4.465259
4.464996
4.464652
4.464205
4.463653
4.462995
4.462236
4.461371
4.460397
4.459309
4.458107
4.456787
4.455353
4.45382
4.452207
4.450531
4.448808
4.44705
4.445267
4.443466
4.441657
4.439847
4.438041
4.436245
4.434463
4.432697
4.430948
4.429218
4.427507
4.425816
4.424143
4.422489
4.420855
4.41924
4.417645
4.416072
4.414522
4.412998
4.411502
4.410037
4.408604
4.407207
4.405847
4.404527
4.403249
4.402015
4.400829
4.399691
4.398604
4.397569
4.396585
4.395652
4.394767
4.393926
4.393123
4.392351
4.391599
4.390855
4.390106
4.389342
4.388551
4.387723
4.386848
4.385914
4.384912
4.383833
4.382671
4.381419
4.38007
4.378617
4.377055
4.37538
4.37359
4.371681
4.369651
4.367497
4.365216
4.362805
4.360258
4.357571
4.354737
4.35175
4.348602
4.345286
4.341794
4.338116
4.334246
4.330174
4.325895
4.321402
4.316692
4.311764
4.306616
4.301251
4.295675
4.289896
4.283924
4.277766
4.271435
4.264941
4.258299
4.251522
4.244624
4.23762
4.230525
4.223353
4.216118
4.208833
4.201511
4.194163
4.186802
4.179438
4.172081
4.164741
4.157426
4.150146
4.142908
4.13572
4.128589
4.121523
4.114527
4.107607
4.100769
4.094018
4.087359
4.080794
4.074326
4.067959
4.061694
4.055531
4.049469
4.043508
4.037643
4.031871
4.026185
4.020577
4.015037
4.009551
4.004105
3.998681
3.99326
3.98782
3.982337
3.976795
3.971162
3.96546
3.95954
3.953972
3.947826
91.51869
57.32244
50.90349
47.21501
45.35852
43.36655
41.70538
40.32787
39.19239
37.72611
34.47572
34.09807
33.78094
33.52645
33.30177
33.0998
32.96077
32.90686
32.95234
33.08467
33.17198
33.15157
33.17948
33.28295
33.46208
33.72044
34.07431
34.53962
35.12918
35.84609
36.68322
37.65392
38.80091
40.02342
41.27842
42.5577
43.83375
44.92234
45.62581
45.97563
46.00467
45.68945
45.05642
44.14575
42.99473
41.66339
40.19897
38.65332
37.06957
35.48274
33.92258
32.41167
30.96676
29.6012
28.32323
27.13423
26.03498
25.02399
24.09679
23.25072
22.47996
21.77744
21.13654
20.55164
20.01785
19.53057
19.08555
18.67729
18.30156
17.95552
17.63677
17.34316
17.07276
16.82384
16.59481
16.38424
16.1908
16.01321
15.85039
15.7014
15.5654
15.44158
15.32918
15.2275
15.13586
15.0536
14.9801
14.91477
14.85666
14.80066
14.74575
14.69775
14.65579
14.6193
14.58766
14.56035
14.53673
14.51619
14.49822
14.48242
14.46833
14.45545
14.44327
14.43133
14.41919
14.40641
14.39259
14.37734
14.3603
14.34115
14.31957
14.29527
14.26793
14.23727
14.20299
14.16479
14.12241
14.0756
14.02415
13.96785
13.90656
13.84018
13.76868
13.6921
13.61056
13.52427
13.43349
13.33852
13.23973
13.1375
13.03224
12.92435
12.81427
12.70234
12.58887
12.47416
12.35857
12.2425
12.12631
12.01036
11.89494
11.78036
11.66696
11.55506
11.44506
11.33726
11.23195
11.12935
11.02969
10.93311
10.8397
10.74955
10.66254
10.57838
10.4968
10.41758
10.34046
10.26515
10.19126
10.11843
10.04634
9.97473
9.90332
9.831767
9.759724
9.686839
9.612714
9.536963
9.459433
9.380023
9.29868
9.215392
9.1302
9.043154
8.954274
8.863528
8.770776
8.675777
8.578309
8.47821
8.37569
8.271039
8.164726
8.057278
7.949097
7.840477
7.731664
7.622898
7.514414
7.406425
7.299129
7.192702
7.087307
6.983092
6.88019
6.778712
6.678758
6.580406
6.483722
6.388757
6.295549
6.204124
6.114501
6.026687
5.940687
5.8565
5.774124
5.693555
5.614788
5.537822
5.462656
5.389293
5.317738
5.247998
5.180081
5.113995
5.049751
4.987359
4.926824
4.868152
4.81135
4.756428
4.703404
4.65227
4.603008
4.555606
4.510056
4.466349
4.424477
4.38443
4.346182
4.30972
4.275048
4.242162
4.211056
4.181719
4.154136
4.128289
4.104157
4.081709
4.060922
4.041754
4.024161
4.008098
3.993509
3.980337
3.96852
3.957992
3.948683
3.940523
3.933439
3.92736
3.922213
3.917927
3.914435
3.911669
3.909564
3.908062
3.907106
3.906643
3.906625
3.90701
3.907757
3.908832
3.910202
3.911838
3.913716
3.915811
3.918104
3.920576
3.92321
3.925991
3.928907
3.931946
3.935097
3.938351
3.9417
3.945138
3.948659
3.95226
3.95594
3.959697
3.963527
3.967424
3.971387
3.975411
3.979494
3.983635
3.987831
3.992079
3.996377
4.00072
4.005106
4.009529
4.013985
4.018471
4.022981
4.02751
4.032053
4.036604
4.041158
4.045708
4.050246
4.054764
4.059252
4.063697
4.068088
4.072408
4.076644
4.080777
4.084792
4.08867
4.092399
4.095967
4.09937
4.102609
4.105693
4.108632
4.111437
4.114116
4.116679
4.11913
4.121474
4.123714
4.125853
4.127894
4.129836
4.131683
4.133434
4.13509
4.136652
4.138119
4.13949
4.140763
4.141937
4.143017
4.144028
4.144978
4.145857
4.146644
4.147318
4.147879
4.148319
4.148633
4.148818
4.148871
4.148791
4.148577
4.148231
4.147755
4.14715
4.146418
4.145568
4.144606
4.143545
4.142396
4.141171
4.13988
4.138535
4.137147
4.135725
4.134279
4.132817
4.131346
4.129873
4.128403
4.126939
4.125485
4.124043
4.122616
4.121203
4.119806
4.118426
4.117064
4.115721
4.114397
4.113094
4.111813
4.110557
4.109328
4.108127
4.106957
4.105821
4.10472
4.103658
4.102637
4.101659
4.100724
4.099835
4.09899
4.098189
4.097429
4.096707
4.096018
4.095355
4.09471
4.094073
4.093435
4.092783
4.092108
4.091399
4.090644
4.089833
4.088956
4.088003
4.086966
4.085835
4.084602
4.083262
4.081807
4.080236
4.078543
4.076726
4.074783
4.072712
4.070511
4.068177
4.065708
4.063103
4.060357
4.057467
4.054429
4.051238
4.047889
4.044375
4.040691
4.036829
4.032784
4.028549
4.02412
4.019491
4.014659
4.009621
4.004377
3.998942
3.993327
3.987537
3.981579
3.975462
3.969195
3.962788
3.956252
3.949599
3.942842
3.935992
3.929064
3.922069
3.915019
3.907926
3.900803
3.893659
3.886505
3.879352
3.872208
3.865084
3.857987
3.850927
3.843911
3.836946
3.830039
3.823198
3.816429
3.809737
3.803127
3.796605
3.790174
3.783839
3.777601
3.771464
3.765429
3.759496
3.753664
3.747934
3.742301
3.736762
3.731311
3.725943
3.720648
3.715416
3.710238
3.7051
3.699991
3.694896
3.689806
3.684696
3.679591
3.674341
3.669509
3.664086
111.0532
42.19712
32.43951
30.27786
29.16671
28.54332
28.22643
28.1091
28.13809
28.2799
28.40213
28.38691
28.38026
28.40391
28.45536
28.54057
28.67008
28.84792
29.07109
29.32321
29.58413
29.87446
30.21933
30.63977
31.14244
31.73855
32.4424
33.2685
34.22885
35.3152
36.52599
37.8532
39.29899
40.68807
41.86446
42.85616
43.6199
44.08265
44.16358
43.8704
43.24865
42.30709
41.07993
39.62053
37.98705
36.25416
34.4798
32.71099
30.98791
29.34155
27.79128
26.349
25.02208
23.8116
22.71199
21.71586
20.81445
19.99747
19.25991
18.59473
17.99499
17.45417
16.96393
16.51772
16.1112
15.74054
15.4023
15.09331
14.81071
14.55212
14.31546
14.09895
13.90097
13.72009
13.55502
13.40461
13.26781
13.14367
13.03136
12.93013
12.83935
12.75841
12.68679
12.62398
12.56952
12.52296
12.48389
12.45164
12.42213
12.39738
12.37999
12.36937
12.36491
12.36602
12.37214