/*--------------------------------*- C++ -*----------------------------------*\
| =========                 |                                                 |
| \\      /  F ield         | foam-extend: Open Source CFD                    |
|  \\    /   O peration     | Version:     3.1                                |
|   \\  /    A nd           | Web:         http://www.extend-project.de       |
|    \\/     M anipulation  |                                                 |
\*---------------------------------------------------------------------------*/
FoamFile
{
    version     2.0;
    format      ascii;
    class       volScalarField;
    location    "4";
    object      pd;
}
// * * * * * * * * * * * * * * * * * * * * * * * * * * * * * * * * * * * * * //

dimensions      [1 -1 -2 0 0 0 0];

internalField   nonuniform List<scalar> 
119952
(
9773.222
9656.5
9634.85
9657.941
9684.922
9672.276
9671.504
9671.116
9671.449
9672.039
9672.813
9673.662
9674.504
9675.279
9675.934
9676.391
9676.503
9675.873
9673.054
9661.337
9712.604
9679.112
9669.025
9735.03
9721.945
9731.39
9735.759
9753.534
9815.717
7528.278
8901.491
8933.807
8965.163
8997.768
9029.302
9059.646
9088.989
9117.415
9144.913
9164.983
9193.232
9217.219
9240.523
9262.505
9283.742
9304.297
9324.227
9343.301
9362.52
9389.839
9399.513
9413.939
9429.392
9444.113
9458.709
9473.094
9487.068
9500.507
9513.82
9524.164
9537.372
9549.367
9560.899
9572.315
9583.524
9594.564
9606.171
9622.673
9648.863
9640.376
9643.906
9657.546
9666.433
9668.858
9668.595
9669.226
9670.024
9670.899
9671.859
9672.821
9673.73
9674.556
9675.257
9675.78
9676.04
9675.955
9675.621
9676.065
9680.114
9683.464
9684.473
9699.059
9719.384
9723.381
9726.703
9730.336
9720.903
9678.724
9671.143
9677.391
9679.6
9681.658
9683.205
9684.156
9684.786
9685.191
9685.415
9685.485
9685.419
9685.236
9684.947
9684.563
9684.091
9683.538
9682.908
9682.208
9681.443
9680.617
9679.734
9678.8
9677.82
9676.799
9675.741
9674.646
9673.528
9672.389
9671.234
9670.067
9668.893
9667.717
9666.541
9665.367
9664.207
9663.065
9661.944
9660.814
9659.714
9658.628
9657.558
9656.495
9655.437
9654.375
9653.296
9652.172
9650.962
9649.756
9649.453
9650.383
9651.071
9650.044
9648.927
9648.105
9647.409
9646.754
9646.169
9645.636
9645.136
9644.704
9644.376
9644.077
9643.835
9643.655
9643.541
9643.494
9643.514
9643.607
9643.773
9644.003
9644.329
9644.724
9645.198
9645.74
9646.347
9647.033
9647.785
9648.603
9649.497
9650.43
9651.446
9652.509
9653.614
9654.773
9655.972
9657.212
9658.483
9659.78
9661.099
9662.432
9663.772
9665.109
9666.431
9667.724
9668.961
9670.091
9671.004
9671.614
9672.517
9678.396
9680.051
9681.145
9682.066
9683.081
9684.084
9685.045
9685.958
9686.806
9687.573
9688.256
9688.836
9689.32
9689.675
9689.932
9690.041
9690.014
9689.839
9689.507
9689.008
9688.334
9687.472
9686.411
9685.14
9683.652
9681.891
9679.854
9677.49
9674.727
9671.592
9667.956
9663.662
9658.43
9651.697
9642.526
9631.185
9637.964
9641.353
9642.79
9642.7
9641.94
9640.589
9638.733
9636.458
9633.812
9630.819
9627.504
9623.883
9619.966
9615.765
9611.284
9606.531
9601.512
9596.229
9590.68
9584.869
9578.808
9572.496
9565.927
9559.107
9552.039
9544.725
9537.177
9529.385
9521.361
9513.111
9504.646
9495.996
9487.02
9477.439
9485.041
9467.214
9446.464
9436.735
9426.399
9414.768
9403.517
9392.421
9381.069
9369.515
9357.842
9346.049
9334.106
9322.03
9309.825
9297.476
9284.995
9272.407
9259.702
9246.886
9233.965
9220.945
9207.834
9194.638
9181.364
9168.018
9154.607
9141.137
9127.614
9114.047
9100.437
9086.775
9073.061
9059.305
9045.52
9031.716
9017.9
9004.076
8990.252
8976.436
8962.638
8948.855
8935.146
8921.681
8908.235
8894.465
8879.426
8864.036
8849.054
8834.031
8819.064
8804.186
8789.155
8771.817
8752.069
8739.175
8725.748
8710.341
8694.813
8679.153
8663.304
8647.347
8631.303
8615.15
8598.878
8582.478
8565.95
8549.286
8532.484
8515.545
8498.456
8481.209
8463.826
8446.299
8428.62
8410.793
8392.818
8374.697
8356.429
8338.014
8319.446
8300.74
8281.903
8262.947
8243.888
8224.732
8205.487
8186.16
8166.759
8147.294
8127.776
8108.215
8088.622
8069.011
8049.392
8029.778
8010.183
7990.621
7971.105
7951.649
7932.268
7912.978
7893.793
7874.728
7855.798
7837.021
7818.41
7799.983
7781.754
7763.74
7745.957
7728.421
7711.147
7694.15
7677.447
7661.052
7644.98
7629.246
7613.864
7598.846
7584.207
7569.958
7556.111
7542.676
7529.657
7517.065
7504.906
7493.18
7481.881
7470.995
7460.505
7450.371
7440.525
7430.851
7421.13
7411.094
7401.353
7398.926
7420.007
8116.261
8088.956
8061.789
8038.835
8021.168
8006.424
7996.502
7992.066
7989.647
7972.795
7991.524
8000.435
8013.212
8029.45
8049.113
8072.108
8097.944
8126.651
8173.759
8209.252
8231.87
8266.112
8304.072
8342.809
8382.944
8424.092
8465.885
8508.754
8548.41
8587.558
8630.554
8671.954
8712.259
8752.011
8791.088
8829.398
8867.018
8904.59
8935.697
8968.251
9001.855
9033.81
9064.309
9093.793
9122.169
9149.328
9174.957
9200.265
9224.319
9246.756
9268.282
9289.194
9309.392
9328.867
9347.614
9366.668
9388.987
9406.299
9420.795
9435.016
9449.538
9464.046
9478.183
9491.846
9505.075
9517.983
9530.377
9542.138
9553.626
9565.008
9576.346
9587.69
9599.282
9611.271
9623.455
9634.471
9641.959
9647.218
9653.561
9659.779
9664.028
9666.326
9667.703
9668.907
9670.151
9671.39
9672.543
9673.59
9674.531
9675.362
9676.106
9676.786
9677.521
9678.561
9680.349
9683.221
9687.328
9692.604
9699.858
9708.451
9713.267
9714.03
9710.828
9702.995
9691.614
9683.134
9680.837
9681.79
9683.102
9683.858
9684.22
9684.453
9684.624
9684.702
9684.661
9684.503
9684.244
9683.893
9683.457
9682.941
9682.349
9681.685
9680.954
9680.161
9679.309
9678.404
9677.449
9676.449
9675.408
9674.334
9673.228
9672.093
9670.937
9669.766
9668.583
9667.393
9666.201
9665.01
9663.825
9662.649
9661.486
9660.34
9659.211
9658.096
9656.999
9655.917
9654.85
9653.797
9652.757
9651.734
9650.744
9649.833
9649.081
9648.591
9648.402
9648.269
9647.846
9647.194
9646.519
9645.899
9645.338
9644.829
9644.369
9643.96
9643.606
9643.311
9643.068
9642.912
9642.805
9642.757
9642.773
9642.855
9643.005
9643.227
9643.537
9643.91
9644.349
9644.858
9645.435
9646.082
9646.801
9647.585
9648.436
9649.348
9650.325
9651.354
9652.436
9653.572
9654.751
9655.972
9657.231
9658.522
9659.837
9661.175
9662.524
9663.884
9665.237
9666.588
9667.911
9669.223
9670.517
9671.889
9673.423
9675.175
9677.525
9679.54
9680.607
9681.731
9682.899
9683.963
9684.956
9685.887
9686.74
9687.506
9688.181
9688.754
9689.23
9689.59
9689.825
9689.933
9689.897
9689.711
9689.365
9688.854
9688.166
9687.291
9686.216
9684.923
9683.394
9681.615
9679.561
9677.208
9674.517
9671.421
9667.857
9663.731
9658.934
9653.482
9647.905
9643.579
9642.767
9644.008
9644.215
9643.611
9642.564
9641.021
9639.031
9636.664
9633.946
9630.898
9627.534
9623.871
9619.917
9615.682
9611.172
9606.39
9601.342
9596.032
9590.462
9584.634
9578.55
9572.212
9565.623
9558.782
9551.697
9544.369
9536.792
9528.979
9520.928
9512.654
9504.153
9495.447
9486.522
9477.666
9470.675
9462.749
9450.058
9436.236
9424.057
9412.863
9401.825
9390.598
9379.122
9367.478
9355.731
9343.884
9331.914
9319.802
9307.55
9295.166
9282.654
9270.021
9257.273
9244.417
9231.459
9218.405
9205.263
9192.038
9178.738
9165.368
9151.934
9138.443
9124.901
9111.309
9097.673
9084.008
9070.28
9056.517
9042.728
9028.919
9015.095
9001.262
8987.423
8973.585
8959.751
8945.924
8932.093
8918.23
8904.266
8890.053
8875.472
8860.608
8845.663
8830.741
8815.768
8800.694
8785.285
8769.114
8752.421
8736.625
8721.972
8707.32
8692.078
8676.377
8660.487
8644.513
8628.444
8612.258
8595.949
8579.512
8562.944
8546.244
8529.406
8512.428
8495.304
8478.032
8460.611
8443.042
8425.325
8407.46
8389.447
8371.286
8352.978
8334.526
8315.931
8297.2
8278.341
8259.365
8240.283
8221.103
8201.833
8182.48
8163.055
8143.567
8124.026
8104.443
8084.831
8065.201
8045.565
8025.937
8006.329
7986.756
7967.232
7947.77
7928.387
7909.096
7889.913
7870.853
7851.932
7833.166
7814.57
7796.16
7777.953
7759.964
7742.209
7724.704
7707.465
7690.508
7673.847
7657.499
7641.478
7625.798
7610.474
7595.52
7580.948
7566.77
7552.999
7539.643
7526.713
7514.216
7502.157
7490.541
7479.367
7468.63
7458.324
7448.442
7438.976
7429.979
7421.577
7414.27
7408.705
7405.836
7403.826
7830.26
7990.432
8161.507
8339.518
8521.356
8697.516
8866.261
9023.316
9161.41
9274.211
9360.092
9427.522
9471.141
9493.02
9494.917
9479.175
9447.97
9404.161
9352.335
9275.475
9209.682
9138.137
9064.066
8988.615
8912.947
8837.868
8764.123
8692.764
8625.442
8555.598
8491.66
8430.975
8373.41
8319.634
8269.661
8223.718
8182.148
8146.185
8109.448
8075.171
8049.271
8028.025
8011.071
7998.044
7988.974
7983.924
7983.19
7984.301
7990.174
8001.157
8014.458
8030.881
8050.749
8073.91
8100.008
8129.714
8168.729
8203.93
8237.915
8273.486
8311.267
8350.791
8391.412
8432.763
8474.673
8516.961
8559.403
8601.128
8642.108
8682.76
8723.146
8763.073
8802.278
8840.593
8877.888
8913.937
8948.246
8980.983
9012.98
9044.34
9074.709
9103.899
9131.892
9158.7
9184.374
9208.86
9232.32
9254.832
9276.404
9297.16
9317.087
9336.342
9354.881
9373.443
9391.688
9407.768
9422.524
9437.05
9451.679
9466.157
9480.237
9493.814
9506.905
9519.549
9531.758
9543.596
9555.155
9566.521
9577.743
9588.88
9599.889
9610.745
9621.232
9631.26
9639.359
9645.419
9651.063
9656.686
9661.239
9664.247
9666.253
9667.912
9669.488
9670.986
9672.352
9673.579
9674.703
9675.751
9676.746
9677.752
9678.887
9680.312
9682.26
9685.005
9688.658
9692.905
9697.948
9703.177
9706.515
9706.995
9704.718
9699.668
9692.419
9686.439
9683.969
9683.806
9684.206
9684.419
9684.443
9684.429
9684.415
9684.356
9684.212
9683.975
9683.652
9683.248
9682.769
9682.215
9681.591
9680.899
9680.143
9679.327
9678.455
9677.53
9676.556
9675.539
9674.481
9673.387
9672.262
9671.11
9669.937
9668.748
9667.546
9666.337
9665.124
9663.912
9662.705
9661.507
9660.321
9659.151
9657.997
9656.861
9655.746
9654.652
9653.58
9652.531
9651.51
9650.527
9649.596
9648.744
9648.01
9647.433
9647.012
9646.648
9646.183
9645.585
9644.961
9644.396
9643.9
9643.457
9643.061
9642.713
9642.419
9642.178
9642
9641.849
9641.77
9641.758
9641.809
9641.922
9642.097
9642.321
9642.706
9643.131
9643.608
9644.151
9644.761
9645.437
9646.182
9646.992
9647.87
9648.806
9649.797
9650.845
9651.943
9653.09
9654.283
9655.519
9656.791
9658.095
9659.426
9660.78
9662.15
9663.532
9664.918
9666.306
9667.695
9669.097
9670.525
9672.007
9673.557
9675.205
9677.145
9679.017
9680.564
9681.823
9682.941
9684.001
9685.012
9685.956
9686.818
9687.59
9688.269
9688.847
9689.315
9689.668
9689.898
9689.995
9689.949
9689.75
9689.39
9688.866
9688.167
9687.281
9686.194
9684.894
9683.366
9681.595
9679.56
9677.243
9674.614
9671.648
9668.327
9664.663
9660.731
9656.733
9653.023
9650.129
9648.344
9647.42
9646.624
9645.497
9643.949
9642.021
9639.76
9637.184
9634.301
9631.114
9627.632
9623.865
9619.818
9615.499
9610.91
9606.056
9600.94
9595.564
9589.93
9584.041
9577.897
9571.5
9564.851
9557.953
9550.807
9543.421
9535.785
9527.909
9519.788
9511.442
9502.864
9494.046
9484.876
9475.273
9464.744
9453.005
9442.013
9431.916
9422.099
9412.025
9401.52
9390.647
9379.485
9368.088
9356.492
9344.718
9332.794
9320.716
9308.483
9296.104
9283.59
9270.951
9258.193
9245.324
9232.351
9219.28
9206.12
9192.877
9179.557
9166.168
9152.715
9139.205
9125.642
9112.032
9098.378
9084.668
9070.942
9057.182
9043.394
9029.583
9015.754
9001.911
8988.056
8974.191
8960.313
8946.418
8932.494
8918.509
8904.414
8890.148
8875.649
8860.923
8846.071
8831.177
8816.231
8801.201
8786.135
8771.298
8756.794
8741.765
8726.086
8710.114
8694.087
8678.064
8662.032
8645.967
8629.838
8613.609
8597.264
8580.805
8564.228
8547.524
8530.685
8513.708
8496.586
8479.318
8461.901
8444.336
8426.62
8408.755
8390.74
8372.577
8354.267
8335.813
8317.218
8298.487
8279.629
8260.652
8241.566
8222.379
8203.099
8183.734
8164.295
8144.79
8125.232
8105.629
8085.995
8066.341
8046.68
8027.025
8007.389
7987.786
7968.23
7948.736
7929.318
7909.992
7890.773
7871.675
7852.716
7833.91
7815.274
7796.823
7778.574
7760.543
7742.746
7725.199
7707.917
7690.917
7674.214
7657.824
7641.761
7626.041
7610.677
7595.684
7581.075
7566.862
7553.059
7539.675
7526.721
7514.207
7502.141
7490.529
7479.377
7468.691
7458.479
7448.758
7439.56
7430.967
7423.092
7416.193
7410.451
7406.64
7403.179
6992.54
7007.362
7031.755
7059.567
7096.179
7149.952
7210.732
7285.397
7376.019
7465.584
7560.472
7676.915
7812.694
7963.47
8127.242
8298.026
8471.739
8643.22
8806.548
8957.418
9092.244
9209.092
9300.949
9366.955
9410.205
9431.889
9433.866
9418.501
9388.28
9346.397
9298.274
9209.014
9149.286
9084.278
9011.408
8936.246
8861.712
8788.588
8717.156
8647.722
8580.55
8515.905
8454.128
8395.318
8339.792
8287.892
8239.792
8195.561
8155.187
8118.493
8085.639
8056.846
8032.032
8011.332
7994.943
7982.817
7974.801
7970.757
7970.513
7974.196
7981.604
7992.398
8006.658
8024.487
8045.556
8069.747
8096.607
8127.011
8161.303
8195.699
8229.684
8265.586
8304.106
8344.592
8386.317
8428.727
8471.42
8514.141
8556.685
8598.949
8640.862
8682.378
8723.389
8763.704
8803.125
8841.509
8878.762
8914.787
8949.581
8983.204
9015.734
9047.249
9077.648
9106.821
9134.77
9161.549
9187.207
9211.827
9235.444
9258.025
9279.667
9300.442
9320.461
9339.684
9358.256
9375.795
9393.008
9409.628
9425.307
9440.293
9454.85
9469.098
9482.96
9496.358
9509.22
9521.686
9533.784
9545.528
9556.946
9568.098
9579.029
9589.748
9600.207
9610.376
9620.111
9629.222
9637.118
9643.63
9649.325
9654.569
9659.063
9662.511
9665.102
9667.223
9669.119
9670.856
9672.434
9673.866
9675.19
9676.44
9677.648
9678.887
9680.258
9681.873
9683.872
9686.382
9689.415
9692.8
9696.427
9699.807
9702.041
9702.425
9700.807
9697.5
9693.068
9688.996
9686.573
9685.653
9685.401
9685.248
9685.062
9684.878
9684.707
9684.515
9684.267
9683.949
9683.558
9683.098
9682.569
9681.972
9681.31
9680.583
9679.795
9678.95
9678.05
9677.098
9676.099
9675.057
9673.975
9672.858
9671.71
9670.536
9669.34
9668.126
9666.901
9665.667
9664.43
9663.193
9661.961
9660.738
9659.527
9658.332
9657.153
9655.994
9654.859
9653.749
9652.666
9651.613
9650.595
9649.621
9648.703
9647.858
9647.105
9646.46
9645.914
9645.422
9644.913
9644.359
9643.798
9643.275
9642.802
9642.378
9642
9641.67
9641.394
9641.173
9641.012
9640.91
9640.873
9640.903
9640.999
9641.165
9641.404
9641.733
9642.032
9642.432
9642.918
9643.475
9644.099
9644.789
9645.545
9646.368
9647.266
9648.23
9649.248
9650.317
9651.436
9652.603
9653.816
9655.07
9656.361
9657.686
9659.039
9660.416
9661.811
9663.221
9664.642
9666.072
9667.509
9668.962
9670.439
9671.967
9673.542
9675.188
9676.876
9678.483
9679.923
9681.255
9682.479
9683.627
9684.706
9685.705
9686.616
9687.433
9688.151
9688.765
9689.271
9689.66
9689.925
9690.056
9690.046
9689.883
9689.551
9689.067
9688.412
9687.573
9686.54
9685.301
9683.843
9682.155
9680.224
9678.036
9675.578
9672.848
9669.86
9666.658
9663.31
9659.966
9656.811
9654.094
9651.989
9650.434
9649.091
9647.582
9645.759
9643.632
9641.224
9638.542
9635.58
9632.336
9628.813
9625.016
9620.948
9616.615
9612.019
9607.162
9602.045
9596.672
9591.043
9585.159
9579.023
9572.635
9565.994
9559.101
9551.962
9544.586
9536.959
9529.084
9520.965
9512.591
9504.04
9495.158
9486.082
9476.82
9467.653
9458.433
9448.346
9437.493
9426.354
9415.165
9403.951
9392.651
9381.214
9369.63
9357.905
9346.042
9334.022
9321.856
9309.553
9297.12
9284.562
9271.883
9259.091
9246.19
9233.188
9220.091
9206.907
9193.641
9180.3
9166.891
9153.419
9139.891
9126.312
9112.686
9099.016
9085.303
9071.556
9057.779
9043.975
9030.149
9016.302
9002.438
8988.557
8974.658
8960.736
8946.785
8932.79
8918.727
8904.566
8890.271
8875.812
8861.19
8846.451
8831.642
8816.775
8801.852
8786.897
8771.88
8756.693
8741.236
8725.633
8710.004
8694.347
8678.614
8662.776
8646.831
8630.776
8614.602
8598.305
8581.883
8565.331
8548.645
8531.819
8514.849
8497.732
8480.466
8463.049
8445.48
8427.759
8409.885
8391.861
8373.686
8355.363
8336.896
8318.287
8299.543
8280.67
8261.678
8242.574
8223.367
8204.063
8184.673
8165.205
8145.67
8126.078
8106.441
8086.77
8067.078
8047.376
8027.679
8007.999
7988.351
7968.748
7949.206
7929.738
7910.361
7891.09
7871.94
7852.926
7834.066
7815.375
7796.869
7778.564
7760.477
7742.623
7725.019
7707.682
7690.626
7673.868
7657.423
7641.307
7625.534
7610.12
7595.079
7580.424
7566.168
7552.326
7538.908
7525.926
7513.393
7501.317
7489.71
7478.583
7467.949
7457.825
7448.238
7439.226
7430.859
7423.211
7416.462
7410.606
7406.184
7401.323
7052.934
7037.742
7025.176
7013.388
7001.412
6991.943
6985.238
6980.772
6979.305
6981.247
6986.925
6995.297
7009.83
7029.827
7055.719
7089.517
7143.353
7199.138
7264.799
7341.711
7430.34
7534.98
7656.824
7795.656
7949.313
8114.185
8286.735
8462.144
8635.304
8800.442
8950.623
9082.488
9193.197
9279.715
9341.008
9378.766
9395.266
9392.814
9373.784
9340.705
9295.623
9240.639
9177.481
9112.599
9046.316
8976.18
8903.503
8830.503
8758.629
8688.383
8620.023
8553.967
8490.377
8429.396
8371.471
8316.912
8265.909
8218.57
8174.96
8135.126
8099.201
8067.086
8038.599
8014.069
7993.797
7977.826
7966.055
7958.341
7954.585
7954.762
7958.725
7966.332
7977.629
7992.562
8010.929
8032.627
8057.432
8085.416
8115.74
8148.4
8183.043
8219.112
8256.744
8296.273
8337.447
8379.708
8422.555
8465.687
8508.916
8552.11
8595.137
8637.817
8679.977
8721.481
8762.204
8802.018
8840.812
8878.508
8915.046
8950.4
8984.514
9017.391
9049.092
9079.627
9108.97
9137.12
9164.11
9189.98
9214.77
9238.505
9261.212
9282.97
9303.835
9323.881
9343.104
9361.575
9379.263
9396.424
9413.022
9428.771
9443.712
9458.112
9472.13
9485.769
9498.983
9511.818
9524.185
9536.136
9547.715
9558.949
9569.826
9580.433
9590.762
9600.768
9610.399
9619.532
9628.02
9635.618
9642.217
9647.965
9653.07
9657.534
9661.245
9664.248
9666.746
9668.929
9670.896
9672.679
9674.305
9675.81
9677.232
9678.615
9680.023
9681.533
9683.22
9685.159
9687.398
9689.925
9692.623
9695.296
9697.631
9699.164
9699.467
9698.411
9696.27
9693.378
9690.461
9688.355
9687.19
9686.601
9686.215
9685.871
9685.547
9685.24
9684.926
9684.576
9684.174
9683.713
9683.191
9682.607
9681.961
9681.253
9680.485
9679.659
9678.777
9677.842
9676.858
9675.827
9674.754
9673.642
9672.495
9671.318
9670.115
9668.89
9667.648
9666.393
9665.131
9663.864
9662.599
9661.338
9660.086
9658.847
9657.624
9656.418
9655.231
9654.072
9652.941
9651.842
9650.775
9649.748
9648.767
9647.842
9646.984
9646.203
9645.506
9644.882
9644.309
9643.752
9643.194
9642.645
9642.129
9641.659
9641.238
9640.868
9640.55
9640.289
9640.086
9639.945
9639.864
9639.848
9639.897
9640.012
9640.196
9640.448
9640.766
9641.137
9641.589
9642.117
9642.713
9643.377
9644.109
9644.907
9645.767
9646.678
9647.642
9648.67
9649.757
9650.898
9652.089
9653.325
9654.604
9655.922
9657.274
9658.656
9660.064
9661.495
9662.944
9664.408
9665.887
9667.379
9668.887
9670.409
9671.944
9673.514
9675.115
9676.733
9678.323
9679.841
9681.199
9682.458
9683.638
9684.742
9685.767
9686.705
9687.551
9688.299
9688.944
9689.479
9689.898
9690.193
9690.356
9690.38
9690.252
9689.935
9689.516
9688.921
9688.142
9687.174
9686.007
9684.633
9683.043
9681.231
9679.191
9676.92
9674.425
9671.728
9668.887
9665.945
9662.981
9660.153
9657.589
9655.37
9653.465
9651.697
9649.843
9647.78
9645.478
9642.934
9640.145
9637.099
9633.792
9630.221
9626.388
9622.295
9617.942
9613.331
9608.464
9603.342
9597.966
9592.335
9586.451
9580.317
9573.935
9567.296
9560.406
9553.266
9545.9
9538.249
9530.352
9522.213
9513.828
9505.149
9496.282
9487.175
9477.797
9468.129
9458.055
9447.619
9436.986
9426.288
9415.515
9404.596
9393.484
9382.171
9370.667
9358.983
9347.128
9335.111
9322.942
9310.629
9298.18
9285.6
9272.896
9260.076
9247.146
9234.114
9220.987
9207.772
9194.477
9181.107
9167.669
9154.17
9140.615
9127.009
9113.358
9099.666
9085.934
9072.171
9058.378
9044.559
9030.717
9016.855
9002.971
8989.067
8975.14
8961.184
8947.192
8933.151
8919.044
8904.849
8890.546
8876.118
8861.566
8846.908
8832.167
8817.358
8802.478
8787.517
8772.446
8757.256
8741.944
8726.539
8711.055
8695.473
8679.772
8663.953
8648.021
8631.98
8615.824
8599.545
8583.138
8566.599
8549.923
8533.105
8516.14
8499.027
8481.761
8464.342
8446.769
8429.041
8411.158
8393.121
8374.932
8356.593
8338.107
8319.478
8300.712
8281.815
8262.796
8243.661
8224.419
8205.076
8185.644
8166.13
8146.547
8126.905
8107.214
8087.487
8067.736
8047.973
8028.213
8008.468
7988.752
7969.081
7949.468
7929.929
7910.478
7891.132
7871.906
7852.816
7833.879
7815.11
7796.525
7778.142
7759.976
7742.044
7724.362
7706.947
7689.814
7672.98
7656.46
7640.271
7624.427
7608.943
7593.835
7579.116
7564.802
7550.904
7537.437
7524.414
7511.847
7499.749
7488.134
7477.016
7466.412
7456.344
7446.84
7437.936
7429.687
7422.142
7415.41
7409.395
7404.52
7398.956
7289.224
7253.334
7224.073
7195.905
7172.165
7147.9
7127.65
7108.448
7090.392
7073.043
7056.904
7041.805
7027.851
7015.238
7003.253
6994.525
6987.868
6983.256
6981.605
6982.916
6987.678
6996.33
7009.336
7027.257
7050.822
7081.938
7118.933
7167.571
7226.022
7296.643
7381.666
7483.522
7602.861
7738.699
7890.393
8055.831
8229.032
8404.598
8577.164
8740.842
8889.845
9020.017
9128.505
9213.275
9273.65
9310.806
9326.983
9324.688
9306.396
9274.578
9231.435
9179.721
9121.564
9059.206
8994.64
8927.717
8858.696
8788.868
8719.565
8651.54
8585.198
8520.838
8458.612
8398.817
8342.002
8288.53
8238.53
8192.068
8149.223
8110.079
8074.707
8043.066
8015.168
7991.237
7971.451
7955.836
7944.327
7936.852
7933.353
7933.783
7938.036
7946.065
7957.843
7973.256
7992.113
8014.284
8039.493
8067.743
8098.729
8132.146
8167.765
8205.179
8244.134
8284.634
8326.545
8369.525
8413.19
8457.245
8501.469
8545.672
8589.665
8633.249
8676.25
8718.534
8759.986
8800.493
8839.948
8878.267
8915.387
8951.258
8985.843
9019.148
9051.215
9082.067
9111.705
9140.131
9167.363
9193.436
9218.388
9242.264
9265.107
9286.977
9307.922
9328.003
9347.25
9365.727
9383.463
9400.526
9416.915
9432.561
9447.506
9461.89
9475.818
9489.317
9502.372
9514.969
9527.101
9538.811
9550.143
9561.119
9571.8
9582.118
9592.081
9601.67
9610.835
9619.49
9627.577
9634.853
9641.356
9647.096
9652.143
9656.617
9660.473
9663.733
9666.51
9668.938
9671.119
9673.075
9674.865
9676.525
9678.095
9679.615
9681.135
9682.716
9684.404
9686.24
9688.238
9690.371
9692.539
9694.579
9696.281
9697.377
9697.62
9696.917
9695.436
9693.494
9691.445
9689.748
9688.574
9687.817
9687.27
9686.798
9686.358
9685.938
9685.518
9685.075
9684.592
9684.06
9683.474
9682.833
9682.134
9681.377
9680.564
9679.695
9678.772
9677.799
9676.777
9675.711
9674.602
9673.456
9672.276
9671.066
9669.83
9668.572
9667.298
9666.011
9664.717
9663.419
9662.123
9660.831
9659.549
9658.279
9657.026
9655.792
9654.574
9653.385
9652.234
9651.117
9650.033
9648.986
9647.985
9647.04
9646.155
9645.34
9644.597
9643.921
9643.292
9642.693
9642.115
9641.562
9641.045
9640.575
9640.156
9639.789
9639.478
9639.225
9639.032
9638.901
9638.833
9638.831
9638.896
9639.028
9639.23
9639.5
9639.839
9640.245
9640.72
9641.266
9641.881
9642.565
9643.315
9644.129
9645.005
9645.94
9646.936
9647.995
9649.111
9650.28
9651.498
9652.762
9654.068
9655.413
9656.793
9658.205
9659.644
9661.108
9662.591
9664.093
9665.609
9667.14
9668.683
9670.24
9671.81
9673.398
9674.996
9676.59
9678.152
9679.645
9681.041
9682.35
9683.58
9684.732
9685.804
9686.789
9687.682
9688.478
9689.169
9689.751
9690.216
9690.559
9690.771
9690.848
9690.786
9690.609
9690.213
9689.655
9688.927
9688.021
9686.927
9685.641
9684.155
9682.467
9680.575
9678.485
9676.209
9673.766
9671.171
9668.5
9665.825
9663.228
9660.776
9658.506
9656.397
9654.354
9652.252
9650
9647.551
9644.888
9642
9638.875
9635.506
9631.888
9628.018
9623.897
9619.524
9614.899
9610.021
9604.892
9599.512
9593.883
9587.998
9581.865
9575.493
9568.84
9561.944
9554.8
9547.381
9539.748
9531.861
9523.722
9515.328
9506.665
9497.753
9488.586
9479.144
9469.417
9459.41
9449.175
9438.722
9428.081
9417.264
9406.265
9395.076
9383.695
9372.129
9360.39
9348.486
9336.425
9324.212
9311.855
9299.361
9286.737
9273.989
9261.124
9248.152
9235.077
9221.909
9208.654
9195.319
9181.911
9168.437
9154.903
9141.315
9127.678
9113.998
9100.278
9086.523
9072.737
9058.923
9045.085
9031.224
9017.341
9003.438
8989.512
8975.56
8961.577
8947.556
8933.486
8919.353
8905.144
8890.844
8876.444
8861.941
8847.343
8832.66
8817.901
8803.061
8788.135
8773.114
8758
8742.785
8727.459
8712.019
8696.465
8680.797
8665.016
8649.124
8633.118
8616.991
8600.737
8584.351
8567.828
8551.163
8534.352
8517.391
8500.277
8483.009
8465.583
8447.999
8430.256
8412.355
8394.297
8376.084
8357.717
8339.201
8320.539
8301.735
8282.796
8263.73
8244.543
8225.243
8205.84
8186.342
8166.76
8147.105
8127.386
8107.616
8087.807
8067.971
8048.121
8028.27
8008.432
7988.622
7968.854
7949.142
7929.502
7909.95
7890.501
7871.172
7851.977
7832.934
7814.06
7795.369
7776.88
7758.609
7740.572
7722.786
7705.267
7688.032
7671.098
7654.479
7638.193
7622.255
7606.68
7591.485
7576.682
7562.288
7548.317
7534.783
7521.7
7509.082
7496.944
7485.301
7474.17
7463.568
7453.518
7444.047
7435.186
7426.974
7419.441
7412.659
7406.507
7401.409
7395.577
7569.14
7516.5
7445.579
7380.752
7327.484
7285.569
7250.726
7221.188
7195.634
7171.823
7147.327
7127.388
7108.365
7090.335
7073.137
7057.017
7041.998
7027.782
7014.983
7004.116
6994.666
6987.444
6981.967
6979.036
6978.78
6981.578
6987.836
6998.104
7013.122
7033.377
7059.678
7093.603
7137.297
7191.095
7257.438
7338.903
7438.366
7557.047
7692.349
7843.172
8006.66
8177.666
8350.554
8519.5
8678.691
8822.804
8947.799
9051.096
9131.402
9188.6
9223.815
9239.127
9237.023
9219.976
9190.38
9150.529
9102.674
9048.639
8989.978
8928.418
8864.838
8799.624
8733.46
8667.418
8602.378
8538.799
8476.883
8416.837
8359.091
8304.128
8252.261
8203.64
8158.364
8116.535
8078.257
8043.611
8012.657
7985.478
7962.196
7942.916
7927.682
7916.493
7909.325
7906.145
7906.914
7911.58
7920.095
7932.376
7948.302
7967.705
7990.517
8016.652
8045.802
8077.719
8112.147
8148.826
8187.432
8227.686
8269.439
8312.529
8356.686
8401.578
8446.898
8492.387
8537.818
8582.982
8627.685
8671.755
8715.049
8757.439
8798.812
8839.063
8878.111
8915.893
8952.367
8987.516
9021.342
9053.867
9085.111
9115.087
9143.806
9171.292
9197.583
9222.722
9246.758
9269.739
9291.715
9312.735
9332.858
9352.125
9370.589
9388.282
9405.239
9421.495
9437.063
9451.974
9466.293
9480.09
9493.406
9506.247
9518.62
9530.543
9542.04
9553.141
9563.862
9574.209
9584.169
9593.745
9602.919
9611.647
9619.869
9627.479
9634.545
9640.902
9646.587
9651.695
9656.197
9660.138
9663.555
9666.523
9669.138
9671.471
9673.605
9675.549
9677.347
9679.041
9680.674
9682.256
9683.862
9685.517
9687.24
9689.03
9690.854
9692.632
9694.244
9695.541
9696.363
9696.563
9696.1
9695.052
9693.728
9692.296
9690.93
9689.831
9689.012
9688.369
9687.804
9687.276
9686.765
9686.256
9685.73
9685.171
9684.57
9683.92
9683.219
9682.465
9681.657
9680.794
9679.879
9678.911
9677.895
9676.832
9675.725
9674.578
9673.393
9672.176
9670.929
9669.656
9668.363
9667.053
9665.732
9664.403
9663.071
9661.742
9660.417
9659.102
9657.802
9656.521
9655.257
9654.008
9652.774
9651.596
9650.466
9649.369
9648.304
9647.283
9646.315
9645.404
9644.556
9643.772
9643.048
9642.376
9641.748
9641.157
9640.601
9640.087
9639.621
9639.206
9638.845
9638.54
9638.293
9638.106
9637.983
9637.924
9637.931
9638.006
9638.15
9638.363
9638.646
9638.998
9639.419
9639.911
9640.473
9641.105
9641.807
9642.576
9643.41
9644.309
9645.27
9646.293
9647.376
9648.517
9649.71
9650.954
9652.245
9653.58
9654.955
9656.366
9657.811
9659.284
9660.784
9662.305
9663.846
9665.403
9666.975
9668.558
9670.153
9671.756
9673.365
9674.972
9676.565
9678.123
9679.624
9681.053
9682.404
9683.679
9684.878
9685.996
9687.028
9687.968
9688.811
9689.55
9690.18
9690.695
9691.087
9691.351
9691.481
9691.472
9691.324
9691.007
9690.524
9689.873
9689.047
9688.04
9686.85
9685.472
9683.907
9682.155
9680.226
9678.129
9675.885
9673.518
9671.078
9668.615
9666.177
9663.802
9661.51
9659.285
9657.07
9654.794
9652.396
9649.823
9647.054
9644.077
9640.879
9637.45
9633.784
9629.878
9625.728
9621.332
9616.689
9611.799
9606.66
9601.274
9595.644
9589.746
9583.6
9577.191
9570.559
9563.669
9556.523
9549.113
9541.456
9533.548
9525.387
9516.968
9508.289
9499.353
9490.158
9480.702
9470.988
9461.026
9450.824
9440.383
9429.721
9418.858
9407.805
9396.563
9385.135
9373.525
9361.742
9349.792
9337.682
9325.419
9313.01
9300.462
9287.783
9274.98
9262.061
9249.034
9235.906
9222.685
9209.379
9195.995
9182.539
9169.019
9155.441
9141.812
9128.136
9114.419
9100.665
9086.879
9073.065
9059.225
9045.362
9031.478
9017.574
9003.649
8989.701
8975.728
8961.723
8947.682
8933.594
8919.449
8905.237
8890.947
8876.572
8862.109
8847.559
8832.928
8818.216
8803.423
8788.544
8773.575
8758.51
8743.34
8728.057
8712.661
8697.153
8681.532
8665.797
8649.943
8633.967
8617.863
8601.627
8585.253
8568.736
8552.073
8535.258
8518.289
8501.163
8483.876
8466.428
8448.817
8431.043
8413.107
8395.008
8376.75
8358.335
8339.767
8321.048
8302.185
8283.183
8264.051
8244.797
8225.427
8205.95
8186.376
8166.714
8146.976
8127.171
8107.312
8087.41
8067.479
8047.531
8027.58
8007.641
7987.726
7967.852
7948.033
7928.285
7908.623
7889.063
7869.622
7850.315
7831.16
7812.172
7793.37
7774.769
7756.386
7738.238
7720.342
7702.715
7685.373
7668.333
7651.611
7635.224
7619.188
7603.519
7588.232
7573.343
7558.867
7544.82
7531.216
7518.07
7505.398
7493.216
7481.539
7470.385
7459.773
7449.724
7440.262
7431.413
7423.207
7415.659
7408.829
7402.587
7397.372
7391.412
7520.823
7470.187
7392.9
7345.242
7303.809
7268.972
7239.231
7213.208
7189.758
7168.32
7148.215
7128.746
7109.915
7091.837
7074.467
7057.969
7042.45
7027.87
7014.537
7002.584
6992.645
6984.656
6978.395
6974.351
6972.663
6973.698
6977.871
6985.548
6997.53
7014.644
7037.553
7068.159
7108.985
7161.251
7226.442
7307.176
7405.697
7522.66
7656.469
7804.964
7964.829
8131.144
8298.13
8459.871
8610.88
8746.477
8863.186
8958.961
9033.094
9085.947
9118.764
9133.469
9132.282
9117.437
9091.135
9055.404
9012.071
8962.718
8908.698
8851.455
8792.094
8731.148
8669.079
8606.751
8545.033
8484.44
8425.269
8367.807
8312.429
8259.524
8209.395
8162.252
8118.249
8077.523
8040.203
8006.402
7976.227
7949.773
7927.128
7908.38
7893.594
7882.806
7876.025
7873.245
7874.448
7879.604
7888.661
7901.537
7918.125
7938.376
7962.173
7989.283
8019.466
8052.497
8088.128
8126.092
8166.1
8207.88
8251.201
8295.84