/*--------------------------------*- C++ -*----------------------------------*\
| =========                 |                                                 |
| \\      /  F ield         | foam-extend: Open Source CFD                    |
|  \\    /   O peration     | Version:     3.1                                |
|   \\  /    A nd           | Web:         http://www.extend-project.de       |
|    \\/     M anipulation  |                                                 |
\*---------------------------------------------------------------------------*/
FoamFile
{
    version     2.0;
    format      ascii;
    class       regIOobject;
    location    "5.5/uniform";
    object      profilingInfo;
}
// * * * * * * * * * * * * * * * * * * * * * * * * * * * * * * * * * * * * * //

profilingInfo
(

    {
        id              19;
        parentId        17;
        description     "Foam::Time::writeObject - outputTime";
        calls           11;
        totalTime       59.56369;
        childTime       0;
        onStack         1;
    }

    {
        id              17;
        parentId        1;
        description     "Foam::Time::writeObject";
        calls           5695;
        totalTime       59.5883;
        childTime       59.56369;
        onStack         1;
    }

    {
        id              1;
        description     "application::main";
        calls           1;
        totalTime       1671.964;
        childTime       335.2936;
        onStack         1;
    }

    {
        id              6;
        parentId        1;
        description     "MULES::explicitSolve";
        calls           11390;
        totalTime       32.97089;
        childTime       0;
        onStack         0;
    }

    {
        id              5;
        parentId        4;
        description     "functionObjectList::read";
        calls           1;
        totalTime       2e-06;
        childTime       0;
        onStack         0;
    }

    {
        id              18;
        parentId        1;
        description     "functionObjects_.execute()";
        calls           5694;
        totalTime       0.021638;
        childTime       0;
        onStack         0;
    }

    {
        id              4;
        parentId        1;
        description     "functionObjects_.start()";
        calls           1;
        totalTime       1.2e-05;
        childTime       2e-06;
        onStack         0;
    }

    {
        id              7;
        parentId        1;
        description     "fvMatrix::solve_U";
        calls           5695;
        totalTime       42.20623;
        childTime       34.06941;
        onStack         0;
    }

    {
        id              15;
        parentId        1;
        description     "fvMatrix::solve_k";
        calls           5695;
        totalTime       14.88598;
        childTime       13.71263;
        onStack         0;
    }

    {
        id              13;
        parentId        1;
        description     "fvMatrix::solve_omega";
        calls           5695;
        totalTime       16.49668;
        childTime       11.64336;
        onStack         0;
    }

    {
        id              2;
        parentId        1;
        description     "fvMatrix::solve_pcorr";
        calls           1;
        totalTime       0.179072;
        childTime       0.17886;
        onStack         0;
    }

    {
        id              11;
        parentId        1;
        description     "fvMatrix::solve_pd";
        calls           22780;
        totalTime       168.9448;
        childTime       163.0676;
        onStack         0;
    }

    {
        id              8;
        parentId        7;
        description     "lduMatrix::solver_Ux";
        calls           5695;
        totalTime       11.64472;
        childTime       0;
        onStack         0;
    }

    {
        id              9;
        parentId        7;
        description     "lduMatrix::solver_Uy";
        calls           5695;
        totalTime       12.4492;
        childTime       0;
        onStack         0;
    }

    {
        id              10;
        parentId        7;
        description     "lduMatrix::solver_Uz";
        calls           5695;
        totalTime       9.975496;
        childTime       0;
        onStack         0;
    }

    {
        id              16;
        parentId        15;
        description     "lduMatrix::solver_k";
        calls           5695;
        totalTime       13.71263;
        childTime       0;
        onStack         0;
    }

    {
        id              14;
        parentId        13;
        description     "lduMatrix::solver_omega";
        calls           5695;
        totalTime       11.64336;
        childTime       0;
        onStack         0;
    }

    {
        id              3;
        parentId        2;
        description     "lduMatrix::solver_pcorr";
        calls           1;
        totalTime       0.17886;
        childTime       0;
        onStack         0;
    }

    {
        id              12;
        parentId        11;
        description     "lduMatrix::solver_pd";
        calls           22780;
        totalTime       163.0676;
        childTime       0;
        onStack         0;
    }
);


// ************************************************************************* //
