/*--------------------------------*- C++ -*----------------------------------*\
| =========                 |                                                 |
| \\      /  F ield         | foam-extend: Open Source CFD                    |
|  \\    /   O peration     | Version:     3.1                                |
|   \\  /    A nd           | Web:         http://www.extend-project.de       |
|    \\/     M anipulation  |                                                 |
\*---------------------------------------------------------------------------*/
FoamFile
{
    version     2.0;
    format      ascii;
    class       volScalarField;
    location    "18.5";
    object      alpha1;
}
// * * * * * * * * * * * * * * * * * * * * * * * * * * * * * * * * * * * * * //

dimensions      [0 0 0 0 0 0 0];

internalField   nonuniform List<scalar> 
119952
(
1
1
1
1
1
1
1
1
1
1
1
1
1
1
1
1
1
1
1
1
1
1
1
1
1
1
1
1
1
1
1
1
1
1
1
1
1
1
1
1
1
1
1
1
1
1
1
1
1
1
1
1
1
1
1
1
1
1
1
1
1
1
1
1
1
1
1
1
1
1
1
0.9999999
1
1
1
1
1
1
1
1
1
1
1
1
1
1
1
1
1
1
0.9999999
1
1
1
1
1
1
1
1
1
1
1
1
1
1
1
1
1
1
1
1
1
1
1
1
1
1
1
1
1
1
1
1
1
0.9999999
0.9999999
1
1
1
1
0.9999999
1
1
1
1
0.9999999
1
1
1
1
0.9999999
1
1
0.9999999
1
1
1
1
1
0.9999999
0.9999999
1
1
1
1
1
1
1
1
1
0.9999999
0.9999999
1
1
0.9999999
1
1
1
1
0.9999999
0.9999999
1
0.9999999
1
1
0.9999999
1
1
1
1
1
1
1
1
1
1
0.9999999
1
1
1
1
1
0.9999999
0.9999999
1
1
0.9999999
0.9999999
1
0.9999997
1
1
1
1
1
1
1
1
1
1
1
1
1
0.9999999
1
0.9999998
1
0.9999999
1
1
1
1
1
1
1
1
1
1
1
1
1
1
1
1
1
1
1
0.9999999
1
0.9999999
1
0.9999999
1
1
1
1
1
0.9999998
1
1
0.9999998
1
1
1
1
1
1
1
0.9999998
1
0.9999998
1
1
1
1
1
1
1
1
1
0.9999999
0.9999999
1
1
1
1
1
1
1
1
1
0.9999999
1
1
0.9999999
1
1
1
1
1
0.9999997
1
1
0.9999998
0.9999999
1
1
0.9999999
0.9999998
0.9999998
1
0.9999999
0.9999998
0.9999999
1
1
0.9999999
0.9999999
1
1
1
1
1
1
1
0.9999999
0.9999999
1
0.9999998
0.9999999
1
1
1
1
1
1
1
1
1
1
1
1
1
1
1
1
1
1
1
1
1
1
1
1
1
1
1
1
1
1
1
1
1
1
1
1
1
1
1
1
1
1
1
1
1
1
1
1
1
1
1
1
1
1
1
1
1
1
1
1
1
1
1
1
1
1
1
1
1
1
1
1
1
1
0.9999999
0.9999999
0.9999984
0.9999995
0.9999998
0.9999923
0.9999942
0.9999999
0.9999999
0.999988
0.9999895
0.9999998
1
1
1
1
1
1
1
1
1
1
1
1
1
1
1
1
1
1
1
1
1
1
1
1
1
1
1
1
1
1
1
1
1
1
1
1
1
1
1
1
1
1
1
1
1
1
1
1
1
1
1
1
1
1
1
1
1
1
1
1
1
1
1
1
1
1
1
1
1
1
1
1
1
1
1
1
1
1
1
1
1
1
1
1
1
1
1
1
1
1
1
1
1
1
1
1
1
1
1
1
1
1
1
1
1
1
1
1
1
1
1
1
1
1
1
1
1
1
1
1
1
1
1
1
1
1
1
1
1
1
1
1
1
1
1
1
1
1
1
1
1
1
1
1
1
1
1
1
1
1
1
1
1
1
1
1
1
1
1
1
1
1
1
1
1
1
1
1
1
1
1
1
1
1
1
1
1
1
1
1
1
1
1
1
1
1
1
0.9999999
1
1
1
1
1
1
0.9999999
1
1
1
1
1
1
1
1
1
1
0.9999999
0.9999999
1
1
1
1
1
1
0.9999999
1
1
1
1
1
1
1
1
1
0.9999999
1
1
1
1
1
1
0.9999999
0.9999999
1
1
0.9999999
1
1
1
1
1
0.9999999
1
1
1
1
1
1
1
1
1
1
1
1
0.9999998
1
1
1
1
1
0.9999999
1
0.9999999
0.9999999
1
1
1
0.9999999
0.9999998
1
1
1
1
1
1
1
1
1
1
1
1
1
1
1
1
1
1
1
1
1
1
1
1
1
1
1
1
1
1
1
1
1
1
0.9999999
0.9999998
0.9999999
1
1
1
1
1
0.9999999
0.9999999
1
1
1
1
1
1
1
1
1
0.9999999
0.9999999
0.9999999
1
1
1
1
1
1
1
1
1
1
1
1
1
1
1
1
1
1
1
1
1
1
1
1
1
1
1
1
1
1
1
1
1
1
1
1
1
1
1
1
1
1
1
1
1
1
1
1
1
1
1
1
1
1
1
1
1
1
1
1
1
1
1
1
1
1
1
1
1
1
1
1
1
1
1
1
1
0.9999999
0.9999981
0.9999964
0.9999969
0.9999988
0.9999998
0.9999999
0.9999999
1
1
1
0.9999999
1
1
1
1
1
1
1
1
1
1
1
1
1
1
1
1
1
1
1
1
1
1
1
1
1
1
1
1
1
1
1
1
1
1
1
1
1
1
1
1
1
1
1
1
1
1
1
1
1
1
1
1
1
1
1
1
1
1
1
1
1
1
1
1
1
1
1
1
1
1
1
1
1
1
1
1
1
1
1
1
1
1
1
1
1
1
1
1
1
1
1
1
1
1
1
1
1
1
1
1
1
1
1
1
1
1
1
1
1
1
1
1
1
1
1
1
1
1
1
1
1
1
1
1
1
1
1
1
1
1
1
1
1
1
1
1
1
1
1
1
1
1
1
1
1
1
1
1
1
1
1
1
1
1
1
1
1
1
1
1
1
1
1
1
1
1
1
1
1
1
1
1
1
1
1
1
1
1
1
1
1
1
1
1
1
1
1
1
1
1
1
1
1
1
1
1
1
1
1
1
1
1
1
1
1
1
1
1
1
1
1
1
1
1
1
1
1
1
1
1
1
1
1
1
1
1
1
1
1
1
1
1
1
1
1
1
1
1
1
1
1
1
1
1
1
1
1
1
1
1
1
1
1
1
1
1
1
1
1
1
1
1
1
1
1
1
1
1
1
1
1
1
1
1
1
1
1
1
1
0.9999999
0.9999999
1
1
1
1
1
1
1
1
1
1
1
1
1
1
0.9999999
0.9999999
1
1
1
1
1
1
1
0.9999999
0.9999999
1
1
1
1
1
1
1
1
1
1
1
1
1
1
1
1
1
1
1
1
1
1
1
1
1
1
1
1
1
1
1
1
1
1
1
1
1
1
1
0.9999999
0.9999999
0.9999999
1
1
1
1
1
1
1
0.9999999
0.9999999
0.9999999
1
1
1
1
1
0.9999999
0.9999999
1
1
1
1
1
1
1
1
1
1
1
1
1
1
1
1
1
0.9999998
0.9999993
0.9999987
0.9999975
0.9999969
0.9999983
0.9999997
1
1
1
1
1
1
1
1
1
1
1
1
1
1
1
1
1
1
1
1
1
1
1
1
1
1
1
1
1
1
1
1
1
1
1
1
1
1
1
1
1
1
1
1
1
1
1
1
1
1
1
1
1
1
0.9999999
0.9999991
0.9999989
0.9999991
0.9999998
1
1
1
1
1
1
1
1
1
1
1
1
1
1
1
1
1
1
1
1
1
1
1
1
1
1
1
1
1
1
1
1
1
1
1
1
1
1
1
1
1
1
1
1
1
1
1
1
1
1
1
1
1
1
1
1
1
1
1
1
1
1
1
1
1
1
1
1
1
1
1
1
1
1
1
1
1
1
1
1
1
1
1
1
1
1
1
1
1
1
1
1
1
1
1
1
1
1
1
1
1
1
1
1
1
1
1
1
1
1
1
1
1
1
1
1
1
1
1
1
1
1
1
1
1
1
1
1
1
1
1
1
1
1
1
1
1
1
1
1
1
1
1
1
1
1
1
1
1
1
1
1
1
1
1
1
1
1
1
1
1
1
1
1
1
1
1
1
1
1
1
1
1
1
1
1
1
1
1
1
1
1
1
1
1
1
1
1
1
1
1
1
1
1
1
1
1
1
1
1
1
1
1
1
1
1
1
1
1
1
1
1
1
1
1
1
1
1
1
1
1
1
1
1
1
1
1
1
1
1
1
1
1
1
1
1
1
1
1
1
1
1
1
1
1
1
1
1
1
1
1
1
1
1
1
1
1
1
1
1
1
1
1
1
1
1
1
1
1
1
1
1
1
1
1
1
1
1
1
1
1
1
1
1
1
1
1
1
1
1
1
1
1
1
0.9999999
0.9999999
1
1
1
1
1
1
1
1
1
1
1
1
1
1
1
1
1
1
1
1
1
1
1
1
1
1
1
1
1
1
1
1
1
1
1
1
1
1
1
1
1
1
1
1
1
1
1
0.9999999
0.9999998
0.9999998
0.9999998
0.9999999
1
1
1
1
1
1
1
1
1
1
1
1
1
1
1
1
1
1
1
1
1
1
1
1
1
1
1
1
1
1
1
1
1
1
1
1
1
1
1
1
1
1
1
1
1
1
0.9999997
0.9999981
0.9999893
0.9999592
0.9998825
0.9998877
0.9999586
0.9999949
0.9999998
1
1
1
1
1
1
1
1
1
1
1
1
1
1
1
1
1
1
1
1
1
1
1
1
1
1
1
1
1
1
1
1
1
1
1
1
1
1
1
1
1
1
1
1
1
1
1
1
1
1
1
1
1
1
1
1
1
1
1
1
1
1
1
1
1
1
1
1
1
1
1
1
1
1
1
1
1
1
1
1
1
1
1
1
1
1
1
1
1
1
1
1
1
1
1
1
1
1
1
1
1
1
1
1
1
1
1
1
1
1
1
1
1
1
1
1
1
1
1
1
1
1
1
1
1
1
1
1
1
1
1
1
1
1
1
1
1
1
1
1
1
1
1
1
1
1
1
1
1
1
1
1
1
1
1
1
1
1
1
1
1
1
1
1
1
1
1
1
1
1
1
1
1
1
1
1
1
1
1
1
1
1
1
1
1
1
1
1
1
1
1
1
1
1
1
1
1
1
1
1
1
1
1
1
1
1
1
1
1
1
1
1
1
1
1
1
1
1
1
1
1
1
1
1
1
1
1
1
1
1
1
1
1
1
1
1
1
1
1
1
1
1
1
1
1
1
1
1
1
1
1
1
1
1
1
1
1
1
1
1
1
1
1
1
1
1
1
1
1
1
1
1
1
1
1
1
1
1
1
1
1
1
1
1
1
1
1
1
1
1
1
1
1
1
1
1
1
1
1
1
1
1
1
1
1
1
1
1
1
1
1
1
1
1
1
1
1
1
1
1
1
1
1
1
1
1
1
1
1
1
1
1
1
1
1
1
1
1
1
1
1
1
1
1
1
1
1
1
1
1
1
1
1
1
1
1
1
1
1
1
1
1
1
1
0.9999999
0.9999999
1
1
1
1
1
1
1
1
1
1
1
1
1
1
1
1
1
1
1
1
1
1
1
1
1
1
1
1
1
1
1
1
1
1
1
1
1
1
1
1
1
1
1
1
1
0.9999997
0.9999981
0.9999919
0.9999876
0.999989
0.9999952
0.9999993
1
1
1
1
1
1
1
1
1
1
1
1
1
1
1
1
1
1
1
1
1
1
1
1
1
1
1
1
1
1
1
1
1
1
1
1
1
1
1
1
1
1
1
1
1
0.9999997
0.9999974
0.9999815
0.9998862
0.999367
0.9992088
0.9995314
0.9999166
0.9999962
1
1
1
1
1
1
1
1
1
1
1
1
1
1
1
1
1
1
1
1
1
1
1
1
1
1
1
1
1
1
1
1
1
1
1
1
1
1
1
1
1
1
1
1
1
1
1
1
1
1
1
1
1
1
1
1
1
1
1
1
1
1
1
1
1
1
1
1
1
1
1
1
1
1
1
1
1
1
1
1
1
1
1
1
1
1
1
1
1
1
1
1
1
1
1
1
1
1
1
1
1
1
1
1
1
1
1
1
1
1
1
1
1
1
1
1
1
1
1
1
1
1
1
1
1
1
1
1
1
1
1
1
1
1
1
1
1
1
1
1
1
1
1
1
1
1
1
1
1
1
1
1
1
1
1
1
1
1
1
1
1
1
1
1
1
1
1
1
1
1
1
1
1
1
1
1
1
1
1
1
1
1
1
1
1
1
1
1
1
1
1
1
1
1
1
1
1
1
1
1
1
1
1
1
1
1
1
1
1
1
1
1
1
1
1
1
1
1
1
1
1
1
1
1
1
1
1
1
1
1
1
1
1
1
1
1
1
1
1
1
1
1
1
1
1
1
1
1
1
1
1
1
1
1
1
1
1
1
1
1
1
1
1
1
1
1
1
1
1
1
1
1
1
1
1
1
1
1
1
1
1
1
1
1
1
1
1
1
1
1
1
1
1
1
1
1
1
1
1
1
1
1
1
1
1
1
1
1
1
1
1
1
1
1
1
1
1
1
1
1
1
1
1
1
1
1
1
1
1
1
1
1
1
1
1
1
1
1
1
1
1
1
1
1
1
1
1
1
1
1
1
1
1
1
1
1
1
1
1
1
0.9999999
0.9999999
0.9999997
0.9999996
0.9999996
0.9999996
0.9999997
0.9999997
0.9999998
0.9999999
1
1
1
0.9999998
0.9999993
0.999999
0.9999994
0.9999999
1
1
1
1
1
1
1
0.9999999
0.9999993
0.9999969
0.9999914
0.999992
0.9999974
0.9999998
1
1
1
1
1
1
1
1
1
1
1
1
1
1
1
1
1
1
1
1
1
1
1
1
1
1
1
1
0.9999999
0.9999991
0.9999917
0.9999445
0.99982
0.9997728
0.9998647
0.9999705
0.999998
1
1
1
1
1
1
1
1
0.9999999
0.9999999
0.9999998
0.9999997
0.9999998
1
1
1
1
1
1
1
1
1
1
1
1
1
1
1
1
1
1
1
1
1
1
1
1
1
1
1
0.9999999
1
1
1
0.9999999
0.9999989
0.9999893
0.9998992
0.9991678
0.9977955
0.9980446
0.9991802
0.9998718
0.9999951
1
1
1
1
1
1
1
1
1
1
1
1
0.9999999
0.9999998
0.9999997
0.9999998
0.9999999
1
1
1
1
1
1
1
1
1
1
1
1
1
1
1
1
1
1
1
1
1
1
1
1
1
1
1
1
1
1
1
1
1
1
1
1
1
1
1
1
1
1
1
1
1
1
1
1
1
1
1
1
1
1
1
1
1
1
1
1
1
1
1
1
1
1
1
1
1
1
1
1
1
1
1
1
1
1
1
1
1
1
1
1
1
1
1
1
1
1
1
1
1
1
1
1
1
1
1
1
1
1
1
1
1
1
1
1
1
1
1
1
1
1
1
1
1
1
1
1
1
1
1
1
1
1
1
1
1
1
1
1
1
1
1
1
1
1
1
1
1
1
1
1
1
1
1
1
1
1
1
1
1
1
1
1
1
1
1
1
1
1
1
1
1
1
1
1
1
1
1
1
1
1
1
1
1
1
1
1
1
1
1
1
1
1
1
1
1
1
1
1
1
0.9999999
0.9999999
0.9999998
0.9999997
0.9999997
0.9999997
0.9999999
0.9999999
0.9999999
0.9999999
0.9999998
0.9999997
0.9999993
0.999999
0.999999
0.9999991
0.9999995
0.9999998
0.9999998
0.9999998
0.9999998
0.9999996
0.9999992
0.9999988
0.9999988
0.9999989
0.9999992
0.9999996
0.9999998
0.9999998
0.9999997
0.9999995
0.9999991
0.9999989
0.9999989
0.9999989
0.9999992
0.9999996
0.9999997
0.9999997
0.9999997
0.9999996
0.9999993
0.9999992
0.9999992
0.9999992
0.9999994
0.9999996
0.9999997
0.9999997
0.9999997
0.9999996
0.9999994
0.9999993
0.9999994
0.9999994
0.9999995
0.9999997
0.9999998
0.9999998
0.9999998
0.9999997
0.9999996
0.9999996
0.9999996
0.9999996
0.9999997
0.9999998
0.9999998
0.9999998
0.9999998
0.9999998
0.9999997
0.9999997
0.9999997
0.9999998
0.9999998
0.9999999
0.9999999
0.9999999
0.9999999
0.9999999
0.9999999
0.9999999
0.9999999
0.9999999
0.9999999
0.9999999
0.9999999
0.9999999
0.9999999
0.9999999
0.9999999
0.9999999
0.9999999
1
1
1
1
1
1
1
1
1
1
1
1
1
1
1
1
1
1
1
1
1
1
1
1
1
1
1
1
1
1
1
1
1
1
1
1
1
1
1
1
1
1
1
1
1
1
1
1
1
1
1
1
1
1
1
1
1
0.9999999
0.9999998
0.9999994
0.9999984
0.9999956
0.999989
0.9999783
0.9999717
0.9999702
0.9999678
0.9999649
0.9999767
0.9999949
0.9999992
0.9999992
0.9999981
0.9999903
0.9999883
0.9999934
0.9999987
0.9999998
0.9999999
0.9999999
0.9999999
0.9999999
0.9999999
0.9999996
0.9999978
0.9999868
0.9999214
0.9997557
0.9997891
0.999937
0.9999945
0.9999998
1
1
1
1
1
1
1
1
0.9999999
0.9999998
0.9999999
1
1
1
1
1
1
1
1
1
1
1
1
1
1
1
1
0.9999999
0.9999992
0.9999913
0.999917
0.9995251
0.9984305
0.9984462
0.9994023
0.9999235
0.9999973
0.9999999
1
0.9999999
0.9999996
0.9999984
0.9999943
0.9999783
0.9999037
0.9996955
0.9996774
0.9998493
0.9999793
0.9999992
1
1
1
1
1
1
1
1
1
1
1
1
1
1
1
1
1
1
1
1
1
1
1
1
1
1
1
0.9999999
0.9999999
0.9999999
1
0.9999999
0.9999985
0.999976
0.9997108
0.9974305
0.994747
0.9971697
0.9994787
0.9999722
0.9999962
0.9999966
0.9999958
0.9999956
0.9999957
0.9999963
0.9999972
0.999998
0.9999981
0.999998
0.9999974
0.999996
0.9999926
0.9999857
0.9999806
0.9999859
0.9999967
0.9999998
1
1
1
1
1
1
1
1
1
1
1
1
1
1
1
1
1
1
1
1
1
0.9999999
0.9999998
0.9999995
0.9999996
0.9999999
1
1
1
1
1
1
1
1
1
1
1
1
1
1
1
1
1
1
1
1
1
1
1
1
1
1
1
1
1
1
1
1
1
1
1
1
1
1
1
1
1
1
1
1
1
1
1
1
1
1
1
1
1
1
1
1
1
1
1
1
1
1
1
1
1
1
1
1
1
1
1
1
1
1
1
1
1
1
1
1
1
1
1
1
1
1
1
1
1
1
1
1
1
1
1
1
1
1
1
1
1
1
1
1
1
1
1
1
1
1
1
1
1
1
1
1
1
1
1
1
1
1
1
1
1
1
1
0.9999999
0.9999999
0.9999999
0.9999999
0.9999999
0.9999999
0.9999999
0.9999999
0.9999998
0.9999996
0.9999995
0.9999993
0.9999991
0.9999989
0.9999988
0.9999991
0.9999995
0.9999995
0.9999993
0.9999988
0.9999979
0.9999961
0.9999927
0.9999892
0.9999887
0.9999911
0.9999958
0.9999974
0.9999973
0.9999961
0.9999915
0.9999798
0.9999608
0.9999497
0.9999498
0.999958
0.9999761
0.9999879
0.9999892
0.9999869
0.999974
0.9999389
0.9998762
0.9998053
0.9997812
0.9997998
0.9998802
0.999952
0.9999637
0.9999598
0.9999391
0.9998853
0.9997701
0.999584
0.999473
0.9995017
0.9996711
0.9998744
0.9999389
0.99994
0.9999309
0.9998896
0.9997751
0.9995778
0.9994583
0.9994645
0.9995716
0.9997828
0.9999122
0.9999255
0.9999188
0.9998788
0.9997616
0.9995863
0.9995151
0.9995236
0.9995967
0.9997662
0.9999063
0.9999307
0.9999267
0.9998999
0.9998217
0.9997038
0.9996458
0.9996464
0.9996806
0.9997878
0.999906
0.999935
0.9999317
0.9999088
0.9998452
0.9997579
0.9997207
0.999722
0.9997504
0.9998394
0.9999299
0.9999478
0.9999444
0.9999266
0.9998811
0.9998101
0.9997585
0.9997566
0.9998139
0.9999154
0.9999602
0.9999614
0.9999573
0.9999432
0.9999156
0.9998842
0.999872
0.9998765
0.9999096
0.9999559
0.9999724
0.9999725
0.9999691
0.9999561
0.9999279
0.9999092
0.9999172
0.9999572
0.999987
0.9999903
0.99999
0.9999888
0.9999853
0.9999752
0.9999603
0.9999616
0.9999819
0.9999936
0.9999939
0.9999928
0.9999878
0.9999734
0.9999638
0.9999721
0.9999919
0.999999
0.9999991
0.9999989
0.9999984
0.9999976
0.9999969
0.9999966
0.9999967
0.9999982
0.9999998
1
0.9999999
0.9999999
0.9999997
0.9999997
0.9999999
1
1
1
0.9999999
0.9999998
0.9999998
0.9999998
0.9999999
1
0.9999999
0.9999999
0.9999999
0.9999999
0.9999999
0.9999999
0.9999999
0.9999998
0.9999998
0.9999998
0.9999998
0.9999997
0.9999997
0.9999998
0.9999999
0.9999999
0.9999999
1
1
1
1
0.9999998
0.9999985
0.9999951
0.9999887
0.9999764
0.9999563
0.999923
0.9998526
0.9997146
0.9994914
0.9990446
0.9978981
0.9973653
0.9986441
0.9997759
0.9999883
0.9999907
0.9999506
0.9999116
0.9999305
0.9999786
0.9999953
0.9999955
0.9999955
0.9999947
0.9999873
0.9999622
0.9999587
0.999984
0.9999895
0.9999697
0.999743
0.9983987
0.9980785
0.999006
0.9998545
0.9999925
0.9999999
1
1
1
1
1
1
1
0.9999997
0.9999989
0.9999989
0.9999996
1
1
1
1
1
1
1
1
1
1
1
1
1
1
1
1
0.9999999
0.9999978
0.9999666
0.9995867
0.9973281
0.9931107
0.9951347
0.9985635
0.9998497
0.9999962
0.9999999
0.9999998
0.9999985
0.9999904
0.99995
0.9997176
0.9979938
0.9934183
0.994644
0.9983335
0.9998302
0.999995
0.9999998
1
1
1
1
1
1
1
1
1
1
1
1
1
1
1
1
1
1
1
1
1
1
1
1
1
1
1
0.9999998
0.9999988
0.9999982
0.9999984
0.9999993
0.9999992
0.9999897
0.999745
0.9965313
0.9886164
0.9911142
0.9975067
0.9998143
0.9999936
0.9999935
0.9999508
0.9998011
0.9994631
0.9991463
0.9992104
0.9996744
0.9999635
0.9999854
0.9999018
0.9996061
0.999209
0.9991423
0.9993798
0.9998405
0.9999897
0.9999998
1
1
1
1
1
1
1
1
1
1
1
1
1
1
1
1
1
1
1
0.9999998
0.9999992
0.9999955
0.999989
0.9999919
0.9999979
0.9999998
1
1
1
1
1
1
1
1
1
1
1
1
1
1
1
1
1
1
1
1
1
1
1
1
1
1
1
1
1
1
1
1
1
1
1
1
1
1
1
1
1
1
1
1
1
1
1
1
1
1
1
1
1
1
1
1
1
1
1
1
1
1
1
1
1
1
1
1
1
1
1
1
1
1
1
1
1
1
1
1
1
1
1
1
1
1
1
1
1
1
1
1
1
1
1
1
1
1
1
1
1
1
1
1
1
1
1
1
1
1
1
1
1
1
1
1
1
1
1
1
1
1
1
1
1
1
1
1
1
1
1
1
0.9999998
0.9999992
0.9999978
0.9999954
0.9999935
0.9999931
0.9999935
0.9999955
0.9999978
0.999998
0.9999969
0.9999914
0.999974
0.9999368
0.9998952
0.9998816
0.9998844
0.9999093
0.9999571
0.9999805
0.9999801
0.9999641
0.9998945
0.9997361
0.9995135
0.9993282
0.9993015
0.9994275
0.9997355
0.9999
0.9999114
0.9998903
0.9997773
0.9994341
0.998608
0.9974179
0.9970535
0.9973948
0.998541
0.9995008
0.9996583
0.9996294
0.9994127
0.9984958
0.995764
0.9915985
0.9903466
0.9912586
0.9946168
0.9978587
0.9986015
0.9986036
0.9985158
0.9975146
0.992833
0.9814924
0.9729357
0.9744758
0.9843234
0.9938868
0.9961179
0.9965732
0.9965687
0.9950662
0.9888635
0.9752923
0.9637989
0.9642854
0.9742449
0.9874538
0.9938803
0.9956629
0.995757
0.9948989
0.9914388
0.9826302
0.9703999
0.9672981
0.9715719
0.9832422
0.9932404
0.9958777
0.9958429
0.9951323
0.9926192
0.9857398
0.9751401
0.9720106
0.9752865
0.9848717
0.9940376
0.9966925
0.9967055
0.9963466
0.9948954
0.99034
0.9812971
0.9772475
0.9805411
0.9894842
0.9964827
0.9977073
0.9976404
0.9973362
0.9960745
0.9917885
0.9834632
0.9820796
0.986649
0.9943696
0.9981326
0.9983915
0.9982875
0.9975746
0.9940125
0.9848335
0.9835703
0.9911441
0.9980809
0.9992066
0.9991711
0.9990965
0.9989057
0.9981584
0.9952565
0.9910983
0.9921626
0.9963456
0.9990215
0.999313
0.9992695
0.9990575
0.9982818
0.9965574
0.9957212
0.996331
0.9983585
0.999675
0.9998111
0.9997932
0.9997217
0.9995148
0.9989846
0.9984837
0.9986695
0.9994582
0.9999277
0.999955
0.999928
0.9998344
0.9995648
0.9992711
0.9993185
0.9996734
0.999945
0.9999796
0.999979
0.9999714
0.9999398
0.9998733
0.9998319
0.9998325
0.9998767
0.9999668
0.999998
0.9999996
0.9999989
0.9999963
0.9999946
0.9999958
0.9999985
0.9999995
0.9999995
0.9999986
0.9999941
0.9999894
0.9999935
0.9999987
0.9999999
0.9999998
0.9999995
0.9999983
0.9999974
0.9999977
0.9999987
0.9999996
0.9999997
0.9999994
0.9999981
0.9999953
0.9999934
0.9999935
0.9999953
0.9999982
0.9999992
0.9999991
0.9999985
0.9999985
0.999999
0.999999
0.999998
0.9999938
0.9999846
0.9999016
0.9993731
0.9980802
0.9966981
0.9955397
0.994911
0.9939573
0.9887678
0.9649564
0.9435412
0.9683934
0.9943638
0.9997448
0.9999505
0.9998808
0.99982
0.9998616
0.999959
0.999992
0.9999928
0.9999929
0.9999843
0.9999312
0.9997394
0.9995994
0.9997072
0.9999269
0.9999798
0.9999159
0.9990197
0.9944084
0.9949221
0.9983289
0.9997857
0.9999911
0.9999999
1
1
1
1
1
1
0.9999996
0.9999972
0.9999929
0.9999953
0.9999988
0.9999999
1
1
1
1
0.9999999
1
1
1
1
0.9999999
0.9999999
1
1
1
1
0.9999999
0.9999972
0.9999448
0.9992033
0.9926578
0.9811777
0.989319
0.9975914
0.9998355
0.9999975
0.9999996
0.9999991
0.9999937
0.9999523
0.9996096
0.9958917
0.9798486
0.977228
0.9857718
0.9973316
0.9998594
0.9999983
0.9999998
0.9999998
0.9999992
0.9999974
0.9999978
0.9999991
0.9999999
1
1
1
1
1
1
1
1
1
1
0.9999999
0.9999999
0.9999999
1
1
1
1
1
1
1
1
0.9999999
0.9999995
0.9999918
0.9999527
0.999925
0.9999372
0.9999745
0.9999615
0.9994488
0.9892588
0.9721048
0.9825596
0.9959869
0.9997139
0.9999941
0.9999888
0.9998057
0.9968034
0.9885858
0.9918427
0.9978032
0.9998414
0.9999909
0.9999766
0.9996896
0.9957551
0.989355
0.993832
0.9987114
0.9999278
0.9999992
1
1
1
1
1
1
1
1
1
1
1
1
1
1
1
1
1
1
0.9999997
0.9999981
0.9999873
0.9999393
0.9999257
0.9999674
0.9999956
0.9999998
1
1
1
1
1
1
0.9999999
0.9999999
1
1
1
1
1
1
1
1
1
1
1
1
1
1
1
1
1
1
1
1
1
1
1
1
1
1
1
1
1
1
1
1
1
1
1
1
1
1
1
1
1
1
1
1
1
1
1
1
1
1
1
1
1
1
1
1
1
1
1
1
1
1
1
1
1
1
1
1
1
1
1
1
1
1
1
1
1
1
1
1
1
1
1
1
1
1
1
1
1
1
1
1
1
1
1
1
1
1
1
1
1
1
1
1
1
1
1
1
1
1
1
1
1
1
1
1
1
1
1
1
1
1
1
1
1
1
1
0.9999999
0.9999993
0.9999957
0.9999848
0.9999658
0.9999523
0.999951
0.9999536
0.9999631
0.9999756
0.9999773
0.9999624
0.9998627
0.9994725
0.9985386
0.9975579
0.9973906
0.9976007
0.9983848
0.9993315
0.9996433
0.9996203
0.9993241
0.9978846
0.9930196
0.983962
0.9799363
0.9810758
0.9873996
0.9957135
0.9986933
0.9987688
0.9984833
0.9958889
0.9832417
0.9542307
0.9379269
0.9446496
0.9718798
0.9910053
0.9923194
0.9927522
0.9931783
0.9903425
0.9729066
0.9228619
0.8687209
0.8700196
0.9127438
0.9596459
0.9777047
0.9833149
0.9826817
0.9741349
0.946433
0.8649028
0.7394438
0.7184183
0.7613628
0.8756369
0.9604554
0.9646941
0.9474275
0.9306075
0.9302599
0.8850639
0.603001
0.4499478
0.5694948
0.828775
0.9111363
0.8898435
0.8738457
0.8989281
0.9180006
0.7835348
0.3335556
0.2979602
0.5754823
0.8275091
0.8240137
0.8100648
0.8396592
0.9217455
0.9363015
0.7726094
0.3267653
0.3279092
0.6293996
0.808133
0.7995769
0.8147423
0.8928882
0.9513116
0.9141392
0.5484508
0.3197663
0.4934902
0.7896033
0.8212384
0.8190774
0.8595642
0.9417564
0.9618626
0.8915568
0.5273633
0.4655316
0.6776378
0.8848996
0.9109327
0.9223907
0.9506262
0.9642798
0.9310797
0.6848683
0.5763609
0.7141692
0.9012159
0.9351981
0.9363664
0.9459692
0.9620216
0.9585113
0.8814354
0.7242643
0.7420869
0.8619183
0.9607764
0.9807045
0.9810288
0.9808111
0.9746745
0.9308503
0.8403068
0.8378532
0.894491
0.9616522
0.9825081
0.9835444
0.9835728
0.9821839
0.970378
0.9405046
0.9272803
0.9334571
0.9561517
0.9823028
0.9935705
0.9946775
0.9942723
0.9883393
0.969294
0.9695075
0.9797162
0.989729
0.9961828
0.9991131
0.9997106
0.999471
0.9955825
0.9907902
0.9910126
0.9929328
0.9967089
0.9992649
0.9994198
0.9988427
0.9985205
0.99859
0.9985776
0.998189
0.9974299
0.9979488
0.9994887
0.9999709
0.999994
0.9999882
0.9999683
0.9999588
0.9999687
0.9999866
0.9999911
0.9999854
0.9999405
0.9998741
0.9999098
0.9999744
0.9999975
0.9999985
0.9999981
0.9999963
0.9999915
0.9999861
0.9999851
0.9999863
0.9999916
0.999997
0.9999966
0.9999922
0.999978
0.9999457
0.9999149
0.9999261
0.9999764
0.9999639
0.9999557
0.9999708
0.9999939
0.9999933
0.9999669
0.9997929
0.9993974
0.9992404
0.9992162
0.9983361
0.9851482
0.9199976
0.8995817
0.9265083
0.9149286
0.6012829
0.2609374
0.4337246
0.8646075
0.9925787
0.9998947
0.9999578
0.9999511
0.9999217
0.9998966
0.9998996
0.9999192
0.9999442
0.9999559
0.9999521
0.9998617
0.9991831
0.998096
0.9984445
0.9994202
0.9999181
0.9998683
0.9984304
0.988771
0.9897137
0.9966199
0.9996119
0.9999889
0.9999999
1
1
1
1
0.9999999
0.9999996
0.9999964
0.9999794
0.9999754
0.9999872
0.999998
0.9999999
1
1
1
0.9999998
0.9999997
0.9999999
1
1
0.9999999
0.9999997
0.9999998
1
1
1
1
1
0.9999989
0.9999655
0.9992022
0.987877
0.9746346
0.9796568
0.9932788
0.9993667
0.9999881
0.9999995
0.9999985
0.9999793
0.9997453
0.9969861
0.9761591
0.96424
0.9687844
0.9886266
0.9986234
0.9999557
0.9999993
0.9999996
0.9999993
0.9999985
0.9999971
0.9999962
0.9999961
0.9999964
0.999997
0.9999982
0.9999996
1
1
0.9999998
0.9999982
0.9999974
0.9999979
0.9999994
1
1
1
1
1
1
1
1
1
1
0.9999994
0.9999937
0.9999758
0.9999771
0.9999697
0.9997831
0.9989648
0.9985599
0.9989912
0.9995637
0.998666
0.9836541
0.9721048
0.9721048
0.9785783
0.9948222
0.9997283
0.9999644
0.9995122
0.9922591
0.9861867
0.9871675
0.9952863
0.9995197
0.9999842
0.9998991
0.9978304
0.9894943
0.9889817
0.9911504
0.9977778
0.9998742
0.9999989
1
1
1
1
1
1
1
1
1
1
1
1
1
1
1
1
0.9999997
0.9999978
0.9999791
0.9998183
0.9996587
0.9997097
0.9999015
0.99999
0.9999998
1
1
0.9999999
0.9999997
0.9999991
0.999999
0.9999995
0.9999999
1
1
1
1
1
1
1
0.9999999
0.9999999
0.9999999
1
1
1
1
1
1
1
1
1
1
1
1
1
1
1
1
1
1
1
1
1
1
1
1
1
1
1
1
1
1
1
1
1
1
1
1
1
1
1
1
1
1
1
1
1
1
1
1
1
1
1
1
1
1
1
1
1
1
1
1
1
1
1
1
1
1
1
1
1
1
1
1
1
1
1
1
1
1
1
1
1
1
1
1
1
1
1
1
1
1
1
1
1
1
1
1
1
1
1
1
1
1
1
1
1
1
1
1
1
1
1
1
1
1
1
1
1
1
1
1
1
1
1
0.9999998
0.9999993
0.9999982
0.9999973
0.9999969
0.9999963
0.999995
0.9999923
0.9999842
0.9999253
0.9994945
0.997595
0.9939971
0.9921341
0.9919637
0.9921083
0.9930486
0.9951455
0.9966426
0.9967371
0.9947768
0.9809722
0.9349787
0.8867497
0.882709
0.8973725
0.933117
0.96667
0.9828988
0.9843003
0.9793725
0.9553443
0.8751796
0.6790771
0.5847584
0.62003
0.757908
0.9203161
0.968203
0.9591612
0.9384699
0.9273124
0.8227042
0.3617952
0.2110871
0.3946088
0.772137
0.8651758
0.835164
0.8129008
0.8398032
0.8401158
0.5766883
0.1404568
0.05737648
0.1278852
0.450262
0.6145554
0.6416665
0.7323013
0.7632151
0.5774873
0.1835745
0.04002272
0.03590466
0.03486938
0.04291977
0.1813198
0.6351802
0.7468379
0.5563651
0.1802534
0.02754007
0.01194146
0.01021931
0.009049275
0.01697438
0.1256504
0.3932614
0.3689198
0.1715234
0.03625222
0.02426042
0.02689093
0.02291717
0.02223074
0.03654216
0.1058765
0.1612487
0.1437801
0.08288104
0.0529421
0.05813314
0.05813205
0.04784142
0.04900301
0.06392305
0.08110457
0.08107301
0.07591982
0.07624291
0.08677101
0.09540911
0.083333
0.06795081
0.07045403
0.07465172
0.07363536
0.0703518
0.07151515
0.09088295
0.1392408
0.1488276
0.127541
0.1080456
0.1074077
0.1015172
0.08682851
0.08481369
0.1019018
0.1576056
0.1787442
0.1672074
0.1661694
0.1761209
0.1740975
0.1483583
0.1195924
0.1237392
0.1796976
0.2762997
0.2840113
0.2570475
0.2303801
0.2103375
0.1717443
0.1351292
0.1373863
0.1858044
0.2651061
0.2765861
0.2967029
0.3961619
0.4300674
0.3560284
0.194488
0.1830403
0.4108993
0.7400124
0.7050819
0.4608423
0.3977665
0.478853
0.5099572
0.4050421
0.2091423
0.2131954
0.5263467
0.9043812
0.9694182
0.9704046
0.9024453
0.5101975
0.4411545
0.6921649
0.9455136
0.9942575
0.9931213
0.9662715
0.8106607
0.8030806
0.9333291
0.9921775
0.9957109
0.9946389
0.984426
0.9376091
0.892264
0.9100578
0.9713299
0.9978326
0.9998012
0.9997999
0.9996485
0.9994554
0.9995481
0.9997873
0.9998338
0.999647
0.9982672
0.9976325
0.9986111
0.9997473
0.9999838
0.9999897
0.9999798
0.9999392
0.9998933
0.9998582
0.9998187
0.9997131
0.9996496
0.999804
0.9999603
0.9999756
0.9999638
0.9998652
0.9993163
0.9989598
0.9994255
0.9998908
0.9999888
0.9999906
0.999992
0.9999926
0.9999803
0.9997501
0.9967757
0.9838343
0.9806637
0.991854
0.9931211
0.9806384
0.9036804
0.4758672
0.08911858
0.06774155
0.05871036
0.05155712
0.1659715
0.7104118
0.9757624
0.9995878
0.9998215
0.999175
0.9970378
0.9942139
0.9938204
0.994483
0.9959154
0.9972718
0.9980656
0.9982567
0.9980325
0.9967454
0.9953791
0.995875
0.997909
0.998636
0.9970544
0.9834064
0.9812797
0.991434
0.9989161
0.9999638
0.9999998
1
1
1
0.9999999
0.9999992
0.9999943
0.9999587
0.9999017
0.9999327
0.9999806
0.999998
0.9999999
1
0.9999999
0.9999993
0.999999
0.9999993
0.9999998
1
1
0.9999998
0.9999993
0.9999995
0.9999999
1
0.9999999
0.9999984
0.9999894
0.999981
0.9999742
0.9997164
0.9939172
0.9752636
0.9746346
0.9867321
0.9977473
0.9999001
0.9999985
0.999997
0.9999595
0.9992784
0.988796
0.9382739
0.949001
0.9844877
0.9980967
0.9999226
0.9999983
0.9999987
0.9999974
0.9999831
0.9999362
0.9998143
0.9994412
0.9982842
0.9976561
0.9987699
0.9997879
0.9999913
0.9999999
1
1
1
0.9999996
0.9999987
0.9999989
0.9999996
1
1
1
1
1
1
0.9999999
0.9999994
0.9999982
0.9999956
0.9999906
0.9999545
0.9996058
0.9991416
0.9992377
0.9989349
0.9954039
0.9847662
0.9852496
0.9941837
0.996647
0.9855339
0.9721048
0.9721048
0.9763893
0.9931647
0.9995165
0.9999859
0.9999658
0.9998163
0.9993131
0.9989188
0.9990627
0.9996347
0.999963
0.9998995
0.9987796
0.9921452
0.9919212
0.9964567
0.9994734
0.9999806
0.9999999
1
1
1
1
1
1
1
1
1
1
1
1
1
1
0.9999999
0.9999989
0.9999857
0.9997652
0.9992814
0.9993179
0.9996853
0.9999393
0.9999957
0.9999992
0.9999992
0.9999982
0.9999926
0.9999888
0.9999909
0.9999972
0.9999997
1
1
1
1
1
1
0.9999999
0.9999995
0.9999994
0.9999997
0.9999999
1
1
1
1
1
1
1
1
1
1
1
1
1
1
1
1
1
1
1
1
1
1
1
1
1
1
1
1
1
1
1
1
1
1
1
1
1
1
1
1
1
1
1
1
1
1
1
1
1
1
1
1
1
1
1
1
1
1
1
1
1
1
1
1
1
1
1
1
1
1
1
1
1
1
1
1
1
1
1
1
1
1
1
1
1
1
1
1
1
1
1
1
1
1
1
1
1
1
1
1
1
1
1
1
1
1
1
1
1
1
1
1
1
1
1
1
1
1
1
1
1
1
1
1
1
1
1
1
1
1
1
1
1
1
0.9999999
0.9999976
0.9999732
0.9998013
0.9992465
0.9988127
0.998732
0.9986503
0.9983891
0.9978389
0.9971341
0.9956097
0.9851742
0.9309015
0.8384582
0.8165885
0.8187747
0.8194529
0.831706
0.8730546
0.8990417
0.8980717
0.8870894
0.7916113
0.4378184
0.2246874
0.2356583
0.321134
0.481707
0.6210967
0.7316074
0.7791709
0.7137796
0.3659174
0.08850751
0.04518486
0.03571396
0.0301181
0.04977789
0.3087637
0.6898225
0.6199254
0.2702746
0.04762967
0.01070226
0.00900348
0.008857145
0.01273742
0.05416457
0.1961258
0.2225434
0.1509807
0.0501182
0.01193269
0.008097028
0.007953473
0.008609345
0.01152436
0.01922487
0.03005152
0.03312287
0.03210573
0.02566183
0.0137103
0.006987091
0.006495771
0.007356033
0.007915855
0.0073841
0.006603542
0.006789983
0.00724992
0.007042109
0.00709748
0.01059935
0.01211708
0.009600404
0.00312471
0.001429204
0.001443001
0.001564436
0.002117667
0.005120614
0.01228783
0.01135614
0.005409395
0.001361144
0.0008641175
0.0009324951
0.00118676
0.001961331
0.0043671
0.007786749
0.00778329
0.005480031
0.002432676
0.001509421
0.001483544
0.001867016
0.0036511
0.00597148
0.006451
0.006425866
0.005869449
0.004106172
0.004010733
0.01075101
0.0189346
0.0165085
0.009580288
0.004325085
0.003702332
0.004011525
0.005483817
0.009126964
0.01206821
0.01201015
0.01178663
0.01142562
0.009635327
0.00707887
0.006967338
0.009759567
0.02109255
0.03089271
0.02848316
0.0179288
0.00963346
0.008446729
0.009717663
0.01669103
0.02635197
0.02912318
0.02877928
0.02474116
0.0161321
0.01081559
0.01066619
0.0239677
0.06742588
0.05906755
0.03279074
0.02388088
0.02548964
0.0293428
0.02933654
0.02394795
0.02020274
0.02645452
0.05280392
0.07965025
0.0823614
0.07551562
0.05351545
0.04263151
0.04094487
0.03333919
0.02179442
0.02359969
0.06061618
0.2612749
0.4523859
0.3940529
0.1791561
0.04091469
0.03604379
0.06369498
0.3776883
0.7920178
0.702067
0.3769906
0.4521325
0.8357908
0.9566931
0.8473924
0.3757853
0.315187
0.3172197
0.2397226
0.3000308
0.708055
0.963004
0.9932611
0.9925358
0.9895977
0.9899415
0.9959533
0.9985084
0.9971607
0.9849329
0.9810999
0.9904228
0.9982968
0.9995278
0.9995831
0.9996891
0.9999377
0.9999407
0.999611
0.9919997
0.9737133
0.9765733
0.9914754
0.9990662
0.9998313
0.9997876
0.9992748
0.9956903
0.9929329
0.9949044
0.9986845
0.9998884
0.9999951
0.9999979
0.9999979
0.9999979
0.9999946
0.9998159
0.9956212
0.9470214
0.8545819
0.9103112
0.9877477
0.9902847
0.9034768
0.3045503
0.02648066
0.02179002
0.02179002
0.08920829
0.5149186
0.9082117
0.9945196
0.9988512
0.9967134
0.9889814
0.9722123
0.9495715
0.9507825
0.9598161
0.9660126
0.9683384
0.9675112
0.9418107
0.8150559
0.7612246
0.8299708
0.9445106
0.9829964
0.9821681
0.9665047
0.9208116
0.9408206
0.9839537
0.9985313
0.9999646
0.9999998
1
1
0.9999996
0.9999971
0.9999814
0.9998788
0.9995563
0.9995973
0.9998671
0.9999833
0.9999991
0.9999997
0.9999995
0.9999974
0.9999962
0.9999975
0.9999994
0.9999999
0.9999999
0.9999998
0.999999
0.9999988
0.999999
0.999999
0.999999
0.9999994
0.9999986
0.9999657
0.9994652
0.9978774
0.9980595
0.9980086
0.9885788
0.9776435
0.9873675
0.9973484
0.9998453
0.9999813
0.9999613
0.9997703
0.9981108
0.9791816
0.8657314
0.8811606
0.9663451
0.9972043
0.9999466
0.9999987
0.9999987
0.9999987
0.999996
0.9999146
0.9982218
0.976502
0.9532352
0.97539
0.9956779
0.9998101
0.999998
0.9999998
0.9999995
0.9999968
0.9999962
0.9999973
0.9999994
1
1
1
1
1
0.9999999
0.9999998
0.9999998
0.9999999
0.9999992
0.9999743
0.9996849
0.9988279
0.9986954
0.9992467
0.9994777
0.9983448
0.995101
0.9894797
0.9660986
0.955467
0.955467
0.9713023
0.9935989
0.994716
0.9940843
0.9944594
0.9964906
0.9989301
0.9999032
0.9999984
0.9999997
0.9999991
0.9999963
0.9999888
0.9999831
0.9999877
0.9999888
0.9999315
0.9994269
0.9984723
0.9985378
0.999217
0.9998489
0.9999933
1
1
1
1
1
1
1
1
1
1
1
1
1
0.9999999
0.9999992
0.9999876
0.999836
0.9993269
0.9993115
0.9996677
0.9999063
0.999984
0.9999912
0.9999897
0.9999654
0.9999091
0.9999118
0.999962
0.9999937
0.9999995
0.9999999
1
1
1
0.9999999
0.9999997
0.999998
0.9999968
0.9999975
0.9999992
0.9999999
1
1
1
1
1
1
1
1
1
1
1
1
1
1
1
1
1
1
1
1
1
1
1
1
1
1
1
1
1
1
1
1
1
1
1
1
1
1
1
1
1
1
1
1
1
1
1
1
1
1
1
1
1
1
1
1
1
1
1
1
1
1
1
1
1
1
1
1
1
1
1
1
1
1
1
1
1
1
1
1
1
1
1
1
1
1
1
1
1
1
1
1
1
1
1
1
1
1
1
1
1
1
1
1
1
1
1
1
1
1
1
1
1
1
1
1
1
1
1
1
1
1
1
1
1
1
1
1
1
1
1
1
1
1
1
1
1
1
1
1
1
1
1
1
1
1
1
0.9999999
0.9999989
0.9999906
0.9999064
0.9989186
0.9906414
0.9588488
0.9370382
0.9377419
0.9377785
0.9326659
0.9184285
0.8930174
0.8646263
0.7808928
0.4538345
0.1872852
0.1910721
0.2154546
0.2115667
0.2289697
0.3363002
0.3794308
0.2957557
0.1215217
0.03152487
0.02299814
0.02326574
0.02353532
0.0274903
0.0403679
0.04728397
0.04510301
0.0339442
0.01736298
0.01198186
0.01242145
0.01437812
0.01431082
0.01121626