/*--------------------------------*- C++ -*----------------------------------*\
| =========                 |                                                 |
| \\      /  F ield         | foam-extend: Open Source CFD                    |
|  \\    /   O peration     | Version:     3.1                                |
|   \\  /    A nd           | Web:         http://www.extend-project.de       |
|    \\/     M anipulation  |                                                 |
\*---------------------------------------------------------------------------*/
FoamFile
{
    version     2.0;
    format      ascii;
    class       volScalarField;
    location    "18.5";
    object      omega;
}
// * * * * * * * * * * * * * * * * * * * * * * * * * * * * * * * * * * * * * //

dimensions      [0 0 -1 0 0 0 0];

internalField   nonuniform List<scalar> 
119952
(
411.7138
526.9702
502.0857
438.3625
394.1378
398.1864
405.3481
414.1196
423.9769
434.6488
446.0023
457.9623
470.495
483.5999
497.3118
511.6799
526.7794
542.7098
559.8108
579.3997
484.9768
484.0295
489.8009
411.1882
403.7881
400.076
396.9484
394.0481
387.4469
201.4007
825.6416
694.7407
588.6064
511.2851
453.1839
408.2152
372.1666
342.5856
317.7152
290.1501
245.197
213.3015
190.9399
174.2775
161.1385
150.2886
141.051
133.016
125.9412
97.87262
94.01208
90.2152
86.50412
82.97947
79.70234
76.69017
73.93316
71.39907
69.06457
66.99241
65.01803
63.10711
61.27673
59.53424
57.8822
56.30574
54.77069
53.27502
52.88153
52.69812
52.11023
51.63283
51.311
51.09473
50.88785
50.73346
50.64838
50.60486
50.58469
50.5736
50.56265
50.54873
50.53504
50.52651
50.52151
50.5022
50.42001
50.19504
49.90523
49.62936
49.19093
48.701
48.52199
48.51876
48.76903
49.67504
52.16487
55.96807
56.72388
57.21301
57.34654
57.35048
57.31414
57.25656
57.2018
57.1651
57.14997
57.15428
57.17339
57.20211
57.23672
57.2766
57.32458
57.38516
57.46206
57.55657
57.66746
57.79209
57.92763
58.07215
58.22571
58.3908
58.57128
58.7705
58.98997
59.22875
59.48368
59.74975
60.02132
60.29419
60.56716
60.8419
61.12195
61.4115
61.71454
62.03445
62.37374
62.73399
63.11572
63.51833
63.93982
64.37676
64.82435
65.27675
65.72699
66.15322
66.50351
66.8463
67.40135
68.00069
68.61755
69.25878
69.94406
70.65516
71.4215
72.25221
73.16583
74.18436
75.32878
76.6125
78.03485
79.57831
81.2026
82.84836
84.44608
85.92533
87.22326
88.29126
89.09878
89.63451
89.90234
89.91514
89.68884
89.24079
88.59257
87.77497
86.83136
85.81902
84.80885
83.88067
83.10922
82.5617
82.31682
82.46858
83.10179
84.22635
85.692
87.19163
88.41935
89.19365
89.53367
89.49198
89.0931
88.34545
87.22613
85.71732
83.56185
85.37658
88.55119
90.09281
90.54903
90.27152
89.67141
89.18481
88.87803
88.78779
88.97916
89.5883
91.26811
94.01194
97.8479
102.8375
109.218
118.6078
130.2672
142.2082
152.2448
158.6681
161.7521
162.574
162.1858
160.722
158.0383
154.5064
150.7337
147.3189
144.8124
143.5096
143.5723
145.2599
149.0352
156.2475
169.811
206.5242
230.6313
224.7862
201.6873
178.1958
159.6729
145.6716
134.4104
124.7625
116.4244
109.3651
103.427
98.37669
94.04394
90.30134
87.0423
84.18352
81.66809
79.45053
77.48655
75.72743
74.1247
72.64592
71.27765
70.01611
68.85697
67.79294
66.81627
65.92125
65.10318
64.35729
63.67672
63.04749
62.46375
50.36441
49.36676
48.33182
47.26916
46.2868
45.44926
44.78473
44.30516
44.01573
43.91833
44.01004
44.2816
44.72858
45.35501
46.16077
47.14211
48.28734
49.5699
50.95238
52.38527
53.80668
55.12991
56.26551
57.19715
57.91482
58.40911
58.67422
58.7099
58.52214
58.12265
57.52811
56.75938
55.83773
54.78087
53.60004
52.30397
50.93512
49.53959
48.14904
46.7876
45.47102
44.21104
43.01484
41.88804
40.83711
39.86755
38.97198
38.14109
37.37413
36.66879
36.02087
35.42816
34.89272
34.41582
34.05108
33.66489
33.28079
32.92318
32.59566
32.30705
32.06815
31.89113
31.78996
31.7797
31.87566
32.09394
32.45295
32.97564
33.69303
34.65329
35.94757
37.6123
39.57688
41.74456
44.03574
46.38602
48.69371
50.83285
52.66747
54.06721
54.92577
55.18097
54.83111
53.94159
52.6325
51.05462
49.35978
47.67205
46.0772
44.62632
43.34556
42.24316
41.31513
40.55022
39.93254
39.44396
39.06471
38.77343
38.54705
38.36108
38.19224
38.01865
37.82098
37.58465
37.30016
36.96233
36.56979
36.1265
35.63726
35.1063
34.54017
33.94677
33.33466
32.71236
32.08785
31.46808
30.85876
30.26412
29.68676
29.12643
28.58284
28.05924
27.55662
27.07401
26.61018
26.16512
25.73847
25.33013
24.94013
24.5686
24.21553
23.88074
23.56325
23.26067
22.96611
22.66286
22.31059
21.86618
21.85175
779.678
639.3563
564.3901
513.581
472.932
438.0982
407.5285
380.4986
355.423
298.1495
238.3398
202.0614
178.7068
162.6269
150.8439
141.7073
134.2776
127.9816
101.0116
96.56603
92.27988
88.2409
84.52824
81.17703
78.16989
75.47335
73.0463
70.83441
68.88347
67.07057
65.29484
63.56637
61.89905
60.30279
58.78447
57.34234
55.96921
54.95677
54.23326
53.39792
52.49277
51.55865
50.61881
49.68644
48.76814
47.86574
46.98354
46.12252
45.27853
44.4604
43.6715
42.9121
42.18194
41.47868
40.79885
40.14986
35.88215
35.36731
34.87582
34.40796
33.963
33.53867
33.1321
32.73929
32.35616
31.97718
31.60062
31.22935
30.86496
30.50921
30.16443
29.83349
29.51912
29.22753
28.97146
28.74541
28.51273
28.28391
28.0796
27.89734
27.72764
27.57024
27.42596
27.29286
27.17092
27.05858
26.94783
26.83611
26.72434
26.61471
26.50867
26.40552
26.30175
26.1912
26.07585
25.95972
25.83962
25.72027
25.62633
25.56492
25.54634
25.57925
25.67635
25.81978
25.91581
25.93298
25.95284
25.96408
25.96423
25.96069
25.95617
25.95333
25.95345
25.95581
25.95873
25.96024
25.95866
25.95337
25.94528
25.93642
25.92901
25.92455
25.92343
25.92514
25.92861
25.93277
25.93704
25.94189
25.94878
25.95957
25.97579
25.9981
26.02606
26.05823
26.0924
26.12637
26.15879
26.18946
26.21917
26.24925
26.2811
26.31599
26.35483
26.39821
26.44635
26.49923
26.55657
26.61782
26.68212
26.74819
26.81427
26.87856
26.94067
27.00057
27.06054
27.12613
27.19219
27.26095
27.33631
27.42336
27.52464
27.64598
27.79299
27.97259
28.19314
28.46324
28.79027
29.17836
29.62706
30.13054
30.67815
31.25537
31.84466
32.42585
32.97686
33.47521
33.9005
34.23705
34.47567
34.61419
34.65667
34.61218
34.49284
34.31267
34.08608
33.8279
33.55253
33.27486
33.01005
32.77506
32.58676
32.46045
32.40304
32.41366
32.48478
32.60983
32.78348
33.0014
33.24674
33.49574
33.70804
33.84101
33.84431
33.66334
34.05155
34.32331
34.25617
33.87784
33.22282
32.36822
31.3981
30.39637
29.43755
28.58176
27.8735
27.34135
27.00364
26.87917
26.99814
27.41177
28.17708
29.33677
30.75008
32.27977
33.9301
35.80882
38.03148
40.63013
43.43727
46.14805
48.42284
49.99068
50.72088
50.6417
49.91797
48.79965
47.56869
46.54539
46.09723
46.78218
48.52844
50.46677
52.79556
55.71979
59.04737
62.42485
65.45856
67.89826
69.41289
69.74951
68.8192
66.66826
63.52024
59.7361
55.708
51.75396
48.06711
44.73618
41.77137
39.13871
36.80394
34.72449
32.86584
31.20166
29.7114
28.37716
27.18235
26.11216
25.15325
24.29367
23.52262
22.8308
22.21035
21.6585
19.70589
19.25082
18.85493
18.50944
18.2079
17.94591
17.72079
17.5309
17.37525
17.25352
17.16561
17.11182
17.09285
17.1098
17.1641
17.25755
17.39217
17.57022
17.7943
18.06795
18.39716
18.7913
19.23784
19.72596
20.24629
20.78806
21.33868
21.88357
22.40645
22.89027
23.31855
23.6766
23.95225
24.1372
24.22706
24.22193
24.12732
23.95436
23.71144
23.39829
23.01636
22.56889
22.07104
21.53912
20.98733
20.42739
19.86886
19.3192
18.78478
18.27043
17.7796
17.31472
16.87724
16.46786
16.08862
15.73906
15.4177
15.12435
14.85937
14.62312
14.41588
14.23801
14.08995
13.97237
13.88627
13.83335
13.81655
13.84055
13.91254
14.04338
14.24937
14.55437
14.96815
15.48918
16.12679
16.88805
17.77454
18.77885
19.88117
21.04718
22.22826
23.36481
24.39411
25.26018
25.92224
26.35675
26.55839
26.53866
26.32437
25.95386
25.47196
24.92434
24.35201
23.78937
23.26355
22.7943
22.39451
22.07101
21.82555
21.65557
21.55509
21.51544
21.52602
21.57495
21.64947
21.7365
21.82308
21.89687
21.94656
21.96238
21.93671
21.86441
21.74305
21.57294
21.35689
21.09976
20.80796
20.48875
20.14972
19.79818
19.44061
19.08237
18.72787
18.38076
18.04342
17.71627
17.39956
17.09304
16.79589
16.50769
16.2291
15.95993
15.70045
15.44943
15.20644
14.96967
14.74535
14.55344
14.39553
636.717
563.1225
502.9864
458.6801
424.9794
398.9909
378.8542
363.9069
353.9571
340.5791
188.496
175.8828
164.7313
155.1924
147.6937
143.9786
140.8775
138.1722
131.9751
86.97403
85.03675
84.28859
83.53633
82.76833
81.95959
81.1051
80.20051
79.20425
77.89487
75.39151
72.89996
70.93965
69.41865
68.16019
67.0449
66.00719
65.01336
64.04081
64.0101
63.2761
62.22748
61.05567
59.867
58.71202
57.61131
56.56899
55.58354
54.65685
53.76641
52.89277
52.03058
51.17501
50.32853
49.49641
48.68377
47.90303
44.0142
43.36105
42.73945
42.14237
41.56408
41.00012
40.44752
39.90466
39.37163
38.84821
38.33329
37.82982
37.34023
36.86344
36.39787
35.94191
35.49348
35.05099
34.61388
34.18168
33.75683
33.3444
32.94698
32.56474
32.19598
31.83729
31.4845
31.13386
30.7828
30.43268
30.0869
29.74819
29.41968
29.10352
28.79893
28.50294
28.21086
27.91145
27.65952
27.40285
27.14643
26.89396
26.64823
26.41088
26.18152
25.95763
25.73543
25.51158
25.28491
25.05628
24.82798
24.60369
24.38786
24.18393
23.99427
23.81963
23.65882
23.50758
23.3574
23.20397
23.05315
22.90969
22.77598
22.65295
22.53936
22.43171
22.32624
22.21985
22.11274
22.00223
21.88919
21.77675
21.66786
21.56414
21.4647
21.36623
21.26924
21.1724
21.07589
20.98112
20.8933
20.81841
20.76819
20.73927
20.72878
20.73264
20.72974
20.70255
20.66432
20.62515
20.58513
20.54533
20.50832
20.476
20.44887
20.42597
20.40551
20.38542
20.36388
20.34018
20.31527
20.29117
20.2699
20.25258
20.23922
20.22904
20.22082
20.21325
20.20546
20.19772
20.19136
20.18806
20.18913
20.1951
20.20565
20.21951
20.23459
20.24882
20.26104
20.27124
20.28016
20.28893
20.29867
20.31029
20.3243
20.34092
20.36004
20.38145
20.4048
20.42976
20.45585
20.48242
20.50882
20.53469
20.55984
20.58404
20.60695
20.62955
20.65237
20.67562
20.70067
20.73014
20.76626
20.81148
20.86891
20.94261
21.03778
21.16029
21.31555
21.50705
21.73528
21.99761
22.28906
22.60322
22.93233
23.26671
23.59431
23.90106
24.17248
24.39586
24.56222
24.66736
24.71184
24.70015
24.63949
24.53832
24.40555
24.24964
24.07862
23.89988
23.72076
23.54859
23.39096
23.2546
23.14487
23.06472
23.01712
23.00391
23.02843
23.08995
23.18641
23.30657
23.43888
23.55876
23.64773
23.67983
23.67507
23.55187
23.32232
23.00219
22.60123
22.13816
21.64546
21.15898
20.7135
20.33817
20.05225
19.86299
19.76714
19.75511
19.81515
19.93543
20.10524
20.31869
20.58044
20.91078
21.33407
21.86896
22.53163
23.32289
24.21849
25.16961
26.11125
26.97719
27.7147
28.29333
28.70777
28.97024
29.10562
29.15675
29.16704
29.17266
29.21014
29.33697
29.61581
30.08949
30.78164
31.70014
32.83953
34.16905
35.62107
37.10728
38.5322
39.79071
40.77395
41.38785
41.57372
41.31729
40.64215
39.60096
38.26386
36.69985
34.9714
33.15164
31.30783
29.50886
27.80299
26.21275
24.74682
23.40654
22.18856
21.08644
20.09272
19.19873
18.39775
17.6774
17.05488
16.50217
16.01367
15.58314
15.20481
14.8737
14.58525
14.33508
14.11915
13.93392
13.77626
13.6438
13.53492
13.44849
13.38382
13.34065
13.31925
13.32039
13.34557
13.3971
13.47852
13.59561
13.75486
13.95122
14.18161
14.44239
14.72908
15.03596
15.3559
15.68052
16.00048
16.30584
16.58673
16.83372
17.03869
17.19496
17.29783
17.34489
17.33607
17.2738
17.16398
17.01492
16.82407
16.5874
16.30979
15.99927
15.66387
15.31135
14.94902
14.58354
14.22074
13.86559
13.52216
13.19361
12.88245
12.59032
12.31849
12.06786
11.83896
11.63202
11.44712
11.28417
11.14292
11.02294
10.92386
10.84555
10.78853
10.75404
10.74431
10.76285
10.81508
10.90918
11.05804
11.27062
11.55117
11.90702
12.34436
12.8672
13.47485
14.15978
14.90559
15.68789
16.47595
17.23656
17.93697
18.54797
19.04746
19.41949
19.65515
19.75466
19.72659
19.58721
19.3583
19.06538
18.73409
18.38845
18.04933
17.73383
17.45503
17.22223
17.04109
16.91432
16.84196
16.8218
16.84963
16.91946
17.02375
17.1536
17.29899
17.44932
17.59384
17.72234
17.8256
17.8962
17.92872
17.92011
17.8697
17.77908
17.6517
17.49231
17.30645
17.09986
16.87795
16.64569
16.40728
16.1661
15.92454
15.6846
15.4481
15.21618
14.98809
14.76351
14.54174
14.32446
14.11011
13.90324
13.70188
13.51719
13.34999
369.3971
268.7251
382.7219
173.4343
135.9935
99.94023
86.59234
75.33511
66.06157
61.60516
59.78171
58.80595
57.93443
57.21554
56.51763
55.90641
55.37028
54.97907
54.73117
54.51543
54.34197
54.27445
54.48055
54.87053
55.30303
55.7736
56.2879
56.85116
57.44937
58.02764
58.42607
57.29227
57.75061
58.08999
58.31309
58.41099
58.38034
58.22152
57.93758
57.54124
57.05098
56.46528
55.79762
55.07016
54.30306
53.51067
52.70246
51.88507
51.06274
50.23817
49.41634
48.60206
47.79161
46.98525
46.18889
45.40845
44.65063
43.91572
43.2023
42.50753
41.82847
41.16378
40.51316
39.87735
39.25875
38.65893
38.08054
37.51441
37.00997
36.51748
36.03867
35.57122
35.11284
34.66247
34.21964
33.78435
33.35681
32.9377
32.52828
32.13038
31.74489
31.37159
31.00923
30.65533
30.30665
29.96032
29.61502
29.27171
28.93345
28.60441
28.28842
27.98756
27.70057
27.42302
27.14908
26.87364
26.59402
26.31111
26.02923
25.75399
25.49093
25.24259
25.00767
24.7811
24.55734
24.33059
24.10098
23.86997
23.64163
23.42075
23.21146
23.01576
22.8324
22.65722
22.48459
22.30951
22.12929
21.94421
21.75755
21.57468
21.40147
21.24217
21.0985
20.96898
20.8486
20.73171
20.61258
20.48737
20.35888
20.23344
20.11701
20.01275
19.92022
19.83497
19.75126
19.66439
19.5715
19.47254
19.36926
19.26621
19.16778
19.07683
18.99387
18.91729
18.84371
18.77034
18.69614
18.62219
18.55269
18.49284
18.44605
18.41267
18.39104
18.37705
18.36288
18.34227
18.31689
18.2913
18.26722
18.24624
18.23056
18.22143
18.21852
18.2202
18.22426
18.22837
18.2308
18.2314
18.23166
18.23387
18.2398
18.24996
18.2637
18.27969
18.29634
18.31211
18.32631
18.33955
18.35336
18.36939
18.38851
18.41059
18.43476
18.45954
18.48295
18.5034
18.52037
18.53443
18.54655
18.55769
18.56856
18.57958
18.59077
18.60193
18.61265
18.62246
18.63099
18.63806
18.64352
18.64712
18.64876
18.64856
18.64683
18.64373
18.63921
18.63333
18.62631
18.61872
18.61171
18.60687
18.60562
18.60914
18.61882
18.63693
18.66686
18.71264
18.77796
18.86501
18.97368
19.10159
19.24539
19.40181
19.56772
19.73914
19.91011
20.07233
20.21618
20.33245
20.41418
20.45771
20.46284
20.43223
20.37047
20.28314
20.17606
20.05464
19.92374
19.78753
19.6499
19.51453
19.38517
19.26551
19.15907
19.06903
18.99852
18.95021
18.92642
18.92799
18.95436
19.00211
19.06555
19.13495
19.19793
19.23941
19.24644
19.20607
19.11097
18.96253
18.77909
18.57419
18.36864
18.18735
18.05533
17.99277
18.00957
18.10184
18.25377
18.44369
18.65031
18.85571
19.04633
19.21556
19.36713
19.5147
19.67747
19.87752
20.13037
20.44093
20.80548
21.21006
21.63236
22.04655
22.42949
22.76524
23.04729
23.27609
23.45431
23.58799
23.68428
23.74969
23.79425
23.84356
23.93312
24.09334
24.34875
24.71834
25.21425
25.83852
26.57971
27.41304
28.29847
29.18003
29.99425
30.68381
31.201
31.51311
31.60309
31.46876
31.12034
30.57618
29.85971
28.99777
28.02452
26.96239
25.83087
24.65334
23.46777
22.30505
21.18838
20.13348
19.1502
18.24358
17.41584
16.66538
15.99064
15.38887
14.85653
14.38887
13.98049
13.62559
13.31813
13.05208
12.82165
12.62156
12.44725
12.29505
12.16204
12.04579
11.9443
11.85613
11.78054
11.7175
11.66764
11.63216
11.61287
11.61245
11.63529
11.68271
11.75368
11.8471
11.96148
12.09481
12.24432
12.40643
12.57673
12.75014
12.92105
13.08377
13.23268
13.36238
13.46809
13.54598
13.59324
13.60829
13.59086
13.54206
13.46478
13.36345
13.23498
13.07803
12.89589
12.69254
12.47251
12.2406
12.00164
11.76018
11.52054
11.28636
11.06074
10.84622
10.64485
10.45808
10.28691
10.13196
9.993553
9.871744
9.766214
9.676316
9.6012
9.540142
9.492697
9.458793
9.438716
9.433276
9.444192
9.474613
9.529811
9.61783
9.743609
9.912285
10.12905
10.3989
10.72523
11.10861
11.54538
12.02715
12.54112
13.07094
13.59793
14.10251
14.56561
14.96989
15.30088
15.54775
15.70515
15.77322
15.75753
15.66843
15.5199
15.3279
15.10887
14.87851
14.65087
14.43791
14.24946
14.09299
13.97393
13.89574
13.86001
13.86663
13.91381
13.99819
14.11488
14.25766
14.41917
14.59122
14.76525
14.93264
15.08537
15.21646
15.32033
15.39312
15.43286
15.43934
15.41398
15.35946
15.27932
15.17756
15.0583
14.92538
14.78213
14.63149
14.47567
14.31658
14.15549
13.9944
13.8327
13.6702
13.50702
13.34532
13.18524
13.0309
12.88779
330.7707
222.7667
168.3457
149.9548
122.036
102.2483
87.96193
82.36456
76.12236
72.47565
69.3284
65.11225
60.92941
56.98464
53.40044
49.49352
43.47566
42.09947
41.10797
40.58999
40.49792
40.68949
41.00724
41.39374
41.84218
42.36881
42.97989
43.64244
44.34225
45.07566
45.83902
46.62836
47.44449
48.2895
49.15877
50.04853
50.97347
51.94188
52.8933
53.89407
55.01445
55.87922
56.30314
56.59106
56.75241
56.75378
56.59161
56.27435
55.81486
55.2278
54.53198
53.74802
52.89369
51.98498
51.03914
50.07387
49.10389
48.14086
47.19182
46.25847
45.34014
44.4326
43.53421
42.64796
41.77941
40.94228
40.1434
39.38864
38.67804
38.0072
37.36887
36.75478
36.15825
35.57559
35.00602
34.4518
33.91611
33.40279
32.91241
32.44643
32.00439
31.58375
31.17914
30.78559
30.39996
30.02062
29.64699
29.27942
28.91935
28.56934
28.23203
27.90909
27.60091
27.30601
27.02035
26.73825
26.45457
26.16673
25.8757
25.58591
25.30438
25.03838
24.79203
24.56361
24.34659
24.13222
23.9126
23.68318
23.44451
23.20244
22.96563
22.74308
22.54003
22.35471
22.18013
22.00761
21.82959
21.64236
21.4474
21.2507
21.06012
20.88279
20.72271
20.57883
20.44569
20.31542
20.18043
20.03616
19.88242
19.72329
19.56613
19.41969
19.2907
19.18082
19.08681
19.00083
18.91421
18.82043
18.71624
18.60442
18.49276
18.39059
18.30438
18.23451
18.175
18.11714
18.0543
17.98268
17.90241
17.81775
17.73566
17.66337
17.60535
17.56181
17.52906
17.50294
17.48069
17.46204
17.44766
17.44011
17.44361
17.4618
17.49601
17.54438
17.59985
17.65748
17.71423
17.7713
17.83164
17.89772
17.97187
18.0548
18.14447
18.23688
18.32769
18.41389
18.49405
18.56838
18.6395
18.71119
18.78615
18.86462
18.94409
19.02193
19.09582
19.16454
19.22725
19.28512
19.3407
19.39642
19.45319
19.51006
19.56481
19.61499
19.6584
19.69358
19.72084
19.74199
19.75917
19.77377
19.78612
19.79583
19.80211
19.80402
19.80072
19.79165
19.77645
19.75505
19.72779
19.69497
19.65685
19.61391
19.5672
19.51795
19.46708
19.41499
19.36189
19.30817
19.25467
19.20284
19.15418
19.10957
19.0692
19.03314
19.00217
18.97814
18.96335
18.95952
18.96683
18.98332
19.0055
19.03029
19.05619
19.08322
19.11156
19.13982
19.16416
19.17895
19.1784
19.15818
19.1163
19.05311
18.9708
18.87265
18.76247
18.64408
18.52088
18.39568
18.27079
18.14822
18.02988
17.91775
17.81386
17.72024
17.63877
17.57116
17.51875
17.48246
17.46251
17.45825
17.46787
17.48826
17.51463
17.54063
17.55888
17.5617
17.54211
17.49657
17.42726
17.34597
17.27448
17.23425
17.24906
17.34057
17.52183
17.79014
18.12483
18.49318
18.86066
19.19879
19.48822
19.71683
19.88007
19.98402
20.04482
20.0815
20.1105
20.14604
20.19699
20.26842
20.36133
20.4718
20.59227
20.71397
20.82988
20.93627
21.0321
21.11656
21.18738
21.2408
21.27356
21.28832
21.29543
21.3089
21.34363
21.41469
21.53639
21.72029
21.97433
22.30069
22.69541
23.14586
23.6303
24.11939
24.57952
24.97761
25.28551
25.48263
25.5572
25.50511
25.32814
25.03189
24.62304
24.11016
23.50474
22.82416
22.08879
21.30319
20.4751
19.62819
18.7846
17.9632
17.17878
16.44225
15.76101
15.13965
14.58032
14.08321
13.64669
13.26746
12.94077
12.66079
12.42119
12.2157
12.0385
11.88454
11.74965
11.6302
11.52277
11.42428
11.33245
11.246
11.16477
11.08936
11.02089
10.96071
10.91041
10.87222
10.84844
10.8388
10.84286
10.86011
10.88995
10.9315
10.98345
11.04397
11.1107
11.1808
11.25116
11.31861
11.37982
11.43153
11.47084
11.4953
11.50298
11.4926
11.46364
11.41649
11.35252
11.27443
11.1819
11.07398
10.95196
10.81774
10.6738
10.52296
10.36827
10.2128
10.05947
9.910959
9.769583
9.637241
9.515401
9.405134
9.307164
9.221858
9.149176
9.088644
9.039386
9.000242
8.970074
8.947997
8.933264
8.92516
8.923208
8.927552
8.93935
8.961142
8.997252
9.052796
9.131275
9.236597
9.372784
9.543478
9.751225
9.996689
10.27801
10.59049
10.92656
11.27624
11.62784
11.96888
12.28667
12.56886
12.80474
12.98623
13.1086
13.17059
13.17453
13.12606
13.03347
12.90669
12.75638
12.59318
12.4271
12.26715
12.12117
11.99568
11.89588
11.82564
11.78753
11.78288
11.81178
11.87308
11.96444
12.08237
12.22233
12.37886
12.54584
12.71675
12.88501
13.04439
13.18929
13.31512
13.41845
13.49719
13.55052
13.57881
13.58343
13.56646
13.5305
13.47827
13.41255
13.33584
13.25048
13.15839
13.06138
12.9611
12.85957
12.75553
12.6494
12.54213
12.43521
12.33411
170.4428
125.6079
192.5231
94.4748
80.97518
69.33075
65.91282
63.50451
60.85877
59.83236
58.46664
56.48725
54.63812
52.6547
50.30117
45.57872
44.50634
43.5012
42.52958
41.59636
40.6564
39.75942
38.96747
38.31425
37.82389
37.49451
37.24793
37.0136
36.97404
37.15651
37.54483
38.07834
38.68737
39.34272
40.05724
40.81679
41.60747
42.42291
43.26088
44.11923
44.99489
45.87886
46.77799
47.70733
48.67284
49.64425
50.6446
51.72877
52.64242
53.42006
54.04951
54.47421
54.63675
54.59335
54.33286
53.86458
53.21603
52.41814
51.50025
50.48916
49.40822
48.27709
47.11378
45.93501
44.7585
43.60215
42.48287
41.41457
40.40367
39.44983
38.54386
37.67622
36.84482
36.04665
35.28335
34.56221
33.88953
33.26622
32.69521
32.17303
31.68996
31.23308
30.79046
30.35407
29.92083
29.49253
29.07418
28.67193
28.29121
27.93495
27.60286
27.29145
26.99472
26.7064
26.42153
26.13688
25.85103
25.56471
25.28041
25.00222
24.73506
24.48301
24.24832
24.02958
23.8212
23.61479
23.40229
23.17898
22.94517
22.70661
22.4733
22.2565
22.06382
21.89422
21.7392
21.58726
21.42746
21.25238
21.06077
20.85918
20.66048
20.47802
20.31918
20.18257
20.05989
19.9399
19.81211
19.67023
19.51481
19.3532
19.19637
19.05422
18.93223
18.83001
18.74126
18.65589
18.56403
18.45949
18.34152
18.21467
18.08784
17.97237
17.87799
17.80703
17.75312
17.70509
17.65211
17.58716
17.50785
17.41843
17.33027
17.25757
17.20878
17.18192
17.16683
17.15152
17.12897
17.09858
17.0669
17.04591
17.0513
17.09465
17.17828
17.29385
17.42582
17.56447
17.7121
17.87828
18.06613
18.27811
18.51512
18.77599
19.05669
19.34807
19.62323
19.88311
20.13047
20.37112
20.61261
20.86196
21.12196
21.38714
21.64432
21.88013
22.08611
22.26009
22.40593
22.53321
22.65478
22.78122
22.91631
23.05634
23.19302
23.31881
23.42909
23.52334
23.60503
23.68088
23.7582
23.84069
23.92652
24.00932
24.08125
24.13601
24.16997
24.18312
24.18059
24.16967
24.15581
24.14084
24.12352
24.101
24.07017
24.02837
23.97377
23.9055
23.82378
23.72998
23.6255
23.51104
23.38707
23.25475
23.11614
22.97354
22.82856
22.6823
22.53611
22.39157
22.25057
22.11535
21.98786
21.86888
21.75812
21.65504
21.55943
21.47101
21.38834
21.30848
21.22747
21.14006
21.04105
20.92799
20.80254
20.66852
20.53018
20.39038
20.24937
20.10542
19.95635
19.80101
19.63987
19.47463
19.30764
19.14129
18.97782
18.81916
18.6668
18.5218
18.38489
18.25681
18.13832
18.03026
17.93346
17.84856
17.77589
17.71537
17.6665
17.62833
17.59952
17.57829
17.56252
17.54985
17.53773
17.52359
17.50506
17.48048
17.44962
17.41482
17.38288
17.36757
17.39331
17.4915
17.68849
18.0029
18.4349
18.95854
19.52555
20.08285
20.5866
21.01052
21.34306
21.5783
21.71641
21.77002
21.76254
21.71481
21.63902
21.53859
21.42438
21.31033
21.20845
21.12626
21.06557
21.02368
20.99707
20.98286
20.97924
20.98347
20.99097
20.99459
20.98742
20.96627
20.93105
20.88387
20.82977
20.77668
20.73398
20.711
20.7163
20.75639
20.83558
20.95411
21.10702
21.2837
21.46853
21.64298
21.78822
21.88745
21.92764
21.90017
21.80037
21.62638
21.37812
21.05706
20.66657
20.21235
19.70191
19.14955
18.56942
17.96119
17.33365
16.70211
16.08114
15.48372
14.92072
14.40055
13.92906
13.50958
13.14299
12.8279
12.56089
12.33694
12.15009
11.99418
11.86328
11.75198
11.65544
11.56913
11.48867
11.4103
11.33153
11.2515
11.17073
11.09056
11.01253
10.93796
10.86792
10.80354
10.74612
10.69529
10.65056
10.61176
10.57899
10.5525
10.53234
10.51819
10.50926
10.5043
10.50172
10.49987
10.49702
10.49124
10.48068
10.46369
10.43887
10.40516
10.36191
10.30896
10.24674
10.17636
10.09968
10.01679
9.927944
9.833899
9.735841
9.635309
9.534098
9.434154
9.337449
9.245864
9.161082
9.084512
9.017253
8.960078
8.91341
8.877258
8.851147
8.834153
8.824996
8.822187
8.824401
8.830493
8.839083
8.848614
8.85775
8.865855
8.873289
8.881566
8.893449
8.91284
8.942684
8.985726
9.045142
9.124246
9.226011
9.352494
9.504259
9.679996
9.876486
10.08879
10.31051
10.53391
10.75019
10.95025
11.12558
11.26902
11.37516
11.44066
11.4647
11.44904
11.39767
11.31629
11.21158
11.09075
10.96099
10.82922
10.7018
10.5844
10.48186
10.3982
10.33654
10.2992
10.28761
10.3024
10.3433
10.40922
10.49822
10.60754
10.73365
10.87241
11.01922
11.16928
11.31779
11.46019
11.59243
11.71109
11.81358
11.89813
11.96389
12.0108
12.03955
12.05134
12.0478
12.03077
12.00219
11.96395
11.91792
11.86583
11.80945
11.75154
11.69215
11.63059
11.56759
11.50734
70.55764
52.28941
50.14345
47.57763
46.47996
45.16447
44.11324
43.23165
42.48893
41.33739
38.5395
38.39038
38.26225
38.14704
38.01112
37.84233
37.67923
37.55214
37.47226
37.42582
37.2638
36.86108
36.4635
36.07869
35.7145
35.3792
35.09732
34.88479
34.75352
34.70507
34.72763
34.81498
34.98793
35.27398
35.68849
36.21973
36.83259
37.48939
38.19955
38.95331
39.7406
40.55916
41.40511
42.27736
43.17753
44.11131
45.04066
45.98452
46.99078
48.05808
49.06254
49.99052
50.78656
51.38473
51.7499
51.86956
51.73455
51.35155
50.73453
49.90762
48.90178
47.75532
46.50986
45.20514
43.87447
42.54162
41.22185
39.92471
38.65756
37.43215
36.26317
35.17003
34.17257
33.28005
32.48378
31.76609
31.10516
30.48415
29.89274
29.32751
28.78645
28.27953
27.81776
27.4076
27.04707
26.7255
26.42728
26.13729
25.84474
25.54472
25.23854
24.93233
24.63442
24.35294
24.09366
23.85831
23.64389
23.44384
23.25071
23.05816
22.86128
22.6574
22.44647
22.23155
22.01867
21.81493
21.62631
21.45703
21.30661
21.16827
21.03178
20.88728
20.72812
20.55293
20.36716
20.18353
20.01726
19.87734
19.76223
19.66266
19.56665
19.46275
19.34235
19.2026
19.04929
18.89677
18.7613
18.65133
18.56427
18.49062
18.4188
18.33834
18.24285
18.1328
18.01609
17.90474
17.80943
17.73553
17.68132
17.63836
17.5953
17.54296
17.47754
17.40084
17.31895
17.24161
17.18112
17.1467
17.13595
17.13506
17.12934
17.11043
17.0772
17.03425
16.99486
16.98253
17.01908
17.10789
17.22985
17.35735
17.47324
17.57817
17.69043
17.84728
18.09423
18.47152
18.97426
19.56656
20.19735
20.80939
21.37572
21.91081
22.45562
23.03981
23.67448
24.35343
25.05017
25.72358
26.33583
26.8667
27.30647
27.66598
27.97042
28.24968
28.52844
28.81732
29.10774
29.37734
29.60296
29.77089
29.88029
29.94241
29.98056
30.02289
30.0894
30.18427
30.29647
30.41152
30.51232
30.59052
30.64503
30.68187
30.71503
30.75836
30.817
30.88485
30.94803
30.99167
31.00496
30.98228
30.92515
30.84508
30.75573
30.66616
30.57879
30.49121
30.39906
30.29757
30.18253
30.05131
29.90283
29.73708
29.55666
29.36358
29.1579
28.93936
28.70902
28.46919
28.22181
27.96821
27.71008
27.45104
27.19537
26.9474
26.71078
26.48796
26.2801
26.0879
25.91211
25.75261
25.60639
25.46582
25.31943
25.15473
24.96167
24.73542
24.47596
24.18751
23.87611
23.54867
23.21193
22.87143
22.53318
22.20028
21.87519
21.5614
21.26263
20.98179
20.72042
20.47901
20.25741
20.055
19.87093
19.70445
19.5551
19.42271
19.30723
19.20843
19.12549
19.05682
19.00012
18.95238
18.91014
18.86974
18.82775
18.78136
18.72871
18.669
18.60289
18.53275
18.4633
18.40148
18.35744
18.34603
18.3887
18.51606
18.77335
19.19472
19.78633
20.51466
21.31158
22.09435
22.79325
23.36937
23.81726
24.14341
24.35189
24.45025
24.46602
24.43786
24.36836
24.23451
24.04145
23.81471
23.58654
23.38593
23.23057
23.12333
23.05412
23.00706
22.96864
22.93178
22.89495
22.85753
22.81464
22.75796
22.68097
22.57739
22.44147
22.27245
22.07338
21.85106
21.6148
21.3753
21.14354
20.92965
20.74161
20.58385
20.45651
20.35531
20.27221
20.19646
20.11619
20.02013
19.89889
19.74549
19.55527
19.32529
19.05389
18.74056
18.38612
17.993
17.56593
17.1122
16.64316
16.16384
15.67754
15.19435
14.72483
14.27909
13.86598
13.49244
13.16318
12.88036
12.64362
12.45033
12.29587
12.17429
12.07925
12.00445
11.94376
11.89204
11.84416
11.79511
11.74093
11.67969
11.61172
11.5389
11.46365
11.38781
11.31223
11.23716
11.1628
11.08906
11.01482
10.93959
10.86366
10.78795
10.71376
10.64227
10.57416
10.50952
10.448
10.38899
10.33174
10.27546
10.21928
10.16225
10.10345
10.04207
9.977475
9.909256
9.83731
9.761887
9.683646
9.603791
9.5236
9.443495
9.364047
9.286046
9.210483
9.138522
9.07144
9.010554
8.957133
8.912323
8.877082
8.852128
8.837871
8.834289
8.840758
8.855932
8.878032
8.905131
8.935402
8.967441
8.999998
9.030982
9.057874
9.078605
9.092104
9.098453
9.098906
9.095806
9.092334
9.090906
9.093607
9.103099
9.122455
9.154751
9.20258
9.267503
9.349759
9.448153
9.560321
9.682815
9.811046
9.939412
10.06169
10.1716
10.26322
10.33149
10.37272
10.38513
10.36882
10.32557
10.25856
10.17202
10.07081
9.960049
9.844783
9.729826
9.619605
9.51805
9.428546
9.35391
9.296387
9.257658
9.238841
9.240493
9.26261
9.304612
9.36532
9.442935
9.535106
9.639024
9.751529
9.869231
9.988664
10.10644
10.21942
10.3248
10.42021
10.5038
10.57433
10.63109
10.67395
10.70325
10.71975
10.72453
10.71888
10.70426
10.68221
10.65432
10.62232
10.58853
10.55477
10.51931
10.48533
95.75819
40.33408
33.55161
32.14776
31.42347
31.09999
31.09287
31.26385
31.56656
31.96172
32.28751
32.42017
32.55462
32.67554
32.78539
32.87745
32.96028
33.03556
33.09116
33.10573
33.05533
32.95721
32.86353
32.78356
32.72569
32.69493
32.70409
32.75537
32.85003
32.9878
33.169
33.39587
33.67803
34.02146
34.43684
34.92067
35.45898
36.0841
36.7855
37.55092
38.37841
39.25923
40.17127
41.11164
42.08419
43.14233
44.15387
45.16548
46.19297
47.16979
48.00966
48.65641
49.06279
49.19492
49.04098
48.60734
47.91559
46.99682
45.85988
44.55253
43.12395
41.62356
40.10021
38.59944
37.15695
35.79359
34.5143
33.31369
32.18286
31.12006
30.14129
29.26432
28.49864
27.84563
27.29581
26.82783
26.41013
26.01111
25.61312
25.21245
24.81654
24.44127
24.10405
23.81632
23.57781
23.37592
23.19167
23.00767
22.81236
22.60088
22.37505
22.14203
21.91167
21.69384
21.49624
21.32236