/*--------------------------------*- C++ -*----------------------------------*\
| =========                 |                                                 |
| \\      /  F ield         | foam-extend: Open Source CFD                    |
|  \\    /   O peration     | Version:     3.1                                |
|   \\  /    A nd           | Web:         http://www.extend-project.de       |
|    \\/     M anipulation  |                                                 |
\*---------------------------------------------------------------------------*/
FoamFile
{
    version     2.0;
    format      ascii;
    class       volScalarField;
    location    "18.5";
    object      p;
}
// * * * * * * * * * * * * * * * * * * * * * * * * * * * * * * * * * * * * * //

dimensions      [1 -1 -2 0 0 0 0];

internalField   nonuniform List<scalar> 
119952
(
4818.477
3052.669
2797.67
3031.911
3282.619
3048.698
2971.831
2908.537
2864.7
2829.371
2798.577
2771.479
2747.156
2725.008
2703.524
2682.144
2659.798
2634.009
2589.293
2462.421
2865.553
2626.189
2501.133
3049.039
3000.036
3031.137
3078.736
3215.902
3688.114
7113.885
2713.644
2658.616
2657.3
2649.223
2643.436
2637.875
2631.499
2627.9
2628.539
2596.989
2566.831
2579.272
2567.494
2558.692
2551.794
2547.042
2543.334
2540.129
2537.269
2524.889
2519.012
2494.095
2485.719
2484.597
2483.76
2484.603
2486.741
2487.775
2496.977
2492.755
2490.377
2499.68
2509.37
2519.493
2531.827
2547.015
2574.131
2664.304
2854.473
2698.878
2631.482
2721.595
2758.667
2724.514
2660.419
2614.066
2578.145
2546.017
2517.491
2492.592
2470.056
2449.113
2429.298
2410.077
2390.652
2370.307
2350.239
2337.563
2359.761
2385.898
2376.351
2493.978
2677.891
2714.091
2723.986
2735.561
2639.873
2299.767
2209.073
2286.62
2307.333
2323.64
2342.268
2355.169
2365.264
2374.4
2382.7
2390.307
2397.277
2403.598
2409.343
2414.67
2419.755
2424.738
2429.694
2434.645
2439.58
2444.489
2449.358
2454.185
2459.029
2464.002
2469.218
2474.764
2480.681
2486.986
2493.672
2500.712
2508.099
2515.882
2524.154
2533.015
2542.55
2552.813
2563.827
2575.595
2588.111
2601.387
2615.474
2630.471
2646.535
2663.839
2682.535
2702.673
2724.141
2747.372
2775.995
2814.371
2853.541
2884.217
2916.601
2953.64
2993.196
3034.894
3079.6
3126.853
3176.778
3229.228
3284.233
3341.714
3401.695
3464.127
3528.974
3596.237
3665.938
3738.095
3812.655
3889.43
3968.077
4048.129
4129.043
4210.306
4291.462
4372.117
4451.908
4530.447
4607.296
4681.971
4753.982
4822.849
4888.138
4949.615
5007.214
5060.893
5110.513
5155.87
5197.116
5235.196
5271.8
5308.182
5344.652
5380.036
5413.61
5445.007
5474.034
5500.836
5527.995
5593.491
5610.817
5629.875
5647.454
5663.077
5675.635
5685.311
5691.967
5695.485
5696.022
5693.909
5688.293
5679.782
5669.274
5657.09
5643.504
5631.504
5616.045
5595.563
5571.224
5550.143
5538.288
5533.405
5530.735
5526.872
5522.483
5519.364
5519.064
5523.103
5532.509
5547.652
5568.409
5594.264
5623.795
5654.6
5688.803
5704.413
5653.744
5716.503
5772.468
5810.758
5843.055
5875.237
5907.863
5936.971
5961.239
5982.088
6000.627
6017.512
6033.328
6048.9
6065.539
6083.894
6104.5
6127.111
6151.007
6175.335
6199.583
6223.42
6246.645
6269.134
6290.808
6311.643
6331.654
6350.871
6369.304
6386.932
6403.725
6419.998
6435.933
6428.67
6438.867
6442.025
6449.307
6457.236
6463.014
6466.919
6469.372
6470.233
6469.353
6466.824
6462.806
6457.469
6451.126
6444.076
6436.638
6429.237
6422.175
6415.72
6410.09
6405.432
6401.893
6399.309
6397.881
6397.491
6398.065
6399.521
6401.77
6404.733
6408.35
6412.58
6417.393
6422.739
6428.554
6434.798
6441.47
6448.402
6455.767
6463.755
6471.963
6480.433
6489.187
6498.235
6507.64
6517.293
6526.247
6533.379
6539.749
6546.522
6553.464
6560.348
6567.387
6574.283
6579.975
6579.724
6584.304
6592.466
6596.919
6600.098
6602.945
6605.257
6606.946
6607.975
6608.38
6608.19
6607.437
6606.217
6604.65
6602.841
6600.875
6598.809
6596.718
6594.627
6592.808
6591.688
6591.294
6591.363
6591.759
6592.347
6592.981
6593.543
6593.932
6594.184
6594.474
6594.834
6595.484
6596.447
6597.662
6599.06
6600.594
6602.268
6604.014
6605.847
6607.748
6609.722
6611.782
6613.934
6616.17
6618.482
6620.829
6623.177
6625.483
6627.712
6629.842
6631.845
6633.693
6635.36
6636.786
6637.965
6638.872
6639.483
6639.783
6639.772
6639.454
6638.844
6637.96
6636.824
6635.459
6633.885
6632.126
6630.201
6628.097
6625.819
6623.379
6620.731
6617.88
6614.809
6611.48
6607.853
6603.873
6599.457
6594.493
6588.815
6582.122
6573.937
6563.794
6553.635
6558.725
6610.49
5075.381
4924.825
4745.968
4578.758
4419.078
4267.408
4124.262
3989.356
3864.063
3718.546
3605.987
3504.033
3407.011
3317.342
3235.488
3160.463
3093.071
3026.455
2925.437
2898.319
2841.655
2788.29
2746.006
2709.005
2675.153
2644.395
2615.097
2589.698
2570.811
2535.271
2514.19
2497.48
2480.508
2465.382
2451.358
2437.496
2426.128
2422.763
2394.195
2374.387
2365.994
2358.428
2350.432
2342.669
2335.226
2327.672
2319.942
2305.083
2298.931
2292.986
2285.309
2277.974
2272.128
2267.448
2264.154
2268.734
2180.904
2177.486
2178.569
2178.494
2176.584
2174.863
2174.91
2176.588
2178.989
2180.531
2184.399
2190.596
2196.664
2203.585
2213.651
2228.983
2252.182
2287.134
2328.187
2362.545
2365.593
2349.604
2346.113
2345.223
2332.377
2305.938
2273.777
2242.787
2215.776
2192.448
2171.32
2151.499
2132.845
2115.447
2099.424
2085.493
2074.442
2068.212
2070.183
2082.382
2107.966
2147.27
2198.967
2257.898
2296.982
2299.275
2265.168
2196.328
2103.19
2032.189
2013.9
2022.219
2036.441
2048.825
2057.785
2065.178
2072.551
2080.006
2087.226
2093.962
2099.986
2105.36
2110.34
2115.159
2119.958
2124.787
2129.632
2134.469
2139.325
2144.149
2148.849
2153.52
2158.344
2163.47
2168.98
2174.902
2181.266
2188.086
2195.266
2202.751
2210.633
2219.031
2228.044
2237.738
2248.158
2259.314
2271.191
2283.761
2297.038
2311.09
2326.063
2342.203
2359.757
2378.968
2400.13
2423.641
2450.039
2479.479
2511.703
2545.548
2579.638
2614.897
2652.297
2692.278
2734.691
2779.741
2827.41
2877.545
2930.073
2984.988
3042.389
3102.374
3165.037
3230.451
3298.71
3369.883
3443.959
3520.789
3600.04
3681.211
3763.703
3846.906
3930.222
4013.111
4095.097
4175.744
4254.614
4331.259
4405.22
4476.045
4543.348
4606.812
4666.245
4721.624
4773.016
4820.538
4864.386
4905.075
4943.282
4980.179
5016.256
5051.993
5086.825
5120.312
5152.443
5182.481
5211.574
5241.187
5320.915
5346.654
5362.919
5378.558
5392.439
5403.093
5410.673
5415.175
5416.468
5414.569
5409.576
5401.631
5390.982
5378.341
5364.5
5350.367
5336.951
5319.799
5302.589
5285.097
5270.741
5261.469
5255.462
5252.723
5249.85
5246.899
5244.783
5244.872
5248.699
5257.594
5272.044
5291.934
5316.639
5344.648
5371.715
5400.311
5412.264
5422.739
5464.564
5508.363
5546.857
5581.05
5612.917
5643.581
5671.129
5695.388
5716.422
5734.594
5750.528
5765.086
5779.581
5795.323
5813.025
5833.225
5855.467
5878.875
5902.378
5925.995
5949.298
5972.066
5994.081
6015.246
6035.562
6055.053
6073.76
6091.682
6108.844
6125.217
6140.886
6159.854
6104.378
6117.254
6130.768
6140.382
6146.649
6150.949
6153.952
6155.667
6155.865
6154.426
6151.407
6146.985
6141.422
6135.026
6128.1
6120.957
6113.958
6107.415
6101.597
6096.7
6092.863
6090.116
6088.491
6087.877
6088.294
6089.666
6091.905
6094.93
6098.663
6103.034
6107.981
6113.441
6119.359
6125.674
6132.355
6139.302
6146.543
6154.371
6161.867
6169.798
6177.968
6186.349
6194.843
6203.4
6211.809
6219.847
6227.306
6234.226
6240.938
6247.642
6254.291
6260.764
6266.884
6272.644
6278.266
6282.602
6285.927
6288.96
6291.866
6294.443
6296.449
6297.729
6298.263
6298.142
6297.459
6296.284
6294.685
6292.751
6290.595
6288.359
6286.104
6283.821
6282.017
6280.499
6279.489
6279.103
6279.254
6279.859
6280.84
6282.094
6283.525
6285
6286.43
6287.779
6289.214
6290.746
6292.351
6293.962
6295.522
6297.02
6298.488
6300.021
6301.629
6303.321
6305.118
6307.041
6309.093
6311.264
6313.533
6315.867
6318.227
6320.574
6322.869
6325.077
6327.163
6329.087
6330.811
6332.297
6333.507
6334.413
6334.994
6335.24
6335.15
6334.734
6334.012
6333.007
6331.747
6330.259
6328.567
6326.699
6324.676
6322.496
6320.152
6317.637
6314.925
6312.03
6308.936
6305.595
6301.983
6298.041
6293.741
6289.01
6283.867
6278.313
6272.882
6268.497
6267.101
6268.828
6274.545
2878.124
2946.848
3038.197
3148.817
3276.768
3420.93
3580.548
3755.175
3942.94
4138.769
4328.255
4541.586
4758.542
4978.864
5200.038
5416.535
5626.666
5824.58
6006.726
6156.834
6296.7
6411.502
6499.612
6558.962
6588.024
6586.256
6553.955
6492.699
6407.767
6295.048
6162.165
6010.671
5845.879
5671.245
5490.058
5305.267
5119.883
4936.868
4744.645
4567.622
4394.474
4227.437
4068.327
3916.673
3773.409
3639.219
3515.003
3399.198
3287.585
3187.311
3094.583
3007.868
2928.238
2855.099
2788.786
2737.783
2582.502
2531.814
2492.382
2454.317
2416.835
2381.481
2348.955
2319.061
2291.437
2265.146
2240.416
2219.478
2200.492
2182.442
2165.81
2150.838
2137.017
2123.712
2110.29
2096.279
2083.323
2071.251
2059.853
2049.783
2041.148
2033.31
2025.456
2016.88
2007.336
1998.114
1989.302
1980.418
1972.466
1966.271
1961.291
1956.816
1951.851
1946.352
1940.077
1935.968
1932.864
1928.718
1924.848
1922.943
1923.365
1925.464
1928.202
1931.364
1934.991
1938.651
1943.11
1949.698
1959.721
1974.107
1993.942
2018.938
2043.676
2066.537
2076.707
2068.861
2058.329
2052.676
2043.612
2025.844
2001.42
1976.13
1953.731
1934.089
1915.881
1898.426
1881.819
1866.862
1853.592
1843.317
1836.939
1835.033
1838.773
1849.986
1871.406
1898.185
1929.819
1964.556
1987.683
1988.344
1966.11
1926.029
1871.152
1819.073
1794.051
1794.232
1803.443
1812.463
1818.831
1824.393
1830.621
1837.433
1844.354
1850.99
1856.708
1861.67
1866.247
1870.724
1875.266
1879.921
1884.661
1889.408
1894.26
1899.089
1903.579
1907.932
1912.452
1917.348
1922.713
1928.532
1934.817
1941.674
1948.907
1956.36
1964.18
1972.533
1981.518
1991.187
2001.567
2012.663
2024.428
2036.799
2049.786
2063.44
2077.945
2093.666
2110.968
2130.158
2151.557
2175.418
2201.753
2230.416
2261.277
2294.333
2328.813
2364.23
2401.226
2440.65
2482.774
2527.531
2574.798
2624.377
2676.161
2730.175
2786.568
2845.605
2907.54
2972.585
3040.975
3112.875
3188.313
3267.116
3348.842
3432.837
3518.341
3604.582
3690.819
3776.4
3860.746
3943.34
4023.684
4101.298
4175.713
4246.501
4313.306
4375.895
4434.154
4488.136
4537.99
4584.008
4626.6
4666.369
4704.144
4740.78
4776.803
4812.388
4847.314
4881.299
4914.312
4945.924
4976.196
5004.261
5028.744
5052.476
5074.431
5091.671
5103.728
5112.509
5117.858
5119.46
5117.386
5111.635
5102.382
5090.026
5075.045
5058.188
5040.347
5022.345
5004.845
4987.95
4972.411
4958.44
4947.861
4939.736
4933.543
4928.858
4925.059
4922.224
4921.059
4922.706
4928.386
4938.784
4954.49
4975.113
4999.901
5027.503
5056.102
5081.075
5107.723
5134.783
5168.791
5207.46
5244.611
5279.53
5312.563
5343.323
5371.043
5395.488
5417.619
5437.665
5455.685
5472.399
5488.97
5506.351
5525.049
5545.178
5566.336
5589.05
5611.36
5633.534
5655.082
5676.149
5696.886
5717.109
5736.577
5755.266
5773.217
5790.425
5806.855
5822.447
5837.076
5850.368
5861.068
5871.794
5882.006
5890.166
5896.149
5900.393
5903.204
5904.569
5904.351
5902.492
5899.069
5894.276
5888.385
5881.735
5874.666
5867.506
5860.59
5854.251
5848.747
5844.268
5840.909
5838.669
5837.553
5837.536
5838.567
5840.559
5843.422
5847.076
5851.441
5856.447
5862.024
5868.095
5874.58
5881.412
5888.537
5895.903
5903.484
5911.285
5919.129
5927.152
5935.31
5943.452
5951.595
5959.691
5967.669
5975.419
5982.804
5989.772
5996.446
6002.964
6009.37
6015.566
6021.513
6027.014
6031.755
6035.907
6039.813
6043.269
6046.09
6048.241
6049.716
6050.49
6050.562
6049.992
6048.845
6047.198
6045.141
6042.786
6040.255
6037.675
6035.145
6032.713
6030.575
6028.798
6027.578
6026.987
6027.019
6027.642
6028.805
6030.431
6032.412
6034.632
6037.075
6039.527
6041.935
6044.32
6046.734
6049.076
6051.253
6053.253
6055.092
6056.79
6058.42
6060.076
6061.797
6063.611
6065.536
6067.576
6069.719
6071.942
6074.211
6076.493
6078.748
6080.939
6083.029
6084.978
6086.741
6088.279
6089.557
6090.542
6091.21
6091.544
6091.54
6091.201
6090.543
6089.587
6088.36
6086.893
6085.215
6083.35
6081.314
6079.118
6076.763
6074.253
6071.594
6068.778
6065.776
6062.566
6059.121
6055.424
6051.439
6047.214
6042.797
6038.404
6034.303
6031.001
6028.723
6028.295
6029.266
2592.137
2565.228
2540.457
2503.59
2483.341
2444.219
2450.577
2474.844
2514.049
2534.503
2538.808
2562.259
2608.853
2675.459
2761.927
2865.857
2986.349
3122.968
3273.673
3438.192
3616.066
3804.993
4002.445
4207.353
4417.654
4630.927
4844.513
5055.74
5260.776
5455.255
5636.072
5778.64
5918.64
6030.667
6113.635
6166.965
6189.723
6181.706
6143.843
6077.961
5986.545
5871.377
5734.918
5581.101
5414.224
5238.321
5056.912
4872.932
4688.756
4506.149
4326.582
4151.673
3982.016
3819.003
3663.477
3516.41
3378.263
3249.126
3129.185
3018.034
2914.831
2819.05
2730.428
2648.427
2572.574
2502.46
2437.744
2377.777
2319.753
2271.009
2231.008
2193.281
2156.593
2122.279
2090.802
2061.756
2034.437
2008.917
1985.837
1964.823
1945.655
1928.69
1913.785
1900.244
1887.215
1873.98
1860.397
1847.141
1834.065
1820.966
1809.311
1800.187
1792.702
1785.658
1778.164
1769.791
1760.547
1750.492
1740.658
1731.397
1723.141
1717.578
1713.354
1709.32
1704.896
1699.996
1694.261
1688.03
1681.998
1676.662
1672.78
1671.9
1673.43
1676.304
1679.481
1682.309
1684.463
1686.404
1689.314
1694.332
1702.54
1715.165
1731.558
1749.241
1766.09
1781.465
1789.061
1785.369
1776.295
1767.594
1757.701
1745.33
1728.204
1708.801
1691.253
1675.206
1659.705
1644.48
1629.814
1616.304
1605.89
1598.813
1595.194
1596.019
1600.936
1609.761
1625.565
1644.776
1664.442
1683.67
1696.413
1696.848
1683.509
1658.028
1624.069
1591.09
1570.925
1565.183
1568.521
1574.146
1578.365
1582.901
1588.47
1594.533
1600.996
1608.063
1613.56
1617.929
1622.021
1626.163
1630.471
1634.912
1639.416
1643.804
1648.737
1653.936
1658.095
1661.932
1666.017
1670.562
1675.653
1681.245
1687.371
1694.419
1701.709
1708.905
1716.525
1724.778
1733.716
1743.352
1753.699
1764.767
1776.441
1788.518
1801.031
1814.014
1827.669
1842.596
1859.283
1878.064
1899.235
1923.015
1949.392
1978.096
2008.756
2041.118
2074.697
2109.305
2145.622
2184.566
2226.461
2271.081
2318.057
2367.033
2417.845
2470.54
2525.34
2582.746
2643.234
2707.227
2775.267
2847.677
2924.516
3005.593
3090.351
3177.952
3267.436
3357.822
3448.172
3537.646
3625.505
3711.111
3793.897
3873.342
3948.957
4020.321
4087.103
4149.103
4206.259
4258.713
4306.766
4350.919
4391.802
4430.204
4466.944
4502.769
4538.136
4573.299
4608.206
4642.748
4676.655
4709.69
4741.25
4771.116
4799.173
4824.452
4846.107
4863.837
4876.84
4885.286
4889.047
4888.335
4883.296
4873.82
4860.078
4842.822
4822.88
4801.293
4779.298
4758.225
4739.15
4722.461
4708.213
4696.45
4687.4
4680.277
4674.18
4668.561
4663.468
4659.439
4657.333
4658.267
4663.369
4673.3
4688.6
4709.456
4734.903
4763.683
4795.285
4826.332
4855.487
4886.203
4922.633
4961.603
4998.786
5033.526
5066.369
5097.436
5126.496
5153.399
5178.104
5200.438
5220.934
5240.306
5258.904
5277.24
5295.874
5315.145
5335.256
5356.68
5378.529
5400.12
5421.096
5441.297
5460.772
5479.641
5498.014
5515.734
5532.83
5549.255
5564.895
5579.695
5593.373
5605.99
5617.244
5627.242
5636.259
5643.996
5650.039
5654.263
5656.732
5657.478
5656.492
5653.844
5649.627
5644.041
5637.387
5630.015
5622.267
5614.518
5607.172
5600.637
5595.139
5590.814
5587.719
5585.868
5585.242
5585.767
5587.337
5589.872
5593.284
5597.495
5602.445
5608.077
5614.332
5621.13
5628.38
5635.988
5643.837
5651.853
5660.008
5668.263
5676.49
5684.708
5692.903
5701.024
5709.075
5716.966
5724.712
5732.226
5739.492
5746.443
5753.108
5759.562
5765.835
5771.873
5777.587
5782.825
5787.514
5791.753
5795.54
5798.708
5801.135
5802.83
5803.844
5804.173
5803.802
5802.771
5801.118
5798.926
5796.309
5793.448
5790.47
5787.433
5784.412
5781.513
5778.9
5776.707
5775.12
5774.168
5773.895
5774.302
5775.366
5777.033
5779.203
5781.721
5784.55
5787.632
5790.922
5794.347
5797.93
5801.415
5804.584
5807.431
5809.979
5812.259
5814.341
5816.299
5818.194
5820.084
5822.004
5823.978
5826.015
5828.108
5830.241
5832.389
5834.523
5836.612
5838.62
5840.51
5842.243
5843.78
5845.086
5846.127
5846.873
5847.306
5847.415
5847.198
5846.661
5845.822
5844.704
5843.332
5841.736
5839.941
5837.971
5835.844
5833.572
5831.162
5828.613
5825.918
5823.065
5820.044
5816.835
5813.451
5809.907
5806.246
5802.539
5798.855
5795.439
5792.521
5790.232
5788.733
5787.079
2853.914
2821.901
2790.235
2733.833
2684.995
2602.39
2553.787
2505.497
2458.307
2412.536
2368.316
2327.632
2289.46
2255.825
2228.09
2206.024
2131.041
2129.436
2137.246
2150.709
2166.463
2190.085
2227.764
2282.03
2352.7
2440.326
2545.888
2668.116
2806.213
2959.081
3125.366
3303.637
3492.721
3690.88
3896.027
4106.099
4318.648
4530.685
4739.384
4941.903
5135.48
5311.138
5461.836
5599.346
5710.81
5792.996
5845.12
5866.569
5857.379
5818.452
5751.392
5658.416
5541.948
5404.71
5250.33
5083.051
4907.19
4726.457
4543.915
4362.132
4182.586
4005.994
3833.651
3666.508
3505.502
3351.796
3206.173
3069.436
2942.672
2826.1
2719.025
2620.229
2528.83
2444.173
2365.586
2292.371
2224.311
2160.864
2102.67
2050.202
2004.239
1964.45
1928.383
1894.622
1863.039
1833.435
1805.406
1778.652
1753.453
1730.268
1709.435
1691.301
1676.086
1663.203
1651.285
1639.079
1625.993
1612.15
1598.033
1584.049
1571.112
1559.84
1552.128
1546.102
1539.926
1532.776
1524.258
1514.301
1503.113
1491.143
1481.683
1474.671
1469.337
1466.229
1463.149
1459.309
1454.149
1447.302
1439.282
1430.954
1424.803
1421.751
1421.267
1423.764
1427.491
1430.774
1432.628
1433.067
1432.978
1433.551
1435.753
1440.582
1451.019
1466.484
1479.221
1491.118
1501.782
1506.261
1503.259
1494.809
1484.126
1473.704
1466.746
1454.876
1440.545
1427.928
1415.498
1402.504
1389.205
1375.936
1363.512
1355.217
1351.059
1349.835
1351.921
1357.333
1365.117
1375.401
1387.937
1399.359
1409.46
1416.37
1417.202
1410.147
1394.699
1373.754
1353.989
1339.974
1331.445
1330.72
1333.442
1336.221
1340.502
1346.093
1352.342
1358.488
1365.355
1370.747
1374.327
1377.714
1381.461
1385.633
1390.003
1394.461
1398.649
1403.203
1408.594
1412.399
1415.393
1418.911
1423.146
1428.023
1433.151
1438.69
1445.872
1453.712
1460.361
1467.551
1475.698
1484.678
1494.349
1504.68
1515.748
1527.424
1539.194
1551.105
1562.987
1575.133
1588.768
1604.446
1622.461
1643.161
1666.906
1693.703
1722.872
1753.534
1785.261
1817.714
1850.961
1886.106
1924.423
1966.154
2010.737
2057.577
2106.106
2155.955
2206.973
2259.322
2314.052
2372.124
2434.139
2501.166
2573.835
2652.268
2736.206
2824.867
2917.152
3011.849
3107.704
3203.509
3298.18
3390.786
3480.56
3566.854
3649.084
3726.702
3799.241
3866.358
3927.865
3983.766
4034.32
4080.024
4121.618
4159.994
4196.139
4230.999
4265.375
4299.782
4334.521
4369.598
4404.878
4440.079
4474.883
4508.768
4541.375
4571.906
4599.197
4622.829
4642.231
4656.285
4664.611
4667.158
4664.028
4655.36
4641.455
4622.563
4599.237
4572.76
4544.883
4517.659
4492.779
4471.644
4455.202
4443.085
4434.143
4427.761
4422.635
4416.86
4409.802
4402.132
4394.997
4389.751
4388.026
4391.046
4399.538
4414.047
4434.627
4460.984
4492.476
4527.261
4562.514
4597.922
4635.071
4674.279
4713.526
4750.918
4786.21
4819.755
4851.513
4881.327
4909.097
4934.95
4959.126
4981.938
5003.609
5024.44
5044.877
5065.294
5085.893
5106.716
5127.872
5149.026
5169.747
5189.814
5209.186
5227.87
5245.978
5263.575
5280.195
5296.406
5312.013
5326.861
5340.865
5353.889
5365.92
5376.764
5386.32
5394.666
5401.683
5407.055
5410.581
5412.224
5412
5409.933
5406.147
5400.764
5393.973
5386.142
5377.796
5369.21
5360.769
5352.898
5345.98
5340.317
5336.103
5333.343
5331.955
5331.862
5332.956
5335.133
5338.288
5342.313
5347.127
5352.706
5359.027
5366.033
5373.633
5381.701
5390.144
5398.785
5407.507
5416.283
5425.096
5433.769
5442.311
5450.704
5458.934
5467.009
5474.886
5482.527
5489.965
5497.119
5504.036
5510.697
5517.12
5523.308
5529.215
5534.76
5539.86
5544.47
5548.548
5552.026
5554.824
5556.9
5558.242
5558.853
5558.751
5557.887
5556.321
5554.14
5551.299
5547.944
5544.42
5540.91
5537.406
5533.879
5530.432
5527.242
5524.498
5522.339
5520.904
5520.232
5520.331
5521.199
5522.826
5525.182
5528.177
5531.696
5535.636
5539.868
5544.098
5548.342
5552.593
5556.694
5560.512
5564.078
5567.281
5570.091
5572.599
5574.877
5576.998
5579.012
5580.979
5582.932
5584.887
5586.848
5588.811
5590.758
5592.664
5594.502
5596.24
5597.846
5599.286
5600.529
5601.544
5602.305
5602.792
5602.992
5602.897
5602.504
5601.825
5600.873
5599.67
5598.237
5596.601
5594.784
5592.807
5590.682
5588.424
5586.037
5583.528
5580.888
5578.12
5575.217
5572.202
5569.076
5565.89
5562.652
5559.62
5556.703
5554.141
5551.837
5549.811
5546.742
3058.527
3018.552
2974.775
2919.494
2878.571
2801.453
2760.835
2720.09
2678.852
2636.616
2594.116
2551.327
2506.34
2460.883
2412.718
2296.592
2248.037
2200.089
2152.805
2106.584
2061.975
2019.699
1980.259
1944.733
1913.634
1888.159
1869.328
1859.462
1857.817
1863.719
1877.705
1902.511
1940.38
1993.447
2063.686
2150.852
2254.755
2375.129
2511.272
2662.127
2826.394
3002.569
3189.338
3384.822
3586.881
3792.795
4000.06
4208.619
4412.578
4611.361
4802.409
4979.516
5135.275
5268.946
5375.822
5453.139
5499.806
5515.745
5501.586
5458.504
5388.073
5292.278
5173.504
5034.554
4879.115
4711.352
4535.746
4356.422
4176.279
3998.127
3823.586
3652.959
3486.824
3325.838
3169.914
3019.678
2876.766
2743.019
2620.214
2508.548
2407.058
2314.186
2228.643
2149.293
2075.191
2005.634
1940.451
1879.668
1824.12
1774.555
1731.348
1694.004
1660.884
1630.488
1601.884
1574.276
1547.224
1520.679
1495.186
1471.869
1452.199
1435.671
1422.175
1411.781
1402.068
1390.937
1377.982
1363.489
1348.161
1332.453
1319.044
1310.25
1304.391
1299.934
1294.682
1287.81
1278.936
1267.952
1255.218
1241.502
1231.015
1224.949
1221.085
1219.215
1217.239
1213.91
1208.301
1200.034
1189.88
1179.453
1171.856
1168.594
1168.68
1172.653
1177.935
1181.638
1182.444
1180.749
1177.914
1175.287
1173.985
1175.562
1183.355
1199.245
1210.55
1219.001
1226.129
1227.694
1223.442
1213.973
1201.494
1190.494
1186.674
1183.045
1172.595
1163.265
1154.711
1144.402
1132.975
1120.601
1108.658
1100.998
1099.451
1101.098
1104.625
1110.021
1117.227
1123.824
1130.483
1135.244
1138.983
1142.107
1143.716
1142.542
1133.616
1121.376
1110.685
1101.166
1092.827
1089.601
1090.228
1092.627
1097.397
1103.025
1109.914
1116.666
1122.746
1127.949
1130.849
1133.348
1136.657
1140.772
1144.899
1148.994
1153.907
1158.284
1162.702
1165.977
1168.101
1170.959
1174.943
1179.873
1185.117
1190.496
1196.767
1204.301
1210.517
1217.104
1225.206
1234.46
1244.418
1254.957
1266.22
1278.007
1288.96
1300.251
1311.053
1320.563
1332.078
1346.234
1363.151
1383.278
1407.263
1435.142
1465.35
1496.1
1527.123
1558.177
1589.383
1622.769
1660.409
1702.287
1747.165
1794.094
1842.112
1890.809
1939.962
1989.124
2039.971
2094.146
2152.623
2217.786
2290.375
2370.563
2458.081
2551.695
2649.876
2751.139
2853.906
2956.631
3057.924
3156.622
3251.821
3342.786
3428.83
3509.285
3583.594
3651.379
3712.448
3766.868
3815.031
3857.652
3895.753
3930.575
3963.476
3995.702
4028.153
4061.364
4095.625
4130.958
4167.216
4204.109
4241.191
4277.915
4313.567
4347.203
4377.787
4404.463
4426.143
4441.657
4450.426
4452.22
4446.89
4434.369
4414.981
4389.344
4358.156
4323.048
4286.449
4251.369
4221.441
4198.624
4182.676
4172.996
4168.21
4167.175
4166.357
4161.559
4152.506
4141.225
4129.544
4119.078
4112.283
4111.485
4117.78
4131.693
4152.939
4180.828
4214.901
4253.8
4295.302
4337.814
4380.581
4423.142
4464.516
4503.539
4539.817
4573.706
4605.598
4635.7
4664.2
4691.341
4717.299
4742.215
4766.268
4789.692
4812.636
4835.032
4857.006
4878.66
4900.075
4921.097
4941.506
4961.178
4980.087
4998.252
5015.681
5032.271
5048.522
5063.949
5078.66
5092.651
5105.818
5118.07
5129.323
5139.436
5148.283
5155.799
5161.875
5166.27
5168.805
5169.348
5167.826
5164.378
5159.195
5152.399
5144.256
5135.219
5125.627
5115.86
5106.421
5097.792
5090.413
5084.602
5080.52
5078.112
5077.201
5077.631
5079.326
5082.172
5086.024
5090.695
5096.116
5102.334
5109.366
5117.171
5125.657
5134.67
5143.993
5153.475
5163.063
5172.624
5181.983
5191.096
5199.998
5208.644
5217.026
5225.161
5233.06
5240.74
5248.238
5255.34
5262.248
5268.922
5275.347
5281.503
5287.344
5292.8
5297.801
5302.279
5306.162
5309.393
5311.931
5313.735
5314.753
5314.94
5314.329
5312.893
5310.711
5308.015
5304.391
5300.115
5295.926
5291.977
5287.922
5283.691
5279.513
5275.627
5272.227
5269.503
5267.621
5266.598
5266.409
5267.06
5268.559
5270.875
5273.972
5277.893
5282.482
5287.632
5293.112
5298.58
5303.849
5308.948
5313.691
5318.039
5322.019
5325.594
5328.747
5331.556
5334.096
5336.341
5338.394
5340.326
5342.178
5343.979
5345.74
5347.459
5349.127
5350.73
5352.245
5353.649
5354.915
5356.018
5356.934
5357.641
5358.123
5358.371
5358.367
5358.106
5357.594
5356.839
5355.85
5354.644
5353.238
5351.649
5349.897
5347.996
5345.967
5343.822
5341.571
5339.211
5336.756
5334.203
5331.578
5328.878
5326.164
5323.437
5320.854
5318.348
5316.103
5313.808
5311.517
5307.789
3059.72
3009.492
2958.801
2896.497
2835.043
2780.19
2730.035
2684.018
2641.493
2599.043
2490.988
2450.971
2411.083
2370.586
2329.164
2286.786
2243.295
2198.35
2152.098
2105.335
2058.947
2011.045
1963.087
1915.371
1868.304
1822.282
1777.477
1734.161
1693.64
1657.067
1625.662
1601.434
1585.047
1577.526
1579.837
1592.554
1617.467
1655.949
1709.432
1778.924
1864.825
1967.175
2085.753
2219.881
2368.554
2530.576
2704.314
2888.386
3080.133
3277.157
3477.731
3680.421
3884.123
4085.552
4280.897
4466.372
4636.879
4786.606
4911.774
5009.606
5077.729
5115.056
5122.032
5099.99
5050.613
4975.582
4876.563
4755.738
4615.538
4459.583
4292.292
4117.675
3940.555
3764.295
3591.486
3424.172
3262.19
3104.694
2951.708
2802.673
2658.015
2520.64
2392.944
2276.445
2171.828
2077.957
1992.662
1914.583
1842.26
1774.29
1709.715
1648.371
1590.625
1537.331
1489.916
1450.071
1417.108
1388.669
1362.597
1337.578
1312.254
1286.212
1259.582
1233.438
1209.327
1188.878
1175.834
1166.543
1159.153
1152.761
1142.936
1129.769
1114.147
1097.075
1079.374
1064.564
1057.97
1055.794
1054.047
1050.131
1043.566
1034.269
1022.06
1007.228
991.0705
977.5791
971.3125
971.3258
972.4702
972.2039
969.6051
963.4827
953.2841
940.1537
926.6083
916.2405
911.3491
912.8641
920.4325
929.205
933.9426
933.1674
928.2423
921.5836
914.8843
908.8043
906.0755
912.893
930.0531
943.3972
950.5497
953.7092
951.8051
945.5116
934.1201
918.3314
906.1485
906.1353
910.2811
905.8016
900.1422
893.8457
886.115
876.6043
864.2303
850.2255
842.0033
844.9009
850.1405
855.0404
860.4345
865.979
871.9306
874.0558
872.4393
870.0715
871.3519
875.596
878.3039
874.9978
869.6912
865.4133
860.4186
853.1118
846.5624
844.2154
847.0576
853.4489
859.9739
867.1287
874.3986
881.7023
886.2501
887.3008
888.3839
891.4644
896.1118
900.1429
903.7164
908.5574
913.2516
917.9933
919.8593
920.4501
922.4794
926.2886
931.1004
936.4878
942.4548
947.3291
953.6907
959.3518
965.4906
973.7919
983.5361
993.7855
1004.577
1016.566
1029.615
1041.193
1050.244
1057.587
1064.215
1073.102
1085.083
1100.15
1119.15
1143.664
1174.038
1206.747
1238.068
1268.504
1297.312
1324.431
1354.637
1392.006
1435.222
1481.275
1529.444
1577.614
1624.74
1670.945
1714.413
1759.702
1809.351
1861.647
1923.678
1996.024
2078.328
2170.343
2270.195
2375.748
2485.13
2596.392
2707.666
2817.167
2923.408
3025.367
3122.268
3213.313
3297.619
3374.409
3443.225
3503.836
3556.342
3601.321
3639.8
3673.212
3703.243
3731.784
3760.514
3790.435
3822.085
3855.739
3891.393
3928.844
3967.813
4007.848
4048.199
4087.868
4125.757
4160.604
4191.049
4215.69
4233.217
4242.675
4243.653
4235.975
4219.595
4194.71
4161.462
4120.293
4073.414
4025.166
3979.896
3942.716
3917.502
3903.929
3899.284
3899.104
3905.844
3911.595
3909.99
3898.841
3883.006
3865.228
3847.411
3833.76
3827.505
3829.612
3840.875
3861.721
3891.865
3930.345
3975.438
4024.23
4073.894
4122.852
4170.381
4215.498
4257.07
4294.71
4329.064
4361.144
4391.677
4421.05
4449.494
4477.125
4503.995
4530.107
4555.469
4580.193
4604.292
4627.732
4650.486
4672.617
4694.044
4714.607
4734.293
4753.103
4771.038
4788.118
4804.382
4819.941
4834.662
4848.661
4861.75
4874.037
4885.452
4895.867
4905.156
4913.169
4919.745
4924.749
4928.034
4929.503
4928.862
4925.989
4920.943
4914.113
4905.479
4895.494
4885.053
4874.17
4862.951
4851.981
4842.064
4833.892
4827.809
4823.888
4821.925
4821.57
4822.581
4824.942
4828.504
4833.17
4838.596
4844.657
4851.484
4859.192
4867.804
4877.231
4887.241
4897.501
4907.884
4918.363
4928.731
4938.76
4948.473
4957.797
4966.713
4975.254
4983.469
4991.393
4999.041
5006.396
5013.684
5020.676
5027.425
5033.925
5040.14
5046.014
5051.469
5056.424
5060.802
5064.533
5067.57
5069.879
5071.413
5072.134
5072.02
5071.029
5069.016
5066.151
5062.776
5058.362
5052.867
5048.154
5043.779
5039.04
5033.989
5028.98
5024.297
5020.122
5016.713
5014.374
5013.08
5012.684
5013.169
5014.592
5016.933
5020.162
5024.354
5029.433
5035.122
5041.194
5047.524
5053.889
5060.194
5066.331
5071.956
5076.916
5081.346
5085.217
5088.514
5091.372
5093.864
5096.044
5097.98
5099.747
5101.406
5102.996
5104.509
5105.934
5107.282
5108.543
5109.703
5110.748
5111.66
5112.422
5113.018
5113.437
5113.681
5113.725
5113.562
5113.2
5112.64
5111.884
5110.937
5109.809
5108.512
5107.058
5105.459
5103.734
5101.905
5099.983
5097.969
5095.883
5093.724
5091.523
5089.271
5087.026
5084.767
5082.609
5080.463
5078.474
5076.331
5073.998
5070.061
2797.502
2731.155
2597.507
2544.787
2493.882
2446.911
2403.269
2362.156
2322.692
2284.445
2247.264
2209.226
2170.589
2130.968
2090.337
2048.393
2005.024
1960.105
1913.529
1865.798
1818.354
1770.41
1722.116
1673.739
1624.883
1575.539
1526.8
1479.534
1434.792
1394.467
1360.227
1333.055
1313.945
1303.892
1304.078
1315.531
1339.596
1377.511
1430.28
1498.66
1583.114
1683.767
1800.443
1932.436
2078.757
2238.317
2408.686
2587.526
2772.736
2963.421
3158.954
3357.687
3556.716
3752.521
3940.974
4117.767
4278.169
4417.109
4530.374
4615.341
4670.331
4694.868
4690.086
4658.029
4600.906
4520.813
4419.049
4297.237
4157.688
4002.987
3837.852
3666.062
3491.327
3319.124
3153.662
2995.973
2844.412
2696.859
2552.666
2412.073
2275.93
2146.212
2025.105
1915.065
1818.647
1734.438
1658.348
1589.329
1525.458
1464.972
1406.445
1349.548
1294.653
1242.895
1197.615
1162.981
1135.214
1111.432