/*--------------------------------*- C++ -*----------------------------------*\
| =========                 |                                                 |
| \\      /  F ield         | foam-extend: Open Source CFD                    |
|  \\    /   O peration     | Version:     3.1                                |
|   \\  /    A nd           | Web:         http://www.extend-project.de       |
|    \\/     M anipulation  |                                                 |
\*---------------------------------------------------------------------------*/
FoamFile
{
    version     2.0;
    format      ascii;
    class       surfaceScalarField;
    location    "18.5";
    object      phi;
}
// * * * * * * * * * * * * * * * * * * * * * * * * * * * * * * * * * * * * * //

dimensions      [0 3 -1 0 0 0 0];

internalField   nonuniform List<scalar> 
275122
(
-0.0004100068
0.0004157786
-4.156189e-07
-5.356155e-06
-0.0003672024
0.0003500589
1.4083e-06
1.573523e-05
-0.0003644212
0.0003738413
-3.956668e-07
-9.024414e-06
-0.0004055136
0.0004164425
-4.816991e-07
-1.044727e-05
-0.000443716
0.0004469531
-5.61446e-07
-2.675669e-06
-0.0004469848
0.0004463015
-4.952306e-07
1.178491e-06
-0.0004424223
0.0004409256
-4.617119e-07
1.958418e-06
-0.0004358376
0.0004339787
-4.358551e-07
2.294818e-06
-0.0004280899
0.0004260502
-4.140095e-07
2.453727e-06
-0.0004197866
0.0004176541
-3.917457e-07
2.524256e-06
-0.000411143
0.0004089347
-3.679392e-07
2.576234e-06
-0.0004022133
0.0003999428
-3.432474e-07
2.613674e-06
-0.0003930576
0.0003907397
-3.176978e-07
2.635594e-06
-0.0003837284
0.0003813915
-3.129477e-07
2.649812e-06
-0.0003743405
0.000371986
-3.009542e-07
2.6554e-06
-0.0003648945
0.0003625426
-2.769793e-07
2.628906e-06
-0.0003554966
0.0003531629
-2.504242e-07
2.584104e-06
-0.0003462022
0.0003439512
-2.173628e-07
2.468395e-06
-0.0003376636
0.0003358665
-2.6631e-07
2.063404e-06
-0.0003321695
0.0003325937
-6.72516e-07
2.482638e-07
-0.0003688926
0.000383429
-1.340903e-06
-1.319557e-05
-0.000387473
0.0003873248
-2.947871e-07
4.430626e-07
-0.000391104
0.0003932813
-1.683747e-07
-2.00891e-06
-0.0004361298
0.0004519163
3.348462e-07
-1.612141e-05
-0.0004543188
0.0004535723
6.484074e-07
9.80582e-08
-0.000456047
0.0004568147
-3.041551e-07
-4.635703e-07
-0.0004568763
0.0004558706
-2.715512e-07
1.277214e-06
-0.0004512863
0.0004473681
-2.316633e-07
4.149814e-06
-0.0004213199
0.000393789
-3.079449e-07
2.783888e-05
-0.0001809181
0.0001858155
3.823795e-09
-4.901238e-06
-0.0002687222
0.0002824869
-7.134891e-08
-1.369328e-05
-0.0003217149
0.0003347329
7.984164e-09
-1.3026e-05
-0.0003744926
0.0003879585
8.879652e-09
-1.347475e-05
-0.000428739
0.0004425072
9.750933e-09
-1.377794e-05
-0.0004845552
0.000498763
8.154139e-09
-1.421598e-05
-0.0005420492
0.0005565968
1.369208e-08
-1.456129e-05
-0.0006008748
0.0006157538
1.973831e-08
-1.489873e-05
-0.0006607485
0.00067587
1.642825e-08
-1.513794e-05
-0.0007212996
0.000736513
6.277705e-09
-1.521967e-05
-0.0007815733
0.0007979993
2.364559e-07
-1.66624e-05
1.313794e-05
-0.0005420423
0.0005442035
1.271214e-09
-1.530037e-05
1.343446e-05
-0.0005506346
0.000552607
-5.671427e-11
-1.540674e-05
1.368068e-05
-0.0005581749
0.0005599586
-1.548306e-09
-1.546284e-05
1.403446e-05
-0.0005649438
0.0005664886
-1.639844e-09
-1.557761e-05
1.444701e-05
-0.0005706971
0.0005719613
-1.7356e-09
-1.570945e-05
1.477305e-05
-0.0005754849
0.0005765416
-1.690405e-09
-1.5828e-05
1.501336e-05
-0.0005795548
0.0005804722
-1.568128e-09
-1.592914e-05
1.516515e-05
-0.0005830724
0.0005839263
-1.41841e-09
-1.601771e-05
1.565225e-05
-0.0005862563
0.0005860217
-8.175753e-10
-1.541688e-05
1.395461e-05
-0.00238719
0.002396573
-1.21434e-10
-6.560762e-05
1.420883e-05
1.391071e-05
1.415031e-05
1.481227e-05
-0.002403752
0.002409679
-6.113343e-11
-6.622344e-05
1.536859e-05
1.478296e-05
1.533287e-05
1.520335e-05
-0.002414473
0.002418885
2.248321e-10
-6.572734e-05
1.54843e-05
1.517147e-05
1.545624e-05
1.533525e-05
-0.002423489
0.002428015
6.647358e-11
-6.608577e-05
1.5474e-05
1.53056e-05
1.544491e-05
1.538564e-05
-0.002432419
0.002436817
9.962288e-11
-6.63205e-05
1.560319e-05
1.535722e-05
1.557663e-05
1.565731e-05
-0.00244086
0.002444816
7.010033e-11
-6.678056e-05
1.578278e-05
1.56294e-05
1.575495e-05
1.576694e-05
-0.002448767
0.002452434
2.108021e-10
-6.682572e-05
1.583803e-05
1.574059e-05
1.581325e-05
1.579324e-05
-0.002456177
0.002459732
2.189924e-10
-6.665412e-05
1.578456e-05
1.575986e-05
1.576124e-05
1.574829e-05
-0.002463819
0.002467646
6.052688e-11
-6.674441e-05
1.573851e-05
1.571765e-05
1.571302e-05
1.520293e-05
-0.002467575
0.002471704
8.979356e-11
-6.513468e-05
1.532074e-05
1.517339e-05
1.530793e-05
1.59401e-05
-0.00247604
0.002478863
4.979002e-11
-6.68309e-05
1.607381e-05
1.593158e-05
1.606251e-05
1.588949e-05
-0.002480958
0.00248273
1.918684e-11
-6.505718e-05
1.575979e-05
1.588197e-05
1.575312e-05
1.576513e-05
-0.002484579
0.002486452
-1.170671e-11
-6.471859e-05
1.566465e-05
1.575699e-05
1.56584e-05
1.575575e-05
-0.002488282
0.002489986
-2.253987e-11
-6.45867e-05
1.569233e-05
1.574681e-05
1.568812e-05
1.579359e-05
-0.00249166
0.002493328
-4.444998e-11
-6.472433e-05
1.574412e-05
1.577807e-05
1.574005e-05
1.58905e-05
-0.002494954
0.00249661
-5.536627e-11
-6.504955e-05
1.5839e-05
1.584173e-05
1.582218e-05
1.620725e-05
-0.00249828
0.002500187
-5.890307e-11
-6.630543e-05
1.617817e-05
1.598752e-05
1.602556e-05
1.759968e-05
-0.00250151
0.002500203
-6.388856e-11
-6.767567e-05
1.789534e-05
1.662169e-05
1.686535e-05
2.220368e-05
-0.00249442
0.002479918
-5.662684e-11
-6.979166e-05
2.360481e-05
1.953393e-05
1.895156e-05
2.989639e-05
-0.002460848
0.002483851
-3.738837e-11
-5.289943e-05
2.173307e-05
-0.002506268
0.002509446
-1.5218e-11
-2.491094e-05
4.253222e-05
-0.002502527
0.002499269
-2.20189e-12
-3.927437e-05
3.676468e-05
-0.002497141
0.002495493
8.987309e-12
-3.511603e-05
2.061516e-05
-0.002493202
0.002494911
1.969116e-11
-2.232412e-05
5.104985e-06
-0.002499738
0.002504829
2.960804e-11
-1.019581e-05
6.186336e-07
-0.002508883
0.002512517
4.056708e-11
-4.252055e-06
-2.11386e-06
-0.002516201
0.002519589
5.19843e-11
-1.274038e-06
-3.769207e-06
-0.002522727
0.002525567
5.843893e-11
9.28641e-07
-5.21323e-06
-0.002528225
0.002530567
5.913491e-11
2.871406e-06
-6.341539e-06
-0.002532725
0.002534579
5.3435e-11
4.487751e-06
-7.222351e-06
-0.002536273
0.002537738
3.940501e-11
5.75676e-06
-7.864596e-06
-0.002539067
0.00254025
1.239184e-11
6.681122e-06
-8.237263e-06
-0.00254133
0.002542367
-1.509016e-11
7.200531e-06
-8.353062e-06
-0.002543341
0.00254437
-2.474406e-11
7.323868e-06
-8.226949e-06
-0.002545367
0.002546509
-3.418017e-11
7.084594e-06
-7.751498e-06
-0.002547639
0.002548989
-6.01518e-11
6.400964e-06
-6.629186e-06
-0.002550322
0.002551904
-7.432048e-11
5.047431e-06
-4.126762e-06
-0.002553344
0.002554926
-7.892329e-11
2.544321e-06
1.681984e-06
-0.002556289
0.002556746
-7.37268e-11
-2.138997e-06
1.191439e-05
-0.002552017
0.002548163
-6.990466e-11
-8.060227e-06
5.468954e-06
-0.002550113
0.002552433
-4.825963e-11
-7.78877e-06
1.745978e-05
-0.002553037
0.002550864
-3.692001e-11
-1.528669e-05
4.27332e-05
-0.002535003
0.00251742
-2.174939e-11
-2.515026e-05
1.235024e-05
-0.002509061
0.002508677
-4.81468e-12
-1.196594e-05
-2.97826e-06
-0.002508943
0.002506072
8.881542e-12
5.849368e-06
-1.531434e-05
-0.002501125
0.002498217
1.588179e-11
1.822201e-05
-3.685185e-05
-0.002496391
0.002497689
1.890544e-11
3.555391e-05
-9.095563e-05
-0.002500006
0.002530162
1.855186e-11
6.080031e-05
-2.018094e-05
-0.002566446
0.002565915
1.805911e-11
6.632609e-05
-1.294328e-05
-2.002834e-05
-1.264284e-05
-6.861565e-06
-0.002556121
0.002553965
1.842168e-11
2.964745e-05
-7.255327e-06
-6.510953e-06
-6.863269e-06
-6.440212e-06
-0.002555703
0.002555401
1.904007e-11
2.483084e-05
-6.110461e-06
-6.151774e-06
-5.826847e-06
-4.760511e-06
-0.002552581
0.002549406
1.954635e-11
2.123462e-05
-4.503528e-06
-4.519647e-06
-4.275921e-06
-4.145264e-06
-0.00254664
0.002544443
1.94339e-11
1.832524e-05
-4.114395e-06
-3.947118e-06
-3.920868e-06
-3.947155e-06
-0.002542587
0.002540892
1.795388e-11
1.705366e-05
-3.903041e-06
-3.774742e-06
-3.73395e-06
-3.719081e-06
-0.002539213
0.002537633
1.61697e-11
1.605596e-05
-3.671578e-06
-3.564232e-06
-3.521352e-06
-3.560409e-06
-0.002536121
0.002534726
1.465318e-11
1.531713e-05
-3.535289e-06
-3.424246e-06
-3.402882e-06
-3.474522e-06
-0.002533375
0.002532085
1.410015e-11
1.492015e-05
-3.459546e-06
-3.354233e-06
-3.342075e-06
-3.422673e-06
-0.002530797
0.002529527
1.417134e-11
1.473027e-05
-3.412291e-06
-3.316207e-06
-3.308396e-06
-3.391854e-06
-0.002528247
0.002526964
1.447556e-11
1.465225e-05
-3.385095e-06
-3.298244e-06
-3.293964e-06
-3.373937e-06
-0.002525668
0.002524352
1.461284e-11
1.463972e-05
-3.369175e-06
-3.291922e-06
-3.28936e-06
-3.362159e-06
-0.002523018
0.00252166
1.39544e-11
1.465624e-05
-3.358258e-06
-3.290269e-06
-3.288241e-06
-3.349746e-06
-0.002520287
0.002518905
1.278894e-11
1.464851e-05
-3.345516e-06
-3.286853e-06
-3.284317e-06
-3.330253e-06
-0.00251752
0.002516153
1.132368e-11
1.457e-05
-3.325067e-06
-3.275427e-06
-3.271731e-06
-3.303082e-06
-0.002514802
0.002513488
9.368971e-12
1.442048e-05
-3.297472e-06
-3.255362e-06
-3.251016e-06
-3.273837e-06
-0.002512203
0.002510962
7.16918e-12
1.424429e-05
-3.268872e-06
-3.23228e-06
-3.228382e-06
-3.249789e-06
-0.002509751
0.002508574
4.870897e-12
1.409707e-05
-3.246366e-06
-3.213519e-06
-3.210972e-06
-3.235676e-06
-0.002507419
0.002506281
2.374367e-12
1.40153e-05
-3.234093e-06
-3.20388e-06
-3.202988e-06
-3.232234e-06
-0.002505151
0.002504019
-1.094653e-13
1.400543e-05
-3.232264e-06
-3.204214e-06
-3.204763e-06
-3.2376e-06
-0.002502885
0.002501734
-2.045616e-12
1.405454e-05
-3.23884e-06
-3.212829e-06
-3.214442e-06
-3.24945e-06
-0.002500573
0.002499385
-2.941436e-12
1.414625e-05
-3.251485e-06
-3.227625e-06
-3.229952e-06
-3.264676e-06
-0.002498182
0.002496951
-2.721512e-12
1.425516e-05
-3.2669e-06
-3.24512e-06
-3.247559e-06
-3.279214e-06
-0.002495708
0.002494444
-1.545957e-12
1.434957e-05
-3.281175e-06
-3.261709e-06
-3.264005e-06
-3.291246e-06
-0.002493175
0.002491896
5.341211e-13
1.441699e-05
-3.292983e-06
-3.275855e-06
-3.277884e-06
-3.302611e-06
0.002489331
3.05934e-12
1.447332e-05
-3.304639e-06
-3.289142e-06
-3.291407e-06
-0.002490616
-3.316801e-06
-0.002488044
0.002486745
5.480613e-12
1.454921e-05
-3.319595e-06
-3.305182e-06
-3.308307e-06
-3.337121e-06
-0.002485437
0.0024841
6.623079e-12
1.467351e-05
-3.341024e-06
-3.327132e-06
-3.331301e-06
-3.364905e-06
-0.002482743
0.002481336
6.016775e-12
1.485925e-05
-3.370036e-06
-3.356163e-06
-3.361383e-06
-3.400181e-06
-0.002479896
0.002478384
4.052783e-12
1.510967e-05
-3.406265e-06
-3.3926e-06
-3.398806e-06
-3.441052e-06
-0.002476824
0.002475175
1.389989e-12
1.541322e-05
-3.447468e-06
-3.43469e-06
-3.441256e-06
-3.482478e-06
-0.002473469
0.002471671
-1.885775e-12
1.572974e-05
-3.488254e-06
-3.47729e-06
-3.483209e-06
-3.517828e-06
-0.002469817
0.002467883
-5.551865e-12
1.60054e-05
-3.522161e-06
-3.513665e-06
-3.518109e-06
-3.543059e-06
-0.002465906
0.002463869
-9.135062e-12
1.620741e-05
-3.545783e-06
-3.539709e-06
-3.5425e-06
-3.558357e-06
-0.002461804
0.0024597
-1.194073e-11
1.633477e-05
-3.559859e-06
-3.555616e-06
-3.557152e-06
-3.566819e-06
-0.00245758
0.002455435
-1.380101e-11
1.640954e-05
-3.567765e-06
-3.564557e-06
-3.565519e-06
-3.572798e-06
-0.002453281
0.002451109
-1.49452e-11
1.646223e-05
-3.573888e-06
-3.570961e-06
-3.572061e-06
-3.580757e-06
-0.002448928
0.002446726
-1.578174e-11
1.652602e-05
-3.582634e-06
-3.579333e-06
-3.581211e-06
-3.594867e-06
-0.002444511
0.002442264
-1.615007e-11
1.663118e-05
-3.598069e-06
-3.593841e-06
-3.597032e-06
-3.61815e-06
-0.002439993
0.002437672
-1.597367e-11
1.680206e-05
-3.623036e-06
-3.617466e-06
-3.622328e-06
-3.651992e-06
-0.002435311
0.002432881
-1.568321e-11
1.705005e-05
-3.658693e-06
-3.651549e-06
-3.658192e-06
-3.695578e-06
-0.002430395
0.00242782
-1.479029e-11
1.737386e-05
-3.703949e-06
-3.695357e-06
-3.70362e-06
-3.745746e-06
-0.00242517
0.002422417
-1.386805e-11
1.775554e-05
-3.755308e-06
-3.74597e-06
-3.755577e-06
-3.797887e-06
-0.002419574
0.002416622
-1.365651e-11
1.816499e-05
-3.807973e-06
-3.798546e-06
-3.808702e-06
-3.846075e-06
-0.002413568
0.002410408
-1.328773e-11
1.856656e-05
-3.856548e-06
-3.846895e-06
-3.857229e-06
-3.884807e-06
-0.002407141
0.002403781
-1.391993e-11
1.892235e-05
-3.895275e-06
-3.885647e-06
-3.896086e-06
-3.908021e-06
-0.002400321
0.002396796
-1.253012e-11
1.91796e-05
-3.918642e-06
-3.90894e-06
-3.919456e-06
-3.907295e-06
-0.002393218
0.002389635
-9.577525e-12
1.922896e-05
-3.914951e-06
-3.907986e-06
-3.91581e-06
-3.804578e-06
-0.002385994
0.00238219
-1.991776e-11
1.898781e-05
-3.786985e-06
-3.805159e-06
-3.78792e-06
-3.51034e-06
-0.002378054
0.002372785
-3.182916e-11
1.85301e-05
-3.120687e-06
-3.50708e-06
-3.123251e-06
-2.965084e-06
-0.002368302
0.002362522
-2.293717e-11
1.777182e-05
-3.038425e-06
-2.958864e-06
-3.028618e-06
-4.016021e-06
-0.002358717
0.002354674
-2.243171e-11
2.00835e-05
-4.010164e-06
-4.010729e-06
-4.003301e-06
-3.976488e-06
-0.002350359
0.002345681
-2.344197e-11
2.045083e-05
-3.919146e-06
-3.967463e-06
-3.909101e-06
-3.994777e-06
-0.002340915
0.002335971
-2.067934e-11
2.088115e-05
-3.983106e-06
-3.985125e-06
-3.974922e-06
-4.03848e-06
-0.002330994
0.002326083
-2.074929e-11
2.107789e-05
-4.053847e-06
-4.029785e-06
-4.045416e-06
-4.165934e-06
-0.002321082
0.002315785
-1.943049e-11
2.193376e-05
-4.160911e-06
-4.156559e-06
-4.153114e-06
-4.190235e-06
-0.002310358
0.002304867
-1.804551e-11
2.225997e-05
-4.202635e-06
-4.182107e-06
-4.194169e-06
-4.289645e-06
-0.002299313
0.002293589
-1.614733e-11
2.289858e-05
-4.305556e-06
-4.282284e-06
-4.297754e-06
-4.398091e-06
-0.00228773
0.002281667
-1.355938e-11
2.366515e-05
-4.410374e-06
-4.390898e-06
-4.403122e-06
-4.5255e-06
-0.002275486
0.002269096
-1.112924e-11
2.452962e-05
-4.55202e-06
-4.518107e-06
-4.543969e-06
-4.686474e-06
-0.00226252
0.002255667
-1.038856e-11
2.56384e-05
-4.714757e-06
-4.678132e-06
-4.706429e-06
-4.879675e-06
-0.002248612
0.002241238
-1.066976e-11
2.694871e-05
-4.916895e-06
-4.870775e-06
-4.908035e-06
-5.109286e-06
-0.002233588
0.002225536
-1.193374e-11
2.855291e-05
-5.149579e-06
-5.100496e-06
-5.140973e-06
-5.36606e-06
-0.002217164
0.002208314
-1.406791e-11
3.037924e-05
-5.409534e-06
-5.354892e-06
-5.399502e-06
-5.633511e-06
-0.002199075
0.002189291
-1.656082e-11
3.237755e-05
-5.673694e-06
-5.62205e-06
-5.664349e-06
-5.887308e-06
-0.002179076
0.002168282
-1.758175e-11
3.439543e-05
-5.923545e-06
-5.877471e-06
-5.913727e-06
-6.097868e-06
-0.002157034
0.002145209
-1.757664e-11
3.625053e-05
-6.123924e-06
-6.088679e-06
-6.115038e-06
-6.234081e-06
-0.002132936
0.002120134
-1.841738e-11
3.774683e-05
-6.246161e-06
-6.226227e-06
-6.238594e-06
-6.278743e-06
-0.002106923
0.002093263
-2.138574e-11
3.875522e-05
-6.275191e-06
-6.272341e-06
-6.269023e-06
-6.228975e-06
-0.002079264
0.00206493
-2.609325e-11
3.920355e-05
-6.210859e-06
-6.223881e-06
-6.205942e-06
-6.094321e-06
-0.00205035
0.002035575
-3.247029e-11
3.908399e-05
-6.064001e-06
-6.090431e-06
-6.060185e-06
-5.891112e-06
-0.002020667
0.002005724
-3.990618e-11
3.842302e-05
-5.852e-06
-5.888002e-06
-5.848933e-06
-5.636497e-06
-0.001990775
0.00197596
-4.811456e-11
3.726414e-05
-5.590115e-06
-5.634349e-06
-5.588121e-06
-5.340569e-06
-0.001961264
0.001946863
-5.608115e-11
3.565713e-05
-5.287991e-06
-5.339875e-06
-5.287572e-06
-5.008838e-06
-0.001932692
0.001918952
-6.419181e-11
3.366087e-05
-4.95052e-06
-5.009983e-06
-4.952072e-06
-4.644246e-06
0.00189264
-7.329648e-11
3.134463e-05
-0.001905528
-4.580744e-06
-4.647464e-06
-4.584537e-06
-4.252711e-06
-0.001880126
0.001868225
-8.234488e-11
2.878944e-05
-4.185941e-06
-4.257644e-06
-4.191408e-06
-3.847092e-06
-0.001856734
0.001845904
-8.984665e-11
2.609692e-05
-3.780109e-06
-3.852827e-06
-3.786153e-06
-3.448188e-06
-0.001835509
0.0018258
-9.519505e-11
2.338601e-05
-3.385048e-06
-3.453809e-06
-3.390744e-06
-3.080088e-06
-0.001816541
0.001807975
-9.768711e-11
2.078533e-05
-3.024455e-06
-3.085086e-06
-3.02944e-06
-2.764858e-06
-0.001799862
0.001792429
-9.817217e-11
1.84099e-05
-2.719576e-06
-2.76914e-06
-2.723806e-06
-2.520377e-06
-0.001785445
0.001779111
-9.711918e-11
1.635701e-05
-2.487593e-06
-2.524064e-06
-2.491259e-06
-2.361795e-06
-0.001773214
0.001767927
-9.344042e-11
1.47025e-05
-2.343164e-06
-2.364521e-06
-2.345474e-06
-2.290072e-06
-0.001763052
0.001758722
-8.567965e-11
1.347696e-05
-2.283312e-06
-2.289724e-06
-2.282799e-06
-2.286491e-06
-0.001754753
0.001751235
-7.332725e-11
1.266681e-05
-2.290831e-06
-2.283874e-06
-2.288063e-06
-2.343217e-06
-0.001747998
0.001745102
-5.609769e-11
1.228817e-05
-2.357632e-06
-2.338437e-06
-2.352275e-06
-2.467056e-06
-0.001742403
0.001739954
-3.367944e-11
1.235152e-05
-2.492266e-06
-2.458796e-06
-2.483887e-06
-2.667174e-06
-0.001737641
0.001735492
-8.372193e-12
1.287427e-05
-2.705075e-06
-2.657942e-06
-2.695218e-06
-2.918287e-06
-0.001733426
0.001731444
1.698605e-11
1.37219e-05
-2.958616e-06
-2.911057e-06
-2.952186e-06
-3.099214e-06
-0.001729456
0.001727418
3.008754e-11
1.446802e-05
-3.114687e-06
-3.09925e-06
-3.116157e-06
-3.048426e-06
-0.00172522
0.001722804
3.169591e-11
1.455545e-05
-3.012943e-06
-3.055838e-06
-3.022291e-06
-2.746223e-06
-0.001720053
0.001717004
2.811249e-11
1.391861e-05
-2.678638e-06
-2.755793e-06
-2.688817e-06
-2.295989e-06
-0.001713584
0.001709878
2.584778e-11
1.273905e-05
-2.212868e-06
-2.30388e-06
-2.220544e-06
-1.924733e-06
-0.001705887
0.001701816
2.503385e-11
1.166496e-05
-1.867588e-06
-1.929994e-06
-1.871826e-06
-1.717885e-06
-0.001697644
0.001693548
1.70301e-11
1.089023e-05
-1.676698e-06
-1.719753e-06
-1.679896e-06
-1.599549e-06
-0.001689422
0.001685541
3.581209e-12
1.025162e-05
-1.58462e-06
-1.600667e-06
-1.585649e-06
-1.52094e-06
-0.001681789
0.001678281
-2.563415e-11
9.554003e-06
-1.49553e-06
-1.522241e-06
-1.507877e-06
-1.448338e-06
-0.001674958
0.001672151
-6.19373e-11
8.511731e-06
-1.429423e-06
-1.429234e-06
-1.397032e-06
-1.270395e-06
-0.001669699
0.001667906
-9.440683e-11
6.814962e-06
-1.238874e-06
-1.273499e-06
-1.238874e-06
-4.063617e-07
-0.001665332
0.001662366
-1.217446e-10
4.189349e-06
-1.976387e-07
-4.164257e-07
-2.03261e-07
-7.329345e-08
-0.0004117615
0.0004114182
-1.515361e-09
4.181717e-07
-4.09153e-07
-0.0004092248
0.0004086643
-9.271029e-10
9.705562e-07
-3.644577e-07
-0.0004078578
0.0004078546
-6.539444e-10
3.682652e-07
-2.987742e-07
-0.0004084943
0.0004089169
-4.425386e-10
-1.234137e-07
-1.826365e-07
-0.0004107015
0.0004114607
-3.036112e-10
-5.762898e-07
-2.766962e-08
-0.0004141361
0.0004151328
-2.420553e-10
-9.687676e-07
5.805711e-08
-0.0004184157
0.0004196096
-1.336668e-10
-1.251837e-06
1.221665e-07
-0.0004234067
0.0004247461
-3.304897e-11
-1.461538e-06
1.500529e-07
-0.0004289218
0.0004303693
3.414724e-11
-1.597603e-06
1.212572e-07
-0.0004348008
0.0004363234
1.268884e-10
-1.643995e-06
9.050784e-09
-0.0004409
0.0004424368
1.114669e-09
-1.547043e-06
-2.963935e-07
-0.0004470501
0.0004485873
6.877567e-10
-1.241537e-06
-6.019909e-07
-0.0004531062
0.0004545644
1.176513e-09
-8.573111e-07
-9.922965e-07
-0.0004587686
0.0004600897
2.107279e-09
-3.309079e-07
-1.489591e-06
-0.0004638077
0.0004649246
3.938064e-09
3.687669e-07
-1.958976e-06
-0.0004678835
0.0004685747
8.037657e-09
1.259821e-06
-3.23688e-06
-0.0004701208
0.0004704401
1.39425e-08
2.903625e-06
-4.485899e-06
-0.0004707343
0.0004705693
1.04154e-08
4.640497e-06
-5.247359e-06
-0.0004694087
0.0004688232
1.912611e-10
5.832672e-06
-5.115069e-06
-0.0004668325
0.0004661041
-1.083791e-08
5.854354e-06
-4.018123e-06
-0.000463748
0.0004628847
-1.19877e-08
4.893419e-06
-2.95098e-06
-0.0004600279
0.000458965
-7.591655e-09
4.021486e-06
-2.427875e-06
-0.000455487
0.000454239
-3.612714e-09
3.679515e-06
-2.387774e-06
-0.000450233
0.0004487756
-1.649494e-09
3.846786e-06
-2.498919e-06
-0.0004441184
0.0004424768
-1.118134e-09
4.141621e-06
-2.524004e-06
-0.0004374589
0.0004357786
-1.127782e-09
4.205424e-06
-2.502938e-06
-0.000430881
0.0004293262
-1.161405e-09
4.058899e-06
-2.468843e-06
-0.000424964
0.0004236208
-1.069051e-09
3.813135e-06
-2.426268e-06
-0.0004198762
0.0004187266
-8.413168e-10
3.576677e-06
-2.424361e-06
-0.0004155039
0.0004145035
-6.337132e-10
3.425444e-06
-2.480559e-06
-0.0004116349
0.000410709
-4.362493e-10
3.406883e-06
-2.609634e-06
-0.0004079413
0.0004069973
-2.530946e-10
3.553803e-06
-2.874906e-06
-0.0004039947
0.0004029045
-1.204065e-10
3.965193e-06
-3.325041e-06
-0.0003992414
0.00039789
1.026536e-09
4.675403e-06
-4.121299e-06
-0.000392778
0.0003909261
8.804219e-09
5.964413e-06
-4.002338e-06
-0.0003832902
0.0003790759
3.174657e-08
8.184848e-06
-1.249043e-05
-0.0003677284
0.0003650641
-2.493248e-08
1.517971e-05
-2.14873e-06
-0.0003512955
0.0003452918
-2.64628e-08
8.178928e-06
2.322536e-06
-0.0003280219
0.0003229586
1.116871e-08
2.729604e-06
1.617358e-06
-0.0003101567
0.0003066305
1.022034e-08
1.898645e-06
9.514607e-07
-0.0002974903
0.0002947877
-4.479987e-09
1.755568e-06
7.279623e-07
-0.0002876291
0.0002855799
-1.195272e-08
1.333191e-06
8.41627e-07
-0.0002804632
0.0002790893
-1.105829e-08
5.432439e-07
9.414183e-07
-0.000275625
0.0002745995
-7.312685e-09
9.141081e-08
8.551522e-07
-0.0002716097
0.0002706101
-3.894978e-09
1.482952e-07
7.622824e-07
-0.0002675825
0.000266591
-1.850973e-09
2.311197e-07
7.454333e-07
-0.0002637156
0.0002628073
-9.592731e-10
1.638222e-07
7.673753e-07
-0.0002602187
0.0002594066
-6.260324e-10
4.530121e-08
8.117606e-07
-0.0002571053
0.0002563971
-4.791111e-10
-1.031087e-07
8.764036e-07
-0.00025442
0.0002538242
-3.834682e-10
-2.801832e-07
9.786148e-07
-0.00025222
0.0002517717
-2.909352e-10
-5.299745e-07
1.127228e-06
-0.0002507174
0.0002504807
-2.190077e-10
-8.90346e-07
1.343376e-06
-0.0002500458
0.0002500139
-1.467758e-10
-1.311351e-06
1.543797e-06
-0.0002502114
0.0002503856
-7.053866e-11
-1.717929e-06
1.732149e-06
-0.0002511743
0.0002515322
-1.773226e-12
-2.090073e-06
1.888661e-06
-0.0002528187
0.0002533212
4.557164e-11
-2.391279e-06
2.009846e-06
-0.000254978
0.0002555824
8.216005e-11
-2.614357e-06
2.107375e-06
-0.0002574919
0.0002581658
1.190214e-10
-2.781416e-06
2.194495e-06
-0.0002602576
0.0002609843
1.522353e-10
-2.921306e-06
2.275346e-06
-0.0002632236
0.0002639961
1.617868e-10
-3.047967e-06
2.351655e-06
-0.0002663648
0.0002671781
1.5677e-10
-3.165141e-06
2.426385e-06
-0.000269663
0.0002705132
1.624989e-10
-3.276722e-06
2.502558e-06
-0.0002731061
0.0002739927
1.750989e-10
-3.389286e-06
2.583292e-06
-0.0002766946
0.0002776193
1.849389e-10
-3.508235e-06
2.669113e-06
-0.0002804373
0.0002814024
1.979421e-10
-3.634323e-06
2.757262e-06
-0.0002843423
0.00028535
2.060346e-10
-3.76518e-06
2.847815e-06
-0.0002884143
0.0002894649
2.20592e-10
-3.898659e-06
2.946043e-06
-0.0002926525
0.000293744
2.400654e-10
-4.037841e-06
3.093278e-06
-0.0002970296
0.0002981362
1.759243e-10
-4.200054e-06
2.946278e-06
-0.000301479
0.000302893
3.366988e-10
-4.360636e-06
3.644888e-06
-0.0003044428
0.001249971
1.504111e-10
-2.141221e-05
2.076682e-06
3.686118e-06
2.104456e-06
-0.000304449
-0.0003155877
-0.0003155913
2.60501e-06
-0.001263411
0.001274818
4.426727e-11
-2.275062e-05
3.090938e-06
2.579174e-06
3.068475e-06
2.96092e-06
-0.001285429
0.00129582
9.86239e-11
-2.260764e-05
3.164317e-06
2.9431e-06
3.148659e-06
3.139856e-06
-0.001306326
0.001316901
4.803028e-11
-2.333993e-05
3.258034e-06
3.124195e-06
3.24283e-06
3.265689e-06
-0.001327638
0.001338381
2.40229e-11
-2.391761e-05
3.336063e-06
3.25093e-06
3.321606e-06
3.352747e-06
-0.001349158
0.001359883
2.071498e-11
-2.421103e-05
3.403786e-06
3.339092e-06
3.390742e-06
3.394928e-06
-0.001370631
0.001381314
2.105806e-11
-2.430434e-05
3.427824e-06
3.382346e-06
3.415577e-06
3.396255e-06
-0.001392007
0.001402574
2.255905e-11
-2.416659e-05
3.415674e-06
3.383962e-06
3.403627e-06
3.356599e-06
-0.001413098
0.00142341
2.373196e-11
-2.373378e-05
3.366181e-06
3.344619e-06
3.35439e-06
3.271221e-06
-0.001433629
0.001443547
2.41318e-11
-2.298015e-05
3.271382e-06
3.259824e-06
3.259891e-06
3.128321e-06
-0.001453332
0.001462739
2.469279e-11
-2.187228e-05
3.115444e-06
3.117533e-06
3.104445e-06
2.923528e-06
-0.001471976
0.001480755
2.552419e-11
-2.040314e-05
2.899105e-06
2.913473e-06
2.888563e-06
2.673567e-06
-0.001489317
0.00149734
2.664135e-11
-1.863132e-05
2.640649e-06
2.663676e-06
2.630343e-06
2.392294e-06
-0.001505098
0.001512245
2.745183e-11
-1.66229e-05
2.355418e-06
2.382765e-06
2.345104e-06
2.101764e-06
-0.001519072
0.001525212
2.791285e-11
-1.4458e-05
2.065445e-06
2.093371e-06
2.056778e-06
1.826578e-06
-0.001530953
0.001535953
2.87534e-11
-1.22166e-05
1.78975e-06
1.818734e-06
1.781748e-06
1.552549e-06
-0.001540515
0.001544318
2.961636e-11
-9.928812e-06
1.517525e-06
1.545488e-06
1.510472e-06
1.296496e-06
-0.001547641
0.001550191
3.056988e-11
-7.663393e-06
1.266272e-06
1.290358e-06
1.260255e-06
1.065678e-06
-0.001552219
0.001553481
3.323722e-11
-5.463318e-06
1.039812e-06
1.060458e-06
1.034742e-06
8.649489e-07
-0.001554205
0.001554205
3.775018e-11
-3.409933e-06
8.44434e-07
8.605776e-07
8.401922e-07
7.019962e-07
-0.001553659
0.001552434
4.43065e-11
-1.545877e-06
6.869222e-07
6.983727e-07
6.833734e-07
5.719804e-07
-0.001550687
0.001548304
5.162261e-11
1.249722e-07
5.598284e-07
5.690686e-07
5.569956e-07
4.691634e-07
-0.001545408
0.001541953
5.759269e-11
1.599283e-06
4.609369e-07
4.668525e-07
4.586831e-07
4.010313e-07
-0.001538063
0.001533706
5.967466e-11
2.7677e-06
3.954764e-07
3.992248e-07
3.938035e-07
3.572276e-07
-0.001528985
0.001523891
6.023896e-11
3.675273e-06
3.536795e-07
3.554957e-07
3.520225e-07
3.348233e-07
-0.001518509
0.001512841
5.801676e-11
4.334315e-06
3.333092e-07
3.331587e-07
3.316407e-07
3.326923e-07
-0.001506955
0.001500868
4.778021e-11
4.758546e-06
3.330415e-07
3.313824e-07
3.31764e-07
3.496484e-07
-0.001494629
0.00148827
2.843993e-11
4.957311e-06
3.518588e-07
3.485876e-07
3.508805e-07
3.857906e-07
-0.001481829
0.001475351
3.578742e-12
4.92739e-06
3.90336e-07
3.849835e-07
3.895749e-07
4.441964e-07
-0.001468857
0.001462407
-2.599408e-11
4.659047e-06
4.517291e-07
4.435457e-07
4.510386e-07
5.259719e-07
-0.001456007
0.001449729
-5.701834e-11
4.153779e-06
5.363414e-07
5.253632e-07
5.357748e-07
6.271152e-07
-0.001443562
0.001437592
-8.302041e-11
3.437745e-06
6.396789e-07
6.266627e-07
6.392286e-07
7.392787e-07
-0.001431788
0.00142625
-1.015282e-10
2.553442e-06
7.53723e-07
7.388902e-07
7.531347e-07
8.616425e-07
-0.00142093
0.001415937
-1.066188e-10
1.518838e-06
8.760197e-07
8.611382e-07
8.752632e-07
9.950468e-07
-0.001411213
0.001406872
-1.054837e-10
3.236036e-07
1.013462e-06
9.950173e-07
1.013875e-06
1.137724e-06
-0.001402781
0.001399039
-9.876542e-11
-8.647892e-07
1.165938e-06
1.137542e-06
1.165305e-06
1.31114e-06
-0.001395549
0.001392448
-8.519986e-11
-2.183718e-06
1.331582e-06
1.310645e-06
1.33094e-06
1.473176e-06
-0.001389631
0.001387216
-6.967857e-11
-3.51713e-06
1.493593e-06
1.472445e-06
1.492885e-06
1.638767e-06
-0.00138509
0.001383387
-5.514642e-11
-4.891426e-06
1.659216e-06
1.638033e-06
1.658504e-06
1.795084e-06
-0.001381938
0.001380883
-4.133534e-11
-6.166559e-06
1.816284e-06
1.794292e-06
1.815588e-06
1.941742e-06
-0.001380064
0.001379629
-2.838938e-11
-7.373471e-06
1.963676e-06
1.940836e-06
1.962734e-06
2.077371e-06
-0.001379409
0.001379543
-1.793752e-11
-8.485874e-06
2.099798e-06
2.076356e-06
2.098713e-06
2.201838e-06
-0.001379871
0.00138052
-1.072582e-11
-9.498419e-06
2.223763e-06
2.200741e-06
2.222747e-06
2.307857e-06
-0.001381338
0.001382449
-5.383104e-12
-1.037826e-05
2.326805e-06
2.306779e-06
2.325781e-06
2.35621e-06
-0.001383715
0.001385332
-6.475166e-13
-1.10463e-05
2.359657e-06
2.355088e-06
2.358584e-06
2.296825e-06
-0.001387235
0.001389608
2.264363e-12
-1.148081e-05
2.258406e-06
2.295599e-06
2.257152e-06
2.206364e-06
-0.001392209
0.001395086
4.026707e-12
-1.168066e-05
2.1965e-06
2.20525e-06
2.195413e-06
2.266592e-06
-0.001398071
0.001401298
4.856453e-12
-1.233498e-05
2.288453e-06
2.265476e-06
2.287387e-06
2.359274e-06
-0.001404655
0.001408277
4.891445e-12
-1.309818e-05
2.379729e-06
2.358029e-06
2.378549e-06
2.437471e-06
-0.001412006
0.001415988
5.231601e-12
-1.378068e-05
2.463081e-06
2.436172e-06
2.461916e-06
2.519962e-06
-0.001420033
0.001424322
4.297824e-12
-1.445549e-05
2.564268e-06
2.518566e-06
2.56313e-06
2.602194e-06
-0.001428612
0.001433129
2.806709e-12
-1.507703e-05
2.67892e-06
2.600494e-06
2.677857e-06
2.620611e-06
-0.001437725
0.001442781
-9.710425e-12
-1.562487e-05
2.67027e-06
2.61432e-06
2.664062e-06
2.551783e-06
-0.001447226
0.001453055
2.987367e-11
-1.584134e-05
2.458299e-06
2.548165e-06
2.45395e-06
2.780978e-06
-0.001460709
0.001465454
2.498594e-11
-1.613437e-05
2.906804e-06
2.788858e-06
2.912928e-06
2.879234e-06
-0.001469668
0.001474831
2.11488e-11
-1.630299e-05
2.681975e-06
2.887844e-06
2.690248e-06
2.775298e-06
-0.001480544
0.001486406
2.001616e-11
-1.686968e-05
2.720194e-06
2.783955e-06
2.728364e-06
2.810723e-06
-0.001492276
0.001498277
1.846079e-11
-1.716461e-05
2.763765e-06
2.818051e-06
2.770616e-06
2.807172e-06
-0.001504335
0.001510493
1.919213e-11
-1.733557e-05
2.775373e-06
2.813592e-06
2.781475e-06
2.788836e-06
-0.001516699
0.001522935
2.015659e-11
-1.736119e-05
2.767995e-06
2.794562e-06
2.773483e-06
2.758027e-06
-0.001529175
0.001535403
2.147396e-11
-1.722874e-05
2.737359e-06
2.763146e-06
2.742268e-06
2.690402e-06
-0.001541632
0.001547804
2.332992e-11
-1.689949e-05
2.668663e-06
2.695279e-06
2.673292e-06
2.580563e-06
-0.001553959
0.001560002
2.586041e-11
-1.632008e-05
2.554034e-06
2.585077e-06
2.558246e-06
2.41865e-06
-0.001565998
0.001571818
2.852406e-11
-1.543551e-05
2.385287e-06
2.422559e-06
2.388874e-06
2.20061e-06
-0.001577565
0.001583074
3.028975e-11
-1.423817e-05
2.160473e-06
2.203961e-06
2.163602e-06
1.934447e-06
-0.001588475
0.001593576
3.211124e-11
-1.275371e-05
1.889338e-06
1.937482e-06
1.892211e-06
1.622334e-06
-0.001598531
0.001603127
3.553075e-11
-1.098755e-05
1.571257e-06
1.62503e-06
1.573757e-06
1.261242e-06
-0.001607541
0.001611537
3.758711e-11
-8.931128e-06
1.204036e-06
1.263305e-06
1.205869e-06
8.507198e-07
-0.001615312
0.001618615
3.491864e-11
-6.582365e-06
7.88113e-07
8.519451e-07
7.891011e-07