/*--------------------------------*- C++ -*----------------------------------*\
| =========                 |                                                 |
| \\      /  F ield         | foam-extend: Open Source CFD                    |
|  \\    /   O peration     | Version:     3.1                                |
|   \\  /    A nd           | Web:         http://www.extend-project.de       |
|    \\/     M anipulation  |                                                 |
\*---------------------------------------------------------------------------*/
FoamFile
{
    version     2.0;
    format      ascii;
    class       volScalarField;
    location    "17";
    object      k;
}
// * * * * * * * * * * * * * * * * * * * * * * * * * * * * * * * * * * * * * //

dimensions      [0 2 -2 0 0 0 0];

internalField   nonuniform List<scalar> 
119952
(
0.08057091
0.0766076
0.0755859
0.07390316
0.07210418
0.07062587
0.07010176
0.07006537
0.0702927
0.07066374
0.07111012
0.07158487
0.07205484
0.07250067
0.07291439
0.07328281
0.07360616
0.07390036
0.07423645
0.07495333
0.07756132
0.07538089
0.07540702
0.07774915
0.07480967
0.07340937
0.07228102
0.07133272
0.06925826
0.02833394
0.100653
0.09786505
0.09550524
0.09415515
0.09372788
0.09400669
0.09471178
0.0956415
0.09665109
0.097705
0.09308281
0.0932532
0.09583715
0.09941236
0.1031955
0.1067521
0.1099452
0.1127433
0.115126
0.126254
0.1274137
0.1281403
0.1284448
0.128531
0.1285801
0.1286675
0.1288126
0.1290034
0.129155
0.1297093
0.1299927
0.1300701
0.1300639
0.1300102
0.1299244
0.129797
0.1295697
0.1294256
0.1317022
0.1314797
0.1304703
0.1302415
0.1301671
0.1298603
0.1291781
0.1282966
0.1273833
0.1264778
0.1255905
0.1247338
0.123916
0.1231368
0.1223861
0.1216487
0.1209057
0.1201333
0.1193015
0.118397
0.1176586
0.1170626
0.116147
0.1157382
0.1162872
0.1164544
0.1164335
0.1167603
0.1172926
0.1153688
0.1134533
0.1121015
0.1110626
0.1102598
0.1096125
0.1091002
0.1086915
0.1083201
0.1079578
0.1075626
0.1070923
0.1065193
0.1058359
0.1050515
0.1041875
0.1032716
0.1023321
0.1013936
0.1004739
0.09958172
0.0987203
0.0978928
0.09713014
0.09645306
0.09591343
0.09559998
0.09554963
0.09576323
0.09621419
0.09684488
0.0975726
0.09829658
0.09891409
0.09932978
0.09944628
0.09921861
0.09873332
0.09804828
0.09723306
0.09637521
0.09555936
0.09485376
0.09430185
0.0939197
0.09369553
0.09359213
0.09355355
0.0935012
0.0933724
0.09322753
0.09296188
0.09245067
0.09182248
0.09102606
0.09010683
0.08909365
0.08801769
0.08692105
0.08583751
0.08475898
0.08368894
0.08264319
0.08163364
0.08065993
0.07971429
0.07881185
0.07794721
0.07711442
0.07630559
0.07550977
0.0747205
0.0739317
0.07315342
0.07240944
0.07174061
0.07120574
0.07086091
0.07075538
0.07097474
0.07159324
0.07255369
0.07373197
0.07503318
0.07631121
0.07739095
0.07811539
0.07836857
0.07801923
0.07713768
0.07594913
0.07464874
0.07335604
0.07212107
0.07095406
0.06982876
0.06874195
0.06768552
0.06664788
0.06559689
0.06394065
0.06059202
0.05801872
0.05609566
0.05457397
0.05329675
0.05217054
0.05114016
0.05018478
0.04929913
0.04848235
0.04773349
0.04705052
0.04643116
0.04587275
0.04537223
0.04492635
0.04453234
0.04418839
0.04389348
0.04364701
0.04344866
0.04329841
0.04319658
0.04314376
0.0431405
0.04318714
0.04328424
0.04343244
0.0436328
0.04388671
0.04419595
0.04456274
0.04498948
0.04547495
0.04591353
0.04666103
0.04764227
0.04852634
0.04938847
0.05020274
0.05097983
0.05171586
0.05240845
0.05305382
0.05364631
0.05418086
0.05465651
0.05507637
0.05544755
0.05579628
0.05615533
0.0565249
0.05691375
0.05729049
0.05769002
0.05816895
0.05860554
0.05876062
0.05869954
0.05918816
0.06174111
0.06653062
0.07073654
0.07141789
0.07118533
0.07293746
0.07332097
0.07045261
0.06609113
0.06548142
0.0616522
0.05816693
0.05520121
0.0527489
0.0507872
0.04933866
0.04838627
0.04788022
0.04771861
0.04775692
0.04786907
0.0479612
0.04798412
0.04793088
0.04781893
0.04767378
0.0475235
0.04739194
0.0472628
0.04711777
0.04693484
0.04670196
0.04641384
0.04606749
0.04566356
0.04520657
0.04470331
0.04416216
0.04359298
0.04300603
0.04241093
0.04181674
0.04123164
0.04066144
0.04010938
0.03957762
0.03906788
0.03858075
0.0381156
0.03767106
0.03724526
0.03683639
0.03644304
0.03606626
0.0357043
0.03533408
0.03496637
0.03460757
0.03425706
0.03391726
0.03358985
0.03327482
0.03301089
0.03282076
0.032462
0.03213284
0.0318237
0.03153716
0.03127851
0.03105067
0.03085606
0.03069603
0.03057021
0.03047558
0.03040822
0.03036309
0.03033309
0.03031118
0.03029116
0.03026729
0.03023421
0.03018906
0.0301298
0.03005629
0.02996967
0.02987206
0.02976654
0.0296571
0.02954897
0.02944861
0.02936342
0.02930119
0.0292698
0.02927704
0.02933018
0.02943582
0.02959968
0.02982596
0.03011732
0.03047492
0.03089814
0.03138486
0.03193143
0.032532
0.0331803
0.03387057
0.03459722
0.03535352
0.03613194
0.0369268
0.03773366
0.03854975
0.0393743
0.04020567
0.0410437
0.04188897
0.04273894
0.04358838
0.0444328
0.04526816
0.04609073
0.04689712
0.04768414
0.04844856
0.04918701
0.04989588
0.05057125
0.0512089
0.05180446
0.05235349
0.05285169
0.05329488
0.05367913
0.05400077
0.0542565
0.05444358
0.05455987
0.05460385
0.05457475
0.05447256
0.05429813
0.05405332
0.05374127
0.05336551
0.05292368
0.05238853
0.05179588
0.05178095
0.09704435
0.09249586
0.0987689
0.1069158
0.1141542
0.1200426
0.1247681
0.1286003
0.131897
0.1349424
0.1446517
0.1557232
0.1659044
0.1745831
0.1816199
0.1871624
0.1914643
0.1947977
0.2203906
0.2204434
0.2203071
0.2197612
0.219073
0.2183898
0.2177791
0.2172382
0.2167392
0.2161355
0.2157273
0.2151656
0.2142165
0.213082
0.2118909
0.2107046
0.209538
0.2083939
0.2072449
0.2062907
0.2053937
0.2042071
0.2028956
0.2015795
0.2002826
0.1990098
0.1977596
0.1965215
0.195308
0.194172
0.1930081
0.1918848
0.1908135
0.1897708
0.1887443
0.187722
0.1866947
0.1856798
0.1947116
0.1934452
0.1922052
0.1910363
0.1899281
0.188862
0.1878216
0.1867843
0.1857371
0.1846447
0.1835145
0.1824045
0.181305
0.1802174
0.1791522
0.1781091
0.1770979
0.1761869
0.1755252
0.1748515
0.1737546
0.1726292
0.1717009
0.1708045
0.1697964
0.1687058
0.1675889
0.1664508
0.1652764
0.1640838
0.162899
0.1617364
0.1605975
0.1594718
0.1583396
0.157168
0.1559424
0.1546696
0.1533947
0.1521726
0.1509821
0.1498766
0.1490591
0.1484523
0.1477745
0.1470563
0.1463018
0.1452872
0.1439624
0.142836
0.1420017
0.1413421
0.14083
0.1404453
0.1401562
0.139934
0.1397394
0.1395189
0.139206
0.1387305
0.138034
0.1370819
0.135869
0.1344164
0.1327659
0.130972
0.1290944
0.1271895
0.1253062
0.1234884
0.1217793
0.1202294
0.1189074
0.1179132
0.1173649
0.1173104
0.1177599
0.1186745
0.1199631
0.1214845
0.1230691
0.1245511
0.1257779
0.1266119
0.1269455
0.1267378
0.1261519
0.1252261
0.1240043
0.1225455
0.1209289
0.1192359
0.117539
0.115894
0.1143383
0.1128889
0.1115562
0.1103442
0.1092331
0.1081691
0.1071244
0.1061064
0.1051121
0.1041412
0.1031974
0.1022893
0.1014265
0.1006161
0.09986234
0.09916856
0.0985356
0.0979617
0.09744319
0.0969764
0.09656039
0.09619212
0.09586531
0.09556997
0.09529482
0.0950255
0.09474101
0.09441352
0.09401111
0.09350441
0.09287409
0.09211735
0.0912538
0.0903339
0.08943378
0.0886394
0.08802583
0.08764816
0.08753516
0.08768459
0.08805703
0.08858349
0.0891619
0.08971542
0.09020215
0.09059993
0.09088996
0.09107901
0.09115765
0.09114261
0.09101263
0.09079136
0.09041555
0.08997607
0.0889894
0.08738315
0.08576765
0.08421292
0.08275447
0.08140098
0.08012368
0.0788998
0.07771888
0.07657773
0.07547639
0.07441582
0.07339674
0.07241938
0.07148358
0.070589
0.06973541
0.06892308
0.06815296
0.06742665
0.06674629
0.06611427
0.06553315
0.06500559
0.06453436
0.06412223
0.06377198
0.06348641
0.06326851
0.0631216
0.06304939
0.0630556
0.06314292
0.06330952
0.06354397
0.06383372
0.06421658
0.06473007
0.06533715
0.06601353
0.06673556
0.06747319
0.06819146
0.06885382
0.0694254
0.06987585
0.07018154
0.07032798
0.07031112
0.07013598
0.06981313
0.06935951
0.06879758
0.06814861
0.06743803
0.06668413
0.06589523
0.0650496
0.06406014
0.06280271
0.0612861
0.05982319
0.05884784
0.05854263
0.05882623
0.05958399
0.06103301
0.06336997
0.06623367
0.06940969
0.07082561
0.07292935
0.0747824
0.07645372
0.07790843
0.0790882
0.07997784
0.08061978
0.08108211
0.08141055
0.08161353
0.08167357
0.08155068
0.08124377
0.08081169
0.08029523
0.07971581
0.07907679
0.0783683
0.07758141
0.07674863
0.07591757
0.07507268
0.07418739
0.07324632
0.07224314
0.07117785
0.07005528
0.06888454
0.06767783
0.06644849
0.06521031
0.06397758
0.06276356
0.06157863
0.06043096
0.05932824
0.05827733
0.0572833
0.05634922
0.05547672
0.054666
0.05391651
0.05322627
0.0525917
0.05200573
0.05145926
0.05094913
0.05047465
0.05003291
0.04962048
0.04923541
0.0488766
0.04855609
0.04823598
0.04787561
0.04750799
0.04715498
0.046821
0.04650571
0.04620914
0.04593059
0.04566926
0.04542422
0.04519396
0.04497601
0.04476796
0.04456873
0.04437712
0.04419169
0.04401096
0.04383369
0.04365927
0.04348657
0.0433136
0.04314011
0.04296725
0.04279718
0.04263323
0.04248002
0.04234345
0.04223064
0.04214973
0.04210968
0.04211993
0.04218996
0.04232869
0.04254439
0.04284472
0.0432351
0.04371572
0.04428517
0.04493989
0.04567513
0.04648648
0.0473678
0.04831127
0.0493078
0.05034742
0.05141938
0.05251275
0.05361669
0.05472091
0.0558161
0.0568939
0.05794657
0.05896761
0.05995847
0.06092383
0.06185905
0.06275915
0.06362075
0.06444159
0.06522016
0.06595541
0.06664631
0.06729156
0.06788928
0.06843693
0.06893138
0.06936912
0.06974651
0.07005993
0.07030583
0.07048073
0.0705814
0.07060511
0.07054967
0.07041346
0.07019534
0.06989445
0.06951017
0.06904069
0.06848315
0.0678286
0.06707189
0.0662212
0.06540234
0.06474545
0.05756756
0.06207457
0.06731941
0.07305513
0.07931545
0.08622069
0.09397923
0.1029163
0.1135777
0.1260101
0.1840842
0.2008584
0.217526
0.2342994
0.2505605
0.2660419
0.2804934
0.2976965
0.3262297
0.3887601
0.4000123
0.4097628
0.4177333
0.4245064
0.4299501
0.4343243
0.4376105
0.439736
0.4412882
0.4425508
0.4441739
0.4449398
0.4444656
0.442846
0.4403069
0.4370516
0.4332508
0.429392
0.4229891
0.4171558
0.4117495
0.4066507
0.4017785
0.3970433
0.3923751
0.3877156
0.3830437
0.3784112
0.3736214
0.368766
0.3638607
0.3589345
0.354034
0.3491899
0.3444068
0.3396707
0.3479678
0.343475
0.3389145
0.3343854
0.3299331
0.3255489
0.3212273
0.3169613
0.3127658
0.3086417
0.3045634
0.3005794
0.2967394
0.2930351
0.2894603
0.2860059
0.2826487
0.2793713
0.2761657
0.2729926
0.2698531
0.2668167
0.2639042
0.2611112
0.2584312
0.2558479
0.2533358
0.2508647
0.2484012
0.2459602
0.2435698
0.2412387
0.2389877
0.2368359
0.234783
0.2328127
0.2308878
0.2289396
0.2269173
0.2249157
0.2229638
0.2210821
0.2192854
0.2175825
0.2159689
0.2144217
0.2129055
0.211385
0.209852
0.2083082
0.2067709
0.2052646
0.2038231
0.2024612
0.201196
0.2000178
0.1989199
0.1978181
0.1965969
0.1952854
0.1940082
0.1927933
0.191609
0.1904309
0.1892509
0.1880577
0.1868417
0.1856048
0.1843625
0.1831478
0.1819678
0.180812
0.1796501
0.1784466
0.1771726
0.1758182
0.1744173
0.1730235
0.1716766
0.1704306
0.1693146
0.1682806
0.1672572
0.1661853
0.1650742
0.1638979
0.1627078
0.1616389
0.1607981
0.1602198
0.1598577
0.1596531
0.1595549
0.1595456
0.1595887
0.159621
0.1595552
0.1592903
0.1587342
0.1578247
0.1565404
0.1549
0.152954
0.1507744
0.1484436
0.1460444
0.1436517
0.1413317
0.1391466
0.1371671
0.1354854
0.1342248
0.1335475
0.1335425
0.134253
0.1356534
0.1376317
0.1399877
0.1424719
0.1448321
0.1468321
0.1482543
0.1489242
0.1487682
0.1479246
0.1465844
0.144811
0.1426727
0.1402731
0.1377177
0.1350963
0.1324939
0.1299776
0.1275846
0.1253345
0.1232255
0.1212473
0.119372
0.1175843
0.115881
0.1142621
0.1127287
0.1112846
0.1099387
0.1087025
0.1075856
0.1065949
0.1057351
0.1050078
0.1044101
0.1039346
0.1035738
0.1033212
0.1031691
0.1031055
0.1031152
0.1031812
0.1032835
0.1033944
0.1034738
0.1034702
0.1033282
0.1029992
0.1024499
0.101672
0.1006884
0.09954982
0.09832293
0.09707778
0.09588057
0.09478702
0.09383461
0.09304336
0.09241611
0.09194125
0.09159388
0.09135054
0.09118267
0.09107436
0.09099962
0.09095736
0.09091859
0.09090305
0.0908668
0.09085038
0.09079677
0.09095159
0.09093606
0.09078383
0.09050213
0.09008698
0.08954928
0.088911
0.08819221
0.08741047
0.08658149
0.08571981
0.08483836
0.08394808
0.08305792
0.08217498
0.08130488
0.08045221
0.07962114
0.0788159
0.07804116
0.0773021
0.07660445
0.07595434
0.07535833
0.07482327
0.07435635
0.07396489
0.07365649
0.07343913
0.07332145
0.07331224
0.07342014
0.0736521
0.07401368
0.07450888
0.07514514
0.07593673
0.07688506
0.07797192
0.07917137
0.08044493
0.08174264
0.08300816
0.08418451
0.08521927
0.08606923
0.08670405
0.08710877
0.08728422
0.08724603
0.08702003
0.08663639
0.08612397
0.08550945
0.08481546
0.08403792
0.08315531
0.0821345
0.08092704
0.07950719
0.07789165
0.07615073
0.07431963
0.07241863
0.07047512
0.06863793
0.06704892
0.06588327
0.06521869
0.06500059
0.06605364
0.06755918
0.06935361
0.0714084
0.07371976
0.07624501
0.07890344
0.08161165
0.08428672
0.0868382
0.08916493
0.0911699
0.09278461
0.09398302
0.09477734
0.09520675
0.09531948
0.09515899
0.09475121
0.09411104
0.09327886
0.09227736
0.09117345
0.0900006
0.08874732
0.08741189
0.08599899
0.08451645
0.08297555
0.08139045
0.07977611
0.07814762
0.07652133
0.0749135
0.0733372
0.07180248
0.07031951
0.06889881
0.06754886
0.06627585
0.06508441
0.06397777
0.06295761
0.06202395
0.06117484
0.06040613
0.05971184
0.05908646
0.05852474
0.05802068
0.05756594
0.05714531
0.05674958
0.05637243
0.0560081
0.05566065
0.05533161
0.05501514
0.05470567
0.054402
0.05410558
0.0538181
0.05354087
0.05327473
0.0530199
0.05277637
0.05254395
0.0523219
0.05210893
0.05190342
0.05170348
0.05150711
0.05131236
0.05111863
0.0509273
0.05073957
0.05055707
0.05038213
0.05021666
0.0500632
0.04992609
0.04981113
0.04972539
0.04967694
0.04967478
0.04972894
0.04984963
0.05004397
0.05031741
0.05067476
0.05112238
0.05166424
0.05230202
0.05303508
0.05386017
0.05477143
0.05576074
0.056818
0.0579315
0.05908832
0.06027488
0.06147744
0.0626825
0.0638771
0.06504903
0.06618731
0.06728271
0.06832717
0.06931449
0.07024988
0.07113056
0.07195365
0.07271802
0.07342372
0.07407151
0.07466245
0.07519737
0.0756765
0.0760992
0.07646394
0.07676859
0.07701075
0.0771879
0.07729748
0.07733683
0.07730341
0.07719519
0.07701054
0.07674799
0.07640643
0.07598438
0.075481
0.07489296
0.07421977
0.07345367
0.0726051
0.07167354
0.07075321
0.06993123
0.04291604
0.04850444
0.0534838
0.08187023
0.1107973
0.1466669
0.1709168
0.1952377
0.218248
0.2396754
0.2582933
0.2743481
0.2899998
0.3060154
0.3221898
0.3385937
0.3551854
0.3719098
0.3883499
0.4041441
0.4193743
0.4338984
0.4478858
0.4614981
0.4746895
0.4874233
0.4996629
0.5114543
0.5228493
0.5337739
0.5444977
0.5783836
0.582704
0.5864352
0.5879922
0.5881123
0.5869858
0.5847158
0.5813577
0.5771015
0.5722639
0.5668426
0.560953
0.5547037
0.548157
0.541366
0.5343812
0.5272549
0.5200401
0.5127733
0.505463
0.4981938
0.490963
0.4837976
0.4767216
0.4697335
0.4627756
0.4557671
0.4487377
0.441701
0.4346713
0.4276968
0.4208173
0.4140608
0.4074603
0.4009922
0.3946976
0.388472
0.3818893
0.3755748
0.369544
0.3637682
0.3582322
0.3529201
0.3478047
0.342851
0.3380221
0.3332914
0.3286508
0.3241257
0.3197491
0.315548
0.3115389
0.3077163
0.3040488
0.3004906
0.2969956
0.2935339
0.2901068
0.2867489
0.2835053
0.2804127
0.277487
0.2747162
0.2720589
0.269458
0.266866
0.2642682
0.2616819
0.2591428
0.2567019
0.2543964
0.2522437
0.2502139
0.2482635
0.2463155
0.2443385
0.2423326
0.2403215
0.2383468
0.2364613
0.234706
0.2330895
0.2315817
0.2301253
0.2286566
0.2271359
0.2255612
0.2239653
0.2224003
0.2209218
0.2195606
0.2183188
0.2171617
0.2160372
0.214884
0.2136312
0.2122767
0.2109137
0.2096255
0.2084291
0.2073044
0.2062213
0.2051411
0.2040306
0.2028875
0.2017414
0.2006262
0.1995674
0.1985542
0.1975481
0.1964893
0.1953244
0.1940294
0.1926215
0.1911575
0.1897068
0.1883246
0.1870359
0.1858186
0.1846032
0.1833467
0.1820831
0.1808634
0.1797571
0.1788575
0.1782526
0.1779228
0.1778488
0.1779819
0.1782592
0.1786109
0.1790311
0.1794527
0.1797608
0.1798136
0.1794781
0.178663
0.1773335
0.1755114
0.1732648
0.1706921
0.1679065
0.1650229
0.1621455
0.1593661
0.15677
0.1544502
0.1525304
0.1511894
0.1506752
0.1511484
0.1527018
0.1553249
0.1588516
0.1629541
0.1672371
0.1712875
0.1746893
0.1770668
0.1781263
0.1777211
0.176062
0.1736206
0.1705433
0.1669945
0.1631569
0.1591884
0.1551928
0.1512898
0.1475771
0.1441032
0.1408786
0.1378863
0.135099
0.1324826
0.130011
0.1276688
0.125449
0.1233499
0.1213754
0.1195352
0.1178413
0.1163067
0.1149435
0.1137604
0.1127618
0.1119468
0.1113097
0.1108419
0.1105352
0.1103811
0.1103671
0.1104763
0.110691
0.1109919
0.1113501
0.111719
0.1120322
0.1122128
0.112187
0.1118989
0.1113197
0.1104523
0.1093286
0.1080004
0.1065305
0.104982
0.1034136
0.1018739
0.1004016
0.09902248
0.09775345
0.09660077
0.09556688
0.09464489
0.09382993
0.09310856
0.09247859
0.09192377
0.09145074
0.09104017
0.09070736
0.09042186
0.0902138
0.09006738
0.08993458
0.08977085
0.08956037
0.08930058
0.08898533
0.08860681
0.08816205
0.08765464
0.08709243
0.08648546
0.08584439
0.08517933
0.08449918
0.08381148
0.08312266
0.08243856
0.08176502
0.08110837
0.08047571
0.07987501
0.07931508
0.07880549
0.07835659
0.07797944
0.07768564
0.07748735
0.07739756
0.07743024
0.07760038
0.07792356
0.07841527
0.07909042
0.07996312
0.08104448
0.08234208
0.08385337
0.08555733
0.08741658
0.08937518
0.09136025
0.09329097
0.09508697
0.09667645
0.09800168
0.09902367
0.0997286
0.1001303
0.1002622
0.1001674
0.09989013
0.09946939
0.09893495
0.09829789
0.09754009
0.09663806
0.09556474
0.09429123
0.09280517
0.09110907
0.08922355
0.08714207
0.08487895
0.08244676
0.07994069
0.07742458
0.07503914
0.07284483
0.0709689
0.06959618
0.06876183
0.06847031
0.06873245
0.06958374
0.07104645
0.07307762
0.07551355
0.07826004
0.08124511
0.08437372
0.08753246
0.09059817
0.09344775
0.09597639
0.0981079
0.09980011
0.1010423
0.1018492
0.102253
0.1022887
0.101986
0.1013645
0.1004604
0.09933
0.09801902
0.09656116
0.09498173
0.09330489
0.09155414
0.08975054
0.08791221
0.08605569
0.08419754
0.08235541
0.08054783
0.07878837
0.07708837
0.07545817
0.07390624
0.07243971
0.07106432
0.06978416
0.06860165
0.06751752
0.06653078
0.06563861
0.06483686
0.0641207
0.06348469
0.06292022
0.06241935
0.06197472
0.06157992
0.0612267
0.0609037
0.060602
0.06031598
0.06004185
0.05977689
0.05951939
0.05926842
0.05902359
0.05878504
0.05855332
0.05832915
0.05811322
0.05790595
0.0577075
0.05751769
0.05733607
0.05716191
0.05699434
0.05683256
0.05667607
0.05652457
0.05637812
0.05623745
0.05610508
0.05598434
0.05587895
0.05579347
0.05573335
0.05570483
0.05571462
0.05576944
0.05587651
0.05604529
0.0562848
0.05660355
0.05700926
0.05750817
0.05810452
0.05880011
0.05959395
0.06048216
0.06145799
0.06251208
0.06363274
0.06480639
0.06601814
0.06725232
0.06849308
0.06972484
0.07093275
0.07210313
0.07322377
0.07428379
0.07527394
0.07618856
0.07702954
0.07779474
0.07848381
0.07909788
0.07963911
0.08011026
0.08051426
0.08085353
0.08112951
0.08134262
0.08149269
0.08157936
0.08160196
0.08155946
0.08145034
0.08127278
0.08102589
0.08070927
0.08032228
0.07986437
0.07933444
0.07873229
0.07805545
0.07730604
0.07647858
0.07558926
0.07462813
0.07368109
0.07280165
0.02087659
0.02331553
0.02567496
0.03425381
0.04571222
0.06510494
0.07889551
0.09364984
0.1096362
0.1259728
0.1429657
0.1617587
0.1819847
0.2028148
0.2246676
0.2493792
0.2873464
0.3051795
0.3233013
0.3416629
0.3604513
0.3788439
0.3963396
0.4130681
0.429372
0.4455493
0.4614359
0.4768505
0.4920202
0.5068744
0.5213495
0.5353385
0.5487112
0.5612523
0.5728632
0.5834695
0.593064
0.6016238
0.6093817
0.6162614
0.6226199
0.6257436
0.6234281
0.6212391
0.6182037
0.6138292
0.6081946
0.6014559
0.5937974
0.585414
0.5765202
0.5673648
0.5580816
0.5487673
0.5395149
0.5304078
0.5215033
0.5128369
0.5044322
0.4962958
0.4884334
0.4808297
0.4734929
0.4664206
0.4596112
0.4530498
0.4467151
0.4405531
0.4345299
0.4285847
0.4225071
0.4163773
0.4102783
0.4042931
0.3984764
0.3928508
0.3873907
0.3820633
0.3767996
0.3715405
0.3663624
0.3613386
0.3564976
0.3518615
0.3474385
0.3432053
0.3391109
0.3350934
0.3311066
0.3271361
0.3232019
0.3193562
0.3156678
0.3121869
0.3089198
0.3058286
0.3028426
0.2998853
0.2969052
0.2938907
0.290877
0.2879398
0.2851607
0.2825917
0.2802294
0.2780078
0.2758367
0.2736368
0.2713689
0.2690485
0.2667372
0.2645203
0.2624704
0.2606216
0.2589484
0.2573744
0.2558028
0.2541609
0.2524271
0.2506345
0.248857
0.2471843
0.2456867
0.2443822
0.2432268
0.2421367
0.2410091
0.2397731
0.2384255
0.2370137
0.2356221
0.2343414
0.2332208
0.2322463
0.2313575
0.2304701
0.2294969
0.228381
0.2271506
0.2259182
0.2247955
0.2238233
0.2229778
0.2222087
0.2214474
0.2206305
0.2197471
0.2188451
0.2179855
0.2171992
0.2164709
0.2157467
0.2149415
0.2139669
0.2127748
0.211382
0.2098663
0.2083288
0.206848
0.2054578
0.2041291
0.2028073
0.201461
0.2001385
0.1989539
0.1980271
0.1974748
0.1972914
0.1974815
0.1980144
0.1988165
0.1997886
0.2008332
0.2018393
0.2027679
0.2034578
0.2037166
0.2033756
0.202343
0.2006187
0.1982746
0.1954245
0.1922052
0.1887701
0.1852744
0.1818585
0.1786465
0.1757538
0.1733041
0.1714693
0.1705343
0.1709568
0.1730581
0.1770179
0.1828255
0.1901504
0.1983255
0.2065843
0.214141
0.2201918
0.2240623
0.2253001
0.2237601
0.2198113
0.2145239
0.2082157
0.201225
0.1939473
0.1867583
0.1799087
0.1735549
0.1677823
0.1626049
0.1579804
0.1538334
0.1500798
0.1466406
0.1434522
0.140471
0.1376704
0.1350366
0.1325666
0.1302656
0.1281447
0.1262175
0.1244983
0.1229985
0.121724
0.1206753
0.1198474
0.1192312
0.1188166
0.1185942
0.1185527
0.1186761
0.118946
0.1193435
0.1198413
0.1203901
0.1209123
0.1213124
0.1214958
0.1213879
0.1209453
0.1201597
0.119054
0.1176737
0.1160771
0.1143258
0.1124795
0.1105912
0.1087058
0.1068591
0.1050794
0.1033862
0.1017927
0.1003045
0.09892425
0.0976498
0.0964796
0.09540859
0.09443632
0.09355929
0.09277669
0.09208586
0.09148036
0.09095025
0.0904832
0.090065
0.08968025
0.08931191
0.0889415
0.08855346
0.08814076
0.08770202
0.08723716
0.08674866
0.08624112
0.0857199
0.08519026
0.08465696
0.08412442
0.08359702
0.08307973
0.08257854
0.08210083
0.08165546
0.08125274
0.08090443
0.08062368
0.08042485
0.08032355
0.08033672
0.08048299
0.0807827
0.08125797
0.08193272
0.082832
0.08398112
0.0854033
0.08711516
0.0891209
0.09140701
0.09394072
0.0966681
0.09950804
0.1023493
0.1050789
0.1075883
0.1097823
0.1115882
0.1129629
0.1139038
0.1144498
0.1146664
0.1146266
0.1143982
0.1140343
0.1135704
0.1129956
0.1122723
0.1113658
0.1102469
0.108894
0.1072996
0.1054638
0.1033943
0.1010781
0.09852483
0.09575452
0.09282432
0.08977681
0.08668771
0.08361796
0.08066807
0.0779458
0.0755384
0.07353006
0.07200125
0.07102499
0.07065924
0.07092723
0.07181099
0.07327628
0.07526929
0.07770971
0.08046741
0.0833905
0.08638725
0.08935573
0.09219595
0.09481796
0.09714851
0.09913535
0.1007434
0.1019556
0.1027693
0.1031912
0.1032341
0.1029136
0.1022634
0.1013263
0.1001444
0.09876617
0.09723531
0.09558678
0.09384836
0.09204245
0.09018987
0.08831648
0.0864476
0.08459932
0.08278481
0.08101826
0.07931262
0.07767898
0.07612632
0.07466147
0.07328926
0.07201268
0.07083305
0.06975014
0.06876249
0.06786792
0.06706336
0.06634493
0.06570912
0.06515123
0.06466515
0.06424316
0.06387613
0.06355527
0.06327266
0.0630209
0.06279303
0.06258296
0.0623858
0.06219793
0.06201701
0.06184181
0.06167198
0.06150783
0.06135009
0.06119964
0.06105733
0.06092387
0.06079967
0.06068491
0.06057955
0.06048344
0.06039646
0.06031858
0.06024996
0.06019122
0.06014366
0.06010916
0.06009028
0.06009042
0.06011393
0.06016619
0.06025343
0.06038272
0.06056207
0.06080026
0.06110619
0.0614884
0.06195449
0.06251055
0.06316065
0.06390629
0.06474613
0.06567577
0.06668782
0.06777204
0.06891568
0.07010401
0.0713209
0.07254942
0.07377243
0.07497315
0.07613567
0.07724534
0.07828904
0.0792552
0.08013379
0.08092113
0.08161617
0.08221885
0.0827308
0.083155
0.08349551
0.08375703
0.08394422
0.08406096
0.08411012
0.08409373
0.08401405
0.08387301
0.08367165
0.0834102
0.08308768
0.08270433
0.08226138
0.08175976
0.0812003
0.08058325
0.07990957
0.07917847
0.07839331
0.07755081
0.07666643
0.07572827
0.07480797
0.07394719
0.008836485
0.01030598
0.01143282
0.01700422
0.02343734
0.03191477
0.03893383
0.04692084
0.05561742
0.06494727
0.0752502
0.08746414
0.1009565
0.1161498
0.1344813
0.162841
0.1780603
0.1941761
0.2106422
0.2274031
0.2443701
0.2613855
0.278282
0.2949266
0.3111387
0.3268456
0.3422769
0.3591883
0.3763574
0.3939862
0.4120794
0.4300784
0.447516
0.464317
0.4804942
0.4957894
0.5103542
0.5243999
0.5379577
0.5509981
0.5634279
0.575114
0.5858717
0.5955644
0.6040859
0.6112942
0.6171383
0.6214739
0.6245072
0.6251077
0.623765
0.6200432
0.6135691
0.6057004
0.5963105
0.5855834
0.573857
0.5614504
0.5486523
0.5357231
0.5228891
0.5103397
0.4982241
0.4866453
0.4756724
0.4653527
0.4557006
0.4467091
0.438345
0.4305614
0.4233141
0.4165647
0.4102953
0.4044932
0.3992185
0.39441
0.3899941
0.3858708
0.3817926
0.3776908
0.3735202
0.3693298
0.3652018
0.3612247
0.3574584
0.3539085
0.3505227
0.3472145
0.3439101
0.340571
0.3372185
0.3339155
0.3307328
0.32773
0.3249301
0.3223022
0.319775
0.3172603
0.3146842
0.3120148
0.3092777
0.3065483
0.3039274
0.3015034
0.2993133
0.297317
0.2954113
0.2934833
0.2914485
0.2892829
0.2870388
0.2848324
0.2827888
0.2809898
0.2794373
0.2780418
0.2766707
0.2752107
0.273607
0.2718827
0.2701282
0.2684677
0.2670113
0.2658082
0.2648233
0.2639444
0.2630315
0.2619824
0.2607725
0.2594576
0.2581487
0.2569761
0.2560425
0.2553701
0.254877
0.2544207
0.2538555
0.2530964
0.2521579
0.2511231
0.2501214
0.2492896
0.2486962
0.2482972
0.2479707
0.2475718
0.2469906
0.2462049
0.2453173
0.2445112
0.2439277
0.2435914
0.2434364
0.2433611
0.2432302
0.2429363
0.2424896
0.2420014
0.2415865
0.2412701
0.2409706
0.2405792
0.2399862
0.2390851
0.2378246
0.2362478
0.2344845
0.232691
0.2309836
0.2294053
0.2279262
0.2264932
0.225104
0.2238447
0.2228766
0.2224318
0.2226311
0.2234725
0.2249186
0.2268832
0.2292136
0.2317369
0.2342526
0.2364388
0.238079
0.2389746
0.2389168
0.2378053
0.2356558
0.2325924
0.2288128
0.224532
0.219953
0.2152796
0.2107183
0.2064618
0.2026911
0.19958
0.1973148
0.196179
0.1966937
0.1997558
0.2059334
0.2155874
0.2287116
0.2444676
0.2612958
0.277584
0.2917276
0.3021626
0.3078824
0.308298
0.3031464
0.2931839
0.2807545
0.2671378
0.2530957
0.239243
0.2260706
0.2139514
0.2031033
0.1936322
0.1854901
0.1785192
0.1725219
0.1673003
0.1626804
0.158525
0.1547348
0.1512434
0.1480093
0.1450102
0.1422391
0.1396989
0.1373991
0.1353519
0.1335687
0.1320557
0.1308129
0.1298348
0.1291112
0.1286284
0.1283731
0.1283327
0.1284911
0.128827
0.1293164
0.1299289
0.1306109
0.131274
0.1318042
0.1320886
0.1320393
0.1316063
0.1307796
0.1295829
0.1280641
0.1262841
0.1243081
0.122199
0.1200135
0.1178003
0.1155993
0.1134424
0.1113537
0.1093506
0.1074442
0.1056414
0.1039451
0.1023562
0.1008739
0.09949753
0.09822571
0.09705702
0.09598937
0.09501745
0.09413504
0.0933352
0.0926069
0.09193612
0.09130856
0.09071121
0.09013339
0.0895667
0.08900968
0.08846496
0.08793193
0.08741126
0.0869045
0.08641339
0.08593966
0.08548514
0.08505224
0.08464449
0.08426701
0.08392688
0.0836332
0.08339717
0.08323215
0.0831536
0.08317874
0.08332675
0.0836191
0.08407986
0.08473621
0.08561919
0.08676343
0.08820569
0.08998303
0.09212672
0.09465386
0.09756099
0.1008177
0.104372
0.1081557
0.1120612
0.1159436
0.119642
0.1229966
0.125875
0.128184
0.1298803
0.1309881
0.1315961
0.131826
0.1317979
0.1316103
0.1313283
0.1309765
0.1304837
0.1297884
0.1288308
0.1275682
0.1259811
0.1240711
0.1218532
0.1193556
0.1166021
0.1136186
0.1104302
0.1070676
0.1035435
0.09990546
0.09621091
0.09252882
0.08893654
0.08551182
0.08233432
0.07949078
0.07706608
0.07513238
0.07374493
0.07293982
0.0727339
0.07312052
0.07406728
0.07551007
0.07736065
0.07952475
0.08190413
0.08440025
0.08691605
0.08936132
0.09164723
0.0937224
0.09554563
0.09708449
0.09831536
0.09922349
0.09980269
0.1000551
0.09997926
0.0995804
0.09889802
0.09797748
0.09685717
0.09557043
0.09414712
0.09261616
0.09100566
0.08933819
0.08763565
0.08591936
0.0842089
0.08252277
0.08087711
0.0792853
0.07775803
0.07630336
0.07492701
0.07363265
0.07242234
0.0712969
0.07025638
0.06930013
0.06842767
0.06763908
0.06693326
0.06630776
0.06575883
0.06528155
0.06487003
0.06451765
0.06421714
0.06396079
0.06374097
0.06355067
0.06338377
0.06323524
0.06310119
0.06297894
0.0628669
0.06276442
0.06267154
0.0625888
0.06251698
0.0624569
0.06240928
0.06237468
0.06235347
0.06234584
0.06235184
0.06237145
0.06240472
0.0624519
0.06251347
0.06259034
0.06268405
0.0627969
0.06293216
0.06309407
0.0632879
0.06352002
0.06379771
0.0641288
0.06452132
0.06498298
0.06552064
0.06613976
0.06684376
0.06763363
0.06850751
0.0694605
0.07048471
0.07156934
0.07270113
0.0738648
0.07504367
0.07622025
0.07737692
0.07849648
0.07956268
0.08056055
0.08147664
0.08229905
0.08301851
0.08363249
0.08414077
0.08454513
0.08484905
0.08505748
0.08517655
0.08521291
0.0851729
0.08506204
0.08488384
0.08464293
0.08434443
0.0839921
0.08358862
0.08313613
0.08263673
0.08209274
0.0815064
0.08087985
0.08021454
0.07951226
0.07877313
0.07800061
0.07719221
0.07636077
0.07549426
0.07465022
0.0738606
0.002154819
0.00834763
0.01245983
0.01724978
0.02261896
0.02879487
0.03587915
0.04370673
0.05251917
0.06318668
0.0793451
0.08912196
0.09977517
0.1110516
0.1229986
0.1355571
0.1486706
0.1622261
0.1760437
0.1899875
0.2040327
0.2199889
0.2362755
0.2526795
0.269074
0.285358
0.3014336
0.3172356
0.3328034
0.3480712
0.3631077
0.3782682
0.3940013
0.4100508
0.4263999
0.4428766
0.4590511
0.4745153
0.4890747
0.5025814
0.5152877
0.5274528
0.5391958
0.5505006
0.5613188
0.5715378
0.5810247
0.5895068
0.5967489
0.6026293
0.6069317
0.6092394
0.6086015
0.6057582
0.6004724
0.5928205
0.5828187
0.5706835
0.556941
0.5419833
0.526218
0.5100513
0.4938533
0.4779403
0.4625701
0.4479393
0.4341903
0.4214245
0.4097018
0.3990541
0.3894809
0.3809502
0.3733957
0.3667209
0.3608218
0.3555927
0.3510402
0.3471005
0.343726
0.3406446
0.3379228
0.3355544
0.3334478
0.3314165
0.3293408
0.3271862
0.3250009
0.3228841
0.3209431
0.3192429
0.3177709
0.3164357
0.3151082
0.313685
0.3121239
0.3104518
0.3087504
0.3071259
0.3056682
0.3044091
0.3033057
0.30226
0.3011556
0.299901
0.2984636
0.2968832
0.2952646
0.2937491
0.2924543
0.2914217
0.2905887
0.2898047