/*--------------------------------*- C++ -*----------------------------------*\
| =========                 |                                                 |
| \\      /  F ield         | foam-extend: Open Source CFD                    |
|  \\    /   O peration     | Version:     3.1                                |
|   \\  /    A nd           | Web:         http://www.extend-project.de       |
|    \\/     M anipulation  |                                                 |
\*---------------------------------------------------------------------------*/
FoamFile
{
    version     2.0;
    format      ascii;
    class       volScalarField;
    location    "17";
    object      omega;
}
// * * * * * * * * * * * * * * * * * * * * * * * * * * * * * * * * * * * * * //

dimensions      [0 0 -1 0 0 0 0];

internalField   nonuniform List<scalar> 
119952
(
404.1781
515.4767
490.0222
427.5168
384.1341
387.5737
394.2079
402.5204
411.968
422.2644
433.2562
444.8441
456.965
469.5962
482.75
496.423
510.6587
525.5617
541.4489
559.6727
469.1265
467.3918
472.4247
397.4891
389.9193
386.2667
383.2986
380.789
374.8254
239.8457
830.45
697.0128
590.1406
512.6895
454.6666
409.8504
373.9269
344.4342
319.6101
292.0307
245.9825
213.459
190.7627
173.9168
160.6914
149.8113
140.5861
132.5975
125.5916
97.78661
93.9549
90.19082
86.51833
83.03408
79.79396
76.81809
74.10115
71.615
69.33895
67.34263
65.43679
63.5924
61.82627
60.1369
58.52494
56.9789
55.46406
53.98232
53.60604
53.40341
52.80185
52.31047
51.96561
51.71967
51.47807
51.2985
51.16257
51.06191
50.98815
50.93856
50.91544
50.92297
50.96384
51.03571
51.12705
51.20604
51.21191
51.03742
50.74662
50.46033
49.98786
49.45318
49.20365
49.07451
49.13032
49.7514
51.82773
55.07029
55.44405
55.51054
55.32392
55.11879
54.96572
54.92153
55.02397
55.33051
55.87649
56.68348
57.74915
59.03731
60.47507
61.95823
63.36578
64.57821
65.49369
66.04024
66.18088
65.91172
65.25539
64.25253
62.9711
61.496
59.89429
58.25235
56.678
55.2361
53.98233
52.95982
52.20113
51.73185
51.5794
51.79474
52.49894
53.92045
55.97442
58.62261
61.83056
65.50215
69.47606
73.54185
77.46993
81.04555
84.095
86.49754
88.18671
89.13226
89.26382
88.85943
88.19419
86.9691
85.39164
83.51884
81.45829
79.28231
77.05233
74.82348
72.66823
70.6379
68.75419
67.0412
65.52105
64.20705
63.11819
62.27785
61.68842
61.3598
61.31959
61.598
62.23385
63.26668
64.73959
66.68692
69.12707
72.05906
75.43554
79.11233
82.84561
86.30789
89.18383
91.22644
92.27406
92.29346
91.38524
89.74801
87.63423
85.28699
82.87025
80.50096
78.23924
76.10702
74.11219
72.26326
70.55826
69.00328
67.57923
66.26276
64.88371
67.83875
72.46289
75.04487
76.41347
77.08541
77.37965
77.492
77.5323
77.56811
77.63893
77.76554
77.95992
78.2298
78.57941
79.01086
79.52527
80.12289
80.80305
81.56405
82.40358
83.3197
84.31068
85.37462
86.50988
87.71478
88.98917
90.33396
91.75104
93.24301
94.81287
96.46294
98.19315
99.9939
101.8229
103.4841
103.6865
102.8656
102.2912
101.6839
101.1145
100.5959
100.1457
99.77954
99.514
99.36214
99.33247
99.43093
99.66249
100.0315
100.5455
101.248
102.1296
103.173
104.4118
105.8653
107.5131
109.3891
113.1586
121.0671
134.2546
150.2544
163.2644
170.2009
171.1413
169.6763
167.0132
160.0354
147.4665
132.5181
118.5919
98.80792
90.65797
83.34001
76.69945
70.78986
65.69702
61.37809
57.73736
54.67034
52.09993
49.94975
48.1201
46.53832
45.15365
43.92839
42.83313
41.84354
40.93681
40.09423
39.32033
38.6188
37.98675
37.41987
36.91522
36.46961
36.07899
35.73893
35.44512
35.19326
34.97897
34.79777
34.64477
34.51471
34.40242
34.303
34.21126
34.12161
34.02869
33.92771
33.81452
33.68568
33.53861
33.37185
33.18558
32.98336
32.76986
32.53881
32.28867
32.02285
31.74293
31.45199
31.1539
30.84933
30.5515
30.31392
29.96967
29.60836
29.22945
28.83768
28.4427
28.05222
27.67311
27.31083
26.96888
26.64848
26.34959
26.07199
25.81458
25.57542
25.35246
25.14352
24.94605
24.75871
24.58049
24.41107
24.25055
24.09933
23.95817
23.82814
23.71025
23.6053
23.51364
23.43524
23.36964
23.31617
23.27382
23.24142
23.21762
23.20083
23.18943
23.18175
23.17591
23.17007
23.16307
23.15413
23.14195
23.12518
23.10249
23.07336
23.03852
22.9979
22.95103
22.89666
22.83221
22.75796
22.67404
22.58049
22.47883
22.37054
22.25695
22.13936
22.01896
21.89689
21.77419
21.65186
21.53075
21.41161
21.29504
21.18146
21.07112
20.9641
20.86036
20.75974
20.66206
20.56707
20.47449
20.38401
20.29535
20.2082
20.12226
20.03716
19.95236
19.86687
19.77845
19.68179
19.56256
19.38456
19.08539
19.2841
756.4897
625.4781
560.1052
514.1625
475.3339
441.0077
410.4965
383.41
358.2983
298.2569
235.563
198.7272
175.6266
160.076
148.8811
140.2843
133.308
127.3929
100.7897
96.28082
91.93716
87.85906
84.13609
80.80093
77.83313
75.19348
72.83529
70.69832
68.82256
67.07043
65.34112
63.64528
61.99984
60.42224
58.92367
57.50677
56.16526
55.19904
54.51951
53.71531
52.82957
51.90327
50.96175
50.0238
49.10233
48.20368
47.33474
46.49547
45.67702
44.88385
44.11537
43.36948
42.64691
41.94894
41.27669
40.64136
36.4472
35.94744
35.46967
35.01227
34.57347
34.15184
33.74688
33.35748
32.98174
32.61498
32.25553
31.90475
31.56068
31.22249
30.89113
30.56895
30.25879
29.96909
29.71282
29.48292
29.24224
29.00523
28.79213
28.60082
28.41904
28.24569
28.08264
27.93083
27.79355
27.66772
27.55095
27.44465
27.35012
27.26739
27.19422
27.12495
27.05155
26.96598
26.86007
26.73577
26.60271
26.47042
26.36
26.27135
26.21112
26.18063
26.19356
26.23547
26.21911
26.12235
26.02841
25.94312
25.87584
25.83939
25.8456
25.90684
26.03495
26.23929
26.52491
26.88973
27.32269
27.80317
28.30197
28.78384
29.21157
29.55071
29.77372
29.8623
29.80778
29.61078
29.28088
28.83731
28.31014
27.74656
27.18262
26.6464
26.16357
25.75388
25.42978
25.19626
25.05286
24.99824
25.03519
25.17603
25.4503
25.91202
26.55187
27.36664
28.34698
29.47125
30.70318
31.99516
33.29378
34.54517
35.69894
36.71151
37.55095
38.19648
38.63791
38.88617
38.92315
38.76922
38.44485
37.97448
37.38435
36.70163
35.95378
35.16659
34.36189
33.55823
32.77143
32.01491
31.30005
30.63646
30.03443
29.50404
29.05526
28.69799
28.44348
28.30472
28.29614
28.43236
28.72658
29.18884
29.824
30.62753
31.58068
32.64925
33.78794
34.94826
36.08199
37.14688
38.11007
38.94835
39.64378
40.18346
40.56061
40.77322
40.82323
40.72075
40.47749
40.11515
39.64837
39.09965
38.47795
37.8055
37.08233
36.32269
36.27343
35.92737
35.44846
34.86828
34.21536
33.52147
32.80734
32.08798
31.37483
30.67634
29.99853
29.34534
28.71902
28.12057
27.55011
27.00722
26.49107
26.00062
25.5347
25.09213
24.67181
24.27273
23.89383
23.53465
23.19328
22.87001
22.5637
22.27359
21.99899
21.73932
21.49404
21.26249
21.04354
20.83455
20.62998
20.42283
20.21692
20.02798
19.85743
19.70581
19.57512
19.46666
19.38147
19.32045
19.28442
19.27432
19.2912
19.33628
19.41088
19.51657
19.6544
19.82553
20.03304
20.28418
20.6033
21.04748
21.68234
22.62731
24.05496
26.10209
28.68673
31.5412
34.65099
38.31623
42.69482
47.33451
51.74673
55.80002
59.35958
62.32419
56.36972
56.96092
56.85735
56.1559
54.88879
53.0814
50.81695
48.24076
45.52004
42.79668
40.17435
37.72373
35.48485
33.46943
31.67158
30.07646
28.66525
27.41865
26.31888
25.35145
24.49962
23.74608
23.07542
22.47522
21.93622
21.45145
21.01547
20.62405
20.27392
19.96263
19.68817
19.44874
19.24271
19.06853
18.92444
18.80825
18.7175
18.64947
18.60112
18.56902
18.54945
18.53845
18.53203
18.52617
18.51679
18.4996
18.47003
18.4248
18.36196
18.27988
18.17757
18.05537
17.91757
17.77137
17.61117
17.43068
17.24019
17.04415
16.8439
16.64093
16.43677
16.23284
16.03053
15.83122
15.63625
15.4468
15.2635
15.08636
14.91549
14.75097
14.5929
14.44139
14.2966
14.15897
14.02933
13.90836
13.7967
13.69495
13.60372
13.52355
13.45496
13.3983
13.35378
13.32141
13.30091
13.29166
13.29268
13.3026
13.31968
13.34215
13.36891
13.39871
13.43024
13.46154
13.48993
13.51316
13.52935
13.53698
13.53482
13.52205
13.49825
13.46346
13.41819
13.36335
13.30004
13.22978
13.15401
13.07193
12.98267
12.88776
12.78897
12.68779
12.58549
12.48314
12.38166
12.28181
12.18413
12.08903
11.9967
11.90718
11.82038
11.73611
11.65413
11.57416
11.49588
11.419
11.34318
11.26814
11.19362
11.11935
11.04506
10.97037
10.89464
10.81681
10.73496
10.64663
10.55066
10.45642
10.38672
628.2951
555.2414
495.5215
451.6279
418.2583
392.5086
372.4714
357.2858
346.4601
331.6358
188.9882
176.3756
165.6207
156.0569
147.9684
141.8881
139.2816
136.8881
127.7964
84.98504
83.27459
82.65358
82.03165
81.33476
80.62416
79.90615
79.14243
78.27056
76.79
73.79424
71.4903
69.98241
68.86603
67.91032
67.01618
66.14379
65.2773
64.41151
64.4682
63.68878
62.57902
61.37218
60.18018
59.04557
57.97873
56.97593
56.03092
55.1442
54.2856
53.4383
52.59361
51.74974
50.91283
50.09005
49.2867
48.51446
44.78625
44.12874
43.50215
42.89918
42.31536
41.74676
41.19086
40.64594
40.11147
39.58611
39.06744
38.55745
38.05875
37.57119
37.09504
36.63076
36.17774
35.7349
35.30071
34.87256
34.45014
34.03641
33.63272
33.2396
32.85778
32.48739
32.1274
31.77552
31.42854
31.08558
30.74694
30.41257
30.0839
29.76332
29.4524
29.1517
28.85914
28.5639
28.32053
28.07374
27.82539
27.57702
27.33079
27.08935
26.85491
26.62815
26.40792
26.19174
25.97753
25.76352
25.54965
25.33717
25.12911
24.92844
24.73829
24.55979
24.39337
24.2352
24.07706
23.91612
23.75844
23.60842
23.46599
23.33005
23.20002
23.07511
22.95428
22.83767
22.72758
22.62433
22.53006
22.44539
22.3689
22.29727
22.22448
22.14626
22.05908
21.96224
21.85912
21.75233
21.64782
21.55544
21.47489
21.40139
21.33111
21.26415
21.18768
21.08911
20.98824
20.89869
20.83095
20.79267
20.78978
20.82528
20.9045
21.03285
21.21214
21.43908
21.7048
21.99526
22.29213
22.57428
22.81975
23.00829
23.12363
23.15481
23.09617
22.94705
22.71207
22.40218
22.03756
21.65532
21.29535
20.98091
20.73202
20.56138
20.47163
20.45469
20.49496
20.57463
20.67812
20.79607
20.9312
21.11019
21.38429
21.76036
22.23473
22.79675
23.43075
24.11621
24.82942
25.54373
26.23121
26.86554
27.42298
27.88351
28.23179
28.46106
28.56613
28.54631
28.40917
28.16666
27.8319
27.42222
26.9557
26.44992
25.92092
25.3831
24.84917
24.32966
23.83285
23.36585
22.93569
22.54944
22.2133
21.93286
21.71398
21.56377
21.4888
21.49636
21.59176
21.77812
22.05603
22.42286
22.87166
23.39207
23.96876
24.58306
25.21749
25.8517
26.46765
27.04926
27.58247
28.05502
28.45615
28.77779
29.01592
29.16909
29.24023
29.23243
29.15529
29.01268
28.81822
28.57193
28.28982
27.97022
27.70248
27.36962
26.99331
26.58324
26.14578
25.67874
25.1845
24.6707
24.14413
23.61078
23.07597
22.5442
22.01916
21.50371
20.99996
20.50937
20.0329
19.57105
19.1241
18.69219
18.27536
17.87378
17.48789
17.11685
16.76136
16.42152
16.09742
15.78912
15.4967
15.22025
14.95982
14.71549
14.48706
14.2742
14.0766
13.89451
13.72952
13.5831
13.4553
13.34571
13.25338
13.1768
13.11411
13.06339
13.02289
12.99116
12.96727
12.95077
12.9418
12.94104
12.94958
12.96899
13.00178
13.05275
13.13164
13.24971
13.42112
13.66499
14.00163
14.44653
15.01019
15.71168
16.59076
17.69182
19.04024
20.62176
22.42225
24.41747
26.56403
28.70274
31.40632
33.95744
36.13309
37.8815
39.21829
40.14175
40.63895
40.71917
40.4075
39.73982
38.75887
37.51833
36.08628
34.53858
32.94807
31.37548
29.86518
28.44598
27.13303
25.92962
24.8321
23.83517
22.93357
22.11789
21.37639
20.69969
20.08058
19.51336
18.99362
18.51809
18.08422
17.69002
17.33403
17.01524
16.73255
16.48466
16.27033
16.08844
15.93768
15.81637
15.72249
15.65368
15.60713
15.57961
15.56733
15.56604
15.571
15.57746
15.58087
15.57696
15.56245
15.53644
15.49597
15.43894
15.3657
15.27596
15.17062
15.05032
14.9159
14.76901
14.61188
14.44691
14.27643
14.10265
13.92756
13.75296
13.58044
13.41127
13.24649
13.08695
12.93336
12.78634
12.64644
12.51391
12.38859
12.27054
12.15996
12.05715
11.96258
11.87672
11.8
11.73278
11.67534
11.62787
11.59036
11.56261
11.54428
11.53515
11.53493
11.54291
11.55731
11.57621
11.59755
11.61926
11.6392
11.65534
11.66581
11.66902
11.66365
11.64876
11.62378
11.58851
11.54314
11.48821
11.42454
11.35324
11.27565
11.19341
11.10812
11.01915
10.92726
10.83345
10.73867
10.64374
10.5494
10.45623
10.36469
10.27509
10.18756
10.10208
10.01853
9.936713
9.856388
9.777309
9.699213
9.621834
9.544911
9.468208
9.391508
9.314625
9.237336
9.159434
9.080479
9.000126
8.917439
8.832505
8.744753
8.659739
8.585075
360.6029
262.0819
374.7242
170.0767
133.6728
98.79189
85.70641
74.73844
65.62897
61.26948
59.48038
58.52369
57.63796
56.83994
56.06243
55.3647
54.72736
54.13858
53.66148
53.31965
53.03985
52.89106
53.03108
53.33767
53.68952
54.07862
54.50007
54.95155
55.40624
55.79385
56.02207
54.79162
55.31786
55.9222
56.38975
56.74804
56.99318
57.1191
57.11716
56.99549
56.77099
56.42595
55.98046
55.46041
54.88211
54.25567
53.5891
52.88992
52.16538
51.42271
50.67266
49.92167
49.1664
48.40821
47.64991
46.89323
46.14029
45.39376
44.6554
43.93041
43.22006
42.52649
41.85102
41.19452
40.55799
39.93993
39.34115
38.7497
38.21066
37.68018
37.16287
36.65898
36.16875
35.69253
35.22975
34.77901
34.33804
33.90477
33.47796
33.05812
32.64666
32.24553
31.85666
31.48097
31.11767
30.76438
30.41789
30.07541
29.73555
29.399
29.06815
28.74597
28.43482
28.13561
27.84711
27.56617
27.28915
27.01348
26.73853
26.4654
26.1971
25.93688
25.68759
25.44931
25.22065
24.99691
24.77659
24.55716
24.3379
24.1201
23.90698
23.70238
23.50897
23.327
23.1543
22.98684
22.82037
22.65249
22.48334
22.31514
22.15173
21.99673
21.85245
21.71865
21.59295
21.47128
21.348
21.2204
21.09214
20.96868
20.85283
20.74504
20.6448
20.5504
20.45943
20.37064
20.28509
20.20602
20.1355
20.07439
20.02142
19.9729
19.92377
19.86955
19.80744
19.73765
19.66299
19.58696
19.51251
19.44164
19.37231
19.30109
19.22831
19.15703
19.08962
19.02889
18.98397
18.96618
18.97772
19.0174
19.08228
19.1721
19.28951
19.43303
19.59825
19.77794
19.96302
20.14366
20.30986
20.45159
20.55906
20.62343
20.63783
20.59821
20.50316
20.35405
20.15546
19.91685
19.65652
19.41028
19.2283
19.13891
19.16306
19.30725
19.55824
19.8851
20.25015
20.60894
20.91333
21.12154
21.20848
21.1813
21.11159
21.0777
21.09475
21.16852
21.30099
21.48914
21.72442
21.99493
22.28531
22.57767
22.85314
23.0936
23.28313
23.40954
23.46426
23.44247
23.34403
23.1727
22.93614
22.64392
22.30824
21.94039
21.5531
21.15749
20.76334
20.3788
20.01019
19.6626
19.34129
19.0496
18.79238
18.57307
18.39511
18.26248
18.17931
18.14883
18.1724
18.24943
18.37782
18.55453
18.7758
19.03681
19.33217
19.6554
19.99896
20.35432
20.71242
21.06415
21.40054
21.71296
21.99357
22.23584
22.43469
22.5867
22.69039
22.74589
22.75591
22.72355
22.65414
22.55237
22.42348
22.27155
22.10233
21.91958
21.71934
21.49825
21.2569
21.00146
20.734
20.44698
20.13987
19.81481
19.47476
19.12309
18.76326
18.39853
18.03218
17.6658
17.30183
16.94179
16.58687
16.23807
15.89669
15.56282
15.2378
14.92258
14.61833
14.32517
14.04441
13.77688
13.52334
13.28453
13.06146
12.85438
12.66432
12.49195
12.33798
12.2031
12.08811
11.99358
11.91915
11.86352
11.82465
11.7996
11.78491
11.77701
11.7726
11.76898
11.76416
11.75726
11.74853
11.73922
11.73087
11.72534
11.72492
11.73299
11.75552
11.79701
11.86288
11.96068
12.09961
12.28835
12.53723
12.85929
13.27647
13.80847
14.47638
15.28351
16.24395
17.34901
18.60855
19.99779
21.51299
23.12885
24.75142
26.30714
27.7479
29.04609
30.17399
31.10585
31.82255
32.3113
32.56527
32.5849
32.37817
31.95906
31.35063
30.5837
29.69485
28.72281
27.70492
26.67388
25.65477
24.6646
23.71391
22.81053
21.95958
21.16245
20.41812
19.72442
19.07873
18.47859
17.92171
17.40594
16.92941
16.49071
16.08907
15.72415
15.39525
15.10172
14.84295
14.61825
14.42677
14.26748
14.13905
14.03977
13.96745
13.91943
13.89246
13.88279
13.88631
13.89867
13.91606
13.93422
13.94894
13.95661
13.9541
13.93824
13.90686
13.85898
13.79445
13.71376
13.618
13.50871
13.38775
13.2572
13.11924
12.97602
12.82962
12.68192
12.53459
12.3891
12.24666
12.10825
11.97464
11.84639
11.72397
11.60773
11.49802
11.39513
11.29922
11.21038
11.12881
11.05474
10.98844
10.93016
10.88014
10.83867
10.80595
10.78176
10.76562
10.75677
10.75418
10.75655
10.76238
10.77003
10.77773
10.78371
10.78626
10.78379
10.77496
10.75865
10.73407
10.70075
10.65858
10.60775
10.54878
10.48243
10.40971
10.33179
10.24998
10.1654
10.07813
9.988855
9.89827
9.807017
9.715671
9.624725
9.534576
9.445498
9.357623
9.270951
9.185389
9.100792
9.01699
8.933812
8.851095
8.768696
8.686391
8.60397
8.521285
8.438241
8.354723
8.270672
8.18587
8.100347
8.01362
7.926471
7.838002
7.752899
7.674594
320.4231
215.7996
163.0803
145.7085
118.7558
99.86357
86.11618
80.8132
74.85564
71.39113
68.39383
64.3532
60.29099
56.44051
52.91502
49.03651
43.04528
41.65415
40.63684
40.08209
39.93709
40.05855
40.29456
40.591
40.94188
41.3476
41.82483
42.38735
43.00173
43.65336
44.33766
45.04918
45.78202
46.534
47.30016
48.07939
48.87332
49.69058
50.55343
51.4708
52.44104
53.3842
54.00764
54.61763
55.14876
55.53757
55.77126
55.84426
55.75798
55.5201
55.1452
54.65722
54.06864
53.3912
52.64012
51.83194
50.98115
50.0999
49.19929
48.28803
47.37442
46.46401
45.56407
44.67955
43.81431
42.97058
42.1497
41.34964
40.57152
39.81535
39.08407
38.37858
37.69985
37.04949
36.42843
35.83623
35.27015
34.72658
34.19992
33.68783
33.19125
32.71243
32.25206
31.81094
31.3896
30.98682
30.59944
30.22309
29.85364
29.48846
29.12701
28.77124
28.42519
28.0929
27.77639
27.47485
27.18475
26.90099
26.61883
26.33533
26.05051
25.76808
25.49365
25.2321
24.98561
24.75238
24.52765
24.30556
24.0814
23.85346
23.62355
23.39638
23.17764
22.97198
22.78093
22.60206
22.4299
22.25842
22.0834
21.90394
21.7227
21.54505
21.37716
21.22337
21.08436
20.95721
20.83597
20.71408
20.58815
20.45828
20.3281
20.20354
20.08971
19.98865
19.89918
19.81728
19.73694
19.65276
19.56418
19.47699
19.39886
19.33423
19.28351
19.245
19.21512
19.18978
19.1677
19.15117
19.14346
19.14616
19.1578
19.17503
19.19251
19.20393
19.20462
19.19335
19.17289
19.14824
19.12421
19.10331
19.08477
19.06608
19.04546
19.02706
19.02009
19.03848
19.10292
19.22245
19.40043
19.63238
19.90479
20.19831
20.49117
20.76419
21.01098
21.21172
21.35041
21.41899
21.42053
21.36816
21.27822
21.16181
21.0235
20.86559
20.69028
20.50013
20.29893
20.09311
19.89421
19.72513
19.6361
19.71438
20.01218
20.54475
21.28643
22.17813
23.14007
24.09931
24.97027
25.65769
26.08141
26.18489
25.95048
25.44375
24.83798
24.19243
23.54839
22.9497
22.44048
22.04138
21.74786
21.54671
21.41915
21.34323
21.29643
21.25785
21.20961
21.13769
21.03224
20.88763
20.70213
20.47753
20.21848
19.93157
19.62571
19.3081
18.98754
18.67114
18.3648
18.07373
17.8002
17.54772
17.31914
17.11716
16.94383
16.80103
16.69102
16.61617
16.57764
16.57438
16.60334
16.66048
16.7418
16.84401
16.96462
17.10171
17.25341
17.41749
17.59099
17.77025
17.95097
18.12838
18.2975
18.45344
18.59159
18.70779
18.79865
18.86173
18.89576
18.90084
18.87829
18.83056
18.76118
18.67345
18.57147
18.4574
18.3328
18.1989
18.05578
17.90266
17.73884
17.56408
17.3809
17.18625
16.97738
16.75499
16.52044
16.27562
16.02261
15.76345
15.5001
15.23416
14.96706
14.70001
14.43415
14.17056
13.91037
13.65472
13.40485
13.16198
12.92752
12.70276
12.48905
12.28775
12.10022
11.92784
11.77204
11.63428
11.51605
11.41879
11.34375
11.29162
11.26232
11.25483
11.26707
11.29569
11.33598
11.38238
11.42924
11.47154
11.50524
11.52771
11.53825
11.53815
11.53002
11.51689
11.50187
11.48769
11.47716
11.47301
11.47589
11.48756
11.51137
11.5522
11.61587
11.7096
11.84193
12.02512
12.27104
12.59243
12.99897
13.50128
14.10416
14.81405
15.62835
16.53926
17.53875
18.60716
19.71355
20.82616
21.91777
22.96167
23.92944
24.79884
25.55098
26.16992
26.64486
26.96927
27.13967
27.15669
27.02627
26.75952
26.372
25.88275
25.31127
24.67715
23.99902
23.29355
22.575
21.85481
21.14016
20.43911
19.76069
19.10969
18.48888
17.89956
17.34205
16.81606
16.32123
15.85792
15.42675
15.02767
14.66048
14.32529
14.02223
13.7514
13.51275
13.30603
13.13072
12.98598
12.87061
12.78299
12.72104
12.68226
12.6637
12.66191
12.6729
12.69256
12.71674
12.74137
12.76258
12.77694
12.78168
12.77465
12.75435
12.71993
12.67121
12.60863
12.53315
12.44614
12.34926
12.24436
12.13333
12.01807
11.90033
11.78173
11.66368
11.54739
11.43386
11.3239
11.21815
11.11713
11.02122
10.9307
10.84583
10.76685
10.69397
10.62739
10.5673
10.5139
10.46732
10.42761
10.39467
10.36828
10.34806
10.33339
10.32347
10.31731
10.31372
10.31138
10.30891
10.30484
10.29777
10.2864
10.2696
10.24642
10.2162
10.17856
10.13338
10.08083
10.02131
9.955456
9.884041
9.807968
9.728229
9.645301
9.559646
9.471825
9.382363
9.291747
9.200422
9.108788
9.017165
8.925765
8.834691
8.743973
8.653521
8.563205
8.472927
8.382603
8.292128
8.201411
8.110443
8.019262
7.927934
7.836499
7.745052
7.653568
7.56226
7.470911
7.380389
7.289829
7.203064
7.122823
163.5357
120.6656
185.2341
91.08112
78.13119
67.0631
63.84563
61.60927
59.1458
58.2418
57.01359
55.18591
53.47875
51.63077
49.41433
44.8847
43.88385
42.94053
42.02046
41.12823
40.21795
39.33926
38.55142
37.89171
37.38586
37.03947
36.77229
36.50361
36.42414
36.56023
36.89309
37.36221
37.90168
38.4827
39.09951
39.76564
40.47544
41.21497
41.97672
42.75818
43.55592
44.36563
45.18009
45.99849
46.82739
47.67755
48.53517
49.41791
50.34583
51.30539
52.19444
52.95413
53.50006
53.91908
54.13793
54.14192
53.94411
53.56017
53.00834
52.31032
51.49028
50.57314
49.58269
48.53968
47.46274
46.36961
45.274
44.18709
43.11663
42.06775
41.04559
40.05388
39.09893
38.18644
37.32848
36.52524
35.77386
35.06803
34.40133
33.76891
33.16282
32.5818
32.0271
31.50132
31.00653
30.54235
30.10512
29.68852
29.28625
28.89367
28.50946
28.13542
27.77495
27.43197
27.1089
26.80518
26.51707
26.2386
25.96332
25.68648
25.40676
25.12657
24.85167
24.5891
24.34385
24.11626
23.9018
23.69314
23.48264
23.26511
23.04015
22.81284
22.59134
22.38348
22.19397
22.02146
21.85928
21.69901
21.53352
21.35968
21.17942
20.99915
20.82735
20.6712
20.53378
20.41227
20.29918
20.18603
20.06693
19.94067
19.81091
19.68504
19.5717
19.47685
19.40042
19.33682
19.27781
19.21586
19.14833
19.07728
19.00913
18.95298
18.91547
18.89664
18.89083
18.8899
18.88748
18.8843
18.8925
18.93064
19.01206
19.1375
19.29687
19.47706
19.66295
19.84578
20.03063
20.22983
20.45068
20.68565
20.91392
21.11831
21.28815
21.41778
21.50864
21.56893
21.61313
21.65419
21.69962
21.75125
21.80675
21.8645
21.92876
22.01317
22.13785
22.34346
22.65695
23.08128
23.61111
24.22474
24.88621
25.55801
26.19702
26.73559
27.12136
27.31748
27.30106
27.08066
26.69297
26.1948
25.64705
25.09461
24.56233
24.06473
23.61216
23.21323
22.87806
22.62106
22.46397
22.44373
22.63311
23.16535
24.11234
25.45248
27.09019
28.8828
30.6609
32.27988
33.62599
34.60649
35.16655
35.2658
34.86685
33.97852
32.73133
31.26241
29.68837
28.12052
26.66415
25.38439
24.29796
23.40898
22.69917
22.13629
21.68657
21.31826
21.00381
20.72087
20.45245
20.18657
19.91563
19.63595
19.34712
19.05125
18.75205
18.45511
18.16438
17.88483
17.62018
17.37322
17.14585
16.93931
16.75481
16.59367
16.45687
16.34495
16.25845
16.19788
16.16248
16.14903
16.15223
16.16631
16.18656
16.21007
16.23576
16.26388
16.29538
16.33117
16.37173
16.4168
16.46531
16.5155
16.565
16.61111
16.65088
16.68138
16.69987
16.704
16.69204
16.66312
16.6173
16.55557
16.47985
16.39248
16.29609
16.19286
16.08452
15.97231
15.85635
15.73579
15.6094
15.476
15.33504
15.18802
15.03464
14.87272
14.70246
14.52457
14.34009
14.15018
13.95603
13.75873
13.5593
13.35868
13.15779
12.9576
12.75916
12.56361
12.37224
12.18644
12.0077
11.83758
11.67772
11.52983
11.39572
11.27736
11.17692
11.09664
11.03885
11.00569
10.99864
11.01821
11.06382
11.13368
11.22468
11.33175
11.44773
11.5642
11.67268
11.76586
11.8382
11.88661
11.9115
11.91667
11.90778
11.89061
11.87008
11.84983
11.83213
11.81532
11.79737
11.77733
11.75614
11.73667
11.72337
11.72188
11.7391
11.78269
11.86112
11.98317
12.157
12.39022
12.68934
13.05958
13.50393
14.02243
14.61264
15.26876
15.98024
16.73356
17.51336
18.30235
19.08231
19.83526
20.5431
21.18811
21.75332
22.2241
22.59111
22.8485
22.99441
23.0308
22.96381
22.8031
22.55964
22.24496
21.87084
21.44881
20.99
20.5053
20.00576
19.49754
18.97869
18.45476
17.93337
17.41998
16.91853
16.43188
15.96234
15.51181
15.08148
14.67258
14.28633
13.92391
13.58651
13.27518
12.99083
12.73415
12.50558
12.30532
12.13327
11.98901
11.87179
11.78056
11.71385
11.66961
11.64514
11.63739
11.64304
11.65858
11.68042
11.70505
11.72912
11.74957
11.76373
11.76939
11.76493
11.7493
11.72206
11.68329
11.63355
11.57382
11.50534
11.42959
11.34812
11.26249
11.17422
11.08472
10.99524
10.90688
10.82056
10.73706
10.65699
10.58083
10.50895
10.44163
10.37909
10.32148
10.26891
10.22147
10.1792
10.14209
10.11008
10.08302
10.06069
10.04273
10.02862
10.01774
10.00929
10.00236
9.995905
9.988819
9.979955
9.968185
9.952456
9.93184
9.905577
9.87311
9.834099
9.788423
9.736173
9.677624
9.613202
9.543442
9.468943
9.390222
9.307611
9.221606
9.132686
9.041313
8.947943
8.853027
8.756993
8.660205
8.562877
8.465062
8.366741
8.267941
8.168722
8.069141
7.969256
7.86922
7.769252
7.669561
7.57036
7.471823
7.374142
7.277403
7.181876
7.087452
6.994908
6.903441
6.816193
6.735712
67.1554
49.92227
48.22336
45.80985
44.79481
43.57096
42.61276
41.81398
41.15717
40.10749
37.47637
37.39018
37.32372
37.26945
37.19437
37.08541
36.97902
36.90463
36.87259
36.86854
36.74482
36.37661
36.00908
35.64706
35.29851
34.9688
34.68273
34.46092
34.31335
34.2444
34.24731
34.31254
34.45993
34.72131
35.10899
35.60974
36.1872
36.8039
37.44061
38.11228
38.81871
39.55452
40.31875
41.10597
41.91519
42.74487
43.59637
44.45518
45.31031
46.17796
47.11407
48.02727
48.93508
49.79595
50.54452
51.13028
51.50364
51.64474
51.55686
51.23685
50.69712
49.96145
49.05856
48.01883
46.87317
45.65158
44.38168
43.09041
41.80045
40.53185
39.30078
38.11801
36.9901
35.91823
34.90225
33.94107
33.04571
32.2174
31.45697
30.76408
30.13637
29.56796
29.04998
28.56786
28.11043
27.67113
27.24841
26.84466
26.46445
26.11186
25.7877
25.4881
25.20543
24.93148
24.66014
24.38912
24.12022
23.85855
23.61065
23.38125
23.17126
22.97694
22.79117
22.60572
22.4139
22.21293
22.00531
21.79856
21.60211
21.42357
21.26531
21.12212
20.98477
20.84371
20.69216
20.52885
20.35927
20.19402
20.04413
19.91534
19.80588
19.70801
19.61199
19.50977
19.39794
19.27936
19.16263
19.05885
18.97656
18.91738
18.87513
18.83939
18.80129
18.75748
18.7107
18.66838
18.64056
18.63634
18.65869
18.70086
18.74804
18.78729
18.81662
18.8466
18.8952
18.98264
19.1248
19.32137
19.55403
19.79766
20.03006
20.24756
20.48345
20.80134
21.25051
21.83738
22.52823
23.26606
23.99063
24.66149
25.26832
25.8451
26.4409
27.07486
27.71249
28.29541
28.76313
29.08756
29.27275
29.35152
29.36879
29.37054
29.38439
29.41663
29.4617
29.51489
29.58356
29.69124
29.87313
30.165
30.61925
31.24314
32.00215
32.85662
33.76009
34.658
35.51678
36.31196
36.97066
37.34765
37.38865
37.07054
36.43147
35.5477
34.50503
33.38581
32.2659
31.20669
30.24869
29.41626
28.72815
28.20642
27.88205
27.79908
28.02006
28.62947
29.72611
31.29753
33.30398
35.64663
38.09815
40.40994
42.40433
43.93724
44.90087
45.3006
45.1557
44.43135
43.12241
41.34044
39.28115
37.08588
34.87427
32.73418
30.72923
28.9117
27.32374
25.97324
24.84434
23.90527
23.11914
22.45214
21.87551
21.36613
20.90625
20.48275
20.08665
19.71242
19.3574
19.02102
18.70473
18.40896
18.1359
17.88679
17.66239
17.46299
17.28843
17.13847
17.01294
16.91143
16.83275
16.77491
16.73524
16.70967
16.69193
16.67414
16.64912
16.6123
16.56223
16.50009
16.42881
16.35213
16.27379
16.19691
16.12374
16.05547
15.99233
15.93374
15.87842
15.82469
15.77055
15.71389
15.65271
15.58525
15.51027
15.42714
15.33591
15.23739
15.13287
15.024
14.91237
14.79929
14.6856
14.57141
14.45625
14.33922
14.21927
14.09545
13.96728
13.83547
13.70035
13.56095
13.41748
13.27038
13.12027
12.9678
12.81365
12.65848
12.50298
12.34786
12.19397
12.04224
11.89374
11.7497
11.61151
11.48072
11.35904
11.24835
11.15071
11.06843
11.00408
10.96048
10.94065
10.94763
10.98397
11.05133
11.15042
11.28065
11.43988
11.62371
11.82436
12.03076
12.22934
12.40692
12.55315
12.6612
12.72872
12.75953
12.76298
12.75017
12.7308
12.71186
12.69714
12.6837
12.66509
12.63674
12.59473
12.53759
12.46701
12.38712
12.304
12.22529
12.15951
12.11458
12.09742
12.11413
12.16977
12.26928
12.417
12.61644
12.87
13.1784
13.54065
13.95415
14.41427
14.91381
15.44311
15.9914
16.54719
17.09711
17.62682
18.12203
18.56928
18.95671
19.27478
19.51667
19.67867
19.76042
19.7645
19.69677
19.56478
19.37688
19.14167
18.86747
18.56209
18.23278
17.88656
17.53182
17.16887
16.79356
16.4099
16.02216
15.63374
15.24729
14.86519
14.48983
14.1234
13.76791
13.42537
13.09777
12.78703
12.49491
12.22297
11.97251
11.74456
11.5399
11.359
11.20207
11.06907
10.95966
10.87318
10.80822
10.76294
10.73519
10.7225
10.72219
10.7314
10.74719
10.76663
10.78693
10.80551
10.82009
10.82882
10.83026
10.82346
10.80795
10.78371
10.7511
10.71082
10.66384
10.6113
10.55443
10.49448
10.4327
10.37024
10.30814
10.24734
10.1886
10.13256
10.07972
10.03043
9.984958
9.943441
9.905954
9.872503
9.84304
9.817471
9.795659
9.777421
9.762519
9.750652
9.741443
9.734429
9.729053
9.724659
9.720501
9.71575
9.709526
9.700921
9.689042
9.673053
9.652209
9.625891
9.593633
9.555126
9.510226
9.458937
9.401389
9.337804
9.26846
9.193627
9.11352
9.028593
8.939323
8.846197
8.749725
8.65045
8.548958
8.445743
8.341041
8.235037
8.128009
8.020266
7.912109
7.803841
7.695776
7.588248
7.481597
7.376146
7.272195
7.169963
7.069657
6.971353
6.875264
6.781251
6.689899
6.600419
6.51539
6.437272
91.47895
38.65519
32.33425
31.02996
30.36743
30.09601
30.12413
30.32686
30.65917
31.08247
31.43983
31.61513
31.79266
31.95697
32.11032
32.2452
32.36937
32.48385
32.57554
32.62179
32.59729
32.51886
32.44138
32.37186
32.31772
32.285
32.2859
32.32918
32.41408
32.54187
32.71389
32.93309
33.2101
33.55231
33.96605
34.44395
34.96736
35.51724
36.12388
36.78942
37.50708
38.27739
39.10241
39.95261
40.82677
41.72157
42.65823
43.59978
44.51368
45.42593
46.34627
47.2214
47.98399
48.58148
48.96373
49.09797
48.97594
48.60854
47.98162
47.12412
46.07018
44.85851
43.53022
42.12596
40.68352
39.23483
37.80631
36.42008
35.09441
33.84469
32.68221
31.6143
30.63929
29.75607
28.95414
28.22295
27.5552
26.94823
26.40205
25.91241
25.47899
25.09635
24.75284
24.43332
24.12479
23.82041
23.51993
23.22867
22.95514
22.70688
22.48598
22.28764
22.10224
21.91986
21.73364
21.54127
21.34506
21.15138
20.96862
20.80343
20.65807