/*--------------------------------*- C++ -*----------------------------------*\
| =========                 |                                                 |
| \\      /  F ield         | foam-extend: Open Source CFD                    |
|  \\    /   O peration     | Version:     3.1                                |
|   \\  /    A nd           | Web:         http://www.extend-project.de       |
|    \\/     M anipulation  |                                                 |
\*---------------------------------------------------------------------------*/
FoamFile
{
    version     2.0;
    format      ascii;
    class       surfaceScalarField;
    location    "17";
    object      phi;
}
// * * * * * * * * * * * * * * * * * * * * * * * * * * * * * * * * * * * * * //

dimensions      [0 3 -1 0 0 0 0];

internalField   nonuniform List<scalar> 
275122
(
-0.0003957115
0.0004010929
-3.919623e-07
-4.989461e-06
-0.0003537463
0.0003371699
1.35963e-06
1.521676e-05
-0.000350478
0.0003594066
-3.809568e-07
-8.547609e-06
-0.000389441
0.0003998146
-4.647084e-07
-9.908893e-06
-0.0004257254
0.000428772
-5.380308e-07
-2.508576e-06
-0.0004286284
0.0004279419
-4.729933e-07
1.159441e-06
-0.0004241717
0.0004227231
-4.381248e-07
1.886716e-06
-0.0004178129
0.0004160235
-4.135019e-07
2.202925e-06
-0.0004103744
0.0004084224
-3.921373e-07
2.344128e-06
-0.0004024377
0.0004004011
-3.700519e-07
2.406693e-06
-0.000394181
0.0003920696
-3.463781e-07
2.457833e-06
-0.0003856352
0.0003834566
-3.216757e-07
2.500198e-06
-0.000376828
0.0003746013
-3.064335e-07
2.53313e-06
-0.0003678497
0.0003655868
-3.048835e-07
2.567774e-06
-0.0003587173
0.000356399
-2.777017e-07
2.596e-06
-0.0003494321
0.0003470765
-2.522582e-07
2.607866e-06
-0.000340051
0.0003376817
-2.055155e-07
2.574816e-06
-0.0003307339
0.0003284749
-2.150666e-07
2.474078e-06
-0.0003220253
0.000320182
-2.471125e-07
2.090427e-06
-0.0003162867
0.0003165959
-6.41079e-07
3.318604e-07
-0.0003504446
0.0003640738
-1.269814e-06
-1.235939e-05
-0.0003673616
0.0003670965
-2.785023e-07
5.436689e-07
-0.0003702896
0.0003722842
-1.538602e-07
-1.840716e-06
-0.0004123611
0.000427165
3.268334e-07
-1.513077e-05
-0.0004291774
0.0004285496
6.127284e-07
1.503869e-08
-0.0004314096
0.0004322315
-2.955634e-07
-5.262805e-07
-0.0004323664
0.0004316277
-2.600468e-07
9.98795e-07
-0.0004278756
0.0004244456
-2.0921e-07
3.639151e-06
-0.0004005162
0.0003746924
-2.827394e-07
2.610655e-05
-0.0002132574
0.000219671
5.425996e-09
-6.419002e-06
-0.0002674902
0.0002811817
-7.158164e-08
-1.361997e-05
-0.0003202909
0.0003332601
7.514319e-09
-1.297673e-05
-0.000372859
0.0003862667
8.533249e-09
-1.341623e-05
-0.0004268797
0.0004405855
9.520462e-09
-1.371529e-05
-0.0004824192
0.0004964884
1.057837e-08
-1.407976e-05
-0.000539603
0.0005541368
7.096576e-09
-1.454083e-05
-0.0005981403
0.0006129789
1.01025e-08
-1.484871e-05
-0.0006577321
0.0006727468
4.875785e-09
-1.501954e-05
-0.0007178683
0.0007329932
1.149698e-08
-1.513635e-05
-0.0007779205
0.0007942533
2.347117e-07
-1.656754e-05
1.307877e-05
-0.000539248
0.0005413313
8.3067e-10
-1.51629e-05
1.334371e-05
-0.0005476142
0.0005495473
-4.029544e-10
-1.527639e-05
1.361428e-05
-0.0005549719
0.0005566664
-1.272647e-09
-1.530749e-05
1.391958e-05
-0.0005614606
0.0005629224
-1.431987e-09
-1.537994e-05
1.430184e-05
-0.0005668704
0.0005680416
-1.584994e-09
-1.547143e-05
1.459258e-05
-0.0005712778
0.0005722398
-1.288101e-09
-1.555333e-05
1.481014e-05
-0.0005749632
0.000575788
-8.967004e-10
-1.563405e-05
1.495038e-05
-0.0005781229
0.0005788841
-6.949308e-10
-1.571088e-05
1.540877e-05
-0.0005809192
0.0005806284
-7.041551e-10
-1.511727e-05
1.362117e-05
-0.002364152
0.002373096
8.440426e-11
-6.380628e-05
1.386179e-05
1.35763e-05
1.380261e-05
1.450172e-05
-0.002379409
0.002384518
5.70573e-11
-6.413023e-05
1.504086e-05
1.44733e-05
1.500532e-05
1.484708e-05
-0.002388587
0.002392146
6.977188e-12
-6.346096e-05
1.513302e-05
1.481594e-05
1.510595e-05
1.489982e-05
-0.002395913
0.002399514
-1.41956e-11
-6.344544e-05
1.505104e-05
1.487081e-05
1.502333e-05
1.489703e-05
-0.002402828
0.002406114
-2.571479e-11
-6.324234e-05
1.510904e-05
1.486838e-05
1.508248e-05
1.511351e-05
-0.002408967
0.002411673
-2.599577e-11
-6.335896e-05
1.523968e-05
1.508644e-05
1.52135e-05
1.515738e-05
-0.002414366
0.002416776
-4.309913e-11
-6.314431e-05
1.523452e-05
1.513242e-05
1.521041e-05
1.514538e-05
-0.002419315
0.002421583
-2.387221e-10
-6.281371e-05
1.515446e-05
1.511362e-05
1.513192e-05
1.507215e-05
-0.002424349
0.002426704
-5.520217e-10
-6.269439e-05
1.5121e-05
1.50488e-05
1.509783e-05
1.464521e-05
-0.002426107
0.002428987
-7.094472e-11
-6.145806e-05
1.466401e-05
1.461791e-05
1.46514e-05
1.518432e-05
-0.002431886
0.00243299
-7.377512e-11
-6.199477e-05
1.52701e-05
1.517643e-05
1.525974e-05
1.505417e-05
-0.002433821
0.002434601
-4.637107e-11
-6.072647e-05
1.492529e-05
1.504761e-05
1.491926e-05
1.493031e-05
-0.002435289
0.002435879
-1.357247e-11
-6.009769e-05
1.483078e-05
1.492264e-05
1.482439e-05
1.481961e-05
-0.002436321
0.002436558
1.035265e-11
-5.93596e-05
1.474777e-05
1.481133e-05
1.474362e-05
1.476904e-05
-0.00243671
0.002436738
1.159601e-11
-5.895483e-05
1.470425e-05
1.47546e-05
1.469948e-05
1.477409e-05
-0.002436781
0.002436645
2.113184e-11
-5.87795e-05
1.471553e-05
1.472861e-05
1.469757e-05
1.500559e-05
-0.002436665
0.002436416
7.73806e-11
-5.934194e-05
1.49776e-05
1.479034e-05
1.481755e-05
1.627083e-05
-0.002435939
0.002433315
2.294154e-10
-6.113214e-05
1.655913e-05
1.531752e-05
1.560858e-05
2.08756e-05
-0.002426185
0.002409902
3.030341e-11
-6.258383e-05
2.220781e-05
1.819606e-05
1.758746e-05
2.549107e-05
-0.002389587
0.002410803
8.757934e-11
-4.670659e-05
1.831803e-05
-0.002429679
0.002431886
6.192146e-11
-2.052566e-05
3.891322e-05
-0.002424259
0.002419843
1.106429e-11
-3.449742e-05
3.336652e-05
-0.002416851
0.002414366
-9.87014e-12
-3.088093e-05
1.828684e-05
-0.002411398
0.00241236
-1.934572e-11
-1.924921e-05
3.925024e-06
-0.002416348
0.002420502
-2.131699e-11
-8.078876e-06
-2.115813e-07
-0.002423717
0.002426539
-1.690231e-11
-2.609595e-06
-2.72905e-06
-0.002429518
0.002432223
-1.015421e-11
2.399418e-08
-4.218192e-06
-0.002434669
0.002436903
-5.332863e-12
1.984408e-06
-5.457824e-06
-0.002438998
0.002440825
-4.853994e-12
3.630852e-06
-6.430227e-06
-0.002442523
0.00244399
-6.315235e-12
4.964053e-06
-7.221579e-06
-0.002445349
0.00244653
-5.601596e-12
6.040695e-06
-7.885091e-06
-0.002447621
0.002448579
-1.094193e-11
6.927211e-06
-8.445344e-06
-0.002449463
0.00245024
-1.673234e-11
7.668751e-06
-8.920781e-06
-0.002450941
0.002451536
-3.551824e-11
8.325673e-06
-9.286674e-06
-0.002452073
0.002452484
-9.253217e-12
8.875768e-06
-9.522402e-06
-0.002452903
0.002453186
-1.545999e-11
9.239104e-06
-9.011641e-06
-0.002453491
0.00245372
-6.027841e-11
8.782163e-06
-7.022063e-06
-0.002453796
0.002453577
-2.615864e-11
7.241034e-06
-1.661997e-06
-0.002453073
0.002451242
-5.055792e-11
3.493043e-06
7.869194e-06
-0.002444688
0.002439
-3.672903e-11
-2.181643e-06
1.70481e-06
-0.00243953
0.002440018
-2.682058e-11
-2.192585e-06
1.405313e-05
-0.002439016
0.002435005
-2.686405e-11
-1.004185e-05
3.813885e-05
-0.002418024
0.002400209
-2.479629e-11
-2.032361e-05
1.03388e-05
-0.002391196
0.002389757
-2.073142e-11
-8.899472e-06
-2.950371e-06
-0.002388937
0.002385389
-1.748225e-11
6.498499e-06
-1.35031e-05
-0.00238017
0.002377122
-1.611001e-11
1.655092e-05
-3.265478e-05
-0.002375153
0.002376291
-1.954147e-11
3.151768e-05
-8.334561e-05
-0.002379068
0.002408608
-2.636181e-11
5.380585e-05
-1.793049e-05
-0.002444488
0.002445413
-2.66857e-11
5.711191e-05
-1.129484e-05
-1.777908e-05
-1.103276e-05
-5.455876e-06
-0.002438915
0.002439565
-3.456444e-11
2.113153e-05
-5.74686e-06
-5.162647e-06
-5.41596e-06
-4.230309e-06
-0.002443287
0.002444671
-3.328427e-11
1.424684e-05
-3.796424e-06
-4.0126e-06
-3.592117e-06
-2.732457e-06
-0.002444805
0.00244527
1.097194e-11
9.879204e-06
-2.625376e-06
-2.552226e-06
-2.434134e-06
-2.408871e-06
-0.002446195
0.002447401
-7.625916e-11
8.10476e-06
-2.384586e-06
-2.265502e-06
-2.251469e-06
-2.348115e-06
-0.00244894
0.002450335
-1.625378e-10
7.767945e-06
-2.352479e-06
-2.228678e-06
-2.233357e-06
-2.588293e-06
-0.002451846
0.002453109
-2.817447e-10
8.785651e-06
-2.54224e-06
-2.431794e-06
-2.485388e-06
-2.858948e-06
-0.00245399
0.00245436
5.684633e-11
1.097815e-05
-2.935265e-06
-2.734086e-06
-2.819564e-06
-3.474438e-06
-0.002454442
0.002453896
5.190896e-11
1.446148e-05
-3.591238e-06
-3.369633e-06
-3.480391e-06
-4.236387e-06
-0.002452913
0.002451133
2.252924e-11
1.879128e-05
-4.380486e-06
-4.128581e-06
-4.265181e-06
-5.117564e-06
-0.002448785
0.002445467
1.05351e-11
2.388421e-05
-5.281735e-06
-5.004721e-06
-5.162001e-06
-6.078073e-06
-0.002441437
0.002436283
8.762262e-12
2.957193e-05
-6.250223e-06
-5.96136e-06
-6.128177e-06
-7.045299e-06
-0.002430283
0.002423062
9.949317e-12
3.549115e-05
-7.20899e-06
-6.928085e-06
-7.088507e-06
-7.923877e-06
-0.002414911
0.002405542
9.62598e-12
4.111395e-05
-8.060986e-06
-7.811717e-06
-7.947927e-06
-8.611155e-06
-0.002395237
0.002383832
6.667043e-12
4.584015e-05
-8.705556e-06
-8.51143e-06
-8.606692e-06
-9.027062e-06
-0.002371584
0.002358472
2.91501e-12
4.913381e-05
-9.067467e-06
-8.942066e-06
-8.985124e-06
-9.119238e-06
-0.002344699
0.002330393
-2.379237e-12
5.061775e-05
-9.101553e-06
-9.052432e-06
-9.038338e-06
-8.873711e-06
-0.002315676
0.00230082
-8.550319e-12
5.011748e-05
-8.799466e-06
-8.828566e-06
-8.759888e-06
-8.309346e-06
-0.00228584
0.002271129
-1.37736e-11
4.766705e-05
-8.185587e-06
-8.289719e-06
-8.171516e-06
-7.474211e-06
-0.002256584
0.002242701
-1.696072e-11
4.346598e-05
-7.311321e-06
-7.477645e-06
-7.319281e-06
-6.432374e-06
-0.002229248
0.002216814
-1.838738e-11
3.782911e-05
-6.242145e-06
-6.454484e-06
-6.26653e-06
-5.246764e-06
-0.002205053
0.002194605
-1.961481e-11
3.109555e-05
-5.036867e-06
-5.285428e-06
-5.079068e-06
-3.980452e-06
-0.002185006
0.002176979
-2.203916e-11
2.356981e-05
-3.753645e-06
-4.010751e-06
-3.797568e-06
-2.656836e-06
-0.002169922
0.002164607
-2.522175e-11
1.560583e-05
-2.4561e-06
-2.691299e-06
-2.486679e-06
-1.421662e-06
-0.00216046
0.002158183
-2.754826e-11
7.646211e-06
-1.238729e-06
-1.446842e-06
-1.262258e-06
-2.591548e-07
0.002158217
-2.906487e-11
-1.824909e-07
-1.08994e-07
-2.796284e-07
-1.285547e-07
-0.002157258
7.804555e-07
-0.002160495
0.002164664
-2.756907e-11
-7.576802e-06
9.385532e-07
7.651128e-07
9.234699e-07
1.701989e-06
-0.002170127
0.002177347
-2.495166e-11
-1.426607e-05
1.832181e-06
1.690336e-06
1.822053e-06
2.442244e-06
-0.00218578
0.002195749
-2.100311e-11
-1.9924e-05
2.540658e-06
2.43614e-06
2.535947e-06
2.961692e-06
-0.002206793
0.002219055
-1.595609e-11
-2.422853e-05
3.022273e-06
2.960391e-06
3.022058e-06
3.222774e-06
-0.002232199
0.002246155
-1.044746e-11
-2.688859e-05
3.240244e-06
3.225658e-06
3.243822e-06
3.193296e-06
-0.002260748
0.002275663
-5.554646e-12
-2.763983e-05
3.161908e-06
3.200141e-06
3.168934e-06
2.84773e-06
-0.00229091
0.002305936
6.819332e-14
-2.627083e-05
2.764056e-06
2.858587e-06
2.774583e-06
2.186531e-06
-0.002320945
0.002335228
6.266608e-12
-2.278706e-05
2.051254e-06
2.199717e-06
2.065816e-06
1.201135e-06
-0.00234919
0.002361959
1.289267e-11
-1.7278e-05
1.038718e-06
1.213692e-06
1.055231e-06
1.465171e-08
-0.002373993
0.002384392
2.053422e-11
-1.010036e-05
-1.789044e-07
2.866761e-08
-1.628371e-07
-1.417002e-06
-0.002393729
0.002400992
3.075626e-11
-1.114137e-06
-1.684759e-06
-1.390598e-06
-1.656496e-06
-3.190486e-06
-0.002407002
0.0024106
4.025593e-11
9.750767e-06
-3.522799e-06
-3.154126e-06
-3.481291e-06
-5.165092e-06
-0.002412591
0.002412014
4.787574e-11
2.183142e-05
-5.508501e-06
-5.121398e-06
-5.459234e-06
-7.13673e-06
-0.002409557
0.002404362
5.113374e-11
3.429475e-05
-7.464038e-06
-7.087925e-06
-7.41099e-06
-8.960331e-06
-0.0023971
0.002387086
4.963408e-11
4.632241e-05
-9.24565e-06
-8.909758e-06
-9.19262e-06
-1.049115e-05
-0.002374972
0.002360266
4.434061e-11
5.701619e-05
-1.071179e-05
-1.044379e-05
-1.066384e-05
-1.162093e-05
-0.002343571
0.002324591
3.69258e-11
6.567162e-05
-1.176226e-05
-1.158289e-05
-1.172545e-05
-1.229573e-05
-0.002303851
0.002281244
2.882649e-11
7.185838e-05
-1.235218e-05
-1.227228e-05
-1.233102e-05
-1.251828e-05
-0.002257192
0.002231766
2.091273e-11
7.54353e-05
-1.249075e-05
-1.251267e-05
-1.248762e-05
-1.234112e-05
-0.002205254
0.002177881
1.300041e-11
7.65474e-05
-1.223204e-05
-1.235441e-05
-1.224671e-05
-1.185029e-05
-0.002149786
0.002121348
5.788698e-12
7.549534e-05
-1.164912e-05
-1.188024e-05
-1.16778e-05
-1.115517e-05
-0.002092559
0.002063927
-4.768736e-12
7.262247e-05
-1.079983e-05
-1.11978e-05
-1.083711e-05
-1.033856e-05
-0.002035322
0.002007301
-2.15496e-11
6.807601e-05
-9.644247e-06
-1.038761e-05
-9.684627e-06
-9.12089e-06
-0.001978967
0.001949726
-4.050091e-11
6.299771e-05
-7.720834e-06
-9.157209e-06
-7.758505e-06
-7.491268e-06
-0.001922221
0.00189543
-5.859672e-11
5.66097e-05
-7.374214e-06
-7.550871e-06
-7.402182e-06
-7.744812e-06
-0.001871749
0.001848587
-7.268922e-11
5.407231e-05
-7.691826e-06
-7.760865e-06
-7.712805e-06
-6.5845e-06
-0.001825428
0.001803668
-8.26493e-11
4.77019e-05
-6.371132e-06
-6.601073e-06
-6.384553e-06
-5.809584e-06
-0.001783273
0.001764195
-8.746594e-11
4.212969e-05
-5.708035e-06
-5.816962e-06
-5.716891e-06
-4.945661e-06
-0.001745988
0.001729208
-8.889024e-11
3.633926e-05
-4.830218e-06
-4.949539e-06
-4.83393e-06
-4.215295e-06
-0.001713443
0.001699049
-8.476983e-11
3.104216e-05
-4.102678e-06
-4.220645e-06
-4.10903e-06
-3.548813e-06
-0.001685637
0.001673579
-7.8691e-11
2.606769e-05
-3.453325e-06
-3.551411e-06
-3.455428e-06
-2.958878e-06
-0.001662439
0.001652563
-7.256932e-11
2.154553e-05
-2.877104e-06
-2.957911e-06
-2.875943e-06
-2.431219e-06
-0.001643532
0.001635653
-6.707937e-11
1.744052e-05
-2.353281e-06
-2.427771e-06
-2.349633e-06
-1.991606e-06
-0.00162851
0.001622466
-5.012123e-11
1.388244e-05
-1.933417e-06
-1.985589e-06
-1.928078e-06
-1.672407e-06
-0.001617117
0.001612742
-3.966166e-11
1.097017e-05
-1.628409e-06
-1.668867e-06
-1.624896e-06
-1.422348e-06
-0.001608956
0.001605984
-2.717673e-11
8.5929e-06
-1.391113e-06
-1.419603e-06
-1.388257e-06
-1.240184e-06
-0.001603508
0.001601696
-1.442381e-11
6.729972e-06
-1.222296e-06
-1.236294e-06
-1.218874e-06
-1.129883e-06
-0.001600327
0.001599489
-4.131976e-12
5.33016e-06
-1.119312e-06
-1.126982e-06
-1.11634e-06
-1.075162e-06
-0.001599031
0.00159893
1.361717e-11
4.386968e-06
-1.070573e-06
-1.072547e-06
-1.067927e-06
-1.084603e-06
-0.001598993
0.001599321
1.858419e-11
4.016627e-06
-1.090443e-06
-1.081877e-06
-1.087727e-06
-1.167247e-06
-0.001599912
0.001600666
2.77202e-11
3.930611e-06
-1.178093e-06
-1.164306e-06
-1.17518e-06
-1.284622e-06
-0.001601502
0.001602358
3.589135e-11
4.308204e-06
-1.300702e-06
-1.281358e-06
-1.297273e-06
-1.432305e-06
-0.001603196
0.00160392
4.537175e-11
5.055994e-06
-1.460372e-06
-1.42973e-06
-1.457691e-06
-1.661849e-06
-0.001604558
0.001604966
6.178086e-11
6.29663e-06
-1.694263e-06
-1.658495e-06
-1.690848e-06
-1.956646e-06
-0.00160518
0.00160512
7.191661e-11
7.963344e-06
-1.998604e-06
-1.95305e-06
-1.995086e-06
-2.31608e-06
-0.001604807
0.001604079
8.005247e-11
1.008613e-05
-2.367541e-06
-2.311897e-06
-2.363356e-06
-2.742159e-06
-0.001603015
0.001601425
8.958758e-11
1.267481e-05
-2.805067e-06
-2.737063e-06
-2.799974e-06
-3.235084e-06
-0.001599401
0.001596728
1.004119e-10
1.574883e-05
-3.309154e-06
-3.228616e-06
-3.302694e-06
-3.787007e-06
-0.001593512
0.001589518
1.111849e-10
1.929177e-05
-3.870805e-06
-3.778159e-06
-3.861831e-06
-4.381863e-06
0.001579321
1.227971e-10
2.322908e-05
-0.001584869
-4.472388e-06
-4.368331e-06
-4.458437e-06
-4.997909e-06
-0.001573022
0.001565761
1.38719e-10
2.740075e-05
-5.095536e-06
-4.975288e-06
-5.071497e-06
-5.621666e-06
-0.00155774
0.001548755
1.549464e-10
3.159505e-05
-5.715478e-06
-5.590661e-06
-5.681788e-06
-6.16619e-06
-0.001539035
0.001528381
1.682159e-10
3.5384e-05
-6.239827e-06
-6.12655e-06
-6.197809e-06
-6.465206e-06
-0.001516994
0.001504677
1.722026e-10
3.814776e-05
-6.484199e-06
-6.431174e-06
-6.450879e-06
-6.372436e-06
-0.001491614
0.001477667
1.604759e-10
3.931989e-05
-6.320606e-06
-6.363934e-06
-6.316232e-06
-5.896317e-06
-0.001463033
0.001447665
1.343827e-10
3.878654e-05
-5.794285e-06
-5.913264e-06
-5.814621e-06
-5.178801e-06
-0.001431762
0.00141538
1.021225e-10
3.6905e-05
-5.052566e-06
-5.208078e-06
-5.083402e-06
-4.348648e-06
-0.001398702
0.001381874
7.156933e-11
3.402372e-05
-4.219476e-06
-4.378742e-06
-4.249223e-06
-3.53941e-06
-0.001365037
0.001348407
4.427928e-11
3.060985e-05
-3.42678e-06
-3.564058e-06
-3.45002e-06
-2.865139e-06
-0.001332069
0.001316269
2.180647e-11
2.712404e-05
-2.780016e-06
-2.882806e-06
-2.796177e-06
-2.374727e-06
-0.001301005
0.001286509
3.022132e-12
2.390161e-05
-2.316596e-06
-2.386667e-06
-2.32729e-06
-2.060971e-06
-0.001272694
0.001259825
-7.643518e-12
2.106799e-05
-2.030154e-06
-2.069817e-06
-2.037799e-06
-1.920077e-06
-0.001247803
0.001236832
-1.524067e-11
1.865196e-05
-1.915847e-06
-1.92426e-06
-1.919875e-06
-1.857715e-06
-0.001226726
0.001217601
-1.980495e-11
1.655676e-05
-1.856812e-06
-1.859547e-06
-1.858207e-06
-1.775666e-06
-0.001209217
0.001201687
-1.829999e-11
1.462185e-05
-1.769719e-06
-1.776e-06
-1.769804e-06
-1.659832e-06
-0.00119476
0.001188587
-2.097185e-11
1.278606e-05
-1.646739e-06
-1.659434e-06
-1.646315e-06
-1.513495e-06
-0.001182918
0.001177922
-2.733608e-11
1.101445e-05
-1.496407e-06
-1.51294e-06
-1.49563e-06
-1.358086e-06
-0.001173365
0.001169454
-3.623102e-11
9.309736e-06
-1.341619e-06
-1.357338e-06
-1.340807e-06
-1.21723e-06
-0.001165968
0.001163065
-4.650221e-11
7.73167e-06
-1.197469e-06
-1.216707e-06
-1.197825e-06
-1.088776e-06
-0.001160516
0.001158543
-4.824628e-11
6.297726e-06
-1.075345e-06
-1.087135e-06
-1.073522e-06
-9.841978e-07
-0.001156929
0.001155821
-6.179192e-11
5.023167e-06
-9.746634e-07
-9.829519e-07
-9.736425e-07
-8.775884e-07
-0.001155045
0.001154867
-6.268676e-11
3.679744e-06
-8.742197e-07
-8.768377e-07
-8.732093e-07
-7.400458e-07
-0.001155036
0.001155496
-6.09607e-11
2.468731e-06
-7.24558e-07
-7.403128e-07
-7.238684e-07
-1.720202e-07
-0.001155359
0.001154829
-5.466659e-11
9.036532e-07
-1.283438e-08
-1.731219e-07
-1.61929e-08
1.271645e-07
-0.0002859081
0.0002853811
-5.080806e-10
4.00356e-07
-3.302075e-07
-0.0002836206
0.0002833081
-3.20488e-10
6.430802e-07
-4.621389e-07
-0.0002831212
0.0002832192
-1.989293e-10
3.643706e-07
-5.14698e-07
-0.0002839033
0.0002842197
-1.257341e-10
1.983657e-07
-5.269319e-07
-0.0002853501
0.0002857735
-6.351578e-11
1.035251e-07
-5.287342e-07
-0.0002871422
0.000287625
-2.054669e-11
4.59541e-08
-5.293058e-07
-0.0002891294
0.0002896489
1.916846e-11
9.798204e-09
-5.320046e-07
-0.0002912408
0.0002917844
3.500896e-11
-1.168058e-08
-5.368541e-07
-0.0002934462
0.0002940115
5.374705e-11
-2.841622e-08
-5.444683e-07
-0.0002957362
0.0002963219
5.895173e-11
-4.125883e-08
-5.538494e-07
-0.0002981076
0.0002987138
4.887853e-11
-5.235208e-08
-5.644429e-07
-0.0003005608
0.0003011872
4.992604e-11
-6.201364e-08
-5.763696e-07
-0.0003030949
0.0003037415
6.085852e-11
-7.025239e-08
-5.895242e-07
-0.0003057096
0.0003063762
7.12751e-11
-7.715598e-08
-6.035761e-07
-0.000308404
0.0003090904
8.046654e-11
-8.288386e-08
-6.184784e-07
-0.0003111771
0.0003118828
8.508636e-11
-8.736165e-08
-6.34235e-07
-0.000314027
0.0003147517
9.916212e-11
-9.053743e-08
-6.506303e-07
-0.0003169519
0.0003176951
1.121499e-10
-9.26241e-08
-6.674193e-07
-0.0003199505
0.000320712
1.176866e-10
-9.420398e-08
-6.841102e-07
-0.0003230227
0.000323803
1.303446e-10
-9.627738e-08
-7.002585e-07
-0.0003261711
0.0003269709
1.413271e-10
-9.968536e-08
-7.157052e-07
-0.0003293995
0.0003302202
1.451756e-10
-1.051465e-07
-7.298757e-07
-0.0003327134
0.0003335566
1.532336e-10
-1.134952e-07
-7.426028e-07
-0.0003361202
0.000336988
1.656102e-10
-1.253803e-07
-7.536484e-07
-0.0003396288
0.0003405238
1.8255e-10
-1.415597e-07
-7.629472e-07
-0.0003432506
0.0003441758
1.844208e-10
-1.624024e-07
-7.705776e-07
-0.0003469974
0.0003479565
1.801632e-10
-1.88614e-07
-7.762762e-07
-0.0003508839
0.00035188
1.943856e-10
-2.20032e-07
-7.803391e-07
-0.0003549239
0.0003559611
2.140995e-10
-2.570344e-07
-7.826263e-07
-0.0003591335
0.0003602164
2.339863e-10
-3.004369e-07
-7.820831e-07
-0.0003635312
0.0003646654
2.527119e-10
-3.523512e-07
-7.765147e-07
-0.0003681408
0.0003693346
2.643978e-10
-4.175831e-07
-7.60032e-07
-0.0003729972
0.000374265
2.917825e-10
-5.080228e-07
-7.136794e-07
-0.0003781633
0.0003795335
3.20081e-10
-6.568215e-07
-5.592606e-07
-0.0003838152
0.0003853942
3.32502e-10
-1.020026e-06
1.027625e-06
-0.0003906087
0.0003917168
3.948675e-10
-2.136141e-06
2.865243e-06
-0.0003946378
0.00039581
3.166684e-10
-4.037754e-06
2.742221e-06
-0.0003996357
0.0004009634
3.899832e-10
-4.070281e-06
2.979763e-06
-0.0004049447
0.0004062856
3.886138e-10
-4.320968e-06
3.024477e-06
-0.0004103803
0.0004117646
3.985856e-10
-4.409192e-06
3.095948e-06
-0.0004158965
0.0004172747
3.780272e-10
-4.4745e-06
3.121557e-06
-0.0004213895
0.0004227496
3.815436e-10
-4.482053e-06
3.125207e-06
-0.0004267778
0.0004280975
3.809247e-10
-4.445324e-06
3.099249e-06
-0.0004319733
0.0004332296
3.64576e-10
-4.355972e-06
3.042761e-06
-0.0004368851
0.0004380548
3.264487e-10
-4.212829e-06
2.955763e-06
-0.0004414224
0.0004424842
2.897706e-10
-4.017848e-06
2.838904e-06
-0.0004454999
0.0004464335
2.818695e-10
-3.772749e-06
2.693091e-06
-0.0004490426
0.0004498313
2.56998e-10
-3.482061e-06
2.521245e-06
-0.0004519856
0.0004526155
2.124427e-10
-3.151325e-06
2.334245e-06
-0.0004542859
0.0004547387
1.840141e-10
-2.787187e-06
2.04571e-06
-0.0004558762
0.0004561739
1.672821e-10
-2.343633e-06
1.825554e-06
-0.0004567992
0.0004568998
1.368001e-10
-1.926352e-06
1.573578e-06
-0.0004569482
0.0004568584
1.129688e-10
-1.48392e-06
1.261296e-06
-0.0004563389
0.0004560617
1.022929e-10
-9.841551e-07
8.783426e-07
-0.0004550022
0.0004545451
8.704214e-11
-4.213203e-07
4.493074e-07
-0.0004529019
0.0004522242
3.964933e-11
2.283277e-07
4.220888e-08
-0.0004497462
0.000448757
1.792297e-10
9.468156e-07
-6.779167e-07
-0.0004451253
0.0004436483
1.620122e-09
2.153307e-06
-2.429766e-06
-0.0004383709
0.0004363572
6.317328e-09
4.437131e-06
-5.186379e-06
-0.0004294066
0.0004267673
1.078001e-08
7.814858e-06
-7.663482e-06
-0.0004182452
0.0004152061
-1.974482e-09
1.070455e-05
-6.522151e-06
-0.0004054155
0.000401886
-1.32847e-08
1.006503e-05
-3.588571e-06
-0.0003906437
0.000386729
-4.306363e-09
7.507579e-06
-2.193462e-06
-0.0003742622
0.0003699006
3.260302e-09
6.551785e-06
-3.899543e-06
-0.0003570133
0.0003529292
3.566305e-09
7.980071e-06
-3.796267e-06
-0.0003408763
0.0003367041
2.450999e-09
7.966052e-06
-1.178779e-06
-0.0003238514
0.0003196521
-1.587093e-09
5.379653e-06
6.063807e-07
-0.0003079351
0.0003043274
-4.094049e-09
3.005486e-06
6.268693e-07
-0.0002948025
0.0002920107
-2.752992e-09
2.167677e-06
4.471922e-07
-0.0002844583
0.0002819851
-4.327073e-10
2.026476e-06
-8.983328e-07
-0.000271663
0.001140574
2.948103e-10
2.430293e-05
-1.48812e-06
-8.89199e-07
-1.496764e-06
-0.0002717223
-0.0003083315
-0.0003083877
-7.25938e-07
-0.001122025
0.001102253
3.013343e-10
2.197019e-05
-3.654837e-07
-7.357923e-07
-3.713138e-07
-6.992653e-07
-0.001084335
0.00106776
2.699672e-10
1.931186e-05
-6.581377e-07
-7.085912e-07
-6.716367e-07
-6.908981e-07
-0.001052908
0.001038819
2.294965e-10
1.670286e-05
-6.035681e-07
-7.03699e-07
-6.152045e-07
-4.49991e-07
-0.001025228
0.001012235
1.599973e-10
1.47338e-05
-4.1266e-07
-4.577965e-07
-4.208207e-07
-3.710605e-07
-0.0009998381
0.0009881453
4.200674e-11
1.31671e-05
-3.573987e-07
-3.79839e-07
-3.660279e-07
-2.912024e-07
-0.000976989
0.0009664425
-1.303509e-10
1.168507e-05
-2.699804e-07
-2.993208e-07
-2.779101e-07
-1.768225e-07
-0.0009562968
0.0009467397
-3.029455e-10
1.023623e-05
-1.560826e-07
-1.835806e-07
-1.623198e-07
-7.590761e-08
-0.0009375419
0.0009289344
-4.237621e-10
8.896765e-06
-6.404906e-08
-8.062487e-08
-6.81975e-08
1.966058e-08
-0.0009206953
0.0009130263
-4.56425e-10
7.575467e-06
3.185582e-08
1.481924e-08
2.770009e-08
1.211657e-07
-0.0009057111
0.0008989386
-4.156476e-10
6.277015e-06
1.296416e-07
1.182011e-07
1.26894e-07
2.067959e-07
-0.0008925255
0.0008866189
-3.309253e-10
5.070619e-06
2.135632e-07
2.045277e-07
2.114453e-07
2.780906e-07
-0.0008810396
0.0008759001
-2.374559e-10
4.020885e-06
2.830717e-07
2.763067e-07
2.814121e-07
3.280182e-07
-0.0008710243
0.000866498
-1.561449e-10
3.211795e-06
3.307786e-07
3.265302e-07
3.29365e-07
3.651095e-07
-0.0008621704
0.0008581336
-9.44056e-11
2.573739e-06
3.67667e-07
3.638536e-07
3.664695e-07
4.095875e-07
-0.0008542716
0.0008506986
-5.103481e-11
1.927839e-06
4.140629e-07
4.084919e-07
4.130377e-07
4.74233e-07
-0.0008473163
0.0008442598
-2.218559e-11
1.14659e-06
4.81633e-07
4.732565e-07
4.807298e-07
5.651095e-07
-0.0008414362
0.0008390007
-3.668766e-12
1.541716e-07
5.763874e-07
5.642628e-07
5.755776e-07
6.744373e-07
-0.0008368073
0.000835017
8.128142e-12
-9.411605e-07
6.920352e-07
6.736501e-07
6.912965e-07
8.04371e-07
-0.0008335024
0.0008324345
1.617129e-11
-2.179627e-06
8.201259e-07
8.036333e-07
8.194206e-07
9.382284e-07
-0.000831644
0.0008313041
2.149226e-11
-3.444392e-06
9.546717e-07
9.374795e-07
9.539475e-07
1.073513e-06
-0.0008312318
0.0008315902
2.514262e-11
-4.683054e-06
1.089551e-06
1.072776e-06
1.088856e-06
1.207084e-06
-0.0008321979
0.0008332227
2.708865e-11
-5.884162e-06
1.223274e-06
1.206378e-06
1.222612e-06
1.33676e-06
-0.0008344823
0.0008361315
2.832497e-11
-7.026094e-06
1.352366e-06
1.336047e-06
1.351731e-06
1.457071e-06
-0.0008379938
0.0008402037
2.859993e-11
-8.065387e-06
1.471414e-06
1.456315e-06
1.470658e-06
1.564049e-06
-0.0008425988
0.0008452899
2.880131e-11
-8.971244e-06
1.576837e-06
1.563243e-06
1.576007e-06
1.65581e-06
-0.0008481353
0.0008512214
2.846572e-11
-9.729501e-06
1.666651e-06
1.654991e-06
1.665874e-06
1.730578e-06
-0.0008544304
0.0008578227
2.784915e-11
-1.033062e-05
1.739306e-06
1.729809e-06
1.738567e-06
1.787513e-06
-0.0008613058
0.0008649166
2.702676e-11
-1.077258e-05
1.794086e-06
1.786776e-06
1.793372e-06
1.827431e-06
-0.0008685881
0.0008723352
2.557393e-11
-1.106462e-05
1.832025e-06
1.826716e-06
1.831314e-06
1.85181e-06
-0.000876115
0.0008799222
2.399342e-11
-1.121854e-05
1.854571e-06
1.851114e-06
1.85388e-06
1.861948e-06
-0.000883736
0.0008875337
2.208114e-11
-1.124633e-05
1.863025e-06
1.861294e-06
1.862377e-06
1.85996e-06
-0.0008913156
0.000895046
1.967267e-11
-1.11685e-05
1.859717e-06
1.859346e-06
1.85909e-06
1.848547e-06
-0.0008987437
0.0009023613
1.703795e-11
-1.100785e-05
1.847197e-06
1.847945e-06
1.846587e-06
1.828642e-06
-0.0009059321
0.0009093964
1.43538e-11
-1.077281e-05
1.82617e-06
1.828076e-06
1.825612e-06
1.800119e-06
-0.0009127996
0.0009160719
1.05579e-11
-1.046459e-05
1.796578e-06
1.799596e-06
1.796048e-06
1.764291e-06
-0.00091927
0.0009223188
6.082772e-12
-1.009616e-05
1.759928e-06
1.76379e-06
1.759416e-06
1.723263e-06
-0.0009252846
0.0009280883
2.787134e-12
-9.685924e-06
1.71829e-06
1.722802e-06
1.717829e-06
1.67818e-06
-0.0009308031
0.0009333468
8.828673e-13
-9.244635e-06
1.672663e-06
1.677789e-06
1.672284e-06
1.629605e-06
-0.000935797
0.00093807
-7.187692e-13
-8.778805e-06
1.623671e-06
1.62925e-06
1.623354e-06
1.578027e-06
-0.0009402465
0.000942242
-2.420551e-12
-8.293638e-06
1.57141e-06
1.577681e-06
1.571027e-06
1.523181e-06
-0.0009441393
0.0009458519
-3.764363e-12
-7.791466e-06
1.51664e-06
1.522819e-06
1.51623e-06
1.464154e-06
-0.0009474643
0.00094889
-4.524629e-12
-7.268351e-06
1.457516e-06
1.463821e-06
1.457196e-06
1.396345e-06
-0.000950207
0.0009513342
-4.633872e-12
-6.697237e-06
1.388916e-06
1.396088e-06
1.388659e-06
1.296853e-06
-0.000952351
0.000953225
-4.497426e-12
-6.025017e-06
1.278825e-06
1.296651e-06
1.278608e-06
1.121918e-06
-0.0009540859
0.0009549016
-4.113481e-12
-5.200988e-06
1.070962e-06
1.121732e-06
1.07073e-06
9.234791e-07
-0.0009557054
0.0009563712
-3.76188e-12
-4.331937e-06
9.097506e-07
9.233123e-07
9.095977e-07
8.656248e-07
-0.0009569074
0.0009573023
-2.393597e-12
-3.838536e-06
8.563345e-07
8.654896e-07
8.561946e-07
8.047508e-07
-0.0009576276
0.0009578095
-1.668235e-12
-3.385541e-06
7.971834e-07
8.046318e-07
7.970666e-07
7.50912e-07
-0.0009579218
0.000957891
-2.656608e-12
-2.960448e-06
7.448093e-07
7.50821e-07
7.447361e-07
7.001979e-07
-0.0009578143
0.0009575905
-2.75315e-12
-2.562095e-06
6.928208e-07
7.00098e-07
6.927344e-07
6.478525e-07
-0.0009573319
0.0009568653
-1.964072e-12
-2.11611e-06
6.437319e-07
6.476297e-07
6.434838e-07
5.912345e-07
-0.000956415
0.0009558727
-2.01569e-13
-1.798048e-06
5.799509e-07
5.902834e-07
5.789376e-07
3.385219e-07
-0.0009559692
0.0009564377
-9.288672e-13
-2.021149e-06
4.395224e-07
3.365101e-07
4.380583e-07
6.584875e-07
-0.0009562496
0.0009542141
-7.524812e-13
-3.766327e-07
5.415726e-07
6.649021e-07
5.471559e-07
4.804354e-07
-0.000952784
0.0009520222
-1.346865e-12
-9.926114e-07
3.899971e-07
4.875127e-07
3.964638e-07
4.128971e-07
-0.0009511881
0.0009503978
-2.160852e-12
-7.895654e-07
3.718687e-07
4.183329e-07
3.767575e-07
3.722193e-07
-0.0009495436
0.0009487591
-2.794603e-12
-6.672528e-07
3.49621e-07
3.764256e-07
3.534945e-07
3.659267e-07
-0.000947949
0.0009471468
-3.261908e-12
-6.516089e-07
3.577496e-07
3.692733e-07
3.608782e-07
3.768513e-07
-0.0009463029
0.0009454425
-3.784809e-12
-6.485931e-07
3.748323e-07
3.796806e-07
3.776332e-07
3.889232e-07
-0.0009445527
0.0009436621
-4.392263e-12
-6.699493e-07
3.890602e-07
3.912757e-07
3.912819e-07
4.033539e-07
-0.0009427493
0.000941843
-4.530074e-12
-7.158648e-07
4.056969e-07
4.054156e-07
4.076811e-07
4.205311e-07
-0.000940924
0.0009400179
-4.423384e-12
-7.856854e-07
4.236647e-07
4.222545e-07
4.253358e-07
4.375624e-07
-0.0009391103
0.0009382303
-4.411119e-12
-8.793964e-07
4.408605e-07
4.389e-07
4.421687e-07
4.575487e-07
-0.000937351
0.0009364977
-4.476345e-12
-9.846316e-07
4.603116e-07
4.586616e-07
4.61401e-07
4.759812e-07
-0.0009356558
0.0009348489
-4.573909e-12
-1.105846e-06
4.795106e-07
4.769027e-07
4.804064e-07
4.96416e-07
-0.0009340584
0.0009333117
-4.730097e-12
-1.24697e-06
4.997088e-07
4.971687e-07
5.00442e-07
5.154655e-07
-0.0009325829
0.0009318991
-4.779818e-12
-1.385063e-06
5.183716e-07
5.16087e-07