/*--------------------------------*- C++ -*----------------------------------*\
| =========                 |                                                 |
| \\      /  F ield         | foam-extend: Open Source CFD                    |
|  \\    /   O peration     | Version:     3.1                                |
|   \\  /    A nd           | Web:         http://www.extend-project.de       |
|    \\/     M anipulation  |                                                 |
\*---------------------------------------------------------------------------*/
FoamFile
{
    version     2.0;
    format      ascii;
    class       volScalarField;
    location    "4";
    object      k;
}
// * * * * * * * * * * * * * * * * * * * * * * * * * * * * * * * * * * * * * //

dimensions      [0 2 -2 0 0 0 0];

internalField   nonuniform List<scalar> 
119952
(
0.01115051
0.01020857
0.01004017
0.009985911
0.009898647
0.009753807
0.009777031
0.00988276
0.01002738
0.01018989
0.01035841
0.01052607
0.01068921
0.01084645
0.01099785
0.0111444
0.01128803
0.01143273
0.01158995
0.01180611
0.01222199
0.01201994
0.01215388
0.01254012
0.01221441
0.01212278
0.01206811
0.01201017
0.01171825
0.008845469
0.01394794
0.01186311
0.01148529
0.01177266
0.01230252
0.01285898
0.01335544
0.01377223
0.0141092
0.01446339
0.01519006
0.01661122
0.01803384
0.01928118
0.02028886
0.02107736
0.02169156
0.02218375
0.02255466
0.02551727
0.025764
0.02588685
0.02595019
0.0260101
0.02608315
0.02616986
0.02626557
0.02635748
0.02647244
0.02656491
0.02656425
0.02653837
0.0265037
0.02646584
0.02642569
0.02637998
0.02631477
0.02627249
0.02664605
0.02649019
0.02621362
0.02607602
0.02596535
0.02578501
0.02553322
0.02526111
0.02498955
0.0247239
0.02446696
0.02422008
0.02398361
0.02375757
0.02354203
0.02333711
0.02314276
0.022958
0.0227799
0.02260622
0.02247597
0.02238063
0.02224815
0.02220824
0.0223324
0.02238509
0.02239005
0.02243692
0.02253151
0.02216478
0.02183877
0.0216198
0.02146391
0.02134255
0.02124347
0.02116096
0.02108909
0.02102244
0.02095715
0.02089037
0.02081975
0.02074333
0.02065948
0.02056689
0.02046451
0.02035159
0.02022764
0.02009254
0.01994727
0.01979289
0.01962987
0.01945883
0.01928101
0.01909847
0.01891183
0.01872304
0.0185344
0.01834753
0.01816402
0.0179851
0.01781176
0.01764475
0.01748453
0.01733129
0.01718518
0.01704638
0.01691511
0.01679147
0.01667546
0.01656695
0.01646575
0.01637161
0.01628424
0.01620329
0.01612833
0.01605885
0.0159937
0.01593081
0.0158704
0.01582714
0.01581665
0.01582053
0.015833
0.01584944
0.01586686
0.01588336
0.01589789
0.01590995
0.01591919
0.01592536
0.01592835
0.01592822
0.01592511
0.01591909
0.01591016
0.01589828
0.0158843
0.01586864
0.01585113
0.01583159
0.01581002
0.01578672
0.01576199
0.01573605
0.01570906
0.01568118
0.0156526
0.0156235
0.01559405
0.01556439
0.01553466
0.01550495
0.01547534
0.01544599
0.01541735
0.01538946
0.01536222
0.01533546
0.01530913
0.01528324
0.01525781
0.0152329
0.01520857
0.01518498
0.01516217
0.01514014
0.01511844
0.01509457
0.01507304
0.01518334
0.01544694
0.01560426
0.01570201
0.01576066
0.0157929
0.01580645
0.0157924
0.01575056
0.01568609
0.01560724
0.01552028
0.01542978
0.01533865
0.01524869
0.01516121
0.01507723
0.01499754
0.01492263
0.01485275
0.01478809
0.01472884
0.01467514
0.01462704
0.01458462
0.01454786
0.01451665
0.01449116
0.01447147
0.01445779
0.01445023
0.01444889
0.01445373
0.01446369
0.01447003
0.01441023
0.01442302
0.01446788
0.0145188
0.01457097
0.01462141
0.01466821
0.01471059
0.01474789
0.0147796
0.01480539
0.01482513
0.0148389
0.01484689
0.01484939
0.01484651
0.01483619
0.01480827
0.01476783
0.01472322
0.01467734
0.01463159
0.01458683
0.01454379
0.01450296
0.01446422
0.01442666
0.01438987
0.01435576
0.01432437
0.01429532
0.01426847
0.01424361
0.01422046
0.01419806
0.01475378
0.01474783
0.0146857
0.01458098
0.01446475
0.01435064
0.01425135
0.01417388
0.01412143
0.01409377
0.01408932
0.014106
0.01414154
0.01419343
0.01425871
0.01433369
0.01441543
0.014502
0.01459177
0.01468331
0.01477548
0.01486743
0.0149585
0.01504822
0.01513627
0.0152224
0.01530645
0.01538834
0.01546803
0.01554554
0.01562092
0.01569432
0.01576593
0.01583602
0.01590435
0.01597078
0.01603543
0.01609845
0.01615998
0.0162202
0.01627927
0.01633736
0.01639467
0.01645156
0.01650888
0.01656582
0.01661629
0.01666363
0.01670746
0.01674861
0.01678805
0.01682645
0.01686458
0.01691084
0.0169676
0.01696129
0.01694137
0.01691907
0.01689999
0.01688983
0.01689316
0.01691304
0.0169507
0.01700563
0.01707574
0.01715795
0.01724872
0.01734461
0.01744258
0.01754024
0.01763592
0.01772856
0.0178176
0.01790283
0.01798425
0.01806195
0.01813609
0.01820693
0.01827475
0.01833984
0.01840249
0.01846297
0.01852158
0.01857862
0.01863429
0.01868879
0.01874226
0.01879486
0.01884669
0.01889788
0.0189485
0.01899863
0.01904836
0.01909775
0.01914684
0.0191957
0.01924438
0.01929293
0.0193414
0.01938984
0.01943829
0.01948654
0.01953451
0.01958216
0.01962945
0.01967636
0.01972281
0.01976875
0.01981411
0.01985886
0.01990299
0.0199465
0.01998938
0.02003163
0.02007326
0.0201143
0.02015478
0.02019472
0.02023417
0.02027319
0.02031184
0.02035018
0.0203883
0.0204263
0.02046431
0.02050247
0.02054096
0.02058001
0.0206199
0.02066102
0.02070389
0.02074926
0.02079823
0.02085252
0.02091494
0.0209906
0.02109065
0.02127524
0.02162699
0.0260768
0.02342113
0.02296544
0.0234887
0.02436434
0.02525319
0.02601476
0.02661942
0.02710381
0.02803939
0.03113775
0.03460929
0.03785457
0.04059926
0.04280045
0.04452723
0.04587338
0.04692003
0.05480008
0.05537248
0.05578798
0.05608369
0.0563453
0.05658142
0.05676184
0.05686153
0.05685673
0.05675836
0.05659889
0.05613346
0.05558838
0.05502254
0.05445027
0.05386972
0.05327673
0.05266771
0.05204341
0.0514875
0.05076421
0.04998491
0.04923828
0.04852643
0.04784854
0.04720404
0.04659226
0.04601157
0.04546292
0.04493429
0.04442502
0.04393841
0.04346661
0.04301452
0.04258468
0.04217851
0.04179632
0.04144073
0.04405925
0.04365257
0.04327233
0.04290635
0.04254673
0.04219158
0.04183984
0.04149278
0.04114682
0.04080071
0.04046095
0.04012425
0.03978553
0.03944544
0.03910459
0.03876269
0.03842177
0.03810071
0.03783522
0.03756493
0.03720844
0.03685445
0.03652879
0.03619752
0.03583848
0.0354578
0.035068
0.03467466
0.03428201
0.03389398
0.0335137
0.03314346
0.03278493
0.03243921
0.03210697
0.0317882
0.03148304
0.03119249
0.03092297
0.03068036
0.03045717
0.03026781
0.03014157
0.03006107
0.02999512
0.02993984
0.02987505
0.02975765
0.02958462
0.02943539
0.02932452
0.02923688
0.02916521
0.02910616
0.02905556
0.02900974
0.0289656
0.02892055
0.02887227
0.02881866
0.02875779
0.02868793
0.02860759
0.02851547
0.02841049
0.02829184
0.02815893
0.02801134
0.02784903
0.02767228
0.02748165
0.02727802
0.02706248
0.02683608
0.02659966
0.02635445
0.02610289
0.02584725
0.02558974
0.02533246
0.0250774
0.02482641
0.0245813
0.02434412
0.02411671
0.0238996
0.02369328
0.02349814
0.02331444
0.02314231
0.02298172
0.02283253
0.02269446
0.02256711
0.02245002
0.0223428
0.02224529
0.02215819
0.02208088
0.02201013
0.02194553
0.02188741
0.02183532
0.02178874
0.0217472
0.0217103
0.02167764
0.02164881
0.02162342
0.02160107
0.02158139
0.02156397
0.02154853
0.02153484
0.02152256
0.02151135
0.02150104
0.02149144
0.02148235
0.02147356
0.02146492
0.02145628
0.02144754
0.0214386
0.02142941
0.02141988
0.02140999
0.02139968
0.02138895
0.02137776
0.02136612
0.02135399
0.02134142
0.02132841
0.021315
0.02130121
0.02128709
0.02127266
0.02125798
0.02124311
0.02122806
0.02121293
0.02119769
0.02118247
0.02116721
0.02115196
0.02113722
0.021128
0.02080676
0.02043147
0.02016993
0.0199823
0.01984364
0.01973859
0.0196575
0.01959354
0.01954304
0.0195029
0.01947062
0.01944425
0.01942224
0.01940328
0.01938637
0.01937074
0.0193558
0.01934107
0.01932622
0.019311
0.01929528
0.019279
0.01926213
0.01924473
0.01922684
0.01920856
0.01919002
0.01917134
0.01915271
0.01913431
0.01911634
0.01909902
0.01908253
0.01906726
0.01905475
0.0190519
0.019068
0.01909357
0.01912596
0.01916317
0.01920427
0.01924871
0.01929618
0.01934657
0.01939981
0.01945586
0.01951467
0.01957614
0.01964015
0.01970654
0.01977502
0.01984535
0.01991728
0.01999059
0.02006513
0.02014082
0.02021759
0.02029537
0.02037409
0.02045367
0.02053403
0.02061508
0.02069671
0.02077875
0.02086108
0.0209436
0.02102618
0.02110877
0.02119134
0.02127233
0.02294932
0.0230428
0.02314511
0.02324709
0.02334417
0.0234354
0.02352048
0.02359955
0.0236731
0.02374172
0.02380604
0.02386674
0.02392448
0.02397995
0.02403407
0.02408765
0.02414135
0.02419573
0.0242513
0.02430846
0.02436752
0.02442872
0.02449218
0.02455792
0.02462589
0.02469594
0.02476789
0.02484147
0.02491641
0.02499242
0.02506919
0.02514645
0.02522392
0.02530133
0.02537848
0.02545519
0.02553132
0.02560673
0.02568133
0.02575504
0.02582779
0.02589948
0.02596995
0.02603878
0.02610513
0.02616753
0.02622625
0.0262829
0.02633825
0.02639251
0.02644586
0.02649839
0.02655026
0.02660224
0.02665417
0.02670202
0.0267457
0.02678747
0.0268281
0.02686795
0.02690733
0.02694656
0.02698606
0.02702634
0.02706787
0.0271111
0.02715631
0.02720365
0.02725313
0.02730461
0.02735789
0.02741268
0.02746868
0.02752558
0.02758308
0.02764087
0.02769872
0.0277564
0.02781376
0.02787066
0.02792701
0.02798277
0.02803789
0.02809237
0.0281462
0.02819939
0.02825197
0.02830394
0.02835534
0.02840618
0.0284565
0.02850632
0.02855565
0.02860453
0.02865295
0.02870094
0.02874848
0.02879558
0.02884223
0.02888844
0.0289342
0.02897949
0.0290243
0.02906859
0.02911236
0.02915556
0.02919817
0.02924025
0.02928195
0.02932332
0.02936437
0.02940511
0.02944558
0.02948575
0.02952534
0.02956428
0.02960257
0.0296402
0.02967724
0.02971371
0.02974971
0.0297853
0.02982059
0.02985568
0.02989073
0.02992589
0.02996136
0.02999738
0.03003427
0.0300724
0.03011229
0.03015459
0.03020022
0.03025033
0.0303067
0.03037206
0.03045361
0.03056088
0.03067082
0.03126337
0.03480423
0.03796203
0.04107007
0.04392703
0.04653925
0.04891938
0.0510451
0.05298048
0.05581077
0.0740246
0.08672429
0.09333611
0.09695502
0.09910115
0.1004674
0.1013748
0.1019768
0.1022867
0.1164735
0.1164388
0.1163169
0.1162974
0.116335
0.1163307
0.1162219
0.1159838
0.1156052
0.1151747
0.1144805
0.1135438
0.1125907
0.11169
0.1108658
0.1100998
0.1093818
0.1086887
0.1080802
0.1073131
0.1062976
0.1053153
0.1043999
0.1035643
0.1028107
0.1021336
0.1015265
0.1009837
0.1004751
0.09993892
0.09941035
0.09885877
0.09829457
0.09772722
0.09715875
0.09659216
0.09603665
0.1029556
0.1021275
0.1012547
0.1002936
0.09923752
0.09809483
0.09687463
0.09558395
0.09422716
0.09280661
0.09132848
0.08980148
0.08822634
0.08661295
0.08497403
0.08331981
0.08166072
0.08000628
0.07836431
0.07673827
0.07513682
0.07357138
0.07204517
0.07056229
0.06912762
0.06774479
0.06641718
0.06514492
0.06393006
0.06277358
0.0616697
0.06061839
0.05962029
0.05867433
0.05777865
0.05692973
0.05612413
0.05534785
0.0545933
0.05388181
0.05320519
0.05255427
0.05192684
0.05132245
0.05073926
0.05017468
0.04962557
0.04908965
0.04856594
0.04805074
0.04754207
0.04704001
0.04654491
0.04605776
0.04558138
0.04512242
0.04468599
0.04426073
0.04381066
0.04334761
0.04289259
0.04244219
0.04198365
0.04151242
0.04103313
0.04055184
0.04007332
0.03960102
0.03913758
0.03868508
0.03824519
0.03781914
0.03740791
0.03701215
0.03663286
0.0362717
0.03593204
0.03561838
0.03533308
0.03508185
0.03487535
0.03471144
0.03457355
0.03444968
0.03433114
0.03419446
0.03403347
0.0338802
0.03374893
0.03364315
0.03355823
0.03348895
0.03343147
0.03338274
0.03333998
0.03330047
0.03326161
0.03322097
0.03317628
0.03312547
0.03306665
0.0329981
0.03291834
0.03282609
0.03272035
0.03260035
0.0324656
0.0323159
0.03215133
0.0319723
0.03177948
0.03157382
0.03135649
0.03112885
0.03089253
0.03064937
0.03040134
0.03015039
0.0298985
0.02964757
0.02939934
0.02915507
0.02891578
0.02868326
0.02845902
0.02824429
0.02804001
0.02784687
0.02766533
0.02749567
0.02733795
0.02719213
0.02705802
0.02693525
0.02682351
0.02672258
0.02663164
0.02654929
0.02647463
0.02640716
0.02634635
0.02629178
0.02624303
0.02619965
0.02616119
0.02612722
0.02609731
0.02607108
0.02604814
0.02602813
0.02601078
0.0259958
0.02598289
0.02597184
0.02596242
0.02595442
0.02594765
0.02594193
0.02593709
0.025933
0.02592954
0.0259266
0.02592407
0.02592189
0.02591997
0.02591825
0.02591667
0.02591519
0.02591375
0.02591231
0.02591086
0.02590939
0.0259079
0.02590638
0.02590487
0.02590334
0.02590188
0.02590045
0.02589915
0.02589797
0.02589701
0.02589628
0.02589599
0.02589597
0.02589702
0.0258968
0.02586774
0.02585414
0.02585052
0.02585334
0.02586022
0.02586951
0.02588024
0.02589178
0.02590377
0.02591607
0.02592862
0.02594137
0.0259543
0.02596743
0.02598075
0.02599425
0.02600792
0.02602172
0.02603562
0.02604956
0.02606352
0.02607746
0.02609135
0.02610515
0.02611889
0.02613257
0.02614624
0.02615995
0.0261738
0.02618792
0.02620249
0.02621784
0.02623459
0.02625404
0.0262783
0.02631015
0.02635047
0.02639676
0.02644682
0.02649965
0.02655463
0.0266113
0.02666934
0.02672855
0.02678876
0.02684987
0.0269118
0.0269745
0.0270379
0.02710201
0.02716683
0.02723243
0.02729882
0.02736604
0.02743409
0.027503
0.0275728
0.02764353
0.02771523
0.02778793
0.02786165
0.02793639
0.02801212
0.02808881
0.02816639
0.02824483
0.02832396
0.02840385
0.02848427
0.02857012
0.02864454
0.02872086
0.02879333
0.0288637
0.0289341
0.02900464
0.02907487
0.02914449
0.02921334
0.0292812
0.02934784
0.02941308
0.02947679
0.029539
0.0295998
0.02965934
0.02971782
0.02977552
0.02983271
0.02988973
0.02994689
0.03000449
0.03006282
0.03012211
0.03018253
0.03024421
0.0303072
0.03037151
0.03043709
0.03050385
0.03057165
0.03064034
0.03070976
0.03077976
0.03085016
0.03092082
0.03099157
0.03106226
0.03113274
0.03120287
0.03127248
0.03134139
0.03140933
0.03147587
0.03154044
0.03160228
0.03166169
0.03171945
0.03177605
0.03183171
0.03188657
0.03194058
0.03199379
0.03204649
0.0320965
0.03214488
0.03219314
0.0322415
0.0322898
0.03233795
0.03238578
0.03243317
0.03248011
0.03252665
0.03257294
0.03261915
0.03266549
0.03271215
0.03275931
0.03280707
0.03285551
0.03290465
0.03295446
0.03300489
0.03305586
0.03310726
0.033159
0.03321096
0.03326304
0.03331516
0.03336724
0.03341921
0.03347101
0.0335226
0.03357394
0.033625
0.03367574
0.03372616
0.03377623
0.03382595
0.0338753
0.0339243
0.03397295
0.03402128
0.03406933
0.03411709
0.03416455
0.0342117
0.03425851
0.03430496
0.03435103
0.03439668
0.0344419
0.03448664
0.03453089
0.03457462
0.0346178
0.03466041
0.03470242
0.03474379
0.03478449
0.0348245
0.03486379
0.03490239
0.03494059
0.03497852
0.03501622
0.03505344
0.03509008
0.03512616
0.03516173
0.03519686
0.03523166
0.03526624
0.03530074
0.03533533
0.0353702
0.03540559
0.03544179
0.03547915
0.03551813
0.03555926
0.03560326
0.03565101
0.03570359
0.03576258
0.03582985
0.03590548
0.03597487
0.02557067
0.03288701
0.04008869
0.07051139
0.09245411
0.1241744
0.1387614
0.1522246
0.1629699
0.1720224
0.1804866
0.1878499
0.1936071
0.1978411
0.2006848
0.2026375
0.2039098
0.2045725
0.2046812
0.2042853
0.2034283
0.2022354
0.2007475
0.1990528
0.1972878
0.1954495
0.1935011
0.1914466
0.1893095
0.1871012
0.1847864
0.1909806
0.1888902
0.1867439
0.1846
0.182489
0.1804145
0.1783747
0.1763764
0.1744222
0.172504
0.1706208
0.1687756
0.1669576
0.165169
0.163414
0.1616949
0.1600129
0.1583651
0.1567457
0.1551476
0.1535803
0.1520602
0.1505731
0.1491116
0.1476723
0.1462538
0.144849
0.1434597
0.1420814
0.1407016
0.1393224
0.1379417
0.1365582
0.1351613
0.1337503
0.1322769
0.1307696
0.1292363
0.1276126
0.1259143
0.1241691
0.1223883
0.1205818
0.1187373
0.1168476
0.1149098
0.1129246
0.1108944
0.10882
0.1067079
0.1045679
0.1024105
0.1002447
0.09807986
0.09592469
0.09378839
0.0916782
0.08959933
0.08756019
0.08557051
0.08363778
0.08176732
0.07996299
0.07822779
0.07656352
0.07497127
0.07345112
0.07200161
0.07062193
0.06931158
0.06806812
0.06689021
0.06577232
0.06471472
0.06370532
0.06274592
0.06183358
0.0609633
0.06013042
0.05933216
0.05856612
0.05782936
0.05711851
0.05643035
0.05576168
0.05510979
0.05447241
0.05384799
0.05323574
0.0526354
0.0520475
0.05147295
0.05091329
0.05036978
0.04983783
0.04930163
0.04875782
0.04821635
0.04768011
0.04714275
0.04659922
0.04605098
0.04550254
0.04495798
0.04442025
0.04389165
0.04337417
0.04286954
0.04237925
0.04190463
0.04144689
0.04100749
0.04058829
0.04019207
0.03982278
0.03948353
0.03917722
0.03890778
0.03867517
0.03847058
0.03828473
0.03811
0.03793711
0.03776006
0.0375892
0.0374379
0.03731064
0.0372055
0.03711904
0.03704824
0.03699044
0.03694298
0.03690313
0.03686821
0.03683564
0.03680293
0.03676778
0.03672797
0.03668144
0.03662632
0.03656097
0.03648397
0.03639416
0.03629059
0.03617259
0.03603977
0.03589207
0.03572975
0.03555339
0.03536384
0.03516227
0.03495006
0.03472881
0.03450029
0.03426635
0.0340289
0.03378985
0.03355102
0.03331415
0.03308086
0.0328527
0.03263107
0.0324172
0.03221212
0.0320167
0.03183157
0.03165721
0.03149389
0.03134172
0.03120066
0.03107061
0.03095129
0.03084236
0.03074345
0.03065394
0.03057301
0.03049998
0.03043435
0.0303756
0.03032323
0.03027669
0.03023548
0.0301991
0.03016713
0.03013914
0.03011476
0.03009362
0.03007542
0.03005985
0.03004665
0.03003556
0.03002636
0.03001884
0.03001281
0.03000811
0.03000457
0.03000208
0.03000052
0.02999981
0.02999987
0.03000064
0.0300021
0.03000422
0.03000699
0.03001036
0.03001416
0.03001835
0.03002291
0.0300278
0.03003303
0.03003857
0.03004442
0.03005056
0.03005701
0.03006378
0.03007091
0.03007842
0.03008638
0.0300948
0.03010383
0.03011346
0.03012393
0.030135
0.030145
0.03015484
0.03016485
0.0301755
0.03018705
0.03019959
0.03021314
0.03022763
0.03024305
0.03025936
0.03027646
0.03029429
0.03031277
0.03033184
0.03035147
0.03037155
0.03039209
0.03041302
0.03043431
0.03045591
0.03047781
0.03049993
0.03052228
0.03054487
0.0305677
0.03059075
0.03061412
0.03063787
0.03066214
0.03068709
0.03071303
0.03074036
0.03076975
0.03080226
0.03083916
0.03088194
0.03093084
0.03098452
0.03104158
0.03110113
0.03116258
0.03122551
0.0312896
0.0313546
0.03142032
0.03148656
0.03155324
0.03162026
0.03168757
0.03175509
0.03182284
0.03189083
0.03195909
0.03202762
0.03209646
0.03216563
0.0322352
0.03230522
0.03237575
0.03244686
0.03251861
0.03259106
0.03266423
0.03273814
0.0328128
0.0328882
0.0329643
0.03304098
0.03311802
0.03319574
0.03327238
0.03334733
0.03342212
0.0334979
0.03357455
0.0336513
0.03372752
0.03380293
0.0338775
0.03395113
0.03402365
0.03409494
0.03416489
0.03423346
0.03430062
0.03436641
0.03443089
0.03449418
0.03455641
0.03461778
0.03467847
0.03473873
0.03479875
0.03485876
0.03491894
0.03497947
0.03504046
0.03510202
0.03516419
0.035227
0.03529042
0.03535441
0.03541891
0.03548385
0.03554915
0.03561474
0.03568055
0.03574648
0.03581242
0.03587822
0.03594372
0.03600872
0.03607297
0.03613613
0.03619782
0.03625768
0.03631577
0.03637249
0.03642825
0.03648324
0.03653755
0.03659118
0.0366441
0.03669635
0.03674746
0.03679773
0.03684759
0.03689723
0.03694676
0.03699623
0.03704564
0.03709492
0.03714397
0.03719274
0.03724119
0.03728933
0.03733722
0.03738494
0.03743259
0.03748026
0.03752802
0.03757595
0.03762409
0.03767247
0.03772111
0.03777
0.03781912
0.03786845
0.03791797
0.03796764
0.03801744
0.03806731
0.03811724
0.03816719
0.03821711
0.03826698
0.03831674
0.03836636
0.03841577
0.03846493
0.03851376
0.03856218
0.03861009
0.03865738
0.03870436
0.03875118
0.03879785
0.03884434
0.03889062
0.03893665
0.0389824
0.03902783
0.03907291
0.03911759
0.03916184
0.03920562
0.03924889
0.03929162
0.03933378
0.03937533
0.03941625
0.03945653
0.03949616
0.03953513
0.03957344
0.03961108
0.03964807
0.03968474
0.03972124
0.0397573
0.03979286
0.03982797
0.03986273
0.03989724
0.03993165
0.03996612
0.04000083
0.04003602
0.04007196
0.04010896
0.04014742
0.04018781
0.04023067
0.04027665
0.04032645
0.04038082
0.04044006
0.04050236
0.04055652
0.0148583
0.0182203
0.02167661
0.0334359
0.04554494
0.06741154
0.08013749
0.09255319
0.1050318
0.1170202
0.1288678
0.1412333
0.1538314
0.1663025
0.1781049
0.1897345
0.2139226
0.2216479
0.2288485
0.2349954
0.2402872
0.2445959
0.2478978
0.2499957
0.2510065
0.2510737
0.2503674
0.2490343
0.2472013
0.244981
0.2424619
0.2397274
0.2368683
0.2339386
0.2309775
0.2280246
0.2251156
0.2222694
0.2195049
0.2168223
0.2142545
0.2117517
0.2088696
0.2062296
0.203784
0.2014803
0.1992964
0.1972029
0.1951858
0.1932498
0.1913947
0.189618
0.187914
0.1862721
0.1846839
0.1831448
0.1816494
0.1801902
0.1787557
0.1773313
0.1759083
0.1744757
0.1730201
0.1715286
0.1700113
0.1684725
0.1669163
0.1653478
0.163771
0.16219
0.1606047
0.1590128
0.1574149
0.1558106
0.1541976
0.1525727
0.1509289
0.1492601
0.1475528
0.1458178
0.1440205
0.1421596
0.1402405
0.1382548
0.1361853
0.1340424
0.131837
0.1295862
0.1272927
0.1249562
0.1225783
0.1201648
0.1177236
0.1152632
0.1127923
0.1103202
0.1078557
0.1054082
0.1029855
0.1005949
0.09824515
0.09594596
0.09370551
0.09153017
0.08942505
0.08739431
0.08544109
0.08356736
0.08177429
0.08006219
0.07843049
0.07687832
0.07540377
0.07400493
0.07267814
0.07142086
0.07022812
0.06909548
0.0680188
0.06699444
0.06601855
0.06508724
0.06419674
0.06334338
0.06252341
0.06173309
0.06096882
0.0602277
0.05950739
0.05880583
0.05812137
0.05745298
0.05680007
0.0561623
0.05553939
0.05493092
0.05433374
0.05373992
0.05314525
0.05255258
0.05196379
0.05137619
0.0507868
0.05019588
0.04960613
0.04902052
0.04844151
0.04787119
0.04731147
0.04676412
0.04623078
0.04571304
0.04521244
0.04473071
0.04426994
0.04383263
0.04342184
0.04304007
0.04268932
0.04237114
0.04208493
0.04182617
0.04158838
0.04136592
0.04115412
0.04095051
0.04075941
0.04058814
0.04044043
0.04031594
0.04021256
0.04012795
0.04005978
0.04000563
0.03996296
0.03992919
0.03990177
0.03987818
0.03985597
0.03983272
0.039806
0.03977356
0.03973355
0.03968431
0.03962434
0.03955231
0.03946708
0.03936781
0.03925398
0.03912539
0.03898222
0.03882496
0.03865444
0.03847176
0.03827828
0.03807557
0.03786535
0.03764941
0.03742961
0.03720781
0.03698579
0.03676528
0.03654791
0.03633517
0.03612838
0.03592872
0.03573716
0.0355545
0.03538136
0.03521817
0.0350652
0.03492257
0.03479027
0.03466818
0.03455607
0.03445366
0.03436053
0.03427616
0.03419999
0.03413147
0.0340701
0.03401537
0.03396679
0.03392387
0.03388614
0.03385314
0.03382446
0.0337997
0.0337785
0.03376053
0.03374545
0.033733
0.03372289
0.03371491
0.03370881
0.03370439
0.03370148
0.0336999
0.03369951
0.03370017
0.03370176
0.03370417
0.03370732
0.03371112
0.03371548
0.03372034
0.03372565
0.03373154
0.03373804
0.0337452
0.03375304
0.03376162
0.033771
0.03378111
0.03379182
0.03380312
0.03381499
0.03382745
0.03384049
0.03385416
0.03386849
0.03388356
0.03389939
0.03391608
0.03393366
0.03395197
0.03397083
0.03399012
0.03400984
0.03403005
0.03405081
0.03407217
0.03409416
0.0341168
0.03414009
0.03416402
0.03418856
0.03421366
0.03423929
0.03426541
0.03429198
0.03431897
0.03434634
0.03437405
0.03440208
0.03443041
0.03445901
0.03448788
0.03451703
0.03454646
0.03457623
0.03460638
0.03463703
0.03466831
0.03470043
0.03473368
0.03476848
0.03480539
0.03484515
0.03488858
0.03493643
0.03498891
0.0350454
0.035105
0.03516697
0.03523077
0.03529605
0.0353625
0.03542988
0.03549798
0.03556663
0.03563568
0.03570505
0.03577462
0.03584434
0.03591418
0.03598407
0.03605403
0.03612406
0.03619417
0.03626438
0.03633472
0.03640525
0.03647601
0.03654708
0.03661852
0.03669041
0.03676272
0.03683554
0.03690893
0.03698288
0.03705736
0.03713234
0.0372077
0.03728342
0.03735921
0.03743494
0.03751083
0.03758705
0.03766361
0.03774031
0.03781692
0.03789325
0.03796921
0.03804469
0.03811958
0.03819372
0.03826701
0.03833933
0.03841061
0.03848079
0.03854985
0.03861779
0.03868466
0.03875053
0.03881548
0.03887966
0.03894319
0.03900622
0.03906889
0.03913133
0.03919367
0.039256
0.03931838
0.03938086
0.03944344
0.0395061
0.03956876
0.03963133
0.03969368
0.03975565
0.03981757
0.03987953
0.03994148
0.04000334
0.04006496
0.04012618
0.04018681
0.04024659
0.04030528
0.04036268
0.0404188
0.04047387
0.04052814
0.04058179
0.0406349
0.04068747
0.04073953
0.04079112
0.04084209
0.04089244
0.04094239
0.04099215
0.04104189
0.04109167
0.04114151
0.04119137
0.04124116
0.04129082
0.04134026
0.04138947
0.04143843
0.04148716
0.0415357
0.0415841
0.0416324
0.04168065
0.04172891
0.04177721
0.04182559
0.04187409
0.04192272
0.0419715
0.04202046
0.0420696
0.04211893
0.04216844
0.04221815
0.04226803
0.04231809
0.04236831
0.04241868
0.04246919
0.04251982
0.04257055
0.04262136
0.04267223
0.04272313
0.04277402
0.04282489
0.04287568
0.04292637
0.04297692
0.04302727
0.0430774
0.04312726
0.0431768
0.04322597
0.04327474
0.04332305
0.04337087
0.04341815
0.04346484
0.04351092
0.04355635
0.04360109
0.04364514
0.04368848
0.04373109
0.04377298
0.04381415
0.04385463
0.04389444
0.04393366
0.04397268
0.04401134
0.04404951
0.04408726
0.04412471
0.04416199
0.04419927
0.04423675
0.04427467
0.04431328
0.04435291
0.04439392
0.04443672
0.04448179
0.04452962
0.04458072
0.04463546
0.04469364
0.04475291
0.04480304
0.008265007
0.00985855
0.01121981
0.01829848
0.02562464
0.03551862
0.04241778
0.0498625
0.05757797
0.06553157
0.07389551
0.08341291
0.09346157
0.1040994
0.1162261
0.1370915
0.1476932
0.1588103
0.1701277
0.1816907
0.1931103
0.2041026
0.2146515
0.2248257
0.2343885
0.2423077
0.2480433
0.252741
0.2560006
0.2577957
0.258375
0.2580066
0.2567374
0.2545397
0.2515185
0.2478608
0.2437568
0.2393782
0.2348667
0.2303493
0.2258852
0.2215296
0.2173677
0.2134356
0.2097516
0.2063232
0.2031506
0.200233
0.1975632
0.1951332
0.1929267
0.1909315
0.1890923
0.1874263
0.1859485
0.1846451
0.1834997
0.1824951
0.1816182
0.1808596
0.1802091
0.1796554
0.1791854
0.1787851
0.1784408
0.1781387
0.1778638
0.1775946
0.1772888
0.1768757
0.1763529
0.1757283
0.1750075
0.1741987
0.1733101
0.1723486
0.1713192
0.170225
0.1690704
0.1678606
0.1665995
0.1652903
0.1639354
0.1625375
0.1610983
0.159619
0.1580982
0.1565353
0.1549256
0.153267
0.1515465
0.149759
0.1479057
0.1459867
0.1439977
0.1419351
0.1397968
0.1375773
0.1352863
0.1329327
0.1305262
0.128075
0.1255865
0.1230685
0.1205296
0.117979
0.1154257
0.1128787
0.1103468
0.1078385
0.1053629
0.1029293
0.1005464
0.09822156
0.09596135
0.09377131
0.09165602
0.08961902
0.08766288
0.08578922
0.08399863
0.082291
0.08066539
0.07912027
0.07765317
0.07626122
0.07494084
0.07368796
0.07249855
0.0713688
0.07029469
0.06927205
0.0682968
0.06736504
0.0664729
0.06561659
0.06479248
0.06399735
0.06322837
0.06248302
0.06175913
0.061055
0.0603692
0.05970053
0.05904772
0.05840921
0.05778229
0.05716248
0.05654627
0.05593326
0.05532378
0.05471663
0.05411016
0.05350419
0.05290013
0.05230002
0.05170582
0.05111936
0.0505424
0.04997664
0.04942378
0.04888549
0.04836351
0.04785966
0.04737605
0.04691492
0.04647855
0.04606899
0.04568774
0.04533563
0.04501209
0.04471442
0.04443853
0.04418075
0.04393879
0.04371185
0.04350204
0.04331339
0.04314867
0.04300817
0.04289065
0.04279433
0.04271725
0.04265728
0.04261213
0.0425794
0.04255658
0.04254131
0.0425313
0.04252403
0.04251664
0.04250573
0.04248955
0.04246677
0.04243573
0.04239471
0.04234216
0.04227678
0.0421976
0.042104
0.04199574
0.04187294
0.04173609
0.04158598
0.04142373
0.04125067
0.04106834
0.04087841
0.04068264
0.04048282
0.04028073
0.04007813
0.03987667
0.0396779
0.03948322
0.0392939
0.03911101
0.03893549
0.03876806
0.0386093
0.0384596
0.03831923
0.03818829
0.0380668
0.03795463
0.03785161
0.03775744
0.03767176
0.03759413
0.0375241
0.03746121
0.03740502
0.03735505
0.03731087
0.03727204
0.03723813
0.0372087
0.03718339
0.03716184
0.03714371
0.03712866
0.03711641
0.03710669
0.03709924
0.03709384
0.03709028
0.03708836
0.03708791
0.03708879
0.03709085
0.03709398
0.03709807
0.03710305
0.03710882
0.03711535
0.03712257
0.03713047
0.03713901
0.03714817
0.03715793
0.03716826
0.03717916
0.03719058
0.03720265
0.03721556
0.03722944
0.03724438
0.03726028
0.03727701
0.03729457
0.03731295
0.03733217
0.03735221
0.03737313
0.03739499
0.03741778
0.03744145
0.03746591
0.0374911
0.03751699
0.03754359
0.0375709
0.03759891
0.0376276
0.03765697
0.03768698
0.03771759
0.03774876
0.03778046
0.03781262
0.03784522
0.03787821
0.03791154
0.03794519
0.03797912
0.03801331
0.03804773
0.03808239
0.03811729
0.03815246
0.03818793
0.03822379
0.03826014
0.03829712
0.03833494
0.03837388
0.03841429
0.03845662
0.0385014
0.03854916
0.03860033
0.03865503
0.03871293
0.03877343
0.03883607
0.03890046
0.03896629
0.03903331
0.03910129
0.03917003
0.03923936
0.03930915
0.03937929
0.03944967
0.03952023
0.03959089
0.03966162
0.03973238
0.03980314
0.03987392
0.0399447
0.04001551
0.04008637
0.04015733
0.04022844
0.04029976
0.04037129
0.04044311
0.04051527
0.04058782
0.04066076
0.04073411
0.04080785
0.04088193
0.04095633
0.04103094
0.04110562
0.04118042
0.04125553
0.04133108
0.04140697
0.04148305
0.04155914
0.04163517
0.04171105
0.04178667
0.0418619
0.04193664
0.04201076
0.04208418
0.04215682
0.04222861
0.04229951
0.04236951
0.04243861
0.04250687
0.04257433
0.04264107
0.04270718
0.04277277
0.04283793
0.04290278
0.04296741
0.04303192
0.04309638
0.04316086
0.0432254
0.04329002
0.04335475
0.04341957
0.04348445
0.0435494
0.04361437
0.04367933
0.04374418
0.04380883
0.04387313
0.04393695
0.04400009
0.04406241
0.04412377
0.04418417
0.04424375
0.04430266
0.04436103
0.04441895
0.04447644
0.04453354
0.04459027
0.04464658
0.0447025
0.04475816
0.04481372
0.04486929
0.04492492
0.04498065
0.04503645
0.04509226
0.04514803
0.04520372
0.04525926
0.04531466
0.04536988
0.04542495
0.04547987
0.04553466
0.04558934
0.04564395
0.04569851
0.04575306
0.04580763
0.04586224
0.04591695
0.04597176
0.04602672
0.04608185
0.04613716
0.04619268
0.04624842
0.0463044
0.04636062
0.0464171
0.04647385
0.04653088
0.04658821
0.04664587
0.04670388
0.04676231
0.0468212
0.04688023
0.04693918
0.04699798
0.04705657
0.04711491
0.04717295
0.04723064
0.04728793
0.04734476
0.04740109
0.04745686
0.04751202
0.04756653
0.04762033
0.04767339
0.04772567
0.04777713
0.04782775
0.04787752
0.04792642
0.04797445
0.04802163
0.04806798
0.04811352
0.04815831
0.04820241
0.04824623
0.04828962
0.0483325
0.04837496
0.04841716
0.04845927
0.04850151
0.04854411
0.04858736
0.04863156
0.04867708
0.0487243
0.04877364
0.04882555
0.04888041
0.04893845
0.0489993
0.04906044
0.04911166
0.00301445
0.01087629
0.01641601
0.02216056
0.02776306
0.03357109
0.03974269
0.04608555
0.0528039
0.06059433
0.07308221
0.08019564