/*--------------------------------*- C++ -*----------------------------------*\
| =========                 |                                                 |
| \\      /  F ield         | foam-extend: Open Source CFD                    |
|  \\    /   O peration     | Version:     3.1                                |
|   \\  /    A nd           | Web:         http://www.extend-project.de       |
|    \\/     M anipulation  |                                                 |
\*---------------------------------------------------------------------------*/
FoamFile
{
    version     2.0;
    format      ascii;
    class       volScalarField;
    location    "4";
    object      nut;
}
// * * * * * * * * * * * * * * * * * * * * * * * * * * * * * * * * * * * * * //

dimensions      [0 2 -1 0 0 0 0];

internalField   nonuniform List<scalar> 
119952
(
2.535812e-05
1.640959e-05
1.672028e-05
1.872729e-05
2.016736e-05
1.919141e-05
1.859334e-05
1.820211e-05
1.790515e-05
1.764697e-05
1.740243e-05
1.715708e-05
1.690342e-05
1.663865e-05
1.636243e-05
1.607536e-05
1.577812e-05
1.547018e-05
1.514279e-05
1.480048e-05
1.854478e-05
1.76466e-05
1.735675e-05
2.225957e-05
2.163649e-05
2.139432e-05
2.122729e-05
2.128934e-05
2.124564e-05
2.304437e-05
1.861475e-05
1.794526e-05
2.006844e-05
2.314665e-05
2.673369e-05
3.049062e-05
3.426584e-05
3.795136e-05
4.1507e-05
4.732231e-05
0.0001693453
0.0002176715
0.0002646529
0.0003081985
0.0003477563
0.0003839643
0.0004176388
0.0004495291
0.0004797998
0.0006838409
0.0007231755
0.0007618931
0.0008002227
0.0008384914
0.0008766655
0.0009146394
0.0009522645
0.000989185
0.001026008
0.001061467
0.001095521
0.001129938
0.001165012
0.001200598
0.001236461
0.001272465
0.001308604
0.001347651
0.00136856
0.001375702
0.001381451
0.001393123
0.001403739
0.001409323
0.001411571
0.001412579
0.001412931
0.001412756
0.001412137
0.001411097
0.00140964
0.001407792
0.00140562
0.001403244
0.001400854
0.001398758
0.001397534
0.001398202
0.001402691
0.001408925
0.001416863
0.001432363
0.001450153
0.001459139
0.001460226
0.001445018
0.001381136
0.001257106
0.001218086
0.001199811
0.001191751
0.001187811
0.001186128
0.001185864
0.001186144
0.001186264
0.001185767
0.00118434
0.001181748
0.001177816
0.001172422
0.001165486
0.001156967
0.001146856
0.00113518
0.001122015
0.001107602
0.001092143
0.001075738
0.001058526
0.001040691
0.00102241
0.001003833
0.0009851543
0.0009665835
0.0009483042
0.0009304626
0.0009131608
0.00089647
0.0008804364
0.0008650874
0.0008504371
0.0008364933
0.0008232538
0.0008107095
0.0007988346
0.0007875841
0.00077692
0.0007668019
0.0007571854
0.0007480254
0.0007392784
0.0007309041
0.0007228684
0.000715182
0.0007079691
0.0007020923
0.0006969716
0.0006907921
0.0006848333
0.0006789935
0.0006733382
0.00066781
0.0006623543
0.0006569385
0.0006515478
0.000646169
0.0006407871
0.0006353907
0.0006299726
0.000624522
0.0006190426
0.0006135496
0.0006080137
0.0006024563
0.0005968867
0.0005912972
0.0005856691
0.0005799947
0.0005742824
0.0005685407
0.0005627732
0.0005569814
0.0005511694
0.0005453426
0.0005395057
0.0005336607
0.0005278092
0.0005219531
0.0005160924
0.0005102301
0.0005043587
0.0004984875
0.000492626
0.0004867836
0.0004809586
0.0004751465
0.0004693438
0.000463548
0.0004577569
0.0004519689
0.0004461876
0.0004404157
0.0004346595
0.0004289276
0.0004233293
0.0004190027
0.0003106203
0.0003117902
0.0003085659
0.0003062771
0.0003047863
0.000303786
0.0003031049
0.0002980344
0.0002910829
0.0002847214
0.0002787731
0.0002731816
0.0002678821
0.0002628255
0.0002579814
0.0002533295
0.0002488471
0.0002445193
0.0002403354
0.0002362831
0.0002323514
0.0002285325
0.00022482
0.0002212099
0.0002176953
0.0002142711
0.0002109308
0.0002076734
0.0002044985
0.0002014091
0.0001984088
0.0001955035
0.0001927057
0.0001900562
0.000187794
0.0001878021
0.0001855876
0.00018761
0.0001906162
0.0001942506
0.0001983928
0.0002029455
0.000207848
0.0002130866
0.0002186628
0.0002245505
0.0002307665
0.0002372658
0.0002440415
0.0002510688
0.0002582865
0.0002654971
0.0002707749
0.0002751732
0.0002795348
0.0002838818
0.0002882247
0.0002925707
0.000296927
0.0003013013
0.0003056982
0.0003101105
0.0003145232
0.000318947
0.0003233879
0.0003278427
0.0003323083
0.0003367828
0.0003412696
0.0003457721
0.000460188
0.0004694453
0.0004787841
0.0004882264
0.0004976397
0.000507084
0.0005166861
0.000526496
0.0005366227
0.0005470565
0.00055772
0.000568548
0.0005794905
0.0005905118
0.0006016143
0.0006129171
0.0006244383
0.0006361123
0.0006478985
0.0006597702
0.0006717076
0.0006836924
0.0006957054
0.0007077257
0.0007197304
0.0007316955
0.0007435976
0.0007554149
0.0007671289
0.0007787255
0.0007901968
0.0008015426
0.0008127715
0.0008238897
0.0008348522
0.0008456379
0.0008562483
0.0008666894
0.0008769684
0.0008870933
0.0008970719
0.0009069108
0.0009166155
0.0009261892
0.0009356295
0.0009448328
0.0009535317
0.0009617366
0.0009693317
0.0009765007
0.0009833813
0.000990066
0.0009966208
0.001002537
0.001008148
0.001012234
0.001017074
0.001023837
0.001032558
0.001043116
0.001055221
0.001068535
0.001082702
0.001097387
0.001112274
0.001127085
0.001141594
0.001155633
0.001169095
0.001181932
0.001194149
0.00120578
0.001216881
0.001227511
0.001237727
0.001247574
0.00125709
0.001266309
0.001275259
0.001283965
0.001292447
0.001300721
0.001308815
0.001316767
0.001324594
0.001332307
0.001339917
0.001347434
0.001354867
0.001362223
0.00136951
0.001376734
0.001383903
0.001391022
0.001398099
0.001405139
0.001412152
0.001419143
0.001426123
0.0014331
0.00144008
0.001447027
0.001453928
0.001460781
0.001467582
0.001474328
0.001481015
0.001487633
0.001494178
0.001500649
0.001507046
0.001513369
0.001519618
0.001525794
0.001531899
0.001537936
0.001543909
0.001549822
0.00155568
0.001561488
0.001567255
0.001572988
0.001578698
0.001584398
0.001590103
0.001595832
0.00160161
0.001607471
0.001613456
0.001619627
0.00162607
0.001632916
0.001640378
0.001648821
0.001658946
0.001672262
0.001692098
0.001727119
0.001733486
2.428166e-05
2.605072e-05
2.967338e-05
3.453795e-05
4.02022e-05
4.628534e-05
5.254873e-05
5.887662e-05
6.5847e-05
0.0002041893
0.000278608
0.0003576776
0.0004335676
0.0005022592
0.0005632371
0.0006177573
0.0006674581
0.0007137541
0.001027604
0.001096802
0.001167583
0.001237288
0.001304666
0.001368575
0.001428136
0.001483007
0.001533076
0.001578923
0.001620431
0.001658552
0.001697279
0.001736208
0.001774092
0.001809781
0.00184264
0.001872442
0.001899363
0.001913147
0.00191636
0.001925434
0.001939064
0.001955415
0.001973345
0.001992193
0.002011601
0.002031344
0.002051397
0.002071424
0.002091752
0.002112868
0.002134875
0.002157966
0.00218217
0.002207428
0.00223358
0.002260043
0.002643033
0.002668624
0.00269442
0.002720486
0.00274684
0.00277356
0.002800646
0.002828175
0.002855979
0.002884009
0.002912427
0.002941097
0.002969839
0.002998677
0.0030276
0.003056547
0.003085508
0.003115094
0.003146092
0.003174506
0.0031973
0.003219129
0.00324046
0.003259134
0.003274224
0.003286478
0.003296829
0.00330576
0.003313658
0.00332088
0.003327724
0.003334436
0.003341229
0.003348297
0.003355838
0.003364049
0.003373192
0.003383616
0.003396018
0.003410834
0.003427453
0.003446925
0.003470007
0.003493995
0.003515907
0.003533669
0.003538392
0.003528284
0.003516826
0.00351611
0.00352192
0.003531123
0.003541178
0.003551816
0.003562611
0.003573139
0.003583007
0.00359186
0.003599365
0.003605208
0.003609092
0.003610748
0.003609935
0.003606441
0.003600096
0.003590761
0.00357832
0.003562677
0.003543814
0.003521803
0.003496784
0.003468959
0.003438547
0.003405732
0.003370482
0.00333279
0.003293321
0.003252664
0.003211349
0.003169854
0.003128601
0.00308797
0.003048322
0.003010107
0.002973725
0.002939199
0.002906545
0.00287577
0.002846868
0.002819816
0.002794573
0.002771084
0.002749284
0.002729114
0.002710534
0.002693555
0.002678171
0.002664487
0.002652007
0.002639709
0.002627917
0.002616709
0.002606009
0.002595757
0.002585895
0.002576371
0.002567138
0.002558148
0.002549357
0.002540721
0.002532203
0.002523766
0.002515385
0.002507038
0.002498709
0.002490379
0.002482026
0.002473633
0.002465184
0.002456667
0.002448076
0.002439406
0.002430655
0.002421823
0.002412915
0.002403934
0.002394886
0.002385775
0.002376604
0.002367377
0.002358102
0.00234878
0.002339417
0.002330018
0.002320594
0.002311146
0.002301684
0.002292212
0.002282741
0.002273277
0.002263829
0.002254418
0.002245051
0.00223578
0.002226643
0.002217801
0.002209558
0.002205424
0.002104558
0.001987098
0.001905303
0.001846755
0.001803748
0.001771348
0.001746395
0.001726669
0.001710736
0.001697598
0.001686496
0.001676878
0.001668341
0.001660595
0.001653436
0.001646723
0.001640353
0.001634253
0.001628367
0.001622659
0.001617105
0.001611691
0.001606409
0.001601255
0.001596231
0.00159134
0.00158659
0.001582001
0.001577603
0.001573442
0.00156959
0.001566161
0.001563376
0.001561735
0.001562269
0.001566864
0.001576224
0.00158642
0.001597534
0.001609403
0.001621853
0.001634765
0.001648057
0.001661673
0.00167557
0.001689709
0.001704056
0.001718576
0.001733238
0.001748019
0.001762907
0.001777912
0.001793047
0.001808301
0.001823659
0.001839106
0.00185463
0.001870224
0.001885879
0.001901589
0.001917347
0.001933139
0.001948948
0.001964757
0.001980551
0.001996316
0.002012039
0.002027716
0.002043352
0.002058709
0.002481557
0.002506945
0.002531449
0.002554479
0.002576034
0.002596298
0.00261548
0.002633788
0.002651418
0.002668531
0.002685249
0.002701668
0.002717857
0.002733887
0.002749913
0.002766049
0.002782363
0.002798906
0.002815721
0.002832842
0.002850294
0.002868093
0.00288624
0.002904723
0.002923518
0.002942589
0.002961888
0.002981363
0.003000955
0.003020606
0.00304026
0.003059867
0.003079383
0.003098778
0.003118028
0.00313711
0.003156005
0.003174693
0.00319316
0.003211391
0.003229366
0.00324705
0.003264376
0.003281204
0.003297289
0.003312331
0.003326568
0.003340377
0.00335392
0.003367269
0.003380484
0.003393598
0.003406653
0.003419188
0.003431368
0.003443513
0.003455342
0.003467356
0.003479858
0.003493051
0.003507088
0.003522054
0.003537974
0.003554822
0.003572524
0.003590961
0.003609986
0.003629439
0.003649158
0.003668995
0.003688819
0.003708523
0.00372802
0.003747244
0.003766143
0.003784682
0.003802838
0.0038206
0.003837969
0.00385495
0.003871557
0.003887805
0.003903713
0.003919297
0.003934575
0.003949563
0.003964277
0.003978731
0.003992937
0.004006908
0.004020653
0.004034183
0.004047504
0.004060625
0.00407355
0.004086286
0.004098834
0.0041112
0.004123386
0.004135396
0.004147232
0.004158896
0.004170385
0.004181694
0.004192821
0.00420376
0.004214507
0.0042251
0.004235617
0.004246076
0.004256486
0.004266855
0.004277194
0.004287494
0.004297672
0.004307707
0.004317598
0.00432735
0.004336973
0.004346479
0.004355885
0.004365212
0.004374485
0.004383732
0.004392991
0.004402306
0.004411733
0.004421344
0.004431233
0.004441526
0.004452398
0.004464096
0.00447698
0.004491569
0.004508633
0.0045292
0.004554909
0.004585682
0.004612504
6.746438e-05
8.366699e-05
0.0001019807
0.0001212512
0.000141093
0.0001613575
0.0001820114
0.0002028371
0.0002238729
0.0002528467
0.0005649507
0.0007971454
0.0009144795
0.0009886178
0.001048509
0.00110274
0.00115397
0.001203189
0.001250691
0.001803709
0.0019244
0.002035873
0.002134358
0.002218133
0.00228788
0.002345696
0.002393896
0.002434364
0.0024691
0.002499969
0.002533399
0.002570747
0.00261019
0.002649562
0.002686936
0.002721331
0.002752161
0.002781906
0.002771615
0.002772767
0.002784168
0.002802825
0.002826501
0.002853537
0.002882757
0.002913506
0.002945322
0.002977415
0.003009138
0.00304199
0.003076329
0.003112704
0.003151181
0.003191429
0.003232919
0.003274424
0.003785122
0.003826729
0.003865251
0.003900705
0.003933332
0.003963344
0.003990735
0.004015315
0.004036803
0.004054915
0.004069434
0.004080426
0.004087887
0.004092038
0.004093173
0.004091512
0.004087304
0.004080802
0.004072258
0.004061605
0.004049108
0.004035383
0.004020842
0.004005914
0.003991035
0.003976581
0.003962897
0.003950205
0.003938781
0.003928838
0.003920403
0.00391366
0.003908802
0.003905934
0.003905139
0.003906393
0.003909766
0.003915754
0.003915898
0.003919325
0.003925539
0.003934076
0.003944755
0.003957464
0.003972036
0.003988299
0.004006045
0.00402512
0.00404542
0.004066732
0.004088916
0.004111908
0.004135645
0.004160069
0.004185189
0.004211136
0.004237896
0.004264428
0.004289089
0.004312651
0.004335943
0.004358493
0.004379585
0.004399107
0.004417418
0.004434911
0.004451899
0.004468634
0.004485337
0.004502208
0.004519437
0.004537203
0.004555692
0.004575091
0.004595635
0.00461761
0.004641407
0.004667401
0.004695691
0.004726639
0.004760531
0.004796597
0.004833148
0.00486893
0.00490226
0.004928068
0.004952556
0.004981349
0.005011997
0.005044444
0.005077976
0.005111948
0.005145836
0.005179167
0.005211483
0.005242338
0.005271307
0.005297986
0.005321995
0.005342979
0.005360609
0.005374589
0.005384659
0.005390601
0.005392241
0.005389452
0.005382164
0.005370374
0.005354145
0.005333605
0.005308939
0.005280368
0.005248141
0.005212562
0.005174033
0.005133017
0.005090008
0.00504551
0.005000018
0.004954002
0.004907862
0.004861748
0.004815763
0.00477047
0.004726338
0.004683735
0.004642937
0.00460415
0.00456751
0.004533102
0.004500962
0.004471114
0.004443543
0.004418192
0.004394997
0.00437392
0.004354552
0.004336336
0.004319166
0.004303047
0.004287892
0.00427363
0.004260167
0.004247425
0.004235325
0.004223789
0.004212742
0.004202113
0.004191832
0.004181834
0.004172076
0.004162512
0.004153091
0.004143785
0.004134559
0.004125376
0.004116208
0.004107037
0.004097832
0.004088581
0.004079274
0.004069902
0.00406046
0.004050942
0.004041357
0.004031685
0.004021935
0.004012112
0.004002203
0.003992217
0.003982163
0.003972044
0.003961874
0.003951655
0.003941406
0.003931129
0.003920849
0.00391057
0.003900323
0.003890123
0.003880005
0.003870009
0.003860205
0.003850582
0.003841365
0.003832229
0.003812942
0.003800215
0.003791905
0.003786471
0.003782813
0.003780183
0.003778101
0.003776284
0.00377455
0.003772799
0.003770973
0.003769045
0.003767008
0.003764874
0.003762661
0.003760389
0.003758078
0.003755747
0.003753412
0.00375109
0.003748793
0.003746541
0.003744352
0.003742233
0.003740211
0.00373831
0.003736561
0.003735007
0.003733704
0.003732734
0.003732213
0.003732334
0.003733395
0.00373588
0.003740442
0.003747728
0.003757562
0.003769076
0.003781729
0.003795238
0.0038094
0.003824072
0.003839159
0.003854592
0.003870319
0.003886301
0.003902504
0.003918901
0.003935469
0.003952194
0.003969075
0.003986113
0.004003307
0.004020648
0.004038132
0.004055756
0.00407352
0.004091428
0.004109481
0.004127681
0.004146025
0.004164509
0.004183122
0.004201852
0.004220678
0.004239586
0.004258536
0.00427752
0.004296516
0.004316933
0.0043229
0.004331218
0.004340574
0.004350911
0.004362232
0.004374281
0.004386843
0.004399818
0.004413153
0.004426796
0.004440694
0.004454811
0.004469134
0.004483673
0.004498453
0.004513507
0.004528877
0.00454461
0.004560761
0.004577383
0.004594528
0.004612241
0.004630555
0.004649489
0.004669049
0.004689221
0.004709979
0.004731282
0.004753078
0.004775307
0.004797905
0.004820804
0.00484394
0.004867249
0.004890675
0.004914161
0.004937658
0.004961117
0.004984494
0.005007745
0.005030823
0.005053665
0.005076193
0.005098284
0.005119795
0.00514054
0.005160602
0.005180208
0.005199489
0.005218507
0.005237315
0.005255908
0.005274287
0.005292562
0.005310414
0.00532792
0.005345424
0.00536305
0.005380896
0.005399093
0.005417721
0.005436839
0.005456492
0.005476709
0.005497499
0.005518848
0.005540723
0.005563067
0.00558581
0.005608867
0.005632148
0.005655565
0.005679027
0.005702453
0.005725768
0.005748908
0.005771819
0.005794457
0.00581679
0.005838795
0.005860457
0.005881767
0.005902721
0.005923319
0.005943563
0.005963457
0.005983006
0.006002217
0.006021097
0.006039653
0.006057894
0.006075829
0.00609347
0.006110832
0.006127929
0.006144769
0.006161356
0.006177693
0.006193782
0.006209623
0.006225218
0.006240564
0.006255662
0.006270511
0.006285111
0.006299462
0.006313565
0.00632742
0.006341023
0.006354368
0.00636745
0.006380263
0.006392799
0.006405084
0.006417266
0.006429402
0.006441505
0.006453479
0.006465289
0.006476939
0.006488447
0.00649984
0.006511148
0.006522411
0.006533675
0.006544995
0.006556441
0.006568099
0.006580079
0.006592522
0.006605615
0.006619603
0.006634809
0.006651658
0.006670675
0.006692458
0.006717533
0.006745226
0.006770221
4.992126e-05
9.944828e-05
0.0001632361
0.0006231247
0.001033527
0.00211851
0.002630715
0.003174265
0.00364188
0.003907748
0.00406148
0.004194733
0.004398217
0.004484833
0.004532176
0.004565908
0.004591925
0.004612222
0.004627873
0.004639681
0.004648502
0.004656731
0.00467314
0.004700151
0.004729857
0.004755749
0.004775337
0.004789172
0.004798481
0.004804279
0.004805992
0.005128575
0.005141475
0.005151524
0.005160965
0.005170543
0.005180007
0.005188945
0.005197219
0.005204681
0.005211092
0.005216397
0.005220789
0.005224333
0.005227263
0.005229793
0.005232053
0.005234111
0.005235934
0.005237372
0.005237926
0.005237979
0.005238621
0.005239709
0.005241259
0.005243371
0.005245973
0.005248893
0.005252477
0.005256853
0.005262074
0.005268357
0.005275828
0.005284574
0.005294446
0.005305384
0.005316463
0.005329172
0.005334077
0.005339105
0.00534413
0.005349313
0.005354777
0.005360875
0.005366624
0.005371265
0.005374273
0.005375265
0.005373921
0.005369943
0.005363249
0.005353861
0.005341846
0.00532731
0.0053104
0.005291295
0.005270222
0.00524738
0.005222983
0.005197377
0.005170963
0.005144111
0.005117157
0.005090421
0.005064213
0.00503881
0.005014484
0.004991469
0.004969953
0.00495014
0.004932235
0.004916371
0.004902693
0.004891209
0.004882081
0.004875109
0.004870012
0.004866958
0.004865967
0.00486703
0.004870166
0.004875376
0.00488261
0.004891783
0.004902785
0.004915499
0.004929815
0.004945624
0.004962836
0.00498138
0.005001195
0.005022237
0.00504447
0.005067867
0.005092358
0.005117532
0.00514255
0.005167283
0.005192169
0.005217221
0.005242039
0.005266375
0.005290342
0.005314207
0.005338212
0.005362549
0.005387386
0.005412889
0.005439219
0.005466538
0.005495014
0.005524826
0.00555618
0.005589322
0.005624547
0.005662202
0.005702513
0.005745675
0.005791842
0.005840757
0.005891541
0.005943342
0.005995448
0.006046892
0.006097718
0.006149338
0.006202779
0.006258161
0.006315056
0.006372915
0.006431212
0.00648943
0.006547034
0.006603479
0.006658224
0.006710741
0.006760522
0.006807075
0.006849937
0.00688867
0.006922882
0.006952231
0.006976428
0.006995238
0.007008479
0.007016038
0.007017869
0.007014006
0.007004553
0.006989692
0.00696967
0.006944811
0.006915501
0.006882192
0.006845378
0.006805586
0.006763359
0.006719238
0.006673743
0.006627343
0.006580489
0.006533631
0.006487195
0.006441574
0.00639711
0.006354095
0.006312763
0.006273295
0.006235823
0.006200421
0.006167134
0.006135989
0.00610695
0.006079938
0.006054835
0.006031462
0.006009614
0.005989179
0.005970066
0.005952173
0.005935391
0.005919593
0.005904678
0.005890526
0.005877052
0.005864173
0.005851814
0.005839906
0.005828385
0.005817203
0.005806318
0.005795664
0.005785205
0.0057749
0.005764713
0.005754612
0.005744572
0.005734573
0.005724599
0.005714641
0.005704693
0.005694754
0.005684824
0.005674918
0.005665043
0.005655187
0.005645298
0.005635368
0.005625395
0.005615381
0.005605332
0.005595249
0.00558514
0.005575009
0.005564872
0.005554743
0.005544645
0.005534599
0.00552464
0.005514791
0.005505107
0.005495597
0.005486359
0.005477323
0.00546769
0.005457973
0.005448452
0.005439409
0.005430964
0.005423162
0.005416018
0.005409492
0.00540356
0.005398179
0.005393296
0.005388859
0.005384824
0.005381149
0.005377815
0.005374773
0.00537201
0.005369504
0.005367239
0.005365198
0.005363384
0.005361774
0.005360374
0.005359192
0.005358249
0.005357545
0.005357122
0.005357025
0.005357319
0.005358095
0.005359493
0.005361686
0.00536493
0.005369571
0.005375977
0.005384525
0.005395171
0.005407406
0.005420779
0.005435019
0.005449949
0.005465423
0.005481333
0.00549759
0.005514136
0.005530903
0.005547854
0.005564955
0.005582189
0.005599522
0.005616957
0.005634491
0.005652125
0.005669858
0.005687692
0.005705635
0.005723699
0.005741898
0.005760248
0.005778767
0.005797469
0.005816365
0.005835468
0.005854779
0.005874298
0.005894021
0.005913925
0.005933979
0.005954103
0.005974423
0.005993564
0.006011586
0.006028997
0.0060462
0.006063282
0.006080184
0.006096855
0.006113323
0.006129656
0.006145892
0.006162054
0.006178166
0.006194258
0.006210368
0.006226542
0.006242834
0.006259306
0.006276027
0.006293072
0.006310519
0.006328446
0.006346926
0.006366025
0.006385795
0.006406275
0.006427486
0.006449434
0.006472106
0.006495474
0.006519497
0.006544122
0.006569289
0.006594933
0.006620988
0.00664739
0.006674078
0.006700996
0.006728083
0.006755276
0.006782512
0.006809726
0.006836843
0.006863781
0.006890439
0.006916713
0.006942503
0.006967817
0.006992745
0.007017371
0.007041743
0.007065889
0.007089818
0.00711354
0.007137095
0.007160367
0.007183407
0.007206356
0.007229296
0.007252297
0.007275431
0.007298755
0.007322307
0.007346119
0.007370215
0.007394614
0.00741933
0.007444367
0.007469715
0.007495356
0.007521254
0.007547366
0.007573638
0.007600013
0.007626429
0.007652828
0.007679153
0.007705354
0.007731383
0.007757203
0.007782779
0.007808085
0.007833097
0.007857799
0.007882174
0.007906211
0.007929897
0.007953223
0.007976178
0.007998752
0.008020932
0.008042702
0.008064043
0.008084932
0.008105345
0.008125395
0.008145144
0.008164604
0.008183776
0.008202659
0.008221254
0.008239557
0.008257567
0.008275283
0.008292701
0.008309819
0.008326636
0.008343149
0.008359357
0.008375256
0.008390848
0.008406134
0.008421117
0.008435804
0.008450201
0.008464315
0.008478142
0.008491699
0.008505161
0.008518591
0.00853188
0.008545001
0.008557975
0.008570837
0.00858363
0.008596407
0.008609231
0.008622179
0.008635343
0.008648839
0.008662809
0.008677432
0.008692932
0.00870958
0.008727706
0.00874767
0.008769819
0.008794281
0.008820261
0.008843385
2.337517e-05
4.284307e-05
7.25037e-05
0.0002865325
0.0004826831
0.000966408
0.001381951
0.001754795
0.002207575
0.00261299
0.003013412
0.003452836
0.003913801
0.004359901
0.004727483
0.005037892
0.005710283
0.005801893
0.005873642
0.005909485
0.00591207
0.005705517
0.005447597
0.005245223
0.005086616
0.004961178
0.004862163
0.004787966
0.004736896
0.004706815
0.004695589
0.004699613
0.004714217
0.004741963
0.00478217
0.004831962
0.00488791
0.004951962
0.005018377
0.00509537
0.00515902
0.005258785
0.005405285
0.005474326
0.005549593
0.005642918
0.005741011
0.00580305
0.005823349
0.005843214
0.005862757
0.005882035
0.005901046
0.005919728
0.005938051
0.005956037
0.005973696
0.005990998
0.006007847
0.006024073
0.006039808
0.006055091
0.0060694
0.006081884
0.006092869
0.006102613
0.006111374
0.006119422
0.006126986
0.006134305
0.006141532
0.006148798
0.006156299
0.006164193
0.00617259
0.006181527
0.00619098
0.006200769
0.006210839
0.006220505
0.006229288
0.006237235
0.006244288
0.006249773
0.006252499
0.006252886
0.006251397
0.006248809
0.006244833
0.006239098
0.006231349
0.006221442
0.006209311
0.006194933
0.006178328
0.006159558
0.006138724
0.006115962
0.006091421
0.006065269
0.006037758
0.0060092
0.005979895
0.00595013
0.005920184
0.005890337
0.005860862
0.005832015
0.005804044
0.005777181
0.005751638
0.005727622
0.005705303
0.005684849
0.00566636
0.005649966
0.005635698
0.005623572
0.005613617
0.005605868
0.005600335
0.005597017
0.005595902
0.00559696
0.005600143
0.005605381
0.005612595
0.005621714
0.005632679
0.005645423
0.005659889
0.005676027
0.005693796
0.00571315
0.005734036
0.005756376
0.005779942
0.005804295
0.005829215
0.005854821
0.005881156
0.005908039
0.0059353
0.005962962
0.005991177
0.006020119
0.006049941
0.006080786
0.006112798
0.006146123
0.006180914
0.006217332
0.006255547
0.006295756
0.006338186
0.006383098
0.006430775
0.006481445
0.006535281
0.00659239
0.006652661
0.006715671
0.006780859
0.006847748
0.006915939
0.006985292
0.00705624
0.007129357
0.007204814
0.007282378
0.007361637
0.007442121
0.007523325
0.007604706
0.007685688
0.007765673
0.007844056
0.007920234
0.007993605
0.008063565
0.008129514
0.008190893
0.00824724
0.008298151
0.008343261
0.008382244
0.008414834
0.008440832
0.008460123
0.00847268
0.008478567
0.008477937
0.008471038
0.008458196
0.008439819
0.008416374
0.008388385
0.008356409
0.008321027
0.008282827
0.008242388
0.008200277
0.008157036
0.008113179
0.008069183
0.00802548
0.007982453
0.00794043
0.007899687
0.007860444
0.007822869
0.00778708
0.007753152
0.007721115
0.007690962
0.007662652
0.007636108
0.007611231
0.007587923
0.007566087
0.007545627
0.00752644
0.007508419
0.007491449
0.007475458
0.007460317
0.007445961
0.007432297
0.007419245
0.007406752
0.007394734
0.007383134
0.007371899
0.007360973
0.007350309
0.007339859
0.007329582
0.007319441
0.0073094
0.00729943
0.007289503
0.007279593
0.007269678
0.007259736
0.007249746
0.007239689
0.00722957
0.00721945
0.007209358
0.007199312
0.007189334
0.007179448
0.007169683
0.007160007
0.007150374
0.007140781
0.007131235
0.007121745
0.007112329
0.00710301
0.00709381
0.007084768
0.007075899
0.007067245
0.007058806
0.007050493
0.00704225
0.007034085
0.007026049
0.007018212
0.007010639
0.007003384
0.00699649
0.006989992
0.006983911
0.006978255
0.006973027
0.006968224
0.006963838
0.006959859
0.006956287
0.006953104
0.006950297
0.006947856
0.006945768
0.006944027
0.006942626
0.006941564
0.006940845
0.006940474
0.006940481
0.006940886
0.006941735
0.006943089
0.006945032
0.006947677
0.006951173
0.006955702
0.00696149
0.00696876
0.006977696
0.006988296
0.007000326
0.007013495
0.007027584
0.007042422
0.007057878
0.007073843
0.007090223
0.00710694
0.007123929
0.007141134
0.007158511
0.007176021
0.007193641
0.007211359
0.007229146
0.007247006
0.007264937
0.007282943
0.007301034
0.007319225
0.007337535
0.007355989
0.007374613
0.007393429
0.007412482
0.007431768
0.007451322
0.007471159
0.007491288
0.007511706
0.007532407
0.007553362
0.007574576
0.007595833
0.007616997
0.007638113
0.007659231
0.00768033
0.007701348
0.007722221
0.007742919
0.007763439
0.007783781
0.007803945
0.007823936
0.00784377
0.007863471
0.007883075
0.007902629
0.007922192
0.00794183
0.007961621
0.007981648
0.008001997
0.008022756
0.008044006
0.008065821
0.008088266
0.008111388
0.008135221
0.00815978
0.008185062
0.008211046
0.008237695
0.008264957
0.008292762
0.00832103
0.008349668
0.008378586
0.008407837
0.008437416
0.008467266
0.008497322
0.008527511
0.008557759
0.008587984
0.008618101
0.008648027
0.008677694
0.008707082
0.008736217
0.00876514
0.008793871
0.008822422
0.008850796
0.008878995
0.008907028
0.008934864
0.008962518
0.00899005
0.009017519
0.009044973
0.00907245
0.009099984
0.009127593
0.009155291
0.009183093
0.009211009
0.009239052
0.009267233
0.009295556
0.009324021
0.009352616
0.009381325
0.00941012
0.00943897
0.00946784
0.009496693
0.009525493
0.009554204
0.009582794
0.009611233
0.009639495
0.009667557
0.0096954
0.009723006
0.009750362
0.009777456
0.009804279
0.009830824
0.009857086
0.00988306
0.009908745
0.009934138
0.009959241
0.009984052
0.01
0.01
0.01
0.01
0.01
0.01
0.01
0.01
0.01
0.01
0.01
0.01
0.01
0.01
0.01
0.01
0.01
0.01
0.01
0.01
0.01
0.01
0.01
0.01
0.01
0.01
0.01
0.01
0.01
0.01
0.01
0.01
0.01
0.01
0.01
0.01
0.01
0.01
0.01
0.01
0.01
0.01
0.01
0.01
0.01
0.01
2.210785e-05
3.702842e-05
6.716672e-05
0.0002262813
0.0003815107
0.0006620033
0.0008515744
0.001067905
0.001321092
0.001561379
0.001829995
0.002170881
0.002545893
0.00295404
0.003419309
0.00438514
0.004750317
0.005095149
0.005403246
0.00566788
0.005881922
0.006035714
0.006136274
0.006195275
0.006222054
0.005986436
0.005840397
0.005542443
0.005269022
0.005032302
0.004807892
0.004582067
0.004374894
0.004208063
0.004080189
0.003982813
0.003909804
0.00385815
0.00382618
0.003811975
0.00381343
0.003827845
0.003853741
0.003890353
0.003937419
0.003993902
0.004058495
0.004129992
0.004207059
0.004289758
0.004377533
0.004473575
0.004588653
0.004691363
0.004787715
0.004889828
0.004994709
0.005097442
0.005197595
0.005296662
0.005394766
0.005491746
0.005588658
0.00568584
0.005782339
0.005877776
0.005972226
0.006065457
0.006158718
0.006233269
0.006270425
0.006305347
0.006338191
0.006369137
0.006398352
0.006425941
0.006451963
0.006476475
0.006499581
0.006521414
0.006542101
0.00656177
0.00658056
0.006598623
0.00661609
0.006633079
0.006649657
0.006665852
0.006681647
0.006696915
0.006711381
0.006724906
0.006737415
0.006748708
0.006758485
0.006766499
0.006772388
0.006775384
0.006775738
0.006773899
0.006770322
0.006764872
0.006757449
0.006748001
0.006736512
0.006722996
0.006707491
0.006690063
0.006670802
0.006649829
0.006627309
0.006603454
0.006578489
0.006552647
0.006526163
0.006499282
0.006472248
0.006445303
0.006418685
0.006392623
0.006367331
0.006343017
0.006319869
0.006298063
0.006277743
0.006259043
0.006242064
0.006226884
0.006213576
0.006202211
0.006192839
0.006185492
0.006180193
0.006176954
0.006175774
0.006176637
0.006179514
0.006184381
0.006191211
0.006199975
0.006210644
0.006223194
0.006237601
0.006253833
0.006271847
0.006291571
0.006312866
0.006335502
0.006359311
0.006384279
0.006410418
0.006437657
0.006465913
0.006495187
0.006525569
0.006557188
0.006590174
0.006624655
0.006660762
0.006698635
0.00673842
0.006780272
0.006824362
0.006870878
0.006920033
0.006972059
0.007027193
0.007085646
0.007147584
0.00721311
0.007282194
0.007354629
0.00743009
0.007508282
0.007589005
0.007672177
0.007757958
0.007846632
0.007938317
0.008032874
0.008129989
0.008229263
0.008330236
0.008432396
0.008535182
0.008637986
0.008740165
0.00884109
0.008940127
0.009036581
0.009129653
0.009218389
0.009302313
0.009381067
0.009454186
0.009521191
0.009581634
0.009635131
0.00968138
0.009720176
0.009751414
0.009775101
0.009791346
0.009800365
0.00980247
0.009798058
0.0097876
0.009771629
0.00975072
0.009725482
0.009696536
0.009664505
0.009630002
0.009593618
0.009555912
0.009517404
0.009478567
0.009439822
0.009401536
0.009364021
0.009327535
0.00929228
0.009258412
0.009226035
0.009195217
0.009165983
0.009138327
0.009112216
0.009087604
0.00906443
0.00904263
0.009022127
0.00900284
0.008984681
0.00896755
0.008951404
0.008936124
0.008921637
0.008907864
0.008894732
0.008882171
0.008870116
0.008858507
0.008847286
0.0088364