/*--------------------------------*- C++ -*----------------------------------*\
| =========                 |                                                 |
| \\      /  F ield         | foam-extend: Open Source CFD                    |
|  \\    /   O peration     | Version:     3.1                                |
|   \\  /    A nd           | Web:         http://www.extend-project.de       |
|    \\/     M anipulation  |                                                 |
\*---------------------------------------------------------------------------*/
FoamFile
{
    version     2.0;
    format      ascii;
    class       volScalarField;
    location    "4";
    object      omega;
}
// * * * * * * * * * * * * * * * * * * * * * * * * * * * * * * * * * * * * * //

dimensions      [0 0 -1 0 0 0 0];

internalField   nonuniform List<scalar> 
119952
(
150.5623
188.6421
179.0109
157.4375
142.5437
144.2607
147.4607
151.428
155.8661
160.6349
165.6597
170.9016
176.3468
182
187.8786
194.0102
200.4329
207.2073
214.4683
222.6915
186.5444
186.9668
189.9962
159.8232
157.7403
157.1505
156.7975
156.4225
154.3503
134.1511
310.1867
243.4114
205.1197
181.5883
164.9195
151.715
140.508
130.7706
122.1656
112.3933
89.69879
76.31322
68.14151
62.56093
58.34218
54.89406
51.93858
49.34886
47.00848
37.31462
35.6262
33.97702
32.42871
31.02011
29.75268
28.61222
27.58222
26.64565
25.80139
25.02661
24.24806
23.48657
22.74972
22.04389
21.37204
20.73139
20.10904
19.49502
19.37631
19.25575
18.97543
18.71768
18.49727
18.29602
18.08851
17.88297
17.68631
17.50048
17.3262
17.16401
17.014
16.87577
16.7485
16.63082
16.52047
16.41313
16.30008
16.16806
16.02346
15.88489
15.7024
15.50462
15.40003
15.3413
15.33327
15.52709
16.31376
17.63159
17.92875
18.01933
18.01039
17.96797
17.90992
17.84435
17.77954
17.72156
17.67392
17.63883
17.61776
17.61168
17.6212
17.64662
17.68807
17.74555
17.81888
17.90755
18.00942
18.12298
18.24781
18.38294
18.52713
18.67985
18.83963
19.00519
19.17517
19.34773
19.52149
19.69544
19.86877
20.04091
20.21128
20.37927
20.54432
20.70611
20.86457
21.01996
21.17292
21.32388
21.47328
21.62167
21.76964
21.9177
22.06627
22.21546
22.36311
22.50213
22.60443
22.70844
22.8964
23.10129
23.31833
23.5386
23.75953
23.98016
24.19997
24.4187
24.63626
24.8528
25.06859
25.28399
25.49967
25.71567
25.93133
26.14789
26.3659
26.58569
26.80739
27.03162
27.25891
27.48948
27.7236
27.96162
28.20391
28.45074
28.70232
28.95891
29.2209
29.48868
29.76257
30.04298
30.33013
30.62502
30.92826
31.23965
31.55862
31.88519
32.21981
32.563
32.91527
33.27728
33.6496
34.03273
34.42695
34.83218
35.24707
35.6568
35.97361
37.63272
41.04436
43.99136
46.45927
48.52043
50.25401
51.72805
52.98851
54.11023
55.09278
55.98547
56.81303
57.59915
58.36059
59.10771
59.84778
60.58832
61.33479
62.09086
62.85995
63.64537
64.44967
65.27506
66.12287
66.99556
67.89464
68.82187
69.77859
70.76563
71.78317
72.83058
73.90606
75.00415
76.10214
77.05271
76.73096
75.0437
73.4708
71.96103
70.50667
69.09746
67.72443
66.38332
65.0715
63.78786
62.53306
61.30855
60.11651
58.95966
57.841
56.76303
55.72089
54.68849
53.66741
52.67042
51.7023
50.76453
49.85746
48.98101
48.13442
47.31536
46.52102
45.75137
45.00987
44.29469
43.60421
42.93743
42.29316
41.66927
41.0619
32.06033
31.41544
30.67292
29.86521
29.06671
28.30032
27.58221
26.92116
26.31539
25.76291
25.26235
24.81058
24.4034
24.03581
23.70075
23.38602
23.08543
22.79787
22.52169
22.25519
21.99689
21.74578
21.50119
21.26279
21.03047
20.80428
20.58432
20.37071
20.16353
19.96279
19.7684
19.58014
19.39773
19.22104
19.05049
18.88608
18.72755
18.57464
18.4271
18.28467
18.14712
18.01429
17.88609
17.76264
17.64468
17.53307
17.42604
17.32661
17.23606
17.15166
17.07176
16.99528
16.92177
16.86805
16.83047
16.75629
16.65697
16.52515
16.36711
16.1917
16.00912
15.82825
15.65592
15.49648
15.35211
15.22329
15.10933
15.00875
14.91973
14.84031
14.76861
14.70297
14.64202
14.58466
14.53006
14.47766
14.42704
14.37796
14.33023
14.28376
14.23849
14.19441
14.15141
14.10927
14.06793
14.02739
13.98763
13.94863
13.91036
13.87282
13.83597
13.79978
13.76424
13.72929
13.69492
13.66107
13.6277
13.59477
13.56222
13.53
13.49807
13.4666
13.43567
13.40527
13.37537
13.34598
13.3171
13.28873
13.26087
13.23351
13.20662
13.1802
13.15422
13.12866
13.10352
13.07876
13.05438
13.03035
13.00665
12.98325
12.96014
12.93727
12.91463
12.89216
12.86981
12.84751
12.82519
12.80273
12.77996
12.75665
12.73248
12.70687
12.67893
12.64693
12.60736
12.55222
12.4642
12.31834
12.47601
392.6327
315.0515
270.2982
241.1567
219.7256
202.3751
187.5281
174.5119
162.485
137.3205
111.7619
96.76113
87.30949
80.83328
75.9901
72.07884
68.72848
65.73696
53.328
50.4854
47.78072
45.32792
43.18754
41.34332
39.7454
38.34205
37.0867
35.94751
34.9283
33.84487
32.75148
31.69121
30.69191
29.76587
28.91327
28.12782
27.40046
26.91246
26.48992
25.96034
25.39282
24.81644
24.24743
23.69451
23.16177
22.6508
22.16193
21.69247
21.23819
20.79562
20.36026
19.9329
19.51483
19.10754
18.7127
18.33625
16.66996
16.35771
16.05998
15.77158
15.48934
15.21207
14.93935
14.67122
14.40726
14.14722
13.89252
13.64261
13.39653
13.15428
12.91604
12.68186
12.45233
12.231
12.0261
11.83331
11.63746
11.44858
11.27272
11.10648
10.94564
10.789
10.63689
10.48917
10.34567
10.20633
10.07106
9.93975
9.812237
9.688271
9.567496
9.449389
9.333309
9.218687
9.105656
8.994972
8.886241
8.781103
8.686316
8.60364
8.531262
8.472733
8.443114
8.43403
8.412307
8.371576
8.326289
8.279767
8.236019
8.194724
8.155692
8.118839
8.08416
8.051691
8.02149
7.993619
7.968149
7.945149
7.924685
7.906816
7.891593
7.879066
7.869314
7.862443
7.85849
7.857417
7.85912
7.86346
7.870324
7.87968
7.891946
7.907624
7.926008
7.946487
7.968533
7.991682
8.015533
8.039719
8.063877
8.087461
8.109935
8.131332
8.151701
8.171079
8.189506
8.207026
8.223695
8.239565
8.254679
8.269026
8.282509
8.294913
8.306151
8.316118
8.326101
8.338092
8.350921
8.364481
8.378835
8.393981
8.409932
8.426699
8.444282
8.462687
8.481911
8.501943
8.52277
8.544363
8.566692
8.589752
8.613471
8.637781
8.662695
8.688211
8.714301
8.740935
8.768076
8.795697
8.823769
8.852259
8.881129
8.910345
8.939877
8.9697
8.999795
9.030146
9.060725
9.091524
9.122537
9.153751
9.185149
9.216731
9.248482
9.280407
9.312481
9.344711
9.377057
9.409496
9.441962
9.47431
9.506334
9.53736
9.566263
9.580019
9.88652
10.28206
10.58621
10.82022
11.00134
11.14326
11.25604
11.3476
11.42376
11.48852
11.54501
11.59551
11.64164
11.68454
11.7249
11.76321
11.79978
11.83481
11.86847
11.90084
11.93199
11.96197
11.9908
12.01853
12.04515
12.07069
12.09513
12.11841
12.14039
12.16079
12.1792
12.1948
12.20598
12.20903
12.19684
12.15925
12.09726
12.03563
11.97218
11.907
11.84094
11.77461
11.70845
11.64282
11.57804
11.51432
11.45189
11.39091
11.33148
11.27364
11.21728
11.16216
11.10807
11.0549
11.00268
10.95142
10.90114
10.85184
10.8035
10.75609
10.70961
10.66405
10.61943
10.57573
10.53297
10.49112
10.45019
10.41012
10.37087
10.33285
9.247952
9.191584
9.143028
9.10052
9.06206
9.026468
8.992798
8.960306
8.928465
8.896925
8.865487
8.834075
8.802699
8.771377
8.739939
8.708324
8.676564
8.644711
8.612821
8.580944
8.549125
8.517409
8.485843
8.454479
8.423374
8.392591
8.362195
8.332253
8.302827
8.273974
8.24574
8.218153
8.191225
8.16494
8.139273
8.114215
8.089758
8.065892
8.042606
8.019901
7.997788
7.976309
7.955561
7.935741
7.917149
7.900036
7.883878
7.868242
7.852975
7.837957
7.823099
7.808347
7.793648
7.78028
7.767797
7.754296
7.740392
7.725618
7.709539
7.691829
7.672271
7.65081
7.627548
7.602724
7.576681
7.549818
7.522553
7.495278
7.468333
7.441987
7.416435
7.391805
7.368168
7.345554
7.323959
7.303354
7.283697
7.264933
7.247
7.229836
7.21338
7.197574
7.182366
7.167707
7.153556
7.139877
7.126638
7.113811
7.101372
7.089302
7.077581
7.066194
7.055127
7.044367
7.033902
7.023722
7.013818
7.004178
6.994793
6.985653
6.976749
6.968073
6.959621
6.951391
6.943382
6.935591
6.928016
6.920605
6.913267
6.905982
6.898736
6.891519
6.884323
6.877153
6.870078
6.863113
6.856258
6.849504
6.842846
6.836273
6.829774
6.823334
6.816937
6.810562
6.804185
6.797775
6.791289
6.784675
6.777858
6.770736
6.763161
6.754915
6.745667
6.734915
6.721925
6.705834
6.685887
6.664414
6.649495
463.4056
415.9853
372.2472
338.7189
311.3338
288.4232
268.7709
251.6557
236.6543
220.7297
131.0284
108.7936
102.0647
98.07129
94.51627
91.10708
87.84876
84.75544
81.78414
64.57443
60.50654
57.13368
54.48822
52.44729
50.84651
49.5469
48.4498
47.48886
46.64642
45.79277
44.81875
43.7969
42.79
41.84305
40.97597
40.19423
39.49213
38.85112
38.7186
38.33629
37.8265
37.24809
36.64046
36.02921
35.42915
34.84684
34.28613
33.74574
33.21181
32.67939
32.13531
31.57851
31.01289
30.44365
29.87769
29.32933
27.20009
26.68795
26.19616
25.71167
25.22988
24.75052
24.27488
23.80485
23.34203
22.88744
22.44255
22.00787
21.58238
21.16621
20.75994
20.36407
19.97912
19.60553
19.24345
18.89358
18.55639
18.23157
17.91793
17.61453
17.32072
17.03594
16.75975
16.49153
16.23092
15.97764
15.73045
15.48893
15.25283
15.02184
14.79554
14.57348
14.35486
14.13466
13.94145
13.74773
13.5536
13.35873
13.16352
12.96852
12.77412
12.58047
12.38767
12.19582
12.00517
11.81557
11.62706
11.43995
11.25457
11.07139
10.89112
10.71502
10.54438
10.37905
10.21444
10.05127
9.892332
9.737813
9.586216
9.436558
9.288941
9.143779
9.001399
8.861997
8.725673
8.592469
8.46238
8.335343
8.211247
8.089926
7.97123
7.855081
7.741627
7.631309
7.524574
7.422155
7.325937
7.236681
7.153422
7.075411
7.003126
6.938715
6.8719
6.801411
6.733628
6.669348
6.608583
6.551113
6.4968
6.445581
6.397408
6.352218
6.309936
6.270489
6.233804
6.199813
6.16845
6.139651
6.113356
6.089504
6.068042
6.048917
6.032072
6.01744
6.004943
5.9945
5.986033
5.979474
5.97478
5.97189
5.970686
5.971026
5.972749
5.975688
5.979679
5.98457
5.990255
5.996828
6.004403
6.01267
6.021368
6.030293
6.039283
6.04821
6.056984
6.065531
6.073801
6.081734
6.089289
6.096441
6.103191
6.109527
6.115817
6.122517
6.12957
6.136851
6.14436
6.152097
6.160095
6.168361
6.176903
6.185731
6.194853
6.204279
6.214022
6.224096
6.234495
6.245219
6.256279
6.26766
6.279369
6.291408
6.303776
6.316459
6.329468
6.342788
6.356411
6.370324
6.384517
6.398978
6.413682
6.428639
6.443832
6.45924
6.474872
6.490706
6.506731
6.522936
6.539305
6.555831
6.572495
6.589289
6.606191
6.62319
6.640257
6.657365
6.674478
6.69153
6.708448
6.725208
6.74162
6.757635
6.784194
6.803335
6.81729
6.82782
6.83624
6.843454
6.850066
6.856418
6.862743
6.86919
6.875843
6.882743
6.889898
6.89729
6.904887
6.912649
6.920536
6.928507
6.936519
6.944533
6.95251
6.960409
6.968188
6.975821
6.983265
6.990477
6.997407
7.003991
7.010144
7.015747
7.020629
7.024516
7.027007
7.027538
7.025452
7.020294
7.012651
7.00351
6.993313
6.982341
6.970818
6.958891
6.946664
6.93421
6.92159
6.908851
6.896034
6.883178
6.870313
6.857459
6.844626
6.831825
6.819069
6.806376
6.793759
6.781227
6.768788
6.756449
6.744216
6.732092
6.720086
6.708206
6.696462
6.684865
6.673427
6.662167
6.651103
6.640261
6.62962
6.618153
6.626232
6.631128
6.63353
6.633945
6.632866
6.630722
6.627742
6.624022
6.619607
6.614536
6.608842
6.602542
6.595639
6.588126
6.579995
6.57124
6.561853
6.551831
6.541171
6.529873
6.517947
6.505405
6.492273
6.478585
6.464386
6.449731
6.43468
6.4193
6.40366
6.387829
6.371874
6.355856
6.339832
6.323851
6.307957
6.292187
6.276574
6.261143
6.245918
6.230921
6.216176
6.201715
6.187577
6.173817
6.160489
6.147658
6.135269
6.123199
6.11138
6.099774
6.088344
6.077081
6.065994
6.055006
6.044067
6.033289
6.022561
6.011785
6.000823
5.989515
5.977749
5.965447
5.952563
5.939088
5.925047
5.910499
5.895528
5.880237
5.864738
5.849145
5.833567
5.818102
5.802836
5.787841
5.773174
5.758878
5.744982
5.731505
5.718453
5.705828
5.693624
5.681831
5.670438
5.659429
5.648791
5.638508
5.628566
5.61895
5.609648
5.600644
5.591928
5.583485
5.575304
5.567373
5.559681
5.552216
5.544972
5.53794
5.531113
5.524483
5.518044
5.51179
5.505716
5.499814
5.494078
5.488503
5.483082
5.47781
5.472684
5.467701
5.46286
5.458161
5.453604
5.44917
5.444778
5.4404
5.436031
5.431712
5.427458
5.423266
5.419128
5.415035
5.410974
5.406932
5.402892
5.398832
5.394726
5.390538
5.386226
5.381727
5.37696
5.371812
5.366131
5.359717
5.352321
5.343713
5.333781
5.323096
5.313691
278.4593
215.8327
245.5872
113.1578
89.45491
58.61404
52.74665
47.95586
44.74883
44.02086
44.43863
44.78233
44.01946
44.11338
44.28
44.38055
44.40617
44.35443
44.22793
44.03002
43.76211
43.42862
42.95774
42.3503
41.71115
41.09752
40.52094
39.97488
39.45196
38.94471
38.44917
37.23854
36.73852
36.25022
35.76851
35.29397
34.829
34.3759
33.93669
33.51257
33.10324
32.70855
32.3276
31.95769
31.5976
31.24675
30.90468
30.57117
30.24582
29.92832
29.62004
29.32053
29.02675
28.73692
28.44957
28.16362
27.87925
27.59611
27.31276
27.02785
26.73882
26.44514
26.14599
25.84091
25.52888
25.21029
24.88063
24.53844
24.22842
23.90149
23.56124
23.21216
22.8559
22.49293
22.12514
21.7542
21.38146
21.00819
20.63567
20.26466
19.89612
19.53131
19.17137
18.81714
18.46939
18.12877
17.79591
17.47123
17.15482
16.847
16.54827
16.25894
15.97905
15.70852
15.44718
15.19476
14.95094
14.71533
14.48738
14.26665
14.05277
13.8452
13.64356
13.44705
13.25556
13.06747
12.88414
12.70477
12.5285
12.35464
12.18278
12.01264
11.84394
11.67642
11.50986
11.34405
11.17888
11.01426
10.85025
10.68695
10.52457
10.36341
10.20384
10.0463
9.891248
9.738646
9.587001
9.43587
9.286359
9.138987
8.993208
8.848444
8.704727
8.562433
8.421918
8.283421
8.147114
8.013127
7.881562
7.752485
7.625936
7.501936
7.380518
7.261757
7.145831
7.033092
6.923882
6.818559
6.717687
6.621603
6.529799
6.441617
6.35649
6.27382
6.19249
6.112723
6.035666
5.961917
5.891555
5.8245
5.760693
5.700106
5.642704
5.588438
5.537245
5.489056
5.443801
5.401406
5.361797
5.324894
5.290618
5.258883
5.229606
5.202706
5.178098
5.155701
5.135429
5.1172
5.100933
5.086546
5.073962
5.0631
5.053872
5.046185
5.039939
5.035033
5.031361
5.028821
5.027317
5.026773
5.027112
5.028246
5.030074
5.032497
5.035418
5.03875
5.042415
5.046344
5.050479
5.054773
5.059184
5.063667
5.068207
5.072809
5.077504
5.08234
5.087349
5.092515
5.097825
5.103279
5.108884
5.114657
5.120597
5.126724
5.133038
5.139538
5.146225
5.1531
5.160163
5.167406
5.174821
5.18242
5.190198
5.198158
5.206298
5.214619
5.223117
5.23179
5.240632
5.24964
5.258804
5.268119
5.277578
5.287164
5.296869
5.306696
5.316665
5.326778
5.337031
5.34742
5.357939
5.368585
5.379349
5.390226
5.401204
5.412272
5.423415
5.434616
5.445853
5.457106
5.468346
5.479561
5.490695
5.501775
5.513298
5.524916
5.536407
5.54757
5.558322
5.568631
5.578477
5.587887
5.596875
5.605475
5.613722
5.621652
5.629297
5.636685
5.643828
5.65076
5.657489
5.664028
5.670385
5.676568
5.68257
5.688403
5.694059
5.699529
5.704792
5.709846
5.714658
5.719196
5.723411
5.727239
5.730585
5.733338
5.73535
5.736447
5.736475
5.735314
5.73306
5.730014
5.726406
5.722358
5.717958
5.713283
5.708393
5.703335
5.69814
5.692843
5.687468
5.682034
5.67655
5.671036
5.665495
5.659931
5.654349
5.648753
5.643143
5.63752
5.631883
5.626226
5.620547
5.614841
5.609105
5.603338
5.597534
5.591695
5.585824
5.579927
5.574013
5.568098
5.562219
5.556308
5.551351
5.547177
5.543563
5.540323
5.537355
5.534586
5.531953
5.529387
5.526819
5.524199
5.52148
5.518619
5.515575
5.512307
5.508775
5.504937
5.500752
5.49618
5.491183
5.485726
5.479777
5.473315
5.466323
5.458797
5.450741
5.442169
5.433107
5.423586
5.413645
5.403331
5.39269
5.381771
5.370625
5.359298
5.347835
5.336278
5.324663
5.313027
5.3014
5.289812
5.278291
5.266863
5.255553
5.244387
5.233385
5.222566
5.211929
5.201462
5.191153
5.180996
5.170978
5.161089
5.151317
5.141637
5.132064
5.122601
5.113207
5.103849
5.094491
5.085091
5.075611
5.066015
5.056272
5.046358
5.036258
5.025969
5.0155
5.004869
4.994105
4.983246
4.972334
4.961414
4.95053
4.939727
4.929042
4.91851
4.908161
4.898018
4.888099
4.878417
4.868984
4.859803
4.85088
4.842216
4.833809
4.825659
4.817763
4.810118
4.802721
4.795569
4.78866
4.781991
4.775562
4.769369
4.763382
4.757581
4.751957
4.746505
4.74122
4.736096
4.731128
4.726311
4.721641
4.717111
4.712719
4.708458
4.704326
4.700316
4.696427
4.692652
4.688987
4.685427
4.681967
4.678602
4.675327
4.672141
4.669038
4.66596
4.662888
4.659852
4.656858
4.653902
4.650973
4.648062
4.645156
4.64224
4.639295
4.636298
4.633218
4.630018
4.626648
4.623044
4.619128
4.614804
4.609965
4.604522
4.59845
4.591968
4.586085
270.5508
190.822
149.8679
116.6915
94.35785
69.75474
57.98867
52.74302
47.57789
44.78403
42.76475
40.90356
39.30486
38.14363
37.67435
37.66149
37.46269
38.20268
38.96194
39.76581
40.6435
41.52928
42.34299
42.97321
43.44074
43.74537
43.8965
43.90599
43.78809
43.55915
43.23406
42.82908
42.36386
41.85057
41.29916
40.72071
40.12659
39.52467
38.92331
38.32553
37.74172
37.16091
36.58284
36.02671
35.49118
34.97166
34.46782
33.98263
33.51779
33.07252
32.64585
32.2368
31.84418
31.46633
31.10178
30.74944
30.40821
30.07683
29.7537
29.43711
29.12481
28.81471
28.50695
28.20319
27.90333
27.60662
27.3124
27.02017
26.72945
26.43983
26.15059
25.8608
25.56973
25.27672
24.98102
24.68205
24.37884
24.07123
23.75731
23.44147
23.11989
22.79209
22.45901
22.12157
21.78093
21.43689
21.0892
20.73775
20.38369
20.02793
19.67124
19.31462
18.9592
18.60604
18.25613
17.9104
17.56973
17.23493
16.90665
16.5854
16.27179
15.96651
15.67009
15.38289
15.10511
14.83689
14.57825
14.32907
14.08919
13.85835
13.6362
13.42238
13.21643
13.01792
12.82625
12.64094
12.4613
12.28676
12.11675
11.95077
11.78832
11.62891
11.4721
11.31746
11.16461
11.01318
10.86286
10.7134
10.56467
10.41655
10.269
10.12204
9.975784
9.830356
9.685917
9.542623
9.400395
9.258647
9.117051
8.97595
8.835642
8.695981
8.556736
8.417944
8.279864
8.142782
8.006939
7.872533
7.73974
7.608718
7.479602
7.352517
7.227576
7.104899
6.984638
6.866983
6.752194
6.640506
6.532131
6.42728
6.32603
6.228146
6.133203
6.040806
5.950619
5.86239
5.776364
5.6931
5.612974
5.536095
5.462448
5.392005
5.324744
5.260641
5.199659
5.141756
5.08688
5.034975
4.985982
4.939839
4.896479
4.855828
4.8178
4.782307
4.749264
4.718582
4.69018
4.663973
4.639882
4.617829
4.597737
4.579529
4.563129
4.548459
4.535439
4.523988
4.514021
4.505453
4.498197
4.492163
4.487266
4.48342
4.480538
4.478537
4.477329
4.476831
4.476965
4.477654
4.47883
4.48043
4.482396
4.484681
4.487242
4.490048
4.493075
4.49631
4.499744
4.503366
4.507161
4.511113
4.515211
4.519451
4.523827
4.528346
4.532986
4.537762
4.542658
4.547678
4.552821
4.558074
4.563444
4.568926
4.574519
4.580224
4.58604
4.591967
4.598008
4.604164
4.610434
4.616822
4.623327
4.629953
4.636701
4.643574
4.650575
4.657705
4.66496
4.672314
4.679757
4.687281
4.694877
4.702537
4.710251
4.718028
4.725882
4.733813
4.741815
4.749882
4.758004
4.766171
4.774373
4.782593
4.790825
4.799054
4.807281
4.815545
4.82386
4.832203
4.840536
4.848821
4.857019
4.865101
4.873037
4.880807
4.888392
4.895783
4.902972
4.909954
4.916726
4.92329
4.929638
4.935777
4.941708
4.947433
4.952956
4.958277
4.963397
4.968315
4.973029
4.977536
4.981821
4.985874
4.989679
4.993211
4.996439
4.999322
5.001815
5.003864
5.005415
5.006425
5.006872
5.006787
5.006252
5.005351
5.004133
5.00265
5.000943
4.999051
4.997005
4.994833
4.992558
4.9902
4.987775
4.9853
4.982782
4.980224
4.977638
4.975025
4.972385
4.969718
4.96702
4.964286
4.961509
4.958682
4.955796
4.952847
4.949814
4.946698
4.943491
4.940188
4.936785
4.933282
4.929678
4.925979
4.92218
4.918382
4.914659
4.911007
4.907418
4.903905
4.900481
4.897156
4.893923
4.890772
4.887688
4.884655
4.88165
4.87865
4.875624
4.872541
4.869365
4.866059
4.862581
4.858893
4.854953
4.850725
4.846173
4.841268
4.835988
4.830317
4.824246
4.817776
4.810914
4.803676
4.796083
4.788165
4.779952
4.771482
4.762792
4.753923
4.744912
4.735768
4.72651
4.717164
4.707758
4.698318
4.688866
4.679423
4.670007
4.660633
4.651314
4.642061
4.632882
4.623788
4.614782
4.605866
4.597041
4.588305
4.579656
4.571093
4.562606
4.554189
4.545835
4.537536
4.52928
4.521053
4.51284
4.504626
4.496395
4.488136
4.479839
4.471499
4.463117
4.454698
4.446253
4.437795
4.429344
4.420918
4.412539
4.404227
4.396002
4.387882
4.379882
4.372016
4.364295
4.356729
4.349325
4.342088
4.335022
4.328129
4.32141
4.314865
4.308494
4.302293
4.296261
4.290394
4.284687
4.279137
4.273737
4.268492
4.2634
4.258459
4.253666
4.249016
4.244505
4.24013
4.235887
4.231771
4.227779
4.223908
4.220153
4.216511
4.212977
4.209549
4.206222
4.202992
4.199855
4.196808
4.193845
4.190964
4.188158
4.185423
4.182755
4.180144
4.177546
4.174972
4.172432
4.169921
4.167431
4.16495
4.162466
4.159965
4.157427
4.154831
4.152149
4.149347
4.146386
4.143215
4.139782
4.136029
4.131912
4.127422
4.122685
4.118395
158.2271
118.0504
167.0441
80.86607
67.16625
53.65324
49.811
46.69189
43.58361
41.97031
40.38016
38.42353
36.71073
35.23968
33.99111
31.26275
31.09124
31.16891
31.4862
32.0562
32.83115
33.81582
34.98075
36.28986
37.67059
39.04691
40.40342
41.70056
42.80588
43.71489
44.45917
45.06991
45.52402
45.76422
45.78025
45.60515
45.26869
44.80004
44.22587
43.57365
42.85797
42.09482
41.31173
40.52342
39.74022
38.97019
38.21949
37.49331
36.79527
36.12765
35.49123
34.88604
34.30751
33.76061
33.24861
32.76892
32.31921
31.89797
31.5039
31.13552
30.79107
30.46855
30.16566
29.87997
29.60914
29.35091
29.10294
28.86229
28.623
28.37608
28.12455
27.86972
27.61159
27.35044
27.08668
26.82075
26.55304
26.28358
26.01251
25.7399
25.46575
25.18989
24.91207
24.63204
24.34947
24.06409
23.77539
23.48317
23.18674
22.88621
22.58052
22.2693
21.95288
21.63181
21.30621
20.97616
20.64217
20.30546
19.96629
19.62425
19.27917
18.93236
18.5849
18.23777
17.89199
17.54857
17.20848
16.87259
16.54175
16.21673
15.89829
15.58719
15.28411
14.9896
14.7041
14.42795
14.16139
13.90455
13.65745
13.42003
13.19212
12.97348
12.76378
12.56264
12.3696
12.18417
12.00578
11.83384
11.66777
11.50699
11.35096
11.19912
11.05092
10.90587
10.76349
10.62335
10.48504
10.34822
10.2126
10.07795
9.94408
9.810878
9.678273
9.546229
9.414725
9.283724
9.153101
9.022566
8.891886
8.761093
8.630293
8.499462
8.368525
8.237513
8.106593
7.975983
7.845896
7.716533
7.58808
7.46072
7.334624
7.20996
7.086891
6.965582
6.846218
6.72899
6.614099
6.501734
6.392053
6.285171
6.181116
6.079765
5.980887
5.884268
5.789796
5.69745
5.607408
5.519997
5.435493
5.354021
5.27561
5.200263
5.127976
5.058737
4.992527
4.92932
4.869081
4.811772
4.757348
4.705765
4.656984
4.610972
4.567633
4.52686
4.488565
4.452669
4.419096
4.387774
4.358634
4.331609
4.306631
4.283633
4.262548
4.243309
4.225846
4.210087
4.195956
4.183378
4.17227
4.162551
4.154137
4.146941
4.140879
4.135864
4.131811
4.128636
4.126258
4.1246
4.123588
4.123153
4.123233
4.12377
4.124713
4.126019
4.12765
4.129575
4.131768
4.134204
4.136859
4.139709
4.142735
4.14592
4.149252
4.152721
4.156323
4.160032
4.163852
4.167777
4.171802
4.175922
4.180134
4.184434
4.18882
4.193291
4.197846
4.202483
4.207202
4.212002
4.216884
4.221846
4.226889
4.232013
4.237218
4.242503
4.247868
4.253314
4.258839
4.264445
4.27013
4.275897
4.281746
4.28768
4.293698
4.299786
4.305918
4.312082
4.318267
4.324482
4.330737
4.33703
4.343355
4.349705
4.35608
4.362473
4.36888
4.375303
4.381745
4.388202
4.394663
4.401112
4.407535
4.413916
4.420242
4.426496
4.432666
4.43874
4.444707
4.450555
4.456277
4.461863
4.467308
4.472603
4.477745
4.482728
4.48755
4.492206
4.496692
4.501004
4.505139
4.509089
4.512847
4.516405
4.51975
4.52287
4.525747
4.528363
4.530697
4.532732
4.534449
4.53584
4.536908
4.537669
4.538154
4.538394
4.538411
4.538228
4.537868
4.537354
4.536707
4.535947
4.535091
4.534155
4.533153
4.532097
4.530998
4.529865
4.528698
4.527503
4.526284
4.525038
4.523762
4.522453
4.521102
4.519702
4.518246
4.516719
4.515111
4.513414
4.511616
4.509707
4.507681
4.505529
4.503246
4.500829
4.498278
4.495603
4.492812
4.489912
4.486922
4.483864
4.480757
4.477618
4.47446
4.471294
4.468128
4.464968
4.461814
4.458662
4.455503
4.452324
4.449106
4.445829
4.442468
4.438993
4.435377
4.431587
4.427596
4.423373
4.418895
4.414138
4.409088
4.403731
4.398061
4.392078
4.385785
4.379191
4.372311
4.36516
4.357758
4.350125
4.342283
4.334261
4.326087
4.317784
4.309376
4.300885
4.292331
4.283732
4.275104
4.266461
4.257816
4.249184
4.240577
4.232008
4.223489
4.215028
4.20663
4.198299
4.190039
4.181849
4.17373
4.165682
4.157708
4.149805
4.141971
4.134202
4.126492
4.118835
4.111224
4.103651
4.096112
4.088602
4.081118
4.073661
4.066231
4.058835
4.051478
4.044169
4.036917
4.029731
4.022622
4.015599
4.00867
4.001843
3.995125
3.988522
3.982038
3.975678
3.969444
3.963338
3.957361
3.951514
3.945795
3.940203
3.934737
3.929391
3.924164
3.91905
3.914044
3.909165
3.904419
3.899806
3.895324
3.890969
3.88674
3.882633
3.878646
3.874775
3.871017
3.86737
3.863831
3.860396
3.857063
3.853828
3.850688
3.84764
3.84468
3.841806
3.839012
3.836296
3.833654
3.83108
3.828571
3.826121
3.823725
3.821349
3.818998
3.816676
3.814378
3.812095
3.809814
3.807523
3.805208
3.80285
3.800429
3.797919
3.795292
3.792516
3.789554
3.786373
3.782946
3.779267
3.775426
3.771957
79.2737
47.30916
41.16869
37.77337
36.08495
34.38123
32.97843
31.85505
30.9747
29.90412
27.2146
26.90683
26.66435
26.51487
26.43807
26.43074
26.53586
26.78908
27.21628
27.81686
28.53892
29.40354
30.4964
31.81396
33.30228
34.88272
36.53586
38.3048
40.12973
41.74213
43.16242
44.33752
45.27684
45.90341
46.20796
46.23383
46.02059
45.59286
44.93986
44.10808
43.16703
42.1436
41.06678
39.96196
38.83545
37.71966
36.62956
35.58184
34.58549
33.64562
32.76505
31.94447
31.18413
30.48274
29.83887
29.2527
28.72173
28.24518
27.8165
27.43362
27.09359
26.79325
26.52942
26.29943
26.10108
25.93227
25.79011
25.67243
25.5767
25.50027
25.4403
25.39294
25.34293
25.28615
25.22879
25.16537
25.09182
25.0063
24.90792
24.79593
24.67085
24.53373
24.38484
24.22455
24.05332
23.87171
23.68026
23.47951
23.26999
23.05219
22.82651
22.59326
22.35267
22.10497
21.85073
21.58917
21.32022
21.04411
20.76125
20.47187
20.17636
19.8753
19.56924
19.25869
18.94477
18.62889
18.31112
17.9907
17.66778
17.3438
17.01991
16.69711
16.37637
16.05859
15.74467
15.43552
15.13195
14.83474
14.54459
14.2621
13.98781
13.72214
13.46542
13.21789
12.97968
12.75081
12.53124
12.3208
12.11926
11.92631
11.74155
11.56456
11.39484
11.23187
11.07512
10.92406
10.77813
10.6368
10.49954
10.36586
10.23529
10.10737
9.98169
9.857881
9.735611
9.614601
9.494618
9.375465
9.256975
9.138992
9.021354
8.903878
8.786333
8.668505
8.55029
8.431663
8.312586
8.193008
8.072935
7.952455
7.83171
7.710864
7.590083
7.469539
7.349406
7.22986
7.11108
6.993245
6.876539
6.76115
6.64727
6.535084
6.424762
6.316439
6.210212
6.106118
6.004119
5.904123
5.806051
5.709905
5.615746
5.52373
5.434101
5.347072
5.26277
5.181258
5.102564
5.026709
4.953702
4.883543
4.816227
4.751748
4.690077
4.631157
4.574937
4.521365
4.47035
4.421817
4.375732
4.33206
4.290763
4.251797
4.215121
4.180689
4.148459
4.118385
4.09042
4.064516
4.040621
4.018679
3.998631
3.980411
3.963951
3.949174
3.936002
3.924351
3.914132
3.905257
3.897635
3.891172
3.885779
3.881364
3.877841
3.875126
3.873139
3.871806
3.871057
3.870829
3.871065
3.871715
3.872733
3.87408
3.87572
3.877619
3.879747
3.882077
3.884586
3.887255
3.890067
3.893011
3.896062
3.899223
3.90248
3.905826
3.909256
3.912765
3.916348
3.920002
3.923725
3.927514
3.931369
3.935288
3.93927
3.943313
3.947418
3.951584
3.95581
3.960097
3.964444
3.968851
3.973319
3.977848
3.982438
3.987089
3.991801
3.996574
4.001406
4.006297
4.011243
4.016244
4.021298
4.026404
4.031539
4.036681
4.041824
4.046981
4.052155
4.057344
4.062544
4.067752
4.072967
4.078186
4.083406
4.08862
4.093822
4.099001
4.104152
4.109264
4.114331
4.119345
4.124297
4.129179
4.133986
4.138708
4.14334
4.147874
4.152304
4.156624
4.160829
4.164913
4.168871
4.172696
4.176385
4.17993
4.183325
4.186564
4.189638
4.192538
4.195254
4.197777
4.200095
4.202199
4.204079
4.205732
4.207154
4.208349
4.209326
4.210095
4.21067
4.211065
4.211294
4.211371
4.211312
4.211132
4.210845
4.210467
4.210009
4.209486
4.208909
4.208287
4.20763
4.206942
4.20623
4.205495
4.204739
4.203958
4.20315
4.202309
4.201428
4.2005
4.199507
4.198446
4.197304
4.196067
4.194724
4.193265
4.191679
4.189956
4.18809
4.186075
4.183905
4.181578
4.179098
4.176472
4.173712
4.17083
4.167837
4.164747
4.161572
4.158326
4.15502
4.151664
4.148263
4.14482
4.141334
4.137802
4.134215
4.130561
4.126825
4.122989
4.119033
4.114937
4.110678
4.106236
4.101592
4.096726
4.091626
4.086279
4.080677
4.074815
4.068692
4.062311
4.055675
4.048794
4.041674
4.034329
4.026796
4.019101
4.011265
4.003306
3.995242
3.98709
3.978866
3.970584
3.962258
3.953902
3.945529
3.937154
3.92879
3.920451
3.912146
3.903885
3.895674
3.88752
3.879428
3.871401
3.863444
3.85556
3.847753
3.840024
3.832371
3.824796
3.817296
3.809869
3.802513
3.795224
3.788002
3.780844
3.773751
3.766722
3.759759
3.752864
3.746042
3.739296
3.73263
3.72605
3.71956
3.713164
3.706866
3.700669
3.694578
3.688595
3.682722
3.676962
3.671316
3.665785
3.660371
3.655074
3.649895
3.644835
3.639893
3.63507
3.630366
3.625783
3.621321
3.616979
3.612756
3.608649
3.604658
3.600779
3.597012
3.593353
3.5898
3.586352
3.583005
3.579758
3.576608
3.573553
3.57059
3.567716
3.564929
3.562226
3.559604
3.557059
3.554588
3.552188
3.549855
3.547585
3.545373
3.543215
3.541103
3.53901
3.536944
3.534902
3.532877
3.530859
3.528839
3.526804
3.52474
3.522631
3.520459
3.518205
3.515845
3.513358
3.51072
3.507914
3.504939
3.50186
3.49909
94.32671
34.19829
25.63267
23.76019
22.89453
22.48616
22.33686
22.33815
22.43854
22.61515
22.79997
22.91681
23.0802
23.3256
23.67123
24.13938
24.7607
25.56375
26.57997
27.81202
29.2813
30.96738
32.81702
34.85706
37.00756
39.0083
40.81285
42.43763
43.79225
44.81506
45.47366
45.82232
45.78467
45.40876
44.7215
43.78993
42.66307
41.38692
39.99289
38.53335
37.059
35.59925
34.17819
32.81276
31.50713
30.29021
29.16615
28.14096
27.2102
26.3684
25.60922
24.92616
24.31317
23.76452
23.27501
22.83946
22.45238
22.10696
21.80501
21.54355
21.31971
21.13077
20.97422
20.84788
20.74982
20.67802
20.6311
20.60697
20.60381
20.61965
20.65185
20.68783
20.73053
20.78388
20.84538
20.91248
20.9824
21.05271
21.11919
21.17793
21.22546
21.25916
21.27719
21.27764
21.25788
21.21843
21.16004
21.08356
20.98994
20.88018
20.75525
20.61605
20.46343
20.29835
20.12222
19.9345
19.7357
19.52638
19.30722
19.07878
18.84172