/*--------------------------------*- C++ -*----------------------------------*\
| =========                 |                                                 |
| \\      /  F ield         | foam-extend: Open Source CFD                    |
|  \\    /   O peration     | Version:     3.1                                |
|   \\  /    A nd           | Web:         http://www.extend-project.de       |
|    \\/     M anipulation  |                                                 |
\*---------------------------------------------------------------------------*/
FoamFile
{
    version     2.0;
    format      ascii;
    class       volScalarField;
    location    "4";
    object      p;
}
// * * * * * * * * * * * * * * * * * * * * * * * * * * * * * * * * * * * * * //

dimensions      [1 -1 -2 0 0 0 0];

internalField   nonuniform List<scalar> 
119952
(
9470.612
9337.306
9310.569
9334.803
9362.931
9345.447
9341.219
9337.4
9334.645
9332.284
9330.159
9328.17
9326.227
9324.261
9322.208
9319.979
9317.418
9314.103
9308.483
9293.65
9349.562
9312.269
9299.468
9371.392
9354.759
9362.515
9365.517
9382.556
9444.957
6663.961
8673.145
8690.806
8711.473
8731.754
8751.828
8771.128
8789.907
8808.211
8826.49
8839.015
8838.822
8852.325
8864.396
8876.095
8887.416
8898.377
8908.974
8919.264
8929.434
8913.144
8918.806
8925.789
8933.879
8941.731
8949.353
8956.831
8964.168
8971.252
8978.247
8983.349
8990.157
8996.681
9002.83
9009.055
9015.2
9021.269
9027.992
9039.393
9062.366
9049.061
9050.07
9060.443
9065.787
9065.695
9062.778
9060.834
9059.259
9057.821
9056.525
9055.294
9054.065
9052.794
9051.432
9049.914
9048.151
9046.052
9043.704
9042.12
9044.097
9045.539
9044.4
9057.019
9075.777
9078.139
9080.07
9082.446
9072.105
9029.051
9020.399
9026.064
9027.423
9028.583
9029.358
9029.607
9029.646
9029.559
9029.386
9029.156
9028.887
9028.595
9028.291
9027.98
9027.669
9027.358
9027.052
9026.752
9026.458
9026.176
9025.907
9025.649
9025.431
9025.241
9025.072
9024.936
9024.842
9024.801
9024.811
9024.88
9025.013
9025.216
9025.492
9025.846
9026.279
9026.795
9027.395
9028.101
9028.894
9029.762
9030.723
9031.772
9032.906
9034.115
9035.386
9036.685
9037.959
9039.353
9041.493
9045.19
9048.586
9049.871
9051.763
9053.76
9055.825
9057.996
9060.247
9062.549
9064.889
9067.267
9069.674
9072.1
9074.533
9076.957
9079.403
9081.874
9084.306
9086.688
9089.044
9091.357
9093.623
9095.834
9097.981
9100.056
9102.051
9103.957
9105.768
9107.476
9109.074
9110.556
9111.916
9113.145
9114.231
9115.172
9115.969
9116.596
9117.05
9117.328
9117.419
9117.314
9117.006
9116.481
9115.731
9114.737
9113.479
9111.912
9109.947
9107.498
9104.874
9137.551
9135.217
9132.323
9129.114
9125.714
9122.065
9118.208
9114.156
9109.671
9104.947
9099.936
9094.646
9089.062
9083.179
9076.994
9070.512
9063.733
9056.655
9049.273
9041.588
9033.598
9025.3
9016.693
9007.772
8998.533
8988.966
8979.059
8968.796
8958.154
8947.09
8935.542
8923.402
8910.459
8896.227
8879.794
8861.935
8858.03
8851.655
8843.353
8834.094
8824.223
8813.878
8803.143
8792.093
8780.773
8769.214
8757.428
8745.429
8733.243
8720.881
8708.342
8695.626
8682.721
8669.652
8656.431
8643.06
8629.543
8615.881
8602.077
8588.132
8574.049
8559.803
8545.414
8530.901
8516.252
8501.463
8486.538
8471.474
8456.242
8440.793
8405.927
8382.316
8360.827
8345.135
8328.386
8311.309
8294.532
8277.603
8260.487
8243.246
8225.856
8208.306
8190.59
8172.673
8154.561
8136.251
8117.755
8099.067
8080.185
8061.106
8041.833
8022.366
8002.708
7982.862
7962.831
7942.619
7922.229
7901.668
7880.939
7860.05
7839.006
7817.815
7796.486
7775.038
7753.441
7731.735
7709.927
7688.029
7666.053
7644.014
7621.928
7599.819
7577.718
7555.67
7533.7
7511.591
7488.791
7465.785
7442.977
7420.285
7397.68
7375.176
7352.76
7329.723
7305.5
7284.484
7263.001
7240.975
7219.132
7197.424
7175.893
7154.547
7133.389
7112.42
7091.645
7071.071
7050.705
7030.553
7010.624
6990.926
6971.466
6952.252
6933.29
6914.588
6896.152
6877.986
6860.097
6842.49
6825.168
6808.135
6791.396
6774.947
6758.804
6742.961
6727.421
6712.184
6697.254
6682.63
6668.313
6654.304
6640.603
6627.209
6614.123
6601.344
6588.87
6576.701
6564.834
6553.269
6542.004
6531.032
6520.357
6509.984
6499.899
6490.101
6480.587
6471.35
6462.381
6453.726
6445.343
6437.23
6429.385
6421.805
6414.489
6407.435
6400.638
6394.094
6387.801
6381.764
6375.969
6370.412
6365.09
6360.002
6355.141
6350.503
6346.082
6341.869
6337.857
6334.032
6330.382
6326.886
6323.513
6320.225
6316.954
6313.594
6309.958
6305.799
6301.425
6301.238
6317.211
7572.978
7592.87
7613.892
7636.094
7659.549
7684.246
7709.959
7736.449
7763.228
7767.108
7796.189
7821.416
7846.687
7872.159
7897.793
7923.52
7949.291
7975.25
7981.93
8002.802
8025.08
8049.596
8074.247
8098.943
8123.593
8148.004
8172.249
8196.36
8218.754
8241.676
8264.642
8286.72
8308.429
8329.674
8350.419
8370.654
8390.483
8409.655
8426.03
8443.936
8461.377
8478.034
8494.092
8509.56
8524.455
8538.813
8552.364
8565.649
8578.363
8590.241
8601.672
8612.813
8623.599
8634.035
8644.203
8654.871
8603.048
8612.39
8621.214
8629.174
8636.764
8644.254
8651.622
8658.797
8665.727
8672.458
8679.11
8685.405
8691.5
8697.592
8703.774
8710.105
8716.798
8724.125
8732.036
8738.916
8742.218
8744.326
8747.8
8751.053
8752.453
8752.093
8751.035
8749.943
8748.947
8747.981
8746.986
8745.941
8744.839
8743.671
8742.429
8741.138
8739.908
8738.988
8738.783
8739.66
8741.72
8745.179
8750.605
8757.223
8760.371
8759.883
8755.683
8747.022
8734.874
8725.66
8722.556
8722.578
8723.009
8722.962
8722.652
8722.315
8722.006
8721.693
8721.355
8721.001
8720.642
8720.286
8719.937
8719.596
8719.265
8718.947
8718.642
8718.353
8718.081
8717.83
8717.606
8717.409
8717.249
8717.129
8717.047
8717.031
8717.059
8717.135
8717.271
8717.471
8717.74
8718.08
8718.497
8718.986
8719.59
8720.266
8721.025
8721.869
8722.801
8723.82
8724.927
8726.119
8727.398
8728.764
8730.224
8731.824
8733.622
8735.701
8738.086
8740.592
8742.887
8745.008
8747.1
8749.254
8751.489
8753.788
8756.13
8758.507
8760.915
8763.349
8765.798
8768.257
8770.721
8773.18
8775.621
8778.039
8780.437
8782.805
8785.126
8787.395
8789.607
8791.752
8793.825
8795.815
8797.716
8799.52
8801.218
8802.803
8804.269
8805.615
8806.831
8807.905
8808.83
8809.599
8810.203
8810.634
8810.887
8810.952
8810.821
8810.484
8809.933
8809.16
8808.147
8806.901
8805.401
8803.737
8802.009
8800.44
8860.995
8858.871
8855.969
8852.866
8849.534
8845.947
8842.033
8837.887
8833.449
8828.694
8823.664
8818.34
8812.724
8806.812
8800.601
8794.092
8787.281
8780.169
8772.754
8765.036
8757.013
8748.684
8740.046
8731.095
8721.827
8712.233
8702.304
8692.024
8681.372
8670.316
8658.808
8646.776
8634.13
8620.87
8607.43
8594.876
8585.148
8576.935
8567.859
8558.181
8548.102
8537.614
8526.777
8515.644
8504.268
8492.692
8480.865
8468.811
8456.606
8444.222
8431.654
8418.905
8405.982
8392.898
8379.661
8366.276
8352.744
8339.069
8325.251
8311.292
8297.193
8282.952
8268.572
8254.053
8239.395
8224.6
8209.67
8194.614
8179.473
8164.368
8087.691
8072.623
8054.166
8035.662
8018.36
8001.653
7984.907
7967.952
7950.818
7933.542
7916.123
7898.54
7880.773
7862.87
7844.721
7826.374
7807.835
7789.102
7770.176
7751.056
7731.742
7712.236
7692.539
7672.654
7652.585
7632.335
7611.908
7591.309
7570.543
7549.617
7528.537
7507.31
7485.941
7464.437
7442.81
7421.071
7399.23
7377.298
7355.287
7333.21
7311.08
7288.912
7266.714
7244.482
7222.181
7199.741
7177.116
7154.391
7131.678
7109.026
7086.447
7063.954
7041.566
7019.271
6996.732
6974.159
6951.956
6929.99
6908.155
6886.462
6864.934
6843.586
6822.427
6801.462
6780.697
6760.137
6739.789
6719.659
6699.757
6680.088
6660.66
6641.481
6622.556
6603.893
6585.497
6567.374
6549.529
6531.967
6514.692
6497.707
6481.015
6464.621
6448.526
6432.733
6417.245
6402.061
6387.184
6372.613
6358.351
6344.397
6330.752
6317.414
6304.384
6291.661
6279.243
6267.13
6255.32
6243.811
6232.602
6221.694
6211.078
6200.755
6190.724
6180.982
6171.527
6162.362
6153.515
6144.872
6136.522
6128.451
6120.653
6113.122
6105.854
6098.85
6092.101
6085.609
6079.372
6073.382
6067.635
6062.127
6056.856
6051.818
6047.008
6042.42
6038.049
6033.888
6029.928
6026.161
6022.573
6019.148
6015.869
6012.709
6009.648
6006.673
6003.862
6001.429
6000.088
6000.027
6001.934
7600.07
7656.407
7701.106
7737.579
7765.841
7785.735
7797.399
7801.122
7797.279
7784.107
7748.387
7725.251
7698.041
7668.314
7636.699
7603.955
7570.792
7537.738
7506.975
7441.256
7411.146
7383.062
7357.914
7335.254
7315.348
7298.212
7283.857
7272.372
7264.919
7256.189
7252.805
7252.14
7253.766
7258.05
7264.69
7273.87
7285.246
7298.91
7310.972
7327.405
7346.359
7366.018
7386.854
7408.659
7431.446
7454.961
7478.959
7503.431
7528.316
7552.951
7577.781
7602.932
7628.326
7653.835
7679.438
7706.014
7678.243
7703.107
7726.409
7750.509
7775.185
7799.888
7824.358
7848.584
7872.552
7896.221
7919.603
7942.306
7964.506
7986.344
8007.817
8028.853
8049.391
8069.388
8088.801
8107.637
8125.648
8142.933
8159.75
8176.112
8191.949
8207.22
8221.919
8236.049
8249.619
8262.617
8275.009
8286.912
8298.384
8309.45
8320.099
8330.35
8340.145
8349.658
8358.687
8367.38
8375.678
8383.614
8391.322
8398.868
8406.238
8413.39
8420.332
8427.051
8433.53
8439.82
8446.005
8452.142
8458.295
8464.515
8470.844
8477.217
8483.562
8489.456
8493.622
8496.277
8498.975
8501.681
8503.363
8503.694
8503.249
8502.613
8501.965
8501.275
8500.508
8499.664
8498.762
8497.819
8496.861
8495.945
8495.167
8494.689
8494.714
8495.54
8497.29
8499.722
8502.914
8506.213
8507.91
8507.114
8503.794
8497.85
8489.808
8483.108
8479.931
8478.887
8478.358
8477.739
8477.071
8476.48
8475.976
8475.51
8475.055
8474.606
8474.169
8473.75
8473.348
8472.964
8472.6
8472.256
8471.932
8471.634
8471.362
8471.119
8470.91
8470.736
8470.603
8470.516
8470.476
8470.481
8470.536
8470.647
8470.822
8471.065
8471.379
8471.768
8472.234
8472.785
8473.385
8474.082
8474.874
8475.753
8476.719
8477.772
8478.914
8480.145
8481.473
8482.923
8484.478
8486.158
8487.984
8489.958
8492.178
8494.54
8496.79
8498.934
8501.08
8503.293
8505.579
8507.918
8510.295
8512.701
8515.134
8517.591
8520.065
8522.549
8525.032
8527.508
8529.978
8532.43
8534.852
8537.238
8539.58
8541.873
8544.108
8546.278
8548.375
8550.39
8552.316
8554.146
8555.869
8557.476
8558.954
8560.333
8561.577
8562.679
8563.63
8564.425
8565.055
8565.512
8565.792
8565.886
8565.786
8565.483
8564.971
8564.243
8563.296
8562.136
8560.767
8559.244
8557.559
8555.726
8553.81
8551.686
8549.076
8546.026
8542.651
8538.996
8535.075
8530.869
8526.369
8521.583
8516.505
8511.13
8505.46
8499.492
8493.224
8486.656
8479.786
8472.614
8465.139
8457.36
8449.278
8440.89
8432.194
8423.19
8413.872
8404.236
8394.275
8383.981
8373.342
8362.346
8350.984
8339.268
8327.258
8315.122
8303.167
8291.809
8281.309
8271.401
8261.533
8251.388
8240.912
8230.149
8219.137
8207.896
8196.397
8184.624
8172.72
8160.625
8148.271
8135.756
8123.084
8110.253
8097.266
8084.126
8070.839
8057.407
8043.832
8030.116
8016.26
8002.265
7988.131
7973.858
7959.445
7944.894
7930.203
7915.374
7900.405
7885.305
7870.04
7854.544
7838.302
7821.374
7804.913
7788.929
7772.978
7756.798
7740.314
7723.556
7706.588
7689.433
7672.088
7654.548
7636.811
7618.897
7600.78
7582.462
7563.945
7545.231
7526.32
7507.213
7487.912
7468.416
7448.729
7428.853
7408.791
7388.546
7368.123
7347.526
7326.76
7305.831
7284.746
7263.512
7242.136
7220.626
7198.993
7177.245
7155.391
7133.441
7111.406
7089.297
7067.124
7044.896
7022.617
7000.284
6977.884
6955.397
6932.797
6910.112
6887.42
6864.773
6842.18
6819.645
6797.156
6774.691
6752.334
6730.113
6707.954
6685.888
6663.955
6642.174
6620.569
6599.158
6577.943
6556.928
6536.117
6515.514
6495.125
6474.959
6455.02
6435.316
6415.855
6396.643
6377.687
6358.992
6340.566
6322.413
6304.539
6286.948
6269.644
6252.631
6235.913
6219.492
6203.371
6187.552
6172.038
6156.83
6141.928
6127.335
6113.05
6099.073
6085.405
6072.046
6058.995
6046.251
6033.814
6021.682
6009.853
5998.326
5987.1
5976.172
5965.538
5955.199
5945.151
5935.393
5925.923
5916.74
5907.846
5899.215
5890.86
5882.779
5874.97
5867.427
5860.15
5853.133
5846.375
5839.872
5833.628
5827.622
5821.864
5816.347
5811.068
5806.024
5801.209
5796.618
5792.248
5788.091
5784.141
5780.391
5776.833
5773.457
5770.257
5767.225
5764.37
5761.721
5759.36
5757.42
5756.118
5755.719
5756.168
6633.715
6697.682
6754.564
6806.508
6867.017
6903.46
6965.615
7027.057
7088.267
7145.674
7203.628
7261.697
7313.659
7359.991
7399
7430.355
7453.77
7469.13
7476.596
7476.585
7469.797
7457.386
7439.986
7417.58
7391.399
7362.702
7332.281
7300.901
7269.275
7238.335
7210.426
7105.045
7079.463
7055.929
7032.507
7011.041
6992.55
6976.962
6964.049
6953.789
6946.199
6941.31
6938.794
6938.784
6941.429
6946.688
6954.407
6964.431
6976.605
6990.716
7006.371
7023.176
7041.73
7061.92
7083.386
7105.828
7128.905
7152.687
7177.067
7201.866
7226.879
7252.113
7277.537
7303.132
7328.81
7354.589
7380.315
7406.647
7432.778
7457.502
7482.009
7506.816
7531.717
7556.515
7580.959
7605.12
7629.022
7652.601
7675.775
7698.468
7720.734
7742.592
7764.022
7784.984
7805.437
7825.344
7844.675
7863.385
7881.372
7898.718
7915.555
7931.889
7947.674
7962.886
7977.524
7991.6
8005.107
8018.062
8030.494
8042.423
8053.879
8064.9
8075.497
8085.695
8095.475
8104.898
8113.908
8122.503
8130.797
8138.836
8146.617
8154.154
8161.464
8168.544
8175.403
8182.033
8188.457
8194.727
8200.876
8206.929
8212.923
8218.877
8224.774
8230.558
8236.138
8241.283
8245.412
8248.473
8251.096
8253.447
8255.111
8255.872
8255.976
8255.772
8255.433
8254.986
8254.433
8253.792
8253.09
8252.358
8251.633
8250.97
8250.447
8250.175
8250.291
8250.928
8252.112
8253.668
8255.484
8257.093
8257.75
8256.805
8254.083
8249.829
8244.568
8239.752
8236.565
8234.78
8233.638
8232.675
8231.798
8231.028
8230.359
8229.753
8229.185
8228.646
8228.133
8227.646
8227.186
8226.753
8226.345
8225.964
8225.609
8225.285
8224.992
8224.734
8224.514
8224.335
8224.199
8224.112
8224.075
8224.09
8224.162
8224.295
8224.493
8224.76
8225.099
8225.514
8226.006
8226.579
8227.233
8227.976
8228.809
8229.731
8230.743
8231.846
8233.042
8234.332
8235.714
8237.174
8238.751
8240.458
8242.309
8244.336
8246.462
8248.639
8250.851
8253.056
8255.279
8257.545
8259.863
8262.227
8264.63
8267.065
8269.528
8272.013
8274.514
8277.024
8279.535
8282.04
8284.535
8287.008
8289.453
8291.863
8294.231
8296.549
8298.808
8301.002
8303.123
8305.162
8307.112
8308.966
8310.713
8312.338
8313.787
8315.238
8316.527
8317.664
8318.649
8319.477
8320.138
8320.62
8320.933
8321.062
8320.997
8320.732
8320.263
8319.586
8318.7
8317.61
8316.314
8314.831
8313.151
8311.302
8309.295
8307.023
8304.395
8301.401
8298.089
8294.492
8290.615
8286.452
8281.995
8277.242
8272.193
8266.846
8261.201
8255.257
8249.011
8242.464
8235.615
8228.463
8221.007
8213.249
8205.187
8196.821
8188.151
8179.175
8169.893
8160.302
8150.401
8140.187
8129.66
8118.823
8107.694
8096.309
8084.744
8073.114
8061.585
8050.334
8039.528
8029.124
8018.825
8008.353
7997.63
7986.675
7975.507
7964.129
7952.531
7940.722
7928.74
7916.578
7904.222
7891.696
7879.011
7866.168
7853.173
7840.028
7826.739
7813.306
7799.732
7786.02
7772.168
7758.179
7744.053
7729.788
7715.384
7700.841
7686.157
7671.33
7656.355
7641.218
7625.891
7610.337
7594.691
7578.98
7562.977
7546.653
7530.156
7513.568
7496.864
7479.998
7462.942
7445.71
7428.309
7410.734
7392.979
7375.041
7356.912
7338.589
7320.069
7301.353
7282.441
7263.332
7244.028
7224.528
7204.837
7184.954
7164.885
7144.631
7124.197
7103.588
7082.808
7061.864
7040.761
7019.507
6998.108
6976.574
6954.912
6933.133
6911.247
6889.261
6867.184
6845.027
6822.798
6800.504
6778.15
6755.737
6733.26
6710.712
6688.09
6665.413
6642.727
6620.065
6597.443
6574.868
6552.349
6529.9
6507.552
6485.27
6463.051
6440.945
6418.987
6397.193
6375.572
6354.134
6332.886
6311.834
6290.983
6270.34
6249.913
6229.708
6209.733
6189.994
6170.499
6151.255
6132.268
6113.544
6095.089
6076.909
6059.008
6041.392
6024.064
6007.027
5990.287
5973.844
5957.702
5941.864
5926.331
5911.104
5896.185
5881.575
5867.274
5853.282
5839.599
5826.226
5813.161
5800.404
5787.954
5775.809
5763.968
5752.43
5741.192
5730.253
5719.61
5709.262
5699.205
5689.439
5679.961
5670.77
5661.861
5653.226
5644.867
5636.782
5628.967
5621.421
5614.139
5607.117
5600.354
5593.847
5587.587
5581.589
5575.831
5570.315
5565.037
5559.995
5555.184
5550.6
5546.239
5542.098
5538.17
5534.452
5530.939
5527.629
5524.52
5521.618
5518.94
5516.518
5514.411
5512.697
5511.482
5510.844
5510.678
6126.932
6140.556
6157.318
6155.23
6167.731
6155.741
6177.514
6204.055
6235.432
6271.534
6312.986
6356.724
6405.973
6458.953
6514.855
6572.778
6585.026
6648.434
6710.234
6770.465
6830.104
6889.851
6947.894
7000.893
7046.655
7084.672
7114.728
7136.56
7150.133
7155.733
7153.921
7145.468
7131.261
7112.086
7088.669
7061.858
7032.585
7001.805
6970.333
6938.706
6907.378
6876.531
6846.052
6819.192
6795.238
6772.706
6752.047
6733.967
6718.667
6706.096
6696.227
6689.041
6684.414
6682.302
6682.811
6685.947
6691.643
6699.789
6710.262
6722.923
6737.5
6753.67
6771.317
6790.475
6811.121
6833.034
6855.935
6879.583
6903.92
6928.846
6954.221
6979.885
7005.724
7031.692
7057.766
7083.898
7110.054
7136.191
7162.113
7188.027
7213.537
7238.665
7263.665
7288.655
7313.432
7337.994
7362.226
7386.166
7409.737
7432.926
7455.676
7477.99
7499.856
7521.258
7542.169
7562.558
7582.391
7601.636
7620.261
7638.243
7655.612
7672.417
7688.672
7704.364
7719.485
7734.035
7748.025
7761.459
7774.358
7786.74
7798.619
7810.021
7820.979
7831.513
7841.642
7851.367
7860.708
7869.663
7878.256
7886.548
7894.559
7902.287
7909.748
7916.966
7923.955
7930.723
7937.276
7943.634
7949.824
7955.866
7961.777
7967.575
7973.259
7978.807
7984.168
7989.245
7993.885
7997.841
8001.031
8003.657
8005.859
8007.529
8008.562
8009.047
8009.178
8009.099
8008.871
8008.519
8008.068
8007.55
8006.999
8006.455
8005.967
8005.595
8005.415
8005.501
8005.901
8006.606
8007.502
8008.429
8009.101
8009.1
8008.038
8005.801
8002.598
7998.815
7995.148
7992.256
7990.25
7988.813
7987.635
7986.597
7985.677
7984.864
7984.132
7983.457
7982.825
7982.232
7981.673
7981.149
7980.659
7980.2
7979.769
7979.369
7979.003
7978.674
7978.384
7978.138
7977.937
7977.785
7977.685
7977.64
7977.653
7977.728
7977.867
7978.074
7978.354
7978.708
7979.141
7979.655
7980.252
7980.933
7981.701
7982.559
7983.507
7984.547
7985.679
7986.905
7988.225
7989.639
7991.15
7992.774
7994.518
7996.386
7998.378
8000.467
8002.627
8004.839
8007.077
8009.342
8011.647
8014
8016.398
8018.834
8021.304
8023.8
8026.318
8028.852
8031.396
8033.941
8036.482
8039.01
8041.52
8044.002
8046.45
8048.856
8051.212
8053.51
8055.743
8057.904
8059.983
8061.975
8063.872
8065.669
8067.367
8069.005
8070.391
8071.673
8072.825
8073.834
8074.69
8075.383
8075.883
8076.253
8076.43
8076.411
8076.191
8075.769
8075.142
8074.314
8073.28
8072.036
8070.588
8068.937
8067.085
8065.017
8062.69
8060.064
8057.115
8053.855
8050.301
8046.46
8042.328
8037.9
8033.173
8028.149
8022.825
8017.202
8011.277
8005.049
7998.519
7991.685
7984.548
7977.108
7969.365
7961.319
7952.973
7944.325
7935.377
7926.13
7916.585
7906.744
7896.612
7886.195
7875.508
7864.575
7853.435
7842.147
7830.793
7819.478
7808.313
7797.384
7786.668
7776.008
7765.248
7754.313
7743.194
7731.891
7720.4
7708.717
7696.846
7684.801
7672.583
7660.191
7647.635
7634.922
7622.057
7609.042
7595.883
7582.582
7569.14
7555.561
7541.845
7527.992
7514.004
7499.879
7485.618
7471.219
7456.68
7441.999
7427.172
7412.195
7397.057
7381.755
7366.289
7350.686
7334.866
7318.768
7302.472
7286.065
7269.557
7252.909
7236.083
7219.071
7201.879
7184.511
7166.962
7149.226
7131.302
7113.183
7094.867
7076.354
7057.642
7038.731
7019.622
7000.315
6980.811
6961.113
6941.222
6921.142
6900.875
6880.426
6859.799
6839
6818.034
6796.906
6775.624
6754.195
6732.627
6710.927
6689.107
6667.174
6645.135
6623.001
6600.78
6578.481
6556.11
6533.674
6511.176
6488.617
6466
6443.33
6420.623
6397.906
6375.206
6352.538
6329.916
6307.351
6284.855
6262.436
6240.096
6217.85
6195.725
6173.743
6151.916
6130.256
6108.773
6087.476
6066.373
6045.472
6024.78
6004.304
5984.053
5964.033
5944.252
5924.716
5905.433
5886.409
5867.65
5849.162
5830.95
5813.02
5795.375
5778.02
5760.959
5744.194
5727.729
5711.567
5695.71
5680.158
5664.915
5649.981
5635.356
5621.042
5607.038
5593.345
5579.961
5566.886
5554.119
5541.66
5529.507
5517.658
5506.113
5494.869
5483.925
5473.278
5462.926
5452.868
5443.1
5433.62
5424.426
5415.515
5406.881
5398.524
5390.44
5382.628
5375.084
5367.805
5360.788
5354.03
5347.527
5341.274
5335.272
5329.521
5324.013
5318.745
5313.713
5308.916
5304.348
5300.008
5295.892
5291.997
5288.32
5284.861
5281.62
5278.601
5275.812
5273.272
5271.007
5269.059
5267.474
5266.303
5265.559
5265.173
5971.02
5965.167
5955.371
5933.896
5924.366
5884.782
5877.903
5872.164
5867.861
5865.268
5864.323
5865.98
5870.602
5878.3
5889.311
5848.168
5869.711
5895.504
5926.224
5961.301
6001.175
6046.464
6096.217
6149.48
6205.568
6263.576
6321.306
6383.904
6445.988
6507.146
6567.089
6625.955
6682.91
6735.34
6780.909
6818.519
6847.831
6868.777
6881.481
6886.311
6883.858
6874.881
6860.261
6840.868
6817.5
6790.972
6762.158
6731.922
6700.993
6669.978
6639.218
6609.415
6581.005
6554.903
6531.222
6509.47
6489.581
6471.854
6456.688
6444.313
6434.701
6427.762
6423.44
6421.733
6422.652
6426.166
6432.209
6440.693
6451.533
6464.609
6479.608
6496.356
6514.726
6534.637
6556.009
6578.721
6602.506
6627.076
6652.314
6678.109
6704.331
6730.832
6757.496
6784.256
6811.067
6837.878
6864.624
6891.254
6917.66
6943.958
6969.978
6995.62
7021.003
7046.223
7071.191
7095.872
7120.266
7144.305
7167.982
7191.259
7214.034
7236.373
7258.243
7279.62
7300.488
7320.813
7340.569
7359.73
7378.279
7396.206
7413.52
7430.24
7446.385
7461.957
7476.957
7491.388
7505.261
7518.587
7531.382
7543.662
7555.446
7566.757
7577.622
7588.062
7598.093
7607.726
7616.976
7625.859
7634.398
7642.621
7650.545
7658.183
7665.555
7672.68
7679.573
7686.244
7692.705
7698.965
7705.041
7710.947
7716.697
7722.295
7727.734
7732.987
7738.007
7742.714
7747.01
7750.777
7753.945
7756.569
7758.735
7760.439
7761.642
7762.382
7762.771
7762.918
7762.889
7762.721
7762.442
7762.086
7761.687
7761.283
7760.914
7760.626
7760.465
7760.471
7760.658
7761.003
7761.418
7761.766
7761.858
7761.447
7760.32
7758.416
7755.867
7752.932
7750
7747.465
7745.47
7743.898
7742.578
7741.414
7740.377
7739.449
7738.61
7737.839
7737.125
7736.454
7735.82
7735.225
7734.675
7734.167
7733.691
7733.245
7732.838
7732.472
7732.149
7731.874
7731.648
7731.474
7731.356
7731.297
7731.298
7731.365
7731.499
7731.706
7731.987
7732.346
7732.787
7733.311
7733.92
7734.617
7735.404
7736.283
7737.254
7738.32
7739.48
7740.736
7742.089
7743.541
7745.094
7746.754
7748.524
7750.405
7752.391
7754.471
7756.627
7758.843
7761.102
7763.402
7765.746
7768.137
7770.571
7773.044
7775.551
7778.085
7780.641
7783.214
7785.796
7788.381
7790.961
7793.53
7796.08
7798.603
7801.093
7803.54
7805.938
7808.279
7810.555
7812.758
7814.881
7816.916
7818.857
7820.697
7822.433
7824.06
7825.533
7826.876
7828.082
7829.142
7830.049
7830.798
7831.402
7831.785
7831.994
7832.019
7831.843
7831.474
7830.895
7830.13
7829.152
7827.958
7826.552
7824.93
7823.086
7821.007
7818.672
7816.055
7813.136
7809.916
7806.4
7802.593
7798.491
7794.093
7789.395
7784.397
7779.097
7773.496
7767.591
7761.382
7754.868
7748.05
7740.928
7733.502
7725.774
7717.745
7709.417
7700.791
7691.87
7682.657
7673.156
7663.373
7653.315
7642.996
7632.432
7621.649
7610.682
7599.582
7588.407
7577.23
7566.115
7555.105
7544.185
7533.279
7522.299
7511.185
7499.915
7488.481
7476.877
7465.102
7453.154
7441.039
7428.761
7416.321
7403.724
7390.977
7378.081
7365.042
7351.863
7338.544
7325.09
7311.5
7297.776
7283.918
7269.927
7255.802
7241.541
7227.143
7212.607
7197.929
7183.105
7168.131
7153.002
7137.713
7122.258
7106.627
7090.795
7074.763
7058.566
7042.229
7025.752
7009.116
6992.305
6975.312
6958.138
6940.782
6923.24
6905.51
6887.587
6869.469
6851.152
6832.636
6813.919
6795.002
6775.883
6756.565
6737.047
6717.332
6697.421
6677.318
6657.027
6636.549
6615.892
6595.058
6574.054
6552.887
6531.561
6510.085
6488.464
6466.707
6444.822
6422.82
6400.706
6378.491
6356.185
6333.795
6311.33
6288.797
6266.201
6243.548
6220.844
6198.1
6175.328
6152.55
6129.786
6107.051
6084.361
6061.727
6039.159
6016.671
5994.272
5971.978
5949.806
5927.772
5905.889
5884.171
5862.629
5841.272
5820.11
5799.151
5778.403
5757.873
5737.57
5717.501
5697.673
5678.094
5658.77
5639.707
5620.913
5602.392
5584.149
5566.191
5548.521
5531.143
5514.061
5497.278
5480.797
5464.621
5448.752
5433.191
5417.94
5403
5388.371
5374.055
5360.051
5346.358
5332.977
5319.907
5307.147
5294.696
5282.552
5270.715
5259.182
5247.95
5237.019
5226.386
5216.049
5206.005
5196.251
5186.786
5177.607
5168.71
5160.092
5151.751
5143.684
5135.887
5128.359
5121.096
5114.095
5107.353
5100.867
5094.633
5088.65
5082.915
5077.425
5072.176
5067.167
5062.393
5057.853
5053.543
5049.462
5045.608
5041.981
5038.58
5035.408
5032.472
5029.779
5027.347
5025.195
5023.351
5021.845
5020.703
5019.929
5019.475
5902.542
5834.351
5788.723
5750.286
5720.756
5699.053
5682.433
5669.372
5658.584
5649.056
5579.093
5572.268
5566.422
5561.801
5558.78
5557.725
5558.973
5562.89
5569.902
5580.816
5594.78
5614.316
5638.604
5667.74
5701.772
5740.595
5784.268
5832.726
5885.854
5942.2
6001.173
6061.421
6123.546
6185.966
6247.328
6306.826
6364.008
6418.129
6467.458
6510.108
6544.908
6571.44
6589.749
6600.113
6603.017
6599.09
6589.116
6573.906
6554.285
6531.072
6505.07
6477.056
6447.804
6417.983
6388.271
6359.088
6330.961
6304.279
6279.303
6256.348
6235.447
6216.546
6199.797
6185.505
6173.878
6164.936
6158.636
6154.959
6153.908
6155.472
6159.628
6166.329
6175.472
6186.962
6200.624
6216.384
6234.095
6253.578
6274.662
6297.19
6321.028
6345.966
6371.755
6398.226
6425.238
6452.646
6480.309
6508.108
6535.956
6563.782
6591.526
6619.12
6646.518
6673.663
6700.561
6727.143
6753.344
6779.204
6804.773
6830.036
6854.973
6879.554
6903.723
6927.459
6950.745
6973.642
6996.025
7017.894
7039.233
7060.037
7080.279
7099.934
7118.988
7137.427
7155.243
7172.441
7189.035
7205.037
7220.457
7235.301
7249.577
7263.294
7276.468
7289.115
7301.251
7312.899
7324.078
7334.812
7345.121
7355.022
7364.531
7373.664
7382.44
7390.875
7398.99
7406.805
7414.338
7421.604
7428.622
7435.403
7441.96
7448.302
7454.438
7460.379
7466.136
7471.715
7477.116
7482.326
7487.319
7492.055
7496.476
7500.517
7504.109
7507.203
7509.811
7511.978
7513.722
7515.04
7515.96
7516.549
7516.887
7517.032
7517.025
7516.896
7516.678
7516.404
7516.106
7515.818
7515.572
7515.397
7515.313
7515.322
7515.395
7515.461
7515.417
7515.137
7514.475
7513.315
7511.627
7509.499
7507.098
7504.647
7502.409
7500.497
7498.88
7497.477
7496.228
7495.104
7494.09
7493.162
7492.306
7491.52
7490.785
7490.084
7489.423
7488.809
7488.238
7487.712
7487.232
7486.799
7486.412
7486.073
7485.783
7485.544
7485.359
7485.23
7485.161
7485.153
7485.211
7485.339
7485.538
7485.814
7486.17
7486.607
7487.13
7487.741
7488.442
7489.235
7490.123
7491.106
7492.185
7493.363
7494.639
7496.015
7497.492
7499.071
7500.756
7502.545
7504.438
7506.431
7508.513
7510.674
7512.902
7515.184
7517.516
7519.897
7522.326
7524.8
7527.313
7529.86
7532.437
7535.036
7537.652
7540.279
7542.909
7545.536
7548.151
7550.748
7553.32
7555.857
7558.353
7560.8
7563.191
7565.516
7567.769
7569.943
7572.029
7574.02
7575.91
7577.691
7579.356
7580.888
7582.285
7583.542
7584.652
7585.61
7586.408
7587.045
7587.498
7587.769
7587.852
7587.745
7587.421
7586.861
7586.187
7585.265
7584.12
7582.754
7581.164
7579.34
7577.274
7574.95
7572.349
7569.458
7566.272
7562.792
7559.017
7554.946
7550.577
7545.906
7540.933
7535.657
7530.075
7524.188
7517.994
7511.495
7504.689
7497.579
7490.164
7482.447
7474.43
7466.115
7457.506
7448.606
7439.421
7429.956
7420.219
7410.221
7399.976
7389.504
7378.828
7367.98
7357.001
7345.935
7334.83
7323.726
7312.646
7301.582
7290.496
7279.336
7268.06
7256.646
7245.083
7233.366
7221.49
7209.457
7197.266
7184.921
7172.423
7159.777
7146.986
7134.054
7120.982
7107.775
7094.433
7080.958
7067.352
7053.615
7039.747
7025.748
7011.616
6997.351
6982.951
6968.413
6953.734
6938.911
6923.939
6908.812
6893.527
6878.075
6862.45
6846.648
6830.669
6814.52
6798.211
6781.743
6765.109
6748.3
6731.311
6714.138
6696.781
6679.234
6661.496
6643.563
6625.431
6607.099
6588.565
6569.827
6550.886
6531.74
6512.391
6492.839
6473.087
6453.136
6432.989
6412.649
6392.121
6371.408
6350.515
6329.449
6308.215
6286.82
6265.27
6243.573
6221.738
6199.773
6177.69
6155.494
6133.195
6110.801
6088.322
6065.765
6043.139
6020.451
5997.709
5974.922
5952.102
5929.261
5906.416
5883.586
5860.784
5838.027
5815.326
5792.694
5770.144
5747.689
5725.342
5703.117
5681.031
5659.096
5637.326
5615.731
5594.322
5573.11
5552.101
5531.305
5510.731
5490.386
5470.278
5450.413
5430.801
5411.446
5392.356
5373.536
5354.993
5336.731
5318.756
5301.072
5283.682
5266.591
5249.801
5233.316
5217.138
5201.268
5185.709
5170.461
5155.526
5140.905
5126.597
5112.602
5098.921
5085.553
5072.498
5059.753
5047.319
5035.194
5023.375
5011.862
5000.651
4989.74
4979.128
4968.812
4958.79
4949.058
4939.615
4930.457
4921.582
4912.986
4904.667
4896.621
4888.847
4881.34
4874.099
4867.12
4860.399
4853.935
4847.724
4841.764
4836.052
4830.585
4825.362
4820.378
4815.633
4811.123
4806.848
4802.805
4798.994
4795.416
4792.072
4788.965
4786.101
4783.489
4781.142
4779.076
4777.31
4775.863
4774.749
4773.974
4773.5
5624.704
5560.551
5451.629
5424.121
5401.936
5384.73
5371.171
5360.028
5350.383
5342.018
5334.323
5327.306
5321
5315.671
5311.753
5309.6
5309.578
5312.23
5318.187
5328.083
5341.653
5359.869
5382.738
5410.755
5444.231
5482.688
5525.838
5574.088
5627.327
5684.232
5743.528
5803.99
5865.058
5925.867
5985.151
6041.877
6095.261
6144.558
6188.642
6226.254
6256.444
6278.844
6293.546
6300.923
6301.542
6296.058
6285.272
6269.905
6250.638
6228.237
6203.435
6176.916
6149.339
6121.332
6093.417
6066.066
6039.757
6014.787
5991.386
5969.826
5950.267
5932.76
5917.403
5904.366
5893.807
5885.805
5880.386
5877.567
5877.364
5879.785
5884.797
5892.334
5902.423
5914.973
5929.825
5946.9
5966.078
5987.147
6009.886
6034.082
6059.503
6085.994
6113.416
6141.56
6170.227
6199.248
6228.472
6257.771
6287.037
6316.184
6345.139
6373.839
6402.236
6430.287
6457.967
6485.243
6512.084
6538.502
6564.523
6590.153
6615.377
6640.168