/*--------------------------------*- C++ -*----------------------------------*\
| =========                 |                                                 |
| \\      /  F ield         | foam-extend: Open Source CFD                    |
|  \\    /   O peration     | Version:     3.1                                |
|   \\  /    A nd           | Web:         http://www.extend-project.de       |
|    \\/     M anipulation  |                                                 |
\*---------------------------------------------------------------------------*/
FoamFile
{
    version     2.0;
    format      ascii;
    class       volScalarField;
    location    "4";
    object      pd;
}
// * * * * * * * * * * * * * * * * * * * * * * * * * * * * * * * * * * * * * //

dimensions      [1 -1 -2 0 0 0 0];

internalField   nonuniform List<scalar> 
119952
(
9501.307
9374.721
9347.363
9368.33
9393.644
9376.799
9373.184
9369.978
9367.836
9366.088
9364.576
9363.2
9361.87
9360.517
9359.077
9357.462
9355.513
9352.812
9347.805
9333.585
9384.851
9347.819
9335.276
9402.054
9385.421
9393.177
9396.179
9413.218
9475.652
6694.656
8963.631
8977.75
8995.15
9012.164
9028.971
9045
9060.515
9075.551
9090.564
9100.94
9114.728
9128.231
9140.303
9152.002
9163.322
9174.283
9184.881
9195.17
9205.341
9219.707
9225.368
9232.352
9240.442
9248.293
9255.916
9263.394
9270.73
9277.814
9284.81
9289.912
9296.719
9303.244
9309.392
9315.617
9321.763
9327.832
9334.554
9345.955
9368.928
9355.624
9356.632
9367.005
9372.349
9372.258
9369.34
9367.396
9365.821
9364.384
9363.087
9361.856
9360.627
9359.356
9357.995
9356.477
9354.713
9352.614
9350.266
9348.682
9350.66
9352.101
9350.963
9363.582
9382.339
9384.702
9386.633
9389.009
9378.667
9335.613
9326.962
9332.627
9333.986
9335.145
9335.921
9336.17
9336.209
9336.122
9335.949
9335.719
9335.45
9335.158
9334.853
9334.543
9334.231
9333.921
9333.615
9333.314
9333.02
9332.738
9332.469
9332.211
9331.993
9331.804
9331.635
9331.498
9331.404
9331.363
9331.373
9331.442
9331.576
9331.779
9332.054
9332.409
9332.842
9333.358
9333.958
9334.664
9335.456
9336.325
9337.285
9338.335
9339.468
9340.677
9341.948
9343.247
9344.521
9345.915
9348.056
9351.753
9355.148
9356.434
9358.326
9360.323
9362.388
9364.558
9366.81
9369.111
9371.451
9373.83
9376.236
9378.662
9381.096
9383.52
9385.966
9388.437
9390.868
9393.251
9395.606
9397.92
9400.186
9402.397
9404.543
9406.618
9408.613
9410.52
9412.33
9414.039
9415.637
9417.119
9418.478
9419.707
9420.794
9421.735
9422.531
9423.158
9423.613
9423.89
9423.981
9423.877
9423.569
9423.043
9422.293
9421.3
9420.041
9418.474
9416.509
9414.061
9411.436
9413.457
9411.123
9408.229
9405.021
9401.62
9397.971
9394.115
9390.062
9385.577
9380.853
9375.842
9370.552
9364.968
9359.085
9352.901
9346.418
9339.64
9332.561
9325.18
9317.494
9309.504
9301.207
9292.599
9283.679
9274.44
9264.872
9254.965
9244.703
9234.06
9222.996
9211.448
9199.308
9186.366
9172.134
9155.7
9137.842
9133.936
9127.561
9119.259
9110
9100.129
9089.785
9079.05
9068
9056.679
9045.121
9033.334
9021.335
9009.149
8996.787
8984.248
8971.532
8958.627
8945.559
8932.337
8918.966
8905.449
8891.787
8877.983
8864.038
8849.955
8835.71
8821.321
8806.808
8792.158
8777.37
8762.444
8747.38
8732.148
8716.699
8712.489
8688.879
8667.39
8651.698
8634.949
8617.872
8601.094
8584.165
8567.05
8549.809
8532.418
8514.869
8497.152
8479.236
8461.124
8442.814
8424.317
8405.63
8386.747
8367.669
8348.395
8328.928
8309.27
8289.424
8269.393
8249.181
8228.792
8208.23
8187.502
8166.612
8145.568
8124.377
8103.049
8081.6
8060.004
8038.298
8016.49
7994.592
7972.616
7950.576
7928.491
7906.382
7884.281
7862.233
7840.263
7818.154
7795.353
7772.347
7749.54
7726.848
7704.242
7681.738
7659.323
7636.285
7612.063
7591.046
7569.563
7547.538
7525.694
7503.987
7482.455
7461.109
7439.952
7418.983
7398.208
7377.634
7357.267
7337.116
7317.187
7297.489
7278.029
7258.814
7239.853
7221.151
7202.714
7184.549
7166.66
7149.052
7131.73
7114.698
7097.958
7081.509
7065.366
7049.524
7033.983
7018.747
7003.816
6989.192
6974.875
6960.866
6947.165
6933.772
6920.686
6907.906
6895.432
6883.263
6871.397
6859.832
6848.566
6837.595
6826.919
6816.547
6806.461
6796.663
6787.149
6777.913
6768.944
6760.288
6751.906
6743.793
6735.947
6728.368
6721.052
6713.997
6707.2
6700.656
6694.364
6688.327
6682.532
6676.974
6671.653
6666.564
6661.704
6657.066
6652.644
6648.432
6644.419
6640.594
6636.945
6633.448
6630.076
6626.787
6623.517
6620.156
6616.52
6612.362
6607.988
6607.801
6623.773
8106.821
8123.431
8141.186
8160.121
8180.308
8201.738
8224.183
8247.406
8271.081
8288.265
8317.346
8342.573
8367.843
8393.315
8418.95
8444.676
8470.448
8496.406
8533.742
8554.614
8576.892
8601.409
8626.06
8650.756
8675.405
8699.817
8724.062
8748.173
8770.567
8793.488
8816.454
8838.532
8860.241
8881.487
8902.231
8922.466
8942.296
8961.467
8977.843
8995.748
9013.19
9029.847
9045.904
9061.372
9076.267
9090.625
9104.176
9117.461
9130.175
9142.054
9153.484
9164.625
9175.412
9185.847
9196.015
9206.684
9216.173
9225.515
9234.339
9242.299
9249.889
9257.379
9264.747
9271.922
9278.852
9285.583
9292.235
9298.53
9304.625
9310.717
9316.899
9323.23
9329.923
9337.25
9345.161
9352.041
9355.343
9357.451
9360.925
9364.178
9365.578
9365.218
9364.16
9363.068
9362.072
9361.106
9360.111
9359.066
9357.964
9356.796
9355.554
9354.263
9353.033
9352.113
9351.908
9352.785
9354.845
9358.304
9363.73
9370.348
9373.496
9373.008
9368.808
9360.147
9347.999
9338.785
9335.681
9335.703
9336.134
9336.088
9335.777
9335.44
9335.131
9334.818
9334.48
9334.126
9333.767
9333.411
9333.062
9332.721
9332.39
9332.072
9331.767
9331.478
9331.206
9330.955
9330.731
9330.534
9330.374
9330.254
9330.173
9330.156
9330.184
9330.26
9330.396
9330.597
9330.865
9331.205
9331.622
9332.111
9332.715
9333.391
9334.15
9334.994
9335.926
9336.945
9338.052
9339.244
9340.523
9341.89
9343.349
9344.949
9346.748
9348.826
9351.211
9353.717
9356.012
9358.133
9360.225
9362.379
9364.614
9366.913
9369.255
9371.632
9374.04
9376.474
9378.923
9381.382
9383.846
9386.305
9388.746
9391.164
9393.562
9395.93
9398.251
9400.52
9402.732
9404.877
9406.95
9408.94
9410.841
9412.645
9414.343
9415.929
9417.394
9418.74
9419.956
9421.03
9421.955
9422.724
9423.328
9423.759
9424.012
9424.077
9423.946
9423.609
9423.058
9422.285
9421.272
9420.026
9418.526
9416.862
9415.134
9413.565
9412.807
9410.683
9407.781
9404.679
9401.347
9397.759
9393.845
9389.7
9385.261
9380.506
9375.476
9370.153
9364.537
9358.624
9352.414
9345.904
9339.094
9331.982
9324.567
9316.849
9308.826
9300.497
9291.858
9282.908
9273.639
9264.046
9254.116
9243.837
9233.185
9222.129
9210.62
9198.588
9185.942
9172.683
9159.242
9146.688
9136.961
9128.748
9119.671
9109.993
9099.914
9089.426
9078.589
9067.456
9056.08
9044.504
9032.678
9020.623
9008.419
8996.035
8983.467
8970.717
8957.794
8944.71
8931.474
8918.088
8904.557
8890.881
8877.063
8863.104
8849.005
8834.765
8820.384
8805.866
8791.208
8776.413
8761.482
8746.427
8731.286
8716.18
8700.816
8685.748
8667.291
8648.787
8631.485
8614.778
8598.031
8581.077
8563.943
8546.667
8529.248
8511.665
8493.898
8475.994
8457.846
8439.499
8420.96
8402.227
8383.301
8364.181
8344.867
8325.361
8305.664
8285.779
8265.71
8245.46
8225.033
8204.434
8183.668
8162.742
8141.662
8120.435
8099.066
8077.562
8055.935
8034.196
8012.355
7990.423
7968.412
7946.335
7924.205
7902.037
7879.839
7857.607
7835.306
7812.866
7790.241
7767.516
7744.803
7722.151
7699.572
7677.079
7654.691
7632.396
7609.857
7587.284
7565.081
7543.115
7521.28
7499.587
7478.059
7456.711
7435.552
7414.587
7393.822
7373.262
7352.914
7332.784
7312.882
7293.213
7273.785
7254.606
7235.681
7217.018
7198.622
7180.499
7162.654
7145.092
7127.816
7110.832
7094.14
7077.746
7061.651
7045.858
7030.37
7015.186
7000.309
6985.738
6971.476
6957.522
6943.877
6930.539
6917.509
6904.786
6892.368
6880.255
6868.445
6856.936
6845.727
6834.819
6824.203
6813.88
6803.849
6794.107
6784.652
6775.487
6766.64
6757.997
6749.647
6741.576
6733.778
6726.247
6718.979
6711.975
6705.226
6698.734
6692.497
6686.507
6680.76
6675.252
6669.981
6664.943
6660.133
6655.545
6651.174
6647.013
6643.053
6639.286
6635.698
6632.273
6628.994
6625.834
6622.773
6619.798
6616.987
6614.554
6613.213
6613.152
6615.059
8381.056
8433.851
8475.283
8508.489
8533.484
8550.106
8558.507
8558.963
8551.852
8536.531
8514.793
8491.657
8464.447
8434.72
8403.105
8370.361
8337.198
8304.144
8273.381
8238.318
8208.209
8180.125
8154.977
8132.316
8112.41
8095.275
8080.92
8069.435
8061.981
8053.251
8049.868
8049.203
8050.828
8055.112
8061.753
8070.933
8082.308
8095.972
8108.034
8124.467
8143.421
8163.081
8183.917
8205.722
8228.509
8252.024
8276.021
8300.494
8325.378
8350.013
8374.843
8399.994
8425.389
8450.897
8476.501
8503.076
8536.618
8561.482
8584.784
8608.884
8633.56
8658.263
8682.733
8706.959
8730.927
8754.596
8777.978
8800.681
8822.881
8844.719
8866.192
8887.228
8907.766
8927.763
8947.176
8966.012
8984.023
9001.308
9018.125
9034.487
9050.324
9065.595
9080.294
9094.424
9107.994
9120.992
9133.384
9145.287
9156.759
9167.825
9178.474
9188.725
9198.52
9208.033
9217.062
9225.755
9234.053
9241.989
9249.697
9257.243
9264.613
9271.765
9278.707
9285.426
9291.905
9298.195
9304.38
9310.517
9316.67
9322.89
9329.219
9335.592
9341.937
9347.831
9351.997
9354.652
9357.35
9360.056
9361.738
9362.069
9361.624
9360.988
9360.34
9359.65
9358.883
9358.039
9357.137
9356.194
9355.236
9354.32
9353.542
9353.064
9353.089
9353.915
9355.665
9358.097
9361.289
9364.588
9366.285
9365.489
9362.169
9356.225
9348.183
9341.483
9338.307
9337.262
9336.734
9336.114
9335.447
9334.855
9334.351
9333.885
9333.43
9332.981
9332.545
9332.125
9331.723
9331.339
9330.975
9330.631
9330.308
9330.009
9329.737
9329.494
9329.285
9329.111
9328.978
9328.891
9328.851
9328.856
9328.911
9329.022
9329.197
9329.44
9329.754
9330.143
9330.609
9331.161
9331.76
9332.457
9333.249
9334.128
9335.094
9336.147
9337.289
9338.52
9339.848
9341.298
9342.853
9344.533
9346.359
9348.333
9350.553
9352.915
9355.165
9357.309
9359.455
9361.668
9363.955
9366.294
9368.67
9371.076
9373.509
9375.966
9378.44
9380.924
9383.407
9385.884
9388.353
9390.805
9393.227
9395.613
9397.955
9400.248
9402.483
9404.653
9406.75
9408.765
9410.691
9412.521
9414.244
9415.851
9417.329
9418.708
9419.952
9421.054
9422.005
9422.8
9423.43
9423.887
9424.167
9424.261
9424.161
9423.858
9423.346
9422.618
9421.671
9420.511
9419.142
9417.619
9415.934
9414.101
9412.185
9410.061
9407.451
9404.401
9401.026
9397.371
9393.45
9389.244
9384.744
9379.958
9374.88
9369.505
9363.835
9357.867
9351.599
9345.031
9338.161
9330.989
9323.514
9315.735
9307.653
9299.265
9290.569
9281.565
9272.247
9262.611
9252.65
9242.356
9231.717
9220.721
9209.359
9197.643
9185.632
9173.497
9161.542
9150.184
9139.684
9129.776
9119.908
9109.763
9099.287
9088.524
9077.512
9066.271
9054.772
9042.999
9031.095
9019
9006.646
8994.131
8981.458
8968.628
8955.641
8942.501
8929.214
8915.782
8902.207
8888.491
8874.635
8860.64
8846.506
8832.233
8817.82
8803.269
8788.578
8773.749
8758.78
8743.68
8728.414
8712.919
8696.677
8679.749
8663.288
8647.304
8631.353
8615.173
8598.689
8581.931
8564.963
8547.808
8530.463
8512.923
8495.186
8477.272
8459.155
8440.837
8422.32
8403.606
8384.695
8365.588
8346.287
8326.791
8307.104
8287.228
8267.166
8246.921
8226.498
8205.901
8185.135
8164.206
8143.121
8121.887
8100.511
8079.001
8057.368
8035.62
8013.766
7991.816
7969.781
7947.672
7925.499
7903.271
7880.992
7858.659
7836.259
7813.772
7791.172
7768.487
7745.795
7723.148
7700.555
7678.02
7655.531
7633.066
7610.709
7588.488
7566.329
7544.263
7522.33
7500.548
7478.944
7457.533
7436.318
7415.303
7394.492
7373.889
7353.5
7333.334
7313.395
7293.691
7274.23
7255.018
7236.062
7217.367
7198.941
7180.788
7162.914
7145.323
7128.019
7111.006
7094.288
7077.867
7061.746
7045.927
7030.413
7015.205
7000.303
6985.71
6971.425
6957.448
6943.78
6930.421
6917.37
6904.626
6892.189
6880.057
6868.228
6856.701
6845.475
6834.547
6823.913
6813.574
6803.526
6793.768
6784.298
6775.115
6766.221
6757.59
6749.235
6741.154
6733.345
6725.802
6718.525
6711.508
6704.75
6698.247
6692.003
6685.997
6680.239
6674.722
6669.443
6664.399
6659.584
6654.993
6650.623
6646.466
6642.516
6638.766
6635.208
6631.832
6628.632
6625.6
6622.745
6620.096
6617.735
6615.795
6614.493
6614.094
6614.543
7650.919
7703.332
7756.741
7818.164
7878.674
7945.772
8007.928
8069.369
8130.579
8187.987
8245.94
8304.009
8355.971
8402.303
8441.313
8472.668
8496.083
8511.442
8518.909
8518.897
8512.109
8499.698
8482.299
8459.893
8433.711
8405.014
8374.594
8343.213
8311.587
8280.647
8252.739
8208.67
8183.088
8159.554
8136.132
8114.666
8096.175
8080.587
8067.674
8057.414
8049.824
8044.935
8042.419
8042.409
8045.054
8050.313
8058.032
8068.056
8080.23
8094.341
8109.996
8126.801
8145.355
8165.546
8187.011
8209.453
8232.53
8256.313
8280.692
8305.491
8330.504
8355.738
8381.162
8406.757
8432.435
8458.214
8483.94
8510.272
8536.403
8561.127
8585.634
8610.441
8635.343
8660.14
8684.584
8708.746
8732.647
8756.226
8779.4
8802.093
8824.359
8846.217
8867.647
8888.61
8909.062
8928.969
8948.3
8967.01
8984.997
9002.343
9019.18
9035.514
9051.299
9066.511
9081.149
9095.225
9108.732
9121.687
9134.119
9146.048
9157.504
9168.525
9179.122
9189.32
9199.1
9208.523
9217.533
9226.128
9234.422
9242.461
9250.242
9257.779
9265.089
9272.169
9279.028
9285.658
9292.082
9298.352
9304.501
9310.554
9316.548
9322.502
9328.399
9334.183
9339.763
9344.908
9349.037
9352.098
9354.721
9357.072
9358.736
9359.497
9359.601
9359.397
9359.058
9358.611
9358.058
9357.417
9356.715
9355.983
9355.258
9354.595
9354.072
9353.8
9353.916
9354.553
9355.737
9357.293
9359.109
9360.718
9361.375
9360.43
9357.708
9353.454
9348.193
9343.377
9340.19
9338.405
9337.263
9336.3
9335.423
9334.653
9333.984
9333.378
9332.81
9332.271
9331.758
9331.271
9330.811
9330.378
9329.97
9329.589
9329.234
9328.91
9328.617
9328.359
9328.139
9327.96
9327.824
9327.737
9327.7
9327.715
9327.787
9327.92
9328.118
9328.385
9328.724
9329.139
9329.631
9330.204
9330.858
9331.601
9332.434
9333.356
9334.368
9335.471
9336.667
9337.957
9339.339
9340.799
9342.376
9344.083
9345.934
9347.961
9350.087
9352.264
9354.476
9356.681
9358.904
9361.17
9363.488
9365.852
9368.255
9370.69
9373.153
9375.638
9378.139
9380.649
9383.16
9385.666
9388.16
9390.633
9393.078
9395.488
9397.856
9400.174
9402.433
9404.627
9406.748
9408.787
9410.737
9412.591
9414.338
9415.963
9417.412
9418.863
9420.152
9421.289
9422.274
9423.102
9423.763
9424.245
9424.558
9424.687
9424.622
9424.357
9423.888
9423.211
9422.325
9421.235
9419.939
9418.456
9416.776
9414.927
9412.92
9410.648
9408.02
9405.026
9401.714
9398.117
9394.24
9390.077
9385.62
9380.867
9375.818
9370.471
9364.826
9358.882
9352.636
9346.089
9339.24
9332.088
9324.632
9316.874
9308.812
9300.446
9291.776
9282.8
9273.518
9263.927
9254.026
9243.812
9233.285
9222.448
9211.319
9199.934
9188.369
9176.739
9165.21
9153.959
9143.153
9132.749
9122.45
9111.978
9101.255
9090.3
9079.132
9067.754
9056.156
9044.347
9032.365
9020.203
9007.847
8995.321
8982.636
8969.793
8956.798
8943.653
8930.364
8916.931
8903.357
8889.645
8875.793
8861.804
8847.678
8833.413
8819.009
8804.466
8789.782
8774.955
8759.98
8744.843
8729.516
8713.962
8698.316
8682.605
8666.602
8650.277
8633.781
8617.193
8600.489
8583.623
8566.567
8549.335
8531.934
8514.359
8496.604
8478.666
8460.537
8442.214
8423.694
8404.978
8386.066
8366.957
8347.653
8328.153
8308.462
8288.579
8268.51
8248.256
8227.822
8207.213
8186.433
8165.489
8144.386
8123.132
8101.733
8080.198
8058.537
8036.758
8014.872
7992.886
7970.809
7948.652
7926.423
7904.129
7881.775
7859.362
7836.885
7814.337
7791.714
7769.038
7746.352
7723.69
7701.068
7678.493
7655.974
7633.525
7611.177
7588.895
7566.676
7544.57
7522.612
7500.818
7479.197
7457.759
7436.511
7415.459
7394.608
7373.965
7353.538
7333.333
7313.358
7293.619
7274.124
7254.88
7235.893
7217.169
7198.714
7180.534
7162.633
7145.017
7127.689
7110.652
7093.912
7077.469
7061.327
7045.489
7029.956
7014.729
6999.81
6985.2
6970.899
6956.907
6943.224
6929.851
6916.786
6904.029
6891.579
6879.434
6867.593
6856.055
6844.817
6833.878
6823.235
6812.887
6802.83
6793.064
6783.586
6774.395
6765.486
6756.851
6748.492
6740.407
6732.592
6725.046
6717.764
6710.742
6703.979
6697.472
6691.212
6685.214
6679.456
6673.94
6668.662
6663.62
6658.809
6654.225
6649.864
6645.723
6641.795
6638.077
6634.564
6631.254
6628.145
6625.243
6622.565
6620.143
6618.036
6616.322
6615.107
6614.469
6614.303
7395.278
7397.183
7402.921
7412.136
7424.637
7443.304
7465.077
7491.618
7522.995
7559.096
7600.548
7644.286
7693.535
7746.516
7802.417
7860.341
7933.901
7997.309
8059.109
8119.34
8178.979
8238.726
8296.769
8349.768
8395.53
8433.547
8463.603
8485.435
8499.008
8504.608
8502.796
8494.343
8480.136
8460.961
8437.544
8410.733
8381.46
8350.68
8319.208
8287.581
8256.253
8225.406
8194.927
8168.067
8144.113
8121.581
8100.922
8082.842
8067.542
8054.971
8045.102
8037.916
8033.289
8031.177
8031.686
8034.822
8040.518
8048.664
8059.137
8071.798
8086.375
8102.546
8120.192
8139.35
8159.996
8181.909
8204.81
8228.458
8252.796
8277.721
8303.096
8328.76
8354.599
8380.567
8406.641
8432.773
8458.929
8485.066
8510.988
8536.902
8562.412
8587.54
8612.54
8637.53
8662.308
8686.869
8711.101
8735.041
8758.612
8781.801
8804.551
8826.865
8848.731
8870.133
8891.045
8911.433
8931.266
8950.511
8969.136
8987.118
9004.487
9021.292
9037.547
9053.239
9068.36
9082.91
9096.9
9110.334
9123.233
9135.615
9147.494
9158.896
9169.854
9180.388
9190.517
9200.242
9209.583
9218.538
9227.131
9235.423
9243.434
9251.162
9258.623
9265.841
9272.83
9279.598
9286.151
9292.509
9298.699
9304.741
9310.652
9316.45
9322.135
9327.682
9333.043
9338.12
9342.76
9346.716
9349.906
9352.532
9354.734
9356.404
9357.437
9357.922
9358.053
9357.974
9357.746
9357.394
9356.943
9356.425
9355.874
9355.33
9354.842
9354.471
9354.29
9354.376
9354.776
9355.481
9356.377
9357.304
9357.976
9357.975
9356.913
9354.676
9351.473
9347.69
9344.023
9341.131
9339.125
9337.688
9336.51
9335.472
9334.552
9333.739
9333.007
9332.332
9331.7
9331.107
9330.548
9330.024
9329.534
9329.075
9328.644
9328.244
9327.878
9327.549
9327.259
9327.013
9326.812
9326.66
9326.56
9326.515
9326.528
9326.603
9326.742
9326.949
9327.229
9327.583
9328.016
9328.53
9329.127
9329.808
9330.576
9331.434
9332.382
9333.422
9334.554
9335.78
9337.1
9338.514
9340.025
9341.649
9343.393
9345.261
9347.253
9349.342
9351.502
9353.714
9355.952
9358.217
9360.522
9362.875
9365.273
9367.709
9370.179
9372.675
9375.193
9377.727
9380.271
9382.816
9385.357
9387.885
9390.395
9392.877
9395.325
9397.731
9400.087
9402.385
9404.618
9406.779
9408.858
9410.85
9412.747
9414.544
9416.242
9417.88
9419.266
9420.548
9421.7
9422.709
9423.565
9424.258
9424.758
9425.128
9425.305
9425.286
9425.066
9424.644
9424.017
9423.189
9422.155
9420.911
9419.463
9417.812
9415.96
9413.892
9411.565
9408.939
9405.99
9402.73
9399.176
9395.335
9391.203
9386.775
9382.049
9377.024
9371.7
9366.077
9360.152
9353.924
9347.394
9340.56
9333.423
9325.983
9318.24
9310.194
9301.848
9293.2
9284.252
9275.005
9265.46
9255.619
9245.487
9235.07
9224.383
9213.45
9202.31
9191.023
9179.668
9168.353
9157.188
9146.259
9135.543
9124.883
9114.123
9103.188
9092.069
9080.766
9069.274
9057.592
9045.721
9033.676
9021.458
9009.066
8996.51
8983.797
8970.931
8957.917
8944.758
8931.457
8918.015
8904.436
8890.72
8876.867
8862.879
8848.754
8834.493
8820.094
8805.555
8790.874
8776.047
8761.07
8745.932
8730.63
8715.164
8699.561
8683.741
8667.643
8651.347
8634.94
8618.432
8601.784
8584.958
8567.946
8550.754
8533.386
8515.837
8498.101
8480.177
8462.058
8443.742
8425.229
8406.517
8387.606
8368.497
8349.19
8329.686
8309.988
8290.097
8270.017
8249.75
8229.301
8208.674
8187.875
8166.909
8145.781
8124.499
8103.07
8081.502
8059.802
8037.982
8016.049
7994.01
7971.876
7949.655
7927.356
7904.985
7882.549
7860.051
7837.492
7814.875
7792.205
7769.498
7746.781
7724.081
7701.413
7678.791
7656.226
7633.73
7611.311
7588.971
7566.725
7544.6
7522.618
7500.791
7479.131
7457.648
7436.351
7415.248
7394.347
7373.655
7353.179
7332.928
7312.908
7293.127
7273.591
7254.308
7235.284
7216.525
7198.037
7179.825
7161.895
7144.25
7126.895
7109.834
7093.069
7076.604
7060.442
7044.585
7029.033
7013.79
6998.856
6984.231
6969.917
6955.913
6942.22
6928.836
6915.761
6902.994
6890.535
6878.382
6866.533
6854.988
6843.744
6832.8
6822.153
6811.801
6801.743
6791.975
6782.495
6773.301
6764.39
6755.756
6747.399
6739.315
6731.503
6723.959
6716.68
6709.663
6702.905
6696.402
6690.149
6684.147
6678.396
6672.888
6667.62
6662.588
6657.791
6653.223
6648.883
6644.767
6640.872
6637.195
6633.736
6630.495
6627.476
6624.687
6622.147
6619.882
6617.934
6616.349
6615.178
6614.434
6614.048
7478.656
7461.254
7448.009
7436.052
7426.523
7417.594
7410.716
7404.977
7400.673
7398.081
7397.136
7398.793
7403.414
7411.112
7422.123
7442.293
7463.836
7489.629
7520.349
7555.426
7595.3
7640.589
7690.342
7743.605
7799.693
7857.701
7915.431
7978.029
8040.113
8101.271
8161.214
8220.08
8277.035
8329.465
8375.034
8412.644
8441.956
8462.902
8475.605
8480.436
8477.983
8469.006
8454.386
8434.993
8411.625
8385.097
8356.283
8326.047
8295.117
8264.102
8233.343
8203.54
8175.13
8149.028
8125.347
8103.595
8083.706
8065.979
8050.813
8038.438
8028.826
8021.887
8017.565
8015.858
8016.777
8020.291
8026.334
8034.818
8045.658
8058.734
8073.733
8090.481
8108.851
8128.762
8150.134
8172.846
8196.631
8221.201
8246.439
8272.234
8298.456
8324.957
8351.621
8378.381
8405.192
8432.003
8458.749
8485.379
8511.785
8538.083
8564.103
8589.745
8615.128
8640.348
8665.316
8689.997
8714.391
8738.43
8762.108
8785.384
8808.159
8830.498
8852.368
8873.745
8894.613
8914.938
8934.694
8953.855
8972.404
8990.331
9007.645
9024.365
9040.51
9056.082
9071.082
9085.513
9099.386
9112.712
9125.507
9137.787
9149.571
9160.882
9171.747
9182.187
9192.218
9201.851
9211.101
9219.985
9228.523
9236.746
9244.67
9252.308
9259.68
9266.805
9273.698
9280.369
9286.83
9293.09
9299.166
9305.072
9310.822
9316.42
9321.859
9327.112
9332.132
9336.839
9341.135
9344.902
9348.07
9350.694
9352.86
9354.564
9355.767
9356.507
9356.896
9357.044
9357.014
9356.846
9356.567
9356.211
9355.812
9355.408
9355.039
9354.751
9354.59
9354.596
9354.783
9355.128
9355.543
9355.891
9355.983
9355.572
9354.445
9352.541
9349.992
9347.058
9344.125
9341.59
9339.596
9338.023
9336.703
9335.54
9334.502
9333.574
9332.735
9331.964
9331.25
9330.579
9329.945
9329.35
9328.8
9328.292
9327.816
9327.37
9326.963
9326.597
9326.274
9325.999
9325.773
9325.599
9325.481
9325.422
9325.423
9325.49
9325.624
9325.831
9326.112
9326.471
9326.912
9327.436
9328.045
9328.742
9329.529
9330.408
9331.379
9332.445
9333.605
9334.861
9336.214
9337.666
9339.219
9340.879
9342.649
9344.53
9346.516
9348.596
9350.752
9352.968
9355.228
9357.527
9359.871
9362.262
9364.696
9367.169
9369.676
9372.21
9374.766
9377.339
9379.921
9382.506
9385.086
9387.655
9390.205
9392.728
9395.218
9397.665
9400.063
9402.404
9404.68
9406.883
9409.006
9411.041
9412.982
9414.822
9416.558
9418.185
9419.658
9421.001
9422.207
9423.267
9424.174
9424.923
9425.527
9425.91
9426.12
9426.144
9425.968
9425.599
9425.02
9424.255
9423.277
9422.084
9420.677
9419.055
9417.211
9415.132
9412.797
9410.18
9407.261
9404.041
9400.525
9396.718
9392.616
9388.218
9383.52
9378.522
9373.222
9367.621
9361.716
9355.507
9348.993
9342.175
9335.053
9327.627
9319.899
9311.87
9303.542
9294.916
9285.995
9276.782
9267.281
9257.498
9247.44
9237.121
9226.557
9215.774
9204.807
9193.707
9182.532
9171.355
9160.24
9149.23
9138.31
9127.404
9116.424
9105.31
9094.04
9082.606
9071.002
9059.227
9047.279
9035.164
9022.886
9010.446
8997.849
8985.102
8972.206
8959.167
8945.988
8932.669
8919.215
8905.625
8891.901
8878.043
8864.052
8849.927
8835.666
8821.268
8806.732
8792.054
8777.23
8762.256
8747.127
8731.838
8716.383
8700.752
8684.92
8668.888
8652.69
8636.354
8619.877
8603.241
8586.43
8569.437
8552.263
8534.907
8517.365
8499.635
8481.712
8463.593
8445.277
8426.761
8408.044
8389.127
8370.008
8350.69
8331.172
8311.457
8291.546
8271.443
8251.151
8230.674
8210.017
8189.183
8168.179
8147.012
8125.686
8104.21
8082.589
8060.832
8038.947
8016.945
7994.831
7972.616
7950.31
7927.92
7905.455
7882.922
7860.326
7837.673
7814.969
7792.225
7769.453
7746.675
7723.911
7701.176
7678.486
7655.852
7633.284
7610.796
7588.397
7566.103
7543.931
7521.897
7500.014
7478.296
7456.754
7435.397
7414.235
7393.276
7372.528
7351.998
7331.695
7311.626
7291.798
7272.219
7252.895
7233.832
7215.038
7196.517
7178.274
7160.316
7142.646
7125.268
7108.186
7091.403
7074.922
7058.746
7042.877
7027.316
7012.065
6997.125
6982.496
6968.18
6954.176
6940.483
6927.102
6914.032
6901.272
6888.821
6876.677
6864.84
6853.307
6842.075
6831.144
6820.511
6810.174
6800.13
6790.376
6780.911
6771.732
6762.835
6754.217
6745.876
6737.809
6730.012
6722.484
6715.221
6708.22
6701.478
6694.992
6688.758
6682.775
6677.04
6671.55
6666.301
6661.292
6656.518
6651.978
6647.668
6643.587
6639.733
6636.106
6632.705
6629.533
6626.597
6623.904
6621.472
6619.32
6617.476
6615.97
6614.828
6614.054
6613.6
7650.791
7612.414
7566.786
7528.349
7498.819
7477.116
7460.496
7447.434
7436.647
7427.119
7418.468
7411.644
7405.797
7401.176
7398.155
7397.1
7398.348
7402.265
7409.277
7420.191
7434.155
7453.691
7477.979
7507.115
7541.147
7579.97
7623.643
7672.101
7725.229
7781.575
7840.548
7900.796
7962.921
8025.341
8086.703
8146.201
8203.383
8257.504
8306.833
8349.483
8384.283
8410.815
8429.124
8439.488
8442.392
8438.465
8428.491
8413.281
8393.66
8370.447
8344.445
8316.431
8287.179
8257.358
8227.646
8198.462
8170.335
8143.654
8118.678
8095.723
8074.822
8055.921
8039.172
8024.88
8013.253
8004.311
7998.011
7994.334
7993.283
7994.847
7999.003
8005.704
8014.847
8026.337
8039.999
8055.759
8073.47
8092.953
8114.037
8136.565
8160.403
8185.341
8211.13
8237.601
8264.613
8292.021
8319.684
8347.483
8375.331
8403.158
8430.901
8458.496
8485.893
8513.038
8539.936
8566.518
8592.719
8618.579
8644.148
8669.411
8694.348
8718.93
8743.098
8766.834
8790.12
8813.017
8835.4
8857.269
8878.608
8899.412
8919.654
8939.309
8958.363
8976.802
8994.618
9011.816
9028.41
9044.412
9059.832
9074.676
9088.952
9102.669
9115.843
9128.49
9140.626
9152.274
9163.453
9174.187
9184.496
9194.397
9203.906
9213.039
9221.815
9230.25
9238.365
9246.18
9253.713
9260.979
9267.997
9274.778
9281.335
9287.677
9293.813
9299.754
9305.511
9311.09
9316.491
9321.701
9326.694
9331.43
9335.852
9339.892
9343.484
9346.578
9349.186
9351.353
9353.097
9354.415
9355.335
9355.924
9356.262
9356.407
9356.4
9356.271
9356.053
9355.779
9355.481
9355.193
9354.947
9354.772
9354.688
9354.697
9354.77
9354.836
9354.792
9354.512
9353.85
9352.691
9351.002
9348.874
9346.473
9344.022
9341.784
9339.872
9338.255
9336.852
9335.603
9334.479
9333.465
9332.538
9331.681
9330.895
9330.16
9329.459
9328.798
9328.184
9327.613
9327.087
9326.607
9326.174
9325.787
9325.448
9325.158
9324.919
9324.734
9324.605
9324.536
9324.528
9324.586
9324.714
9324.913
9325.189
9325.545
9325.982
9326.505
9327.116
9327.817
9328.61
9329.498
9330.481
9331.56
9332.738
9334.014
9335.39
9336.867
9338.447
9340.131
9341.92
9343.813
9345.806
9347.888
9350.05
9352.277
9354.559
9356.892
9359.272
9361.701
9364.175
9366.688
9369.235
9371.812
9374.411
9377.027
9379.654
9382.284
9384.911
9387.526
9390.123
9392.695
9395.232
9397.728
9400.175
9402.566
9404.891
9407.144
9409.318
9411.404
9413.395
9415.285
9417.066
9418.731
9420.263
9421.66
9422.917
9424.027
9424.985
9425.783
9426.42
9426.873
9427.144
9427.227
9427.12
9426.796
9426.236
9425.562
9424.64
9423.495
9422.129
9420.539
9418.715
9416.649
9414.325
9411.724
9408.833
9405.647
9402.167
9398.392
9394.321
9389.952
9385.281
9380.309
9375.032
9369.45
9363.563
9357.37
9350.87
9344.064
9336.954
9329.539
9321.822
9313.805
9305.49
9296.881
9287.981
9278.796
9269.331
9259.594
9249.596
9239.351
9228.879
9218.203
9207.355
9196.376
9185.31
9174.205
9163.101
9152.021
9140.957
9129.871
9118.711
9107.435
9096.021
9084.458
9072.741
9060.865
9048.832
9036.641
9024.296
9011.798
8999.152
8986.361
8973.429
8960.357
8947.15
8933.808
8920.333
8906.727
8892.99
8879.122
8865.123
8850.991
8836.726
8822.326
8807.788
8793.109
8778.286
8763.314
8748.187
8732.902
8717.45
8701.825
8686.023
8670.044
8653.895
8637.586
8621.118
8604.484
8587.675
8570.686
8553.513
8536.156
8518.609
8500.871
8482.937
8464.806
8446.474
8427.94
8409.202
8390.26
8371.115
8351.766
8332.214
8312.462
8292.511
8272.364
8252.024
8231.496
8210.783
8189.89
8168.824
8147.59
8126.195
8104.645
8082.948
8061.113
8039.148
8017.065
7994.869
7972.57
7950.176
7927.697
7905.14
7882.514
7859.826
7837.084
7814.297
7791.477
7768.636
7745.791
7722.961
7700.159
7677.402
7654.701
7632.069
7609.519
7587.064
7564.717
7542.492
7520.406
7498.471
7476.701
7455.106
7433.697
7412.484
7391.476
7370.68
7350.106
7329.761
7309.653
7289.788
7270.176
7250.821
7231.731
7212.911
7194.368
7176.106
7158.131
7140.447
7123.057
7105.966
7089.176
7072.691
7056.513
7040.643
7025.084
7009.836
6994.901
6980.28
6965.972
6951.977
6938.296
6924.928
6911.873
6899.128
6886.694
6874.569
6862.75
6851.237
6840.026
6829.115
6818.503
6808.187
6798.165
6788.433
6778.99
6769.832
6760.957
6752.361
6744.042
6735.996
6728.222
6720.715
6713.474
6706.495
6699.774
6693.31
6687.099
6681.139
6675.427
6669.96
6664.737
6659.753
6655.008
6650.498
6646.223
6642.18
6638.369
6634.791
6631.447
6628.34
6625.476
6622.864
6620.517
6618.451
6616.685
6615.238
6614.124
6613.349
6612.875
7617.357
7583.864
7536.254
7508.746
7486.562
7469.355
7455.797
7444.653
7435.008
7426.643
7418.948
7411.931
7405.625
7400.296
7396.378
7394.225
7394.203
7396.855
7402.813
7412.709
7426.278
7444.494
7467.363
7495.38
7528.856
7567.313
7610.463
7658.713
7711.952
7768.857
7828.153
7888.615
7949.683
8010.492
8069.776
8126.502
8179.886
8229.183
8273.267
8310.879
8341.069
8363.469
8378.171
8385.548
8386.167
8380.683
8369.896
8354.53
8335.262
8312.862
8288.06
8261.541
8233.964
8205.957
8178.042
8150.691
8124.381
8099.412
8076.011
8054.451
8034.892
8017.385
8002.028
7988.991
7978.432
7970.43
7965.011
7962.192
7961.989
7964.41
7969.422
7976.959
7987.048
7999.598
8014.45
8031.525
8050.703
8071.772
8094.511
8118.707
8144.128
8170.619
8198.041
8226.185
8254.852
8283.873
8313.097
8342.396
8371.662
8400.809
8429.764
8458.464
8486.861
8514.912
8542.592
8569.868
8596.709
8623.127
8649.148
8674.778