/*--------------------------------*- C++ -*----------------------------------*\
| =========                 |                                                 |
| \\      /  F ield         | foam-extend: Open Source CFD                    |
|  \\    /   O peration     | Version:     3.1                                |
|   \\  /    A nd           | Web:         http://www.extend-project.de       |
|    \\/     M anipulation  |                                                 |
\*---------------------------------------------------------------------------*/
FoamFile
{
    version     2.0;
    format      ascii;
    class       volScalarField;
    location    "1";
    object      k;
}
// * * * * * * * * * * * * * * * * * * * * * * * * * * * * * * * * * * * * * //

dimensions      [0 2 -2 0 0 0 0];

internalField   nonuniform List<scalar> 
119952
(
0.0157036
0.01257112
0.01276699
0.01407309
0.01486338
0.01481887
0.01493057
0.01505174
0.0151416
0.01519313
0.01521031
0.01519908
0.01516527
0.01511388
0.015049
0.0149742
0.01489329
0.01481188
0.01474478
0.01477224
0.01661001
0.01612961
0.01611384
0.01804739
0.01750474
0.01723307
0.01697261
0.01670799
0.01593417
0.01824487
0.01647026
0.01347114
0.01384933
0.01514851
0.01653413
0.01776637
0.01883229
0.01976876
0.02061383
0.02156403
0.02469241
0.02861392
0.03214092
0.03513334
0.03762013
0.03970918
0.04150703
0.04309839
0.04452808
0.05291989
0.05407654
0.05537034
0.05678729
0.05825384
0.0596969
0.06107079
0.06235707
0.06355296
0.0646346
0.0655442
0.06641597
0.06733825
0.06833416
0.06938279
0.07045044
0.07151132
0.07256222
0.07365383
0.07423201
0.07433826
0.07461311
0.07499962
0.07536086
0.07562097
0.07583766
0.07603683
0.07621734
0.07637354
0.07650965
0.07662977
0.07673151
0.07681559
0.07688461
0.07694186
0.0769927
0.07704811
0.07713396
0.07729153
0.07752809
0.0777774
0.07811391
0.07862362
0.07902199
0.07915411
0.07908981
0.07875043
0.07783226
0.07654127
0.07592962
0.07542585
0.07495119
0.07451182
0.07411788
0.0737714
0.0734692
0.07320566
0.07297449
0.07276965
0.07258574
0.07241811
0.07226285
0.07211676
0.07197726
0.07184227
0.07171004
0.07157907
0.07144797
0.07131547
0.07118036
0.07104166
0.07089871
0.07075146
0.07060056
0.07044692
0.07029149
0.07013622
0.06998341
0.06983479
0.06969109
0.06955223
0.06941746
0.06928575
0.06915599
0.06902726
0.06889887
0.0687705
0.06864204
0.06851362
0.06838544
0.06825777
0.06813084
0.0680049
0.06788012
0.06775684
0.06763572
0.06751935
0.06742023
0.06736086
0.06718069
0.06685537
0.06644616
0.06600485
0.0655645
0.06514253
0.06474673
0.0643793
0.06403943
0.0637249
0.06343284
0.06316045
0.06290536
0.06266502
0.06243641
0.06221742
0.06200654
0.06180245
0.06160389
0.0614098
0.06121923
0.06103144
0.06084578
0.06066175
0.06047892
0.06029696
0.06011558
0.05993453
0.05975352
0.05957237
0.05939106
0.0592098
0.05902912
0.0588497
0.05867219
0.05849713
0.05832475
0.05815564
0.0579906
0.05782852
0.05766932
0.05751258
0.05735788
0.05720487
0.05705316
0.05690253
0.05675321
0.0566076
0.05647881
0.0529432
0.04886312
0.04724095
0.04611925
0.04519892
0.04442216
0.04376224
0.04319643
0.04270471
0.04227016
0.04188164
0.04152847
0.0412011
0.04089419
0.04060371
0.04032631
0.04005934
0.03980065
0.03954857
0.03930182
0.03905939
0.03882052
0.03858464
0.03835132
0.03812027
0.03789123
0.03766419
0.03743908
0.03721602
0.03699524
0.03677738
0.03656375
0.03635809
0.03616429
0.0360068
0.03603948
0.03650543
0.03699637
0.03744558
0.03784793
0.03821019
0.03854023
0.03884579
0.03913273
0.03940536
0.03966654
0.03991841
0.04016238
0.0403996
0.04063099
0.04085721
0.04107888
0.04129649
0.04151046
0.04172118
0.04192897
0.04213412
0.04233689
0.04253753
0.04273624
0.04293328
0.04312872
0.04332275
0.04351525
0.0437062
0.04389541
0.04408258
0.04426734
0.04445004
0.04463038
0.05185328
0.0519768
0.05217668
0.05255014
0.05309657
0.05376415
0.05448538
0.05520717
0.05589414
0.05652824
0.05710306
0.05761976
0.05808309
0.05849931
0.05887501
0.05921648
0.05952942
0.05981881
0.0600889
0.0603432
0.06058459
0.0608154
0.06103753
0.06125252
0.06146162
0.06166581
0.06186582
0.06206218
0.06225523
0.0624452
0.06263217
0.06281617
0.06299714
0.06317497
0.06334949
0.06352047
0.06368764
0.06385069
0.06400932
0.06416319
0.06431196
0.0644551
0.06459175
0.06472057
0.06483773
0.06493544
0.06500908
0.06507358
0.06513411
0.06519311
0.06525166
0.06531016
0.0653691
0.06542941
0.06538868
0.06529103
0.06524981
0.0653174
0.06550686
0.06579942
0.06616005
0.06655195
0.06694595
0.06732317
0.06767371
0.06799392
0.06828404
0.06854639
0.06878414
0.06900072
0.06919939
0.0693831
0.06955443
0.06971561
0.06986853
0.07001483
0.07015591
0.07029293
0.07042688
0.0705585
0.07068834
0.07081679
0.07094406
0.07107023
0.0711953
0.07131915
0.07144158
0.0715623
0.07168093
0.07179706
0.07191022
0.07202
0.07212606
0.07222818
0.07232624
0.07242027
0.07251042
0.07259693
0.07268011
0.07276029
0.07283784
0.07291312
0.07298648
0.07305825
0.0731287
0.07319808
0.07326663
0.07333452
0.07340193
0.07346899
0.07353581
0.07360251
0.07366917
0.07373588
0.07380272
0.07386976
0.0739371
0.07400482
0.07407302
0.07414182
0.07421135
0.07428177
0.07435328
0.07442612
0.07450058
0.07457703
0.07465597
0.07473805
0.07482415
0.07491555
0.07501411
0.07512274
0.07524622
0.075393
0.07557929
0.07584008
0.07625695
0.0770215
0.07762543
0.01368502
0.01307164
0.01430522
0.01583437
0.01720006
0.01835525
0.01935251
0.02024069
0.02108275
0.02300635
0.02743164
0.03147513
0.03487691
0.03764399
0.03991236
0.04182482
0.04349209
0.04499045
0.05370897
0.05486626
0.05616974
0.05762764
0.05916199
0.06068249
0.06213052
0.06348135
0.06473187
0.06588566
0.06686606
0.06774901
0.06867346
0.06968672
0.07077099
0.07188382
0.07298597
0.07405212
0.0750697
0.07579372
0.07635334
0.07701458
0.07777162
0.07861244
0.07951189
0.08044074
0.08137375
0.08229264
0.08318212
0.08401117
0.08478258
0.08553067
0.08628883
0.08707328
0.08788329
0.08870808
0.08953285
0.09032602
0.09814866
0.09890164
0.0995753
0.1002058
0.1008155
0.1014122
0.1019916
0.1025658
0.1031387
0.1037053
0.1042574
0.1047919
0.1053125
0.1058267
0.1063416
0.1068622
0.10739
0.1079212
0.1084398
0.1088829
0.1092433
0.1095572
0.1098176
0.1100136
0.1101532
0.1102561
0.110338
0.1104101
0.1104786
0.1105467
0.1106155
0.1106853
0.1107556
0.110827
0.1109028
0.1109869
0.1110817
0.1111931
0.1113266
0.1114803
0.1116515
0.1118473
0.1120479
0.112194
0.1122513
0.1122037
0.1120291
0.1117473
0.1114986
0.1113044
0.1111303
0.1109575
0.1107774
0.1105893
0.1103962
0.1102022
0.1100112
0.1098262
0.1096493
0.1094817
0.1093235
0.1091746
0.1090341
0.1089009
0.1087738
0.1086515
0.1085324
0.1084153
0.1082988
0.1081816
0.1080628
0.107942
0.1078191
0.1076945
0.1075691
0.1074439
0.1073206
0.1072004
0.1070846
0.1069736
0.1068677
0.1067666
0.1066696
0.1065761
0.1064852
0.1063964
0.1063091
0.1062232
0.1061385
0.1060549
0.1059725
0.1058915
0.1058119
0.1057341
0.1056582
0.1055849
0.1055157
0.1054528
0.1054028
0.1053638
0.1053216
0.1052655
0.1051904
0.1050958
0.104984
0.1048581
0.1047219
0.1045784
0.1044302
0.1042796
0.104128
0.1039767
0.1038262
0.1036769
0.103529
0.1033826
0.1032376
0.1030939
0.1029513
0.1028095
0.1026685
0.1025279
0.1023876
0.1022476
0.1021077
0.1019679
0.1018282
0.1016888
0.1015498
0.1014115
0.1012743
0.1011381
0.1010038
0.1008722
0.1007441
0.1006203
0.1005011
0.1003868
0.1002774
0.1001728
0.1000727
0.09997677
0.09988452
0.09979562
0.09970981
0.099627
0.09954677
0.09946666
0.0949716
0.09294708
0.09233796
0.09204332
0.09180354
0.09156119
0.0913086
0.09104973
0.09079009
0.09053418
0.09028503
0.09004421
0.08981223
0.089589
0.08937405
0.08916671
0.08896623
0.08877183
0.0885828
0.08839852
0.08821847
0.08804224
0.08786952
0.08770011
0.0875339
0.08737088
0.08721118
0.08705504
0.0869029
0.0867555
0.08661412
0.08648103
0.08636038
0.08626046
0.08619864
0.08620149
0.08626287
0.08636287
0.08648931
0.08663445
0.08679263
0.08695931
0.08713086
0.08730449
0.08747812
0.08765028
0.08781992
0.0879864
0.08814932
0.0883085
0.0884639
0.08861558
0.08876367
0.08890834
0.08904978
0.08918821
0.08932387
0.08945698
0.08958774
0.08971635
0.08984298
0.08996774
0.09009065
0.09021166
0.09033058
0.09044709
0.09056076
0.09067106
0.09077683
0.09086402
0.09782395
0.09806432
0.09821743
0.09832023
0.09840232
0.09848553
0.09858361
0.09870343
0.09884612
0.09900941
0.0991892
0.09938075
0.09957959
0.09978186
0.09998449
0.1001852
0.1003824
0.100575
0.1007624
0.1009444
0.101123
0.101299
0.1014728
0.1016444
0.1018142
0.1019821
0.1021482
0.1023126
0.1024751
0.1026355
0.1027937
0.1029492
0.1031017
0.1032508
0.1033961
0.103537
0.1036731
0.1038039
0.103929
0.104048
0.1041606
0.1042662
0.1043644
0.1044545
0.1045353
0.1046056
0.1046664
0.10472
0.1047681
0.104812
0.1048524
0.10489
0.1049249
0.1049549
0.1049744
0.1049815
0.1049783
0.1049707
0.1049668
0.1049748
0.1050002
0.1050459
0.1051116
0.1051952
0.1052933
0.1054024
0.1055193
0.105641
0.1057654
0.1058908
0.1060162
0.1061409
0.1062644
0.1063867
0.1065079
0.106628
0.1067474
0.1068663
0.106985
0.1071036
0.1072222
0.1073408
0.1074593
0.1075775
0.1076951
0.1078117
0.1079269
0.10804
0.1081507
0.1082581
0.1083619
0.1084615
0.1085564
0.1086466
0.1087317
0.1088119
0.1088873
0.1089582
0.1090248
0.1090877
0.1091472
0.1092038
0.1092579
0.1093099
0.1093602
0.1094091
0.1094569
0.1095039
0.1095503
0.1095961
0.1096418
0.1096872
0.1097327
0.1097782
0.1098239
0.1098698
0.1099162
0.1099631
0.1100105
0.1100587
0.1101079
0.1101581
0.1102096
0.1102628
0.1103179
0.1103754
0.1104358
0.1104999
0.1105687
0.1106435
0.1107263
0.1108199
0.1109287
0.1110591
0.1112212
0.1114299
0.111703
0.1120363
0.1123133
0.01665749
0.01359846
0.0148823
0.01663329
0.01804095
0.01911554
0.01998192
0.02072481
0.02139586
0.02224298
0.0261938
0.03072001
0.03447624
0.03743848
0.03977608
0.04168591
0.04331709
0.04476712
0.04607582
0.05474766
0.05594927
0.05735103
0.05889274
0.06045796
0.06196206
0.06336745
0.06466816
0.0658726
0.06695676
0.06788005
0.06882631
0.0698847
0.07104828
0.07226245
0.07347182
0.07463987
0.0757489
0.07679027
0.07730128
0.0779563
0.07873241
0.07961443
0.08057083
0.0815632
0.08255885
0.08353571
0.08448005
0.08536991
0.08618592
0.08696498
0.08775168
0.0885707
0.08942242
0.09029263
0.09116206
0.09199927
0.09999399
0.1007804
0.1014642
0.1020822
0.1026659
0.1032445
0.1038288
0.1044207
0.1050167
0.1056108
0.1061923
0.1067551
0.1073018
0.1078412
0.1083828
0.1089328
0.1094933
0.1100624
0.1106351
0.1112005
0.1117485
0.1122764
0.1127888
0.1132942
0.1138004
0.1143122
0.1148313
0.1153569
0.1158853
0.1164109
0.116929
0.1174381
0.1179406
0.1184404
0.1189418
0.1194477
0.119962
0.1205018
0.1208704
0.1212911
0.1217341
0.1221864
0.1226439
0.1231067
0.1235767
0.1240533
0.1245345
0.1250178
0.1254995
0.1259769
0.1264484
0.1269143
0.1273755
0.1278332
0.1282872
0.1287342
0.1291646
0.1295572
0.1299073
0.1302217
0.1304958
0.1307227
0.1309039
0.1310478
0.1311641
0.1312614
0.1313466
0.1314249
0.1314997
0.1315737
0.1316484
0.1317254
0.1318065
0.1318939
0.13199
0.1320974
0.132218
0.1323504
0.1324921
0.1326399
0.1327809
0.1328892
0.1329398
0.1329034
0.1327867
0.1326108
0.1324453
0.1323102
0.1321913
0.1320753
0.1319541
0.1318241
0.1316846
0.1315372
0.1313844
0.1312291
0.131074
0.1309211
0.130772
0.1306275
0.1304881
0.1303535
0.1302233
0.1300966
0.1299725
0.1298499
0.1297276
0.1296046
0.1294802
0.1293538
0.1292257
0.1290962
0.1289661
0.1288366
0.1287093
0.1285852
0.1284657
0.1283513
0.1282422
0.1281384
0.1280393
0.1279442
0.1278525
0.1277634
0.1276765
0.1275914
0.1275077
0.1274255
0.1273448
0.1272655
0.1271878
0.1271119
0.127038
0.1269665
0.126898
0.1268331
0.1267736
0.1267205
0.1266712
0.1266216
0.1265675
0.1265062
0.1264358
0.1263559
0.1262666
0.1261687
0.1260631
0.1259511
0.1258338
0.125712
0.1255867
0.1254584
0.1253279
0.1251953
0.1250611
0.1249254
0.1247885
0.1246502
0.1245108
0.1243703
0.1242286
0.124086
0.1239423
0.1237979
0.1236529
0.1235075
0.1233622
0.1232175
0.1230741
0.1229329
0.1227946
0.1226602
0.1225305
0.1224062
0.1222876
0.122175
0.1220686
0.121968
0.121873
0.1217832
0.1216981
0.1216173
0.1215403
0.1214662
0.121392
0.1213024
0.1211223
0.1211249
0.121143
0.1211434
0.1211216
0.1210781
0.1210148
0.120934
0.120838
0.1207293
0.1206105
0.1204834
0.1203501
0.1202119
0.1200702
0.1199259
0.1197797
0.1196323
0.1194841
0.1193356
0.1191871
0.1190388
0.1188911
0.1187444
0.1185989
0.1184552
0.1183137
0.1181751
0.1180402
0.1179102
0.1177868
0.1176725
0.1175712
0.1174885
0.117432
0.1174069
0.1174086
0.1174329
0.1174761
0.1175352
0.117608
0.1176924
0.1177865
0.1178886
0.1179971
0.1181103
0.1182271
0.1183461
0.1184666
0.1185876
0.1187086
0.1188291
0.1189487
0.1190672
0.1191843
0.1193002
0.1194146
0.1195275
0.119639
0.119749
0.1198576
0.1199646
0.1200699
0.1201734
0.1202748
0.1203737
0.1204697
0.120563
0.1206564
0.1207697
0.1207178
0.1207169
0.120738
0.1207669
0.1207981
0.1208319
0.1208707
0.1209177
0.1209757
0.1210461
0.1211298
0.1212264
0.1213353
0.1214551
0.1215845
0.1217221
0.1218666
0.1220167
0.1221714
0.1223298
0.1224908
0.122654
0.1228187
0.1229846
0.1231513
0.1233186
0.1234861
0.1236535
0.1238204
0.1239863
0.1241508
0.1243132
0.1244731
0.1246298
0.1247825
0.1249308
0.125074
0.1252114
0.1253426
0.125467
0.1255843
0.1256941
0.1257959
0.1258895
0.1259742
0.1260499
0.1261172
0.1261774
0.1262315
0.1262806
0.1263254
0.1263666
0.1264042
0.1264379
0.1264664
0.1264892
0.1265065
0.1265191
0.1265293
0.12654
0.1265546
0.126576
0.1266064
0.1266469
0.1266979
0.1267589
0.1268292
0.1269076
0.1269929
0.127084
0.1271799
0.1272799
0.1273831
0.1274892
0.1275977
0.1277085
0.1278213
0.1279361
0.1280528
0.1281712
0.1282912
0.1284126
0.1285351
0.1286581
0.1287813
0.1289041
0.1290257
0.1291456
0.1292629
0.1293771
0.1294873
0.1295931
0.1296939
0.1297894
0.1298795
0.1299641
0.1300434
0.1301175
0.1301869
0.130252
0.1303132
0.1303711
0.130426
0.1304785
0.130529
0.1305778
0.1306253
0.1306717
0.1307175
0.1307626
0.1308075
0.1308521
0.1308966
0.1309413
0.1309861
0.1310313
0.1310769
0.131123
0.1311698
0.1312175
0.1312662
0.1313162
0.1313677
0.131421
0.1314765
0.1315347
0.1315962
0.1316617
0.1317324
0.1318095
0.131895
0.1319913
0.1321019
0.1322316
0.1323863
0.1325732
0.1327963
0.133042
0.1332464
0.0247039
0.03161681
0.03809162
0.0557748
0.06523911
0.08138921
0.08482181
0.08748065
0.08910245
0.08991809
0.0901351
0.0900466
0.08943901
0.08870869
0.08821972
0.08793622
0.08781606
0.08781452
0.08789906
0.08805109
0.08826068
0.08851535
0.08878128
0.08907613
0.08945019
0.08993251
0.0905185
0.09118251
0.09189339
0.09262164
0.09332007
0.1011494
0.1018441
0.1024534
0.1030347
0.1036192
0.1042196
0.1048378
0.1054703
0.1061112
0.1067501
0.1073762
0.107989
0.1085972
0.1092113
0.1098383
0.1104791
0.1111297
0.111783
0.1124276
0.1130486
0.1136402
0.1142071
0.1147603
0.1153106
0.115865
0.1164262
0.1169936
0.1175639
0.1181312
0.1186894
0.119236
0.1197736
0.1203077
0.1208434
0.1213846
0.1219349
0.1225109
0.1229084
0.1233636
0.1238415
0.1243276
0.1248178
0.1253112
0.1258086
0.1263104
0.1268163
0.1273247
0.1278324
0.1283364
0.1288352
0.1293296
0.1298217
0.1303142
0.130809
0.1313069
0.1318075
0.1323086
0.1328072
0.1332995
0.1337839
0.1342605
0.1347311
0.135198
0.1356633
0.1361281
0.1365927
0.137056
0.1375167
0.1379736
0.1384264
0.1388758
0.139323
0.1397698
0.1402177
0.1406666
0.1410967
0.1415211
0.1419443
0.1423685
0.142797
0.1432354
0.1436935
0.1441628
0.1446371
0.1451134
0.1455896
0.1460641
0.1465356
0.1470031
0.1474659
0.147923
0.1483728
0.1488114
0.1492322
0.1496244
0.1499846
0.1503137
0.1506093
0.1508678
0.1510889
0.1512766
0.1514365
0.1515745
0.1516959
0.1518054
0.1519068
0.1520032
0.1520971
0.1521905
0.1522854
0.1523838
0.1524877
0.1525987
0.1527176
0.1528434
0.1529732
0.1531026
0.1532224
0.1533168
0.1533671
0.1533467
0.1532636
0.1531322
0.1529903
0.1528577
0.1527346
0.1526153
0.1524948
0.1523699
0.1522388
0.1521016
0.1519593
0.1518135
0.1516661
0.1515189
0.1513732
0.15123
0.1510898
0.1509528
0.1508187
0.150687
0.1505568
0.1504271
0.150297
0.1501656
0.1500321
0.1498964
0.1497584
0.1496188
0.1494786
0.149339
0.1492015
0.1490675
0.1489381
0.1488142
0.1486959
0.1485833
0.1484759
0.148373
0.1482739
0.1481779
0.1480844
0.1479929
0.1479032
0.147815
0.1477284
0.1476434
0.1475601
0.1474786
0.1473991
0.1473218
0.147247
0.1471748
0.1471053
0.147039
0.146975
0.146912
0.146848
0.1467813
0.1467102
0.1466337
0.1465512
0.1464622
0.146367
0.1462656
0.1461586
0.1460464
0.1459294
0.145808
0.1456828
0.1455539
0.1454217
0.1452865
0.1451483
0.1450074
0.1448639
0.144718
0.1445697
0.1444193
0.1442669
0.1441129
0.1439574
0.143801
0.1436441
0.1434875
0.1433322
0.1431798
0.1430311
0.1428871
0.1427486
0.1426162
0.1424905
0.1423717
0.1422598
0.1421546
0.142056
0.1419633
0.1418761
0.1417938
0.141716
0.1416417
0.1415694
0.1414945
0.1414097
0.1413452
0.141296
0.1412542
0.1412134
0.1411696
0.1411195
0.1410616
0.1409947
0.1409187
0.1408336
0.1407399
0.1406385
0.1405299
0.1404151
0.1402949
0.1401698
0.1400408
0.1399083
0.1397731
0.1396355
0.1394963
0.139356
0.139215
0.1390741
0.1389339
0.1387952
0.1386587
0.1385258
0.1383976
0.1382762
0.1381641
0.1380647
0.1379824
0.137922
0.1378857
0.1378695
0.1378719
0.1378911
0.1379253
0.1379729
0.1380325
0.1381026
0.1381819
0.138269
0.1383626
0.1384616
0.1385648
0.1386713
0.1387802
0.1388907
0.1390022
0.1391143
0.1392265
0.1393385
0.1394501
0.1395611
0.1396713
0.1397807
0.1398892
0.1399965
0.1401026
0.1402072
0.1403103
0.1404113
0.1405098
0.1406055
0.1406981
0.1407875
0.1408731
0.1409365
0.1409902
0.1410383
0.1410819
0.1411215
0.1411582
0.1411938
0.1412308
0.1412717
0.1413188
0.1413742
0.1414392
0.1415149
0.1416018
0.1416999
0.141809
0.1419288
0.1420585
0.1421975
0.1423451
0.1424989
0.1426573
0.1428196
0.1429852
0.1431535
0.1433242
0.1434967
0.1436705
0.143845
0.1440196
0.1441936
0.1443664
0.144537
0.1447048
0.1448689
0.1450285
0.1451829
0.1453313
0.1454731
0.1456077
0.1457347
0.1458536
0.1459642
0.1460662
0.1461593
0.1462437
0.1463198
0.1463886
0.1464509
0.1465076
0.1465595
0.1466072
0.1466511
0.1466913
0.1467276
0.1467604
0.1467901
0.1468171
0.1468423
0.1468671
0.1468928
0.1469212
0.1469538
0.1469919
0.1470364
0.1470878
0.1471462
0.1472116
0.1472836
0.1473619
0.147446
0.1475353
0.1476296
0.1477285
0.1478316
0.1479387
0.1480496
0.1481642
0.1482822
0.1484035
0.1485276
0.1486544
0.1487832
0.1489135
0.1490448
0.1491762
0.149307
0.1494363
0.1495633
0.1496871
0.1498069
0.1499221
0.150032
0.1501363
0.1502347
0.1503272
0.1504138
0.1504949
0.1505707
0.1506417
0.1507085
0.1507714
0.150831
0.1508879
0.1509425
0.1509952
0.1510464
0.1510964
0.1511455
0.151194
0.1512421
0.1512899
0.1513377
0.1513855
0.1514336
0.1514821
0.151531
0.1515805
0.1516309
0.1516823
0.1517348
0.1517887
0.1518444
0.1519022
0.1519624
0.1520257
0.1520926
0.152164
0.152241
0.1523249
0.1524175
0.1525211
0.1526384
0.1527732
0.1529296
0.1531112
0.1533184
0.1535388
0.1537239
0.0246748
0.03296883
0.04367933
0.07995245
0.08930509
0.1136468
0.1194097
0.1226519
0.1249185
0.126961
0.1283564
0.1284946
0.1290467
0.1294768
0.1296596
0.1295966
0.1367187
0.1360407
0.135214
0.1342504
0.1331351
0.1318852
0.1305669
0.129236
0.1279361
0.1267116
0.1256017
0.1246335
0.1238203
0.1231642
0.1226597
0.1222961
0.122059
0.121931
0.1218974
0.1219501
0.1220848
0.122298
0.1225833
0.1229326
0.1233375
0.123804
0.1241141
0.1245096
0.1249498
0.1254166
0.1259036
0.1264091
0.1269322
0.1274716
0.128025
0.1285883
0.1291566
0.1297262
0.130296
0.1308671
0.131441
0.1320186
0.1325994
0.1331811
0.1337604
0.1343326
0.1348928
0.1354385
0.1359701
0.1364905
0.1370033
0.1375119
0.1380184
0.1385239
0.1390276
0.1395279
0.1400235
0.140514
0.1410004
0.1414843
0.1419682
0.1424539
0.1429417
0.1434109
0.1438774
0.1443479
0.1448301
0.1453253
0.145825
0.1463265
0.146829
0.1473324
0.1478363
0.14834
0.1488427
0.1493438
0.1498433
0.1503415
0.1508392
0.151337
0.1518353
0.152334
0.1528322
0.153329
0.1538227
0.1543121
0.1547964
0.1552755
0.15575
0.1562205
0.1566877
0.1571522
0.157614
0.1580732
0.1585296
0.1589831
0.1594339
0.1598824
0.1603293
0.1607752
0.1612199
0.1616601
0.1620966
0.1625308
0.1629644
0.1633991
0.163837
0.1642791
0.1647237
0.1651691
0.165614
0.1660577
0.1664995
0.1669385
0.167374
0.167805
0.1682301
0.1686473
0.1690535
0.1694443
0.1698138
0.170159
0.1704789
0.1707719
0.1710361
0.171271
0.1714783
0.1716611
0.1718231
0.171968
0.1720994
0.1722205
0.1723341
0.1724427
0.1725485
0.1726532
0.1727587
0.1728664
0.1729772
0.1730917
0.1732087
0.1733261
0.17344
0.1735444
0.1736295
0.1736842
0.1736948
0.1736451
0.1735579
0.1734529
0.1733438
0.173235
0.1731256
0.1730138
0.1728981
0.1727775
0.1726519
0.172522
0.1723887
0.1722534
0.1721173
0.1719817
0.1718472
0.1717144
0.1715835
0.1714543
0.1713264
0.1711989
0.171071
0.1709419
0.1708108
0.170677
0.1705404
0.1704011
0.17026
0.170118
0.1699766
0.1698372
0.1697012
0.1695697
0.1694436
0.1693233
0.1692087
0.1690995
0.1689951
0.1688948
0.1687978
0.1687036
0.1686116
0.1685216
0.1684333
0.1683466
0.1682615
0.1681781
0.1680965
0.1680168
0.1679391
0.1678636
0.1677901
0.1677187
0.1676493
0.1675817
0.1675152
0.167449
0.167382
0.1673131
0.1672416
0.1671665
0.1670873
0.1670035
0.166915
0.1668215
0.1667231
0.1666199
0.166512
0.1663995
0.1662825
0.1661612
0.1660357
0.1659061
0.1657726
0.1656353
0.1654944
0.1653501
0.1652025
0.1650519
0.1648987
0.1647432
0.1645861
0.164428
0.1642696
0.1641119
0.163956
0.163803
0.163654
0.16351
0.1633719
0.1632403
0.1631156
0.162998
0.1628874
0.1627835
0.1626859
0.1625941
0.1625076
0.1624258
0.162348
0.1622731
0.1621997
0.162126
0.162056
0.161991
0.1619303
0.1618721
0.1618142
0.1617547
0.1616917
0.161624
0.1615506
0.1614708
0.1613844
0.1612913
0.1611916
0.1610855
0.1609735
0.1608561
0.1607336
0.1606066
0.1604755
0.1603412
0.1602039
0.1600645
0.1599234
0.1597816
0.1596398
0.1594988
0.1593597
0.1592238
0.1590928
0.1589684
0.1588534
0.1587507
0.1586644
0.1585994
0.1585528
0.1585246
0.1585142
0.1585204
0.1585419
0.1585775
0.1586257
0.1586854
0.1587551
0.1588337
0.1589198
0.1590124
0.1591102
0.1592124
0.1593181
0.1594264
0.1595367
0.1596485
0.1597612
0.1598745
0.159988
0.1601015
0.1602148
0.1603278
0.1604401
0.1605517
0.1606623
0.1607717
0.1608795
0.1609854
0.161089
0.1611896
0.161287
0.1613805
0.1614691
0.1615493
0.1616215
0.1616865
0.1617455
0.1617993
0.1618492
0.1618967
0.1619434
0.1619915
0.1620427
0.162099
0.1621617
0.1622322
0.1623113
0.1623994
0.1624967
0.162603
0.1627179
0.1628407
0.1629708
0.1631075
0.1632501
0.1633981
0.1635511
0.1637085
0.1638697
0.1640343
0.1642015
0.1643708
0.1645415
0.1647126
0.1648834
0.1650529
0.1652203
0.1653846
0.1655449
0.1657002
0.1658498
0.165993
0.166129
0.1662575
0.166378
0.1664902
0.166594
0.1666893
0.1667764
0.1668556
0.1669276
0.1669933
0.1670533
0.1671083
0.167159
0.1672058
0.1672491
0.1672892
0.1673264
0.1673612
0.167394
0.1674254
0.1674559
0.1674864
0.1675177
0.1675508
0.1675867
0.1676261
0.1676698
0.1677184
0.1677721
0.1678312
0.1678958
0.1679659
0.1680414
0.1681223
0.1682085
0.1682999
0.1683964
0.1684978
0.168604
0.1687149
0.1688301
0.1689494
0.1690723
0.1691984
0.1693268
0.169457
0.169588
0.169719
0.1698491
0.1699772
0.1701024
0.1702239
0.1703408
0.1704526
0.1705588
0.1706591
0.1707533
0.1708416
0.1709242
0.1710014
0.1710735
0.1711413
0.171205
0.1712653
0.1713227
0.1713776
0.1714305
0.1714818
0.1715319
0.171581
0.1716294
0.1716774
0.1717251
0.1717728
0.1718205
0.1718684
0.1719167
0.1719655
0.172015
0.1720653
0.1721166
0.1721692
0.1722232
0.172279
0.1723369
0.1723974
0.172461
0.1725282
0.1725999
0.1726771
0.172761
0.1728529
0.1729549
0.1730691
0.173198
0.1733442
0.1735099
0.173694
0.1738865
0.1740492
0.01521015
0.02087406
0.02623569
0.04765917
0.06526355
0.08925018
0.1024707
0.1153248
0.1264367
0.1359996
0.1438129
0.1502193
0.1554629
0.1594378
0.1619936
0.1707907
0.1706957
0.1701306
0.1692623
0.1682395
0.167181
0.1661261
0.1651219
0.1641702
0.1632476
0.1623411
0.1612141
0.1601442
0.1590531
0.1578929
0.1566313
0.1552659
0.1538334
0.1523819
0.1509557
0.1495925
0.1483244
0.1471771
0.1461682
0.1453079
0.1445991
0.1440386
0.1436189
0.1433285
0.1431548
0.1430857
0.1431106
0.1432203
0.1434064
0.1436607
0.1439754
0.1443414
0.1447278
0.1451452
0.1455963
0.1460721
0.1465666
0.1470774
0.1476029
0.1481421
0.1486939
0.1492564
0.1498275
0.1504049
0.1509867
0.1515716
0.1521587
0.152747
0.1533352
0.1539218
0.1545045
0.1550811
0.1556493
0.1562073
0.1567545
0.1572911
0.1578188
0.158339
0.1588535
0.1593634
0.1598696
0.1603723
0.1608714
0.161367
0.1618594
0.1623494
0.1628379
0.1633258
0.1638131
0.1642965
0.1647772
0.165257
0.1657372
0.1662175
0.1666962
0.1671729
0.1676473
0.1681196
0.1685904
0.1690597
0.1695278
0.1699949
0.170461
0.1709264
0.1713912
0.1718555
0.1723196
0.1727831
0.1732458
0.1737071
0.1741662
0.1746225
0.1750752
0.1755238
0.1759683
0.1764087
0.1768453
0.1772784
0.1777083
0.1781352
0.1785593
0.1789808
0.1793998
0.1798167
0.1802317
0.180645
0.1810569
0.1814667
0.1818743
0.1822799
0.1826838
0.1830864
0.1834881
0.1838886
0.1842876
0.1846846
0.1850794
0.1854715
0.185861
0.1862474
0.1866302
0.1870088
0.1873819
0.1877479
0.1881046
0.1884492
0.1887781
0.1890891
0.1893808
0.189652
0.1899015
0.1901288
0.1903346
0.1905206
0.1906889
0.1908419
0.190982
0.1911116
0.191233
0.1913481
0.1914588
0.1915666
0.191673
0.1917789
0.191885
0.1919916
0.1920979
0.1922023
0.192302
0.1923933
0.1924706
0.1925275
0.1925568
0.1925516
0.1925073
0.1924392
0.1923599
0.1922749
0.1921853
0.192091
0.1919917
0.1918872
0.1917779
0.1916644
0.1915477
0.1914288
0.1913088
0.1911885
0.1910687
0.1909497
0.1908316
0.1907143
0.1905972
0.1904797
0.1903612
0.1902409
0.1901181
0.1899925
0.1898638
0.1897323
0.1895986
0.1894637
0.1893288
0.1891955
0.1890653
0.1889392
0.1888181
0.1887025
0.1885924
0.1884876
0.1883874
0.1882913
0.1881986
0.1881088
0.1880215
0.1879363
0.1878529
0.1877711
0.1876909
0.1876123
0.1875353
0.1874601
0.1873868
0.1873152
0.1872455
0.1871774
0.187111
0.187046
0.1869821
0.1869189
0.1868558
0.1867922
0.1867274
0.1866608
0.1865919
0.18652
0.1864448
0.186366
0.1862832
0.1861962
0.186105
0.1860093
0.1859092
0.1858045
0.1856953
0.1855814
0.1854631
0.1853403
0.1852131
0.1850817
0.1849463
0.1848072
0.1846647
0.1845194
0.1843718
0.1842225
0.1840725
0.1839228
0.1837743
0.1836283
0.1834858
0.1833479
0.1832155
0.1830891
0.1829693
0.1828563
0.1827501
0.1826504
0.1825568
0.182469
0.1823864
0.1823084
0.1822344
0.1821638
0.1820956
0.1820291
0.1819643
0.1819015
0.1818405
0.181781
0.181722
0.1816626
0.1816017
0.1815382
0.1814714
0.1814004
0.1813247
0.1812439
0.1811577
0.181066
0.1809688
0.1808662
0.1807585
0.180646
0.1805288
0.1804076
0.180283
0.1801553
0.1800252
0.1798935
0.1797609
0.1796284
0.1794972
0.1793685
0.1792439
0.1791253
0.179015
0.1789159
0.1788316
0.1787639
0.1787112
0.1786742
0.178653
0.1786471
0.1786557
0.1786779
0.1787127
0.1787588
0.1788152
0.1788807
0.1789541
0.1790343
0.1791204
0.1792113
0.1793063
0.1794045
0.1795054
0.1796083
0.1797127
0.1798183
0.1799247
0.1800316
0.1801388
0.1802461
0.1803531
0.1804598
0.1805657
0.1806708
0.1807745
0.1808766
0.1809765
0.1810738
0.181168
0.1812585
0.1813448
0.1814259
0.1815013
0.181571
0.1816353
0.1816947
0.1817499
0.1818021
0.1818524
0.1819022
0.1819529
0.1820059
0.1820625
0.1821238
0.1821907
0.1822639
0.1823437
0.1824304
0.1825241
0.1826248
0.1827321
0.1828461
0.1829663
0.1830925
0.1832243
0.1833614
0.1835033
0.1836496
0.1837996
0.1839526
0.1841081
0.184265
0.1844226
0.1845799
0.1847359
0.1848896
0.18504
0.1851863
0.1853275
0.1854628
0.1855917
0.1857135
0.1858279
0.1859347
0.1860338
0.1861251
0.1862089
0.1862856
0.1863558
0.18642
0.1864788
0.186533
0.186583
0.1866294
0.1866725
0.1867128
0.1867506
0.1867863
0.1868203
0.1868529
0.1868846
0.1869158
0.186947
0.1869787
0.1870117
0.1870464
0.1870836
0.1871237
0.1871673
0.1872148
0.1872665
0.1873228
0.1873838
0.1874497
0.1875207
0.1875969
0.1876784
0.1877653
0.1878574
0.1879547
0.1880569
0.1881639
0.1882751
0.1883901
0.1885082
0.1886286
0.1887505
0.188873
0.1889951
0.1891158
0.1892341
0.1893492
0.1894602
0.1895664
0.1896675
0.189763
0.1898528
0.189937
0.1900157
0.1900891
0.1901578
0.190222
0.1902825
0.1903395
0.1903937
0.1904455
0.1904953
0.1905435
0.1905904
0.1906364
0.1906817
0.1907265
0.1907711
0.1908156
0.1908601
0.1909048
0.1909499
0.1909954
0.1910416
0.1910886
0.1911365
0.1911856
0.1912361
0.1912883
0.1913424
0.191399
0.1914584
0.1915212
0.191588
0.1916598
0.1917374
0.191822
0.191915
0.192018
0.1921327
0.1922607
0.1924031
0.1925589
0.19272
0.1928562
0.00433466
0.02245526
0.03605494
0.04936085
0.06154677
0.07315734
0.08476525
0.09571897
0.1061256
0.1166722
0.1320683
0.1406895
0.1495348
0.1581589
0.1660969
0.1729143
0.1784199
0.1826158
0.1854716
0.1870467
0.1871982
0.1869452
0.1863312
0.1854892
0.1845659
0.1836864
0.182951
0.1823535
0.1818553
0.1814114
0.1809698
0.1804556
0.1798789
0.1792062
0.178407
0.177462
0.176373
0.1751687
0.1738922
0.1725893
0.171303
0.1700709
0.1689239
0.1678862
0.1669744
0.1661984
0.165562
0.1650634
0.1646971
0.1644547
0.1643261
0.1643008
0.1643685
0.164519
0.1647426
0.16503
0.1653711
0.1657523
0.1661654
0.1666042
0.1670629
0.1675374
0.1680252
0.1685246
0.1690349
0.1695552
0.1700848
0.1706224
0.1711668
0.1717164
0.1722696
0.1728249
0.1733806
0.1739351
0.174487
0.1750346
0.1755763
0.1761108
0.1766371
0.1771543
0.1776625
0.1781622
0.1786541
0.1791392
0.1796187
0.1800933
0.1805637
0.1810304
0.1814937
0.1819539
0.1824115
0.1828668
0.1833202
0.1837719
0.184221
0.1846671
0.1851102
0.1855497
0.1859853
0.1864165
0.1868435
0.187266
0.1876849
0.1881006
0.1885137
0.1889249
0.1893345
0.1897429
0.1901504
0.1905572
0.1909634
0.1913689
0.1917736
0.1921773
0.1925795
0.1929799
0.1933781
0.1937734
0.1941656
0.1945544
0.1949396
0.1953213
0.1956998
0.196075
0.1964474
0.196817
0.1971842
0.197549
0.1979118
0.1982725
0.1986315
0.1989887
0.1993441
0.1996975
0.2000488
0.2003978
0.2007445
0.2010886
0.20143
0.2017685
0.2021039
0.2024361
0.2027653
0.2030914
0.2034144
0.2037339
0.2040495
0.2043604
0.2046656
0.2049635
0.2052523
0.20553
0.2057949
0.2060458
0.2062817
0.2065019
0.2067059
0.2068941
0.2070671
0.2072262
0.2073727
0.2075083
0.2076345
0.207753
0.2078651
0.2079722
0.2080755
0.2081759
0.2082744
0.2083712
0.2084666
0.20856
0.2086504
0.2087362
0.2088149
0.2088836
0.2089386
0.2089761
0.2089926
0.2089861
0.2089588
0.2089152
0.208859
0.2087931
0.2087192
0.2086386
0.2085522
0.2084609
0.2083656
0.2082673