/*--------------------------------*- C++ -*----------------------------------*\
| =========                 |                                                 |
| \\      /  F ield         | foam-extend: Open Source CFD                    |
|  \\    /   O peration     | Version:     3.1                                |
|   \\  /    A nd           | Web:         http://www.extend-project.de       |
|    \\/     M anipulation  |                                                 |
\*---------------------------------------------------------------------------*/
FoamFile
{
    version     2.0;
    format      ascii;
    class       volScalarField;
    location    "1";
    object      omega;
}
// * * * * * * * * * * * * * * * * * * * * * * * * * * * * * * * * * * * * * //

dimensions      [0 0 -1 0 0 0 0];

internalField   nonuniform List<scalar> 
119952
(
178.6567
209.2836
201.8053
186.8462
174.6272
177.7635
182.1677
186.8155
191.466
196.0762
200.6711
205.2899
209.9745
214.7649
219.6981
224.8115
230.1482
235.7708
241.8243
249.0209
217.4189
216.5327
218.7198
191.7071
188.8079
187.3399
185.9216
184.4694
179.9619
192.5249
337.0143
259.3705
225.2276
205.9845
191.2092
178.3633
166.8904
156.72
147.7122
137.2856
98.91854
79.1571
69.10905
63.72028
60.46787
58.15303
56.25242
54.55071
52.94907
40.95381
38.022
35.613
33.75117
32.35598
31.30991
30.50544
29.8619
29.32362
28.84309
28.2283
27.44482
26.61966
25.85694
25.20595
24.67091
24.23178
23.85813
23.52339
23.89589
23.95907
23.65006
23.2152
22.79354
22.43111
22.1354
21.91413
21.76454
21.67859
21.64011
21.63498
21.65431
21.69095
21.73909
21.79381
21.85042
21.90264
21.93679
21.93147
21.89993
21.86226
21.79125
21.69285
21.63878
21.6223
21.66642
21.90338
22.87261
24.72567
25.13633
25.22477
25.20446
25.1381
25.05469
24.97163
24.89883
24.84097
24.79938
24.77344
24.76155
24.76176
24.77211
24.7908
24.81625
24.84715
24.88239
24.9211
24.96261
25.0064
25.05212
25.09952
25.14855
25.1988
25.25006
25.30233
25.35618
25.41132
25.4672
25.52368
25.58095
25.63928
25.6989
25.75998
25.82267
25.88702
25.95302
26.02063
26.08979
26.16044
26.23255
26.30607
26.38102
26.45735
26.53511
26.61414
26.69403
26.77237
26.85446
27.47405
28.28869
28.94362
29.42213
29.76302
30.00659
30.18489
30.32073
30.42958
30.52178
30.60412
30.6811
30.75552
30.82866
30.90211
30.97767
31.05537
31.13507
31.21681
31.30062
31.38652
31.47449
31.56446
31.65638
31.75018
31.84585
31.94336
32.04269
32.14389
32.2471
32.35251
32.4603
32.57069
32.68374
32.79947
32.91782
33.03887
33.16358
33.29237
33.4236
33.55892
33.69812
33.84145
33.989
34.14089
34.29728
34.45826
34.62369
34.78649
34.99849
43.20702
51.83166
54.76335
55.89627
56.37951
56.62066
56.78373
56.93809
57.11228
57.31753
57.54994
57.80927
58.09907
58.41309
58.74674
59.09776
59.46454
59.84592
60.24099
60.64897
61.06937
61.50182
61.94611
62.40217
62.87004
63.34972
63.8417
64.3456
64.86164
65.38996
65.9302
66.48067
67.0289
67.5817
68.04085
67.56424
66.34988
65.54938
64.95601
64.45909
64.00262
63.56125
63.12455
62.68905
62.25403
61.82028
61.38941
60.96124
60.53667
60.11629
59.70052
59.28962
58.88379
58.48317
58.08787
57.69793
57.31339
56.93427
56.56055
56.19223
55.82908
55.47121
55.11917
54.77197
54.42968
54.0922
53.75932
53.43087
53.10573
52.77758
43.12971
40.77323
38.61728
36.81199
35.40584
34.37313
33.6473
33.14927
32.80901
32.57266
32.40236
32.27293
32.16808
32.07747
31.99466
31.91567
31.83811
31.76064
31.68252
31.60348
31.52346
31.44258
31.36103
31.27901
31.19673
31.11445
31.0323
30.95041
30.86887
30.78773
30.70702
30.62672
30.54679
30.46716
30.38777
30.30853
30.22937
30.15024
30.0711
29.99194
29.91279
29.83384
29.75544
29.67815
29.60356
29.53563
29.47461
29.4163
29.35991
29.30501
29.25141
29.19893
29.14713
29.09421
28.99452
28.6775
28.19891
27.66353
27.15889
26.7356
26.40922
26.17249
26.0078
25.89595
25.82038
25.76844
25.73121
25.70264
25.67883
25.65734
25.63667
25.61597
25.59477
25.57288
25.55022
25.52684
25.50283
25.4783
25.45335
25.42811
25.40266
25.37707
25.3514
25.32566
25.29986
25.27396
25.24793
25.22171
25.19525
25.16849
25.14136
25.11382
25.08583
25.05739
25.02849
24.99915
24.9694
24.93928
24.90884
24.87815
24.84727
24.81624
24.78512
24.75397
24.72282
24.6917
24.66066
24.62969
24.59883
24.56808
24.53744
24.50694
24.47655
24.44629
24.41616
24.38614
24.35623
24.32643
24.29673
24.26711
24.23756
24.20807
24.17862
24.14917
24.1197
24.09016
24.06049
24.03059
24.00034
23.96953
23.93783
23.90469
23.86907
23.82901
23.78032
23.71286
23.60376
23.41636
23.73602
285.0426
235.7575
213.5756
198.1652
184.7322
172.625
161.8142
152.2319
143.3543
114.4985
85.75906
72.11026
65.41709
61.77035
59.35388
57.41952
55.6863
54.0554
42.70879
39.35006
36.53738
34.37631
32.79473
31.64646
30.79038
30.12161
29.57116
29.09013
28.56689
27.81005
26.94632
26.12176
25.41517
24.84159
24.38222
24.00883
23.69526
23.72594
23.62844
23.22536
22.72158
22.22179
21.77206
21.385
21.05687
20.77791
20.53633
20.30408
20.04167
19.74508
19.43322
19.12906
18.8489
18.60001
18.38308
18.20719
16.451
16.26802
16.09682
15.92755
15.76068
15.60027
15.4506
15.31262
15.18644
15.07086
14.96116
14.85178
14.73975
14.6252
14.51033
14.39803
14.29092
14.19207
14.10908
14.05533
14.01708
13.98081
13.94305
13.90372
13.86246
13.81969
13.77713
13.73692
13.7009
13.67038
13.64602
13.6278
13.61544
13.60823
13.60469
13.60326
13.60275
13.60137
13.59757
13.59136
13.58277
13.57134
13.56113
13.55841
13.56766
13.59919
13.66757
13.79074
13.92757
14.04186
14.13321
14.20336
14.25558
14.29317
14.31916
14.33626
14.34679
14.35269
14.35551
14.35647
14.35646
14.35613
14.35595
14.35618
14.35702
14.35854
14.36079
14.36378
14.36752
14.37201
14.37725
14.3832
14.38979
14.39698
14.40474
14.41297
14.42157
14.43043
14.43951
14.4488
14.45836
14.46825
14.47856
14.48935
14.50065
14.51246
14.52478
14.53755
14.55071
14.56421
14.57799
14.59199
14.60616
14.62042
14.6347
14.64886
14.66285
14.67901
14.70696
14.75032
14.80624
14.8692
14.934
14.99686
15.05545
15.10866
15.15615
15.19811
15.23503
15.2675
15.2961
15.32142
15.34404
15.36448
15.38314
15.40036
15.41641
15.43151
15.44585
15.45958
15.47282
15.48566
15.49819
15.51048
15.52261
15.53464
15.54666
15.55876
15.57101
15.5835
15.5963
15.60952
15.62317
15.63727
15.6518
15.66679
15.68223
15.69814
15.71453
15.7314
15.74876
15.7666
15.7849
15.80362
15.82265
15.84173
15.85988
15.87024
16.83362
17.49284
17.81919
18.03291
18.19791
18.33212
18.44172
18.53057
18.60219
18.65996
18.70688
18.74557
18.77821
18.80648
18.83164
18.85462
18.87609
18.89655
18.91633
18.93567
18.95474
18.97364
18.99243
19.01116
19.02985
19.04852
19.06717
19.0858
19.10436
19.12276
19.14078
19.15788
19.17287
19.18286
19.18056
19.15392
19.11096
19.06045
19.00782
18.95681
18.90941
18.86636
18.8276
18.79264
18.76087
18.73168
18.7045
18.67887
18.65441
18.63083
18.60791
18.58546
18.56337
18.54155
18.51991
18.49843
18.47706
18.45577
18.43455
18.41338
18.39224
18.37114
18.35007
18.32901
18.30798
18.28697
18.26601
18.24512
18.22445
18.2097
16.5787
16.49082
16.41434
16.33313
16.24335
16.14715
16.04891
15.95295
15.86272
15.78037
15.70686
15.64233
15.58629
15.53797
15.49644
15.46077
15.43007
15.40354
15.38051
15.36038
15.34249
15.32639
15.31175
15.29832
15.2859
15.27432
15.26345
15.25317
15.24338
15.23397
15.22485
15.21594
15.20715
15.19839
15.18958
15.18066
15.17157
15.16228
15.15276
15.14301
15.13305
15.12295
15.1128
15.10277
15.09309
15.08396
15.07524
15.0667
15.05826
15.04986
15.0415
15.0332
15.02504
15.01702
15.00753
14.99235
14.96793
14.93299
14.88857
14.83743
14.78299
14.72849
14.6765
14.62871
14.58602
14.54867
14.5165
14.48904
14.46575
14.44602
14.42928
14.41504
14.40283
14.39229
14.38311
14.37503
14.36786
14.36143
14.3556
14.35028
14.34537
14.3408
14.3365
14.3324
14.32844
14.32457
14.32071
14.31682
14.31285
14.30875
14.30449
14.30004
14.29538
14.2905
14.2854
14.28007
14.27454
14.26882
14.26291
14.25686
14.25066
14.24436
14.23797
14.23151
14.22499
14.21843
14.21185
14.20525
14.19863
14.19201
14.18538
14.17875
14.17211
14.16547
14.15882
14.15217
14.14549
14.1388
14.13208
14.12533
14.11853
14.11167
14.10473
14.0977
14.09054
14.08324
14.07572
14.06795
14.05983
14.05123
14.04197
14.03175
14.02012
14.00633
13.98918
13.96697
13.93807
13.90693
13.88995
338.7874
260.4954
233.3682
215.7527
199.6622
184.9582
171.8676
160.4328
150.4632
139.4114
96.73937
76.63958
67.52841
63.09242
60.43632
58.40929
56.61427
54.92972
53.31398
40.81503
37.56498
35.04559
33.22967
31.95518
31.04244
30.35425
29.80197
29.33112
28.88434
28.21321
27.33531
26.44706
25.67724
25.06204
24.58232
24.20225
23.88911
23.61258
23.80142
23.47126
22.95388
22.41563
21.92996
21.51771
21.17458
20.88767
20.64287
20.41964
20.16874
19.86963
19.54222
19.2175
18.91852
18.65544
18.42881
18.24112
16.43085
16.25412
16.08919
15.92311
15.75675
15.59433
15.44042
15.29787
15.16778
15.04948
14.93912
14.82971
14.71668
14.59952
14.48074
14.36389
14.25216
14.14775
14.0525
13.97266
13.9031
13.83392
13.7599
13.6802
13.59657
13.51168
13.42801
13.34742
13.27086
13.19775
13.12604
13.05367
12.97954
12.9038
12.82749
12.75204
12.6788
12.6083
12.59787
12.56647
12.52191
12.46823
12.40809
12.34358
12.27637
12.2086
12.14189
12.07713
12.01432
11.95284
11.89193
11.83118
11.7706
11.71063
11.65207
11.59626
11.54557
11.50292
11.46717
11.43651
11.40994
11.38654
11.36505
11.34445
11.32432
11.30465
11.28574
11.26796
11.25171
11.23728
11.22485
11.21441
11.20575
11.19847
11.19211
11.18608
11.17992
11.17352
11.16688
11.16031
11.15518
11.15372
11.15828
11.17479
11.20552
11.25106
11.30029
11.34699
11.39018
11.42939
11.46423
11.49458
11.52049
11.54222
11.5601
11.57459
11.58616
11.59528
11.60243
11.60803
11.61246
11.61604
11.61903
11.62167
11.62414
11.62659
11.62916
11.63195
11.63505
11.63852
11.64234
11.64652
11.65103
11.6558
11.66077
11.66587
11.67105
11.67631
11.68167
11.6872
11.69294
11.69897
11.70531
11.71199
11.71901
11.72634
11.73396
11.7418
11.74983
11.75799
11.76623
11.77451
11.78276
11.79095
11.79907
11.80764
11.81816
11.83195
11.84963
11.87101
11.89534
11.9216
11.9488
11.9761
12.00282
12.02848
12.0528
12.0756
12.09682
12.11646
12.13462
12.15139
12.16688
12.18124
12.19456
12.20697
12.21856
12.22944
12.2397
12.2494
12.25863
12.26746
12.27595
12.28418
12.29222
12.30015
12.30802
12.31591
12.32385
12.33184
12.33989
12.34802
12.35623
12.36452
12.37291
12.38139
12.38998
12.3987
12.40755
12.41654
12.42566
12.43489
12.44421
12.45354
12.46284
12.47288
12.49469
12.49558
12.50061
12.51425
12.53516
12.56082
12.58891
12.61761
12.64567
12.67225
12.69692
12.71949
12.73995
12.75841
12.77502
12.78996
12.80341
12.81556
12.82655
12.83652
12.8456
12.85388
12.86144
12.86837
12.87472
12.88055
12.88591
12.89084
12.89536
12.89945
12.90304
12.90586
12.90747
12.90704
12.90334
12.89597
12.88606
12.87411
12.8607
12.8464
12.83171
12.81705
12.80273
12.78894
12.77581
12.76337
12.75164
12.74057
12.73011
12.7202
12.71078
12.70178
12.69313
12.6848
12.67675
12.66889
12.6612
12.65367
12.64625
12.63893
12.63167
12.62448
12.61733
12.61021
12.60312
12.59607
12.58908
12.58213
12.57508
12.56628
12.61003
12.63264
12.64096
12.63822
12.62635
12.60697
12.58165
12.55206
12.51982
12.48632
12.45272
12.41991
12.38851
12.35891
12.33131
12.30579
12.28233
12.26082
12.24116
12.22319
12.20683
12.19198
12.17847
12.16619
12.15499
12.14477
12.13541
12.12681
12.11886
12.11147
12.10455
12.09801
12.09177
12.08575
12.07987
12.07408
12.06832
12.06255
12.05675
12.05091
12.04503
12.03914
12.03328
12.02751
12.02192
12.01657
12.01142
12.00641
12.00152
11.9967
11.99194
11.98726
11.98266
11.97814
11.97342
11.96772
11.96006
11.94965
11.93605
11.91929
11.8998
11.87826
11.85549
11.83228
11.80932
11.78715
11.76617
11.74662
11.72862
11.7122
11.69733
11.68392
11.67188
11.66107
11.65138
11.64268
11.63487
11.62783
11.62148
11.61572
11.61047
11.60567
11.60125
11.59714
11.59328
11.58963
11.58612
11.58271
11.57935
11.57602
11.57269
11.56932
11.56591
11.56244
11.5589
11.5553
11.55162
11.54788
11.54407
11.54021
11.5363
11.53235
11.52837
11.52435
11.52032
11.51627
11.5122
11.50813
11.50405
11.49996
11.49587
11.49176
11.48765
11.48353
11.47939
11.47523
11.47105
11.46683
11.46259
11.45829
11.45394
11.44952
11.44502
11.44041
11.43568
11.43079
11.4257
11.42037
11.41471
11.40864
11.40202
11.39467
11.3863
11.37655
11.36492
11.35081
11.33394
11.31556
11.30061
273.7674
211.6591
150.5723
85.17714
67.35261
44.5426
38.1716
34.10229
31.07523
28.6936
26.97159
25.75863
25.21697
24.57406
23.73146
22.94456
22.29199
21.77319
21.36185
21.0298
20.75431
20.51554
20.26812
19.96514
19.62081
19.27464
18.95843
18.68605
18.45753
18.26683
18.12191
16.36645
16.18306
16.00819
15.83452
15.66566
15.50673
15.36099
15.22941
15.11111
15.00282
14.89649
14.78484
14.66603
14.5429
14.42028
14.30259
14.19279
14.09261
14.00524
13.93321
13.86362
13.78816
13.70501
13.61634
13.52571
13.4364
13.35074
13.2699
13.19354
13.11926
13.04412
12.96644
12.88628
12.80501
12.7245
12.64638
12.57098
12.55785
12.52339
12.4756
12.41793
12.35304
12.28385
12.21274
12.14162
12.07201
12.00478
11.94002
11.87693
11.81445
11.75187
11.68907
11.62641
11.56457
11.50432
11.44653
11.39238
11.34192
11.29399
11.24725
11.20068
11.15384
11.10674
11.05969
11.01314
10.96747
10.92284
10.87902
10.83563
10.79224
10.74861
10.70474
10.66082
10.61727
10.57526
10.54104
10.50936
10.47767
10.44464
10.40959
10.37206
10.33177
10.28988
10.24737
10.20487
10.16274
10.12108
10.07987
10.03905
9.998616
9.958692
9.919565
9.881787
9.846251
9.81395
9.784979
9.759196
9.736566
9.716883
9.699605
9.684086
9.669792
9.656357
9.64357
9.63135
9.619705
9.608689
9.598371
9.588787
9.579923
9.571699
9.563982
9.556605
9.549436
9.542485
9.535868
9.529844
9.525054
9.522559
9.523611
9.531187
9.54569
9.566452
9.589673
9.613096
9.63622
9.658885
9.680838
9.701791
9.721479
9.739681
9.75624
9.771075
9.784181
9.795619
9.805506
9.813994
9.82126
9.827488
9.832864
9.83757
9.841777
9.845647
9.849327
9.852947
9.856613
9.860401
9.864349
9.868465
9.872729
9.877099
9.881518
9.885937
9.890321
9.894666
9.898993
9.903346
9.907779
9.912349
9.917105
9.922076
9.927277
9.932702
9.938329
9.944128
9.950061
9.956088
9.962168
9.968262
9.974333
9.980349
9.986306
9.992324
9.998729
10.00593
10.0143
10.02412
10.03543
10.04816
10.06208
10.0769
10.09234
10.10809
10.1239
10.13954
10.15485
10.1697
10.18399
10.19769
10.21075
10.22319
10.23499
10.2462
10.25684
10.26693
10.27653
10.28566
10.29438
10.30272
10.31074
10.31848
10.32601
10.33336
10.34059
10.34774
10.35483
10.36182
10.36872
10.37554
10.38226
10.3889
10.39545
10.40192
10.40832
10.41466
10.42096
10.42723
10.43348
10.43971
10.44592
10.45209
10.45824
10.46458
10.47215
10.47837
10.48437
10.4914
10.50014
10.51075
10.52304
10.53662
10.55103
10.56588
10.58079
10.59549
10.60974
10.62341
10.63638
10.6486
10.66005
10.67072
10.68063
10.68981
10.69827
10.70605
10.71317
10.71967
10.7256
10.73095
10.73578
10.7401
10.74393
10.74728
10.75005
10.7521
10.75322
10.75302
10.75105
10.74738
10.74253
10.73666
10.72991
10.72247
10.71452
10.70622
10.69775
10.68922
10.68071
10.67233
10.66414
10.65616
10.64843
10.64096
10.63373
10.62675
10.62001
10.61349
10.60716
10.60098
10.59497
10.5891
10.58334
10.57769
10.57212
10.56663
10.56122
10.55588
10.55057
10.54534
10.54018
10.53511
10.53022
10.52606
10.52804
10.53179
10.53505
10.53658
10.53567
10.532
10.52548
10.51627
10.50465
10.49103
10.47582
10.45946
10.44235
10.42484
10.40723
10.38977
10.37266
10.35604
10.34002
10.32469
10.31018
10.29655
10.28381
10.27194
10.26088
10.25061
10.24107
10.23219
10.22393
10.21622
10.209
10.20221
10.19578
10.18965
10.18377
10.1781
10.17259
10.16722
10.16195
10.15679
10.15172
10.14676
10.14191
10.13722
10.13271
10.12841
10.12429
10.12035
10.11654
10.11285
10.10927
10.10579
10.1024
10.09911
10.09584
10.09239
10.08847
10.08377
10.07798
10.07093
10.06251
10.05277
10.04187
10.03004
10.01752
10.00461
9.991558
9.978593
9.965905
9.953639
9.9419
9.930758
9.920252
9.910395
9.901183
9.892596
9.884603
9.877169
9.870253
9.863813
9.857807
9.852193
9.846929
9.841974
9.837289
9.832839
9.828587
9.824503
9.82056
9.816735
9.81301
9.809369
9.8058
9.802294
9.798841
9.795435
9.79207
9.788741
9.785442
9.78217
9.77892
9.775689
9.772474
9.769273
9.766082
9.762901
9.759726
9.756555
9.753386
9.750217
9.747045
9.743866
9.740678
9.737478
9.73426
9.731021
9.727755
9.724456
9.721117
9.717728
9.71428
9.71076
9.707154
9.703442
9.699603
9.695609
9.691422
9.687
9.682281
9.677191
9.671628
9.665459
9.658512
9.650568
9.641367
9.63065
9.618328
9.604951
9.593065
348.447
256.6885
212.7712
90.00583
78.12732
46.07113
39.60227
36.63727
33.19497
30.09775
28.05381
26.67384
24.9438
23.49452
22.17251
21.01648
17.97864
17.29293
16.69026
16.1665
15.71516
15.32523
14.99048
14.7126
14.47425
14.25858
14.05967
13.87737
13.71288
13.56674
13.43837
13.32624
13.22784
13.13889
13.05411
12.96985
12.8851
12.80091
12.71911
12.64145
12.56916
12.50277
12.50149
12.47286
12.42672
12.36906
12.30417
12.23544
12.16553
12.09636
12.02909
11.96405
11.90041
11.83677
11.77208
11.70613
11.63949
11.57314
11.50821
11.44575
11.38689
11.33242
11.28117
11.23137
11.18164
11.13137
11.08063
11.02985
10.97961
10.93044
10.88258
10.8358
10.78954
10.74323
10.69651
10.64934
10.60198
10.55491
10.50935
10.47201
10.43704
10.40157
10.3638
10.32332
10.28088
10.23705
10.19244
10.14761
10.10304
10.05902
10.01562
9.972701
9.93009
9.887664
9.845414
9.803446
9.761968
9.721269
9.681708
9.643502
9.606626
9.570879
9.535983
9.501685
9.467817
9.434307
9.401167
9.36845
9.336196
9.304385
9.272932
9.241718
9.21063
9.179587
9.148573
9.117663
9.087161
9.058009
9.030092
9.002975
8.97618
8.949291
8.922007
8.894224
8.86606
8.837688
8.809271
8.780938
8.752778
8.724844
8.697173
8.669811
8.642839
8.6164
8.590739
8.566212
8.5432
8.521857
8.502259
8.484516
8.468654
8.454526
8.441874
8.430413
8.419885
8.410071
8.400809
8.391983
8.383524
8.375394
8.367572
8.360041
8.352779
8.345754
8.338938
8.332326
8.325976
8.32001
8.314623
8.31015
8.307089
8.306025
8.307918
8.314279
8.323801
8.335052
8.347027
8.359394
8.372076
8.384981
8.397971
8.410878
8.423516
8.435701
8.447271
8.458099
8.468099
8.477232
8.485497
8.492929
8.499591
8.505567
8.510956
8.515867
8.520413
8.524707
8.528852
8.532936
8.537023
8.541148
8.545316
8.549505
8.553685
8.557815
8.561855
8.565779
8.569582
8.57328
8.576909
8.580518
8.584158
8.587875
8.591706
8.595672
8.599779
8.604023
8.608384
8.612838
8.617358
8.621912
8.626474
8.631016
8.635516
8.639965
8.644387
8.64886
8.653496
8.658441
8.663841
8.669816
8.676436
8.683724
8.691651
8.700157
8.70915
8.718529
8.728184
8.738009
8.747905
8.757786
8.767581
8.77723
8.786688
8.79592
8.804902
8.813619
8.822064
8.830236
8.838141
8.845791
8.8532
8.860389
8.867383
8.874209
8.880891
8.887455
8.893916
8.900282
8.906553
8.912719
8.918766
8.924681
8.930451
8.93607
8.941537
8.946856
8.952038
8.957097
8.962047
8.966903
8.971676
8.976373
8.981002
8.985575
8.990157
8.994894
8.99959
9.004277
9.009158
9.014474
9.020417
9.027098
9.034552
9.042689
9.051429
9.060644
9.070194
9.079941
9.089757
9.099528
9.109157
9.118562
9.127678
9.136456
9.144866
9.152871
9.160422
9.167513
9.174154
9.180322
9.186012
9.191244
9.196014
9.200314
9.204127
9.207394
9.210027
9.211885
9.212759
9.212336
9.211019
9.208846
9.205887
9.202231
9.197964
9.193176
9.187955
9.182391
9.176576
9.170544
9.164384
9.158155
9.151906
9.145678
9.139503
9.133404
9.127399
9.1215
9.115718
9.110047
9.104488
9.099036
9.093685
9.088429
9.083261
9.078173
9.073162
9.068228
9.063384
9.058597
9.053901
9.049303
9.044827
9.040518
9.036565
9.033713
9.031886
9.030719
9.029774
9.028629
9.026917
9.024346
9.020713
9.015908
9.009898
9.002722
8.994476
8.98529
8.975322
8.964744
8.953728
8.942442
8.931042
8.919669
8.908444
8.897466
8.88681
8.876533
8.866672
8.857252
8.848284
8.839771
8.831703
8.824066
8.816836
8.809989
8.803495
8.797323
8.791442
8.785823
8.780439
8.775269
8.770292
8.765496
8.760872
8.756415
8.752125
8.748007
8.744069
8.740319
8.736759
8.733383
8.730174
8.727114
8.724186
8.721375
8.718671
8.716065
8.713548
8.711098
8.708654
8.706128
8.703407
8.700364
8.696882
8.692861
8.688235
8.682978
8.677104
8.670662
8.663728
8.656396
8.648769
8.640952
8.633042
8.625129
8.617289
8.609586
8.60207
8.594778
8.587735
8.580956
8.574449
8.568215
8.562249
8.556543
8.551088
8.545871
8.540878
8.536095
8.531508
8.527105
8.522873
8.518802
8.514885
8.511113
8.507481
8.503983
8.500613
8.497363
8.494228
8.491198
8.488264
8.485416
8.482644
8.479939
8.477291
8.47469
8.47213
8.469601
8.467098
8.464615
8.462145
8.459685
8.45723
8.454776
8.452319
8.449856
8.447381
8.444891
8.442382
8.439848
8.437284
8.434682
8.432036
8.429337
8.426572
8.42373
8.420796
8.41775
8.414569
8.411225
8.407683
8.403899
8.399817
8.395369
8.390469
8.385012
8.378877
8.37193
8.364054
8.355217
8.345708
8.337062
214.4154
171.7309
207.186
100.3826
78.2965
49.69466
43.30015
37.7109
33.82427
31.57896
29.39609
28.08351
26.67701
25.01225
23.83256
20.78265
19.91981
19.12579
18.34539
17.59652
16.91306
16.28575
15.69361
15.14001
14.62506
14.14736
13.76771
13.39702
13.05374
12.74543
12.47307
12.2334
12.02339
11.84107
11.68267
11.54355
11.41987
11.30906
11.20947
11.12002
11.0398
10.96792
10.90337
10.84481
10.79055
10.73898
10.68894
10.63983
10.59152
10.5442
10.49823
10.45479
10.42065
10.38836
10.3544
10.31786
10.27864
10.2371
10.1938
10.14937
10.10441
10.05931
10.01422
9.969022
9.923521
9.877619
9.831392
9.785089
9.739088
9.693836
9.649821
9.607435
9.566731
9.527467
9.489276
9.451813
9.41485
9.378295
9.342161
9.306525
9.271454
9.236934
9.202855
9.169053
9.135365
9.101682
9.06797
9.034307
9.00102
8.96915
8.938539
8.908706
8.879173
8.849666
8.820077
8.790336
8.760478
8.730575
8.700721
8.67101
8.641493
8.612179
8.583043
8.554058
8.525208
8.496508
8.468007
8.439793
8.411979
8.384669
8.357933
8.331792
8.306223
8.281169
8.256569
8.232366
8.208521
8.185007
8.161807
8.138896
8.116242
8.093801
8.071525
8.049371
8.027309
8.005332
7.983496
7.961961
7.940818
7.920075
7.899677
7.879546
7.859605
7.839807
7.820135
7.80059
7.78118
7.761917
7.742814
7.723888
7.705162
7.686666
7.668454
7.650604
7.633233
7.616496
7.600552
7.585495
7.571395
7.558327
7.546338
7.535407
7.525448
7.516344
7.507967
7.500188
7.492892
7.485979
7.479368
7.472999
7.466826
7.46082
7.454959
7.449231
7.443638
7.4382
7.432974
7.428048
7.423552
7.419669
7.416639
7.414725
7.41426
7.415684
7.419405
7.424624
7.43064
7.437161
7.444109
7.451442
7.459102
7.467002
7.475039
7.48309
7.491034
7.498757
7.506164
7.513184
7.519771
7.525908
7.531601
7.536875
7.541774
7.546353
7.550678
7.554815
7.558827
7.562771
7.566686
7.570598
7.57451
7.57841
7.582263
7.586027
7.589665
7.593153
7.596484
7.599669
7.602735
7.60572
7.608668
7.611619
7.614608
7.617656
7.620774
7.623965
7.627227
7.630549
7.633912
7.637297
7.640683
7.644054
7.647395
7.650696
7.653959
7.657202
7.660457
7.663771
7.667203
7.670816
7.674667
7.678802
7.683251
7.688027
7.693129
7.698538
7.704227
7.71016
7.716295
7.72259
7.729002
7.735492
7.742023
7.748562
7.75508
7.761553
7.767963
7.774293
7.780534
7.786679
7.792726
7.798676
7.804533
7.810303
7.815993
7.821604
7.827137
7.832586
7.837938
7.843177
7.848285
7.853243
7.858037
7.862656
7.867096
7.87136
7.875456
7.879396
7.883195
7.886869
7.890434
7.893903
7.897287
7.900601
7.903867
7.907125
7.91038
7.913649
7.916977
7.920434
7.924101
7.928056
7.932357
7.937034
7.942097
7.947533
7.95331
7.959384
7.9657
7.972199
7.978819
7.985501
7.992185
7.998818
8.005354
8.011766
8.01797
8.023933
8.029647
8.035077
8.040206
8.045013
8.049479
8.053584
8.057295
8.060568
8.063338
8.065511
8.066934
8.067565
8.067584
8.066986
8.065796
8.064052
8.0618
8.05909
8.055974
8.052504
8.048734
8.044711
8.040481
8.03609
8.031579
8.026984
8.022337
8.017664
8.01299
8.008331
8.003705
7.99912
7.994584
7.990101
7.985674
7.981303
7.976989
7.972731
7.968531
7.964393
7.960322
7.956322
7.952406
7.948584
7.944874
7.941298
7.937909
7.934836
7.932149
7.929841
7.927841
7.926028
7.924258
7.922375
7.920232
7.917703
7.914687
7.911119
7.906966
7.902223
7.896916
7.89109
7.884808
7.878143
7.871174
7.863981
7.856642
7.849229
7.841809
7.834441
7.827173
7.820048
7.813098
7.806349
7.799819
7.793517
7.78745
7.781617
7.776017
7.770644
7.765491
7.76055
7.755815
7.751278
7.746934
7.742778
7.738807
7.735019
7.731412
7.727986
7.724739
7.721671
7.718777
7.716047
7.71347
7.71103
7.708713
7.706507
7.7044
7.702382
7.700444
7.698572
7.696745
7.694932
7.693091
7.691174
7.68913
7.686902
7.684442
7.681709
7.678674
7.675324
7.671659
7.667693
7.66345
7.658965
7.654276
7.649425
7.644453
7.6394
7.634304
7.629197
7.624107
7.619059
7.614071
7.609161
7.604339
7.599618
7.595004
7.590505
7.586124
7.581868
7.577739
7.573742
7.569879
7.566155
7.562574
7.559137
7.555847
7.552704
7.549707
7.546853
7.544134
7.541544
7.539073
7.53671
7.534443
7.532261
7.530151
7.528103
7.526106
7.524151
7.522228
7.520332
7.518454
7.51659
7.514734
7.512883
7.511031
7.509175
7.507311
7.505436
7.503545
7.501635
7.499699
7.497734
7.495733
7.493688
7.491591
7.489432
7.487199
7.484879
7.482453
7.479902
7.4772
7.474317
7.471216
7.467854
7.464178
7.460128
7.455639
7.450641
7.445079
7.438943
7.432401
7.426423
94.92321
53.51062
47.78814
42.70309
38.95624
35.54014
32.25871
29.48294
27.40412
25.67278
22.65769
22.34853
22.13252
21.9382
21.66396
21.26035
20.73257
20.07556
19.36868
18.67842
18.03844
17.34118
16.64146
15.95346
15.28915
14.65946
14.06588
13.51039
12.99522
12.52079
12.08741
11.70192
11.35651
11.04857
10.77671
10.53893
10.33216
10.15331
9.999515
9.867792
9.754967
9.657948
9.573969
9.500699
9.436206
9.378945
9.32766
9.281293
9.238878
9.199481
9.162231
9.126391
9.091407
9.056927
9.02278
8.988982
8.955886
8.924646
8.894955
8.866167
8.837683
8.809041
8.77995
8.750274
8.719998
8.68919
8.657952
8.626374
8.594506
8.562377
8.53002
8.497499
8.464927
8.432458
8.400282
8.368611
8.337634
8.307476
8.278173
8.249683
8.221918
8.19477
8.168146
8.141976
8.116219
8.090847
8.065831
8.041128
8.016682
7.992429
7.968313
7.944295
7.920369
7.896605
7.8732
7.850273
7.827854
7.805915
7.784403
7.763259
7.742395
7.721765
7.701329
7.681058
7.660937
7.640957
7.621103
7.601362
7.581721
7.56217
7.542711
7.523357
7.504135
7.485084
7.466244
7.447659
7.429363
7.411374
7.393699
7.376329
7.359249
7.34244
7.325882
7.309554
7.293436
7.277505
7.26174
7.246119
7.23062
7.215226
7.199926
7.184727
7.169657
7.154754
7.14005
7.125567
7.111314
7.097291
7.083493
7.069912
7.056534
7.043347
7.030338
7.017496
7.004818
6.992308
6.979977
6.967852
6.955973
6.944396
6.933192
6.922431
6.912164
6.90243
6.893269
6.884711
6.876758
6.869384
6.862545
6.856184
6.850239
6.844648
6.83935
6.834291
6.829424
6.824712
6.820128
6.815653
6.811276
6.807002
6.802848
6.798849
6.795064
6.791567
6.788457
6.785852
6.783872
6.782647
6.78232
6.783008
6.784645
6.787085
6.79018
6.793806
6.797869
6.802292
6.807004
6.811929
6.816991
6.82211
6.827213
6.832233
6.837115
6.841819
6.846318
6.850603
6.854677
6.858553
6.862258
6.865822
6.86928
6.872665
6.876006
6.879322
6.882621
6.885897
6.889134
6.892307
6.895388
6.89835
6.901177
6.90386
6.906405
6.90883
6.911162
6.913433
6.915676
6.917921
6.920192
6.922508
6.924873
6.927279
6.929719
6.932182
6.934654
6.937125
6.93958
6.94201
6.944409
6.946775
6.949109
6.951422
6.953728
6.956049
6.958413
6.960849
6.963385
6.966046
6.968855
6.971828
6.974973
6.978296
6.981794
6.985459
6.98928
6.993244
6.997336
7.001537
7.005831
7.010202
7.014632
7.019106
7.023612
7.028137
7.03267
7.037204
7.041732
7.046248
7.050747
7.055224
7.059669
7.064074
7.068423
7.072698
7.076879
7.080947
7.08488
7.088664
7.092285
7.09574
7.099027
7.102151
7.105124
7.107956
7.110664
7.113261
7.115762
7.118179
7.120526
7.122816
7.125067
7.127294
7.129511
7.131738
7.134001
7.136334
7.138773
7.141352
7.144105
7.147054
7.150216
7.153599
7.1572
7.161009
7.165008
7.169174
7.173477
7.177887
7.182368
7.18689
7.191422
7.195913
7.200334
7.204658
7.208854
7.212893
7.21675
7.2204
7.223812
7.226956
7.22979
7.23226
7.234274
7.235782
7.236879
7.237541
7.237758
7.237537
7.236894
7.235855
7.234449
7.232708
7.230666
7.228358
7.225818
7.223081
7.220177
7.217136
7.213985
7.210749
7.20745
7.204107
7.200736
7.197352
7.193964
7.190583
7.187216
7.183867
7.180541
7.177242
7.173973
7.170739
7.167543
7.164395
7.161301
7.158271
7.155316
7.152449
7.149682
7.147033
7.144532
7.142206
7.140068
7.138116
7.136326
7.134655
7.133045
7.131432
7.129746
7.127922
7.125901
7.123635
7.12109
7.118244
7.11509
7.111631
7.107882
7.103868
7.099618
7.095167
7.090553
7.085815
7.08099
7.076115
7.071222
7.066342
7.061502
7.056723
7.052025
7.047424
7.042933
7.038562
7.034321
7.030216
7.026254
7.02244
7.018779
7.015273
7.011926
7.008739
7.005713
7.002848
7.000142
6.997593
6.995196
6.992944
6.99083
6.988841
6.986968
6.985198
6.98352
6.981924
6.980401
6.978943
6.977541
6.976183
6.974857
6.973547
6.972233
6.970894
6.969505
6.968042
6.966477
6.96479
6.962959
6.96097
6.958814
6.956487
6.953991
6.951331
6.948519
6.945567
6.94249
6.939304
6.936027
6.932673
6.92926
6.925803
6.922316
6.918813
6.915308
6.911814
6.908345
6.904913
6.901532
6.898213
6.894969
6.891812
6.888754
6.885805
6.882973
6.880266
6.877689
6.875243
6.872928
6.87074
6.868674
6.866722
6.864873
6.863119
6.861446
6.859846
6.858306
6.856816
6.855368
6.853953
6.852564
6.851195
6.84984
6.848494
6.847154
6.845815
6.844475
6.84313
6.841777
6.840413
6.839035
6.837638
6.83622
6.834775
6.833298
6.831783
6.830223
6.82861
6.826933
6.825181
6.82334
6.821394
6.819324
6.817107
6.814716
6.812123
6.809292
6.80619
6.802782
6.79904
6.794962
6.790651
6.786716
121.0827
37.78095
28.48198
25.45438
23.47394
22.11922
21.21769
20.67762
20.43151
20.41971
20.62635
20.90032
21.14507
21.27861
21.22448
20.93321
20.40248
19.72881
18.97622
18.20148
17.43274
16.66318
15.89667
15.14572
14.42346
13.73926
13.09833
12.50347
11.95539
11.45351
10.99677
10.58508
10.21705
9.890339
9.602615
9.351352
9.133693
8.946698
8.787386
8.652683
8.539434
8.444504
8.364909
8.297918
8.241114
8.192431
8.150141
8.112821
8.079303
8.048624
8.019994
7.992781
7.966499
7.940799
7.915464
7.890405
7.865682
7.841537
7.818102
7.795365
7.773206
7.751449
7.72991
7.708424
7.686868
7.665161
7.643262
7.621161
7.598869
7.576411
7.553827
7.531171
7.508515
7.485942
7.463548
7.441431
7.419686
7.398387
7.377582
7.357291
7.337501
7.318182
7.299289
7.280776
7.2626
7.244724
7.227116
7.209744
7.192581
7.175598
7.158771
7.142083
7.125528
7.10912