/*--------------------------------*- C++ -*----------------------------------*\
| =========                 |                                                 |
| \\      /  F ield         | foam-extend: Open Source CFD                    |
|  \\    /   O peration     | Version:     3.1                                |
|   \\  /    A nd           | Web:         http://www.extend-project.de       |
|    \\/     M anipulation  |                                                 |
\*---------------------------------------------------------------------------*/
FoamFile
{
    version     2.0;
    format      ascii;
    class       volScalarField;
    location    "1";
    object      p;
}
// * * * * * * * * * * * * * * * * * * * * * * * * * * * * * * * * * * * * * //

dimensions      [1 -1 -2 0 0 0 0];

internalField   nonuniform List<scalar> 
119952
(
7167.172
7095.723
7080.606
7097.023
7118.171
7112.006
7112.828
7114.204
7116.086
7118.241
7120.548
7122.943
7125.381
7127.829
7130.251
7132.601
7134.801
7136.636
7137.299
7132.565
7165.078
7151.127
7146.47
7185.26
7181.245
7186.559
7190.696
7202.19
7241.099
7321.323
6592.796
6600.928
6610.422
6620.035
6629.641
6639.299
6648.944
6658.582
6668.162
6675.853
6667.591
6674.369
6680.63
6686.809
6693
6699.21
6705.41
6711.578
6717.776
6695.765
6700.734
6706.417
6712.261
6718.182
6724.077
6729.95
6735.8
6741.652
6747.813
6753.083
6758.882
6764.576
6770.247
6775.884
6781.474
6786.985
6792.579
6800.499
6816.352
6812.061
6816.07
6823.879
6830.496
6833.66
6836.336
6839.153
6842.055
6845.025
6848.083
6851.191
6854.318
6857.438
6860.521
6863.534
6866.42
6869.104
6871.565
6873.883
6878.14
6881.632
6883.453
6891.618
6902.181
6906.667
6912.265
6917.944
6919.449
6903.329
6902.908
6906.885
6910.549
6914.03
6917.242
6920.263
6923.133
6925.883
6928.534
6931.1
6933.594
6936.025
6938.397
6940.717
6942.988
6945.214
6947.396
6949.537
6951.639
6953.703
6955.73
6957.723
6959.68
6961.605
6963.495
6965.356
6967.189
6968.987
6970.755
6972.493
6974.201
6975.88
6977.532
6979.157
6980.756
6982.328
6983.875
6985.396
6986.892
6988.361
6989.804
6991.22
6992.609
6993.969
6995.298
6996.591
6997.835
6999.018
7000.296
7001.617
7002.9
7004.178
7005.412
7006.618
7007.788
7008.93
7010.047
7011.14
7012.208
7013.253
7014.275
7015.275
7016.253
7017.209
7018.15
7019.06
7019.949
7020.815
7021.66
7022.482
7023.282
7024.061
7024.817
7025.551
7026.263
7026.952
7027.619
7028.264
7028.887
7029.488
7030.066
7030.623
7031.157
7031.668
7032.156
7032.619
7033.07
7033.477
7033.881
7034.255
7034.606
7034.934
7035.237
7035.513
7035.761
7035.972
7036.126
7036.243
7036.522
7068.245
7067.565
7067.905
7068.153
7068.337
7068.479
7068.587
7068.668
7068.725
7068.754
7068.75
7068.733
7068.715
7068.67
7068.604
7068.517
7068.41
7068.284
7068.138
7067.972
7067.785
7067.576
7067.344
7067.089
7066.808
7066.497
7066.155
7065.773
7065.348
7064.866
7064.307
7063.632
7062.826
7061.623
7059.614
7056.393
7058.288
7059.442
7060.267
7060.804
7061.218
7061.538
7061.788
7061.98
7062.127
7062.237
7062.315
7062.367
7062.397
7062.406
7062.398
7062.376
7062.34
7062.292
7062.234
7062.166
7062.09
7062.006
7061.915
7061.818
7061.715
7061.608
7061.496
7061.381
7061.263
7061.144
7061.025
7060.909
7060.749
7060.639
7034.144
7031.09
7029.738
7029.38
7029.03
7028.759
7028.513
7028.3
7028.099
7027.861
7027.645
7027.427
7027.206
7026.984
7026.76
7026.533
7026.303
7026.071
7025.836
7025.598
7025.358
7025.114
7024.868
7024.619
7024.367
7024.112
7023.855
7023.596
7023.334
7023.071
7022.805
7022.538
7022.27
7022
7021.73
7021.46
7021.191
7020.923
7020.66
7020.402
7020.155
7019.928
7019.735
7019.58
7019.523
7019.45
7018.904
7018.317
7017.793
7017.295
7016.82
7016.36
7015.913
7015.434
7013.955
7014.113
7013.792
7013.3
7012.81
7012.312
7011.82
7011.33
7010.842
7010.353
7009.865
7009.375
7008.883
7008.389
7007.892
7007.392
7006.888
7006.381
7005.87
7005.356
7004.838
7004.316
7003.791
7003.262
7002.729
7002.192
7001.652
7001.108
7000.56
7000.008
6999.453
6998.894
6998.331
6997.764
6997.194
6996.62
6996.042
6995.46
6994.875
6994.286
6993.693
6993.096
6992.496
6991.892
6991.284
6990.672
6990.057
6989.437
6988.814
6988.187
6987.556
6986.921
6986.282
6985.639
6984.992
6984.34
6983.684
6983.023
6982.356
6981.684
6981.005
6980.32
6979.627
6978.926
6978.215
6977.493
6976.759
6976.01
6975.245
6974.459
6973.65
6972.812
6971.939
6971.022
6970.049
6969.004
6967.86
6966.579
6965.097
6963.301
6960.973
6957.764
6953.662
6952.686
6970.219
6148.357
6155.949
6163.212
6170.658
6178.211
6185.863
6193.605
6201.417
6209.037
6199.195
6204.454
6209.5
6214.357
6219.363
6224.5
6229.741
6235.062
6240.439
6217.471
6222.606
6227.537
6232.998
6238.657
6244.392
6250.196
6256.063
6261.993
6268.111
6274.098
6280.014
6286.139
6292.257
6298.413
6304.609
6310.842
6317.115
6323.502
6329.936
6335.61
6342.054
6348.464
6354.817
6361.137
6367.454
6373.778
6380.125
6386.496
6392.778
6399.028
6405.232
6411.428
6417.63
6423.827
6430.015
6436.214
6442.473
6388.357
6394.508
6400.606
6406.589
6412.536
6418.468
6424.379
6430.27
6436.143
6442.006
6447.795
6453.508
6459.2
6464.9
6470.62
6476.388
6482.245
6488.437
6495.229
6502.13
6506.455
6510.723
6516.014
6521.13
6525.208
6528.603
6531.829
6535.045
6538.266
6541.49
6544.713
6547.922
6551.099
6554.267
6557.379
6560.427
6563.453
6566.491
6569.716
6573.4
6577.365
6581.428
6586.903
6593.128
6597.831
6601.44
6603.833
6604.025
6601.685
6601.287
6603.341
6606.171
6609.056
6611.892
6614.674
6617.389
6620.032
6622.605
6625.114
6627.563
6629.956
6632.298
6634.591
6636.839
6639.043
6641.206
6643.329
6645.414
6647.463
6649.477
6651.456
6653.403
6655.318
6657.202
6659.056
6660.88
6662.673
6664.436
6666.168
6667.871
6669.545
6671.192
6672.811
6674.404
6675.971
6677.513
6679.029
6680.52
6681.985
6683.425
6684.838
6686.224
6687.583
6688.913
6690.216
6691.495
6692.764
6694.048
6695.327
6696.538
6697.761
6698.981
6700.176
6701.343
6702.484
6703.6
6704.692
6705.76
6706.804
6707.825
6708.823
6709.797
6710.75
6711.682
6712.592
6713.479
6714.344
6715.187
6716.007
6716.806
6717.582
6718.336
6719.068
6719.778
6720.466
6721.131
6721.775
6722.397
6722.997
6723.575
6724.131
6724.666
6725.178
6725.669
6726.136
6726.579
6727.001
6727.399
6727.775
6728.127
6728.456
6728.761
6729.041
6729.296
6729.524
6729.731
6729.916
6730.163
6791.722
6791.777
6791.952
6792.124
6792.271
6792.394
6792.492
6792.567
6792.619
6792.648
6792.657
6792.648
6792.618
6792.569
6792.499
6792.409
6792.299
6792.169
6792.02
6791.849
6791.658
6791.444
6791.207
6790.945
6790.657
6790.339
6789.988
6789.599
6789.165
6788.674
6788.11
6787.447
6786.649
6785.664
6784.53
6783.633
6783.885
6784.479
6784.984
6785.392
6785.716
6785.971
6786.17
6786.323
6786.438
6786.521
6786.577
6786.611
6786.625
6786.622
6786.603
6786.571
6786.526
6786.471
6786.407
6786.333
6786.251
6786.163
6786.067
6785.966
6785.86
6785.748
6785.633
6785.514
6785.393
6785.27
6785.148
6785.031
6784.932
6784.916
6723.638
6723.469
6722.96
6722.576
6722.336
6722.127
6721.906
6721.678
6721.458
6721.241
6721.021
6720.801
6720.579
6720.356
6720.131
6719.903
6719.674
6719.442
6719.207
6718.971
6718.731
6718.488
6718.243
6717.994
6717.743
6717.489
6717.232
6716.974
6716.712
6716.449
6716.184
6715.917
6715.649
6715.379
6715.109
6714.84
6714.57
6714.303
6714.039
6713.78
6713.528
6713.287
6713.058
6712.84
6712.609
6712.319
6711.911
6711.444
6710.976
6710.518
6710.07
6709.635
6709.224
6708.826
6708.283
6707.704
6707.178
6706.67
6706.171
6705.678
6705.188
6704.698
6704.209
6703.718
6703.225
6702.73
6702.233
6701.733
6701.231
6700.726
6700.218
6699.706
6699.192
6698.673
6698.152
6697.627
6697.098
6696.565
6696.029
6695.488
6694.944
6694.396
6693.845
6693.289
6692.73
6692.167
6691.6
6691.029
6690.455
6689.876
6689.294
6688.708
6688.119
6687.526
6686.93
6686.33
6685.726
6685.119
6684.508
6683.893
6683.275
6682.652
6682.027
6681.397
6680.763
6680.126
6679.484
6678.839
6678.189
6677.534
6676.875
6676.211
6675.541
6674.866
6674.184
6673.496
6672.799
6672.094
6671.379
6670.653
6669.914
6669.16
6668.389
6667.597
6666.782
6665.937
6665.058
6664.135
6663.16
6662.119
6660.995
6659.765
6658.406
6656.898
6655.28
6653.74
6652.963
6653.363
6655.932
5906.437
5900.476
5896.032
5892.428
5889.59
5887.481
5886.031
5885.215
5884.948
5883.458
5866.649
5865.117
5863.648
5862.561
5861.917
5861.674
5861.787
5862.201
5862.904
5835.014
5835.236
5836.459
5838.05
5839.89
5841.927
5844.147
5846.536
5849.091
5852.092
5854.562
5857.571
5860.619
5863.791
5867.085
5870.501
5874.035
5877.704
5881.654
5885.079
5888.934
5893.104
5897.276
5901.501
5905.814
5910.229
5914.752
5919.402
5924.162
5928.912
5933.75
5938.651
5943.666
5948.781
5953.99
5959.303
5964.761
5909.903
5915.493
5921.159
5926.817
5932.525
5938.304
5944.149
5950.059
5956.032
5962.069
5968.164
5974.222
5980.297
5986.424
5992.602
5998.819
6005.071
6011.358
6017.68
6024.009
6030.261
6036.542
6042.866
6049.204
6055.544
6061.885
6068.228
6074.572
6080.911
6087.216
6093.476
6099.72
6105.954
6112.177
6118.386
6124.578
6130.744
6136.884
6142.884
6148.926
6154.955
6160.953
6166.931
6172.889
6178.82
6184.723
6190.599
6196.447
6202.239
6207.988
6213.724
6219.461
6225.214
6231.004
6236.849
6242.817
6248.871
6254.797
6259.722
6264.349
6269.254
6273.997
6278.151
6281.851
6285.376
6288.835
6292.247
6295.623
6298.97
6302.287
6305.572
6308.828
6312.049
6315.25
6318.461
6321.73
6325.15
6328.851
6332.802
6336.848
6341.457
6346.302
6350.237
6353.28
6355.435
6356.483
6356.418
6357.2
6359.231
6361.785
6364.428
6367.078
6369.723
6372.339
6374.91
6377.431
6379.902
6382.322
6384.694
6387.018
6389.297
6391.533
6393.727
6395.881
6397.997
6400.076
6402.119
6404.128
6406.103
6408.047
6409.959
6411.84
6413.691
6415.513
6417.304
6419.066
6420.798
6422.501
6424.175
6425.822
6427.442
6429.035
6430.603
6432.145
6433.662
6435.154
6436.62
6438.061
6439.476
6440.866
6442.231
6443.57
6444.886
6446.182
6447.463
6448.738
6450.002
6451.237
6452.456
6453.661
6454.843
6456.001
6457.134
6458.245
6459.333
6460.398
6461.441
6462.461
6463.458
6464.433
6465.386
6466.318
6467.227
6468.115
6468.979
6469.822
6470.643
6471.442
6472.219
6472.973
6473.706
6474.416
6475.104
6475.77
6476.415
6477.037
6477.638
6478.217
6478.774
6479.309
6479.822
6480.313
6480.782
6481.227
6481.651
6482.051
6482.428
6482.782
6483.112
6483.42
6483.704
6483.966
6484.205
6484.426
6484.628
6484.829
6485.036
6485.24
6485.41
6485.558
6485.687
6485.795
6485.881
6485.945
6485.989
6486.012
6486.015
6485.999
6485.963
6485.907
6485.832
6485.737
6485.622
6485.487
6485.332
6485.157
6484.96
6484.742
6484.5
6484.234
6483.942
6483.621
6483.269
6482.881
6482.454
6481.981
6481.456
6480.875
6480.242
6479.588
6479
6478.634
6478.637
6478.859
6479.126
6479.369
6479.576
6479.747
6479.884
6479.99
6480.068
6480.121
6480.154
6480.168
6480.165
6480.147
6480.117
6480.074
6480.021
6479.958
6479.886
6479.806
6479.719
6479.625
6479.525
6479.42
6479.309
6479.194
6479.075
6478.952
6478.826
6478.699
6478.571
6478.443
6478.312
6478.184
6477.988
6477.639
6477.366
6477.193
6477.034
6476.858
6476.663
6476.46
6476.255
6476.047
6475.833
6475.616
6475.396
6475.174
6474.949
6474.722
6474.492
6474.259
6474.023
6473.784
6473.543
6473.299
6473.052
6472.803
6472.55
6472.295
6472.038
6471.778
6471.515
6471.251
6470.984
6470.716
6470.446
6470.175
6469.904
6469.632
6469.36
6469.089
6468.82
6468.553
6468.29
6468.03
6467.771
6467.505
6467.22
6466.895
6466.506
6466.075
6465.634
6465.195
6464.758
6464.325
6463.896
6463.454
6462.989
6462.475
6461.948
6461.432
6460.929
6460.436
6459.947
6459.46
6458.973
6458.483
6457.992
6457.497
6457
6456.5
6455.997
6455.491
6454.982
6454.469
6453.953
6453.433
6452.91
6452.383
6451.853
6451.319
6450.781
6450.239
6449.693
6449.144
6448.59
6448.033
6447.472
6446.907
6446.338
6445.765
6445.188
6444.608
6444.024
6443.436
6442.845
6442.25
6441.652
6441.05
6440.445
6439.836
6439.223
6438.607
6437.987
6437.364
6436.737
6436.106
6435.471
6434.833
6434.191
6433.544
6432.893
6432.238
6431.578
6430.914
6430.244
6429.568
6428.886
6428.197
6427.501
6426.796
6426.082
6425.357
6424.62
6423.868
6423.101
6422.314
6421.505
6420.671
6419.805
6418.903
6417.958
6416.962
6415.909
6414.794
6413.622
6412.42
6411.265
6410.297
6409.787
6409.939
6410.722
5739.781
5748.025
5745.003
5728.751
5721.544
5683.038
5676.735
5671.355
5668.125
5665.08
5656.861
5647.822
5639.131
5630.959
5623.989
5617.642
5611.91
5606.813
5602.338
5598.463
5595.17
5592.443
5590.212
5588.376
5586.962
5585.978
5585.401
5585.198
5585.346
5585.836
5586.684
5526.215
5527.647
5529.265
5531.01
5532.945
5535.073
5537.378
5539.848
5542.477
5545.268
5548.139
5551.088
5554.154
5557.352
5560.673
5564.109
5567.662
5571.332
5575.124
5578.951
5582.845
5586.874
5591.017
5595.258
5599.595
5604.032
5608.57
5613.207
5617.938
5622.721
5627.582
5632.534
5637.58
5642.717
5647.942
5653.248
5658.632
5663.977
5669.483
5675.062
5680.707
5686.433
5692.233
5698.098
5704.022
5710.003
5716.035
5722.106
5728.189
5734.306
5740.468
5746.672
5752.912
5759.183
5765.481
5771.799
5778.123
5784.419
5790.735
5797.082
5803.442
5809.805
5816.168
5822.529
5828.885
5835.23
5841.551
5847.845
5854.12
5860.38
5866.624
5872.85
5879.054
5885.229
5891.371
5897.461
5903.529
5909.579
5915.602
5921.596
5927.558
5933.488
5939.386
5945.254
5951.087
5956.878
5962.637
5968.373
5974.098
5979.82
5985.549
5991.29
5997.044
6002.755
6008.304
6013.364
6018.169
6022.941
6027.53
6031.762
6035.685
6039.428
6043.064
6046.623
6050.121
6053.572
6056.982
6060.354
6063.693
6067.007
6070.31
6073.626
6076.996
6080.471
6084.108
6087.911
6091.8
6095.857
6099.891
6103.455
6106.406
6108.745
6110.395
6111.52
6112.958
6114.983
6117.346
6119.831
6122.362
6124.911
6127.452
6129.966
6132.444
6134.882
6137.276
6139.628
6141.937
6144.204
6146.429
6148.615
6150.762
6152.872
6154.946
6156.984
6158.989
6160.961
6162.9
6164.808
6166.685
6168.533
6170.35
6172.138
6173.896
6175.625
6177.326
6178.999
6180.645
6182.263
6183.856
6185.422
6186.963
6188.479
6189.97
6191.436
6192.877
6194.293
6195.684
6197.052
6198.395
6199.717
6201.019
6202.304
6203.577
6204.835
6206.07
6207.285
6208.483
6209.66
6210.814
6211.945
6213.054
6214.14
6215.204
6216.246
6217.265
6218.262
6219.236
6220.189
6221.12
6222.029
6222.915
6223.78
6224.623
6225.443
6226.242
6227.018
6227.772
6228.505
6229.215
6229.903
6230.569
6231.213
6231.835
6232.435
6233.014
6233.57
6234.104
6234.616
6235.106
6235.574
6236.019
6236.441
6236.841
6237.219
6237.574
6237.906
6238.215
6238.503
6238.769
6239.014
6239.241
6239.452
6239.653
6239.851
6240.03
6240.189
6240.33
6240.453
6240.554
6240.635
6240.695
6240.735
6240.756
6240.756
6240.738
6240.7
6240.643
6240.567
6240.471
6240.355
6240.221
6240.066
6239.891
6239.695
6239.479
6239.24
6238.977
6238.69
6238.377
6238.036
6237.665
6237.262
6236.825
6236.356
6235.858
6235.348
6234.857
6234.441
6234.185
6234.132
6234.224
6234.366
6234.51
6234.642
6234.755
6234.848
6234.92
6234.972
6235.004
6235.02
6235.02
6235.006
6234.979
6234.94
6234.89
6234.831
6234.763
6234.687
6234.603
6234.512
6234.415
6234.312
6234.204
6234.091
6233.973
6233.851
6233.726
6233.596
6233.464
6233.327
6233.187
6233.038
6232.874
6232.67
6232.422
6232.204
6232.016
6231.831
6231.637
6231.438
6231.235
6231.03
6230.821
6230.608
6230.392
6230.173
6229.952
6229.727
6229.499
6229.269
6229.036
6228.799
6228.559
6228.317
6228.073
6227.825
6227.576
6227.323
6227.067
6226.809
6226.549
6226.286
6226.021
6225.753
6225.484
6225.213
6224.94
6224.667
6224.392
6224.117
6223.841
6223.566
6223.291
6223.016
6222.74
6222.459
6222.168
6221.858
6221.519
6221.141
6220.733
6220.312
6219.886
6219.457
6219.025
6218.59
6218.149
6217.69
6217.195
6216.687
6216.184
6215.689
6215.199
6214.712
6214.226
6213.738
6213.249
6212.758
6212.264
6211.768
6211.268
6210.765
6210.259
6209.75
6209.238
6208.721
6208.202
6207.679
6207.152
6206.621
6206.087
6205.549
6205.007
6204.461
6203.911
6203.358
6202.8
6202.239
6201.673
6201.104
6200.531
6199.954
6199.374
6198.79
6198.202
6197.61
6197.015
6196.417
6195.814
6195.209
6194.6
6193.987
6193.37
6192.75
6192.127
6191.5
6190.869
6190.234
6189.596
6188.954
6188.308
6187.657
6187.003
6186.344
6185.68
6185.012
6184.337
6183.658
6182.971
6182.278
6181.577
6180.868
6180.148
6179.418
6178.675
6177.918
6177.144
6176.352
6175.538
6174.699
6173.833
6172.936
6172.005
6171.041
6170.049
6169.044
6168.057
6167.147
6166.4
6165.94
6165.855
6166.001
5240.34
5302.51
5356.652
5383.379
5414.335
5409.917
5428.225
5440.378
5449.578
5454.048
5454.907
5452.457
5449.711
5445.448
5440.572
5435.269
5364.588
5360.371
5355.79
5351.016
5345.697
5339.028
5331.769
5324.639
5317.89
5311.66
5305.976
5300.841
5296.258
5292.225
5288.73
5285.758
5283.29
5281.279
5279.687
5278.514
5277.744
5277.354
5277.318
5277.612
5278.209
5279.077
5280.079
5281.431
5283.027
5284.818
5286.806
5288.978
5291.318
5293.812
5296.451
5299.226
5302.103
5305.082
5308.18
5311.399
5314.732
5318.176
5321.728
5325.385
5329.145
5332.975
5336.888
5340.922
5345.066
5349.309
5353.649
5358.087
5362.621
5367.25
5371.968
5376.762
5381.638
5386.604
5391.66
5396.806
5402.037
5407.347
5412.733
5418.18
5423.713
5429.317
5434.99
5440.734
5446.544
5452.417
5458.347
5464.331
5470.364
5476.437
5482.542
5488.684
5494.865
5501.083
5507.335
5513.615
5519.919
5526.241
5532.57
5538.9
5545.244
5551.606
5557.977
5564.35
5570.724
5577.094
5583.458
5589.81
5596.144
5602.456
5608.749
5615.024
5621.28
5627.515
5633.727
5639.91
5646.064
5652.181
5658.267
5664.326
5670.354
5676.349
5682.31
5688.238
5694.131
5699.989
5705.812
5711.596
5717.345
5723.064
5728.759
5734.433
5740.088
5745.719
5751.313
5756.83
5762.2
5767.283
5772.139
5776.862
5781.412
5785.714
5789.781
5793.674
5797.444
5801.12
5804.723
5808.265
5811.757
5815.206
5818.62
5822.008
5825.385
5828.768
5832.186
5835.667
5839.238
5842.9
5846.604
5850.304
5853.926
5857.287
5860.244
5862.714
5864.776
5866.539
5868.367
5870.46
5872.765
5875.178
5877.643
5880.129
5882.614
5885.083
5887.524
5889.931
5892.302
5894.634
5896.928
5899.18
5901.394
5903.571
5905.71
5907.813
5909.881
5911.914
5913.914
5915.881
5917.815
5919.719
5921.592
5923.435
5925.249
5927.032
5928.787
5930.514
5932.212
5933.883
5935.526
5937.143
5938.734
5940.299
5941.839
5943.353
5944.843
5946.308
5947.749
5949.166
5950.558
5951.927
5953.273
5954.598
5955.903
5957.19
5958.46
5959.713
5960.946
5962.159
5963.352
5964.526
5965.677
5966.807
5967.914
5969
5970.063
5971.103
5972.122
5973.118
5974.093
5975.045
5975.975
5976.884
5977.77
5978.635
5979.477
5980.297
5981.096
5981.872
5982.626
5983.358
5984.068
5984.756
5985.422
5986.066
5986.687
5987.287
5987.865
5988.42
5988.954
5989.465
5989.955
5990.422
5990.866
5991.289
5991.689
5992.066
5992.422
5992.755
5993.066
5993.356
5993.625
5993.875
5994.106
5994.32
5994.52
5994.706
5994.877
5995.032
5995.169
5995.287
5995.385
5995.463
5995.522
5995.56
5995.579
5995.579
5995.559
5995.521
5995.463
5995.387
5995.291
5995.176
5995.042
5994.889
5994.716
5994.523
5994.31
5994.076
5993.821
5993.543
5993.242
5992.917
5992.568
5992.195
5991.798
5991.383
5990.956
5990.533
5990.138
5989.808
5989.579
5989.479
5989.478
5989.529
5989.598
5989.67
5989.736
5989.791
5989.833
5989.861
5989.874
5989.874
5989.862
5989.837
5989.801
5989.754
5989.699
5989.634
5989.561
5989.481
5989.393
5989.299
5989.199
5989.094
5988.983
5988.867
5988.747
5988.622
5988.492
5988.36
5988.222
5988.081
5987.933
5987.777
5987.609
5987.422
5987.215
5987.008
5986.808
5986.61
5986.412
5986.211
5986.006
5985.799
5985.59
5985.377
5985.16
5984.942
5984.72
5984.495
5984.267
5984.037
5983.803
5983.567
5983.327
5983.085
5982.84
5982.593
5982.342
5982.089
5981.833
5981.575
5981.314
5981.05
5980.784
5980.516
5980.245
5979.973
5979.698
5979.422
5979.145
5978.866
5978.586
5978.304
5978.021
5977.735
5977.446
5977.15
5976.843
5976.52
5976.175
5975.804
5975.411
5975.002
5974.585
5974.162
5973.732
5973.297
5972.853
5972.394
5971.915
5971.427
5970.938
5970.451
5969.966
5969.481
5968.996
5968.509
5968.021
5967.53
5967.036
5966.54
5966.041
5965.539
5965.033
5964.524
5964.012
5963.496
5962.977
5962.454
5961.927
5961.397
5960.863
5960.325
5959.783
5959.237
5958.687
5958.134
5957.576
5957.015
5956.45
5955.881
5955.308
5954.731
5954.151
5953.567
5952.979
5952.387
5951.792
5951.194
5950.591
5949.986
5949.376
5948.764
5948.147
5947.527
5946.904
5946.277
5945.646
5945.012
5944.374
5943.732
5943.087
5942.438
5941.784
5941.127
5940.465
5939.798
5939.126
5938.45
5937.767
5937.078
5936.382
5935.679
5934.967
5934.245
5933.514
5932.77
5932.013
5931.241
5930.452
5929.646
5928.82
5927.975
5927.111
5926.232
5925.347
5924.471
5923.632
5922.871
5922.238
5921.792
5921.563
5921.459
4680.146
4685.83
4693.393
4697.639
4720.747
4723.687
4762.17
4805.882
4853.775
4903.309
4950.546
4995.422
5036.632
5074.612
5106.186
5074.853
5097.553
5112.76
5123.053
5129.395
5132.471
5133.097
5131.807
5129.068
5125.246
5120.411
5114.214
5109.498
5104.729
5099.596
5094.031
5087.807
5081.234
5074.734
5068.526
5062.735
5057.415
5052.587
5048.266
5044.455
5041.151
5038.341
5036.008
5034.124
5032.663
5031.612
5030.952
5030.662
5030.716
5031.09
5031.758
5032.692
5033.857
5035.281
5036.933
5038.781
5040.815
5043.022
5045.39
5047.907
5050.562
5053.345
5056.241
5059.248
5062.367
5065.599
5068.94
5072.388
5075.94
5079.593
5083.343
5087.179
5091.11
5095.148
5099.289
5103.529
5107.866
5112.3
5116.83
5121.454
5126.168
5130.968
5135.852
5140.826
5145.889
5151.04
5156.277
5161.596
5166.996
5172.472
5178.02
5183.639
5189.327
5195.081
5200.9
5206.78
5212.717
5218.708
5224.749
5230.833
5236.956
5243.115
5249.311
5255.542
5261.806
5268.096
5274.411
5280.743
5287.088
5293.441
5299.805
5306.18
5312.562
5318.947
5325.332
5331.712
5338.085
5344.447
5350.793
5357.12
5363.427
5369.715
5375.982
5382.227
5388.447
5394.638
5400.8
5406.927
5413.021
5419.085
5425.117
5431.114
5437.076
5443.002
5448.892
5454.744
5460.558
5466.333
5472.068
5477.767
5483.431
5489.06
5494.651
5500.196
5505.679
5511.07
5516.326
5521.382
5526.245
5530.953
5535.498
5539.848
5544.007
5548.007
5551.883
5555.66
5559.353
5562.979
5566.546
5570.065
5573.545
5576.995
5580.426
5583.854
5587.296
5590.767
5594.278
5597.822
5601.369
5604.875
5608.283
5611.49
5614.404
5616.998
5619.313
5621.429
5623.526
5625.734
5628.058
5630.453
5632.885
5635.332
5637.779
5640.213
5642.623
5645.004
5647.351
5649.664
5651.94
5654.181
5656.384
5658.55
5660.681
5662.776
5664.836
5666.863
5668.856
5670.818
5672.747
5674.646
5676.514
5678.352
5680.161
5681.941
5683.692
5685.415
5687.111
5688.779
5690.42
5692.035
5693.623
5695.187
5696.725
5698.239
5699.727
5701.192
5702.632
5704.049
5705.442
5706.812
5708.16
5709.486
5710.793
5712.08
5713.349
5714.599
5715.83
5717.041
5718.232
5719.402
5720.552
5721.679
5722.785
5723.869
5724.931
5725.971
5726.989
5727.985
5728.958
5729.91
5730.841
5731.749
5732.635
5733.499
5734.341
5735.161
5735.959
5736.735
5737.489
5738.221
5738.931
5739.619
5740.284
5740.928
5741.55
5742.149
5742.726
5743.282
5743.815
5744.326
5744.815
5745.282
5745.726
5746.149
5746.549
5746.927
5747.283
5747.617
5747.93
5748.222
5748.493
5748.745
5748.978
5749.194
5749.394
5749.578
5749.746
5749.897
5750.031
5750.145
5750.24
5750.316
5750.373
5750.41
5750.427
5750.426
5750.405
5750.366
5750.308
5750.232
5750.136
5750.022
5749.89
5749.738
5749.568
5749.379
5749.17
5748.943
5748.695
5748.428
5748.14
5747.833
5747.506
5747.161
5746.801
5746.43
5746.057
5745.694
5745.359
5745.073
5744.859
5744.729
5744.671
5744.659
5744.672
5744.696
5744.721
5744.742
5744.756
5744.76
5744.755
5744.739
5744.713
5744.677
5744.631
5744.577
5744.514
5744.443
5744.365
5744.28
5744.189
5744.091
5743.988
5743.879
5743.766
5743.647
5743.524
5743.396
5743.264
5743.127
5742.986
5742.84
5742.687
5742.527
5742.357
5742.176
5741.98
5741.779
5741.581
5741.383
5741.185
5740.984
5740.78
5740.573
5740.363
5740.151
5739.935
5739.716
5739.494
5739.269
5739.042
5738.811
5738.577
5738.341
5738.101
5737.859
5737.614
5737.366
5737.115
5736.862
5736.605
5736.346
5736.084
5735.82
5735.553
5735.283
5735.011
5734.737
5734.461
5734.182
5733.902
5733.619
5733.334
5733.046
5732.756
5732.461
5732.162
5731.854
5731.537
5731.205
5730.856
5730.488
5730.101
5729.701
5729.29
5728.872
5728.445
5728.011
5727.568
5727.114
5726.647
5726.172
5725.693
5725.213
5724.732
5724.25
5723.766
5723.281
5722.794
5722.304
5721.811
5721.316
5720.817
5720.316
5719.81
5719.302
5718.79
5718.274
5717.755
5717.232
5716.706
5716.175
5715.641
5715.103
5714.561
5714.016
5713.466
5712.912
5712.355
5711.794
5711.228
5710.659
5710.086
5709.51
5708.929
5708.345
5707.757
5707.165
5706.57
5705.971
5705.369
5704.763
5704.153
5703.54
5702.924
5702.304
5701.68
5701.053
5700.423
5699.789
5699.151
5698.51
5697.866
5697.217
5696.565
5695.909
5695.249
5694.584
5693.916
5693.242
5692.563
5691.879
5691.189
5690.493
5689.789
5689.077
5688.358
5687.628
5686.889
5686.139
5685.377
5684.603
5683.818
5683.022
5682.219
5681.414
5680.616
5679.841
5679.11
5678.45
5677.895
5677.471
5677.193
5676.997
4575.61
4520.106
4484.417
4450.98
4425.09
4409.267
4402.398
4404.572
4415.19
4434.045
4404.328
4440.979
4483.819
4531.586
4581.807
4631.305
4677.53
4719.625
4757.499
4790.358
4815.337
4838.332
4855.665
4867.878
4875.852
4880.229
4881.766
4881.201
4879.045
4875.665
4871.311
4866.223
4861.323
4856.177
4850.684
4844.861
4838.691
4832.357
4826.109
4820.127
4814.522
4809.359
4804.671
4800.479
4796.79
4793.602
4790.904
4788.679
4786.905
4785.557
4784.617
4784.063
4783.874
4784.023
4784.488
4785.242
4786.266
4787.532
4789.031
4790.743
4792.648
4794.732
4796.982
4799.386
4801.934
4804.615
4807.42
4810.34
4813.369
4816.506
4819.751
4823.1
4826.553
4830.107
4833.759
4837.508
4841.35
4845.287
4849.324
4853.461
4857.697
4862.03
4866.46
4870.986
4875.606
4880.318
4885.119
4890.009
4894.987
4900.055
4905.211
4910.453
4915.778
4921.184
4926.666
4932.223
4937.852
4943.551
4949.317
4955.147
4961.04
4966.99
4972.995
4979.049
4985.148
4991.288
4997.467
5003.682
5009.931
5016.212
5022.519
5028.85
5035.199
5041.563
5047.938
5054.323
5060.716
5067.115
5073.517
5079.917
5086.312
5092.7
5099.076
5105.437
5111.781
5118.105
5124.408
5130.69
5136.947
5143.178
5149.381
5155.553
5161.691
5167.796
5173.868
5179.906
5185.907
5191.872
5197.799
5203.686
5209.533
5215.34
5221.103
5226.824
5232.502
5238.136
5243.724
5249.262
5254.739
5260.141
5265.446
5270.626
5275.648
5280.505
5285.21
5289.762
5294.148
5298.373
5302.454
5306.414
5310.273
5314.045
5317.743
5321.377
5324.957
5328.493
5331.992
5335.465
5338.922
5342.375
5345.831
5349.293
5352.753
5356.188
5359.565
5362.84
5365.953
5368.853
5371.527
5374.001
5376.331
5378.612
5380.924
5383.286
5385.686
5388.106
5390.532
5392.953
5395.361
5397.747
5400.105
5402.434
5404.729
5406.99
5409.216
5411.408
5413.563
5415.684
5417.77
5419.823
5421.842
5423.829
5425.784
5427.707
5429.6
5431.463
5433.296
5435.1
5436.875
5438.623
5440.342
5442.034
5443.699
5445.337
5446.949
5448.536
5450.097
5451.634
5453.145
5454.633
5456.096
5457.536
5458.952
5460.345
5461.716
5463.065
5464.392
5465.699
5466.987
5468.255
5469.503
5470.732
5471.941
5473.13
5474.298
5475.445
5476.571
5477.675
5478.758
5479.819
5480.858
5481.875
5482.87
5483.844
5484.795
5485.725
5486.633
5487.519
5488.383
5489.225
5490.045
5490.842
5491.618
5492.372
5493.104
5493.814
5494.501
5495.167
5495.81
5496.431
5497.031
5497.608
5498.163
5498.696
5499.206
5499.695
5500.161
5500.606
5501.028
5501.428
5501.807
5502.163
5502.499
5502.812
5503.105
5503.378
5503.631
5503.866
5504.082
5504.281
5504.464
5504.63
5504.778
5504.907
5505.019
5505.111
5505.184
5505.239
5505.274
5505.29
5505.287
5505.266
5505.226
5505.167
5505.091
5504.996
5504.882
5504.751
5504.601
5504.434
5504.249
5504.045
5503.823
5503.584
5503.327
5503.052
5502.761
5502.455
5502.135
5501.805
5501.47
5501.138
5500.817
5500.522
5500.266
5500.062
5499.916
5499.823
5499.769
5499.739
5499.723
5499.713
5499.703
5499.691
5499.673
5499.649
5499.616
5499.576
5499.529
5499.473
5499.41
5499.339
5499.262
5499.178
5499.088
5498.992
5498.89
5498.783
5498.671
5498.554
5498.432
5498.306
5498.176
5498.04
5497.901
5497.756
5497.606
5497.45
5497.287
5497.116
5496.936
5496.746
5496.552
5496.356
5496.16
5495.962
5495.761
5495.557
5495.351
5495.141
5494.928
5494.713
5494.494
5494.272
5494.047
5493.82
5493.589
5493.355
5493.119
5492.879
5492.636
5492.391
5492.143
5491.892
5491.637
5491.381
5491.121
5490.858
5490.593
5490.325
5490.054
5489.781
5489.505
5489.226
5488.945
5488.661
5488.374
5488.085
5487.792
5487.495
5487.194
5486.886
5486.57
5486.245
5485.907
5485.555
5485.187
5484.804
5484.409
5484.004
5483.589
5483.166
5482.735
5482.295
5481.846
5481.387
5480.921
5480.449
5479.975
5479.498
5479.019
5478.539
5478.055
5477.569
5477.081
5476.589
5476.095
5475.597
5475.096
5474.591
5474.083
5473.571
5473.056
5472.537
5472.014
5471.488
5470.958
5470.424
5469.886
5469.344
5468.798
5468.248
5467.695
5467.137
5466.576
5466.01
5465.441
5464.868
5464.291
5463.711
5463.126
5462.538
5461.946
5461.351
5460.752
5460.149
5459.543
5458.933
5458.32
5457.703
5457.083
5456.46
5455.833
5455.203
5454.569
5453.932
5453.291
5452.647
5452
5451.349
5450.695
5450.036
5449.375
5448.709
5448.039
5447.364
5446.685
5446.001
5445.312
5444.618
5443.917
5443.21
5442.496
5441.775
5441.047
5440.312
5439.57
5438.823
5438.073
5437.325
5436.583
5435.858
5435.162
5434.512
5433.926
5433.426
5433.027
5432.739
5432.511
4311.439
4256.114
4153.448
4126.174
4105.101
4091.796
4086.464
4088.991
4099.13
4116.914
4142.092
4176.399
4218.677
4267.316
4319.255
4370.582
4418
4461.125
4499.502
4533.421
4562.736
4587.63
4606.159
4619.134
4627.612
4632.379
4634.176
4633.709
4631.539
4628.094
4623.729
4618.721
4613.407
4607.811
4601.955
4595.885
4589.652
4583.385
4577.253
4571.397
4565.916
4560.872
4556.304
4552.233
4548.667
4545.602
4543.029
4540.93
4539.283
4538.066
4537.256
4536.829
4536.761
4537.028
4537.603
4538.464
4539.587
4540.948
4542.532
4544.321
4546.297
4548.445
4550.751
4553.205
4555.796
4558.514
4561.35
4564.297
4567.351
4570.509
4573.769
4577.13
4580.59
4584.148
4587.802
4591.552
4595.397
4599.336
4603.373
4607.508
4611.741
4616.071
4620.499
4625.022
4629.641
4634.353
4639.157
4644.051
4649.036
4654.111
4659.274
4664.524
4669.857
4675.273
4680.766
4686.335
4691.978
4697.692
4703.474
4709.321
4715.23
4721.197
4727.219