/*--------------------------------*- C++ -*----------------------------------*\
| =========                 |                                                 |
| \\      /  F ield         | foam-extend: Open Source CFD                    |
|  \\    /   O peration     | Version:     3.1                                |
|   \\  /    A nd           | Web:         http://www.extend-project.de       |
|    \\/     M anipulation  |                                                 |
\*---------------------------------------------------------------------------*/
FoamFile
{
    version     2.0;
    format      ascii;
    class       volScalarField;
    location    "4";
    object      k;
}
// * * * * * * * * * * * * * * * * * * * * * * * * * * * * * * * * * * * * * //

dimensions      [0 2 -2 0 0 0 0];

internalField   nonuniform List<scalar> 
119952
(
0.01063581
0.01005055
0.009981379
0.009873158
0.009755637
0.009668047
0.009720656
0.009840496
0.009994315
0.01016485
0.01034176
0.01051842
0.01069097
0.01085744
0.01101704
0.01117005
0.011318
0.01146465
0.0116215
0.01183478
0.01218068
0.01197365
0.01209171
0.01240898
0.01206333
0.01193683
0.01183613
0.01172596
0.0113813
0.008034494
0.01241878
0.01119251
0.01080763
0.01082818
0.01105124
0.01135093
0.01165986
0.0119472
0.01219698
0.01244864
0.01243677
0.01310028
0.01393072
0.01473759
0.01544928
0.01603581
0.0165108
0.01690033
0.01720108
0.01920312
0.0193461
0.01939483
0.01939393
0.0193903
0.01939884
0.01942458
0.01946748
0.01952057
0.01959563
0.01968335
0.01971433
0.01973385
0.01975507
0.01978399
0.01982322
0.01987299
0.01992621
0.02001619
0.02044417
0.0204865
0.02045537
0.02052869
0.02062678
0.02068418
0.02069346
0.02069167
0.02069394
0.02070246
0.02071744
0.02073781
0.02076149
0.02078603
0.02080896
0.02082794
0.02084074
0.02084484
0.02083669
0.02081314
0.02080218
0.02079771
0.02074292
0.02073712
0.02083087
0.02083284
0.02075839
0.0206871
0.02063738
0.02019885
0.01977233
0.01941628
0.01910623
0.01882125
0.01855429
0.01830236
0.01806312
0.01783535
0.01761863
0.01741289
0.01721818
0.01703454
0.01686204
0.01670066
0.01655036
0.01641105
0.01628249
0.01616436
0.01605617
0.01595739
0.01586737
0.01578544
0.01571093
0.0156432
0.01558163
0.01552566
0.01547472
0.01542827
0.01538579
0.01534679
0.01531081
0.01527735
0.01524591
0.01521608
0.01518759
0.01516019
0.01513367
0.0151078
0.0150824
0.0150573
0.01503238
0.01500753
0.01498267
0.01495774
0.01493264
0.01490724
0.01488114
0.01485289
0.01482299
0.01480578
0.01481579
0.01483524
0.01485921
0.01488336
0.01490496
0.01492286
0.0149363
0.01494507
0.01494903
0.01494809
0.01494217
0.01493127
0.01491541
0.01489509
0.01487117
0.01484352
0.01481252
0.01477858
0.01474203
0.0147032
0.01466242
0.01462
0.01457622
0.01453137
0.01448573
0.01443958
0.01439316
0.01434674
0.01430054
0.01425477
0.01420964
0.0141653
0.0141219
0.01407954
0.01403833
0.01399833
0.0139596
0.0139222
0.01388617
0.01385151
0.01381826
0.01378641
0.01375594
0.01372666
0.01369839
0.0136709
0.01364381
0.0136153
0.01359149
0.01365267
0.01379245
0.01385602
0.01386792
0.01381478
0.01373072
0.01362601
0.01351117
0.01339244
0.01327379
0.01315722
0.0130434
0.01293284
0.01282606
0.01272349
0.01262522
0.01253103
0.01244067
0.01235397
0.01227085
0.01219125
0.01211509
0.01204229
0.01197276
0.01190648
0.01184349
0.01178386
0.01172776
0.01167519
0.0116262
0.0115808
0.0115391
0.01150123
0.01146675
0.01142983
0.01134601
0.01136596
0.01143902
0.0115252
0.01161281
0.01169565
0.01177083
0.01183712
0.01189431
0.01194291
0.01198376
0.01201793
0.01204658
0.01207084
0.01209173
0.01211012
0.01212674
0.01214218
0.0121569
0.01217125
0.01218545
0.01219965
0.01221393
0.01222835
0.01224291
0.01225767
0.01227261
0.01228782
0.01230338
0.01231942
0.01233608
0.01235341
0.01237143
0.0123899
0.0124074
0.01374662
0.0137191
0.01367168
0.01361378
0.0135676
0.01354538
0.01355429
0.01359685
0.01367201
0.01377603
0.0139034
0.0140478
0.01420298
0.01436335
0.0145243
0.01468233
0.01483502
0.01498082
0.01511893
0.01524904
0.01537128
0.01548602
0.01559383
0.01569533
0.01579119
0.01588203
0.01596847
0.01605105
0.01613027
0.01620656
0.01628028
0.01635178
0.01642132
0.01648914
0.01655543
0.01662036
0.01668408
0.01674669
0.01680829
0.01686895
0.01692874
0.0169877
0.01704587
0.01710332
0.01716025
0.01721527
0.01726418
0.01730939
0.01735186
0.0173924
0.0174315
0.0174695
0.01750684
0.01755043
0.0175825
0.01757074
0.01755552
0.01754978
0.01755893
0.01758619
0.01763326
0.01769904
0.01777985
0.01787109
0.01796816
0.01806727
0.01816548
0.01826082
0.01835223
0.01843911
0.01852122
0.01859878
0.01867214
0.01874168
0.01880776
0.01887071
0.01893089
0.01898862
0.01904418
0.0190978
0.0191497
0.01920005
0.019249
0.01929668
0.01934319
0.01938863
0.01943306
0.01947654
0.01951911
0.01956083
0.01960171
0.01964179
0.01968109
0.01971962
0.0197574
0.01979444
0.01983076
0.01986637
0.01990128
0.01993552
0.0199691
0.02000205
0.02003438
0.02006612
0.02009731
0.02012797
0.02015813
0.02018784
0.02021713
0.02024604
0.02027461
0.02030289
0.02033091
0.02035874
0.02038641
0.02041397
0.02044149
0.020469
0.02049658
0.02052427
0.02055216
0.02058031
0.02060882
0.02063778
0.02066731
0.02069757
0.02072872
0.02076101
0.02079474
0.02083033
0.02086834
0.02090963
0.02095545
0.0210078
0.02107001
0.02114791
0.02125323
0.02143865
0.02174191
0.01467227
0.01557934
0.01841907
0.02055954
0.02203767
0.02315499
0.02407213
0.02485677
0.02560749
0.02855748
0.03472993
0.03918178
0.04206038
0.04381878
0.04484514
0.04539053
0.04560412
0.04557513
0.05189161
0.05135936
0.05066263
0.04986956
0.04906422
0.04825133
0.04741836
0.04656306
0.04569517
0.04481499
0.04397868
0.04302945
0.0420927
0.0412131
0.04040029
0.03965275
0.03896526
0.03833185
0.03774504
0.03725916
0.03671329
0.0361512
0.03562907
0.03514468
0.03469488
0.03427663
0.03388695
0.03352198
0.03317946
0.03285035
0.03253048
0.03222133
0.03191386
0.03161014
0.03131172
0.03102004
0.03073621
0.03046174
0.03225289
0.03193874
0.03164106
0.03135442
0.03107502
0.0308028
0.03053838
0.03028418
0.03003963
0.02980524
0.0295873
0.0293858
0.02919862
0.02902636
0.02887112
0.02873244
0.02861471
0.02852857
0.02849246
0.02847356
0.02841759
0.02837922
0.02837724
0.02838542
0.02838797
0.02838772
0.02839063
0.02839812
0.02841065
0.02842824
0.0284502
0.02847522
0.02850158
0.02852723
0.02854989
0.02856694
0.02857577
0.02857442
0.02856389
0.02854624
0.02851445
0.02847497
0.02844605
0.02841608
0.02836392
0.02828473
0.0281636
0.02798477
0.02774792
0.02749765
0.02724578
0.02699353
0.02674001
0.02648414
0.02622579
0.02596585
0.02570582
0.02544749
0.02519268
0.02494312
0.02470041
0.02446602
0.02424177
0.02402865
0.02382717
0.02363772
0.02346057
0.02329578
0.02314327
0.02300282
0.02287406
0.02275654
0.02264971
0.02255298
0.0224657
0.0223872
0.0223168
0.02225382
0.02219758
0.0221474
0.02210263
0.02206265
0.02202691
0.02199489
0.02196616
0.02194033
0.02191705
0.02189601
0.02187697
0.02185969
0.02184397
0.02182964
0.02181651
0.02180446
0.02179333
0.02178313
0.02177409
0.02176716
0.021762
0.02175645
0.02175063
0.02174528
0.02174047
0.0217362
0.02173253
0.02172945
0.02172692
0.02172491
0.02172339
0.02172229
0.02172151
0.02172096
0.02172054
0.02172016
0.0217198
0.02171941
0.02171898
0.02171848
0.02171789
0.02171722
0.02171645
0.02171562
0.02171472
0.0217138
0.02171287
0.02171197
0.02171114
0.0217104
0.02170979
0.02170933
0.02170904
0.02170892
0.02170896
0.02170916
0.0217095
0.02170994
0.02171045
0.02171097
0.02171151
0.02171194
0.0217123
0.02171245
0.02171249
0.02171221
0.02171186
0.02171138
0.02171196
0.02171757
0.02129572
0.02083999
0.02055156
0.02036428
0.02023971
0.02015551
0.02009769
0.02005728
0.02002853
0.02000761
0.0199919
0.01997963
0.01996958
0.01996094
0.01995316
0.01994584
0.01993866
0.01993142
0.01992394
0.01991615
0.019908
0.01989943
0.0198904
0.01988085
0.01987072
0.01986
0.01984872
0.019837
0.01982497
0.01981283
0.01980083
0.01978934
0.01977897
0.01977098
0.01976878
0.01978127
0.01981814
0.01986747
0.01992315
0.01998331
0.020048
0.02011736
0.02019144
0.02027022
0.02035359
0.02044134
0.02053315
0.02062887
0.02072811
0.02083038
0.02093511
0.02104169
0.02114948
0.02125781
0.02136603
0.02147352
0.02157967
0.02168397
0.02178593
0.02188518
0.02198141
0.02207441
0.02216407
0.02225037
0.02233337
0.02241322
0.02249011
0.02256436
0.02263623
0.02270507
0.024543
0.02463601
0.02472888
0.02481529
0.024893
0.02496244
0.02502512
0.02508299
0.02513809
0.02519231
0.02524738
0.02530471
0.02536535
0.02542991
0.02549859
0.02557123
0.02564736
0.02572633
0.0258074
0.02588981
0.02597287
0.02605597
0.02613861
0.02622039
0.02630099
0.02638021
0.02645789
0.02653395
0.02660834
0.02668106
0.02675213
0.02682158
0.02688947
0.02695585
0.02702078
0.02708431
0.02714649
0.02720737
0.02726697
0.02732533
0.02738242
0.0274382
0.0274925
0.02754498
0.02759487
0.02764117
0.02768466
0.02772665
0.02776764
0.02780781
0.02784728
0.02788597
0.02792433
0.02796195
0.0279965
0.02802709
0.02805509
0.02808173
0.02810742
0.02813267
0.02815813
0.02818462
0.02821286
0.0282434
0.02827652
0.02831223
0.02835033
0.02839048
0.02843229
0.02847537
0.02851932
0.0285638
0.0286085
0.02865316
0.02869767
0.02874215
0.02878659
0.02883096
0.02887528
0.02891938
0.02896288
0.02900567
0.0290477
0.02908896
0.02912945
0.02916916
0.02920811
0.02924629
0.0292837
0.02932034
0.02935622
0.02939132
0.02942565
0.0294592
0.02949198
0.02952398
0.0295552
0.02958565
0.02961534
0.02964427
0.02967246
0.02969994
0.02972671
0.02975282
0.02977828
0.02980314
0.02982742
0.02985118
0.02987445
0.02989728
0.02991973
0.02994183
0.02996366
0.02998525
0.03000668
0.030028
0.03004927
0.03007057
0.03009196
0.03011352
0.03013532
0.03015747
0.03018007
0.03020323
0.03022709
0.03025182
0.03027762
0.03030474
0.0303335
0.03036431
0.03039773
0.03043445
0.03047541
0.03052178
0.03057502
0.03063711
0.03071239
0.03080824
0.03090969
0.02364167
0.02661372
0.02879245
0.03097008
0.03300463
0.0348689
0.0365884
0.03816607
0.0396898
0.04241503
0.06277904
0.07321505
0.07747916
0.07971596
0.08124413
0.08246413
0.08349383
0.08437966
0.0850903
0.100697
0.1024304
0.1043187
0.1060692
0.1074166
0.108335
0.1089062
0.1092227
0.109368
0.1094735
0.1092264
0.1093304
0.109815
0.1104224
0.110933
0.11126
0.1114028
0.1113994
0.111376
0.1107248
0.1101893
0.1098509
0.1095527
0.1091837
0.1086764
0.1079994
0.1071436
0.1061208
0.1049339
0.1035161
0.1019434
0.100255
0.09846726
0.09657926
0.09458958
0.0925011
0.09030059
0.09372248
0.09123844
0.08870112
0.08615026
0.08360988
0.08110195
0.07864451
0.07625333
0.07393854
0.07170563
0.06956324
0.06751592
0.06556237
0.06370469
0.06194582
0.06028592
0.05872387
0.05725753
0.0558819
0.05458984
0.05337782
0.05224321
0.0511782
0.05017619
0.04923192
0.04833984
0.04749558
0.04669321
0.0459291
0.04520126
0.0445028
0.0438307
0.04318397
0.04256113
0.04196074
0.04138065
0.04082045
0.04027569
0.03972769
0.03920332
0.03870016
0.03821428
0.03774579
0.03729627
0.0368666
0.03645714
0.03606772
0.03569869
0.03535137
0.03502511
0.03471996
0.03443698
0.03417745
0.03394268
0.03373511
0.033559
0.03341862
0.03330492
0.03319478
0.03309527
0.03301973
0.03296512
0.03292176
0.03288512
0.03285641
0.03283752
0.03282919
0.03283094
0.03284155
0.03285939
0.03288253
0.03290871
0.03293544
0.03296005
0.03297993
0.03299289
0.03299776
0.03299445
0.03298194
0.03295991
0.03293519
0.0329071
0.03286544
0.03280378
0.03271687
0.03258707
0.03241058
0.03221165
0.03200063
0.03178017
0.03155198
0.03131673
0.03107545
0.03082962
0.0305809
0.03033102
0.03008169
0.02983463
0.02959153
0.02935394
0.02912289
0.0288997
0.02868573
0.02848205
0.02828946
0.02810851
0.02793951
0.02778256
0.02763758
0.02750436
0.02738255
0.02727168
0.02717124
0.02708062
0.02699918
0.02692625
0.02686115
0.0268032
0.02675172
0.02670607
0.02666565
0.02662989
0.02659831
0.02657044
0.02654587
0.02652426
0.02650529
0.02648869
0.02647424
0.02646172
0.02645099
0.02644188
0.0264343
0.02642818
0.02642349
0.02642033
0.02641832
0.02641665
0.02641495
0.02641346
0.02641242
0.02641209
0.02641252
0.02641351
0.026415
0.02641701
0.02641956
0.02642263
0.02642622
0.02643031
0.02643488
0.02643993
0.02644547
0.02645153
0.02645812
0.02646526
0.02647298
0.02648129
0.02649021
0.02649976
0.02650997
0.02652084
0.02653239
0.02654464
0.02655759
0.02657125
0.0265856
0.02660064
0.02661633
0.02663265
0.02664955
0.02666698
0.02668486
0.02670314
0.02672172
0.02674053
0.02675949
0.0267785
0.0267975
0.02681638
0.02683516
0.02685368
0.02687216
0.02689029
0.02690853
0.02692467
0.02690837
0.0269132
0.02692992
0.02695288
0.02697855
0.02700503
0.02703138
0.02705725
0.0270826
0.02710753
0.02713222
0.02715687
0.02718169
0.02720683
0.02723239
0.02725846
0.02728506
0.02731217
0.02733979
0.02736785
0.02739629
0.027425
0.02745387
0.02748276
0.02751153
0.02754006
0.02756822
0.02759594
0.02762319
0.02765
0.02767657
0.02770325
0.02773095
0.02776134
0.02779711
0.02784132
0.02789426
0.02795307
0.02801574
0.02808139
0.02814956
0.02822003
0.02829268
0.02836751
0.02844452
0.02852372
0.02860512
0.02868872
0.02877447
0.02886227
0.02895197
0.02904338
0.02913626
0.02923032
0.02932524
0.02942061
0.0295161
0.0296113
0.02970582
0.02979931
0.02989143
0.02998191
0.03007051
0.03015706
0.03024147
0.03032371
0.03040378
0.03048196
0.03055849
0.03063803
0.03068154
0.03072916
0.03077797
0.03082799
0.03087898
0.03093024
0.03098141
0.03103241
0.03108325
0.03113404
0.03118503
0.03123658
0.03128913
0.03134308
0.03139876
0.03145637
0.03151598
0.03157752
0.03164082
0.03170564
0.03177169
0.03183866
0.03190626
0.0319742
0.03204224
0.03211014
0.03217772
0.0322448
0.03231127
0.03237701
0.03244196
0.03250606
0.03256926
0.03263154
0.03269288
0.03275325
0.03281266
0.03287108
0.03292849
0.03298485
0.0330401
0.03309413
0.03314675
0.03319766
0.03324642
0.03329268
0.0333369
0.03337974
0.03342157
0.03346256
0.0335028
0.03354223
0.03358112
0.03361856
0.03365337
0.03368709
0.03372033
0.03375304
0.03378511
0.03381646
0.03384709
0.03387716
0.03390694
0.03393678
0.033967
0.03399785
0.03402949
0.034062
0.03409539
0.03412963
0.03416464
0.03420032
0.03423656
0.03427323
0.03431024
0.03434746
0.03438477
0.03442207
0.03445923
0.03449637
0.03453381
0.03457157
0.0346092
0.03464647
0.03468328
0.03471961
0.03475542
0.03479068
0.03482536
0.03485945
0.0348929
0.03492571
0.03495785
0.03498931
0.03502005
0.03505009
0.03507939
0.03510796
0.03513579
0.03516289
0.03518927
0.03521493
0.03523989
0.03526418
0.03528782
0.03531084
0.03533328
0.03535518
0.03537658
0.03539753
0.03541808
0.03543828
0.0354582
0.03547788
0.03549739
0.03551679
0.03553616
0.03555555
0.03557506
0.03559475
0.03561472
0.03563506
0.03565588
0.0356773
0.03569947
0.03572254
0.03574672
0.03577224
0.03579939
0.03582853
0.03586009
0.0358946
0.03593266
0.03597496
0.03602218
0.03607513
0.03613465
0.03620173
0.0362648
0.02044385
0.02699358
0.03377706
0.05989737
0.07695388
0.1040129
0.1147441
0.1247406
0.1330739
0.1400761
0.1465224
0.152382
0.1573063
0.161238
0.1641688
0.1665096
0.1684346
0.1699961
0.1712186
0.1721213
0.1727451
0.1732401
0.173584
0.1739307
0.1742841
0.1744721
0.1744173
0.1741329
0.1736635
0.1730583
0.1723225
0.1845466
0.1838795
0.1831953
0.1825473
0.1819181
0.1812675
0.1805624
0.1797815
0.1789245
0.1779815
0.1769407
0.1758403
0.1747159
0.1735734
0.1723894
0.1711351
0.1697881
0.1683401
0.1667745
0.1650714
0.1632479
0.1613118
0.1592658
0.1571094
0.1548386
0.1524494
0.1499399
0.1473112
0.1445557
0.1416675
0.1386596
0.135547
0.1323444
0.1290683
0.1257339
0.1223706
0.1189759
0.1153899
0.1118724
0.1084172
0.105022
0.1016976
0.09845643
0.09530816
0.09226052
0.08931956
0.08649017
0.08377651
0.08117976
0.07870095
0.07634212
0.07410455
0.07198747
0.06998871
0.06810489
0.06633188
0.06466405
0.06309438
0.06161721
0.06022809
0.05892174
0.057692
0.05653232
0.05543644
0.05439828
0.05341225
0.05247343
0.0515766
0.05071785
0.04989437
0.04910317
0.04834233
0.04760856
0.04690179
0.04621662
0.04555327
0.04491237
0.04429312
0.04369479
0.04311782
0.04256307
0.04203109
0.04152216
0.04103653
0.04057436
0.04013601
0.03972191
0.03933281
0.03896959
0.03863334
0.03832527
0.03804676
0.03779934
0.03758396
0.03739704
0.03722821
0.03707535
0.03694473
0.03683738
0.03674796
0.03667214
0.03660951
0.03656134
0.03652814
0.03650919
0.03650312
0.03650834
0.03652298
0.03654482
0.03657137
0.03660003
0.03662821
0.03665356
0.03667429
0.03668944
0.03669798
0.0366989
0.03669343
0.03668147
0.03665845
0.03661896
0.03655793
0.03646943
0.03634751
0.03619614
0.03602401
0.03583707
0.03563824
0.03542913
0.0352112
0.03498605
0.03475541
0.03452092
0.03428431
0.03404734
0.03381177
0.03357932
0.0333516
0.03313009
0.03291612
0.03271083
0.03251516
0.03232984
0.03215537
0.03199208
0.03184013
0.03169949
0.03157
0.03145138
0.03134326
0.03124517
0.03115658
0.03107693
0.0310056
0.03094198
0.03088546
0.03083542
0.03079127
0.03075246
0.03071848
0.03068886
0.03066315
0.03064096
0.03062195
0.0306058
0.03059223
0.03058098
0.03057183
0.03056458
0.03055904
0.03055508
0.03055258
0.03055147
0.03055166
0.03055293
0.03055491
0.03055733
0.03056
0.03056283
0.03056583
0.03056925
0.03057323
0.03057788
0.03058332
0.03058965
0.03059698
0.03060511
0.03061393
0.03062343
0.03063362
0.03064449
0.03065608
0.03066842
0.03068157
0.03069557
0.03071047
0.03072631
0.03074313
0.03076097
0.03077986
0.03079982
0.03082087
0.03084302
0.03086627
0.03089059
0.03091596
0.03094234
0.03096967
0.03099789
0.03102691
0.03105665
0.031087
0.03111788
0.03114916
0.03118075
0.03121253
0.0312444
0.0312763
0.03130811
0.03133985
0.03137139
0.03140278
0.0314336
0.03146195
0.03148897
0.0315155
0.0315421
0.031569
0.03159627
0.03162395
0.03165199
0.03168041
0.03170927
0.03173861
0.03176852
0.03179908
0.03183039
0.0318625
0.03189548
0.03192934
0.03196411
0.03199978
0.03203634
0.03207373
0.03211188
0.0321507
0.03219009
0.03222993
0.03227006
0.03231041
0.03235088
0.03239143
0.03243213
0.03247315
0.03251488
0.03255811
0.03260407
0.03265433
0.03271059
0.03277286
0.03283954
0.03290923
0.03298116
0.03305491
0.03313025
0.03320705
0.03328521
0.03336471
0.03344556
0.03352772
0.0336112
0.03369596
0.03378195
0.03386911
0.03395731
0.03404643
0.03413631
0.03422673
0.03431745
0.03440826
0.03449887
0.03458901
0.0346784
0.03476678
0.03485392
0.0349396
0.03502365
0.03510592
0.03518639
0.03526497
0.03534174
0.03541656
0.03548959
0.03555633
0.03561819
0.03567807
0.03573756
0.0357966
0.03585463
0.0359114
0.03596698
0.0360215
0.03607507
0.03612786
0.03618013
0.03623215
0.03628422
0.03633662
0.03638958
0.03644329
0.03649783
0.03655327
0.03660959
0.03666673
0.0367246
0.0367831
0.0368421
0.03690146
0.03696106
0.03702077
0.03708046
0.03714005
0.03719942
0.03725849
0.0373172
0.03737547
0.03743326
0.03749051
0.03754718
0.03760323
0.03765861
0.03771326
0.03776713
0.03782012
0.03787211
0.03792293
0.03797237
0.03802018
0.03806622
0.03811073
0.03815408
0.03819652
0.0382382
0.03827917
0.03831941
0.03835897
0.03839748
0.03843455
0.03847061
0.03850603
0.03854097
0.03857543
0.03860932
0.0386425
0.03867487
0.03870636
0.03873723
0.03876782
0.03879828
0.03882878
0.03885943
0.03889034
0.03892157
0.03895317
0.03898514
0.0390175
0.03905021
0.03908324
0.03911654
0.03915007
0.03918378
0.03921762
0.03925155
0.03928549
0.03931944
0.0393538
0.03938833
0.03942265
0.03945668
0.03949034
0.0395236
0.03955641
0.03958874
0.03962054
0.03965179
0.03968246
0.0397125
0.0397419
0.03977064
0.03979868
0.03982603
0.03985267
0.03987859
0.0399038
0.0399283
0.03995212
0.03997525
0.03999774
0.0400196
0.04004087
0.04006159
0.04008181
0.04010156
0.04012091
0.0401399
0.04015859
0.04017705
0.04019533
0.04021351
0.04023165
0.04024983
0.04026812
0.04028662
0.0403054
0.04032457
0.04034425
0.04036454
0.04038559
0.04040757
0.04043065
0.04045506
0.04048106
0.04050893
0.04053902
0.04057172
0.04060743
0.04064656
0.04068946
0.04073644
0.04078745
0.04084158
0.04088831
0.01294811
0.01617072
0.01956383
0.03109066
0.04197656
0.06193886
0.07282087
0.08319261
0.09345501
0.1032374
0.1127927
0.1226704
0.1324831
0.1416684
0.1503078
0.1589556
0.1797344
0.1862367
0.1926643
0.1982787
0.2034166
0.2084158
0.2130534
0.2170489
0.2203903
0.2231
0.2252568
0.2269393
0.2282061
0.2291011
0.229668
0.229979
0.2301092
0.2300628
0.2298688
0.2295728
0.2291856
0.2287019
0.2281222
0.2274509
0.2267487
0.2259349
0.2246449
0.2234751
0.2223638
0.2212907
0.220248
0.2192122
0.2181505
0.2170293
0.2158325
0.2145417
0.2131377
0.2116211
0.2100012
0.2082813
0.2064515
0.2044966
0.2024035
0.2001636
0.1977656
0.195197
0.1924628
0.1895729
0.1865336
0.1833514
0.1800345
0.176593
0.173037
0.1693765
0.1656178
0.1617678
0.1578405
0.1538531
0.1498227
0.1457676
0.1417026
0.1376488
0.1336039
0.1295756
0.1256042
0.1217043
0.1178819
0.114148
0.1105139
0.106988
0.1035761
0.1002831
0.09711245
0.09406636
0.09114611
0.08835316
0.08568869
0.08315305
0.08074544
0.07846398
0.07630582
0.07426739
0.07234376
0.07052883
0.06881737
0.06720487
0.065686
0.06425463
0.06290427
0.0616285
0.06042112
0.05927605
0.05818773
0.05715108
0.05616141
0.05521469
0.05430726
0.05343623
0.05259852
0.05179217
0.05101453
0.05026354
0.04953818
0.04883809
0.04816292
0.04751239
0.0468865
0.04628536
0.04570913
0.045158
0.04463213
0.0441319
0.0436579
0.04321082
0.04279136
0.04240035
0.04203867
0.04170712
0.04140628
0.04113616
0.04089476
0.04067699
0.04048032
0.04030666
0.04015667
0.0400278
0.0399173
0.03982434
0.03974942
0.0396928
0.03965372
0.03963089
0.03962288
0.03962803
0.03964425
0.03966919
0.03970036
0.03973527
0.0397716
0.03980734
0.0398408
0.03987032
0.03989427
0.03991198
0.03992237
0.03992237
0.03990779
0.03987455
0.03981863
0.03973646
0.03962853
0.03949876
0.03935103
0.03918791
0.03901131
0.03882312
0.03862514
0.03841908
0.03820635
0.0379887
0.03776801
0.03754622
0.03732519
0.03710672
0.03689243
0.03668381
0.03648215
0.03628855
0.03610389
0.03592888
0.03576399
0.03560956
0.03546573
0.0353325
0.03520975
0.03509722
0.03499459
0.03490143
0.03481728
0.03474161
0.03467388
0.03461353
0.03456
0.03451273
0.03447119
0.03443489
0.03440333
0.03437609
0.03435276
0.03433297
0.03431639
0.03430271
0.03429165
0.03428298
0.03427646
0.03427189
0.03426909
0.03426793
0.03426827
0.03427002
0.03427301
0.03427706
0.03428193
0.03428748
0.03429362
0.03430031
0.03430753
0.03431525
0.03432345
0.03433211
0.03434122
0.03435077
0.03436104
0.0343723
0.03438476
0.0343984
0.034413
0.03442849
0.03444487
0.03446217
0.03448044
0.03449973
0.03452009
0.03454159
0.03456427
0.03458819
0.03461337
0.03463986
0.03466766
0.03469679
0.03472723
0.03475898
0.03479198
0.0348262
0.03486156
0.03489799
0.0349354
0.03497368
0.03501274
0.03505245
0.0350927
0.03513336
0.03517433
0.03521551
0.03525677
0.03529806
0.03533927
0.03538037
0.03542123
0.03546166
0.03550132
0.03553997
0.03557765
0.03561456
0.03565089
0.0356868
0.03572246
0.03575794
0.03579344
0.03582908
0.03586499
0.03590131
0.03593816
0.03597563
0.03601383
0.03605283
0.03609268
0.03613343
0.03617511
0.03621771
0.0362612
0.03630553
0.0363507
0.03639659
0.0364431
0.03649021
0.03653785
0.03658601
0.03663475
0.03668425
0.03673488
0.03678718
0.036842
0.03690031
0.036963
0.03703018
0.03710108
0.03717474
0.03725047
0.03732784
0.03740663
0.03748663
0.03756776
0.03764988
0.03773299
0.03781702
0.03790192
0.03798766
0.03807417
0.03816138
0.0382492
0.03833754
0.03842627
0.03851525
0.03860431
0.03869329
0.03878198
0.03887019
0.03895772
0.03904435
0.03912991
0.03921421
0.03929711
0.03937845
0.03945815
0.0395361
0.0396122
0.03968622
0.03975788
0.03982589
0.0398906
0.0399533
0.04001465
0.04007503
0.04013435
0.04019255
0.04024966
0.04030574
0.04036082
0.04041497
0.04046828
0.04052092
0.04057304
0.04062483
0.04067645
0.04072808
0.04077983
0.04083181
0.0408841
0.04093673
0.04098974
0.04104311
0.04109683
0.04115086
0.04120516
0.04125966
0.04131432
0.04136906
0.04142383
0.04147857
0.04153321
0.04158771
0.04164201
0.04169605
0.04174979
0.04180317
0.04185614
0.04190862
0.04196054
0.04201182
0.04206233
0.04211194
0.04216049
0.04220785
0.04225396
0.04229893
0.04234298
0.04238628
0.04242895
0.04247102
0.04251251
0.0425534
0.04259356
0.04263281
0.04267133
0.04270937
0.0427471
0.04278459
0.0428218
0.04285868
0.04289513
0.04293112
0.04296666
0.04300179
0.04303658
0.04307111
0.04310549
0.04313979
0.04317409
0.04320846
0.04324294
0.04327757
0.04331237
0.04334734
0.04338249
0.0434178
0.04345325
0.04348882
0.04352448
0.0435602
0.04359594
0.04363166
0.0436677
0.04370381
0.04373967
0.04377519
0.04381029
0.04384495
0.04387911
0.04391273
0.04394578
0.04397821
0.04400998
0.04404107
0.04407145
0.04410109
0.04412998
0.0441581
0.04418544
0.04421201
0.0442378
0.04426283
0.04428712
0.04431069
0.04433357
0.04435579
0.04437741
0.04439845
0.04441898
0.04443905
0.04445871
0.04447803
0.04449708
0.04451593
0.04453465
0.04455331
0.044572
0.0445908
0.0446098
0.0446291
0.04464882
0.04466905
0.04468994
0.04471163
0.04473428
0.04475807
0.04478323
0.04480998
0.04483859
0.04486937
0.04490263
0.04493868
0.04497784
0.04502035
0.04506635
0.04511544
0.04516599
0.04520768
0.007805661
0.009305926
0.01062237
0.01744713
0.02438504
0.03375937
0.04014085
0.04691176
0.0538336
0.06087981
0.06820337
0.07638967
0.08495114
0.09389271
0.1039365
0.121958
0.1310389
0.140425
0.1496095
0.1584875
0.1672845
0.1760643
0.1845709
0.1927307
0.200682
0.2082635
0.2139767
0.2195674
0.2245986
0.2289199
0.2327157
0.236172
0.2392786
0.2419162
0.2440406
0.2456876
0.246921
0.2478043
0.2483929
0.2487339
0.2488738
0.2488628
0.2487586
0.248587
0.2483624
0.2481032
0.2478226
0.2475229
0.2472017
0.2468484
0.2464684
0.2460197
0.2454557
0.2448451
0.2441918
0.243487
0.2427294
0.241912
0.241011
0.2399934
0.2388513
0.2375689
0.2361246
0.2345038
0.2327019
0.2307148
0.2285324
0.2261439
0.2235411
0.2207203
0.2176794
0.214413
0.2109264
0.2072343
0.2033526
0.1992989
0.1950948
0.1907659
0.186337
0.1818308
0.1772676
0.1726672
0.1680505
0.1634387
0.1588516
0.1543072
0.1498196
0.1454021
0.1410632
0.1368115
0.1326596
0.1286128
0.1246724
0.1208417
0.1171243
0.1135233
0.1100404
0.1066766
0.1034329
0.1003096
0.09730719
0.09442619
0.09166705
0.08902997
0.08651458
0.0841199
0.08184419
0.07968499
0.07763896
0.07570207
0.07387024
0.07213936
0.07050478
0.06896122
0.06750301
0.06612434
0.06481942
0.06358251
0.06240817
0.06129124
0.06022685
0.0592106
0.05823852
0.05730717
0.05641333
0.05555428
0.05472752
0.05393082
0.05316259
0.0524219
0.05170796
0.05102011
0.05035795
0.04972135
0.04911031
0.04852491
0.04796532
0.04743186
0.04692499
0.04644525
0.0459932
0.04556951
0.04517477
0.04480952
0.04447394
0.04416776
0.04388971
0.04363719
0.04340834
0.04320326
0.04302213
0.0428638
0.04272672
0.04261013
0.04251412
0.04243866
0.04238298
0.04234632
0.04232761
0.04232524
0.04233725
0.04236146
0.04239554
0.04243711
0.0424839
0.04253401
0.04258547
0.04263573
0.04268149
0.04272202
0.04275607
0.04278096
0.0427932
0.04278928
0.04276603
0.04272095
0.04265348
0.04256509
0.04245779
0.04233328
0.04219294
0.04203817
0.04187056
0.04169188
0.04150404
0.04130896
0.04110864
0.04090502
0.04070004
0.04049553
0.04029321
0.04009464
0.03990123
0.03971419
0.03953453
0.03936311
0.03920055
0.03904734
0.03890375
0.03876995
0.03864595
0.03853162
0.03842677
0.03833109
0.0382442
0.03816569
0.03809509
0.03803192
0.03797566
0.03792583
0.03788191
0.03784344
0.03780995
0.03778103
0.03775627
0.03773529
0.03771777
0.03770339
0.03769186
0.03768293
0.03767636
0.03767194
0.03766948
0.03766882
0.03766981
0.03767232
0.03767623
0.03768137
0.03768759
0.03769475
0.03770274
0.03771148
0.03772092
0.03773102
0.03774175
0.0377531
0.03776508
0.03777771
0.03779103
0.03780505
0.03781977
0.03783535
0.03785221
0.03787055
0.03789009
0.0379107
0.03793239
0.03795518
0.03797913
0.03800429
0.03803073
0.0380585
0.03808763
0.03811818
0.03815016
0.0381836
0.03821849
0.03825482
0.03829256
0.03833168
0.03837212
0.03841379
0.03845663
0.03850053
0.03854539
0.03859109
0.03863751
0.03868455
0.03873206
0.03877994
0.03882807
0.03887635
0.03892468
0.03897298
0.03902113
0.03906905
0.03911648
0.03916316
0.03920898
0.03925399
0.03929826
0.03934188
0.03938494
0.03942755
0.03946984
0.03951193
0.03955398
0.03959611
0.03963845
0.03968112
0.03972423
0.03976789
0.03981217
0.03985715
0.03990288
0.03994946
0.03999681
0.04004497
0.04009396
0.04014374
0.0401943
0.04024559
0.04029762
0.04035041
0.04040405
0.0404587
0.04051465
0.04057231
0.04063223
0.04069503
0.04076122
0.04083094
0.0409038
0.04097918
0.04105655
0.04113555
0.04121592
0.04129747
0.04138005
0.04146354
0.04154785
0.0416329
0.04171861
0.04180493
0.04189177
0.04197905
0.04206669
0.0421546
0.04224267
0.04233078
0.04241881
0.04250664
0.04259411
0.04268108
0.04276741
0.04285295
0.04293755
0.04302111
0.0431035
0.04318462
0.0432644
0.04334275
0.04341958
0.04349472
0.043568
0.04363901
0.04370797
0.0437755
0.04384212
0.04390798
0.04397305
0.04403727
0.04410062
0.0441631
0.0442247
0.04428545
0.04434537
0.04440455
0.04446308
0.04452108
0.04457866
0.04463594
0.04469304
0.04475006
0.04480709
0.04486419
0.04492143
0.04497884
0.04503644
0.04509424
0.04515224
0.04521043
0.04526876
0.04532723
0.04538577
0.04544437
0.04550296
0.04556151
0.04561996
0.04567826
0.04573636
0.0457942
0.04585171
0.04590883
0.04596548
0.04602156
0.04607698
0.04613161
0.04618535
0.04623811
0.04628983
0.0463406
0.04639052
0.04643972
0.04648827
0.04653622
0.04658358
0.04663036
0.0466765
0.04672194
0.04676678
0.0468112
0.04685534
0.04689929
0.04694307
0.0469867
0.04703018
0.04707354
0.04711663
0.04715929
0.04720152
0.04724336
0.04728488
0.04732613
0.04736718
0.04740809
0.0474489
0.04748966
0.0475304
0.04757113
0.04761188
0.04765265
0.04769344
0.04773423
0.04777501
0.04781577
0.04785648
0.04789712
0.04793766
0.04797844
0.04801898
0.04805911
0.04809873
0.04813782
0.04817631
0.04821416
0.04825133
0.04828778
0.04832346
0.04835835
0.0483924
0.0484256
0.04845793
0.04848935
0.04851988
0.04854951
0.04857823
0.04860607
0.04863304
0.04865918
0.0486845
0.04870906
0.0487329
0.04875607
0.04877862
0.04880063
0.04882215
0.04884326
0.04886404
0.04888455
0.04890489
0.04892513
0.04894538
0.04896573
0.04898627
0.04900712
0.0490284
0.04905022
0.04907273
0.04909609
0.04912046
0.04914603
0.04917302
0.04920166
0.04923221
0.04926496
0.04930018
0.04933818
0.04937923
0.04942353
0.04947116
0.04952161
0.04957291
0.04961451
0.002712292
0.009742094
0.01482391
0.02018792
0.02544251
0.03085422
0.03654458
0.04233833
0.04840685
0.05530054