/*--------------------------------*- C++ -*----------------------------------*\
| =========                 |                                                 |
| \\      /  F ield         | foam-extend: Open Source CFD                    |
|  \\    /   O peration     | Version:     3.1                                |
|   \\  /    A nd           | Web:         http://www.extend-project.de       |
|    \\/     M anipulation  |                                                 |
\*---------------------------------------------------------------------------*/
FoamFile
{
    version     2.0;
    format      ascii;
    class       volScalarField;
    location    "4";
    object      omega;
}
// * * * * * * * * * * * * * * * * * * * * * * * * * * * * * * * * * * * * * //

dimensions      [0 0 -1 0 0 0 0];

internalField   nonuniform List<scalar> 
119952
(
147.0675
187.1953
178.4992
156.5611
141.5263
143.6408
147.0505
151.1196
155.6247
160.4532
165.5419
170.8542
176.3753
182.105
188.0539
194.2434
200.7074
207.5033
214.7654
222.9655
186.2349
186.61
189.5114
158.9863
156.7603
155.9368
155.2776
154.5537
152.1076
127.8821
292.8284
236.4759
199.0112
174.1883
156.343
142.5726
131.3124
121.8201
113.6038
104.2865
84.701
72.32562
64.34786
58.69525
54.35337
50.80654
47.78761
45.16922
42.83378
33.39315
31.87891
30.39162
28.97722
27.67566
26.49189
25.41801
24.44329
23.5551
22.74896
22.01769
21.29752
20.59932
19.9271
19.28339
18.66975
18.0833
17.51228
16.95264
16.83317
16.74807
16.52846
16.32063
16.14756
15.99747
15.84458
15.69396
15.55168
15.4198
15.30003
15.19366
15.10141
15.02359
14.96012
14.91029
14.87229
14.84222
14.81168
14.76702
14.71021
14.66122
14.57543
14.46945
14.44585
14.47676
14.5738
14.88816
15.82593
17.27343
17.66449
17.844
17.90862
17.93563
17.9447
17.94615
17.94604
17.94705
17.9502
17.95592
17.96432
17.97526
17.98862
18.00423
18.02189
18.04153
18.06309
18.08658
18.11207
18.13973
18.16978
18.20246
18.23801
18.2766
18.31838
18.36346
18.41191
18.46379
18.51913
18.57796
18.64039
18.70675
18.77748
18.85279
18.93248
19.01633
19.10417
19.19595
19.29164
19.39121
19.49468
19.60202
19.71325
19.8283
19.94701
20.06897
20.19269
20.31029
20.39622
20.49579
20.66871
20.85574
21.05386
21.25395
21.45653
21.65937
21.86175
22.06291
22.26207
22.45897
22.65344
22.84565
23.03503
23.2228
23.41132
23.59906
23.7858
23.97168
24.15698
24.34197
24.52698
24.71223
24.89796
25.08455
25.27234
25.4617
25.65294
25.84641
26.04246
26.24144
26.44371
26.6496
26.85952
27.07388
27.29311
27.51762
27.74786
27.98425
28.22726
28.47738
28.73519
29.00117
29.27482
29.55588
29.84445
30.14042
30.44236
30.73438
30.96215
32.65777
36.00415
38.80219
41.04183
42.81402
44.22709
45.35134
46.28773
47.08893
47.79564
48.43871
49.03637
49.60428
50.1539
50.69245
51.22444
51.75501
52.28954
52.83137
53.38236
53.94415
54.51848
55.10745
55.71249
56.33604
56.97976
57.64344
58.32625
59.02826
59.74944
60.49025
61.24881
62.01845
62.78106
63.40527
62.83045
61.0554
59.45041
57.95758
56.55612
55.22759
53.96009
52.74654
51.58232
50.46449
49.39134
48.36195
47.37528
46.43067
45.5274
44.66451
43.84077
43.05474
42.30469
41.58877
40.90494
40.25113
39.62528
39.02535
38.44937
37.89541
37.36187
36.84732
36.35021
35.86929
35.40345
34.9518
34.5138
34.08848
33.6693
26.8293
26.11014
25.30732
24.49331
23.71273
22.98989
22.33705
21.75748
21.24863
20.80439
20.41685
20.07755
19.7784
19.51227
19.27328
19.05673
18.85894
18.67699
18.50856
18.35176
18.20499
18.06689
17.93628
17.81217
17.69372
17.58025
17.47119
17.36609
17.26457
17.16633
17.07112
16.97873
16.88897
16.8017
16.71678
16.63409
16.55351
16.47496
16.39834
16.32358
16.2506
16.1794
16.10999
16.04254
15.97766
15.91631
15.85843
15.80471
15.75412
15.70617
15.66053
15.61691
15.57502
15.54151
15.5145
15.43348
15.30122
15.12565
14.92891
14.73245
14.54913
14.38578
14.2457
14.12871
14.03241
13.95339
13.88802
13.83297
13.78543
13.74339
13.70541
13.6703
13.63719
13.60549
13.57482
13.54494
13.51566
13.48687
13.45849
13.4305
13.40285
13.37555
13.34859
13.32197
13.29568
13.26973
13.24412
13.21885
13.19392
13.16932
13.14505
13.12111
13.09748
13.07417
13.05117
13.02847
13.00606
12.98393
12.96209
12.94052
12.91921
12.89816
12.87735
12.85679
12.83648
12.81639
12.79653
12.77689
12.75747
12.73826
12.71925
12.70043
12.68181
12.66338
12.64512
12.62704
12.60911
12.59134
12.5737
12.55619
12.53878
12.52147
12.50421
12.48697
12.46972
12.4524
12.43493
12.41721
12.3991
12.38038
12.36074
12.33966
12.31629
12.28904
12.25466
12.20575
12.12546
11.98673
12.14791
295.0998
257.2864
242.244
225.7239
209.0415
193.8344
180.423
168.6537
157.9424
121.8511
90.0367
77.2868
71.12472
67.16123
63.9574
61.07845
58.39298
55.84532
44.07142
40.9845
38.33645
36.15862
34.40376
32.9709
31.7676
30.72629
29.80301
28.96535
28.21688
27.42783
26.62463
25.8375
25.08493
24.37493
23.70821
23.082
22.49135
22.09245
21.76281
21.34114
20.87795
20.3963
19.91084
19.43101
18.96254
18.50891
18.07219
17.65144
17.24537
16.85196
16.46727
16.09125
15.72477
15.36872
15.02429
14.69547
13.17144
12.90137
12.64557
12.40023
12.16271
11.9317
11.70655
11.487
11.27262
11.06297
10.85893
10.66018
10.46594
10.27597
10.09033
9.908953
9.732382
9.563062
9.405608
9.259886
9.115909
8.978318
8.851964
8.735165
8.625224
8.521017
8.422295
8.328755
8.240185
8.156458
8.07746
8.003069
7.933149
7.867521
7.805916
7.74792
7.69295
7.640365
7.589783
7.541524
7.495741
7.452741
7.417312
7.392764
7.379103
7.381254
7.415871
7.476246
7.52761
7.556312
7.578764
7.596898
7.612576
7.626862
7.640305
7.653163
7.665476
7.677189
7.688245
7.6986
7.708231
7.717118
7.725023
7.73196
7.738083
7.743533
7.748442
7.752939
7.757155
7.761216
7.765242
7.769337
7.77359
7.778074
7.782862
7.788005
7.793545
7.79952
7.805963
7.812909
7.820393
7.828435
7.837039
7.846198
7.855902
7.866134
7.876877
7.888109
7.899804
7.911933
7.924463
7.937355
7.950557
7.96398
7.977453
7.990717
8.003599
8.015891
8.028707
8.043624
8.059673
8.076663
8.094616
8.113525
8.133366
8.154107
8.175708
8.198135
8.221369
8.245389
8.270149
8.295593
8.321695
8.348398
8.375618
8.403276
8.431299
8.459622
8.488178
8.516906
8.545744
8.574633
8.603519
8.632351
8.661082
8.689667
8.718068
8.746249
8.774182
8.801843
8.829215
8.856285
8.883049
8.909504
8.935652
8.961499
8.987049
9.012315
9.037302
9.062028
9.086487
9.110702
9.134628
9.158278
9.181412
9.203694
9.223556
9.230677
9.530898
9.90045
10.1679
10.36192
10.50407
10.60944
10.68903
10.75086
10.8005
10.84194
10.8779
10.91024
10.94017
10.96849
10.99569
11.02212
11.04806
11.0737
11.09913
11.1244
11.14948
11.17436
11.19901
11.22338
11.24743
11.27108
11.29419
11.31658
11.33804
11.35828
11.37691
11.39324
11.40596
11.41219
11.40619
11.37923
11.32896
11.27063
11.20874
11.14572
11.08217
11.01833
10.95452
10.89109
10.82838
10.76671
10.70639
10.64741
10.58985
10.53385
10.47952
10.42699
10.37637
10.32774
10.28118
10.23672
10.19438
10.15414
10.11595
10.07974
10.04538
10.01274
9.981668
9.951999
9.923555
9.896149
9.86957
9.843591
9.818074
9.79388
8.845657
8.794247
8.751244
8.713982
8.679438
8.645229
8.609834
8.572405
8.532545
8.490219
8.445686
8.399409
8.35197
8.304004
8.256148
8.208997
8.163065
8.118764
8.07639
8.03612
7.998028
7.962092
7.928228
7.896304
7.866162
7.837634
7.810551
7.784752
7.760092
7.736438
7.713676
7.691707
7.67045
7.649835
7.629804
7.610315
7.591331
7.572828
7.554791
7.53722
7.52013
7.503563
7.48761
7.472446
7.45836
7.445565
7.433529
7.421803
7.410195
7.398619
7.387067
7.375614
7.3644
7.354364
7.344893
7.334652
7.323099
7.309327
7.293003
7.274198
7.253273
7.230767
7.207298
7.183487
7.159885
7.136952
7.11503
7.094332
7.074965
7.056956
7.040276
7.024862
7.010631
6.997487
6.985277
6.973781
6.962872
6.952449
6.942423
6.93277
6.923526
6.914657
6.906126
6.897899
6.889947
6.882242
6.874763
6.867489
6.860405
6.853495
6.846748
6.840152
6.833699
6.827379
6.821186
6.815112
6.809152
6.8033
6.797551
6.7919
6.786344
6.780878
6.775499
6.770203
6.764986
6.759846
6.754779
6.749782
6.744853
6.739987
6.735183
6.730436
6.725744
6.721103
6.716508
6.711956
6.707441
6.702958
6.6985
6.694058
6.689625
6.685187
6.680732
6.676242
6.671694
6.667061
6.662304
6.657374
6.652202
6.646691
6.640699
6.634016
6.626316
6.617094
6.605566
6.590707
6.571445
6.550109
6.535628
403.2348
363.8983
324.2754
294.1944
269.908
249.6863
232.4663
217.6256
204.8501
192.4475
105.7341
95.3969
92.36682
89.19929
85.96152
82.81412
79.84283
77.07092
74.48541
57.07937
52.32905
49.36502
47.65183
46.55599
45.72913
45.02082
44.36698
43.73445
43.08366
41.94024
40.53993
39.27635
38.27264
37.4706
36.78212
36.14624
35.53012
34.91842
34.64943
33.80962
32.8429
31.92257
31.09157
30.34032
29.64817
28.99728
28.37676
27.77552
27.14269
26.47891
25.811
25.16252
24.54417
23.95788
23.40137
22.8743
21.20571
20.74838
20.3126
19.89127
19.48252
19.08684
18.70508
18.33792
17.98539
17.64674
17.3219
17.00953
16.7076
16.41474
16.13018
15.85311
15.58283
15.31875
15.0601
14.80684
14.55904
14.31621
14.07739
13.8419
13.60938
13.37954
13.15231
12.92755
12.70533
12.48602
12.26922
12.05499
11.84362
11.63532
11.43021
11.22833
11.02963
10.83116
10.65692
10.48296
10.30992
10.13782
9.967081
9.798234
9.63165
9.467524
9.305958
9.147031
8.990925
8.837562
8.686922
8.539132
8.39435
8.252832
8.114963
7.981568
7.853612
7.731032
7.611058
7.49388
7.381323
7.273751
7.170331
7.070414
6.973992
6.881282
6.792477
6.70768
6.626923
6.550201
6.477471
6.40865
6.343602
6.282137
6.224022
6.169031
6.117039
6.068158
6.02265
5.980687
5.943667
5.912798
5.888002
5.869342
5.857897
5.857082
5.856167
5.85101
5.845208
5.840553
5.837127
5.834791
5.833383
5.832782
5.832886
5.833595
5.834812
5.836447
5.838423
5.84069
5.843381
5.846448
5.84975
5.85319
5.856711
5.860286
5.863908
5.867587
5.871341
5.875194
5.879171
5.883296
5.887598
5.892101
5.896828
5.901801
5.907043
5.912573
5.918412
5.924571
5.931053
5.937859
5.944983
5.952416
5.960145
5.968155
5.976423
5.984927
5.993639
6.002529
6.011558
6.020681
6.029848
6.038995
6.048096
6.057131
6.066389
6.076194
6.086486
6.097091
6.107933
6.118958
6.130162
6.14161
6.15333
6.16533
6.177617
6.190201
6.203092
6.216296
6.229815
6.243642
6.257763
6.272164
6.286829
6.301742
6.316884
6.332234
6.347768
6.363463
6.37929
6.395223
6.411231
6.427286
6.443357
6.459415
6.475433
6.491384
6.507245
6.522995
6.538615
6.554091
6.569405
6.584551
6.599512
6.614289
6.628862
6.64324
6.657394
6.671346
6.685034
6.698501
6.711624
6.724537
6.73707
6.74922
6.769571
6.781403
6.787767
6.79105
6.792824
6.794073
6.795385
6.797082
6.799322
6.802163
6.805603
6.809605
6.814116
6.819085
6.824463
6.830216
6.836313
6.842728
6.849437
6.856418
6.863647
6.871101
6.878757
6.886584
6.894545
6.90259
6.910653
6.918648
6.926464
6.933956
6.940925
6.947087
6.952045
6.955253
6.956078
6.954039
6.949526
6.943258
6.93552
6.926518
6.916421
6.905341
6.893359
6.880536
6.866927
6.852583
6.837553
6.821892
6.805657
6.788916
6.771744
6.754225
6.73645
6.718517
6.70053
6.682591
6.664801
6.647251
6.630023
6.613182
6.596774
6.580825
6.565345
6.550321
6.535728
6.521529
6.507674
6.494118
6.480711
6.466458
6.478455
6.485408
6.487955
6.487102
6.483508
6.47753
6.469334
6.458993
6.446559
6.432083
6.415646
6.39737
6.37743
6.356047
6.333487
6.310043
6.286019
6.26171
6.237391
6.213295
6.189617
6.166502
6.144052
6.12233
6.101367
6.081167
6.061715
6.042983
6.024936
6.007532
5.990729
5.974488
5.958769
5.943538
5.928764
5.914419
5.900482
5.886937
5.873772
5.860982
5.848572
5.836559
5.824971
5.813859
5.803289
5.793306
5.783812
5.774665
5.765774
5.757079
5.748547
5.740191
5.731983
5.724033
5.716536
5.709207
5.701788
5.694042
5.685771
5.67688
5.667358
5.657252
5.646647
5.635659
5.624418
5.613067
5.601741
5.590561
5.579627
5.569018
5.55879
5.548981
5.539612
5.530688
5.522205
5.514155
5.506526
5.499305
5.492482
5.485983
5.479687
5.473563
5.467661
5.461986
5.456525
5.451263
5.446184
5.441275
5.436525
5.43192
5.427453
5.423113
5.418893
5.414785
5.410783
5.40688
5.403072
5.399353
5.395719
5.392164
5.388687
5.385281
5.381945
5.378674
5.375466
5.372318
5.369226
5.366188
5.363201
5.360262
5.357369
5.354518
5.351707
5.348933
5.346192
5.343481
5.340796
5.338133
5.335485
5.332849
5.330216
5.327579
5.324928
5.32225
5.319532
5.316753
5.313888
5.310907
5.307766
5.304406
5.300746
5.296671
5.29202
5.286569
5.280023
5.272064
5.262479
5.251999
5.243028
249.0504
195.5552
206.2817
96.57506
78.33358
49.76543
45.24613
41.62415
38.47906
37.5579
37.64144
37.72406
36.8051
36.57554
36.56299
36.55779
36.53468
36.48763
36.41417
36.31114
36.17337
35.98116
35.56281
35.05476
34.64614
34.3395
34.09269
33.87698
33.67806
33.48923
33.31745
32.2456
31.95634
31.67156
31.39775
31.14018
30.89888
30.67082
30.45165
30.23775
30.02286
29.79383
29.54368
29.2731
28.98669
28.68808
28.37925
28.06086
27.73364
27.39869
27.05705
26.70232
26.33054
25.94209
25.53977
25.12663
24.70522
24.27748
23.84499
23.40788
22.96529
22.51789
22.06695
21.61425
21.16191
20.712
20.26756
19.82555
19.41514
19.00712
18.60504
18.21041
17.82504
17.4505
17.08786
16.73772
16.40035
16.0757
15.76364
15.46362
15.175
14.89725
14.62981
14.372
14.12307
13.88222
13.64868
13.42166
13.20025
12.98377
12.77182
12.56403
12.35999
12.15932
11.96166
11.76674
11.57434
11.3843
11.19645
11.0107
10.82711
10.64565
10.46642
10.2893
10.11449
9.941491
9.771609
9.604646
9.440341
9.278491
9.119048
8.962042
8.807485
8.655365
8.505683
8.358416
8.213567
8.071158
7.931252
7.793938
7.659342
7.527633
7.399022
7.273787
7.152208
7.03422
6.918927
6.806064
6.696332
6.590093
6.487058
6.386918
6.289714
6.195685
6.105051
6.017949
5.934452
5.854617
5.778473
5.706012
5.637189
5.571926
5.510127
5.451698
5.396591
5.344856
5.296608
5.251968
5.211327
5.175118
5.143353
5.115801
5.092142
5.072051
5.054149
5.037525
5.022274
5.008667
4.996773
4.986504
4.977728
4.970319
4.964161
4.959146
4.955169
4.952127
4.949921
4.94846
4.947669
4.947476
4.947809
4.948605
4.949808
4.951373
4.953261
4.955446
4.957903
4.960617
4.963573
4.966763
4.970179
4.973817
4.977675
4.981753
4.986049
4.990566
4.995305
5.000265
5.005445
5.010842
5.016449
5.022261
5.02827
5.034465
5.040836
5.047371
5.054056
5.060878
5.067823
5.074876
5.082019
5.089238
5.096523
5.103875
5.11132
5.118903
5.12665
5.13458
5.14271
5.151054
5.159594
5.168269
5.177046
5.185905
5.194833
5.20382
5.21286
5.221995
5.231252
5.240637
5.250155
5.259804
5.269584
5.279491
5.28952
5.299664
5.309915
5.320265
5.3307
5.341209
5.351778
5.362392
5.373034
5.38369
5.394343
5.404978
5.41558
5.426137
5.436636
5.447066
5.457418
5.467683
5.477854
5.487925
5.497887
5.507739
5.517471
5.527082
5.536558
5.545902
5.555096
5.564152
5.573039
5.581753
5.590648
5.599446
5.607857
5.615698
5.622941
5.629619
5.635795
5.641537
5.646918
5.651997
5.656841
5.661498
5.666006
5.670397
5.6747
5.678942
5.683147
5.687332
5.691517
5.695716
5.69994
5.704201
5.708505
5.712858
5.717257
5.721685
5.726122
5.730532
5.734862
5.739037
5.74295
5.746468
5.749419
5.751615
5.75287
5.753036
5.752143
5.750387
5.747903
5.744744
5.740955
5.736561
5.731576
5.726002
5.719839
5.713083
5.705736
5.6978
5.689282
5.680193
5.670555
5.660396
5.649754
5.638677
5.627222
5.615452
5.603436
5.591245
5.578951
5.566622
5.554319
5.542096
5.529995
5.518047
5.506272
5.494678
5.483267
5.472038
5.461005
5.450281
5.441847
5.434709
5.428371
5.422431
5.416543
5.41043
5.403869
5.396687
5.38875
5.379954
5.370229
5.359535
5.347869
5.335263
5.321786
5.307535
5.292632
5.277214
5.261425
5.245405
5.229288
5.213191
5.197215
5.181443
5.165937
5.150747
5.135905
5.12143
5.107334
5.093619
5.080283
5.067318
5.054716
5.042465
5.030555
5.018975
5.007716
4.99677
4.986131
4.975796
4.965765
4.956043
4.946639
4.937567
4.928842
4.920474
4.912443
4.90471
4.897238
4.889995
4.882957
4.876109
4.869442
4.862984
4.856781
4.850771
4.844877
4.83902
4.833129
4.827153
4.821061
4.814845
4.808507
4.802048
4.795476
4.788819
4.782117
4.775409
4.768735
4.762136
4.755645
4.749294
4.743105
4.737099
4.731289
4.725685
4.72029
4.715107
4.710132
4.705359
4.700789
4.696405
4.692122
4.687958
4.683935
4.680052
4.676302
4.672678
4.669172
4.665779
4.662493
4.659306
4.656215
4.653213
4.650297
4.647461
4.644702
4.642015
4.639398
4.636847
4.634358
4.631929
4.629557
4.627238
4.624971
4.622752
4.62058
4.618451
4.616364
4.614316
4.612304
4.610327
4.608381
4.606464
4.604574
4.602708
4.600862
4.599032
4.597216
4.595407
4.593602
4.591794
4.589974
4.588136
4.586266
4.584351
4.582375
4.580313
4.578138
4.57581
4.573277
4.570471
4.567301
4.563652
4.559386
4.554377
4.548572
4.542294
4.536644
252.6724
179.7942
142.3847
104.9775
84.82662
60.18579
49.85995
45.22555
40.75206
38.36571
36.51687
34.97063
33.67987
32.74163
32.27465
32.05146
31.26407
31.48301
31.71697
31.98884
32.35746
32.80275
33.22371
33.55411
33.83068
34.05356
34.21971
34.32994
34.38661
34.39225
34.35152
34.27185
34.15865
34.00787
33.82315
33.61576
33.39459
33.16494
32.93053
32.69359
32.46129
32.22458
32.01885
31.80092
31.57427
31.34323
31.11206
30.88266
30.6552
30.42893
30.20321
29.97636
29.74531
29.50783
29.26251
29.00822
28.74341
28.46652
28.17626
27.87182
27.55227
27.21651
26.86414
26.49495
26.10867
25.70545
25.28602
24.8516
24.40371
23.94403
23.47408
22.99544
22.51028
22.02106
21.53023
21.04033
20.55348
20.07224
19.59696
19.13165
18.6783
18.23749
17.80924
17.39411
16.99275
16.60566
16.23297
15.87475
15.5308
15.20086
14.88453
14.5814
14.29101
14.01281
13.74619
13.49045
13.24484
13.00862
12.78096
12.56095
12.34786
12.1411
11.94012
11.74433
11.55319
11.36619
11.18289
11.0029
10.82587
10.65155
10.47968
10.31009
10.14264
9.977227
9.813732
9.652116
9.492253
9.334105
9.177676
9.023018
8.870155
8.719098
8.569863
8.422475
8.276958
8.133337
7.991629
7.851875
7.714141
7.578505
7.445055
7.3139
7.185167
7.058991
6.935507
6.814828
6.696918
6.581452
6.468287
6.35769
6.249877
6.144801
6.042382
5.942692
5.845925
5.752289
5.661925
5.574919
5.491351
5.411289
5.334764
5.261778
5.19231
5.126329
5.063801
5.004711
4.949079
4.896949
4.848367
4.803439
4.76227
4.724826
4.690919
4.660273
4.632528
4.607176
4.583868
4.562549
4.543252
4.52595
4.510542
4.496894
4.484884
4.474401
4.465367
4.457682
4.451238
4.445926
4.44164
4.438279
4.435749
4.433964
4.432843
4.432317
4.432321
4.4328
4.433704
4.434989
4.436619
4.438561
4.440787
4.443273
4.445999
4.448949
4.452111
4.455473
4.459027
4.462766
4.466685
4.470778
4.47504
4.479465
4.484049
4.488783
4.493663
4.498681
4.50383
4.509101
4.514487
4.51998
4.525571
4.531253
4.537019
4.542866
4.548793
4.554807
4.560916
4.567126
4.57344
4.579858
4.586379
4.593004
4.599729
4.606554
4.613479
4.620505
4.627636
4.634872
4.64217
4.649496
4.65683
4.664179
4.671576
4.679031
4.686545
4.694118
4.701744
4.70942
4.71714
4.724896
4.732682
4.740489
4.748308
4.756131
4.763947
4.771747
4.779523
4.787267
4.794972
4.80263
4.810236
4.817786
4.825275
4.832701
4.840061
4.847352
4.854575
4.861726
4.868805
4.87581
4.88274
4.889593
4.896367
4.903058
4.909668
4.916229
4.922761
4.929241
4.935618
4.94185
4.947908
4.953768
4.959417
4.964837
4.970029
4.974993
4.979733
4.984255
4.988568
4.992682
4.99661
5.000364
5.00396
5.007411
5.010735
5.013945
5.017056
5.020073
5.023023
5.02591
5.028738
5.031501
5.034199
5.03681
5.039305
5.04164
5.043759
5.045599
5.047089
5.048165
5.048779
5.048921
5.048618
5.047894
5.046756
5.045205
5.043239
5.040852
5.038032
5.034762
5.031029
5.026821
5.022123
5.016925
5.011223
5.005014
4.998303
4.991102
4.983431
4.975315
4.966791
4.9579
4.948688
4.939208
4.929513
4.919657
4.909691
4.899662
4.88961
4.879574
4.869579
4.859648
4.849797
4.840043
4.830414
4.821113
4.812229
4.803795
4.795775
4.78805
4.780504
4.773026
4.76551
4.757857
4.749973
4.741774
4.733193
4.724182
4.714712
4.704774
4.694384
4.683572
4.672389
4.660892
4.649151
4.637233
4.62521
4.613146
4.601101
4.589128
4.577271
4.565567
4.554046
4.54273
4.531635
4.520774
4.510154
4.49978
4.489653
4.479773
4.47014
4.460751
4.451606
4.442701
4.434037
4.425614
4.417431
4.409494
4.401803
4.394365
4.387179
4.380243
4.373544
4.367068
4.360798
4.354719
4.34882
4.343093
4.337537
4.332157
4.326937
4.321852
4.316874
4.311968
4.307107
4.302269
4.297437
4.292598
4.287751
4.282896
4.278035
4.273175
4.268324
4.263494
4.258698
4.25395
4.249264
4.244653
4.24013
4.235705
4.231386
4.22718
4.223092
4.219125
4.21528
4.211557
4.207955
4.204473
4.201062
4.197733
4.194501
4.191369
4.188332
4.185387
4.182531
4.179761
4.177073
4.174464
4.17193
4.16947
4.167079
4.164756
4.162496
4.160299
4.15816
4.156077
4.154049
4.152073
4.150146
4.148265
4.14643
4.144636
4.142883
4.141168
4.139488
4.137842
4.136227
4.13464
4.133079
4.131541
4.130025
4.128525
4.12704
4.125565
4.124097
4.122631
4.12116
4.119679
4.11818
4.116654
4.115088
4.11347
4.11178
4.109998
4.108093
4.10603
4.103762
4.101232
4.098373
4.09511
4.091383
4.087177
4.082687
4.078587
153.7913
114.6987
161.1788
77.10366
63.38556
49.43827
45.39099
42.07633
38.91222
37.16009
35.52368
33.67619
32.07312
30.76285
29.7266
27.4904
27.38774
27.50558
27.8173
28.32404
28.9413
29.6466
30.39558
31.18117
32.00988
32.85196
33.60433
34.2972
34.92056
35.48389
36.00717
36.50361
36.95321
37.32062
37.59286
37.77549
37.87776
37.90758
37.87191
37.7747
37.62795
37.44159
37.22116
36.97181
36.6974
36.40344
36.09544
35.77767
35.45376
35.12556
34.79741
34.4665
34.13682
33.81483
33.49935
33.18878
32.88342
32.58338
32.28804
31.9968
31.7083
31.42075
31.13181
30.83941
30.54204
30.23796
29.92454
29.59929
29.26012
28.90541
28.53362
28.14267
27.73151
27.29993
26.84801
26.37621
25.88572
25.37848
24.8568
24.32326
23.78055
23.23163
22.67967
22.12792
21.57943
21.03699
20.50293
19.9793
19.46765
18.9695
18.48631
18.01873
17.56693
17.13108
16.71129
16.30763
15.91989
15.54784
15.19102
14.84903
14.52146
14.20783
13.90768
13.62047
13.34566
13.08263
12.83075
12.58936
12.35774
12.13515
11.92093
11.71443
11.51505
11.32217
11.13521
10.95358
10.77678
10.60432
10.43575
10.2707
10.1088
9.949739
9.793252
9.639107
9.48709
9.337017
9.188717
9.042027
8.896834
8.753075
8.610692
8.469632
8.329859
8.19136
8.054137
7.918201
7.783574
7.650299
7.518435
7.388059
7.259258
7.132133
7.006797
6.883363
6.761932
6.642579
6.525314
6.410049
6.296747
6.185541
6.076589
5.969961
5.865701
5.763913
5.664769
5.568457
5.475121
5.384892
5.297884
5.214175
5.133822
5.056855
4.98329
4.913131
4.846384
4.783051
4.723152
4.666723
4.613813
4.564389
4.518423
4.475846
4.436525
4.400275
4.36687
4.336046
4.307594
4.281421
4.257483
4.235725
4.216067
4.198417
4.182671
4.16872
4.156444
4.145723
4.136443
4.128489
4.121753
4.116127
4.111511
4.107808
4.104932
4.102798
4.101332
4.100463
4.100129
4.100272
4.100841
4.10179
4.103077
4.104667
4.106528
4.108632
4.110958
4.113486
4.1162
4.119086
4.122133
4.125332
4.128675
4.132154
4.135764
4.139497
4.14335
4.147315
4.151388
4.155564
4.159837
4.164203
4.168657
4.173195
4.177814
4.182513
4.187292
4.192154
4.197101
4.202134
4.207253
4.212455
4.217739
4.223105
4.228553
4.234082
4.23969
4.245375
4.251134
4.256963
4.262859
4.268822
4.274852
4.28093
4.287011
4.293081
4.299167
4.305279
4.311415
4.317573
4.323746
4.32993
4.336116
4.342299
4.348471
4.354625
4.360754
4.366851
4.37291
4.378926
4.384894
4.39081
4.396672
4.402477
4.408224
4.413913
4.419544
4.425118
4.430637
4.436102
4.441514
4.446877
4.452192
4.45746
4.462684
4.467865
4.473007
4.478116
4.483196
4.488248
4.49326
4.498221
4.503116
4.507929
4.512645
4.517248
4.521724
4.526059
4.530244
4.534269
4.538128
4.541818
4.545335
4.548681
4.551857
4.554867
4.557719
4.560423
4.562978
4.565396
4.567683
4.569856
4.571922
4.573883
4.575742
4.577493
4.57913
4.580637
4.581996
4.583186
4.584184
4.584969
4.585526
4.585849
4.585933
4.585769
4.585347
4.584654
4.583675
4.582393
4.58079
4.578845
4.576538
4.573849
4.57076
4.567254
4.563317
4.558939
4.554113
4.548838
4.543118
4.536963
4.530391
4.523425
4.516093
4.508429
4.500472
4.492261
4.483838
4.475242
4.466511
4.45768
4.448778
4.439829
4.430853
4.421861
4.412867
4.403903
4.395011
4.386235
4.3776
4.369117
4.360772
4.352538
4.344378
4.336248
4.3281
4.319883
4.311551
4.303064
4.29439
4.285506
4.276402
4.267077
4.257543
4.247819
4.237934
4.227918
4.217809
4.207643
4.197456
4.187283
4.177158
4.167107
4.157158
4.147331
4.137645
4.128115
4.118753
4.109567
4.100566
4.091753
4.083133
4.074708
4.066481
4.058451
4.050621
4.042991
4.035562
4.028335
4.021312
4.014493
4.007879
4.00147
3.995261
3.989247
3.983418
3.977767
3.972284
3.966962
3.961797
3.956782
3.951913
3.947179
3.942564
3.938052
3.933627
3.929273
3.924978
3.920728
3.916526
3.912376
3.908272
3.904213
3.900196
3.896221
3.89229
3.888405
3.884571
3.880791
3.877072
3.873417
3.869831
3.866319
3.862883
3.859527
3.856252
3.853061
3.849953
3.846928
3.843984
3.841088
3.83826
3.835507
3.832828
3.830223
3.82769
3.825228
3.822834
3.820507
3.818245
3.816047
3.81391
3.811833
3.809814
3.807851
3.805942
3.804084
3.802278
3.800519
3.798806
3.797138
3.795511
3.793924
3.792376
3.790862
3.789382
3.787933
3.786513
3.785119
3.783749
3.782399
3.781068
3.779753
3.778449
3.777153
3.775862
3.774571
3.773275
3.771967
3.770641
3.769289
3.7679
3.766463
3.764962
3.76338
3.761694
3.759877
3.757897
3.755714
3.753286
3.750568
3.747527
3.744158
3.740601
3.737328
75.23269
45.97894
39.78101
36.26472
34.41693
32.52675
30.95183
29.64906
28.59919
27.42396
24.8411
24.45398
24.15706
23.97467
23.88975
23.89651
24.03136
24.32419
24.78993
25.42799
26.21529
27.14729
28.20727
29.33821
30.53131
31.75922
33.04301
34.26518
35.42627
36.5216
37.515
38.38629
39.15826
39.79561
40.29231
40.66969
40.95132
41.14421
41.22971
41.20901
41.11028
40.9436
40.71977
40.44872
40.13528
39.79384
39.43306
39.0605
38.6823
38.30203
37.92289
37.54768
37.17827
36.8158
36.46027
36.11193
35.77305
35.44552
35.12315
34.80541
34.49069
34.17809
33.86694
33.55619
33.24452
32.93026
32.61074
32.28386
31.94607
31.59582
31.23186
30.85343
30.45902
30.04699
29.61558
29.16215
28.68501
28.18426
27.66124
27.11748
26.5547
25.97521
25.3823
24.77959
24.17083
23.55991
22.95046
22.34591
21.74945
21.16389
20.59156
20.03437
19.49371
18.97046
18.46559
17.97952
17.51208
17.06301
16.63191
16.21827
15.82163
15.44132
15.07675
14.72716
14.39191
14.07046
13.76224
13.46676
13.18351
12.91202
12.65182
12.40241
12.16331
11.93399
11.71392
11.50257
11.29943
11.10397
10.91568
10.73402
10.55849
10.38857
10.22379
10.06369
9.907847
9.755851
9.607333
9.46195
9.319389
9.179356
9.041579
8.905808
8.771812
8.639383
8.508343
8.378538
8.249829
8.122103
7.995273
7.869273
7.744055
7.619595
7.495892
7.372967
7.250864
7.129646
7.009394
6.8902
6.772158
6.655359
6.539877
6.425765
6.31304
6.201743
6.091987
5.983919
5.877669
5.773349
5.67109
5.571077
5.473514
5.378548
5.286319
5.196981
5.110636
5.027354
4.947192
4.870198
4.796412
4.725874
4.658576
4.594511
4.533677
4.47601
4.421489
4.370133
4.321927
4.276809
4.234681
4.195422
4.158895
4.12498
4.093598
4.064696
4.03822
4.014104
3.992274
3.972638
3.955086
3.93948
3.925693
3.9136
3.903079
3.89401
3.886276
3.879765
3.874367
3.86998
3.866506
3.863852
3.861932
3.860667
3.859983
3.859813
3.860095
3.860774
3.861802
3.863135
3.864734
3.866566
3.868605
3.870825
3.873208
3.875736
3.878397
3.881178
3.884071
3.887068
3.890164
3.893351
3.896627
3.899987
3.903428
3.906946
3.910541
3.914208
3.917948
3.92176
3.925643
3.929599
3.93363
3.937737
3.941922
3.946185
3.950523
3.954936
3.959423
3.963983
3.968615
3.973318
3.978089
3.982926
3.987826
3.992786
3.997802
4.002869
4.007984
4.013143
4.018336
4.023516
4.028684
4.033856
4.039034
4.044213
4.049386
4.054548
4.059689
4.064804
4.069884
4.074922
4.079913
4.084851
4.08973
4.094547
4.0993
4.103986
4.108604
4.113154
4.117639
4.122059
4.126418
4.130719
4.134966
4.139163
4.143316
4.147427
4.151503
4.155547
4.159563
4.163557
4.167531
4.171487
4.175426
4.179345
4.183239
4.187101
4.190924
4.194696
4.198407
4.202045
4.205597
4.209052
4.212399
4.215626
4.218726
4.22169
4.224512
4.227187
4.229713
4.232088
4.234316
4.236392
4.238322
4.240107
4.241759
4.243282
4.244678
4.245951
4.247101
4.248129
4.249032
4.249808
4.25045
4.250956
4.251321
4.251543
4.251618
4.251541
4.2513
4.250881
4.25027
4.249449
4.248398
4.247097
4.245525
4.243659
4.241478
4.238961
4.236089
4.232843
4.22921
4.225178
4.220738
4.215888
4.210627
4.204964
4.19891
4.192482
4.185702
4.178597
4.171195
4.163528
4.155629
4.147531
4.139263
4.130853
4.122326
4.113701
4.104993
4.096213
4.087374
4.078491
4.06959
4.060699
4.051856
4.043081
4.034374
4.025729
4.017134
4.008572
4.000022
3.99146
3.982865
3.974215
3.965494
3.956689
3.947794
3.938808
3.929734
3.920583
3.911368
3.902106
3.892816
3.883519
3.874235
3.864986
3.855791
3.846669
3.837637
3.82871
3.819901
3.811223
3.802686
3.794297
3.786063
3.777991
3.770084
3.762347
3.754782
3.747391
3.740177
3.733141
3.726284
3.719609
3.713115
3.706805
3.700677
3.694733
3.688967
3.683378
3.677958
3.672704
3.667608
3.662666
3.657875
3.653229
3.648722
3.644347
3.640094
3.635956
3.631924
3.627992
3.624152
3.620399
3.616729
3.613135
3.609613
3.606157
3.602765
3.599434
3.596161
3.592945
3.589786
3.586684
3.583641
3.580656
3.577731
3.574867
3.572065
3.569327
3.566653
3.564043
3.561498
3.559018
3.556592
3.554209
3.551882
3.549614
3.547403
3.545249
3.543152
3.54111
3.539123
3.537189
3.535308
3.533479
3.531701
3.529971
3.52829
3.526655
3.525066
3.52352
3.522016
3.520552
3.519127
3.517739
3.516386
3.515066
3.513778
3.512518
3.511285
3.510078
3.508892
3.507727
3.50658
3.505448
3.504328
3.503217
3.502113
3.501011
3.499908
3.498798
3.497677
3.496539
3.495377
3.494182
3.492944
3.491652
3.490291
3.488846
3.487296
3.485617
3.483785
3.48177
3.479548
3.477097
3.474417
3.471617
3.469024
89.00067
33.1891
24.6603
22.73304
21.79847
21.30493
21.05433
20.94452
20.9361
21.00827
21.10752
21.20301
21.38161
21.68307
22.12155
22.72181
23.51529
24.54613
25.78633
27.18281
28.69188
30.31899
32.13249
33.8304
35.46698
37.00415
38.38546
39.60508
40.64236
41.48409
42.12226
42.60442
42.88351
42.98148
42.90505
42.7045
42.40534
42.02421
41.55566
41.02327
40.46373
39.88632
39.30118
38.71628
38.13438
37.56846
37.02572
36.5114
36.02923
35.58091
35.1669
34.78675
34.43929
34.12261
33.83434
33.57163
33.33377
33.12248
32.92509
32.73842
32.55885
32.38266
32.20628
32.02624
31.83891
31.64064
31.42063
31.17613
30.90421
30.60468
30.27759
29.92328
29.54132
29.13166
28.69425
28.22714
27.73206
27.21332
26.66745
26.09489
25.50261
24.89675
24.28244
23.66361
23.04424
22.42832
21.81933
21.22036
20.6341
20.06284
19.50845
18.97235
18.4556
17.9589
17.48279