/*--------------------------------*- C++ -*----------------------------------*\
| =========                 |                                                 |
| \\      /  F ield         | foam-extend: Open Source CFD                    |
|  \\    /   O peration     | Version:     3.1                                |
|   \\  /    A nd           | Web:         http://www.extend-project.de       |
|    \\/     M anipulation  |                                                 |
\*---------------------------------------------------------------------------*/
FoamFile
{
    version     2.0;
    format      ascii;
    class       surfaceScalarField;
    location    "4";
    object      phi;
}
// * * * * * * * * * * * * * * * * * * * * * * * * * * * * * * * * * * * * * //

dimensions      [0 3 -1 0 0 0 0];

internalField   nonuniform List<scalar> 
275122
(
-0.00012173
0.0001233453
-5.351421e-08
-1.561766e-06
-0.000110068
0.0001051908
4.068311e-07
4.470465e-06
-0.0001098639
0.000112929
-1.169679e-07
-2.948076e-06
-0.0001237361
0.0001272629
-1.226794e-07
-3.4041e-06
-0.0001364335
0.000137769
-1.3141e-07
-1.204175e-06
-0.0001384959
0.0001385551
-1.260174e-07
6.681546e-08
-0.0001380943
0.0001378441
-1.11372e-07
3.615663e-07
-0.000136921
0.0001365626
-9.923605e-08
4.576209e-07
-0.0001353933
0.0001349765
-8.898906e-08
5.058199e-07
-0.0001336606
0.0001332001
-7.997549e-08
5.404534e-07
-0.00013176
0.0001312608
-7.170112e-08
5.708946e-07
-0.0001297123
0.0001291798
-6.389678e-08
5.963819e-07
-0.0001275374
0.0001269758
-5.690529e-08
6.185386e-07
-0.0001252498
0.0001246623
-5.08087e-08
6.382612e-07
-0.0001228622
0.0001222528
-4.556537e-08
6.54977e-07
-0.0001203906
0.0001197649
-4.11364e-08
6.668909e-07
-0.0001178595
0.0001172277
-3.792279e-08
6.696891e-07
-0.0001153241
0.000114715
-3.956889e-08
6.486616e-07
-0.0001129724
0.0001124778
-6.619614e-08
5.608196e-07
-0.0001115331
0.000111766
-1.941085e-07
-3.882364e-08
-0.0001242271
0.0001290491
-4.208111e-07
-4.401158e-06
-0.0001310343
0.0001313298
-1.098104e-07
-1.856389e-07
-0.0001330347
0.0001340126
-5.344495e-08
-9.244386e-07
-0.0001489822
0.0001546938
1.393541e-07
-5.850977e-06
-0.0001560545
0.0001562818
2.180444e-07
-4.453807e-07
-0.0001579069
0.0001582694
-2.424507e-08
-3.382503e-07
-0.0001586209
0.0001584168
-4.251974e-08
2.466349e-07
-0.0001570731
0.0001558002
-3.135061e-08
1.304252e-06
-0.0001467525
0.0001372888
-4.552709e-08
9.509262e-06
-9.447116e-05
9.702987e-05
2.802797e-09
-2.561519e-06
-7.010357e-05
7.359294e-05
-1.70689e-08
-3.472304e-06
-8.321694e-05
8.656392e-05
9.5041e-09
-3.356485e-06
-9.695431e-05
0.0001004702
1.206162e-08
-3.52798e-06
-0.0001113681
0.000115111
9.379332e-09
-3.752214e-06
-0.0001266806
0.0001306388
7.76251e-09
-3.965946e-06
-0.0001427213
0.0001468185
5.310582e-09
-4.102499e-06
-0.0001592679
0.0001634829
3.77478e-09
-4.218782e-06
-0.0001762549
0.0001805766
3.010893e-09
-4.324703e-06
-0.0001935661
0.0001979224
2.414204e-09
-4.358642e-06
-0.0002109371
0.0002159354
6.376276e-08
-5.062098e-06
3.546174e-06
-0.0001477678
0.0001486496
-2.660202e-10
-4.427689e-06
3.661023e-06
-0.0001511606
0.0001519377
-4.34288e-10
-4.437618e-06
3.798164e-06
-0.000154177
0.0001548771
-6.361678e-10
-4.497597e-06
4.023427e-06
-0.0001567669
0.0001573264
-5.965669e-10
-4.58239e-06
4.168599e-06
-0.0001588724
0.0001593561
-5.039175e-10
-4.651849e-06
4.294097e-06
-0.0001607023
0.0001611296
-4.118768e-10
-4.721006e-06
4.409855e-06
-0.0001623279
0.0001627089
-3.333477e-10
-4.79058e-06
4.457274e-06
-0.0001638295
0.000164212
-2.516682e-10
-4.83954e-06
4.812126e-06
-0.0001652618
0.0001652124
1.025311e-10
-4.762809e-06
3.944225e-06
-0.000677304
0.0006818564
-3.264347e-11
-2.086964e-05
4.229639e-06
3.930928e-06
4.212412e-06
4.4066e-06
-0.0006851619
0.0006879073
3.565709e-12
-2.068254e-05
4.573282e-06
4.395636e-06
4.561697e-06
4.553213e-06
-0.0006905019
0.0006929968
1.690299e-11
-2.081569e-05
4.617183e-06
4.542846e-06
4.607471e-06
4.658482e-06
-0.0006955394
0.0006978908
1.848255e-11
-2.108942e-05
4.719823e-06
4.648881e-06
4.710866e-06
4.753013e-06
-0.0007002026
0.000702436
1.609607e-11
-2.128836e-05
4.782834e-06
4.744448e-06
4.774615e-06
4.820239e-06
-0.0007046335
0.0007067509
1.1174e-11
-2.143109e-05
4.843905e-06
4.812764e-06
4.836712e-06
4.880083e-06
-0.000708834
0.0007108265
5.953119e-12
-2.154554e-05
4.903059e-06
4.87336e-06
4.896574e-06
4.909263e-06
-0.0007127914
0.0007147282
7.843511e-12
-2.161194e-05
4.934509e-06
4.90284e-06
4.928529e-06
4.936965e-06
-0.0007167323
0.0007184629
-3.617835e-11
-2.149534e-05
4.951119e-06
4.931125e-06
4.945574e-06
4.652626e-06
-0.0007198511
0.0007227238
-1.564586e-11
-2.195817e-05
4.894166e-06
4.645431e-06
4.893311e-06
5.120373e-06
-0.0007245962
0.0007259077
-3.723796e-12
-2.168577e-05
5.065693e-06
5.121871e-06
5.066371e-06
5.042365e-06
-0.0007273989
0.0007289802
-1.219237e-11
-2.165808e-05
4.995278e-06
5.043718e-06
4.995454e-06
5.058436e-06
-0.0007305621
0.000732118
-4.032826e-11
-2.174502e-05
5.039501e-06
5.055228e-06
5.035969e-06
5.09495e-06
-0.0007336507
0.0007351317
-2.700825e-11
-2.185339e-05
5.086867e-06
5.092328e-06
5.098319e-06
5.137589e-06
-0.00073657
0.0007379795
8.352667e-12
-2.197023e-05
5.138267e-06
5.145974e-06
5.138927e-06
5.193402e-06
-0.0007393619
0.0007407007
-5.118306e-11
-2.20889e-05
5.192357e-06
5.17979e-06
5.184634e-06
5.310901e-06
-0.0007420177
0.0007432887
-6.617188e-11
-2.240214e-05
5.315692e-06
5.245726e-06
5.258904e-06
5.747155e-06
-0.000744382
0.0007450075
-2.047794e-11
-2.320231e-05
5.854249e-06
5.446583e-06
5.528865e-06
7.077744e-06
-0.0007442515
0.0007408915
9.609139e-12
-2.38926e-05
7.562113e-06
6.31536e-06
6.297322e-06
1.059024e-05
-0.000736206
0.0007436794
2.263877e-11
-1.806362e-05
1.011644e-05
-0.0007501392
0.000751849
1.702517e-11
-1.182626e-05
1.525318e-05
-0.0007518212
0.0007521396
1.745097e-11
-1.557166e-05
1.400505e-05
-0.0007522282
0.0007524645
1.602127e-11
-1.424132e-05
9.005576e-06
-0.0007529274
0.0007545598
7.823132e-12
-1.063796e-05
4.608735e-06
-0.0007571138
0.0007595732
1.532257e-12
-7.068052e-06
3.117472e-06
-0.0007618992
0.0007641501
-9.489726e-13
-5.368276e-06
2.352264e-06
-0.0007663645
0.0007684841
2.114723e-13
-4.471874e-06
1.821292e-06
-0.0007705709
0.0007726045
3.388157e-12
-3.854906e-06
1.460073e-06
-0.00077461
0.0007765842
5.525722e-12
-3.434321e-06
1.203423e-06
-0.0007785472
0.0007804993
5.692019e-12
-3.155575e-06
1.015931e-06
-0.0007824501
0.0007844046
4.983836e-12
-2.970392e-06
8.778706e-07
-0.000786363
0.0007883385
3.950381e-12
-2.853324e-06
7.806518e-07
-0.0007903203
0.0007923346
2.720174e-12
-2.79497e-06
7.240404e-07
-0.0007943545
0.0007964272
1.741782e-12
-2.796769e-06
7.216577e-07
-0.0007985004
0.0008006554
1.311639e-12
-2.876608e-06
8.156376e-07
-0.0008027993
0.0008050659
1.261368e-12
-3.082285e-06
1.122626e-06
-0.0008072974
0.0008096996
1.31071e-12
-3.524886e-06
1.950666e-06
-0.0008119926
0.0008144559
1.335864e-12
-4.413947e-06
4.00727e-06
-0.0008165281
0.000818503
1.348968e-12
-5.982191e-06
6.878744e-06
-0.0008191791
0.0008201175
1.244875e-12
-7.817175e-06
5.132192e-06
-0.000822697
0.0008254955
1.055137e-12
-7.930705e-06
9.571542e-06
-0.0008273476
0.0008283627
6.787887e-13
-1.058665e-05
1.663552e-05
-0.0008251741
0.0008219235
2.431213e-13
-1.33849e-05
7.731603e-06
-0.0008210616
0.000822409
1.992818e-13
-9.078975e-06
2.394511e-06
-0.0008240407
0.0008251376
2.028688e-13
-3.491402e-06
-2.091498e-06
-0.0008258651
0.0008268009
1.09295e-13
1.155711e-06
-9.412425e-06
-0.0008280206
0.0008297424
5.356976e-13
7.690653e-06
-2.931182e-05
-0.0008329946
0.0008455216
1.378798e-12
1.67848e-05
-5.788492e-06
-0.0008589403
0.000860954
2.083157e-12
1.730727e-05
-3.890375e-06
-5.772985e-06
-3.869108e-06
-2.124624e-06
-0.0008609794
0.0008626731
1.057556e-12
6.722777e-06
-2.136711e-06
-2.059799e-06
-2.095296e-06
-1.380438e-06
-0.0008643314
0.0008652097
1.865179e-13
4.28829e-06
-1.230747e-06
-1.350837e-06
-1.204591e-06
-9.502447e-07
-0.0008658468
0.000866596
1.985247e-12
2.961343e-06
-9.246681e-07
-9.305929e-07
-9.050234e-07
-8.331758e-07
-0.0008674513
0.0008683488
2.723926e-12
2.381667e-06
-8.182866e-07
-8.189037e-07
-8.087588e-07
-7.755778e-07
-0.0008692918
0.0008702518
2.002752e-12
2.101246e-06
-7.650603e-07
-7.652382e-07
-7.553486e-07
-7.423078e-07
-0.0008712081
0.0008721567
3.026229e-12
1.998304e-06
-7.380385e-07
-7.35243e-07
-7.313324e-07
-7.359923e-07
-0.0008731013
0.0008740275
4.782756e-12
2.005123e-06
-7.351312e-07
-7.305721e-07
-7.296608e-07
-7.412209e-07
-0.0008749418
0.0008758307
6.166964e-12
2.067873e-06
-7.416892e-07
-7.366825e-07
-7.370996e-07
-7.508885e-07
-0.0008767057
0.0008775526
6.451129e-12
2.15111e-06
-7.519669e-07
-7.470363e-07
-7.481094e-07
-7.62103e-07
-0.0008783861
0.0008791911
5.906197e-12
2.239774e-06
-7.634779e-07
-7.588864e-07
-7.603173e-07
-7.741354e-07
-0.0008799836
0.0008807486
5.13332e-12
2.327602e-06
-7.754712e-07
-7.706972e-07
-7.723679e-07
-7.858937e-07
-0.0008815005
0.0008822251
4.575961e-12
2.41007e-06
-7.875093e-07
-7.800793e-07
-7.811436e-07
-7.962304e-07
-0.0008829381
0.0008836278
4.207411e-12
2.485782e-06
-7.976835e-07
-7.902274e-07
-7.91348e-07
-8.040414e-07
-0.0008843077
0.0008849655
3.932764e-12
2.552645e-06
-8.051828e-07
-8.001325e-07
-8.011186e-07
-8.099688e-07
-0.0008856144
0.0008862448
3.946108e-12
2.608216e-06
-8.107332e-07
-8.08474e-07
-8.094448e-07
-8.153241e-07
-0.0008868686
0.0008874771
4.536175e-12
2.653446e-06
-8.159711e-07
-8.149426e-07
-8.156717e-07
-8.195543e-07
-0.00088808
0.0008886706
2.971785e-12
2.689381e-06
-8.20095e-07
-8.19863e-07
-8.204504e-07
-8.227586e-07
-0.0008892572
0.0008898344
2.876084e-12
2.71614e-06
-8.231134e-07
-8.23487e-07
-8.239708e-07
-8.249858e-07
-0.0008904088
0.0008909767
1.133126e-12
2.734734e-06
-8.252679e-07
-8.260011e-07
-8.26309e-07
-8.264416e-07
-0.0008915431
0.0008921054
8.886668e-13
2.746531e-06
-8.267061e-07
-8.277026e-07
-8.279164e-07
-8.275591e-07
-0.0008926674
0.0008932276
2.126193e-13
2.752989e-06
-8.277102e-07
-8.288609e-07
-8.290437e-07
-8.283182e-07
-0.0008937886
0.0008943494
-5.596915e-13
2.755579e-06
-8.284994e-07
-8.297165e-07
-8.299267e-07
-8.289767e-07
-0.0008949119
0.0008954758
-5.517103e-13
2.755347e-06
-8.292369e-07
-8.303617e-07
-8.306449e-07
-8.295933e-07
-0.0008960419
0.0008966108
1.032928e-12
2.753082e-06
-8.299572e-07
-8.310136e-07
-8.314356e-07
-8.303241e-07
0.0008977584
7.828239e-13
2.749129e-06
-8.307752e-07
-8.316589e-07
-8.320238e-07
-0.0008971827
-8.309472e-07
-0.0008983374
0.0008989209
1.572406e-12
2.743469e-06
-8.313072e-07
-8.321088e-07
-8.326149e-07
-8.31306e-07
-0.0008995081
0.0009001003
1.939963e-12
2.736698e-06
-8.318132e-07
-8.326226e-07
-8.331842e-07
-8.318721e-07
-0.0009006965
0.0009012981
2.283345e-12
2.729574e-06
-8.324487e-07
-8.331117e-07
-8.337012e-07
-8.325017e-07
-0.0009019037
0.000902515
3.146538e-12
2.722548e-06
-8.33149e-07
-8.337819e-07
-8.344002e-07
-8.333045e-07
-0.0009031305
0.0009037516
3.601361e-12
2.715987e-06
-8.340335e-07
-8.345488e-07
-8.352247e-07
-8.343262e-07
-0.0009043768
0.0009050075
3.240504e-12
2.710445e-06
-8.351426e-07
-8.35443e-07
-8.362355e-07
-8.357045e-07
-0.0009056423
0.0009062824
3.678777e-12
2.707462e-06
-8.366128e-07
-8.37115e-07
-8.381913e-07
-8.379538e-07
-0.0009069269
0.0009075774
4.444748e-12
2.708053e-06
-8.391608e-07
-8.400614e-07
-8.413144e-07
-8.41441e-07
-0.0009082328
0.0009088936
4.797526e-12
2.711137e-06
-8.42739e-07
-8.43335e-07
-8.444373e-07
-8.451372e-07
-0.0009095585
0.0009102283
5.083889e-12
2.715638e-06
-8.46484e-07
-8.46354e-07
-8.475379e-07
-8.488265e-07
-0.000910902
0.0009115799
5.439197e-12
2.721417e-06
-8.500858e-07
-8.496188e-07
-8.508129e-07
-8.524295e-07
-0.0009122612
0.0009129462
5.771246e-12
2.728508e-06
-8.536929e-07
-8.530825e-07
-8.543169e-07
-8.56191e-07
-0.0009136342
0.0009143256
6.038881e-12
2.737106e-06
-8.574987e-07
-8.567804e-07
-8.580644e-07
-8.601681e-07
-0.0009150197
0.000915717
6.343578e-12
2.747159e-06
-8.615232e-07
-8.606871e-07
-8.620147e-07
-8.642735e-07
-0.0009164165
0.0009171189
6.741406e-12
2.758321e-06
-8.656826e-07
-8.647162e-07
-8.660903e-07
-8.683906e-07
-0.0009178233
0.0009185304
6.935483e-12
2.770116e-06
-8.698882e-07
-8.687533e-07
-8.702042e-07
-8.722728e-07
-0.000919239
0.0009199507
6.892047e-12
2.781698e-06
-8.739756e-07
-8.726868e-07
-8.744205e-07
-8.758548e-07
-0.0009206634
0.0009213795
6.792781e-12
2.791908e-06
-8.776979e-07
-8.762917e-07
-8.781182e-07
-8.786477e-07
-0.0009220962
0.0009228174
5.587133e-12
2.798537e-06
-8.809433e-07
-8.790072e-07
-8.812158e-07
-8.797668e-07
-0.0009235394
0.0009242684
4.727608e-12
2.796827e-06
-8.828679e-07
-8.801082e-07
-8.831373e-07
-8.774696e-07
-0.0009250004
0.0009257444
5.207282e-12
2.77648e-06
-8.825032e-07
-8.77745e-07
-8.827228e-07
-8.665554e-07
-0.0009265026
0.000927284
4.555202e-12
2.698765e-06
-8.733742e-07
-8.66838e-07
-8.734701e-07
-8.172141e-07
-0.0009280802
0.000928829
3.134154e-12
2.510979e-06
-8.123776e-07
-8.17701e-07
-8.12503e-07
-6.503926e-07
-0.0009293529
0.0009296399
1.971905e-12
2.187359e-06
-5.861844e-07
-6.500258e-07
-5.877965e-07
-4.616679e-07
-0.0009303761
0.0009303319
2.008471e-12
2.010154e-06
-5.250412e-07
-4.573545e-07
-5.218841e-07
-8.7882e-07
-0.0009309865
0.0009317867
7.388854e-12
2.582852e-06
-8.157526e-07
-8.745791e-07
-8.139667e-07
-8.627756e-07
-0.000932307
0.0009329562
-8.210089e-11
2.776945e-06
-8.524069e-07
-8.666156e-07
-8.443071e-07
-8.704573e-07
-0.0009335643
0.0009341566
-7.711846e-11
2.878159e-06
-8.66461e-07
-8.680517e-07
-8.654684e-07
-8.714236e-07
-0.0009346932
0.0009352124
-1.035676e-11
2.956302e-06
-8.694011e-07
-8.682201e-07
-8.663927e-07
-8.849335e-07
-0.0009357285
0.0009362283
-2.923199e-12
3.030349e-06
-8.829162e-07
-8.821419e-07
-8.802102e-07
-8.949375e-07
-0.0009367203
0.0009371985
-2.54477e-12
3.095271e-06
-8.942925e-07
-8.924157e-07
-8.917946e-07
-9.062345e-07
-0.0009376729
0.0009381383
-3.040593e-12
3.154705e-06
-9.061989e-07
-9.038111e-07
-9.038388e-07
-9.166312e-07
-0.0009385992
0.0009390498
-3.765221e-12
3.211595e-06
-9.167136e-07
-9.143863e-07
-9.144654e-07
-9.262341e-07
-0.0009394966
0.0009399321
-4.509123e-12
3.266538e-06
-9.267807e-07
-9.241351e-07
-9.248105e-07
-9.358712e-07
-0.0009403638
0.0009407849
-5.408882e-12
3.321514e-06
-9.371125e-07
-9.341237e-07
-9.354664e-07
-9.454496e-07
-0.0009412025
0.0009416075
-6.656859e-12
3.377301e-06
-9.471652e-07
-9.43979e-07
-9.456757e-07
-9.557224e-07
-0.0009420087
0.0009423983
-7.418743e-12
3.435583e-06
-9.58164e-07
-9.544035e-07
-9.569435e-07
-9.646073e-07
-0.0009427837
0.0009431496
-7.517885e-12
3.495928e-06
-9.668827e-07
-9.640257e-07
-9.662438e-07
-9.729619e-07
-0.000943503
0.000943844
-1.322857e-11
3.554795e-06
-9.774756e-07
-9.702962e-07
-9.750244e-07
-9.877431e-07
-0.0009441871
0.0009445172
-1.382627e-11
3.624218e-06
-9.905032e-07
-9.865943e-07
-9.894721e-07
-1.00006e-06
-0.0009448415
0.0009451508
-1.603451e-11
3.693698e-06
-1.002394e-06
-9.990571e-07
-1.001436e-06
-1.011869e-06
-0.0009454531
0.0009457396
-1.974355e-11
3.763353e-06
-1.013977e-06
-1.010926e-06
-1.013089e-06
-1.023317e-06
-0.0009460184
0.0009462807
-2.354946e-11
3.83322e-06
-1.025277e-06
-1.022438e-06
-1.024456e-06
-1.034568e-06
-0.0009465345
0.0009467713
-2.603859e-11
3.903953e-06
-1.036484e-06
-1.033842e-06
-1.035828e-06
-1.045561e-06
-0.0009469988
0.0009472086
-2.81896e-11
3.975273e-06
-1.04743e-06
-1.045065e-06
-1.046983e-06
-1.056338e-06
-0.0009474084
0.0009475898
-3.078131e-11
4.047207e-06
-1.058263e-06
-1.056024e-06
-1.057938e-06
-1.067668e-06
-0.000947761
0.000947914
-3.139465e-11
4.120263e-06
-1.069474e-06
-1.067101e-06
-1.068946e-06
-1.078121e-06
-0.0009480553
0.0009481772
-3.32403e-11
4.193397e-06
-1.079988e-06
-1.07765e-06
-1.079528e-06
-1.088578e-06
-0.0009482872
0.0009483775
-3.319238e-11
4.266971e-06
-1.090468e-06
-1.088127e-06
-1.090013e-06
-1.098902e-06
0.0009485129
-3.336064e-11
4.341038e-06
-0.0009484553
-1.100775e-06
-1.09849e-06
-1.10038e-06
-1.108955e-06
-0.0009485574
0.0009485814
-3.623901e-11
4.415113e-06
-1.110833e-06
-1.108682e-06
-1.110608e-06
-1.118749e-06
-0.0009485919
0.0009485811
-3.959676e-11
4.489157e-06
-1.120565e-06
-1.118575e-06
-1.120412e-06
-1.128248e-06
-0.0009485563
0.00094851
-4.180736e-11
4.562558e-06
-1.130068e-06
-1.128065e-06
-1.129882e-06
-1.137519e-06
-0.0009484494
0.0009483671
-4.291544e-11
4.635696e-06
-1.139338e-06
-1.137334e-06
-1.139157e-06
-1.146459e-06
-0.00094827
0.000948151
-4.356444e-11
4.70814e-06
-1.148262e-06
-1.146288e-06
-1.148097e-06
-1.155026e-06
-0.0009480169
0.0009478609
-4.538825e-11
4.779542e-06
-1.156817e-06
-1.154883e-06
-1.156694e-06
-1.163167e-06
-0.0009476893
0.0009474958
-4.834681e-11
4.849614e-06
-1.164961e-06
-1.163049e-06
-1.164853e-06
-1.170885e-06
-0.0009472865
0.0009470553
-5.020664e-11
4.918183e-06
-1.172705e-06
-1.170775e-06
-1.172599e-06
-1.1782e-06
-0.0009468082
0.0009465394
-5.179299e-11
4.985209e-06
-1.180061e-06
-1.178107e-06
-1.179988e-06
-1.185053e-06
-0.0009462544
0.000945948
-5.356005e-11
5.05036e-06
-1.186955e-06
-1.184983e-06
-1.1869e-06
-1.191428e-06
-0.000945625
0.0009452812
-5.506083e-11
5.11337e-06
-1.193373e-06
-1.191354e-06
-1.193309e-06
-1.19729e-06
-0.0009449207
0.0009445398
-5.604219e-11
5.173983e-06
-1.199286e-06
-1.197229e-06
-1.199235e-06
-1.202627e-06
-0.0009441419
0.0009437244
-5.716853e-11
5.231977e-06
-1.20463e-06
-1.202594e-06
-1.204603e-06
-1.207397e-06
-0.0009432897
0.0009428363
-5.850656e-11
5.286847e-06
-1.209368e-06
-1.207355e-06
-1.209302e-06
-1.211606e-06
-0.0009423649
0.0009418768
-5.98153e-11
5.338279e-06
-1.213545e-06
-1.211525e-06
-1.213411e-06
-1.214924e-06
-0.0009413702
0.0009408486
-6.096771e-11
5.38624e-06
-1.217449e-06
-1.214845e-06
-1.217319e-06
-1.216654e-06
-0.0009403072
0.000939755
-6.241525e-11
5.429005e-06
-1.221663e-06
-1.216735e-06
-1.221684e-06
-1.220439e-06
-0.000939181
0.0009385998
-6.332403e-11
5.466249e-06
-1.221978e-06
-1.220614e-06
-1.221992e-06
-1.222113e-06
-0.0009379944
0.0009373902
-6.343814e-11
5.496015e-06
-1.223742e-06
-1.222279e-06
-1.223622e-06
-1.222579e-06
-0.0009367572
0.0009361328
-6.301389e-11
5.516419e-06
-1.223425e-06
-1.222775e-06
-1.223206e-06
-1.221162e-06
-0.000935472
0.0009348422
-6.48591e-11
5.514019e-06
-1.220964e-06
-1.221451e-06
-1.220628e-06
-1.215565e-06
-0.0009341751
0.0009335665
-6.369438e-11
5.464757e-06
-1.212534e-06
-1.215984e-06
-1.21201e-06
-1.173939e-06
-0.0009328864
0.0009322155
-5.974002e-11
5.334375e-06
-1.157423e-06
-1.174709e-06
-1.157324e-06
-1.045138e-06
-0.0009316093
0.00093077
-5.973845e-11
4.543861e-06
-8.040951e-07
-1.047343e-06
-8.079722e-07
-3.18415e-07
-0.0002321332
0.0002311017
8.700518e-12
1.349895e-06
-9.234577e-07
-0.0002297177
0.0002292895
-3.271502e-11
1.351663e-06
-9.82023e-07
-0.0002281918
0.000227867
-3.714541e-11
1.306894e-06
-1.003725e-06
-0.0002269935
0.0002267236
-2.323638e-11
1.27365e-06
-1.075664e-06
-0.0002260333
0.0002258334
-7.376148e-11
1.275615e-06
-1.106281e-06
-0.000225293
0.0002251204
-5.253121e-11
1.278971e-06
-1.124954e-06
-0.0002246339
0.0002244813
-5.939842e-11
1.27757e-06
-1.141562e-06
-0.0002240421
0.0002239
-5.87676e-11
1.283753e-06
-1.154887e-06
-0.0002234864
0.0002233519
-5.893094e-11
1.289505e-06
-1.163802e-06
-0.0002229538
0.0002228231
-6.310784e-11
1.29458e-06
-1.171795e-06
-0.0002224349
0.0002223067
-6.93198e-11
1.300044e-06
-1.176426e-06
-0.0002219224
0.0002217949
-7.551329e-11
1.304049e-06
-1.179576e-06
-0.0002214118
0.0002212837
-7.147339e-11
1.307669e-06
-1.181731e-06
-0.0002209001
0.0002207714
-6.633211e-11
1.310456e-06
-1.18266e-06
-0.0002203865
0.0002202568
-6.041345e-11
1.312408e-06
-1.182545e-06
-0.00021987
0.000219739
-6.55842e-11
1.31355e-06
-1.181632e-06
-0.0002193495
0.0002192172
-6.670916e-11
1.314087e-06
-1.180387e-06
-0.0002188247
0.0002186907
-5.923945e-11
1.314414e-06
-1.178661e-06
-0.000218295
0.0002181593
-5.897127e-11
1.314479e-06
-1.17628e-06
-0.0002177601
0.0002176224
-6.191433e-11
1.31408e-06
-1.173312e-06
-0.0002172198
0.0002170799
-6.42407e-11
1.313216e-06
-1.169768e-06
-0.0002166739
0.0002165318
-5.906418e-11
1.311886e-06
-1.165752e-06
-0.0002161226
0.0002159783
-5.65503e-11
1.310182e-06
-1.161132e-06
-0.0002155662
0.0002154194
-4.032069e-11
1.307994e-06
-1.15656e-06
-0.0002150044
0.0002148554
3.387439e-11
1.305506e-06
-1.15323e-06
-0.0002144374
0.0002142879
4.724903e-11
1.302731e-06
-1.152134e-06
-0.0002138655
0.0002137184
-4.351948e-11
1.299287e-06
-1.152579e-06
-0.0002132902
0.0002131482
-1.03808e-10
1.294744e-06
-1.151281e-06
-0.0002127145
0.0002125778
-9.141405e-11
1.28812e-06
-1.14554e-06
-0.000212143
0.0002120101
-6.75504e-11
1.278418e-06
-1.137118e-06
-0.00021158
0.0002114522
-4.489286e-11
1.265013e-06
-1.126426e-06
-0.000211034
0.0002109151
-3.889966e-11
1.245338e-06
-1.110913e-06
-0.0002105214
0.0002104191
-4.942615e-11
1.213258e-06
-1.08359e-06
-0.0002100812
0.0002100151
-5.979496e-11
1.149778e-06
-9.614254e-07
-0.0002098327
0.0002098418
-6.106241e-11
9.524072e-07
8.162402e-08
-0.0002099249
0.0002096462
-3.060101e-11
1.97117e-07
6.848702e-07
-0.0002088188
0.0002086246
-3.817172e-11
-4.906272e-07
7.913196e-07
-0.0002080143
0.0002078224
-2.087927e-11
-5.993395e-07
8.287413e-07
-0.0002072927
0.0002071218
-2.047552e-11
-6.577657e-07
8.49844e-07
-0.0002066145
0.0002064457
-2.340565e-11
-6.810134e-07
8.628344e-07
-0.0002059409
0.0002057725
-3.129534e-11
-6.943949e-07
8.705148e-07
-0.0002052664
0.0002050966
-3.647413e-11
-7.006361e-07
8.743268e-07
-0.0002045848
0.0002044127
-3.986151e-11
-7.021665e-07
8.753968e-07
-0.0002038931
0.0002037182
-4.333178e-11
-7.004124e-07
8.738797e-07
-0.0002031897
0.0002030118
-5.666811e-11
-6.959166e-07
8.70609e-07
-0.0002024742
0.0002022929
-6.527495e-11
-6.893024e-07
8.648345e-07
-0.000201746
0.0002015614
-6.373592e-11
-6.801629e-07
8.574502e-07
-0.0002010028
0.0002008143
-6.509957e-11
-6.689552e-07
8.48802e-07
-0.0002002444
0.0002000521
-6.415669e-11
-6.565133e-07
8.388792e-07
-0.0001994706
0.0001992744
-6.664773e-11
-6.426247e-07
8.277341e-07
-0.0001986808
0.0001984805
-6.540003e-11
-6.273989e-07
8.156339e-07
-0.0001978743
0.0001976697
-6.268881e-11
-6.109881e-07
8.025856e-07
-0.0001970505
0.0001968415
-6.225055e-11
-5.934997e-07
7.887252e-07
-0.0001962087
0.0001959952
-6.14641e-11
-5.750829e-07
7.742056e-07
-0.0001953485
0.0001951303
-5.849875e-11
-5.558606e-07
7.590838e-07
-0.0001944694
0.0001942464
-5.747497e-11
-5.359473e-07
7.435111e-07
-0.0001935711
0.0001933431
-5.75597e-11
-5.155421e-07
7.275435e-07
-0.0001926533
0.0001924204
-5.350123e-11
-4.946537e-07
7.112425e-07
-0.0001917157
0.000191478
-4.782772e-11
-4.734658e-07
6.948081e-07
-0.0001907586
0.0001905159
-4.299992e-11
-4.520974e-07
6.780499e-07
-0.0001897817
0.0001895343
-4.594169e-11
-4.305236e-07
6.61346e-07
-0.0001887858
0.0001885334
-4.594962e-11
-4.089011e-07
6.442083e-07
-0.0001877708
0.0001875138
-3.873336e-11
-3.87215e-07
6.271575e-07
-0.0001867374
0.0001864759
-3.272262e-11
-3.656407e-07
6.101175e-07
-0.0001856861
0.0001854203
-2.837452e-11
-3.442489e-07
5.930695e-07
-0.0001846176
0.0001843476
-2.173201e-11
-3.230574e-07
5.758657e-07
-0.0001835324
0.0001832582
2.545228e-12
-3.016547e-07
5.592147e-07
-0.0001824317
0.0001821538
-8.746765e-12
-2.813708e-07
5.440158e-07
-0.000181319
0.0001810369
-3.152409e-12
-2.619352e-07
5.777626e-07
-0.0001801862
0.0001798532
8.301182e-11
-2.449068e-07
3.972644e-07
-0.0001779509
0.000718747
-4.322174e-11
4.260525e-07
-1.55824e-07
3.97284e-07
-1.636691e-07
-0.0001779543
-0.0001818705
-0.0001818723
1.348575e-07
-0.0007181559
0.0007163811
-4.503087e-11
9.095416e-07
3.057635e-07
1.254763e-07
2.992339e-07
2.32636e-07
-0.0007146704
0.0007126658
-4.382877e-11
9.632696e-07
2.934268e-07
2.270689e-07
2.882701e-07
2.818558e-07
-0.0007106381
0.0007084458
-4.10731e-11
1.010844e-06
3.130888e-07
2.775263e-07
3.090072e-07
2.893964e-07
-0.0007062374
0.0007039612
-3.774041e-11
1.095853e-06
3.042726e-07
2.85832e-07
3.008277e-07
2.931684e-07
-0.0007016904
0.000699379
-3.228036e-11
1.125782e-06
3.0257e-07
2.902185e-07
2.997257e-07
3.012605e-07
-0.000697063
0.0006947093
-2.448686e-11
1.140481e-06
3.076944e-07
2.988661e-07
3.053965e-07
3.095256e-07
-0.0006923448
0.0006899471
-1.597641e-11
1.15496e-06
3.136496e-07
3.076293e-07
3.11996e-07
3.161208e-07
-0.0006875347
0.000685093
-7.991624e-12
1.174261e-06
3.190625e-07
3.14581e-07
3.176581e-07
3.21251e-07
-0.0006826359
0.0006801529
-1.213035e-12
1.195614e-06
3.236627e-07
3.199981e-07
3.224224e-07
3.24471e-07
-0.0006776565
0.0006751391
4.695911e-12
1.217696e-06
3.262688e-07
3.235425e-07
3.254286e-07
3.253772e-07
-0.0006726116
0.0006700681
8.872298e-12
1.240585e-06
3.267395e-07
3.24687e-07
3.261231e-07
3.240109e-07
-0.0006675187
0.0006649583
1.168872e-11
1.263329e-06
3.249439e-07
3.235162e-07
3.245151e-07
3.206027e-07
-0.0006623965
0.0006598288
1.256376e-11
1.284862e-06
3.211873e-07
3.20254e-07
3.208727e-07
3.154532e-07
-0.0006572635
0.0006546968
1.279349e-11
1.304939e-06
3.156668e-07
3.152121e-07
3.154484e-07
3.088892e-07
-0.0006521359
0.0006495771
1.31706e-11
1.323596e-06
3.088282e-07
3.087478e-07
3.086843e-07
3.01245e-07
-0.0006470268
0.0006444814
1.324964e-11
1.34108e-06
3.009601e-07
3.01163e-07
3.008636e-07
2.928766e-07
-0.0006419463
0.0006394184
1.249117e-11
1.35746e-06
2.924066e-07
2.928031e-07
2.923531e-07
2.840319e-07
-0.0006369018
0.0006343941
1.164616e-11
1.37275e-06
2.834586e-07
2.840082e-07
2.834518e-07
2.749248e-07
-0.0006318985
0.000629413
1.073914e-11
1.386918e-06
2.742967e-07
2.749469e-07
2.74313e-07
2.658459e-07
-0.0006269402
0.0006244786
1.03082e-11
1.399553e-06
2.651767e-07
2.658524e-07
2.651697e-07
2.56974e-07
-0.0006220299
0.0006195932
9.987241e-12
1.410004e-06
2.563024e-07
2.570121e-07
2.56325e-07
2.485072e-07
-0.0006171697
0.0006147592
9.416458e-12
1.417737e-06
2.478296e-07
2.485738e-07
2.478741e-07
2.405712e-07
-0.000612362
0.0006099785
8.91972e-12
1.422354e-06
2.398947e-07
2.406812e-07
2.400163e-07
2.331218e-07
-0.0006076085
0.0006052533
7.773036e-12
1.423932e-06
2.324822e-07
2.331363e-07
2.325064e-07
2.262412e-07
-0.000602912
0.000600586
7.000288e-12
1.422181e-06
2.257104e-07
2.261967e-07
2.256369e-07
2.198344e-07
-0.0005982743
0.0005959789
6.475618e-12
1.417108e-06
2.193285e-07
2.198515e-07
2.1933e-07
2.140623e-07
-0.0005936979
0.0005914339
5.994177e-12
1.408581e-06
2.13628e-07
2.14086e-07
2.136535e-07
2.0892e-07
-0.0005891846
0.000586953
5.583297e-12
1.396625e-06
2.085224e-07
2.089454e-07
2.085581e-07
2.043445e-07
-0.0005847365
0.0005825384
4.820498e-12
1.381339e-06
2.040255e-07
2.043676e-07
2.040446e-07
2.003415e-07
-0.0005803556
0.0005781919
4.169381e-12
1.362817e-06
2.000757e-07
2.003604e-07
2.000933e-07
1.969289e-07
-0.0005760437
0.0005739152
3.608052e-12
1.341089e-06
1.96729e-07
1.969606e-07
1.967487e-07
1.940555e-07
-0.0005718026
0.0005697102
3.231272e-12
1.316379e-06
1.939151e-07
1.940865e-07
1.939264e-07
1.917167e-07
-0.0005676339
0.0005655783
2.771775e-12
1.288852e-06
1.916156e-07
1.917222e-07
1.916236e-07
1.898782e-07
-0.000563539
0.0005615209
2.277269e-12
1.258647e-06
1.898433e-07
1.898963e-07
1.898624e-07
1.884977e-07
-0.0005595191
0.0005575389
1.774913e-12
1.226078e-06
1.885265e-07
1.885269e-07
1.885435e-07
1.875613e-07
-0.0005555752
0.0005536333
1.443455e-12
1.19149e-06
1.87631e-07
1.875666e-07
1.876247e-07
1.869822e-07
-0.0005517079
0.0005498044
1.301376e-12
1.155283e-06
1.870921e-07
1.869993e-07
1.871e-07
1.866796e-07
-0.0005479174
0.0005460522
1.085615e-12
1.118127e-06
1.868014e-07
1.867136e-07
1.868238e-07
1.865273e-07
-0.0005442034
0.0005423759
8.806287e-13
1.081022e-06
1.866351e-07
1.865956e-07
1.867005e-07
1.862215e-07
-0.0005405643
0.0005387735
5.861429e-13
1.045802e-06
1.86305e-07
1.862219e-07
1.863036e-07
1.853092e-07
-0.000536998
0.0005352413
9.593358e-14
1.015463e-06
1.853611e-07
1.852638e-07
1.853005e-07
1.82594e-07
-0.0005334988
0.0005317719
-1.031796e-13
9.96598e-07
1.825322e-07
1.825918e-07
1.825178e-07
1.751666e-07
-0.0005300566
0.0005283521
-2.651325e-13
1.004485e-06
1.748459e-07
1.751743e-07
1.748534e-07
1.518733e-07
-0.0005266574
0.0005249818
-5.893198e-13
1.075773e-06
1.480173e-07
1.518891e-07
1.48035e-07
6.971912e-08
-0.0005233471
0.000521851
-1.092304e-12
1.292975e-06
3.183104e-08
6.971261e-08
3.180768e-08
-2.494838e-09
-0.0005204292
0.0005190123
-1.319219e-12
1.424834e-06
-1.425044e-09
-2.526003e-09
-1.458867e-09
-8.192792e-09
-0.0005175974
0.000516197
-1.387873e-12
1.431894e-06
-7.541681e-09
-8.213749e-09
-7.56424e-09
-8.356762e-09
-0.0005148067
0.0005134332
-1.589215e-12
1.405435e-06
-7.584873e-09
-8.37648e-09
-7.607468e-09
-5.61873e-09
-0.0005120717
0.0005107301
-1.826457e-12
1.362758e-06
-4.952303e-09
-5.638217e-09
-4.974547e-09
-2.188715e-09
-0.0005094027
0.0005080975
-2.06176e-12
1.311874e-06
-1.152128e-09
-2.21387e-09
-1.178137e-09
1.989222e-09
-0.0005068056
0.0005055294
-2.333009e-12
1.258914e-06
6.680861e-09
1.953573e-09
6.662251e-09
-2.679402e-09
-0.0005042643
0.0005030397
-2.851718e-12
1.185664e-06
2.220854e-08
-2.720703e-09
2.220641e-08
-8.977328e-08
-0.0005019858
0.0005011247
-3.105013e-12
9.702975e-07
3.523235e-08
-9.011802e-08
3.548381e-08
1.834699e-08
-0.0005001253
0.0004984811
-3.119312e-12
1.64919e-06
-2.18932e-08
1.91285e-08
-2.057818e-08
-4.966829e-08
-0.0004971338
0.0004960949
-3.237805e-12
1.354925e-06
-1.111137e-07
-4.643553e-08
-1.088333e-07
-6.878784e-08
-0.0004951237
0.0004941943
-3.584194e-12
1.21964e-06
-7.760915e-08
-6.743084e-08
-7.646633e-08
-4.700545e-08
-0.0004932666
0.0004923625
-3.869794e-12
1.089315e-06
-4.629463e-08
-4.625776e-08
-4.566279e-08
-1.927068e-08
-0.0004914504
0.0004905465
-4.033159e-12
9.714183e-07
-1.486951e-08
-1.888164e-08
-1.454599e-08
8.082798e-09
-0.0004896356
0.0004887391
-3.753925e-12
8.54783e-07
1.259955e-08
8.266797e-09
1.277751e-08
3.233968e-08
-0.0004878428
0.0004869612
-3.696515e-12
7.433027e-07
3.665427e-08
3.250001e-08
3.681381e-08
5.381972e-08
-0.0004860835
0.0004852225
-3.829713e-12
6.38022e-07
5.755804e-08
5.395612e-08
5.769211e-08
7.288569e-08
-0.0004843689
0.0004835339
-3.836522e-12
5.367802e-07
7.611061e-08
7.30058e-08
7.623104e-08
8.982884e-08
-0.0004827089
0.0004819045
-4.108247e-12
4.395237e-07
9.251619e-08
8.994445e-08
9.263167e-08
1.045843e-07
-0.0004811134
0.0004803448
-4.146313e-12
3.44869e-07
1.07216e-07
1.046955e-07
1.073255e-07