/*--------------------------------*- C++ -*----------------------------------*\
| =========                 |                                                 |
| \\      /  F ield         | foam-extend: Open Source CFD                    |
|  \\    /   O peration     | Version:     3.1                                |
|   \\  /    A nd           | Web:         http://www.extend-project.de       |
|    \\/     M anipulation  |                                                 |
\*---------------------------------------------------------------------------*/
FoamFile
{
    version     2.0;
    format      ascii;
    class       volScalarField;
    location    "9.5";
    object      omega;
}
// * * * * * * * * * * * * * * * * * * * * * * * * * * * * * * * * * * * * * //

dimensions      [0 0 -1 0 0 0 0];

internalField   nonuniform List<scalar> 
119952
(
282.7897
351.4916
327.9591
283.7053
253.5027
254.2264
258.3464
264.4707
272.0081
280.6037
290.0123
300.0117
310.2833
320.7359
331.3325
342.0124
352.69
363.2832
373.7892
384.6042
319.7655
315.4867
313.1838
255.8479
236.9984
188.7643
186.7176
202.3019
213.6982
148.2309
670.8748
559.6593
473.2668
411.7756
366.4125
331.6442
303.9209
281.2123
262.072
240.4978
199.7886
171.4865
151.9964
137.7557
126.7132
117.7737
110.3332
104.0382
98.60205
76.62134
73.50235
70.49856
67.66033
65.05931
62.71648
60.64346
58.80968
57.1984
55.80572
54.66405
53.64385
52.75647
52.01858
51.43584
50.99853
50.66798
50.37622
50.04713
50.67737
51.18875
50.61455
49.94744
49.11574
48.16066
46.90696
45.45387
43.91058
42.36375
40.88065
39.50602
38.25893
37.15183
36.19982
35.4164
34.81144
34.39185
34.14936
34.05745
34.08901
34.61117
35.53095
37.10078
41.50484
51.80778
63.59025
76.24596
89.13319
100.6045
105.8623
100.9915
84.03612
64.88388
50.58577
41.90475
36.22283
31.79757
28.3711
25.71647
23.61047
21.97397
20.73838
19.82644
19.16211
18.6825
18.34435
18.11734
17.97496
17.89272
17.85048
17.83287
17.82846
17.82873
17.82721
17.81921
17.80178
17.77358
17.73468
17.6863
17.63052
17.56995
17.50742
17.44566
17.38711
17.33374
17.28873
17.25851
17.23484
17.21601
17.20138
17.19055
17.18396
17.18219
17.18597
17.19623
17.21418
17.24197
17.30488
17.9148
18.53783
18.89712
19.1045
19.23663
19.33329
19.41407
19.48847
19.56073
19.63298
19.70602
19.78002
19.85494
19.93097
20.00924
20.09134
20.17391
20.25551
20.33581
20.41456
20.49176
20.56757
20.64226
20.71611
20.7895
20.86285
20.93672
21.01169
21.08839
21.16745
21.24958
21.33554
21.42617
21.52257
21.62682
21.74642
21.8923
22.05911
22.24386
22.44541
22.66335
22.89754
23.14764
23.41322
23.69254
23.98794
24.30083
24.62032
24.93549
25.18498
28.57871
33.19082
35.69912
37.15853
38.07696
38.72469
39.23662
39.65617
40.03371
40.38326
40.71678
41.04774
41.38296
41.71169
42.03829
42.37093
42.71219
43.0626
43.42285
43.79365
44.17576
44.56989
44.97688
45.39794
45.83421
46.28669
46.75661
47.24492
47.75289
48.2813
48.82961
49.40084
49.97996
50.55134
51.06288
50.73973
49.67544
48.79083
48.00594
47.29831
46.64559
46.03301
45.451
44.89377
44.35789
43.84099
43.3416
42.85835
42.3903
41.93665
41.49674
41.06995
40.65576
40.2537
39.86332
39.48412
39.11567
38.75755
38.40934
38.07065
37.74104
37.42028
37.10823
36.80437
36.50846
36.22027
35.9394
35.66491
35.39902
35.13389
28.06192
27.51616
26.93181
26.33099
25.77759
25.29307
24.88383
24.54786
24.27802
24.06536
23.89987
23.77181
23.67275
23.59627
23.53755
23.4929
23.4594
23.43467
23.41675
23.40403
23.39516
23.38897
23.38454
23.38104
23.37774
23.37396
23.36899
23.36215
23.35278
23.34028
23.32403
23.30348
23.27807
23.24731
23.21073
23.16782
23.11819
23.06146
22.9973
22.92555
22.84646
22.76082
22.66818
22.56966
22.46871
22.37048
22.27088
22.16476
22.05344
21.93673
21.81497
21.68956
21.56126
21.43638
21.36389
21.20917
21.04558
20.87055
20.68303
20.4855
20.28094
20.07286
19.86455
19.65873
19.45779
19.26332
19.07621
18.89693
18.72568
18.5624
18.4069
18.25885
18.11781
17.98327
17.85468
17.73154
17.61343
17.49999
17.39093
17.28598
17.18487
17.08739
16.99332
16.90247
16.81466
16.72974
16.64758
16.56805
16.49105
16.41645
16.34416
16.27408
16.20609
16.14009
16.07597
16.01362
15.95293
15.89378
15.83605
15.77963
15.72441
15.67026
15.61706
15.56471
15.51311
15.46215
15.41175
15.36181
15.31228
15.26306
15.21411
15.16537
15.1168
15.06837
15.02005
14.97183
14.92368
14.87561
14.8276
14.77964
14.73173
14.68385
14.63597
14.58807
14.54007
14.49189
14.44339
14.39439
14.34459
14.29365
14.24096
14.18554
14.1256
14.05812
13.97631
13.86541
13.69281
13.42215
13.36739
777.9444
633.8764
554.724
501.2041
459.0648
423.4694
392.5057
365.2577
340.0008
284.6543
227.1842
191.939
168.9015
152.8947
141.1084
131.9668
124.5588
118.3073
92.93409
88.46045
84.20245
80.26055
76.69579
73.51424
70.6945
68.18546
65.94339
63.91843
62.12511
60.42137
58.72135
57.02557
55.34096
53.67917
52.05069
50.4644
48.92716
47.70415
46.71673
45.63272
44.50413
43.36878
42.25107
41.16853
40.13191
39.14753
38.22069
37.35225
36.53564
35.76669
35.03986
34.35213
33.70382
33.09676
32.53232
32.01602
28.90118
28.52659
28.18463
27.87258
27.58854
27.33066
27.09768
26.88857
26.70215
26.53764
26.39704
26.28183
26.18928
26.10952
26.04274
25.99514
25.97931
25.99525
26.03154
26.09851
26.13978
26.10285
26.00793
25.84943
25.61173
25.28816
24.8889
24.42953
23.92895
23.4071
22.88328
22.37491
21.89422
21.4488
21.04647
20.69588
20.40537
20.18261
20.03802
19.99506
20.08509
20.34851
20.90938
21.9568
23.62832
26.09877
29.67883
34.47957
40.67241
47.50891
54.64335
61.03714
65.06072
66.1786
62.92142
55.36648
46.44856
38.49447
32.25193
27.64426
24.27453
21.71571
19.7163
18.12912
16.86182
15.84982
15.04215
14.39698
13.87921
13.46031
13.11728
12.83157
12.58833
12.37591
12.18564
12.0116
11.85008
11.69914
11.55816
11.42747
11.30791
11.20059
11.10654
11.02661
10.96142
10.91053
10.86872
10.83252
10.79982
10.76909
10.73913
10.70898
10.67796
10.64565
10.61186
10.57666
10.54046
10.50591
10.48145
10.46566
10.45305
10.44011
10.42568
10.40978
10.39281
10.37522
10.35732
10.33935
10.32141
10.30351
10.28561
10.26765
10.24957
10.23127
10.2127
10.19381
10.17458
10.15501
10.13515
10.11505
10.09475
10.07429
10.0537
10.03305
10.01238
9.991747
9.971231
9.950913
9.93091
9.911374
9.892507
9.87457
9.857893
9.842855
9.829742
9.818706
9.809813
9.803107
9.798635
9.796459
9.796671
9.799421
9.804944
9.813566
9.825469
9.8407
9.857944
9.86567
10.29405
10.70116
10.94471
11.10748
11.2258
11.31724
11.39213
11.45583
11.5114
11.56063
11.60453
11.64371
11.6783
11.70824
11.73357
11.75451
11.77129
11.78415
11.7933
11.79897
11.80137
11.80073
11.79725
11.79117
11.7827
11.77206
11.75943
11.74497
11.72881
11.71097
11.6913
11.66935
11.64406
11.61282
11.57015
11.50998
11.44307
11.37483
11.30563
11.23615
11.1672
11.09935
11.03307
10.9686
10.90607
10.84547
10.78672
10.72968
10.67419
10.62011
10.56729
10.51562
10.46502
10.41541
10.36675
10.31902
10.27221
10.22631
10.18133
10.13728
10.0942
10.05209
10.011
9.970964
9.932016
9.894207
9.857588
9.822265
9.788335
9.757275
8.716508
8.665595
8.625469
8.591673
8.561496
8.533729
8.507892
8.483739
8.461159
8.440172
8.420874
8.403364
8.387734
8.374063
8.362413
8.352831
8.345347
8.339975
8.336713
8.335542
8.336431
8.339335
8.344196
8.350943
8.359492
8.369743
8.381581
8.394883
8.409507
8.425302
8.442099
8.459723
8.477982
8.496676
8.515591
8.534504
8.553185
8.571402
8.588923
8.605523
8.620969
8.635096
8.647793
8.658986
8.668549
8.676218
8.681386
8.683684
8.68299
8.679223
8.672175
8.661678
8.648186
8.633438
8.616043
8.591788
8.562127
8.528846
8.492527
8.453231
8.411027
8.365919
8.318051
8.267674
8.215022
8.160361
8.103982
8.046185
7.987273
7.927541
7.867277
7.806756
7.746232
7.685938
7.626091
7.566891
7.508522
7.45115
7.39492
7.339955
7.286358
7.234211
7.183578
7.134506
7.087026
7.041155
6.996897
6.954246
6.913184
6.873686
6.835717
6.799237
6.764197
6.730544
6.698221
6.667167
6.637317
6.608604
6.580958
6.554312
6.528592
6.50373
6.479653
6.456294
6.433585
6.411461
6.389859
6.36872
6.347987
6.327607
6.307531
6.287716
6.268119
6.248706
6.229445
6.210306
6.191269
6.172308
6.153411
6.134558
6.115739
6.096935
6.078138
6.059319
6.040469
6.021534
6.002494
5.98325
5.963745
5.943781
5.923195
5.901551
5.878384
5.852754
5.823646
5.790077
5.752523
5.715947
5.68315
662.2817
579.7168
513.1757
464.6463
428.1278
400.2459
378.7822
362.7097
351.3834
336.15
189.1235
175.3736
163.3472
153.365
146.2906
143.242
140.6311
138.0879
132.0456
86.31244
84.37103
83.51588
82.62167
81.636
80.57011
79.43469
78.22377
76.88626
75.27912
72.58897
69.7556
67.35618
65.41301
63.79741
62.39497
61.1313
59.96154
58.84097
58.78157
57.99534
56.88658
55.6569
54.41708
53.22058
52.08984
51.0307
50.04159
49.1187
48.24458
47.3966
46.56379
45.74321
44.93731
44.15032
43.38647
42.65617
39.01741
38.41614
37.85382
37.32225
36.81538
36.32885
35.8597
35.40496
34.96039
34.52084
34.08098
33.63792
33.1882
32.72838
32.25625
31.77156
31.27559
30.77123
30.2627
29.75552
29.25555
28.7679
28.29563
27.84056
27.40377
26.98574
26.5867
26.20651
25.84429
25.49893
25.16928
24.85448
24.5542
24.26872
23.99842
23.74337
23.50254
23.27039
23.09193
22.91725
22.74758
22.58438
22.42916
22.28306
22.14648
22.01916
21.9006
21.79109
21.69017
21.59667
21.51645
21.46233
21.43643
21.43619
21.45693
21.49311
21.53447
21.57446
21.60162
21.59293
21.53824
21.43186
21.2683
21.04411
20.76298
20.43395
20.06992
19.68555
19.29534
18.91349
18.55158
18.21618
17.91216
17.64531
17.42099
17.24461
17.12187
17.06185
17.07786
17.18671
17.42521
17.85734
18.55059
19.62434
21.24474
23.61406
26.95866
31.18283
36.17529
41.59216
46.89444
51.73543
55.29709
56.84415
55.95325
52.43256
47.11573
41.35186
36.01571
31.45097
27.64335
24.48224
21.88294
19.76788
18.04283
16.6404
15.50662
14.59092
13.84944
13.24563
12.74979
12.33821
11.99235
11.69817
11.44529
11.22612
11.03524
10.86892
10.72466
10.60076
10.49618
10.41012
10.34197
10.29118
10.25289
10.22092
10.19143
10.16174
10.12982
10.09415
10.05364
10.00764
9.955854
9.898337
9.835454
9.768129
9.69822
9.627205
9.555898
9.484705
9.414043
9.344399
9.27626
9.210049
9.146099
9.084635
9.025775
8.969533
8.915845
8.864587
8.815603
8.768723
8.723776
8.680578
8.638944
8.59873
8.559827
8.522128
8.485508
8.449833
8.414985
8.38086
8.347357
8.314377
8.281828
8.249646
8.217806
8.18633
8.155281
8.124753
8.094865
8.065745
8.037517
8.010292
7.984175
7.959264
7.935662
7.913471
7.892807
7.873785
7.856556
7.841211
7.827895
7.816528
7.807319
7.799982
7.807756
7.804495
7.798777
7.793858
7.791027
7.790657
7.792903
7.796914
7.801241
7.805091
7.808417
7.811067
7.812821
7.813463
7.812802
7.810676
7.80695
7.801513
7.794281
7.7852
7.774237
7.761386
7.746663
7.730102
7.71175
7.691669
7.669921
7.64657
7.621661
7.595209
7.56717
7.5374
7.505612
7.471359
7.434248
7.39548
7.35609
7.316355
7.276404
7.236412
7.196544
7.156939
7.117708
7.078927
7.040644
7.002884
6.965654
6.928953
6.892768
6.857091
6.821908
6.787213
6.752999
6.719263
6.686005
6.653228
6.62094
6.589148
6.557862
6.527095
6.496862
6.467178
6.438063
6.409538
6.38163
6.354366
6.327798
6.301961
6.276937
6.251037
6.246174
6.238099
6.227777
6.215864
6.203022
6.189746
6.176342
6.162998
6.149857
6.137048
6.124688
6.112882
6.101719
6.091276
6.081618
6.072805
6.064885
6.057898
6.051878
6.046849
6.042828
6.039826
6.037845
6.036879
6.036914
6.037929
6.039891
6.042764
6.046502
6.051052
6.056352
6.062338
6.068934
6.07606
6.083628
6.091546
6.099714
6.10803
6.116386
6.124678
6.132798
6.140648
6.148134
6.155153
6.161584
6.167258
6.171959
6.175451
6.177573
6.178171
6.177118
6.174234
6.169351
6.162324
6.153059
6.1419
6.128758
6.113481
6.0959
6.075924
6.05352
6.028781
6.001857
5.972863
5.941907
5.909129
5.874692
5.83877
5.801546
5.763209
5.723943
5.683933
5.643354
5.60238
5.56118
5.519916
5.478745
5.437815
5.397259
5.357201
5.317748
5.278997
5.241029
5.203914
5.167709
5.132461
5.098203
5.06496
5.032749
5.001574
4.971436
4.942325
4.914227
4.887119
4.860977
4.835769
4.811462
4.788017
4.765394
4.743551
4.722443
4.702026
4.682253
4.663077
4.644453
4.626336
4.608681
4.591444
4.574585
4.558063
4.541841
4.525883
4.510158
4.494634
4.479284
4.464085
4.449013
4.43405
4.419176
4.40438
4.389642
4.374955
4.360298
4.345668
4.331031
4.316389
4.301683
4.286913
4.271971
4.256848
4.241332
4.225391
4.208639
4.191057
4.172132
4.152171
4.130825
4.109551
4.089411
414.911
295.3626
425.9733
185.086
142.0155
102.4106
87.20304
74.79573
65.04292
60.38384
58.54233
57.55459
56.57269
55.71889
54.88952
54.13989
53.47385
52.94558
52.56573
52.24941
52.01258
51.92106
52.09321
52.44018
52.85304
53.32223
53.83888
54.37512
54.88884
55.30614
55.47908
53.42428
53.48663
53.35918
53.09881
52.7056
52.19386
51.57182
50.84184
50.04162
49.21579
48.37593
47.53305
46.70254
45.89662
45.12138
44.37932
43.67035
42.99343
42.34812
41.73679
41.15535
40.59545
40.05133
39.51952
38.998
38.4855
37.98101
37.48342
36.99162
36.5053
36.02496
35.55156
35.08591
34.62811
34.17802
33.73621
33.29811
32.91693
32.53817
32.16412
31.79624
31.43596
31.08449
30.74195
30.40684
30.07634
29.74689
29.4153
29.07862
28.73428
28.38074
28.01783
27.64633
27.26779
26.88483
26.50107
26.12061
25.74752
25.38515
25.03595
24.70154
24.38285
24.08038
23.79422
23.52394
23.26828
23.02556
22.79438
22.57363
22.36287
22.16169
21.96946
21.78513
21.60753
21.43529
21.26947
21.109
20.95336
20.80272
20.65762
20.51865
20.38592
20.25878
20.13596
20.01725
19.90554
19.80603
19.72055
19.65163
19.60078
19.56785
19.55065
19.54512
19.5452
19.54382
19.53298
19.50265
19.44284
19.34535
19.20459
19.01833
18.78855
18.52111
18.22511
17.91183
17.59278
17.2792
16.98104
16.70414
16.45258
16.23078
16.04197
15.88872
15.77377
15.70078
15.67318
15.69577
15.78279
15.95721
16.25304
16.73623
17.49813
18.66931
20.41145
22.80909
25.94426
29.79673
34.0837
38.46385
42.62779
46.30583
49.22474
50.86705
50.96556
49.53402
46.80983
43.19271
39.10786
34.91625
30.91471
27.34044
24.28253
21.71844
19.60821
17.89224
16.50289
15.37673
14.46086
13.71451
13.10437
12.60367
12.19165
11.85216
11.57227
11.34172
11.15225
10.99715
10.87143
10.77136
10.69376
10.63579
10.59474
10.56246
10.53285
10.50171
10.46605
10.42368
10.37309
10.31335
10.24402
10.16511
10.07695
9.980461
9.877065
9.768426
9.656155
9.541666
9.426262
9.311169
9.197512
9.086263
8.978228
8.874036
8.77414
8.678819
8.588197
8.502272
8.420936
8.344004
8.271229
8.202307
8.13696
8.074933
8.01599
7.959882
7.906324
7.855023
7.805718
7.758174
7.712156
7.667416
7.62372
7.580864
7.538708
7.497169
7.456223
7.415881
7.37618
7.337169
7.298909
7.261471
7.224933
7.189382
7.154913
7.12162
7.089603
7.058962
7.029798
7.002191
6.976229
6.951964
6.929515
6.909046
6.891461
6.875407
6.860566
6.846974
6.834747
6.823951
6.814585
6.806584
6.799974
6.79436
6.788755
6.782924
6.776735
6.770028
6.762641
6.754417
6.745212
6.734897
6.723361
6.710514
6.696286
6.680627
6.663509
6.64492
6.624865
6.603363
6.580441
6.556132
6.530465
6.503456
6.475101
6.445365
6.414188
6.381507
6.347366
6.312372
6.277491
6.242668
6.20798
6.173456
6.139126
6.105019
6.071155
6.037547
6.004204
5.971129
5.938323
5.905787
5.87352
5.841525
5.809807
5.778372
5.747228
5.716383
5.685849
5.655639
5.625767
5.596246
5.56709
5.538317
5.509942
5.481984
5.454463
5.427398
5.400815
5.374736
5.349202
5.32423
5.299888
5.276124
5.254057
5.233265
5.213504
5.194579
5.176358
5.158771
5.141786
5.125391
5.109583
5.094374
5.079776
5.065808
5.052485
5.039822
5.027834
5.016537
5.005943
4.996064
4.986908
4.978482
4.970791
4.963836
4.957615
4.952123
4.94735
4.943283
4.939905
4.937194
4.935125
4.93367
4.932799
4.932475
4.932662
4.933317
4.934395
4.935849
4.937628
4.939679
4.941947
4.944375
4.946905
4.949477
4.952029
4.954491
4.956783
4.958809
4.960445
4.961555
4.962013
4.961713
4.960551
4.958442
4.955315
4.951097
4.945659
4.93877
4.930265
4.920108
4.908316
4.894901
4.879851
4.863155
4.844829
4.824901
4.803418
4.78044
4.756048
4.730331
4.703394
4.675351
4.646321
4.61643
4.585806
4.554581
4.522891
4.490868
4.458643
4.426344
4.394088
4.361988
4.330145
4.298652
4.267591
4.237036
4.207051
4.177688
4.148993
4.121001
4.09374
4.067229
4.04148
4.0165
3.992286
3.968833
3.94613
3.924161
3.902905
3.88234
3.862441
3.843178
3.824522
3.80644
3.788899
3.771867
3.755309
3.73919
3.723478
3.708139
3.693141
3.678452
3.664043
3.649885
3.635951
3.622218
3.60866
3.595259
3.581993
3.568846
3.555803
3.542849
3.529971
3.517158
3.504398
3.491681
3.47899
3.466316
3.453633
3.440925
3.428148
3.415273
3.402223
3.388951
3.375346
3.361368
3.346912
3.332033
3.316714
3.301343
3.286688
399.8525
265.3799
197.7401
177.8163
142.0085
117.6656
98.90001
90.78682
82.27228
76.92172
72.30247
66.70321
61.43045
56.67507
52.49179
48.17727
42.24009
40.83944
39.82968
39.26817
39.09987
39.18793
39.37693
39.60995
39.89357
40.24054
40.62757
41.04664
41.4974
41.98563
42.51787
43.09669
43.71894
44.3836
45.08298
45.79335
46.49757
47.18714
47.85736
48.46698
49.08843
49.50438
49.56586
49.46419
49.23421
48.86147
48.35936
47.75277
47.06281
46.32303
45.58886
44.88155
44.20579
43.55893
42.93797
42.33923
41.75969
41.19766
40.6514
40.12002
39.60291
39.09861
38.60712
38.12741
37.65794
37.19649
36.74134
36.29069
35.84245
35.39474
34.94607
34.49646
34.04753
33.60195
33.16143
32.72619
32.29615
31.87314
31.45873
31.05643
30.66537
30.28378
29.91108
29.54839
29.1969
28.85635
28.52484
28.19858
27.87394
27.54879
27.22155
26.89137
26.55815
26.22273
25.88583
25.54754
25.21019
24.87781
24.55442
24.24359
23.948
23.66935
23.4086
23.16627
22.94239
22.73609
22.5451
22.36631
22.19719
22.03664
21.88424
21.73909
21.59897
21.46056
21.32065
21.17762
21.03205
20.88558
20.73906
20.59219
20.44442
20.29603
20.14857
20.00444
19.86426
19.72673
19.5908
19.45671
19.32634
19.20261
19.08898
18.98838
18.90208
18.82942
18.76792
18.71366
18.66148
18.6053
18.53848
18.45363
18.34359
18.2031
18.02983
17.82464
17.59145
17.33679
17.06918
16.79774
16.53105
16.27695
16.04068
15.82546
15.63433
15.46895
15.33029
15.21963
15.13762
15.08321
15.0561
15.06066
15.10605
15.21236
15.41519
15.76497
16.33695
17.22956
18.53904
20.3713
22.80483
25.78319
29.15068
32.69623
36.1479
39.27781
41.90251
43.92506
45.2191
45.65889
45.18535
43.781
41.52855
38.63152
35.36142
31.99649
28.75604
25.78991
23.18621
20.97238
19.12757
17.60584
16.35833
15.34069
14.51302
13.84117
13.29735
12.85903
12.50775
12.22835
12.00797
11.83563
11.70231
11.60038
11.52314
11.46649
11.42353
11.38535
11.3458
11.30058
11.24677
11.18246
11.10648
11.01826
10.91768
10.80474
10.68015
10.54557
10.40275
10.25345
10.0994
9.942289
9.78382
9.625617
9.469167
9.315783
9.166578
9.022454
8.884096
8.751981
8.626396
8.507458
8.395136
8.289234
8.189357
8.095165
8.006382
7.922665
7.84361
7.768767
7.697733
7.630144
7.565662
7.503938
7.444596
7.387256
7.331579
7.277301
7.224246
7.172305
7.121421
7.071565
7.022725
6.974907
6.928129
6.882432
6.837867
6.794495
6.752384
6.711604
6.672228
6.634327
6.597967
6.563214
6.530127
6.498783
6.469257
6.441628
6.415777
6.391653
6.369217
6.348424
6.32921
6.3115
6.295214
6.280269
6.266551
6.253883
6.24162
6.229521
6.217415
6.205127
6.192489
6.179346
6.165551
6.150978
6.135514
6.119068
6.101564
6.082945
6.063172
6.042222
6.020088
5.996775
5.972297
5.946672
5.919922
5.892065
5.863122
5.833116
5.802093
5.770167
5.737631
5.705131
5.672689
5.64034
5.6081
5.575986
5.544008
5.512173
5.480482
5.448935
5.417531
5.386271
5.355156
5.32419
5.293381
5.262738
5.23227
5.201991
5.171914
5.142055
5.112427
5.08305
5.053939
5.025114
4.996592
4.968393
4.940539
4.913049
4.885947
4.859255
4.832998
4.807202
4.781887
4.757077
4.732794
4.709105
4.686058
4.663692
4.642012
4.621006
4.600669
4.581005
4.562012
4.543688
4.526033
4.509044
4.492723
4.477067
4.462077
4.447752
4.43409
4.42109
4.40875
4.397067
4.386037
4.375655
4.365916
4.356811
4.34833
4.340461
4.33319
4.3265
4.320373
4.314789
4.309728
4.305166
4.30108
4.297443
4.294228
4.291408
4.288951
4.286827
4.285003
4.283446
4.282119
4.280988
4.280012
4.279151
4.278357
4.277576
4.276743
4.275782
4.274607
4.27313
4.271274
4.26896
4.266107
4.262624
4.258414
4.25338
4.24744
4.240541
4.232611
4.223582
4.213376
4.20195
4.189271
4.175318
4.160085
4.143587
4.125849
4.10691
4.08682
4.065641
4.043443
4.020308
3.996325
3.971586
3.946195
3.920254
3.893871
3.867153
3.840206
3.813133
3.786031
3.758993
3.732105
3.705443
3.679081
3.65308
3.627498
3.602381
3.577769
3.553697
3.53019
3.507267
3.484941
3.46322
3.442105
3.421595
3.401681
3.382353
3.363597
3.345396
3.32773
3.310577
3.293914
3.277716
3.261958
3.246614
3.231656
3.217058
3.202794
3.188838
3.175165
3.161749
3.148569
3.135602
3.122827
3.110224
3.097777
3.085468
3.073282
3.061207
3.049229
3.037339
3.025526
3.01378
3.002093
2.990454
2.978854
2.967279
2.955716
2.944143
2.932541
2.920878
2.909127
2.897251
2.885233
2.873051
2.860724
2.848283
2.835876
2.824215
195.3964
146.1794
226.8787
114.9407
99.00796
85.66895
81.00283
77.38383
73.33364
71.16791
68.52635
65.01021
61.63062
58.12001
54.22212
47.883
45.9942
44.27476
42.71352
41.3131
40.03202
38.90983
37.98599
37.26072
36.72487
36.34929
36.03515
35.75498
35.63913
35.70236
35.92738
36.25812
36.6298
37.04191
37.47276
37.91121
38.35938
38.82356
39.30988
39.82561
40.37636
40.96565
41.58022
42.21141
42.84467
43.47776
44.08732
44.65343
45.19655
45.58425
45.85704
46.00712
45.97711
45.79838
45.47661
45.03196
44.5081
43.94094
43.38473
42.87453
42.41942
42.00486
41.619
41.2497
40.88753
40.52365
40.15416
39.7774
39.3923
39.00091
38.6048
38.2041
37.80094
37.39707
36.99158
36.58461
36.17695
35.76742
35.35369
34.9337
34.50607
34.07169
33.63448
33.19887
32.76653
32.33656
31.90897
31.48643
31.07177
30.66553
30.26586
29.87101
29.48135
29.09887
28.72537
28.3618
28.00947
27.66682
27.33125
26.99951
26.66924
26.33913
26.00909
25.68007
25.35368
25.03344
24.72421
24.43153
24.15857
23.90763
23.67991
23.47609
23.29679
23.14235
23.01193
22.90117
22.80168
22.70528
22.60909
22.51543
22.42689
22.34197
22.25425
22.15485
22.03646
21.89808
21.74699
21.59247
21.43796
21.28066
21.11671
20.94629
20.77638
20.60943
20.44425
20.2765
20.10181
19.91901
19.72968
19.53761
19.34877
19.16921
19.00271
18.85039
18.71123
18.58312
18.46322
18.34769
18.23168
18.1094
17.97476
17.82281
17.65075
17.45829
17.24766
17.02319
16.79102
16.55802
16.33059
16.11432
15.91283
15.72803
15.56147
15.41387
15.28563
15.17713
15.08755
15.01375
14.95245
14.90352
14.87189
14.87077
14.92114
15.05234
15.30616
15.73894
16.4197
17.43225
18.86261
20.75465
23.07426
25.70268
28.462
31.17602
33.68402
35.86297
37.65409
38.98836
39.85094
40.20426
39.97727
39.12858
37.68263
35.73341
33.43473
30.95831
28.45771
26.05612
23.84089
21.86215
20.13842
18.66757
17.43317
16.4103
15.57134
14.88967
14.34099
13.90366
13.5588
13.28957
13.08107
12.92045
12.79649
12.7004
12.62627
12.56199
12.49901
12.43153
12.35577
12.26938
12.17093
12.05974
11.93579
11.79935
11.65045
11.48952
11.31784
11.13702
10.94871
10.75461
10.55659
10.35656
10.15638
9.957778
9.762326
9.571419
9.386251
9.207806
9.036854
8.873956
8.719489
8.573668
8.436361
8.307084
8.185405
8.070936
7.963185
7.86153
7.765487
7.67465
7.588571
7.506825
7.428957
7.354469
7.282884
7.213813
7.146968
7.082142
7.01919
6.958003
6.898494
6.84059
6.784243
6.72943
6.67615
6.624417
6.574251
6.52568
6.478736
6.433459
6.389886
6.348056
6.308008
6.269777
6.233392
6.198861
6.166158
6.135262
6.106147
6.078769
6.053072
6.02898
6.00641
5.985265
5.965441
5.946827
5.929231
5.912239
5.895662
5.879321
5.863042
5.846662
5.830025
5.812991
5.795433
5.777239
5.758314
5.738578
5.717967
5.696435
5.673952
5.6505
5.626076
5.600684
5.574342
5.547071
5.518904
5.489886
5.460084
5.429606
5.39863
5.367438
5.336315
5.305159
5.273998
5.24285
5.211728
5.180639
5.149588
5.118579
5.087615
5.056703
5.025848
4.995061
4.964352
4.933735
4.903224
4.872835
4.842585
4.812492
4.782575
4.752854
4.723349
4.694082
4.665074
4.636348
4.607926
4.579834
4.552094
4.524732
4.497771
4.471236
4.44515
4.419532
4.394405
4.369783
4.345686
4.322143
4.299173
4.276793
4.255019
4.233866
4.213346
4.193469
4.174237
4.155656
4.137726
4.120448
4.103819
4.087836
4.072497
4.057795
4.043724
4.030279
4.017451
4.005232
3.993612
3.98258
3.972124
3.962227
3.952876
3.944052
3.935739
3.927918
3.920569
3.913673
3.907211
3.901161
3.895502
3.890213
3.885271
3.880654
3.876339
3.872301
3.868518
3.864962
3.861607
3.858422
3.855375
3.852426
3.84953
3.846634
3.84368
3.840608
3.837355
3.833858
3.830051
3.82586
3.821218
3.816055
3.810298
3.803869
3.796694
3.788711
3.779871
3.770135
3.759462
3.747813
3.735166
3.721515
3.706856
3.691202
3.674573
3.657004
3.638535
3.61922
3.599118
3.578297
3.556832
3.534804
3.512297
3.489397
3.466192
3.44277
3.419213
3.395604
3.372019
3.348529
3.325202
3.302098
3.27927
3.256768
3.234632
3.212899
3.191596
3.170748
3.150371
3.130479
3.111078
3.092171
3.073757
3.055832
3.038387
3.021411
3.00489
2.988809
2.97315
2.957895
2.943024
2.928515
2.914349
2.900503
2.886956
2.873687
2.860675
2.847901
2.835345
2.822988
2.810814
2.798806
2.78695
2.775231
2.763637
2.752156
2.740779
2.729497
2.7183
2.707182
2.696136
2.685155
2.674232
2.663358
2.652526
2.641725
2.630943
2.620169
2.609389
2.598594
2.587776
2.576941
2.5661
2.555288
2.544585
2.534696
75.63974
59.10687
62.42581
59.92535
58.81481
57.26046
55.90515
54.56435
53.22662
51.18539
46.88536
46.00289
45.07823
44.1649
43.20663
42.22731
41.28848
40.44319
39.7084
39.0648
38.35434
37.42113
36.58729
35.85668
35.23647
34.71777
34.30823
34.00555
33.79715
33.66608
33.59407
33.5696
33.60478
33.70835
33.8913
34.1418
34.43876
34.7845
35.14461
35.51108
35.88601
36.27594
36.69009
37.14095
37.6276
38.14399
38.68711
39.26373
39.86568
40.45439
41.05133
41.60441
42.05965
42.41448
42.63222
42.70631
42.63024
42.41155
42.10122
41.73675
41.36154
41.02506
40.76165
40.59187
40.50327
40.45598
40.42238
40.38239
40.31887
40.2212
40.08062
39.89834
39.67485
39.41437
39.12294
38.80544
38.47045
38.12765
37.78194
37.43448
37.08806
36.74203
36.39097
36.02876
35.65106
35.25622
34.84753
34.43195
34.01403
33.5932
33.16777
32.74067
32.31699
31.89784
31.47973
31.05921
30.63657
30.21424
29.79354
29.37552
28.96947
28.57657
28.19646
27.82841
27.47127
27.12396
26.78575
26.45733
26.14111
25.8397
25.555
25.2882
25.04924
24.8483
24.68416
24.55445
24.45857
24.39797
24.37398
24.38302
24.40847
24.42337
24.40873
24.36713
24.31563
24.26669
24.21755
24.15266
24.05314
23.90595
23.7134
23.49932
23.29102
23.09426
22.89807
22.69112
22.47112
22.2443
22.02438
21.81404
21.6008
21.36996
21.11621
20.8416
20.55154
20.25617
19.96724
19.69259
19.43521
19.19514
18.97191
18.76534
18.57438
18.3962
18.22628
18.05923
17.89008
17.71529
17.53329
17.3444
17.15078
16.95644
16.76654
16.58541
16.41528
16.25526
16.10402
15.96213
15.83009
15.70785
15.59573
15.49351
15.39819
15.30507
15.21167
15.1209
15.0422
14.98958
14.98182
15.0439
15.20897
15.52131
16.0368
16.82206
17.93612
19.40264
21.18801
23.19665
25.30111
27.37582
29.31548
31.04352
32.51646
33.70524
34.58431
35.11633
35.27158
35.03005
34.39372
33.39013
32.07291
30.51701
28.80916
27.04187
25.29603
23.63235
22.09206
20.70105
19.47206
18.4069
17.4998
16.73972
16.11216
15.60068
15.1885
14.85918
14.59694
14.3866
14.21333
14.07106
13.94749
13.83232
13.71838
13.6009
13.47677
13.34394
13.20108
13.0475
12.88308
12.70748
12.52031
12.32223
12.11458
11.89868
11.67575
11.44729
11.21506
10.98077
10.74607
10.51252
10.28164
10.05483
9.833398
9.618521
9.411235
9.212418
9.022748
8.842671
8.672201
8.51116
8.359398
8.216707
8.082612
7.956403
7.837472
7.725231
7.619142
7.518738
7.423486
7.33282
7.246232
7.163308
7.083711
7.00717
6.93346
6.862388
6.793784
6.727504
6.663438
6.601509
6.541661
6.483855
6.428062
6.374269
6.32247
6.272665
6.224858
6.179054
6.135254
6.093454
6.053637
6.015767
5.979806
5.945716
5.91345
5.882951
5.854145
5.826946
5.80126
5.776981
5.754004
5.732212
5.711361
5.691217
5.671616
5.652393
5.633388
5.614444
5.595417
5.576172
5.556585
5.536547
5.515958
5.494737
5.472816
5.450145
5.426686
5.402417
5.377328
5.351422
5.324713
5.297228
5.269008
5.240113
5.210624
5.180659
5.150369
5.119954
5.089453
5.058823
5.028086
4.997258
4.966354
4.935385
4.904362
4.873297
4.842203
4.811094
4.779985
4.748893
4.717836
4.686833
4.655905
4.625073
4.594358
4.563783
4.533372
4.503149
4.473138
4.443364
4.413854
4.384632
4.355726
4.327162
4.298965
4.271163
4.243781
4.216842
4.190368
4.164382
4.138898
4.113934
4.089508
4.06564
4.042346
4.019641
3.99754
3.976056
3.955198
3.934972
3.915383
3.896433
3.878123
3.86045
3.84341
3.826998
3.811208
3.796032
3.781461
3.767487
3.754099
3.741286
3.729033
3.717327
3.706151
3.695488
3.68532
3.67563
3.666398
3.657606
3.649236
3.641268
3.633685
3.626468
3.619599
3.613059
3.606829
3.600891
3.595227
3.589817
3.584642
3.57968
3.57491
3.570305
3.565837
3.561471
3.557171
3.552893
3.548592
3.54422
3.539727
3.53506
3.530161
3.524975
3.519441
3.513494
3.507071
3.500114
3.492571
3.484393
3.475534
3.46595
3.455605
3.444472
3.432531
3.419772
3.406194
3.3918
3.376608
3.36064
3.34393
3.326517
3.308451
3.289786
3.270582
3.250906
3.230826
3.210413
3.18974
3.168876
3.147893
3.126857
3.105832
3.084879
3.064053
3.043406
3.022983
3.002826
2.982969
2.963443
2.944273
2.925478
2.907075
2.889072
2.871479
2.854296
2.837523
2.821156
2.805189
2.789613
2.774416
2.759585
2.745106
2.730963
2.71714
2.70362
2.690385
2.677418
2.664702
2.65222
2.639954
2.62789
2.616012
2.604305
2.592756
2.581353
2.570085
2.55894
2.54791
2.536986
2.526162
2.515429
2.504784
2.494221
2.483735
2.473322
2.462977
2.452696
2.442475
2.432308
2.422191
2.412121
2.402098
2.392122
2.382204
2.372354
2.362605
2.353015
2.344285
119.0384
48.5895
43.12135
41.82
40.93798
40.34043
40.01531
39.79354
39.64357
39.55419
39.37124
38.88069
38.31122
37.74171
37.14941
36.56326
36.00109
35.47434
34.97177
34.47618
33.96956
33.47317
33.04995
32.70529
32.43684
32.23553
32.09646
32.00833
31.95958
31.93879
31.93734
31.95178
31.98234
32.03041
32.10622
32.23305
32.42838
32.6618
32.92419
33.21348
33.53243
33.8871
34.28706
34.74132
35.24319
35.79502
36.37685
37.00312
37.66559
38.26535
38.80637
39.25494
39.57716
39.75706
39.78167
39.66623
39.4518
39.19329
38.95637
38.7909
38.75633
38.86514
39.10926
39.44336
39.81966
40.19267
40.53096
40.80856
41.00807
41.11959
41.14035
41.0737
40.93079
40.73273
40.49765
40.24334
39.98625
39.73612
39.49407
39.25946
39.03164
38.80058
38.55046
38.26958
37.95106
37.59565
37.21607
36.82661
36.42799
36.0101
35.57129
35.12885
34.69509
34.26236