/*--------------------------------*- C++ -*----------------------------------*\
| =========                 |                                                 |
| \\      /  F ield         | foam-extend: Open Source CFD                    |
|  \\    /   O peration     | Version:     3.1                                |
|   \\  /    A nd           | Web:         http://www.extend-project.de       |
|    \\/     M anipulation  |                                                 |
\*---------------------------------------------------------------------------*/
FoamFile
{
    version     2.0;
    format      ascii;
    class       volScalarField;
    location    "9.5";
    object      pd;
}
// * * * * * * * * * * * * * * * * * * * * * * * * * * * * * * * * * * * * * //

dimensions      [1 -1 -2 0 0 0 0];

internalField   nonuniform List<scalar> 
119952
(
7416.397
6780.297
6696.381
6802.378
6909.836
6857.055
6851.009
6851.033
6855.853
6862.44
6870.226
6879.565
6889.716
6901.479
6915.352
6931.895
6951.512
6974.241
6995.2
6994.677
7194.054
7162.424
7203.737
7471.884
7562.628
7635.143
7365.182
7494.096
7544.343
8125.582
5940.064
5936.226
5957.454
5969.807
5973.302
5980.447
5976.783
5972.822
5965.062
5945.696
5927.364
5928.182
5918.128
5910.621
5906.276
5906.108
5910.14
5917.205
5928.249
5963.155
5977.14
5987.717
6012.956
6042.885
6075.698
6111.022
6149.278
6190.249
6233.72
6270.314
6312.937
6360.868
6407.286
6453.451
6499.604
6545.727
6595.759
6669.602
6777.292
6730.656
6750.523
6802.606
6837.661
6847.233
6846.176
6850.546
6856.325
6862.788
6870.266
6878.76
6888.42
6899.818
6913.524
6930.146
6950.322
6974.795
7004.833
7044.406
7105.002
7175.845
7242.5
7352.302
7466.703
7498.043
7445.049
7502.194
7541.996
7580.954
7636.594
7662.87
7659.21
7661.704
7648.134
7631.551
7605.751
7573.268
7537.273
7501.165
7468.937
7443.821
7427.154
7418.718
7417.344
7421.461
7429.533
7440.227
7452.456
7465.393
7478.457
7491.262
7503.562
7515.201
7526.092
7536.207
7545.562
7554.218
7562.271
7569.849
7577.114
7584.246
7591.438
7598.885
7606.772
7615.277
7624.543
7634.679
7645.749
7657.786
7670.776
7684.671
7699.386
7714.802
7730.778
7747.156
7763.771
7780.458
7797.033
7813.266
7829.235
7844.733
7859.589
7873.776
7887.269
7900.049
7912.11
7923.47
7934.14
7944.152
7953.552
7962.386
7970.711
7978.582
7986.055
7993.176
8000.003
8006.596
8012.997
8019.249
8025.389
8031.451
8037.459
8043.432
8049.383
8055.317
8061.235
8067.129
8072.991
8078.808
8084.562
8090.237
8095.816
8101.279
8106.609
8111.805
8116.825
8121.663
8126.305
8130.74
8134.959
8138.957
8142.726
8146.264
8149.565
8152.603
8155.366
8157.949
8160.969
8164.477
8165.811
8167.78
8169.595
8171.23
8172.706
8174.018
8175.177
8176.211
8177.109
8177.877
8178.528
8179.063
8179.486
8179.809
8180.038
8180.178
8180.234
8180.209
8180.107
8179.934
8179.69
8179.382
8179.009
8178.575
8178.079
8177.521
8176.898
8176.203
8175.427
8174.545
8173.526
8172.286
8170.721
8168.314
8165.253
8167.788
8169.28
8170.384
8171.196
8171.864
8172.434
8172.947
8173.417
8173.857
8174.274
8174.672
8175.056
8175.428
8175.79
8176.144
8176.488
8176.825
8177.153
8177.471
8177.779
8178.076
8178.361
8178.632
8178.889
8179.131
8179.357
8179.566
8179.759
8179.935
8180.094
8180.238
8180.39
8180.61
8180.486
8186.643
8183.698
8180.292
8180.214
8180.027
8179.611
8179.328
8179.089
8178.848
8178.593
8178.322
8178.039
8177.734
8177.407
8177.056
8176.68
8176.28
8175.853
8175.4
8174.921
8174.416
8173.884
8173.325
8172.738
8172.124
8171.481
8170.809
8170.107
8169.375
8168.613
8167.819
8166.995
8166.141
8165.255
8164.339
8163.392
8162.417
8161.415
8160.388
8159.342
8158.284
8157.216
8156.156
8155.148
8154.156
8153.01
8151.231
8149.176
8147.284
8145.439
8143.592
8141.753
8139.828
8136.787
8132.091
8132.418
8130.901
8128.66
8126.606
8124.487
8122.314
8120.138
8117.956
8115.784
8113.602
8111.41
8109.212
8107.01
8104.807
8102.601
8100.395
8098.19
8095.987
8093.789
8091.598
8089.416
8087.246
8085.091
8082.952
8080.832
8078.733
8076.657
8074.604
8072.578
8070.578
8068.607
8066.666
8064.755
8062.875
8061.026
8059.21
8057.425
8055.673
8053.953
8052.265
8050.608
8048.982
8047.387
8045.82
8044.283
8042.773
8041.289
8039.831
8038.396
8036.982
8035.589
8034.215
8032.856
8031.511
8030.178
8028.855
8027.537
8026.223
8024.909
8023.591
8022.266
8020.928
8019.574
8018.198
8016.794
8015.354
8013.872
8012.338
8010.741
8009.07
8007.308
8005.436
8003.433
8001.27
7998.907
7996.285
7993.317
7989.904
7985.869
7980.905
7974.732
7968.666
7971.24
7998.585
6619.332
6520.545
6399.513
6290.91
6188.894
6093.331
6003.755
5920.135
5847.858
5750.632
5689.636
5631.061
5573.789
5523.842
5479.875
5442.737
5412.234
5385.04
5372.077
5374.147
5358.179
5355.673
5364.681
5381.149
5402.712
5431.885
5467.299
5508.277
5552.229
5590.76
5640.083
5689.614
5737.067
5782.664
5824.86
5863.136
5897.532
5932.236
5941.8
5955.561
5968.436
5974.813
5976.216
5973.473
5966.896
5957.935
5947.302
5932.5
5921.879
5913.504
5906.497
5902.305
5901.872
5905.457
5913.52
5927.865
5938.141
5959.575
5985.499
6013.992
6044.837
6078.384
6114.961
6154.154
6194.97
6236.998
6281.385
6325.713
6369.846
6414.742
6461.229
6509.251
6559.301
6611.085
6663.571
6710.554
6742.975
6766.231
6792.288
6817.67
6836.015
6846.746
6853.639
6859.702
6866.009
6872.685
6879.741
6887.698
6897.465
6909.781
6925.626
6945.806
6971.471
7004.652
7046.852
7099.307
7160.878
7228.4
7300.963
7362.954
7405.05
7430.776
7464.359
7509.45
7561.189
7599.406
7622.479
7640.987
7662.406
7686.217
7651.28
7598.485
7558.966
7520.142
7479.094
7446.898
7424.599
7411.918
7407.736
7410.33
7417.835
7428.643
7441.401
7455.055
7468.942
7482.625
7495.818
7508.341
7520.076
7530.957
7540.971
7550.154
7558.571
7566.326
7573.56
7580.446
7587.182
7593.978
7601.04
7608.568
7616.741
7625.701
7635.577
7646.433
7658.295
7671.15
7684.945
7699.591
7714.965
7730.918
7747.286
7763.895
7780.563
7797.099
7813.349
7829.236
7844.685
7859.561
7873.779
7887.294
7900.085
7912.148
7923.493
7934.139
7944.121
7953.481
7962.267
7970.534
7978.339
7985.739
7992.792
7999.554
8006.075
8012.403
8018.582
8024.652
8030.648
8036.594
8042.511
8048.412
8054.303
8060.183
8066.047
8071.884
8077.681
8083.423
8089.093
8094.675
8100.149
8105.496
8110.701
8115.745
8120.614
8125.294
8129.774
8134.044
8138.097
8141.928
8145.533
8148.914
8152.068
8155.011
8157.76
8160.316
8163.598
8164.913
8167.11
8169.048
8170.751
8172.324
8173.711
8174.938
8176.022
8176.966
8177.778
8178.465
8179.033
8179.489
8179.839
8180.09
8180.247
8180.315
8180.299
8180.203
8180.032
8179.788
8179.475
8179.097
8178.653
8178.146
8177.576
8176.938
8176.23
8175.441
8174.558
8173.558
8172.409
8171.102
8169.762
8168.871
8169.278
8170.169
8170.896
8171.535
8172.093
8172.583
8173.029
8173.44
8173.826
8174.191
8174.542
8174.881
8175.21
8175.531
8175.845
8176.153
8176.453
8176.747
8177.033
8177.31
8177.578
8177.835
8178.08
8178.313
8178.532
8178.737
8178.927
8179.102
8179.262
8179.408
8179.548
8179.686
8179.857
8180.491
8179.82
8180.397
8180.32
8179.666
8179.086
8178.746
8178.526
8178.313
8178.079
8177.83
8177.57
8177.295
8177.001
8176.685
8176.345
8175.981
8175.593
8175.18
8174.742
8174.279
8173.79
8173.274
8172.732
8172.163
8171.566
8170.941
8170.286
8169.602
8168.887
8168.142
8167.365
8166.557
8165.717
8164.845
8163.942
8163.008
8162.043
8161.05
8160.029
8158.983
8157.912
8156.822
8155.712
8154.555
8153.311
8151.915
8150.317
8148.557
8146.742
8144.913
8143.062
8141.131
8139.022
8136.519
8133.669
8131.481
8129.836
8128.215
8126.302
8124.192
8121.996
8119.794
8117.617
8115.433
8113.225
8111.005
8108.783
8106.56
8104.334
8102.108
8099.882
8097.658
8095.439
8093.225
8091.02
8088.825
8086.644
8084.478
8082.33
8080.202
8078.096
8076.013
8073.955
8071.924
8069.921
8067.948
8066.005
8064.093
8062.212
8060.364
8058.549
8056.767
8055.018
8053.301
8051.618
8049.966
8048.346
8046.757
8045.198
8043.668
8042.165
8040.69
8039.24
8037.814
8036.41
8035.026
8033.661
8032.312
8030.977
8029.654
8028.34
8027.032
8025.728
8024.423
8023.115
8021.799
8020.471
8019.126
8017.759
8016.363
8014.934
8013.461
8011.939
8010.354
8008.699
8006.955
8005.112
8003.144
8001.033
7998.74
7996.241
7993.48
7990.465
7987.207
7983.994
7981.341
7980.236
7981.091
7984.423
4235.811
4316.649
4425.126
4549.427
4689.486
4844.553
5015.011
5201.221
5402.508
5615.653
5843.569
6085.652
6335.213
6591.791
6851.241
7106.315
7354.798
7588.107
7798.644
7998.581
8146.698
8259.252
8334.825
8372.282
8372.235
8337.002
8270.084
8175.193
8058.758
7919.037
7768.893
7609.893
7448.669
7288.679
7132.639
6982.459
6839.818
6706.497
6571.489
6452.057
6340.076
6234.642
6136.39
6044.014
5957.431
5876.557
5801.858
5731.648
5664.912
5606.199
5552.549
5504.342
5462.183
5426.413
5397.52
5378.548
5348.656
5338.662
5337.614
5343.521
5355.516
5373.791
5398.909
5430.725
5468.488
5511.124
5558.156
5608.389
5659.188
5709.46
5758.475
5805.146
5848.202
5886.468
5919.135
5945.466
5965.311
5978.616
5985.916
5987.976
5985.39
5978.538
5968.018
5954.674
5939.692
5925.041
5911.868
5901.041
5893.48
5889.678
5889.719
5893.767
5901.795
5914.107
5930.935
5952.743
5977.389
6004.793
6035.691
6070.111
6107.509
6147.263
6188.984
6231.895
6275.765
6319.079
6363.733
6409.565
6456.502
6504.598
6553.257
6602.076
6649.511
6695.01
6732.726
6761.253
6787.216
6812.307
6832.988
6846.825
6855.711
6862.356
6868.095
6873.339
6878.25
6883.576
6890.49
6899.875
6913.066
6931.007
6954.446
6984.979
7023.572
7070.339
7124.918
7183.372
7242.113
7300.614
7347.511
7380.081
7417.227
7460.197
7506.335
7544.818
7570.089
7606.815
7640.21
7627.454
7604.607
7597.625
7571.307
7508.511
7454.426
7422.489
7403.357
7394.135
7394.346
7401.2
7412.145
7425.707
7440.532
7455.533
7470.284
7484.543
7498.135
7510.946
7522.874
7533.851
7543.882
7553.006
7561.283
7568.808
7575.727
7582.222
7588.507
7594.812
7601.354
7608.34
7615.976
7624.434
7633.86
7644.31
7655.817
7668.375
7681.937
7696.412
7711.676
7727.575
7743.939
7760.587
7777.33
7793.976
7810.361
7826.379
7841.936
7856.927
7871.268
7884.907
7897.819
7909.994
7921.44
7932.174
7942.23
7951.647
7960.474
7968.764
7976.575
7983.966
7991
7997.731
8004.207
8010.478
8016.593
8022.597
8028.526
8034.408
8040.264
8046.11
8051.954
8057.797
8063.632
8069.449
8075.237
8080.979
8086.66
8092.264
8097.771
8103.164
8108.423
8113.533
8118.477
8123.24
8127.812
8132.182
8136.342
8140.289
8144.019
8147.533
8150.84
8153.935
8156.879
8159.663
8162.614
8165.028
8167.056
8168.91
8170.643
8172.216
8173.609
8174.896
8176.023
8177.002
8177.839
8178.545
8179.13
8179.601
8179.964
8180.225
8180.39
8180.465
8180.453
8180.36
8180.189
8179.944
8179.629
8179.247
8178.8
8178.29
8177.718
8177.084
8176.387
8175.625
8174.797
8173.91
8172.986
8172.088
8171.344
8170.937
8170.957
8171.308
8171.75
8172.176
8172.573
8172.946
8173.299
8173.633
8173.953
8174.261
8174.559
8174.85
8175.136
8175.416
8175.691
8175.961
8176.227
8176.486
8176.74
8176.985
8177.223
8177.45
8177.667
8177.873
8178.065
8178.244
8178.408
8178.559
8178.693
8178.815
8178.921
8179.018
8179.089
8179.136
8178.907
8178.531
8178.192
8177.96
8177.802
8177.675
8177.543
8177.383
8177.192
8176.98
8176.751
8176.502
8176.231
8175.936
8175.616
8175.272
8174.904
8174.511
8174.094
8173.652
8173.185
8172.693
8172.175
8171.63
8171.058
8170.458
8169.829
8169.171
8168.482
8167.763
8167.012
8166.23
8165.415
8164.567
8163.687
8162.775
8161.83
8160.853
8159.844
8158.805
8157.733
8156.625
8155.472
8154.26
8152.967
8151.572
8150.043
8148.378
8146.62
8144.82
8142.995
8141.154
8139.338
8137.664
8136.111
8134.161
8131.834
8129.351
8126.995
8124.698
8122.404
8120.141
8117.899
8115.66
8113.419
8111.175
8108.931
8106.686
8104.439
8102.193
8099.948
8097.706
8095.467
8093.235
8091.012
8088.8
8086.601
8084.418
8082.254
8080.109
8077.987
8075.889
8073.816
8071.771
8069.755
8067.768
8065.812
8063.889
8061.997
8060.14
8058.315
8056.525
8054.768
8053.045
8051.356
8049.7
8048.076
8046.485
8044.924
8043.394
8041.892
8040.418
8038.971
8037.548
8036.148
8034.77
8033.411
8032.07
8030.743
8029.429
8028.125
8026.828
8025.536
8024.244
8022.95
8021.649
8020.338
8019.011
8017.664
8016.291
8014.887
8013.443
8011.954
8010.408
8008.798
8007.112
8005.338
8003.46
8001.464
7999.334
7997.061
7994.65
7992.139
7989.633
7987.304
7985.402
7984.174
7984.024
7985.106
3859.496
3832.492
3820.703
3817.188
3823.984
3851.944
3894.722
3959.489
4039.596
4089.664
4113.067
4155.792
4222.127
4309.451
4415.497
4536.797
4672.994
4824.343
4988.651
5167.172
5360.007
5566.465
5786.674
6018.47
6258.636
6505.636
6755.351
7002.841
7244.373
7473.027
7684.722
7913.851
8060.808
8168.375
8235.654
8263.691
8254.159
8210.094
8136.386
8036.079
7913.584
7775.743
7627.907
7474.264
7318.936
7165.385
7016.222
6873.2
6737.353
6609.136
6488.566
6375.81
6270.072
6170.693
6077.311
5989.448
5906.698
5828.965
5756.319
5688.827
5626.494
5569.321
5517.545
5471.325
5430.797
5396.346
5368.172
5346.369
5330.138
5321.849
5320.628
5325.403
5336.873
5355.598
5381.614
5414.755
5454.659
5500.782
5551.894
5605.902
5660.743
5715.596
5768.857
5819.075
5864.875
5905.044
5938.711
5965.611
5985.059
5996.932
6002.409
6002.226
5996.81
5986.559
5972.096
5954.535
5935.541
5917.081
5901.01
5888.527
5879.981
5875.367
5874.671
5878.105
5886.048
5898.796
5916.041
5937.381
5962.448
5991.069
6023.262
6058.804
6097.227
6137.907
6180.138
6222.896
6265.721
6310.224
6354.905
6400.286
6446.628
6494.054
6542.141
6590.314
6637.378
6682.089
6721.566
6754.8
6783.878
6809.878
6831.447
6847.283
6858.072
6865.373
6870.332
6873.703
6876.022
6878.048
6881.053
6885.929
6895.283
6909.702
6929.191
6955.651
6989.937
7031.816
7080.325
7132.571
7186.099
7239.1
7284.61
7323.609
7363.271
7403.743
7446.628
7483.747
7514.769
7549.099
7566.989
7564.108
7566.34
7557.06
7515.726
7469.676
7438.316
7411.265
7386.59
7375.674
7378.57
7390.354
7406.217
7423.358
7440.437
7456.923
7472.619
7487.457
7501.41
7514.467
7526.508
7537.451
7547.359
7556.301
7564.315
7571.477
7577.951
7583.941
7589.692
7595.469
7601.481
7607.936
7615.075
7623.101
7632.159
7642.31
7653.592
7666.002
7679.492
7693.968
7709.295
7725.311
7741.835
7758.68
7775.648
7792.516
7809.108
7825.309
7841.015
7856.128
7870.567
7884.285
7897.254
7909.467
7920.932
7931.668
7941.71
7951.1
7959.886
7968.124
7975.874
7983.2
7990.17
7996.837
8003.236
8009.418
8015.443
8021.362
8027.212
8033.022
8038.815
8044.61
8050.417
8056.233
8062.051
8067.86
8073.646
8079.396
8085.092
8090.718
8096.256
8101.687
8106.99
8112.15
8117.147
8121.969
8126.603
8131.037
8135.265
8139.282
8143.084
8146.674
8150.056
8153.238
8156.248
8159.092
8161.775
8164.104
8166.235
8168.233
8170.078
8171.749
8173.242
8174.577
8175.76
8176.803
8177.701
8178.47
8179.111
8179.634
8180.044
8180.349
8180.554
8180.664
8180.684
8180.619
8180.473
8180.25
8179.955
8179.59
8179.16
8178.668
8178.115
8177.505
8176.84
8176.126
8175.369
8174.587
8173.809
8173.085
8172.486
8172.097
8172.02
8172.164
8172.417
8172.694
8172.969
8173.239
8173.505
8173.765
8174.018
8174.265
8174.508
8174.748
8174.985
8175.219
8175.451
8175.68
8175.905
8176.127
8176.344
8176.555
8176.759
8176.955
8177.141
8177.317
8177.481
8177.632
8177.77
8177.894
8178.002
8178.095
8178.166
8178.216
8178.209
8178.163
8178.029
8177.857
8177.737
8177.617
8177.458
8177.276
8177.087
8176.89
8176.68
8176.455
8176.216
8175.959
8175.684
8175.388
8175.07
8174.731
8174.371
8173.988
8173.582
8173.153
8172.7
8172.223
8171.721
8171.193
8170.638
8170.056
8169.446
8168.807
8168.137
8167.438
8166.706
8165.943
8165.147
8164.318
8163.455
8162.558
8161.626
8160.66
8159.658
8158.619
8157.541
8156.418
8155.244
8154.009
8152.7
8151.302
8149.798
8148.186
8146.488
8144.738
8142.953
8141.138
8139.268
8137.295
8135.201
8133.004
8130.811
8128.695
8126.667
8124.563
8122.385
8120.187
8117.982
8115.764
8113.537
8111.297
8109.05
8106.797
8104.541
8102.282
8100.023
8097.766
8095.512
8093.265
8091.027
8088.8
8086.586
8084.387
8082.207
8080.048
8077.91
8075.797
8073.71
8071.651
8069.621
8067.621
8065.653
8063.718
8061.815
8059.947
8058.114
8056.315
8054.55
8052.821
8051.126
8049.465
8047.838
8046.244
8044.682
8043.151
8041.651
8040.179
8038.734
8037.315
8035.921
8034.549
8033.198
8031.865
8030.548
8029.245
8027.953
8026.669
8025.392
8024.116
8022.839
8021.558
8020.268
8018.965
8017.644
8016.3
8014.929
8013.522
8012.076
8010.581
8009.03
8007.416
8005.729
8003.962
8002.107
8000.164
7998.138
7996.052
7993.952
7991.918
7990.064
7988.511
7987.432
7986.955
7987.118
4677.546
4585.635
4495.326
4407.217
4316.467
4225.797
4147.974
4073.135
4007.657
3949.988
3900.969
3861.93
3833.372
3814.435
3807.167
3811.773
3834.064
3868.495
3912.879
3961.538
4008.295
4059.894
4123.435
4200.825
4292.705
4400.543
4523.193
4660.092
4810.902
4975.524
5154.127
5345.745
5550.128
5767.408
5996.042
6234.377
6480.083
6729.529
6978.193
7219.641
7447.991
7652.374
7823.083
7967.241
8073.715
8139.761
8166.181
8155.19
8110.082
8034.565
7931.175
7806.63
7669.718
7525.026
7375.733
7225.336
7077.118
6933.609
6796.464
6666.649
6544.572
6429.857
6322.349
6221.617
6126.898
6037.618
5953.12
5872.83
5796.855
5725.723
5659.641
5598.521
5542.468
5491.566
5445.7
5404.992
5370.129
5341.687
5319.884
5304.494
5295.605
5293.127
5297.366
5308.794
5327.615
5354
5388.21
5430.229
5479.456
5534.552
5593.855
5655.924
5717.948
5777.801
5833.704
5884.322
5928.394
5964.798
5992.901
6012.363
6023.521
6027.325
6024.595
6015.86
6001.419
5981.894
5958.496
5933.385
5909.407
5889.161
5873.959
5863.757
5858.011
5856.283
5858.682
5865.763
5877.717
5894.643
5916.579
5943.035
5973.131
6006.446
6042.916
6082.365
6124.215
6167.516
6211.281
6254.647
6298.061
6341.788
6386.357
6432.145
6479.414
6527.879
6576.778
6624.839
6670.617
6712.542
6749.636
6782.028
6809.985
6833.036
6850.548
6862.667
6870.188
6873.975
6874.867
6873.822
6871.753
6869.947
6870.105
6873.261
6881.31
6895.511
6917.084
6946.829
6984.418
7028.609
7077.119
7127.386
7177.07
7223.078
7265.337
7305.919
7345.505
7385.065
7420.695
7450.993
7478.019
7496.326
7507.578
7513.908
7502.712
7476.641
7451.553
7423.62
7393.418
7373.333
7371.381
7380.992
7394.694
7410.298
7426.799
7443.815
7460.809
7477.068
7492.235
7506.274
7519.235
7531.108
7541.87
7551.538
7560.164
7567.808
7574.565
7580.582
7586.059
7591.231
7596.359
7601.717
7607.572
7614.183
7621.796
7630.556
7640.454
7651.549
7663.866
7677.355
7691.911
7707.387
7723.607
7740.374
7757.499
7774.794
7791.987
7808.855
7825.293
7841.199
7856.469
7871.021
7884.808
7897.809
7910.019
7921.448
7932.121
7942.075
7951.357
7960.019
7968.12
7975.726
7982.907
7989.746
7996.311
8002.609
8008.675
8014.592
8020.42
8026.195
8031.93
8037.655
8043.398
8049.166
8054.957
8060.761
8066.564
8072.353
8078.111
8083.824
8089.475
8095.045
8100.514
8105.861
8111.067
8116.115
8120.989
8125.676
8130.167
8134.451
8138.525
8142.386
8146.034
8149.474
8152.71
8155.752
8158.597
8161.237
8163.658
8165.893
8167.952
8169.835
8171.54
8173.073
8174.446
8175.667
8176.739
8177.677
8178.48
8179.159
8179.717
8180.161
8180.498
8180.731
8180.868
8180.913
8180.871
8180.748
8180.546
8180.272
8179.928
8179.52
8179.051
8178.526
8177.949
8177.327
8176.668
8175.983
8175.291
8174.62
8174.005
8173.497
8173.147
8172.99
8172.998
8173.105
8173.259
8173.434
8173.62
8173.814
8174.011
8174.21
8174.409
8174.607
8174.806
8175.005
8175.204
8175.403
8175.6
8175.795
8175.987
8176.176
8176.359
8176.537
8176.707
8176.869
8177.02
8177.16
8177.288
8177.403
8177.503
8177.586
8177.652
8177.695
8177.714
8177.696
8177.654
8177.568
8177.45
8177.317
8177.161
8176.978
8176.783
8176.586
8176.384
8176.171
8175.944
8175.701
8175.443
8175.167
8174.873
8174.559
8174.226
8173.872
8173.497
8173.101
8172.683
8172.243
8171.779
8171.291
8170.778
8170.24
8169.674
8169.082
8168.46
8167.809
8167.128
8166.415
8165.67
8164.892
8164.08
8163.233
8162.351
8161.432
8160.476
8159.481
8158.445
8157.365
8156.236
8155.053
8153.808
8152.492
8151.096
8149.61
8148.037
8146.386
8144.674
8142.914
8141.103
8139.231
8137.306
8135.361
8133.384
8131.357
8129.247
8127.082
8124.88
8122.656
8120.448
8118.213
8115.97
8113.727
8111.473
8109.21
8106.942
8104.67
8102.395
8100.119
8097.846
8095.576
8093.312
8091.057
8088.812
8086.581
8084.366
8082.168
8079.991
8077.837
8075.707
8073.604
8071.529
8069.484
8067.469
8065.487
8063.538
8061.624
8059.744
8057.9
8056.091
8054.318
8052.581
8050.88
8049.214
8047.583
8045.986
8044.423
8042.891
8041.392
8039.922
8038.481
8037.067
8035.679
8034.315
8032.972
8031.65
8030.344
8029.054
8027.777
8026.51
8025.25
8023.994
8022.739
8021.481
8020.217
8018.942
8017.653
8016.345
8015.013
8013.652
8012.256
8010.82
8009.339
8007.807
8006.219
8004.572
8002.866
8001.106
7999.305
7997.49
7995.7
7994
7992.457
7991.173
7990.223
7989.685
7989.505
5645.386
5547.091
5451.637
5353.198
5258.847
5154.299
5061.633
4967.373
4870.766
4774.718
4680.623
4588.077
4496.479
4407.009
4316.833
4216.051
4136.174
4063.189
3996.983
3938.573
3888.848
3849.019
3818.94
3798.503
3788.597
3790.222
3801.511
3827.206
3862.45
3904.45
3952.289
4008.639
4075.585
4155.255
4248.419
4355.169
4475.669
4609.941
4757.292
4917.04
5089.468
5274.962
5473.505
5684.421
5907.077
6140.33
6381.007
6625.239
6869.916
7106.882
7331.237
7534.692
7707.922
7848.21
7950.567
8012.759
8035.587
8021.86
7974.562
7895.877
7790.279
7666.533
7532.458
7391.873
7247.823
7103.606
6962.363
6826.493
6697.364
6575.732
6461.856
6355.392
6255.773
6161.949
6072.973
5988.616
5907.995
5830.326
5756.194
5686.756
5622.426
5563.131
5508.685
5458.763
5413.031
5372.028
5336.882
5308.449
5286.465
5270.345
5260.199
5256.586
5260.265
5271.273
5289.479
5315.505
5350.449
5395.012
5448.92
5510.978
5579.041
5650.173
5721.048
5789.08
5852.519
5909.765
5959.058
5998.897
6028.613
6048.256
6058.416
6060.084
6054.276
6041.566
6022.063
5996.052
5964.544
5930.633
5899.001
5873.429
5855.187
5843.442
5836.714
5833.807
5834.727
5840.506
5851.36
5868.308
5891.643
5920.043
5951.693
5986.042
6023.613
6064.607
6108.479
6153.806
6198.811
6242.226
6284.37
6326.609
6369.889
6414.758
6461.811
6510.928
6561.179
6611.156
6659.329
6704.353
6745.136
6781.061
6811.855
6837.115
6856.343
6869.408
6876.737
6879.046
6877.164
6872.096
6864.906
6857.015
6850.974
6845.944
6845.227
6852.922
6868.877
6893.812
6927.71
6969.159
7015.9
7065.271
7114.875
7162.371
7206.712
7248.315
7287.475
7324.658
7358.375
7387.334
7413.128
7434.993
7450.295
7457.6
7456.391
7448.437
7433.504
7413.033
7394.88
7384.243
7384.402
7391.32
7403.713
7419.899
7437.451
7454.748
7470.976
7485.973
7499.926
7513.019
7525.25
7536.592
7546.976
7556.29
7564.533
7571.788
7578.155
7583.757
7588.779
7593.438
7597.982
7602.74
7608.029
7614.102
7621.186
7629.452
7639.011
7649.914
7662.159
7675.678
7690.352
7706.022
7722.49
7739.539
7756.954
7774.509
7791.976
7809.161
7825.915
7842.112
7857.632
7872.38
7886.306
7899.392
7911.635
7923.048
7933.663
7943.52
7952.673
7961.177
7969.098
7976.502
7983.462
7990.051
7996.333
8002.366
8008.219
8013.961
8019.657
8025.346
8031.015
8036.678
8042.387
8048.134
8053.908
8059.702
8065.501
8071.292
8077.063
8082.796
8088.474
8094.079
8099.59
8104.983
8110.237
8115.335
8120.26
8124.999
8129.54
8133.876
8138
8141.91
8145.606
8149.089
8152.365
8155.436
8158.305
8160.976
8163.445
8165.715
8167.799
8169.702
8171.432
8172.993
8174.394
8175.641
8176.74
8177.706
8178.537
8179.249
8179.836
8180.307
8180.669
8180.928
8181.089
8181.158
8181.14
8181.039
8180.861
8180.61
8180.291
8179.908
8179.468
8178.974
8178.435
8177.858
8177.252
8176.631
8176.012
8175.418
8174.877
8174.422
8174.085
8173.883
8173.805
8173.809
8173.87
8173.964
8174.081
8174.212
8174.353
8174.502
8174.656
8174.815
8174.976
8175.141
8175.307
8175.475
8175.642
8175.809
8175.974
8176.136
8176.294
8176.446
8176.592
8176.729
8176.856
8176.972
8177.076
8177.167
8177.242
8177.301
8177.342
8177.361
8177.357
8177.326
8177.268
8177.177
8177.053
8176.905
8176.739
8176.558
8176.367
8176.168
8175.961
8175.742
8175.509
8175.262
8175
8174.721
8174.426
8174.114
8173.783
8173.433
8173.065
8172.676
8172.267
8171.836
8171.384
8170.909
8170.41
8169.886
8169.336
8168.759
8168.155
8167.521
8166.857
8166.161
8165.433
8164.672
8163.877
8163.045
8162.177
8161.27
8160.324
8159.336
8158.304
8157.225
8156.095
8154.91
8153.662
8152.346
8150.956
8149.488
8147.941
8146.323
8144.64
8142.901
8141.108
8139.264
8137.375
8135.443
8133.449
8131.386
8129.272
8127.136
8124.968
8122.781
8120.589
8118.369
8116.139
8113.892
8111.63
8109.359
8107.08
8104.795
8102.507
8100.217
8097.927
8095.641
8093.36
8091.087
8088.825
8086.576
8084.342
8082.127
8079.932
8077.76
8075.613
8073.493
8071.401
8069.339
8067.309
8065.312
8063.349
8061.422
8059.53
8057.674
8055.855
8054.073
8052.329
8050.621
8048.949
8047.314
8045.715
8044.15
8042.619
8041.12
8039.653
8038.217
8036.809
8035.428
8034.073
8032.74
8031.43
8030.138
8028.863
8027.603
8026.354
8025.115
8023.882
8022.652
8021.421
8020.187
8018.946
8017.693
8016.426
8015.139
8013.829
8012.491
8011.121
8009.716
8008.272
8006.787
8005.263
8003.702
8002.113
8000.51
7998.921
7997.375
7995.927
7994.619
7993.534
7992.689
7992.169
7991.861
5940.93
5934.921
5894.843
5818.088
5725.126
5629.843
5533.178
5438.721
5346.888
5253.938
5140.928
5047.651
4953.068
4858.006
4762.474
4667.581
4573.739
4480.9
4389.605
4301.374
4218.523
4138.076
4063.027
3994.273
3932.593
3878.743
3834.023
3799.152
3774.685
3760.978
3758.005
3765.969
3785.837
3816.225
3855.734
3904.088
3962.49
4031.77
4112.748
4205.91
4311.481
4429.838
4561.003
4703.811
4857.92
5024.189
5203.589
5396.456
5601.869
5818.748
6046.046
6280.958
6519.534
6757.546
6988.295
7205.011
7400.006
7565.831
7697.203
7791.438
7846.778
7864.471
7846.048
7793.697
7712.225
7607.833
7487.981
7358.398
7222.997
7085.426
6948.85
6816.374
6690.271
6571.608
6460.669
6357.157
6261.043
6171.349
6086.633
6005.603
5928.096
5852.147
5777.155
5705.082
5637.943
5576.236
5519.651
5467.618
5418.987
5372.767
5330.4
5294.514
5266.64
5244.946
5227.653
5215.74
5210.723
5213.804
5224.124
5240.975
5265.765
5301.139
5348.657
5408.648
5480.029
5559.617
5642.752
5725.055
5803.594
5876.653
5942.325
5998.031
6041.929
6073.509
6093.006
6101.378
6100.172
6090.735
6073.495
6048.034
6013.773
5971.155
5925.058
5883.262
5851.411
5830.547
5818.209
5811.274
5807.235
5806.223
5811.14
5820.77
5837.34
5862.563
5893.809
5927.518
5962.861
6001.874
6045.229
6092.132
6140.367
6187.111
6230.529
6271.164
6311.619
6353.005
6396.189
6442.787
6492.885
6545.262
6598.221
6649.738
6698.271
6742.779
6782.397
6816.433
6844.273
6865.347
6879.337
6886.338
6886.808
6881.534
6871.619
6858.276
6842.951
6827.665
6813.353
6803.301
6802.075
6811.113
6831.31
6862.386
6902.738
6949.895
7000.829
7052.515
7102.323
7148.876
7191.933
7231.476
7267.88
7300.837
7330.087
7356.437
7378.74
7395.249
7407.254
7415.771
7419.877
7415.157
7405.913
7399.849
7399.71
7404.081
7412.244
7424.164
7438.646
7454.027
7469.341
7483.989
7497.608
7510.415
7522.489
7533.709
7544.108
7553.679
7562.338
7570.074
7576.891
7582.821
7587.972
7592.522
7596.696
7600.762
7605.034
7609.81
7615.355
7621.893
7629.627
7638.786
7649.428
7661.517
7674.971
7689.67
7705.448
7722.094
7739.37
7757.02
7774.78
7792.469
7809.927
7826.947
7843.391
7859.141
7874.079
7888.147
7901.334
7913.639
7925.076
7935.68
7945.495
7954.576
7962.982
7970.778
7978.031
7984.809
7991.168
7997.165
8002.917
8008.522
8014.027
8019.467
8024.872
8030.32
8035.851
8041.515
8047.269
8053.053
8058.85
8064.645
8070.436
8076.217
8081.97
8087.678
8093.324
8098.879
8104.318
8109.62
8114.766
8119.738
8124.523
8129.109
8133.489
8137.655
8141.605
8145.338
8148.855
8152.161
8155.257
8158.149
8160.839
8163.328
8165.62
8167.727
8169.656
8171.409
8172.992
8174.414
8175.683
8176.806
8177.793
8178.653
8179.381
8179.991
8180.485
8180.87
8181.152
8181.337
8181.43
8181.435
8181.359
8181.205
8180.979
8180.686
8180.331
8179.921
8179.462
8178.961
8178.427
8177.87
8177.303
8176.743
8176.207
8175.717
8175.296
8174.965
8174.733
8174.593
8174.53
8174.519
8174.548
8174.604
8174.679
8174.771
8174.874
8174.987
8175.106
8175.232
8175.363
8175.498
8175.636
8175.774
8175.913
8176.051
8176.186
8176.319
8176.446
8176.566
8176.678
8176.78
8176.871
8176.95
8177.016
8177.067
8177.101
8177.117
8177.113
8177.087
8177.036
8176.96
8176.856
8176.725
8176.573
8176.405
8176.223
8176.029
8175.824
8175.607
8175.379
8175.138
8174.884
8174.616
8174.334
8174.037
8173.724
8173.394
8173.047
8172.683
8172.3
8171.899
8171.478
8171.036
8170.572
8170.086
8169.576
8169.041
8168.48
8167.891
8167.274
8166.626
8165.948
8165.237
8164.492
8163.712
8162.895
8162.041
8161.147
8160.211
8159.231
8158.206
8157.131
8156.004
8154.82
8153.575
8152.263
8150.882
8149.428
8147.903
8146.308
8144.649
8142.931
8141.158
8139.332
8137.454
8135.521
8133.531
8131.49
8129.409
8127.296
8125.149
8122.972
8120.772
8118.556
8116.322
8114.066
8111.796
8109.515
8107.224
8104.925
8102.622
8100.316
8098.01
8095.706
8093.408
8091.116
8088.836
8086.568
8084.315
8082.081
8079.867
8077.677
8075.511
8073.373
8071.263
8069.184
8067.138
8065.126
8063.148
8061.206
8059.301
8057.434
8055.605
8053.813
8052.06
8050.346
8048.669
8047.029
8045.427
8043.861
8042.33
8040.834
8039.371
8037.939
8036.538
8035.166
8033.82
8032.5
8031.203
8029.927
8028.669
8027.428
8026.201
8024.985
8023.777
8022.575
8021.375
8020.175
8018.971
8017.759
8016.537
8015.3
8014.046
8012.77
8011.471
8010.146
8008.793
8007.413
8006.009
8004.585
8003.151
8001.723
8000.323
7998.976
7997.726
7996.601
7995.663
7994.907
7994.419
7994.062
5947.178
5915.319
5828.565
5749.567
5665.064
5578.904
5492.136
5404.992
5317.181
5228.599
5139.97
5050.178
4957.404
4863.452
4768.445
4673.308
4578.501
4484.481
4391.465
4300.849
4215.103
4132.482
4053.757
3980.873
3915.243
3857.807
3809.475
3771.416
3744.593
3729.069
3724.604
3731.156
3748.75
3776.812
3814.955
3863.161
3921.928
3991.613
4072.498
4164.748
4268.564
4384.167
4510.877
4647.993
4796.542
4957.608
5131.226
5317.668
5516.84
5727.105
5947.401
6174.945
6405.908
6635.319
6856.767
7062.899
7246.392
7400.548
7520.394
7604.372
7651.024
7659.976
7633.643
7576.278
7494.23
7392.575
7276.499
7151.104
7020.743
6890.115
6762.171
6639.673
6524.406
6418.129
6321.368
6232.645
6151.225
6075.025
6001.466
5930.46
5862.181
5791.887
5718.651
5647.657
5583.086
5524.438
5470.707
5421.931
5375.651
5328.752
5283.362
5245.009
5218.145
5197.922
5179.766
5165.323
5157.221