/*--------------------------------*- C++ -*----------------------------------*\
| =========                 |                                                 |
| \\      /  F ield         | foam-extend: Open Source CFD                    |
|  \\    /   O peration     | Version:     3.1                                |
|   \\  /    A nd           | Web:         http://www.extend-project.de       |
|    \\/     M anipulation  |                                                 |
\*---------------------------------------------------------------------------*/
FoamFile
{
    version     2.0;
    format      ascii;
    class       surfaceScalarField;
    location    "9.5";
    object      phi;
}
// * * * * * * * * * * * * * * * * * * * * * * * * * * * * * * * * * * * * * //

dimensions      [0 3 -1 0 0 0 0];

internalField   nonuniform List<scalar> 
275122
(
-0.0002507373
0.000252333
-1.948095e-07
-1.400893e-06
-0.0002191259
0.0002076485
8.755838e-07
1.060174e-05
-0.0002118395
0.0002161461
-2.177622e-07
-4.088875e-06
-0.0002312157
0.0002365794
-2.770696e-07
-5.086597e-06
-0.0002500674
0.0002515234
-3.066498e-07
-1.149311e-06
-0.000250948
0.0002505702
-2.610499e-07
6.387991e-07
-0.0002488091
0.0002481933
-2.357383e-07
8.515417e-07
-0.0002462781
0.0002456365
-2.150215e-07
8.566356e-07
-0.0002437586
0.0002431451
-1.94191e-07
8.076718e-07
-0.0002413199
0.0002407103
-1.717574e-07
7.814219e-07
-0.0002388555
0.0002382249
-1.487624e-07
7.793738e-07
-0.0002362624
0.0002355659
-1.31502e-07
8.280369e-07
-0.0002333176
0.0002325146
-1.180514e-07
9.210547e-07
-0.0002299501
0.0002290364
-1.047822e-07
1.018494e-06
-0.0002261122
0.0002250709
-9.291573e-08
1.134221e-06
-0.0002217419
0.0002205615
-8.273252e-08
1.263108e-06
-0.000216794
0.0002154624
-7.417612e-08
1.405717e-06
-0.000211274
0.0002098007
-7.307409e-08
1.546334e-06
-0.0002052878
0.0002038595
-7.757932e-08
1.505886e-06
-0.0002004359
0.0002003207
-2.977394e-07
4.128974e-07
-0.0002196914
0.0002276915
-7.417574e-07
-7.258289e-06
-0.0002264617
0.0002246788
-7.218237e-08
1.855033e-06
-0.0002205835
0.0002194894
-7.395922e-09
1.101501e-06
-0.0002335503
0.0002383831
5.499958e-07
-5.382757e-06
-0.0002174228
0.0002078624
6.240492e-07
8.936281e-06
-0.0001482321
0.0001161076
-5.02729e-09
3.212955e-05
-6.100596e-05
5.756464e-05
-5.314066e-07
3.972726e-06
-6.616769e-05
6.649119e-05
-4.533626e-07
1.298664e-07
-6.161559e-05
5.959138e-05
-3.949299e-07
2.41914e-06
-0.0001352445
0.0001387603
2.947306e-09
-3.518663e-06
-0.0002043984
0.0002147015
-5.468354e-08
-1.024843e-05
-0.000244208
0.000254067
6.303201e-09
-9.865361e-06
-0.0002843546
0.0002945739
7.319659e-09
-1.022672e-05
-0.0003259817
0.0003366847
7.743562e-09
-1.071067e-05
-0.0003695343
0.0003808678
7.155936e-09
-1.134064e-05
-0.0004153854
0.0004270577
7.714286e-09
-1.167999e-05
-0.0004626265
0.0004746994
7.018227e-09
-1.207989e-05
-0.000511381
0.000523768
7.154097e-09
-1.239417e-05
-0.0005610733
0.0005736295
6.14844e-09
-1.256231e-05
-0.0006113791
0.0006249208
1.849465e-07
-1.372669e-05
1.080606e-05
-0.0004247899
0.0004266005
1.205364e-09
-1.261788e-05
1.085828e-05
-0.0004326891
0.0004346365
1.095918e-10
-1.280586e-05
1.111714e-05
-0.0004399728
0.000441653
-2.528906e-10
-1.279713e-05
1.14748e-05
-0.0004461828
0.0004475447
-6.02667e-10
-1.28361e-05
1.17812e-05
-0.0004511203
0.0004522009
-6.635947e-10
-1.286111e-05
1.198474e-05
-0.0004550565
0.0004559252
-5.342612e-10
-1.28529e-05
1.210462e-05
-0.000458201
0.0004588865
-4.938939e-10
-1.278966e-05
1.213738e-05
-0.0004607632
0.0004613205
-6.397603e-10
-1.269403e-05
1.234017e-05
-0.0004627241
0.0004625496
-2.999598e-10
-1.216539e-05
1.077602e-05
-0.001875239
0.001880416
-1.934709e-10
-4.871641e-05
1.101931e-05
1.075425e-05
1.098924e-05
1.133549e-05
-0.001883588
0.001885613
-1.196991e-10
-4.805391e-05
1.17e-05
1.131711e-05
1.167686e-05
1.135847e-05
-0.001886876
0.001887478
-7.334165e-11
-4.63192e-05
1.151945e-05
1.133685e-05
1.150201e-05
1.121474e-05
-0.001887955
0.001887839
-3.719956e-11
-4.487456e-05
1.12994e-05
1.119392e-05
1.128249e-05
1.109029e-05
-0.001887356
0.00188617
-1.900866e-11
-4.322787e-05
1.113554e-05
1.107165e-05
1.11166e-05
1.087786e-05
-0.00188459
0.001882766
-1.094878e-11
-4.127325e-05
1.068551e-05
1.086275e-05
1.067097e-05
1.049917e-05
-0.001881113
0.001878332
-4.738528e-12
-3.942454e-05
1.061761e-05
1.048386e-05
1.060432e-05
1.017839e-05
-0.001875457
0.001872012
1.944155e-12
-3.716483e-05
1.014217e-05
1.016139e-05
1.012795e-05
9.710051e-06
-0.001868575
0.001864327
-9.214363e-13
-3.457319e-05
9.717112e-06
9.693327e-06
9.700376e-06
8.618054e-06
-0.001858341
0.001855724
-4.351927e-12
-3.253515e-05
8.969511e-06
8.600744e-06
8.963428e-06
8.939365e-06
-0.001851784
0.001845572
6.536325e-12
-2.935515e-05
8.845312e-06
8.938661e-06
8.843074e-06
8.261561e-06
-0.001839213
0.001832649
2.775172e-11
-2.608803e-05
8.067919e-06
8.258381e-06
8.063884e-06
7.548362e-06
-0.001826007
0.001818926
5.356272e-11
-2.27588e-05
7.376485e-06
7.542929e-06
7.371931e-06
6.817056e-06
-0.001811601
0.001803843
7.306078e-11
-1.916465e-05
6.649598e-06
6.810097e-06
6.645788e-06
6.038331e-06
-0.001795841
0.001787447
7.950878e-11
-1.540079e-05
5.869459e-06
6.024331e-06
5.86253e-06
5.295374e-06
-0.001778789
0.0017697
7.399316e-11
-1.169881e-05
5.129237e-06
5.255535e-06
5.10783e-06
4.758851e-06
-0.001760339
0.001750596
5.870953e-11
-8.729703e-06
4.6163e-06
4.599669e-06
4.498566e-06
4.938731e-06
-0.00174028
0.001728887
3.914484e-11
-7.109126e-06
4.944678e-06
4.312096e-06
4.306434e-06
7.683255e-06
-0.00171418
0.001692454
2.138086e-11
-5.57066e-06
8.20545e-06
6.031747e-06
5.376278e-06
-8.870267e-06
-0.001666075
0.001667216
6.562641e-13
7.729421e-06
-7.892526e-06
-0.001668528
0.001659253
-6.329287e-12
1.71677e-05
3.420477e-06
-0.00164672
0.001632965
-1.273829e-11
1.03343e-05
3.929176e-06
-0.001619668
0.001606756
-2.950287e-11
8.982531e-06
-2.22327e-06
-0.001594463
0.001584695
-3.673286e-11
1.199124e-05
-6.82989e-06
-0.001576562
0.001568744
-3.629323e-11
1.464717e-05
-6.224836e-06
-0.001561066
0.001553898
-2.389034e-11
1.339297e-05
-4.889885e-06
-0.001547261
0.001541279
-1.007426e-11
1.08725e-05
-3.470039e-06
-0.001535764
0.001530919
2.566722e-12
8.314813e-06
-2.215583e-06
-0.001526563
0.001522876
1.151671e-11
5.902883e-06
-1.19668e-06
-0.001519667
0.001517033
1.422566e-11
3.83087e-06
-6.319854e-07
-0.001514868
0.001513253
9.382027e-12
2.246858e-06
-3.657978e-07
-0.001511989
0.001511151
3.79081e-13
1.204159e-06
-6.431039e-07
-0.001510565
0.001510231
-9.53686e-12
9.775396e-07
-1.376522e-06
-0.001509995
0.001509863
-1.619488e-11
1.508158e-06
-2.559146e-06
-0.001509708
0.001509508
-2.183595e-11
2.759144e-06
-4.134577e-06
-0.001509187
0.001508663
-2.491075e-11
4.658222e-06
-6.010946e-06
-0.00150789
0.001506739
-2.373028e-11
7.161403e-06
-7.758999e-06
-0.001505134
0.001502687
-1.884525e-11
1.020544e-05
-9.040925e-06
-0.001499473
0.001495047
-5.169235e-12
1.346702e-05
-7.759721e-06
-0.001486737
0.001477464
2.034163e-11
1.703268e-05
-1.974072e-05
-0.001470509
0.00146307
2.397476e-11
2.717965e-05
-2.508621e-05
-0.001452519
0.001439921
3.338376e-11
3.768391e-05
-2.9845e-05
-0.0014186
0.0013979
5.415068e-11
5.054482e-05
-6.732853e-05
-0.001382129
0.001366487
-2.955216e-11
8.297065e-05
-0.0001324962
-0.001362698
0.001362792
-1.278336e-10
0.0001324022
-0.0001233512
-0.001359984
0.001348285
-4.883714e-10
0.0001350512
-0.0001121029
-0.001321968
0.00129117
-4.883869e-10
0.000142901
-0.0001112235
-0.001256112
0.001220989
-3.648374e-10
0.0001463468
-1.861124e-05
-0.001173061
0.001096792
2.487612e-10
0.0001510786
-1.872772e-05
-1.865394e-05
-1.881727e-05
-1.655865e-05
-0.001019402
0.0009344382
2.163539e-09
0.0001493814
-1.558502e-05
-1.662577e-05
-1.564991e-05
-1.036795e-05
-0.0008424845
0.0007542085
3.158254e-09
0.0001293749
-1.01491e-05
-1.04052e-05
-1.017971e-05
-7.583123e-06
-0.0006829948
0.0006305082
3.116946e-09
8.247217e-05
-7.395504e-06
-7.601194e-06
-7.408801e-06
-8.458483e-06
-0.0005909098
0.0005560967
6.661568e-10
6.962115e-05
-8.952274e-06
-8.453996e-06
-8.943945e-06
-8.509004e-06
-0.0005286819
0.00050553
-1.7253e-09
5.621843e-05
-8.031674e-06
-8.50026e-06
-8.023828e-06
-6.120309e-06
-0.0004869338
0.0004691402
-2.41458e-09
4.206375e-05
-6.017992e-06
-6.115733e-06
-6.013754e-06
-6.309482e-06
-0.0004506748
0.0004314904
-1.918388e-09
4.454449e-05
-6.373457e-06
-6.305608e-06
-6.369672e-06
-6.409754e-06
-0.0004122974
0.0003938416
-1.189338e-09
4.399427e-05
-6.362233e-06
-6.406318e-06
-6.359e-06
-6.133706e-06
-0.0003762456
0.0003591272
-6.521659e-10
4.154915e-05
-6.084041e-06
-6.130925e-06
-6.081421e-06
-5.797576e-06
-0.000342556
0.000326708
-3.364458e-10
3.884247e-05
-5.701738e-06
-5.795271e-06
-5.699584e-06
-5.075817e-06
-0.0003116741
0.0002981476
-1.663839e-10
3.350654e-05
-4.915876e-06
-5.07399e-06
-4.914171e-06
-4.051737e-06
-0.0002857726
0.0002751651
-7.807582e-11
2.645531e-05
-3.873447e-06
-4.050372e-06
-3.872182e-06
-2.997123e-06
-0.0002657116
0.0002579232
-3.273681e-11
1.945437e-05
-2.836747e-06
-2.996171e-06
-2.835865e-06
-2.095841e-06
-0.0002511211
0.0002456974
-9.851295e-12
1.35568e-05
-1.971333e-06
-2.095201e-06
-1.97073e-06
-1.409915e-06
-0.0002410346
0.0002374203
6.988813e-13
9.073427e-06
-1.320069e-06
-1.409476e-06
-1.319642e-06
-9.154315e-07
-0.0002343594
0.000232064
3.665396e-12
5.83153e-06
-8.529345e-07
-9.151438e-07
-8.526246e-07
-5.712932e-07
-0.0002301628
0.0002288072
3.545431e-12
3.559279e-06
-5.307546e-07
-5.710908e-07
-5.30513e-07
-3.526857e-07
-0.0002277201
0.0002269835
1.872e-12
2.104196e-06
-3.312703e-07
-3.525151e-07
-3.310721e-07
-2.428161e-07
-0.0002264004
0.0002259911
-9.961713e-14
1.367645e-06
-2.364972e-07
-2.42647e-07
-2.36324e-07
-2.150373e-07
-0.0002256373
0.0002253246
-1.905439e-12
1.179547e-06
-2.1856e-07
-2.148567e-07
-2.183691e-07
-2.403561e-07
-0.0002250008
0.0002246313
-2.673858e-12
1.348491e-06
-2.493132e-07
-2.401518e-07
-2.491078e-07
-2.964077e-07
-0.0002242108
0.0002236926
-2.557867e-12
1.726701e-06
-3.080497e-07
-2.961755e-07
-3.078443e-07
-3.680657e-07
-0.0002231014
0.000222383
-1.33157e-12
2.214968e-06
-3.804472e-07
-3.678425e-07
-3.802189e-07
-4.457443e-07
-0.0002215813
0.0002206385
-5.406642e-14
2.749693e-06
-4.579965e-07
-4.454501e-07
-4.576911e-07
-5.224443e-07
0.00021844
5.955485e-13
3.28135e-06
-5.335873e-07
-5.220911e-07
-5.332571e-07
-0.00021961
-5.916063e-07
-0.0002171893
0.0002158102
1.177236e-12
3.763189e-06
-6.007328e-07
-5.91285e-07
-6.004221e-07
-6.474123e-07
-0.0002143625
0.0002128102
2.135882e-12
4.153874e-06
-6.537019e-07
-6.470923e-07
-6.5337e-07
-6.852241e-07
-0.0002112072
0.0002095326
3.226752e-12
4.420569e-06
-6.881173e-07
-6.848655e-07
-6.877639e-07
-7.01442e-07
-0.00020783
0.0002060955
4.223286e-12
4.537613e-06
-7.00489e-07
-7.010986e-07
-7.001511e-07
-6.935e-07
-0.000204359
0.0002026361
5.048344e-12
4.486214e-06
-6.884568e-07
-6.931936e-07
-6.88159e-07
-6.59968e-07
-0.0002009396
0.0001993051
5.687448e-12
4.255425e-06
-6.507564e-07
-6.597175e-07
-6.505146e-07
-6.007417e-07
-0.0001977262
0.0001962588
6.125378e-12
3.843512e-06
-5.87492e-07
-6.00558e-07
-5.873163e-07
-5.171434e-07
-0.0001948758
0.0001936517
6.369289e-12
3.25848e-06
-5.001545e-07
-5.170351e-07
-5.000513e-07
-4.11646e-07
-0.0001925388
0.0001916284
6.687594e-12
2.516306e-06
-3.913257e-07
-4.116283e-07
-3.913037e-07
-2.872047e-07
-0.0001908539
0.0001903202
7.460112e-12
1.637125e-06
-2.644652e-07
-2.872791e-07
-2.645229e-07
-1.475593e-07
-0.0001899472
0.0001898451
7.363591e-12
6.457939e-07
-1.241415e-07
-1.477018e-07
-1.242886e-07
4.471445e-09
-0.0001899236
0.0001902943
7.188793e-12
-4.306822e-07
2.572109e-08
4.333205e-09
2.548546e-08
1.580689e-07
-0.0001908544
0.0001917276
7.215501e-12
-1.552698e-06
1.820011e-07
1.57774e-07
1.816482e-07
3.14939e-07
-0.000192792
0.000194178
7.250207e-12
-2.693124e-06
3.39052e-07
3.145392e-07
3.38609e-07
4.697102e-07
-0.0001957569
0.0001976568
7.468509e-12
-3.824679e-06
4.931824e-07
4.692305e-07
4.926834e-07
6.184873e-07
-0.000199745
0.0002021459
7.942967e-12
-4.917475e-06
6.403273e-07
6.179171e-07
6.397613e-07
7.558939e-07
-0.000204729
0.0002076098
7.796818e-12
-5.942446e-06
7.756697e-07
7.551582e-07
7.74898e-07
8.787231e-07
-0.0002106619
0.0002139906
7.719321e-12
-6.876322e-06
8.959396e-07
8.779173e-07
8.950557e-07
9.848086e-07
-0.0002174756
0.0002212098
7.677098e-12
-7.700308e-06
9.990506e-07
9.839917e-07
9.982178e-07
1.071868e-06
-0.0002250831
0.0002291738
7.534639e-12
-8.398519e-06
1.082936e-06
1.070999e-06
1.082054e-06
1.138463e-06
-0.0002333839
0.0002377757
7.380057e-12
-8.959205e-06
1.146159e-06
1.137545e-06
1.145229e-06
1.1832e-06
-0.0002422657
0.0002468992
7.084733e-12
-9.372672e-06
1.187295e-06
1.182251e-06
1.186345e-06
1.203314e-06
-0.0002516092
0.0002564245
6.592946e-12
-9.626994e-06
1.203428e-06
1.202384e-06
1.202506e-06
1.182194e-06
-0.0002613002
0.0002662744
6.208116e-12
-9.734395e-06
1.198325e-06
1.181452e-06
1.198204e-06
1.22702e-06
-0.0002713036
0.0002762971
6.449697e-12
-9.775739e-06
1.162673e-06
1.228889e-06
1.163719e-06
1.175262e-06
-0.0002814705
0.0002864979
5.866729e-12
-9.762405e-06
1.192088e-06
1.175607e-06
1.192035e-06
1.149504e-06
-0.0002915219
0.0002965353
4.498092e-12
-9.596948e-06
1.142638e-06
1.14915e-06
1.142207e-06
1.102645e-06
-0.0003015256
0.0003064473
3.005515e-12
-9.320085e-06
1.096957e-06
1.102289e-06
1.096511e-06
1.049756e-06
-0.0003113356
0.0003161376
4.427212e-12
-8.984421e-06
1.041928e-06
1.049318e-06
1.041437e-06
9.903324e-07
-0.0003208963
0.0003255532
4.465296e-12
-8.598103e-06
9.807578e-07
9.898222e-07
9.802189e-07
9.243955e-07
-0.0003301616
0.0003346568
4.899701e-12
-8.170707e-06
9.138359e-07
9.238594e-07
9.13349e-07
8.535449e-07
-0.0003390993
0.0003434239
2.628816e-12
-7.715131e-06
8.421076e-07
8.530835e-07
8.417098e-07
7.801475e-07
-0.0003476969
0.0003518477
3.484235e-12
-7.249111e-06
7.694351e-07
7.796295e-07
7.690685e-07
7.10204e-07
-0.000355942
0.000359915
3.862968e-12
-6.792346e-06
6.99597e-07
7.097488e-07
6.9976e-07
6.437568e-07
-0.0003638313
0.000367628
4.419022e-12
-6.353917e-06
6.351391e-07
6.435059e-07
6.34746e-07
5.803429e-07
-0.0003713736
0.0003750082
5.938937e-12
-5.939063e-06
5.72339e-07
5.802557e-07
5.715558e-07
5.230127e-07
-0.0003785909
0.0003820728
3.74669e-12
-5.557956e-06
5.151915e-07
5.228464e-07
5.149872e-07
4.698811e-07
-0.0003855086
0.0003888555
-1.373021e-12
-5.211455e-06
4.625991e-07
4.696905e-07
4.624363e-07
4.210582e-07
-0.0003921624
0.0003953947
2.154616e-12
-4.901949e-06
4.139546e-07
4.208498e-07
4.137588e-07
3.756353e-07
-0.0003985958
0.0004017389
4.707062e-12
-4.633398e-06
3.696662e-07
3.754828e-07
3.695559e-07
3.416321e-07
-0.0004048529
0.0004079117
2.957359e-12
-4.417125e-06
3.376645e-07
3.415185e-07
3.375562e-07
3.129631e-07
-0.0004109465
0.0004139426
7.692555e-13
-4.239832e-06
3.090217e-07
3.128475e-07
3.089204e-07
2.867097e-07
-0.000416923
0.0004198769
3.465187e-13
-4.093397e-06
2.831641e-07
2.865966e-07
2.830579e-07
2.638544e-07
-0.0004228212
0.0004257501
1.373513e-12
-3.977978e-06
2.607484e-07
2.637466e-07
2.606536e-07
2.444333e-07
-0.0004286754
0.0004315957
2.638664e-12
-3.892556e-06
2.417646e-07
2.443485e-07
2.416788e-07
2.282121e-07
-0.0004345177
0.0004374441
2.135169e-12
-3.834381e-06
2.259102e-07
2.281182e-07
2.258178e-07
2.145905e-07
-0.0004403768
0.0004433216
1.386025e-12
-3.798848e-06
2.125635e-07
2.144991e-07
2.12481e-07
2.030217e-07
-0.0004462767
0.0004492497
2.046698e-12
-3.781376e-06
2.012392e-07
2.029541e-07
2.011818e-07
1.929146e-07
-0.0004522362
0.0004552451
1.648189e-12
-3.777174e-06
1.912268e-07
1.928764e-07
1.912084e-07
1.8358e-07
0.0004613201
3.265978e-13
-3.78106e-06
-0.0004582701
1.820086e-07
1.8355e-07
1.819394e-07
1.743217e-07
-0.0004643875
0.000467481
8.106751e-13
-3.787184e-06
1.72595e-07
1.742356e-07
1.724872e-07
1.643291e-07
-0.0004705923
0.0004737284
1.856306e-12
-3.789591e-06
1.625371e-07
1.64218e-07
1.624643e-07
1.527876e-07
-0.0004768816
0.0004800567
2.588759e-12
-3.782141e-06
1.507601e-07
1.527229e-07
1.507017e-07
1.391417e-07
-0.0004832475
0.0004864556
1.615323e-12
-3.760062e-06
1.368609e-07
1.391133e-07
1.368299e-07
1.230336e-07
-0.0004896767
0.0004929094
7.956594e-13
-3.719582e-06
1.204209e-07
1.229968e-07
1.203871e-07
1.03956e-07
-0.000496152
0.0004993993
6.716302e-14
-3.657177e-06
1.0101e-07
1.039388e-07
1.009822e-07
8.179301e-08
-0.0005026525
0.0005059026
-3.837652e-13
-3.570574e-06
7.8463e-08
8.178189e-08
7.845581e-08
5.650112e-08
-0.000509154
0.0005123935
-2.688326e-13
-3.457985e-06
5.275996e-08
5.647625e-08
5.275002e-08
2.80564e-08
-0.0005156291
0.0005188423
1.175165e-12
-3.317182e-06
2.397033e-08
2.804212e-08
2.396538e-08
-9.493074e-10
-0.0005220417
0.0005252076
1.002253e-12
-3.149749e-06
-7.132472e-09
-9.487106e-10
-7.129577e-09
-3.89739e-08
-0.0005283649
0.0005314835
2.220537e-13
-2.954077e-06
-4.328264e-08
-3.897327e-08
-4.329108e-08
-7.618327e-08
-0.0005345811
0.0005376305
-2.53453e-13
-2.735354e-06
-8.081333e-08
-7.618133e-08
-8.082602e-08
-1.154236e-07
-0.0005406534
0.0005436191
2.515211e-12
-2.494246e-06
-1.203097e-07
-1.154573e-07
-1.203273e-07
-1.562859e-07
-0.0005465533
0.0005494221
5.939808e-12
-2.233617e-06
-1.613001e-07
-1.563038e-07
-1.612854e-07
-1.981358e-07
-0.0005522543
0.0005550136
-2.611185e-13
-1.956542e-06
-2.03282e-07
-1.981149e-07
-2.031994e-07
-2.405447e-07
-0.0005577315
0.0005603698
-8.429192e-12
-1.666263e-06
-2.454995e-07
-2.404555e-07
-2.454907e-07
-2.824919e-07
-0.0005629627
0.00056547
-8.048255e-12
-1.367647e-06
-2.872825e-07
-2.825164e-07
-2.873356e-07
-3.237497e-07
-0.0005679275
0.0005702957
5.464126e-13
-1.064319e-06
-3.281471e-07
-3.238385e-07
-3.281482e-07
-3.631863e-07
-0.0005726132
0.0005748339
3.878585e-12
-7.646563e-07
-3.648834e-07
-3.632909e-07
-3.647075e-07
-3.984407e-07
-0.0005769909
0.0005790673
5.383345e-12
-4.712382e-07
-4.040552e-07
-3.988155e-07
-4.038389e-07
-4.356415e-07
-0.0005810883
0.0005830217
5.645062e-12
-1.811056e-07
-4.404988e-07
-4.353708e-07
-4.408198e-07
-4.616526e-07
-0.0005848652
0.000586671
3.173291e-12
6.161637e-08
-4.720286e-07
-4.613367e-07
-4.723818e-07
-4.615454e-07
-0.0005883957
0.0005900694
-9.830784e-12
1.783189e-07
-4.642238e-07
-4.619381e-07
-4.643525e-07
-2.507102e-07
-0.0005912771
0.0005919773
-1.463612e-11
1.294116e-07
-1.62952e-07
-2.515632e-07
-1.644035e-07
-9.238059e-08
-0.0001471162
0.000146921
-7.275247e-11
2.876658e-07
-3.82433e-07
-0.0001464581
0.0001464136
8.582978e-12
4.269383e-07
-5.046116e-07
-0.0001464677
0.0001465186
3.820285e-10
4.53321e-07
-5.702003e-07
-0.000146723
0.0001467964
4.93181e-10
4.96309e-07
-6.104314e-07
-0.0001470191
0.0001470889
1.819182e-10
5.404012e-07
-6.429861e-07
-0.0001472857
0.0001473444
-1.783977e-11
5.842921e-07
-6.719797e-07
-0.0001475061
0.0001475537
-5.32524e-11
6.243966e-07
-6.897425e-07
-0.0001476653
0.0001476957
-2.292356e-12
6.593355e-07
-7.104063e-07
-0.0001477706
0.0001477882
-4.581274e-11
6.927822e-07
-7.267528e-07
-0.0001478232
0.0001478285
6.689564e-11
7.213542e-07
-7.385668e-07
-0.0001478281
0.0001478214
3.11242e-11
7.451626e-07
-7.497997e-07
-0.0001477858
0.0001477686
3.46848e-10
7.666821e-07
-7.601742e-07
-0.0001477045
0.0001476787
1.318775e-10
7.859213e-07
-7.647511e-07
-0.0001475896
0.0001475558
-1.882613e-10
7.987768e-07
-7.666325e-07
-0.0001474443
0.0001474037
-1.942647e-10
8.07419e-07
-7.6779e-07
-0.0001472738
0.0001472278
-1.228435e-10
8.139899e-07
-7.679829e-07
-0.0001470831
0.0001470326
-8.655364e-11
8.185474e-07
-7.670794e-07
-0.0001468761
0.0001468221
-7.381302e-11
8.210723e-07
-7.652042e-07
-0.0001466566
0.0001466002
-7.086391e-11
8.217105e-07
-7.62427e-07
-0.0001464283
0.0001463703
-7.21142e-11
8.205769e-07
-7.588279e-07
-0.0001461948
0.000146136
-7.43914e-11
8.177034e-07
-7.545347e-07
-0.0001459596
0.0001459009
-8.176699e-11
8.133022e-07
-7.495762e-07
-0.000145726
0.0001456683
-7.648786e-11
8.073909e-07
-7.441626e-07
-0.0001454973
0.0001454413
-5.234045e-11
8.002114e-07
-7.383652e-07
-0.0001452767
0.0001452232
-2.857168e-11
7.918489e-07
-7.32212e-07
-0.0001450674
0.0001450173
-1.422954e-11
7.823574e-07
-7.256156e-07
-0.0001448726
0.0001448266
-1.098056e-11
7.71589e-07
-7.186572e-07
-0.0001446958
0.0001446549
-7.76273e-12
7.595717e-07
-7.112484e-07
-0.0001445406
0.0001445057
-1.625594e-12
7.461065e-07
-7.035205e-07
-0.0001444112
0.0001443839
8.674502e-13
7.308273e-07
-6.925499e-07
-0.0001443144
0.0001442945
8.93665e-13
7.123991e-07
-6.869733e-07
-0.0001442547
0.0001442508
-1.520903e-12
6.908867e-07
-6.670739e-07
-0.0001442529
0.0001442637
5.591993e-12
6.562776e-07
-6.389679e-07
-0.0001443217
0.0001443597
1.030416e-11
6.009586e-07
-5.730053e-07
-0.0001445522
0.0001446655
1.166653e-11
4.597785e-07
1.685665e-07
-0.0001450614
0.0001449891
2.237915e-11
-9.624812e-08
5.821621e-07
-0.0001447836
0.0001447562
7.449851e-12
-5.548473e-07
6.603379e-07
-0.0001447074
0.000144704
8.723912e-12
-6.569895e-07
6.894289e-07
-0.0001447315
0.0001447522
9.125155e-12
-7.101161e-07
7.148484e-07
-0.0001448345
0.0001448693
1.082567e-11
-7.497561e-07
7.332732e-07
-0.0001449925
0.0001450401
1.027731e-11
-7.809215e-07
7.501895e-07
-0.000145198
0.0001452561
1.130809e-11
-8.082898e-07
7.638732e-07
-0.000145445
0.0001455131
1.25826e-11
-8.31986e-07
7.764198e-07
-0.0001457307
0.0001458081
1.219319e-11
-8.538367e-07
7.877476e-07
-0.000146053
0.0001461392
9.687541e-12
-8.73965e-07
7.984304e-07
-0.0001464097
0.0001465043
9.739453e-12
-8.929898e-07
8.087278e-07
-0.0001467991
0.0001469015
1.303599e-11
-9.111615e-07
8.187412e-07
-0.0001472194
0.0001473293
1.783491e-11
-9.286725e-07
8.28714e-07
-0.000147669
0.0001477861
2.075714e-11
-9.457904e-07
8.387085e-07
-0.0001481466
0.0001482705
2.047192e-11
-9.626199e-07
8.487567e-07
-0.0001486508
0.0001487812
1.93313e-11
-9.791696e-07
8.589288e-07
-0.0001491805
0.0001493171
2.055858e-11
-9.955049e-07
8.691353e-07
-0.0001497344
0.0001498768
2.065657e-11
-1.011594e-06
8.793044e-07
-0.0001503113
0.0001504593
2.275061e-11
-1.027357e-06
8.89421e-07
-0.0001509099
0.0001510632
2.678692e-11
-1.042758e-06
8.99518e-07
-0.000151529
0.0001516872
2.77054e-11
-1.057792e-06
9.094977e-07
-0.0001521672
0.0001523301
2.876536e-11
-1.072386e-06
9.192936e-07
-0.0001528232
0.0001529904
3.130573e-11
-1.086457e-06
9.289201e-07
-0.0001534956
0.0001536666
3.717867e-11
-1.100009e-06
9.383244e-07
-0.0001541829
0.0001543575
4.040344e-11
-1.112956e-06
9.473723e-07
-0.0001548835
0.0001550613
3.756834e-11
-1.12521e-06
9.560688e-07
-0.0001555962
0.0001557768
3.42966e-11
-1.136701e-06
9.643554e-07
-0.0001563193
0.0001565023
3.676267e-11
-1.147378e-06
9.722164e-07
-0.0001570512
0.0001572361
3.789789e-11
-1.157227e-06
9.796016e-07
-0.0001577901
0.0001579767
4.20115e-11
-1.166189e-06
9.863965e-07
-0.0001585346
0.0001587223
4.257235e-11
-1.174171e-06
9.931268e-07
-0.0001592828
0.0001594713
4.604093e-11
-1.18168e-06
1.004129e-06
-0.0001600308
0.0001602166
5.004146e-11
-1.189986e-06
9.936972e-07
-0.0001607657
0.0001609628
1.35766e-10
-1.190945e-06
1.037433e-06
-0.0001615699
0.000161737
1.811491e-10
-1.204685e-06
1.164915e-06
-0.0001611595
0.0006592027
-1.021248e-12
-5.463689e-06
1.018949e-07
1.167326e-06
9.133275e-08
-0.0001611624
-0.0001669706
-0.000166972
6.234526e-07
-0.0006631073
0.0006651302
-1.938537e-12
-5.024852e-06
8.889935e-07
6.114872e-07
8.780113e-07
7.863907e-07
-0.0006668479
0.0006685422
2.483019e-12
-4.934396e-06
8.426372e-07
7.771747e-07
8.339427e-07
8.320982e-07
-0.0006704038
0.0006721856
6.204475e-12
-5.175383e-06
8.726452e-07
8.240165e-07
8.647821e-07
8.776479e-07
-0.000673926
0.0006755592
9.363679e-12
-5.185576e-06
9.058763e-07
8.70216e-07
8.986675e-07
9.030414e-07
-0.0006771694
0.0006787385
1.050368e-11
-5.197255e-06
9.181355e-07
8.957456e-07
9.112115e-07
9.167118e-07
-0.0006803106
0.0006818525
8.704334e-12
-5.215792e-06
9.266753e-07
9.101683e-07
9.203403e-07
9.350584e-07
-0.0006833879
0.0006848818
8.240981e-12
-5.230211e-06
9.386708e-07
9.294207e-07
9.331528e-07
9.484235e-07
-0.0006863653
0.0006878191
9.362369e-12
-5.247856e-06
9.535349e-07
9.434115e-07
9.486587e-07
9.58282e-07
-0.0006892619
0.0006906724
6.570615e-12
-5.243689e-06
9.62773e-07
9.538264e-07
9.583562e-07
9.648552e-07
-0.0006920703
0.0006934381
2.388088e-12
-5.225244e-06
9.677343e-07
9.609096e-07
9.639328e-07
9.678231e-07
-0.0006947918
0.0006961166
2.540965e-12
-5.193265e-06
9.697879e-07
9.643626e-07
9.664358e-07
9.679058e-07
-0.0006974275
0.0006987103
6.356769e-12
-5.150952e-06
9.691435e-07
9.648509e-07
9.661737e-07
9.662007e-07
-0.0006999784
0.0007012179
8.03122e-12
-5.100479e-06
9.669931e-07
9.634841e-07
9.643308e-07
9.631026e-07
-0.0007024417
0.0007036363
5.191905e-12
-5.043258e-06
9.636468e-07
9.6067e-07
9.612785e-07
9.589178e-07
-0.0007048146
0.000705963
2.849203e-12
-4.980577e-06
9.593089e-07
9.567488e-07
9.571814e-07
9.537824e-07
-0.0007070948
0.0007081961
2.165288e-12
-4.912976e-06
9.539742e-07
9.518251e-07
9.520577e-07
9.47847e-07
-0.0007092802
0.000710333
1.510346e-12
-4.840912e-06
9.479755e-07
9.46071e-07
9.462293e-07
9.414735e-07
-0.0007113678
0.0007123705
5.275565e-12
-4.765591e-06
9.415582e-07
9.398618e-07
9.399864e-07
9.346027e-07
-0.0007133548
0.0007143066
1.132488e-11
-4.687278e-06
9.345726e-07
9.331591e-07
9.33158e-07
9.272609e-07
-0.0007152396
0.0007161394
9.483196e-12
-4.606013e-06
9.27191e-07
9.259362e-07
9.25884e-07
9.197104e-07
-0.0007170198
0.0007178669
3.000576e-12
-4.523274e-06
9.195557e-07
9.185083e-07
9.183871e-07
9.115918e-07
-0.0007186949
0.000719489
1.043578e-12
-4.438033e-06
9.114154e-07
9.105347e-07
9.103908e-07
9.034029e-07
-0.0007202635
0.0007210041
2.264376e-12
-4.351836e-06
9.031585e-07
9.024376e-07
9.022437e-07
8.949776e-07
-0.0007217251
0.0007224122
7.019107e-12
-4.264616e-06
8.946471e-07
8.940703e-07
8.937387e-07
8.864381e-07
-0.0007230794
0.0007237127
8.288476e-12
-4.176612e-06
8.861143e-07
8.855457e-07
8.852112e-07
8.777684e-07
-0.0007243264
0.0007249063
6.741988e-12
-4.088644e-06
8.77387e-07
8.769586e-07
8.765957e-07
8.695576e-07
-0.0007254663
0.0007259931
1.527305e-11
-4.00273e-06
8.690918e-07
8.688434e-07
8.684203e-07
8.614853e-07
-0.0007265002
0.000726974
1.322713e-11
-3.917987e-06
8.612645e-07
8.608398e-07
8.606192e-07
8.534531e-07
-0.0007274291
0.0007278519
6.052678e-12
-3.834718e-06
8.530641e-07
8.528661e-07
8.524771e-07
8.459453e-07
-0.0007282558
0.0007286285
7.737186e-12
-3.754674e-06
8.45627e-07
8.453749e-07
8.450711e-07
8.385365e-07
-0.0007289832
0.0007293072
3.886474e-12
-3.676916e-06
8.383817e-07
8.380393e-07
8.378742e-07
8.318125e-07
-0.0007296139
0.0007298913
1.300886e-11
-3.602891e-06
8.313783e-07
8.313558e-07
8.309364e-07
8.255096e-07
-0.0007301515
0.0007303835
6.308466e-14
-3.532657e-06
8.252391e-07
8.25066e-07
8.247956e-07
8.193007e-07
-0.0007305995
0.0007307889
2.518316e-11
-3.465429e-06
8.190916e-07
8.189043e-07
8.187502e-07
8.139951e-07
-0.0007309622
0.0007311094
-4.417149e-12
-3.402638e-06
8.139855e-07
8.137157e-07
8.137084e-07
8.088597e-07
-0.0007312424
0.0007313507
-7.10394e-12
-3.343359e-06
8.089222e-07
8.085771e-07
8.08635e-07
8.044516e-07
-0.0007314458
0.0007315167
-6.949944e-12
-3.289026e-06
8.049233e-07
8.041484e-07
8.046021e-07
8.007126e-07
-0.0007315754
0.0007316096
5.491862e-13
-3.237428e-06
8.012555e-07
8.003733e-07
8.008477e-07
7.966045e-07
-0.000731633
0.000731635
1.23227e-11
-3.189502e-06
7.969468e-07
7.968982e-07
7.970108e-07
7.946016e-07
-0.0007316246
0.0007315866
1.525639e-11
-3.136325e-06
7.921168e-07
7.949022e-07
7.926389e-07
7.805846e-07
-0.0007315491
0.0007314978
4.765854e-11
-3.079735e-06
7.854826e-07
7.801566e-07
7.847694e-07
7.820549e-07
-0.0007314153
0.000731305
-1.305591e-11
-3.014886e-06
7.808135e-07
7.818103e-07
7.805253e-07
7.662288e-07
-0.0007311848
0.000731034
1.528306e-11
-2.911976e-06
7.654033e-07
7.659762e-07
7.651769e-07
7.355168e-07
-0.0007308682
0.0007306637
1.046338e-11
-2.726805e-06
7.303423e-07
7.352347e-07
7.301475e-07
6.288028e-07
-0.0007305136
0.0007304985
1.039553e-11
-2.423162e-06
5.904899e-07
6.286498e-07
5.903092e-07
5.168643e-07
-0.0007305212
0.0007305233
1.162643e-11
-2.062508e-06
5.134319e-07
5.167117e-07
5.133073e-07
5.122158e-07
-0.0007304869
0.0007304309
9.238419e-12
-1.996818e-06
5.143549e-07
5.12086e-07
5.142088e-07
5.04254e-07
-0.0007303773
0.0007303079
5.591224e-12
-1.948083e-06
5.046498e-07
5.04087e-07
5.045152e-07
5.01634e-07
-0.0007302372
0.0007301489
6.969254e-12
-1.918042e-06
5.017054e-07
5.014678e-07
5.015424e-07
4.989428e-07
-0.0007300654
0.0007299531
7.341292e-12
-1.885896e-06
5.002705e-07
4.987941e-07
5.001331e-07
4.911574e-07
-0.0007298572
0.0007297294
1.220901e-11
-1.833803e-06
4.89815e-07
4.910186e-07
4.896186e-07
4.63053e-07
-0.0007296251
0.0007295968
1.759694e-11
-1.802025e-06
4.526055e-07
4.625701e-07
4.520806e-07
2.981625e-07
-0.0007299865
0.0007307727
1.240053e-11
-2.153625e-06
3.860035e-07
2.970492e-07
3.862041e-07
5.837517e-07
-0.0007309621
0.0007299121
1.037955e-11
-1.073808e-06
4.740692e-07
5.879725e-07
4.78044e-07
4.638648e-07
-0.0007293667
0.000729339
1.146209e-11
-1.727821e-06
4.084953e-07
4.695217e-07
4.136975e-07
4.515294e-07
-0.00072921
0.0007291308
1.003702e-11
-1.675486e-06
4.212696e-07
4.562348e-07
4.256184e-07
4.335551e-07
-0.0007290398
0.0007290642
8.550668e-12
-1.725025e-06
4.129738e-07
4.374461e-07
4.166433e-07
4.379916e-07
-0.0007291074
0.0007291955
8.403735e-12
-1.828575e-06
4.289579e-07
4.413577e-07
4.321743e-07
4.568882e-07
-0.0007292727
0.0007293681
6.498834e-12
-1.922753e-06
4.537613e-07
4.599809e-07
4.566649e-07
4.744037e-07
-0.0007294617
0.0007295757
5.045686e-12
-2.014782e-06
4.734262e-07
4.76986e-07
4.759139e-07
4.911246e-07
-0.00072969
0.0007298186
8.633483e-12
-2.099368e-06
4.920525e-07
4.933716e-07
4.942121e-07
5.076858e-07
-0.000729945
0.0007300889
1.327573e-11
-2.18138e-06
5.090569e-07
5.096749e-07
5.109954e-07
5.235376e-07
-0.000730237
0.0007304033
1.127189e-11
-2.268625e-06
5.258263e-07
5.253572e-07
5.275625e-07
5.393654e-07
-0.0007305706
0.0007307556
8.79996e-12
-2.350274e-06
5.41621e-07
5.410334e-07
5.432312e-07
5.538157e-07
-0.0007309457
0.0007311521
1.061653e-11
-2.430317e-06
5.566877e-07
5.552525e-07
5.58118e-07
5.686931e-07
-0.0007313628
0.0007315901
1.392175e-11
-2.50939e-06
5.711655e-07
5.699218e-07
5.723834e-07
5.825212e-07
-0.0007318228
0.0007320716
1.084296e-11
-2.585843e-06