/*--------------------------------*- C++ -*----------------------------------*\
| =========                 |                                                 |
| \\      /  F ield         | foam-extend: Open Source CFD                    |
|  \\    /   O peration     | Version:     3.1                                |
|   \\  /    A nd           | Web:         http://www.extend-project.de       |
|    \\/     M anipulation  |                                                 |
\*---------------------------------------------------------------------------*/
FoamFile
{
    version     2.0;
    format      ascii;
    class       volScalarField;
    location    "1";
    object      nut;
}
// * * * * * * * * * * * * * * * * * * * * * * * * * * * * * * * * * * * * * //

dimensions      [0 2 -1 0 0 0 0];

internalField   nonuniform List<scalar> 
119952
(
4.377315e-05
2.540806e-05
2.597716e-05
3.124867e-05
3.553104e-05
3.421739e-05
3.345719e-05
3.28548e-05
3.225674e-05
3.161261e-05
3.091667e-05
3.017684e-05
2.940401e-05
2.86082e-05
2.779752e-05
2.697811e-05
2.615422e-05
2.532716e-05
2.448743e-05
2.365219e-05
3.222126e-05
3.055507e-05
2.987829e-05
4.179364e-05
4.051964e-05
3.985129e-05
3.9272e-05
3.905903e-05
3.828498e-05
4.343745e-05
2.310541e-05
2.212865e-05
2.55218e-05
3.063023e-05
3.671231e-05
4.328548e-05
5.015504e-05
5.71772e-05
6.434053e-05
7.62234e-05
0.0002363288
0.0003308432
0.0004257108
0.0005124168
0.0005883013
0.0006549711
0.0007151671
0.0007713444
0.000825322
0.00125681
0.001370729
0.001489384
0.001608071
0.001722731
0.001830648
0.001930749
0.002023194
0.002108856
0.002188318
0.002268992
0.0023603
0.002461086
0.002567162
0.002673882
0.002777786
0.002877305
0.002973381
0.003070761
0.003060352
0.003049579
0.003087694
0.003148058
0.003209933
0.003264359
0.003312752
0.003354335
0.003387328
0.003412002
0.003430154
0.003442621
0.003450174
0.003453707
0.003454093
0.003452201
0.003449053
0.003446196
0.003446988
0.003456999
0.003474708
0.003493604
0.003521662
0.0035638
0.003594104
0.003604586
0.003595502
0.003543165
0.003357291
0.003046417
0.002967155
0.002935941
0.002920122
0.002911008
0.002905749
0.002902607
0.002900338
0.002898053
0.002895155
0.0028913
0.002886341
0.002880279
0.002873209
0.002865282
0.002856667
0.002847526
0.002837996
0.002828182
0.002818154
0.002807966
0.002797668
0.002787268
0.002776744
0.00276609
0.002755305
0.002744376
0.00273328
0.002721987
0.002710463
0.002698685
0.00268665
0.002674385
0.00266195
0.002649421
0.002636881
0.002624393
0.002611985
0.002599651
0.002587354
0.002575042
0.002562662
0.002550167
0.00253753
0.002524743
0.002511814
0.002498784
0.002485741
0.00247305
0.002461284
0.002413905
0.002350237
0.002292392
0.002243501
0.002202701
0.002168544
0.002139571
0.002114577
0.002092629
0.002073009
0.002055166
0.002038761
0.0020235
0.002009065
0.00199526
0.00198195
0.001969034
0.00195643
0.001944072
0.001931904
0.00191988
0.001907965
0.001896128
0.001884343
0.001872592
0.001860854
0.001849116
0.001837369
0.001825605
0.00181381
0.001801977
0.001790095
0.001778158
0.001766159
0.001754097
0.001741965
0.001729766
0.001717489
0.001705013
0.001692407
0.001679788
0.001667058
0.001654241
0.001641353
0.001628405
0.001615396
0.00160233
0.001589176
0.00157649
0.001563823
0.001226877
0.0009508112
0.0008638483
0.0008217712
0.0007952883
0.0007758568
0.0007602196
0.0007468413
0.0007348584
0.0007238915
0.0007136371
0.0007037649
0.0006941877
0.0006848586
0.0006757258
0.00066675
0.000657902
0.0006491607
0.0006405097
0.0006319364
0.0006234302
0.0006149835
0.0006065903
0.0005982418
0.0005899416
0.0005816891
0.0005734789
0.0005653176
0.0005572084
0.0005491593
0.0005411882
0.0005333292
0.0005257675
0.0005184483
0.0005124787
0.0005165181
0.0005339581
0.000549338
0.0005626098
0.0005743493
0.0005850173
0.0005949683
0.0006044481
0.0006136211
0.0006225995
0.0006314502
0.0006402127
0.0006489224
0.000657596
0.000666244
0.0006748729
0.0006834871
0.0006920899
0.0007006837
0.0007092705
0.0007178522
0.0007264304
0.0007350065
0.0007435819
0.0007521575
0.0007607378
0.0007693194
0.0007778968
0.0007864782
0.0007950633
0.0008036514
0.000812242
0.0008208345
0.0008294528
0.0008382049
0.001187326
0.001246859
0.001309894
0.001374104
0.00143689
0.001495918
0.001549492
0.001596877
0.001638157
0.001673911
0.001704936
0.001732055
0.001756019
0.001777456
0.00179688
0.001814704
0.001831255
0.001846796
0.001861535
0.001875639
0.001889239
0.00190244
0.001915322
0.001927947
0.001940364
0.001952606
0.001964703
0.001976677
0.001988548
0.002000331
0.002012038
0.002023679
0.002035261
0.00204679
0.002058267
0.002069693
0.002081064
0.002092378
0.002103629
0.002114806
0.002125895
0.002136865
0.002147644
0.002158161
0.002168133
0.002177004
0.0021845
0.002191483
0.002198188
0.002204729
0.00221116
0.002217503
0.002223801
0.002230303
0.002235185
0.002249813
0.002276414
0.002312146
0.002353131
0.002395659
0.002436776
0.002474586
0.002508166
0.002537359
0.002562489
0.002584103
0.002602807
0.002619167
0.002633673
0.002646727
0.002658649
0.002669688
0.00268004
0.002689853
0.002699241
0.002708294
0.00271708
0.002725654
0.002734058
0.002742327
0.002750491
0.002758572
0.002766593
0.00277457
0.002782518
0.002790446
0.002798364
0.002806275
0.002814183
0.002822087
0.002829988
0.002837884
0.002845772
0.002853647
0.002861502
0.002869327
0.002877109
0.002884838
0.002892502
0.00290009
0.002907596
0.002915015
0.002922347
0.002929594
0.002936757
0.002943844
0.002950861
0.002957814
0.002964711
0.00297156
0.002978368
0.002985143
0.00299189
0.002998618
0.003005333
0.003012042
0.003018752
0.00302547
0.003032204
0.003038961
0.003045752
0.003052586
0.003059476
0.003066437
0.003073487
0.00308065
0.003087957
0.003095449
0.003103185
0.003111249
0.003119768
0.003128947
0.003139121
0.003150898
0.003165543
0.003185939
0.003218752
0.003278594
0.003266651
2.047812e-05
2.246725e-05
2.627568e-05
3.13231e-05
3.715349e-05
4.346579e-05
5.008032e-05
5.690753e-05
6.463343e-05
0.0001902297
0.0002739392
0.000366511
0.000457416
0.0005399742
0.0006128736
0.000677749
0.0007371482
0.0007932729
0.001195811
0.001304873
0.001422892
0.001544703
0.001665261
0.001780588
0.001888399
0.001988076
0.002080164
0.002166087
0.00224692
0.002336119
0.002436975
0.002546134
0.002658508
0.002769372
0.002875546
0.002975554
0.003069372
0.00311268
0.003150467
0.003224596
0.003319299
0.003424914
0.003534825
0.003644575
0.003751408
0.003853861
0.003951306
0.004044576
0.004138771
0.004237313
0.004340915
0.004448228
0.004556961
0.004664797
0.004769837
0.004867701
0.005868828
0.005983006
0.006089243
0.006192831
0.00629594
0.006398803
0.006500408
0.00659885
0.006694187
0.00678656
0.006876556
0.006965412
0.007054283
0.007143911
0.007234458
0.007325578
0.007416565
0.00750614
0.007589844
0.007655433
0.007706457
0.007751245
0.007790455
0.007823314
0.007851345
0.007876874
0.007901109
0.007924381
0.007946528
0.007967121
0.007985801
0.008001976
0.008015881
0.00802803
0.008039062
0.008049916
0.008061529
0.008074604
0.008090467
0.008109001
0.008129816
0.008153993
0.00817805
0.008193593
0.008195399
0.00817663
0.008127747
0.008041055
0.007951197
0.007878814
0.007820093
0.007772716
0.007734206
0.007702659
0.00767657
0.007654719
0.007636076
0.00761978
0.007605138
0.007591626
0.007578873
0.00756664
0.007554789
0.007543252
0.007531998
0.00752101
0.007510268
0.007499748
0.007489415
0.00747922
0.0074691
0.00745899
0.007448823
0.007438529
0.007428032
0.007417254
0.007406123
0.007394581
0.007382602
0.007370199
0.007357432
0.007344402
0.007331234
0.007318054
0.007304961
0.007292013
0.007279222
0.007266555
0.007253952
0.007241343
0.007228665
0.007215876
0.007202962
0.00718995
0.007176914
0.007164
0.007151401
0.007138611
0.007122833
0.007102711
0.007077982
0.007049546
0.007018698
0.00698671
0.006954619
0.006923178
0.006892873
0.006863981
0.006836628
0.006810848
0.006786588
0.006763724
0.006742126
0.006721663
0.006702206
0.006683635
0.006665837
0.006648706
0.006632146
0.006616067
0.00660041
0.006585102
0.006570082
0.006555295
0.006540697
0.006526244
0.006511907
0.006497654
0.006483457
0.006469235
0.006454937
0.006440547
0.006426046
0.006411419
0.006396657
0.006381751
0.006366701
0.006351525
0.006336254
0.006320924
0.006305584
0.006290283
0.006275069
0.006259985
0.0062451
0.00623056
0.006216885
0.006208327
0.005632967
0.005296198
0.005157758
0.005079883
0.005022827
0.004974831
0.004932384
0.004894338
0.004860154
0.00482943
0.004801742
0.004776649
0.004753747
0.004732672
0.004713105
0.004694777
0.004677461
0.004660969
0.004645149
0.004629876
0.004615051
0.004600597
0.004586437
0.00457254
0.004558902
0.004545515
0.004532361
0.004519452
0.004506829
0.00449456
0.004482778
0.004471729
0.004461908
0.00445438
0.004451695
0.004457992
0.004471143
0.00448815
0.004507291
0.004527391
0.004547666
0.004567633
0.004587029
0.004605744
0.004623764
0.004641125
0.004657892
0.004674135
0.004689917
0.004705298
0.004720327
0.004735046
0.004749489
0.004763687
0.004777664
0.004791441
0.004805037
0.004818466
0.004831743
0.004844877
0.00485788
0.004870758
0.004883518
0.004896166
0.004908706
0.004921141
0.004933467
0.00494568
0.004957723
0.004967686
0.005872326
0.005916885
0.005951655
0.005983438
0.006015698
0.006049851
0.006086117
0.006124062
0.006162949
0.006201986
0.006240459
0.006277808
0.006313633
0.006347686
0.006379844
0.006410082
0.006438442
0.006465011
0.006489903
0.006513243
0.006535159
0.006555774
0.006575266
0.006593929
0.006611896
0.006629258
0.006646092
0.006662462
0.006678426
0.006694034
0.00670933
0.006724351
0.006739129
0.006753686
0.00676804
0.006782201
0.006796174
0.006809956
0.006823537
0.006836897
0.006850002
0.006862794
0.006875185
0.00688704
0.006898167
0.006908352
0.006917689
0.006926419
0.006934684
0.006942575
0.006950148
0.006957431
0.0069644
0.006970923
0.006976967
0.006983697
0.006992375
0.00700396
0.007018932
0.007037272
0.00705856
0.007082117
0.007107152
0.007132886
0.007158636
0.007183862
0.007208175
0.007231327
0.007253189
0.007273725
0.007292962
0.007310972
0.007327849
0.007343702
0.007358641
0.007372774
0.007386203
0.007399025
0.007411325
0.007423185
0.007434677
0.007445867
0.007456813
0.007467566
0.00747817
0.007488661
0.007499068
0.007509411
0.007519706
0.007529962
0.007540184
0.007550371
0.007560517
0.007570613
0.007580641
0.007590582
0.007600413
0.007610109
0.007619649
0.007629012
0.007638185
0.00764716
0.007655932
0.007664505
0.007672886
0.007681088
0.007689124
0.007697011
0.007704766
0.007712409
0.007719957
0.007727429
0.007734843
0.007742215
0.007749564
0.007756905
0.007764257
0.007771637
0.007779062
0.007786553
0.007794131
0.00780182
0.007809651
0.007817657
0.00782588
0.007834376
0.007843213
0.007852483
0.00786231
0.00787287
0.007884412
0.007897309
0.007912129
0.00792975
0.007951543
0.007979529
0.008016148
0.008059511
0.008092063
3.315367e-05
3.014764e-05
3.527965e-05
4.214765e-05
4.908633e-05
5.564126e-05
6.184429e-05
6.769581e-05
7.330438e-05
8.386215e-05
0.0002621629
0.0003557584
0.0004469984
0.0005293402
0.0006010164
0.0006633872
0.0007191597
0.000770552
0.0008196117
0.001228859
0.001321867
0.00142063
0.001522912
0.001625854
0.001726868
0.001824103
0.00191664
0.002004187
0.00208637
0.002166996
0.002254546
0.002350683
0.002453553
0.002559873
0.00266633
0.002770299
0.002870147
0.002967025
0.002990079
0.003050885
0.003135898
0.003236555
0.003346417
0.003460491
0.003574898
0.003686963
0.003795057
0.003898287
0.003998894
0.004101621
0.004209046
0.004321392
0.004437114
0.004553834
0.004669178
0.004779529
0.005797813
0.005922605
0.006037639
0.006149249
0.006260418
0.006371787
0.006482309
0.006590131
0.006695541
0.006798407
0.006898545
0.006996961
0.007095021
0.007193877
0.00729406
0.007395413
0.007497303
0.007598837
0.007698793
0.007793455
0.007882411
0.007968492
0.008054287
0.008141496
0.008230822
0.00832219
0.008415027
0.008508516
0.008601792
0.008694321
0.008786177
0.008877841
0.008969928
0.009062886
0.009156857
0.009251705
0.009347331
0.009445624
0.009490869
0.009552116
0.009623266
0.00970113
0.009783968
0.009870709
0.009960616
0.01
0.01
0.01
0.01
0.01
0.01
0.01
0.01
0.01
0.01
0.01
0.01
0.01
0.01
0.01
0.01
0.01
0.01
0.01
0.01
0.01
0.01
0.01
0.01
0.01
0.01
0.01
0.01
0.01
0.01
0.01
0.01
0.01
0.01
0.01
0.01
0.01
0.01
0.01
0.01
0.01
0.01
0.01
0.01
0.01
0.01
0.01
0.01
0.01
0.01
0.01
0.01
0.01
0.01
0.01
0.01
0.01
0.01
0.01
0.01
0.01
0.01
0.01
0.01
0.01
0.01
0.01
0.01
0.01
0.01
0.01
0.01
0.01
0.01
0.01
0.01
0.01
0.01
0.01
0.01
0.01
0.01
0.01
0.01
0.01
0.01
0.01
0.01
0.01
0.01
0.01
0.01
0.01
0.01
0.01
0.01
0.01
0.01
0.01
0.01
0.01
0.01
0.01
0.01
0.01
0.01
0.01
0.01
0.01
0.01
0.01
0.01
0.01
0.01
0.01
0.01
0.01
0.01
0.01
0.01
0.01
0.009998737
0.009980605
0.009962613
0.009944709
0.009926856
0.009909025
0.0098912
0.009873373
0.009855549
0.009837748
0.00982001
0.009802387
0.009784944
0.009767744
0.00975085
0.009734305
0.009718182
0.009702531
0.009687208
0.009670342
0.00963369
0.009631085
0.009630993
0.009625619
0.009614151
0.009597584
0.009577226
0.009554314
0.009529851
0.009504626
0.009479223
0.009454057
0.009429407
0.009405446
0.009382271
0.009359925
0.009338406
0.009317686
0.009297724
0.009278467
0.009259857
0.009241861
0.00922443
0.00920757
0.009191264
0.009175499
0.009160281
0.009145639
0.009131639
0.009118391
0.009106086
0.009095091
0.009085985
0.009079754
0.009077814
0.009080765
0.009087309
0.009096743
0.009108414
0.00912179
0.009136438
0.009152014
0.009168244
0.009184913
0.009201854
0.009218968
0.00923615
0.009253322
0.009270429
0.009287429
0.009304287
0.009320976
0.009337476
0.009353773
0.009369858
0.009385727
0.009401379
0.009416816
0.009432041
0.009447059
0.009461876
0.009476498
0.009490936
0.009505196
0.009519282
0.009533193
0.009546925
0.009560546
0.009574439
0.009591791
0.009559487
0.009543968
0.009539054
0.009541601
0.009549884
0.009562907
0.009579989
0.009600543
0.009623996
0.009649765
0.009677287
0.009706039
0.009735557
0.009765447
0.009795389
0.009825134
0.009854499
0.009883354
0.009911615
0.009939229
0.009966175
0.009992448
0.01
0.01
0.01
0.01
0.01
0.01
0.01
0.01
0.01
0.01
0.01
0.01
0.01
0.01
0.01
0.01
0.01
0.01
0.01
0.01
0.01
0.01
0.01
0.01
0.01
0.01
0.01
0.01
0.01
0.01
0.01
0.01
0.01
0.01
0.01
0.01
0.01
0.01
0.01
0.01
0.01
0.01
0.01
0.01
0.01
0.01
0.01
0.01
0.01
0.01
0.01
0.01
0.01
0.01
0.01
0.01
0.01
0.01
0.01
0.01
0.01
0.01
0.01
0.01
0.01
0.01
0.01
0.01
0.01
0.01
0.01
0.01
0.01
0.01
0.01
0.01
0.01
0.01
0.01
0.01
0.01
0.01
0.01
0.01
0.01
0.01
0.01
0.01
0.01
0.01
0.01
0.01
0.01
0.01
0.01
0.01
0.01
0.01
0.01
0.01
0.01
0.01
0.01
0.01
0.01
0.01
0.01
0.01
0.01
0.01
0.01
0.01
0.01
0.01
0.01
0.01
0.01
0.0001160117
0.0001899816
0.0003428686
0.0009189489
0.00126269
0.002303928
0.002741548
0.003106121
0.00342395
0.003702934
0.003917498
0.00407727
0.004124137
0.00416131
0.004236793
0.004319465
0.004395454
0.004459041
0.004508841
0.004545709
0.004571531
0.004588505
0.004599748
0.004611712
0.004628791
0.004652731
0.004683613
0.004720693
0.004762973
0.004809424
0.004856672
0.005786991
0.005859954
0.005930226
0.006002497
0.006079154
0.006161018
0.006247861
0.00633877
0.00643238
0.006527089
0.00662163
0.006715291
0.006809436
0.00690554
0.007004304
0.007105854
0.007209819
0.007315396
0.00742075
0.007522623
0.00762176
0.007719996
0.007819163
0.007920516
0.008024544
0.00813105
0.008239343
0.008348466
0.008457433
0.008565758
0.008673549
0.008781327
0.008889713
0.008999139
0.009109737
0.009221617
0.009337108
0.009401953
0.009481045
0.009568858
0.009662571
0.009760816
0.009862886
0.00996832
0.01
0.01
0.01
0.01
0.01
0.01
0.01
0.01
0.01
0.01
0.01
0.01
0.01
0.01
0.01
0.01
0.01
0.01
0.01
0.01
0.01
0.01
0.01
0.01
0.01
0.01
0.01
0.01
0.01
0.01
0.01
0.01
0.01
0.01
0.01
0.01
0.01
0.01
0.01
0.01
0.01
0.01
0.01
0.01
0.01
0.01
0.01
0.01
0.01
0.01
0.01
0.01
0.01
0.01
0.01
0.01
0.01
0.01
0.01
0.01
0.01
0.01
0.01
0.01
0.01
0.01
0.01
0.01
0.01
0.01
0.01
0.01
0.01
0.01
0.01
0.01
0.01
0.01
0.01
0.01
0.01
0.01
0.01
0.01
0.01
0.01
0.01
0.01
0.01
0.01
0.01
0.01
0.01
0.01
0.01
0.01
0.01
0.01
0.01
0.01
0.01
0.01
0.01
0.01
0.01
0.01
0.01
0.01
0.01
0.01
0.01
0.01
0.01
0.01
0.01
0.01
0.01
0.01
0.01
0.01
0.01
0.01
0.01
0.01
0.01
0.01
0.01
0.01
0.01
0.01
0.01
0.01
0.01
0.01
0.01
0.01
0.01
0.01
0.01
0.01
0.01
0.01
0.01
0.01
0.01
0.01
0.01
0.01
0.01
0.01
0.01
0.01
0.01
0.01
0.01
0.01
0.01
0.01
0.01
0.01
0.01
0.01
0.01
0.01
0.01
0.01
0.01
0.01
0.01
0.01
0.01
0.01
0.01
0.01
0.01
0.01
0.01
0.01
0.01
0.01
0.01
0.01
0.01
0.01
0.01
0.01
0.01
0.01
0.01
0.01
0.01
0.01
0.01
0.01
0.01
0.01
0.01
0.01
0.01
0.01
0.01
0.01
0.01
0.01
0.01
0.01
0.01
0.01
0.01
0.01
0.01
0.01
0.01
0.01
0.01
0.01
0.01
0.01
0.01
0.01
0.01
0.01
0.01
0.01
0.01
0.01
0.01
0.01
0.01
0.01
0.01
0.01
0.01
0.01
0.01
0.01
0.01
0.01
0.01
0.01
0.01
0.01
0.01
0.01
0.01
0.01
0.01
0.01
0.01
0.01
0.01
0.01
0.01
0.01
0.01
0.01
0.01
0.01
0.01
0.01
0.01
0.01
0.01
0.01
0.01
0.01
0.01
0.01
0.01
0.01
0.01
0.01
0.01
0.01
0.01
0.01
0.01
0.01
0.01
0.01
0.01
0.01
0.01
0.01
0.01
0.01
0.01
0.01
0.01
0.01
0.01
0.01
0.01
0.01
0.01
0.01
0.01
0.01
0.01
0.01
0.01
0.01
0.01
0.01
0.01
0.01
0.01
0.01
0.01
0.01
0.01
0.01
0.01
0.01
0.01
0.01
0.01
0.01
0.01
0.01
0.01
0.01
0.01
0.01
0.01
0.01
0.01
0.01
0.01
0.01
0.01
0.01
0.01
0.01
0.01
0.01
0.01
0.01
0.01
0.01
0.01
0.01
0.01
0.01
0.01
0.01
0.01
0.01
0.01
0.01
0.01
0.01
0.01
0.01
0.01
0.01
0.01
0.01
0.01
0.01
0.01
0.01
0.01
0.01
0.01
0.01
0.01
0.01
0.01
0.01
0.01
0.01
0.01
0.01
0.01
0.01
0.01
0.01
0.01
0.01
0.01
0.01
0.01
0.01
0.01
0.01
0.01
0.01
4.629106e-05
0.0001001494
0.0002044309
0.0007848383
0.001254382
0.002888018
0.003605101
0.004005242
0.004647959
0.00506152
0.005406413
0.005724606
0.006061741
0.006357665
0.006652296
0.006910938
0.008054381
0.008256201
0.008451393
0.008640235
0.008816153
0.008974365
0.009114231
0.009231582
0.009328213
0.009408404
0.009474303
0.009526423
0.009564595
0.00958872
0.009599169
0.00959695
0.009583682
0.009561662
0.009533918
0.009503797
0.009474595
0.009449237
0.009430097
0.00941895
0.009417251
0.009428396
0.009400751
0.009397603
0.009413212
0.009444072
0.009487928
0.009543162
0.009608432
0.009682481
0.009764056
0.009851969
0.009945265
0.01
0.01
0.01
0.01
0.01
0.01
0.01
0.01
0.01
0.01
0.01
0.01
0.01
0.01
0.01
0.01
0.01
0.01
0.01
0.01
0.01
0.01
0.01
0.01
0.01
0.01
0.01
0.01
0.01
0.01
0.01
0.01
0.01
0.01
0.01
0.01
0.01
0.01
0.01
0.01
0.01
0.01
0.01
0.01
0.01
0.01
0.01
0.01
0.01
0.01
0.01
0.01
0.01
0.01
0.01
0.01
0.01
0.01
0.01
0.01
0.01
0.01
0.01
0.01
0.01
0.01
0.01
0.01
0.01
0.01
0.01
0.01
0.01
0.01
0.01
0.01
0.01
0.01
0.01
0.01
0.01
0.01
0.01
0.01
0.01
0.01
0.01
0.01
0.01
0.01
0.01
0.01
0.01
0.01
0.01
0.01
0.01
0.01
0.01
0.01
0.01
0.01
0.01
0.01
0.01
0.01
0.01
0.01
0.01
0.01
0.01
0.01
0.01
0.01
0.01
0.01
0.01
0.01
0.01
0.01
0.01
0.01
0.01
0.01
0.01
0.01
0.01
0.01
0.01
0.01
0.01
0.01
0.01
0.01
0.01
0.01
0.01
0.01
0.01
0.01
0.01
0.01
0.01
0.01
0.01
0.01
0.01
0.01
0.01
0.01
0.01
0.01
0.01
0.01
0.01
0.01
0.01
0.01
0.01
0.01
0.01
0.01
0.01
0.01
0.01
0.01
0.01
0.01
0.01
0.01
0.01
0.01
0.01
0.01
0.01
0.01
0.01
0.01
0.01
0.01
0.01
0.01
0.01
0.01
0.01
0.01
0.01
0.01
0.01
0.01
0.01
0.01
0.01
0.01
0.01
0.01
0.01
0.01
0.01
0.01
0.01
0.01
0.01
0.01
0.01
0.01
0.01
0.01
0.01
0.01
0.01
0.01
0.01
0.01
0.01
0.01
0.01
0.01
0.01
0.01
0.01
0.01
0.01
0.01
0.01
0.01
0.01
0.01
0.01
0.01
0.01
0.01
0.01
0.01
0.01
0.01
0.01
0.01
0.01
0.01
0.01
0.01
0.01
0.01
0.01
0.01
0.01
0.01
0.01
0.01
0.01
0.01
0.01
0.01
0.01
0.01
0.01
0.01
0.01
0.01
0.01
0.01
0.01
0.01
0.01
0.01
0.01
0.01
0.01
0.01
0.01
0.01
0.01
0.01
0.01
0.01
0.01
0.01
0.01
0.01
0.01
0.01
0.01
0.01
0.01
0.01
0.01
0.01
0.01
0.01
0.01
0.01
0.01
0.01
0.01
0.01
0.01
0.01
0.01
0.01
0.01
0.01
0.01
0.01
0.01
0.01
0.01
0.01
0.01
0.01
0.01
0.01
0.01
0.01
0.01
0.01
0.01
0.01
0.01
0.01
0.01
0.01
0.01
0.01
0.01
0.01
0.01
0.01
0.01
0.01
0.01
0.01
0.01
0.01
0.01
0.01
0.01
0.01
0.01
0.01
0.01
0.01
0.01
0.01
0.01
0.01
0.01
0.01
0.01
0.01
0.01
0.01
0.01
0.01
0.01
0.01
0.01
0.01
0.01
0.01
0.01
0.01
0.01
0.01
0.01
0.01
0.01
0.01
0.01
0.01
0.01
0.01
0.01
0.01
0.01
0.01
0.01
0.01
0.01
0.01
0.01
0.01
0.01
0.01
0.01
0.01
0.01
0.01
0.01
0.01
0.01
0.01
0.01
0.01
0.01
0.01
0.01
0.01
0.01
0.01
0.01
0.01
0.01
0.01
0.01
0.01
0.01
0.01
0.01
0.01
0.01
0.01
0.01
0.01
0.01
0.01
0.01
0.01
0.01
0.01
0.01
3.7388e-05
6.547136e-05
0.0001119264
0.0003878237
0.0006804623
0.001287082
0.001729159
0.002279654
0.002942808
0.003582176
0.004227469
0.004903814
0.005473594
0.005935814
0.006329187
0.006332274
0.00623987
0.006316073
0.006558579
0.007005176
0.007596561
0.008360948
0.00926486
0.009700324
0.009969562
0.01
0.01
0.01
0.01
0.01
0.01
0.01
0.01
0.01
0.01
0.01
0.01
0.01
0.01
0.01
0.01
0.01
0.01
0.01
0.01
0.01
0.01
0.01
0.01
0.01
0.01
0.01
0.01
0.01
0.01
0.01
0.01
0.01
0.01
0.01
0.01
0.01
0.01
0.01
0.01
0.01
0.01
0.01
0.01
0.01
0.01
0.01
0.01
0.01
0.01
0.01
0.01
0.01
0.01
0.01
0.01
0.01
0.01
0.01
0.01
0.01
0.01
0.01
0.01
0.01
0.01
0.01
0.01
0.01
0.01
0.01
0.01
0.01
0.01
0.01
0.01
0.01
0.01
0.01
0.01
0.01
0.01
0.01
0.01
0.01
0.01
0.01
0.01
0.01
0.01
0.01
0.01
0.01
0.01
0.01
0.01
0.01
0.01
0.01
0.01
0.01
0.01
0.01
0.01
0.01
0.01
0.01
0.01
0.01
0.01
0.01
0.01
0.01
0.01
0.01
0.01
0.01
0.01
0.01
0.01
0.01
0.01
0.01
0.01
0.01
0.01
0.01
0.01
0.01
0.01
0.01
0.01
0.01
0.01
0.01
0.01
0.01
0.01
0.01
0.01
0.01
0.01
0.01
0.01
0.01
0.01
0.01
0.01
0.01
0.01
0.01
0.01
0.01
0.01
0.01
0.01
0.01
0.01
0.01
0.01
0.01
0.01
0.01
0.01
0.01
0.01
0.01
0.01
0.01
0.01
0.01
0.01
0.01
0.01
0.01
0.01
0.01
0.01
0.01
0.01
0.01
0.01
0.01
0.01
0.01
0.01
0.01
0.01
0.01
0.01
0.01
0.01
0.01
0.01
0.01
0.01
0.01
0.01
0.01
0.01
0.01
0.01
0.01
0.01
0.01
0.01
0.01
0.01
0.01
0.01
0.01
0.01
0.01
0.01
0.01
0.01
0.01
0.01
0.01
0.01
0.01
0.01
0.01
0.01
0.01
0.01
0.01
0.01
0.01
0.01
0.01
0.01
0.01
0.01
0.01
0.01
0.01
0.01
0.01
0.01
0.01
0.01
0.01
0.01
0.01
0.01
0.01
0.01
0.01
0.01
0.01
0.01
0.01
0.01
0.01
0.01
0.01
0.01
0.01
0.01
0.01
0.01
0.01
0.01
0.01
0.01
0.01
0.01
0.01
0.01
0.01
0.01
0.01
0.01
0.01
0.01
0.01
0.01
0.01
0.01
0.01
0.01
0.01
0.01
0.01
0.01
0.01
0.01
0.01
0.01
0.01
0.01
0.01
0.01
0.01
0.01
0.01
0.01
0.01
0.01
0.01
0.01
0.01
0.01
0.01
0.01
0.01
0.01
0.01
0.01
0.01
0.01
0.01
0.01
0.01
0.01
0.01
0.01
0.01
0.01
0.01
0.01
0.01
0.01
0.01
0.01
0.01
0.01
0.01
0.01
0.01
0.01
0.01
0.01
0.01
0.01
0.01
0.01
0.01
0.01
0.01
0.01
0.01
0.01
0.01
0.01
0.01
0.01
0.01
0.01
0.01
0.01
0.01
0.01
0.01
0.01
0.01
0.01
0.01
0.01
0.01
0.01
0.01
0.01
0.01
0.01
0.01
0.01
0.01
0.01
0.01
0.01
0.01
0.01
0.01
0.01
0.01
0.01
0.01
0.01
0.01
0.01
0.01
0.01
0.01
0.01
0.01
0.01
0.01
0.01
0.01
0.01
0.01
0.01
0.01
0.01
0.01
0.01
0.01
0.01
0.01
0.01
0.01
0.01
0.01
0.01
0.01
0.01
0.01
0.01
0.01
0.01
0.01
0.01
0.01
0.01
0.01
0.01
0.01
0.01
0.01
0.01
0.01
0.01
0.01
0.01
0.01
0.01
0.01
0.01
0.01
0.01
0.01
0.01
0.01
0.01
0.01
0.01
0.01
0.01
0.01
0.01
0.01
0.01
0.01
0.01
0.01
0.01
0.01
0.01
0.01
0.01
0.01
0.01
0.01
0.01
0.01
0.01
0.01
5.055614e-05
0.0003834277
0.0006523084
0.0009639701
0.001283162
0.001657674
0.002098847
0.002579439
0.003085184
0.003682107
0.004860154
0.00531468
0.005726788
0.006053876
0.006292159
0.006443424
0.006545543
0.006633262
0.00619647
0.005595582
0.005516892
0.005539397
0.005700781
0.006014832
0.006480415
0.00709159
0.007868592
0.00883047
0.009821028
0.01
0.01
0.01
0.01
0.01
0.01
0.01
0.01
0.01
0.01
0.01
0.01
0.01
0.01
0.01
0.01
0.01
0.01
0.01
0.01
0.01
0.01
0.01
0.01
0.01
0.01
0.01
0.01
0.01
0.01
0.01
0.01
0.01
0.01
0.01
0.01
0.01
0.01
0.01
0.01
0.01
0.01
0.01
0.01
0.01
0.01
0.01
0.01
0.01
0.01
0.01
0.01
0.01
0.01
0.01
0.01
0.01
0.01
0.01
0.01
0.01
0.01
0.01
0.01
0.01
0.01
0.01
0.01
0.01
0.01
0.01
0.01
0.01
0.01
0.01
0.01
0.01
0.01
0.01
0.01
0.01
0.01
0.01
0.01
0.01
0.01
0.01
0.01
0.01
0.01
0.01
0.01
0.01
0.01
0.01
0.01
0.01
0.01
0.01
0.01
0.01
0.01
0.01
0.01
0.01
0.01
0.01
0.01
0.01
0.01
0.01
0.01
0.01
0.01
0.01
0.01
0.01
0.01
0.01
0.01
0.01
0.01
0.01
0.01
0.01
0.01
0.01
0.01
0.01
0.01
0.01
0.01
0.01
0.01
0.01
0.01
0.01
0.01
0.01
0.01
0.01
0.01
0.01
0.01
0.01
0.01
0.01
0.01
0.01
0.01
0.01
0.01
0.01
0.01
0.01
0.01
0.01
0.01
0.01
0.01
0.01
0.01
0.01
0.01
0.01
0.01
0.01
0.01
0.01
0.01
0.01
0.01
0.01
0.01
0.01
0.01
0.01
0.01
0.01
0.01
0.01
0.01
0.01
0.01
0.01
0.01
0.01
0.01
0.01
0.01
0.01
0.01
0.01
0.01
0.01
0.01
0.01
0.01
0.01
0.01
0.01
0.01
0.01
0.01
0.01
0.01
0.01
0.01
0.01
0.01
0.01
0.01
0.01
0.01
0.01
0.01
0.01
0.01
0.01
0.01
0.01
0.01
0.01
0.01
0.01
0.01
0.01
0.01
0.01
0.01
0.01
0.01
0.01
0.01
0.01
0.01
0.01
0.01
0.01
0.01
0.01
0.01
0.01
0.01
0.01
0.01
0.01
0.01
0.01
0.01
0.01
0.01
0.01
0.01
0.01
0.01
0.01
0.01
0.01
0.01
0.01
0.01
0.01
0.01
0.01
0.01
0.01
0.01
0.01
0.01
0.01
0.01
0.01
0.01
0.01
0.01
0.01
0.01
0.01
0.01
0.01
0.01
0.01
0.01
0.01
0.01
0.01
0.01
0.01
0.01
0.01
0.01
0.01
0.01
0.01
0.01
0.01
0.01
0.01
0.01
0.01
0.01
0.01
0.01
0.01
0.01
0.01
0.01
0.01
0.01
0.01
0.01
0.01
0.01
0.01
0.01
0.01
0.01
0.01
0.01
0.01
0.01
0.01
0.01
0.01
0.01
0.01
0.01
0.01
0.01
0.01
0.01
0.01
0.01
0.01
0.01
0.01
0.01
0.01
0.01
0.01
0.01
0.01
0.01
0.01
0.01
0.01
0.01
0.01
0.01
0.01
0.01
0.01
0.01
0.01
0.01
0.01
0.01
0.01
0.01
0.01
0.01
0.01
0.01
0.01
0.01
0.01
0.01
0.01
0.01
0.01
0.01
0.01
0.01
0.01
0.01
0.01
0.01
0.01
0.01
0.01
0.01
0.01
0.01
0.01
0.01
0.01
0.01
0.01
0.01
0.01
0.01
0.01
0.01
0.01
0.01
0.01
0.01
0.01
0.01
0.01
0.01
0.01
0.01
0.01
0.01
0.01
0.01
0.01
0.01
0.01
0.01
0.01
0.01
0.01
0.01
0.01
0.01
0.01
0.01
0.01
0.01
0.01
0.01
0.01
0.01
0.01
0.01
0.01
0.01
0.01
0.01
0.01
0.01
0.01
0.01
0.01
0.01
0.01
0.01
0.01
0.01
0.01
0.01
0.01
0.01
0.01
0.01
0.01
0.01
0.01
0.01
0.01
0.01
0.01
0.01
0.01
0.01
0.01
0.01
4.914683e-05
0.0008213189
0.001824678
0.002525815
0.003227105
0.003908375
0.004535255
0.005081077
0.005528498
0.005867187
0.006095959
0.006302604
0.006417081
0.006431819
0.006362981
0.006258366
0.005989615
0.005399132
0.004877541
0.004601324
0.004537888
0.004600295
0.004832548
0.005202843
0.005705669
0.006336306
0.007106405
0.008046512
0.009121274
0.01
0.01
0.01
0.01
0.01
0.01
0.01
0.01
0.01
0.01
0.01
0.01
0.01
0.01
0.01
0.01
0.01
0.01
0.01
0.01
0.01
0.01
0.01
0.01
0.01
0.01
0.01
0.01
0.01
0.01
0.01
0.01
0.01
0.01
0.01
0.01
0.01
0.01
0.01
0.01
0.01
0.01
0.01
0.01
0.01
0.01
0.01
0.01
0.01
0.01
0.01
0.01
0.01
0.01
0.01
0.01
0.01
0.01
0.01
0.01
0.01
0.01
0.01
0.01
0.01
0.01
0.01
0.01
0.01
0.01
0.01
0.01
0.01
0.01
0.01
0.01
0.01
0.01
0.01
0.01
0.01
0.01
0.01
0.01
0.01
0.01
0.01
0.01
0.01
0.01
0.01
0.01
0.01
0.01
0.01
0.01
0.01
0.01
0.01
0.01
0.01
0.01
0.01
0.01
0.01
0.01
0.01
0.01
0.01
0.01
0.01
0.01
0.01
0.01
0.01
0.01
0.01
0.01
0.01
0.01
0.01
0.01
0.01
0.01
0.01
0.01
0.01
0.01
0.01
0.01
0.01
0.01
0.01
0.01
0.01
0.01
0.01
0.01
0.01
0.01
0.01
0.01
0.01
0.01
0.01
0.01
0.01
0.01
0.01
0.01
0.01
0.01
0.01
0.01
0.01
0.01
0.01
0.01
0.01
0.01
0.01
0.01
0.01
0.01
0.01
0.01
0.01
0.01
0.01
0.01
0.01
0.01
0.01
0.01
0.01
0.01
0.01
0.01
0.01
0.01
0.01
0.01
0.01
0.01
0.01
0.01
0.01
0.01
0.01
0.01
0.01
0.01
0.01
0.01
0.01
0.01
0.01
0.01
0.01
0.01
0.01
0.01
0.01
0.01
0.01
0.01
0.01
0.01
0.01
0.01
0.01
0.01
0.01
0.01
0.01
0.01
0.01
0.01
0.01
0.01
0.01
0.01
0.01
0.01
0.01
0.01
0.01
0.01
0.01
0.01
0.01
0.01
0.01
0.01
0.01
0.01
0.01
0.01
0.01
0.01
0.01
0.01
0.01
0.01
0.01
0.01
0.01
0.01
0.01
0.01
0.01
0.01
0.01
0.01
0.01
0.01
0.01
0.01
0.01
0.01
0.01
0.01
0.01
0.01
0.01
0.01
0.01
0.01
0.01
0.01
0.01
0.01
0.01
0.01
0.01
0.01
0.01
0.01
0.01
0.01
0.01
0.01
0.01
0.01
0.01
0.01
0.01
0.01
0.01
0.01
0.01
0.01
0.01
0.01
0.01
0.01
0.01
0.01
0.01
0.01
0.01
0.01
0.01
0.01
0.01
0.01
0.01
0.01
0.01
0.01
0.01
0.01
0.01
0.01
0.01
0.01
0.01
0.01
0.01
0.01
0.01
0.01
0.01
0.01
0.01
0.01
0.01
0.01
0.01
0.01
0.01
0.01
0.01
0.01
0.01
0.01
0.01
0.01
0.01
0.01
0.01
0.01
0.01
0.01
0.01
0.01
0.01
0.01
0.01
0.01
0.01
0.01
0.01
0.01
0.01
0.01
0.01
0.01
0.01
0.01
0.01
0.01
0.01
0.01
0.01
0.01
0.01
0.01
0.01
0.01
0.01
0.01
0.01
0.01
0.01
0.01
0.01
0.01
0.01
0.01
0.01
0.01
0.01
0.01
0.01
0.01
0.01
0.01
0.01
0.01
0.01
0.01
0.01
0.01
0.01
0.01
0.01
0.01
0.01
0.01
0.01
0.01
0.01
0.01
0.01
0.01
0.01
0.01
0.01
0.01
0.01
0.01
0.01
0.01
0.01
0.01
0.01
0.01
0.01
0.01
0.01
0.01
0.01
0.01
0.01
0.01
0.01
0.01
0.01
0.01
0.01
0.01
0.01
0.01
0.01
0.01
0.01
0.01
0.01
0.01
0.01
0.01
0.01
0.01
0.01
0.01
0.01
0.01
0.01
0.01
0.01
0.01
0.01
0.01
0.01
0.01
0.01
0.01
0.01
0.01
2.076332e-05
3.037472e-05
4.372403e-05
0.0001870972
0.0002654327
0.0005255093
0.0006102193
0.0006586953
0.0006486745
0.0006267929
0.0006361737
0.0006440278
0.0006434808
0.0006173905
0.0003972693
9.136394e-05
1.220616e-05
4.294503e-05
0.001157624
0.002269652
0.00312548
0.003966353
0.004740896
0.00540408
0.005926682
0.006209088
0.006097612
0.006031708
0.005927761
0.005795798
0.005639854
0.005415521
0.005092709
0.004687732
0.004289296
0.003995171
0.003866791
0.003913416
0.004078861
0.004375725
0.004803635
0.005362403
0.006049792
0.006874295
0.007873701
0.009041475
0.01
0.01
0.01
0.01
0.01
0.01
0.01
0.01
0.01
0.01
0.01
0.01
0.01
0.01
0.01
0.01
0.01
0.01
0.01
0.01
0.01
0.01
0.01
0.01
0.01
0.01
0.01
0.01
0.01
0.01
0.01
0.01
0.01
0.01
0.01
0.01
0.01
0.01
0.01
0.01
0.01
0.01
0.01
0.01
0.01
0.01
0.01
0.01
0.01
0.01
0.01
0.01
0.01
0.01
0.01
0.01
0.01
0.01
0.01
0.01
0.01
0.01
0.01
0.01
0.01
0.01
0.01
0.01
0.01
0.01
0.01
0.01
0.01
0.01
0.01
0.01
0.01
0.01
0.01
0.01
0.01
0.01
0.01
0.01
0.01
0.01
0.01
0.01
0.01
0.01
0.01
0.01
0.01
0.01
0.01
0.01
0.01
0.01
0.01
0.01
0.01
0.01
0.01
0.01
0.01
0.01
0.01
0.01
0.01
0.01
0.01
0.01
0.01
0.01
0.01
0.01
0.01
0.01
0.01
0.01
0.01
0.01
0.01
0.01
0.01
0.01
0.01
0.01
0.01
0.01
0.01
0.01
0.01
0.01
0.01
0.01
0.01
0.01
0.01
0.01
0.01
0.01
0.01
0.01
0.01
0.01
0.01
0.01
0.01
0.01
0.01
0.01
0.01
0.01
0.01
0.01
0.01
0.01
0.01
0.01
0.01
0.01
0.01
0.01
0.01
0.01
0.01
0.01
0.01
0.01
0.01
0.01
0.01
0.01
0.01
0.01
0.01
0.01
0.01
0.01
0.01
0.01
0.01
0.01
0.01
0.01
0.01
0.01
0.01
0.01
0.01
0.01
0.01
0.01
0.01
0.01
0.01
0.01
0.01
0.01
0.01
0.01
0.01
0.01
0.01
0.01
0.01
0.01
0.01
0.01
0.01
0.01
0.01
0.01
0.01
0.01
0.01
0.01
0.01
0.01
0.01
0.01
0.01
0.01
0.01
0.01
0.01
0.01
0.01
0.01
0.01
0.01
0.01
0.01
0.01
0.01
0.01
0.01
0.01
0.01
0.01
0.01
0.01
0.01
0.01
0.01
0.01
0.01
0.01
0.01
0.01
0.01
0.01
0.01
0.01
0.01
0.01
0.01
0.01
0.01
0.01
0.01
0.01
0.01
0.01
0.01
0.01
0.01
0.01
0.01
0.01
0.01
0.01
0.01
0.01
0.01
0.01
0.01
0.01
0.01
0.01
0.01
0.01
0.01
0.01
0.01
0.01
0.01
0.01
0.01
0.01
0.01
0.01
0.01
0.01
0.01
0.01
0.01
0.01