/*--------------------------------*- C++ -*----------------------------------*\
| =========                 |                                                 |
| \\      /  F ield         | foam-extend: Open Source CFD                    |
|  \\    /   O peration     | Version:     3.1                                |
|   \\  /    A nd           | Web:         http://www.extend-project.de       |
|    \\/     M anipulation  |                                                 |
\*---------------------------------------------------------------------------*/
FoamFile
{
    version     2.0;
    format      ascii;
    class       volScalarField;
    location    "5.5";
    object      k;
}
// * * * * * * * * * * * * * * * * * * * * * * * * * * * * * * * * * * * * * //

dimensions      [0 2 -2 0 0 0 0];

internalField   nonuniform List<scalar> 
119952
(
0.01053447
0.008617066
0.00972987
0.01119346
0.01190142
0.01187481
0.01193552
0.01199721
0.01204026
0.01205981
0.01205867
0.0120396
0.01200594
0.01195983
0.01190081
0.01183286
0.0117618
0.01169426
0.01164487
0.01170954
0.01279246
0.01242084
0.01234278
0.01313311
0.01263266
0.01225105
0.01189057
0.01153194
0.01098545
0.01424993
0.006943828
0.005458675
0.006211324
0.007291945
0.008164764
0.008841461
0.009424399
0.009968461
0.01050132
0.01122399
0.01437938
0.01790441
0.02066686
0.02273751
0.02436915
0.02576638
0.02704589
0.02826527
0.02943359
0.03598833
0.03752598
0.03914065
0.04075922
0.04227373
0.04364763
0.04488703
0.04601032
0.04703877
0.04800226
0.04879376
0.04963675
0.05055562
0.0514834
0.05235628
0.05314135
0.05382695
0.05441219
0.0549993
0.05557383
0.05556597
0.05559326
0.05579186
0.05600498
0.0560501
0.05593538
0.05571144
0.05538934
0.05497683
0.0544799
0.0539035
0.05325248
0.05253161
0.05174514
0.0508953
0.04998767
0.04902702
0.04801374
0.04694493
0.04590046
0.04486418
0.04371163
0.04267843
0.04183985
0.04084402
0.03977124
0.03870164
0.03759566
0.03578552
0.03422449
0.03290656
0.03171697
0.03060429
0.02955506
0.02856563
0.02763674
0.02676601
0.02595207
0.02519353
0.02448684
0.02382953
0.02321776
0.02264848
0.02211891
0.02162619
0.02116755
0.02074025
0.0203417
0.01996946
0.01962124
0.01929489
0.01898837
0.01869995
0.01842795
0.0181708
0.01792701
0.01769522
0.01747421
0.01726288
0.01706026
0.01686553
0.01667796
0.01649695
0.01632201
0.01615278
0.01598897
0.01583041
0.01567699
0.01552869
0.01538553
0.0152476
0.01511488
0.01498736
0.01486506
0.01474798
0.0146359
0.0145277
0.01442451
0.01433882
0.01428728
0.0142456
0.01421003
0.01417698
0.0141452
0.0141142
0.01408402
0.01405483
0.01402682
0.01400026
0.01397537
0.01395236
0.0139313
0.01391221
0.01389504
0.01387967
0.01386592
0.01385359
0.01384242
0.01383217
0.01382256
0.01381316
0.01380367
0.01379375
0.01378406
0.01377394
0.01376289
0.01375072
0.01373738
0.01372288
0.01370727
0.01369062
0.01367304
0.01365467
0.01363565
0.01361617
0.01359642
0.01357662
0.01355716
0.01353822
0.01351945
0.01350099
0.01348272
0.01346474
0.01344712
0.01343013
0.01341351
0.01339576
0.01338037
0.01345941
0.0136215
0.01368644
0.01370405
0.01369427
0.01366925
0.01363622
0.01359803
0.01355091
0.01349936
0.01344683
0.01339591
0.01334817
0.0133047
0.01326625
0.01323325
0.0132059
0.0131843
0.01316849
0.01315857
0.01315447
0.01315616
0.01316363
0.01317701
0.0131962
0.01322169
0.01325359
0.01329052
0.01333072
0.01337419
0.01342066
0.01347073
0.01352489
0.01358286
0.01364185
0.01367509
0.01375093
0.01384249
0.01393441
0.01402137
0.01410113
0.01417323
0.01423753
0.01429403
0.01434303
0.01438494
0.01442012
0.01444909
0.01447238
0.01449051
0.01450404
0.0145135
0.01451935
0.01452204
0.01452198
0.01451954
0.01451504
0.0145088
0.01450109
0.01449218
0.01448229
0.01447161
0.01446029
0.01444851
0.0144364
0.01442404
0.01441154
0.01439912
0.01438762
0.01437607
0.01401447
0.01409193
0.01412558
0.01411016
0.01406266
0.01399762
0.01392713
0.01385971
0.01380005
0.01375037
0.01371122
0.01368252
0.01366408
0.01365471
0.01365337
0.01365888
0.01367007
0.01368585
0.01370513
0.0137269
0.01375034
0.01377475
0.0137995
0.01382413
0.0138483
0.01387174
0.01389414
0.01391543
0.01393568
0.01395483
0.01397291
0.01398999
0.01400616
0.01402155
0.01403628
0.01405049
0.01406434
0.01407795
0.01409147
0.01410505
0.0141188
0.01413285
0.01414744
0.01416283
0.01418032
0.01420102
0.01421669
0.01422952
0.01424242
0.01425534
0.01426813
0.01428163
0.01429614
0.01432417
0.0143935
0.01437551
0.01435533
0.01433029
0.01429998
0.01426576
0.01422907
0.01419139
0.01415484
0.01412092
0.01409073
0.01406518
0.0140444
0.01402836
0.01401687
0.01400954
0.01400591
0.0140055
0.01400783
0.01401244
0.0140189
0.01402683
0.01403587
0.01404569
0.01405599
0.01406649
0.01407694
0.0140871
0.01409679
0.01410584
0.01411413
0.01412158
0.01412812
0.01413372
0.01413836
0.01414208
0.01414489
0.01414687
0.01414805
0.01414849
0.01414824
0.01414734
0.01414582
0.01414372
0.01414107
0.01413789
0.01413419
0.01412998
0.01412525
0.01412001
0.01411424
0.01410792
0.01410104
0.01409358
0.01408553
0.01407687
0.0140676
0.01405773
0.01404729
0.0140363
0.01402482
0.01401294
0.01400079
0.01398854
0.01397636
0.01396446
0.01395305
0.01394236
0.01393257
0.01392385
0.01391634
0.01391018
0.01390538
0.01390182
0.01389936
0.01389776
0.01389682
0.01389634
0.01389569
0.01389418
0.01388951
0.01387581
0.0138406
0.01380195
0.01406615
0.01991691
0.01753667
0.01685814
0.01691333
0.01722499
0.01754256
0.01776444
0.01786742
0.01788489
0.01849559
0.02082701
0.02328466
0.02544598
0.02714833
0.02840154
0.02928755
0.02989745
0.03030303
0.03555933
0.03581042
0.03594041
0.03605956
0.03623036
0.03643462
0.03663571
0.03681047
0.03695385
0.03710949
0.03719671
0.03717622
0.03728401
0.03752089
0.03785659
0.0382618
0.03871825
0.03921331
0.0397541
0.04032396
0.04078418
0.04138815
0.04215306
0.04305096
0.04404489
0.0451031
0.04620326
0.04733483
0.04850021
0.04965994
0.05083951
0.05208472
0.05340364
0.05476691
0.0561373
0.05748716
0.05880261
0.06008197
0.06655237
0.06769996
0.06880241
0.06986723
0.07088979
0.07186001
0.07276838
0.07360864
0.07438019
0.07507772
0.07569089
0.07622835
0.07670194
0.07711845
0.07747802
0.07777826
0.07802086
0.07822801
0.07844643
0.07859353
0.07855358
0.07845181
0.07832157
0.07813269
0.07784656
0.07745985
0.07697928
0.07641103
0.07576033
0.07503078
0.07422492
0.07334468
0.07239152
0.07136611
0.07026867
0.06909937
0.06785846
0.06654831
0.06518491
0.06379066
0.0623558
0.06091073
0.05952826
0.05818312
0.05682745
0.05547011
0.05408919
0.05254979
0.05086769
0.04921694
0.04763826
0.0461251
0.04467592
0.04328777
0.04195864
0.04068725
0.03947295
0.03831466
0.03721158
0.03616545
0.0351765
0.03424499
0.03337013
0.03254823
0.03177627
0.03105138
0.03037068
0.02973139
0.0291308
0.02856626
0.02803517
0.02753507
0.02706366
0.02661865
0.02619791
0.02579938
0.02542113
0.02506134
0.02471834
0.02439059
0.02407671
0.02377545
0.02348569
0.02320652
0.0229372
0.02267712
0.02242574
0.02218249
0.02194704
0.02171926
0.02149909
0.02128659
0.02108185
0.02088501
0.02069623
0.02051584
0.0203447
0.02018397
0.0200341
0.01989364
0.01976207
0.01964036
0.01952875
0.01942722
0.01933582
0.01925449
0.01918303
0.01912115
0.01906846
0.01902451
0.01898875
0.01896059
0.01893939
0.01892445
0.01891504
0.01891038
0.01890969
0.01891215
0.01891693
0.01892321
0.01893019
0.01893705
0.01894298
0.01894725
0.01894923
0.01894824
0.01894366
0.01893494
0.01892161
0.01890328
0.01887963
0.01885043
0.0188155
0.01877476
0.01872818
0.01867585
0.01861797
0.01855501
0.01848752
0.01841566
0.01833948
0.01825945
0.01817562
0.0180887
0.0179985
0.01790618
0.01781167
0.01772077
0.0174347
0.01708089
0.01681462
0.01660258
0.01642603
0.01627361
0.01613859
0.01601683
0.01590562
0.01580321
0.01570828
0.01561988
0.01553725
0.01545979
0.01538703
0.01531856
0.01525406
0.01519323
0.01513584
0.01508167
0.01503053
0.01498222
0.0149366
0.01489349
0.01485276
0.01481428
0.01477794
0.01474367
0.01471117
0.01468047
0.0146514
0.01462366
0.01459673
0.01456969
0.01454196
0.01451812
0.01450521
0.01450508
0.01451114
0.01452085
0.01453336
0.01454808
0.0145646
0.01458265
0.01460204
0.01462268
0.01464449
0.01466739
0.01469134
0.01471628
0.01474216
0.01476892
0.01479653
0.01482492
0.01485405
0.01488386
0.01491431
0.01494536
0.01497695
0.01500904
0.0150416
0.01507457
0.01510793
0.01514163
0.01517563
0.01520991
0.01524448
0.01527928
0.01531419
0.01534888
0.01620405
0.01623592
0.01627985
0.01632714
0.01637387
0.01641894
0.01646198
0.01650277
0.01654118
0.01657729
0.01661124
0.01664321
0.01667336
0.01670187
0.01672895
0.01675482
0.01677966
0.01680362
0.01682686
0.01684955
0.01687182
0.01689378
0.01691551
0.01693709
0.01695859
0.01698011
0.0170017
0.01702338
0.01704518
0.01706712
0.01708921
0.01711146
0.01713387
0.01715644
0.01717917
0.01720205
0.0172251
0.0172483
0.01727168
0.01729525
0.01731904
0.01734309
0.01736749
0.01739231
0.0174174
0.01744203
0.01746518
0.01748717
0.01750876
0.0175302
0.01755149
0.01757262
0.01759514
0.01762226
0.01764916
0.01766747
0.01768195
0.01769633
0.01771116
0.01772637
0.01774169
0.01775676
0.01777131
0.01778525
0.01779845
0.01781079
0.01782222
0.01783274
0.01784237
0.01785114
0.01785909
0.01786627
0.01787271
0.01787846
0.01788356
0.01788807
0.01789201
0.01789542
0.01789832
0.01790072
0.01790262
0.01790403
0.01790492
0.01790528
0.01790509
0.01790435
0.01790305
0.01790118
0.01789875
0.01789579
0.01789232
0.01788838
0.01788402
0.01787929
0.01787424
0.01786894
0.01786343
0.01785778
0.01785204
0.01784627
0.01784051
0.01783481
0.01782921
0.01782376
0.01781849
0.01781344
0.01780863
0.01780409
0.01779985
0.01779592
0.01779231
0.01778906
0.01778617
0.01778365
0.01778152
0.01777981
0.01777856
0.01777784
0.0177777
0.01777827
0.01777962
0.0177819
0.01778521
0.01778971
0.01779549
0.01780275
0.01781149
0.01782188
0.01783384
0.01784752
0.01786275
0.01787967
0.01789795
0.01791753
0.0179379
0.01796068
0.01799452
0.01805882
0.01813523
0.03660641
0.03987184
0.04331428
0.04645937
0.04928981
0.05186453
0.05408543
0.0559801
0.05763797
0.06043032
0.08125206
0.09294561
0.09801034
0.1002926
0.1012865
0.1015948
0.1014878
0.1010882
0.1003903
0.1126776
0.111544
0.1102838
0.1091147
0.1080501
0.1070246
0.1059844
0.1049002
0.1037406
0.1026325
0.1012826
0.09969446
0.0980885
0.09652519
0.09501072
0.09353505
0.09207911
0.09063362
0.08924691
0.08789607
0.0862497
0.08463125
0.08306118
0.08152767
0.08003787
0.07859245
0.0771716
0.07578749
0.07442222
0.07308621
0.07182166
0.07060603
0.06945662
0.06838484
0.0673949
0.06648985
0.0656913
0.07080889
0.07008815
0.0694234
0.0687624
0.06809472
0.0674314
0.06678499
0.06616363
0.0655758
0.06503193
0.06451666
0.06403881
0.0636276
0.06329984
0.06306247
0.06291295
0.06285267
0.06288365
0.06300925
0.06322033
0.06351482
0.0639089
0.06441477
0.06504472
0.0657886
0.06663752
0.06758107
0.06860832
0.06970537
0.07085229
0.07204273
0.0732755
0.07454548
0.0758422
0.07715133
0.0784577
0.07975681
0.08102919
0.08217834
0.08329081
0.08435017
0.08535127
0.0862927
0.08717006
0.08797793
0.08871197
0.08937012
0.0899485
0.09044189
0.09085173
0.09118227
0.09143732
0.09161978
0.0917333
0.0917852
0.09179075
0.09177002
0.09168799
0.09148998
0.09121866
0.09090146
0.09052564
0.09006748
0.08952073
0.08888939
0.08817847
0.08739192
0.08653252
0.08560197
0.08460116
0.08353027
0.08238889
0.08117629
0.07989173
0.07853497
0.07710891
0.07562385
0.07409755
0.07253761
0.07096231
0.06941118
0.06788564
0.06635651
0.06480819
0.0632241
0.06156035
0.05979493
0.05801266
0.05627058
0.05458284
0.0529504
0.05137271
0.04985042
0.04838473
0.04697684
0.04562762
0.04433742
0.04310636
0.04193411
0.04081896
0.03975922
0.03875584
0.03780935
0.03691717
0.03607658
0.03528489
0.03453939
0.03383734
0.03317602
0.03255273
0.03196495
0.03141015
0.03088593
0.03038998
0.02992008
0.02947416
0.02905027
0.0286466
0.02826137
0.02789254
0.02753851
0.02719796
0.02686977
0.02655298
0.02624688
0.02595109
0.02566523
0.02538901
0.02512222
0.02486476
0.02461657
0.02437772
0.02414833
0.02392865
0.02371912
0.02352042
0.02333321
0.02315745
0.02299259
0.02283847
0.02269531
0.02256341
0.02244295
0.02233395
0.02223636
0.02215002
0.02207471
0.0220101
0.0219558
0.02191134
0.02187615
0.02184963
0.02183111
0.02181983
0.02181504
0.02181589
0.02182154
0.02183111
0.0218437
0.02185843
0.02187443
0.0218908
0.0219067
0.02192131
0.02193387
0.02194368
0.02195011
0.02195256
0.02195053
0.02194358
0.02193133
0.02191349
0.02188985
0.0218602
0.02182445
0.02178238
0.0217338
0.0216787
0.0216176
0.02155054
0.02147829
0.02140072
0.0213191
0.02123289
0.02114412
0.02105035
0.02093479
0.020828
0.0207265
0.02062806
0.02053143
0.02043599
0.02034161
0.02024837
0.02015657
0.02006652
0.01997855
0.01989293
0.01980996
0.01972985
0.01965281
0.01957898
0.01950847
0.01944136
0.01937768
0.01931743
0.01926059
0.01920709
0.01915687
0.01910985
0.01906591
0.01902495
0.01898687
0.01895154
0.01891885
0.01888871
0.01886103
0.01883574
0.01881378
0.01879552
0.01877967
0.01876747
0.01876071
0.01875912
0.01876121
0.01876622
0.01877366
0.01878309
0.01879416
0.01880663
0.0188203
0.01883503
0.01885071
0.01886723
0.01888454
0.01890257
0.01892127
0.0189406
0.01896051
0.01898099
0.019002
0.01902352
0.01904552
0.01906801
0.01909095
0.01911433
0.01913814
0.01916238
0.01918701
0.01921205
0.01923745
0.01926326
0.01928939
0.01931597
0.01934282
0.01937244
0.01940533
0.01943717
0.01946495
0.01949015
0.0195152
0.01954087
0.01956723
0.01959403
0.01962107
0.0196482
0.01967532
0.01970234
0.01972918
0.01975576
0.01978203
0.01980793
0.01983345
0.0198586
0.01988339
0.01990783
0.01993193
0.01995572
0.01997921
0.02000244
0.02002544
0.02004826
0.02007093
0.02009349
0.02011598
0.02013843
0.02016086
0.02018331
0.02020579
0.02022832
0.02025092
0.0202736
0.02029637
0.02031925
0.02034224
0.02036534
0.02038859
0.02041196
0.02043546
0.02045902
0.0204825
0.02050564
0.02052815
0.02055002
0.02057143
0.02059259
0.02061351
0.02063414
0.02065428
0.02067349
0.02069219
0.02071134
0.02073097
0.02075061
0.02076956
0.02078761
0.0208049
0.02082156
0.02083765
0.02085313
0.02086795
0.02088208
0.0208955
0.02090817
0.02092007
0.0209312
0.02094152
0.02095106
0.02095979
0.02096772
0.02097487
0.02098123
0.02098682
0.02099166
0.02099575
0.0209991
0.02100172
0.02100362
0.0210048
0.02100527
0.02100503
0.02100409
0.02100245
0.02100014
0.02099717
0.02099357
0.02098939
0.02098465
0.02097943
0.02097377
0.02096775
0.02096142
0.02095486
0.02094814
0.02094133
0.02093452
0.02092777
0.02092115
0.02091474
0.02090861
0.02090282
0.02089744
0.02089252
0.02088812
0.02088428
0.02088104
0.02087842
0.02087645
0.02087512
0.02087442
0.02087436
0.0208749
0.02087605
0.02087779
0.02088016
0.02088317
0.0208869
0.02089141
0.02089684
0.02090329
0.02091095
0.02091998
0.02093055
0.02094286
0.02095702
0.02097328
0.02099167
0.02101257
0.02103585
0.02106241
0.02109219
0.02112796
0.02117076
0.02122594
0.02128175
0.03591346
0.04275343
0.04920721
0.08164159
0.1084005
0.1422152
0.1593039
0.1747171
0.1869405
0.1963041
0.2048005
0.2113584
0.2154602
0.218129
0.2195811
0.2200558
0.2196244
0.2184308
0.2166085
0.2142487
0.2114272
0.2083387
0.2050643
0.2016706
0.1982893
0.1949234
0.191556
0.1881772
0.1847872
0.1813817
0.1779158
0.1813831
0.1784654
0.1755618
0.1727257
0.1699796
0.167328
0.1647537
0.1622535
0.1598143
0.1574177
0.1550579
0.1527148
0.1503652
0.1480236
0.14572
0.1434351
0.1411422
0.1388153
0.1364488
0.1340071
0.1314979
0.1289372
0.1263337
0.1236988
0.1210477
0.1183982
0.115766
0.1131718
0.1106219
0.1081239
0.1057062
0.1033868
0.1011822
0.0990949
0.09713662
0.09527016
0.09350975
0.09184883
0.09030704
0.08886803
0.08754611
0.08633491
0.08521692
0.08417895
0.08321391
0.08231799
0.0814897
0.08072384
0.0800243
0.07940174
0.07886418
0.0784174
0.07806607
0.07781512
0.07766743
0.07762494
0.07768367
0.07784373
0.078109
0.07847523
0.0789341
0.07949401
0.08016292
0.08095058
0.08184421
0.08282938
0.08388884
0.08500968
0.08618237
0.08739689
0.08864104
0.08990057
0.09115953
0.09240679
0.09361564
0.09477317
0.09587892
0.0969226
0.09789647
0.09879681
0.09962017
0.1003628
0.1010216
0.101594
0.1020773
0.1024685
0.1027671
0.1029747
0.1030943
0.1031295
0.1030853
0.1029692
0.1027912
0.1025615
0.1022684
0.1018885
0.1014347
0.1009242
0.1003545
0.09971415
0.09899847
0.09820966
0.09735149
0.09642717
0.09543912
0.09438887
0.09327708
0.09210364
0.09086798
0.0895694
0.08820707
0.0867803
0.08529033
0.0837434
0.08215132
0.08052493
0.07887801
0.07723173
0.07559176
0.07394225
0.0722677
0.07055641
0.06878998
0.06696042
0.06510679
0.06327185
0.06147522
0.05972249
0.05801633
0.05635961
0.05475515
0.05320526
0.05171177
0.05027602
0.04889898
0.04758116
0.04632249
0.04512256
0.04398054
0.0428946
0.04186529
0.04089163
0.03997135
0.0391021
0.03828145
0.03750682
0.03677564
0.03608535
0.03543342
0.03481735
0.03423468
0.03368307
0.03316024
0.03266409
0.03219203
0.03174158
0.03131107
0.03089894
0.03050372
0.03012409
0.02975887
0.02940707
0.02906786
0.02874052
0.02842452
0.02811944
0.02782498
0.02754098
0.02726738
0.02700424
0.02675173
0.02651016
0.02627996
0.02606157
0.02585515
0.02566055
0.02547779
0.02530705
0.02514859
0.02500256
0.02486904
0.02474803
0.02463948
0.02454327
0.02445921
0.024387
0.0243263
0.02427666
0.02423755
0.0242084
0.02418854
0.02417726
0.02417377
0.02417725
0.02418683
0.0242016
0.02422064
0.02424301
0.02426777
0.02429398
0.02432074
0.02434717
0.02437244
0.02439578
0.02441647
0.02443384
0.0244473
0.02445634
0.0244605
0.02445938
0.02445264
0.02444001
0.02442124
0.02439623
0.02436491
0.02432737
0.02428362
0.02423393
0.02417841
0.02411753
0.02405147
0.02398093
0.02390608
0.02382648
0.02374296
0.02365589
0.0235663
0.02347507
0.02338292
0.02329047
0.02319846
0.02310756
0.02301803
0.02293017
0.0228443
0.02276072
0.0226797
0.02260148
0.02252625
0.02245418
0.02238539
0.02231996
0.02225795
0.02219938
0.02214425
0.02209253
0.02204417
0.02199911
0.02195729
0.02191863
0.02188312
0.02185095
0.02182229
0.02179697
0.02177482
0.02175502
0.02173739
0.02172217
0.02170988
0.02170115
0.02169614
0.02169443
0.02169551
0.02169898
0.02170451
0.02171186
0.02172081
0.02173116
0.02174278
0.02175554
0.02176932
0.02178404
0.02179962
0.02181598
0.02183306
0.02185081
0.02186917
0.02188812
0.02190759
0.02192755
0.02194799
0.02196887
0.02199018
0.02201189
0.02203398
0.02205645
0.02207927
0.02210244
0.02212593
0.02214978
0.02217387
0.0221984
0.02222313
0.02224837
0.02227355
0.02229915
0.02232537
0.02235199
0.02237873
0.02240545
0.02243213
0.02245873
0.02248525
0.0225117
0.02253806
0.02256434
0.02259052
0.02261656
0.02264246
0.02266819
0.02269376
0.02271916
0.02274437
0.0227694
0.02279423
0.02281888
0.02284334
0.02286763
0.02289175
0.02291574
0.02293961
0.02296339
0.0229871
0.02301076
0.02303439
0.023058
0.02308162
0.02310526
0.02312894
0.02315265
0.02317642
0.02320025
0.02322414
0.02324807
0.02327205
0.02329601
0.02331991
0.02334364
0.02336709
0.02339014
0.02341273
0.02343491
0.02345678
0.02347839
0.02349973
0.02352088
0.02354195
0.0235627
0.02358273
0.02360198
0.02362063
0.02363878
0.02365648
0.02367376
0.02369059
0.02370693
0.02372274
0.02373795
0.0237525
0.02376634
0.02377943
0.02379174
0.02380324
0.02381392
0.02382377
0.02383278
0.02384094
0.02384825
0.02385473
0.02386036
0.02386515
0.02386912
0.02387228
0.02387462
0.02387616
0.02387691
0.02387688
0.02387609
0.02387454
0.02387225
0.02386924
0.02386555
0.0238612
0.02385623
0.0238507
0.02384466
0.02383816
0.02383128
0.02382409
0.02381666
0.02380909
0.02380144
0.02379381
0.02378628
0.02377896
0.02377192
0.02376526
0.02375906
0.0237534
0.02374837
0.02374403
0.02374045
0.02373764
0.02373566
0.02373449
0.02373413
0.02373456
0.02373572
0.02373759
0.02374012
0.02374329
0.02374709
0.02375153
0.02375667
0.0237626
0.02376942
0.02377729
0.02378641
0.02379698
0.02380921
0.02382335
0.02383963
0.0238583
0.02387963
0.02390394
0.02393156
0.02396309
0.02399907
0.02404069
0.02408848
0.02414387
0.02419915
0.02127321
0.02448031
0.0277413
0.03927988
0.05310794
0.07678137
0.09185112
0.1067089
0.1215822
0.1358149
0.1497765
0.1641925
0.1787534
0.1928488
0.2064889
0.2211779
0.246164
0.2529706
0.2579813
0.2611198
0.2633556
0.2651341
0.2658246
0.2647989
0.2626389
0.2596276
0.2560054
0.2519623
0.2476514
0.2431937
0.2386793
0.2341867
0.2297964
0.2255427
0.2214434
0.2175207
0.2137947
0.2102702
0.2069526
0.2038278
0.2009057
0.1981234
0.1950745
0.1923153
0.1897882
0.1874328
0.185222
0.1831327
0.181109
0.1791539
0.1772572
0.1754085
0.1735893
0.1717681
0.1699226
0.1680328
0.1660637
0.1640162
0.1618892
0.1596791
0.1573808
0.154979
0.1524739
0.1498811
0.1472092
0.1444637
0.1416541
0.1387951
0.1359043
0.1330024
0.1301073
0.1272392
0.1244242
0.121687
0.1190489
0.1165273
0.1141351
0.111882
0.1097668
0.1078065
0.1059599
0.1042277
0.102626
0.1011528
0.09979423
0.09853697
0.0973725
0.09629478
0.09529956
0.09438275
0.09354297
0.09278256
0.09210595
0.09151813
0.09102415
0.09062883
0.09033578
0.09014793
0.09006576
0.09008989
0.09022208
0.090462
0.09080775
0.0912571
0.09180356
0.09243639
0.09316707
0.09400363
0.09493075
0.09593343
0.09699847
0.09811297
0.09926307
0.1004339
0.1016097
0.1027764
0.1039166
0.1050158
0.1060642
0.1070518
0.1079694
0.1088104
0.1095697
0.1102427
0.1108256
0.1113152
0.1117083
0.1120022
0.1121954
0.1122873
0.1122796
0.1121768
0.1119838
0.1117069
0.1113533
0.1109297
0.1104347
0.1098614
0.1092154
0.1085064
0.1077368
0.1069037
0.1060066
0.1050477
0.1040306
0.1029585
0.1018343
0.1006601
0.09943741
0.09816674
0.09684815
0.09548155
0.09406662
0.09260251
0.09108893
0.08952837
0.08792626
0.08628894
0.08462709
0.08295242
0.08126886
0.07956901
0.07784279
0.07608238
0.07428034
0.07243643
0.07057135
0.06871211
0.0668762
0.06507196
0.06330433
0.06157755
0.0598954
0.05826113
0.05667748
0.05514671
0.05367068
0.05225078
0.05088795
0.04958265
0.04833484
0.04714421
0.04600991
0.04493193
0.04390891
0.04293919
0.04202088
0.04115187
0.04032991
0.03955267
0.0388178
0.03812285
0.03746538
0.03684294
0.03625312
0.03569358
0.03516198
0.0346562
0.03417424
0.03371415
0.03327414
0.0328526
0.03244807
0.03205926
0.03168505
0.03132447
0.03097675
0.03064123
0.03031745
0.03000506
0.02970389
0.02941387
0.02913506
0.02886766
0.02861194
0.02836821
0.02813669
0.02791746
0.02771063
0.0275164
0.027335
0.02716669
0.02701162
0.02686988
0.0267415
0.02662649
0.02652474
0.0264361
0.02636029
0.02629698
0.02624577
0.02620615
0.02617756
0.02615935
0.02615081
0.02615116
0.02615956
0.02617512
0.02619691
0.02622398
0.02625535
0.02629003
0.02632705
0.02636546
0.02640433
0.02644279
0.02648002
0.02651525
0.02654776
0.0265769
0.02660207
0.02662272
0.02663838
0.02664862
0.02665308
0.02665152
0.02664377
0.02662974
0.02660939
0.02658275
0.02654991
0.02651107
0.02646646
0.02641644
0.02636137
0.02630163
0.0262376
0.02616964
0.02609818
0.02602381
0.02594712
0.02586871
0.02578905
0.02570854
0.02562782
0.02554748
0.02546805
0.02538998
0.02531368
0.02523948
0.02516769
0.02509854
0.02503224
0.02496896
0.0249088
0.02485186
0.02479819
0.0247478
0.02470071
0.0246569
0.02461634
0.024579
0.02454481
0.02451355
0.02448493
0.02445899
0.02443571
0.02441502
0.02439689
0.02438134
0.02436851
0.02435862
0.02435176
0.02434779
0.02434642
0.02434737
0.02435039
0.02435528
0.02436186
0.02436995
0.02437943
0.02439017
0.02440205
0.02441499
0.02442889
0.02444367
0.02445927
0.02447563
0.02449267
0.02451036
0.02452864
0.02454747
0.02456682
0.02458664
0.02460692
0.02462762
0.02464871
0.02467018
0.02469201
0.02471418
0.02473667
0.02475948
0.02478257
0.02480594
0.0248295
0.02485329
0.02487736
0.02490174
0.02492629
0.02495098
0.02497595
0.02500125
0.02502684
0.02505263
0.0250786
0.02510469
0.02513088
0.02515715
0.02518346
0.0252098
0.02523612
0.02526242
0.02528867
0.02531486
0.02534099
0.02536703
0.02539297
0.02541882
0.02544457
0.02547021
0.02549575
0.02552119
0.02554656
0.02557187
0.02559712
0.02562233
0.02564752
0.02567269
0.02569786
0.02572305
0.02574826
0.02577349
0.02579876
0.02582405
0.02584937
0.0258747
0.02590001
0.02592527
0.02595041
0.02597537
0.02600008
0.02602445
0.02604849
0.02607217
0.02609552
0.02611855
0.02614124
0.02616359
0.02618555
0.02620701
0.02622797
0.02624848
0.02626856
0.02628814
0.02630714
0.02632552
0.02634328
0.02636039
0.02637681
0.0263925
0.02640745
0.02642159
0.02643491
0.02644737
0.02645896
0.02646965
0.02647942
0.02648829
0.02649623
0.02650325
0.02650936
0.02651455
0.02651884
0.02652223
0.02652475
0.02652639
0.02652718
0.02652712
0.02652625
0.02652457
0.0265221
0.02651888
0.02651492
0.02651027
0.02650496
0.02649903
0.02649253
0.02648553
0.02647808
0.02647025
0.02646213
0.02645379
0.02644532
0.02643681
0.02642836
0.02642006
0.02641202
0.02640434
0.02639712
0.02639047
0.02638448
0.02637923
0.02637481
0.02637128
0.02636867
0.02636701
0.02636629
0.02636649
0.02636757
0.02636948
0.02637216
0.02637557
0.02637968
0.02638448
0.02639
0.02639628
0.02640342
0.02641155
0.02642084
0.02643149
0.02644371
0.02645775
0.02647387
0.02649235
0.02651348
0.02653757
0.02656499
0.02659614
0.02663152
0.02667167
0.02671732
0.02676882
0.02682629
0.0268819
0.008156911
0.009795742
0.01123134
0.01756735
0.02504239
0.03516642
0.04344274
0.05271264
0.06254983
0.07284885
0.08372234
0.09618374
0.1092995
0.123284
0.1392684
0.1641015
0.1767596
0.1896963
0.2024975
0.2151129
0.2274622
0.2396409
0.2511338
0.2611362
0.2690469
0.2748431
0.278064
0.2800993
0.2803989
0.2784825
0.2753726
0.2716375
0.2671162
0.2617424
0.2557901
0.2495307
0.2431458
0.2367818
0.2305542
0.2245577
0.2188409
0.21344
0.2084058
0.2037545
0.1994882
0.1956025
0.1920868
0.1889326
0.1861194
0.1836273
0.1814334
0.1795084
0.1777899
0.1762814
0.1749822
0.173868
0.1729143
0.172102
0.1714063
0.1708092
0.1702907
0.16983
0.169391
0.1688595
0.1682506
0.1675598
0.1667771
0.1658926
0.1648957
0.163776
0.1625209
0.1611191
0.159563
0.1578506
0.1559823
0.1539602
0.15179
0.1494833
0.1470564
0.1445306
0.141929
0.1392769
0.1366024
0.1339361
0.1313072
0.1287441
0.1262707
0.1239095
0.1216727
0.1195658
0.1175828
0.1157274
0.114008
0.1124249
0.1109696
0.1096313
0.1084004
0.1072683
0.1062278
0.1052722
0.1043969
0.1036001
0.1028825
0.1022461
0.1016939
0.1012297
0.1008569
0.1005791
0.1003991
0.1003187
0.1003402
0.1004647
0.1006924
0.1010222
0.1014513
0.101974
0.1025812
0.103263
0.1040319
0.1048823
0.1057998
0.1067706
0.107781
0.1088168
0.1098638
0.1109078
0.1119343
0.1129281
0.1138768
0.1147701
0.1155983
0.1163532
0.1170276
0.1176153
0.1181109
0.1185098
0.1188078
0.1190015
0.1190886
0.1190666
0.1189358
0.1187
0.1183634
0.1179308
0.117408
0.1168008
0.1161124
0.1153446
0.1145022
0.1135921
0.1126197
0.1115883
0.1105013
0.1093628
0.1081776
0.1069502
0.1056848
0.1043853
0.1030543
0.1016939
0.1003049
0.09888785
0.09744315
0.09597003
0.09446667
0.09293241
0.09136852
0.08977472
0.08815717
0.08652096
0.08486732
0.08319333
0.0814937
0.07976388
0.0780011
0.0762073
0.07439418
0.07257832
0.07077318
0.06898729
0.06722648
0.06549562
0.06379913
0.06214093
0.06052451
0.05895295
0.05742892
0.0559547
0.05453213
0.0531626
0.05184711
0.05058626
0.04938033
0.04822893
0.04713155
0.04608738
0.04509523
0.04415363
0.04326085
0.04241499
0.041614
0.0408557
0.04013781
0.03945798
0.0388138
0.0382029
0.03762349
0.03707334
0.03655021
0.03605197
0.03557664
0.03512237
0.03468745
0.03427035
0.03386971
0.03348431
0.03311315
0.03275536
0.03241028
0.03207737
0.03175628
0.03144679
0.03114885
0.03086253
0.030588
0.03032545
0.03007512
0.02983715
0.02961174
0.02939914
0.02919961
0.02901345
0.02884089
0.02868213
0.02853735
0.02840663
0.02829
0.02818737
0.02809863
0.02802354
0.02796181
0.02791306
0.0278768
0.02785249
0.02783949
0.02783708
0.02784448
0.02786083
0.02788523
0.0279167
0.02795426
0.02799689
0.02804357
0.0280933
0.02814509
0.02819799
0.02825109
0.02830353
0.0283545
0.02840326
0.0284491
0.02849133
0.02852928
0.02856235
0.02858999
0.02861188
0.02862779
0.02863751
0.02864089
0.02863784
0.02862832
0.0286124
0.02859019
0.02856192
0.02852789
0.02848843
0.02844393
0.02839475
0.02834131
0.02828409
0.02822362
0.02816044
0.02809507
0.02802807
0.02795997
0.02789131
0.02782257
0.02775422
0.02768668
0.02762036
0.02755558
0.02749266
0.02743184
0.02737336
0.02731738
0.02726405
0.02721348
0.02716573
0.02712085
0.02707886
0.02703978
0.02700359
0.02697025
0.0269397
0.02691186
0.02688668
0.0268641
0.02684405
0.02682649
0.0268114
0.02679881
0.02678877
0.02678132
0.02677639
0.02677383
0.02677344
0.02677505
0.02677849
0.02678362
0.0267903
0.02679839
0.0268078
0.02681841
0.02683014
0.0268429
0.02685662
0.02687122
0.02688663
0.02690281
0.02691968
0.02693721
0.02695535
0.02697405
0.02699328
0.027013
0.02703319
0.0270538
0.02707482
0.02709622
0.02711799
0.0271401
0.02716254
0.02718527
0.02720829
0.02723157
0.02725512
0.02727888
0.0273028
0.02732688
0.0273512
0.02737581
0.02740076
0.02742602
0.02745156
0.02747733
0.02750334
0.02752954
0.02755593
0.02758247
0.02760915
0.02763593
0.02766279
0.02768971
0.02771668
0.02774367
0.02777067
0.02779766
0.02782464
0.02785159
0.0278785
0.02790538
0.02793223
0.02795904
0.02798584
0.02801262
0.0280394
0.02806618
0.02809297
0.02811977
0.02814662
0.0281735
0.02820042
0.02822737
0.02825434
0.02828132
0.02830835
0.02833539
0.02836239
0.02838927
0.02841596
0.02844239
0.0284685
0.02849421
0.02851951
0.02854445
0.02856902
0.0285932
0.02861698
0.02864032
0.02866318
0.02868552
0.02870729
0.02872853
0.02874923
0.0287694
0.02878899
0.02880789
0.02882605
0.02884341
0.02885994
0.02887559
0.02889033
0.02890413
0.02891696
0.0289288
0.02893963
0.02894945
0.02895824
0.02896602
0.02897277
0.02897851
0.02898324
0.02898698
0.02898975
0.02899156
0.02899243
0.02899237
0.02899142
0.0289896
0.02898693
0.02898344
0.02897917
0.02897414
0.02896841
0.028962
0.02895498
0.02894739
0.02893929
0.02893077
0.02892187
0.0289127
0.02890332
0.02889384
0.02888435
0.02887495
0.02886575
0.02885686
0.02884838
0.02884045
0.02883315
0.02882661
0.02882091
0.02881613
0.02881234
0.02880958
0.02880786
0.02880718
0.0288075
0.02880879
0.02881099
0.02881404
0.02881792
0.02882259
0.02882804
0.02883432
0.02884149
0.02884964
0.02885891
0.02886946
0.0288815
0.02889525
0.02891096
0.02892889
0.02894934
0.0289726
0.02899901
0.02902893
0.02906276
0.02910096
0.029144
0.02919242
0.0292464
0.0293055
0.02936114
0.001856051
0.007086258
0.01095393
0.01550652
0.02058516
0.02650658
0.03346186
0.04125562
0.05010211
0.0607206
0.07648517
0.08665509
0.09765966
0.1091214