/*--------------------------------*- C++ -*----------------------------------*\
| =========                 |                                                 |
| \\      /  F ield         | foam-extend: Open Source CFD                    |
|  \\    /   O peration     | Version:     3.1                                |
|   \\  /    A nd           | Web:         http://www.extend-project.de       |
|    \\/     M anipulation  |                                                 |
\*---------------------------------------------------------------------------*/
FoamFile
{
    version     2.0;
    format      ascii;
    class       volScalarField;
    location    "5.5";
    object      nut;
}
// * * * * * * * * * * * * * * * * * * * * * * * * * * * * * * * * * * * * * //

dimensions      [0 2 -1 0 0 0 0];

internalField   nonuniform List<scalar> 
119952
(
4.648168e-05
2.611428e-05
2.969418e-05
3.737729e-05
4.215994e-05
3.961815e-05
3.752557e-05
3.562148e-05
3.381552e-05
3.20765e-05
3.040613e-05
2.880706e-05
2.728198e-05
2.583083e-05
2.445105e-05
2.315187e-05
2.192663e-05
2.077318e-05
1.968353e-05
1.873797e-05
2.457015e-05
2.282928e-05
2.187874e-05
2.891323e-05
2.742958e-05
2.632218e-05
2.532857e-05
2.462801e-05
2.38169e-05
2.441432e-05
2.017926e-05
1.836827e-05
2.427905e-05
3.218902e-05
4.005158e-05
4.76822e-05
5.544913e-05
6.349033e-05
7.193579e-05
8.549231e-05
0.0002117605
0.0003207752
0.0003995987
0.0004549506
0.0005003667
0.0005427836
0.0005848228
0.0006274342
0.0006707514
0.001065491
0.001207441
0.001339208
0.00145215
0.00154802
0.00163191
0.001708029
0.001779186
0.001847443
0.001916469
0.002006503
0.00211836
0.002233908
0.002341225
0.002437133
0.002522975
0.00260136
0.002675525
0.002751546
0.002745189
0.002770054
0.002831262
0.002904325
0.002969914
0.003018653
0.003053106
0.00307571
0.00308787
0.003090849
0.003085715
0.003073349
0.003054473
0.003029621
0.002999013
0.002962865
0.002921866
0.002876875
0.002829051
0.002780407
0.002734457
0.002686828
0.002639181
0.002600089
0.002557859
0.002500606
0.002433033
0.002343318
0.002176457
0.001933834
0.001822202
0.001746032
0.001683956
0.001627824
0.001575373
0.001525954
0.001479636
0.0014362
0.001395572
0.001357728
0.001322544
0.001289853
0.001259449
0.001231189
0.00120494
0.001180559
0.001157895
0.001136794
0.001117107
0.00109869
0.001081404
0.001065119
0.001049707
0.001035072
0.001021111
0.001007724
0.000994821
0.0009823217
0.0009701526
0.0009582507
0.0009465624
0.0009350432
0.000923656
0.0009123717
0.0009011704
0.0008900389
0.0008789709
0.0008679659
0.0008570274
0.0008461636
0.0008353862
0.0008247108
0.000814157
0.000803747
0.000793506
0.0007834657
0.0007736808
0.0007643582
0.0007563185
0.0007482586
0.0007397419
0.0007314203
0.0007233665
0.000715581
0.000708067
0.0007008031
0.0006938005
0.0006870518
0.0006805417
0.0006742511
0.00066816
0.0006622457
0.0006564801
0.0006508324
0.0006452689
0.0006397549
0.0006342553
0.0006287346
0.0006231596
0.0006174993
0.0006117223
0.0006058117
0.0005997488
0.0005935173
0.0005870879
0.0005804644
0.0005736365
0.000566601
0.0005593615
0.0005519286
0.0005443179
0.000536548
0.0005286399
0.000520617
0.0005125038
0.0005043258
0.0004961078
0.0004878774
0.0004796636
0.0004715125
0.000463442
0.0004554621
0.0004475883
0.0004398292
0.0004321933
0.000424701
0.0004173651
0.0004102682
0.0004045196
0.0003068534
0.0003046707
0.0002980762
0.0002928728
0.0002885961
0.0002848288
0.0002813719
0.0002768295
0.0002702747
0.0002643886
0.0002590341
0.0002541002
0.0002495031
0.0002451836
0.0002410965
0.0002372092
0.0002334942
0.0002299291
0.0002264969
0.0002231848
0.0002199803
0.0002168728
0.0002138543
0.0002109194
0.0002080607
0.0002052796
0.0002025757
0.0001999353
0.0001966451
0.0001933329
0.0001900146
0.0001867159
0.0001834873
0.0001805312
0.0001782021
0.0001822456
0.0001749137
0.0001768505
0.0001787224
0.000181242
0.0001839764
0.0001868494
0.0001898551
0.00019296
0.0001961422
0.0001993793
0.0002026937
0.0002060462
0.0002094381
0.0002128648
0.0002163234
0.0002198124
0.000223331
0.0002268786
0.0002304556
0.0002340631
0.0002377033
0.0002413771
0.0002450857
0.0002488306
0.0002526106
0.0002564178
0.0002602924
0.000264197
0.0002681479
0.0002721504
0.0002761995
0.0002802386
0.0002841528
0.0002890506
0.0003781903
0.0003595574
0.0003832071
0.0003963172
0.0004019766
0.0004073059
0.0004125513
0.0004177427
0.0004228909
0.0004280028
0.0004330808
0.0004381314
0.0004431704
0.0004481972
0.0004532201
0.0004582418
0.0004632694
0.0004683098
0.0004733628
0.0004784247
0.0004834933
0.0004885664
0.0004936404
0.000498713
0.0005037841
0.0005088538
0.0005139191
0.0005189791
0.0005240366
0.00052909
0.0005341383
0.0005391811
0.0005442182
0.0005492495
0.0005542753
0.0005592958
0.0005643117
0.0005693236
0.0005743332
0.000579342
0.0005843508
0.0005893571
0.0005943572
0.000599356
0.0006043279
0.0006091853
0.0006136468
0.0006179398
0.0006221913
0.000626398
0.0006305527
0.0006346593
0.0006387091
0.0006431624
0.0006476393
0.0006503003
0.0006531437
0.0006560767
0.0006591268
0.0006623211
0.0006656588
0.0006691184
0.0006726958
0.0006763543
0.0006800869
0.0006838827
0.0006877086
0.0006915431
0.0006953662
0.0006991591
0.000702906
0.000706596
0.0007102223
0.000713782
0.000717275
0.0007207041
0.0007240734
0.000727388
0.0007306528
0.0007338717
0.0007370468
0.0007401787
0.0007432669
0.0007463103
0.0007493077
0.0007522579
0.0007551597
0.0007580127
0.0007608168
0.0007635741
0.0007662881
0.0007689639
0.0007716069
0.0007742225
0.0007768156
0.0007793915
0.0007819552
0.0007845121
0.0007870675
0.0007896261
0.0007921926
0.0007947712
0.0007973657
0.0007999796
0.0008026154
0.0008052748
0.0008079584
0.0008106653
0.000813393
0.0008161367
0.0008188908
0.0008216488
0.0008244015
0.0008271369
0.0008298447
0.0008325181
0.000835154
0.000837753
0.0008403205
0.0008428666
0.0008454061
0.0008479564
0.0008505374
0.0008531755
0.0008559052
0.0008587577
0.0008617526
0.0008649
0.0008682093
0.0008716924
0.0008753712
0.0008792834
0.0008834904
0.0008881286
0.0008934568
0.0009000379
0.0009090423
0.0009236709
0.0007619673
2.168646e-05
2.304874e-05
2.60168e-05
3.002215e-05
3.466885e-05
3.963021e-05
4.469199e-05
4.974361e-05
5.528791e-05
0.000165147
0.0002243591
0.0002845099
0.0003400363
0.0003889942
0.0004319037
0.0004701626
0.000505167
0.0005379998
0.0007670213
0.0008180132
0.0008708912
0.0009247164
0.0009786504
0.001031665
0.001083005
0.001132409
0.001179992
0.001226846
0.001271554
0.001320865
0.001378334
0.001441196
0.001505945
0.001570375
0.001633608
0.001695444
0.001756469
0.001802496
0.001850851
0.001920208
0.002001834
0.002089154
0.002178021
0.002266388
0.002353523
0.002439559
0.002525139
0.00261301
0.002710345
0.002817992
0.002931607
0.003046022
0.003157916
0.003265998
0.00337023
0.003469329
0.004125913
0.004244653
0.00436341
0.004482297
0.004599561
0.004713457
0.004822864
0.004927302
0.005026807
0.005121765
0.005214132
0.005305899
0.005397334
0.005487377
0.005574562
0.005657719
0.005736322
0.005810648
0.0058797
0.005935595
0.005979688
0.006019728
0.006056554
0.006088007
0.006112392
0.006129573
0.006139646
0.00614269
0.006138799
0.006128055
0.006110535
0.00608631
0.006055438
0.006017962
0.005973962
0.005923586
0.005867103
0.005805006
0.005738353
0.005667891
0.005593041
0.00551539
0.00543641
0.005352416
0.005260783
0.00516158
0.005052075
0.004919726
0.004779986
0.004645369
0.004516075
0.004391771
0.004272427
0.004157936
0.004048224
0.003943265
0.003843036
0.0037473
0.003655851
0.003569339
0.003488126
0.00341256
0.003342765
0.003278298
0.003218817
0.003164003
0.003113549
0.00306716
0.003024548
0.002985426
0.002949511
0.002916513
0.002886219
0.002858349
0.00283265
0.002808883
0.002786824
0.002766263
0.002747002
0.002728861
0.002711673
0.002695288
0.002679577
0.002664438
0.002649791
0.002635579
0.002621735
0.002608176
0.002594867
0.002581805
0.002569008
0.002556512
0.002544367
0.002532646
0.00252145
0.002510927
0.002501284
0.002492712
0.002484939
0.002477423
0.002470352
0.00246397
0.002458337
0.002453478
0.00244944
0.002446253
0.002443925
0.002442438
0.002441766
0.002441867
0.002442684
0.002444141
0.00244615
0.002448605
0.002451391
0.002454379
0.002457431
0.002460403
0.002463143
0.002465502
0.002467336
0.002468491
0.002468822
0.002468188
0.002466473
0.002463568
0.002459377
0.002453822
0.002446843
0.002438402
0.002428478
0.002417072
0.002404201
0.002389899
0.002374213
0.002357224
0.00233904
0.00231984
0.002299873
0.002279204
0.002257881
0.002236016
0.002213686
0.002191071
0.002168291
0.002145709
0.002123619
0.002106004
0.00199341
0.00186328
0.001772031
0.001705086
0.001653926
0.001613394
0.00158025
0.001552383
0.001528379
0.001507282
0.00148842
0.001471313
0.001455613
0.001441067
0.001427486
0.001414724
0.001402672
0.00139124
0.001380358
0.001369968
0.00136002
0.001350474
0.001341294
0.001332453
0.001323926
0.001315695
0.00130775
0.001300084
0.001292698
0.001285621
0.001278896
0.001272605
0.00126692
0.001262218
0.001259306
0.001259599
0.001261886
0.00126568
0.001270279
0.001275449
0.001281055
0.001286998
0.001293211
0.001299645
0.001306264
0.001313043
0.00131996
0.001326997
0.001334139
0.001341374
0.001348692
0.001356083
0.001363539
0.001371051
0.001378612
0.001386215
0.001393856
0.001401528
0.001409227
0.001416948
0.001424686
0.001432436
0.001440193
0.001447954
0.001455714
0.00146347
0.001471218
0.00147895
0.001486636
0.001494046
0.001820907
0.001834661
0.001848024
0.001860732
0.00187279
0.001884277
0.001895221
0.001905697
0.001915783
0.001925559
0.00193509
0.001944429
0.001953617
0.001962689
0.001971675
0.0019806
0.001989487
0.001998351
0.002007205
0.002016059
0.002024919
0.002033788
0.002042667
0.002051558
0.002060465
0.002069394
0.002078347
0.002087327
0.002096337
0.002105376
0.002114446
0.002123547
0.002132678
0.002141839
0.002151029
0.002160246
0.002169489
0.002178755
0.002188043
0.002197346
0.002206654
0.002215956
0.002225229
0.002234441
0.002243544
0.00225244
0.002261055
0.002269479
0.002277811
0.002286081
0.002294284
0.002302433
0.002310689
0.002319101
0.002327119
0.00233447
0.002341649
0.002348812
0.002355948
0.002363067
0.002370169
0.002377242
0.00238427
0.002391236
0.002398125
0.002404923
0.002411618
0.002418202
0.002424668
0.002431008
0.002437213
0.002443276
0.002449193
0.00245496
0.002460573
0.002466031
0.002471334
0.002476483
0.002481479
0.002486322
0.002491013
0.002495551
0.002499934
0.002504161
0.00250823
0.002512138
0.002515884
0.002519466
0.002522885
0.002526144
0.002529248
0.002532203
0.002535016
0.002537699
0.00254026
0.002542711
0.002545064
0.002547331
0.002549525
0.002551656
0.002553737
0.002555778
0.002557789
0.002559778
0.002561751
0.002563714
0.002565668
0.002567616
0.002569554
0.002571479
0.002573383
0.002575257
0.002577088
0.002578865
0.002580574
0.002582205
0.002583748
0.002585197
0.002586549
0.002587806
0.002588975
0.002590068
0.002591101
0.002592102
0.002593096
0.002594125
0.002595208
0.002596401
0.002597725
0.002599269
0.00260107
0.00260329
0.002606022
0.002609557
0.002614053
0.002620121
0.002628752
0.00264143
0.002653622
7.129299e-05
8.957496e-05
0.0001089566
0.0001289842
0.00014948
0.000170362
0.0001914046
0.0002124411
0.0002335332
0.0002631376
0.0006228659
0.0008424885
0.0009437606
0.001008375
0.001060841
0.001107738
0.001151132
0.001191739
0.001229799
0.001743387
0.001837887
0.001922156
0.001994488
0.002054412
0.002102731
0.002141114
0.00217141
0.002195044
0.002214214
0.002228343
0.002242566
0.002258963
0.002276659
0.002294124
0.002310052
0.002323539
0.002334493
0.002345031
0.002328349
0.002318232
0.002315258
0.002316812
0.002320699
0.002325604
0.002330634
0.002333941
0.002335572
0.002335037
0.002333266
0.002332657
0.002333802
0.002337586
0.002344473
0.002354678
0.002368301
0.002385381
0.002767771
0.00279657
0.002827484
0.002859727
0.002893629
0.002929724
0.002968306
0.003009435
0.003053147
0.00309942
0.003147818
0.00319892
0.003253548
0.003312263
0.003375051
0.00344132
0.003510945
0.003583701
0.003659317
0.00373677
0.00381601
0.003898379
0.003985441
0.004078516
0.004177048
0.004280453
0.004388084
0.004499243
0.004613174
0.004729356
0.004848164
0.004970105
0.005095144
0.005222596
0.005351354
0.005480227
0.005608448
0.00573593
0.005841512
0.00595058
0.006061225
0.006172231
0.006282488
0.00639084
0.006496252
0.006597915
0.006695274
0.006787942
0.006875921
0.006959592
0.007039279
0.007115046
0.007186755
0.007254233
0.007317441
0.007376539
0.007431324
0.007479435
0.007519561
0.007553741
0.007582967
0.007606717
0.007624276
0.007635579
0.007640849
0.007640293
0.007634054
0.007622214
0.007604803
0.007581797
0.007553127
0.007518689
0.00747837
0.00743207
0.007379741
0.007321488
0.007257704
0.007188881
0.007115071
0.007036847
0.006955159
0.006869065
0.006776861
0.006677731
0.006570796
0.006453859
0.006328318
0.006199699
0.006071106
0.005943545
0.005817502
0.005693425
0.005571807
0.005453137
0.005337865
0.005226384
0.00511905
0.005016196
0.004918029
0.004824432
0.00473534
0.004651397
0.004573164
0.004500525
0.004433278
0.004371202
0.004314051
0.004261557
0.004213443
0.004169421
0.00412921
0.004092521
0.004059067
0.004028568
0.004000753
0.003975368
0.003952176
0.003930961
0.003911501
0.003893469
0.003876621
0.003860769
0.003845757
0.003831456
0.0038178
0.003804808
0.003792473
0.00378079
0.003769762
0.003759407
0.003749758
0.003740864
0.00373279
0.003725617
0.003719451
0.003714405
0.003710555
0.003707885
0.003706378
0.003706074
0.003707037
0.003709327
0.003712985
0.003718033
0.003724478
0.003732307
0.003741492
0.003751982
0.00376371
0.003776586
0.003790503
0.003805334
0.003820934
0.003837141
0.00385378
0.003870664
0.003887593
0.003904364
0.003920769
0.003936597
0.003951641
0.003965699
0.003978576
0.00399009
0.004000077
0.004008388
0.004014894
0.004019485
0.004022076
0.0040226
0.004021015
0.004017295
0.004011435
0.004003432
0.00399328
0.003980885
0.003966079
0.003949007
0.003929889
0.003908928
0.003886364
0.003862414
0.003837367
0.003811462
0.00378504
0.003758213
0.003719488
0.003687878
0.003660855
0.003636681
0.003614208
0.003592748
0.003571923
0.003551547
0.003531556
0.003511946
0.00349274
0.003473978
0.003455703
0.003437959
0.003420779
0.003404192
0.003388215
0.003372859
0.003358126
0.003344011
0.003330507
0.0033176
0.003305274
0.003293516
0.003282313
0.003271654
0.003261538
0.003251975
0.003243002
0.003234675
0.003227082
0.003220388
0.003215302
0.003212342
0.003210644
0.003210263
0.00321134
0.003213635
0.003216811
0.003220699
0.003225178
0.003230146
0.003235528
0.003241266
0.003247317
0.003253646
0.003260227
0.003267038
0.00327406
0.003281277
0.003288675
0.00329624
0.00330396
0.003311824
0.003319822
0.003327943
0.003336176
0.003344514
0.003352947
0.003361464
0.003370057
0.003378715
0.00338743
0.003396192
0.003404989
0.003413816
0.003422655
0.003431503
0.003440364
0.003450719
0.003449206
0.00344893
0.003449401
0.003450729
0.003453035
0.00345622
0.003460117
0.003464599
0.003469576
0.003474982
0.003480767
0.003486888
0.003493307
0.003499991
0.003506915
0.003514057
0.003521402
0.00352894
0.003536659
0.003544549
0.003552596
0.003560793
0.003569127
0.003577592
0.003586184
0.003594898
0.003603731
0.003612679
0.003621742
0.003630914
0.003640192
0.003649571
0.003659048
0.003668619
0.003678277
0.003688018
0.003697836
0.003707725
0.003717675
0.003727677
0.003737715
0.003747769
0.003757812
0.003767809
0.003777715
0.003787478
0.003797065
0.0038065
0.003815828
0.003825082
0.003834266
0.003843365
0.003852341
0.003861114
0.00386972
0.003878252
0.003886723
0.003895062
0.003903198
0.003911126
0.003918869
0.003926443
0.003933848
0.00394107
0.003948095
0.00395491
0.003961502
0.003967861
0.003973979
0.00397985
0.003985469
0.003990835
0.003995946
0.004000803
0.004005406
0.004009758
0.004013862
0.004017721
0.004021338
0.004024717
0.00402786
0.00403077
0.004033446
0.004035891
0.004038105
0.004040088
0.004041841
0.004043366
0.004044665
0.004045745
0.004046612
0.004047274
0.004047744
0.004048033
0.004048154
0.004048123
0.004047955
0.004047667
0.004047274
0.004046795
0.004046245
0.00404564
0.004044995
0.004044323
0.004043637
0.004042946
0.00404226
0.004041582
0.004040915
0.004040256
0.0040396
0.004038934
0.004038242
0.004037504
0.004036693
0.004035781
0.004034739
0.004033537
0.004032147
0.004030547
0.004028723
0.00402667
0.004024394
0.004021919
0.004019278
0.00401652
0.004013697
0.004010884
0.004008149
0.004005604
0.004003336
0.004001519
0.004000258
0.003999843
0.004000398
0.004002458
0.004006115
0.004011847
0.004017562
4.274231e-05
7.673677e-05
0.0001578332
0.0005951644
0.00104168
0.002022932
0.00259322
0.003207635
0.003735992
0.004007192
0.004160333
0.004298774
0.004435662
0.00446409
0.004487605
0.004506728
0.004519924
0.004526782
0.004529188
0.004528329
0.004525164
0.004522456
0.004528686
0.004543401
0.004558882
0.004570815
0.004578145
0.004581128
0.004579868
0.004574446
0.004563587
0.004843514
0.004841304
0.004835589
0.004828449
0.004820629
0.004812247
0.004802814
0.004792281
0.004780484
0.004767209
0.004752447
0.00473613
0.004718239
0.004699738
0.004682126
0.004664889
0.004646845
0.00462666
0.004604178
0.004578587
0.004550558
0.004520061
0.004487238
0.004452434
0.004416034
0.004378444
0.004340015
0.004301186
0.004262113
0.004223316
0.004185659
0.004149951
0.004117017
0.004087453
0.004062023
0.004040618
0.004024717
0.004002979
0.003989203
0.003983282
0.003984859
0.003993352
0.004008143
0.004028749
0.004054865
0.004086218
0.004122597
0.004163716
0.004209633
0.004260589
0.004316731
0.004378102
0.004444629
0.0045162
0.004592611
0.004673609
0.004758704
0.004847681
0.004940435
0.005036474
0.005135137
0.005237189
0.005343392
0.005454579
0.005570144
0.005689471
0.005811895
0.00593696
0.006064347
0.006193687
0.00632445
0.006455938
0.00658733
0.006717853
0.006846216
0.006969625
0.007089061
0.007204775
0.007316825
0.007425159
0.007529562
0.00762972
0.007725293
0.007815971
0.007901458
0.007981546
0.0080562
0.008125484
0.008189529
0.008248491
0.00830255
0.008351948
0.008396979
0.008437794
0.008473727
0.008504073
0.008529428
0.008550413
0.00856695
0.008578716
0.008585663
0.008587964
0.008585824
0.008579402
0.008568803
0.008554061
0.008535139
0.008511927
0.008484262
0.008451942
0.008414742
0.008372432
0.008324842
0.008271954
0.008213858
0.008150566
0.008082283
0.008009448
0.007931777
0.007848248
0.007758057
0.007660701
0.007555543
0.007442963
0.007325505
0.007205615
0.00708457
0.006963038
0.006841596
0.006720855
0.006601431
0.006483911
0.00636885
0.006256758
0.0061481
0.006043264
0.005942555
0.005846225
0.005754448
0.005667196
0.005585039
0.005508213
0.00543666
0.005370275
0.005308905
0.005252362
0.005200431
0.005152876
0.005109445
0.005069873
0.005033891
0.005001232
0.004971637
0.00494486
0.004920527
0.004898277
0.004877954
0.004859399
0.004842451
0.004826963
0.00481281
0.004799895
0.004788143
0.004777498
0.004767924
0.004759404
0.004751942
0.004745559
0.004740296
0.004736208
0.004733369
0.004731865
0.004731795
0.004733252
0.004736297
0.004740972
0.004747337
0.004755466
0.004765431
0.004777288
0.004791076
0.004806817
0.004824516
0.004844159
0.004865709
0.004889106
0.004914267
0.004941085
0.004969429
0.004999145
0.005030058
0.00506197
0.005094669
0.005127922
0.005161486
0.005195108
0.005228525
0.005261475
0.005293693
0.00532492
0.005354908
0.005383418
0.005410229
0.005435136
0.005457956
0.005478526
0.005496705
0.005512379
0.00552545
0.005535847
0.005543509
0.005548391
0.00555045
0.005549673
0.00554609
0.005539777
0.005530836
0.005519408
0.005505646
0.005489747
0.005471899
0.005452329
0.005431175
0.005407729
0.005382653
0.005356205
0.005329017
0.005301517
0.005273993
0.005246664
0.005219794
0.005193606
0.005168116
0.005143351
0.005119345
0.005096131
0.00507374
0.005052198
0.005031524
0.00501173
0.004992821
0.004974796
0.004957646
0.004941359
0.00492592
0.004911311
0.004897515
0.004884518
0.004872308
0.004860889
0.004850299
0.00484072
0.00483236
0.004825258
0.004819464
0.004814511
0.004810391
0.004807265
0.004805276
0.004804485
0.004804796
0.004806028
0.004808027
0.004810685
0.004813916
0.004817655
0.004821855
0.004826444
0.004831397
0.004836688
0.00484229
0.004848182
0.004854341
0.004860749
0.004867389
0.004874244
0.004881301
0.004888557
0.004895973
0.004903546
0.00491127
0.004919134
0.004927124
0.004935229
0.004943436
0.004951735
0.004960123
0.004968566
0.004977059
0.004985608
0.004994165
0.005002753
0.00501141
0.005019257
0.005026402
0.005033113
0.005039581
0.005045896
0.005052108
0.00505825
0.005064356
0.005070458
0.005076588
0.005082774
0.005089038
0.005095394
0.005101852
0.005108421
0.005115106
0.005121914
0.00512885
0.005135919
0.00514312
0.005150453
0.005157919
0.005165514
0.005173238
0.005181091
0.005189073
0.005197186
0.005205429
0.005213803
0.005222307
0.005230939
0.005239697
0.005248578
0.005257579
0.005266695
0.005275921
0.00528525
0.005294676
0.005304188
0.005313773
0.005323414
0.005333089
0.005342773
0.005352431
0.005362031
0.005371537
0.005380926
0.005390195
0.00539936
0.005408436
0.005417421
0.0054263
0.005435065
0.005443708
0.005452182
0.005460422
0.005468446
0.005476266
0.005483872
0.005491254
0.005498406
0.005505317
0.005511974
0.005518357
0.005524448
0.005530229
0.005535686
0.005540805
0.005545578
0.005549998
0.005554062
0.005557767
0.005561113
0.005564101
0.005566734
0.005569017
0.005570952
0.005572546
0.005573804
0.00557473
0.005575329
0.005575605
0.005575563
0.005575206
0.005574538
0.005573562
0.005572282
0.005570704
0.005568835
0.005566684
0.00556426
0.005561578
0.005558652
0.005555499
0.005552136
0.005548583
0.005544862
0.005540994
0.005537002
0.00553291
0.005528739
0.005524514
0.005520257
0.005515989
0.005511729
0.005507497
0.005503306
0.005499167
0.005495084
0.005491057
0.005487073
0.005483116
0.005479157
0.00547516
0.00547108
0.005466868
0.005462475
0.00545785
0.005452952
0.005447746
0.005442214
0.005436355
0.005430182
0.00542373
0.005417051
0.005410213
0.005403294
0.005396386
0.005389588
0.005383015
0.005376785
0.005371047
0.005365937
0.005361658
0.005358356
0.005356286
0.005355465
0.005356006
0.00535691
2.327394e-05
3.929232e-05
6.219939e-05
0.0002765354
0.0004679465
0.000867945
0.001253357
0.001606055
0.002038198
0.002433568
0.002829468
0.003291625
0.003780451
0.004247392
0.004662843
0.005070903
0.005736236
0.005814188
0.005600681
0.005426166
0.005216781
0.004932155
0.004677594
0.004491611
0.004344379
0.004229716
0.004144846
0.004086276
0.004051023
0.004037052
0.004042546
0.00406417
0.004097755
0.004146382
0.004210082
0.004285701
0.004369012
0.004461141
0.004555054
0.004657564
0.004749178
0.004875027
0.00503189
0.005118731
0.005207252
0.005308701
0.005406741
0.005494592
0.005504691
0.005512378
0.005517784
0.005520997
0.005521981
0.00552061
0.005517908
0.005513267
0.005505318
0.0054944
0.005480758
0.005464512
0.005445672
0.005424032
0.00539973
0.005373036
0.005344048
0.005312819
0.00527947
0.005244206
0.00520728
0.00516905
0.00512983
0.005090098
0.005050531
0.005011845
0.004974788
0.004940086
0.004908489
0.004880589
0.004856901
0.004836867
0.004820719
0.004809349
0.004803613
0.004803781
0.004809793
0.004821542
0.004839007
0.00486212
0.004890827
0.004925055
0.004964809
0.005010166
0.005061221
0.005118039
0.005180633
0.005248954
0.005322871
0.005402192
0.005486624
0.005575891
0.005669735
0.005767817
0.005869802
0.005975456
0.006084364
0.00619584
0.006310587
0.006429168
0.006550996
0.006675499
0.00680214
0.006930364
0.007059561
0.007189059
0.007318129
0.007446045
0.007571912
0.007694717
0.007813837
0.007928782
0.008039181
0.008144773
0.008245343
0.008340688
0.008430616
0.008514951
0.008593526
0.008666196
0.008732873
0.008793502
0.008848222
0.008897316
0.008941083
0.008979857
0.009013993
0.009043788
0.009069252
0.009090306
0.009107294
0.009120651
0.009130549
0.009137008
0.009140123
0.009140081
0.009137089
0.009131315
0.00912288
0.009111836
0.009098159
0.009081753
0.009062449
0.009040025
0.009014204
0.008984657
0.00895104
0.008912998
0.008870099
0.008821883
0.008768351
0.008709582
0.008645371
0.008575144
0.008498337
0.008414595
0.008323704
0.008225975
0.008122775
0.008015746
0.007906055
0.00779446
0.007681594
0.007568082
0.007454549
0.007341604
0.007229839
0.007119818
0.007012073
0.006907093
0.006805319
0.006707134
0.006612859
0.006522749
0.006436956
0.006355867
0.006279614
0.006208246
0.006141746
0.00608004
0.006023012
0.00597051
0.005922349
0.005878319
0.005838187
0.005801709
0.005768635
0.005738708
0.005711683
0.005687343
0.005665481
0.005645894
0.005628399
0.005612828
0.005599037
0.005586904
0.005576329
0.005567237
0.005559575
0.005553314
0.005548449
0.005544994
0.005542986
0.00554248
0.005543548
0.005546276
0.005550762
0.005557108
0.005565404
0.005575729
0.005588166
0.005602804
0.005619731
0.005639026
0.00566075
0.005684947
0.005711647
0.005740858
0.005772565
0.005806727
0.005843278
0.005882125
0.005923149
0.005966204
0.006011117
0.00605769
0.006105701
0.006154905
0.006205038
0.00625582
0.006306958
0.006358147
0.006409078
0.006459443
0.006508934
0.006557253
0.006604113
0.00664924
0.00669238
0.006733295
0.006771771
0.006807612
0.006840647
0.006870723
0.006897708
0.006921496
0.006942004
0.006959189
0.006973035
0.00698356
0.006990805
0.006994843
0.006995773
0.006993723
0.006988841
0.006981298
0.006971262
0.00695883
0.006944152
0.006927419
0.006908895
0.00688887
0.006867634
0.00684545
0.006822476
0.006798824
0.006774806
0.006750693
0.006726708
0.006703035
0.006679825
0.0066572
0.006635261
0.006614086
0.006593733
0.006574248
0.006555663
0.006538008
0.006521269
0.00650546
0.006490591
0.006476676
0.006463691
0.006451652
0.006440556
0.006430282
0.006420691
0.006411908
0.006404034
0.006397118
0.006391208
0.006386356
0.006382607
0.00637997
0.006378386
0.006377743
0.006377919
0.006378814
0.006380348
0.006382452
0.006385073
0.006388157
0.006391663
0.006395558
0.00639981
0.006404394
0.006409286
0.006414462
0.006419905
0.006425593
0.006431512
0.006437643
0.006443973
0.006450488
0.006457174
0.006464017
0.006471006
0.006478125
0.006485362
0.006492706
0.006500146
0.006507666
0.006515254
0.0065229
0.00653059
0.006538316
0.006546061
0.006553744
0.006561329
0.006568822
0.006576216
0.00658352
0.00659076
0.006597946
0.006605076
0.006612154
0.006619188
0.006626193
0.006633181
0.006640165
0.006647155
0.006654161
0.006661194
0.006668263
0.006675376
0.006682542
0.006689768
0.006697057
0.006704414
0.006711843
0.006719348
0.006726932
0.0067346
0.006742358
0.006750208
0.006758155
0.006766202
0.006774352
0.006782604
0.00679096
0.00679942
0.006807982
0.006816643
0.0068254
0.006834246
0.006843171
0.006852165
0.006861212
0.006870294
0.006879388
0.006888465
0.006897497
0.006906455
0.00691532
0.006924097
0.006932769
0.006941322
0.006949744
0.006958016
0.006966122
0.00697404
0.006981744
0.006989218
0.006996467
0.007003476
0.007010214
0.007016661
0.007022799
0.007028613
0.007034085
0.007039198
0.007043934
0.007048276
0.00705221
0.007055723
0.007058806
0.007061452
0.007063657
0.007065418
0.007066737
0.007067614
0.007068053
0.007068058
0.007067635
0.007066788
0.007065525
0.007063851
0.007061771
0.007059292
0.00705642
0.007053159
0.007049517
0.007045498
0.00704111
0.007036361
0.007031262
0.007025824
0.007020061
0.007013989
0.007007627
0.007000995
0.006994116
0.006987014
0.006979716
0.006972249
0.006964641
0.006956923
0.006949124
0.006941276
0.006933408
0.006925551
0.006917731
0.006909973
0.006902297
0.006894717
0.006887237
0.006879853
0.006872549
0.006865297
0.006858055
0.006850774
0.006843398
0.006835864
0.006828116
0.006820099
0.00681177
0.006803104
0.006794089
0.006784735
0.006775069
0.006765139
0.006755007
0.006744751
0.006734456
0.00672422
0.006714145
0.006704343
0.006694929
0.00668603
0.006677773
0.006670301
0.006663733
0.006658205
0.006653718
0.006650236
0.006647149
1.979659e-05
3.165511e-05
6.202198e-05
0.000194671
0.0003227096
0.0005355395
0.0007017479
0.0008957316
0.001127427
0.00135512
0.001617232
0.001955524
0.002331003
0.002753825
0.003259924
0.004206022
0.004598376
0.004972561
0.005312332
0.005609411
0.005864091
0.006073138
0.006221906
0.006280824
0.00592163
0.00556108
0.005458831
0.005172241
0.004915966
0.004698183
0.004483185
0.004262767
0.004070149
0.003924084
0.003810576
0.003719464
0.003651289
0.003604484
0.003577371
0.003568722
0.003576912
0.003599793
0.003636164
0.003684593
0.003745091
0.003816101
0.003896181
0.003982277
0.004074521
0.00417298
0.004274207
0.004384577
0.004512985
0.004630896
0.004742257
0.004858957
0.004976608
0.005089178
0.005195494
0.005296116
0.005391465
0.0054795
0.005559573
0.005628657
0.005688162
0.005738359
0.005779495
0.00581199
0.005837333
0.005856985
0.005854629
0.005848756
0.005839444
0.005826901
0.005811305
0.005792796
0.005771537
0.005747741
0.005721674
0.005693676
0.005664078
0.005633257
0.005601707
0.005570012
0.005538813
0.005508796
0.005480657
0.005455079
0.005432615
0.005413506
0.005398036
0.00538671
0.005380105
0.005378572
0.005382244
0.005391165
0.005405404
0.005424981
0.005449909
0.005480199
0.005515874
0.005557001
0.005603665
0.005655941
0.005713874
0.005777469
0.005846673
0.005921377
0.006001409
0.006086551
0.006176559
0.006271163
0.006370066
0.006472962
0.0065795
0.006689269
0.006801819
0.006916605
0.007034136
0.007154183
0.007276172
0.00739951
0.007523589
0.007647775
0.007771401
0.00789378
0.008014156
0.008131706
0.008245742
0.008355734
0.008461216
0.008561807
0.008657196
0.008747128
0.008831391
0.00890982
0.008982278
0.009048647
0.009108832
0.009151972
0.009166331
0.009172384
0.009169826
0.009158078
0.009137352
0.009107979
0.009075861
0.009048627
0.009021544
0.008989281
0.008956101
0.008928634
0.008908033
0.008892229
0.008880238
0.008872391
0.008869367
0.008871904
0.008880833
0.008897532
0.008924006
0.008961049
0.009006387
0.009057582
0.009117078
0.009185723
0.00924847
0.009234335
0.00919713
0.009154201
0.009105237
0.009049995
0.008988202
0.008919679
0.00884439
0.008762612
0.008675151
0.008583079
0.008487332
0.008388632
0.008287598
0.00818483
0.008080927
0.007976483
0.007872085
0.007768305
0.007665697
0.007564792
0.007466086
0.007370039
0.007277068
0.007187545
0.007101795
0.007020036
0.006942491
0.006869324
0.00680063
0.006736443
0.006676745
0.006621472
0.006570515
0.006523733
0.006480949
0.006441961
0.00640655
0.006374489
0.006345688
0.006319945
0.006297038
0.006276758
0.00625891
0.006243316