/*--------------------------------*- C++ -*----------------------------------*\
| =========                 |                                                 |
| \\      /  F ield         | foam-extend: Open Source CFD                    |
|  \\    /   O peration     | Version:     3.1                                |
|   \\  /    A nd           | Web:         http://www.extend-project.de       |
|    \\/     M anipulation  |                                                 |
\*---------------------------------------------------------------------------*/
FoamFile
{
    version     2.0;
    format      ascii;
    class       volScalarField;
    location    "5.5";
    object      omega;
}
// * * * * * * * * * * * * * * * * * * * * * * * * * * * * * * * * * * * * * //

dimensions      [0 0 -1 0 0 0 0];

internalField   nonuniform List<scalar> 
119952
(
146.383
173.4218
176.236
166.6435
156.2497
159.116
162.8624
166.7742
170.7245
174.6813
178.6666
182.7034
186.821
191.0418
195.3696
199.8458
204.5325
209.5054
214.9234
221.7286
190.7764
189.991
191.402
163.4927
160.3513
157.9162
155.5822
153.2262
149.4032
170.1331
219.7534
165.7718
151.1934
143.1131
134.4874
125.9034
118.113
111.3227
105.4519
99.05807
67.90397
55.81607
51.71904
49.97798
48.70258
47.47081
46.24629
45.04897
43.88152
33.77628
31.07893
29.22672
28.0682
27.30827
26.74634
26.28002
25.86032
25.46156
25.04724
24.31781
23.43169
22.63102
21.98994
21.48274
21.06298
20.69185
20.33702
19.98851
20.24408
20.05953
19.63551
19.20993
18.85745
18.56792
18.32081
18.11336
17.93772
17.78697
17.65552
17.53901
17.43426
17.33934
17.25405
17.17773
17.10813
17.04176
16.97168
16.88419
16.78595
16.69783
16.56257
16.41422
16.35737
16.33365
16.34636
16.51574
17.27379
18.50496
18.78194
18.84648
18.8348
18.80074
18.76068
18.71985
18.67807
18.63669
18.59601
18.55565
18.51495
18.4746
18.43486
18.39562
18.35685
18.3186
18.28106
18.24451
18.20926
18.17569
18.14422
18.11524
18.08922
18.06633
18.04696
18.03153
18.02033
18.01367
18.01181
18.01499
18.02339
18.03716
18.05646
18.08139
18.11202
18.1484
18.19056
18.23852
18.29229
18.35187
18.41727
18.48842
18.56507
18.64687
18.7334
18.82403
18.91723
19.0064
19.072
19.16291
19.31388
19.47663
19.6443
19.81185
19.9772
20.14004
20.29982
20.45672
20.61126
20.76416
20.91621
21.06825
21.2212
21.37603
21.53373
21.69529
21.86174
22.03408
22.21328
22.40029
22.59613
22.80107
23.01575
23.24069
23.47871
23.72917
23.99235
24.26879
24.55904
24.8635
25.18246
25.51612
25.86457
26.22786
26.60595
26.99876
27.40617
27.82794
28.2639
28.71233
29.17183
29.6424
30.12304
30.61356
31.11367
31.62256
32.13855
32.65123
33.07719
34.77663
38.11677
40.91166
43.19899
45.07882
46.6436
47.9702
49.12058
50.13754
51.05879
51.91142
52.71902
53.49903
54.26421
55.02464
55.78727
56.55771
57.34071
58.13984
58.95819
59.7984
60.66302
61.55418
62.47414
63.42476
64.40818
65.42537
66.47412
67.56138
68.68349
69.84208
71.03547
72.25858
73.47252
74.60907
74.65976
73.58019
72.57604
71.6184
70.68767
69.77365
68.86962
67.97229
67.07966
66.19114
65.30683
64.42724
63.55347
62.68663
61.82779
60.9782
60.13888
59.31076
58.49485
57.69193
56.9025
56.12702
55.36591
54.61949
53.88801
53.1716
52.4704
51.7845
51.1139
50.45851
49.81807
49.19231
48.58169
47.98899
47.41366
37.05667
36.67625
36.20001
35.60321
34.98378
34.36637
33.75854
33.17762
32.63264
32.12681
31.65972
31.22927
30.83256
30.46584
30.12525
29.80715
29.50782
29.22393
28.95271
28.69188
28.43957
28.19421
27.95457
27.71962
27.48856
27.26076
27.03565
26.81308
26.59295
26.37516
26.15973
25.94674
25.7363
25.52856
25.32366
25.12176
24.923
24.7275
24.53536
24.34667
24.16152
23.98011
23.80293
23.63007
23.46462
23.3115
23.16755
23.02736
22.89075
22.75763
22.62797
22.50282
22.38286
22.27146
22.22456
22.10596
21.97882
21.84241
21.69535
21.53904
21.37592
21.20908
21.04197
20.87799
20.71901
20.56665
20.42203
20.2856
20.15754
20.0377
19.92573
19.82109
19.72316
19.63126
19.54467
19.46267
19.38459
19.30976
19.23757
19.16751
19.09911
19.03203
18.96598
18.90077
18.83623
18.77225
18.70878
18.64575
18.58314
18.5209
18.45898
18.39731
18.33582
18.27445
18.21312
18.15177
18.09032
18.02868
17.96679
17.90454
17.84186
17.77868
17.7149
17.65046
17.5853
17.51938
17.45268
17.3852
17.31701
17.24818
17.17885
17.10917
17.03938
16.96975
16.90054
16.83199
16.76432
16.69769
16.63218
16.56782
16.50456
16.4423
16.3809
16.32003
16.25921
16.19803
16.13616
16.07333
16.00922
15.94342
15.87535
15.80416
15.72818
15.64434
15.54581
15.41692
15.22548
14.94249
14.90601
343.316
272.7395
231.6589
204.6732
184.7603
168.6689
154.9517
142.9559
131.9693
111.9947
92.82892
81.8413
74.83311
69.7911
65.75895
62.29238
59.1833
56.32536
46.3603
43.77731
41.26854
38.99526
37.02074
35.31634
33.82782
32.50634
31.31703
30.24788
29.25296
28.14537
27.05006
26.03455
25.13809
24.36476
23.70107
23.12864
22.63297
22.37118
22.03536
21.554
21.05722
20.60689
20.22243
19.90087
19.63153
19.40303
19.20694
19.00488
18.75758
18.48292
18.21651
17.97981
17.77669
17.60172
17.44765
17.31804
16.13034
15.94947
15.76804
15.58737
15.4123
15.24571
15.08821
14.93894
14.79671
14.65857
14.51649
14.36672
14.21108
14.05379
13.8985
13.74728
13.6012
13.46287
13.34191
13.24105
13.13674
13.03245
12.9317
12.83387
12.73586
12.63707
12.53807
12.43934
12.34123
12.24382
12.14704
12.05076
11.9548
11.85885
11.76249
11.66512
11.56592
11.46395
11.35952
11.25474
11.14882
11.04378
10.94992
10.87044
10.80209
10.74673
10.70633
10.68145
10.64181
10.59484
10.5486
10.50262
10.4568
10.41088
10.3647
10.31816
10.27129
10.2246
10.17864
10.13226
10.08464
10.03498
9.982793
9.928392
9.872032
9.813954
9.754363
9.693459
9.631456
9.568571
9.505024
9.441094
9.376856
9.312597
9.248554
9.184927
9.1219
9.05964
8.998297
8.938011
8.878914
8.821118
8.764701
8.709725
8.656229
8.60423
8.553778
8.504981
8.457869
8.412432
8.368636
8.326421
8.285696
8.246319
8.208065
8.170626
8.133703
8.097194
8.06221
8.029974
7.999697
7.971019
7.943887
7.918239
7.893977
7.871012
7.849272
7.828715
7.809292
7.790966
7.773723
7.757568
7.742532
7.728666
7.716042
7.704751
7.6949
7.686606
7.679995
7.675196
7.672321
7.67151
7.672881
7.676583
7.682723
7.691381
7.702626
7.716512
7.733072
7.752324
7.774264
7.798867
7.826092
7.85588
7.888161
7.922816
7.959661
7.998403
8.038496
8.079863
8.12243
8.166066
8.210566
8.25564
8.300777
8.345109
8.387413
8.414406
8.746166
9.167108
9.488896
9.737093
9.931538
10.08657
10.21268
10.31758
10.40686
10.48457
10.55366
10.61629
10.67402
10.72802
10.77911
10.82795
10.875
10.92064
10.96516
11.00878
11.05169
11.09404
11.13596
11.1775
11.21873
11.25966
11.30028
11.34055
11.38021
11.41898
11.45629
11.49112
11.52143
11.54292
11.5476
11.52598
11.49486
11.46031
11.42358
11.38489
11.34484
11.30389
11.26236
11.22049
11.17847
11.13648
11.09465
11.05308
11.01185
10.97105
10.93071
10.89087
10.85156
10.81282
10.77464
10.73705
10.70004
10.66362
10.62777
10.59251
10.55783
10.52373
10.49021
10.45726
10.42487
10.39305
10.36181
10.33117
10.30124
10.27337
8.898893
8.849544
8.80933
8.77458
8.743034
8.713659
8.686047
8.659703
8.634161
8.609077
8.584222
8.559433
8.534609
8.509687
8.484638
8.459466
8.434165
8.408743
8.383231
8.357668
8.332096
8.306557
8.281089
8.255721
8.230469
8.205355
8.180394
8.155586
8.130936
8.106446
8.082121
8.057962
8.033969
8.010144
7.986489
7.963007
7.939703
7.916585
7.893668
7.870975
7.848549
7.826459
7.804812
7.78374
7.763345
7.743616
7.724351
7.705367
7.686658
7.668235
7.650095
7.632194
7.614674
7.598745
7.584123
7.568088
7.551071
7.53416
7.517639
7.501424
7.485411
7.46948
7.453564
7.437682
7.421819
7.405971
7.39015
7.374377
7.358683
7.343103
7.327672
7.312422
7.297385
7.282586
7.268048
7.253789
7.239818
7.226142
7.212762
7.199678
7.186885
7.174379
7.162155
7.150208
7.138536
7.127136
7.116007
7.105147
7.094556
7.08423
7.074165
7.064355
7.054794
7.045473
7.036384
7.027514
7.018854
7.010389
7.002106
6.993993
6.986038
6.978228
6.970555
6.96301
6.955591
6.948295
6.941126
6.934094
6.927212
6.920498
6.913979
6.907685
6.901653
6.89592
6.890527
6.885514
6.88092
6.876783
6.873138
6.870013
6.867435
6.865417
6.863958
6.863044
6.862643
6.862719
6.863222
6.864071
6.865175
6.86636
6.867461
6.868105
6.867921
6.866118
6.8621
6.854905
6.845271
6.83676
6.834142
501.2626
445.1226
397.5369
360.1942
329.7418
304.4371
282.5712
263.5088
246.8085
229.6529
130.4487
110.3227
103.8509
99.45969
95.47755
91.71372
88.16348
84.82415
81.63143
64.63143
60.69143
57.37504
54.70814
52.59417
50.89791
49.49965
48.30973
47.26129
46.35168
45.45198
44.45552
43.42192
42.39773
41.41481
40.49046
39.62882
38.82369
38.05788
37.75038
37.20495
36.55371
35.8515
35.13065
34.41595
33.7215
33.06493
32.44922
31.87196
31.32356
30.78964
30.25366
29.71297
29.16854
28.6217
28.07492
27.53912
25.58337
25.06219
24.55306
24.04509
23.53264
23.0163
22.49936
21.9854
21.4781
20.98196
20.49568
20.01888
19.55637
19.11075
18.68489
18.28163
17.90192
17.54712
17.21886
16.91844
16.6443
16.39371
16.16252
15.94813
15.75002
15.56787
15.40104
15.24886
15.11007
14.98138
14.8598
14.74325
14.63069
14.52194
14.41716
14.31651
14.22083
14.1266
14.06799
13.99709
13.91636
13.82827
13.73543
13.63984
13.54288
13.44546
13.34824
13.25122
13.15342
13.05417
12.95335
12.85126
12.74842
12.64548
12.54335
12.44361
12.34908
12.25868
12.16693
12.07596
11.98759
11.90075
11.81325
11.72416
11.63344
11.54124
11.44764
11.35268
11.2563
11.15846
11.05903
10.95788
10.85481
10.74959
10.64197
10.53186
10.4198
10.30724
10.19492
10.08439
9.979813
9.882807
9.791629
9.705122
9.621986
9.538533
9.448786
9.357335
9.268589
9.183549
9.101914
9.023165
8.946904
8.872826
8.80068
8.730246
8.661258
8.593435
8.52661
8.460885
8.396277
8.332086
8.267657
8.202859
8.137675
8.072124
8.006254
7.940135
7.87385
7.807495
7.741177
7.675013
7.609122
7.543619
7.478612
7.414195
7.350449
7.287428
7.225198
7.16393
7.10374
7.044701
6.986862
6.930258
6.87487
6.820604
6.767413
6.715267
6.664141
6.61401
6.564843
6.516601
6.469245
6.422734
6.377049
6.332218
6.288333
6.245461
6.20352
6.162443
6.122225
6.082886
6.044449
6.006926
5.970329
5.934673
5.899975
5.866259
5.833553
5.801889
5.771305
5.741844
5.713553
5.686482
5.660685
5.636214
5.613122
5.591462
5.57128
5.552622
5.53553
5.520037
5.506167
5.493938
5.483362
5.474441
5.467171
5.461535
5.457513
5.455072
5.454179
5.454788
5.456863
5.460364
5.465295
5.471744
5.47992
5.489659
5.500816
5.513158
5.526575
5.540764
5.555659
5.570799
5.586233
5.601158
5.628405
5.647692
5.661655
5.672222
5.680755
5.688123
5.694861
5.701283
5.707561
5.71379
5.720021
5.72627
5.73254
5.738827
5.745125
5.751431
5.757743
5.76406
5.770386
5.776724
5.783079
5.789454
5.79585
5.802263
5.808682
5.815088
5.821447
5.827701
5.833745
5.839446
5.84461
5.848902
5.851325
5.851032
5.849192
5.846083
5.842019
5.837353
5.832239
5.826755
5.82097
5.814935
5.808685
5.802248
5.795647
5.7889
5.782023
5.775028
5.767928
5.760736
5.753463
5.746121
5.738722
5.731279
5.7238
5.7163
5.708788
5.701278
5.693781
5.686311
5.678878
5.671498
5.66418
5.656939
5.649783
5.642734
5.635798
5.629011
5.622317
5.614029
5.626028
5.63571
5.642994
5.648126
5.651608
5.653827
5.655077
5.655498
5.655179
5.654187
5.65258
5.650407
5.647709
5.644518
5.640864
5.63677
5.632259
5.627355
5.622082
5.616464
5.610525
5.604291
5.597786
5.591033
5.584053
5.576865
5.569487
5.561936
5.554228
5.54638
5.538407
5.530324
5.522144
5.51388
5.505547
5.497154
5.488717
5.480247
5.471762
5.46328
5.454826
5.44643
5.438127
5.429952
5.42193
5.414062
5.40632
5.398665
5.391079
5.383568
5.37613
5.368769
5.361486
5.354282
5.347205
5.34038
5.333793
5.327413
5.321164
5.314994
5.308904
5.302907
5.297015
5.291234
5.285573
5.280039
5.274641
5.269381
5.264264
5.259293
5.254469
5.249792
5.245262
5.240879
5.236639
5.232543
5.228586
5.224768
5.221084
5.217534
5.214113
5.210821
5.207656
5.204617
5.201705
5.198918
5.196259
5.193727
5.191324
5.18905
5.186904
5.184885
5.182993
5.181226
5.179582
5.178059
5.176653
5.175362
5.174182
5.173111
5.172146
5.171284
5.170525
5.169868
5.169313
5.168864
5.168525
5.168303
5.168206
5.168246
5.168438
5.168801
5.169357
5.170131
5.171153
5.172456
5.174076
5.176051
5.178422
5.181225
5.184496
5.188261
5.192542
5.197343
5.202663
5.208484
5.214781
5.221507
5.228603
5.235983
5.243544
5.251148
5.258623
5.265809
5.272523
5.278745
5.284611
5.290815
5.297179
329.8505
246.0289
311.7671
137.1749
104.0631
70.3015
61.4309
54.46914
50.03773
48.98795
49.22695
49.16713
48.57453
48.86304
48.93058
48.82829
48.59028
48.25301
47.82501
47.31298
46.72255
46.0676
45.28119
44.38758
43.49516
42.64523
41.8414
41.07661
40.34772
39.65106
38.98595
37.44865
36.86309
36.30618
35.7725
35.26087
34.77128
34.30357
33.85727
33.43057
33.02093
32.62696
32.24464
31.86893
31.49615
31.12262
30.74781
30.37377
30.00334
29.63587
29.26822
28.89709
28.52554
28.154
27.78229
27.41096
27.04116
26.67411
26.31177
25.95471
25.60167
25.25438
24.91278
24.57658
24.24368
23.91336
23.57812
23.23387
22.94512
22.63786
22.31025
21.96969
21.61966
21.26095
20.89456
20.52199
20.14528
19.76659
19.38745
19.00981
18.63633
18.26942
17.91128
17.56413
17.23022
16.91139
16.60921
16.32454
16.05793
15.81015
15.58138
15.37137
15.17875
15.00225
14.84085
14.69337
14.55836
14.43399
14.31872
14.21132
14.11064
14.01561
13.92525
13.83862
13.7554
13.67407
13.59803
13.52491
13.45255
13.37964
13.30568
13.23054
13.1542
13.07673
12.99826
12.9188
12.83817
12.75627
12.67305
12.58854
12.50283
12.41611
12.32877
12.24145
12.15502
12.06888
11.98114
11.89232
11.80343
11.71415
11.62344
11.53067
11.43573
11.33863
11.23938
11.13798
11.03439
10.9286
10.82054
10.71018
10.59749
10.48245
10.36501
10.24528
10.12377
10.00155
9.879673
9.759372
9.642578
9.530243
9.421498
9.31518
9.210177
9.104571
8.996474
8.887685
8.780909
8.677339
8.577074
8.479941
8.38578
8.294437
8.205736
8.119483
8.035474
7.953512
7.87342
7.795046
7.718239
7.642878
7.568928
7.495971
7.423756
7.352188
7.281211
7.210799
7.140942
7.071652
7.002953
6.934886
6.867499
6.800839
6.734954
6.669884
6.605665
6.542394
6.480153
6.418894
6.358592
6.299232
6.240795
6.183263
6.126607
6.070799
6.015811
5.961614
5.908185
5.855497
5.803527
5.752253
5.701658
5.651732
5.602475
5.553909
5.50606
5.458937
5.412509
5.366754
5.321677
5.277296
5.23363
5.1907
5.148527
5.10714
5.06657
5.026854
4.988029
4.950138
4.913223
4.877331
4.842508
4.8088
4.776254
4.744915
4.714824
4.68602
4.658537
4.632404
4.607646
4.58428
4.562318
4.541766
4.522623
4.504882
4.488532
4.473555
4.459929
4.447629
4.436623
4.426879
4.418362
4.41104
4.404882
4.399867
4.395976
4.39317
4.391398
4.390587
4.390675
4.391566
4.393194
4.395452
4.398291
4.401641
4.406004
4.411014
4.416539
4.42226
4.427992
4.433627
4.439102
4.444325
4.449233
4.453853
4.458216
4.462348
4.466274
4.470016
4.473593
4.477024
4.480325
4.483515
4.486608
4.48962
4.492565
4.495454
4.498295
4.501092
4.503845
4.506547
4.509181
4.511705
4.513987
4.515867
4.517264
4.518099
4.518635
4.518841
4.518613
4.517926
4.516853
4.515517
4.514004
4.512352
4.51058
4.508702
4.506729
4.504659
4.50252
4.500309
4.498024
4.495666
4.493239
4.490747
4.488192
4.485579
4.482912
4.480193
4.477419
4.474614
4.471775
4.468903
4.466004
4.463086
4.460155
4.45722
4.454287
4.451355
4.448454
4.445582
4.442744
4.439955
4.437237
4.434506
4.432602
4.43131
4.430488
4.430005
4.429737
4.429582
4.429487
4.429414
4.42933
4.429206
4.429018
4.428747
4.428381
4.427905
4.42731
4.426586
4.425727
4.424727
4.423582
4.422291
4.420853
4.41927
4.417543
4.415676
4.41367
4.41153
4.40926
4.406863
4.404346
4.401714
4.398973
4.39613
4.39319
4.390162
4.387052
4.383867
4.380616
4.377307
4.373949
4.370555
4.367137
4.363708
4.360285
4.356881
4.353507
4.350168
4.346861
4.343577
4.340312
4.337073
4.333869
4.33071
4.327617
4.324615
4.321701
4.318848
4.316031
4.313273
4.310601
4.30803
4.305567
4.303219
4.300988
4.298878
4.296892
4.295031
4.293297
4.291693
4.290218
4.288873
4.287658
4.286572
4.285613
4.284778
4.284065
4.283472
4.282994
4.28263
4.282376
4.28223
4.28219
4.282255
4.282422
4.282691
4.283061
4.283533
4.284106
4.28478
4.285555
4.28643
4.287404
4.288477
4.289647
4.290913
4.292273
4.293725
4.295267
4.296898
4.298614
4.300415
4.302298
4.304262
4.306307
4.308431
4.310635
4.312921
4.315292
4.317751
4.320306
4.322965
4.325741
4.32865
4.331712
4.334952
4.338398
4.342082
4.346038
4.350301
4.354905
4.359882
4.365258
4.371053
4.377279
4.383938
4.391026
4.398528
4.406425
4.414686
4.423275
4.432145
4.441247
4.450518
4.459903
4.469343
4.478813
4.488313
4.497926
4.507813
4.517371
323.34
221.0615
169.4768
142.0429
113.4915
88.46341
73.28408
66.44164
59.65184
55.80896
52.93453
49.8819
47.28362
45.40405
44.2839
43.61706
42.91386
43.50919
44.17093
44.81744
45.51178
46.27854
46.94201
47.29487
47.40279
47.31859
47.068
46.67675
46.16868
45.56613
44.88765
44.15304
43.38389
42.59249
41.78831
40.98275
40.18756
39.4107
38.66027
37.93857
37.25373
36.59205
35.9521
35.35615
34.80078
34.27903
33.78897
33.32963
32.90086
32.5003
32.12472
31.77117
31.43605
31.11397
30.79475
30.4779
30.16422
29.85152
29.53774
29.22112
28.90015
28.57267
28.23732
27.89504
27.54639
27.19154
26.83112
26.46637
26.0989
25.73053
25.36289
24.99739
24.63587
24.27988
23.93045
23.58812
23.2526
22.92386
22.60018
22.2885
21.9801
21.67189
21.36433
21.05692
20.74813
20.43682
20.12241
19.8051
19.48537
19.16379
18.8412
18.51886
18.19837
17.88148
17.57008
17.26607
16.97125
16.68729
16.41551
16.15704
15.91293
15.68392
15.47033
15.27199
15.08844
14.91911
14.76361
14.62143
14.49104
14.37098
14.25999
14.15697
14.0608
13.97039
13.88465
13.80282
13.72396
13.64778
13.5739
13.50167
13.4304
13.35954
13.28867
13.21746
13.14561
13.07291
12.99912
12.92403
12.84748
12.76935
12.68951
12.60794
12.52464
12.43972
12.35338
12.26585
12.17682
12.08555
11.99208
11.89679
11.7996
11.70008
11.59794
11.49308
11.38553
11.27532
11.16252
11.04718
10.9294
10.80923
10.68675
10.56209
10.43538
10.30674
10.17635
10.0447
9.912659
9.781239
9.651427
9.524271
9.400274
9.279029
9.159768
9.041716
8.923952
8.805818
8.688083
8.572142
8.458859
8.348488
8.241041
8.13648
8.034745
7.935749
7.839383
7.745523
7.65404
7.564801
7.477674
7.392524
7.30922
7.22766
7.147775
7.069363
6.992294
6.916477
6.841847
6.768355
6.695969
6.624672
6.554459
6.485332
6.417297
6.35036
6.284524
6.219793
6.15615
6.093566
6.032011
5.971445
5.911831
5.853128
5.795295
5.738288
5.682062
5.626575
5.571783
5.517647
5.46413
5.411198
5.358824
5.306986
5.255671
5.204873
5.154596
5.104851
5.055642
5.006962
4.958806
4.911184
4.864112
4.817621
4.771739
4.726495
4.681925
4.638067
4.594966
4.552667
4.511216
4.47066
4.43105
4.392433
4.354858
4.318371
4.283016
4.248833
4.215858
4.184122
4.153653
4.12447
4.096588
4.070015
4.044756
4.020808
3.998164
3.976814
3.956742
3.937931
3.920357
3.903997
3.888823
3.874807
3.861917
3.850124
3.839392
3.829687
3.820972
3.813205
3.806341
3.800336
3.795136
3.790695
3.78696
3.783887
3.781435
3.779606
3.778374
3.777689
3.777476
3.77766
3.778175
3.778964
3.780013
3.781321
3.782812
3.784423
3.786109
3.787834
3.789573
3.791306
3.793021
3.79471
3.796369
3.797994
3.799585
3.801137
3.802663
3.804158
3.805618
3.80703
3.808403
3.809722
3.810976
3.812204
3.813441
3.81462
3.815675
3.816566
3.817258
3.817723
3.817955
3.817983
3.817855
3.817618
3.817299
3.816912
3.816468
3.815975
3.815439
3.814865
3.814255
3.813611
3.812933
3.812224
3.811483
3.810713
3.809912
3.809084
3.80823
3.80735
3.806447
3.805522
3.804577
3.803616
3.802642
3.801658
3.800668
3.799676
3.798686
3.797703
3.796732
3.795778
3.794844
3.793934
3.793044
3.792228
3.791513
3.7909
3.79037
3.789915
3.789541
3.789248
3.789031
3.788877
3.788772
3.788705
3.788662
3.788633
3.788608
3.788576
3.788528
3.788455
3.788351
3.788208
3.788022
3.787787
3.787501
3.78716
3.786762
3.786304
3.785784
3.785203
3.784559
3.783853
3.783085
3.782256
3.781367
3.780421
3.77942
3.778367
3.777264
3.776115
3.774924
3.773697
3.772438
3.771155
3.769854
3.768543
3.767227
3.765913
3.764605
3.763304
3.762005
3.760715
3.759445
3.758203
3.756997
3.755833
3.754717
3.753648
3.752633
3.751677
3.750789
3.749976
3.749239
3.74858
3.748006
3.747522
3.747132
3.746842
3.746653
3.746569
3.746591
3.746721
3.746957
3.747301
3.74775
3.748305
3.748964
3.749725
3.750586
3.751545
3.752601
3.753753
3.754998
3.756336
3.757767
3.759289
3.760903
3.762608
3.764404
3.766293
3.768272
3.770343
3.772505
3.774758
3.777099
3.779529
3.782045
3.784646
3.78733
3.790096
3.79294
3.795861
3.798858
3.801927
3.805067
3.808277
3.811556
3.814903
3.818318
3.821805
3.825366
3.829007
3.832737
3.836569
3.840517
3.844602
3.848845
3.853272
3.857911
3.862789
3.867933
3.873366
3.879111
3.885183
3.891592
3.898344
3.90544
3.912873
3.920635
3.928713
3.937092
3.945752
3.954672
3.963832
3.973209
3.982787
3.992552
4.002512
4.012691
4.023137
4.033885
4.044124
157.1088
117.6127
181.0864
90.24119
77.60037
65.66541
61.90648
58.8487
55.48017
53.75825
51.7689
49.18566
46.88946
44.76826
42.72138
39.01585
38.43956
38.14861
38.11839
38.34857
38.78899
39.45915
40.36284
41.45828
42.68066
43.83459
44.72858
45.62461
46.3557
46.85867
47.15497
47.35182
47.3883
47.18505
46.7733
46.21714
45.54318
44.77566
43.93753
43.05348
42.13593
41.1989
40.26497
39.34721
38.45449
37.5942
36.77192
35.99318
35.25994
34.57342
33.93416
33.34002
32.78549
32.27376
31.80666
31.3809
30.99362
30.64302
30.32654
30.04209
29.78699
29.55844
29.35118
29.14189
28.93835
28.74035
28.54601
28.35322
28.15958
27.96252
27.75938
27.54758
27.32503
27.08997
26.84119
26.57786
26.29975
26.00731
25.70164
25.38441
25.05775
24.72404
24.38586
24.04592
23.70674
23.37064
23.03933
22.71453
22.39671
22.08658
21.78251
21.48387
21.19066
20.90236
20.61771
20.33536
20.05407
19.77303
19.49165
19.20956
18.92663
18.64317
18.35986
18.07764
17.79772
17.52145
17.2503
16.98576
16.72925
16.48203
16.24532
16.02011
15.80712
15.60679
15.41931
15.24441
15.08144
14.92973
14.78958
14.66027
14.54058
14.42942
14.32574
14.22856
14.13693
14.05003
13.96708
13.88738
13.81037
13.73549
13.66214
13.58979
13.51795
13.44616
13.37399
13.30103
13.22691
13.1513
13.07397
12.99476
12.91339
12.82961
12.74327
12.65434
12.5628
12.46867
12.37177
12.27171
12.16843
12.0621
11.95275
11.84024
11.72448
11.6055
11.48342
11.35844
11.23076
11.10064
10.96832
10.83403
10.69795
10.56035
10.42154
10.28182
10.14137
10.00065
9.860517
9.721839
9.585291
9.451503
9.320715
9.192639
9.066741
8.942461
8.819274
8.69687
8.575548
8.455977
8.338683
8.223902
8.111696
8.002075
7.895026
7.790517
7.688498
7.588908
7.491677
7.396728
7.303978
7.21334
7.124725
7.038045
6.953219
6.870183
6.788853
6.709158
6.631038
6.554443
6.479332
6.405674
6.333445
6.262626
6.1932
6.12515
6.058455
5.993093
5.928985
5.866085
5.804349
5.743725
5.68416
5.625595
5.56797
5.511222
5.455286
5.400099
5.345599
5.291728
5.23843
5.185656
5.133361
5.081508
5.030071
4.979032
4.928379
4.878108
4.828214
4.778696
4.729556
4.680802
4.632456
4.584546
4.537107
4.490177
4.443798
4.398017
4.352883
4.308447
4.264761
4.221881
4.17986
4.138752
4.098609
4.059481
4.021414
3.98445
3.948627
3.913977
3.880527
3.848297
3.817304
3.787555
3.759056
3.731806
3.705801
3.681033
3.657492
3.635164
3.614032
3.594077
3.575276
3.557608
3.54105
3.525575
3.511154
3.497751
3.485327
3.473844
3.463264
3.453548
3.444659
3.436556
3.429202
3.422561
3.416598
3.411284
3.406588
3.402473
3.398899
3.395822
3.393199
3.390992
3.389164
3.387681
3.38651
3.385616
3.384966
3.38453
3.384281
3.384195
3.384253
3.384437
3.384733
3.385128
3.385611
3.386172
3.386797
3.387493
3.388247
3.389048
3.389885
3.39075
3.391632
3.392522
3.393412
3.394284
3.395115
3.39588
3.396558
3.397133
3.397599
3.397966
3.398252
3.39848
3.398664
3.398816
3.398943
3.399051
3.399143
3.399222
3.399291
3.39935
3.3994
3.399442
3.399477
3.399503
3.399522
3.399535
3.39954
3.399539
3.399532
3.39952
3.399503
3.399483
3.399461
3.399439
3.399418
3.399401
3.39939
3.399387
3.399393
3.399411
3.399443
3.399489
3.39955
3.399631
3.399731
3.399846
3.399973
3.400115
3.400278
3.400466
3.400678
3.400914
3.401169
3.401442
3.401729
3.402025
3.402329
3.402635
3.40294
3.40324
3.403531
3.403811
3.404076
3.404325
3.404554
3.404761
3.404946
3.405105
3.405237
3.405342
3.405418
3.405464
3.405479
3.405464
3.405418
3.405342
3.405236
3.4051
3.404936
3.404743
3.404526
3.404286
3.404027
3.403743
3.403438
3.40312
3.402795
3.402467
3.402142
3.401824
3.401524
3.401243
3.400983
3.40075
3.400547
3.40038
3.400255
3.400177
3.400151
3.400182
3.400271
3.400418
3.400622
3.400888
3.401227
3.401643
3.402139
3.402719
3.403384
3.404135
3.404973
3.4059
3.406915
3.408017
3.409207
3.410483
3.411845
3.413292
3.414822
3.416435
3.418129
3.419905
3.421761
3.423698
3.425715
3.427813
3.429992
3.432253
3.434596
3.437022
3.43953
3.442123
3.444798
3.447557
3.450397
3.45332
3.456322
3.459404
3.462563
3.465797
3.469105
3.472484
3.475932
3.479448
3.483028
3.486672
3.490379
3.494147
3.497977
3.50187
3.505831
3.509866
3.513983
3.518193
3.522512
3.526956
3.531545
3.5363
3.541241
3.54639
3.551764
3.557379
3.56325
3.569385
3.575791
3.582472
3.589427
3.596655
3.604153
3.611915
3.619937
3.628212
3.636734
3.6455
3.654505
3.663752
3.673247
3.683008
3.693065
3.703448
3.714146
3.724241
62.39258
43.73937
41.94652
41.12238
41.22808
40.72131
40.21457
39.60249
38.95599
37.76149
34.58164
34.25099
33.96224
33.72638
33.52702
33.37224
33.32356
33.41854
33.67666
34.08695
34.5393
35.04624
35.72833
36.60039
37.65836
38.89269
40.23655
41.61365
42.94459
44.18444
45.23734
45.92954
46.39945
46.5911
46.51898
46.23502
45.78802
45.19202
44.42391
43.51879
42.53569
41.49122
40.40503
39.29651
38.17847
37.07308
35.99107
34.94737
33.95047
33.00605
32.11803
31.28817
30.51799
29.80674
29.15407
28.55813
28.01835
27.53369
27.10287
26.7239
26.39376
26.10911
25.8672
25.66534
25.50118
25.37233
25.27428
25.18167
25.11284
25.06402
25.03137
25.01098
24.99886
24.9911
24.9838
24.97243
24.95307
24.92314
24.87927
24.8186
24.73874
24.63776
24.51424
24.36741
24.19729
24.00464
23.79128
23.55978
23.31313
23.05458
22.78755
22.51524
22.24069
21.9668
21.69642
21.42892
21.16517
20.90587
20.65134
20.40127
20.15494
19.91139
19.66967
19.4289
19.18825
18.94714
18.70524
18.46253
18.21929
17.97607
17.73365
17.49305
17.2554
17.02181
16.79357
16.572
16.35821
16.15313
15.9575
15.77185
15.59642
15.43117
15.27573
15.12925
14.99194
14.86363
14.74353
14.63088
14.52498
14.42511
14.33053
14.24061
14.1548
14.07248
13.99289
13.91531
13.83909
13.76359
13.68821
13.6124
13.53561
13.45733
13.37709
13.29449
13.20921
13.1209
13.02927
12.93409
12.8352
12.73254
12.62603
12.5156
12.40113
12.28261
12.1602
12.03407
11.90434
11.77121
11.63493
11.49585
11.35436
11.21088
11.06585
10.91972
10.77286
10.6256
10.47827
10.33127
10.18498
10.03965
9.895447
9.752723
9.612083
9.474309
9.339955
9.208938
9.080769
8.954962
8.831048
8.708624
8.587451
8.467585
8.349309
8.232902
8.118522
8.006233
7.896063
7.788024
7.682119
7.578343
7.476682
7.377115
7.279618
7.184158
7.090698
6.999192
6.909586
6.821823
6.735918
6.65184
6.569554
6.489029
6.410235
6.333142
6.257727
6.183969
6.111847
6.041341
5.972425
5.905073
5.839251
5.774914
5.711963
5.650336
5.589973
5.530812
5.472782
5.415809
5.359815
5.30472
5.250442
5.196903
5.144024
5.091732
5.03996
4.988642
4.93772
4.887151
4.836903
4.786946
4.737257
4.68782
4.638626
4.589673
4.540968
4.492528
4.444377
4.396549
4.349084
4.302031
4.255439
4.209361
4.163853
4.118974
4.074783
4.031341
3.988708
3.946941
3.906093
3.866216
3.827356
3.789554
3.752845
3.717259
3.682818
3.649541
3.617439
3.586519
3.556787
3.52824
3.500877
3.474693
3.449682
3.425831
3.403124
3.381545
3.361077
3.341707
3.323427
3.306236
3.290087
3.274927
3.260714
3.247415
3.234995
3.223424
3.21267
3.202702
3.193489
3.185001
3.177208
3.170079
3.163583
3.157685
3.152351
3.147545
3.143235
3.139386
3.135966
3.132945
3.130291
3.127976
3.125972
3.124252
3.122793
3.121573
3.12057
3.119766
3.119144
3.118689
3.118384
3.118211
3.118172
3.11825
3.118429
3.118697
3.119042
3.119452
3.119914
3.120415
3.12094
3.121474
3.122001
3.122507
3.12298
3.123417
3.123817
3.124188
3.12454
3.124881
3.125217
3.125553
3.125893
3.126238
3.126591
3.126952
3.127322
3.127702
3.128091
3.12849
3.128897
3.129314
3.129739
3.130173
3.130614
3.131063
3.13152
3.131985
3.132457
3.132938
3.133427
3.133926
3.134434
3.134953
3.135483
3.136025
3.13658
3.137146
3.137725
3.138315
3.138915
3.139523
3.140133
3.140744
3.141357
3.141971
3.142587
3.143204
3.143822
3.144439
3.145055
3.145668
3.146278
3.146882
3.14748
3.148071
3.148653
3.149225
3.149787
3.150338
3.150878
3.151405
3.15192
3.152421
3.152908
3.153381
3.153839
3.154282
3.154708
3.155118
3.155509
3.155884
3.156242
3.156582
3.156894
3.157181
3.157449
3.157702
3.157943
3.158174
3.158407
3.158643
3.158882
3.159123
3.159367
3.159616
3.159871
3.160134
3.160408
3.160698
3.161007
3.161341
3.161704
3.162103
3.162542
3.163026
3.163559
3.164146
3.164793
3.165503
3.166276
3.167104
3.16799
3.168946
3.169973
3.171074
3.172248
3.173498
3.174822
3.17622
3.177693
3.179239
3.180857
3.182548
3.18431
3.186143
3.188046
3.190018
3.19206
3.194172
3.196353
3.198604
3.200927
3.20332
3.205787
3.208326
3.21094
3.213628
3.216393
3.219233
3.222148
3.22514
3.228206
3.231347
3.23456
3.237846
3.241201
3.244625
3.248115
3.25167
3.255287
3.258964
3.2627
3.266494
3.270345
3.274254
3.278222
3.282254
3.286355
3.290534
3.294801
3.299168
3.303651
3.308265
3.313025
3.317948
3.323048
3.328338
3.333829
3.33953
3.345449
3.35159
3.357958
3.364555
3.371383
3.378444
3.38574
3.393272
3.401043
3.409054
3.417312
3.425823
3.434598
3.443652
3.453007
3.462694
3.472732
3.483083
3.492765
76.81849
32.26054
27.06345
26.65701
26.69825
26.83907
27.09102
27.38388
27.72704
28.13936
28.49877
28.62506
28.77878
28.97784
29.23849
29.57675
30.01749
30.5777
31.26534
32.07619
33.00729
34.10548
35.36146
36.7722
38.28207
39.80827
41.26351
42.63741
43.66555
44.41639
44.88871
45.11481
45.05013
44.72746
44.16475
43.41537
42.50978
41.47326
40.31647
39.07538
37.79427
36.49628
35.20395
33.9365
32.70374
31.52606
30.41155
29.36598
28.39213
27.49097
26.66161
25.90197
25.21053
24.58524
24.02186
23.51612
23.06429
22.66246
22.30691
21.99512
21.72447
21.49256
21.29735
21.13725
21.01083
20.91624
20.8397
20.79751
20.7878
20.80742
20.8529
20.92059
21.00673
21.10743
21.21873
21.33635
21.45589
21.57345
21.6849
21.78628
21.87396
21.94459
21.99512
22.02289
22.02583
22.00248
21.9522
21.87551
21.77384
21.64937
21.50492
21.34365
21.16893
20.98464
20.79558
20.60161