/*--------------------------------*- C++ -*----------------------------------*\
| =========                 |                                                 |
| \\      /  F ield         | foam-extend: Open Source CFD                    |
|  \\    /   O peration     | Version:     3.1                                |
|   \\  /    A nd           | Web:         http://www.extend-project.de       |
|    \\/     M anipulation  |                                                 |
\*---------------------------------------------------------------------------*/
FoamFile
{
    version     2.0;
    format      ascii;
    class       volScalarField;
    location    "5.5";
    object      p;
}
// * * * * * * * * * * * * * * * * * * * * * * * * * * * * * * * * * * * * * //

dimensions      [1 -1 -2 0 0 0 0];

internalField   nonuniform List<scalar> 
119952
(
8838.591
8816.82
8817.046
8836.29
8858.04
8863.816
8872.146
8880.701
8889.313
8897.849
8906.176
8914.212
8921.887
8929.147
8935.952
8942.102
8947.584
8952.142
8954.875
8949.78
8993.961
8972.552
8968.404
9024.031
9014.132
9021.095
9025.804
9040.113
9089.35
9262.832
8258.257
8265.719
8274.343
8283.057
8291.772
8300.449
8309.091
8317.747
8326.411
8333.06
8324.623
8330.657
8336.541
8342.645
8348.922
8355.338
8361.877
8368.523
8375.529
8354.08
8359.637
8366.676
8374.098
8381.775
8389.653
8397.719
8405.972
8414.461
8423.395
8432.001
8441.166
8450.542
8460.258
8470.287
8480.597
8491.162
8502.088
8514.577
8531.251
8536.646
8547.406
8560.408
8572.86
8583.013
8592.495
8601.999
8611.341
8620.524
8629.488
8638.168
8646.503
8654.433
8661.896
8668.803
8675.078
8680.634
8685.43
8689.909
8696.353
8701.564
8705.182
8717.288
8731.972
8737.209
8742.438
8746.95
8742.545
8712.598
8707.761
8711.079
8712.377
8713.273
8713.551
8713.373
8712.896
8712.187
8711.31
8710.29
8709.159
8707.972
8706.735
8705.471
8704.193
8702.914
8701.644
8700.394
8699.17
8697.978
8696.823
8695.708
8694.634
8693.603
8692.614
8691.667
8690.76
8689.892
8689.059
8688.258
8687.484
8686.733
8686.002
8685.284
8684.577
8683.873
8683.169
8682.465
8681.753
8681.025
8680.276
8679.499
8678.69
8677.84
8676.937
8675.966
8674.902
8673.789
8673.125
8673.133
8672.944
8671.64
8670.302
8669.082
8667.845
8666.587
8665.306
8664.003
8662.667
8661.304
8659.914
8658.499
8657.06
8655.597
8654.112
8652.606
8651.079
8649.533
8647.968
8646.385
8644.783
8643.158
8641.532
8639.898
8638.237
8636.531
8634.811
8633.07
8631.307
8629.521
8627.711
8625.876
8624.014
8622.127
8620.214
8618.276
8616.313
8614.327
8612.314
8610.27
8608.204
8606.113
8603.988
8601.83
8599.63
8597.355
8594.944
8592.346
8589.904
8621.74
8619.933
8617.769
8615.579
8613.488
8611.44
8609.438
8607.521
8605.567
8603.643
8601.763
8599.922
8598.118
8596.353
8594.626
8592.935
8591.28
8589.662
8588.077
8586.525
8585.005
8583.51
8582.032
8580.572
8579.118
8577.659
8576.182
8574.667
8573.095
8571.416
8569.577
8567.481
8564.949
8561.682
8556.97
8551.176
8556.774
8560.456
8562.995
8564.918
8566.509
8567.896
8569.119
8570.236
8571.262
8572.218
8573.114
8573.957
8574.753
8575.505
8576.214
8576.879
8577.501
8578.08
8578.613
8579.1
8579.538
8579.926
8580.261
8580.542
8580.768
8580.935
8581.044
8581.091
8581.074
8580.994
8580.861
8580.703
8580.425
8579.829
8562.333
8555.579
8546.93
8546.471
8545.854
8544.252
8542.883
8541.68
8540.382
8538.988
8537.536
8536.056
8534.523
8532.916
8531.245
8529.517
8527.725
8525.864
8523.94
8521.956
8519.918
8517.827
8515.686
8513.499
8511.272
8509.008
8506.714
8504.39
8502.045
8499.686
8497.317
8494.944
8492.575
8490.216
8487.875
8485.559
8483.279
8481.044
8478.866
8476.759
8474.742
8472.844
8471.099
8469.535
8468.172
8466.674
8464.426
8461.949
8459.856
8458.008
8456.425
8454.974
8453.677
8450.806
8444.906
8447.998
8448.552
8448.055
8447.996
8448.067
8448.304
8448.799
8449.54
8450.546
8451.818
8453.34
8455.116
8457.151
8459.447
8462.01
8464.835
8467.921
8471.268
8474.872
8478.733
8482.846
8487.208
8491.816
8496.663
8501.744
8507.052
8512.581
8518.32
8524.263
8530.4
8536.72
8543.214
8549.869
8556.676
8563.621
8570.692
8577.878
8585.164
8592.538
8599.987
8607.496
8615.051
8622.64
8630.247
8637.859
8645.461
8653.039
8660.58
8668.068
8675.49
8682.831
8690.077
8697.213
8704.226
8711.101
8717.822
8724.376
8730.748
8736.923
8742.884
8748.617
8754.105
8759.332
8764.283
8768.939
8773.283
8777.298
8780.964
8784.257
8787.154
8789.628
8791.65
8793.182
8794.176
8794.576
8794.312
8793.274
8791.285
8788.108
8783.273
8776.465
8769.422
8773.588
8811.081
7298.244
7334.395
7371.099
7408.161
7445.172
7482.029
7518.435
7554.156
7588.763
7601.613
7634.379
7662.898
7690.084
7716.005
7740.663
7764.019
7786.061
7806.954
7805.486
7818.741
7833.519
7849.107
7863.661
7877.452
7890.339
7902.347
7913.538
7923.901
7932.81
7942.125
7950.53
7958.356
7965.744
7972.702
7979.261
7985.491
7991.45
7996.933
8002.158
8007.784
8013.129
8018.384
8023.627
8028.89
8034.196
8039.578
8045.111
8050.733
8056.206
8061.882
8067.759
8073.826
8080.062
8086.464
8093.057
8100.074
8046.895
8054.145
8061.423
8068.726
8076.22
8083.926
8091.833
8099.952
8108.312
8116.948
8125.732
8134.726
8144.003
8153.578
8163.45
8173.636
8184.187
8195.226
8206.83
8218.559
8228.97
8239.619
8251.02
8262.28
8272.749
8282.618
8292.223
8301.649
8310.866
8319.829
8328.494
8336.81
8344.728
8352.196
8359.173
8365.637
8371.617
8377.24
8382.801
8388.63
8394.631
8401.088
8408.82
8416.67
8422.213
8425.017
8424.601
8419.867
8411.79
8406.66
8405.579
8405.925
8406.164
8406.013
8405.599
8405.009
8404.276
8403.391
8402.462
8401.417
8400.293
8399.121
8397.924
8396.706
8395.478
8394.252
8393.04
8391.852
8390.691
8389.564
8388.473
8387.42
8386.407
8385.433
8384.499
8383.602
8382.743
8381.916
8381.121
8380.354
8379.602
8378.87
8378.153
8377.444
8376.737
8376.015
8375.326
8374.613
8373.882
8373.13
8372.352
8371.544
8370.701
8369.822
8368.914
8367.999
8367.117
8366.328
8365.661
8364.971
8364.075
8362.974
8361.778
8360.556
8359.316
8358.047
8356.744
8355.409
8354.042
8352.647
8351.224
8349.774
8348.299
8346.801
8345.279
8343.737
8342.173
8340.591
8338.989
8337.368
8335.73
8334.074
8332.401
8330.716
8329.009
8327.278
8325.523
8323.747
8321.95
8320.129
8318.284
8316.416
8314.523
8312.607
8310.665
8308.702
8306.716
8304.718
8302.68
8300.631
8298.554
8296.459
8294.33
8292.198
8290.042
8287.952
8285.902
8283.952
8344.796
8343.143
8341.001
8338.971
8336.98
8334.986
8333.011
8331.061
8329.136
8327.24
8325.377
8323.547
8321.753
8319.995
8318.274
8316.589
8314.941
8313.328
8311.75
8310.205
8308.69
8307.201
8305.733
8304.28
8302.835
8301.388
8299.927
8298.427
8296.868
8295.227
8293.453
8291.488
8289.266
8286.783
8284.327
8282.851
8283.802
8286.151
8288.028
8289.595
8291.03
8292.307
8293.463
8294.531
8295.527
8296.46
8297.34
8298.17
8298.955
8299.697
8300.398
8301.057
8301.674
8302.248
8302.777
8303.26
8303.695
8304.079
8304.412
8304.69
8304.912
8305.077
8305.181
8305.223
8305.204
8305.123
8304.984
8304.787
8304.588
8304.905
8245.321
8246.124
8244.119
8241.231
8239.031
8237.508
8236.276
8235.02
8233.664
8232.24
8230.776
8229.273
8227.717
8226.097
8224.411
8222.658
8220.839
8218.958
8217.019
8215.019
8212.964
8210.855
8208.699
8206.497
8204.256
8201.98
8199.673
8197.34
8194.985
8192.617
8190.24
8187.861
8185.485
8183.121
8180.776
8178.456
8176.172
8173.933
8171.749
8169.632
8167.596
8165.651
8163.796
8162.014
8160.254
8158.426
8156.448
8154.397
8152.44
8150.668
8149.067
8147.577
8145.946
8143.654
8141.136
8140.233
8140.444
8140.873
8141.163
8141.371
8141.697
8142.249
8143.037
8144.076
8145.363
8146.906
8148.714
8150.783
8153.117
8155.72
8158.588
8161.721
8165.117
8168.773
8172.688
8176.857
8181.277
8185.943
8190.849
8195.99
8201.358
8206.946
8212.746
8218.748
8224.943
8231.321
8237.871
8244.583
8251.443
8258.441
8265.564
8272.799
8280.133
8287.553
8295.044
8302.594
8310.188
8317.813
8325.453
8333.096
8340.725
8348.329
8355.891
8363.397
8370.834
8378.186
8385.44
8392.581
8399.595
8406.466
8413.182
8419.726
8426.084
8432.241
8438.182
8443.891
8449.353
8454.552
8459.471
8464.095
8468.405
8472.384
8476.011
8479.267
8482.128
8484.569
8486.564
8488.077
8489.073
8489.503
8489.321
8488.457
8486.897
8484.658
8482.102
8479.914
8479.299
8480.362
8483.718
6531.514
6655.906
6765.66
6862.129
6943.024
7007.979
7057.166
7091.171
7111.023
7114.974
7092.326
7078.243
7057.482
7032.297
7004.184
6974.657
6944.985
6916.144
6890.813
6833.184
6810.999
6792.512
6779.101
6769.784
6764.832
6764.178
6767.595
6775.01
6787.247
6798.375
6816.62
6837.387
6860.528
6886.127
6913.887
6943.574
6974.851
7006.997
7037.561
7071.21
7106.307
7140.844
7175.012
7208.793
7242.067
7274.827
7306.652
7338.108
7367.309
7395.12
7421.773
7447.362
7471.769
7494.906
7516.77
7537.709
7502.453
7520.378
7535.193
7549.837
7564.265
7577.865
7590.455
7602.127
7612.982
7623.056
7632.347
7640.949
7649.034
7656.62
7663.715
7670.37
7676.662
7682.645
7688.358
7693.825
7699.043
7704.212
7709.367
7714.501
7719.635
7724.801
7729.999
7735.291
7740.683
7746.157
7751.725
7757.439
7763.313
7769.344
7775.523
7781.841
7788.259
7794.918
7801.614
7808.572
7815.68
7822.895
7830.273
7837.836
7845.586
7853.536
7861.702
7870.103
7878.71
7887.55
7896.659
7906.049
7915.727
7925.711
7936.02
7946.673
7957.628
7968.71
7979.304
7989.864
8000.757
8011.594
8021.978
8031.933
8041.635
8051.144
8060.437
8069.475
8078.221
8086.634
8094.671
8102.298
8109.49
8116.249
8122.613
8128.674
8134.582
8140.556
8146.629
8152.718
8159.067
8165.226
8169.763
8172.045
8172.12
8169.875
8165.499
8161.866
8160.444
8160.242
8160.132
8159.802
8159.307
8158.708
8158.007
8157.195
8156.289
8155.291
8154.225
8153.115
8151.965
8150.805
8149.628
8148.457
8147.291
8146.14
8145.013
8143.913
8142.845
8141.811
8140.813
8139.851
8138.926
8138.037
8137.181
8136.357
8135.563
8134.799
8134.041
8133.314
8132.603
8131.902
8131.209
8130.531
8129.81
8129.092
8128.364
8127.619
8126.851
8126.058
8125.238
8124.392
8123.525
8122.65
8121.788
8120.961
8120.161
8119.331
8118.371
8117.292
8116.148
8114.968
8113.755
8112.505
8111.216
8109.891
8108.532
8107.139
8105.714
8104.259
8102.776
8101.268
8099.735
8098.179
8096.601
8095.003
8093.385
8091.749
8090.093
8088.421
8086.731
8085.02
8083.29
8081.541
8079.774
8077.988
8076.18
8074.351
8072.5
8070.627
8068.731
8066.814
8064.875
8062.915
8060.931
8058.918
8056.901
8054.853
8052.789
8050.71
8048.618
8046.525
8044.441
8042.389
8040.418
8038.602
8037.056
8035.387
8033.45
8031.423
8029.406
8027.427
8025.48
8023.558
8021.664
8019.793
8017.951
8016.143
8014.37
8012.632
8010.931
8009.265
8007.636
8006.043
8004.485
8002.96
8001.466
7999.998
7998.553
7997.126
7995.709
7994.294
7992.872
7991.431
7989.955
7988.429
7986.834
7985.18
7983.516
7981.963
7980.77
7980.253
7980.615
7981.676
7982.969
7984.216
7985.365
7986.438
7987.457
7988.429
7989.354
7990.233
7991.07
7991.868
7992.627
7993.349
7994.033
7994.678
7995.284
7995.847
7996.368
7996.843
7997.271
7997.649
7997.974
7998.246
7998.461
7998.617
7998.711
7998.744
7998.711
7998.617
7998.451
7998.233
7997.927
7997.551
7996.523
7994.668
7993.249
7992.471
7991.888
7991.186
7990.332
7989.323
7988.176
7986.913
7985.559
7984.125
7982.612
7981.02
7979.351
7977.607
7975.794
7973.917
7971.978
7969.977
7967.919
7965.807
7963.645
7961.438
7959.191
7956.906
7954.591
7952.249
7949.886
7947.507
7945.12
7942.728
7940.34
7937.961
7935.599
7933.261
7930.955
7928.69
7926.473
7924.314
7922.22
7920.193
7918.229
7916.317
7914.431
7912.545
7910.625
7908.67
7906.767
7905
7903.392
7901.96
7900.805
7900.263
7900.14
7899.589
7898.58
7897.583
7896.892
7896.56
7896.577
7896.921
7897.562
7898.49
7899.699
7901.186
7902.948
7904.981
7907.285
7909.861
7912.706
7915.82
7919.2
7922.845
7926.751
7930.915
7935.332
7939.999
7944.909
7950.056
7955.434
7961.033
7966.847
7972.866
7979.08
7985.479
7992.053
7998.789
8005.678
8012.705
8019.859
8027.128
8034.496
8041.952
8049.482
8057.07
8064.705
8072.371
8080.053
8087.739
8095.412
8103.06
8110.667
8118.219
8125.701
8133.099
8140.399
8147.586
8154.645
8161.563
8168.324
8174.914
8181.318
8187.522
8193.51
8199.267
8204.779
8210.028
8215.001
8219.679
8224.048
8228.088
8231.782
8235.111
8238.054
8240.59
8242.695
8244.341
8245.506
8246.158
8246.28
8245.865
8244.956
8243.668
8242.208
8240.87
8239.871
8240.001
8240.83
4795.158
4897.41
4998.509
5102.028
5218.541
5323.368
5454.616
5588.617
5724.144
5853.797
5982.849
6113.691
6236.654
6351.233
6454.727
6544.849
6620.117
6679.965
6724.577
6754.703
6771.727
6777.828
6774.368
6761.902
6742.892
6719.531
6693.467
6666.262
6639.167
6613.411
6591.986
6494.808
6478.492
6465.834
6454.957
6447.595
6444.737
6446.252
6451.699
6460.835
6473.549
6489.558
6508.305
6529.866
6554.271
6581.22
6610.212
6640.821
6672.791
6705.819
6739.183
6772.753
6807.059
6841.747
6876.267
6910.329
6943.795
6976.523
7008.343
7039.027
7068.396
7096.536
7123.441
7149.101
7173.451
7196.53
7218.271
7239.279
7259.639
7277.068
7292.797
7307.947
7322.5
7336.109
7348.671
7360.284
7371.054
7381.053
7390.329
7398.908
7406.855
7414.264
7421.203
7427.734
7433.904
7439.755
7445.329
7450.678
7455.834
7460.89
7465.908
7470.915
7475.941
7481.049
7486.075
7491.233
7496.49
7501.864
7507.356
7512.987
7518.774
7524.713
7530.796
7537.019
7543.367
7549.898
7556.594
7563.446
7570.452
7577.59
7584.876
7592.327
7599.953
7607.767
7615.783
7624.015
7632.467
7641.158
7650.109
7659.329
7668.823
7678.603
7688.672
7699.019
7709.594
7720.272
7730.786
7741.282
7751.898
7762.464
7772.768
7782.782
7792.57
7802.16
7811.533
7820.657
7829.496
7838.013
7846.174
7853.949
7861.326
7868.307
7874.922
7881.231
7887.331
7893.334
7899.232
7904.96
7910.525
7915.592
7919.441
7921.673
7922.23
7921.186
7918.853
7916.583
7915.289
7914.726
7914.339
7913.877
7913.318
7912.679
7911.958
7911.149
7910.256
7909.291
7908.266
7907.197
7906.093
7904.963
7903.828
7902.689
7901.562
7900.447
7899.353
7898.284
7897.245
7896.237
7895.263
7894.323
7893.419
7892.548
7891.71
7890.904
7890.124
7889.365
7888.644
7887.927
7887.224
7886.53
7885.842
7885.157
7884.458
7883.752
7883.034
7882.3
7881.546
7880.769
7879.968
7879.144
7878.301
7877.445
7876.587
7875.732
7874.872
7873.981
7873.017
7871.969
7870.85
7869.679
7868.467
7867.214
7865.922
7864.593
7863.227
7861.827
7860.394
7858.931
7857.439
7855.92
7854.375
7852.806
7851.215
7849.602
7847.969
7846.316
7844.644
7842.954
7841.245
7839.519
7837.773
7836.01
7834.226
7832.423
7830.599
7828.754
7826.888
7825.001
7823.092
7821.161
7819.21
7817.238
7815.245
7813.233
7811.211
7809.175
7807.125
7805.064
7802.997
7800.932
7798.88
7796.86
7794.89
7792.98
7791.107
7789.202
7787.326
7785.397
7783.453
7781.517
7779.597
7777.69
7775.832
7773.989
7772.169
7770.38
7768.624
7766.901
7765.213
7763.561
7761.944
7760.364
7758.819
7757.309
7755.831
7754.382
7752.957
7751.555
7750.168
7748.791
7747.417
7746.04
7744.651
7743.286
7741.912
7740.551
7739.251
7738.111
7737.273
7736.864
7737.005
7737.663
7738.611
7739.612
7740.582
7741.523
7742.444
7743.344
7744.215
7745.055
7745.863
7746.64
7747.385
7748.098
7748.776
7749.42
7750.026
7750.593
7751.118
7751.6
7752.035
7752.422
7752.757
7753.038
7753.263
7753.429
7753.532
7753.573
7753.547
7753.452
7753.283
7753.035
7752.684
7752.175
7751.565
7751.012
7750.426
7749.517
7748.362
7747.19
7746.041
7744.852
7743.583
7742.236
7740.818
7739.334
7737.782
7736.161
7734.47
7732.709
7730.882
7728.988
7727.032
7725.016
7722.943
7720.816
7718.64
7716.419
7714.157
7711.857
7709.527
7707.169
7704.79
7702.394
7699.987
7697.576
7695.166
7692.764
7690.376
7688.009
7685.671
7683.368
7681.107
7678.895
7676.735
7674.632
7672.584
7670.584
7668.621
7666.675
7664.729
7662.798
7660.934
7659.188
7657.589
7656.149
7654.843
7653.579
7652.264
7651.137
7650.405
7650.013
7649.888
7649.959
7650.221
7650.7
7651.417
7652.383
7653.608
7655.096
7656.848
7658.869
7661.159
7663.721
7666.554
7669.658
7673.031
7676.671
7680.576
7684.742
7689.165
7693.84
7698.762
7703.924
7709.32
7714.94
7720.778
7726.824
7733.067
7739.499
7746.107
7752.881
7759.809
7766.878
7774.076
7781.39
7788.806
7796.311
7803.891
7811.531
7819.219
7826.938
7834.676
7842.417
7850.147
7857.852
7865.517
7873.127
7880.667
7888.124
7895.483
7902.729
7909.847
7916.824
7923.645
7930.295
7936.759
7943.024
7949.073
7954.893
7960.469
7965.784
7970.825
7975.575
7980.018
7984.138
7987.918
7991.341
7994.388
7997.042
7999.285
8001.096
8002.461
8003.367
8003.816
8003.825
8003.445
8002.762
8001.886
8000.995
8000.272
7999.938
7999.475
4139.271
4153.336
4173.136
4175.911
4194.74
4192.613
4226.566
4267.596
4316.953
4375.268
4443.767
4517.884
4604.044
4700.286
4804.113
4915.313
5000.181
5129.676
5262.635
5396.748
5531.968
5667.81
5801.052
5926.762
6041.835
6144.454
6232.49
6304.901
6361.47
6402.67
6429.552
6443.621
6446.67
6440.452
6426.536
6406.683
6382.808
6356.566
6329.273
6302.112
6276.187
6251.913
6229.556
6212.299
6199.636
6190.032
6183.9
6181.913
6184.152
6190.37
6200.348
6213.849
6230.564
6250.366
6273.119
6298.43
6326.006
6355.603
6386.88
6419.525
6453.26
6487.723
6522.598
6557.775
6593.065
6628.17
6662.836
6696.89
6730.176
6762.521
6793.786
6823.795
6852.481
6879.848
6905.906
6930.644
6954.083
6976.269
6997.158
7016.614
7034.325
7050.625
7065.955
7080.434
7093.972
7106.521
7118.136
7128.897
7138.871
7148.102
7156.63
7164.527
7171.878
7178.748
7185.188
7191.249
7196.981
7202.435
7207.665
7212.714
7217.649
7222.53
7227.391
7232.254
7237.127
7242.24
7247.425
7252.563
7257.86
7263.292
7268.866
7274.588
7280.459
7286.476
7292.638
7298.941
7305.414
7312.03
7318.787
7325.685
7332.719
7339.894
7347.224
7354.722
7362.398
7370.267
7378.342
7386.635
7395.17
7403.97
7413.03
7422.344
7431.925
7441.772
7451.864
7462.15
7472.543
7482.923
7493.313
7503.75
7514.146
7524.383
7534.416
7544.257
7553.909
7563.35
7572.548
7581.467
7590.07
7598.325
7606.207
7613.703
7620.82
7627.572
7633.991
7640.141
7646.104
7651.854
7657.295
7662.349
7666.781
7670.218
7672.412
7673.312
7673.05
7671.916
7670.562
7669.537
7668.889
7668.387
7667.862
7667.267
7666.602
7665.868
7665.06
7664.183
7663.242
7662.249
7661.215
7660.149
7659.061
7657.968
7656.877
7655.791
7654.718
7653.663
7652.632
7651.627
7650.652
7649.707
7648.795
7647.916
7647.068
7646.251
7645.463
7644.7
7643.96
7643.246
7642.549
7641.863
7641.185
7640.511
7639.836
7639.154
7638.463
7637.76
7637.041
7636.303
7635.543
7634.76
7633.953
7633.126
7632.283
7631.426
7630.556
7629.666
7628.741
7627.761
7626.713
7625.601
7624.435
7623.224
7621.973
7620.682
7619.353
7617.986
7616.583
7615.146
7613.676
7612.177
7610.649
7609.094
7607.513
7605.909
7604.283
7602.635
7600.967
7599.279
7597.572
7595.847
7594.104
7592.341
7590.56
7588.759
7586.938
7585.097
7583.236
7581.354
7579.451
7577.527
7575.583
7573.619
7571.636
7569.635
7567.619
7565.589
7563.546
7561.492
7559.432
7557.369
7555.312
7553.268
7551.249
7549.264
7547.316
7545.408
7543.522
7541.631
7539.711
7537.778
7535.855
7533.949
7532.066
7530.172
7528.315
7526.493
7524.704
7522.949
7521.228
7519.543
7517.894
7516.283
7514.71
7513.178
7511.687
7510.234
7508.814
7507.425
7506.063
7504.726
7503.411
7502.116
7500.838
7499.581
7498.313
7497.088
7495.927
7494.869
7493.979
7493.338
7493.025
7493.096
7493.533
7494.216
7495.004
7495.822
7496.651
7497.486
7498.317
7499.137
7499.938
7500.719
7501.476
7502.209
7502.913
7503.588
7504.231
7504.84
7505.411
7505.944
7506.433
7506.878
7507.275
7507.621
7507.913
7508.149
7508.325
7508.439
7508.487
7508.467
7508.374
7508.202
7507.944
7507.59
7507.138
7506.626
7506.009
7505.169
7504.156
7503.1
7502.056
7500.99
7499.856
7498.632
7497.32
7495.927
7494.457
7492.911
7491.291
7489.596
7487.829
7485.992
7484.088
7482.12
7480.09
7478.003
7475.862
7473.67
7471.432
7469.152
7466.834
7464.484
7462.106
7459.704
7457.286
7454.855
7452.417
7449.979
7447.547
7445.126
7442.724
7440.347
7438
7435.689
7433.418
7431.191
7429.016
7426.892
7424.816
7422.781
7420.784
7418.806
7416.862
7415
7413.244
7411.616
7410.123
7408.769
7407.585
7406.664
7405.944
7405.33
7404.713
7404.298
7404.137
7404.242
7404.617
7405.261
7406.172
7407.352
7408.802
7410.523
7412.516
7414.784
7417.327
7420.145
7423.237
7426.602
7430.239
7434.145
7438.316
7442.749
7447.438
7452.377
7457.561
7462.982
7468.632
7474.503
7480.585
7486.868
7493.343
7499.998
7506.821
7513.8
7520.924
7528.178
7535.551
7543.028
7550.596
7558.24
7565.947
7573.702
7581.49
7589.297
7597.109
7604.911
7612.687
7620.424
7628.106
7635.72
7643.25
7650.682
7658.002
7665.194
7672.245
7679.14
7685.864
7692.404
7698.744
7704.87
7710.768
7716.422
7721.819
7726.944
7731.781
7736.316
7740.533
7744.416
7747.951
7751.122
7753.915
7756.315
7758.309
7759.891
7761.056
7761.814
7762.186
7762.213
7761.959
7761.499
7760.967
7760.408
7759.919
7759.028
4098.263
4076.91
4052.573
4013.985
3989.671
3933.251
3914.105
3898.641
3887.242
3880.105
3877.486
3879.57
3886.869
3899.396
3916.793
3887.602
3920.548
3960.48
4008.565
4065.709
4132.131
4207.503
4291.859
4385.898
4488.972
4600.142
4717.676
4844.74
4976.162
5111.136
5247.363
5383.909
5517.222
5642.629
5757.009
5858.368
5945.073
6016.228
6071.712
6112.076
6138.421
6152.255
6155.342
6149.484
6136.368
6117.677
6095.128
6070.311
6044.537
6018.962
5994.513
5972.231
5952.811
5937.241
5925.676
5917.61
5912.986
5912.067
5915.089
5922.133
5932.993
5947.346
5964.948
5985.831
6009.492
6035.761
6064.34
6094.945
6127.263
6160.979
6195.803
6231.416
6267.467
6303.723
6340.008
6376.093
6411.737
6446.728
6480.891
6514.079
6546.146
6576.932
6606.359
6634.399
6661.052
6686.313
6710.175
6732.637
6753.633
6773.235
6791.408
6808.197
6823.814
6838.419
6852.038
6864.667
6876.342
6887.133
6897.105
6906.315
6914.819
6922.685
6929.983
6936.778
6943.127
6949.084
6954.705
6960.045
6965.159
6970.098
6974.922
6979.685
6984.43
6989.189
6993.996
6998.894
7003.839
7009.02
7014.277
7019.649
7025.169
7030.835
7036.645
7042.6
7048.698
7054.936
7061.326
7067.865
7074.54
7081.338
7088.263
7095.325
7102.535
7109.904
7117.445
7125.168
7133.088
7141.217
7149.573
7158.172
7167.027
7176.145
7185.526
7195.161
7205.029
7215.088
7225.282
7235.538
7245.833
7256.161
7266.47
7276.683
7286.751
7296.655
7306.379
7315.899
7325.179
7334.181
7342.868
7351.208
7359.173
7366.748
7373.935
7380.74
7387.175
7393.263
7399.034
7404.493
7409.617
7414.332
7418.409
7421.593
7423.769
7424.93
7425.191
7424.774
7424.037
7423.32
7422.741
7422.228
7421.69
7421.089
7420.421
7419.69
7418.895
7418.038
7417.127
7416.168
7415.174
7414.152
7413.112
7412.066
7411.021
7409.98
7408.952
7407.942
7406.952
7405.988
7405.051
7404.143
7403.265
7402.417
7401.599
7400.81
7400.048
7399.31
7398.595
7397.901
7397.223
7396.556
7395.896
7395.24
7394.581
7393.917
7393.243
7392.557
7391.854
7391.132
7390.389
7389.624
7388.834
7388.02
7387.184
7386.329
7385.45
7384.544
7383.599
7382.606
7381.555
7380.448
7379.288
7378.082
7376.832
7375.541
7374.211
7372.842
7371.436
7369.994
7368.518
7367.012
7365.475
7363.91
7362.319
7360.703
7359.064
7357.403
7355.721
7354.018
7352.297
7350.556
7348.796
7347.017
7345.219
7343.402
7341.564
7339.706
7337.827
7335.928
7334.008
7332.067
7330.106
7328.125
7326.128
7324.115
7322.086
7320.043
7317.989
7315.926
7313.859
7311.793
7309.733
7307.685
7305.657
7303.655
7301.68
7299.734
7297.803
7295.873
7293.934
7291.996
7290.067
7288.156
7286.265
7284.394
7282.556
7280.749
7278.975
7277.236
7275.532
7273.867
7272.239
7270.651
7269.101
7267.586
7266.105
7264.659
7263.25
7261.878
7260.541
7259.238
7257.967
7256.728
7255.52
7254.349
7253.218
7252.15
7251.165
7250.295
7249.585
7249.086
7248.844
7248.885
7249.192
7249.704
7250.339
7251.04
7251.777
7252.536
7253.308
7254.081
7254.848
7255.604
7256.344
7257.065
7257.764
7258.437
7259.082
7259.695
7260.274
7260.815
7261.316
7261.772
7262.182
7262.541
7262.847
7263.097
7263.286
7263.412
7263.472
7263.461
7263.375
7263.209
7262.957
7262.617
7262.184
7261.652
7260.986
7260.178
7259.277
7258.324
7257.321
7256.253
7255.109
7253.88
7252.566
7251.17
7249.694
7248.141
7246.51
7244.804
7243.025
7241.174
7239.256
7237.271
7235.225
7233.119
7230.958
7228.746
7226.486
7224.184
7221.843
7219.468
7217.063
7214.635
7212.187
7209.726
7207.257
7204.785
7202.315
7199.854
7197.41
7194.987
7192.591
7190.229
7187.903
7185.601
7183.348
7181.143
7178.982
7176.865
7174.791
7172.782
7170.842
7168.967
7167.188
7165.527
7163.998
7162.613
7161.384
7160.314
7159.366
7158.542
7158.032
7157.729
7157.641
7157.772
7158.146
7158.771
7159.656
7160.806
7162.226
7163.919
7165.887
7168.132
7170.656
7173.459
7176.541
7179.901
7183.538
7187.448
7191.628
7196.075
7200.783
7205.747
7210.959
7216.413
7222.101
7228.014
7234.142
7240.476
7247.005
7253.717
7260.601
7267.645
7274.836
7282.16
7289.605
7297.157
7304.802
7312.525
7320.312
7328.149
7336.021
7343.912
7351.809
7359.697
7367.56
7375.385
7383.155
7390.856
7398.475
7405.995
7413.403
7420.684
7427.823
7434.807
7441.621
7448.25
7454.681
7460.898
7466.888
7472.637
7478.13
7483.354
7488.294
7492.938
7497.268
7501.267
7504.931
7508.242
7511.187
7513.758
7515.945
7517.745
7519.16
7520.199
7520.884
7521.245
7521.334
7521.199
7520.927
7520.505
7520.024
7519.05
4034.32
3978.225
3937.634
3895.741
3856.892
3823.075
3791.408
3761.975
3735.326
3709.232
3621.848
3602.562
3587.337
3576.273
3569.591
3567.536
3570.2
3577.622
3590.078
3608.181
3631.695
3662.647
3700.172
3745.064
3798.328
3860.236
3931.775
4013.6
4105.451
4207.745
4320.403
4439.618
4566.175
4697.835
4832.521
4967.935
5102.188
5232.296
5354.421
5465.354
5562.977
5645.975
5713.707
5766.227
5804.202
5828.807
5841.568
5844.192
5838.444
5826.027
5808.58
5787.695
5764.842
5741.264
5718.046
5696.153
5676.552
5659.889
5646.56
5636.846
5630.757
5628.219
5629.325
5634.25
5643.056
5655.599
5671.614
5690.754
5712.843
5737.909
5765.606
5795.622
5827.667
5861.44
5896.619
5932.91
5970.015
6007.607
6045.414
6083.216
6120.78
6157.862
6194.229
6229.68
6264.04
6297.172
6328.951
6359.299
6388.184
6415.591
6441.511
6465.932
6488.861
6510.3
6530.309
6548.896
6566.087
6582.015
6596.823
6610.581
6623.316
6635.071
6645.912
6655.906
6665.119
6673.611
6681.449
6688.699
6695.427
6701.694
6707.557
6713.075
6718.306
6723.306
6728.131
6732.837
6737.478
6742.098
6746.735
6751.424
6756.198
6761.076
6766.107
6771.27
6776.575
6782.027
6787.624
6793.361
6799.24
6805.26
6811.412
6817.696
6824.111
6830.659
6837.338
6844.149
6851.095
6858.186
6865.431
6872.842
6880.431
6888.208
6896.184
6904.368
6912.769
6921.419
6930.335
6939.508
6948.925
6958.57
6968.415
6978.422
6988.537
6998.716
7008.934
7019.159
7029.338
7039.417
7049.359
7059.135
7068.716
7078.065
7087.144
7095.917
7104.349
7112.411
7120.08
7127.347
7134.212
7140.666
7146.694
7152.276
7157.453
7162.248
7166.6
7170.342
7173.317
7175.472
7176.81
7177.421
7177.463
7177.157
7176.723
7176.273
7175.811
7175.301
7174.724
7174.079
7173.372
7172.604
7171.781
7170.908
7169.993
7169.047
7168.076
7167.089
7166.096
7165.101
7164.116
7163.141
7162.181
7161.241
7160.324
7159.432
7158.567
7157.73
7156.921
7156.14
7155.385
7154.656
7153.949
7153.262
7152.594
7151.939
7151.294
7150.655
7150.019
7149.38
7148.735
7148.08
7147.411
7146.726
7146.021
7145.295
7144.545
7143.77
7142.97
7142.143
7141.289
7140.406
7139.49
7138.535
7137.533
7136.481
7135.376
7134.22
7133.018
7131.771
7130.482
7129.15
7127.778
7126.367
7124.921
7123.44
7121.927
7120.383
7118.809
7117.209
7115.582
7113.932
7112.258
7110.563
7108.848
7107.112
7105.357
7103.582
7101.788
7099.974
7098.141
7096.286
7094.411
7092.515
7090.599
7088.661
7086.7
7084.717
7082.716
7080.699
7078.668
7076.627
7074.571
7072.503
7070.428
7068.35
7066.273
7064.203
7062.143
7060.099
7058.076
7056.074
7054.091
7052.124
7050.165
7048.21
7046.263
7044.329
7042.414
7040.522
7038.654
7036.814
7035.006
7033.231
7031.492
7029.79
7028.126
7026.503
7024.92
7023.377
7021.875
7020.413
7018.992
7017.613
7016.275
7014.978
7013.721
7012.506
7011.333
7010.205
7009.127
7008.109
7007.165
7006.315
7005.583
7005.002
7004.603
7004.411
7004.439
7004.675
7005.084
7005.614
7006.225
7006.888
7007.587
7008.309
7009.043
7009.781
7010.516
7011.242
7011.955
7012.65
7013.325
7013.974
7014.595
7015.184
7015.737
7016.251
7016.722
7017.147
7017.523
7017.846
7018.112
7018.318
7018.459
7018.533
7018.536
7018.462
7018.308
7018.068
7017.739
7017.313
7016.783
7016.144
7015.4
7014.566
7013.65
7012.656
7011.586
7010.436
7009.203
7007.886
7006.485
7005.002
7003.439
7001.797
7000.077
6998.283
6996.415
6994.478
6992.473
6990.405
6988.277
6986.091
6983.854
6981.567
6979.237
6976.867
6974.461
6972.025
6969.563
6967.08
6964.583
6962.076
6959.564
6957.052
6954.545
6952.046
6949.566
6947.107
6944.675
6942.274
6939.927
6937.613
6935.338
6933.107
6930.924
6928.794
6926.728
6924.732
6922.814
6920.992
6919.286
6917.708
6916.27
6914.981
6913.847
6912.871
6912.069
6911.493
6911.133
6910.991
6911.088
6911.426
6912.015
6912.864
6913.979
6915.367
6917.03
6918.972
6921.195
6923.702
6926.493
6929.568
6932.926
6936.567
6940.486
6944.682
6949.149
6953.883
6958.878
6964.128
6969.624
6975.36
6981.325
6987.51
6993.905
7000.499
7007.281
7014.239
7021.359
7028.63
7036.038
7043.569
7051.209
7058.944
7066.76
7074.641
7082.574
7090.543
7098.533
7106.53
7114.518
7122.482
7130.408
7138.28
7146.083
7153.804
7161.426
7168.937
7176.32
7183.562
7190.649
7197.566
7204.299
7210.834
7217.157
7223.254
7229.111
7234.715
7240.052
7245.108
7249.871
7254.326
7258.464
7262.27
7265.731
7268.84
7271.589
7273.973
7275.989
7277.641
7278.938
7279.9
7280.548
7280.923
7281.05
7280.99
7280.711
7280.305
7279.365
3762.158
3703.399
3594.078
3561.712
3529.612
3499.078
3469.864
3441.923
3415.444
3391.064
3369.748
3350.872
3335.679
3324.497
3317.683
3315.314
3317.507
3324.394
3336.142
3352.963
3375.457
3404.346
3439.986
3482.468
3532.818
3592.551
3662.577
3743.439
3834.713
3936.52
4048.161
4167.181
4292.543
4422.708
4555.276
4687.672
4817.413
4941.745
5057.583
5162.152
5253.477
5330.494
5392.86
5440.855
5475.291
5497.419
5508.751
5510.912
5505.555
5494.268
5478.584
5460.014
5439.913
5419.38
5399.393
5380.821
5364.426
5350.722
5340.089
5332.942
5329.463
5329.637
5333.457
5340.961
5352.14
5366.842
5384.864
5406.278
5430.653
5457.774
5487.451
5519.444
5553.471
5589.231
5626.413
5664.713
5703.824
5743.437
5783.257
5823.021
5862.473
5901.363
5939.452
5976.525
6012.386
6046.908
6079.983
6111.522
6141.484
6169.85
6196.609
6221.763
6245.333
6267.344
6287.841
6306.861
6324.457