/*--------------------------------*- C++ -*----------------------------------*\
| =========                 |                                                 |
| \\      /  F ield         | foam-extend: Open Source CFD                    |
|  \\    /   O peration     | Version:     3.1                                |
|   \\  /    A nd           | Web:         http://www.extend-project.de       |
|    \\/     M anipulation  |                                                 |
\*---------------------------------------------------------------------------*/
FoamFile
{
    version     2.0;
    format      ascii;
    class       surfaceScalarField;
    location    "5.5";
    object      phi;
}
// * * * * * * * * * * * * * * * * * * * * * * * * * * * * * * * * * * * * * //

dimensions      [0 3 -1 0 0 0 0];

internalField   nonuniform List<scalar> 
275122
(
-5.917083e-05
6.008872e-05
-2.677441e-08
-8.911162e-07
-5.60311e-05
5.404376e-05
1.719811e-07
1.815361e-06
-5.825668e-05
6.063492e-05
-2.269131e-08
-2.355551e-06
-6.826175e-05
7.080343e-05
-2.020106e-08
-2.521481e-06
-7.755284e-05
7.897628e-05
-1.664545e-08
-1.406796e-06
-8.122099e-05
8.17612e-05
-1.211959e-08
-5.280917e-07
-8.329872e-05
8.374685e-05
-9.322438e-09
-4.388014e-07
-8.494768e-05
8.531047e-05
-7.761705e-09
-3.550367e-07
-8.6297e-05
8.659061e-05
-6.953517e-09
-2.866603e-07
-8.739293e-05
8.763284e-05
-5.850965e-09
-2.340674e-07
-8.827994e-05
8.846972e-05
-4.616878e-09
-1.85162e-07
-8.896743e-05
8.910808e-05
-3.690243e-09
-1.369592e-07
-8.94599e-05
8.955223e-05
-3.126096e-09
-8.920529e-08
-8.975866e-05
8.980194e-05
-2.568364e-09
-4.070315e-08
-8.985879e-05
8.98446e-05
-1.95439e-09
1.614487e-08
-8.969556e-05
8.962261e-05
-1.632911e-09
7.45827e-08
-8.934652e-05
8.92376e-05
-2.166021e-09
1.110847e-07
-8.886262e-05
8.873537e-05
-5.800334e-09
1.330543e-07
-8.83584e-05
8.829295e-05
-2.543362e-08
9.088219e-08
-8.84266e-05
8.887854e-05
-1.306952e-07
-3.212444e-07
-9.985158e-05
0.0001035487
-2.644255e-07
-3.432652e-06
-0.0001060937
0.0001068237
-1.145931e-07
-6.153733e-07
-0.0001090437
0.0001100394
-5.93328e-08
-9.363189e-07
-0.0001229786
0.0001271838
1.24507e-07
-4.329713e-06
-0.0001298236
0.0001304477
1.720901e-07
-7.961552e-07
-0.0001326466
0.0001331394
4.778422e-08
-5.405556e-07
-0.0001339547
0.0001340338
2.963491e-08
-1.087283e-07
-0.0001335596
0.0001327845
2.428631e-08
7.508456e-07
-0.0001258064
0.0001180105
1.979947e-08
7.776012e-06
-0.0001580734
0.0001622122
2.99042e-09
-4.141792e-06
-2.993015e-05
3.100035e-05
-7.641576e-09
-1.062564e-06
-3.420533e-05
3.537928e-05
1.272667e-09
-1.175218e-06
-3.928472e-05
4.069282e-05
1.107813e-09
-1.409205e-06
-4.51316e-05
4.666938e-05
9.304652e-10
-1.538706e-06
-5.135799e-05
5.293268e-05
7.102944e-10
-1.5754e-06
-5.766566e-05
5.924172e-05
6.023911e-10
-1.576661e-06
-6.396997e-05
6.554346e-05
4.694022e-10
-1.573964e-06
-7.027649e-05
7.184973e-05
4.258342e-10
-1.573659e-06
-7.659654e-05
7.817975e-05
2.911076e-10
-1.583503e-06
-8.313671e-05
8.518464e-05
2.392592e-08
-2.071859e-06
1.136386e-06
-5.840456e-05
5.880934e-05
-2.187736e-10
-1.540947e-06
1.351466e-06
-5.987511e-05
6.016537e-05
-1.0733e-10
-1.641623e-06
1.530099e-06
-6.085866e-05
6.105523e-05
-5.381651e-11
-1.726615e-06
1.609503e-06
-6.159934e-05
6.177559e-05
2.721578e-11
-1.785775e-06
1.646076e-06
-6.229738e-05
6.247324e-05
7.985537e-12
-1.821936e-06
1.671054e-06
-6.300161e-05
6.318152e-05
-4.313741e-11
-1.850922e-06
1.700808e-06
-6.372509e-05
6.390921e-05
1.607247e-12
-1.884928e-06
1.756311e-06
-6.447867e-05
6.466228e-05
8.087021e-11
-1.94e-06
2.05145e-06
-6.517327e-05
6.519111e-05
3.416829e-10
-2.069635e-06
1.31481e-06
-0.0002737833
0.0002767461
2.422494e-12
-9.001195e-06
1.712184e-06
1.306279e-06
1.705082e-06
1.873358e-06
-0.0002786604
0.0002803688
2.907202e-12
-9.360172e-06
1.946364e-06
1.87751e-06
1.954609e-06
2.035875e-06
-0.0002820461
0.0002837978
3.120086e-12
-9.954739e-06
2.058542e-06
2.044068e-06
2.064536e-06
2.122512e-06
-0.000285634
0.0002876027
3.338186e-12
-1.047488e-05
2.131137e-06
2.122347e-06
2.13014e-06
2.18772e-06
-0.0002896463
0.0002917986
3.557391e-12
-1.09211e-05
2.198163e-06
2.186184e-06
2.196735e-06
2.259326e-06
-0.0002939996
0.0002962949
3.806683e-12
-1.135729e-05
2.272681e-06
2.258327e-06
2.271688e-06
2.341178e-06
-0.0002986293
0.0003010547
4.036952e-12
-1.182106e-05
2.357466e-06
2.34034e-06
2.356608e-06
2.437835e-06
-0.0003035169
0.0003060664
4.176458e-12
-1.234324e-05
2.459731e-06
2.437184e-06
2.458943e-06
2.571216e-06
-0.0003086277
0.0003112133
4.222087e-12
-1.295274e-05
2.613122e-06
2.570721e-06
2.612106e-06
2.562206e-06
-0.0003137363
0.000316798
4.149855e-12
-1.341671e-05
2.61545e-06
2.561949e-06
2.615431e-06
2.792519e-06
-0.0003195478
0.0003224234
4.124848e-12
-1.40205e-05
2.779266e-06
2.793418e-06
2.779705e-06
2.915419e-06
-0.0003253925
0.0003284585
4.183876e-12
-1.477897e-05
2.941252e-06
2.915265e-06
2.941091e-06
3.079705e-06
-0.0003315631
0.00033478
4.276197e-12
-1.559013e-05
3.107578e-06
3.079058e-06
3.106887e-06
3.235419e-06
-0.0003380497
0.0003414425
4.302141e-12
-1.638574e-05
3.262072e-06
3.234385e-06
3.260969e-06
3.388534e-06
-0.0003448948
0.0003484733
4.270294e-12
-1.718244e-05
3.415912e-06
3.386258e-06
3.413259e-06
3.552302e-06
-0.0003521107
0.0003558712
4.219966e-12
-1.801818e-05
3.583698e-06
3.545844e-06
3.575891e-06
3.755135e-06
-0.0003596833
0.0003635933
4.086669e-12
-1.897082e-05
3.800364e-06
3.732617e-06
3.772688e-06
4.095956e-06
-0.0003674898
0.0003712907
3.947386e-12
-2.021011e-05
4.19986e-06
4.015653e-06
4.097664e-06
4.752692e-06
-0.000374683
0.0003772486
3.956031e-12
-2.154403e-05
5.003264e-06
4.528418e-06
4.694048e-06
1.169518e-05
-0.0003792163
0.0003859214
4.278606e-12
-1.840034e-05
1.316277e-05
-0.0003926782
0.0003977481
4.582617e-12
-1.823263e-05
1.610277e-05
-0.0004020683
0.0004062233
4.839384e-12
-2.025778e-05
1.59816e-05
-0.000410403
0.0004147422
5.077276e-12
-2.032079e-05
1.370209e-05
-0.0004194407
0.0004248015
5.307304e-12
-1.906293e-05
1.199592e-05
-0.0004306038
0.0004365264
5.422188e-12
-1.791849e-05
1.146775e-05
-0.0004424884
0.0004485272
5.392368e-12
-1.750655e-05
1.113867e-05
-0.0004546243
0.0004607786
5.253272e-12
-1.729291e-05
1.091892e-05
-0.0004669751
0.0004732208
5.027661e-12
-1.716471e-05
1.073294e-05
-0.0004795022
0.0004858236
4.720836e-12
-1.705429e-05
1.054289e-05
-0.0004921747
0.0004985547
4.414048e-12
-1.692291e-05
1.033385e-05
-0.0005049569
0.000511375
4.18391e-12
-1.675188e-05
1.009735e-05
-0.0005178071
0.0005242422
4.07296e-12
-1.653241e-05
9.830548e-06
-0.0005306842
0.0005371157
4.06644e-12
-1.626201e-05
9.51366e-06
-0.0005435503
0.000549974
4.095339e-12
-1.593739e-05
9.200844e-06
-0.0005563999
0.0005627971
4.085412e-12
-1.559803e-05
8.941439e-06
-0.0005691842
0.0005755378
4.03587e-12
-1.529504e-05
8.795364e-06
-0.0005818741
0.0005881831
3.951759e-12
-1.510437e-05
8.976753e-06
-0.0005944328
0.0006006532
3.839154e-12
-1.519707e-05
1.001508e-05
-0.0006065938
0.0006124196
3.716707e-12
-1.584083e-05
1.162514e-05
-0.0006169555
0.0006219776
3.608008e-12
-1.664726e-05
1.073142e-05
-0.0006277189
0.0006333643
3.553639e-12
-1.637682e-05
1.369209e-05
-0.0006383986
0.00064264
3.554519e-12
-1.793344e-05
1.816475e-05
-0.00064428
0.0006455953
3.504737e-12
-1.947999e-05
1.153632e-05
-0.0006481554
0.0006519819
3.444966e-12
-1.53628e-05
7.186042e-06
-0.0006560351
0.0006597044
3.401295e-12
-1.085533e-05
3.162386e-06
-0.0006632652
0.0006666202
3.377708e-12
-6.51737e-06
-3.635104e-06
-0.000670007
0.0006738294
3.35983e-12
-1.87364e-07
-2.031569e-05
-0.0006790571
0.0006908244
3.305237e-12
8.548471e-06
-3.866618e-06
-0.0007035257
0.0007081687
3.285017e-12
8.189096e-06
-2.520232e-06
-3.890123e-06
-2.555069e-06
-1.112897e-06
-0.0007108347
0.0007136711
3.1091e-12
1.431038e-06
-9.90616e-07
-1.141785e-06
-1.022147e-06
-4.687681e-07
-0.0007160737
0.0007180969
2.919653e-12
-2.303805e-07
-3.99949e-07
-4.976848e-07
-4.264474e-07
-2.965399e-07
-0.0007200619
0.0007219828
2.730319e-12
-7.112803e-07
-2.871486e-07
-3.185316e-07
-3.074138e-07
-2.831976e-07
-0.0007239006
0.0007257367
2.520433e-12
-6.683133e-07
-2.845332e-07
-2.997664e-07
-3.002704e-07
-3.127663e-07
-0.0007275387
0.0007292426
2.201727e-12
-4.138068e-07
-3.194732e-07
-3.259019e-07
-3.319488e-07
-3.63344e-07
-0.0007309
0.0007324568
1.912606e-12
-6.392523e-08
-3.726127e-07
-3.741619e-07
-3.828285e-07
-4.221652e-07
-0.0007339523
0.0007353391
1.782835e-12
3.389276e-07
-4.319637e-07
-4.311679e-07
-4.404297e-07
-4.787662e-07
-0.0007366718
0.0007378997
2.118929e-12
7.201706e-07
-4.879444e-07
-4.862927e-07
-4.950341e-07
-5.300851e-07
-0.0007390802
0.0007401628
2.412132e-12
1.066836e-06
-5.384421e-07
-5.364478e-07
-5.445002e-07
-5.767835e-07
-0.000741203
0.0007421466
4.085635e-12
1.389971e-06
-5.843472e-07
-5.824568e-07
-5.89996e-07
-6.162259e-07
-0.0007430458
0.0007438633
8.396049e-12
1.667884e-06
-6.220629e-07
-6.205599e-07
-6.265031e-07
-6.490782e-07
-0.0007446448
0.0007453577
3.085468e-12
1.901424e-06
-6.539326e-07
-6.534222e-07
-6.578279e-07
-6.776883e-07
-0.0007460376
0.0007466592
2.110025e-12
2.104922e-06
-6.821798e-07
-6.811692e-07
-6.854909e-07
-7.010499e-07
-0.0007472539
0.0007477997
9.360838e-13
2.271443e-06
-7.045987e-07
-7.040688e-07
-7.075105e-07
-7.190568e-07
-0.0007483226
0.0007488056
3.871004e-13
2.404015e-06
-7.218065e-07
-7.217364e-07
-7.243998e-07
-7.324426e-07
-0.0007492699
0.0007497034
3.148543e-13
2.505014e-06
-7.344472e-07
-7.348401e-07
-7.367851e-07
-7.417102e-07
-0.0007501228
0.0007505194
2.577731e-13
2.577293e-06
-7.430979e-07
-7.438644e-07
-7.452069e-07
-7.476037e-07
-0.0007509057
0.0007512765
2.815006e-13
2.625273e-06
-7.484808e-07
-7.495502e-07
-7.503716e-07
-7.506232e-07
-0.0007516405
0.0007519956
3.246786e-13
2.651741e-06
-7.510632e-07
-7.523861e-07
-7.527834e-07
-7.512269e-07
-0.0007523475
0.0007526964
4.086749e-13
2.659384e-06
-7.513177e-07
-7.528152e-07
-7.528764e-07
-7.498448e-07
-0.000753045
0.0007533958
3.435584e-13
2.651201e-06
-7.496978e-07
-7.512849e-07
-7.511033e-07
-7.469599e-07
-0.0007537489
0.0007541084
2.170093e-13
2.63015e-06
-7.465766e-07
-7.482677e-07
-7.478447e-07
-7.42851e-07
-0.0007544724
0.0007548466
2.99328e-13
2.5985e-06
-7.423029e-07
-7.440313e-07
-7.434584e-07
-7.377885e-07
-0.0007552272
0.0007556209
2.218385e-13
2.558227e-06
-7.371415e-07
-7.388486e-07
-7.381633e-07
-7.320426e-07
0.0007564398
-1.397596e-14
2.511318e-06
-7.313167e-07
-7.329964e-07
-7.32225e-07
-0.0007560226
-7.258147e-07
-0.0007568663
0.0007573102
4.000442e-13
2.459717e-06
-7.250443e-07
-7.267446e-07
-7.259795e-07
-7.194371e-07
-0.0007577642
0.0007582367
5.242713e-13
2.405442e-06
-7.186558e-07
-7.203446e-07
-7.195514e-07
-7.131179e-07
-0.0007587199
0.0007592225
1.632805e-13
2.350084e-06
-7.124104e-07
-7.13926e-07
-7.131825e-07
-7.071637e-07
-0.0007597361
0.0007602695
1.770462e-15
2.295518e-06
-7.065302e-07
-7.078919e-07
-7.072416e-07
-7.016204e-07
-0.000760814
0.0007613779
-1.425135e-13
2.242716e-06
-7.010696e-07
-7.022916e-07
-7.017203e-07
-6.965616e-07
-0.000761953
0.0007625471
-4.378924e-13
2.192441e-06
-6.960801e-07
-6.971845e-07
-6.966935e-07
-6.919676e-07
-0.0007631519
0.0007637753
-5.914745e-13
2.144879e-06
-6.915697e-07
-6.925419e-07
-6.921297e-07
-6.880079e-07
-0.0007644091
0.0007650603
-2.641061e-13
2.10137e-06
-6.877418e-07
-6.885517e-07
-6.882771e-07
-6.848171e-07
-0.0007657213
0.0007663984
-1.885927e-13
2.062822e-06
-6.846559e-07
-6.853208e-07
-6.851478e-07
-6.82337e-07
-0.0007670847
0.0007677856
2.531732e-13
2.029299e-06
-6.822948e-07
-6.828161e-07
-6.827683e-07
-6.806222e-07
-0.0007684948
0.0007692172
6.826159e-13
2.001139e-06
-6.806869e-07
-6.810748e-07
-6.811284e-07
-6.796122e-07
-0.0007699471
0.0007706884
7.533999e-13
1.978262e-06
-6.797677e-07
-6.800407e-07
-6.801851e-07
-6.791833e-07
-0.0007714364
0.0007721947
5.669016e-13
1.95977e-06
-6.794166e-07
-6.795789e-07
-6.798059e-07
-6.793819e-07
-0.0007729587
0.0007737314
6.779729e-13
1.946223e-06
-6.797143e-07
-6.797461e-07
-6.80071e-07
-6.802223e-07
-0.000774509
0.0007752939
7.482433e-13
1.937495e-06
-6.806466e-07
-6.80541e-07
-6.809484e-07
-6.816485e-07
-0.0007760827
0.0007768781
9.767936e-13
1.932829e-06
-6.82195e-07
-6.81932e-07
-6.824653e-07
-6.83318e-07
-0.0007776768
0.0007784805
1.12866e-12
1.931433e-06
-6.838958e-07
-6.836586e-07
-6.842573e-07
-6.854213e-07
-0.0007792864
0.0007800986
1.015616e-12
1.931812e-06
-6.862012e-07
-6.85797e-07
-6.865713e-07
-6.873487e-07
-0.0007809116
0.0007817319
9.173044e-13
1.931308e-06
-6.8817e-07
-6.876452e-07
-6.884278e-07
-6.883782e-07
-0.0007825517
0.0007833819
6.511232e-13
1.925568e-06
-6.892695e-07
-6.886448e-07
-6.894997e-07
-6.86975e-07
-0.0007842107
0.0007850558
9.044906e-14
1.905071e-06
-6.879006e-07
-6.872534e-07
-6.880921e-07
-6.787024e-07
-0.0007859027
0.0007867775
-3.528877e-13
1.839447e-06
-6.782321e-07
-6.790158e-07
-6.783359e-07
-6.40123e-07
-0.00078765
0.000788501
-3.318015e-13
1.680827e-06
-6.254775e-07
-6.406821e-07
-6.255653e-07
-4.978671e-07
-0.0007891459
0.0007896549
-3.045135e-13
1.399803e-06
-4.558838e-07
-4.977219e-07
-4.572662e-07
-3.58722e-07
-0.0007904975
0.000790751
-6.40062e-13
1.274163e-06
-4.081642e-07
-3.551527e-07
-4.056493e-07
-6.388159e-07
-0.0007915773
0.000792424
-8.604382e-13
1.6858e-06
-6.300991e-07
-6.362745e-07
-6.273346e-07
-6.488106e-07
-0.0007931798
0.0007939083
-7.821118e-13
1.847248e-06
-6.417884e-07
-6.46056e-07
-6.391073e-07
-6.617023e-07
-0.0007946326
0.0007953478
-6.381084e-13
1.917565e-06
-6.572191e-07
-6.591186e-07
-6.547216e-07
-6.696429e-07
-0.0007960632
0.0007967667
-6.652913e-13
1.963201e-06
-6.660113e-07
-6.672995e-07
-6.637377e-07
-6.765405e-07
-0.0007974654
0.0007981582
-7.535381e-13
2.005804e-06
-6.749046e-07
-6.744037e-07
-6.727806e-07
-6.853467e-07
-0.0007988546
0.0007995488
-7.657484e-13
2.039797e-06
-6.83637e-07
-6.832846e-07
-6.816554e-07
-6.91628e-07
-0.0008002455
0.000800943
-6.901109e-13
2.063652e-06
-6.907841e-07
-6.898023e-07
-6.89002e-07
-6.977073e-07
-0.000801645
0.000802351
-5.856096e-13
2.081055e-06
-6.974464e-07
-6.960824e-07
-6.958282e-07
-7.039507e-07
-0.0008030617
0.0008037761
-4.983554e-13
2.098578e-06
-7.039977e-07
-7.024797e-07
-7.026261e-07
-7.100881e-07
-0.0008044957
0.0008052206
-4.361964e-13
2.113912e-06
-7.10466e-07
-7.088926e-07
-7.093493e-07
-7.160362e-07
-0.000805951
0.0008066876
-3.85176e-13
2.126636e-06
-7.16515e-07
-7.150533e-07
-7.155378e-07
-7.217437e-07
-0.00080743
0.0008081798
-3.325638e-13
2.136568e-06
-7.223171e-07
-7.2082e-07
-7.214371e-07
-7.272722e-07
-0.0008089359
0.0008097002
-2.945194e-13
2.144445e-06
-7.27935e-07
-7.264446e-07
-7.271319e-07
-7.326828e-07
-0.0008104713
0.0008112515
-2.763559e-13
2.150543e-06
-7.333935e-07
-7.319526e-07
-7.326659e-07
-7.380622e-07
-0.0008120388
0.0008128358
-2.226279e-13
2.155465e-06
-7.387994e-07
-7.374192e-07
-7.381805e-07
-7.434253e-07
-0.0008136403
0.0008144549
-1.651505e-13
2.159513e-06
-7.442123e-07
-7.428634e-07
-7.436498e-07
-7.488324e-07
-0.0008152773
0.0008161103
-2.332347e-13
2.163053e-06
-7.496824e-07
-7.483332e-07
-7.491823e-07
-7.544484e-07
-0.000816951
0.0008178026
-3.261095e-13
2.167174e-06
-7.553951e-07
-7.540084e-07
-7.549623e-07
-7.602739e-07
-0.0008186619
0.0008195318
3.693703e-14
2.172665e-06
-7.613589e-07
-7.598853e-07
-7.609786e-07
-7.662578e-07
-0.0008204099
0.0008212978
9.550863e-14
2.17902e-06
-7.67572e-07
-7.658881e-07
-7.672221e-07
-7.726907e-07
-0.0008221944
0.0008231021
-2.471787e-13
2.185396e-06
-7.741737e-07
-7.723633e-07
-7.738698e-07
-7.780672e-07
-0.0008240147
0.0008249328
-3.212208e-13
2.195237e-06
-7.789329e-07
-7.777253e-07
-7.786329e-07
-7.839451e-07
-0.0008258623
0.0008267931
-5.598625e-12
2.208416e-06
-7.857546e-07
-7.83859e-07
-7.855556e-07
-7.904784e-07
-0.0008277238
0.0008286678
6.682293e-12
2.223539e-06
-7.934961e-07
-7.902258e-07
-7.932957e-07
-8.016703e-07
0.0008305809
1.441804e-12
2.24649e-06
-0.0008296217
-8.013904e-07
-8.014322e-07
-8.011477e-07
-8.096618e-07
-0.0008315448
0.0008325114
1.892704e-12
2.271674e-06
-8.096699e-07
-8.094802e-07
-8.095219e-07
-8.178729e-07
-0.00083348
0.0008344484
1.305808e-12
2.30332e-06
-8.180884e-07
-8.177562e-07
-8.179821e-07
-8.267531e-07
-0.0008354178
0.0008363854
1.35304e-12
2.340098e-06
-8.272465e-07
-8.266089e-07
-8.270938e-07
-8.362333e-07
-0.0008373529
0.0008383166
1.139439e-12
2.382318e-06
-8.369061e-07
-8.360678e-07
-8.36735e-07
-8.461167e-07
-0.0008392787
0.0008402348
9.15791e-13
2.429532e-06
-8.468717e-07
-8.459446e-07
-8.466977e-07
-8.562641e-07
-0.000841188
0.0008421327
1.310126e-12
2.481605e-06
-8.570773e-07
-8.561035e-07
-8.56928e-07
-8.665871e-07
-0.0008430729
0.0008440024
2.16616e-12
2.538184e-06
-8.674165e-07
-8.664416e-07
-8.67268e-07
-8.770085e-07
-0.0008449257
0.000845836
2.834183e-12
2.599086e-06
-8.77858e-07
-8.768534e-07
-8.777003e-07
-8.874153e-07
-0.0008467386
0.0008476261
3.044222e-12
2.663554e-06
-8.882555e-07
-8.87266e-07
-8.881126e-07
-8.977306e-07
-0.000848504
0.0008493651
3.037818e-12
2.731207e-06
-8.985436e-07
-8.97597e-07
-8.984152e-07
-9.07845e-07
-0.0008502153
0.0008510467
3.025735e-12
2.801319e-06
-9.086731e-07
-9.076999e-07
-9.085224e-07
-9.17798e-07
-0.0008518653
0.0008526634
3.020396e-12
2.87439e-06
-9.185627e-07
-9.176464e-07
-9.184264e-07
-9.274386e-07
-0.0008534473
0.0008542103
2.989867e-12
2.947989e-06
-9.281487e-07
-9.273056e-07
-9.280238e-07
-9.370002e-07
-0.0008549583
0.0008556867
2.932106e-12
3.020417e-06
-9.37537e-07
-9.368377e-07
-9.373845e-07
-9.45332e-07
-0.0008563996
0.0008570841
2.865046e-12
3.093356e-06
-9.437173e-07
-9.452314e-07
-9.4352e-07
-9.525992e-07
-0.0008577499
0.0008584016
2.891231e-12
3.1665e-06
-9.566382e-07
-9.524902e-07
-9.565199e-07
-9.629286e-07
-0.0008590378
0.0008596584
3.123573e-12
3.235772e-06
-9.6538e-07
-9.627905e-07
-9.653146e-07
-9.705578e-07
-0.0008602575
0.0008608435
3.320468e-12
3.301954e-06
-9.73489e-07
-9.705232e-07
-9.734604e-07
-9.768291e-07
-0.0008614058
0.0008619617
3.598926e-12
3.358637e-06
-9.805266e-07
-9.767056e-07
-9.805014e-07
-9.814536e-07
-0.0008624878
0.0008630172
4.084222e-12
3.404967e-06
-9.858169e-07
-9.813786e-07
-9.857507e-07
-9.831562e-07
-0.0008635147
0.0008640339
4.10109e-12
3.421564e-06
-9.873476e-07
-9.829788e-07
-9.872922e-07
-9.812658e-07
-0.0008645225
0.0008650714
4.691416e-12
3.383479e-06
-9.851151e-07
-9.809787e-07
-9.849694e-07
-9.620767e-07
-0.0008656162
0.0008662523
8.639569e-12
3.19002e-06
-9.507357e-07
-9.616771e-07
-9.51621e-07
-7.848142e-07
-0.000866784
0.0008668391
2.372602e-12
2.667703e-06
-5.741408e-07
-7.863372e-07
-5.77531e-07
-1.353039e-07
-0.0002162762
0.0002154286
-5.060905e-11
9.829483e-07
-7.522814e-07
-0.0002143216
0.00021401
-4.562018e-11
1.063926e-06
-8.264082e-07
-0.0002132729
0.0002130717
-2.681182e-11
1.027631e-06
-8.672739e-07
-0.0002125703
0.000212431
-1.787387e-11
1.006534e-06
-8.945372e-07
-0.0002120825
0.0002119849
-1.323222e-11
9.921431e-07
-9.142553e-07
-0.0002117382
0.0002116681
-1.259995e-11
9.843159e-07
-9.273848e-07
-0.0002114879
0.0002114349
-1.426505e-11
9.803812e-07
-9.428777e-07
-0.0002112938
0.0002112512
-3.124901e-11
9.854574e-07
-9.585054e-07
-0.0002111511
0.0002111207
-2.194227e-11
9.888741e-07
-9.693946e-07
-0.0002110415
0.0002110179
-2.100381e-11
9.930696e-07
-9.770561e-07
-0.0002109525
0.0002109326
-2.876729e-11
9.969792e-07
-9.835388e-07
-0.0002108765
0.0002108593
-3.381265e-11
1.000814e-06
-9.887951e-07
-0.000210809
0.0002107934
-3.062405e-11
1.004414e-06
-9.92853e-07
-0.000210747
0.0002107325
-2.817166e-11
1.007392e-06
-9.96344e-07
-0.0002106888
0.0002106753
-2.540494e-11
1.009935e-06
-9.988844e-07
-0.0002106336
0.0002106207
-2.555305e-11
1.011804e-06
-1.000718e-06
-0.0002105805
0.0002105681
-2.507169e-11
1.013169e-06
-1.002117e-06
-0.0002105291
0.0002105171
-2.155186e-11
1.014049e-06
-1.002456e-06
-0.0002104795
0.0002104676
-2.223433e-11
1.014311e-06
-1.002465e-06
-0.0002104317
0.00021042
-2.127998e-11
1.014261e-06
-1.001744e-06
-0.0002103861
0.0002103742
-1.728047e-11
1.01359e-06
-1.000807e-06
-0.0002103425
0.0002103308
-1.481362e-11
1.012556e-06
-9.99227e-07
-0.0002103014
0.0002102896
-2.634286e-11
1.011028e-06
-9.981925e-07
-0.0002102635
0.0002102525
-1.013909e-11
1.009193e-06
-9.971601e-07
-0.0002102293
0.0002102194
-3.698467e-12
1.007049e-06
-9.964387e-07
-0.0002101999
0.0002101919
1.161235e-11
1.004482e-06
-9.948805e-07
-0.0002101764
0.0002101716
1.367012e-11
9.996065e-07
-9.936817e-07
-0.0002101626
0.0002101603
-9.017736e-11
9.960773e-07
-9.902587e-07
-0.0002101591
0.0002101616
-7.4407e-12
9.877826e-07
-9.870773e-07
-0.000210173
0.0002101815
2.653799e-12
9.785688e-07
-9.817173e-07
-0.0002102108
0.0002102277
-1.129385e-12
9.648788e-07
-9.724721e-07
-0.0002102836
0.0002103126
-2.974066e-12
9.434761e-07
-9.567023e-07
-0.0002104113
0.0002104605
-1.195876e-12
9.074687e-07
-9.066589e-07
-0.0002106324
0.0002107037
2.509833e-12
8.353544e-07
-8.343254e-07
-0.0002110338
0.0002112188
-1.556333e-12
6.493394e-07
2.17949e-07
-0.0002118289
0.0002117236
1.878174e-11
-1.126214e-07
7.922535e-07
-0.0002115687
0.0002115863
-2.707967e-12
-8.098213e-07
8.625906e-07
-0.0002116425
0.0002116833
2.217251e-12
-9.034699e-07
9.317286e-07
-0.0002118725
0.0002119241
5.865264e-12
-9.833589e-07
9.449185e-07
-0.0002121432
0.0002122198
9.152003e-12
-1.021463e-06
9.685065e-07
-0.0002124575
0.0002125399
7.209663e-12
-1.050857e-06
9.884521e-07
-0.0002127929
0.0002128793
8.489573e-12
-1.074841e-06
1.005511e-06
-0.0002131419
0.0002132306
1.191126e-11
-1.094186e-06
1.020082e-06
-0.0002134991
0.0002135893
1.411259e-11
-1.110313e-06
1.033492e-06
-0.0002138611
0.0002139522
6.087127e-12
-1.124622e-06
1.045511e-06
-0.0002142263
0.0002143178
-1.164652e-12
-1.137076e-06
1.056473e-06
-0.0002145928
0.0002146846
1.442181e-12
-1.148202e-06
1.066367e-06
-0.0002149597
0.0002150513
2.28895e-12
-1.158029e-06
1.07551e-06
-0.0002153258
0.0002154172
2.366331e-12
-1.166901e-06
1.083948e-06
-0.0002156906
0.0002157816
1.66027e-13
-1.174925e-06
1.091602e-06
-0.0002160533
0.0002161438
-2.038953e-12
-1.182064e-06
1.09879e-06
-0.0002164136
0.0002165034
-8.161917e-13
-1.188586e-06
1.105437e-06
-0.0002167709
0.0002168599
-1.637012e-12
-1.194467e-06
1.111491e-06
-0.0002171248
0.000217213
-4.251162e-12
-1.199656e-06
1.117074e-06
-0.0002174749
0.0002175621
-4.143756e-12
-1.204246e-06
1.122255e-06
-0.0002178206
0.0002179066
-5.994356e-12
-1.20832e-06
1.127034e-06
-0.0002181614
0.0002182462
-9.561226e-12
-1.211874e-06
1.131406e-06
-0.0002184969
0.0002185804
-8.844582e-12
-1.214903e-06
1.135383e-06
-0.0002188266
0.0002189087
-6.075578e-12
-1.217434e-06
1.139014e-06
-0.0002191502
0.0002192307
-3.421057e-12
-1.219497e-06
1.142229e-06
-0.0002194669
0.0002195458
-7.17408e-12
-1.221076e-06
1.145016e-06
-0.0002197766
0.0002198537
-9.829408e-12
-1.222111e-06
1.147344e-06
-0.0002200785
0.0002201537
-4.966227e-12
-1.222576e-06
1.149134e-06
-0.0002203723
0.0002204456
-2.757789e-12
-1.222388e-06
1.150448e-06
-0.0002206577
0.0002207289
-8.289183e-13
-1.221658e-06
1.151909e-06
-0.0002209338
0.0002210027
-3.824644e-12
-1.220794e-06
1.153441e-06
-0.0002211993
0.0002212656
-1.924477e-12
-1.21976e-06
1.154414e-06
-0.0002214495
0.0002215116
5.350003e-12
-1.216526e-06
1.143532e-06
-0.0002216943
0.0002217627
2.709051e-11
-1.212018e-06
1.14246e-06
-0.0002219877
0.0002220088
1.554445e-10
-1.163657e-06
1.438698e-06
-0.0002201983
0.0009049925
-4.824292e-12
-5.083209e-06
8.131739e-08
1.4419e-06
6.618783e-08
-0.0002202033
-0.0002312671
-0.0002312688
7.210453e-07
-0.0009084294
0.0009090726
-5.664069e-12
-4.21605e-06
1.083222e-06
7.029224e-07
1.065713e-06
8.924784e-07
-0.0009093619
0.0009098524
-7.528491e-12
-4.140434e-06
9.466083e-07
8.779613e-07
9.328803e-07
9.329121e-07
-0.0009108142
0.0009117157
-8.552354e-12
-4.699979e-06
9.789642e-07
9.201656e-07
9.664799e-07
9.917566e-07
-0.0009125217
0.0009130876
-8.052827e-12
-4.593133e-06
1.033466e-06
9.800996e-07
1.021932e-06
1.015561e-06
-0.0009135752
0.0009139993
-8.129724e-12
-4.507566e-06
1.036942e-06
1.004653e-06
1.026274e-06
1.014037e-06
-0.0009144699
0.000914936
-8.533299e-12
-4.522849e-06
1.025179e-06
1.003151e-06
1.01435e-06
1.022753e-06
-0.0009154273
0.0009158866
-8.91032e-12
-4.549017e-06
1.032232e-06
1.012093e-06
1.022642e-06
1.034973e-06
-0.0009163491
0.0009167815
-9.274602e-12
-4.567331e-06
1.042018e-06
1.025424e-06
1.032538e-06
1.040805e-06
-0.0009172192
0.0009176335
-9.485809e-12
-4.579835e-06
1.050832e-06
1.032136e-06
1.041742e-06
1.056626e-06
-0.0009180503
0.0009184284
-1.06749e-11
-4.587016e-06
1.056201e-06
1.049092e-06
1.047073e-06
1.062619e-06
-0.0009188015
0.0009191528
-1.283449e-11
-4.593646e-06
1.065862e-06
1.055394e-06
1.058444e-06
1.069098e-06
-0.0009195014
0.0009198291
-1.519664e-11
-4.594723e-06
1.0711e-06
1.062343e-06
1.064512e-06
1.076499e-06
-0.0009201443
0.0009204389
-1.460456e-11
-4.592425e-06
1.078521e-06
1.070377e-06
1.072486e-06
1.083041e-06
-0.0009207218
0.0009209881
-1.064093e-11
-4.589997e-06
1.084252e-06
1.077544e-06
1.078869e-06
1.0882e-06
-0.0009212414
0.0009214767
-5.839672e-12
-4.58047e-06
1.089242e-06
1.083325e-06
1.084447e-06
1.093148e-06
-0.0009216992
0.0009219071
-3.241523e-12
-4.573339e-06
1.093881e-06
1.088803e-06
1.089619e-06
1.097231e-06
-0.0009221026
0.0009222828
-3.996952e-12
-4.563052e-06
1.098027e-06
1.093343e-06
1.094194e-06
1.100505e-06
-0.0009224516
0.0009226062
-6.132244e-12
-4.550744e-06
1.101039e-06
1.097039e-06
1.097634e-06
1.103226e-06
-0.0009227515
0.0009228828
-7.639525e-12
-4.538741e-06
1.10359e-06
1.100126e-06
1.100542e-06
1.105107e-06
-0.000923005
0.0009231138
-7.473667e-12
-4.524342e-06
1.105438e-06
1.102308e-06
1.102666e-06
1.106349e-06
-0.0009232139
0.0009233014
-7.124263e-12
-4.508494e-06
1.106623e-06
1.10383e-06
1.104151e-06
1.106985e-06
-0.0009233806
0.0009234477
-7.759218e-12
-4.491021e-06
1.107185e-06
1.104753e-06
1.105005e-06
1.107098e-06
-0.0009235071
0.0009235548
-9.802601e-12
-4.472499e-06
1.107269e-06
1.1051e-06
1.105323e-06
1.106695e-06
-0.0009235949
0.0009236238
-1.049014e-11
-4.452147e-06
1.106825e-06
1.104822e-06
1.104935e-06
1.10592e-06
-0.0009236453
0.0009236563
-9.292151e-12
-4.431354e-06
1.106064e-06
1.104149e-06
1.104285e-06
1.104737e-06
-0.0009236605
0.0009236548
-8.739899e-12
-4.410118e-06
1.104765e-06
1.10315e-06
1.103222e-06
1.102573e-06
-0.0009236439
0.0009236212
-8.376636e-12
-4.384948e-06
1.102659e-06
1.101139e-06
1.101254e-06
1.100736e-06
-0.0009235934
0.0009235558
-8.067145e-12
-4.362891e-06
1.100781e-06
1.099438e-06
1.099504e-06
1.098432e-06
-0.0009235131
0.0009234609
-7.69399e-12
-4.339173e-06
1.098468e-06
1.097241e-06
1.097283e-06
1.095778e-06
-0.0009234039
0.0009233375
-7.719489e-12
-4.31461e-06
1.095817e-06
1.094674e-06
1.094721e-06
1.09283e-06
-0.0009232667
0.0009231865
-9.003971e-12
-4.28925e-06
1.092873e-06
1.091825e-06
1.091883e-06
1.08959e-06
-0.0009231021
0.0009230084
-1.035694e-11
-4.262904e-06
1.08963e-06
1.088664e-06
1.088708e-06
1.086055e-06
-0.0009229107
0.0009228039
-1.043818e-11
-4.235698e-06
1.086105e-06
1.085182e-06
1.085232e-06
1.082239e-06
-0.0009226932
0.0009225732
-1.097023e-11
-4.207441e-06
1.082311e-06
1.081436e-06
1.08152e-06
1.078143e-06
-0.0009224495
0.0009223163
-1.17429e-11
-4.178052e-06
1.078238e-06
1.077403e-06
1.0775e-06
1.073716e-06
-0.0009221799
0.0009220333
-1.061361e-11
-4.14711e-06
1.073848e-06
1.073014e-06
1.073141e-06
1.068952e-06
-0.0009218837
0.0009217233
-7.924521e-12
-4.114547e-06
1.069184e-06
1.068302e-06
1.068543e-06
1.063843e-06
-0.0009215604
0.0009213854
-6.154854e-12
-4.079936e-06
1.064172e-06
1.063273e-06
1.063624e-06
1.05832e-06
-0.0009212082
0.0009210173
-5.462981e-12
-4.042329e-06
1.05878e-06
1.057811e-06
1.058286e-06
1.052176e-06
-0.0009208245
0.0009206154
-4.540306e-12
-3.99906e-06
1.052479e-06
1.051651e-06
1.051927e-06
1.045315e-06
-0.0009204031
0.000920167
-4.239691e-12
-3.944433e-06
1.04547e-06
1.044801e-06
1.04488e-06
1.028157e-06
-0.000919934
0.0009196737
-5.071205e-12
-3.863702e-06
1.034304e-06
1.027713e-06
1.033798e-06
1.011089e-06
-0.000919398
0.0009190895
-1.134305e-11
-3.735114e-06
1.01118e-06
1.01063e-06
1.010738e-06
9.585558e-07
-0.0009187729
0.000918456
-1.002393e-11
-3.504991e-06
9.528383e-07
9.58142e-07
9.524164e-07
8.275568e-07
-0.0009181826
0.0009180963
-3.780729e-12
-3.118477e-06
7.75303e-07
8.271103e-07
7.748203e-07
6.836684e-07
-0.0009180498
0.0009179775
-3.481637e-13
-2.652594e-06
6.788695e-07
6.835846e-07
6.787051e-07
6.584171e-07
-0.0009178843
0.0009177699
2.768497e-12
-2.525865e-06
6.619822e-07
6.580494e-07
6.618048e-07
6.459206e-07
-0.0009176495
0.0009175232
1.046883e-11
-2.472237e-06
6.528435e-07
6.467504e-07
6.529277e-07
6.419026e-07
-0.0009173873
0.0009172359
6.779043e-12
-2.41685e-06
6.425537e-07
6.415101e-07
6.422718e-07
6.323108e-07
-0.0009170795
0.0009169149
1.292977e-11
-2.350875e-06
6.256506e-07
6.320901e-07
6.254244e-07
6.1548e-07
-0.0009167537
0.0009165537
2.781425e-11
-2.263127e-06
6.163817e-07
6.152075e-07
6.160961e-07
5.787966e-07
-0.0009163896
0.0009163044
6.057878e-11
-2.204137e-06
5.666137e-07
5.780053e-07
5.658661e-07
3.578978e-07
-0.0009166847
0.0009176545
8.842648e-11
-2.610506e-06
4.615808e-07
3.580125e-07
4.631021e-07
7.140178e-07
-0.0009179985
0.0009165735
4.812598e-11
-1.19997e-06
5.917575e-07
7.199587e-07
5.992218e-07
5.712117e-07
-0.0009158008
0.0009156701
4.272057e-11
-2.031808e-06
5.031159e-07
5.785313e-07
5.096198e-07
5.525233e-07
-0.0009154371
0.0009152747
2.418409e-11
-1.978196e-06
5.120122e-07
5.584517e-07
5.176283e-07
5.242763e-07
-0.0009151016
0.0009150643
1.51177e-11
-2.012581e-06
4.956793e-07
5.294358e-07
5.005368e-07
5.184225e-07
-0.0009150344
0.0009150569
1.278527e-11
-2.076528e-06
5.042406e-07
5.228738e-07
5.085059e-07
5.291236e-07
-0.0009150589
0.0009150849
1.128946e-11
-2.137464e-06
5.227086e-07
5.331161e-07
5.265888e-07
5.424845e-07
-0.0009151
0.0009151338
9.988201e-12
-2.206086e-06
5.400921e-07
5.461885e-07
5.43507e-07
5.558547e-07
-0.0009151636
0.0009152092
9.690069e-12
-2.27462e-06
5.556242e-07
5.589527e-07
5.585442e-07
5.696378e-07
-0.0009152542
0.0009153128
1.072268e-11
-2.344643e-06
5.706974e-07
5.723586e-07
5.733104e-07
5.819696e-07
-0.0009153668
0.0009154338
1.234978e-11
-2.403304e-06
5.83691e-07
5.845253e-07
5.86155e-07
5.94274e-07
-0.0009155032
0.0009155842
1.378025e-11
-2.468562e-06
5.971571e-07