/*--------------------------------*- C++ -*----------------------------------*\
| =========                 |                                                 |
| \\      /  F ield         | foam-extend: Open Source CFD                    |
|  \\    /   O peration     | Version:     3.1                                |
|   \\  /    A nd           | Web:         http://www.extend-project.de       |
|    \\/     M anipulation  |                                                 |
\*---------------------------------------------------------------------------*/
FoamFile
{
    version     2.0;
    format      ascii;
    class       volScalarField;
    location    "0.5";
    object      k;
}
// * * * * * * * * * * * * * * * * * * * * * * * * * * * * * * * * * * * * * //

dimensions      [0 2 -2 0 0 0 0];

internalField   nonuniform List<scalar> 
119952
(
0.02483838
0.01965121
0.02092037
0.02386255
0.02544614
0.02535315
0.02545655
0.02554536
0.02558079
0.02555939
0.02548851
0.02537789
0.02523637
0.02507031
0.02488352
0.02467836
0.02445794
0.02423024
0.02402154
0.02396534
0.02711307
0.02615509
0.02606729
0.02944445
0.02849031
0.02806658
0.02767032
0.02724267
0.02582583
0.02690727
0.02637963
0.02126136
0.02247996
0.02509288
0.02760654
0.02971523
0.03149131
0.03303943
0.03443555
0.03605968
0.04251734
0.05002652
0.05643485
0.06161016
0.06574715
0.06913963
0.07203221
0.0745967
0.07691062
0.09145642
0.09351416
0.09588529
0.09849434
0.1011607
0.103743
0.1061722
0.10843
0.1105218
0.1124009
0.1139946
0.1156225
0.1174377
0.1194222
0.1214719
0.1234856
0.1254072
0.1272407
0.1290479
0.1296819
0.1297725
0.1302983
0.1310862
0.1318752
0.132517
0.1330713
0.1335492
0.1339453
0.1342828
0.1345636
0.1347891
0.1349606
0.135079
0.1351442
0.1351574
0.1351249
0.1350651
0.1350221
0.135086
0.135279
0.1354976
0.1359061
0.1366017
0.1370739
0.137144
0.1369076
0.1361659
0.1343389
0.1320786
0.131022
0.1301122
0.1292839
0.1285677
0.127968
0.1274643
0.1270275
0.1266294
0.1262493
0.1258768
0.1255123
0.1251637
0.1248422
0.1245557
0.1243049
0.1240826
0.1238794
0.1236869
0.1234991
0.1233126
0.1231252
0.1229364
0.1227476
0.1225605
0.122376
0.122194
0.1220142
0.1218362
0.1216595
0.1214833
0.1213075
0.1211318
0.1209558
0.1207794
0.1206025
0.1204248
0.1202463
0.1200669
0.1198864
0.1197048
0.1195223
0.1193387
0.1191541
0.1189687
0.1187826
0.1185963
0.1184114
0.1182331
0.1180757
0.1179152
0.1173825
0.116542
0.1155861
0.1146364
0.1137493
0.1129423
0.1122138
0.1115554
0.1109548
0.1104007
0.1098839
0.1093971
0.108934
0.1084892
0.1080586
0.10764
0.1072349
0.1068481
0.1064854
0.1061496
0.1058406
0.1055554
0.1052897
0.1050387
0.1047982
0.1045648
0.1043359
0.1041098
0.1038849
0.1036603
0.1034354
0.1032098
0.102983
0.102755
0.1025256
0.1022947
0.1020623
0.1018282
0.1015924
0.101355
0.1011157
0.1008747
0.1006318
0.1003874
0.1001413
0.09989365
0.09964553
0.09940233
0.09915914
0.09180203
0.0843168
0.08133542
0.07929122
0.07771177
0.07644844
0.075405
0.07451355
0.07373096
0.0730261
0.07237772
0.07177327
0.07120437
0.07066508
0.07015081
0.06965727
0.06918079
0.06871964
0.06827697
0.06785801
0.06746373
0.06709368
0.06674286
0.06640596
0.06607816
0.06575577
0.06543669
0.06511954
0.06480393
0.06448993
0.0641785
0.0638719
0.06357565
0.06329836
0.063086
0.06324707
0.06406744
0.06486729
0.06557057
0.06618608
0.06673588
0.06724056
0.06771212
0.06815964
0.06858932
0.06900515
0.06941027
0.06980656
0.07019545
0.07057736
0.07095189
0.07131804
0.07167469
0.0720211
0.07235728
0.07268409
0.07300302
0.07331579
0.07362402
0.07392898
0.07423163
0.07453235
0.07483162
0.07512918
0.07542514
0.07571947
0.0760121
0.07630302
0.07659364
0.07688363
0.08953341
0.08990761
0.09056317
0.09164564
0.09304008
0.09455219
0.09603028
0.09739427
0.09861805
0.099705
0.1006708
0.1015339
0.1023116
0.1030182
0.103665
0.1042612
0.1048138
0.105328
0.1058069
0.1062524
0.1066656
0.1070481
0.1074017
0.1077287
0.1080323
0.1083158
0.1085825
0.1088356
0.109078
0.109312
0.1095395
0.109762
0.1099805
0.1101959
0.1104087
0.1106192
0.1108275
0.1110338
0.1112379
0.1114397
0.1116388
0.1118342
0.1120249
0.1122072
0.1123748
0.1125122
0.1126176
0.1127139
0.1128082
0.1129033
0.113
0.1130986
0.1131998
0.1132935
0.1131907
0.1130753
0.1132074
0.1136615
0.1143793
0.1152388
0.116126
0.1169684
0.1177333
0.1184143
0.1190178
0.1195551
0.1200377
0.1204756
0.1208774
0.1212496
0.1215965
0.1219202
0.1222208
0.1224974
0.1227492
0.1229762
0.1231795
0.1233615
0.1235249
0.1236732
0.1238094
0.1239363
0.1240564
0.1241713
0.1242827
0.1243915
0.1244984
0.1246041
0.1247087
0.1248125
0.1249157
0.1250184
0.1251207
0.1252225
0.125324
0.1254251
0.1255258
0.1256263
0.1257264
0.1258263
0.1259259
0.1260253
0.1261244
0.1262234
0.1263222
0.1264209
0.1265195
0.1266181
0.1267166
0.1268151
0.1269136
0.1270122
0.127111
0.12721
0.1273093
0.127409
0.1275091
0.1276098
0.1277112
0.1278134
0.1279166
0.128021
0.1281269
0.1282345
0.1283443
0.1284568
0.1285725
0.1286925
0.1288177
0.1289501
0.1290923
0.1292484
0.1294258
0.1296378
0.129912
0.1303104
0.1309798
0.132198
0.1328306
0.02208241
0.02139202
0.02382439
0.02655652
0.02888247
0.03080681
0.03245636
0.03392338
0.03531693
0.03893062
0.04702654
0.05416788
0.05997636
0.06456948
0.06826262
0.07134896
0.07403985
0.07647043
0.09117763
0.09312861
0.09538607
0.0979554
0.1006655
0.1033391
0.1058747
0.1082366
0.1104251
0.1124456
0.1141636
0.1157605
0.1174985
0.1194347
0.1214896
0.1235478
0.1255193
0.1273527
0.1290295
0.1301119
0.1309448
0.1320282
0.133336
0.1348193
0.1364027
0.1380143
0.1396017
0.1411331
0.1425827
0.1438982
0.1451113
0.1463131
0.1475738
0.1489123
0.1503092
0.1517306
0.153143
0.1544686
0.1667562
0.1678565
0.1688997
0.1699369
0.1710004
0.172101
0.1732338
0.1743853
0.1755383
0.1766688
0.1777548
0.1787965
0.1798128
0.1808272
0.1818559
0.1829026
0.1839608
0.1850124
0.1860026
0.1868087
0.1874549
0.188008
0.1884674
0.1888285
0.1891159
0.1893639
0.1895947
0.1898185
0.1900348
0.190242
0.1904407
0.1906297
0.1907987
0.1909398
0.1910484
0.1911263
0.1911835
0.1912401
0.1913153
0.1914049
0.1915179
0.1916797
0.1918486
0.1919291
0.1918901
0.1916686
0.1912215
0.1905973
0.1900558
0.1896182
0.1892195
0.188828
0.1884328
0.1880334
0.1876315
0.1872285
0.1868258
0.1864258
0.1860337
0.185657
0.1853048
0.1849848
0.1847019
0.1844561
0.1842439
0.1840592
0.1838956
0.1837471
0.1836088
0.1834772
0.1833501
0.1832267
0.1831063
0.1829883
0.1828727
0.1827589
0.1826467
0.1825357
0.1824257
0.1823163
0.1822073
0.1820986
0.1819899
0.1818812
0.1817724
0.1816632
0.1815537
0.1814438
0.1813334
0.1812225
0.1811112
0.1809995
0.1808877
0.180776
0.180665
0.180556
0.1804516
0.1803575
0.1802843
0.1802104
0.1800973
0.1799253
0.179693
0.1794095
0.1790864
0.1787355
0.1783659
0.177985
0.1775981
0.1772092
0.1768216
0.1764377
0.1760601
0.1756916
0.1753359
0.1749976
0.1746814
0.1743913
0.1741295
0.1738958
0.1736883
0.1735036
0.1733377
0.1731866
0.1730466
0.1729146
0.1727881
0.1726653
0.1725446
0.1724251
0.1723062
0.1721874
0.1720683
0.1719489
0.171829
0.1717084
0.1715873
0.1714655
0.171343
0.1712199
0.1710961
0.1709718
0.170847
0.1707218
0.1705965
0.1704712
0.1703458
0.1702238
0.1625154
0.1598225
0.1591082
0.158654
0.1581642
0.1576173
0.1570364
0.1564445
0.1558575
0.1552844
0.1547301
0.1541972
0.1536873
0.1532018
0.1527416
0.1523081
0.1519025
0.1515274
0.1511858
0.1508806
0.1506123
0.150379
0.1501765
0.1499991
0.1498409
0.149697
0.1495634
0.1494375
0.1493177
0.1492037
0.1490963
0.1489983
0.1489156
0.1488618
0.1488664
0.1489715
0.1491619
0.1494072
0.1496852
0.1499804
0.1502816
0.1505817
0.1508765
0.1511639
0.1514431
0.1517144
0.1519779
0.1522341
0.1524828
0.1527234
0.1529548
0.1531758
0.1533851
0.1535819
0.1537664
0.1539395
0.1541027
0.1542577
0.1544065
0.1545507
0.1546915
0.1548299
0.1549664
0.1551013
0.1552349
0.1553672
0.1554982
0.1556281
0.1557554
0.1558367
0.1667267
0.1669121
0.1670229
0.1671257
0.1672721
0.1674916
0.1677919
0.1681662
0.1685999
0.1690765
0.1695811
0.170101
0.1706258
0.1711471
0.1716579
0.1721524
0.1726258
0.1730739
0.173493
0.1738804
0.1742346
0.1745552
0.1748433
0.1751009
0.1753313
0.175538
0.1757248
0.1758954
0.1760531
0.1762008
0.1763408
0.176475
0.1766049
0.1767313
0.176855
0.1769765
0.177096
0.1772137
0.1773294
0.1774431
0.1775542
0.1776622
0.1777659
0.1778637
0.1779528
0.1780311
0.1781
0.1781627
0.1782214
0.1782776
0.1783322
0.1783855
0.1784359
0.1784769
0.1784946
0.1784886
0.1784762
0.178485
0.1785409
0.1786591
0.1788422
0.1790832
0.1793706
0.179692
0.180036
0.1803932
0.1807561
0.1811184
0.1814752
0.181822
0.1821547
0.1824693
0.1827623
0.1830306
0.1832723
0.1834871
0.1836758
0.1838406
0.1839842
0.1841101
0.1842215
0.1843215
0.1844128
0.1844977
0.1845779
0.1846547
0.1847292
0.184802
0.1848736
0.1849442
0.1850143
0.1850838
0.1851529
0.1852216
0.18529
0.1853582
0.185426
0.1854936
0.1855611
0.1856283
0.1856953
0.1857621
0.1858288
0.1858954
0.185962
0.1860284
0.1860948
0.1861612
0.1862276
0.186294
0.1863605
0.1864271
0.186494
0.1865612
0.1866288
0.1866968
0.1867654
0.1868348
0.1869049
0.1869761
0.1870485
0.1871223
0.1871979
0.1872757
0.187356
0.1874394
0.1875268
0.1876192
0.1877178
0.1878248
0.187943
0.1880767
0.1882328
0.1884222
0.1886625
0.1889801
0.1894038
0.1899107
0.1902991
0.02336866
0.01941646
0.02175015
0.02490025
0.02757318
0.02973565
0.03155994
0.03316422
0.03461802
0.03634219
0.04391836
0.05218445
0.05885961
0.06401288
0.06803677
0.07132214
0.0741448
0.07667439
0.07896942
0.09397795
0.09617544
0.09871151
0.1014545
0.1041859
0.1067694
0.1091568
0.111348
0.113361
0.1151499
0.116668
0.1182715
0.1200995
0.1220967
0.1241333
0.1260971
0.1279233
0.1296017
0.1311408
0.131755
0.1326961
0.1339006
0.1353194
0.1368728
0.1384774
0.1400697
0.1416108
0.1430787
0.1444352
0.1456575
0.1468296
0.1480416
0.1493348
0.1507008
0.1521073
0.1535182
0.1548659
0.1672794
0.1683974
0.1694391
0.1704602
0.1715016
0.1725824
0.1737029
0.1748523
0.1760143
0.1771687
0.17829
0.179367
0.1804111
0.181446
0.1824919
0.1835576
0.1846392
0.1857231
0.1867888
0.1878144
0.1887844
0.1897021
0.190586
0.1914592
0.192339
0.1932334
0.1941418
0.1950577
0.1959693
0.1968623
0.1977278
0.1985687
0.1993975
0.2002298
0.2010783
0.2019516
0.2028637
0.203888
0.2049024
0.2058897
0.2068493
0.2077877
0.208715
0.2096396
0.2105665
0.2114966
0.2124268
0.2133506
0.2142597
0.2151496
0.2160223
0.2168846
0.2177456
0.2186133
0.2194923
0.220381
0.2212627
0.2220747
0.2227959
0.2234357
0.2239901
0.2244558
0.2248451
0.2251788
0.2254755
0.2257482
0.226004
0.2262458
0.2264726
0.2266768
0.2268571
0.2270095
0.2271314
0.2272248
0.2272976
0.2273625
0.2274212
0.2274804
0.2275466
0.2276265
0.2276983
0.2277194
0.2276472
0.2274289
0.2270452
0.226534
0.2260458
0.2256251
0.2252484
0.2248928
0.2245428
0.224189
0.223827
0.2234549
0.2230725
0.2226835
0.2222949
0.2219165
0.2215586
0.2212304
0.2209376
0.2206817
0.2204605
0.2202691
0.2201016
0.2199523
0.2198159
0.2196885
0.2195674
0.2194507
0.2193379
0.2192279
0.2191202
0.2190145
0.2189105
0.2188079
0.2187064
0.2186057
0.2185056
0.2184061
0.2183068
0.2182077
0.2181086
0.2180095
0.2179102
0.2178107
0.2177109
0.2176108
0.2175105
0.2174101
0.2173097
0.2172095
0.2171101
0.2170122
0.216917
0.2168267
0.2167449
0.2166695
0.2165887
0.2164887
0.2163594
0.2161954
0.2159956
0.2157617
0.2154971
0.2152063
0.214894
0.214565
0.214224
0.2138758
0.2135252
0.2131773
0.2128377
0.2125124
0.2122071
0.2119261
0.2116723
0.2114461
0.2112462
0.2110699
0.2109136
0.2107734
0.2106456
0.2105269
0.2104148
0.210307
0.210202
0.2100987
0.2099963
0.2098942
0.2097921
0.2096897
0.209587
0.2094838
0.2093801
0.2092759
0.2091711
0.2090658
0.20896
0.2088538
0.2087472
0.2086404
0.208533
0.208423
0.2082978
0.208093
0.2074742
0.2072464
0.2070929
0.2069301
0.2067322
0.2064915
0.2062082
0.2058867
0.2055333
0.2051552
0.2047596
0.2043541
0.2039459
0.203542
0.203149
0.2027729
0.2024195
0.2020937
0.2017996
0.2015393
0.2013133
0.2011199
0.2009555
0.2008157
0.2006958
0.2005915
0.2004993
0.2004165
0.2003416
0.200274
0.2002145
0.2001661
0.2001332
0.2001246
0.2001515
0.2002188
0.2003227
0.2004554
0.2006097
0.2007804
0.2009632
0.2011546
0.2013518
0.2015525
0.2017551
0.201958
0.2021599
0.2023595
0.2025555
0.2027462
0.20293
0.2031054
0.203271
0.2034263
0.203571
0.2037062
0.2038326
0.2039514
0.2040642
0.2041722
0.2042764
0.2043778
0.2044769
0.2045742
0.2046699
0.2047642
0.2048578
0.2049538
0.205067
0.2052799
0.2054867
0.2056667
0.2058196
0.2059545
0.2060871
0.2062344
0.2064108
0.2066259
0.2068838
0.2071846
0.207525
0.2078993
0.2083006
0.2087208
0.2091516
0.2095846
0.2100117
0.2104256
0.2108196
0.2111886
0.2115289
0.2118385
0.2121172
0.2123662
0.2125879
0.2127855
0.2129626
0.2131226
0.2132689
0.2134045
0.2135318
0.2136528
0.213769
0.2138815
0.2139911
0.2140983
0.2142034
0.2143066
0.2144078
0.2145069
0.2146036
0.2146974
0.2147876
0.2148731
0.2149527
0.2150253
0.2150916
0.2151529
0.2152102
0.2152645
0.2153164
0.215366
0.2154126
0.2154539
0.2154858
0.2155068
0.2155198
0.215533
0.2155582
0.2156077
0.2156915
0.2158153
0.215981
0.216187
0.216429
0.216701
0.2169962
0.2173074
0.2176274
0.2179492
0.2182659
0.2185714
0.21886
0.2191274
0.2193705
0.219588
0.21978
0.219948
0.2200945
0.2202225
0.2203352
0.2204358
0.2205269
0.220611
0.2206899
0.2207651
0.2208378
0.2209086
0.2209781
0.2210468
0.2211149
0.2211825
0.2212498
0.2213169
0.2213838
0.2214505
0.2215172
0.2215837
0.2216502
0.2217167
0.2217832
0.2218497
0.2219163
0.221983
0.2220499
0.2221169
0.2221841
0.2222515
0.2223193
0.2223874
0.2224558
0.2225248
0.2225941
0.2226637
0.2227338
0.2228045
0.2228758
0.2229479
0.223021
0.2230952
0.2231707
0.223248
0.2233272
0.2234088
0.2234933
0.2235814
0.2236738
0.2237717
0.2238766
0.2239904
0.2241159
0.224257
0.2244195
0.2246115
0.2248441
0.225131
0.2254804
0.2258677
0.226183
0.02910258
0.03463479
0.04161587
0.05980537
0.07319216
0.09627379
0.1031065
0.1094237
0.1146887
0.1188781
0.1222276
0.125203
0.1274437
0.1292994
0.1312965
0.1334301
0.1356358
0.1378242
0.139924
0.1418933
0.1437136
0.1453698
0.1468206
0.1481347
0.1494387
0.150809
0.152252
0.1537348
0.1552168
0.1566623
0.1579843
0.1702482
0.1713031
0.1723062
0.1733131
0.1743513
0.1754244
0.176522
0.1776285
0.1787273
0.1797965
0.1808183
0.1818005
0.182769
0.1837499
0.1847563
0.1857861
0.1868252
0.1878599
0.1888718
0.1898328
0.1907378
0.1916016
0.1924484
0.1932985
0.194163
0.1950434
0.1959344
0.1968263
0.1977048
0.1985577
0.1993834
0.200192
0.2009998
0.2018218
0.2026697
0.2035604
0.2045714
0.2055852
0.2065752
0.2075373
0.2084753
0.2093988
0.2103179
0.2112402
0.2121685
0.2131021
0.2140363
0.2149636
0.2158776
0.2167772
0.2176678
0.2185589
0.219461
0.2203838
0.2213373
0.2223302
0.2233286
0.2243083
0.2252602
0.2261843
0.2270867
0.2279754
0.2288566
0.229734
0.2306076
0.231475
0.232332
0.2331756
0.234006
0.2348272
0.2356457
0.2364686
0.2373028
0.2381567
0.2390444
0.2399532
0.2408706
0.2417873
0.2426972
0.2435978
0.2444885
0.2453696
0.2462415
0.2471043
0.247957
0.2487987
0.2496289
0.2504486
0.2512605
0.2520679
0.2528737
0.2536785
0.2544771
0.2552541
0.255982
0.2566497
0.2572562
0.2577982
0.258273
0.2586852
0.2590454
0.2593653
0.2596549
0.2599218
0.2601702
0.2604016
0.2606137
0.2608034
0.2609667
0.2611003
0.2612035
0.2612799
0.261336
0.2613783
0.2614116
0.2614403
0.2614667
0.2614817
0.2614678
0.261377
0.2611911
0.2609012
0.2605298
0.2601493
0.2597974
0.2594743
0.2591697
0.2588725
0.2585733
0.2582647
0.257942
0.2576045
0.2572549
0.2569002
0.2565497
0.2562141
0.2559027
0.2556219
0.2553744
0.2551592
0.2549725
0.2548094
0.2546643
0.2545324
0.2544098
0.2542934
0.2541816
0.2540729
0.2539668
0.2538626
0.2537601
0.2536589
0.2535589
0.2534599
0.2533615
0.2532638
0.2531664
0.2530693
0.2529724
0.2528755
0.2527785
0.2526813
0.2525839
0.2524862
0.2523883
0.2522901
0.2521918
0.2520935
0.2519955
0.2518979
0.2518013
0.2517062
0.2516128
0.2515212
0.2514302
0.2513354
0.2512307
0.2511093
0.2509658
0.2507967
0.2506
0.2503756
0.2501248
0.2498499
0.2495543
0.2492418
0.2489169
0.2485848
0.2482512
0.2479223
0.2476046
0.2473043
0.2470263
0.2467737
0.2465477
0.2463475
0.2461708
0.2460142
0.2458742
0.2457471
0.2456297
0.2455192
0.2454135
0.2453109
0.2452101
0.2451104
0.2450111
0.2449119
0.2448125
0.2447127
0.2446126
0.2445119
0.2444108
0.2443091
0.244207
0.2441044
0.2440014
0.2438982
0.2437947
0.2436907
0.2435847
0.2434695
0.2433212
0.2430853
0.2428605
0.2426516
0.2424468
0.2422343
0.2420045
0.2417512
0.2414716
0.241165
0.2408331
0.24048
0.240111
0.2397326
0.2393518
0.2389757
0.2386116
0.2382659
0.2379446
0.2376523
0.2373921
0.2371648
0.2369695
0.2368032
0.2366621
0.2365417
0.2364384
0.2363485
0.2362694
0.2361996
0.2361386
0.2360875
0.2360487
0.2360264
0.2360271
0.2360581
0.2361214
0.2362102
0.2363215
0.2364518
0.2365978
0.2367566
0.2369256
0.2371027
0.2372864
0.2374747
0.2376662
0.2378594
0.2380526
0.2382442
0.2384322
0.2386148
0.2387903
0.2389572
0.2391145
0.2392624
0.239401
0.239531
0.2396535
0.2397697
0.2398808
0.2399878
0.2400915
0.2401924
0.2402915
0.2403886
0.2404841
0.2405787
0.2406741
0.2407765
0.2409016
0.2410417
0.241188
0.2413346
0.2414796
0.241625
0.2417761
0.2419404
0.2421252
0.2423366
0.2425791
0.2428546
0.2431623
0.2434994
0.2438608
0.2442399
0.2446291
0.2450204
0.2454058
0.2457779
0.2461305
0.2464591
0.2467606
0.2470339
0.2472795
0.2474991
0.2476953
0.2478713
0.2480303
0.2481757
0.2483101
0.248436
0.2485554
0.2486698
0.2487804
0.2488879
0.2489929
0.2490957
0.2491966
0.2492954
0.2493922
0.2494866
0.2495784
0.249667
0.2497517
0.2498318
0.2499068
0.2499768
0.2500424
0.2501042
0.2501627
0.2502184
0.2502715
0.2503217
0.2503683
0.2504103
0.2504481
0.2504832
0.2505193
0.250562
0.2506184
0.2506954
0.2507992
0.2509338
0.2511012
0.251301
0.2515304
0.2517853
0.2520601
0.2523485
0.2526437
0.2529388
0.2532269
0.2535022
0.2537595
0.2539954
0.2542079
0.2543966
0.2545625
0.2547076
0.2548345
0.2549463
0.2550458
0.2551356
0.2552183
0.2552955
0.2553687
0.2554392
0.2555077
0.2555748
0.2556408
0.2557061
0.2557709
0.2558352
0.2558991
0.2559627
0.2560261
0.2560892
0.2561521
0.2562148
0.2562774
0.2563398
0.256402
0.2564642
0.2565264
0.2565884
0.2566505
0.2567125
0.2567746
0.2568368
0.2568991
0.2569615
0.2570242
0.2570871
0.2571504
0.2572141
0.2572783
0.2573432
0.2574088
0.2574754
0.2575431
0.2576121
0.2576828
0.2577554
0.2578302
0.2579079
0.257989
0.2580742
0.2581646
0.2582614
0.2583662
0.2584814
0.2586098
0.2587555
0.2589237
0.2591207
0.2593527
0.2596216
0.2599104
0.2601527
0.03872018
0.05386097
0.0628722
0.09150728
0.1108888
0.1378974
0.1422572
0.1457903
0.1482756
0.1502647
0.1522227
0.1531899
0.1548752
0.1569532
0.1591978
0.1614838
0.175636
0.177396
0.1791982
0.1809549
0.1825901
0.1841107
0.1855691
0.1869817
0.1883458
0.1896871
0.1910259
0.1923727
0.1937242
0.1950666
0.1963809
0.1976477
0.1988486
0.1999678
0.2010033
0.2019715
0.2028987
0.2038102
0.204723
0.2056465
0.2065948
0.2076481
0.2087071
0.2096974
0.210633
0.2115311
0.2124078
0.213275
0.2141395
0.2150036
0.2158661
0.2167223
0.2175667
0.2183982
0.2192228
0.2200519
0.2208988
0.2217771
0.2227046
0.2236699
0.2246389
0.2255913
0.2265171
0.2274149
0.2282896
0.229149
0.23
0.230847
0.231691
0.2325305
0.2333617
0.234181
0.2349875
0.235784
0.2365769
0.2373736
0.2381821
0.2390122
0.23988
0.2407738
0.2416803
0.242589
0.2434928
0.2443884
0.245275
0.2461541
0.247026
0.2478922
0.2487529
0.2496074
0.2504553
0.2512973
0.2521357
0.2529745
0.2538185
0.2546718
0.2555362
0.2564081
0.2572775
0.2581356
0.2589769
0.259799
0.2606024
0.2613894
0.2621627
0.2629248
0.2636771
0.2644198
0.2651528
0.265876
0.2665902
0.2672977
0.2680017
0.2687064
0.269416
0.2701347
0.2708671
0.271613
0.2723692
0.2731304
0.2738913
0.2746469
0.2753936
0.2761293
0.2768528
0.2775641
0.2782635
0.2789519
0.2796302
0.2802996
0.2809614
0.2816166
0.2822656
0.2829069
0.2835364
0.2841459
0.2847238
0.2852636
0.2857627
0.2862188
0.2866298
0.2869969
0.2873245
0.2876184
0.2878846
0.2881283
0.2883531
0.2885611
0.2887519
0.288924
0.2890744
0.2892003
0.2893001
0.2893746
0.2894267
0.2894607
0.2894804
0.2894894
0.2894893
0.2894771
0.2894405
0.2893571
0.2892176
0.2890188
0.2887715
0.2885071
0.2882487
0.2880024
0.2877659
0.2875336
0.2872992
0.2870569
0.2868025
0.2865345
0.2862548
0.2859684
0.285683
0.285407
0.2851485
0.2849134
0.2847046
0.284522
0.2843635
0.2842252
0.284103
0.2839928
0.2838911
0.2837953
0.2837034
0.2836143
0.2835272
0.2834415
0.283357
0.2832734
0.2831905
0.2831083
0.2830266
0.2829452
0.2828641
0.2827832
0.2827023
0.2826214
0.2825404
0.2824593
0.2823779
0.2822963
0.2822144
0.2821323
0.2820501
0.2819678
0.2818855
0.2818036
0.2817222
0.2816415
0.2815615
0.2814817
0.2814013
0.2813183
0.2812295
0.2811309
0.2810187
0.2808894
0.2807404
0.2805698
0.2803772
0.280163
0.279929
0.2796775
0.2794121
0.2791371
0.2788577
0.2785795
0.2783087
0.2780509
0.2778108
0.2775915
0.2773945
0.2772194
0.2770647
0.2769278
0.2768056
0.2766951
0.2765934
0.2764982
0.2764074
0.2763195
0.2762334
0.2761483
0.2760637
0.2759792
0.2758946
0.2758097
0.2757245
0.2756389
0.2755528
0.2754664
0.2753795
0.2752923
0.2752047
0.275117
0.275029
0.2749408
0.2748515
0.2747582
0.2746532
0.2745239
0.2743796
0.2742265
0.2740661
0.2738967
0.2737148
0.2735169
0.2732995
0.2730611
0.2728012
0.2725213
0.2722247
0.2719163
0.2716017
0.2712873
0.2709795
0.2706847
0.2704087
0.270156
0.2699296
0.2697311
0.2695599
0.2694144
0.269291
0.2691869
0.2690982
0.2690222
0.2689567
0.2689004
0.2688528
0.2688146
0.2687877
0.268775
0.2687807
0.2688089
0.2688608
0.2689298
0.269015
0.2691146
0.2692269
0.2693502
0.2694831
0.2696242
0.2697721
0.269926
0.2700844
0.2702458
0.2704088
0.2705718
0.2707331
0.2708907
0.2710433
0.2711893
0.2713279
0.2714587
0.2715819
0.2716978
0.2718072
0.2719109
0.27201
0.2721053
0.2721974
0.2722869
0.2723741
0.2724598
0.2725438
0.2726267
0.2727093
0.2727937
0.272884
0.2729817
0.273086
0.2731953
0.2733079
0.2734233
0.273543
0.2736701
0.2738091
0.2739649
0.2741419
0.2743435
0.2745712
0.2748245
0.275101
0.2753964
0.2757049
0.2760199
0.2763346
0.2766421
0.2769366
0.2772135
0.2774695
0.2777031
0.277914
0.2781033
0.2782729
0.2784251
0.2785628
0.2786884
0.2788043
0.2789128
0.2790154
0.2791135
0.2792081
0.2793
0.2793896
0.2794772
0.279563
0.2796471
0.2797293
0.2798096
0.2798877
0.2799634
0.2800362
0.2801058
0.2801718
0.2802342
0.2802932
0.2803492
0.2804024
0.280453
0.2805011
0.2805468
0.28059
0.2806305
0.2806687
0.2807057
0.2807435
0.2807851
0.2808346
0.2808964
0.2809751
0.2810746
0.2811974
0.2813448
0.2815163
0.2817097
0.2819218
0.2821478
0.2823825
0.2826201
0.2828547
0.2830809
0.2832941
0.2834908
0.2836691
0.283828
0.2839682
0.2840911
0.2841986
0.2842931
0.2843771
0.2844526
0.2845218
0.2845862
0.284647
0.2847053
0.2847618
0.284817
0.2848713
0.2849248
0.2849778
0.2850303
0.2850825
0.2851343
0.2851859
0.2852373
0.2852884
0.2853393
0.28539
0.2854406
0.2854911
0.2855414
0.2855916
0.2856418
0.285692
0.2857421
0.2857922
0.2858424
0.2858926
0.285943
0.2859935
0.2860443
0.2860954
0.2861468
0.2861987
0.2862511
0.2863042
0.2863581
0.2864129
0.2864688
0.2865261
0.286585
0.2866459
0.286709
0.286775
0.2868443
0.2869178
0.2869963
0.2870811
0.2871738
0.2872762
0.2873909
0.2875208
0.2876691
0.2878388
0.2880296
0.288231
0.2884017
0.03349359
0.04929723
0.06767542
0.1219944
0.154322
0.1987669
0.2119871
0.2227665
0.2302619
0.2333405
0.2330534
0.231771
0.2294356
0.2262148
0.222577
0.2306055
0.2269782
0.2236585
0.2207924
0.2184331
0.2166029
0.2152785
0.2144377
0.214051
0.2140817
0.2145545
0.2152799
0.2161981
0.2172496
0.218371
0.2195084
0.220645
0.2218003
0.2230097
0.2243128
0.2256595
0.2270214
0.2283823
0.2297296
0.2310509
0.2323337
0.2335662
0.2347383
0.2358435
0.2368817
0.23786
0.2387913
0.2396902
0.2405701
0.2414418
0.2423168
0.2432127
0.2441208
0.2450206
0.2459013
0.2467592
0.2475947
0.2484106
0.2492107
0.2499989
0.2507783
0.2515512
0.2523191
0.2530841
0.2538497
0.2546209
0.2554034
0.2562019
0.2570177
0.2578442
0.2586714
0.2594908
0.2602963
0.2610847
0.2618555
0.2626102
0.2633513
0.2640812
0.2648016
0.2655134
0.2662163
0.2669104
0.2675964
0.2682761
0.2689527
0.2696304
0.2703136
0.2710073
0.2717168
0.2724427
0.2731817
0.2739287
0.274678
0.2754246
0.2761647
0.2768966
0.2776186
0.2783312
0.2790353
0.2797319
0.2804222
0.2811074
0.2817894
0.2824697
0.28315
0.2838313
0.2845134
0.2851938
0.2858694
0.2865369
0.2871936
0.287838
0.2884692
0.2890874
0.2896933
0.2902876
0.2908712
0.2914448
0.292009
0.2925647
0.2931132
0.2936562
0.294196
0.2947349
0.2952754
0.2958198
0.29637
0.2969267
0.2974891
0.2980549
0.2986208
0.2991833
0.2997392
0.3002858
0.3008216
0.3013461
0.3018595
0.3023625
0.3028562
0.3033416
0.3038196
0.3042905
0.3047543
0.3052099
0.3056548
0.3060854
0.306497
0.3068861
0.3072509
0.3075897
0.3079012
0.3081853
0.3084434
0.3086778
0.3088913
0.3090868
0.3092665
0.309432
0.3095837
0.3097208
0.3098417
0.3099447
0.3100282
0.3100918
0.3101367
0.3101647
0.3101784
0.3101803
0.310172
0.3101525
0.3101136
0.3100489
0.3099542
0.3098282
0.3096757
0.309509
0.3093394
0.309172
0.3090071
0.3088428
0.3086756
0.308502
0.3083192
0.3081261
0.3079238
0.3077158
0.3075073
0.3073043
0.3071127
0.306937
0.3067798
0.3066417
0.3065215
0.3064169
0.3063249
0.3062425
0.3061672
0.3060969
0.3060298
0.3059649
0.3059015
0.3058391
0.3057774
0.3057162
0.3056555
0.3055951
0.3055349
0.305475
0.3054152
0.3053555
0.3052959
0.3052362
0.3051764
0.3051164
0.3050563
0.304996
0.3049356
0.3048749
0.3048141
0.3047532
0.3046924
0.3046316
0.3045711
0.3045109
0.3044509
0.3043909
0.3043303
0.304268
0.3042025
0.3041315
0.3040525
0.303963
0.3038607
0.3037438
0.303611
0.3034618
0.3032968
0.3031173
0.3029254
0.3027243
0.3025179
0.3023106
0.3021073
0.3019125
0.3017299
0.3015623
0.301411
0.3012762
0.3011568
0.3010511
0.3009568
0.3008718
0.3007939
0.3007211
0.3006519
0.3005852
0.30052
0.3004556
0.3003917
0.3003278
0.3002639
0.3001998
0.3001355
0.3000708
0.3000059
0.2999406
0.2998751
0.2998092
0.2997431
0.2996769
0.2996105
0.299544
0.299477
0.2994085
0.2993359
0.2992554
0.2991663
0.2990688
0.2989634
0.2988495
0.2987257
0.29859
0.2984403
0.2982751
0.2980937
0.2978965
0.2976853
0.2974633
0.2972345
0.2970034
0.2967752
0.296555
0.2963473
0.296156
0.2959838
0.2958319
0.2957012
0.2955896
0.2954953
0.2954159
0.2953491
0.2952926
0.2952449
0.2952048
0.2951721
0.295147
0.2951307
0.295125
0.2951322
0.2951544
0.2951924
0.2952411
0.2953002
0.2953692
0.2954471
0.2955333
0.295627
0.2957273
0.2958335
0.2959449
0.2960607
0.2961797
0.2963008
0.2964228
0.2965443
0.2966639
0.2967804
0.2968925
0.2969996
0.2971012
0.2971972
0.2972879
0.2973737
0.2974551
0.2975328
0.2976074
0.2976794
0.2977492
0.2978172
0.2978837
0.2979488
0.2980128
0.2980761
0.2981394
0.2982041
0.2982714
0.2983418
0.2984154
0.2984917
0.2985705
0.2986523
0.2987387
0.2988321
0.2989357
0.2990529
0.2991865
0.2993385
0.2995095
0.2996986
0.2999035
0.3001204
0.3003447
0.3005714
0.3007954
0.301012
0.3012173
0.3014086
0.3015841
0.3017434
0.301887
0.3020159
0.3021319
0.3022368
0.3023325
0.3024208
0.3025032
0.3025811
0.3026554
0.302727
0.3027963
0.3028638
0.3029298
0.3029943
0.3030575
0.3031193
0.3031797
0.3032384
0.3032955
0.3033506
0.3034036
0.3034544
0.3035028
0.3035489
0.3035928
0.3036346
0.3036745
0.3037125
0.3037487
0.3037832
0.3038159
0.3038472
0.3038777
0.3039086
0.3039414
0.3039785
0.3040226
0.3040766
0.3041433
0.3042249
0.304323
0.3044379
0.3045691
0.3047147
0.3048719
0.3050371
0.3052062
0.3053748
0.3055387
0.3056944
0.305839
0.3059708
0.3060888
0.3061932
0.3062849
0.3063653
0.3064359
0.3064986
0.3065548
0.3066061
0.3066538
0.3066986
0.3067415
0.306783
0.3068234
0.306863
0.3069021
0.3069407
0.306979
0.307017
0.3070548
0.3070923
0.3071296
0.3071667
0.3072037
0.3072406
0.3072773
0.3073138
0.3073503
0.3073868
0.3074231
0.3074594
0.3074957
0.307532
0.3075684
0.3076048
0.3076412
0.3076778
0.3077146
0.3077516
0.3077888
0.3078264
0.3078644
0.3079029
0.307942
0.3079817
0.3080223
0.3080639
0.3081067
0.3081509
0.3081968
0.3082447
0.3082949
0.3083482
0.3084049
0.3084659
0.3085322
0.3086049
0.3086852
0.3087749
0.3088755
0.3089883
0.3091126
0.3092422
0.3093521
0.01207797
0.05878324
0.0911065
0.1195072
0.1439483
0.1657157
0.1876202
0.2085875
0.2278553
0.245535
0.2695911
0.2795235
0.2866324
0.2901752
0.2909797
0.2900271
0.2879453
0.2849217
0.2812399
0.2771493
0.2723308
0.2679715
0.264045
0.260581
0.2576249
0.2552056
0.2533247
0.2519641
0.2510902
0.2506604
0.2506332
0.2509334
0.2514911
0.2522406
0.2531216
0.2540846
0.2551011
0.2561651
0.2572806
0.2584458
0.2596434
0.2608545
0.2620624
0.2632529
0.2644143
0.2655361
0.2666101
0.2676303
0.2685936
0.2695006
0.2703556
0.2711661
0.2719412
0.2726903
0.2734218
0.2741438
0.274864
0.2755846
0.2763021
0.2770114
0.2777078
0.2783885
0.2790523
0.2797002
0.2803344
0.2809578
0.2815737
0.282185
0.2827945
0.2834046
0.2840178
0.284636
0.2852601
0.2858894
0.2865211
0.2871516
0.2877776
0.2883959
0.2890044
0.2896016
0.2901871
0.2907611
0.2913242
0.2918772
0.2924209
0.2929559
0.2934833
0.2940042
0.2945204
0.2950341
0.2955477
0.2960637
0.2965846
0.2971128
0.2976494
0.2981936
0.2987435
0.299296
0.2998474
0.3003945
0.3009353
0.3014674
0.3019907
0.3025055
0.3030125
0.3035129
0.3040079
0.3044987
0.3049863
0.3054714
0.3059541
0.3064344
0.3069112
0.3073835
0.3078502
0.3083102
0.3087626
0.3092068
0.3096424
0.3100691
0.310487
0.3108962
0.311297
0.3116901
0.3120763
0.3124566
0.3128325
0.3132055
0.313577
0.3139485
0.3143212
0.314696
0.3150732
0.3154526
0.3158332
0.3162131
0.3165905
0.316963
0.3173288
0.3176866
0.3180358
0.3183761
0.318708
0.3190322
0.3193495
0.3196604
0.3199654
0.3202645
0.3205572
0.3208426
0.3211192
0.321385
0.3216386
0.3218788
0.3221047
0.3223155
0.3225107
0.3226905
0.3228557
0.3230073
0.3231465
0.3232745
0.3233921
0.3234997
0.323597
0.3236834
0.3237577
0.323819
0.3238667
0.3239009
0.3239226
0.323933
0.3239338
0.3239258
0.3239085
0.3238791
0.3238357
0.323777
0.3237028
0.3236151
0.3235183
0.3234171
0.3233144
0.3232108
0.3231057
0.3229975
0.3228843
0.3227647
0.3226381
0.3225052
0.3223681
0.3222301
0.3220951
0.3219667
0.3218482
0.3217414
0.3216471
0.3215647
0.3214931
0.3214303
0.3213745
0.3213239
0.3212771
0.3212327
0.3211899
0.3211482
0.3211071
0.3210665
0.3210261
0.3209859
0.3209458
0.3209059
0.320866
0.3208263
0.3207865
0.3207468
0.320707
0.3206671
0.3206272
0.3205871
0.320547
0.3205066
0.3204662
0.3204257
0.3203851
0.3203444
0.3203039
0.3202633
0.3202229
0.3201826
0.3201422
0.3201013
0.3200596
0.3200161
0.3199697
0.3199189