/*--------------------------------*- C++ -*----------------------------------*\
| =========                 |                                                 |
| \\      /  F ield         | foam-extend: Open Source CFD                    |
|  \\    /   O peration     | Version:     3.1                                |
|   \\  /    A nd           | Web:         http://www.extend-project.de       |
|    \\/     M anipulation  |                                                 |
\*---------------------------------------------------------------------------*/
FoamFile
{
    version     2.0;
    format      ascii;
    class       volScalarField;
    location    "0.5";
    object      nut;
}
// * * * * * * * * * * * * * * * * * * * * * * * * * * * * * * * * * * * * * //

dimensions      [0 2 -1 0 0 0 0];

internalField   nonuniform List<scalar> 
119952
(
6.653999e-05
3.725922e-05
4.114173e-05
5.31048e-05
6.205392e-05
5.994074e-05
5.841565e-05
5.698908e-05
5.555493e-05
5.407814e-05
5.255961e-05
5.101111e-05
4.944455e-05
4.786829e-05
4.628693e-05
4.470297e-05
4.311911e-05
4.153815e-05
3.995362e-05
3.8407e-05
5.339595e-05
5.02177e-05
4.89974e-05
7.000226e-05
6.769592e-05
6.661485e-05
6.575353e-05
6.540017e-05
6.334383e-05
6.667974e-05
3.478707e-05
3.184861e-05
3.923836e-05
4.987456e-05
6.147552e-05
7.32294e-05
8.513018e-05
9.716518e-05
0.0001094333
0.0001301533
0.0003392258
0.0005004581
0.0006401816
0.0007479445
0.0008324954
0.0009045921
0.0009709325
0.001034992
0.001098221
0.001693163
0.001876469
0.002059668
0.0022298
0.002380376
0.002511784
0.002627632
0.002731904
0.002827994
0.002919591
0.00303059
0.003172442
0.003330621
0.003488011
0.003633611
0.003764033
0.003881063
0.003989648
0.004095611
0.004054735
0.004066715
0.004159097
0.004281183
0.004397241
0.004491366
0.004563113
0.004612152
0.004640852
0.004655702
0.00466067
0.004658688
0.004651853
0.004641581
0.00462879
0.00461417
0.004598587
0.004583713
0.004573506
0.0045763
0.004590562
0.004607774
0.00463872
0.004685986
0.004718649
0.004730287
0.004718453
0.004648751
0.004401112
0.004018575
0.003929207
0.003892592
0.003875287
0.003868217
0.003866073
0.00386506
0.003862857
0.003858263
0.003850892
0.003840961
0.003829102
0.003816169
0.003803022
0.003790277
0.003778068
0.003766088
0.003754035
0.003741665
0.003728894
0.003715734
0.003702165
0.003688262
0.003674156
0.003660212
0.003646367
0.003632622
0.003618971
0.0036054
0.003591885
0.003578375
0.003564877
0.003551371
0.003537841
0.003524279
0.003510676
0.003497027
0.003483326
0.003469567
0.00345574
0.003441839
0.003427881
0.003413847
0.003399742
0.003385576
0.003371352
0.003357081
0.003342868
0.00332915
0.003314216
0.003215102
0.003092512
0.002999666
0.002932481
0.002882958
0.002845037
0.002814645
0.002789165
0.002767009
0.002747018
0.002728447
0.002710852
0.00269395
0.00267752
0.002661364
0.002645302
0.002629221
0.002613149
0.002597247
0.002581737
0.002566709
0.002552158
0.002538008
0.00252416
0.002510514
0.002496994
0.002483545
0.002470135
0.002456743
0.002443344
0.002429924
0.002416471
0.002402979
0.002389441
0.002375851
0.002362205
0.0023485
0.002334731
0.002320895
0.002306988
0.002293004
0.002278937
0.002264784
0.002250545
0.002236227
0.002221828
0.002207321
0.002192776
0.002178601
0.002158383
0.001573796
0.001208971
0.001119429
0.001080185
0.001056418
0.001038719
0.001023672
0.001009855
0.000996772
0.0009841005
0.0009716553
0.0009594428
0.0009474533
0.0009356655
0.0009240502
0.0009125657
0.0009011723
0.0008898435
0.0008786424
0.0008676733
0.0008569221
0.0008464248
0.0008361117
0.0008259318
0.0008158421
0.0008058142
0.0007958348
0.0007859024
0.0007760211
0.0007661933
0.00075644
0.0007468087
0.0007374384
0.0007284394
0.0007211575
0.0007268762
0.0007469688
0.0007630997
0.000776728
0.0007890197
0.0008006298
0.0008119157
0.0008230158
0.000834012
0.0008449499
0.0008558518
0.0008667227
0.000877588
0.0008884495
0.0008993061
0.000910151
0.0009209726
0.0009317588
0.0009425009
0.0009531961
0.0009638495
0.0009744719
0.0009850764
0.000995676
0.001006281
0.001016901
0.001027539
0.001038184
0.001048851
0.001059536
0.001070235
0.001080949
0.001091675
0.00110245
0.001113374
0.001586408
0.001709158
0.001836177
0.001956556
0.002060092
0.002142809
0.002206585
0.002255715
0.002294419
0.002325981
0.002352724
0.002376227
0.002397536
0.002417335
0.002436068
0.002454031
0.002471425
0.002488378
0.002504966
0.002521222
0.002537156
0.002552772
0.00256807
0.002583055
0.002597745
0.002612161
0.002626333
0.002640294
0.002654079
0.002667718
0.002681236
0.002694657
0.002707998
0.002721271
0.002734486
0.002747648
0.002760761
0.002773823
0.002786833
0.002799782
0.002812657
0.002825417
0.002838018
0.002850321
0.002862031
0.002872406
0.002881265
0.002889519
0.00289745
0.002905201
0.002912842
0.002920426
0.002928048
0.002935994
0.002950419
0.002998242
0.003072985
0.00315784
0.003237829
0.00330481
0.003357191
0.003397057
0.00342755
0.003451518
0.003471102
0.003487777
0.003502516
0.003515959
0.003528542
0.003540564
0.003552219
0.00356361
0.003574764
0.003585659
0.003596253
0.003606514
0.003616424
0.003625992
0.003635244
0.003644218
0.003652958
0.003661507
0.003669904
0.003678183
0.003686373
0.003694494
0.003702562
0.003710591
0.003718586
0.003726555
0.003734501
0.003742428
0.003750337
0.003758229
0.003766107
0.00377397
0.00378182
0.003789657
0.003797482
0.003805296
0.0038131
0.003820894
0.00382868
0.003836459
0.003844233
0.003852002
0.003859767
0.003867531
0.003875293
0.003883055
0.00389082
0.003898589
0.003906364
0.00391415
0.003921947
0.003929761
0.003937593
0.003945449
0.003953332
0.003961249
0.003969208
0.003977216
0.003985285
0.003993429
0.004001664
0.004010012
0.004018501
0.00402717
0.004036075
0.0040453
0.004054972
0.004065305
0.004076674
0.004089806
0.004106245
0.004129599
0.004168517
0.004238474
0.004208385
3.162197e-05
3.613138e-05
4.62446e-05
5.80918e-05
7.024279e-05
8.241343e-05
9.468167e-05
0.0001071334
0.0001211596
0.0002644914
0.0004290948
0.0005853066
0.000708258
0.0008016225
0.0008779167
0.0009460903
0.001010901
0.00107466
0.001616829
0.001798252
0.001987301
0.002168356
0.002330919
0.002472582
0.002596248
0.002706252
0.002806478
0.002900383
0.002998235
0.00312802
0.003282783
0.003444623
0.003598674
0.003737901
0.003861439
0.003971254
0.004070237
0.004095774
0.004146552
0.004264566
0.004411107
0.004564199
0.004711774
0.004848703
0.00497407
0.005088994
0.00519554
0.005301273
0.005419736
0.005554109
0.00569879
0.005845323
0.005986959
0.006120179
0.006243921
0.006351393
0.007591266
0.007724551
0.007859505
0.008000026
0.008144574
0.008289776
0.008432433
0.008570299
0.008702263
0.008828619
0.008953045
0.009080445
0.009213453
0.009351671
0.009492633
0.009633264
0.009770801
0.009902211
0.01
0.01
0.01
0.01
0.01
0.01
0.01
0.01
0.01
0.01
0.01
0.01
0.01
0.01
0.01
0.01
0.01
0.01
0.01
0.01
0.01
0.01
0.01
0.01
0.01
0.01
0.01
0.01
0.01
0.01
0.01
0.01
0.01
0.01
0.01
0.00999844
0.009966179
0.009939136
0.009915015
0.009892332
0.00987043
0.009849342
0.009829502
0.009811392
0.009795216
0.009780749
0.009767447
0.009754673
0.009741878
0.009728686
0.009714901
0.009700485
0.009685499
0.009670169
0.009654802
0.009639425
0.009624121
0.009608929
0.009593857
0.009578891
0.009564007
0.009549186
0.009534407
0.009519648
0.009504894
0.009490129
0.009475341
0.009460521
0.009445658
0.009430747
0.009415783
0.009400766
0.0093857
0.009370594
0.009355466
0.00934035
0.009325318
0.009310486
0.00929578
0.009278654
0.009249683
0.009206356
0.009152652
0.009094285
0.00903583
0.008980108
0.008928468
0.008881294
0.008838419
0.008799378
0.008763616
0.008730587
0.008699776
0.008670701
0.008642934
0.008616156
0.008590229
0.008565221
0.008541335
0.008518783
0.008497677
0.008477994
0.008459595
0.00844227
0.008425789
0.008409937
0.008394531
0.008379429
0.008364521
0.008349727
0.008334987
0.008320262
0.008305524
0.008290752
0.008275934
0.008261059
0.008246123
0.008231121
0.008216048
0.008200902
0.008185679
0.008170378
0.008154999
0.008139549
0.008124039
0.008108485
0.008092916
0.008077434
0.008062124
0.008047053
0.007189973
0.006807648
0.006656306
0.006559093
0.00648156
0.006416646
0.006361915
0.006315495
0.006275656
0.006240877
0.006209938
0.006181933
0.006156201
0.006132236
0.006109625
0.006088019
0.006067172
0.00604701
0.006027646
0.006009269
0.005991995
0.005975815
0.00596059
0.005946127
0.005932228
0.005918738
0.005905555
0.00589263
0.005879966
0.005867617
0.005855712
0.005844527
0.005834644
0.005827435
0.005826246
0.005836555
0.005855475
0.005878788
0.005903708
0.005928544
0.005952499
0.005975331
0.00599707
0.006017863
0.006037889
0.006057314
0.006076275
0.006094866
0.006113138
0.006131095
0.006148702
0.0061659
0.006182629
0.00619885
0.00621456
0.006229795
0.006244624
0.006259128
0.00627339
0.006287478
0.006301448
0.006315335
0.006329159
0.006342929
0.006356648
0.006370312
0.006383917
0.006397466
0.006410825
0.006419545
0.007554259
0.007602784
0.007651931
0.007709322
0.00777487
0.007845238
0.007916475
0.007985432
0.008050044
0.008109369
0.008163262
0.008212044
0.008256252
0.008296485
0.008333322
0.008367287
0.008398825
0.008428292
0.008455954
0.008482001
0.008506569
0.008529761
0.008551668
0.008572389
0.008592031
0.008610715
0.00862857
0.008645724
0.0086623
0.008678408
0.008694143
0.008709582
0.008724785
0.008739797
0.00875465
0.008769363
0.008783945
0.008798396
0.008812707
0.008826856
0.008840802
0.00885448
0.00886778
0.008880518
0.008892425
0.008903255
0.008913191
0.008922537
0.00893148
0.008940135
0.008948572
0.008956819
0.008964829
0.008972607
0.008982027
0.00899788
0.009023696
0.009060024
0.009104768
0.009154471
0.009205624
0.009255487
0.009302342
0.009345377
0.00938442
0.009419679
0.009451559
0.009480537
0.009507093
0.00953165
0.00955454
0.009575981
0.00959609
0.009614909
0.009632452
0.009648735
0.009663806
0.009677749
0.009690682
0.009702743
0.00971408
0.009724832
0.009735129
0.009745078
0.009754768
0.009764269
0.009773633
0.009782897
0.009792088
0.009801224
0.009810319
0.00981938
0.009828414
0.009837425
0.009846415
0.009855388
0.009864345
0.009873287
0.009882217
0.009891135
0.009900044
0.009908945
0.009917841
0.009926734
0.009935626
0.009944519
0.009953416
0.00996232
0.009971231
0.009980155
0.009989094
0.009998053
0.01
0.01
0.01
0.01
0.01
0.01
0.01
0.01
0.01
0.01
0.01
0.01
0.01
0.01
0.01
0.01
0.01
0.01
0.01
0.01
0.01
0.01
0.01
0.01
0.01
0.01
0.01
3.611031e-05
3.383293e-05
4.37825e-05
5.66535e-05
6.989563e-05
8.302438e-05
9.62668e-05
0.0001096542
0.0001232856
0.0001465517
0.0003581252
0.0005342797
0.0006757516
0.0007784454
0.0008581464
0.000927426
0.0009926698
0.00105671
0.001120341
0.001743782
0.001945333
0.002141099
0.002316522
0.002467042
0.00259594
0.002708729
0.002810257
0.002904218
0.002995142
0.003111772
0.003262679
0.003428205
0.00358882
0.003734032
0.003861676
0.003973769
0.00407413
0.004167554
0.004157036
0.004252775
0.004393934
0.004549331
0.00470198
0.004844207
0.004974065
0.005092454
0.005201372
0.005304801
0.005416332
0.005544983
0.005687682
0.005835752
0.005980981
0.006118455
0.006246384
0.006360724
0.007622687
0.0077499
0.007877741
0.008013026
0.008154995
0.008300048
0.008444372
0.008585157
0.008720693
0.008850518
0.0089766
0.009103984
0.009236669
0.009375623
0.009519087
0.009663983
0.009807185
0.009946114
0.01
0.01
0.01
0.01
0.01
0.01
0.01
0.01
0.01
0.01
0.01
0.01
0.01
0.01
0.01
0.01
0.01
0.01
0.01
0.01
0.01
0.01
0.01
0.01
0.01
0.01
0.01
0.01
0.01
0.01
0.01
0.01
0.01
0.01
0.01
0.01
0.01
0.01
0.01
0.01
0.01
0.01
0.01
0.01
0.01
0.01
0.01
0.01
0.01
0.01
0.01
0.01
0.01
0.01
0.01
0.01
0.01
0.01
0.01
0.01
0.01
0.01
0.01
0.01
0.01
0.01
0.01
0.01
0.01
0.01
0.01
0.01
0.01
0.01
0.01
0.01
0.01
0.01
0.01
0.01
0.01
0.01
0.01
0.01
0.01
0.01
0.01
0.01
0.01
0.01
0.01
0.01
0.01
0.01
0.01
0.01
0.01
0.01
0.01
0.01
0.01
0.01
0.01
0.01
0.01
0.01
0.01
0.01
0.01
0.01
0.01
0.01
0.01
0.01
0.01
0.01
0.01
0.01
0.01
0.01
0.01
0.01
0.01
0.01
0.01
0.01
0.01
0.01
0.01
0.01
0.01
0.01
0.01
0.01
0.01
0.01
0.01
0.01
0.01
0.01
0.01
0.01
0.01
0.01
0.01
0.01
0.01
0.01
0.01
0.01
0.01
0.01
0.01
0.01
0.01
0.01
0.01
0.01
0.01
0.01
0.01
0.01
0.01
0.01
0.01
0.01
0.01
0.01
0.01
0.01
0.01
0.01
0.01
0.01
0.01
0.01
0.01
0.01
0.01
0.01
0.01
0.01
0.01
0.01
0.01
0.01
0.01
0.01
0.01
0.01
0.01
0.01
0.01
0.01
0.01
0.01
0.01
0.01
0.01
0.01
0.01
0.01
0.01
0.01
0.01
0.01
0.01
0.01
0.01
0.01
0.01
0.01
0.01
0.01
0.01
0.01
0.01
0.01
0.01
0.01
0.01
0.01
0.01
0.01
0.01
0.01
0.01
0.01
0.01
0.01
0.01
0.01
0.01
0.01
0.01
0.01
0.01
0.01
0.01
0.01
0.01
0.01
0.01
0.01
0.01
0.01
0.01
0.01
0.01
0.01
0.01
0.01
0.01
0.01
0.01
0.01
0.01
0.01
0.01
0.01
0.01
0.01
0.01
0.01
0.01
0.01
0.01
0.01
0.01
0.01
0.01
0.01
0.01
0.01
0.01
0.01
0.01
0.01
0.01
0.01
0.01
0.01
0.01
0.01
0.01
0.01
0.01
0.01
0.01
0.01
0.01
0.01
0.01
0.01
0.01
0.01
0.01
0.01
0.01
0.01
0.01
0.01
0.01
0.01
0.01
0.01
0.01
0.01
0.01
0.01
0.01
0.01
0.01
0.01
0.01
0.01
0.01
0.01
0.01
0.01
0.01
0.01
0.01
0.01
0.01
0.01
0.01
0.01
0.01
0.01
0.01
0.01
0.01
0.01
0.01
0.01
0.01
0.01
0.01
0.01
0.01
0.01
0.01
0.01
0.01
0.01
0.01
0.01
0.01
0.01
0.01
0.01
0.01
0.01
0.01
0.01
0.01
0.01
0.01
0.01
0.01
0.01
0.01
0.01
0.01
0.01
0.01
0.01
0.01
0.01
0.01
0.01
0.01
0.01
0.01
0.01
0.01
7.105034e-05
0.0001212237
0.0002515068
0.000589896
0.0009370272
0.001801918
0.00221499
0.002614001
0.002982173
0.00331846
0.003607257
0.003851566
0.003991429
0.004133046
0.004319323
0.00451377
0.00469692
0.004861081
0.005005757
0.005133609
0.005248061
0.005352989
0.005460123
0.005585771
0.005730066
0.005883118
0.006034437
0.006177634
0.006310562
0.006433292
0.006538173
0.00781149
0.007949724
0.008091522
0.008238991
0.008388791
0.008536736
0.008679699
0.008816018
0.008945374
0.009069071
0.00919225
0.009320518
0.009456089
0.0095976
0.009741743
0.009884932
0.01
0.01
0.01
0.01
0.01
0.01
0.01
0.01
0.01
0.01
0.01
0.01
0.01
0.01
0.01
0.01
0.01
0.01
0.01
0.01
0.01
0.01
0.01
0.01
0.01
0.01
0.01
0.01
0.01
0.01
0.01
0.01
0.01
0.01
0.01
0.01
0.01
0.01
0.01
0.01
0.01
0.01
0.01
0.01
0.01
0.01
0.01
0.01
0.01
0.01
0.01
0.01
0.01
0.01
0.01
0.01
0.01
0.01
0.01
0.01
0.01
0.01
0.01
0.01
0.01
0.01
0.01
0.01
0.01
0.01
0.01
0.01
0.01
0.01
0.01
0.01
0.01
0.01
0.01
0.01
0.01
0.01
0.01
0.01
0.01
0.01
0.01
0.01
0.01
0.01
0.01
0.01
0.01
0.01
0.01
0.01
0.01
0.01
0.01
0.01
0.01
0.01
0.01
0.01
0.01
0.01
0.01
0.01
0.01
0.01
0.01
0.01
0.01
0.01
0.01
0.01
0.01
0.01
0.01
0.01
0.01
0.01
0.01
0.01
0.01
0.01
0.01
0.01
0.01
0.01
0.01
0.01
0.01
0.01
0.01
0.01
0.01
0.01
0.01
0.01
0.01
0.01
0.01
0.01
0.01
0.01
0.01
0.01
0.01
0.01
0.01
0.01
0.01
0.01
0.01
0.01
0.01
0.01
0.01
0.01
0.01
0.01
0.01
0.01
0.01
0.01
0.01
0.01
0.01
0.01
0.01
0.01
0.01
0.01
0.01
0.01
0.01
0.01
0.01
0.01
0.01
0.01
0.01
0.01
0.01
0.01
0.01
0.01
0.01
0.01
0.01
0.01
0.01
0.01
0.01
0.01
0.01
0.01
0.01
0.01
0.01
0.01
0.01
0.01
0.01
0.01
0.01
0.01
0.01
0.01
0.01
0.01
0.01
0.01
0.01
0.01
0.01
0.01
0.01
0.01
0.01
0.01
0.01
0.01
0.01
0.01
0.01
0.01
0.01
0.01
0.01
0.01
0.01
0.01
0.01
0.01
0.01
0.01
0.01
0.01
0.01
0.01
0.01
0.01
0.01
0.01
0.01
0.01
0.01
0.01
0.01
0.01
0.01
0.01
0.01
0.01
0.01
0.01
0.01
0.01
0.01
0.01
0.01
0.01
0.01
0.01
0.01
0.01
0.01
0.01
0.01
0.01
0.01
0.01
0.01
0.01
0.01
0.01
0.01
0.01
0.01
0.01
0.01
0.01
0.01
0.01
0.01
0.01
0.01
0.01
0.01
0.01
0.01
0.01
0.01
0.01
0.01
0.01
0.01
0.01
0.01
0.01
0.01
0.01
0.01
0.01
0.01
0.01
0.01
0.01
0.01
0.01
0.01
0.01
0.01
0.01
0.01
0.01
0.01
0.01
0.01
0.01
0.01
0.01
0.01
0.01
0.01
0.01
0.01
0.01
0.01
0.01
0.01
0.01
0.01
0.01
0.01
0.01
0.01
0.01
0.01
0.01
0.01
0.01
0.01
0.01
0.01
0.01
0.01
0.01
0.01
0.01
0.01
0.01
0.01
0.01
0.01
0.01
0.01
0.01
0.01
0.01
0.01
0.01
0.01
0.01
0.01
0.01
0.01
0.01
0.01
0.01
0.01
0.01
0.01
0.01
0.01
0.01
0.01
0.01
0.01
0.01
0.01
0.01
0.01
0.01
0.01
0.01
0.01
0.01
0.01
0.01
0.01
0.01
0.01
0.01
0.01
0.01
0.01
0.01
0.01
0.01
0.01
0.01
0.01
0.01
0.01
0.01
0.01
0.01
0.01
0.01
0.01
0.01
0.01
0.01
8.87859e-05
0.0001642877
0.00024642
0.0007205788
0.001201177
0.002272471
0.002844421
0.003322096
0.003728275
0.004149254
0.004556247
0.004808651
0.005162966
0.005538743
0.005918334
0.006293797
0.007949353
0.008283916
0.008610869
0.008922996
0.00921397
0.009485092
0.009738549
0.009969552
0.01
0.01
0.01
0.01
0.01
0.01
0.01
0.01
0.01
0.01
0.01
0.01
0.01
0.01
0.01
0.01
0.01
0.01
0.01
0.01
0.01
0.01
0.01
0.01
0.01
0.01
0.01
0.01
0.01
0.01
0.01
0.01
0.01
0.01
0.01
0.01
0.01
0.01
0.01
0.01
0.01
0.01
0.01
0.01
0.01
0.01
0.01
0.01
0.01
0.01
0.01
0.01
0.01
0.01
0.01
0.01
0.01
0.01
0.01
0.01
0.01
0.01
0.01
0.01
0.01
0.01
0.01
0.01
0.01
0.01
0.01
0.01
0.01
0.01
0.01
0.01
0.01
0.01
0.01
0.01
0.01
0.01
0.01
0.01
0.01
0.01
0.01
0.01
0.01
0.01
0.01
0.01
0.01
0.01
0.01
0.01
0.01
0.01
0.01
0.01
0.01
0.01
0.01
0.01
0.01
0.01
0.01
0.01
0.01
0.01
0.01
0.01
0.01
0.01
0.01
0.01
0.01
0.01
0.01
0.01
0.01
0.01
0.01
0.01
0.01
0.01
0.01
0.01
0.01
0.01
0.01
0.01
0.01
0.01
0.01
0.01
0.01
0.01
0.01
0.01
0.01
0.01
0.01
0.01
0.01
0.01
0.01
0.01
0.01
0.01
0.01
0.01
0.01
0.01
0.01
0.01
0.01
0.01
0.01
0.01
0.01
0.01
0.01
0.01
0.01
0.01
0.01
0.01
0.01
0.01
0.01
0.01
0.01
0.01
0.01
0.01
0.01
0.01
0.01
0.01
0.01
0.01
0.01
0.01
0.01
0.01
0.01
0.01
0.01
0.01
0.01
0.01
0.01
0.01
0.01
0.01
0.01
0.01
0.01
0.01
0.01
0.01
0.01
0.01
0.01
0.01
0.01
0.01
0.01
0.01
0.01
0.01
0.01
0.01
0.01
0.01
0.01
0.01
0.01
0.01
0.01
0.01
0.01
0.01
0.01
0.01
0.01
0.01
0.01
0.01
0.01
0.01
0.01
0.01
0.01
0.01
0.01
0.01
0.01
0.01
0.01
0.01
0.01
0.01
0.01
0.01
0.01
0.01
0.01
0.01
0.01
0.01
0.01
0.01
0.01
0.01
0.01
0.01
0.01
0.01
0.01
0.01
0.01
0.01
0.01
0.01
0.01
0.01
0.01
0.01
0.01
0.01
0.01
0.01
0.01
0.01
0.01
0.01
0.01
0.01
0.01
0.01
0.01
0.01
0.01
0.01
0.01
0.01
0.01
0.01
0.01
0.01
0.01
0.01
0.01
0.01
0.01
0.01
0.01
0.01
0.01
0.01
0.01
0.01
0.01
0.01
0.01
0.01
0.01
0.01
0.01
0.01
0.01
0.01
0.01
0.01
0.01
0.01
0.01
0.01
0.01
0.01
0.01
0.01
0.01
0.01
0.01
0.01
0.01
0.01
0.01
0.01
0.01
0.01
0.01
0.01
0.01
0.01
0.01
0.01
0.01
0.01
0.01
0.01
0.01
0.01
0.01
0.01
0.01
0.01
0.01
0.01
0.01
0.01
0.01
0.01
0.01
0.01
0.01
0.01
0.01
0.01
0.01
0.01
0.01
0.01
0.01
0.01
0.01
0.01
0.01
0.01
0.01
0.01
0.01
0.01
0.01
0.01
0.01
0.01
0.01
0.01
0.01
0.01
0.01
0.01
0.01
0.01
0.01
0.01
0.01
0.01
0.01
0.01
0.01
0.01
0.01
0.01
0.01
0.01
0.01
0.01
0.01
0.01
0.01
0.01
0.01
0.01
0.01
0.01
0.01
0.01
0.01
0.01
0.01
0.01
0.01
0.01
0.01
0.01
0.01
0.01
0.01
0.01
0.01
0.01
0.01
0.01
0.01
0.01
0.01
0.01
0.01
0.01
0.01
0.01
0.01
0.01
0.01
0.01
0.01
0.01
0.01
0.01
0.01
0.01
0.01
0.01
0.01
0.01
9.283593e-05
0.0001867655
0.0002615551
0.001033695
0.001642012
0.003705672
0.004302492
0.005020749
0.005864105
0.006356667
0.006793352
0.007286356
0.007690802
0.008085815
0.008467258
0.01
0.01
0.01
0.01
0.01
0.01
0.01
0.01
0.01
0.01
0.01
0.01
0.01
0.01
0.01
0.01
0.01
0.01
0.01
0.01
0.01
0.01
0.01
0.01
0.01
0.01
0.01
0.01
0.01
0.01
0.01
0.01
0.01
0.01
0.01
0.01
0.01
0.01
0.01
0.01
0.01
0.01
0.01
0.01
0.01
0.01
0.01
0.01
0.01
0.01
0.01
0.01
0.01
0.01
0.01
0.01
0.01
0.01
0.01
0.01
0.01
0.01
0.01
0.01
0.01
0.01
0.01
0.01
0.01
0.01
0.01
0.01
0.01
0.01
0.01
0.01
0.01
0.01
0.01
0.01
0.01
0.01
0.01
0.01
0.01
0.01
0.01
0.01
0.01
0.01
0.01
0.01
0.01
0.01
0.01
0.01
0.01
0.01
0.01
0.01
0.01
0.01
0.01
0.01
0.01
0.01
0.01
0.01
0.01
0.01
0.01
0.01
0.01
0.01
0.01
0.01
0.01
0.01
0.01
0.01
0.01
0.01
0.01
0.01
0.01
0.01
0.01
0.01
0.01
0.01
0.01
0.01
0.01
0.01
0.01
0.01
0.01
0.01
0.01
0.01
0.01
0.01
0.01
0.01
0.01
0.01
0.01
0.01
0.01
0.01
0.01
0.01
0.01
0.01
0.01
0.01
0.01
0.01
0.01
0.01
0.01
0.01
0.01
0.01
0.01
0.01
0.01
0.01
0.01
0.01
0.01
0.01
0.01
0.01
0.01
0.01
0.01
0.01
0.01
0.01
0.01
0.01
0.01
0.01
0.01
0.01
0.01
0.01
0.01
0.01
0.01
0.01
0.01
0.01
0.01
0.01
0.01
0.01
0.01
0.01
0.01
0.01
0.01
0.01
0.01
0.01
0.01
0.01
0.01
0.01
0.01
0.01
0.01
0.01
0.01
0.01
0.01
0.01
0.01
0.01
0.01
0.01
0.01
0.01
0.01
0.01
0.01
0.01
0.01
0.01
0.01
0.01
0.01
0.01
0.01
0.01
0.01
0.01
0.01
0.01
0.01
0.01
0.01
0.01
0.01
0.01
0.01
0.01
0.01
0.01
0.01
0.01
0.01
0.01
0.01
0.01
0.01
0.01
0.01
0.01
0.01
0.01
0.01
0.01
0.01
0.01
0.01
0.01
0.01
0.01
0.01
0.01
0.01
0.01
0.01
0.01
0.01
0.01
0.01
0.01
0.01
0.01
0.01
0.01
0.01
0.01
0.01
0.01
0.01
0.01
0.01
0.01
0.01
0.01
0.01
0.01
0.01
0.01
0.01
0.01
0.01
0.01
0.01
0.01
0.01
0.01
0.01
0.01
0.01
0.01
0.01
0.01
0.01
0.01
0.01
0.01
0.01
0.01
0.01
0.01
0.01
0.01
0.01
0.01
0.01
0.01
0.01
0.01
0.01
0.01
0.01
0.01
0.01
0.01
0.01
0.01
0.01
0.01
0.01
0.01
0.01
0.01
0.01
0.01
0.01
0.01
0.01
0.01
0.01
0.01
0.01
0.01
0.01
0.01
0.01
0.01
0.01
0.01
0.01
0.01
0.01
0.01
0.01
0.01
0.01
0.01
0.01
0.01
0.01
0.01
0.01
0.01
0.01
0.01
0.01
0.01
0.01
0.01
0.01
0.01
0.01
0.01
0.01
0.01
0.01
0.01
0.01
0.01
0.01
0.01
0.01
0.01
0.01
0.01
0.01
0.01
0.01
0.01
0.01
0.01
0.01
0.01
0.01
0.01
0.01
0.01
0.01
0.01
0.01
0.01
0.01
0.01
0.01
0.01
0.01
0.01
0.01
0.01
0.01
0.01
0.01
0.01
0.01
0.01
0.01
0.01
0.01
0.01
0.01
0.01
0.01
0.01
0.01
0.01
0.01
0.01
0.01
0.01
0.01
0.01
0.01
0.01
0.01
0.01
0.01
0.01
0.01
0.01
0.01
0.01
0.01
0.01
0.01
0.01
0.01
0.01
0.01
0.01
0.01
0.01
0.01
0.01
0.01
0.01
0.01
0.01
0.01
0.01
0.01
7.632466e-05
0.0008576954
0.001526966
0.002340831
0.003264064
0.004204072
0.005252352
0.006309746
0.007207464
0.008070445
0.009944132
0.01
0.01
0.01
0.01
0.01
0.01
0.01
0.01
0.01
0.01
0.01
0.01
0.01
0.01
0.01
0.01
0.01
0.01
0.01
0.01
0.01
0.01
0.01
0.01
0.01
0.01
0.01
0.01
0.01
0.01
0.01
0.01
0.01
0.01
0.01
0.01
0.01
0.01
0.01
0.01
0.01
0.01
0.01
0.01
0.01
0.01
0.01
0.01
0.01
0.01
0.01
0.01
0.01
0.01
0.01
0.01
0.01
0.01
0.01
0.01
0.01
0.01
0.01
0.01
0.01
0.01
0.01
0.01
0.01
0.01
0.01
0.01
0.01
0.01
0.01
0.01
0.01
0.01
0.01
0.01
0.01
0.01
0.01
0.01
0.01
0.01
0.01
0.01
0.01
0.01
0.01
0.01
0.01
0.01
0.01
0.01
0.01
0.01
0.01
0.01
0.01
0.01
0.01
0.01
0.01
0.01
0.01
0.01
0.01
0.01
0.01
0.01
0.01
0.01
0.01
0.01
0.01
0.01
0.01
0.01
0.01
0.01
0.01
0.01
0.01
0.01
0.01
0.01
0.01
0.01
0.01
0.01
0.01
0.01
0.01
0.01
0.01
0.01
0.01
0.01
0.01
0.01
0.01
0.01
0.01
0.01
0.01
0.01
0.01
0.01
0.01
0.01
0.01
0.01
0.01
0.01
0.01
0.01
0.01
0.01
0.01
0.01
0.01
0.01
0.01
0.01
0.01
0.01
0.01
0.01
0.01
0.01
0.01
0.01
0.01
0.01
0.01
0.01
0.01
0.01
0.01
0.01
0.01
0.01
0.01
0.01
0.01
0.01
0.01
0.01
0.01
0.01
0.01
0.01
0.01
0.01
0.01
0.01
0.01
0.01
0.01
0.01
0.01
0.01
0.01
0.01
0.01
0.01
0.01
0.01
0.01
0.01
0.01
0.01
0.01
0.01
0.01
0.01
0.01
0.01
0.01
0.01
0.01
0.01
0.01
0.01
0.01
0.01
0.01
0.01
0.01
0.01
0.01
0.01
0.01
0.01
0.01
0.01
0.01
0.01
0.01
0.01
0.01
0.01
0.01
0.01
0.01
0.01
0.01
0.01
0.01
0.01
0.01
0.01
0.01
0.01
0.01
0.01
0.01
0.01
0.01
0.01
0.01
0.01
0.01
0.01
0.01
0.01
0.01
0.01
0.01
0.01
0.01
0.01
0.01
0.01
0.01
0.01
0.01
0.01
0.01
0.01
0.01
0.01
0.01
0.01
0.01
0.01
0.01
0.01
0.01
0.01
0.01
0.01
0.01
0.01
0.01
0.01
0.01
0.01
0.01
0.01
0.01
0.01
0.01
0.01
0.01
0.01
0.01
0.01
0.01
0.01
0.01
0.01
0.01
0.01
0.01
0.01
0.01
0.01
0.01
0.01
0.01
0.01
0.01
0.01
0.01
0.01
0.01
0.01
0.01
0.01
0.01
0.01
0.01
0.01
0.01
0.01
0.01
0.01
0.01
0.01
0.01
0.01
0.01
0.01
0.01
0.01
0.01
0.01
0.01
0.01
0.01
0.01
0.01
0.01
0.01
0.01
0.01
0.01
0.01
0.01
0.01
0.01
0.01
0.01
0.01
0.01
0.01
0.01
0.01
0.01
0.01
0.01
0.01
0.01
0.01
0.01
0.01
0.01
0.01
0.01
0.01
0.01
0.01
0.01
0.01
0.01
0.01
0.01
0.01
0.01
0.01
0.01
0.01
0.01
0.01
0.01
0.01
0.01
0.01
0.01
0.01
0.01
0.01
0.01
0.01
0.01
0.01
0.01
0.01
0.01
0.01
0.01
0.01
0.01
0.01
0.01
0.01
0.01
0.01
0.01
0.01
0.01
0.01
0.01
0.01
0.01
0.01
0.01
0.01
0.01
0.01
0.01
0.01
0.01
0.01
0.01
0.01
0.01
0.01
0.01
0.01
0.01
0.01
0.01
0.01
0.01
0.01
0.01
0.01
0.01
0.01
0.01
0.01
0.01
0.01
0.01
0.01
0.01
0.01
0.01
0.01
0.01
0.01
0.01
0.01
0.01
0.01
0.01
0.01
0.01
0.01
0.01
0.01
0.01
0.01
0.01
0.0001052687
0.00210707
0.00428747
0.00559728
0.006704558
0.007579063
0.00826739
0.008844474
0.00947962
0.01
0.01
0.01
0.01
0.01
0.01
0.01
0.01
0.01
0.01
0.01
0.01
0.01
0.01
0.01
0.01
0.01
0.01
0.01
0.01
0.01
0.01
0.01
0.01
0.01
0.01
0.01
0.01
0.01
0.01
0.01
0.01
0.01
0.01
0.01
0.01
0.01
0.01
0.01
0.01
0.01
0.01
0.01
0.01
0.01
0.01
0.01
0.01
0.01
0.01
0.01
0.01
0.01
0.01
0.01
0.01
0.01
0.01
0.01
0.01
0.01
0.01
0.01
0.01
0.01
0.01
0.01
0.01
0.01
0.01
0.01
0.01
0.01
0.01
0.01
0.01
0.01
0.01
0.01
0.01
0.01
0.01
0.01
0.01
0.01
0.01
0.01
0.01
0.01
0.01
0.01
0.01
0.01
0.01
0.01
0.01
0.01
0.01
0.01
0.01
0.01
0.01
0.01
0.01
0.01
0.01
0.01
0.01
0.01
0.01
0.01
0.01
0.01
0.01
0.01
0.01
0.01
0.01
0.01
0.01
0.01
0.01
0.01
0.01
0.01
0.01
0.01
0.01
0.01
0.01
0.01
0.01
0.01
0.01
0.01
0.01
0.01
0.01
0.01
0.01
0.01
0.01
0.01
0.01
0.01
0.01
0.01
0.01
0.01
0.01
0.01
0.01
0.01
0.01
0.01
0.01
0.01
0.01
0.01
0.01
0.01
0.01
0.01
0.01
0.01
0.01
0.01
0.01
0.01
0.01
0.01
0.01
0.01
0.01
0.01
0.01
0.01
0.01
0.01
0.01
0.01
0.01
0.01
0.01
0.01
0.01
0.01
0.01
0.01
0.01
0.01
0.01
0.01
0.01
0.01
0.01
0.01
0.01
0.01
0.01
0.01
0.01
0.01
0.01
0.01
0.01
0.01
0.01
0.01
0.01
0.01
0.01
0.01
0.01
0.01
0.01
0.01
0.01
0.01
0.01
0.01
0.01
0.01
0.01
0.01
0.01
0.01
0.01
0.01
0.01
0.01
0.01
0.01
0.01
0.01
0.01
0.01
0.01
0.01
0.01
0.01
0.01
0.01
0.01
0.01
0.01
0.01
0.01
0.01
0.01
0.01
0.01
0.01
0.01
0.01
0.01
0.01
0.01
0.01
0.01
0.01
0.01
0.01
0.01
0.01
0.01
0.01
0.01
0.01
0.01
0.01
0.01
0.01
0.01
0.01
0.01
0.01
0.01
0.01
0.01
0.01
0.01
0.01
0.01
0.01
0.01
0.01
0.01
0.01
0.01
0.01
0.01
0.01
0.01
0.01
0.01
0.01
0.01
0.01
0.01
0.01
0.01
0.01
0.01
0.01
0.01
0.01
0.01
0.01
0.01
0.01
0.01
0.01
0.01
0.01
0.01
0.01
0.01
0.01
0.01
0.01
0.01
0.01
0.01
0.01
0.01
0.01
0.01
0.01
0.01
0.01
0.01
0.01
0.01
0.01
0.01
0.01
0.01
0.01
0.01
0.01
0.01
0.01
0.01
0.01
0.01
0.01
0.01
0.01
0.01
0.01
0.01
0.01
0.01
0.01
0.01
0.01
0.01
0.01
0.01
0.01
0.01
0.01
0.01
0.01
0.01
0.01
0.01
0.01
0.01
0.01
0.01
0.01
0.01
0.01
0.01
0.01
0.01
0.01
0.01
0.01
0.01
0.01
0.01
0.01
0.01
0.01
0.01
0.01
0.01
0.01
0.01
0.01
0.01
0.01
0.01
0.01
0.01
0.01
0.01
0.01
0.01
0.01
0.01
0.01
0.01
0.01
0.01
0.01
0.01
0.01
0.01
0.01
0.01
0.01
0.01
0.01
0.01
0.01
0.01
0.01
0.01
0.01
0.01
0.01
0.01
0.01
0.01
0.01
0.01
0.01
0.01
0.01
0.01
0.01
0.01
0.01
0.01
0.01
0.01
0.01
0.01
0.01
0.01
0.01
0.01
0.01
0.01
0.01
0.01
0.01
0.01
0.01
0.01
0.01
0.01
0.01
0.01
0.01
0.01
0.01
0.01
0.01
0.01
0.01
0.01
0.01
0.01
0.01
0.01
0.01
0.01
0.01
0.01
0.01
0.01
0.01
0.01
0.01
0.01
4.089112e-05
6.421961e-05
0.0001113207
0.0003271611
0.0006105757
0.001291451
0.001588412
0.001785493
0.001807434
0.001795008
0.001867488
0.001913266
0.001905059
0.001776043
0.0009555448
0.0001561483
2.897705e-05
0.0001179261
0.003088778
0.005298391
0.006471541
0.007241843
0.007653628
0.007860149
0.008112617
0.008616343
0.009364641
0.01
0.01
0.01
0.01
0.01
0.01
0.01
0.01
0.01
0.01
0.01
0.01
0.01
0.01
0.01
0.01
0.01
0.01
0.01
0.01
0.01
0.01
0.01
0.01
0.01
0.01
0.01
0.01
0.01
0.01
0.01
0.01
0.01
0.01
0.01
0.01
0.01
0.01
0.01
0.01
0.01
0.01
0.01
0.01
0.01
0.01
0.01
0.01
0.01
0.01
0.01
0.01
0.01
0.01
0.01
0.01
0.01
0.01
0.01
0.01
0.01
0.01
0.01
0.01
0.01
0.01
0.01
0.01
0.01
0.01
0.01
0.01
0.01
0.01
0.01
0.01
0.01
0.01
0.01
0.01
0.01
0.01
0.01
0.01
0.01
0.01
0.01
0.01
0.01
0.01
0.01
0.01
0.01
0.01
0.01
0.01
0.01
0.01
0.01
0.01
0.01
0.01
0.01
0.01
0.01
0.01
0.01
0.01
0.01
0.01
0.01
0.01
0.01
0.01
0.01
0.01
0.01
0.01
0.01
0.01
0.01
0.01
0.01
0.01
0.01
0.01
0.01
0.01
0.01
0.01
0.01
0.01
0.01
0.01
0.01
0.01
0.01
0.01
0.01
0.01
0.01
0.01
0.01
0.01
0.01
0.01
0.01
0.01
0.01
0.01
0.01
0.01
0.01
0.01
0.01
0.01
0.01
0.01
0.01
0.01
0.01
0.01
0.01
0.01
0.01
0.01
0.01
0.01
0.01
0.01
0.01
0.01
0.01
0.01
0.01
0.01
0.01
0.01
0.01
0.01
0.01
0.01
0.01
0.01
0.01
0.01
0.01
0.01
0.01
0.01
0.01
0.01
0.01
0.01
0.01
0.01
0.01
0.01
0.01
0.01
0.01
0.01
0.01
0.01
0.01
0.01
0.01
0.01
0.01
0.01
0.01
0.01
0.01
0.01
0.01
0.01
0.01
0.01
0.01
0.01
0.01
0.01
0.01
0.01
0.01
0.01
0.01
0.01
0.01
0.01
0.01
0.01
0.01
0.01
0.01
0.01
0.01
0.01
0.01
0.01
0.01
0.01
0.01
0.01
0.01
0.01
0.01
0.01
0.01
0.01
0.01
0.01
0.01
0.01
0.01
0.01
0.01
0.01
0.01
0.01
0.01
0.01
0.01
0.01
0.01
0.01
0.01
0.01
0.01
0.01
0.01
0.01
0.01
0.01
0.01
0.01
0.01
0.01
0.01
0.01
0.01
0.01
0.01
0.01
0.01
0.01
0.01
0.01
0.01
0.01
0.01
0.01
0.01
0.01
0.01
0.01
0.01
0.01
0.01
0.01
0.01
0.01
0.01
0.01
0.01
0.01
0.01
0.01
0.01
0.01
0.01
0.01
0.01
0.01
0.01
0.01
0.01
0.01
0.01
0.01
0.01
0.01
0.01
0.01
0.01
0.01
0.01
0.01
0.01
0.01
0.01
0.01
0.01
0.01
0.01
0.01
0.01
0.01
0.01
0.01
0.01
0.01
0.01
0.01
0.01
0.01
0.01
0.01
0.01
0.01
0.01
0.01
0.01
0.01
0.01
0.01
0.01
0.01
0.01
0.01
0.01
0.01
0.01
0.01
0.01
0.01
0.01
0.01
0.01
0.01
0.01
0.01
0.01
0.01
0.01
0.01
0.01
0.01
0.01
0.01
0.01
0.01
0.01
0.01
0.01
0.01
0.01
0.01
0.01
0.01
0.01
0.01
0.01
0.01
0.01
0.01
0.01
0.01
0.01
0.01
0.01
0.01
0.01
0.01
0.01
0.01
0.01
0.01
0.01
0.01
0.01
0.01
0.01
0.01
0.01
0.01
0.01
0.01
0.01
0.01
0.01
0.01
0.01
0.01
0.01
0.01
0.01
0.01
0.01
0.01
0.01
0.01
0.01
0.01
0.01
0.01
0.01
0.01
0.01
0.01
0.01
0.01
0.01
0.01
0.01
0.01
0.01
0.01
0.01
0.01
0.01
0.01
0.01
0.01
0.01
0.01
0.01
0.01
0.01
0.01
0.01
0.01
0.01
0.01
0.01
0.01
0.01
0.01
0.01
0.01
0.01
0.01
0.01
0.01
0.01
0.01
0.01
0.01
0.01
4.346899e-05
7.144573e-05
0.0002034249
0.0004206826
0.0006892003
0.001361611
0.001702355
0.002064571
0.002432027
0.002814027
0.003166615
0.003516764
0.003902175
0.004300754
0.004695649
0.006150036
0.006461089
0.006693798
0.006847077
0.006965437
0.007049042
0.007070999
0.006983566
0.00670057
0.005451645
0.004185336
0.003065344
0.002018322
0.001129134
0.0001669953
0.0001215167
0.00356127
0.005689579
0.006566521
0.006883674
0.006788142
0.006567137
0.006622082
0.007120253
0.007946181
0.008992947
0.01
0.01
0.01
0.01
0.01
0.01
0.01
0.01
0.01
0.01
0.01
0.01
0.01
0.01
0.01
0.01
0.01
0.01
0.01
0.01
0.01
0.01
0.01
0.01
0.01
0.01
0.01
0.01
0.01
0.01
0.01
0.01
0.01
0.01
0.01
0.01
0.01
0.01
0.01
0.01
0.01
0.01
0.01
0.01
0.01
0.01
0.01
0.01
0.01
0.01
0.01
0.01
0.01
0.01
0.01
0.01
0.01
0.01
0.01
0.01
0.01
0.01
0.01
0.01
0.01
0.01
0.01
0.01
0.01
0.01
0.01
0.01
0.01
0.01
0.01
0.01
0.01
0.01
0.01
0.01
0.01
0.01
0.01
0.01
0.01
0.01
0.01
0.01
0.01
0.01
0.01
0.01
0.01
0.01
0.01
0.01
0.01
0.01
0.01
0.01
0.01
0.01
0.01
0.01
0.01
0.01
0.01
0.01
0.01
0.01
0.01
0.01
0.01
0.01
0.01
0.01
0.01
0.01
0.01
0.01
0.01
0.01
0.01
0.01
0.01
0.01
0.01
0.01
0.01
0.01
0.01
0.01
0.01
0.01
0.01
0.01
0.01
0.01
0.01
0.01
0.01
0.01
0.01
0.01
0.01
0.01
0.01
0.01
0.01
0.01
0.01
0.01
0.01
0.01
0.01
0.01
0.01
0.01
0.01
0.01
0.01
0.01
0.01
0.01
0.01
0.01
0.01
0.01
0.01
0.01
0.01
0.01
0.01
0.01
0.01
0.01
0.01
0.01
0.01
0.01
0.01
0.01
0.01
0.01
0.01
0.01
0.01
0.01
0.01
0.01
0.01
0.01
0.01
0.01
0.01
0.01
0.01