/*--------------------------------*- C++ -*----------------------------------*\
| =========                 |                                                 |
| \\      /  F ield         | foam-extend: Open Source CFD                    |
|  \\    /   O peration     | Version:     3.1                                |
|   \\  /    A nd           | Web:         http://www.extend-project.de       |
|    \\/     M anipulation  |                                                 |
\*---------------------------------------------------------------------------*/
FoamFile
{
    version     2.0;
    format      ascii;
    class       volScalarField;
    location    "0.5";
    object      pd;
}
// * * * * * * * * * * * * * * * * * * * * * * * * * * * * * * * * * * * * * //

dimensions      [1 -1 -2 0 0 0 0];

internalField   nonuniform List<scalar> 
119952
(
7397.726
7313.155
7288.051
7299.763
7319.29
7308.574
7306.36
7305.021
7304.373
7304.127
7304.141
7304.336
7304.656
7305.057
7305.499
7305.931
7306.262
7306.243
7304.87
7296.915
7325.767
7308.347
7300.414
7335.766
7329.92
7333.046
7335.336
7346.346
7391.31
7386.523
7203.402
7203.644
7205.847
7208.401
7210.837
7213.295
7215.717
7218.109
7220.407
7221.504
7223.105
7226.071
7228.418
7230.543
7232.73
7234.966
7237.21
7239.415
7241.472
7246.845
7247.307
7249.142
7251.088
7253.213
7255.346
7257.503
7259.685
7261.909
7264.549
7266.34
7268.698
7270.935
7273.245
7275.563
7277.878
7280.133
7282.476
7287.527
7303.136
7293.52
7294.493
7299.725
7303.91
7303.98
7303.548
7303.281
7303.145
7303.201
7303.415
7303.756
7304.183
7304.667
7305.176
7305.672
7306.099
7306.367
7306.387
7306.313
7308.498
7309.934
7309.331
7315.86
7325.61
7328.345
7332.549
7336.982
7337.124
7316.072
7313.031
7315.362
7317.549
7319.532
7321.26
7322.8
7324.198
7325.491
7326.705
7327.857
7328.959
7330.015
7331.029
7332.007
7332.941
7333.848
7334.734
7335.603
7336.46
7337.3
7338.115
7338.915
7339.696
7340.457
7341.198
7341.922
7342.628
7343.318
7343.992
7344.651
7345.291
7345.917
7346.528
7347.124
7347.704
7348.269
7348.818
7349.351
7349.869
7350.376
7350.861
7351.329
7351.782
7352.215
7352.628
7353.007
7353.342
7353.63
7353.982
7354.513
7354.832
7355.278
7355.68
7356.061
7356.412
7356.741
7357.045
7357.349
7357.634
7357.9
7358.149
7358.385
7358.607
7358.817
7359.014
7359.202
7359.379
7359.547
7359.699
7359.837
7359.962
7360.075
7360.177
7360.269
7360.351
7360.422
7360.483
7360.533
7360.573
7360.601
7360.619
7360.625
7360.619
7360.603
7360.574
7360.535
7360.483
7360.419
7360.344
7360.256
7360.154
7360.039
7359.908
7359.762
7359.594
7359.399
7359.178
7358.885
7358.777
7359.608
7358.357
7358.435
7358.399
7358.285
7358.126
7357.936
7357.723
7357.446
7357.211
7356.953
7356.675
7356.383
7356.077
7355.756
7355.421
7355.073
7354.714
7354.34
7353.953
7353.542
7353.117
7352.675
7352.214
7351.735
7351.231
7350.702
7350.139
7349.539
7348.889
7348.169
7347.344
7346.389
7345.052
7342.877
7339.206
7340.852
7341.895
7342.563
7343.045
7343.344
7343.528
7343.642
7343.701
7343.714
7343.692
7343.638
7343.559
7343.46
7343.342
7343.21
7343.064
7342.908
7342.742
7342.568
7342.387
7342.201
7342.009
7341.814
7341.616
7341.415
7341.215
7341.014
7340.814
7340.618
7340.424
7340.236
7340.052
7339.836
7339.65
7345.154
7340.955
7339.496
7339.018
7338.626
7338.336
7338.108
7337.888
7337.678
7337.476
7337.282
7337.095
7336.914
7336.738
7336.569
7336.404
7336.245
7336.089
7335.937
7335.791
7335.647
7335.51
7335.377
7335.249
7335.125
7335.006
7334.892
7334.782
7334.677
7334.577
7334.482
7334.392
7334.308
7334.23
7334.157
7334.092
7334.033
7333.983
7333.943
7333.915
7333.903
7333.925
7333.96
7334.062
7334.283
7334.494
7334.225
7333.918
7333.671
7333.456
7333.268
7333.096
7332.926
7332.701
7331.542
7332.169
7332.149
7331.976
7331.789
7331.611
7331.446
7331.29
7331.14
7330.992
7330.846
7330.702
7330.558
7330.414
7330.271
7330.125
7329.978
7329.827
7329.673
7329.516
7329.357
7329.196
7329.031
7328.862
7328.69
7328.513
7328.33
7328.143
7327.951
7327.753
7327.55
7327.341
7327.127
7326.906
7326.68
7326.447
7326.209
7325.963
7325.711
7325.452
7325.185
7324.912
7324.631
7324.342
7324.046
7323.741
7323.429
7323.108
7322.777
7322.439
7322.091
7321.734
7321.367
7320.991
7320.604
7320.207
7319.799
7319.38
7318.949
7318.506
7318.049
7317.579
7317.094
7316.594
7316.078
7315.543
7314.988
7314.413
7313.813
7313.186
7312.528
7311.835
7311.101
7310.317
7309.473
7308.552
7307.531
7306.373
7305.014
7303.341
7301.132
7297.992
7293.68
7292.053
7310.422
7073.352
7078.308
7082.706
7087.163
7091.571
7095.917
7100.193
7104.374
7108.278
7110.601
7115.132
7119.309
7122.978
7126.685
7130.394
7134.07
7137.681
7141.157
7147.408
7150.116
7152.553
7155.532
7158.646
7161.736
7164.787
7167.799
7170.765
7173.856
7176.771
7179.466
7182.272
7184.983
7187.669
7190.332
7192.971
7195.587
7198.286
7201.096
7202.78
7205.465
7208.025
7210.471
7212.846
7215.2
7217.544
7219.892
7222.296
7224.595
7226.835
7229.017
7231.194
7233.392
7235.599
7237.812
7240.048
7242.374
7244.847
7247.067
7249.268
7251.442
7253.612
7255.805
7258.019
7260.258
7262.529
7264.857
7267.151
7269.398
7271.681
7274.031
7276.459
7279
7281.759
7284.978
7288.858
7293.038
7294.123
7295.245
7297.681
7299.902
7300.951
7301.304
7301.535
7301.819
7302.192
7302.653
7303.172
7303.715
7304.303
7304.917
7305.54
7306.164
7306.801
7307.523
7308.518
7310.113
7312.063
7314.33
7318.086
7322.53
7325.514
7327.28
7327.703
7325.699
7320.805
7318.314
7318.614
7319.797
7321.076
7322.339
7323.578
7324.78
7325.94
7327.061
7328.148
7329.201
7330.22
7331.207
7332.16
7333.082
7333.98
7334.858
7335.718
7336.563
7337.393
7338.208
7339.005
7339.784
7340.546
7341.289
7342.014
7342.722
7343.412
7344.086
7344.744
7345.386
7346.011
7346.621
7347.215
7347.793
7348.356
7348.902
7349.433
7349.948
7350.446
7350.929
7351.394
7351.843
7352.272
7352.682
7353.072
7353.447
7353.82
7354.216
7354.612
7354.945
7355.32
7355.705
7356.074
7356.421
7356.749
7357.059
7357.353
7357.632
7357.898
7358.15
7358.388
7358.613
7358.825
7359.028
7359.22
7359.402
7359.573
7359.73
7359.873
7360.002
7360.118
7360.223
7360.316
7360.399
7360.471
7360.532
7360.583
7360.623
7360.652
7360.67
7360.678
7360.674
7360.659
7360.632
7360.594
7360.545
7360.484
7360.411
7360.326
7360.229
7360.118
7359.993
7359.854
7359.7
7359.524
7359.332
7359.129
7358.976
7358.897
7358.624
7358.465
7358.314
7358.144
7357.957
7357.75
7357.525
7357.283
7357.031
7356.764
7356.482
7356.186
7355.876
7355.553
7355.218
7354.872
7354.514
7354.142
7353.753
7353.344
7352.916
7352.467
7351.998
7351.506
7350.991
7350.447
7349.87
7349.253
7348.585
7347.849
7347.02
7346.06
7344.915
7343.604
7342.494
7342.584
7343.02
7343.376
7343.643
7343.82
7343.929
7343.983
7343.994
7343.967
7343.91
7343.828
7343.724
7343.602
7343.464
7343.313
7343.152
7342.983
7342.807
7342.626
7342.441
7342.251
7342.059
7341.863
7341.665
7341.465
7341.264
7341.063
7340.864
7340.667
7340.475
7340.288
7340.113
7339.962
7339.895
7340.023
7339.74
7339.153
7338.77
7338.524
7338.289
7338.052
7337.828
7337.615
7337.412
7337.215
7337.026
7336.843
7336.666
7336.496
7336.332
7336.172
7336.017
7335.866
7335.72
7335.579
7335.442
7335.31
7335.184
7335.062
7334.945
7334.834
7334.727
7334.625
7334.528
7334.436
7334.35
7334.269
7334.194
7334.126
7334.064
7334.009
7333.963
7333.926
7333.901
7333.889
7333.893
7333.915
7333.953
7333.986
7333.967
7333.831
7333.645
7333.462
7333.294
7333.141
7333.007
7332.906
7332.85
7332.648
7332.382
7332.165
7331.977
7331.8
7331.631
7331.469
7331.312
7331.158
7331.006
7330.854
7330.704
7330.555
7330.405
7330.255
7330.104
7329.95
7329.793
7329.634
7329.472
7329.307
7329.14
7328.971
7328.798
7328.621
7328.441
7328.256
7328.066
7327.871
7327.671
7327.465
7327.254
7327.037
7326.815
7326.586
7326.351
7326.109
7325.861
7325.606
7325.344
7325.075
7324.799
7324.514
7324.223
7323.923
7323.615
7323.299
7322.974
7322.641
7322.298
7321.947
7321.586
7321.215
7320.834
7320.443
7320.041
7319.628
7319.204
7318.767
7318.318
7317.856
7317.379
7316.888
7316.381
7315.857
7315.314
7314.751
7314.166
7313.556
7312.918
7312.249
7311.543
7310.795
7309.998
7309.141
7308.211
7307.193
7306.063
7304.8
7303.385
7301.854
7300.392
7299.665
7300.139
7302.871
6917.112
6915.445
6916.339
6917.796
6919.841
6922.334
6925.193
6928.362
6931.739
6934.191
6937.656
6942.384
6946.522
6950.832
6955.328
6959.976
6964.731
6969.534
6974.318
6982.351
6985.826
6990.451
6995.337
7000.303
7005.296
7010.304
7015.312
7020.317
7025.771
7030.323
7035.32
7040.179
7045.015
7049.825
7054.606
7059.351
7064.077
7069.02
7073.051
7077.458
7082.108
7086.564
7090.893
7095.153
7099.36
7103.52
7107.661
7111.805
7115.718
7119.57
7123.322
7127.048
7130.732
7134.369
7137.97
7141.583
7145.665
7149.053
7152.427
7155.692
7158.878
7162.017
7165.115
7168.173
7171.198
7174.199
7177.162
7179.985
7182.729
7185.448
7188.149
7190.824
7193.473
7196.102
7198.72
7201.288
7203.711
7206.136
7208.569
7210.983
7213.372
7215.741
7218.096
7220.441
7222.779
7225.07
7227.306
7229.521
7231.732
7233.942
7236.152
7238.363
7240.57
7242.783
7244.943
7247.089
7249.242
7251.425
7253.617
7255.82
7258.036
7260.269
7262.52
7264.796
7267.062
7269.329
7271.634
7273.998
7276.437
7278.983
7281.683
7284.592
7287.66
7290.669
7292.495
7294.06
7296.008
7297.813
7298.99
7299.713
7300.297
7300.866
7301.445
7302.043
7302.664
7303.337
7304.031
7304.748
7305.491
7306.274
7307.123
7308.102
7309.318
7310.903
7312.814
7315.023
7317.835
7320.806
7322.935
7324.151
7324.367
7323.34
7321.083
7319.839
7320.049
7320.889
7321.875
7322.917
7323.995
7325.081
7326.159
7327.219
7328.26
7329.278
7330.271
7331.238
7332.18
7333.096
7333.991
7334.866
7335.725
7336.567
7337.393
7338.204
7338.999
7339.776
7340.537
7341.28
7342.005
7342.714
7343.405
7344.08
7344.739
7345.381
7346.008
7346.618
7347.212
7347.791
7348.354
7348.901
7349.433
7349.948
7350.448
7350.931
7351.398
7351.848
7352.282
7352.699
7353.101
7353.492
7353.876
7354.263
7354.647
7355.011
7355.376
7355.74
7356.092
7356.427
7356.747
7357.052
7357.343
7357.621
7357.885
7358.136
7358.373
7358.599
7358.812
7359.015
7359.207
7359.389
7359.558
7359.715
7359.859
7359.99
7360.108
7360.213
7360.308
7360.391
7360.463
7360.524
7360.574
7360.614
7360.642
7360.66
7360.666
7360.662
7360.646
7360.619
7360.58
7360.53
7360.469
7360.395
7360.309
7360.211
7360.101
7359.977
7359.84
7359.689
7359.524
7359.349
7359.166
7358.992
7358.814
7358.647
7358.472
7358.291
7358.102
7357.899
7357.68
7357.448
7357.201
7356.942
7356.669
7356.383
7356.084
7355.771
7355.446
7355.109
7354.759
7354.396
7354.019
7353.625
7353.213
7352.782
7352.331
7351.86
7351.367
7350.85
7350.305
7349.729
7349.118
7348.464
7347.761
7347.005
7346.198
7345.37
7344.608
7344.071
7343.914
7343.976
7344.083
7344.172
7344.226
7344.246
7344.234
7344.193
7344.126
7344.037
7343.929
7343.803
7343.663
7343.51
7343.347
7343.176
7342.998
7342.814
7342.626
7342.434
7342.24
7342.042
7341.842
7341.641
7341.438
7341.235
7341.033
7340.832
7340.634
7340.438
7340.248
7340.063
7339.883
7339.697
7339.463
7339.102
7338.819
7338.645
7338.471
7338.275
7338.068
7337.862
7337.658
7337.458
7337.263
7337.073
7336.889
7336.71
7336.538
7336.37
7336.208
7336.05
7335.897
7335.749
7335.605
7335.467
7335.333
7335.205
7335.082
7334.964
7334.851
7334.743
7334.64
7334.542
7334.449
7334.362
7334.28
7334.204
7334.134
7334.071
7334.014
7333.965
7333.924
7333.893
7333.87
7333.857
7333.851
7333.846
7333.827
7333.773
7333.66
7333.511
7333.358
7333.211
7333.073
7332.945
7332.828
7332.704
7332.556
7332.363
7332.162
7331.974
7331.8
7331.636
7331.479
7331.325
7331.173
7331.022
7330.872
7330.722
7330.572
7330.422
7330.271
7330.118
7329.963
7329.806
7329.646
7329.484
7329.319
7329.151
7328.981
7328.807
7328.63
7328.449
7328.263
7328.073
7327.878
7327.678
7327.472
7327.261
7327.045
7326.822
7326.593
7326.358
7326.117
7325.869
7325.614
7325.352
7325.083
7324.806
7324.522
7324.231
7323.931
7323.623
7323.307
7322.982
7322.649
7322.306
7321.955
7321.594
7321.223
7320.842
7320.451
7320.05
7319.637
7319.213
7318.777
7318.328
7317.866
7317.391
7316.901
7316.395
7315.873
7315.333
7314.773
7314.192
7313.587
7312.956
7312.296
7311.602
7310.871
7310.096
7309.271
7308.389
7307.442
7306.425
7305.341
7304.215
7303.12
7302.204
7301.753
7301.961
7302.781
6875.017
6876.639
6876.003
6878.256
6880.287
6885.423
6889.704
6895.843
6904.246
6912.465
6912.856
6912.043
6911.942
6911.962
6913.417
6915.303
6917.564
6920.197
6923.17
6926.449
6930.011
6933.857
6937.91
6942.029
6946.267
6950.658
6955.182
6959.816
6964.55
6969.396
6974.406
6980.005
6985.167
6990.294
6995.31
7000.335
7005.39
7010.457
7015.529
7020.606
7025.71
7030.724
7035.64
7040.519
7045.384
7050.222
7055.025
7059.793
7064.527
7069.236
7073.805
7078.276
7082.732
7087.147
7091.5
7095.791
7100.025
7104.204
7108.33
7112.399
7116.35
7120.217
7124.023
7127.775
7131.473
7135.115
7138.696
7142.22
7145.599
7148.97
7152.269
7155.522
7158.736
7161.904
7165.023
7168.095
7171.121
7174.102
7177.028
7179.867
7182.65
7185.399
7188.118
7190.803
7193.456
7196.075
7198.66
7201.201
7203.659
7206.098
7208.536
7210.955
7213.349
7215.72
7218.073
7220.409
7222.725
7225.009
7227.259
7229.487
7231.705
7233.917
7236.125
7238.328
7240.525
7242.716
7244.886
7247.033
7249.193
7251.37
7253.555
7255.747
7257.948
7260.162
7262.389
7264.631
7266.88
7269.143
7271.435
7273.771
7276.163
7278.625
7281.17
7283.799
7286.464
7289.015
7291.023
7292.785
7294.567
7296.205
7297.489
7298.475
7299.312
7300.087
7300.834
7301.576
7302.327
7303.099
7303.89
7304.707
7305.557
7306.454
7307.425
7308.516
7309.785
7311.281
7313.011
7314.961
7317.147
7319.322
7321.047
7322.151
7322.575
7322.269
7321.376
7320.86
7321.054
7321.68
7322.493
7323.405
7324.38
7325.387
7326.405
7327.419
7328.424
7329.414
7330.385
7331.337
7332.268
7333.179
7334.07
7334.943
7335.798
7336.638
7337.462
7338.269
7339.061
7339.836
7340.594
7341.335
7342.059
7342.766
7343.457
7344.131
7344.789
7345.431
7346.057
7346.667
7347.261
7347.839
7348.402
7348.949
7349.48
7349.996
7350.496
7350.98
7351.448
7351.901
7352.338
7352.76
7353.169
7353.566
7353.956
7354.341
7354.721
7355.089
7355.449
7355.803
7356.147
7356.477
7356.793
7357.096
7357.385
7357.661
7357.924
7358.174
7358.411
7358.636
7358.849
7359.05
7359.241
7359.42
7359.588
7359.743
7359.885
7360.016
7360.134
7360.24
7360.334
7360.417
7360.489
7360.55
7360.6
7360.639
7360.668
7360.685
7360.691
7360.686
7360.67
7360.643
7360.604
7360.554
7360.493
7360.42
7360.335
7360.238
7360.128
7360.007
7359.873
7359.728
7359.571
7359.405
7359.232
7359.057
7358.885
7358.707
7358.524
7358.336
7358.138
7357.928
7357.705
7357.468
7357.219
7356.958
7356.684
7356.397
7356.098
7355.786
7355.461
7355.124
7354.775
7354.412
7354.034
7353.641
7353.232
7352.804
7352.358
7351.893
7351.407
7350.899
7350.367
7349.808
7349.221
7348.604
7347.956
7347.281
7346.594
7345.925
7345.331
7344.893
7344.667
7344.591
7344.571
7344.557
7344.533
7344.495
7344.438
7344.362
7344.268
7344.157
7344.031
7343.892
7343.74
7343.578
7343.407
7343.228
7343.044
7342.855
7342.662
7342.465
7342.266
7342.065
7341.861
7341.657
7341.451
7341.246
7341.041
7340.837
7340.634
7340.434
7340.236
7340.038
7339.838
7339.626
7339.38
7339.114
7338.881
7338.675
7338.474
7338.268
7338.06
7337.854
7337.652
7337.453
7337.259
7337.07
7336.887
7336.708
7336.535
7336.367
7336.205
7336.047
7335.893
7335.745
7335.601
7335.463
7335.329
7335.2
7335.077
7334.958
7334.844
7334.736
7334.632
7334.534
7334.44
7334.352
7334.269
7334.191
7334.12
7334.054
7333.994
7333.941
7333.894
7333.854
7333.82
7333.791
7333.765
7333.734
7333.692
7333.626
7333.526
7333.402
7333.27
7333.137
7333.007
7332.88
7332.755
7332.63
7332.491
7332.319
7332.135
7331.959
7331.793
7331.634
7331.48
7331.328
7331.178
7331.029
7330.88
7330.732
7330.583
7330.434
7330.284
7330.133
7329.979
7329.823
7329.664
7329.503
7329.34
7329.173
7329.003
7328.83
7328.654
7328.473
7328.288
7328.098
7327.904
7327.704
7327.499
7327.289
7327.073
7326.851
7326.623
7326.389
7326.148
7325.9
7325.646
7325.385
7325.117
7324.841
7324.557
7324.266
7323.968
7323.66
7323.345
7323.021
7322.689
7322.347
7321.997
7321.637
7321.267
7320.888
7320.498
7320.098
7319.687
7319.264
7318.83
7318.384
7317.925
7317.453
7316.967
7316.466
7315.949
7315.415
7314.863
7314.291
7313.697
7313.08
7312.437
7311.765
7311.061
7310.322
7309.545
7308.728
7307.869
7306.973
7306.053
7305.139
7304.288
7303.586
7303.162
7303.11
7303.295
6830.685
6852.707
6863.853
6868.804
6871.395
6870.007
6871.673
6870.232
6869.604
6869.068
6869.041
6868.921
6870.163
6872.065
6874.665
6877.882
6881.589
6886.537
6891.909
6897.324
6901.714
6904.017
6905.376
6906.787
6908.451
6910.509
6912.938
6915.688
6918.73
6922.041
6925.6
6929.388
6933.385
6937.542
6941.814
6946.216
6950.743
6955.38
6960.113
6964.928
6969.809
6974.724
6979.512
6984.519
6989.58
6994.641
6999.724
7004.827
7009.935
7015.041
7020.137
7025.223
7030.252
7035.225
7040.164
7045.074
7049.949
7054.781
7059.567
7064.303
7068.988
7073.577
7078.088
7082.566
7087
7091.372
7095.68
7099.928
7104.115
7108.239
7112.296
7116.266
7120.158
7123.984
7127.75
7131.457
7135.103
7138.685
7142.201
7145.642
7149.021
7152.338
7155.609
7158.832
7162.002
7165.119
7168.185
7171.202
7174.169
7177.079
7179.929
7182.727
7185.482
7188.2
7190.881
7193.526
7196.134
7198.704
7201.231
7203.707
7206.158
7208.593
7211.004
7213.391
7215.755
7218.098
7220.421
7222.723
7225
7227.25
7229.481
7231.698
7233.906
7236.106
7238.3
7240.485
7242.663
7244.825
7246.979
7249.137
7251.303
7253.474
7255.651
7257.835
7260.029
7262.235
7264.452
7266.68
7268.921
7271.184
7273.478
7275.807
7278.177
7280.585
7283.019
7285.432
7287.742
7289.767
7291.581
7293.301
7294.886
7296.247
7297.395
7298.404
7299.335
7300.222
7301.088
7301.95
7302.818
7303.701
7304.606
7305.544
7306.53
7307.585
7308.738
7310.023
7311.452
7313.029
7314.753
7316.553
7318.296
7319.759
7320.808
7321.403
7321.561
7321.403
7321.351
7321.644
7322.223
7322.97
7323.816
7324.728
7325.68
7326.651
7327.628
7328.602
7329.568
7330.52
7331.458
7332.378
7333.281
7334.167
7335.036
7335.889
7336.725
7337.546
7338.351
7339.14
7339.912
7340.668
7341.408
7342.13
7342.836
7343.526
7344.2
7344.857
7345.498
7346.123
7346.733
7347.326
7347.904
7348.467
7349.013
7349.545
7350.06
7350.561
7351.046
7351.515
7351.97
7352.41
7352.836
7353.248
7353.65
7354.042
7354.427
7354.804
7355.17
7355.527
7355.876
7356.215
7356.542
7356.855
7357.155
7357.443
7357.717
7357.979
7358.227
7358.464
7358.688
7358.9
7359.101
7359.29
7359.467
7359.633
7359.787
7359.929
7360.058
7360.176
7360.282
7360.376
7360.459
7360.531
7360.592
7360.642
7360.681
7360.709
7360.726
7360.732
7360.727
7360.711
7360.683
7360.645
7360.595
7360.534
7360.461
7360.377
7360.282
7360.174
7360.055
7359.925
7359.784
7359.632
7359.471
7359.303
7359.131
7358.955
7358.773
7358.586
7358.393
7358.19
7357.976
7357.75
7357.513
7357.263
7357.001
7356.727
7356.44
7356.142
7355.831
7355.507
7355.171
7354.823
7354.461
7354.085
7353.695
7353.288
7352.866
7352.426
7351.969
7351.493
7350.998
7350.483
7349.947
7349.39
7348.812
7348.218
7347.613
7347.013
7346.441
7345.934
7345.53
7345.259
7345.092
7344.981
7344.891
7344.807
7344.72
7344.625
7344.519
7344.4
7344.27
7344.128
7343.975
7343.812
7343.641
7343.462
7343.278
7343.087
7342.893
7342.694
7342.493
7342.289
7342.084
7341.876
7341.668
7341.459
7341.25
7341.042
7340.834
7340.627
7340.421
7340.216
7340.01
7339.803
7339.59
7339.365
7339.129
7338.898
7338.677
7338.464
7338.253
7338.045
7337.839
7337.637
7337.439
7337.246
7337.058
7336.875
7336.697
7336.524
7336.356
7336.193
7336.035
7335.881
7335.733
7335.589
7335.45
7335.316
7335.187
7335.063
7334.944
7334.83
7334.721
7334.617
7334.517
7334.423
7334.334
7334.249
7334.17
7334.096
7334.028
7333.965
7333.907
7333.854
7333.807
7333.763
7333.721
7333.68
7333.634
7333.579
7333.507
7333.414
7333.305
7333.185
7333.063
7332.939
7332.814
7332.689
7332.56
7332.421
7332.265
7332.101
7331.94
7331.783
7331.629
7331.478
7331.33
7331.182
7331.036
7330.889
7330.743
7330.596
7330.449
7330.3
7330.15
7329.997
7329.843
7329.686
7329.526
7329.364
7329.199
7329.03
7328.858
7328.682
7328.502
7328.318
7328.129
7327.935
7327.736
7327.532
7327.323
7327.107
7326.886
7326.659
7326.426
7326.186
7325.939
7325.686
7325.425
7325.158
7324.883
7324.6
7324.31
7324.012
7323.706
7323.392
7323.069
7322.737
7322.397
7322.048
7321.689
7321.321
7320.943
7320.555
7320.156
7319.747
7319.327
7318.896
7318.453
7317.997
7317.529
7317.048
7316.552
7316.041
7315.515
7314.972
7314.41
7313.83
7313.229
7312.606
7311.958
7311.286
7310.586
7309.859
7309.106
7308.33
7307.538
7306.747
7305.981
7305.281
7304.699
7304.294
7304.1
7304.03
6229.268
6259.296
6310.144
6381.201
6456.212
6537.823
6605.492
6665.947
6716.67
6754.64
6781.708
6804.531
6819.994
6832.126
6840.981
6843.028
6850.15
6853.841
6856.05
6858.161
6860.302
6862.562
6865.079
6867.937
6871.153
6874.648
6878.252
6882.735
6887.429
6891.946
6895.838
6898.705
6900.954
6903.129
6905.43
6907.968
6910.762
6913.8
6917.073
6920.571
6924.28
6928.186
6932.27
6936.505
6940.868
6945.351
6949.948
6954.647
6959.434
6964.295
6969.212
6974.169
6979.131
6984.188
6989.29
6994.404
6999.528
7004.661
7009.794
7014.92
7020.032
7025.123
7030.175
7035.184
7040.154
7045.088
7049.98
7054.826
7059.623
7064.363
7069.045
7073.652
7078.195
7082.688
7087.126
7091.503
7095.816
7100.066
7104.252
7108.372
7112.423
7116.398
7120.3
7124.133
7127.903
7131.61
7135.255
7138.836
7142.354
7145.807
7149.193
7152.52
7155.792
7159.01
7162.173
7165.283
7168.341
7171.348
7174.305
7177.208
7180.058
7182.856
7185.61
7188.323
7190.998
7193.634
7196.233
7198.794
7201.316
7203.798
7206.25
7208.678
7211.081
7213.459
7215.814
7218.147
7220.459
7222.749
7225.017
7227.263
7229.49
7231.703
7233.904
7236.096
7238.279
7240.454
7242.62
7244.777
7246.928
7249.079
7251.233
7253.39
7255.551
7257.719
7259.894
7262.076
7264.268
7266.47
7268.682
7270.909
7273.154
7275.421
7277.706
7280.002
7282.292
7284.541
7286.697
7288.679
7290.496
7292.194
7293.767
7295.178
7296.431
7297.564
7298.618
7299.622
7300.596
7301.556
7302.514
7303.481
7304.465
7305.478
7306.532
7307.643
7308.828
7310.107
7311.485
7312.946
7314.485
7316.051
7317.546
7318.847
7319.869
7320.588
7321.032
7321.285
7321.555
7321.991
7322.603
7323.339
7324.158
7325.035
7325.951
7326.889
7327.836
7328.786
7329.731
7330.668
7331.592
7332.503
7333.398
7334.278
7335.143
7335.992
7336.825
7337.643
7338.445
7339.232
7340.002
7340.756
7341.494
7342.215
7342.92
7343.609
7344.281
7344.938
7345.578
7346.203
7346.812
7347.405
7347.983
7348.545
7349.091
7349.622
7350.138
7350.639
7351.125
7351.595
7352.051
7352.493
7352.922
7353.337
7353.741
7354.135
7354.519
7354.894
7355.259
7355.614
7355.96
7356.294
7356.617
7356.928
7357.226
7357.511
7357.783
7358.043
7358.291
7358.526
7358.749
7358.96
7359.16
7359.348
7359.524
7359.689
7359.841
7359.982
7360.111
7360.228
7360.334
7360.428
7360.511
7360.582
7360.643
7360.693
7360.731
7360.759
7360.776
7360.782
7360.776
7360.76
7360.733
7360.695
7360.645
7360.585
7360.513
7360.43
7360.335
7360.229
7360.113
7359.985
7359.847
7359.699
7359.542
7359.378
7359.207
7359.03
7358.847
7358.658
7358.461
7358.255
7358.038
7357.811
7357.572
7357.321
7357.059
7356.785
7356.499
7356.201
7355.891
7355.568
7355.234
7354.887
7354.527
7354.154
7353.766
7353.364
7352.947
7352.515
7352.067
7351.603
7351.122
7350.625
7350.111
7349.583
7349.042
7348.493
7347.943
7347.404
7346.894
7346.436
7346.05
7345.752
7345.53
7345.356
7345.21
7345.078
7344.949
7344.819
7344.684
7344.541
7344.391
7344.232
7344.066
7343.892
7343.71
7343.523
7343.331
7343.134
7342.933
7342.729
7342.522
7342.314
7342.103
7341.892
7341.679
7341.466
7341.253
7341.04
7340.828
7340.617
7340.406
7340.195
7339.984
7339.771
7339.556
7339.334
7339.106
7338.879
7338.658
7338.444
7338.234
7338.027
7337.822
7337.621
7337.425
7337.232
7337.044
7336.861
7336.683
7336.51
7336.342
7336.179
7336.02
7335.866
7335.718
7335.574
7335.435
7335.3
7335.171
7335.047
7334.927
7334.812
7334.703
7334.598
7334.497
7334.402
7334.312
7334.226
7334.145
7334.069
7333.998
7333.931
7333.869
7333.811
7333.757
7333.705
7333.654
7333.602
7333.546
7333.482
7333.406
7333.317
7333.215
7333.104
7332.989
7332.87
7332.75
7332.626
7332.498
7332.363
7332.219
7332.069
7331.918
7331.769
7331.622
7331.475
7331.331
7331.186
7331.043
7330.899
7330.755
7330.61
7330.465
7330.318
7330.169
7330.018
7329.865
7329.71
7329.552
7329.391
7329.227
7329.059
7328.888
7328.714
7328.535
7328.351
7328.163
7327.971
7327.773
7327.57
7327.361
7327.147
7326.927
7326.701
7326.468
7326.229
7325.983
7325.731
7325.472
7325.205
7324.931
7324.65
7324.361
7324.064
7323.759
7323.445
7323.124
7322.793
7322.454
7322.106
7321.749
7321.382
7321.006
7320.62
7320.224
7319.817
7319.4
7318.971
7318.532
7318.08
7317.616
7317.14
7316.65
7316.147
7315.629
7315.096
7314.546
7313.98
7313.397
7312.794
7312.173
7311.532
7310.872
7310.193
7309.499
7308.795
7308.09
7307.398
7306.739
7306.143
7305.64
7305.261
7305.019
7304.854
6346.292
6327.46
6286.164
6246.316
6222.077
6219.518
6238.66
6279.007
6335.535
6404.094
6489.709
6564.719
6629.806
6684.335
6728.389
6763.24
6789.657
6809.049
6823.055
6832.311
6836.354
6842.239
6846.768
6850.07
6852.979
6855.75
6858.503
6861.384
6864.485
6867.832
6871.403
6875.179
6879.353
6883.625
6887.755
6891.511
6894.715
6897.534
6900.239
6902.988
6905.874
6908.937
6912.193
6915.644
6919.29
6923.122
6927.13
6931.3
6935.614
6940.053
6944.608
6949.269
6954.026
6958.866
6963.776
6968.746
6973.767
6978.824
6983.928
6989.064
6994.214
6999.372
7004.533
7009.693
7014.842
7019.975
7025.084
7030.16
7035.195
7040.19
7045.144
7050.053
7054.914
7059.724
7064.477
7069.171
7073.799
7078.364
7082.87
7087.316
7091.699
7096.018
7100.272
7104.46
7108.581
7112.633
7116.612
7120.52
7124.359
7128.132
7131.84
7135.483
7139.063
7142.578
7146.029
7149.416
7152.742
7156.011
7159.224
7162.382
7165.486
7168.537
7171.537
7174.485
7177.381
7180.226
7183.022
7185.772
7188.479
7191.147
7193.775
7196.366
7198.919
7201.435
7203.914
7206.362
7208.783
7211.177
7213.547
7215.892
7218.215
7220.516
7222.796
7225.054
7227.293
7229.513
7231.719
7233.912
7236.094
7238.267
7240.431
7242.586
7244.735
7246.877
7249.018
7251.159
7253.301
7255.447
7257.596
7259.75
7261.909
7264.075
7266.247
7268.426
7270.614
7272.811
7275.017
7277.226
7279.43
7281.612
7283.746
7285.799
7287.731
7289.534
7291.223
7292.799
7294.248
7295.575
7296.801
7297.953
7299.053
7300.119
7301.165
7302.203
7303.243
7304.296
7305.37
7306.476
7307.626
7308.83
7310.096
7311.427
7312.809
7314.225
7315.636
7316.981
7318.187
7319.203
7320.014
7320.642
7321.147
7321.638
7322.205
7322.872
7323.624
7324.439
7325.301
7326.197
7327.114
7328.041
7328.973
7329.902
7330.826
7331.739
7332.641
7333.53
7334.405
7335.265
7336.11
7336.941
7337.756
7338.555
7339.339
7340.107
7340.86
7341.596
7342.316
7343.019
7343.707
7344.379
7345.034
7345.674
7346.298
7346.907
7347.499
7348.076
7348.638
7349.184
7349.715
7350.231
7350.732
7351.218
7351.69
7352.147
7352.59
7353.02
7353.437
7353.843
7354.237
7354.621
7354.995
7355.358
7355.711
7356.054
7356.385
7356.705
7357.013
7357.308
7357.591
7357.862
7358.12
7358.366
7358.6
7358.822
7359.032
7359.23
7359.417
7359.592
7359.755
7359.907
7360.047
7360.175
7360.292
7360.397
7360.491
7360.573
7360.644
7360.705
7360.754
7360.792
7360.82
7360.837
7360.842
7360.837
7360.821
7360.794
7360.755
7360.706
7360.646
7360.575
7360.493
7360.399
7360.295
7360.18
7360.055
7359.919
7359.774
7359.62
7359.458
7359.288
7359.112
7358.928
7358.737
7358.538
7358.329
7358.111
7357.882
7357.642
7357.391
7357.128
7356.854
7356.568
7356.271
7355.962
7355.641
7355.308
7354.963
7354.605
7354.235
7353.851
7353.454
7353.043
7352.618
7352.18
7351.727
7351.26
7350.78
7350.288
7349.786
7349.276
7348.763
7348.255
7347.761
7347.292
7346.865
7346.491
7346.179
7345.922
7345.706
7345.518
7345.345
7345.181
7345.02
7344.858
7344.692
7344.522
7344.347
7344.165
7343.979
7343.787
7343.59
7343.389
7343.185
7342.977
7342.767
7342.554
7342.34
7342.124
7341.908
7341.691
7341.473
7341.256
7341.039
7340.822
7340.606
7340.391
7340.175
7339.96
7339.743
7339.525
7339.303
7339.079
7338.856
7338.638
7338.424
7338.214
7338.006
7337.802
7337.602
7337.406
7337.214
7337.026
7336.843
7336.665
7336.492
7336.323
7336.16
7336.001
7335.847
7335.698
7335.554
7335.414
7335.28
7335.15
7335.025
7334.905
7334.79
7334.679
7334.574
7334.473
7334.376
7334.285
7334.198
7334.115
7334.037
7333.963
7333.893
7333.827
7333.765
7333.705
7333.647
7333.588
7333.529
7333.465
7333.396
7333.318
7333.23
7333.133
7333.028
7332.919
7332.805
7332.688
7332.568
7332.444
7332.314
7332.178
7332.038
7331.896
7331.754
7331.612
7331.471
7331.331
7331.19
7331.05
7330.909
7330.768
7330.625
7330.482
7330.337
7330.19
7330.041
7329.89
7329.737
7329.58
7329.421
7329.258
7329.092
7328.923
7328.749
7328.572
7328.39
7328.203
7328.011
7327.815
7327.613
7327.405
7327.192
7326.973
7326.748
7326.517
7326.279
7326.035
7325.783
7325.525
7325.26
7324.987
7324.707
7324.419
7324.123
7323.819
7323.507
7323.187
7322.858
7322.521
7322.174
7321.819
7321.454
7321.079
7320.695
7320.301
7319.897
7319.483
7319.058
7318.622
7318.175
7317.716
7317.245
7316.762
7316.267
7315.758
7315.236
7314.699
7314.148
7313.583
7313.002
7312.407
7311.797
7311.175
7310.541
7309.901
7309.259
7308.625
7308.011
7307.433
7306.911
7306.465
7306.111
7305.86
7305.664
6342.529
6307.478
6252.7
6214.924
6191.384
6186.949
6205.205
6246.596
6307.991
6382.122
6456.067
6532.782
6602.165
6660.919
6708.711
6746.33
6774.935
6796.223
6811.862
6823.036
6830.714
6837.303
6842.352
6846.19
6849.435
6852.423
6855.339
6858.322
6861.46
6864.795
6868.338
6872.073
6875.998
6879.992
6883.914
6887.625
6891.035
6894.208
6897.287
6900.383
6903.57
6906.889
6910.364
6914.004
6917.812
6921.784
6925.913
6930.189
6934.599
6939.13
6943.77
6948.509
6953.338
6958.245
6963.22
6968.251
6973.331
6978.447
6983.597
6988.774
6993.967
6999.166
7004.366
7009.561
7014.744
7019.907
7025.045
7030.149
7035.213
7040.237
7045.216
7050.148
7055.03
7059.858
7064.629
7069.34
7073.987
7078.57
7083.091
7087.548
7091.941
7096.269
7100.529
7104.722
7108.846
7112.9
7116.884
7120.796
7124.639
7128.414
7132.123
7135.767
7139.344
7142.857
7146.306
7149.691
7153.016
7156.281
7159.489