/*--------------------------------*- C++ -*----------------------------------*\
| =========                 |                                                 |
| \\      /  F ield         | foam-extend: Open Source CFD                    |
|  \\    /   O peration     | Version:     3.1                                |
|   \\  /    A nd           | Web:         http://www.extend-project.de       |
|    \\/     M anipulation  |                                                 |
\*---------------------------------------------------------------------------*/
FoamFile
{
    version     2.0;
    format      ascii;
    class       volScalarField;
    location    "14";
    object      alpha1;
}
// * * * * * * * * * * * * * * * * * * * * * * * * * * * * * * * * * * * * * //

dimensions      [0 0 0 0 0 0 0];

internalField   nonuniform List<scalar> 
119952
(
1
1
1
1
1
1
1
1
1
1
1
1
1
1
1
1
1
1
1
1
1
1
1
1
1
1
1
1
1
1
1
1
1
1
1
1
1
1
1
1
1
1
1
1
1
1
1
1
1
1
1
1
1
1
1
1
1
1
1
1
1
1
1
1
1
1
1
1
1
1
1
1
1
1
1
1
1
1
1
1
1
1
1
1
1
1
1
1
1
0.9999999
1
1
1
1
1
1
1
0.9999999
1
1
1
1
1
1
1
1
1
1
1
1
0.9999999
1
0.9999999
0.9999999
1
1
0.9999999
1
1
0.9999999
1
1
1
1
0.9999999
1
1
1
1
1
1
1
0.9999999
0.9999999
1
1
0.9999999
1
1
1
0.9999999
1
1
1
1
1
1
1
1
1
1
1
1
1
1
1
1
1
1
1
1
1
1
0.9999999
1
1
1
1
1
1
1
1
1
1
1
1
1
1
1
1
1
1
1
1
1
1
0.9999999
1
1
1
1
1
1
0.9999999
1
1
0.9999999
0.9999998
1
1
1
1
1
0.9999994
1
1
1
1
1
1
1
1
0.9999999
0.9999996
1
1
1
1
1
1
1
1
0.9999999
1
1
1
1
1
1
1
1
1
1
1
1
1
1
1
1
1
1
1
1
1
1
1
1
1
1
1
1
1
1
1
1
1
1
1
1
1
1
1
1
1
1
1
1
1
1
1
1
1
1
1
1
1
1
1
0.9999998
1
1
1
1
1
1
1
1
1
1
1
1
1
1
1
1
1
1
1
1
1
1
1
1
1
1
1
1
1
1
1
1
1
1
1
1
1
1
1
1
1
1
0.9999993
0.9999991
0.9999994
0.9999999
1
1
1
1
1
1
1
1
0.9999999
0.9999989
0.9999994
1
1
1
1
1
1
1
1
0.9999994
0.9999998
1
1
1
1
0.9999998
0.9999997
1
0.9999996
0.9999996
1
1
1
0.9999999
1
0.9999998
0.9999995
1
0.9999995
0.9999994
1
1
1
1
1
1
1
0.9999998
0.9999992
0.9999998
1
0.9999995
0.9999998
1
1
1
1
0.9999995
0.9999999
1
1
1
1
1
1
1
1
1
0.9999996
0.9999739
0.9999855
0.9999999
1
1
1
1
1
1
1
1
0.9999999
1
1
1
1
1
1
1
1
1
1
1
1
1
1
1
1
1
1
1
1
1
1
1
1
1
1
1
1
1
1
1
1
1
1
1
1
1
1
1
1
1
1
1
1
1
1
1
1
1
1
1
1
1
1
1
1
1
1
1
1
1
1
0.9999999
0.9999999
0.9999999
1
1
1
1
1
1
1
1
1
0.9999999
1
1
1
1
1
1
1
1
1
1
1
1
1
1
1
1
1
0.9999999
0.9999999
0.9999999
1
1
1
1
1
1
1
1
1
1
1
1
0.9999999
0.9999999
0.9999999
1
1
1
1
1
1
1
1
1
1
1
1
1
1
0.9999999
0.9999999
1
1
1
1
1
1
1
1
1
1
1
1
1
1
1
0.9999999
0.9999999
1
1
1
1
0.9999999
0.9999999
1
1
1
1
1
0.9999999
1
1
1
1
1
1
1
1
1
1
1
1
1
1
1
1
1
1
1
1
1
1
1
1
1
1
1
1
1
1
1
1
1
1
1
1
1
1
1
1
1
0.9999999
0.9999999
0.9999999
1
1
1
1
1
1
1
1
1
1
0.9999999
1
1
1
1
1
1
1
1
1
1
1
0.9999999
0.9999999
1
1
1
1
1
1
1
1
1
1
1
1
1
1
1
0.9999999
0.9999999
1
1
1
1
1
1
1
1
0.9999999
1
1
1
1
1
1
1
1
1
1
1
1
1
1
1
1
1
1
1
1
1
1
1
1
1
1
1
1
1
1
1
1
1
1
1
1
1
1
1
1
1
1
1
1
1
1
1
1
1
0.9999999
0.9999995
0.9999995
0.9999996
0.9999997
0.9999999
1
1
1
1
1
0.9999999
0.9999996
0.9999985
0.9999977
0.9999979
0.9999985
0.9999994
0.9999999
1
1
1
1
1
1
1
1
1
1
1
0.9999999
0.9999986
0.9999813
0.9999071
0.9998741
0.99991
0.9999709
0.9999972
0.9999999
1
1
1
1
1
1
1
1
1
1
1
1
0.9999996
0.9999981
0.9999941
0.9999859
0.9999706
0.9999496
0.9999442
0.9999634
0.9999923
0.9999996
1
1
1
1
1
1
1
1
0.9999999
0.9999997
0.9999998
1
0.9999999
0.9999998
0.9999998
0.9999999
1
1
1
0.9999999
0.9999999
1
1
1
1
1
1
1
1
0.9999998
0.9999999
1
1
1
1
1
1
0.9999998
0.9999984
0.9999872
0.9999173
0.9998123
0.9998752
0.9999714
0.9999982
1
1
1
1
1
1
1
1
1
1
1
1
1
1
1
1
1
1
1
1
1
1
1
1
1
1
1
1
1
1
1
1
1
1
1
1
1
1
1
1
1
1
1
1
1
1
1
1
1
1
1
1
1
1
1
1
1
1
1
1
1
1
1
1
1
1
1
1
1
0.9999999
0.9999999
0.9999999
1
1
1
1
1
1
1
1
1
1
1
1
1
1
1
1
1
1
1
1
0.9999999
0.9999999
0.9999999
0.9999999
1
1
1
1
1
1
1
1
1
1
1
1
1
1
1
0.9999999
0.9999999
0.9999999
0.9999999
1
1
1
1
1
1
0.9999999
0.9999999
0.9999999
1
1
1
1
1
1
1
1
1
1
1
1
1
1
1
1
1
0.9999999
0.9999998
0.9999998
0.9999999
1
1
1
1
1
1
1
1
1
1
1
0.9999999
0.9999999
0.9999999
1
1
1
1
1
1
1
1
1
1
1
1
0.9999999
0.9999999
0.9999999
1
1
1
1
1
1
1
1
1
1
1
1
1
1
1
1
1
1
1
1
0.9999999
0.9999999
0.9999999
1
1
1
1
0.9999999
0.9999999
0.9999999
1
1
1
1
1
1
1
1
1
1
1
1
1
1
1
1
1
1
1
1
1
1
1
1
1
1
1
1
1
0.9999999
0.9999999
0.9999999
0.9999999
0.9999999
1
1
1
1
1
0.9999999
0.9999997
0.9999995
0.9999997
0.9999999
0.9999999
1
1
1
1
1
1
1
1
1
1
1
1
1
1
1
1
1
1
1
1
1
1
1
1
1
1
1
1
1
1
1
0.9999999
0.9999998
0.9999999
0.9999999
1
1
1
1
1
1
1
1
1
0.9999999
0.9999999
1
1
1
1
0.9999999
0.9999999
0.9999999
1
1
1
1
1
1
1
1
1
1
1
0.9999998
0.9999998
0.9999999
1
1
1
1
1
1
1
1
1
1
1
1
1
1
1
1
1
1
0.9999999
0.9999999
1
1
1
1
1
1
1
1
1
1
0.9999995
0.9999987
0.9999987
0.9999987
0.9999987
0.9999994
0.9999999
1
1
1
1
0.9999998
0.9999978
0.9999815
0.9999536
0.9999582
0.999981
0.9999969
0.9999999
1
1
1
1
1
1
1
1
1
1
0.9999999
0.9999989
0.9999762
0.9997425
0.9996382
0.9996915
0.9998926
0.9999883
0.9999997
1
1
1
1
1
1
1
1
1
1
1
0.9999999
0.9999978
0.9999791
0.999865
0.9993113
0.9985853
0.9988975
0.9996727
0.9999738
0.9999996
1
1
1
1
1
1
1
1
1
0.9999999
0.9999997
0.9999997
0.9999999
1
1
1
1
1
1
1
1
1
0.9999999
0.9999998
0.9999999
1
1
1
1
1
1
1
0.9999999
0.9999999
0.9999999
1
1
0.9999999
0.9999973
0.9999671
0.9997435
0.9993643
0.9995603
0.9998947
0.9999931
0.9999999
1
1
1
1
1
1
0.9999994
0.9999969
0.9999888
1
1
1
1
1
1
1
1
1
1
1
1
1
1
1
1
1
1
1
1
1
1
1
1
1
1
1
1
1
1
1
1
1
1
1
1
1
1
1
1
1
1
1
1
1
1
1
1
1
0.9999999
0.9999999
0.9999999
1
1
1
1
1
1
1
1
1
1
1
1
1
1
1
1
1
1
1
1
1
0.9999999
0.9999999
0.9999999
0.9999999
1
1
1
1
1
1
1
1
1
1
1
1
1
1
1
1
1
1
1
1
1
0.9999999
0.9999999
0.9999999
0.9999999
1
1
1
1
1
1
1
1
1
1
1
1
1
1
0.9999999
0.9999998
0.9999999
1
1
1
1
1
1
0.9999999
1
1
1
1
1
1
1
1
1
1
1
1
1
1
1
1
1
1
1
0.9999999
0.9999998
0.9999998
0.9999999
1
1
1
1
1
1
1
1
1
1
1
0.9999999
0.9999999
0.9999999
1
1
1
1
1
1
1
1
1
1
1
1
1
1
0.9999999
0.9999999
0.9999999
1
1
1
1
1
1
1
1
1
1
1
1
1
1
1
1
1
1
1
0.9999999
0.9999999
1
1
1
1
1
1
1
1
1
0.9999999
0.9999998
0.9999999
1
1
1
1
1
1
1
0.9999999
1
1
1
1
1
1
1
0.9999999
0.9999997
0.9999997
0.9999999
1
1
1
0.9999999
0.9999996
0.9999989
0.9999971
0.9999934
0.9999897
0.9999893
0.9999894
0.9999893
0.9999906
0.9999965
0.9999996
0.9999995
0.999999
0.9999991
0.9999994
0.9999993
0.9999991
0.9999992
0.9999995
0.9999999
1
1
1
1
0.9999999
0.9999998
0.9999996
0.9999995
0.9999995
0.9999995
0.9999996
0.9999997
0.9999998
0.9999999
1
1
1
1
1
1
1
1
0.9999999
1
1
1
1
1
0.9999999
0.9999997
0.9999997
0.9999998
0.9999999
1
1
1
1
1
1
1
1
1
1
1
1
1
1
1
1
0.9999999
0.9999999
0.9999999
0.9999999
1
1
1
1
1
1
1
1
1
1
1
1
0.9999999
0.9999997
0.9999998
0.9999999
1
1
1
1
1
1
1
1
1
1
1
1
0.9999999
0.9999997
0.9999997
0.9999999
1
1
1
1
1
1
1
1
1
1
0.9999998
0.9999989
0.9999987
0.9999989
0.9999997
1
1
1
1
0.9999999
0.9999987
0.9999762
0.9998602
0.9998435
0.9999113
0.9999813
0.9999986
1
1
1
1
1
1
0.9999999
0.9999993
0.999997
0.9999948
0.9999953
0.9999966
0.9999881
0.9998444
0.9996382
0.9996382
0.9997038
0.9999196
0.9999946
0.9999999
1
1
0.9999999
0.9999995
0.9999991
0.9999992
0.9999997
1
1
1
0.9999998
0.9999933
0.999817
0.9970236
0.9947559
0.9954029
0.9982007
0.9996844
0.9999786
0.9999996
1
1
1
1
1
1
1
1
1
1
0.9999998
0.9999998
0.9999999
1
1
1
1
1
1
1
1
1
1
0.9999999
0.9999998
0.9999999
1
1
1
1
1
1
1
1
1
1
1
0.9999991
0.99998
0.9996755
0.9982183
0.9984607
0.9995189
0.9999575
0.9999992
1
1
1
1
1
1
0.9999999
0.9999991
0.9999689
0.9990146
1
1
1
1
1
1
1
1
1
1
1
1
1
1
1
1
1
1
1
1
1
1
1
1
1
1
1
1
1
1
1
1
1
1
1
1
1
1
1
1
1
1
1
1
1
1
1
1
1
1
1
1
1
1
1
1
1
1
1
1
1
0.9999999
0.9999999
0.9999999
0.9999999
0.9999999
1
1
1
1
1
1
1
1
1
1
1
1
1
1
1
1
1
1
1
1
0.9999999
0.9999999
0.9999999
0.9999999
1
1
1
1
1
1
1
1
1
1
1
1
1
1
1
1
1
1
1
1
0.9999999
0.9999999
0.9999999
1
1
1
1
1
1
1
1
1
1
1
1
1
1
1
0.9999999
0.9999999
1
1
1
1
1
1
1
1
1
1
1
1
1
1
1
1
1
1
1
1
1
1
1
1
1
1
1
0.9999999
0.9999999
0.9999999
1
1
1
1
1
1
1
1
1
1
1
1
0.9999999
0.9999999
1
1
1
1
1
1
1
1
1
1
1
1
1
1
0.9999999
0.9999998
0.9999998
0.9999999
1
1
1
1
1
1
1
1
1
1
1
1
1
1
1
1
0.9999999
0.9999999
1
1
1
1
1
1
1
1
1
1
1
0.9999999
0.9999998
0.9999998
0.9999999
1
1
1
1
1
1
0.9999999
0.9999999
1
1
1
1
1
1
0.9999999
0.9999977
0.9999867
0.9999853
0.9999912
0.9999976
0.9999993
0.9999988
0.9999942
0.9999753
0.9999158
0.9997218
0.9990672
0.9979872
0.9981934
0.9994314
0.9999558
0.9999981
0.9999982
0.9999967
0.9999963
0.9999964
0.9999955
0.9999869
0.999963
0.9999612
0.9999852
0.9999991
1
1
1
1
0.9999999
0.9999994
0.999999
0.999999
0.999999
0.999999
0.999999
0.999999
0.999999
0.9999991
0.9999994
0.9999996
0.9999999
1
1
1
1
1
0.9999999
0.9999998
0.9999999
1
1
1
1
1
0.9999998
0.9999997
0.9999997
0.9999998
0.9999999
1
1
1
1
1
1
1
1
1
1
1
1
1
1
1
1
1
1
1
0.9999999
0.9999999
0.9999999
0.9999999
1
1
1
1
1
1
1
0.9999999
0.9999997
0.9999996
0.9999998
1
1
1
1
1
1
1
1
1
1
1
1
1
0.9999996
0.9999994
0.9999996
0.9999999
1
1
1
1
1
1
1
1
1
1
1
0.9999999
0.9999999
0.9999999
1
1
1
1
0.9999999
0.9999991
0.9999873
0.9998969
0.9998435
0.9998569
0.9999469
0.9999936
0.9999995
0.9999987
0.9999968
0.9999966
0.9999972
0.9999985
0.999999
0.9999948
0.9999536
0.9997818
0.9996653
0.9997582
0.9999186
0.9999192
0.9998208
0.9998261
0.9999131
0.9999836
0.9999992
0.9999998
0.9999994
0.9999971
0.9999892
0.9999849
0.999991
0.9999982
0.9999999
1
1
1
0.9999998
0.9999972
0.9999823
0.9999479
0.9998728
0.9988491
0.9935442
0.9926666
0.9926666
0.9964705
0.9995454
0.9999874
1
1
1
1
1
1
1
1
1
1
1
1
1
1
0.9999999
0.9999999
0.9999999
1
1
1
0.9999999
0.9999997
0.9999997
0.9999998
1
1
1
1
1
1
1
1
1
1
0.9999999
0.9999965
0.9999078
0.9985235
0.9973301
0.9978104
0.9993364
0.9999466
0.9999992
0.9999999
0.9999998
0.9999997
0.9999998
0.9999999
1
0.9999999
0.9999983
0.9999545
0.9914792
1
1
1
1
1
1
1
1
1
1
1
1
1
1
1
1
1
1
1
1
1
1
1
1
1
1
1
1
1
1
1
1
1
1
1
1
1
1
1
1
1
1
1
1
1
1
1
1
1
1
1
1
1
1
1
1
1
1
1
1
1
1
1
1
1
1
1
1
1
1
1
1
1
1
0.9999999
0.9999998
0.9999999
1
1
1
1
1
1
1
1
1
1
1
1
1
1
1
1
1
1
1
1
0.9999999
0.9999999
1
1
1
1
1
1
1
1
1
1
1
1
1
1
1
1
1
1
1
1
1
1
1
1
1
1
1
1
1
1
1
1
1
1
1
1
1
1
1
1
1
1
1
1
1
1
1
1
1
1
1
1
1
1
1
1
1
1
1
1
1
1
1
1
1
1
1
1
1
1
1
1
1
1
1
1
1
1
1
1
1
1
1
1
1
1
1
1
1
1
1
1
1
1
1
1
1
1
1
1
0.9999998
0.9999998
0.9999999
1
1
1
1
1
1
1
1
1
1
1
1
1
1
1
0.9999999
0.9999998
0.9999998
0.9999999
1
1
1
1
1
1
1
1
1
1
1
0.9999998
0.9999998
0.9999998
1
1
1
1
1
1
1
1
1
0.9999999
0.9999995
0.9999994
0.9999996
0.9999999
0.9999999
0.9999982
0.9999587
0.999734
0.9996747
0.9997558
0.9999136
0.9999689
0.9999155
0.9995097
0.9969816
0.9843745
0.973601
0.9855511
0.9975356
0.9998728
0.9999804
0.9999807
0.9999698
0.9999401
0.9999062
0.999871
0.999774
0.999444
0.9994474
0.9998328
0.999989
0.9999998
1
1
1
1
0.9999999
0.9999994
0.9999995
0.9999998
1
1
1
0.9999998
0.9999992
0.9999986
0.9999986
0.9999986
0.9999989
0.9999992
0.9999996
0.9999999
1
1
0.9999999
0.9999998
0.9999998
0.9999998
1
1
1
1
1
1
0.9999999
0.9999996
0.9999996
0.9999997
0.9999999
1
1
1
1
1
1
1
1
1
1
1
1
1
1
1
1
1
1
1
1
1
0.9999999
0.9999999
0.9999999
1
1
1
1
1
0.9999999
0.9999997
0.9999998
0.9999999
1
1
1
1
1
1
1
1
1
1
1
1
0.9999998
0.9999994
0.9999994
0.9999997
1
1
1
1
1
1
1
1
1
1
1
1
1
1
1
1
1
1
1
0.9999999
0.999999
0.9999905
0.9999595
0.9999582
0.999977
0.999996
0.9999992
0.9999948
0.9999564
0.9998372
0.9997694
0.9998252
0.9999492
0.9999678
0.999831
0.998783
0.9971528
0.997922
0.9993235
0.9999323
0.9999924
0.9999919
0.999991
0.9999943
0.999995
0.9999922
0.9999723
0.9999049
0.9998968
0.9999552
0.9999942
0.9999998
1
1
1
1
1
0.9999999
0.9999976
0.9999467
0.9988658
0.9939056
0.9932825
0.9964455
0.9991763
0.9998987
0.9999936
0.9999999
1
1
1
1
1
1
0.9999999
0.9999999
0.9999999
1
1
1
1
1
0.9999999
0.9999998
0.9999999
1
1
1
1
0.9999997
0.9999997
0.9999999
1
1
0.9999999
0.9999997
0.9999998
0.9999999
1
1
1
1
0.9999999
0.9999967
0.9999135
0.9985621
0.9973301
0.9975293
0.999067
0.9998938
0.9999924
0.9999891
0.9999853
0.9999878
0.9999932
0.9999969
0.9999988
0.9999991
0.9999967
0.9999562
0.985961
1
1
1
1
1
1
1
1
1
1
1
1
1
1
1
1
1
1
1
1
1
1
1
1
1
1
1
1
1
1
1
1
1
1
1
1
1
1
1
1
1
1
1
1
1
1
1
1
1
1
1
1
1
1
1
1
1
1
1
1
1
1
1
1
1
1
1
1
1
1
1
1
1
1
1
1
1
1
1
1
0.9999999
0.9999999
0.9999999
1
1
1
1
1
1
1
1
1
1
1
1
1
1
1
1
1
1
1
1
1
1
1
1
1
1
1
1
1
1
1
1
1
1
1
1
1
1
1
1
1
1
1
1
1
1
1
1
1
1
1
1
1
1
1
1
1
1
1
1
1
1
1
1
1
1
0.9999999
0.9999999
1
1
1
1
1
1
1
0.9999999
0.9999999
0.9999999
0.9999999
1
1
1
1
1
1
1
1
1
1
1
1
1
1
1
1
1
1
1
1
1
1
1
1
1
1
1
1
1
1
1
1
1
1
1
1
1
1
1
1
1
1
0.9999999
0.9999999
0.9999999
1
1
1
1
1
1
1
1
1
1
1
1
1
1
1
1
0.9999998
0.9999998
0.9999999
1
1
1
1
1
1
1
1
1
1
1
1
0.9999999
0.9999999
1
1
1
1
1
1
1
1
1
0.9999999
0.999999
0.999996
0.9999961
0.999998
0.9999995
0.9999988
0.9999787
0.9994994
0.9970208
0.9966898
0.998162
0.9996411
0.9992174
0.9898188
0.9046558
0.8788753
0.9446904
0.9926013
0.9993907
0.9993982
0.9989498
0.9989914
0.9989273
0.9958014
0.975604
0.9749243
0.9839513
0.9957523
0.9996079
0.9999734
0.9999991
0.9999999
0.9999999
0.9999996
0.9999994
0.9999994
0.9999995
0.9999995
0.9999998
1
1
1
1
1
1
1
1
0.9999999
0.9999986
0.999997
0.9999974
0.9999988
0.9999998
1
1
1
0.9999998
0.9999998
0.9999999
1
1
1
1
1
0.9999999
0.9999997
0.9999996
0.9999998
0.9999999
1
1
1
1
1
1
1
1
1
1
1
1
1
1
1
1
1
1
1
1
1
1
0.9999999
0.9999999
1
1
1
1
1
1
0.9999999
0.9999998
0.9999999
1
1
1
1
1
1
1
1
1
1
1
1
1
0.9999999
0.9999995
0.9999996
0.9999999
1
1
1
1
1
1
1
1
1
1
1
1
1
1
1
1
1
1
1
0.9999999
0.9999998
0.9999995
0.9999994
0.9999996
0.9999998
0.9999994
0.9999928
0.9998785
0.998746
0.9968202
0.9975428
0.9992316
0.9999053
0.9996523
0.9969896
0.9961042
0.9961042
0.9981156
0.9997622
0.9999895
0.9999918
0.9999852
0.9999722
0.9999413
0.9998247
0.9995329
0.9995369
0.9998204
0.9999801
0.9999995
1
1
1
0.9999999
0.9999998
0.9999996
0.9999991
0.9999973
0.99998
0.9996657
0.9979539
0.9976852
0.9987261
0.9997637
0.9999899
0.9999999
1
1
0.9999999
0.9999997
0.9999989
0.9999966
0.9999945
0.9999959
0.999999
0.9999999
1
1
0.9999999
0.9999999
1
1
0.9999999
0.9999997
0.9999998
0.9999999
1
1
1
1
1
1
0.9999999
0.9999995
0.9999995
0.9999997
1
1
1
1
1
1
0.9999993
0.9999856
0.9997649
0.9983171
0.9981522
0.9992495
0.9997692
0.9997202
0.9997176
0.9998621
0.9999811
0.9999611
0.9998754
0.9998468
0.9998871
0.9999368
0.9998022
0.9826525
1
1
1
1
1
1
1
1
1
1
1
1
1
1
1
1
1
1
1
1
1
1
1
1
1
1
1
1
1
1
1
1
1
1
1
1
1
1
1
1
1
1
1
1
1
1
1
1
1
1
1
1
1
1
1
1
1
1
1
1
1
1
1
1
1
1
1
0.9999999
0.9999999
0.9999999
1
1
1
1
1
1
1
1
1
1
1
1
1
1
1
1
1
1
1
1
1
1
1
1
1
1
1
1
1
1
1
1
1
1
1
1
1
1
1
1
1
1
1
0.9999999
0.9999999
0.9999998
0.9999998
0.9999998
0.9999997
0.9999997
0.9999997
0.9999998
0.9999998
0.9999998
0.9999996
0.9999994
0.999999
0.9999984
0.9999974
0.9999967
0.9999971
0.9999985
0.9999993
0.9999994
0.9999993
0.9999989
0.9999973
0.999993
0.9999855
0.9999821
0.9999835
0.9999898
0.9999965
0.9999982
0.9999981
0.9999971
0.9999931
0.9999821
0.9999677
0.9999641
0.9999665
0.9999772
0.9999911
0.999996
0.999996
0.9999946
0.999989
0.9999745
0.9999539
0.9999466
0.9999488
0.999961
0.9999828
0.9999953
0.9999964
0.9999958
0.9999934
0.9999889
0.9999863
0.9999863
0.9999874
0.9999911
0.9999962
0.9999978
0.9999976
0.9999966
0.9999944
0.9999924
0.9999919
0.9999921
0.9999946
0.9999982
0.9999989
0.9999988
0.9999986
0.999998
0.9999971
0.9999965
0.9999972
0.9999993
1
1
1
0.9999999
0.9999998
0.9999997
0.9999997
0.9999999
1
1
1
1
1
1
1
1
1
1
1
1
1
1
1
1
1
1
1
1
1
1
1
1
1
1
1
1
1
1
1
1
1
1
1
1
1
1
1
1
1
1
1
1
1
1
0.9999999
0.9999992
0.999998
0.9999984
0.9999995
0.9999999
0.9999994
0.9999932
0.9999797
0.9999798
0.9999883
0.9999954
0.9999871
0.9997038
0.9940959
0.9871206
0.9926276
0.9981431
0.9949671
0.8954268
0.7603698
0.7870095
0.9342588
0.9947975
0.9994602
0.9960388
0.9429771
0.9021533
0.9453119
0.8874046
0.7980266
0.798949
0.910359
0.9861922
0.9994466
0.999996
0.9999999
0.9999999
0.9999996
0.9999983
0.9999951
0.9999914
0.999991
0.9999932
0.9999979
0.9999999
1
1
1
1
1
1
1
1
1
0.9999995
0.9999951
0.999995
0.9999978
0.9999997
1
1
1
0.9999999
0.9999999
1
1
1
1
1
1
0.9999998
0.9999997
0.9999999
1
1
1
1
1
1
1
1
1
1
1
1
1
1
1
0.9999999
0.9999999
1
1
1
1
1
1
1
1
1
1
1
1
1
1
0.9999999
0.9999999
1
1
1
1
0.9999999
0.9999999
1
1
1
1
1
1
1
1
1
0.9999999
0.9999998
0.9999998
0.9999999
1
1
1
1
1
1
1
1
1
1
1
1
1
0.9999999
0.9999999
1
1
1
1
1
1
1
1
1
0.9999989
0.9999806
0.9996832
0.9960003
0.9916222
0.9924934
0.9971444
0.9996662
0.9998475
0.9989859
0.9962656
0.9966043
0.9986515
0.9998202
0.9999921
0.9999737
0.9997542
0.9989232
0.997401
0.9968577
0.9974712
0.9991264
0.999916
0.9999967
0.9999981
0.9999975
0.9999983
0.9999997
0.9999996
0.9999972
0.999982
0.9999199
0.9996918
0.9989222
0.9977854
0.9979829
0.9993134
0.9999218
0.9999975
0.9999999
0.9999999
0.9999996
0.9999985
0.9999939
0.9999759
0.9999372
0.9999341
0.9999696
0.9999961
0.9999999
1
1
1
0.9999999
1
1
0.9999999
0.9999997
0.9999997
0.9999999
1
1
1
1
1
1
1
0.9999997
0.9999995
0.9999996
0.9999999
1
1
1
1
1
1
0.9999999
0.9999998
0.9999993
0.999997
0.9999647
0.9994459
0.9974487
0.9976855
0.9992307
0.9999321
0.9999914
0.9999461
0.9991786
0.9969423
0.9971087
0.998788
0.9980039
0.9919125
1
1
1
1
1
1
1
1
1
1
1
1
1
1
1
1
1
1
1
1
1
1
1
1
1
1
1
1
1
1
1
1
1
1
1
1
1
1
1
1
1
1
1
1
1
1
1
1
1
1
1
1
1
1
1
1
1
1
1
1
1
1
1
1
1
1
1
1
1
1
1
1
1
1
1
1
1
1
1
1
1
1
1
1
1
1
1
1
1
1
1
1
1
1
1
1
1
1
1
1
1
1
1
1
1
1
1
1
0.9999999
0.9999998
0.9999994
0.9999984
0.9999975
0.9999973
0.9999974
0.9999979
0.9999989
0.9999994
0.9999992
0.9999981
0.999994
0.9999849
0.9999707
0.9999575
0.9999538
0.9999566
0.9999714
0.999989
0.9999927
0.9999915
0.9999828
0.9999514
0.9998864
0.9998063
0.9997491
0.9997412
0.9997795
0.9998896
0.99996
0.9999656
0.9999548
0.9999002
0.9997651
0.9995182
0.9991549
0.9989414
0.9990018
0.99935
0.999729
0.9998598
0.9998651
0.9998416
0.9997138
0.9992501
0.9980709
0.9969077
0.9968966
0.9976929
0.9989963
0.9996465
0.9997092
0.9996908
0.9995138
0.9987733
0.9969267
0.9953359
0.9953468
0.9963445
0.9982719
0.9994519
0.9996064
0.999582
0.9993687
0.9985589
0.9967508
0.9952081
0.9951602
0.9961189
0.9984187
0.9997051
0.9997965
0.9997714
0.999653
0.9993221
0.9987462
0.9982851
0.9982309
0.9986495
0.9996364
0.9999524
0.9999443
0.9998874
0.9996888
0.9991541
0.9987456
0.9990639
0.9997736
0.9999827
0.9999816
0.9999457
0.9997827
0.9993243
0.9990792
0.9994177
0.9998928
0.999996
0.9999996
0.9999994
0.9999976
0.9999908
0.9999749
0.9999715
0.9999863
0.9999983
0.9999999
0.9999997
0.9999992
0.9999977
0.9999966
0.9999974
0.9999994
1
1
1
0.9999999
0.9999997
0.9999996
0.9999998
1
1
1
1
1
0.9999999
0.9999998
0.9999998
0.9999998
0.9999999
1
1
1
1
0.9999999
0.9999998
0.9999994
0.9999993
0.9999997
1
1
1
1
1
1
1
1
1
1
1
1
0.9999997
0.9999976
0.9999866
0.9999739
0.9999797
0.999994
0.9999995
0.9999999
0.9999995
0.9999904
0.9999224
0.9998238
0.9998016
0.9997174
0.9995709
0.999356
0.9940668
0.9742688
0.9769999
0.992427
0.9917008
0.8748108
0.7603698
0.8358708
0.9660253
0.9985698
0.9970029
0.9414306
0.6827196
0.6528687
0.7329535
0.9244142
0.8858572
0.8437414
0.9218476
0.987152
0.9994655
0.9999957
0.9999998
0.9999995
0.9999974
0.9999886
0.9999583
0.9998996
0.999881
0.9999257
0.9999881
0.9999997
1
1
1
1
1
0.9999998
0.9999997
0.9999998
0.9999999
0.9999998
0.9999977
0.9999903
0.9999933
0.9999984
0.9999999
1
1
1
1
1
0.9999999
1
1
1
1
0.9999999
0.9999998
0.9999999
1
1
1
1
1
1
1
1
1
1
1
1
1
1
1
0.9999999
0.9999999
1
1
1
1
1
1
1
1
1
1
1
1
1
1
1
0.9999999
0.9999999
1
1
1
0.9999999
0.9999999
0.9999999
1
1
1
1
1
1
1
1
1
1
0.9999999
0.9999999
1
1
1
1
1
1
1
1
1
1
1
1
1
1
1
1
1
1
1
1
1
1
1
0.9999997
0.999994
0.9998741
0.9981279
0.992008
0.9916222
0.9916222
0.9949529
0.9991251
0.9999358
0.9998667
0.9995621
0.9994852
0.9996396
0.9999074
0.9999915
0.9999604
0.9992921
0.9913789
0.9749287
0.9785765
0.9918086
0.9990548
0.9999645
0.999981
0.9999794
0.9999883
0.999997
0.9999997
0.9999994
0.9999916
0.9998494
0.9984467
0.9914442
0.9824823
0.9846222
0.9935928
0.999227
0.9999813
0.9999996
0.9999993
0.999997
0.9999872
0.9999427
0.9997607
0.9994855
0.999539
0.9998302
0.999983
0.9999997
1
1
1
1
1
1
0.9999998
0.9999991
0.9999989
0.9999995
0.9999999
1
1
1
1
1
1
1
0.9999999
0.9999996
0.9999996
0.9999999
1
1
1
1
1
1
1
0.9999999
0.9999993
0.9999876
0.999757
0.9970672
0.9942319
0.9969609
0.9994764
0.999978
0.9999914
0.9999574
0.9989209
0.9904388
0.9881809
0.9924789
0.9985616
0.9997498
1
1
1
1
1
1
1
1
1
1
1
1
1
0.9999999
1
1
1
1
1
1
1
1
1
1
1
1
1
1
1
1
1
1
1
1
1
1
1
1
1
1
1
1
1
1
1
1
1
1
1
1
1
1
1
1
1
1
1
1
1
1
1
1
1
1
1
1
1
1
1
1
1
1
1
1
1
1
1
1
1
1
1
1
1
1
1
1
1
1
1
1
1
1
1
1
1
1
1
1
1
1
1
1
1
1
1
1
1
1
1
1
0.9999999
0.9999994
0.9999978
0.999995
0.9999915
0.9999878
0.9999869
0.9999879
0.999991
0.999993
0.9999914
0.9999796
0.9999364
0.9998058
0.9994613
0.9988704
0.9985742
0.9986045
0.9988735
0.99942
0.9998029
0.9998532
0.9998061
0.9994505
0.997986
0.9942157
0.9907128
0.9906101
0.9924294
0.9961127
0.9986497
0.9991059
0.9991009
0.9988855
0.9972502
0.9905351
0.9762673
0.9674883
0.9695289
0.9819926
0.9949029
0.9972923
0.9971353
0.9969882
0.9952546
0.9857067
0.9601029
0.933993
0.9353
0.9599486
0.9834093
0.9860436
0.9874921
0.9905786
0.9906253
0.9844601
0.9578082
0.9024388
0.8876715
0.9105783
0.9503538
0.9725074
0.9831556
0.9855481
0.9845688
0.9783936
0.9504944
0.8850846
0.8574366
0.8740538
0.9224717
0.9683718
0.9857755
0.9866292
0.9860302
0.9811756
0.95576
0.8863586
0.85523
0.8863521
0.9605259
0.9942655
0.995414
0.994258
0.9923793
0.9872548
0.9729455
0.9523586
0.950785
0.974057
0.9962751
0.9996321
0.9993904
0.9982672
0.9939675
0.9843859
0.9824272
0.9909627
0.9987512
0.9998734
0.9998126
0.9992667
0.9964549
0.990137
0.9897413
0.995514
0.9994948
0.9999831
0.9999943
0.9999919
0.999977
0.9998914
0.9996825
0.9997188
0.9999163
0.9999933
0.9999989
0.9999976
0.9999903
0.9999696
0.9999579
0.9999742
0.9999955
0.9999998
0.9999999
0.9999997
0.9999983
0.9999955
0.9999959
0.9999987
0.9999999
1
1
0.9999999
0.9999997
0.9999991
0.9999982
0.9999978
0.9999979
0.9999989
0.9999999
1
1
0.9999998
0.9999986
0.9999931
0.9999874
0.9999928
0.9999986
0.9999999
1
1
1
1
1
1
1
1
1
1
0.9999996
0.9999961
0.9999695
0.9998633
0.9997869
0.9998815
0.9999767
0.9999987
0.9999997
0.9999996
0.9999976
0.9999643
0.9997129
0.9988505
0.9956226
0.9901754
0.9859962
0.9851864
0.9740024
0.9267645
0.907998
0.916357
0.9115817
0.9251358
0.9501781
0.9787517
0.9969506
0.9987794
0.9941285
0.8813393
0.6550502
0.7367963
0.9129896
0.9791678
0.9792627
0.9583799
0.9721971
0.9900722
0.9985901
0.999945
0.9999961
0.9999862
0.9999387
0.9997569
0.9991814
0.9986692
0.999143
0.9998513
0.9999955
1
1
1
1
1
0.9999998
0.9999989
0.9999988
0.9999995
0.9999999
0.9999999
0.9999976
0.9999853
0.999989
0.9999972
0.9999998
1
1
1
1
0.9999999
0.9999999
1
1
1
1
1
1
1
1
0.9999999
0.9999998
0.9999995
0.9999987
0.9999971
0.9999974
0.9999991
0.9999999
1
1
1
1
1
1
0.9999999
0.9999999
1
1
1
1
1
1
1
1
1
1
1
1
0.9999999
0.9999999
0.9999999
1
1
1
1
1
1
0.9999999
0.9999999
1
1
1
1
1
1
1
1
1
1
1
1
1
1
1
1
1
1
1
1
1
1
1
1
1
1
1
1
1
1
1
1
1
0.9999997
0.9999976
0.9999885
0.9999216
0.99913
0.9937225
0.9916222
0.9917833
0.995865
0.9991392
0.999915
0.9999483
0.9999268
0.9998528
0.9998341
0.9999258
0.999987
0.9999914
0.9999575
0.9992492
0.9838549
0.9335849
0.941088
0.9760474
0.9954209
0.9995186
0.9999648
0.9999978
0.9999982
0.9999982
0.9999976
0.9999907
0.9999395
0.9993887
0.9917631
0.942399
0.9269424
0.9465238
0.9855695
0.9987619
0.9999709
0.9999931
0.9999712
0.9998562
0.9994797
0.9984973
0.99743
0.9975605
0.9988719
0.9998558
0.9999958
0.9999979
0.9999948
0.9999894
0.9999922
0.999998
0.9999996
0.9999991
0.9999966
0.999996
0.9999983
0.9999998
1
1
1
1
1
1
1
1
1
1
1
1
1
1
0.9999999
0.9999999
1
1
0.9999999
0.9999986
0.9999712
0.9997089
0.998163
0.9926721
0.9907433
0.9953977
0.9993206
0.9999771
0.9999914
0.9999844
0.9999378
0.9997809
0.9993546
0.9988237
0.9989521
0.9996784
1
1
1
1
1
1
1
1
1
0.9999999
1
1
0.9999999
1
1
1
1
1
1
1
1
1
1
1
1
0.9999999
1
1
1
1
1
1
1
1
1
1
1
1
1
1
1
1
1
1
1
1
1
1
1
1
1
1
1
1
1
1
1
1
1
1
1
1
1
1
1
1
1
1
1
1
1
1
1
1
1
1
1
1
1
1
1
1
1
1
1
1
1
1
1
1
1
1
1
1
1
0.9999999
0.9999999
0.9999999
1
1
1
1
1
1
1
1
1
1
1
1
1
1
1
1
1
1
0.9999999
0.9999999
0.9999999
0.9999998
0.9999996
0.9999992
0.9999975
0.9999849
0.9998936
0.9994553
0.9984354
0.9975504
0.9970248
0.996577
0.9965778
0.9970573
0.9981483
0.9984764
0.9980563
0.9958887
0.9897279
0.9732678
0.9379879
0.9143095
0.9171155
0.9401059
0.972237
0.9867122
0.990555
0.9911123
0.9865567
0.9540477
0.8396767
0.7322125
0.7431636
0.8213304
0.908267
0.9544952
0.9664379
0.964815
0.9569269
0.9453521
0.8820277
0.5789815
0.4106684
0.5100974
0.7697989
0.9311385
0.9337185
0.8929893
0.882213
0.8966286
0.8110635
0.3413597
0.1506286
0.3216744
0.7417637
0.825354
0.7687113
0.7458338
0.8039447
0.8596917
0.7217946
0.2494401
0.08630579
0.188825
0.5487489
0.6299865
0.6209283
0.6998261
0.8132259
0.7433735
0.3460916
0.07651268
0.06712499
0.1396594
0.3263899
0.4846347
0.6551749
0.8423894
0.8900884
0.7733297
0.3253712
0.07353347
0.04982113
0.06478383
0.4264834
0.8791076
0.9597372
0.9606487
0.9103483
0.527787
0.149203
0.1197363
0.2852607
0.7671819
0.9747083
0.9958034
0.9953152
0.9705077
0.7619284
0.6466876
0.7637444
0.9334361
0.9923163
0.9975887
0.9972039
0.9927596
0.9698646
0.9296359
0.9295798
0.9721199
0.996978
0.9996149
0.9996666
0.9996649
0.9995821
0.9988257
0.9977681
0.9986771
0.9997231
0.9999793
0.99999
0.9999827
0.9999393
0.9997744
0.9996728
0.9998341
0.999976
0.9999991
0.9999995
0.999998
0.9999879
0.9999683
0.9999765
0.9999945
0.9999997
1
0.9999999
0.9999996
0.9999987
0.9999954
0.9999849
0.9999629
0.9999652
0.9999885
0.999999
0.9999997
0.9999992
0.9999953
0.9999679
0.9998937
0.999912
0.999974
0.9999976
0.9999999
1
1
1
1
1
1
1
1
0.9999999
0.9999995
0.999995
0.9999565
0.9997136
0.9989134
0.998906
0.9995883
0.9999495
0.9999981
0.9999989
0.9999953
0.9999828
0.9999579
0.9998035
0.9982704
0.977328
0.8924969
0.8959214
0.9483085
0.9262589
0.8352074
0.5069536
0.1839912
0.1939645
0.4878473
0.8739955
0.9758276
0.9912589
0.9977389
0.9973354
0.9817692
0.9248965
0.9221368
0.9623754
0.982277
0.9745765
0.9330756
0.8944042
0.9137086
0.9741944
0.9980586
0.9999614
0.9999662
0.9997488
0.9982867
0.9913658
0.9871311
0.9938104
0.9991978
0.9999775
0.9999999
1
1
1
1
0.9999998
0.9999981
0.999996
0.9999979
0.9999997
0.9999999
0.9999997
0.9999949
0.999976
0.9999853
0.9999969
0.9999998
1
1
1
0.9999998
0.9999997
0.9999998
1
1
1
1
1
1
1
0.9999997
0.9999983
0.9999901
0.9999693
0.9999689
0.999986
0.9999978
0.9999999
1
1
1
1
1
1
1
1
1
1
1
1
1
1
1
1
1
1
1
0.9999997
0.9999995
0.9999997
0.9999999
1
1
1
1
1
1
1
1
1
1
1
1
1
1
1
1
1
1
1
1
1
1
1
1
1
1
1
1
1
1
1
1
1
1
1
1
1
1
1
1
1
0.9999999
0.999998
0.9999635
0.9996432
0.9984928
0.994581
0.9919316
0.9943802
0.9984299
0.9998342
0.9999399
0.9998984
0.9994158
0.9982248
0.9982529
0.9992117
0.9998911
0.999991
0.9999912
0.999958
0.9993217
0.987066
0.9356869
0.9326428
0.9326451
0.9476425
0.9861568
0.999051
0.9999867
0.9999982
0.9999982
0.9999923
0.9999101
0.999001
0.9894805
0.9392753
0.9269424
0.9269261
0.9269424
0.9269614
0.9601981
0.9945294
0.9998359
0.9998979
0.9985841
0.9865255
0.9679683
0.9740536
0.9895589
0.9984098
0.9998905
0.9999127
0.9998104
0.9998617
0.9999602
0.9999964
0.9999985
0.9999959
0.9999845
0.9999837
0.9999934
0.9999992
1
1
1
1
1
1
1
1
1
1
1
1
1
1
0.9999999
0.9999997
0.9999994
0.9999994
0.9999997
0.9999997
0.999996
0.9998997
0.997569
0.9653259
0.9449069
0.9735603
0.996047
0.9998686
0.9999916
0.9999846
0.9999316
0.9997989
0.9997584
0.9998761
0.9999437
0.999931
0.9993582
1
1
1
1
1
1
1
0.9999999
1
1
1
1
1
1
1
1
1
1
1
1
0.9999999
0.9999999
1
1
1
1
1
1
1
1
1
1
1
1
1
1
1
1
1
1
1
1
1
1
1
1
1
1
1
1
1
1
1
1
1
1
1
1
1
1
1
1
1
1
1
1
1
1
1
1
1
1
1
1
1
1
1
1
1
1
1
1
1
1
1
1
1
1
1
1
1
1
1
1
1
1
1
1
1
1
1
1
1
1
1
1
1
0.9999999
0.9999999
0.9999999
0.9999999
0.9999999
1
1
1
1
1
1
1
1
1
1
1
1
0.9999998
0.9999987
0.9999913
0.9999662
0.9999293
0.9999091
0.9998958
0.9998616
0.9997446
0.9995673
0.9993936
0.9989078
0.9958281
0.9775515
0.9299824
0.9044241
0.9008905
0.8916894
0.8821925
0.8904602
0.9260453
0.9456809
0.9351267
0.8929352
0.8243221
0.6931229
0.440408
0.2962865
0.3209355
0.5054703
0.7442874
0.7712316
0.7776988
0.8136518
0.7839044
0.4450361
0.09039461
0.04093593
0.06114512
0.1548406
0.3248493
0.5259738
0.6812335
0.6710777
0.4495339
0.1339991
0.02464518
0.01280453
0.01035895
0.01129798
0.0462636
0.3374669
0.5156591
0.3526028
0.1016458
0.02017223
0.01296096
0.01146388
0.0114739
0.01764788
0.05876315
0.1440874
0.1501473
0.1039385
0.03674292
0.01181033
0.01065756
0.01065756
0.01656756
0.04183023
0.06579502
0.06512701
0.05418105
0.03226053
0.01565955
0.01407787
0.01348493
0.01285623
0.016184
0.07183763
0.1066876
0.09253339
0.06417065
0.04242414
0.04905314
0.05030241
0.02741343
0.03273347
0.08366146
0.3140049
0.271736
0.1290421
0.07385532
0.08294557
0.07494091
0.06489511
0.1329269
0.1193891
0.09683701
0.1116735
0.1318843
0.2401757
0.5792316
0.5971921
0.3066208
0.1012859
0.1067462
0.1336702
0.3356221
0.8087902
0.9255661
0.7163689
0.3058691
0.4090903
0.8275045
0.9805116
0.9804004
0.9644932
0.9544022
0.9571917
0.9678685
0.9842905
0.996883
0.9997056
0.9998381
0.9998433
0.9997681
0.9991741
0.9975007
0.9977236
0.9992911
0.9999357
0.9999954
0.9999949
0.9999808
0.9998936
0.9998151
0.999899
0.9999818
0.999999
0.9999994
0.999999
0.9999955
0.9999682
0.9997696
0.9992006
0.9992664
0.9997367
0.9999693
0.9999976
0.9999973
0.9999896
0.999913
0.9995017
0.9993962
0.9996843
0.999951
0.9999973
1
1
1
1
1
1
1
1
0.9999999
0.9999994
0.9999953
0.9999637
0.9996641
0.9970245
0.9936935
0.9962175
0.9991334
0.9999499
0.9999977
0.9999934
0.9999608
0.9998596
0.9996567
0.9995029
0.9985039
0.9741143
0.7327249
0.5120994
0.7656733
0.9653027
0.8691281
0.3259506
0.03657105
0.009616628
0.01625733
0.06333197
0.2162942
0.5721803
0.8804124
0.9775807
0.9898246
0.9889879
0.98811
0.9883053
0.9883053
0.9805001
0.7965072
0.3718096
0.4063726
0.7855456
0.9771771
0.9993708
0.9999388
0.9995879
0.9939144
0.9503428
0.9397752
0.974508
0.997073
0.9999105
0.9999996
1
1
1
1
0.9999994
0.9999949
0.9999902
0.9999945
0.9999988
0.9999999
0.9999999
0.9999992
0.9999842
0.9999635
0.9999832
0.9999974
0.9999999
1
1
0.9999999
0.9999993
0.9999994
0.9999998
1
1
1
1
0.9999999
0.9999994
0.9999957
0.9999767
0.9999049
0.9998813
0.9999373
0.9999885
0.9999993
1
1
1
1
1
1
1
1
1
1
1
1
1
1
1
1
1
1
1
1
0.9999994
0.9999985