/*--------------------------------*- C++ -*----------------------------------*\
| =========                 |                                                 |
| \\      /  F ield         | foam-extend: Open Source CFD                    |
|  \\    /   O peration     | Version:     3.1                                |
|   \\  /    A nd           | Web:         http://www.extend-project.de       |
|    \\/     M anipulation  |                                                 |
\*---------------------------------------------------------------------------*/
FoamFile
{
    version     2.0;
    format      ascii;
    class       volScalarField;
    location    "14";
    object      nut;
}
// * * * * * * * * * * * * * * * * * * * * * * * * * * * * * * * * * * * * * //

dimensions      [0 2 -1 0 0 0 0];

internalField   nonuniform List<scalar> 
119952
(
5.426093e-05
3.677696e-05
3.81136e-05
4.245253e-05
4.537017e-05
4.318251e-05
4.175103e-05
4.07017e-05
3.986781e-05
3.912324e-05
3.843528e-05
3.777093e-05
3.711156e-05
3.644724e-05
3.576955e-05
3.507431e-05
3.435835e-05
3.361638e-05
3.283826e-05
3.19443e-05
4.021483e-05
3.820097e-05
3.725061e-05
4.804245e-05
4.653542e-05
4.544133e-05
4.470072e-05
4.441586e-05
4.420004e-05
3.126507e-05
3.277029e-05
3.587315e-05
4.064422e-05
4.541792e-05
5.038154e-05
5.558968e-05
6.105695e-05
6.668324e-05
7.239449e-05
8.233345e-05
0.0003738551
0.0004314188
0.0004959381
0.0005641358
0.0006337753
0.000703278
0.0007719446
0.0008393678
0.0009049763
0.001274061
0.001338555
0.001402889
0.001466713
0.001530438
0.00159466
0.001659218
0.001723684
0.001787766
0.001849764
0.001914266
0.001975636
0.002035358
0.002094872
0.002154629
0.002214607
0.002274598
0.002334346
0.002396906
0.002225623
0.002459483
0.002465667
0.002480905
0.002491441
0.002492057
0.002481135
0.002463749
0.002443446
0.002420747
0.002396393
0.002371256
0.002346287
0.002322181
0.002299335
0.002277804
0.002257466
0.002238427
0.002221892
0.00221018
0.002212899
0.00220776
0.002207227
0.002214194
0.002225293
0.002211967
0.002181856
0.00212951
0.002024166
0.001855488
0.0017827
0.001726912
0.001683713
0.001646417
0.001611633
0.001578663
0.0015472
0.001517278
0.001489063
0.001462632
0.001437944
0.00141497
0.001393795
0.00137467
0.001357942
0.001343893
0.001332543
0.001323531
0.001316121
0.001309241
0.001301456
0.001291024
0.001276286
0.001256604
0.001233846
0.001213171
0.001200974
0.001200571
0.001201893
0.001208526
0.001224343
0.00124533
0.001268506
0.00129176
0.001304382
0.001312566
0.001318307
0.001325356
0.001337239
0.001352415
0.001367955
0.001381546
0.001392182
0.001399961
0.001405706
0.001410512
0.001415622
0.001422422
0.001432957
0.00144396
0.001455311
0.001468425
0.00148347
0.001500323
0.001518656
0.001537952
0.0015576
0.001577228
0.001596641
0.001615734
0.001634611
0.001653537
0.001672945
0.001693363
0.001715404
0.001739711
0.001766872
0.001797338
0.001831352
0.001868868
0.001909408
0.001951898
0.001994539
0.002034803
0.002069376
0.002093675
0.002103945
0.002096855
0.002063852
0.001995815
0.001903967
0.001793142
0.001662246
0.001505638
0.001297089
0.0009778393
0.0006322563
0.0005187122
0.0004555418
0.0005236755
0.000657085
0.0008058041
0.0008759201
0.0009343858
0.0009511107
0.0009289239
0.0008968397
0.0008809531
0.0008944148
0.00079277
0.0006329399
0.0005665469
0.0005560787
0.0005877546
0.0006394439
0.000695626
0.0007520073
0.0008060221
0.0008540575
0.0008915219
0.0009132488
0.000925084
0.0009276089
0.0009210663
0.000906515
0.0008856956
0.0008605135
0.0008324524
0.0008026754
0.0007720948
0.0007413484
0.000710883
0.0006809718
0.0006518204
0.0006238536
0.0005966447
0.0005682551
0.0005384972
0.0005089659
0.0004804222
0.000453469
0.0004284264
0.0004058166
0.0003861818
0.000374342
0.0003732982
0.0003730866
0.0003730967
0.0003733996
0.000374014
0.0003749575
0.0003762522
0.000377905
0.0003799061
0.0003822458
0.0003849271
0.0003879579
0.0003913422
0.0003950733
0.0003991282
0.0004034618
0.0004080084
0.0004126859
0.0004173979
0.0004220393
0.0004265114
0.0004307451
0.0004347139
0.0004384321
0.0004419517
0.000445352
0.0004487193
0.0004521154
0.000455557
0.000459019
0.0004624335
0.0004656788
0.0004685867
0.0004709097
0.0006129723
0.0006211583
0.0006284719
0.0006339745
0.0006383689
0.0006430957
0.0006497193
0.0006595541
0.0006737798
0.0006936876
0.0007204018
0.0007546374
0.0007964651
0.0008451842
0.0008993393
0.0009568399
0.00101614
0.001076768
0.001138174
0.00119992
0.001261736
0.001323415
0.001384645
0.001444812
0.001504699
0.001566811
0.001633493
0.001703506
0.001774626
0.001845935
0.001916917
0.001987109
0.002056031
0.002123154
0.002187905
0.002249637
0.002307654
0.00236129
0.00240997
0.002453221
0.002490679
0.002522059
0.002547163
0.002565931
0.002578318
0.002584061
0.002582696
0.002574556
0.002559371
0.002536786
0.002507055
0.002470772
0.002428542
0.002380853
0.002326425
0.002269031
0.002211182
0.002152555
0.002092649
0.002031558
0.001969981
0.001909015
0.001849818
0.001793256
0.001739736
0.001689134
0.00164075
0.001593548
0.001546419
0.001498393
0.001448781
0.001397256
0.001343834
0.001288851
0.00123416
0.001181668
0.001133088
0.001089759
0.001052429
0.001021172
0.000995458
0.00097438
0.0009569379
0.0009422762
0.0009298495
0.0009193272
0.0009104959
0.0009031619
0.0008970171
0.0008915041
0.0008864469
0.000881939
0.000878013
0.000874711
0.0008721994
0.000870606
0.0008697417
0.0008694958
0.0008698478
0.0008707901
0.0008722918
0.0008743315
0.000876902
0.0008800128
0.0008836857
0.0008879505
0.0008928518
0.0008984415
0.0009047723
0.0009118994
0.0009198831
0.0009287855
0.0009386642
0.0009495685
0.0009615368
0.0009745942
0.0009887507
0.00100399
0.001020245
0.001037375
0.001055154
0.001073299
0.00109155
0.001109764
0.001127972
0.00114623
0.001164363
0.001181713
0.001197052
0.001208371
0.001212343
0.001204606
0.001182808
0.001149973
0.001110426
0.001064951
0.001015399
0.0009675107
0.0007763741
5.155626e-05
5.524243e-05
6.417593e-05
7.491131e-05
8.577787e-05
9.623265e-05
0.0001061768
0.0001156449
0.0001260608
0.000445833
0.0005974537
0.0007571784
0.0009111429
0.001052047
0.001178199
0.001290763
0.001392117
0.001484751
0.002126075
0.002225837
0.002328957
0.002430165
0.002528851
0.002624445
0.002716932
0.002806118
0.002891813
0.002972949
0.003050975
0.003125281
0.0031964
0.003266492
0.003336416
0.003406025
0.003474726
0.003542188
0.003608137
0.003656369
0.003688337
0.003724467
0.003765362
0.003810712
0.003859264
0.003909621
0.003960538
0.004011061
0.004060787
0.004110931
0.004160299
0.004210229
0.004261227
0.004312991
0.004364987
0.004416415
0.004466443
0.004513835
0.005288833
0.005329034
0.005368107
0.005407757
0.005448039
0.00548849
0.005528333
0.005566615
0.005602827
0.00563638
0.005667521
0.005697691
0.0057276
0.005757636
0.005788077
0.005818413
0.005848039
0.005877088
0.005907258
0.005930783
0.005940153
0.00594571
0.005951222
0.005951535
0.005944761
0.005931223
0.005912154
0.005887889
0.005858428
0.005824286
0.005786525
0.005746493
0.005705559
0.005664799
0.005624957
0.005586403
0.005549597
0.005515105
0.005484071
0.005457481
0.005431968
0.005410395
0.005394917
0.005368671
0.005324587
0.005264138
0.00518357
0.005075404
0.004960005
0.004858341
0.004758995
0.004660024
0.004560341
0.004459025
0.004356582
0.004254054
0.004152764
0.004054034
0.003958849
0.003867776
0.003781064
0.003698809
0.00362108
0.003547963
0.003479539
0.003415849
0.003356847
0.003302338
0.003251844
0.003204495
0.003159065
0.003114241
0.003069184
0.003024212
0.002980834
0.002940792
0.002905043
0.002873496
0.002845574
0.002820862
0.002799342
0.002781316
0.002767312
0.00275784
0.002753317
0.00275437
0.002761657
0.002775118
0.002793838
0.002816479
0.002841628
0.002868089
0.002894985
0.002921844
0.002948545
0.002975248
0.003001958
0.003028313
0.003055957
0.003086425
0.003119972
0.003156809
0.00319704
0.003240688
0.00328774
0.003338187
0.003392093
0.003449672
0.003511361
0.003577877
0.003650237
0.003729776
0.003818158
0.003917332
0.004029386
0.004156322
0.004299796
0.004460767
0.00463903
0.004832686
0.00503771
0.005247853
0.005455038
0.005650055
0.005823635
0.00596784
0.006076129
0.006142096
0.006158393
0.0061129
0.005998152
0.005793516
0.005467595
0.00494238
0.004150628
0.003293995
0.002588927
0.002090728
0.001775169
0.001635534
0.001315328
0.001257042
0.001400327
0.001736447
0.002091504
0.002239011
0.002401268
0.00258784
0.002573959
0.002655986
0.002804346
0.003002247
0.003247709
0.003522359
0.003797894
0.004055195
0.004288489
0.004493645
0.004665032
0.004802195
0.004903907
0.00496727
0.004991507
0.004978157
0.004931098
0.004862131
0.004778217
0.004683637
0.004582386
0.004476465
0.004367054
0.004255722
0.004143377
0.00402928
0.003914731
0.003800514
0.003687157
0.003574925
0.003463864
0.003353909
0.003244955
0.00313709
0.003030881
0.002927817
0.002830225
0.002738507
0.002653134
0.002575163
0.002505479
0.002444657
0.002393028
0.002350657
0.002317286
0.00229202
0.002273041
0.002259186
0.002249637
0.002243676
0.002240622
0.002239802
0.002240543
0.002242153
0.002243916
0.002245073
0.002244853
0.002242541
0.002237598
0.002229755
0.002219007
0.002205429
0.002188981
0.002170562
0.002151371
0.002132525
0.002115006
0.002099445
0.002086212
0.002075523
0.002373239
0.002366696
0.002360729
0.002353507
0.002344934
0.002336366
0.002330105
0.002329181
0.002337155
0.002357836
0.002394811
0.002450972
0.002528189
0.002627168
0.002747438
0.002887468
0.003044896
0.003216824
0.003400146
0.003591821
0.003789072
0.003989485
0.004191011
0.004391912
0.004590603
0.004785484
0.004974893
0.005160618
0.005345675
0.005527809
0.005705637
0.005878164
0.006044533
0.006203864
0.006355215
0.006497508
0.006629577
0.006750357
0.006858934
0.006954532
0.00703668
0.00710495
0.007158605
0.007198086
0.007225133
0.007240211
0.007242935
0.007231715
0.007203869
0.007159727
0.007100124
0.007025916
0.006937903
0.00683692
0.006723759
0.006599324
0.006464706
0.006321288
0.00617098
0.006016206
0.005859897
0.005705108
0.005554488
0.005409813
0.005271726
0.005139745
0.005012465
0.00488789
0.004763783
0.004637975
0.004508598
0.004374287
0.004234249
0.00408821
0.003938999
0.003791436
0.003648489
0.003513002
0.003387143
0.003271911
0.00316702
0.003071282
0.00298323
0.00290162
0.002825678
0.002755125
0.002690026
0.002630562
0.00257684
0.002528811
0.002486259
0.002448842
0.002416133
0.002387659
0.002362947
0.002341586
0.002323211
0.002307424
0.002293808
0.002282476
0.00227365
0.002267541
0.002264371
0.002264402
0.002267979
0.002275289
0.002286297
0.00230099
0.002319373
0.002341465
0.002367288
0.002396865
0.002430212
0.002467337
0.002508232
0.002552877
0.00260122
0.002653168
0.00270852
0.002766979
0.002828107
0.002891476
0.002956756
0.003023977
0.003093398
0.003165286
0.003239348
0.003314438
0.003388102
0.003456571
0.003514851
0.003556946
0.003575938
0.00356476
0.003515879
0.003423805
0.003288056
0.003116237
0.002919148
3.146171e-05
3.842512e-05
4.892888e-05
6.136835e-05
7.619721e-05
9.400823e-05
0.0001158538
0.00014312
0.0001782974
0.000240218
0.0009988778
0.001166052
0.001346493
0.001536878
0.001727155
0.001885426
0.002018858
0.002174965
0.002508215
0.004564185
0.004798771
0.004943011
0.00507491
0.005193073
0.005299328
0.005395465
0.00548223
0.005562202
0.005666286
0.005872691
0.006077535
0.006229128
0.006334115
0.006407897
0.006461585
0.006501852
0.006532784
0.006562585
0.006460175
0.006442643
0.006464869
0.006505313
0.006552364
0.006599694
0.006643637
0.006682438
0.006715559
0.006742958
0.006764008
0.006781576
0.006797519
0.006812827
0.006828305
0.006844336
0.006860708
0.00687542
0.007654582
0.007669976
0.007678357
0.007682849
0.007685268
0.007686359
0.007686783
0.007686951
0.007687495
0.00768873
0.007690427
0.007693267
0.007697741
0.007703386
0.007709774
0.007716493
0.00772308
0.007729421
0.007735853
0.007742128
0.007748571
0.007756688
0.007766927
0.007779091
0.007792691
0.007806839
0.007820538
0.007833004
0.007843813
0.007853789
0.007864116
0.007875553
0.007888869
0.007904353
0.007921604
0.007939612
0.007957167
0.007974477
0.007974089
0.007974803
0.007977516
0.007983054
0.007991764
0.008003402
0.00801709
0.008031366
0.008044646
0.008055786
0.008064802
0.008072417
0.008079593
0.008087302
0.008096314
0.008106559
0.008117612
0.008128452
0.008138012
0.008143358
0.008141406
0.008133678
0.008123192
0.008110376
0.00809492
0.008076768
0.008053928
0.008026269
0.007993074
0.007954085
0.007910071
0.007862563
0.007813426
0.007764301
0.007716381
0.00767016
0.007625821
0.007583214
0.007542746
0.00750443
0.007466573
0.00742939
0.007393612
0.007352341
0.007299554
0.007233989
0.007153871
0.007057984
0.00695359
0.00684937
0.006745128
0.006637802
0.006526876
0.006411615
0.006291941
0.006168826
0.006043849
0.005918801
0.005795305
0.00567458
0.005557402
0.005444195
0.005335144
0.005230293
0.005129626
0.005033136
0.00494087
0.00485293
0.004769369
0.00469009
0.00461482
0.004543146
0.004474752
0.004409728
0.004348468
0.004291162
0.004237403
0.004186142
0.004136089
0.004086261
0.004036253
0.003986367
0.003937671
0.003891755
0.003850516
0.00381605
0.003790187
0.00377392
0.003767372
0.003770026
0.003780937
0.003798984
0.003823045
0.003852133
0.003885461
0.003922461
0.003962619
0.004005285
0.004048852
0.004092699
0.004139018
0.004187745
0.004238491
0.004290947
0.004344915
0.004400375
0.004457558
0.004517022
0.004579745
0.004647185
0.004721325
0.004804694
0.004900386
0.005011977
0.005143296
0.005298041
0.005479294
0.005688877
0.005926503
0.006188952
0.006469631
0.006758848
0.007044778
0.007314914
0.007557979
0.007765667
0.007933119
0.008057647
0.008136221
0.008160466
0.008115342
0.007983116
0.007735084
0.007307112
0.006635084
0.005775391
0.004860868
0.003997517
0.003261722
0.002733089
0.002429054
0.002311343
0.001793014
0.001707016
0.001950766
0.002370269
0.002834893
0.003142247
0.003206515
0.003446479
0.003755434
0.004116981
0.004576907
0.005172627
0.005708856
0.005974761
0.006201453
0.006396685
0.006564093
0.006707379
0.006824948
0.006913296
0.006969687
0.006993404
0.006728509
0.006470961
0.006295318
0.006184669
0.006124612
0.006101483
0.006106334
0.006135014
0.00618623
0.006252399
0.006298135
0.006196368
0.00608939
0.005978413
0.005864209
0.005746926
0.005626538
0.005503097
0.005377021
0.005249398
0.005121641
0.004994937
0.004870736
0.004750906
0.004637468
0.004532435
0.004437674
0.004354567
0.00428242
0.004221166
0.004170627
0.004130366
0.004099725
0.004077857
0.004063756
0.004056286
0.0040542
0.00405615
0.004060688
0.0040663
0.00407146
0.004074689
0.004074588
0.004069897
0.004059562
0.004042883
0.004019551
0.003989827
0.003954326
0.003914248
0.0038707
0.003825395
0.003779002
0.003733856
0.003681944
0.0036329
0.003586085
0.003542057
0.003501625
0.003465831
0.003436434
0.003416119
0.003408461
0.003417566
0.003447649
0.003502488
0.003584995
0.003696924
0.003838706
0.004009436
0.004206977
0.004428135
0.004668981
0.004925138
0.005192092
0.005465432
0.005741044
0.006015161
0.006284379
0.006545601
0.006795961
0.007032486
0.007258329
0.00747489
0.007682281
0.007880552
0.008069634
0.008249383
0.008419436
0.008579109
0.008727342
0.008863143
0.008986182
0.009095693
0.009191554
0.009274938
0.00934591
0.009195588
0.009112725
0.009125441
0.009249527
0.009440678
0.009474359
0.009439923
0.009389353
0.009322944
0.009241148
0.009144565
0.00903386
0.008909753
0.00877287
0.008624198
0.00846526
0.008297987
0.00812592
0.007953183
0.007783416
0.007619151
0.007461396
0.00730976
0.007162626
0.00701763
0.006872161
0.00672368
0.006570058
0.00640975
0.006241967
0.006066678
0.005884498
0.005700507
0.005519214
0.005344688
0.00518016
0.005027294
0.004885922
0.004754563
0.004631277
0.004514382
0.004402859
0.004296463
0.004195546
0.004100721
0.004012537
0.00393133
0.003857131
0.003789736
0.003728786
0.003673847
0.003624524
0.003580461
0.00354139
0.003507125
0.003477582
0.003452743
0.003432671
0.003417406
0.003406951
0.003401215
0.003399919
0.003403135
0.003411308
0.003424874
0.0034443
0.003470101
0.00350238
0.003541091
0.003586189
0.003637649
0.003695391
0.003759307
0.003829264
0.003905064
0.00398645
0.004073013
0.004164223
0.004259545
0.00435866
0.004461713
0.00456925
0.004681748
0.00479904
0.004919806
0.00504136
0.005159444
0.005268293
0.005360691
0.005427924
0.005460868
0.005449096
0.005384099
0.00525929
0.005075854
0.004850971
3.940919e-05
6.389618e-05
0.0001422408
0.0004813309
0.0008302389
0.001492185
0.002005073
0.002628355
0.003347779
0.00394095
0.004378206
0.004729776
0.005078142
0.00543225
0.005796996
0.006166466
0.006540971
0.006912625
0.007262783
0.007596616
0.007917628
0.008208724
0.00844522
0.008644183
0.008824322
0.008985908
0.009127599
0.00924922
0.009356095
0.009451429
0.009566945
0.009983785
0.00972875
0.009393218
0.009145071
0.008929755
0.008746657
0.008602681
0.008503261
0.008437688
0.008385128
0.008372031
0.008394827
0.008442776
0.008509882
0.008593652
0.008689625
0.008796443
0.008914286
0.009052325
0.009204787
0.009349804
0.009525177
0.009724541
0.009947411
0.01
0.01
0.01
0.01
0.01
0.01
0.01
0.01
0.01
0.01
0.01
0.009993592
0.009985603
0.009955602
0.009929812
0.009906963
0.009885971
0.009866331
0.009847822
0.009830393
0.009814055
0.009798889
0.009785008
0.009772641
0.009762329
0.009754324
0.009748399
0.009744078
0.009740727
0.009737607
0.009734135
0.009730132
0.009725866
0.009722186
0.009720316
0.00972127
0.009725548
0.009732907
0.009742206
0.009751735
0.009759912
0.009765941
0.009770177
0.009773799
0.009778254
0.009784992
0.009794782
0.009807493
0.009821598
0.009835055
0.009845858
0.009852819
0.009856781
0.009859193
0.009861778
0.009866124
0.009872904
0.009881548
0.009890292
0.009896945
0.009899899
0.009898643
0.009893754
0.009886675
0.00987919
0.009872853
0.009868336
0.009865326
0.009862557
0.009858371
0.009850857
0.009837895
0.009819118
0.009796484
0.009772107
0.009747217
0.009722339
0.009696227
0.009667284
0.009633738
0.009594176
0.009548558
0.009498193
0.009445141
0.009391528
0.009339021
0.00928847
0.009240013
0.009193241
0.009147668
0.009102727
0.009057805
0.009012305
0.008966008
0.008916891
0.008861864
0.008798624
0.008725886
0.008642721
0.008551704
0.008457144
0.008360317
0.0082603
0.008156048
0.008046428
0.007930676
0.007808978
0.007682548
0.007553237
0.007423021
0.007293597
0.007166198
0.007041583
0.006920109
0.006801836
0.006686648
0.006574388
0.006464992
0.006358556
0.00625533
0.006155665
0.006059957
0.005968597
0.005881979
0.005800529
0.005724566
0.005653994
0.005588063
0.005525345
0.005464004
0.005402208
0.005338474
0.00527197
0.005202759
0.005131855
0.005061134
0.004993159
0.004930735
0.004876355
0.004831889
0.004798519
0.00477677
0.004766618
0.004767633
0.004779131
0.004800303
0.004830313
0.004868315
0.004913392
0.004964279
0.005019011
0.005075283
0.005134825
0.005196908
0.00526031
0.005324014
0.005387325
0.005450009
0.005512423
0.00557565
0.0056416
0.005713071
0.005793772
0.005888295
0.006001921
0.006140179
0.006308217
0.006509978
0.006747098
0.007017658
0.007315399
0.007629901
0.0079479
0.008255112
0.008538102
0.008786446
0.008994616
0.009162416
0.009292627
0.009387665
0.009445101
0.00945341
0.009398702
0.009259507
0.008996456
0.00855787
0.007922236
0.007112263
0.006179809
0.005214492
0.004346247
0.003674277
0.003231471
0.00300329
0.002462405
0.002102249
0.002197005
0.002543736
0.003018665
0.003449194
0.0037834
0.004097674
0.004464218
0.004919179
0.005493026
0.006176134
0.006447198
0.006671887
0.006863702
0.007029224
0.007174539
0.007301475
0.007406964
0.007487691
0.007263977
0.007005313
0.006831192
0.006717727
0.006658071
0.006643308
0.006660786
0.006702251
0.00676414
0.006846587
0.006950317
0.007069387
0.007183344
0.007180163
0.007102833
0.007019986
0.00693145
0.006836697
0.006735239
0.006626936
0.006512187
0.0063919
0.006267245
0.006139718
0.006011249
0.005884115
0.005760758
0.005643591
0.005534661
0.005435591
0.005347779
0.005272058
0.005208778
0.005157872
0.005118927
0.00509124
0.005073869
0.005065671
0.005065318
0.005071294
0.005081915
0.00509536
0.005109718
0.005123017
0.005133275
0.005138572
0.005137184
0.005127683
0.005109124
0.00508103
0.005043625
0.004997497
0.00494407
0.004884482
0.004820799
0.004754362
0.004686287
0.004618412
0.004552751
0.00449106
0.004435143
0.004387209
0.004350114
0.004327483
0.004323549
0.004342803
0.004389538
0.004467385
0.004578905
0.0047253
0.004906259
0.00511995
0.005363155
0.005631474
0.005919659
0.006221957
0.006532454
0.006845391
0.007155413
0.007457743
0.007748263
0.008023523
0.008280626
0.008518948
0.008742022
0.008951485
0.009148716
0.009334725
0.009510556
0.009677166
0.009834801
0.009983146
0.01
0.01
0.01000002
0.009772068
0.009574316
0.009455066
0.009409424
0.009428605
0.009515216
0.009686755
0.009915419
0.01
0.01
0.01
0.01
0.01
0.01
0.01
0.01
0.01
0.01000003
0.01000006
0.00992041
0.009757677
0.009592952
0.009430369
0.009272848
0.009121513
0.008975688
0.008833342
0.008691397
0.008546959
0.008397596
0.008241256
0.008076554
0.007902975
0.007720935
0.007531647
0.007338458
0.007146478
0.006959946
0.006782337
0.006615448
0.00645914
0.006311873
0.006171616
0.006036571
0.005905654
0.005778698
0.005656264
0.00553924
0.005428462
0.005324486
0.005227533
0.005137525
0.005054195
0.004977203
0.004906227
0.004841033
0.004781505
0.004727649
0.004679584
0.004637504
0.004601634
0.004572214
0.004549459
0.004533538
0.004524579
0.004522702
0.004528004
0.004540523
0.004560187
0.004586826
0.004620891
0.004663029
0.004713894
0.004773565
0.004841866
0.004918611
0.005003573
0.005096466
0.005196918
0.005304417
0.005418332
0.005538026
0.005663133
0.005793849
0.005930858
0.006074695
0.0062251
0.006380537
0.00653796
0.00669274
0.006838742
0.006968621
0.007073897
0.007145728
0.007174442
0.007151618
0.007069059
0.00692466
0.006735542
2.201084e-05
3.566323e-05
5.388494e-05
0.0002336688
0.000383055
0.0006505752
0.0009151517
0.001158454
0.001465261
0.001765992
0.002092617
0.002516861
0.003022623
0.003598523
0.004251125
0.005090037
0.006682626
0.007335114
0.007965795
0.008534593
0.009035784
0.009466483
0.009843267
0.01
0.01
0.01
0.01
0.01
0.01
0.01
0.01
0.01
0.01
0.01
0.01
0.01
0.01
0.01
0.01
0.01
0.009643812
0.009124881
0.008936917
0.008621208
0.008331296
0.008066384
0.00783902
0.007654626
0.007510608
0.007404446
0.007334316
0.007292229
0.007284125
0.007312437
0.007372288
0.007456904
0.00756103
0.007679835
0.007810225
0.007948538
0.008098657
0.008271705
0.008461077
0.008697719
0.008981808
0.009308632
0.009661012
0.01
0.01
0.01
0.01
0.01
0.01
0.01
0.01
0.01
0.01
0.01
0.01
0.01
0.01
0.01
0.01
0.01
0.01
0.01
0.01
0.01
0.01
0.01
0.01
0.01
0.01
0.01
0.01
0.01
0.01
0.01
0.01
0.01
0.01
0.01
0.01
0.01
0.01
0.01
0.01
0.01
0.01
0.01
0.01
0.01
0.01
0.01
0.01
0.01
0.01
0.01
0.01
0.01
0.01
0.01
0.01
0.01
0.01
0.01
0.01
0.01
0.01
0.01
0.01
0.01
0.01
0.01
0.01
0.01
0.01
0.01
0.01
0.01
0.01
0.01
0.01
0.01
0.01
0.01
0.01
0.01
0.01
0.01
0.01
0.01
0.01
0.01
0.01
0.01
0.01
0.01
0.01
0.01
0.009977302
0.009922706
0.009864116
0.009800139
0.009729836
0.009653799
0.009574028
0.009492154
0.009408525
0.009322345
0.009231886
0.009135337
0.009031596
0.008920921
0.008804827
0.008685427
0.00856477
0.008444475
0.008325633
0.008208835
0.008094247
0.00798173
0.007870983
0.007761735
0.00765387
0.007547511
0.007443042
0.007341089
0.007242456
0.007148038
0.007058716
0.006975166
0.006897595
0.00682554
0.006757818
0.006692658
0.006627963
0.006561604
0.006491752
0.006417237
0.006337814
0.006254299
0.006168554
0.006083216
0.006001251
0.005925563
0.005858735
0.005802862
0.005759456
0.005729441
0.005713199
0.00571066
0.00572141
0.00574477
0.005779816
0.005825304
0.005879512
0.005939915
0.00600362
0.006071719
0.006142492
0.006214096
0.006285054
0.006354476
0.006422284
0.006489422
0.006558018
0.006631462
0.006714408
0.006812636
0.006932626
0.007080831
0.007262582
0.00748076
0.007734309
0.008017211
0.008318726
0.008624955
0.008921604
0.009196223
0.009438623
0.009642311
0.009806311
0.009935161
0.01
0.01
0.01
0.01
0.01
0.01000001
0.01000005
0.009778775
0.009388338
0.008822526
0.008067981
0.007154422
0.006173101
0.005249584
0.004491799
0.00395581
0.003644232
0.00337256
0.002692655
0.002591919
0.002828615
0.003239021
0.003676408
0.004104824
0.004555701
0.005051993
0.005611596
0.006231075
0.006545585
0.006774859
0.006971698
0.007145001
0.007299708
0.007438132
0.00755776
0.007307063
0.007096135
0.006965925
0.006893589
0.006866805
0.006882989
0.00693776
0.007018241
0.007117742
0.007236092
0.00737114
0.007515632
0.007666088
0.007806834
0.007842971
0.007804363
0.007761263
0.007712452
0.007656396
0.007591624
0.007517029
0.007432049
0.007336738
0.007231686
0.007117981
0.006997264
0.006871703
0.006743874
0.006616576
0.006492691
0.006375242
0.006266731
0.00616909
0.006083679
0.006011321
0.005952359
0.005906722
0.005873996
0.00585348
0.005844217
0.005845004
0.005854392
0.005870697
0.005892019
0.005916246
0.005941077
0.005964068
0.005982739
0.005994685
0.005997757
0.005990187
0.005970786
0.00593897
0.005894953
0.00583951
0.005774185
0.005700893
0.005621723
0.005539171
0.005455955
0.005374819
0.005298537
0.00523008
0.005172807
0.005130583
0.005107743
0.005108885
0.005138529
0.005200692
0.00529845
0.005433566
0.005606237
0.005814986
0.006056705
0.00632684
0.006619679
0.006928739
0.00724717
0.007568177
0.00788539
0.008193171
0.008486805
0.008762585
0.009017754
0.009250689
0.009464071
0.009660764
0.009843359
0.01
0.01
0.01
0.01
0.01
0.01
0.01
0.01000002
0.009870625
0.009789437
0.009788902
0.009863564
0.009980975
0.01
0.01
0.01
0.01
0.01
0.01
0.01
0.01000001
0.01000004
0.01000006
0.01000004
0.01000001
0.01000001
0.01000003
0.01000003
0.01000001
0.01
0.01
0.01
0.01
0.01
0.01
0.009955008
0.009822597
0.009683929
0.009536987
0.009380575
0.009214484
0.009039455
0.008856883
0.008669938
0.008483563
0.008301856
0.008127852
0.007962901
0.007806667
0.007657606
0.00751379
0.007373558
0.00723598
0.00710112
0.00696977
0.006842977
0.006721667
0.006606446
0.006497556
0.006394946
0.00629838
0.006207568
0.006122265
0.006042345
0.005967837
0.005898919
0.005835905
0.005779204
0.00572928
0.005686603
0.005651622
0.005624735
0.005606279
0.005596525
0.005595681
0.005603887
0.005621229
0.005647754
0.005683496
0.005728394
0.005782252
0.005845522
0.00591892
0.00600261
0.006096243
0.006199434
0.006311694
0.006432393
0.006560764
0.006696047
0.00683778
0.006986101
0.00714164
0.007304833
0.007475181
0.00765078
0.007828147
0.008002318
0.00816723
0.00831614
0.008441867
0.008537252
0.008594889
0.008608237
0.008570333
0.008479209
0.008349403
1.996301e-05
3.074266e-05
6.086257e-05
0.0001841653
0.000296158
0.0004702464
0.0006031662
0.0007540617
0.0009320517
0.001106326
0.001310618
0.001575123
0.001877549
0.002238784
0.002709671
0.003615252
0.004045469
0.004510545
0.005002058
0.005518937
0.006066575
0.006635487
0.007210261
0.00777611
0.008316208
0.008819197
0.009303383
0.009834076
0.01
0.01
0.01
0.01
0.01
0.01
0.01
0.01
0.01
0.01
0.01
0.01
0.01
0.01
0.01
0.01
0.01
0.01
0.01
0.009996312
0.009561056
0.009093974
0.008630151
0.00819827
0.007837913
0.007477452
0.007200026
0.006974412
0.006791986
0.006650872
0.006547893
0.006480896
0.006448768
0.006451615
0.006491568
0.006570928
0.006689063
0.006840999
0.007021863
0.007222314
0.007434756
0.007653138
0.007880279
0.008137103
0.008452181
0.008822835
0.009262765
0.009788608
0.01
0.01
0.01
0.01
0.01
0.01
0.01
0.01
0.01
0.01
0.01
0.01
0.01
0.01
0.01
0.01
0.01
0.01
0.01
0.01
0.01
0.01
0.01
0.01
0.01
0.01
0.01
0.01
0.01
0.01
0.01
0.01
0.01
0.01
0.01
0.01
0.01
0.01
0.01
0.01
0.01
0.01
0.01
0.01
0.01
0.01
0.01
0.01
0.01
0.01
0.01
0.01
0.01
0.01
0.01
0.01
0.01
0.01
0.01
0.01
0.01
0.01
0.01
0.01
0.01
0.01
0.01
0.01
0.01
0.01
0.01
0.01
0.01
0.01
0.01
0.01
0.01
0.01
0.01
0.01
0.01
0.01
0.01
0.01
0.01
0.01
0.01
0.01
0.01
0.01
0.01
0.01
0.01
0.01
0.01
0.01
0.01
0.01
0.01
0.01
0.01
0.01
0.01
0.01
0.009951543
0.009883905
0.009809321
0.009726561
0.00963636
0.009540705
0.009441772
0.009341439
0.009241157
0.00914182
0.009043818
0.008947116
0.008851367
0.008756126
0.008660995
0.008565792
0.00847064
0.008376024
0.008282774
0.008191968
0.008104781
0.008022249
0.007945017
0.007873134
0.007805957
0.007742173
0.007679938
0.007617074
0.007551356
0.007480865
0.007404337
0.007321445
0.007232945
0.007140606
0.007046951
0.006954932
0.00686764
0.00678804
0.006718766
0.006661979
0.006619285
0.006591709
0.006579716
0.006583258
0.006601817
0.006634403
0.006679513
0.006734977
0.006797687
0.006864972
0.006937018
0.007011483
0.007086377
0.007160391
0.007233205
0.00730575
0.007380391
0.007460978
0.007552801
0.007662232
0.00779586
0.007959222
0.008155129
0.008382063
0.008633534
0.008899103
0.009165884
0.009420065
0.009651556
0.009856591
0.01
0.01000001
0.01000004
0.01000005
0.01000004
0.01000001
0.01000001
0.01000001
0.01000008
0.0100005
0.01000263
0.01000449
0.01000243
0.009927804
0.009414891
0.008709318
0.007836632
0.006877651
0.00594642
0.005154373
0.004571052
0.004210673
0.004047474
0.003589692
0.003240732
0.003317908
0.003597297
0.003983741
0.004455837
0.004981328
0.005537979
0.006100541
0.006474582
0.006710435
0.006916982
0.007102149
0.007268831
0.007236009
0.007073483
0.006950305
0.006884823
0.006881048
0.006926278
0.007004374
0.007112427
0.007256424
0.007421017
0.007598331
0.007784734
0.007980651
0.008172521
0.008241776
0.008234571
0.008228298
0.008222713
0.008216227
0.008206511
0.008190913
0.00816684
0.008132066
0.008084936
0.008024466
0.007950331
0.007862854
0.007763031
0.007652535
0.007533658
0.007409167
0.007282203
0.007156474
0.007035399
0.006921927
0.006818458
0.006726816
0.006648263
0.006583553
0.006532995
0.006496523
0.006473748
0.006463976
0.006466215
0.006479175
0.006501261
0.006530548
0.006564771
0.00660134
0.006637409
0.006669983
0.006696066
0.006712825
0.006717801
0.006709088
0.006685533
0.006646798
0.006593436
0.006526832
0.006449017
0.006362592
0.006270642
0.006176577
0.006084
0.005996696
0.005918693
0.005854321
0.005808206
0.00578515
0.00578988
0.005826693
0.005899054
0.006009207
0.006157857
0.006343983
0.006564814
0.006815944
0.007091619
0.007385109
0.007689167
0.007996501
0.008300234
0.008594298
0.008873709
0.009134703
0.009374715
0.009592205
0.009788564
0.009967029
0.01
0.01
0.01
0.01
0.01
0.01
0.01
0.01
0.01
0.01000001
0.01000001
0.01
0.01
0.01
0.01
0.01000001
0.01000003
0.01000004
0.01000003
0.01000001
0.01000001