/*--------------------------------*- C++ -*----------------------------------*\
| =========                 |                                                 |
| \\      /  F ield         | foam-extend: Open Source CFD                    |
|  \\    /   O peration     | Version:     3.1                                |
|   \\  /    A nd           | Web:         http://www.extend-project.de       |
|    \\/     M anipulation  |                                                 |
\*---------------------------------------------------------------------------*/
FoamFile
{
    version     2.0;
    format      ascii;
    class       volScalarField;
    location    "14";
    object      omega;
}
// * * * * * * * * * * * * * * * * * * * * * * * * * * * * * * * * * * * * * //

dimensions      [0 0 -1 0 0 0 0];

internalField   nonuniform List<scalar> 
119952
(
402.258
513.2456
487.9309
425.4962
382.0419
385.1698
391.3744
399.1377
407.8518
417.3099
427.3294
437.8209
448.737
460.0578
471.7925
483.969
496.6255
509.8334
523.8478
539.9434
452.2497
448.8893
451.6279
379.7182
370.2748
364.2596
359.0801
354.069
345.403
215.7322
820.9725
689.1717
583.4607
506.8279
449.4239
405.0944
369.5734
340.413
315.8605
288.5833
243.2456
211.2493
188.9179
172.3207
159.272
148.5161
139.3823
131.4629
124.5126
96.95291
93.14405
89.39535
85.72922
82.24471
79.00188
76.02424
73.30857
70.82866
68.56356
66.57065
64.67405
62.83725
61.07256
59.38297
57.77192
56.23163
54.73432
53.28276
52.94344
52.79357
52.25597
51.83835
51.57353
51.40986
51.31451
51.28202
51.29876
51.36208
51.45853
51.5744
51.69724
51.81813
51.93246
52.03976
52.13896
52.21826
52.23366
52.11729
51.75543
51.6438
51.28487
50.93098
50.91178
51.3128
52.00645
53.38067
56.20116
60.07513
61.38189
62.36897
63.04699
63.67229
64.30894
64.95997
65.62381
66.28678
66.9345
67.56006
68.16148
68.73733
69.28193
69.78302
70.22235
70.57956
70.83732
70.9862
71.02907
70.98788
70.9107
70.87229
70.96093
71.242
71.70317
72.2307
72.67467
72.95057
73.04906
72.97608
72.71854
72.25813
71.587
70.7187
69.69569
68.56675
67.34812
66.00395
64.53725
62.99893
61.4399
59.91245
58.4488
57.07725
55.80894
54.641
53.55897
52.52916
51.52323
50.67692
49.91809
49.18104
48.43639
47.67415
46.89314
46.10011
45.30354
44.50773
43.72084
42.95203
42.21116
41.50812
40.85322
40.25647
39.72737
39.2748
38.90669
38.62959
38.44825
38.3655
38.3823
38.49814
38.71138
39.01983
39.43057
39.95916
40.61551
41.41628
42.48069
43.9973
45.88083
48.18865
51.13497
55.18349
62.09622
78.60582
110.0195
137.5128
148.9032
144.5894
122.4823
95.72706
75.17334
62.42572
55.53845
52.27062
51.02285
50.6825
50.43404
55.69665
65.17318
69.88114
70.20897
68.35018
66.26047
64.42644
62.80538
61.40917
60.3227
59.67547
59.51598
59.37303
59.20965
59.04695
58.9085
58.81303
58.77337
58.80146
58.90547
59.08979
59.35662
59.7075
60.15111
60.71179
61.40286
62.26354
63.43516
64.94334
66.63868
68.47118
70.39206
72.358
74.28855
76.05454
76.56395
75.97107
75.46103
74.93249
74.3508
73.68687
72.9287
72.07824
71.14697
70.15382
69.1206
68.06908
67.01929
65.98929
64.99467
64.04881
63.16302
62.34633
61.60504
60.94241
60.35801
59.84698
59.39991
59.00375
58.64252
58.29736
57.94687
57.56787
57.13643
56.63137
56.03546
55.3368
54.53074
53.62085
52.62222
43.11525
41.9214
40.60244
39.28218
38.05875
36.96716
36.02455
35.23234
34.58129
34.04947
33.60931
33.22981
32.88509
32.56332
32.26883
32.0184
31.81065
31.62599
31.45572
31.29562
31.14449
31.00504
30.88514
30.79858
30.73608
30.66635
30.56508
30.44768
30.33375
30.22815
30.13204
30.04539
29.96745
29.89693
29.83235
29.77232
29.71541
29.65991
29.6039
29.54538
29.48241
29.41327
29.3363
29.25
29.1551
29.05625
28.95283
28.83781
28.71369
28.58444
28.45201
28.31759
28.18287
28.05349
27.94995
27.80053
27.6091
27.39764
27.18577
26.98818
26.81305
26.66288
26.53697
26.43415
26.35336
26.29529
26.26483
26.2701
26.32065
26.42605
26.59491
26.83463
27.15315
27.56298
28.05178
28.59098
29.14623
29.6816
30.16738
30.58748
30.94178
31.24058
31.49522
31.71169
31.88554
32.00635
32.06348
32.05085
31.97196
31.84337
31.67177
31.45708
31.20156
30.90787
30.57605
30.20553
29.80574
29.38351
28.94324
28.48998
28.02821
27.56217
27.09584
26.63277
26.17616
25.72847
25.2915
24.8666
24.4546
24.05582
23.67008
23.29696
22.93595
22.58647
22.24803
21.9203
21.60321
21.29722
21.00365
20.72484
20.46394
20.22427
20.00839
19.81715
19.65053
19.51142
19.40914
19.35957
19.38144
19.49928
19.75509
20.20922
20.90055
21.78078
22.82068
24.05848
25.46543
26.89767
28.98678
765.78
630.0505
560.016
511.9471
472.4939
438.1309
407.7513
380.8096
355.8089
297.2895
236.1427
199.6432
176.4674
160.7071
149.2685
140.4492
133.2907
127.2186
100.5477
96.0732
91.7638
87.7155
84.01098
80.68159
77.70825
75.05434
72.67582
70.51443
68.61334
66.83894
65.09165
63.38339
61.73016
60.14802
58.64666
57.2271
55.88164
54.90466
54.21146
53.39355
52.49408
51.55478
50.60247
49.65772
48.73444
47.83837
46.97484
46.14139
45.327
44.53499
43.76465
43.01495
42.28837
41.58804
40.91612
40.28314
36.11316
35.61606
35.13842
34.67866
34.23613
33.81091
33.40392
33.01501
32.64271
32.28171
31.92851
31.58348
31.2449
30.91195
30.58601
30.27059
29.97024
29.69497
29.45976
29.2576
29.04953
28.84825
28.67282
28.51841
28.37322
28.24265
28.13208
28.04096
27.96615
27.90262
27.8453
27.79033
27.73552
27.68016
27.62435
27.56774
27.50886
27.44566
27.37791
27.30628
27.23788
27.17156
27.13827
27.1856
27.29992
27.47597
27.7281
28.04328
28.34009
28.6132
28.92977
29.27251
29.64258
30.03907
30.45226
30.87245
31.29021
31.6978
32.09098
32.46861
32.83149
33.18112
33.5189
33.84556
34.16063
34.462
34.74578
35.00696
35.24088
35.44468
35.61798
35.76235
35.87947
35.97063
36.04061
36.10293
36.17937
36.2941
36.46496
36.69753
36.98376
37.30209
37.61968
37.89653
38.08995
38.16102
38.08621
37.8614
37.49347
36.99799
36.3967
35.71511
34.98039
34.21905
33.45457
32.70705
31.99441
31.3329
30.71681
30.13557
29.58596
29.06224
28.55712
28.06272
27.5716
27.07719
26.57431
26.05947
25.53114
24.99002
24.43915
23.88381
23.33134
22.79083
22.27252
21.78701
21.34443
20.95373
20.62206
20.35401
20.15089
20.01029
19.92649
19.89141
19.89599
19.93338
20.00161
20.10556
20.26417
20.53179
20.96313
21.64619
22.76809
24.77979
28.49019
34.01314
40.90065
48.71262
57.11867
64.2525
68.54761
69.29548
65.65583
58.69055
51.1077
44.65673
39.77167
36.17444
34.84032
32.83597
31.22483
29.69681
28.1322
26.6298
25.34459
24.3583
23.66385
23.21464
22.9515
22.77527
22.6052
22.40976
22.17549
21.90205
21.59921
21.27904
20.95478
20.63702
20.33478
20.05634
19.80816
19.59396
19.41539
19.27415
19.16826
19.09582
19.05561
19.04597
19.06437
19.10841
19.17547
19.26128
19.35812
19.45729
19.561
19.66939
19.7717
19.85885
19.9234
19.95928
19.96174
19.92785
19.85719
19.75284
19.6235
19.4767
19.31947
19.15887
19.0018
18.8546
18.72289
18.61156
18.52476
18.46586
18.43733
18.44067
18.47622
18.54291
18.63816
18.75872
18.90184
19.05808
19.21482
19.35824
19.47439
19.5502
19.57617
19.55043
17.95418
17.83961
17.72372
17.61314
17.5177
17.44705
17.40815
17.40358
17.42963
17.4767
17.53112
17.57762
17.6015
17.59064
17.53706
17.43765
17.29393
17.11109
16.89668
16.65937
16.40796
16.15087
15.89582
15.64977
15.41901
15.20937
15.02583
14.86544
14.7214
14.59609
14.48987
14.40181
14.33024
14.27307
14.22803
14.19275
14.16473
14.14134
14.1199
14.09786
14.07292
14.04317
14.0073
13.96306
13.90736
13.8392
13.75882
13.66901
13.57467
13.47739
13.37793
13.27694
13.17526
13.07421
12.97475
12.87672
12.78075
12.68738
12.59718
12.51058
12.42764
12.34808
12.27154
12.19787
12.12746
12.06134
12.00124
11.94937
11.90826
11.88056
11.869
11.87628
11.90525
11.95915
12.03556
12.12597
12.22402
12.32249
12.41491
12.49744
12.56973
12.63393
12.69281
12.7481
12.7996
12.84518
12.8816
12.90554
12.9145
12.90712
12.88309
12.84294
12.78777
12.719
12.63812
12.54645
12.44519
12.33586
12.22016
12.09756
11.96746
11.82964
11.68416
11.53126
11.37113
11.20477
11.03403
10.86066
10.68627
10.51227
10.33993
10.17041
10.00471
9.843674
9.688009
9.53832
9.395166
9.259181
9.131138
9.01196
8.902583
8.803735
8.715731
8.638455
8.571819
8.516211
8.473016
8.444587
8.434604
8.447883
8.490105
8.56685
8.683469
8.847269
9.069242
9.362951
9.742803
10.22653
10.82924
622.639
550.7821
492.0388
448.8325
415.9919
390.6791
371.0501
356.349
346.2666
332.5447
186.5717
174.2209
163.4344
154.0141
146.2164
141.4849
138.9132
136.3972
128.96
85.14481
83.34553
82.73432
82.05755
81.34995
80.6326
79.8799
79.07678
78.17846
76.84036
74.12965
71.70238
69.96071
68.65936
67.57761
66.59799
65.66556
64.7552
63.85322
63.88504
63.14426
62.07668
60.89602
59.71299
58.5754
57.5004
56.48883
55.53603
54.64273
53.7819
52.93308
52.09059
51.25163
50.42074
49.60453
48.80841
48.04441
44.27264
43.6286
43.0147
42.42346
41.84985
41.28983
40.74116
40.20268
39.67441
39.15546
38.64383
38.14188
37.65215
37.17429
36.70798
36.2531
35.80861
35.37293
34.94418
34.51958
34.09897
33.68548
33.28102
32.88725
32.50626
32.1392
31.78515
31.44106
31.10238
30.7669
30.43399
30.10344
29.77729
29.45904
29.1517
28.85708
28.57348
28.28951
28.05818
27.82289
27.58457
27.3446
27.10598
26.87285
26.64892
26.43573
26.23202
26.03451
25.84015
25.64656
25.45276
25.25997
25.07156
24.89143
24.72387
24.57183
24.43704
24.31589
24.19764
24.07739
23.95907
23.84556
23.73703
23.63468
23.54451
23.46655
23.39847
23.33583
23.27399
23.20991
23.14249
23.07256
23.00182
22.93222
22.86497
22.80083
22.73946
22.68117
22.63031
22.59008
22.56458
22.56652
22.59982
22.66148
22.74413
22.84744
22.95363
23.06587
23.19827
23.35812
23.54527
23.75736
23.98784
24.22769
24.46872
24.705
24.93335
25.15299
25.36465
25.56984
25.77037
25.96783
26.16306
26.35548
26.54275
26.72084
26.88465
27.02883
27.14846
27.23965
27.29997
27.32909
27.33066
27.3139
27.29322
27.28576
27.30778
27.37162
27.48376
27.64314
27.84043
28.05884
28.27552
28.46447
28.60205
28.67008
28.65538
28.54978
28.35033
28.05925
27.68403
27.23669
26.73292
26.19027
25.62719
25.06214
24.51639
24.00261
23.51683
23.06213
22.63976
22.24809
21.88326
21.53979
21.21133
20.89119
20.57303
20.25164
19.92356
19.58769
19.24568
18.90229
18.56528
18.24474
17.95214
17.69926
17.49673
17.35224
17.26873
17.2433
17.26703
17.32608
17.40436
17.48763
17.56756
17.64361
17.72434
17.83729
18.02363
18.32155
18.81205
19.6716
21.15965
23.45589
26.66024
30.90482
36.20387
41.93112
47.24175
51.58078
54.36308
54.76898
52.2585
47.78075
42.80217
38.29855
34.63744
31.53928
28.95096
26.84118
25.18385
23.94865
23.08406
22.52913
22.21989
22.08465
22.05522
22.03457
21.94364
21.74943
21.44487
21.03909
20.55233
20.00906
19.43435
18.85133
18.27987
17.73521
17.22765
16.76336
16.3453
15.97439
15.65025
15.37103
15.13456
14.93794
14.77776
14.65042
14.55206
14.47881
14.42718
14.39491
14.38056
14.38096
14.39143
14.4068
14.42158
14.43014
14.42721
14.40827
14.37184
14.31598
14.24007
14.14505
14.03328
13.90831
13.7746
13.63718
13.50125
13.37201
13.25429
13.15235
13.06965
13.00889
12.97205
12.96048
12.97478
13.0147
13.07891
13.16509
13.26955
13.38801
13.51475
13.64475
13.76988
13.88255
14.02511
14.14731
14.24788
14.33307
14.41096
14.48815
14.56887
14.65489
14.74524
14.83601
14.92021
14.98867
15.03127
15.03849
15.00288
14.92025
14.79029
14.6164
14.40515
14.16517
13.90612
13.63781
13.36935
13.10897
12.86373
12.63947
12.44095
12.27224
12.12925
12.00889
11.90946
11.82897
11.7651
11.71538
11.67727
11.64828
11.62606
11.60811
11.59145
11.57357
11.55186
11.523
11.48475
11.43603
11.3772
11.30882
11.23202
11.14905
11.06221
10.9725
10.88021
10.78548
10.6887
10.59047
10.4913
10.39181
10.29243
10.19363
10.09619
10.00133
9.909597
9.821263
9.73657
9.655691
9.578843
9.506386
9.438968
9.377511
9.32313
9.277079
9.240682
9.215273
9.202133
9.202465
9.217357
9.242877
9.27451
9.307471
9.337397
9.361562
9.379526
9.392726
9.403246
9.412751
9.421769
9.429483
9.434107
9.433579
9.42614
9.410676
9.38677
9.354589
9.314673
9.26773
9.214416
9.155273
9.090681
9.020882
8.945998
8.866104
8.781215
8.691504
8.597364
8.499492
8.39908
8.296712
8.19233
8.086004
7.977873
7.868128
7.757606
7.647304
7.538173
7.431029
7.326713
7.225987
7.129569
7.038197
6.9526
6.873596
6.801986
6.738338
6.682874
6.635429
6.595759
6.563947
6.540617
6.526958
6.524693
6.535945
6.563008
6.608225
6.674076
6.764031
6.882417
7.036035
7.231013
7.477176
7.772616
357.4947
260.1187
371.1344
168.5366
132.4125
97.66503
84.72638
73.85269
64.83135
60.50122
58.72399
57.77234
56.91017
56.1662
55.44185
54.7977
54.21411
53.71608
53.36462
53.09246
52.86442
52.75838
52.93424
53.2837
53.67771
54.10839
54.57992
55.09117
55.6229
56.12967
56.47925
55.25691
55.82045
56.3379
56.71662
56.97494
57.11441
57.12927
57.0158
56.78292
56.44876
56.00468
55.46748
54.86279
54.21035
53.52272
52.80833
52.07246
51.31909
50.55203
49.77831
49.0037
48.22577
47.44726
46.67293
45.91006
45.16432
44.44028
43.73625
43.04893
42.37477
41.71256
41.06259
40.42641
39.80729
39.20726
38.62969
38.06483
37.56011
37.06623
36.58451
36.11256
35.64866
35.19248
34.74434
34.30467
33.87336
33.45011
33.03491
32.62897
32.2337
31.85011
31.4787
31.11915
30.76989
30.42804
30.09021
29.75383
29.41801
29.0839
28.75454
28.43413
28.12676
27.83468
27.55678
27.28899
27.02615
26.76404
26.50082
26.23732
25.97756
25.72676
25.48993
25.26884
25.06215
24.86424
24.67223
24.48231
24.29281
24.10496
23.9229
23.75165
23.59488
23.45313
23.32324
23.20009
23.07867
22.95575
22.83097
22.70687
22.58792
22.47835
22.38052
22.29433
22.21781
22.1469
22.07426
21.9946
21.90928
21.82246
21.7377
21.65815
21.58781
21.52726
21.47317
21.41988
21.3624
21.29839
21.22818
21.15427
21.08019
21.00922
20.94347
20.88363
20.8292
20.7797
20.73525
20.69668
20.66617
20.64804
20.64395
20.65214
20.66857
20.69119
20.71854
20.75349
20.80266
20.87173
20.9626
21.07313
21.19715
21.32647
21.45386
21.57482
21.68777
21.79331
21.89321
21.98972
22.08515
22.1815
22.28004
22.38078
22.48209
22.58069
22.67198
22.75066
22.81142
22.84966
22.86214
22.84765
22.80805
22.74883
22.67884
22.60932
22.5524
22.5194
22.51929
22.55702
22.6325
22.74042
22.87056
23.00912
23.14116
23.25213
23.32827
23.35718
23.32856
23.23478
23.07168
22.83907
22.54097
22.18542
21.78394
21.35061
20.90117
20.45248
20.02082
19.60755
19.21824
18.85704
18.52521
18.22163
17.94333
17.68607
17.44495
17.21518
16.99278
16.77534
16.56289
16.35847
16.16858
16.00296
15.87391
15.7948
15.77762
15.83017
15.95334
16.13945
16.37151
16.62448
16.86957
17.08198
17.24806
17.36588
17.44329
17.50388
17.57444
17.67175
17.83634
18.14762
18.72095
19.68992
21.19816
23.41467
26.46439
30.25192
34.45253
38.63582
42.43121
45.49971
47.16152
46.72034
44.3255
40.85064
37.20148
33.85564
30.99613
28.68397
26.92858
25.69531
24.90994
24.47169
24.27976
24.23479
24.2474
24.23162
24.11117
23.85381
23.45451
22.92379
22.28056
21.55227
20.77067
19.9662
19.16643
18.39398
17.66522
16.99073
16.37635
15.82489
15.3364
14.9091
14.53903
14.2212
13.95077
13.72293
13.53303
13.37676
13.25039
13.15089
13.07576
13.02211
12.98629
12.96418
12.95129
12.94275
12.93363
12.9193
12.89552
12.85856
12.80581
12.73596
12.64901
12.54631
12.43032
12.30446
12.1728
12.03983
11.91013
11.78809
11.67769
11.58234
11.50488
11.44752
11.41191
11.39903
11.40929
11.44232
11.49727
11.57237
11.66578
11.77428
11.89609
12.02695
12.16708
12.31234
12.45984
12.60843
12.75781
12.90747
13.05617
13.20181
13.34131
13.47039
13.58351
13.67394
13.73444
13.75805
13.73915
13.67434
13.56316
13.40824
13.2151
12.99147
12.74649
12.48975
12.23058
11.97737
11.73731
11.51615
11.31823
11.14663
11.00171
10.87986
10.77883
10.69628
10.62973
10.57642
10.53338
10.49786
10.46718
10.43865
10.40995
10.37879
10.34259
10.2991
10.247
10.18668
10.12021
10.04929
9.974616
9.896732
9.815416
9.731376
9.644907
9.555987
9.46479
9.371802
9.277638
9.182709
9.087125
8.990947
8.89452
8.798379
8.703507
8.611148
8.522397
8.437933
8.35801
8.282672
8.212021
8.146455
8.08636
8.032188
7.984599
7.944355
7.912209
7.888787
7.874505
7.868253
7.866838
7.867108
7.866117
7.861973
7.854251
7.843823
7.832163
7.8206
7.809751
7.799225
7.78782
7.77404
7.756568
7.734529
7.707568
7.675766
7.639487
7.599218
7.555426
7.508476
7.458585
7.405834
7.350191
7.291563
7.22986
7.165038
7.097149
7.02636
6.952949
6.877257
6.799711
6.720853
6.641374
6.562093
6.483216
6.404808
6.327015
6.25046
6.175912
6.104093
6.035708
5.971446
5.91201
5.858111
5.810426
5.769482
5.735529
5.70852
5.688311
5.674959
5.668829
5.670556
5.680935
5.700818
5.730975
5.77213
5.825054
5.890874
5.971266
6.069493
6.188121
6.332281
6.49673
317.271
213.7793
161.6385
144.2828
117.5857
98.74211
85.10329
79.82588
73.90116
70.46052
67.48924
63.4897
59.47508
55.6736
52.19974
48.3816
42.45117
41.08501
40.08927
39.55395
39.42904
39.57538
39.84155
40.17291
40.56279
41.01365
41.55418
42.16293
42.81723
43.50794
44.23113
44.98172
45.7553
46.55235
47.36819
48.20066
49.05216
49.94158
50.88417
51.84724
52.91753
53.91689
54.49137
55.0048
55.38856
55.62268
55.69847
55.61358
55.37438
54.99219
54.48209
53.86639
53.16127
52.38254
51.54924
50.68096
49.79426
48.90113
48.00852
47.11895
46.23118
45.34204
44.4525
43.56483
42.68779
41.83198
41.0124
40.2364
39.5066
38.81889
38.16527
37.53644
36.92486
36.32655
35.74113
35.17151
34.62174
34.0963
33.59585
33.12079
32.6697
32.23947
31.8247
31.42088
31.0255
30.63749
30.25652
29.88226
29.5146
29.15398
28.80196
28.46131
28.13457
27.82278
27.5254
27.23996
26.96205
26.68653
26.40923
26.12819
25.84467
25.56364
25.29244
25.03819
24.80475
24.59057
24.38962
24.19429
23.99831
23.79906
23.59858
23.40309
23.22063
23.05835
22.91911
22.7994
22.69166
22.58856
22.48562
22.38234
22.28234
22.19232
22.11904
22.06554
22.02857
22.00014
21.97154
21.93633
21.89268
21.84353
21.79519
21.75464
21.72601
21.70875
21.6981
21.68678
21.66677
21.63185
21.58049
21.51696
21.44901
21.38444
21.3284
21.28149
21.24033
21.19908
21.15109
21.0919
21.02084
20.94075
20.85669
20.7742
20.6977
20.6296
20.57002
20.51727
20.46896
20.42303
20.37872
20.33741
20.30159
20.27241
20.24861
20.22708
20.205
20.18198
20.16166
20.15024
20.15322
20.17298
20.20743
20.25013
20.29272
20.32844
20.35424
20.37046
20.37951
20.38448
20.38848
20.39428
20.40412
20.41941
20.44033
20.46559
20.49233
20.51643
20.53301
20.53708
20.52428
20.49142
20.4371
20.36212
20.26975
20.16571
20.05771
19.95476
19.8661
19.79997
19.7623
19.75589
19.77993
19.83015
19.89943
19.97885
20.05854
20.12808
20.17703
20.19541
20.17413
20.10569
19.98481
19.80919
19.58001
19.30204
18.98336
18.63468
18.2685
17.8987
17.53886
17.19234
16.86514
16.56128
16.28252
16.02876
15.79849
15.58947
15.39934
15.2264
15.07032
14.93323
14.82059
14.74185
14.71028
14.74194
14.85304
15.05629
15.35731
15.75164
16.22195
16.73632
17.24894
17.70805
18.07186
18.32187
18.4632
18.51612
18.51742
18.48784
18.43669
18.38641
18.38131
18.49145
18.81039
19.44417
20.51581
22.14605
24.40186
27.24736
30.50416
33.8944
37.1127
39.86888
41.73125
42.19425
41.10575
38.8926
36.2331
33.63103
31.37091
29.59585
28.34067
27.55778
27.14405
26.97485
26.92594
26.88517
26.77839
26.55324
26.18813
25.6756
25.0192
24.23544
23.35324
22.40493
21.42215
20.43535
19.47176
18.55232
17.69183
16.90023
16.18296
15.54157
14.9751
14.4793
14.04799
13.67492
13.35401
13.07955
12.84647
12.65036
12.48754
12.35488
12.24936
12.16771
12.10633
12.06133
12.02843
12.00311
11.98067
11.95638
11.92597
11.88585
11.83332
11.76673
11.68561
11.59061
11.48347
11.36685
11.24409
11.11903
10.99563
10.87775
10.76898
10.67248
10.59092
10.52645
10.48071
10.45486
10.44956
10.46513
10.50135
10.55785
10.63375
10.72835
10.8401
10.9681
11.11114
11.26758
11.43567
11.61359
11.79885
11.98807
12.17684
12.35979
12.53076
12.68296
12.80932
12.90295
12.95771
12.9689
12.9338
12.8522
12.72651
12.56168
12.36472
12.14405
11.90875
11.66776
11.42929
11.20037
10.98658
10.79206
10.61947
10.47007
10.3418
10.23241
10.13954
10.06043
9.992244
9.932384
9.878332
9.827585
9.777789
9.727124
9.673765
9.61634
9.554832
9.489476
9.420909
9.349996
9.27717
9.202366
9.125349
9.045973
8.964959
8.882576
8.798629
8.713068
8.626254
8.538731
8.450736
8.362036
8.272197
8.181036
8.088841
7.99696
7.907291
7.821553
7.740723
7.664883
7.593552
7.526141
7.462178
7.401553
7.344549
7.291705
7.243709
7.201298
7.165147
7.135749
7.112631
7.093643
7.076423
7.058832
7.039434
7.017787
6.994493
6.970754
6.947717
6.926005
6.905397
6.884932
6.863344
6.839507
6.812683
6.782577
6.749269
6.713077
6.674419
6.633706
6.591258
6.54727
6.501814
6.454852
6.406282
6.355977
6.303828
6.249774
6.193825
6.136078
6.076715
6.016011
5.954326
5.892094
5.829794
5.767936
5.707111
5.648
5.590907
5.536023
5.483812
5.434927
5.389984
5.349586
5.314318
5.284733
5.261311
5.244383
5.234093
5.230471
5.233578
5.243547
5.260532
5.284611
5.315723
5.353659
5.398131
5.449018
5.506535
5.571368
5.645273
5.729237
5.826688
5.932707
161.2141
119.0041
182.8693
89.96144
77.18864
66.26404
63.08702
60.87275
58.4254
57.51995
56.28971
54.46565
52.76028
50.91692
48.70947
44.20027
43.204
42.26684
41.3555
40.47429
39.57734
38.71342
37.94004
37.29362
36.79937
36.46292
36.20526
35.9492
35.88188
36.03071
36.37856
36.86719
37.43113
38.04104
38.694
39.40791
40.15987
40.94019
41.74462
42.56998
43.41315
44.26862
45.12919
46.00374
46.90312
47.82388
48.75908
49.72535
50.76104
51.68523
52.50738
53.16654
53.58317
53.82815
53.84847
53.65545
53.27041
52.7152
52.01315
51.18723
50.25943
49.25081
48.18205
47.07391
45.94842
44.82883
43.73583
42.68491
41.68304
40.72739
39.8077
38.91074
38.0267
37.16551
36.33656
35.54868
34.81415
34.14068
33.52672
32.96904
32.45724
31.97666
31.51318
31.05697
30.60408
30.15613
29.71877
29.29922
28.90368
28.53462
28.19059
27.86732
27.55924
27.26096
26.96822
26.67823
26.38951
26.10122
25.81325
25.52655
25.24405
24.97086
24.71213
24.47089
24.24714
24.03755
23.83633
23.63631
23.43144
23.2191
23.00179
22.78707
22.5857
22.40839
22.26105
22.14092
22.03883
21.94483
21.85274
21.76218
21.67865
21.61233
21.57478
21.57244
21.60111
21.64798
21.69883
21.74483
21.78526
21.82678
21.88089
21.96029
22.07306
22.2155
22.36963
22.51118
22.62205
22.69574
22.73905
22.76884
22.80559
22.86458
22.94846
23.04547
23.13612
23.20217
23.22601
23.20394
23.146
23.07075
23.00022
22.95289
22.92524
22.90683
22.88159
22.83521
22.75962
22.65575
22.53142
22.39718
22.26377
22.13921
22.02756
21.92942
21.84306
21.76396
21.68798
21.61135
21.53243
21.45266
21.37499
21.301
21.22915
21.15597
21.07745
20.99302
20.90637
20.82373
20.75067
20.68971
20.63878
20.59099
20.53735
20.47165
20.39276
20.30369
20.20911
20.1136
20.02105
19.93451
19.85621
19.78739
19.72816
19.67717
19.63168
19.58776
19.54073
19.48589
19.41919
19.33773
19.24019
19.12696
19.00028
18.86418
18.72432
18.58754
18.46115
18.35196
18.26534
18.20447
18.16996
18.15991
18.17031
18.19555
18.22899
18.2633
18.29071
18.30331
18.29331
18.25342
18.17743
18.06085
17.90162
17.70055
17.4615
17.19108
16.89803
16.59257
16.28599
15.98814
15.70289
15.43501
15.1875
14.96183
14.75847
14.57742
14.41895
14.28448
14.17766
14.10565
14.08011
14.11776
14.23956
14.4684
14.82493
15.32136
15.95852
16.72645
17.5937
18.50006
19.36086
20.08229
20.59238
20.87439
20.96302
20.91178
20.78505
20.59901
20.36803
20.10832
19.84605
19.63341
19.53757
19.62865
19.98784
20.70953
21.8899
23.59614
25.80651
28.37655
31.08771
33.70335
35.98414
37.6683
38.42595
38.10284
36.90112
35.22941
33.48879
31.9686
30.81122
30.03814
29.59005
29.35641
29.21045
29.02958
28.7471
28.35464
27.84351
27.2104
26.45599
25.58975
24.63185
23.60763
22.54241
21.46238
20.39471
19.36201
18.38249
17.46962
16.63292
15.87634
15.19944
14.59946
14.07158
13.60966
13.20717
12.85779
12.55573
12.296
12.07433
11.88711
11.73108
11.60302
11.49966
11.41757
11.35309
11.30231
11.26099
11.22463
11.18896
11.15009
11.10466
11.05002
10.98446
10.90724
10.81866
10.71998
10.61333
10.5015
10.38769
10.2753
10.16768
10.06796
9.978903
9.902832
9.841614
9.796703
9.769164
9.759731
9.768839
9.796762
9.843627
9.909581
9.994681
10.09912
10.22298
10.36594
10.52732
10.70591
10.89961
11.10504
11.3174
11.53044
11.73674
11.92811
12.09612
12.23274
12.33101
12.38563
12.3935
12.35395
12.2689
12.14264
11.98148
11.79315
11.58612
11.3689
11.14942
10.93455
10.72983
10.5393
10.36558
10.20999
10.07176
9.949159
9.839879
9.741383
9.651422
9.568022
9.489306
9.413611
9.339557
9.266068
9.19243
9.11855
9.044872
8.971625
8.898708
8.825582
8.751373
8.675506
8.597846
8.519066
8.439995
8.360755
8.281015
8.200607
8.119702
8.038578
7.957236
7.875211
7.791815
7.706667
7.620164
7.533742
7.449659
7.370129
7.296241
7.227642
7.163148
7.101473
7.041622
6.983269
6.926663
6.872401
6.821306
6.774282
6.732115
6.695174
6.663279
6.634992
6.608349
6.58153
6.553351
6.523468
6.492391
6.461244
6.431124
6.40274
6.376029
6.35008
6.323645
6.295623
6.265325
6.232514
6.197312
6.160053
6.121156
6.081025
6.039982
5.998241
5.955893
5.912933
5.869284
5.82484
5.779496
5.733175
5.685847
5.637547
5.588377
5.538517
5.488221
5.437816
5.387691
5.338293
5.290119
5.243713
5.199657
5.158598
5.121001
5.087165
5.057508
5.032519
5.012635
4.998263
4.989808
4.987675
4.992231
5.003719
5.022191
5.047462
5.079099
5.116438
5.158637
5.204804
5.254104
5.306067
5.360695
5.41855
5.480862
5.548575
5.624795
5.705392
65.59443
49.02889
47.45456
45.11944
44.14582
42.9538
42.0161
41.23081
40.57989
39.53582
36.91437
36.82187
36.74769
36.68489
36.60079
36.4829
36.36779
36.28469
36.24409
36.23232
36.10424
35.73547
35.36839
35.009
34.66487
34.34082
34.06088
33.84531
33.70316
33.63891
33.64657
33.71673
33.86917
34.13562
34.52949
35.03943
35.63109
36.268
36.93653
37.6567
38.41208
39.19819
40.01317
40.85347
41.71738
42.60624
43.51731
44.42322
45.34383
46.32758
47.33004
48.30527
49.22327
50.02379
50.6522
51.06833
51.24661
51.17709
50.86724
50.33002
49.59068
48.68093
47.63636
46.49233
45.27968
44.023
42.74001
41.44702
40.15977
38.89711
37.68334
36.54232
35.494
34.54715
33.6938
32.91342
32.18398
31.48647
30.81404
30.16828
29.55654
28.98554
28.46739
28.01069
27.61428
27.2666
26.9496
26.64508
26.3397
26.02708
25.70753
25.38699
25.07484
24.78055
24.5098
24.26297
24.03672
23.82599
23.62507
23.42838
23.23163
23.03208
22.82801
22.61832
22.4036
22.18829
21.9805
21.78826
21.61676
21.4672
21.33616
21.2171
21.10267
20.98802
20.87364
20.76648
20.67958
20.62901
20.62614
20.66981
20.74836
20.84171
20.93649
21.03586
21.15709
21.32484
21.56237
21.88019
22.26438
22.67519
23.06552
23.40331
23.68181
23.91933
24.14878
24.40795
24.72768
25.11733
25.5513
25.97318
26.32525
26.57577
26.72244
26.79236
26.83268
26.8945
27.01089
27.18194
27.37468
27.54287
27.6507
27.66995
27.60225
27.47523
27.33592
27.23574
27.18546
27.17512
27.17761
27.14898
27.05701
26.89436
26.67567
26.42611
26.17115
25.93007
25.71256
25.51878
25.34241
25.1749
25.00441
24.82879
24.64608
24.45704
24.26646
24.07887
23.89671
23.71798
23.54119
23.35905
23.17164
22.98192
22.79402
22.61061
22.43221
22.25704
22.07899
21.88984
21.68537
21.46764
21.24307
21.01892
20.80099
20.59332
20.39852
20.2182
20.0526
19.90226
19.76499
19.63799
19.51735
19.39849
19.2768
19.14845
19.01083
18.86282
18.7048
18.53859
18.36729
18.19519
18.02746
17.86967
17.72708
17.60387
17.50259
17.42393
17.36674
17.32832
17.30487
17.29175
17.2838
17.27544
17.26081
17.23391
17.18878
17.11993
17.0228
16.89442
16.73389
16.54277
16.32501
16.08658
15.83492
15.5783
15.32557
15.0831
14.85469
14.64346
14.45161
14.28085
14.13323
14.01201
13.92286
13.87539
13.88477
13.97287
14.16814
14.50313
15.01048
15.72069
16.63999
17.74982
19.02525
20.41341
21.81482
23.0924
24.09864
24.72911
24.98145
24.9409
24.71525
24.37267
23.92499
23.41941
22.8903
22.36052
21.86201
21.42694
21.09627
20.93192
21.00823
21.40862
22.21966
23.49082
25.1799
27.15662
29.24758
31.28228
33.08749
34.48038
35.25033
35.29219
34.72042
33.7934
32.78699
31.8945
31.20155
30.70479
30.34292
30.03246
29.68655
29.24375
28.71711
28.11571
27.44272
26.69433
25.86519
24.96011
23.99443
22.98167
21.93689
20.88278
19.84179
18.8349
17.87814
16.98323
16.15909
15.41034
14.73774
14.1389
13.60915
13.1426
12.73298
12.37425
12.06107
11.78883
11.55363
11.352
11.18073
11.03669
10.91679
10.81785
10.73658
10.66948
10.61265
10.56218
10.51425
10.46537
10.4125
10.35323
10.28597
10.20998
10.12544
10.03341
9.93567
9.834607
9.732975
9.633701
9.539661
9.453477
9.377387
9.313211
9.262388
9.225993
9.204775
9.199223
9.20971
9.236627
9.280522
9.342141
9.422452
9.522502
9.643209
9.785161
9.948363
10.13187
10.33343
10.54915
10.77345
10.99914
11.21775
11.42013
11.59712
11.74042
11.84331
11.90127
11.91227
11.87693
11.79828
11.68148
11.53327
11.36133
11.17358
10.97759
10.78005
10.58649
10.40102
10.22637
10.06401
9.913912
9.775296
9.646658
9.526458
9.413294
9.305931
9.203322
9.104716
9.009697
8.91814
8.830108
8.745712
8.664836
8.587016
8.511489
8.437268
8.363321
8.288784
8.213337
8.137435
8.061721
7.986384
7.911301
7.836435
7.761805
7.687326
7.612704
7.537375
7.460677
7.382213
7.302287
7.222336
7.144987
7.072926
7.007125
6.946503
6.889041
6.832888
6.776856
6.72057
6.664317
6.608856
6.555269
6.504801
6.45862
6.417474
6.38152
6.349512
6.319263
6.288666
6.256333
6.221828
6.185813
6.149657
6.114655
6.081724
6.05106
6.021733
5.992295
5.96152
5.9287
5.893665
5.856623
5.817974
5.778175
5.737654
5.696754
5.65571
5.614643
5.573579
5.532475
5.491251
5.449828
5.408145
5.366178
5.323948
5.281536
5.239083
5.196798
5.154959
5.113905
5.074039
5.035817
4.999751
4.966406
4.936386
4.910296
4.888717
4.872058
4.860541
4.854324
4.853598
4.858643
4.869911
4.887987
4.913352
4.946045
4.985453
5.030348
5.079206
5.130526
5.183057
5.235847
5.288424
5.340943
5.394243
5.449571
5.508467
5.574374
5.643086
89.51734
37.96987
31.7994
30.52412
29.8669
29.59128
29.61982
29.81886
30.14435
30.55888
30.90831
31.0729
31.23919
31.39189
31.53334
31.65633
31.76887
31.8721
31.95344
31.99086
31.95955
31.87577
31.79412
31.72241
31.66753
31.63551
31.63723
31.68154
31.76717
31.89519
32.06724
32.28674
32.56448
32.9086
33.32684
33.81413
34.35401
34.9378
35.60366
36.33178
37.11712
37.95904
38.84295
39.75305
40.68673
41.65489
42.6742
43.65217
44.63045
45.62109
46.56908
47.39921
48.05656
48.48773
48.66251
48.56674
48.20759
47.60573
46.75646
45.69836
44.47614
43.13676
41.7281
40.29485
38.87353
37.48775
36.14711
34.85469
33.61335
32.43215
31.33205
30.34628
29.48869
28.76043
28.14409
27.6113
27.13022
26.67195
26.21332
25.75047
25.29468
24.86416
24.479
24.15313
23.88774
23.66994
23.47792
23.28999
23.09132
22.87567
22.64397
22.4028
22.16271
21.93498
21.72736
21.54211
21.37749
21.22939
21.09235