/*--------------------------------*- C++ -*----------------------------------*\
| =========                 |                                                 |
| \\      /  F ield         | foam-extend: Open Source CFD                    |
|  \\    /   O peration     | Version:     3.1                                |
|   \\  /    A nd           | Web:         http://www.extend-project.de       |
|    \\/     M anipulation  |                                                 |
\*---------------------------------------------------------------------------*/
FoamFile
{
    version     2.0;
    format      ascii;
    class       volScalarField;
    location    "14";
    object      p;
}
// * * * * * * * * * * * * * * * * * * * * * * * * * * * * * * * * * * * * * //

dimensions      [1 -1 -2 0 0 0 0];

internalField   nonuniform List<scalar> 
119952
(
4969.333
3347.529
3127.302
3362.737
3611.747
3418.024
3366.409
3329.233
3317.803
3311.208
3312.984
3321.263
3335.282
3355.107
3380.273
3410.439
3445.016
3481.304
3507.004
3472.369
3877.964
3768.116
3759.095
4273.547
4332.196
4447.844
4570.443
4757.804
5158.354
7956.933
2805.62
2751.365
2750.483
2743.037
2736.773
2730.461
2727.246
2726.462
2727.058
2698.552
2671.355
2684.733
2674.939
2669.013
2663.891
2661.19
2660.492
2660.725
2662.096
2655.733
2653.749
2634.823
2632.481
2636.358
2640.544
2646.904
2655.051
2663.415
2680.665
2683.97
2691.989
2711.341
2730.846
2751.233
2774.238
2800.397
2838.959
2937.991
3128.187
3000.154
2955.199
3058.255
3111.864
3099.188
3062.275
3042.124
3033.39
3031.319
3035.831
3046.67
3063.146
3084.916
3111.92
3144.143
3181.235
3222.841
3270.497
3331.265
3426.918
3531.017
3611.599
3795.997
4033.114
4151.766
4247.787
4343.176
4359.409
4197.89
4242.918
4392.085
4499.329
4602.243
4703.242
4798.205
4888.961
4976.422
5060.976
5143.068
5222.983
5300.994
5377.366
5452.375
5526.283
5599.323
5671.626
5743.165
5813.746
5883.039
5950.591
6015.806
6077.939
6136.244
6190.434
6241.362
6291.125
6341.586
6392.739
6443.23
6491.644
6537.181
6579.558
6618.778
6654.831
6687.857
6718.2
6746.697
6774.692
6802.387
6829.19
6854.787
6879.026
6901.973
6923.574
6943.926
6963.082
6981.303
6999.904
7018.072
7035.036
7050.574
7065.615
7080.274
7094.528
7108.32
7121.593
7134.142
7145.845
7156.463
7165.753
7173.437
7179.262
7182.959
7184.264
7182.913
7178.654
7171.243
7160.468
7146.163
7128.238
7106.723
7081.83
7054.311
7024.534
6993.587
6963.82
6937.478
6917.26
6905.604
6905.387
6918.302
6946.505
6993.012
7061.451
7139.268
7136.977
7088.355
7114.133
7211.055
7210.727
7194.949
7184.771
7188.403
7195.212
7196.907
7189.07
7169.67
7138.738
7135.926
7081.121
7019.82
6950.683
6878.321
6808.556
6747.219
6699.378
6668.662
6657.112
6665.358
6691.689
6733.821
6788.192
6850.68
6917.218
6984.176
7048.827
7109.469
7165.073
7215.126
7259.487
7298.245
7331.661
7360.285
7384.484
7404.588
7420.99
7433.974
7443.976
7451.307
7456.14
7458.551
7458.406
7454.653
7447.704
7453.928
7456.489
7457.119
7456.274
7454.326
7451.479
7447.922
7443.765
7439.11
7434.035
7428.641
7423.005
7417.2
7411.296
7405.359
7399.45
7393.626
7387.934
7382.414
7377.091
7371.981
7367.087
7362.405
7357.919
7353.612
7349.452
7345.416
7341.468
7337.573
7333.698
7329.817
7325.905
7321.924
7318.22
7298.903
7282.598
7274.104
7269.066
7263.273
7257.719
7252.008
7245.84
7239.096
7231.687
7223.558
7214.627
7204.846
7194.194
7182.689
7170.422
7157.43
7143.924
7130.102
7116.204
7102.503
7089.296
7076.897
7065.656
7055.81
7047.732
7041.576
7037.623
7036.17
7037.271
7040.982
7047.293
7056.115
7067.285
7080.574
7095.694
7112.302
7129.998
7148.354
7166.928
7185.286
7203.042
7219.88
7235.559
7249.927
7262.433
7272.115
7279.58
7285.352
7289.31
7291.505
7292.117
7291.478
7290.664
7285.61
7279.171
7274.717
7269.042
7263.025
7257.028
7251.207
7245.749
7240.798
7236.436
7232.681
7229.527
7226.915
7224.777
7223.038
7221.63
7220.501
7219.618
7218.969
7218.612
7218.486
7218.636
7219.076
7219.81
7220.841
7222.179
7223.834
7225.791
7228.003
7230.421
7232.974
7235.593
7238.231
7240.857
7243.457
7246.03
7248.567
7251.061
7253.502
7255.88
7258.211
7260.477
7262.667
7264.791
7266.84
7268.794
7270.697
7272.554
7274.373
7276.169
7277.957
7279.746
7281.552
7283.39
7285.276
7287.223
7289.241
7291.339
7293.526
7295.806
7298.185
7300.666
7303.248
7305.931
7308.708
7311.573
7314.51
7317.501
7320.52
7323.542
7326.547
7329.527
7332.465
7335.302
7337.888
7339.984
7341.406
7341.954
7340.992
7337.628
7331.011
7321.57
7312.133
7324.37
7394.361
5296.472
5146.39
4967.902
4799.114
4636.098
4480.047
4331.639
4190.715
4057.334
3908.219
3786.22
3676.713
3572.293
3475.549
3386.724
3304.908
3230.91
3158.327
3052.816
3016.979
2955.691
2897.413
2851.829
2811.643
2775.127
2742.248
2711.414
2684.687
2664.14
2627.411
2604.984
2586.653
2568.649
2553.53
2539.694
2526.741
2516.591
2514.232
2487.055
2468.295
2460.165
2452.474
2444.365
2437.8
2431.752
2426.278
2421.118
2409.096
2405.203
2401.328
2395.587
2390.091
2386.273
2384.282
2384.537
2393.451
2312.741
2315.366
2321.568
2326.235
2329.218
2332.515
2337.853
2345.587
2355.053
2364.816
2377.845
2393.631
2409.631
2426.661
2446.933
2472.762
2506.828
2551.495
2602.799
2650.191
2670.962
2673.67
2689.862
2709.444
2718.03
2714.41
2706.098
2701.817
2704.479
2713.51
2727.819
2746.99
2771.206
2800.905
2836.707
2879.377
2930.287
2991.457
3065.534
3154.12
3258.317
3377.405
3512.123
3653.183
3777.299
3873.453
3941.974
3979.573
3998.991
4053.01
4140.657
4236.067
4333.01
4428.504
4520.236
4608.132
4693.205
4776.121
4857.065
4936.151
5013.606
5089.721
5164.769
5238.965
5312.421
5385.12
5456.913
5527.524
5596.577
5663.624
5728.179
5789.793
5848.186
5903.498
5956.448
6008.05
6059.047
6109.395
6158.437
6205.364
6249.683
6291.131
6329.631
6365.268
6398.15
6428.661
6457.475
6485.182
6511.903
6537.46
6561.795
6584.859
6606.677
6627.315
6646.905
6665.611
6683.671
6701.034
6717.932
6733.955
6749.264
6763.987
6778.263
6792.13
6805.522
6818.332
6830.393
6841.509
6851.449
6859.962
6866.775
6871.611
6874.187
6874.225
6871.457
6865.605
6856.399
6843.606
6827.047
6806.625
6782.377
6754.553
6723.739
6690.891
6657.585
6625.954
6598.823
6578.997
6568.926
6570.653
6585.623
6611.824
6649.049
6695.933
6731.407
6754.008
6767.421
6802.174
6845.642
6881.968
6883.5
6904.016
6915.065
6909.451
6903.846
6891.965
6870.04
6838.181
6861.672
6811.18
6744.741
6672.671
6597.675
6525.127
6461.396
6411.866
6379.563
6366.761
6374.215
6400.055
6442.058
6496.648
6559.675
6627.011
6694.66
6759.787
6820.969
6877.104
6927.684
6972.604
7011.987
7045.998
7075.144
7099.832
7120.441
7137.323
7150.823
7161.348
7169.205
7174.626
7177.778
7178.832
7178.29
7177.593
7178.879
7180.521
7180.75
7179.936
7178.146
7175.483
7172.086
7168.068
7163.541
7158.47
7153.102
7147.461
7141.621
7135.662
7129.659
7123.677
7117.774
7112.001
7106.401
7101.008
7095.844
7090.917
7086.224
7081.756
7077.495
7073.418
7069.484
7065.659
7061.892
7058.156
7054.396
7050.614
7046.75
7043.437
6981.405
6977.588
6969.755
6962.311
6956.415
6951.186
6945.697
6939.602
6932.895
6925.58
6917.565
6908.728
6898.99
6888.325
6876.754
6864.351
6851.222
6837.539
6823.513
6809.394
6795.458
6782.004
6769.342
6757.794
6747.656
6739.214
6732.819
6728.467
6726.507
6727.071
6730.187
6735.839
6743.935
6754.308
6766.736
6780.952
6796.629
6813.353
6830.726
6848.334
6865.676
6882.452
6898.405
6913.111
6926.303
6937.752
6947.261
6954.899
6960.708
6964.788
6967.286
6968.326
6968.026
6966.45
6963.832
6960.033
6955.386
6950.36
6945.273
6940.252
6935.414
6930.91
6926.867
6923.358
6920.378
6917.884
6915.821
6914.125
6912.742
6911.634
6910.781
6910.182
6909.853
6909.79
6910.132
6910.748
6911.666
6912.856
6914.293
6915.985
6917.951
6920.159
6922.553
6925.108
6927.779
6930.498
6933.222
6935.923
6938.586
6941.2
6943.755
6946.247
6948.669
6951.017
6953.295
6955.5
6957.62
6959.651
6961.64
6963.532
6965.375
6967.168
6968.925
6970.658
6972.402
6974.12
6975.874
6977.667
6979.51
6981.432
6983.428
6985.508
6987.679
6989.945
6992.307
6994.768
6997.324
6999.972
7002.705
7005.513
7008.387
7011.31
7014.262
7017.211
7020.153
7023.093
7025.918
7028.601
7031.003
7032.95
7034.264
7034.737
7034.379
7032.887
7030.818
7029.918
7032.296
7042.037
7056.528
2926.283
2982.376
3060.924
3157.267
3270.531
3399.861
3544.528
3704.225
3877.462
4059.729
4235.606
4435.817
4640.374
4848.954
5059.405
5267.762
5470.996
5665.15
5848.195
6003.823
6152.38
6281.417
6387.215
6467.646
6521.061
6546.121
6542.232
6509.638
6453.438
6368.765
6261.257
6133.712
5990.555
5834.987
5670.11
5498.721
5323.716
5147.953
4960.307
4785.88
4612.562
4443.55
4280.823
4124.732
3976.097
3835.814
3704.891
3582.251
3463.519
3355.979
3255.934
3162.299
3076.012
2996.476
2924.072
2867.233
2704.092
2648.371
2603.977
2561.247
2519.928
2481.569
2446.842
2415.415
2386.644
2359.258
2333.24
2310.599
2289.807
2270.219
2252.621
2237.522
2224.439
2212.581
2200.949
2188.677
2176.885
2165.237
2153.706
2143.229
2134.504
2127.447
2121.336
2115.272
2108.7
2102.477
2096.221
2089.407
2082.981
2077.901
2074.435
2072.687
2071.677
2071.234
2070.989
2073.179
2075.755
2076.747
2077.74
2080.39
2085.279
2092.827
2102.408
2113.756
2126.64
2140.308
2155.088
2171.928
2192.023
2216.756
2246.511
2280.27
2316.914
2354.749
2381.785
2393.272
2403.079
2417.641
2428.329
2430.529
2429.087
2429.679
2435.577
2446.753
2462.592
2482.928
2508.092
2538.892
2576.381
2621.782
2676.26
2740.953
2816.83
2905.363
3007.183
3118.348
3236.525
3359.623
3476.248
3574.289
3652.979
3716.347
3771.729
3834.648
3913.676
4004.211
4097.763
4190.139
4279.489
4365.534
4449.114
4530.88
4610.978
4689.484
4766.624
4842.706
4917.997
4992.667
5066.767
5140.216
5212.807
5284.219
5354.064
5421.919
5487.379
5550.109
5609.918
5666.852
5721.316
5773.974
5825.339
5875.427
5923.861
5970.178
6014.069
6055.374
6094.012
6129.987
6163.39
6194.429
6223.532
6251.206
6277.636
6302.749
6326.525
6348.991
6370.208
6390.262
6409.271
6427.34
6444.612
6461.265
6477.378
6492.959
6507.875
6522.272
6536.247
6549.831
6562.983
6575.592
6587.492
6598.478
6608.307
6616.71
6623.401
6628.079
6630.431
6630.146
6626.919
6620.434
6610.364
6596.413
6578.333
6555.935
6529.178
6498.281
6463.829
6426.825
6388.914
6352.584
6321.132
6297.989
6285.706
6285.342
6297.092
6319.284
6349.212
6385.024
6421.85
6449.062
6470.089
6505.473
6550.547
6593.197
6624.798
6633.716
6648.438
6675.931
6676.346
6659.652
6633.094
6594.344
6538.631
6476.281
6404.618
6325.939
6245.375
6169.447
6105.084
6057.345
6028.799
6021.505
6035.639
6069.189
6119.057
6181.007
6250.353
6322.16
6392.595
6459.663
6521.972
6578.515
6628.814
6672.837
6710.868
6743.432
6771.019
6794.215
6813.614
6829.69
6842.697
6852.867
6860.534
6866.025
6869.624
6871.681
6872.691
6873.279
6873.887
6874.315
6874.076
6872.961
6870.984
6868.241
6864.82
6860.824
6856.253
6851.244
6845.863
6840.182
6834.285
6828.25
6822.153
6816.065
6810.051
6804.168
6798.466
6792.981
6787.741
6782.759
6778.033
6773.557
6769.312
6765.277
6761.407
6757.681
6754.026
6750.436
6746.798
6743.171
6739.404
6735.998
6732.539
6727.385
6721.748
6716.518
6711.694
6706.865
6701.666
6695.89
6689.494
6682.454
6674.688
6666.08
6656.544
6646.042
6634.588
6622.239
6609.104
6595.342
6581.158
6566.797
6552.532
6538.66
6525.489
6513.335
6502.501
6493.285
6485.976
6480.746
6477.857
6477.406
6479.48
6484.081
6491.127
6500.434
6511.798
6524.997
6539.765
6555.687
6572.36
6589.437
6606.322
6622.658
6638.2
6652.592
6665.592
6676.931
6686.446
6694.137
6700.036
6704.309
6707.127
6708.554
6708.681
6707.636
6705.466
6702.301
6698.574
6694.536
6690.329
6686.116
6682.045
6678.279
6674.937
6672.093
6669.743
6667.82
6666.247
6664.955
6663.897
6663.06
6662.453
6662.101
6662.035
6662.272
6662.864
6663.809
6665.098
6666.622
6668.387
6670.404
6672.628
6675.032
6677.588
6680.305
6683.134
6685.986
6688.817
6691.615
6694.364
6697.047
6699.65
6702.166
6704.592
6706.927
6709.173
6711.329
6713.395
6715.375
6717.296
6719.15
6720.946
6722.69
6724.399
6726.091
6727.757
6729.471
6731.196
6732.953
6734.752
6736.653
6738.586
6740.61
6742.739
6744.963
6747.288
6749.707
6752.22
6754.817
6757.494
6760.239
6763.05
6765.915
6768.828
6771.721
6774.573
6777.518
6780.321
6782.914
6785.286
6787.273
6788.812
6789.811
6790.375
6790.431
6790.828
6791.967
6795.401
6802.604
6815.782
2708.564
2683.039
2656.379
2617.306
2594.788
2550.543
2550.835
2568.368
2599.702
2612.578
2609.108
2622.816
2658.505
2713.213
2786.319
2876.566
2982.77
3104.658
3241.355
3391.246
3554.719
3730.119
3914.415
4106.808
4305.261
4507.524
4711.276
4913.752
5112.889
5304.819
5486.158
5626.811
5781.996
5905.868
6006.675
6082.391
6130.552
6150.13
6141.038
6104.206
6041.401
5953.411
5842.19
5711.392
5565.21
5407.492
5241.619
5070.33
4895.797
4719.9
4544.197
4370.569
4199.986
4033.837
3874.061
3721.671
3577.584
3442.162
3315.343
3196.956
3086.354
2983.241
2887.491
2798.664
2716.34
2640.084
2569.495
2503.711
2439.67
2385.284
2340.057
2297.68
2257.26
2220.256
2187.016
2156.909
2128.918
2102.669
2078.351
2055.455
2034.136
2015.235
1998.969
1985.15
1973.15
1961.96
1950.862
1939.883
1928.361
1915.776
1903.624
1893.151
1884.723
1878.216
1872.617
1867.117
1861.288
1854.66
1847.39
1840.217
1833.712
1828.426
1824.296
1822.567
1822.388
1823.053
1823.82
1824.493
1824.812
1824.842
1825.281
1827.981
1833.364
1840.717
1850.395
1861.506
1873.329
1885.946
1899.713
1915.196
1933.114
1954.251
1978.767
2006.382
2036.45
2067.166
2092.078
2107.914
2119.272
2130.569
2139.932
2145.233
2148.393
2153.164
2162.067
2174.557
2191.147
2212.015
2237.519
2268.684
2306.847
2353.442
2409.623
2476.13
2553.381
2641.682
2740.168
2846.563
2958.56
3073.601
3185.48
3287.261
3376.965
3457.068
3530.544
3603.376
3682.88
3769.604
3859.079
3947.839
4034.295
4118.189
4200.062
4280.383
4359.302
4436.952
4513.608
4589.591
4665.158
4740.44
4815.428
4889.983
4963.841
5036.64
5107.96
5177.373
5244.481
5308.959
5370.604
5429.409
5485.613
5539.601
5591.664
5641.855
5690.025
5735.963
5779.52
5820.61
5859.189
5895.28
5928.961
5960.396
5989.896
6017.787
6044.204
6069.152
6092.666
6114.811
6135.657
6155.293
6173.826
6191.38
6208.106
6224.149
6239.62
6254.584
6269.033
6283.022
6296.671
6310.022
6323.02
6335.552
6347.448
6358.491
6368.426
6376.969
6383.816
6388.637
6391.077
6390.792
6387.437
6380.604
6369.848
6354.79
6335.104
6310.439
6280.592
6245.648
6206.119
6162.99
6118.016
6074.185
6035.653
6006.624
5989.938
5986.432
5995.454
6014.608
6041.303
6073.897
6108.523
6139.077
6169.15
6205.692
6246.246
6282.533
6310.989
6337.842
6367.795
6394.664
6411.148
6406.518
6379.903
6336.275
6279.663
6215.262
6141.54
6059.252
5974.124
5893.348
5824.555
5773.836
5744.035
5737.138
5753.39
5790.323
5844.733
5911.818
5985.697
6060.932
6134.567
6204.74
6269.579
6327.907
6379.372
6424.137
6462.599
6495.338
6522.947
6545.988
6564.993
6580.639
6593.443
6603.647
6611.57
6617.522
6621.774
6624.623
6626.411
6627.49
6628.161
6628.471
6628.196
6627.146
6625.302
6622.719
6619.458
6615.605
6611.208
6606.347
6601.08
6595.478
6589.622
6583.591
6577.462
6571.309
6565.201
6559.201
6553.367
6547.744
6542.365
6537.25
6532.407
6527.835
6523.521
6519.442
6515.568
6511.858
6508.272
6504.75
6501.273
6497.758
6494.262
6490.455
6486.436
6482.286
6477.805
6473.03
6468.123
6463.076
6457.704
6451.877
6445.51
6438.526
6430.823
6422.287
6412.821
6402.372
6390.938
6378.567
6365.358
6351.464
6337.086
6322.465
6307.876
6293.617
6280
6267.343
6255.958
6246.146
6238.183
6232.298
6228.712
6227.563
6228.97
6232.933
6239.383
6248.112
6258.888
6271.541
6285.797
6301.304
6317.753
6334.734
6351.607
6367.96
6383.472
6397.835
6410.909
6422.375
6432.032
6439.756
6445.592
6449.886
6452.825
6454.402
6454.655
6453.683
6451.657
6448.859
6445.532
6441.828
6437.889
6433.91
6430.102
6426.659
6423.724
6421.374
6419.576
6418.199
6417.113
6416.22
6415.474
6414.874
6414.444
6414.229
6414.282
6414.657
6415.41
6416.578
6418.165
6420.136
6422.369
6424.648
6426.93
6429.487
6432.235
6435.166
6438.175
6441.141
6444.066
6446.964
6449.818
6452.598
6455.281
6457.852
6460.307
6462.649
6464.883
6467.016
6469.055
6471.011
6472.888
6474.693
6476.438
6478.132
6479.791
6481.428
6483.054
6484.697
6486.366
6488.085
6489.874
6491.701
6493.641
6495.65
6497.769
6499.957
6502.261
6504.659
6507.155
6509.735
6512.392
6515.117
6517.909
6520.762
6523.665
6526.546
6529.422
6532.329
6535.2
6537.836
6540.303
6542.519
6544.442
6545.996
6547.397
6548.582
6550.249
6552.342
6556.44
6563.453
6576.573
2950.179
2920.82
2891.658
2838.013
2792.053
2712.053
2665.813
2619.571
2574.065
2529.349
2486.19
2445.816
2407.251
2372.476
2342.752
2317.987
2238.203
2231.183
2233.07
2239.855
2247.926
2262.557
2289.668
2332.361
2391.488
2465.644
2556.619
2664.19
2787.531
2925.815
3077.891
3242.367
3418.002
3603.392
3796.485
3995.166
4197.127
4400.807
4603.059
4800.333
4989.197
5166.52
5320.151
5466.072
5590.133
5690.81
5765.858
5813.336
5832.263
5822.438
5784.393
5719.579
5629.682
5516.936
5384.772
5237.474
5079.214
4913.709
4743.758
4571.352
4398.207
4224.958
4053.37
3885.232
3721.137
3562.478
3411.157
3268.191
3134.195
3009.925
2895.089
2788.644
2689.799
2598.002
2512.684
2433.185
2359.212
2290.072
2226.256
2167.978
2116.025
2070.537
2029.66
1992.278
1958.315
1927.496
1899.12
1872.406
1846.98
1822.69
1799.634
1778.68
1760.713
1745.789
1733.534
1722.964
1712.935
1702.623
1691.571
1679.445
1666.668
1654.608
1644.333
1635.886
1630.166
1625.506
1620.518
1614.566
1607.436
1599.542
1591.564
1583.324
1577.142
1574.101
1572.796
1573.39
1574.41
1575.026
1574.991
1574.497
1573.872
1573.613
1575.392
1580.115
1587.562
1596.948
1607.193
1618.031
1629.717
1641.807
1654.685
1669.258
1686.43
1706.628
1729.72
1755.304
1782.943
1805.735
1822.955
1835.515
1845.219
1853.176
1859.201
1864.334
1871.544
1884.055
1897.11
1913.461
1933.958
1958.756
1989.133
2026.789
2073.443
2130.381
2198.046
2276.339
2364.884
2462.343
2566.922
2676.713
2789.33
2901.048
3007.71
3106.802
3198.301
3283.252
3364.716
3446.912
3531.334
3616.792
3701.855
3785.434
3867.095
3947.138
4025.851
4103.366
4179.937
4255.972
4331.84
4407.782
4483.885
4560.092
4636.208
4711.907
4786.752
4860.258
4931.943
5001.368
5068.165
5132.095
5193.078
5251.203
5306.665
5359.651
5410.255
5458.469
5504.244
5547.556
5588.412
5626.842
5662.906
5696.696
5728.344
5758.048
5786.016
5812.379
5837.202
5860.546
5882.481
5903.077
5922.415
5940.597
5957.741
5973.982
5989.461
6004.321
6018.688
6032.63
6046.258
6059.563
6072.687
6085.562
6098.073
6110.052
6121.275
6131.466
6140.317
6147.506
6152.696
6155.478
6155.42
6152.127
6145.147
6133.839
6117.707
6096.23
6068.829
6035.054
5994.72
5948.147
5896.156
5840.636
5785.443
5736.426
5698.912
5676.67
5670.343
5678.227
5697.031
5723.565
5756.555
5794.147
5830.951
5865.272
5899.331
5933.824
5966.934
5998.934
6031.425
6063.545
6094.758
6114.996
6118.256
6103.704
6067.739
6013.477
5946.115
5867.793
5781.41
5692.889
5609.28
5538.025
5485.955
5456.733
5452.363
5473.34
5515.019
5575.212
5647.533
5725.737
5805.192
5882.758
5955.908
6022.862
6082.533
6134.634
6179.615
6218.046
6250.602
6277.913
6300.68
6319.477
6334.681
6346.902
6356.793
6364.707
6370.837
6375.397
6378.623
6380.767
6382.083
6382.785
6382.95
6382.502
6381.346
6379.463
6376.893
6373.689
6369.908
6365.609
6360.841
6355.663
6350.144
6344.354
6338.365
6332.253
6326.09
6319.946
6313.888
6307.975
6302.259
6296.778
6291.559
6286.615
6281.95
6277.555
6273.409
6269.486
6265.745
6262.149
6258.638
6255.178
6251.685
6248.135
6244.391
6240.56
6236.618
6232.328
6227.677
6222.802
6217.752
6212.434
6206.72
6200.486
6193.626
6186.035
6177.6
6168.222
6157.84
6146.441
6134.063
6120.8
6106.798
6092.253
6077.405
6062.529
6047.925
6033.909
6020.804
6008.927
5998.587
5990.067
5983.621
5979.471
5977.742
5978.653
5982.146
5988.054
5996.291
6006.713
6019.079
6033.035
6048.249
6064.415
6080.985
6097.489
6113.706
6129.216
6143.602
6156.646
6168.127
6177.899
6185.785
6191.804
6196.35
6199.583
6201.433
6201.909
6201.118
6199.31
6196.835
6193.842
6190.389
6186.587
6182.662
6178.891
6175.51
6172.746
6170.772
6169.511
6168.713
6168.157
6167.695
6167.257
6166.851
6166.528
6166.358
6166.432
6166.844
6167.676
6168.98
6170.799
6173.185
6175.892
6178.581
6181.424
6184.452
6187.467
6190.362
6193.341
6196.346
6199.326
6202.323
6205.303
6208.213
6211.007
6213.656
6216.15
6218.5
6220.718
6222.817
6224.806
6226.7
6228.51
6230.245
6231.921
6233.548
6235.139
6236.711
6238.281
6239.869
6241.492
6243.17
6244.914
6246.72
6248.616
6250.612
6252.685
6254.882
6257.195
6259.569
6262.066
6264.65
6267.319
6270.062
6272.867
6275.731
6278.649
6281.575
6284.503
6287.364
6290.243
6292.994
6295.645
6298.116
6300.398
6302.465
6304.513
6306.504
6309.028
6311.967
6316.707
6324.312
6337.58
3118.149
3082.496
3043.13
2991.735
2954.41
2881.125
2843.638
2806.29
2768.089
2728.873
2689.463
2649.593
2607.606
2564.985
2519.587
2406.348
2360.067
2314.181
2268.674
2223.854
2180.1
2138.288
2098.678
2062
2029.324
2001.649
1979.526
1964.912
1957.525
1956.682
1962.818
1978.649
2006.386
2047.933
2104.808
2178.56
2268.327
2374.091
2495.532
2631.906
2782.132
2944.804
3118.404
3301.531
3492.141
3688.284
3887.205
4086.266
4284.235
4477.677
4664.439
4841.518
5001.785
5144.726
5265.892
5362.549
5432.834
5475.467
5489.819
5475.814
5433.896
5365.19
5271.556
5155.544
5020.676
4871.469
4712.227
4547.112
4379.243
4209.952
4040.957
3872.888
3706.507
3543.381
3384.257
3229.558
3080.732
2939.834
2808.735
2688.638
2578.861
2477.989
2384.777
2298.249
2217.648
2142.225
2071.611
2005.624
1944.871
1889.537
1839.62
1795.712
1757.607
1723.878
1693.336
1665.239
1638.884
1613.575
1588.784
1564.477
1541.424
1521.114
1504.468
1490.741
1480.345
1471.931
1463.544
1454.124
1443.078
1430.499
1417.267
1404.484
1393.813
1386.553
1382.074
1378.659
1374.159
1367.905
1360.022
1350.995
1341.345
1331.55
1324.414
1322.221
1322.398
1323.881
1325.166
1325.64
1325.232
1324.074
1322.297
1320.514
1320.575
1324.226
1331.741
1341.601
1351.168
1360.737
1371.383
1381.357
1390.937
1401.558
1414.844
1431.623
1450.887
1473.392
1499.479
1521.625
1539.468
1552.693
1560.955
1567.413
1572.761
1578.185
1587.067
1599.826
1613.674
1629.421
1648.825
1671.802
1699.963
1735.658
1781.441
1838.921
1907.654
1986.781
2076.263
2174.509
2279.426
2389.781
2503.897
2619.055
2732.015
2839.917
2941.135
3035.28
3123.662
3208.553
3291.36
3372.722
3453.521
3533.648
3612.497
3690.361
3767.303
3843.229
3918.472
3993.676
4069.374
4145.817
4223.01
4300.816
4378.978
4457.107
4534.66
4611.05
4685.71
4758.116
4827.82
4894.497
4957.975
5018.24
5075.391
5129.562
5180.868
5229.381
5275.165
5318.305
5358.909
5397.087
5432.951
5466.613
5498.194
5527.84
5555.712
5581.938
5606.603
5629.778
5651.534
5671.938
5691.062
5708.991
5725.823
5741.681
5756.708
5771.065
5784.903
5798.355
5811.529
5824.602
5837.536
5850.342
5862.92
5875.1
5886.648
5897.287
5906.687
5914.464
5920.212
5923.528
5923.968
5920.882
5913.873
5902.263
5885.316
5862.169
5831.904
5793.676
5746.927
5691.592
5627.75
5557.07
5484.698
5419.579
5371.243
5343.635
5335.59
5344.726
5365.717
5393.678
5432.819
5480.935
5524.611
5561.519
5594.192
5624.717
5655.571
5688.281
5720.286
5750.571
5781.069
5805.855
5819.055
5810.842
5781.412
5734.309
5669.68
5590.409
5502.682
5413.347
5329.508
5258.405
5206.898
5179.346
5178.195
5204.772
5249.995
5314.801
5391.378
5473.92
5557.744
5638.485
5713.461
5781.417
5841.621
5893.541
5938.081
5975.893
6007.827
6034.511
6056.448
6074.388
6088.974
6100.808
6110.493
6118.346
6124.526
6129.217
6132.612
6134.912
6136.313
6136.978
6136.996
6136.373
6135.086
6133.133
6130.547
6127.376
6123.661
6119.45
6114.792
6109.742
6104.353
6098.685
6092.802
6086.771
6080.66
6074.537
6068.466
6062.51
6056.724
6051.152
6045.828
6040.774
6035.998
6031.497
6027.254
6023.246
6019.435
6015.782
6012.23
6008.731
6005.216
6001.649
5997.973
5994.177
5990.206
5985.965
5981.442
5976.69
5971.722
5966.469
5960.819
5954.655
5947.87
5940.355
5932.002
5922.709
5912.409
5901.076
5888.741
5875.486
5861.448
5846.818
5831.828
5816.754
5801.897
5787.574
5774.113
5761.838
5751.063
5742.083
5735.173
5730.562
5728.277
5728.661
5731.642
5737.027
5744.794
5754.851
5766.896
5780.577
5795.515
5811.327
5827.527
5843.714
5859.674
5874.99
5889.259
5902.153
5913.457
5923.087
5930.904
5936.98
5941.752
5945.322
5947.516
5948.304
5947.818
5946.352
5944.178
5941.48
5938.3
5934.714
5930.962
5927.309
5923.992
5921.387
5919.906
5919.432
5919.456
5919.597
5919.657
5919.548
5919.299
5918.999
5918.765
5918.731
5919.024
5919.759
5921.032
5922.93
5925.57
5928.835
5932.393
5936.114
5939.549
5942.675
5945.387
5948.437
5951.564
5954.537
5957.61
5960.734
5963.804
5966.739
5969.486
5972.039
5974.409
5976.614
5978.673
5980.605
5982.428
5984.155
5985.805
5987.394
5988.933
5990.433
5991.915
5993.401
5994.914
5996.471
5998.088
5999.781
6001.557
6003.432
6005.409
6007.481
6009.664
6011.936
6014.361
6016.904
6019.491
6022.183
6024.962
6027.806
6030.707
6033.668
6036.699
6039.669
6042.515
6045.322
6048.164
6051.054
6053.84
6056.481
6059.003
6061.582
6064.219
6067.411
6071.158
6076.653
6085.041
6098.166
3087.933
3042.105
2999.091
2944.429
2889.605
2840.107
2794.604
2752.749
2713.925
2675.073
2570.858
2534.01
2497.263
2459.858
2421.509
2382.174
2341.706
2299.758
2256.414
2212.371
2168.498
2122.901
2077.055
2031.202
1985.742
1940.925
1897.184
1854.53
1813.547
1775.557
1741.855
1714.384
1693.57
1680.237
1675.53
1680.23
1695.959
1724.196
1766.088
1822.83
1895.227
1983.457
2087.515
2207.094
2341.469
2489.622
2650.218
2821.653
3002.395
3189.958
3381.668
3575.838
3770.348
3963.735
4154.116
4337.428
4509.596
4665.479
4801.59
4915.264
5003.825
5065.582
5099.802
5106.45
5085.771
5038.257
4964.73
4866.804
4747.223
4609.407
4458.261
4298.219
4133.454
3968.184
3803.819
3641.105
3481.21
3323.551
3167.427
3014.17
2864.852
2720.64
2584.651
2459.445
2345.948
2243.392
2149.98
2064.106
1984.524
1910.329
1840.56
1774.618
1712.464
1654.639
1601.613
1553.789
1512.496
1478.595
1449.814
1423.863
1399.38
1375.553
1351.813
1327.643
1303.221
1279.757
1258.143
1243.14
1233.455
1225.461
1219.996
1213.821
1205.432
1194.37
1181.083
1166.86
1152.846
1141.189
1135.216
1133.376
1132.073
1128.19
1121.375
1112.35
1101.81
1090.206
1078.348
1069.22
1067.027
1070.542
1073.944
1075.68
1076.131
1075.392
1073.321
1069.728
1065.256
1062.655
1065.871
1074.121
1084.601
1093.674
1102.704
1112.401
1119.473
1124.665
1130.716
1139.741
1153.329
1170.93
1192.242
1214.707
1237.461
1256.745
1271.84
1277.579
1282.116
1284.741
1290.081
1302.375
1311.445
1323.363
1339.287
1356.999
1376.602
1400.817
1432.748
1476.384
1534.557
1605.337
1686.103
1777.618
1877.496
1983.815
2097.007
2216.042
2337.918
2459.221
2576.808
2688.159
2790.865
2884.278
2969.925
3050.092
3126.931
3203.143
3279.035
3354.053
3429.252
3504.234
3578.352
3651.927
3726.015
3801.467
3878.565
3957.204
4037.101
4117.902
4199.124
4280.104
4360.136
4438.536
4514.657
4587.915
4657.861
4724.234
4786.95
4846.058
4901.662
4953.892
5002.88
5048.774
5091.753
5132.026
5169.799
5205.254
5238.548
5269.819
5299.202
5326.831
5352.82
5377.257
5400.22
5421.781
5442.006
5460.954
5478.691
5495.296
5510.869
5525.546
5539.486
5552.871
5565.883
5578.695
5591.457
5604.238
5617.047
5629.809
5642.365
5654.454
5665.74
5675.908
5684.678
5691.516
5695.786
5696.934
5694.381
5687.658
5676.109
5658.738
5634.193
5601.19
5558.472
5504.828
5439.211
5360.158
5268.53
5172.455
5084.871
5020.686
4988.06
4982.09
4996.849
5023.467
5062.018
5116.568
5175.464
5222.94
5262.515
5294.08
5319.62
5346.357
5377.271
5407.215
5437.283
5469.308
5500.411
5518.801
5514.091
5490.727
5449.753
5392.156
5317.926
5234.606
5148.8
5067.978
4999.537
4950.358
4925.233
4925.973
4950.21
5003.061
5071.49
5151.353
5236.781
5322.541
5404.404
5479.661
5547.1
5606.047
5656.701
5700.095
5736.699
5767.06
5792.099
5812.631
5829.456
5843.373
5854.894
5864.379
5872.093
5878.217
5882.912
5886.338
5888.659
5890.039
5890.619
5890.498
5889.723
5888.311
5886.283
5883.672
5880.521
5876.873
5872.771
5868.259
5863.378
5858.172
5852.686
5846.971
5841.084
5835.084
5829.031
5822.989
5817.019
5811.179
5805.52
5800.082
5794.899
5789.988
5785.353
5780.982
5776.856
5772.944
5769.203
5765.577
5762.013
5758.452
5754.848
5751.151
5747.319
5743.315
5739.099
5734.647
5729.957
5725.015
5719.764
5714.113
5707.963
5701.21
5693.748
5685.469
5676.273
5666.087
5654.876
5642.66
5629.508
5615.548
5600.957
5585.959
5570.826
5555.858
5541.373
5527.7
5515.164
5504.086
5494.768
5487.501
5482.62
5479.724
5479.492
5481.921
5486.965
5494.433
5504.134
5515.791
5529.075
5543.621
5559.039
5574.903
5590.796
5606.397
5621.335
5635.254
5647.863
5658.931
5668.32
5675.923
5681.948
5686.821
5690.61
5693.068
5694.15
5694.076
5692.969
5691.074
5688.543
5685.502
5682.069
5678.478
5674.959
5671.642
5669.061
5668.221
5668.933
5670.103
5671.12
5671.804
5672.073
5672.002
5671.728
5671.401
5671.18
5671.221
5671.675
5672.688
5674.43
5677.259
5681.213
5685.771
5690.326
5694.208
5697.559
5700.273
5703.43
5706.727
5709.68
5712.798
5716.103
5719.398
5722.53
5725.402
5728.009
5730.386
5732.567
5734.577
5736.439
5738.177
5739.81
5741.358
5742.85
5744.285
5745.673
5747.043
5748.421
5749.835
5751.305
5752.849
5754.483
5756.218
5758.062
5760.018
5762.086
5764.272
5766.569
5768.992
5771.511
5774.196
5776.957
5779.802
5782.701
5785.659
5788.653
5791.718
5794.717
5797.507
5800.221
5803.146
5806.401
5809.664
5812.748
5815.693
5818.703
5821.813
5825.402
5829.72
5835.937
5844.969
5858.183
2829.77
2768.693
2643.971
2596.981
2551.298
2508.885
2469.302
2431.889
2395.88
2360.9
2326.833
2291.894
2256.321
2219.769
2182.208
2143.344
2103.059
2061.206
2017.642
1972.772
1927.891
1882.229
1836.099
1789.776
1743.183
1696.005
1648.658
1602.11
1557.252
1515.39
1478.388
1447.7
1424.042
1408.29
1401.625
1405.129
1420.082
1447.619
1488.953
1544.854
1615.972
1702.674
1804.997
1922.679
2054.973
2200.918
2359.089
2527.522
2703.681
2885.341
3070.95
3259.705
3450.339
3639.675
3824.698
4001.449
4165.648
4312.722
4438.711
4540.899
4617.298
4666.829
4689.437
4685.824
4656.644
4602.495
4524.087
4422.349
4300.021
4160.568
4008.309
3848.364
3684.856
3521.958
3363.24
3209.704
3060.335
2912.671
2764.836
2618.559
2476.289
2339.527
2210.473
2091.78
1985.677
1891.734
1807.282
1730.391
1659.429
1593.329
1530.537
1470.064
1411.958
1357.054
1306.212
1260.448
1222.174