/*--------------------------------*- C++ -*----------------------------------*\
| =========                 |                                                 |
| \\      /  F ield         | foam-extend: Open Source CFD                    |
|  \\    /   O peration     | Version:     3.1                                |
|   \\  /    A nd           | Web:         http://www.extend-project.de       |
|    \\/     M anipulation  |                                                 |
\*---------------------------------------------------------------------------*/
FoamFile
{
    version     2.0;
    format      ascii;
    class       surfaceScalarField;
    location    "14";
    object      phi;
}
// * * * * * * * * * * * * * * * * * * * * * * * * * * * * * * * * * * * * * //

dimensions      [0 3 -1 0 0 0 0];

internalField   nonuniform List<scalar> 
275122
(
-0.0003946426
0.0004000162
-3.935353e-07
-4.980039e-06
-0.0003527996
0.0003362373
1.35687e-06
1.52054e-05
-0.0003494295
0.0003582827
-3.814844e-07
-8.471713e-06
-0.0003879762
0.0003982151
-4.672413e-07
-9.771595e-06
-0.0004236877
0.000426595
-5.351161e-07
-2.372211e-06
-0.0004258828
0.0004250306
-4.768018e-07
1.328981e-06
-0.0004207295
0.0004190814
-4.378963e-07
2.085963e-06
-0.0004135573
0.0004114408
-4.273185e-07
2.543835e-06
-0.0004049131
0.0004027322
-3.965393e-07
2.577493e-06
-0.0003959987
0.0003937111
-3.951057e-07
2.682791e-06
-0.0003866521
0.0003842971
-3.608831e-07
2.715903e-06
-0.0003769497
0.0003745086
-3.520056e-07
2.793092e-06
-0.000367021
0.0003645191
-2.953129e-07
2.797229e-06
-0.0003568847
0.0003543378
-2.551181e-07
2.802058e-06
-0.0003466003
0.0003440303
-2.267535e-07
2.796709e-06
-0.0003362315
0.0003336567
-2.01091e-07
2.775866e-06
-0.0003258285
0.0003232604
-1.75093e-07
2.743214e-06
-0.0003154496
0.0003129367
-1.612281e-07
2.67411e-06
-0.0003057777
0.0003036645
-2.029994e-07
2.316202e-06
-0.0002990908
0.0002991692
-5.665241e-07
4.880801e-07
-0.0003299917
0.0003425299
-1.196495e-06
-1.134164e-05
-0.0003441011
0.0003431059
-2.186129e-07
1.213805e-06
-0.0003440926
0.0003454871
-1.381702e-07
-1.256399e-06
-0.0003809124
0.0003938088
3.350399e-07
-1.323147e-05
-0.0003929666
0.0003910172
5.537534e-07
1.395665e-06
-0.0003898778
0.0003893946
-2.023423e-07
6.854769e-07
-0.0003868999
0.000384812
-2.146687e-07
2.302575e-06
-0.0003779059
0.0003734559
-1.920293e-07
4.64198e-06
-0.0003485487
0.0003247651
-2.731353e-07
2.405672e-05
-0.0001973209
0.0002016755
4.274822e-09
-4.35895e-06
-0.000264415
0.0002779393
-7.053745e-08
-1.345377e-05
-0.0003165185
0.0003293104
7.705518e-09
-1.279959e-05
-0.0003683716
0.0003815966
8.698385e-09
-1.323376e-05
-0.0004216541
0.0004351685
9.559298e-09
-1.352402e-05
-0.0004764326
0.0004903312
1.01062e-08
-1.390872e-05
-0.0005328224
0.0005471702
1.209243e-08
-1.435988e-05
-0.0005906349
0.0006052885
8.40862e-09
-1.466196e-05
-0.0006495112
0.0006643452
4.210398e-09
-1.483816e-05
-0.0007089284
0.0007238766
7.75147e-09
-1.495593e-05
-0.0007682335
0.0007843768
2.316711e-07
-1.637503e-05
1.290388e-05
-0.0005326975
0.0005347846
7.981999e-10
-1.499177e-05
1.316934e-05
-0.000541026
0.0005429397
-5.091407e-10
-1.508254e-05
1.344244e-05
-0.0005483094
0.000549981
-1.052942e-09
-1.511297e-05
1.373621e-05
-0.0005547244
0.0005561714
-1.585705e-09
-1.518166e-05
1.411589e-05
-0.000560079
0.000561246
-1.626347e-09
-1.528128e-05
1.441421e-05
-0.0005644574
0.0005654159
-1.074641e-09
-1.537161e-05
1.463972e-05
-0.0005681396
0.0005689725
-1.077408e-09
-1.547158e-05
1.479167e-05
-0.000571331
0.0005721082
-8.835121e-10
-1.556798e-05
1.526973e-05
-0.0005742041
0.0005739305
-7.655907e-10
-1.499532e-05
1.352565e-05
-0.002337608
0.002346673
-2.046769e-10
-6.35548e-05
1.377078e-05
1.348145e-05
1.371232e-05
1.439587e-05
-0.002353235
0.002358577
-1.164701e-10
-6.394038e-05
1.493532e-05
1.436782e-05
1.489984e-05
1.47564e-05
-0.002362874
0.002366666
-9.237048e-11
-6.333581e-05
1.504376e-05
1.4726e-05
1.501713e-05
1.482554e-05
-0.002370674
0.002374536
-6.940178e-11
-6.341651e-05
1.497616e-05
1.480234e-05
1.495138e-05
1.485023e-05
-0.002378153
0.002381725
2.360294e-10
-6.334805e-05
1.506163e-05
1.482611e-05
1.503794e-05
1.508346e-05
-0.002384922
0.002387998
-1.530774e-10
-6.360732e-05
1.520643e-05
1.50605e-05
1.518112e-05
1.515774e-05
-0.002391103
0.002393908
-3.876339e-11
-6.354216e-05
1.523153e-05
1.5137e-05
1.521057e-05
1.517441e-05
-0.002396872
0.002399601
-1.943378e-10
-6.337298e-05
1.51737e-05
1.514178e-05
1.515399e-05
1.50983e-05
-0.00240292
0.002405962
-2.522375e-10
-6.343496e-05
1.512462e-05
1.506997e-05
1.510094e-05
1.465772e-05
-0.002405563
0.002408941
-6.122492e-11
-6.209478e-05
1.471994e-05
1.463075e-05
1.47078e-05
1.52837e-05
-0.002412434
0.002414498
-4.117596e-11
-6.339626e-05
1.539175e-05
1.527556e-05
1.538099e-05
1.517285e-05
-0.002415969
0.002417089
-2.698623e-11
-6.152502e-05
1.503604e-05
1.516585e-05
1.502965e-05
1.501158e-05
-0.002418219
0.002419248
-1.299621e-10
-6.085529e-05
1.490956e-05
1.500328e-05
1.490231e-05
1.493576e-05
-0.002420178
0.002420882
-2.590651e-11
-6.02911e-05
1.486379e-05
1.49272e-05
1.48599e-05
1.490131e-05
-0.002421515
0.00242204
1.857778e-11
-5.999382e-05
1.484276e-05
1.488663e-05
1.483865e-05
1.492779e-05
-0.002422543
0.002422962
8.929538e-11
-5.995025e-05
1.487069e-05
1.487901e-05
1.485342e-05
1.516753e-05
-0.002423488
0.002423814
2.246862e-10
-6.054874e-05
1.512751e-05
1.495041e-05
1.49768e-05
1.6427e-05
-0.002423819
0.002421612
3.866258e-10
-6.209687e-05
1.668467e-05
1.545983e-05
1.573169e-05
2.093756e-05
-0.002414991
0.002399432
8.329023e-10
-6.357856e-05
2.225602e-05
1.827218e-05
1.767121e-05
2.583759e-05
-0.002379686
0.00240103
2.987708e-10
-4.718204e-05
1.828927e-05
-0.002420493
0.002422679
-1.633286e-10
-2.047463e-05
3.830438e-05
-0.002415157
0.002410442
-8.072858e-10
-3.358782e-05
3.203662e-05
-0.002407222
0.002404385
-3.155059e-10
-2.91989e-05
1.618631e-05
-0.002400945
0.00240128
-1.059161e-10
-1.652056e-05
1.614381e-06
-0.002404441
0.002407313
-5.99689e-11
-4.485711e-06
-3.711917e-06
-0.002409364
0.002411066
-4.407864e-11
2.010244e-06
-6.458608e-06
-0.002412591
0.002413713
-4.197418e-11
5.336575e-06
-8.413982e-06
-0.00241451
0.002414922
-4.284324e-11
8.002199e-06
-1.014903e-05
-0.002415068
0.002414784
-3.50885e-11
1.043269e-05
-1.167753e-05
-0.002414224
0.002413233
-3.072393e-11
1.266834e-05
-1.304384e-05
-0.002411973
0.002410291
-2.531231e-11
1.472585e-05
-1.42293e-05
-0.002408351
0.002406024
-2.169863e-11
1.655629e-05
-1.522304e-05
-0.002403467
0.002400583
-1.933795e-11
1.810674e-05
-1.596944e-05
-0.0023975
0.002394161
-1.796651e-11
1.930816e-05
-1.645601e-05
-0.002390667
0.002387012
-1.530783e-11
2.011045e-05
-1.660187e-05
-0.002383257
0.002379436
-7.927538e-12
2.042296e-05
-1.608113e-05
-0.002375569
0.002371702
2.907235e-12
1.994855e-05
-1.394918e-05
-0.00236767
0.002363311
1.3205e-11
1.830853e-05
-9.726774e-06
-0.002359001
0.002353634
1.885527e-11
1.509383e-05
-1.4246e-06
-0.00234281
0.00233385
1.601138e-11
1.038491e-05
-8.382575e-06
-0.002329649
0.002326891
9.105906e-12
1.114069e-05
3.736086e-06
-0.002322012
0.0023121
4.864089e-13
6.175818e-06
2.353885e-05
-0.002290753
0.002269615
-6.550403e-12
-2.400788e-06
-3.008424e-06
-0.002256898
0.002249328
-1.526019e-11
1.057898e-05
-1.850328e-05
-0.002242736
0.002233694
-2.381687e-11
2.754562e-05
-3.007287e-05
-0.002223382
0.002213753
-3.31919e-11
3.970169e-05
-4.992306e-05
-0.002205666
0.002200235
-4.634758e-11
5.535353e-05
-9.235311e-05
-0.002195451
0.0022093
-5.386925e-11
7.850426e-05
-2.057216e-05
-0.002229263
0.002221715
-5.0595e-11
7.802824e-05
-1.487924e-05
-2.04441e-05
-1.458469e-05
-1.067542e-05
-0.002204939
0.002195451
-3.82936e-11
5.217035e-05
-1.112615e-05
-1.02611e-05
-1.061955e-05
-1.011663e-05
-0.002187423
0.002176963
-2.832068e-11
4.954931e-05
-9.799595e-06
-9.739314e-06
-9.433732e-06
-8.882166e-06
-0.002164714
0.002152242
-2.056389e-11
4.701252e-05
-8.714965e-06
-8.548687e-06
-8.394172e-06
-8.65396e-06
-0.002139961
0.002127754
-1.182563e-11
4.627399e-05
-8.675742e-06
-8.356131e-06
-8.381888e-06
-8.702504e-06
-0.00211544
0.002102786
-6.333648e-12
4.693613e-05
-8.703218e-06
-8.435879e-06
-8.441136e-06
-8.740651e-06
-0.00208982
0.002076477
-2.273323e-12
4.78423e-05
-8.746995e-06
-8.500432e-06
-8.511538e-06
-8.829714e-06
-0.002062844
0.002048833
2.387217e-12
4.893737e-05
-8.846119e-06
-8.61457e-06
-8.635173e-06
-8.930619e-06
-0.002034505
0.002019806
9.55405e-12
5.007416e-05
-8.947155e-06
-8.738447e-06
-8.75853e-06
-9.008768e-06
-0.0020048
0.001989473
1.471175e-11
5.104478e-05
-9.019592e-06
-8.837725e-06
-8.852181e-06
-9.055989e-06
-0.001973894
0.001958067
1.607716e-11
5.17677e-05
-9.063487e-06
-8.904853e-06
-8.91586e-06
-9.066202e-06
-0.001942036
0.001925822
1.272798e-11
5.222783e-05
-9.067235e-06
-8.937536e-06
-8.94226e-06
-9.035838e-06
-0.001909449
0.001892949
5.215188e-12
5.242787e-05
-9.029917e-06
-8.931586e-06
-8.930056e-06
-8.958624e-06
-0.001876322
0.001859608
-3.176537e-12
5.236184e-05
-8.94257e-06
-8.87889e-06
-8.868489e-06
-8.823664e-06
-0.001842792
0.001825922
-1.183573e-11
5.200926e-05
-8.79597e-06
-8.770654e-06
-8.74907e-06
-8.624625e-06
-0.001808964
0.001791977
-2.053472e-11
5.135753e-05
-8.584607e-06
-8.597931e-06
-8.563716e-06
-8.367024e-06
-0.001774916
0.001757852
-2.802019e-11
5.042861e-05
-8.317653e-06
-8.362274e-06
-8.317521e-06
-8.070985e-06
-0.001740732
0.001723645
-3.170118e-11
4.928675e-05
-8.017691e-06
-8.080535e-06
-8.030384e-06
-7.768196e-06
-0.001706535
0.001689511
-3.431032e-11
4.802518e-05
-7.71792e-06
-7.782136e-06
-7.733151e-06
-7.492649e-06
-0.001672513
0.001655672
-3.889491e-11
4.673694e-05
-7.452032e-06
-7.49681e-06
-7.453897e-06
-7.275842e-06
-0.001638918
0.0016224
-4.199411e-11
4.551235e-05
-7.251226e-06
-7.249619e-06
-7.217585e-06
-7.147431e-06
-0.001606038
0.001589998
-4.278174e-11
4.445647e-05
-7.145902e-06
-7.069256e-06
-7.053994e-06
-7.129928e-06
-0.001574193
0.001558798
-4.399854e-11
4.366121e-05
-7.155319e-06
-6.987281e-06
-6.993638e-06
-7.213935e-06
-0.00154372
0.00152913
-4.702039e-11
4.31404e-05
-7.256799e-06
-7.024828e-06
-7.054725e-06
-7.316694e-06
-0.001514925
0.001501234
-5.195892e-11
4.272833e-05
-7.345023e-06
-7.16626e-06
-7.209207e-06
-7.263499e-06
0.00147504
-5.796207e-11
4.19582e-05
-7.226739e-06
-7.284365e-06
-7.300858e-06
-0.001487923
-6.863177e-06
-0.00146238
0.001449916
-6.374823e-11
4.019857e-05
-6.73966e-06
-7.105028e-06
-7.02727e-06
-6.088045e-06
-0.001437401
0.001424829
-6.443389e-11
3.72202e-05
-5.911865e-06
-6.414833e-06
-6.233734e-06
-5.164873e-06
-0.001412031
0.001399151
-5.89473e-11
3.365954e-05
-4.998956e-06
-5.407052e-06
-5.208036e-06
-4.355481e-06
-0.001386126
0.001373159
-4.688714e-11
3.03555e-05
-4.233338e-06
-4.473684e-06
-4.325802e-06
-3.793596e-06
-0.001360224
0.001347526
-2.993924e-11
2.780472e-05
-3.722992e-06
-3.836253e-06
-3.753992e-06
-3.468543e-06
-0.001335029
0.001322886
-1.206416e-11
2.596561e-05
-3.434669e-06
-3.478743e-06
-3.4401e-06
-3.299573e-06
-0.001311034
0.001299584
3.79659e-12
2.460312e-05
-3.286814e-06
-3.290708e-06
-3.275207e-06
-3.213165e-06
-0.001288458
0.001277751
1.569548e-11
2.349895e-05
-3.212072e-06
-3.185407e-06
-3.18139e-06
-3.171309e-06
-0.0012674
0.001257499
2.085177e-11
2.250098e-05
-3.175124e-06
-3.126359e-06
-3.126553e-06
-3.138823e-06
-0.001247985
0.001238953
1.795981e-11
2.148433e-05
-3.143139e-06
-3.085025e-06
-3.085094e-06
-3.070372e-06
-0.001230349
0.001222263
7.812488e-12
2.029502e-05
-3.055034e-06
-3.042394e-06
-3.041524e-06
-2.882257e-06
-0.001214598
0.001207446
-1.34792e-11
1.877951e-05
-2.834559e-06
-2.965247e-06
-2.945182e-06
-2.485372e-06
-0.001200654
0.001194244
-3.694946e-11
1.646442e-05
-2.37805e-06
-2.649787e-06
-2.541279e-06
-1.936229e-06
-0.001187983
0.001182071
-5.245901e-11
1.360986e-05
-1.853658e-06
-2.011888e-06
-1.895823e-06
-1.488289e-06
-0.001176428
0.001171299
-6.10676e-11
1.094197e-05
-1.427458e-06
-1.483633e-06
-1.414171e-06
-1.139649e-06
-0.001166531
0.001162353
-6.142977e-11
8.604772e-06
-1.102121e-06
-1.111912e-06
-1.072647e-06
-9.032355e-07
-0.0011586
0.001155433
-6.069527e-11
6.698094e-06
-8.739462e-07
-8.914167e-07
-8.623199e-07
-7.321213e-07
-0.001152626
0.001150362
-5.414912e-11
5.139342e-06
-7.135905e-07
-7.230025e-07
-7.063643e-07
-6.11134e-07
-0.00114841
0.00114695
-4.486163e-11
3.871329e-06
-5.973351e-07
-6.076466e-07
-5.951845e-07
-5.113999e-07
-0.00114574
0.001144961
-3.454299e-11
2.791231e-06
-4.97199e-07
-5.083446e-07
-4.9463e-07
-4.20089e-07
-0.00114439
0.001144204
-2.433731e-11
1.831522e-06
-4.052195e-07
-4.172928e-07
-4.028139e-07
-3.129481e-07
-0.001144213
0.001144565
-1.444386e-11
8.517561e-07
-2.910349e-07
-3.105546e-07
-2.890932e-07
-1.710008e-07
-0.001145082
0.001145866
-6.387378e-12
-2.020528e-07
-1.210195e-07
-1.692083e-07
-1.199831e-07
9.145232e-08
-0.001146653
0.001147501
-1.479607e-12
-1.552333e-06
2.615653e-07
9.282365e-08
2.585875e-07
1.25385e-07
-0.001148841
0.001150372
1.111042e-12
-1.992938e-06
9.748085e-08
1.320343e-07
1.067901e-07
1.087136e-07
-0.00115232
0.001154642
2.390206e-12
-2.784114e-06
1.174811e-07
1.134438e-07
1.218255e-07
2.154342e-07
-0.001157109
0.001159898
2.711634e-12
-3.692307e-06
2.323211e-07
2.192277e-07
2.358602e-07
3.285366e-07
-0.0011629
0.001166256
3.064474e-12
-4.713417e-06
3.47269e-07
3.316652e-07
3.502547e-07
4.516608e-07
-0.001169832
0.00117378
3.831312e-12
-5.797097e-06
4.703744e-07
4.540665e-07
4.72654e-07
5.834006e-07
-0.001177961
0.001182535
5.315676e-12
-6.950803e-06
6.033036e-07
5.85163e-07
6.049259e-07
7.323233e-07
-0.001187344
0.001192545
7.627644e-12
-8.179762e-06
7.561618e-07
7.334455e-07
7.572991e-07
8.788698e-07
-0.001197982
0.00120384
1.05081e-11
-9.420869e-06
9.017422e-07
8.798175e-07
9.028543e-07
1.023896e-06
-0.001209931
0.001216443
1.386695e-11
-1.064817e-05
1.043484e-06
1.023937e-06
1.04486e-06
1.163049e-06
-0.001223188
0.001230359
1.762171e-11
-1.184895e-05
1.176906e-06
1.159802e-06
1.178098e-06
1.28351e-06
-0.001237758
0.001245582
2.148014e-11
-1.300234e-05
1.305966e-06
1.283927e-06
1.304854e-06
1.398939e-06
-0.001253633
0.001262119
2.507073e-11
-1.411829e-05
1.416154e-06
1.402479e-06
1.414751e-06
1.510567e-06
-0.001270821
0.001279963
2.809062e-11
-1.521271e-05
1.524711e-06
1.510737e-06
1.524904e-06
1.614356e-06
-0.001289322
0.001299125
3.044331e-11
-1.628702e-05
1.627621e-06
1.613852e-06
1.627235e-06
1.713062e-06
-0.001309143
0.001319614
3.153695e-11
-1.734671e-05
1.725376e-06
1.712532e-06
1.724871e-06
1.807091e-06
-0.001330297
0.001341441
3.147535e-11
-1.839443e-05
1.818565e-06
1.806569e-06
1.818043e-06
1.896882e-06
-0.001352797
0.001364621
3.059985e-11
-1.943218e-05
1.907518e-06
1.896329e-06
1.906983e-06
1.981384e-06
-0.001376657
0.001389162
2.898554e-11
-2.044863e-05
1.99103e-06
1.980745e-06
1.990357e-06
2.057499e-06
-0.001401875
0.001415047
2.691491e-11
-2.141733e-05
2.065694e-06
2.056745e-06
2.064899e-06
2.121421e-06
-0.00142842
0.00144223
2.483625e-11
-2.230727e-05
2.127772e-06
2.120577e-06
2.12694e-06
2.169141e-06
-0.001456231
0.001470632
2.247096e-11
-2.308486e-05
2.173563e-06
2.168351e-06
2.172747e-06
2.195465e-06
-0.001485208
0.001500123
1.963733e-11
-2.369816e-05
2.197201e-06
2.194691e-06
2.196367e-06
2.191528e-06
-0.001515189
0.001530491
1.641559e-11
-2.406094e-05
2.189212e-06
2.190665e-06
2.188332e-06
2.141742e-06
-0.001545905
0.001561397
1.321858e-11
-2.403948e-05
2.13253e-06
2.140958e-06
2.132383e-06
2.019653e-06
-0.001576904
0.001592287
1.063559e-11
-2.34257e-05
2.006582e-06
2.016283e-06
2.000303e-06
1.773781e-06
0.001622666
7.570082e-12
-2.205424e-05
-0.001607636
1.738263e-06
1.772597e-06
1.73999e-06
1.433396e-06
-0.001637512
0.00165166
6.639993e-12
-1.979636e-05
1.391632e-06
1.432559e-06
1.390814e-06
9.852322e-07
-0.001665448
0.001678232
7.315057e-12
-1.66079e-05
9.269707e-07
9.850624e-07
9.263651e-07
4.251783e-07
-0.001690496
0.001701476
8.915459e-12
-1.253095e-05
3.505181e-07
4.252998e-07
3.496382e-07
-2.444153e-07
-0.001711664
0.001720395
1.219209e-11
-7.559773e-06
-3.407395e-07
-2.442662e-07
-3.424743e-07
-1.031641e-06
-0.001728206
0.001734089
1.356373e-11
-1.537972e-06
-1.142209e-06
-1.032615e-06
-1.139383e-06
-1.855993e-06
-0.00173879
0.001741297
5.207261e-11
5.212985e-06
-1.99217e-06
-1.864951e-06
-2.006308e-06
-2.930244e-06
-0.001742448
0.00174124
7.19202e-11
1.324502e-05
-3.09231e-06
-2.925064e-06
-3.089794e-06
-4.252783e-06
-0.0017381
0.001731627
1.600497e-10
2.395118e-05
-4.522253e-06
-4.212116e-06
-4.490948e-06
-5.942839e-06
-0.001722824
0.001711394
3.707413e-10
3.557518e-05
-6.2675e-06
-5.781658e-06
-6.153589e-06
-9.061856e-06
-0.001695431
0.001676101
4.772918e-10
5.561812e-05
-9.768492e-06
-8.433096e-06
-9.025081e-06
-1.656227e-05
-0.001658114
0.001639007
1.492844e-09
8.595711e-05
-1.895369e-05
-1.487273e-05
-1.646272e-05
-3.264781e-05
-0.001622595
0.001610789
8.733853e-10
0.0001416673
-3.358413e-05
-3.066645e-05
-3.296394e-05
-2.37304e-05
-0.001587609
0.001545642
-1.995849e-10
0.0001384318
-1.992303e-05
-2.865477e-05
-2.415653e-05
-8.149903e-06
-0.001477225
0.001385918
1.218454e-09
0.0001218022
-5.890056e-06
-9.620568e-06
-6.83613e-06
-7.395864e-08
-0.001275999
0.001165348
2.910384e-09
0.0001129525
-6.703751e-07
-5.429134e-07
-1.016866e-06
-3.11712e-06
-0.00107108
0.001000128
1.310029e-09
8.561144e-05
-3.970982e-06
-3.383261e-06
-4.190048e-06
-4.602454e-06
-0.0009496191
0.0009118372
-8.059338e-10
5.618639e-05
-4.541198e-06
-4.67e-06
-4.590008e-06
-3.294092e-06
-0.000883788
0.0008634504
-2.43292e-09
3.291639e-05
-2.983751e-06
-3.306295e-06
-2.992233e-06
-1.592412e-06
-0.000849305
0.0008397338
-2.614737e-09
1.570801e-05
-1.473657e-06
-1.593759e-06
-1.474413e-06
-1.146969e-06
-0.0008321987
0.0008263951
-1.992519e-09
1.03923e-05
-1.146464e-06
-1.146923e-06
-1.146361e-06
-1.502589e-06
-0.0008203801
0.0008136172
-1.296602e-09
1.288402e-05
-1.557606e-06
-1.502297e-06
-1.557284e-06
-2.218869e-06
-0.0008053704
0.0007948663
-8.089533e-10
1.948372e-05
-2.270995e-06
-2.218463e-06
-2.270505e-06
-2.967841e-06
-0.0007824308
0.0007677279
-5.212797e-10
2.667817e-05
-3.019553e-06
-2.968219e-06
-3.019137e-06
-3.181624e-06
-0.0007515371
0.000729998
-3.587693e-10
3.342701e-05
-2.757215e-06
-3.186357e-06
-2.762396e-06
-3.857355e-06
-0.0001747562
0.0001717772
-2.403178e-10
6.836603e-06
-4.734755e-06
-0.0001628616
0.0001596821
-8.790021e-10
7.915105e-06
-5.107549e-06
-0.0001501447
0.0001469385
-7.12613e-10
8.314433e-06
-5.018937e-06
-0.0001373493
0.0001341902
-2.825842e-10
8.178313e-06
-4.520975e-06
-0.0001249915
0.0001220467
-3.1221e-10
7.46612e-06
-3.879027e-06
-0.0001136985
0.0001111158
-4.755337e-10
6.462168e-06
-3.163595e-06
-0.0001040111
0.0001019026
-3.002932e-10
5.272415e-06
-2.384225e-06
-9.632661e-05
9.476476e-05
-1.72304e-10
3.94625e-06
-1.582617e-06
-9.088123e-05
8.990346e-05
-1.192607e-10
2.560503e-06
-7.98668e-07
-8.778438e-05
8.740041e-05
-1.364577e-11
1.182654e-06
-9.821133e-08
-8.704969e-05
8.72528e-05
9.537583e-11
-1.049893e-07
5.766619e-07
-8.856967e-05
8.928059e-05
1.964133e-10
-1.287776e-06
1.082179e-06
-9.208484e-05
9.326322e-05
3.178026e-10
-2.260874e-06
1.469469e-06
-9.734204e-05
9.889732e-05
3.974292e-10
-3.025148e-06
1.723768e-06
-0.0001039808
0.0001058197
4.497088e-10
-3.563161e-06
1.849775e-06
-0.0001116239
0.0001136509
4.868415e-10
-3.877301e-06
1.864907e-06
-0.0001198949
0.0001220211
5.04076e-10
-3.99168e-06
1.800594e-06
-0.0001284637
0.0001306227
5.118171e-10
-3.960115e-06
1.68248e-06
-0.0001370935
0.000139237
5.108434e-10
-3.826455e-06
1.527543e-06
-0.000145606
0.0001476963
4.971384e-10
-3.618353e-06
1.35073e-06
-0.0001538677
0.0001558788
4.76901e-10
-3.362322e-06
1.16265e-06
-0.000161785
0.0001636974
4.513871e-10
-3.075457e-06
9.700826e-07
-0.0001692853
0.0001710839
4.257373e-10
-2.769123e-06
7.794119e-07
-0.0001763135
0.0001779854
4.099019e-10
-2.451655e-06
5.464109e-07
-0.0001828393
0.0001843977
3.633841e-10
-2.105171e-06
3.41312e-07
-0.0001889023
0.0001903421
4.238601e-10
-1.781521e-06
1.525687e-07
-0.00019451
0.000195833
3.256808e-10
-1.475958e-06
-2.85356e-08
-0.0001996731
0.0002008964
2.621359e-10
-1.195033e-06
-1.44234e-07
-0.0002044299
0.0002055452
2.913056e-10
-9.713727e-07
-2.689442e-07
-0.0002087524
0.0002097654
2.73059e-10
-7.442974e-07
-3.931053e-07
-0.0002126691
0.0002135826
2.534267e-10
-5.20624e-07
-5.043242e-07
-0.0002161896
0.0002170069
2.284078e-10
-3.132278e-07
-5.96569e-07
-0.0002193303
0.0002200591
2.064888e-10
-1.324031e-07
-6.56678e-07
-0.000222135
0.0002227989
1.874455e-10
-7.376341e-09
-6.391244e-07
-0.0002247233
0.0002253916
1.491469e-10
-2.935951e-08
4.708158e-07
-0.0002273627
0.0002275382
1.706526e-10
-6.46517e-07
9.969571e-07
-0.0002282287
0.0002284721
1.626838e-10
-1.240564e-06
1.048494e-06
-0.0002290721
0.0002292525
2.156189e-10
-1.229183e-06
1.041595e-06
-0.0002297222
0.0002298468
2.414196e-10
-1.166447e-06
1.025454e-06
-0.0002301407
0.0002302069
2.367698e-10
-1.091905e-06
1.008338e-06
-0.0002303289
0.0002303393
2.026919e-10
-1.018961e-06
9.908292e-07
-0.0002303034
0.000230266
1.346476e-10
-9.536476e-07
9.742926e-07
-0.0002300965
0.0002300191
4.435032e-11
-8.968652e-07
9.5939e-07
-0.0002297392
0.0002296292
-4.729026e-11
-8.492507e-07
9.459313e-07
-0.0002292616
0.0002291263
-1.307703e-10
-8.105406e-07
9.340826e-07
-0.0002286917
0.000228537
-1.805589e-10
-7.792172e-07
9.230824e-07
-0.0002280529
0.0002278849
-1.928042e-10
-7.548444e-07
9.137774e-07
-0.0002273674
0.0002271909
-1.90521e-10
-7.371273e-07
9.058489e-07
-0.0002266544
0.000226474
-1.765121e-10
-7.252492e-07
8.987499e-07
-0.0002259308
0.0002257501
-1.610248e-10
-7.17828e-07
8.915882e-07
-0.00022521
0.0002250317
-1.361358e-10
-7.131452e-07
8.835972e-07
-0.0002245016
0.0002243275
-1.108455e-10
-7.093914e-07
8.737639e-07
-0.0002238119
0.0002236429
-8.949784e-11
-7.047002e-07
8.613527e-07
-0.0002231428
0.0002229789
-6.957616e-11
-6.974106e-07
8.458947e-07
-0.0002224931
0.0002223333
-5.19831e-11
-6.860592e-07
8.271717e-07
-0.0002218574
0.0002216998
-4.09846e-11
-6.694634e-07
8.055311e-07
-0.0002212265
0.0002210682
-3.658018e-11
-6.47163e-07
7.818362e-07
-0.0002205889
0.0002204269
-3.121243e-11
-6.198189e-07
7.57369e-07
-0.0002199328
0.0002197646
-2.890668e-11
-5.890729e-07
7.336952e-07
-0.0002192483
0.0002190713
-3.198475e-11
-5.567316e-07
7.117374e-07
-0.0002185263
0.0002183388
-4.341997e-11
-5.24184e-07
6.928059e-07
-0.0002177597
0.0002175599
-4.911185e-11
-4.929581e-07
6.770871e-07
-0.0002169432
0.0002167302
-4.459051e-11
-4.640419e-07
6.660945e-07
-0.000216072
0.000215845
-3.972708e-11
-4.391173e-07
6.5887e-07
-0.0002151466
0.000214907
-3.363762e-11
-4.19188e-07
6.556069e-07
-0.000214173
0.0002139226
-3.028935e-11
-4.051647e-07
6.566992e-07
-0.0002131604
0.0002129022
-2.184149e-11
-3.98394e-07
6.622059e-07
-0.0002121209
0.000211858
-1.04915e-11
-3.992733e-07
6.716706e-07
-0.000211071
0.0002108079
1.89352e-11
-4.085714e-07
7.262418e-07
-0.0002100035
0.0002096587
1.66937e-10
-3.81671e-07
6.424348e-07
-0.0002073296
0.0008515444
1.481633e-12
-8.783844e-07
-1.902243e-07
6.433276e-07
-2.080534e-07
-0.0002073349
-0.0002184421
-0.000218447
1.801731e-07
-0.0008521638
0.0008507356
2.395559e-12
1.008767e-07
5.033085e-07
1.577178e-07
4.86137e-07
4.077353e-07
-0.0008493787
0.0008477531
3.740641e-12
-1.591353e-07
4.971108e-07
3.94854e-07
4.850507e-07
5.210863e-07
-0.0008461004
0.0008441763
4.983264e-12
-2.52006e-07
5.775262e-07
5.102981e-07
5.671707e-07
5.520809e-07
-0.000842154
0.0008399988
5.391992e-12
-7.65804e-08
5.72951e-07
5.427769e-07
5.64043e-07
5.452555e-07
-0.0008378282
0.0008355184
5.128901e-12
1.227944e-07
5.56285e-07
5.369091e-07
5.485103e-07
5.381786e-07
-0.000833152
0.0008306413
3.837758e-12
3.650836e-07
5.411872e-07
5.314588e-07
5.347923e-07
5.150049e-07
-0.0008280482
0.0008252572
2.016631e-12
7.383071e-07
5.163304e-07
5.098054e-07
5.115609e-07
4.751949e-07
-0.0008223252
0.000819148
-1.079523e-13
1.286957e-06
4.73876e-07
4.710747e-07
4.700407e-07
4.207443e-07
-0.0008157963
0.0008121706
-2.429489e-12
1.956438e-06
4.170936e-07
4.174965e-07
4.139764e-07
3.640064e-07
-0.0008083519
0.0008042459
-5.636296e-12
2.660937e-06
3.608232e-07
3.616074e-07
3.586164e-07
3.077433e-07
-0.0007999487
0.000795374
-8.528805e-12
3.354782e-06
3.038428e-07
3.060413e-07
3.02304e-07
2.436518e-07
-0.0007906279
0.0007856318
-1.047684e-11
4.035815e-06
2.375725e-07
2.425078e-07
2.365662e-07
1.668067e-07
-0.0007804942
0.0007751449
-1.173574e-11
4.700336e-06
1.584112e-07
1.660587e-07
1.577469e-07
7.890137e-08
-0.0007696881
0.0007640664
-1.225565e-11
5.327871e-06
6.845573e-08
7.842768e-08
6.804517e-08
-1.542219e-08
-0.0007583841
0.0007525753
-1.254055e-11
5.889399e-06
-2.467827e-08
-1.560196e-08
-2.483961e-08
-9.662144e-08
-0.0007467176
0.0007407885
-1.218543e-11
6.334987e-06
-1.062234e-07
-9.669688e-08
-1.06297e-07
-1.663056e-07
-0.0007348542
0.0007289074
-1.156245e-11
6.626744e-06
-1.736397e-07
-1.663482e-07
-1.73659e-07
-2.128094e-07
-0.0007229913
0.0007171246
-1.065658e-11
6.726209e-06
-2.169619e-07
-2.128014e-07
-2.169385e-07
-2.30722e-07
-0.0007113261
0.0007056443
-9.486519e-12
6.605638e-06
-2.312082e-07
-2.306862e-07
-2.311762e-07
-2.165811e-07
-0.0007000705
0.0006946841
-8.135682e-12
6.245985e-06
-2.131774e-07
-2.165769e-07
-2.131722e-07
-1.684598e-07
-0.0006894471
0.0006844693
-6.627655e-12
5.636942e-06
-1.611311e-07
-1.684412e-07
-1.61109e-07
-8.674586e-08
-0.0006796842
0.0006752324
-5.057993e-12
4.777531e-06
-7.617347e-08
-8.672489e-08
-7.61597e-08
2.716847e-08
-0.0006710282
0.0006672149
-3.192454e-12
3.673098e-06
4.285436e-08
2.72641e-08
4.291474e-08
1.781096e-07
-0.0006636742
0.0006605954
-1.328528e-12
2.328e-06
1.97265e-07
1.781115e-07
1.972743e-07
3.576517e-07
-0.0006578393
0.0006556051
6.786798e-13
7.541127e-07
3.824843e-07
3.575641e-07
3.823899e-07
5.644106e-07
-0.0006537323
0.0006524204
2.582991e-12
-1.010176e-06
5.967719e-07
5.642792e-07
5.966587e-07
8.084664e-07
-0.0006514589
0.0006511508
4.562497e-12
-2.991681e-06
8.416357e-07
8.082182e-07
8.414311e-07
1.070668e-06
-0.0006512115
0.0006519647
6.619552e-12
-5.10763e-06
1.106862e-06
1.070298e-06
1.106545e-06
1.352929e-06
-0.000653094
0.0006549516
8.405574e-12
-7.346783e-06
1.392175e-06
1.352407e-06
1.391703e-06
1.653524e-06
-0.0006571925
0.0006601864
9.989585e-12
-9.689611e-06
1.695002e-06
1.65282e-06
1.694327e-06
1.968907e-06
-0.0006635679
0.0006677152
1.117965e-11
-1.210619e-05
2.011553e-06
1.967907e-06
2.010557e-06
2.293927e-06
-0.0006722503
0.0006775533
1.218948e-11
-1.456367e-05
2.337605e-06
2.292646e-06
2.336451e-06
2.624299e-06
-0.0006832396
0.0006896867
1.290863e-11
-1.703094e-05
2.668872e-06
2.622965e-06
2.667645e-06
2.956765e-06
-0.000696508
0.0007040741
1.375209e-11
-1.947953e-05
3.001329e-06
2.955334e-06
2.999991e-06
3.286271e-06
-0.0007120015
0.000720647
1.427789e-11
-2.187488e-05
3.32992e-06
3.284702e-06
3.328428e-06
3.606669e-06
-0.0007296355
0.0007393019
1.475742e-11
-2.417315e-05
3.648387e-06
3.604941e-06
3.646726e-06
3.91162e-06
-0.0007492861
0.0007598951
1.509289e-11
-2.632967e-05
3.950542e-06
3.909762e-06
3.948754e-06
4.195941e-06
-0.0007707915
0.0007822499
1.522198e-11
-2.830919e-05
4.231365e-06
4.193972e-06
4.229462e-06
4.454921e-06
-0.0007939616
0.000806163
1.499362e-11
-3.007966e-05
4.486289e-06
4.452796e-06
4.484221e-06
4.684526e-06
-0.0008185798
0.0008314085
1.443673e-11
-3.161614e-05
4.711388e-06
4.682323e-06
4.709224e-06
4.881798e-06
-0.0008444142
0.0008577506
1.363889e-11
-3.290256e-05
4.903564e-06
4.879541e-06
4.901323e-06
5.041944e-06
-0.000871223
0.0008849333
1.276736e-11
-3.390618e-05
5.058358e-06
5.039567e-06
5.055988e-06
5.157821e-06
-0.000898733
0.0009126775
1.17601e-11
-3.459219e-05
5.168406e-06
5.155399e-06
5.165995e-06
5.205636e-06
-0.0009266752
0.0009407771
1.043813e-11
-3.491158e-05
5.201641e-06
5.203202e-06
5.19919e-06
5.130235e-06
-0.0009549937
0.0009693672
9.252994e-12
-3.480985e-05
5.090348e-06
5.127863e-06
5.087868e-06
5.030892e-06
-0.0009838406
0.0009983014
8.472184e-12
-3.456034e-05
5.02144e-06
5.028332e-06
5.018859e-06
5.026448e-06
-0.001012738
0.001027081
7.516033e-12
-3.444265e-05
5.02646e-06
5.023841e-06
5.023853e-06
5.001715e-06
-0.001041378
0.001055502
6.271169e-12
-3.410945e-05
4.993518e-06
4.999163e-06
4.9909e-06
4.926051e-06
-0.001069542
0.001083333
5.075397e-12
-3.346175e-05
4.911427e-06
4.923572e-06
4.908848e-06
4.809843e-06
-0.001097004
0.00111036
3.964172e-12
-3.255749e-05
4.793259e-06
4.807473e-06
4.79077e-06
4.664914e-06
-0.001123558
0.00113638
3.014632e-12
-3.145262e-05
4.652471e-06
4.662682e-06
4.650196e-06
4.499799e-06
-0.001148998
0.001161144
2.349167e-12
-3.015874e-05
4.508626e-06
4.498233e-06
4.505604e-06
4.254194e-06
-0.001172783
0.001184219
1.800046e-12
-2.843533e-05
4.248182e-06
4.250244e-06
4.246116e-06
3.760758e-06
-0.001196822
0.001208038
1.595186e-12
-2.648735e-05
3.87913e-06
3.757808e-06
3.873906e-06
3.688493e-06
-0.001218465
0.001228602
1.271071e-12
-2.466405e-05
3.574382e-06
3.688371e-06
3.575465e-06
3.351188e-06
-0.001238617
0.00124812
1.721742e-12
-2.27662e-05
3.278769e-06
3.352744e-06
3.280132e-06
3.051987e-06
-0.001257365
0.001266077
1.700255e-12
-2.079765e-05
2.989637e-06
3.053635e-06
2.991165e-06
2.747398e-06
-0.001274521
0.001282392
1.731411e-12
-1.875454e-05
2.693218e-06
2.748958e-06
2.694646e-06
2.449593e-06
-0.001289968
0.001296947
2.017663e-12
-1.668408e-05
2.401387e-06
2.450989e-06
2.402684e-06
2.164447e-06
-0.001303623
0.001309711
1.819579e-12
-1.466275e-05
2.121504e-06
2.165692e-06
2.122702e-06
1.902923e-06
-0.001315505
0.001320749
2.165368e-12
-1.278539e-05
1.866099e-06
1.904181e-06
1.867291e-06
1.676043e-06
-0.00132572
0.001330211
2.699332e-12
-1.113686e-05
1.645892e-06
1.677254e-06
1.647042e-06
1.486715e-06
-0.001334467
0.001338324
2.867088e-12
-9.756848e-06
1.461711e-06
1.487888e-06
1.462825e-06
1.334442e-06
-0.001341993
0.001345347
3.034665e-12
-8.652568e-06
1.313807e-06
1.335539e-06
1.314851e-06
1.209216e-06
-0.001348564
0.001351536
3.181291e-12
-7.776681e-06
1.191899e-06
1.210238e-06
1.192868e-06
1.09782e-06
-0.001354412
0.001357091
2.471725e-12
-7.037699e-06
1.081032e-06
1.098729e-06
1.081879e-06
9.845895e-07
-0.001359699
0.00136213
2.363099e-12
-6.334215e-06
9.66176e-07
9.853947e-07
9.669191e-07
8.569631e-07
-0.0013645
0.001366691
2.339711e-12
-5.576917e-06
8.356833e-07