/*--------------------------------*- C++ -*----------------------------------*\
| =========                 |                                                 |
| \\      /  F ield         | foam-extend: Open Source CFD                    |
|  \\    /   O peration     | Version:     3.1                                |
|   \\  /    A nd           | Web:         http://www.extend-project.de       |
|    \\/     M anipulation  |                                                 |
\*---------------------------------------------------------------------------*/
FoamFile
{
    version     2.0;
    format      ascii;
    class       volScalarField;
    location    "4.5";
    object      k;
}
// * * * * * * * * * * * * * * * * * * * * * * * * * * * * * * * * * * * * * //

dimensions      [0 2 -2 0 0 0 0];

internalField   nonuniform List<scalar> 
119952
(
0.01054192
0.009123349
0.008926823
0.0090937
0.00917888
0.009038567
0.00905971
0.009164984
0.009299832
0.009438087
0.009568672
0.009688607
0.009798373
0.009899364
0.009993369
0.01008241
0.01016889
0.01025676
0.01035593
0.01051131
0.01108773
0.01088696
0.01097383
0.01150542
0.01115462
0.01101149
0.01089904
0.01078659
0.01045943
0.009389246
0.01220361
0.009967136
0.009927228
0.01070746
0.01169903
0.01262269
0.01340369
0.01405955
0.01462195
0.0152705
0.01731647
0.02006647
0.02253388
0.02454683
0.02610804
0.02731391
0.02825569
0.0290112
0.02958395
0.03441776
0.03485658
0.03512272
0.03533406
0.03553414
0.03571244
0.03585204
0.03594385
0.03597886
0.0360211
0.03592847
0.03573496
0.03552808
0.03532515
0.03512668
0.03493043
0.03472915
0.03450686
0.03431825
0.03457616
0.03418913
0.03369131
0.03339984
0.03315018
0.03282279
0.0324238
0.03201506
0.03161288
0.0312212
0.03084112
0.03047202
0.03011244
0.02976106
0.02941649
0.02907762
0.02874326
0.028411
0.02807562
0.02773341
0.02743814
0.02717126
0.02683917
0.02661586
0.02658991
0.02645759
0.02625886
0.02608938
0.02592605
0.02518093
0.02454758
0.02406257
0.02365499
0.02328774
0.02294845
0.0226311
0.0223302
0.02204276
0.02176729
0.02150305
0.02124962
0.02100675
0.02077431
0.02055227
0.02034065
0.02013951
0.01994893
0.01976903
0.01959991
0.01944162
0.01929433
0.01915814
0.01903282
0.01891812
0.01881373
0.01871931
0.01863442
0.01855855
0.01849107
0.01843129
0.01837843
0.01833166
0.01829005
0.01825262
0.01821837
0.01818608
0.01815492
0.01812419
0.01809251
0.01805874
0.01802218
0.01798202
0.01793733
0.01788731
0.01783125
0.01776864
0.0176988
0.01762024
0.01753431
0.01745664
0.01740724
0.01735868
0.01730846
0.01725295
0.01719085
0.01712185
0.01704645
0.01696539
0.01687941
0.01678974
0.01669722
0.01660334
0.01650914
0.0164154
0.01632279
0.01623207
0.01614365
0.01605791
0.01597518
0.01589574
0.0158198
0.01574755
0.01567912
0.01561463
0.01555413
0.01549769
0.01544532
0.01539703
0.0153528
0.01531259
0.01527635
0.01524401
0.01521553
0.01519082
0.0151698
0.01515222
0.01513777
0.01512625
0.01511747
0.01511133
0.01510772
0.01510656
0.01510779
0.01511142
0.0151173
0.01512549
0.01513592
0.01514533
0.01515724
0.01528351
0.01554039
0.01567897
0.01575514
0.01579258
0.01580689
0.01580775
0.01580102
0.01578873
0.01576571
0.01573614
0.01570452
0.01567374
0.01564584
0.01562198
0.01560277
0.01558895
0.01558087
0.0155785
0.015582
0.01559146
0.01560681
0.01562809
0.01565542
0.01568889
0.01572863
0.01577464
0.01582723
0.01588654
0.01594907
0.01601372
0.01608141
0.01615279
0.0162269
0.01630269
0.01634252
0.01642539
0.01652621
0.01662831
0.01672293
0.01680883
0.01688572
0.01695327
0.01701148
0.01706064
0.01710115
0.01713354
0.01715844
0.01717648
0.01718829
0.01719453
0.0171958
0.01719268
0.01718565
0.01717519
0.01716171
0.01714562
0.01712723
0.01710687
0.01708479
0.01706123
0.01703635
0.01701029
0.01698324
0.01695531
0.01692664
0.01689728
0.01686743
0.01683824
0.01680883
0.01622162
0.01628697
0.01630046
0.01624594
0.01614827
0.01602593
0.01589452
0.0157648
0.01564356
0.01553446
0.01543903
0.01535767
0.01528975
0.01523415
0.01518944
0.01515411
0.01512685
0.01510657
0.01509234
0.01508335
0.01507891
0.01507835
0.01508102
0.01508641
0.01509407
0.01510373
0.01511511
0.01512799
0.01514244
0.01515802
0.01517419
0.01519071
0.01520758
0.01522445
0.01524121
0.01525779
0.01527379
0.01528929
0.0153035
0.0153154
0.0153253
0.0153343
0.01534318
0.01535255
0.01536387
0.01537694
0.01538381
0.01538787
0.01539184
0.01539513
0.01539835
0.01540168
0.015404
0.01541718
0.01547157
0.01544778
0.01541578
0.01537589
0.01532937
0.01527717
0.0152209
0.01516266
0.01510479
0.01504937
0.01499799
0.01495187
0.01491181
0.01487838
0.01485197
0.01483277
0.01482084
0.01481606
0.01481826
0.0148272
0.01484271
0.01486453
0.01489238
0.01492598
0.014965
0.01500864
0.01505601
0.0151063
0.01515871
0.01521255
0.01526725
0.01532217
0.01537667
0.01543005
0.01548163
0.015531
0.0155781
0.01562322
0.01566683
0.01570928
0.01575077
0.01579171
0.01583228
0.01587255
0.01591253
0.01595225
0.01599173
0.01603102
0.01607015
0.01610916
0.01614809
0.016187
0.01622591
0.01626477
0.0163036
0.01634248
0.01638143
0.0164205
0.01645972
0.01649911
0.01653867
0.01657841
0.01661831
0.01665838
0.0166986
0.01673894
0.01677938
0.0168199
0.01686047
0.01690106
0.01694165
0.01698221
0.01702272
0.01706317
0.01710356
0.0171439
0.01718421
0.01722452
0.01726498
0.01730579
0.01734749
0.01739187
0.01744444
0.01759032
0.01800588
0.03076453
0.02836016
0.0274345
0.0272765
0.02748484
0.02782608
0.02814452
0.02837086
0.02849261
0.02839519
0.02966945
0.03157804
0.03357367
0.03536993
0.03686253
0.03804835
0.03896742
0.03966353
0.04564421
0.0459926
0.04624318
0.04637898
0.04650155
0.04667757
0.04693039
0.04725425
0.04762961
0.04805339
0.04855824
0.0488291
0.04910559
0.04943576
0.04983331
0.05030463
0.0508485
0.0514418
0.05205323
0.05276154
0.0532322
0.05365838
0.05412936
0.05463097
0.05515347
0.05567703
0.05618332
0.0566555
0.05708894
0.05744692
0.05772711
0.05793427
0.05807729
0.05816607
0.05820242
0.05818485
0.05811158
0.05798053
0.06220863
0.06183834
0.06141209
0.06092688
0.06038841
0.05980434
0.05918187
0.05852861
0.05784778
0.05714592
0.05642841
0.05569575
0.05495089
0.05420043
0.05344957
0.05270125
0.05196448
0.05126045
0.0506431
0.05003484
0.04932747
0.04864484
0.04801508
0.04739412
0.04675414
0.04610263
0.04545281
0.04481002
0.04417839
0.0435609
0.04295908
0.04237329
0.04180305
0.04124712
0.04070373
0.04017025
0.03964422
0.03912514
0.03862014
0.03813704
0.0376609
0.03721678
0.03684638
0.0365165
0.03618852
0.03586185
0.03550222
0.03503148
0.03446487
0.03393631
0.03345477
0.0329953
0.03255542
0.03213226
0.03172316
0.03132629
0.0309406
0.03056571
0.03020166
0.02984865
0.02950698
0.02917702
0.02885914
0.02855376
0.02826128
0.02798209
0.02771653
0.02746493
0.02722757
0.02700463
0.02679616
0.0266022
0.0264227
0.02625751
0.0261064
0.02596899
0.02584482
0.02573329
0.0256337
0.02554523
0.02546695
0.02539785
0.02533679
0.02528257
0.02523392
0.02518953
0.02514809
0.02510825
0.02506861
0.02502783
0.0249846
0.02493772
0.02488599
0.0248283
0.02476352
0.02469072
0.02460945
0.02451986
0.02442274
0.024317
0.02420039
0.02407323
0.02393631
0.02379033
0.02363612
0.02347463
0.02330704
0.02313466
0.02295909
0.0227823
0.02260483
0.02242731
0.02225062
0.02207579
0.02190382
0.02173549
0.0215715
0.02141246
0.02125888
0.02111123
0.02096984
0.020835
0.0207069
0.02058565
0.02047127
0.02036375
0.02026298
0.02016882
0.02008108
0.01999952
0.01992387
0.01985388
0.01978921
0.01972957
0.01967462
0.01962407
0.01957755
0.01953479
0.01949543
0.01945922
0.01942576
0.01939488
0.01936616
0.0193394
0.01931412
0.01929006
0.01926729
0.01924981
0.01900582
0.01871776
0.01851202
0.018359
0.01824231
0.01815024
0.01807572
0.01801426
0.01796273
0.01791884
0.01788091
0.01784756
0.01781775
0.01779061
0.01776546
0.01774176
0.01771906
0.01769702
0.01767538
0.01765394
0.01763255
0.01761112
0.01758957
0.01756788
0.017546
0.01752394
0.01750173
0.01747938
0.01745695
0.01743449
0.01741199
0.01738929
0.01736613
0.01734222
0.01731911
0.0172992
0.0172906
0.01729481
0.01730474
0.01731758
0.01733232
0.01734837
0.01736532
0.01738294
0.01740111
0.01741974
0.01743882
0.01745833
0.01747824
0.01749857
0.01751929
0.01754041
0.01756192
0.01758382
0.01760612
0.01762883
0.017652
0.01767567
0.01769988
0.0177247
0.01775014
0.01777626
0.01780309
0.01783067
0.01785905
0.01788827
0.01791839
0.01794943
0.01798127
0.01801333
0.01914474
0.01917609
0.01922017
0.01926885
0.01931815
0.01936652
0.01941347
0.0194587
0.01950202
0.01954351
0.01958336
0.01962183
0.01965914
0.0196954
0.01973069
0.01976503
0.01979856
0.01983146
0.01986393
0.01989618
0.01992843
0.01996089
0.01999374
0.02002712
0.02006115
0.02009592
0.02013151
0.02016798
0.02020534
0.02024364
0.02028293
0.02032317
0.02036434
0.02040636
0.02044917
0.02049267
0.02053671
0.02058111
0.02062572
0.02067046
0.02071533
0.0207604
0.02080573
0.02085127
0.02089682
0.02094154
0.02098445
0.02102637
0.02106831
0.02111086
0.02115421
0.02119853
0.02124428
0.02129552
0.02134844
0.02139335
0.02143435
0.02147383
0.02151284
0.02155165
0.0215901
0.02162802
0.0216652
0.02170147
0.02173672
0.02177092
0.02180413
0.02183648
0.0218681
0.02189918
0.02192992
0.02196057
0.0219914
0.02202267
0.02205464
0.0220876
0.02212179
0.02215746
0.02219482
0.02223402
0.02227518
0.02231837
0.02236368
0.02241121
0.02246108
0.02251336
0.02256795
0.02262465
0.02268311
0.02274301
0.02280403
0.02286592
0.0229285
0.02299162
0.02305514
0.02311896
0.02318295
0.023247
0.02331101
0.0233749
0.02343861
0.02350206
0.02356524
0.02362811
0.02369067
0.0237529
0.02381483
0.02387645
0.02393778
0.02399883
0.02405961
0.02412013
0.0241804
0.02424043
0.0243002
0.02435972
0.02441896
0.02447793
0.0245366
0.02459493
0.02465292
0.02471052
0.0247677
0.02482444
0.0248807
0.02493644
0.02499165
0.02504631
0.02510041
0.02515404
0.02520725
0.02526052
0.02531425
0.02537125
0.0254343
0.02551816
0.0256334
0.02581587
0.0259156
0.03304408
0.03619536
0.0394786
0.04263419
0.04557859
0.04816789
0.05049501
0.05255757
0.05440373
0.05709021
0.07419503
0.08638842
0.09280394
0.09628318
0.09827389
0.09946332
0.1001737
0.1005634
0.1006493
0.1134369
0.112969
0.1123289
0.1117415
0.1112228
0.1107109
0.1101528
0.1095234
0.108816
0.1080765
0.1072224
0.106127
0.104969
0.1038393
0.102758
0.1017256
0.1007303
0.09975608
0.0988351
0.09795018
0.09678699
0.09557514
0.09438038
0.09319794
0.09203774
0.09090448
0.08979731
0.08871994
0.08767137
0.0866202
0.0856443
0.08472475
0.08383827
0.0829826
0.08215144
0.08133254
0.08059692
0.08629112
0.08561611
0.08504107
0.08451262
0.08399069
0.08347774
0.0829847
0.08252329
0.08209942
0.08172358
0.08139024
0.08108973
0.08082163
0.08059727
0.08041985
0.08028177
0.08016731
0.08007409
0.080009
0.07996746
0.07994083
0.07995383
0.08001534
0.08010438
0.08020636
0.08030737
0.08039552
0.08046005
0.0804915
0.08047438
0.0803988
0.08026273
0.08006443
0.07980168
0.07947435
0.07907973
0.07862656
0.07809939
0.07744479
0.07674778
0.07600013
0.07519704
0.07434532
0.07345278
0.07252516
0.07156741
0.07058427
0.06958059
0.06856068
0.06752768
0.06648734
0.06544641
0.06441097
0.06338724
0.06238409
0.0614132
0.06048812
0.05959409
0.05868529
0.05778197
0.05691262
0.05607114
0.05523968
0.0544121
0.05359317
0.05278853
0.05200199
0.05123558
0.05049012
0.04976555
0.04906118
0.04837569
0.04770739
0.04705419
0.04641469
0.0457885
0.04517865
0.04458922
0.04402319
0.04348547
0.04299359
0.04254331
0.04210823
0.04167151
0.04121764
0.04071609
0.04015498
0.03957837
0.03902207
0.03849208
0.03798299
0.03748969
0.03700977
0.03654234
0.036087
0.03564354
0.03521197
0.03479248
0.03438542
0.0339912
0.0336103
0.03324318
0.03289033
0.03255221
0.03222927
0.0319219
0.03163045
0.03135521
0.03109636
0.03085404
0.0306283
0.03041908
0.03022624
0.0300495
0.0298885
0.02974276
0.02961167
0.02949451
0.02939045
0.02929854
0.02921774
0.0291469
0.02908477
0.02903005
0.02898137
0.02893732
0.02889645
0.0288573
0.02881846
0.02877851
0.0287361
0.02868993
0.02863879
0.02858157
0.02851745
0.02844594
0.0283668
0.0282794
0.02818259
0.02807589
0.02795934
0.02783315
0.02769767
0.02755339
0.02740084
0.02724055
0.0270729
0.02689809
0.02671766
0.0265335
0.02634747
0.02616172
0.02597784
0.02579639
0.02561826
0.02544436
0.02527544
0.02511213
0.02495499
0.02480446
0.02466091
0.02452461
0.02439573
0.02427436
0.02416053
0.02405417
0.02395516
0.02386331
0.02377841
0.02370018
0.02362835
0.02356258
0.02350256
0.02344791
0.02339834
0.02335342
0.0233129
0.02327634
0.02324352
0.02321398
0.02318763
0.02316387
0.02314288
0.02312389
0.02310752
0.02309117
0.02305373
0.02302771
0.02300954
0.0229967
0.02298733
0.02298012
0.02297414
0.02296877
0.02296361
0.02295842
0.02295305
0.02294741
0.02294145
0.02293515
0.02292851
0.02292152
0.02291418
0.0229065
0.02289848
0.02289015
0.02288152
0.02287261
0.02286347
0.0228541
0.02284455
0.02283487
0.0228252
0.02281577
0.02280722
0.02279972
0.02279323
0.02278787
0.02278348
0.02277892
0.02277488
0.02277304
0.02277543
0.02278187
0.0227909
0.02280184
0.02281425
0.02282772
0.02284197
0.02285677
0.022872
0.02288755
0.02290334
0.02291934
0.0229355
0.02295181
0.02296825
0.02298483
0.02300154
0.0230184
0.02303543
0.02305269
0.0230702
0.02308803
0.02310623
0.02312487
0.02314399
0.02316366
0.02318395
0.02320492
0.02322663
0.02324917
0.02327256
0.02329691
0.02332241
0.02335195
0.02338193
0.02341309
0.02344213
0.02346938
0.02349706
0.0235266
0.02355817
0.02359126
0.02362549
0.02366077
0.02369714
0.02373453
0.02377284
0.0238119
0.02385152
0.02389157
0.02393196
0.02397263
0.02401354
0.02405469
0.02409608
0.02413774
0.02417971
0.024222
0.02426465
0.0243077
0.02435116
0.02439508
0.02443946
0.02448432
0.02452967
0.02457549
0.02462177
0.02466846
0.02471552
0.0247629
0.02481049
0.02485822
0.02490603
0.02495392
0.02500188
0.02504994
0.0250981
0.02514632
0.02519462
0.02524312
0.02529143
0.02533908
0.02538581
0.0254315
0.02547588
0.02551939
0.02556229
0.02560492
0.02564525
0.02568597
0.02572814
0.02577153
0.0258155
0.02585956
0.02590361
0.02594773
0.02599197
0.02603626
0.02608062
0.02612502
0.02616941
0.02621373
0.02625796
0.02630208
0.02634608
0.02638999
0.02643385
0.02647772
0.02652167
0.02656579
0.02661017
0.02665491
0.02670013
0.02674593
0.02679243
0.02683975
0.02688809
0.02693768
0.02698876
0.02704155
0.02709615
0.02715255
0.02721063
0.02727022
0.02733112
0.02739315
0.02745616
0.02752001
0.02758458
0.02764973
0.02771536
0.02778134
0.02784755
0.0279139
0.02798029
0.02804665
0.02811291
0.02817903
0.02824496
0.02831068
0.02837617
0.02844143
0.02850647
0.02857127
0.02863585
0.02870021
0.02876435
0.02882827
0.02889198
0.02895544
0.02901865
0.02908159
0.02914422
0.02920652
0.02926846
0.02933001
0.02939112
0.02945177
0.02951193
0.02957157
0.02963069
0.02968931
0.02974749
0.0298054
0.02986333
0.02992203
0.02998246
0.03004765
0.03011973
0.03021015
0.03031317
0.03046034
0.03052107
0.02813404
0.03507814
0.04181091
0.07227589
0.09602329
0.1281387
0.1440324
0.1583617
0.169218
0.17797
0.1862822
0.1932841
0.1980009
0.2013747
0.2033987
0.2044672
0.2047673
0.2043991
0.2034474
0.2019945
0.2001059
0.1979215
0.1955035
0.1929149
0.1902891
0.1876551
0.1849989
0.1823084
0.1795902
0.1768331
0.1739791
0.1764408
0.1738582
0.171224
0.168585
0.1659801
0.1634305
0.1609457
0.1585357
0.1562036
0.1539342
0.151726
0.1495866
0.1474994
0.1454613
0.1434751
0.1415428
0.1396662
0.1378472
0.1360777
0.1343466
0.1326644
0.1310291
0.129427
0.127855
0.1263348
0.1248601
0.1234269
0.1220213
0.1206265
0.1192303
0.1178418
0.1164584
0.1150913
0.1137301
0.1124033
0.1110449
0.1096908
0.1083943
0.1071166
0.1058597
0.1046653
0.1035506
0.1025132
0.1015486
0.100657
0.09983799
0.09909279
0.0984154
0.09780218
0.09725752
0.09678311
0.09637455
0.09602413
0.09572738
0.09548049
0.09527982
0.09511448
0.09497107
0.09483317
0.09468552
0.0945388
0.09441376
0.09430604
0.09419907
0.09407748
0.0939284
0.09373887
0.09349875
0.09320177
0.09284346
0.09241975
0.09192907
0.09136715
0.09073852
0.09002882
0.08924196
0.08838949
0.08747514
0.08650012
0.08546966
0.08439049
0.08326868
0.08210993
0.08092003
0.07970443
0.07846853
0.07721818
0.07596008
0.07470126
0.0734488
0.07220978
0.07099178
0.06980196
0.06864801
0.06752824
0.06642325
0.06533229
0.06427082
0.06324239
0.06223829
0.06125198
0.06028442
0.0593394
0.05841963
0.05752633
0.05665975
0.05581952
0.05500477
0.05421417
0.05344618
0.05269914
0.05197186
0.0512639
0.05057659
0.04991303
0.049276
0.04866758
0.04809317
0.04755077
0.04702648
0.0465051
0.04597416
0.04541874
0.04483091
0.04422883
0.04363519
0.04305893
0.04249904
0.04195285
0.04141908
0.04089746
0.04038792
0.03989044
0.03940506
0.03893204
0.03847177
0.03802473
0.03759145
0.03717248
0.0367684
0.03637975
0.03600706
0.03565084
0.03531152
0.0349895
0.03468509
0.03439854
0.03413001
0.03387958
0.03364721
0.0334328
0.03323609
0.03305675
0.03289432
0.03274822
0.03261774
0.03250207
0.03240027
0.03231129
0.03223397
0.03216705
0.03210918
0.03205896
0.0320149
0.03197551
0.03193928
0.03190471
0.03187035
0.03183477
0.03179665
0.03175474
0.03170795
0.03165542
0.03159641
0.03153016
0.03145567
0.03137214
0.03127919
0.03117671
0.03106475
0.03094353
0.03081338
0.03067473
0.03052814
0.03037433
0.03021423
0.03004881
0.029879
0.02970549
0.02952924
0.02935236
0.02917706
0.02900498
0.02883678
0.02867323
0.02851501
0.02836267
0.02821671
0.02807752
0.02794539
0.02782053
0.02770308
0.02759308
0.0274905
0.02739524
0.02730716
0.02722606
0.0271517
0.0270838
0.02702208
0.0269662
0.02691586
0.0268707
0.0268304
0.02679462
0.02676304
0.02673532
0.0267112
0.02669033
0.02667256
0.0266575
0.02664516
0.02663487
0.0266252
0.02661654
0.0266089
0.02660231
0.02659684
0.02659245
0.02658904
0.02658645
0.02658453
0.02658313
0.0265821
0.02658133
0.02658072
0.02658018
0.02657963
0.02657902
0.02657832
0.02657748
0.02657648
0.02657536
0.02657417
0.02657303
0.02657206
0.02657104
0.02656995
0.0265688
0.02656765
0.02656647
0.02656493
0.02656308
0.02656127
0.02655973
0.02655864
0.02655808
0.0265583
0.02655981
0.02656335
0.02656918
0.02657697
0.02658632
0.02659689
0.02660844
0.02662077
0.02663372
0.0266472
0.02666109
0.02667534
0.02668989
0.02670471
0.02671976
0.02673503
0.0267505
0.02676617
0.02678204
0.02679812
0.02681444
0.02683103
0.02684792
0.02686516
0.02688279
0.02690086
0.02691943
0.02693855
0.02695827
0.02697868
0.02699979
0.02702174
0.0270445
0.02706834
0.02709322
0.02711929
0.0271462
0.02717411
0.0272031
0.0272332
0.02726443
0.02729674
0.02733001
0.02736415
0.02739921
0.02743527
0.02747239
0.02751056
0.02754974
0.02758984
0.02763078
0.02767247
0.02771483
0.02775777
0.02780127
0.0278453
0.02788983
0.02793486
0.02798039
0.02802642
0.02807295
0.02811997
0.02816747
0.02821546
0.02826391
0.0283128
0.02836211
0.02841179
0.0284618
0.02851209
0.02856257
0.02861318
0.02866385
0.02871456
0.02876537
0.02881638
0.02886751
0.02891842
0.02896886
0.02901845
0.02906657
0.02911322
0.02915881
0.02920362
0.0292479
0.02929171
0.02933529
0.02937877
0.02942267
0.02946683
0.02951094
0.02955477
0.02959842
0.02964214
0.02968623
0.02973095
0.02977645
0.02982277
0.02986985
0.02991764
0.02996608
0.03001509
0.0300646
0.03011454
0.03016486
0.03021549
0.0302664
0.03031754
0.03036887
0.03042039
0.03047206
0.03052389
0.03057587
0.03062803
0.03068038
0.03073299
0.03078594
0.03083938
0.03089349
0.0309485
0.03100461
0.03106195
0.03112059
0.0311805
0.03124161
0.03130383
0.03136705
0.03143119
0.03149614
0.03156181
0.03162812
0.03169496
0.03176224
0.03182985
0.03189769
0.03196568
0.03203372
0.03210175
0.03216969
0.03223751
0.03230514
0.03237257
0.03243976
0.03250669
0.03257336
0.03263977
0.03270591
0.0327718
0.03283748
0.03290296
0.03296825
0.03303333
0.03309818
0.03316276
0.03322706
0.03329103
0.03335463
0.03341784
0.03348063
0.03354296
0.03360484
0.03366626
0.0337273
0.03378806
0.03384879
0.0339099
0.03397218
0.03403673
0.0341058
0.03418099
0.03426835
0.03436009
0.03447743
0.03452398
0.01554087
0.01860972
0.02175508
0.03243738
0.04441835
0.06555525
0.07866096
0.09158994
0.1046933
0.1173737
0.1299538
0.1430917
0.1565418
0.1697619
0.1826904
0.1956775
0.2196896
0.2273907
0.2339338
0.2382632
0.2415177
0.2440171
0.2454154
0.2455062
0.2444675
0.2424924
0.2398081
0.2366019
0.2330244
0.2291989
0.2252177
0.2211591
0.2170974
0.2130748
0.2091194
0.2052549
0.2015059
0.1978823
0.194398
0.1910492
0.1878497
0.1847417
0.1813403
0.1781932
0.1752649
0.1724979
0.1698684
0.1673719
0.1650039
0.1627564
0.1606215
0.1585863
0.156615
0.1547111
0.1528731
0.1511034
0.1494056
0.1477823
0.1462324
0.1447543
0.143346
0.142003
0.1407113
0.1394609
0.138239
0.1370529
0.1358861
0.1347347
0.1335961
0.1324665
0.1313394
0.1302112
0.1290804
0.1279434
0.1268013
0.1256518
0.1245034
0.1233458
0.122198
0.1210789
0.1199354
0.1187741
0.1176325
0.1165317
0.1154739
0.1144583
0.1134879
0.1125669
0.1116991
0.1108867
0.1101318
0.1094371
0.1088037
0.1082313
0.1077185
0.1072641
0.1068648
0.1065161
0.1062112
0.1059417
0.1056987
0.1054729
0.1052512
0.1050102
0.1047547
0.104501
0.1042381
0.1039529
0.1036338
0.1032709
0.1028563
0.1023843
0.1018497
0.1012493
0.1005793
0.09983903
0.09902589
0.09813925
0.09718276
0.09616066
0.09507573
0.09393186
0.09273438
0.09148906
0.09020171
0.08887827
0.08752474
0.08614731
0.08475252
0.08334729
0.08193883
0.08053452
0.07914154
0.07776696
0.07641713
0.07509755
0.07380935
0.07254609
0.07130639
0.07009698
0.06892152
0.06777729
0.06666092
0.06557235
0.06451354
0.06348622
0.06249118
0.06152843
0.06059745
0.05969733
0.05882677
0.05798429
0.0571684
0.05637791
0.05561223
0.05487174
0.05415777
0.05347152
0.05281349
0.05218445
0.05158182
0.05099712
0.05041924
0.04983823
0.04924557
0.04863707
0.04802014
0.04740702
0.04680506
0.04621567
0.04563804
0.04507156
0.04451613
0.04397186
0.04343886
0.04291733
0.04240758
0.04191007
0.04142533
0.04095397
0.04049661
0.0400539
0.03962649
0.03921501
0.03882006
0.0384422
0.03808196
0.03773977
0.03741601
0.037111
0.03682495
0.03655799
0.03631017
0.03608142
0.03587156
0.0356803
0.03550723
0.03535183
0.03521343
0.03509124
0.03498437
0.03489175
0.03481223
0.03474453
0.0346873
0.03463907
0.03459837
0.03456365
0.03453338
0.03450604
0.03448015
0.03445428
0.03442707
0.03439726
0.03436374
0.03432545
0.03428135
0.0342303
0.03417129
0.03410354
0.03402664
0.03394046
0.03384503
0.03374049
0.03362714
0.03350539
0.03337583
0.03323917
0.03309621
0.03294782
0.03279495
0.03263866
0.03248
0.03231977
0.03215907
0.03200008
0.03184467
0.03169351
0.03154724
0.03140641
0.0312715
0.0311429
0.03102089
0.03090571
0.03079748
0.03069628
0.03060208
0.03051483
0.0304344
0.03036062
0.03029327
0.03023212
0.0301769
0.03012733
0.03008309
0.0300439
0.03000944
0.0299794
0.02995348
0.02993139
0.02991284
0.02989758
0.02988534
0.02987589
0.02986895
0.02986414
0.02986109
0.02985948
0.02985907
0.02985972
0.02986133
0.02986377
0.0298669
0.02987062
0.0298748
0.02987935
0.02988417
0.0298892
0.02989434
0.02989956
0.02990483
0.02991019
0.02991553
0.02992064
0.02992542
0.02992981
0.02993371
0.02993703
0.02993998
0.02994269
0.02994525
0.02994772
0.02995013
0.02995251
0.02995495
0.02995754
0.02996036
0.0299635
0.02996705
0.02997111
0.0299759
0.02998169
0.02998875
0.02999706
0.03000647
0.0300168
0.03002789
0.03003963
0.03005191
0.03006465
0.03007777
0.03009123
0.03010498
0.03011898
0.03013323
0.03014769
0.03016237
0.03017726
0.03019236
0.03020768
0.03022324
0.03023907
0.0302552
0.03027167
0.0302885
0.03030576
0.03032349
0.03034174
0.03036056
0.03038001
0.03040015
0.03042105
0.03044274
0.0304653
0.03048869
0.03051296
0.03053816
0.03056439
0.03059167
0.03062
0.03064947
0.03068012
0.03071195
0.0307449
0.03077897
0.03081415
0.03085047
0.03088794
0.03092654
0.03096621
0.03100687
0.03104845
0.03109087
0.03113408
0.03117803
0.03122269
0.03126804
0.03131406
0.03136075
0.0314081
0.03145608
0.03150469
0.03155392
0.03160373
0.03165412
0.03170503
0.03175644
0.03180829
0.03186053
0.0319131
0.031966
0.03201916
0.03207225
0.03212505
0.0321774
0.03222914
0.03228028
0.03233095
0.03238109
0.03243056
0.03247919
0.03252693
0.03257386
0.03262013
0.03266591
0.03271131
0.03275645
0.03280139
0.03284627
0.03289111
0.03293589
0.03298081
0.03302611
0.03307191
0.03311828
0.03316531
0.03321308
0.03326163
0.03331098
0.03336112
0.03341201
0.03346366
0.03351601
0.03356903
0.03362267
0.03367689
0.03373163
0.03378685
0.03384249
0.0338985
0.03395482
0.03401141
0.03406823
0.03412523
0.0341824
0.03423974
0.03429729
0.03435515
0.03441342
0.03447228
0.03453186
0.03459229
0.03465363
0.0347159
0.03477907
0.03484312
0.03490798
0.03497361
0.03503995
0.03510694
0.03517452
0.03524262
0.03531117
0.03538008
0.03544929
0.03551871
0.03558826
0.03565787
0.03572749
0.03579703
0.03586645
0.03593569
0.0360047
0.03607342
0.03614179
0.03620974
0.03627721
0.03634412
0.03641038
0.03647628
0.03654201
0.03660759
0.03667299
0.0367382
0.03680319
0.03686791
0.03693234
0.03699645
0.03706021
0.0371236
0.03718663
0.03724932
0.03731176
0.03737409
0.03743659
0.03749968
0.03756404
0.0376306
0.03770083
0.03777561
0.03785787
0.0379406
0.03803942
0.03806916
0.006968947
0.008338918
0.009516666
0.01533521
0.02177039
0.03052123
0.03717389
0.04455531
0.05236751
0.06058602
0.06930722
0.07938097
0.09009198
0.1015551
0.1147213
0.1361502
0.1474461
0.159219
0.1711254
0.1831637
0.1953673
0.2072842
0.2183848
0.2286441
0.2377814
0.2446671
0.2490182
0.2522983
0.2535808
0.2528618
0.2507096
0.2475511
0.2435154
0.2386637
0.233188
0.2273214
0.2212679
0.2151885
0.2092024
0.2034098
0.1978412
0.192525
0.1875091
0.1828067
0.1784156
0.1743283
0.1705329
0.1670196
0.1637709
0.1607747
0.1580099
0.1554608
0.1530909
0.1508908
0.1488715
0.1470226
0.145337
0.1437988
0.1423967
0.1411205
0.1399601
0.1389057
0.1379395
0.1370534
0.1362418
0.1355006
0.1348229
0.1341989
0.1336325
0.1331253
0.132678
0.1322821
0.1318811
0.1314884
0.1311292
0.1308027
0.1305028
0.1302246
0.1299606
0.1297017
0.1294387
0.129163
0.1288653
0.1285373
0.1281729
0.1277679
0.1273216
0.1268343
0.126305
0.1257331
0.1251083
0.1244322
0.1237213
0.1229909
0.1222485
0.1214983
0.1207462
0.119999
0.1192637
0.1185461
0.1178516
0.1171851
0.1165512
0.1159539
0.1153958
0.1148783
0.1144013
0.1139634
0.113562
0.1131928
0.1128508
0.1125307
0.1122255
0.1119236
0.1116097
0.1112669
0.110905
0.1105208
0.1101052
0.1096503
0.1091493
0.1085968
0.1079877
0.1073183
0.106585
0.1057857
0.1049193
0.1039848
0.1029832
0.1019168
0.100788
0.09959998
0.09835677
0.09706327
0.09572469
0.09434654
0.09293461
0.091495
0.09003412
0.08855873
0.08707588
0.08559275
0.08411636
0.08265346
0.08121002
0.0797909
0.07839877
0.07703321
0.07569462
0.0743865
0.07311194
0.07187125
0.07066363
0.0694893
0.06834953
0.06724559
0.06617818
0.06514737
0.0641527
0.06319335
0.06226816
0.06137577
0.06051478
0.05968395
0.05888241
0.05810973
0.0573659
0.05665083
0.05596388
0.05530383
0.05466767
0.0540494
0.05344112
0.05283545
0.05222674
0.0516122
0.05099439
0.05037943
0.04977231
0.04917498
0.04858749
0.04800962
0.04744138
0.04688291
0.04633444
0.04579622
0.04526862
0.0447521
0.04424725
0.04375469
0.04327509
0.04280916
0.04235763
0.04192122
0.04150063
0.04109653
0.04070957
0.04034033
0.03998934
0.03965706
0.03934388
0.03905011
0.03877596
0.03852156
0.03828692
0.03807195
0.03787644
0.03770006
0.03754234
0.03740268
0.03728034
0.03717442
0.0370839
0.03700761
0.03694429
0.03689254
0.03685094
0.03681797
0.03679212
0.03677186
0.03675564
0.03674192
0.03672924
0.03671631
0.03670193
0.03668486
0.03666384
0.03663751
0.03660449
0.03656343
0.03651332
0.03645425
0.03638621
0.03630915
0.03622318
0.03612851
0.03602554
0.03591482
0.03579702
0.03567294
0.03554345
0.03540953
0.03527214
0.03513226
0.03499092
0.03484903
0.03470752
0.03456851
0.03443334
0.03430257
0.03417671
0.03405619
0.03394137
0.03383254
0.03372991
0.03363362
0.03354375
0.0334603
0.03338321
0.0333124
0.03324771
0.03318897
0.03313596
0.03308846
0.03304621
0.03300895
0.03297641
0.03294831
0.03292438
0.03290428
0.03288775
0.03287456
0.03286446
0.03285723
0.0328526
0.03285031
0.03285008
0.03285162
0.03285468
0.03285905
0.03286455
0.03287103
0.03287832
0.03288628
0.0328948
0.03290377
0.03291309
0.03292272
0.03293256
0.03294231
0.03295179
0.03296084
0.03296943
0.03297769
0.03298566
0.03299332
0.03300068
0.03300777
0.03301463
0.03302129
0.03302779
0.03303418
0.0330405
0.0330468
0.03305313
0.03305955
0.03306611
0.03307285
0.03307982
0.03308706
0.03309468
0.03310279
0.03311156
0.03312105
0.03313123
0.03314204
0.03315338
0.03316518
0.03317738
0.03318992
0.03320275
0.03321583
0.03322913
0.03324263
0.03325632
0.03327019
0.03328423
0.03329845
0.03331286
0.03332746
0.03334227
0.03335733
0.03337266
0.0333883
0.03340429
0.03342067
0.0334375
0.03345481
0.03347267
0.03349114
0.03351026
0.0335301
0.03355071
0.03357213
0.03359439
0.03361753
0.0336416
0.03366661
0.03369256
0.0337195
0.03374753
0.03377672
0.0338071
0.03383865
0.03387136
0.03390523
0.03394029
0.03397655
0.03401398
0.03405255
0.03409221
0.0341329
0.03417455
0.03421713
0.03426059
0.0343049
0.03435004
0.034396
0.03444274
0.03449028
0.03453858
0.03458764
0.03463743
0.03468794
0.03473914
0.03479099
0.03484345
0.03489654
0.03495003
0.03500361
0.03505708
0.03511031
0.03516345
0.03521651
0.03526943
0.03532215
0.03537462
0.03542676
0.03547848
0.03552964
0.03558014
0.0356299
0.03567893
0.03572731
0.0357751
0.03582247
0.03586954
0.03591638
0.03596309
0.03600976
0.03605646
0.03610332
0.03615046
0.03619798
0.03624597
0.03629452
0.0363437
0.0363936
0.03644428
0.03649574
0.03654801
0.03660109
0.03665497
0.03670962
0.03676503
0.03682115
0.03687795
0.03693538
0.03699339
0.03705192
0.03711092
0.03717032
0.03723006
0.03729008
0.03735035
0.03741084
0.03747155
0.03753252
0.03759383
0.03765556
0.03771782
0.03778068
0.03784421
0.03790842
0.03797333
0.03803891
0.03810514
0.03817199
0.03823945
0.03830748
0.03837604
0.0384451
0.0385146
0.03858451
0.03865477
0.03872532
0.03879612
0.03886713
0.03893829
0.03900958
0.03908095
0.03915237
0.03922383
0.03929528
0.03936672
0.03943811
0.03950942
0.03958061
0.03965163
0.03972253
0.03979333
0.03986403
0.0399346
0.04000501
0.04007523
0.04014524
0.04021499
0.04028446
0.04035363
0.04042249
0.04049104
0.04055933
0.04062744
0.04069554
0.04076387
0.04083282
0.04090292
0.04097485
0.04104953
0.0411273
0.0412097
0.04129027
0.041383
0.04140696
0.002340934
0.008597621
0.01292371
0.01748365
0.02206617
0.02701028
0.03251336
0.0384279
0.0449607
0.05279318
0.06518204
0.07268265
0.08090065