/*--------------------------------*- C++ -*----------------------------------*\
| =========                 |                                                 |
| \\      /  F ield         | foam-extend: Open Source CFD                    |
|  \\    /   O peration     | Version:     3.1                                |
|   \\  /    A nd           | Web:         http://www.extend-project.de       |
|    \\/     M anipulation  |                                                 |
\*---------------------------------------------------------------------------*/
FoamFile
{
    version     2.0;
    format      ascii;
    class       volScalarField;
    location    "4.5";
    object      omega;
}
// * * * * * * * * * * * * * * * * * * * * * * * * * * * * * * * * * * * * * //

dimensions      [0 0 -1 0 0 0 0];

internalField   nonuniform List<scalar> 
119952
(
146.3987
178.3857
168.8397
150.258
137.2696
138.8779
141.9562
145.8344
150.1156
154.6083
159.2348
163.9811
168.8616
173.9
179.1257
184.5724
190.2812
196.3112
202.7861
210.1893
177.7006
177.9619
180.5634
153.0935
150.7488
149.7819
149.0182
148.2506
145.836
138.1541
290.3802
223.2907
190.8153
173.2586
160.8867
150.368
140.8074
132.1679
124.4005
115.517
87.40645
72.4378
64.3701
59.5051
56.1161
53.43725
51.1319
49.0603
47.11016
37.34744
35.30702
33.4501
31.85494
30.51812
29.39245
28.42626
27.57818
26.8181
26.14801
25.48842
24.78863
24.09048
23.41777
22.78401
22.19301
21.63982
21.10855
20.58641
20.6219
20.5641
20.31673
20.08593
19.88661
19.69913
19.50244
19.309
19.12371
18.94775
18.7816
18.62541
18.4791
18.34244
18.2147
18.09459
17.97989
17.86637
17.74526
17.60369
17.45269
17.3077
17.11242
16.90686
16.80429
16.73565
16.70101
16.85414
17.54411
18.67166
18.88979
18.9175
18.86095
18.77401
18.67179
18.56361
18.45677
18.35489
18.25985
18.17265
18.09382
18.02353
17.96181
17.90849
17.86333
17.82602
17.79619
17.77349
17.7575
17.74781
17.74374
17.74498
17.75156
17.76346
17.78065
17.80318
17.83116
17.86475
17.90425
17.94995
18.00223
18.06153
18.12834
18.20324
18.28681
18.37946
18.48171
18.59481
18.71884
18.85465
19.00324
19.1652
19.34085
19.53016
19.73294
19.94859
20.17531
20.40469
20.61249
20.8504
21.16141
21.49196
21.83345
22.18143
22.53172
22.88242
23.23207
23.57832
23.92069
24.26051
24.59613
24.92688
25.2525
25.5725
25.88679
26.19519
26.49761
26.79435
27.08571
27.37216
27.65425
27.93268
28.20818
28.48159
28.75379
29.02564
29.29804
29.5719
29.84814
30.1277
30.41145
30.70025
30.99494
31.29632
31.60494
31.92062
32.24397
32.57569
32.91646
33.26704
33.62824
34.00095
34.38591
34.78394
35.19571
35.62174
36.06044
36.49653
36.84519
38.53449
41.96221
44.86974
47.27629
49.26976
50.93731
52.35711
53.591
54.68878
55.68363
56.6045
57.47683
58.32038
59.14931
59.97441
60.80378
61.64484
62.50149
63.37787
64.27785
65.20465
66.15966
67.1444
68.16173
69.214
70.3033
71.43149
72.59994
73.81041
75.06122
76.35313
77.6854
79.0501
80.40162
81.68488
81.76776
80.58007
79.48741
78.44402
77.42745
76.42927
75.44447
74.46778
73.49667
72.52997
71.56732
70.60916
69.65621
68.70942
67.76991
66.83863
65.91648
65.00423
64.10256
63.21201
62.33294
61.46565
60.61033
59.76708
58.93599
58.11721
57.31094
56.5174
55.7368
54.96932
54.21522
53.47453
52.74774
52.03941
51.34756
39.66765
39.21056
38.64956
37.94937
37.214
36.47944
35.75416
35.05545
34.39403
33.77313
33.19202
32.64805
32.13759
31.65721
31.20385
30.7747
30.36713
29.97861
29.60681
29.24958
28.90502
28.57143
28.24732
27.93158
27.62334
27.32205
27.02716
26.73835
26.45561
26.1781
25.9057
25.63841
25.37641
25.1197
24.86867
24.62373
24.38538
24.15404
23.92795
23.70149
23.47331
23.24442
23.01631
22.7913
22.57374
22.36825
22.17274
21.98262
21.79782
21.618
21.44335
21.27465
21.11074
20.95305
20.85192
20.69785
20.5311
20.35166
20.15842
19.95326
19.7388
19.51818
19.29481
19.07209
18.85293
18.63969
18.43408
18.23731
18.05017
17.87313
17.70634
17.54967
17.40276
17.26516
17.13624
17.01527
16.90138
16.79363
16.69099
16.5933
16.5005
16.41222
16.328
16.24719
16.16878
16.09135
16.01321
15.93279
15.84905
15.76176
15.6716
15.57995
15.4887
15.39981
15.31435
15.23082
15.14867
15.06784
14.9884
14.91039
14.83385
14.7588
14.68527
14.61326
14.54277
14.47383
14.40647
14.34096
14.2776
14.21617
14.15641
14.09816
14.04131
13.98577
13.9315
13.87845
13.82658
13.77587
13.72626
13.67773
13.63023
13.58373
13.53816
13.49347
13.44958
13.4064
13.36382
13.32168
13.27977
13.2378
13.19532
13.15155
13.10512
13.05347
12.99128
12.90592
12.78751
12.65239
12.80439
426.3421
346.5892
295.3569
259.8119
233.315
212.3804
195.0017
180.1114
166.5475
143.2729
120.5482
106.2237
96.49856
89.34759
83.70003
78.98908
74.90623
71.2637
58.05529
55.62431
53.24071
50.93536
48.78206
46.79513
44.97049
43.29409
41.7477
40.31916
39.05499
37.73042
36.41657
35.14228
33.92813
32.78864
31.72956
30.75406
29.85659
29.22427
28.64315
27.95319
27.23091
26.50962
25.81374
25.15595
24.54062
23.96716
23.4344
22.93345
22.44653
21.9658
21.49224
21.03218
20.59082
20.1713
19.77493
19.40647
17.91498
17.60764
17.31797
17.03868
16.76721
16.50301
16.2461
15.99672
15.75461
15.52004
15.29285
15.07168
14.85559
14.64445
14.4382
14.2367
14.04074
13.85365
13.68488
13.53078
13.3714
13.21953
13.08122
12.95153
12.82503
12.70024
12.57736
12.45609
12.33626
12.21774
12.10038
11.98398
11.86831
11.75304
11.63776
11.52186
11.40459
11.28543
11.16497
11.04465
10.92312
10.80377
10.69612
10.5998
10.51126
10.43244
10.37556
10.33131
10.26514
10.1814
10.09534
10.01014
9.926404
9.843823
9.762148
9.681271
9.601184
9.52196
9.443715
9.366577
9.290674
9.216125
9.143035
9.071497
9.001586
8.933361
8.866862
8.802119
8.739161
8.678013
8.618682
8.561168
8.505464
8.451563
8.399465
8.34918
8.300728
8.254147
8.209484
8.166805
8.126187
8.08772
8.051504
8.017649
7.986262
7.957457
7.931355
7.908071
7.887701
7.870331
7.856031
7.844845
7.836791
7.831848
7.829957
7.831007
7.834886
7.841588
7.851501
7.865466
7.884456
7.908214
7.936206
7.967949
8.002929
8.040663
8.080682
8.122478
8.165268
8.208054
8.250751
8.293331
8.335617
8.377383
8.418447
8.458654
8.497849
8.535903
8.572717
8.608224
8.642385
8.675192
8.706664
8.736846
8.7658
8.793611
8.820379
8.846209
8.871222
8.895537
8.919268
8.942534
8.965445
8.988106
9.010615
9.033065
9.055524
9.07807
9.100743
9.123605
9.146649
9.169919
9.193343
9.216897
9.240085
9.262479
9.282524
9.286721
9.61144
10.02777
10.34675
10.59145
10.78017
10.92729
11.04369
11.13762
11.21526
11.28115
11.33861
11.3901
11.43736
11.48167
11.52398
11.56492
11.60499
11.64453
11.68377
11.72288
11.76196
11.80108
11.84026
11.87952
11.91885
11.95819
11.99744
12.03644
12.07494
12.11257
12.14874
12.18232
12.21113
12.23061
12.22939
12.20738
12.17527
12.13934
12.10107
12.06074
12.01891
11.97602
11.93238
11.88823
11.84374
11.79906
11.75432
11.70962
11.66503
11.62063
11.57645
11.53254
11.48893
11.44567
11.40275
11.3602
11.318
11.27615
11.23466
11.19353
11.15278
11.11244
11.07252
11.03306
10.99408
10.95562
10.91774
10.88049
10.84393
10.80918
9.460585
9.409648
9.36749
9.331069
9.298192
9.267765
9.239265
9.21214
9.185735
9.159491
9.133
9.105973
9.078237
9.049752
9.020566
8.990747
8.960368
8.929517
8.898286
8.866766
8.835048
8.803223
8.771377
8.739587
8.707928
8.676466
8.645262
8.614372
8.583839
8.553717
8.524066
8.494929
8.466358
8.438399
8.4111
8.384513
8.358658
8.333513
8.308989
8.284973
8.261381
8.238188
8.215433
8.193205
8.171576
8.150549
8.129898
8.109396
8.089001
8.068578
8.04804
8.027462
8.00736
7.988927
7.971599
7.953354
7.935137
7.91754
7.900875
7.885209
7.870385
7.856177
7.842343
7.828669
7.814996
7.801198
7.787145
7.772761
7.758013
7.7429
7.727449
7.711713
7.695767
7.679704
7.663626
7.647645
7.631871
7.616413
7.601368
7.586812
7.572801
7.559345
7.54638
7.533768
7.521311
7.508814
7.49612
7.483141
7.469851
7.45627
7.442444
7.428424
7.414254
7.399966
7.385583
7.371125
7.356612
7.342064
7.327498
7.312932
7.29838
7.283855
7.269368
7.25493
7.240547
7.226229
7.211985
7.197822
7.183752
7.169783
7.15592
7.142168
7.128534
7.115023
7.101638
7.088387
7.075272
7.062297
7.049465
7.036777
7.024231
7.011823
6.999545
6.987383
6.975319
6.963323
6.951354
6.939353
6.927235
6.914876
6.902084
6.888585
6.873895
6.857363
6.837703
6.813575
6.783663
6.75562
6.741275
476.3072
424.1449
379.5525
345.0641
317.0934
293.3934
273.0367
255.3324
239.7908
223.2268
134.4553
110.6753
102.9507
98.5623
94.86759
91.40368
88.1135
84.99084
81.98007
65.26128
61.48976
58.24701
55.58171
53.43033
51.67909
50.2204
48.97078
47.87121
46.90162
45.98695
45.00067
43.98308
42.97714
42.01297
41.10822
40.26974
39.49662
38.77253
38.54852
38.15317
37.66529
37.13485
36.58616
36.03864
35.5051
34.99328
34.50699
34.04396
33.59632
33.16613
32.73824
32.31158
31.88759
31.466
31.05661
30.68172
28.49128
28.1109
27.75487
27.41238
27.07011
26.72152
26.3645
25.99873
25.62432
25.24291
24.85584
24.45734
24.05128
23.64162
23.23213
22.82717
22.42992
22.03928
21.65628
21.28187
20.91547
20.55715
20.20559
19.86203
19.527
19.20064
18.88328
18.57522
18.27667
17.98674
17.70456
17.42993
17.16244
16.90158
16.64705
16.39831
16.15577
15.91422
15.70313
15.49205
15.28162
15.0717
14.86315
14.65683
14.45327
14.2528
14.05566
13.86205
13.67202
13.48545
13.30246
13.12332
12.9483
12.77775
12.61238
12.45348
12.30278
12.15977
12.01849
11.87996
11.74742
11.62047
11.49675
11.37473
11.25421
11.13529
11.018
10.90224
10.78783
10.67457
10.5622
10.45044
10.33896
10.22741
10.11552
10.00312
9.890556
9.77845
9.66759
9.558809
9.455134
9.357499
9.263584
9.171859
9.081425
8.991103
8.8929
8.790141
8.688309
8.588721
8.491136
8.395126
8.300511
8.207276
8.115444
8.025041
7.936096
7.848648
7.762744
7.67843
7.59575
7.514744
7.435446
7.357883
7.282075
7.208039
7.135781
7.065307
6.996615
6.9297
6.864559
6.801186
6.739577
6.679735
6.621664
6.565376
6.510888
6.458226
6.40742
6.358507
6.31153
6.266535
6.223567
6.182676
6.143907
6.107302
6.072897
6.040718
6.010784
5.983102
5.957668
5.934471
5.913491
5.894702
5.878095
5.863696
5.851571
5.84179
5.834323
5.829089
5.825996
5.824939
5.825812
5.828527
5.833047
5.839418
5.84783
5.858598
5.871274
5.885277
5.90008
5.915081
5.929893
5.944527
5.958927
5.973029
5.986769
6.000092
6.012937
6.025272
6.037079
6.048351
6.05909
6.069311
6.079045
6.088318
6.097177
6.10567
6.113842
6.121744
6.129429
6.136938
6.144322
6.151616
6.158863
6.166087
6.173325
6.180585
6.187892
6.195234
6.202602
6.20996
6.217224
6.224377
6.231325
6.237932
6.255868
6.266196
6.271607
6.273968
6.274654
6.274645
6.274534
6.274688
6.275327
6.276566
6.278454
6.281
6.284187
6.287984
6.292355
6.29726
6.302659
6.308515
6.314789
6.321442
6.328438
6.33574
6.343323
6.351139
6.359148
6.367299
6.37551
6.383632
6.391347
6.398462
6.404816
6.410067
6.413967
6.417164
6.419272
6.420131
6.419981
6.419191
6.417935
6.416291
6.414323
6.412075
6.409577
6.40685
6.403915
6.400778
6.397449
6.393939
6.390254
6.386399
6.382381
6.378208
6.373886
6.369422
6.364819
6.36008
6.355208
6.350208
6.345089
6.339858
6.334527
6.329107
6.32361
6.318052
6.312446
6.306816
6.301181
6.295578
6.289993
6.282805
6.294418
6.303868
6.31112
6.316311
6.319905
6.322349
6.323917
6.324709
6.324748
6.324055
6.322655
6.32056
6.317788
6.314378
6.31038
6.305838
6.300797
6.295296
6.289371
6.283055
6.276381
6.269381
6.262087
6.254528
6.246733
6.238733
6.230556
6.222228
6.213778
6.205233
6.196624
6.187978
6.179327
6.170701
6.162133
6.15365
6.145275
6.137019
6.12888
6.120859
6.112958
6.105183
6.097543
6.09003
6.082599
6.07513
6.067671
6.060395
6.053475
6.047081
6.041383
6.03621
6.031302
6.026493
6.022582
6.019011
6.015643
6.012468
6.009458
6.00657
6.003759
6.001011
5.998322
5.995679
5.993033
5.990346
5.987584
5.984709
5.981688
5.978491
5.975092
5.971472
5.967619
5.963528
5.9592
5.954641
5.949863
5.944879
5.939707
5.934362
5.928854
5.923178
5.917313
5.91122
5.904853
5.898173
5.891155
5.883795
5.876101
5.868095
5.859802
5.85125
5.842463
5.833466
5.824283
5.814937
5.80545
5.795842
5.786133
5.776341
5.766482
5.756568
5.746613
5.736627
5.726618
5.716596
5.706567
5.696539
5.68652
5.676517
5.666537
5.656587
5.646675
5.636807
5.626991
5.617234
5.607542
5.597921
5.588375
5.578909
5.569525
5.560223
5.550999
5.541849
5.53276
5.523717
5.514694
5.505655
5.496549
5.487308
5.477829
5.467986
5.457582
5.446451
5.434268
5.421235
5.406622
5.393619
5.379338
291.9991
222.8635
267.8145
121.0779
93.93026
62.79546
55.93725
50.50436
47.19531
46.57681
47.11729
47.46836
46.81627
47.08104
47.26265
47.33122
47.29125
47.14774
46.90838
46.5826
46.17709
45.70369
45.11699
44.4094
43.66285
42.92776
42.21934
41.53662
40.87639
40.23236
39.59975
38.02956
37.43411
36.85541
36.28728
35.73012
35.1857
34.65547
34.14103
33.64335
33.16111
32.6956
32.24742
31.81407
31.3944
30.9882
30.59532
30.21582
29.84992
29.49703
29.1575
28.8327
28.52226
28.22417
27.93729
27.65646
27.38132
27.11225
26.85349
26.60585
26.36589
26.13365
25.90742
25.68692
25.46962
25.25691
25.03954
24.81212
24.65945
24.49162
24.30386
24.10355
23.89429
23.67576
23.44708
23.20796
22.95851
22.69894
22.42924
22.14939
21.86122
21.56644
21.26656
20.96319
20.65829
20.35378
20.05114
19.75152
19.4557
19.16645
18.88596
18.61266
18.34495
18.08284
17.82631
17.57512
17.32903
17.0876
16.85035
16.61706
16.38745
16.16121
15.93814
15.7177
15.50015
15.28376
15.0707
14.86087
14.65379
14.44885
14.24591
14.04509
13.84651
13.65028
13.45656
13.26547
13.07717
12.89184
12.70975
12.53123
12.35665
12.18643
12.02106
11.86108
11.70715
11.55925
11.4153
11.27468
11.13862
11.00738
10.87991
10.75515
10.63278
10.51278
10.39511
10.27963
10.16612
10.05434
9.944031
9.834915
9.726709
9.619137
9.511997
9.405184
9.298824
9.193308
9.0891
8.986624
8.886769
8.789845
8.694823
8.600351
8.505225
8.407955
8.307102
8.203952
8.100748
7.998589
7.897564
7.79753
7.698452
7.600388
7.503408
7.407571
7.312931
7.219551
7.127494
7.036829
6.947619
6.859922
6.773793
6.689279
6.606423
6.525259
6.445817
6.36812
6.292187
6.218032
6.145666
6.0751
6.006342
5.939402
5.874292
5.811025
5.749616
5.690083
5.632448
5.576734
5.522966
5.471169
5.421367
5.373584
5.32784
5.284151
5.242527
5.202973
5.165487
5.130061
5.096682
5.065332
5.035989
5.008628
4.983231
4.95979
4.938302
4.918759
4.90111
4.885282
4.871207
4.858823
4.848068
4.838883
4.831223
4.825058
4.820363
4.817098
4.815187
4.814551
4.815152
4.817045
4.820157
4.824056
4.82833
4.832715
4.837181
4.841685
4.846182
4.85063
4.854993
4.859244
4.863363
4.867338
4.871166
4.874847
4.878392
4.881813
4.885126
4.888349
4.891503
4.894607
4.897681
4.900744
4.903814
4.906905
4.910032
4.913202
4.916425
4.9197
4.923025
4.926395
4.929794
4.933225
4.936661
4.940147
4.944221
4.948557
4.952918
4.957146
4.961183
4.965041
4.968755
4.972355
4.975886
4.979396
4.982922
4.986494
4.990138
4.993876
4.997726
5.001684
5.005763
5.009973
5.014312
5.018769
5.023327
5.027934
5.032569
5.037282
5.042091
5.046963
5.051895
5.056913
5.06214
5.067534
5.072927
5.078137
5.083034
5.087527
5.091534
5.095019
5.098053
5.100775
5.103294
5.105631
5.107822
5.109894
5.111862
5.113732
5.115516
5.117186
5.118752
5.120227
5.12162
5.1229
5.124072
5.125144
5.12612
5.126997
5.12777
5.128436
5.128992
5.129436
5.12977
5.129993
5.130109
5.130123
5.130032
5.129841
5.129559
5.129192
5.128768
5.128258
5.127704
5.127057
5.127039
5.127497
5.128296
5.129285
5.130358
5.131456
5.132544
5.133586
5.134543
5.13538
5.136074
5.136608
5.136973
5.137168
5.1372
5.137071
5.136786
5.136348
5.135758
5.135018
5.134131
5.133098
5.131923
5.130611
5.129165
5.127591
5.125895
5.124083
5.122163
5.120143
5.118034
5.115847
5.113594
5.11129
5.108948
5.106582
5.104204
5.10182
5.099437
5.097054
5.094669
5.092318
5.090069
5.087971
5.0861
5.084593
5.083403
5.082397
5.081529
5.08079
5.080188
5.079695
5.07932
5.079043
5.078887
5.078755
5.078592
5.078391
5.078162
5.077914
5.077642
5.07734
5.077006
5.076635
5.076219
5.075747
5.07521
5.074598
5.073899
5.073097
5.07218
5.07113
5.069934
5.068577
5.067044
5.065322
5.063398
5.06126
5.058897
5.056297
5.053444
5.050322
5.046911
5.043188
5.039136
5.034738
5.029988
5.024887
5.019443
5.013667
5.007575
5.001187
4.994521
4.987601
4.980448
4.973086
4.965537
4.957823
4.949966
4.941986
4.933901
4.925729
4.917484
4.90918
4.900828
4.892441
4.884028
4.875597
4.867158
4.858719
4.850286
4.841868
4.83347
4.8251
4.816765
4.80847
4.800223
4.792029
4.783896
4.775828
4.767828
4.759899
4.75204
4.74425
4.736523
4.72885
4.721217
4.713604
4.705984
4.698323
4.690576
4.682697
4.674621
4.666335
4.657738
4.649089
4.639754
4.632063
4.621691
276.5964
192.8064
150.111
122.285
98.62593
75.21799
62.55429
56.96614
51.37522
48.3289
46.15356
43.99285
42.17798
40.94291
40.40523
40.40294
40.41309
41.3115
42.20433
43.07186
44.01939
44.97922
45.75209
46.26189
46.54569
46.61864
46.50718
46.23691
45.83278
45.31954
44.71791
44.04822
43.3319
42.58269
41.81175
41.02906
40.24559
39.46804
38.70458
37.95748
37.2345
36.5219
35.81402
35.14138
34.5029
33.89055
33.30218
32.73869
32.20053
31.68701
31.19727
30.7297
30.28435
29.86023
29.4559
29.07061
28.70393
28.35563
28.02505
27.7115
27.41435
27.1328
26.86482
26.6075
26.35471
26.10797
25.87168
25.6451
25.42716
25.2168
25.01301
24.81498
24.62187
24.43262
24.24632
24.06217
23.87925
23.69682
23.51451
23.33914
23.16244
22.98113
22.7966
22.60946
22.41848
22.22208
22.01927
21.8095
21.59242
21.36791
21.13603
20.89726
20.65227
20.40197
20.14753
19.89029
19.63157
19.37255
19.11438
18.85808
18.60487
18.35583
18.11168
17.87352
17.64091
17.41262
17.18826
16.96727
16.74916
16.53345
16.31975
16.10774
15.89711
15.68762
15.47892
15.27092
15.06331
14.85604
14.64931
14.44331
14.23807
14.03368
13.83033
13.62827
13.42774
13.22897
13.03223
12.83779
12.64597
12.45709
12.27155
12.08975
11.9121
11.73904
11.57095
11.40819
11.25079
11.09805
10.94959
10.80576
10.66671
10.532
10.40109
10.27367
10.14964
10.02887
9.911202
9.79641
9.684241
9.574422
9.466663
9.360679
9.256199
9.153
9.050939
8.949997
8.850286
8.751959
8.655142
8.560032
8.466573
8.374151
8.281833
8.188711
8.093951
7.997003
7.898368
7.799119
7.699996
7.601234
7.502853
7.40488
7.307382
7.210443
7.114141
7.018552
6.923758
6.829845
6.736901
6.645013
6.554264
6.464736
6.376503
6.289636
6.204199
6.120251
6.037845
5.957026
5.877839
5.80032
5.724504
5.650426
5.578114
5.507599
5.43891
5.372074
5.307121
5.244079
5.182974
5.123833
5.066679
5.011534
4.958413
4.907331
4.858294
4.811304
4.766358
4.723448
4.68256
4.643679
4.606783
4.571852
4.538859
4.507778
4.478585
4.451259
4.425773
4.402085
4.38014
4.359886
4.341263
4.324216
4.308686
4.294618
4.281962
4.270673
4.2607
4.251988
4.244482
4.238136
4.232904
4.228734
4.22557
4.223401
4.22213
4.221445
4.221103
4.221057
4.221261
4.221672
4.222253
4.22297
4.223796
4.224708
4.22569
4.226731
4.227823
4.228962
4.230149
4.231384
4.232669
4.23401
4.23541
4.236875
4.238407
4.240011
4.24169
4.243443
4.245273
4.247176
4.249151
4.251195
4.253308
4.255487
4.25775
4.260141
4.262682
4.265367
4.268173
4.271072
4.274051
4.277098
4.280208
4.283376
4.286602
4.289885
4.293227
4.296628
4.30009
4.303613
4.307193
4.310822
4.314517
4.318316
4.322234
4.326287
4.330491
4.334858
4.339341
4.343911
4.348547
4.353238
4.357977
4.362753
4.36754
4.372296
4.376972
4.381512
4.385867
4.389995
4.393877
4.397531
4.40101
4.404368
4.407634
4.410827
4.41396
4.417044
4.420085
4.423085
4.426045
4.428966
4.431847
4.43469
4.437489
4.440248
4.442941
4.445574
4.448155
4.450682
4.453151
4.455554
4.457887
4.460148
4.462334
4.46445
4.466494
4.46844
4.470299
4.472084
4.473797
4.475439
4.477006
4.478501
4.479921
4.481302
4.482673
4.484041
4.485397
4.486729
4.488039
4.48933
4.490601
4.491845
4.49305
4.494209
4.495317
4.496374
4.497383
4.498346
4.499263
4.500134
4.500959
4.501736
4.502463
4.503138
4.503758
4.504321
4.504824
4.505268
4.505649
4.505969
4.506226
4.506423
4.506562
4.506645
4.506677
4.506663
4.506609
4.506521
4.506404
4.506269
4.506162
4.506112
4.506147
4.5063
4.506562
4.506903
4.507322
4.507828
4.508428
4.509107
4.509845
4.510629
4.511445
4.512289
4.513147
4.514009
4.514853
4.515657
4.51642
4.517136
4.5178
4.518411
4.518961
4.51944
4.519841
4.52016
4.520394
4.520541
4.520601
4.520574
4.520458
4.52025
4.519946
4.519542
4.51903
4.518403
4.51765
4.516762
4.515726
4.514529
4.513156
4.511592
4.509821
4.507824
4.505583
4.50308
4.500296
4.497219
4.493835
4.490138
4.486125
4.481798
4.47716
4.472219
4.466987
4.461477
4.455704
4.449686
4.443443
4.436995
4.43036
4.423561
4.416617
4.409546
4.402366
4.395095
4.387749
4.380343
4.37289
4.365403
4.357897
4.350383
4.342873
4.335379
4.327915
4.320491
4.313119
4.305787
4.298491
4.291235
4.284025
4.276869
4.269771
4.262737
4.25577
4.248872
4.242042
4.23528
4.22858
4.221937
4.215341
4.208779
4.202236
4.195695
4.189142
4.18256
4.175959
4.169299
4.162733
4.155802
4.150187
4.141779
145.3441
108.575
159.3876
78.54925
66.54433
54.99723
51.65817
48.97813
46.13191
44.73814
43.22816
41.21467
39.44446
37.86472
36.4394
33.46267
33.2378
33.2813
33.58009
34.14233
34.93726
35.97339
37.23787
38.68198
40.25111
41.76698
43.07596
44.43678
45.4749
46.18686
46.67098
46.9746
47.07102
46.90715
46.49626
45.8997
45.15834
44.30799
43.37904
42.40302
41.39186
40.35986
39.33285
38.32378
37.341
36.39055
35.47715
34.60409
33.77238
32.98365
32.23759
31.53345
30.86902
30.24295
29.6581
29.11205
28.60315
28.12917
27.68844
27.27908
26.89911
26.54656
26.21854
25.91336
25.62966
25.36637
25.1225
24.89751
24.69076
24.50153
24.32904
24.17145
24.01579
23.8641
23.72324
23.59257
23.47115
23.35822
23.25267
23.15314
23.05825
22.9666
22.87661
22.78681
22.69577
22.60238
22.50551
22.40479
22.29896
22.1878
22.06971
21.9437
21.81019
21.66976
21.52216
21.36693
21.20379
21.03263
20.85345
20.66634
20.47151
20.26936
20.0605
19.84573
19.62599
19.40227
19.17563
18.9471
18.71767
18.4883
18.26
18.03372
17.81034
17.59038
17.37405
17.1616
16.95169
16.74377
16.5375
16.33251
16.12847
15.92509
15.72209
15.51923
15.31629
15.1131
14.90958
14.70564
14.50131
14.29673
14.09203
13.88736
13.68294
13.47906
13.27601
13.07408
12.87361
12.67493
12.47839
12.28439
12.09332
11.90561
11.72168
11.54193
11.36672
11.19632
11.03086
10.87018
10.71416
10.56291
10.41653
10.27488
10.13771
10.00482
9.876106
9.751451
9.630707
9.513677
9.40013
9.28981
9.182443
9.077746
8.975448
8.875303
8.777112
8.680739
8.586107
8.493164
8.401834
8.312024
8.223505
8.1358
8.048243
7.960175
7.871057
7.780562
7.688811
7.596272
7.503379
7.410341
7.317215
7.224035
7.130856
7.037748
6.944783
6.852038
6.759595
6.667543
6.575974
6.484986
6.394673
6.305132
6.216456
6.128736
6.042059
5.956509
5.872163
5.789095
5.707374
5.627066
5.548233
5.470932
5.395219
5.321147
5.248766
5.178124
5.109268
5.04224
4.97708
4.913826
4.85251
4.793158
4.735793
4.680429
4.627075
4.575736
4.526408
4.479086
4.433758
4.390412
4.349031
4.309599
4.272091
4.236482
4.202741
4.170841
4.14075
4.112438
4.08587
4.061019
4.037848
4.016273
3.99623
3.977664
3.960522
3.944755
3.930325
3.917179
3.905261
3.894522
3.884913
3.876388
3.868897
3.862395
3.856832
3.852167
3.848335
3.845105
3.842345
3.840008
3.838051
3.836431
3.835112
3.834059
3.833244
3.832642
3.832232
3.831997
3.831922
3.831996
3.832208
3.832553
3.833022
3.83361
3.834314
3.835128
3.836049
3.837073
3.838196
3.839418
3.840734
3.842141
3.843635
3.845216
3.846886
3.848653
3.850526
3.852509
3.854602
3.8568
3.859099
3.861496
3.863988
3.866572
3.869245
3.872002
3.87484
3.877752
3.880744
3.883842
3.88706
3.890411
3.893888
3.897463
3.901129
3.90488
3.908713
3.912623
3.916601
3.920639
3.92473
3.928865
3.933033
3.937222
3.941413
3.945588
3.949719
3.953782
3.95775
3.961601
3.965325
3.968926
3.972425
3.975849
3.979218
3.982547
3.985846
3.989121
3.992379
3.995622
3.998854
4.002075
4.005285
4.008483
4.011669
4.014842
4.017995
4.021127
4.024236
4.027319
4.030374
4.033395
4.036381
4.039326
4.042231
4.0451
4.047901
4.050639
4.053326
4.055962
4.058543
4.061066
4.063525
4.06592
4.068247
4.070507
4.072703
4.074831
4.076887
4.078869
4.080783
4.082633
4.084426
4.086161
4.08784
4.089463
4.091034
4.092559
4.094041
4.095487
4.096898
4.098277
4.099626
4.100945
4.102233
4.10349
4.104714
4.105902
4.107055
4.10817
4.109246
4.110281
4.111275
4.112229
4.113143
4.114018
4.114856
4.115659
4.116451
4.117263
4.118113
4.119013
4.119934
4.12087
4.121826
4.122805
4.123811
4.124847
4.125919
4.12703
4.128179
4.129365
4.130579
4.131814
4.133063
4.134312
4.135549
4.136762
4.137939
4.13907
4.140148
4.141163
4.142107
4.142971
4.143748
4.144432
4.145019
4.145507
4.145895
4.146182
4.146369
4.146456
4.146445
4.146335
4.146125
4.145815
4.1454
4.144879
4.144245
4.143492
4.142611
4.141593
4.140427
4.139099
4.137595
4.135902
4.134002
4.131881
4.129524
4.12692
4.124058
4.120929
4.117529
4.113855
4.109906
4.105684
4.101193
4.096443
4.091441
4.086202
4.080737
4.075063
4.069195
4.06315
4.056944
4.050594
4.044116
4.037524
4.030833
4.024058
4.017211
4.010303
4.003348
3.996355
3.989335
3.982297
3.97525
3.968203
3.961162
3.954139
3.947146
3.940192
3.933285
3.926432
3.919639
3.912912
3.906256
3.899673
3.893166
3.886735
3.88038
3.874099
3.867887
3.861739
3.85565
3.849613
3.843627
3.837686
3.831799
3.825937
3.820192
3.814173
3.809302
3.801696
69.967
42.43799
38.10703
35.84863
34.95792
33.9112
33.04849
32.33446
31.76395
30.87186
28.22221
28.04476
27.91362
27.84453
27.82054
27.84236
27.96525
28.23076
28.66785
29.2793
29.99057
30.80844
31.83678
33.11103
34.61605
36.27941
38.02605
39.82237
41.61566
43.34635
44.68688
45.66003
46.33826
46.62735
46.53627
46.14244
45.50517
44.66174
43.61613
42.42386
41.15484
39.83858
38.50328
37.17237
35.85486
34.574
33.33951
32.16613
31.05991
30.02269
29.05539
28.15606
27.32804
26.56843
25.87328
25.23752
24.65615
24.12495
23.63968
23.19777
22.79626
22.43193
22.10201
21.80407
21.536
21.29583
21.0816
20.89135
20.72343
20.57645
20.4492
20.34051
20.24922
20.17479
20.11675
20.07133
20.02682
19.9962
19.97988
19.97712
19.987
20.00836
20.03992
20.08013
20.12718
20.17908
20.23366
20.28868
20.34193
20.39124
20.43471
20.47051
20.49721
20.51332
20.51841
20.51077
20.48942
20.45403
20.40478
20.34174
20.26497
20.1747
20.07118
19.9548
19.82601
19.68546
19.53386
19.37209
19.20114
19.02211
18.83607
18.64416
18.4475
18.24695
18.04362
17.83887
17.63365
17.42879
17.22494
17.02263
16.82223
16.62425
16.42699
16.22973
16.03253
15.83534
15.63813
15.44079
15.24322
15.04532
14.84699
14.64821
14.44897
14.24922
14.04906
13.84856
13.64788
13.44718
13.24669
13.04666
12.84735
12.64907
12.45212
12.25686
12.06363
11.87282
11.68483
11.50005
11.31886
11.14159
10.96851
10.79982
10.6356
10.47589
10.3208
10.17044
10.02482
9.883884
9.747556
9.615783
9.488503
9.365619
9.246993
9.132448
9.021774
8.91474
8.811097
8.710592
8.612979
8.518031
8.425545
8.335342
8.24725
8.161078
8.076596
7.993501
7.911372
7.829696
7.747963
7.665751
7.582783
7.499
7.414549
7.329615
7.244307
7.158653
7.072661
6.98635
6.899756
6.812926
6.725911
6.638775
6.55159
6.464436
6.377399
6.290573
6.204051
6.117932
6.032313
5.947292
5.862966
5.77943
5.696775
5.615091
5.534465
5.45498
5.376718
5.299755
5.224169
5.150029
5.077406
5.006364
4.936965
4.869267
4.803322
4.739174
4.676862
4.616418
4.557867
4.501224
4.446499
4.393699
4.342824
4.293871
4.246837
4.201716
4.158507
4.11721
4.077783
4.040183
4.004375
3.970323
3.937994
3.907351
3.878349
3.850942
3.825107
3.800822
3.778061
3.75679
3.736973
3.718589
3.70159
3.685928
3.671555
3.658426
3.646494
3.635711
3.626025
3.617387
3.609747
3.603053
3.597261
3.592252
3.587863
3.584039
3.580727
3.577879
3.575451
3.573402
3.571694
3.570296
3.569177
3.568312
3.567677
3.567252
3.56702
3.566965
3.567074
3.567334
3.567734
3.568266
3.56892
3.569689
3.570565
3.571541
3.572614
3.573779
3.575034
3.576377
3.577811
3.579337
3.580958
3.582672
3.58448
3.58638
3.588372
3.590452
3.59262
3.594872
3.597208
3.59965
3.60221
3.604887
3.60766
3.610521
3.613466
3.61649
3.619588
3.622758
3.625996
3.629299
3.632664
3.636085
3.63956
3.643081
3.646642
3.650235
3.653851
3.657476
3.661098
3.664701
3.668269
3.671786
3.675241
3.678626
3.681942
3.6852
3.688412
3.691592
3.694751
3.697896
3.701034
3.704169
3.707306
3.710447
3.713593
3.716746
3.719905
3.723071
3.726242
3.729417
3.732594
3.735771
3.738945
3.742112
3.745271
3.748417
3.751547
3.754661
3.75776
3.760815
3.76383
3.766816
3.76977
3.772688
3.775563
3.778391
3.781167
3.783888
3.78655
3.78915
3.791684
3.794146
3.796534
3.798849
3.801094
3.803271
3.805382
3.807427
3.80941
3.811335
3.813207
3.815029
3.816807
3.818544
3.820242
3.821905
3.823533
3.825127
3.826686
3.828212
3.829702
3.831156
3.832572
3.833951
3.835291
3.836591
3.837851
3.839071
3.840257
3.841439
3.842634
3.843831
3.845012
3.846176
3.847323
3.848454
3.849573
3.850687
3.851798
3.852913
3.854036
3.855171
3.856319
3.857481
3.858656
3.859838
3.861024
3.862208
3.863383
3.864541
3.865673
3.86677
3.867823
3.868822
3.869755
3.870614
3.87139
3.872075
3.872664
3.873152
3.873535
3.873812
3.873981
3.874041
3.873992
3.873835
3.873569
3.873195
3.872713
3.872121
3.871419
3.870602
3.869667
3.86861
3.867422
3.866097
3.864625
3.862996
3.861197
3.859218
3.857046
3.854671
3.852081
3.849268
3.846225
3.842945
3.839423
3.835657
3.831646
3.82739
3.822895
3.818164
3.813207
3.808032
3.802651
3.797075
3.791318
3.785392
3.779312
3.773091
3.766742
3.760278
3.753712
3.747055
3.740319
3.733514
3.726651
3.719738
3.712785
3.7058
3.69879
3.691763
3.684744
3.677754
3.670803
3.6639
3.657053
3.650268
3.643552
3.636912
3.630351
3.623873
3.617481
3.611176
3.60496
3.598831
3.592788
3.586831
3.580958
3.575168
3.569459
3.563835
3.558264
3.55282
3.547127
3.542589
3.535355
84.04593
30.77598
23.90019
22.61745
22.13093
21.99513
22.06495
22.2589
22.54225
22.90577
23.26741
23.49522
23.74857
24.06096
24.44576
24.92534
25.53157
26.29406
27.23604
28.37146
29.71487
31.2821
33.09379
35.07128
37.16683
39.32251
41.13664
42.70208
43.96026
44.85688
45.33154
45.44596
45.15517
44.50116
43.52318
42.30321
40.90287
39.3797
37.77613
36.13862
34.51496
32.93416
31.4179
29.98056
28.6252
27.37181
26.22136
25.17484
24.22538
23.36488
22.58237
21.87098
21.22375
20.63601
20.10254
19.61844
19.17731
18.77203
18.40595
18.07617
17.77987
17.51337
17.2745
17.06132
16.87215
16.70545
16.55985
16.43406
16.32697
16.23769
16.16549
16.1098
16.07024
16.04656
16.03733
16.03436
16.05031
16.08451
16.13657
16.20601
16.29222
16.39438
16.51141
16.64193
16.78418
16.93606
17.09519
17.25897
17.42468
17.58954
17.75085
17.90597
18.05248
18.1882
18.31186
18.42117
18.51455
18.59085
18.64944
18.68979
18.71164
18.71502
18.70001