/*--------------------------------*- C++ -*----------------------------------*\
| =========                 |                                                 |
| \\      /  F ield         | foam-extend: Open Source CFD                    |
|  \\    /   O peration     | Version:     3.1                                |
|   \\  /    A nd           | Web:         http://www.extend-project.de       |
|    \\/     M anipulation  |                                                 |
\*---------------------------------------------------------------------------*/
FoamFile
{
    version     2.0;
    format      ascii;
    class       volScalarField;
    location    "4.5";
    object      p;
}
// * * * * * * * * * * * * * * * * * * * * * * * * * * * * * * * * * * * * * //

dimensions      [1 -1 -2 0 0 0 0];

internalField   nonuniform List<scalar> 
119952
(
9309.878
9220.253
9204.318
9226.162
9250.445
9241.864
9241.775
9241.997
9242.583
9243.381
9244.263
9245.128
9245.975
9246.759
9247.424
9247.91
9248.1
9247.663
9245.421
9235.754
9284.887
9255.997
9248.04
9309.422
9298.231
9306.782
9311.238
9327.07
9379.802
7833.89
8469.6
8484.39
8501.461
8518.885
8536.289
8553.725
8571.199
8588.69
8606.362
8620.296
8620.556
8635.434
8649.546
8663.728
8677.889
8692.027
8706.092
8720.15
8734.373
8722.095
8732.237
8744.491
8757.169
8769.576
8781.792
8793.783
8805.537
8817.058
8828.517
8838.095
8848.873
8859.108
8869.075
8878.836
8888.372
8897.725
8907.36
8920.552
8941.889
8935.328
8940.462
8952.097
8959.772
8963.021
8964.103
8965.742
8967.402
8969.065
8970.734
8972.362
8973.917
8975.38
8976.719
8977.895
8978.847
8979.505
8979.932
8980.984
8985.009
8988.305
8989.965
9002.574
9019.865
9023.933
9027.857
9031.921
9025.268
8991.338
8986.199
8992.065
8994.903
8997.661
8999.974
9001.833
9003.455
9004.915
9006.251
9007.484
9008.63
9009.701
9010.706
9011.652
9012.542
9013.38
9014.167
9014.905
9015.595
9016.238
9016.832
9017.383
9017.889
9018.351
9018.769
9019.143
9019.475
9019.764
9020.012
9020.217
9020.38
9020.499
9020.575
9020.605
9020.587
9020.519
9020.408
9020.248
9020.009
9019.718
9019.358
9018.918
9018.391
9017.764
9017.021
9016.135
9015.07
9013.892
9013.333
9013.596
9013.537
9012.001
9010.283
9008.688
9007.049
9005.308
9003.503
9001.585
8999.621
8997.575
8995.437
8993.22
8990.927
8988.563
8986.133
8983.653
8981.118
8978.535
8975.909
8973.245
8970.549
8967.826
8965.079
8962.313
8959.533
8956.743
8953.947
8951.15
8948.357
8945.573
8942.8
8940.043
8937.308
8934.597
8931.912
8929.257
8926.64
8924.059
8921.518
8919.021
8916.566
8914.157
8911.792
8909.468
8907.173
8904.882
8902.515
8900.022
8897.57
8930.541
8928.983
8927.27
8925.576
8924.09
8922.715
8921.463
8920.367
8919.358
8918.403
8917.57
8916.847
8916.232
8915.72
8915.312
8915.001
8914.79
8914.675
8914.65
8914.711
8914.851
8915.064
8915.344
8915.683
8916.067
8916.483
8916.911
8917.327
8917.698
8917.974
8918.077
8917.887
8917.177
8915.724
8912.23
8907.483
8917.239
8924.07
8929.725
8934.583
8939.099
8943.357
8947.43
8951.376
8955.232
8959.011
8962.723
8966.377
8969.979
8973.529
8977.027
8980.47
8983.856
8987.181
8990.44
8993.629
8996.74
8999.769
9002.709
9005.554
9008.3
9010.937
9013.459
9015.86
9018.137
9020.281
9022.293
9024.246
9025.912
9027.119
9012.876
9008.228
8999.339
9000.194
9001.087
9000.606
9000.227
8999.958
8999.431
8998.621
8997.631
8996.451
8995.056
8993.44
8991.601
8989.53
8987.223
8984.679
8981.894
8978.868
8975.599
8972.088
8968.336
8964.345
8960.115
8955.651
8950.956
8946.051
8940.882
8935.489
8929.882
8924.066
8918.03
8911.811
8905.37
8898.75
8891.94
8884.948
8877.792
8870.444
8862.946
8855.323
8847.629
8839.932
8832.228
8823.922
8814.471
8804.312
8794.393
8784.464
8774.441
8764.373
8754.041
8741.691
8725.586
8717.971
8708.836
8697.617
8686.287
8674.831
8663.097
8651.176
8639.098
8626.841
8614.388
8601.737
8588.919
8575.913
8562.708
8549.302
8535.685
8521.854
8507.817
8493.574
8479.118
8464.446
8449.558
8434.45
8419.123
8403.58
8387.815
8371.829
8355.62
8339.188
8322.535
8305.658
8288.574
8271.286
8253.804
8236.134
8218.284
8200.262
8182.077
8163.738
8145.256
8126.638
8107.896
8089.041
8070.087
8051.046
8031.933
8012.763
7993.55
7974.311
7955.062
7935.822
7916.607
7897.436
7878.332
7859.31
7840.393
7821.599
7802.952
7784.471
7766.178
7748.095
7730.244
7712.646
7695.323
7678.297
7661.588
7645.219
7629.21
7613.581
7598.35
7583.537
7569.156
7555.223
7541.751
7528.747
7516.205
7504.105
7492.414
7481.061
7469.911
7458.805
7448.339
7445.134
7463.49
7302.791
7323.743
7346.338
7371.37
7399.609
7428.99
7460.658
7493.963
7528.602
7537.116
7577.18
7610.627
7644.452
7678.218
7711.825
7744.967
7777.502
7809.629
7827.004
7850.893
7873.232
7900.306
7926.151
7951.165
7975.284
7998.299
8020.279
8041.311
8059.593
8078.706
8097.166
8114.477
8131.255
8147.488
8163.227
8178.553
8193.553
8208.141
8221.096
8235.641
8249.961
8263.987
8277.974
8291.927
8305.884
8319.895
8333.876
8347.958
8361.768
8375.518
8389.345
8403.24
8417.14
8431.004
8444.878
8459.436
8412.961
8426.591
8439.867
8452.407
8464.648
8476.757
8488.675
8500.334
8511.705
8522.795
8533.547
8543.846
8553.879
8563.76
8573.52
8583.206
8592.99
8603.097
8613.489
8622.896
8629.352
8634.804
8641.301
8647.384
8651.746
8654.593
8656.815
8658.883
8660.885
8662.799
8664.604
8666.303
8667.9
8669.394
8670.789
8672.113
8673.46
8675.05
8677.226
8680.317
8684.355
8689.566
8696.485
8703.951
8708.851
8710.644
8709.139
8703.598
8695.103
8689.125
8688.378
8690.235
8692.322
8693.987
8695.39
8696.724
8698.027
8699.273
8700.443
8701.541
8702.577
8703.556
8704.484
8705.36
8706.187
8706.965
8707.695
8708.379
8709.017
8709.609
8710.153
8710.651
8711.105
8711.514
8711.878
8712.198
8712.473
8712.705
8712.892
8713.034
8713.132
8713.184
8713.189
8713.145
8713.051
8712.906
8712.708
8712.45
8712.126
8711.732
8711.263
8710.712
8710.072
8709.342
8708.53
8707.665
8706.808
8706.041
8705.404
8704.683
8703.627
8702.243
8700.718
8699.113
8697.422
8695.646
8693.785
8691.838
8689.818
8687.7
8685.518
8683.258
8680.927
8678.523
8676.077
8673.569
8671.007
8668.403
8665.76
8663.084
8660.379
8657.648
8654.897
8652.129
8649.35
8646.565
8643.777
8640.993
8638.217
8635.451
8632.701
8629.973
8627.267
8624.589
8621.945
8619.334
8616.761
8614.23
8611.743
8609.301
8606.906
8604.56
8602.261
8600.013
8597.833
8595.769
8593.945
8592.601
8653.737
8652.379
8650.637
8649.094
8647.716
8646.381
8645.162
8644.04
8643.025
8642.106
8641.289
8640.578
8639.971
8639.467
8639.065
8638.764
8638.558
8638.446
8638.429
8638.498
8638.648
8638.871
8639.161
8639.508
8639.904
8640.332
8640.777
8641.214
8641.612
8641.933
8642.121
8642.098
8641.764
8641.149
8640.625
8641.301
8644.938
8650.348
8655.151
8659.596
8663.888
8668.012
8672.001
8675.894
8679.709
8683.458
8687.149
8690.788
8694.376
8697.915
8701.404
8704.84
8708.219
8711.539
8714.794
8717.978
8721.087
8724.113
8727.051
8729.893
8732.635
8735.268
8737.787
8740.185
8742.457
8744.6
8746.613
8748.489
8750.262
8752.516
8694.075
8697.132
8697.066
8695.559
8694.428
8694.04
8693.906
8693.579
8692.944
8692.087
8691.066
8689.858
8688.429
8686.769
8684.881
8682.763
8680.411
8677.822
8674.989
8671.913
8668.596
8665.037
8661.235
8657.193
8652.913
8648.398
8643.647
8638.658
8633.455
8628.03
8622.381
8616.516
8610.443
8604.162
8597.682
8591.01
8584.144
8577.1
8569.878
8562.481
8554.923
8547.209
8539.342
8531.289
8522.969
8514.276
8505.081
8495.492
8485.692
8475.768
8465.714
8455.338
8444.473
8432.785
8420.638
8409.453
8399.169
8388.855
8377.967
8366.498
8354.674
8342.683
8330.547
8318.237
8305.767
8293.09
8280.211
8267.143
8253.88
8240.418
8226.753
8212.881
8198.801
8184.509
8170.005
8155.287
8140.352
8125.199
8109.827
8094.234
8078.42
8062.385
8046.128
8029.65
8012.955
7996.045
7978.924
7961.602
7944.084
7926.378
7908.492
7890.435
7872.214
7853.839
7835.321
7816.668
7797.892
7779.004
7760.019
7740.948
7721.807
7702.611
7683.374
7664.113
7644.846
7625.589
7606.362
7587.182
7568.069
7549.044
7530.126
7511.337
7492.697
7474.229
7455.953
7437.892
7420.068
7402.501
7385.215
7368.23
7351.569
7335.253
7319.302
7303.738
7288.579
7273.845
7259.553
7245.72
7232.36
7219.486
7207.104
7195.232
7183.875
7173.134
7163.111
7154.411
7147.455
7143.465
7139.235
7575.409
7654.862
7719.402
7771.606
7811.008
7837.722
7852.05
7854.72
7846.551
7826.456
7780.544
7746.359
7706.536
7663.294
7617.488
7570.129
7522.098
7474.048
7428.421
7344.007
7299.737
7257.523
7217.793
7180.975
7147.298
7116.997
7090.214
7067.165
7049.153
7029.727
7016.68
7007.821
7002.265
7000.281
7001.891
7006.911
7015.486
7028.241
7040.481
7055.106
7076.282
7099.449
7124.533
7151.802
7180.747
7211.236
7243.033
7275.513
7309.574
7342.783
7376.088
7409.633
7443.05
7476.22
7508.832
7540.816
7523.344
7553.121
7577.694
7602.895
7628.881
7654.237
7678.302
7701.11
7722.822
7743.511
7763.078
7781.414
7799.097
7816.238
7832.768
7848.719
7864.061
7879.009
7893.632
7907.906
7921.71
7935.369
7949.099
7962.841
7976.575
7990.316
8004.086
8017.888
8031.708
8045.482
8059.202
8072.947
8086.72
8100.5
8114.243
8127.915
8141.412
8154.841
8167.825
8180.807
8193.652
8206.178
8218.46
8230.559
8242.443
8254.06
8265.393
8276.413
8287.081
8297.433
8307.539
8317.445
8327.191
8336.814
8346.341
8355.759
8364.947
8373.739
8380.902
8386.732
8392.562
8398.216
8402.827
8406.225
8408.926
8411.364
8413.663
8415.817
8417.827
8419.71
8421.489
8423.185
8424.829
8426.475
8428.213
8430.186
8432.578
8435.635
8439.461
8443.797
8448.826
8453.897
8457.549
8458.965
8458.14
8455.036
8449.999
8446.244
8445.324
8446.253
8447.626
8448.885
8450.043
8451.205
8452.387
8453.55
8454.665
8455.726
8456.736
8457.698
8458.615
8459.485
8460.309
8461.086
8461.817
8462.502
8463.141
8463.734
8464.281
8464.782
8465.237
8465.647
8466.01
8466.327
8466.598
8466.823
8467.003
8467.135
8467.222
8467.26
8467.251
8467.192
8467.083
8466.921
8466.705
8466.429
8466.091
8465.687
8465.213
8464.664
8464.038
8463.339
8462.574
8461.76
8460.923
8460.094
8459.268
8458.364
8457.262
8455.927
8454.453
8452.901
8451.272
8449.556
8447.746
8445.846
8443.855
8441.796
8439.641
8437.412
8435.11
8432.701
8430.339
8427.886
8425.361
8422.796
8420.184
8417.54
8414.863
8412.156
8409.426
8406.676
8403.913
8401.14
8398.363
8395.586
8392.814
8390.052
8387.304
8384.574
8381.867
8379.187
8376.537
8373.921
8371.343
8368.808
8366.316
8363.873
8361.481
8359.146
8356.868
8354.672
8352.567
8350.607
8348.787
8347.171
8345.755
8344.522
8343.187
8341.745
8340.323
8339.02
8337.831
8336.741
8335.748
8334.855
8334.065
8333.379
8332.797
8332.319
8331.942
8331.665
8331.484
8331.4
8331.409
8331.507
8331.688
8331.946
8332.263
8332.643
8333.075
8333.548
8334.045
8334.551
8335.041
8335.507
8335.921
8336.289
8336.672
8337.22
8338.207
8340.035
8342.968
8346.774
8350.873
8354.931
8358.884
8362.76
8366.582
8370.36
8374.093
8377.78
8381.425
8385.027
8388.588
8392.107
8395.58
8399.004
8402.375
8405.687
8408.937
8412.117
8415.221
8418.244
8421.178
8424.017
8426.753
8429.38
8431.89
8434.278
8436.535
8438.662
8440.645
8442.497
8444.199
8445.751
8446.735
8446.703
8446.57
8446.833
8447.354
8447.829
8448.064
8447.985
8447.596
8446.942
8446.059
8444.944
8443.585
8441.982
8440.138
8438.056
8435.733
8433.166
8430.354
8427.297
8423.995
8420.448
8416.658
8412.627
8408.357
8403.85
8399.107
8394.131
8388.932
8383.511
8377.868
8372.007
8365.934
8359.654
8353.17
8346.49
8339.619
8332.56
8325.316
8317.892
8310.298
8302.514
8294.54
8286.353
8277.909
8269.192
8260.093
8250.63
8240.92
8231.047
8221.026
8210.951
8200.882
8190.897
8180.87
8170.128
8158.667
8146.842
8134.914
8122.955
8110.938
8098.834
8086.619
8074.265
8061.743
8049.038
8036.151
8023.081
8009.823
7996.369
7982.714
7968.854
7954.787
7940.51
7926.02
7911.315
7896.393
7881.252
7865.89
7850.307
7834.503
7818.477
7802.229
7785.761
7769.075
7752.175
7735.064
7717.75
7700.239
7682.538
7664.655
7646.597
7628.373
7609.993
7591.465
7572.801
7554.011
7535.108
7516.105
7497.014
7477.85
7458.628
7439.363
7420.073
7400.773
7381.483
7362.219
7343.001
7323.848
7304.781
7285.819
7266.984
7248.298
7229.782
7211.458
7193.349
7175.474
7157.858
7140.521
7123.486
7106.775
7090.41
7074.411
7058.801
7043.6
7028.828
7014.503
7000.646
6987.274
6974.407
6962.066
6950.285
6939.107
6928.641
6918.986
6910.464
6903.002
6897.51
6891.411
6263.941
6346.528
6425.018
6502.219
6589.787
6658.703
6752.825
6847.249
6941.545
7030.363
7118.713
7206.434
7284.842
7354.466
7412.949
7459.548
7493.8
7515.649
7525.512
7524.224
7512.991
7493.502
7466.819
7433.417
7394.807
7352.662
7308.086
7262.134
7215.655
7169.922
7128.066
7001.212
6961.276
6924.102
6886.543
6850.804
6818.425
6789.672
6764.437
6742.615
6724.174
6709.399
6697.903
6689.711
6685.122
6684.265
6687.026
6693.227
6702.694
6715.261
6730.822
6748.684
6769.066
6792.247
6818.045
6846.122
6875.935
6907.135
6939.416
6972.44
7006.1
7040.255
7074.477
7108.673
7142.596
7176.219
7209.1
7242.124
7275.985
7305.448
7332.204
7358.794
7385.415
7411.187
7435.604
7458.671
7480.547
7501.301
7521.004
7539.721
7557.582
7574.656
7591.02
7606.777
7622.033
7636.878
7651.335
7665.467
7679.286
7692.922
7706.515
7720.077
7733.64
7747.147
7760.706
7774.304
7787.923
7801.545
7815.159
7828.777
7842.404
7856.031
7869.615
7883.13
7896.491
7909.746
7922.825
7935.722
7948.489
7961.036
7973.324
7985.369
7997.167
8008.693
8019.93
8030.857
8041.476
8051.804
8061.864
8071.688
8081.3
8090.714
8099.918
8108.888
8117.532
8125.681
8132.807
8138.957
8144.678
8150.026
8154.636
8158.385
8161.507
8164.279
8166.829
8169.194
8171.393
8173.457
8175.416
8177.304
8179.159
8181.037
8183.009
8185.179
8187.667
8190.588
8193.959
8197.624
8201.496
8205.206
8208
8209.33
8209.068
8207.412
8204.818
8202.591
8201.724
8202.066
8202.954
8203.957
8204.974
8206.024
8207.107
8208.192
8209.252
8210.275
8211.259
8212.203
8213.107
8213.968
8214.787
8215.561
8216.29
8216.975
8217.615
8218.209
8218.758
8219.26
8219.716
8220.125
8220.487
8220.802
8221.07
8221.291
8221.465
8221.592
8221.671
8221.702
8221.683
8221.615
8221.496
8221.323
8221.096
8220.811
8220.465
8220.055
8219.578
8219.03
8218.413
8217.727
8216.978
8216.175
8215.329
8214.449
8213.528
8212.529
8211.395
8210.1
8208.677
8207.156
8205.544
8203.84
8202.044
8200.157
8198.186
8196.143
8194.025
8191.835
8189.58
8187.3
8184.842
8182.358
8179.809
8177.279
8174.679
8172.06
8169.399
8166.704
8163.985
8161.246
8158.49
8155.724
8152.951
8150.176
8147.405
8144.642
8141.891
8139.157
8136.445
8133.759
8131.102
8128.48
8125.896
8123.353
8120.857
8118.412
8116.021
8113.692
8111.432
8109.256
8107.174
8105.21
8103.364
8101.681
8100.159
8098.72
8097.284
8095.848
8094.463
8093.175
8091.991
8090.904
8089.912
8089.017
8088.224
8087.534
8086.947
8086.465
8086.086
8085.806
8085.618
8085.536
8085.546
8085.645
8085.831
8086.104
8086.418
8086.831
8087.305
8087.831
8088.398
8088.994
8089.616
8090.247
8090.904
8091.615
8092.444
8093.491
8094.913
8096.87
8099.513
8102.814
8106.492
8110.251
8113.985
8117.698
8121.402
8125.092
8128.76
8132.401
8136.013
8139.594
8143.142
8146.654
8150.126
8153.555
8156.934
8160.26
8163.525
8166.723
8169.849
8172.895
8175.853
8178.718
8181.481
8184.136
8186.674
8189.088
8191.371
8193.517
8195.513
8197.35
8198.983
8200.357
8201.419
8202.359
8203.206
8203.812
8204.127
8204.221
8204.143
8203.883
8203.404
8202.695
8201.762
8200.611
8199.235
8197.626
8195.783
8193.702
8191.38
8188.815
8186.005
8182.951
8179.652
8176.109
8172.322
8168.294
8164.027
8159.521
8154.78
8149.807
8144.607
8139.182
8133.533
8127.666
8121.587
8115.296
8108.799
8102.103
8095.22
8088.141
8080.87
8073.41
8065.797
8057.92
8049.854
8041.579
8033.067
8024.263
8015.199
8005.84
7996.244
7986.461
7976.519
7966.425
7956.15
7945.613
7934.78
7923.66
7912.411
7901.107
7889.703
7878.133
7866.37
7854.427
7842.314
7830.025
7817.552
7804.89
7792.038
7778.997
7765.76
7752.323
7738.683
7724.836
7710.78
7696.512
7682.029
7667.329
7652.41
7637.271
7621.91
7606.327
7590.52
7574.49
7558.238
7541.765
7525.073
7508.166
7491.048
7473.724
7456.201
7438.485
7420.583
7402.505
7384.257
7365.849
7347.29
7328.592
7309.766
7290.823
7271.776
7252.638
7233.425
7214.151
7194.832
7175.484
7156.124
7136.77
7117.441
7098.155
7078.933
7059.794
7040.758
7021.848
7003.084
6984.492
6966.092
6947.906
6929.954
6912.26
6894.846
6877.734
6860.947
6844.507
6828.437
6812.758
6797.492
6782.66
6768.283
6754.383
6740.981
6728.102
6715.774
6704.034
6692.927
6682.533
6672.906
6664.251
6656.392
6650.158
6642.671
5707.143
5718.797
5734.339
5731.179
5743.724
5733.51
5758.681
5790.268
5828.761
5874.61
5928.502
5986.998
6054.555
6128.648
6208.305
6292.723
6339.886
6434.608
6529.415
6622.79
6715.298
6807.592
6895.637
6975.202
7043.844
7100.668
7144.945
7176.347
7195.07
7201.784
7197.546
7183.646
7161.5
7132.429
7097.572
7058.154
7015.455
6970.601
6924.547
6878.014
6831.497
6785.447
6739.896
6697.996
6659.734
6623.134
6588.489
6556.77
6528.45
6503.545
6482.044
6463.981
6449.254
6437.869
6430.053
6425.904
6425.416
6428.488
6434.965
6444.715
6457.617
6473.405
6491.766
6512.889
6536.805
6563.135
6591.409
6621.493
6653.109
6685.896
6719.651
6754.142
6789.049
6824.107
6859.112
6893.933
6928.351
6962.484
6995.688
7027.736
7058.075
7086.703
7114.299
7141.16
7167.043
7191.681
7215.03
7237.176
7258.196
7278.16
7297.109
7315.117
7332.298
7348.763
7364.608
7379.91
7394.743
7409.165
7423.251
7437.047
7450.635
7464.125
7477.603
7491.051
7504.513
7517.95
7531.417
7544.92
7558.437
7571.955
7585.475
7598.995
7612.505
7625.972
7639.368
7652.647
7665.817
7678.824
7691.647
7704.301
7716.741
7728.927
7740.858
7752.532
7763.935
7775.05
7785.867
7796.384
7806.609
7816.552
7826.231
7835.658
7844.835
7853.743
7862.347
7870.56
7878.26
7885.243
7891.473
7897.141
7902.331
7906.939
7910.897
7914.308
7917.334
7920.094
7922.644
7925.019
7927.251
7929.378
7931.435
7933.462
7935.509
7937.633
7939.905
7942.394
7945.142
7948.141
7951.29
7954.442
7957.355
7959.621
7960.902
7961.1
7960.396
7959.13
7957.919
7957.348
7957.531
7958.196
7959.052
7959.975
7960.943
7961.948
7962.968
7963.98
7964.97
7965.929
7966.856
7967.748
7968.601
7969.414
7970.186
7970.914
7971.6
7972.24
7972.836
7973.386
7973.889
7974.345
7974.755
7975.117
7975.431
7975.698
7975.917
7976.087
7976.21
7976.283
7976.308
7976.284
7976.208
7976.082
7975.902
7975.667
7975.375
7975.024
7974.609
7974.129
7973.582
7972.967
7972.286
7971.54
7970.735
7969.873
7968.957
7967.98
7966.922
7965.755
7964.462
7963.051
7961.536
7959.926
7958.224
7956.433
7954.557
7952.598
7950.563
7948.452
7946.269
7944.019
7941.71
7939.321
7936.885
7934.42
7931.827
7929.165
7926.606
7923.959
7921.269
7918.557
7915.823
7913.071
7910.306
7907.533
7904.757
7901.982
7899.214
7896.457
7893.716
7890.996
7888.3
7885.634
7883.001
7880.407
7877.855
7875.35
7872.898
7870.503
7868.173
7865.914
7863.738
7861.653
7859.672
7857.804
7856.063
7854.437
7852.896
7851.417
7849.986
7848.617
7847.331
7846.141
7845.047
7844.048
7843.149
7842.353
7841.659
7841.065
7840.586
7840.208
7839.928
7839.727
7839.673
7839.706
7839.828
7840.038
7840.326
7840.722
7841.163
7841.674
7842.248
7842.881
7843.567
7844.307
7845.104
7845.972
7846.94
7848.06
7849.403
7851.063
7853.137
7855.699
7858.731
7862.084
7865.583
7869.133
7872.71
7876.309
7879.919
7883.527
7887.125
7890.708
7894.271
7897.81
7901.32
7904.796
7908.234
7911.628
7914.971
7918.257
7921.48
7924.632
7927.707
7930.696
7933.592
7936.388
7939.076
7941.646
7944.092
7946.404
7948.572
7950.585
7952.425
7954.07
7955.512
7956.772
7957.854
7958.672
7959.179
7959.462
7959.595
7959.582
7959.387
7958.973
7958.323
7957.441
7956.331
7954.99
7953.411
7951.592
7949.529
7947.221
7944.668
7941.87
7938.825
7935.533
7931.996
7928.215
7924.19
7919.923
7915.418
7910.676
7905.702
7900.498
7895.069
7889.411
7883.535
7877.448
7871.148
7864.638
7857.924
7851.023
7843.903
7836.588
7829.074
7821.33
7813.456
7805.363
7797.048
7788.497
7779.69
7770.628
7761.314
7751.771
7742.028
7732.104
7721.995
7711.687
7701.16
7690.435
7679.565
7668.526
7657.301
7645.89
7634.295
7622.518
7610.562
7598.435
7586.139
7573.667
7561.012
7548.171
7535.139
7521.912
7508.486
7494.857
7481.02
7466.973
7452.713
7438.237
7423.543
7408.627
7393.49
7378.129
7362.543
7346.732
7330.695
7314.435
7297.951
7281.248
7264.326
7247.192
7229.849
7212.304
7194.563
7176.632
7158.521
7140.236
7121.787
7103.185
7084.438
7065.559
7046.56
7027.453
7008.252
6988.971
6969.626
6950.232
6930.806
6911.365
6891.927
6872.511
6853.135
6833.819
6814.585
6795.451
6776.44
6757.574
6738.876
6720.368
6702.071
6684.007
6666.2
6648.673
6631.449
6614.551
6598.002
6581.826
6566.044
6550.68
6535.755
6521.293
6507.316
6493.848
6480.916
6468.549
6456.781
6445.651
6435.217
6425.505
6416.641
6408.408
6401.49
6393.053
5573.648
5567.869
5557.307
5533.787
5521.824
5479.151
5469.454
5460.83
5453.842
5448.482
5445.289
5444.814
5447.85
5454.715
5465.59
5426.35
5450.957
5481.688
5519.314
5564.189
5616.65
5676.334
5743.206
5817.273
5897.289
5981.985
6068.86
6163.106
6257.389
6351.419
6444.859
6536.675
6623.974
6702.841
6770.568
6825.961
6868.51
6898.187
6915.382
6920.874
6915.755
6901.304
6878.909
6849.913
6815.529
6776.905
6735.194
6691.429
6646.424
6600.948
6555.463
6510.884
6467.799
6426.997
6389.096
6353.628
6320.351
6289.602
6261.865
6237.378
6216.22
6198.362
6183.804
6172.727
6165.258
6161.408
6161.134
6164.377
6171.048
6181.028
6194.162
6210.278
6229.217
6250.951
6275.332
6302.081
6330.931
6361.67
6394.024
6427.679
6462.367
6497.797
6533.675
6569.756
6605.798
6641.632
6677
6711.776
6745.459
6778.083
6809.523
6839.481
6868.073
6895.555
6921.944
6947.113
6970.998
6993.632
7015.084
7035.417
7054.693
7072.994
7090.427
7107.094
7123.086
7138.484
7153.372
7167.825
7181.921
7195.724
7209.313
7222.774
7236.174
7249.526
7262.876
7276.222
7289.576
7302.947
7316.35
7329.763
7343.177
7356.584
7369.97
7383.308
7396.573
7409.731
7422.763
7435.637
7448.328
7460.83
7473.115
7485.157
7496.944
7508.467
7519.717
7530.679
7541.345
7551.711
7561.78
7571.557
7581.05
7590.262
7599.187
7607.804
7616.076
7623.938
7631.312
7638.107
7644.277
7649.886
7654.999
7659.603
7663.678
7667.272
7670.49
7673.425
7676.137
7678.667
7681.05
7683.323
7685.523
7687.687
7689.857
7692.078
7694.393
7696.841
7699.436
7702.157
7704.924
7707.612
7710.047
7711.999
7713.272
7713.808
7713.724
7713.252
7712.736
7712.523
7712.758
7713.345
7714.12
7714.98
7715.894
7716.847
7717.822
7718.798
7719.762
7720.703
7721.617
7722.5
7723.348
7724.159
7724.93
7725.66
7726.348
7726.992
7727.591
7728.144
7728.651
7729.111
7729.524
7729.888
7730.205
7730.472
7730.692
7730.862
7730.983
7731.055
7731.078
7731.05
7730.972
7730.842
7730.659
7730.421
7730.127
7729.773
7729.357
7728.876
7728.33
7727.715
7727.034
7726.289
7725.477
7724.598
7723.65
7722.631
7721.528
7720.328
7719.021
7717.609
7716.097
7714.488
7712.787
7710.998
7709.123
7707.168
7705.134
7703.025
7700.845
7698.597
7696.286
7693.909
7691.475
7688.996
7686.467
7683.945
7681.249
7678.562
7675.861
7673.154
7670.42
7667.665
7664.895
7662.115
7659.332
7656.549
7653.771
7651.004
7648.251
7645.518
7642.809
7640.129
7637.482
7634.874
7632.309
7629.791
7627.327
7624.922
7622.582
7620.314
7618.127
7616.028
7614.026
7612.128
7610.336
7608.647
7607.05
7605.531
7604.079
7602.698
7601.401
7600.198
7599.092
7598.085
7597.176
7596.376
7595.676
7595.06
7594.602
7594.234
7593.969
7593.829
7593.742
7593.766
7593.892
7594.111
7594.422
7594.832
7595.323
7595.892
7596.535
7597.251
7598.039
7598.904
7599.852
7600.9
7602.074
7603.414
7604.971
7606.804
7608.969
7611.496
7614.371
7617.514
7620.826
7624.233
7627.7
7631.211
7634.751
7638.307
7641.868
7645.427
7648.976
7652.51
7656.022
7659.508
7662.961
7666.374
7669.741
7673.054
7676.308
7679.494
7682.604
7685.632
7688.568
7691.404
7694.132
7696.744
7699.229
7701.579
7703.783
7705.829
7707.705
7709.399
7710.906
7712.214
7713.295
7714.122
7714.714
7715.116
7715.35
7715.402
7715.247
7714.867
7714.253
7713.406
7712.326
7711.01
7709.453
7707.652
7705.605
7703.313
7700.773
7697.984
7694.947
7691.662
7688.129
7684.349
7680.324
7676.056
7671.548
7666.802
7661.823
7656.614
7651.181
7645.508
7639.617
7633.521
7627.193
7620.659
7613.92
7606.965
7599.828
7592.489
7584.948
7577.197
7569.257
7561.107
7552.742
7544.153
7535.329
7526.272
7516.983
7507.476
7497.766
7487.865
7477.776
7467.499
7457.034
7446.392
7435.574
7424.56
7413.347
7401.948
7390.373
7378.622
7366.698
7354.602
7342.333
7329.886
7317.254
7304.433
7291.419
7278.209
7264.798
7251.181
7237.356
7223.319
7209.066
7194.596
7179.904
7164.989
7149.849
7134.483
7118.889
7103.066
7087.016
7070.739
7054.235
7037.508
7020.56
7003.396
6986.019
6968.436
6950.651
6932.674
6914.509
6896.167
6877.656
6858.986
6840.166
6821.21
6802.127
6782.933
6763.639
6744.262
6724.815
6705.314
6685.778
6666.222
6646.666
6627.127
6607.625
6588.181
6568.814
6549.545
6530.394
6511.382
6492.534
6473.872
6455.419
6437.196
6419.229
6401.542
6384.159
6367.105
6350.401
6334.073
6318.143
6302.635
6287.573
6272.98
6258.879
6245.297
6232.259
6219.792
6207.928
6196.698
6186.14
6176.266
6167.152
6158.582
6151.173
6142.191
5471.236
5413.242
5378.212
5347.098
5321.63
5301.7
5285.042
5270.745
5258.171
5246.104
5172.826
5162.996
5154.246
5146.87
5141.127
5137.527
5136.537
5138.641
5144.568
5155.35
5170.911
5193.39
5222.229
5257.697
5299.874
5349.739
5407.462
5472.876
5545.562
5625.596
5711.532
5801.442
5895.398
5990.606
6085.07
6177.513
6266.539
6349.908
6424.707
6488.538
6540.095
6578.969
6605.359
6619.839
6623.305
6616.862
6601.778
6579.332
6550.767
6517.266
6479.922
6439.809
6397.845
6354.752
6311.251
6267.957
6225.597
6184.655
6145.467
6108.559
6074.06
6041.878
6012.191
5985.343
5961.603
5941.097
5923.873
5909.994
5899.572
5892.672
5889.3
5889.432
5893.045
5900.096
5910.477
5924.03
5940.618
5960.234
5982.656
6007.697
6035.172
6064.864
6096.523
6129.876
6164.626
6200.471
6237.118
6274.278
6311.683
6349.063
6386.19
6422.796
6458.678
6493.58
6527.413
6560.03
6591.213
6620.951
6649.392
6676.597
6702.514
6727.097
6750.364
6772.377
6793.206
6812.924
6831.618
6849.385
6866.322
6882.526
6898.086
6913.094
6927.632
6941.78
6955.616
6969.215
6982.651
6995.984
7009.257
7022.508
7035.748
7048.98
7062.224
7075.478
7088.749
7102.019
7115.273
7128.497
7141.666
7154.757
7167.74
7180.59
7193.282
7205.793
7218.106
7230.201
7242.056
7253.655
7264.988
7276.044
7286.811
7297.283
7307.454
7317.324
7326.893
7336.164
7345.134
7353.793
7362.121
7370.086
7377.645
7384.745
7391.336
7397.387
7402.92
7407.975
7412.567
7416.7
7420.41
7423.766
7426.839
7429.685
7432.345
7434.856
7437.252
7439.568
7441.838
7444.096
7446.375
7448.704
7451.102
7453.571
7456.084
7458.579
7460.959
7463.105
7464.88
7466.172
7466.949
7467.286
7467.336
7467.31
7467.419
7467.779
7468.373
7469.12
7469.954
7470.842
7471.768
7472.716
7473.671
7474.618
7475.548
7476.455
7477.334
7478.181
7478.994
7479.768
7480.503
7481.196
7481.846
7482.451
7483.011
7483.525
7483.991
7484.41
7484.78
7485.101
7485.373
7485.596
7485.77
7485.893
7485.967
7485.991
7485.965
7485.887
7485.758
7485.576
7485.339
7485.045
7484.693
7484.279
7483.802
7483.259
7482.643
7481.958
7481.209
7480.396
7479.507
7478.538
7477.491
7476.36
7475.136
7473.813
7472.391
7470.871
7469.261
7467.561
7465.774
7463.901
7461.946
7459.911
7457.8
7455.616
7453.362
7451.043
7448.659
7446.218
7443.727
7441.187
7438.605
7435.951
7433.264
7430.509
7427.822
7425.079
7422.309
7419.523
7416.729
7413.929
7411.129
7408.335
7405.55
7402.779
7400.027
7397.299
7394.6
7391.935
7389.308
7386.724
7384.188
7381.707
7379.285
7376.928
7374.644
7372.439
7370.319
7368.291
7366.36
7364.527
7362.791
7361.148
7359.588
7358.108
7356.709
7355.398
7354.182
7353.065
7352.047
7351.12
7350.331
7349.642
7349.079
7348.573
7348.192
7347.925
7347.771
7347.713
7347.76
7347.909
7348.157
7348.503
7348.948
7349.483
7350.106
7350.816
7351.613
7352.497
7353.475
7354.556
7355.755
7357.093
7358.602
7360.315
7362.27
7364.498
7367.013
7369.801
7372.819
7376.004
7379.303
7382.684
7386.124
7389.607
7393.121
7396.653
7400.194
7403.735
7407.27
7410.791
7414.291
7417.764
7421.203
7424.6
7427.948
7431.239
7434.466
7437.619
7440.692
7443.675
7446.559
7449.336
7451.996
7454.53
7456.928
7459.179
7461.272
7463.197
7464.943
7466.497
7467.846
7468.978
7469.89
7470.592
7471.091
7471.39
7471.484
7471.361
7471.012
7470.432
7469.618
7468.566
7467.274
7465.738
7463.957
7461.927
7459.648
7457.118
7454.338
7451.306
7448.023
7444.49
7440.708
7436.679
7432.405
7427.888
7423.132
7418.141
7412.922
7407.496
7401.78
7395.864
7389.724
7383.388
7376.837
7370.074
7363.096
7355.917
7348.536
7340.954
7333.168
7325.183
7316.991
7308.589
7299.97
7291.13
7282.071
7272.793
7263.304
7253.616
7243.735
7233.668
7223.416
7212.979
7202.359
7191.552
7180.555
7169.373
7158.011
7146.474
7134.762
7122.874
7110.809
7098.565
7086.138
7073.525
7060.72
7047.72
7034.521
7021.119
7007.509
6993.688
6979.653
6965.399
6950.924
6936.225
6921.299
6906.145
6890.76
6875.144
6859.295
6843.214
6826.902
6810.358
6793.587
6776.589
6759.37
6741.933
6724.283
6706.427
6688.37
6670.121
6651.687
6633.078
6614.303
6595.372
6576.298
6557.092
6537.766
6518.336
6498.815
6479.22
6459.565
6439.869
6420.148
6400.421
6380.708
6361.027
6341.399
6321.846
6302.388
6283.046
6263.844
6244.805
6225.956
6207.316
6188.91
6170.762
6152.894
6135.333
6118.102
6101.225
6084.727
6068.632
6052.964
6037.747
6023.006
6008.765
5995.05
5981.884
5969.295
5957.31
5945.951
5935.249
5925.204
5915.874
5907.053
5899.369
5890.126
5200.656
5144.663
5045.606
5022.786
5003.062
4986.528
4972.301
4959.613
4947.865
4936.934
4926.795
4916.999
4907.964
4899.963
4893.331
4888.552
4886.089
4886.522
4890.76
4899.767
4914.484
4935.475
4962.414
4996.052
5036.936
5085.836
5142.433
5207.816
5281.177
5361.499
5447.678
5537.89
5630.757
5724.468
5816.746
5905.682
5989.616
6066.715
6134.948
6192.559
6238.488
6272.488
6294.881
6306.344
6307.817
6300.371
6285.216
6263.481
6236.238
6204.521
6169.342
6131.565
6091.962
6051.384
6010.521
5969.917
5930.054
5891.345
5854.132
5818.812
5785.632
5754.716
5726.284
5700.578
5677.825
5658.19
5641.783
5628.685
5618.976
5612.716
5609.937
5610.646
5614.825
5622.427
5633.351
5647.471
5664.829
5685.2
5708.398
5734.276
5762.679
5793.4
5826.189
5860.775
5896.866
5934.157
5972.345
6011.124
6050.195
6089.26
6128.048
6166.288
6203.76
6240.25
6275.585
6309.613
6342.196
6373.295