/*--------------------------------*- C++ -*----------------------------------*\
| =========                 |                                                 |
| \\      /  F ield         | foam-extend: Open Source CFD                    |
|  \\    /   O peration     | Version:     3.1                                |
|   \\  /    A nd           | Web:         http://www.extend-project.de       |
|    \\/     M anipulation  |                                                 |
\*---------------------------------------------------------------------------*/
FoamFile
{
    version     2.0;
    format      ascii;
    class       volScalarField;
    location    "4";
    object      k;
}
// * * * * * * * * * * * * * * * * * * * * * * * * * * * * * * * * * * * * * //

dimensions      [0 2 -2 0 0 0 0];

internalField   nonuniform List<scalar> 
119952
(
0.01231886
0.01099421
0.01070682
0.01070406
0.01064608
0.01045073
0.01047309
0.01059846
0.01076494
0.01094389
0.01112031
0.01128668
0.01144023
0.01158088
0.01171018
0.0118306
0.01194543
0.01205987
0.01218626
0.01237466
0.0129936
0.01273296
0.01284233
0.01341779
0.01300132
0.01284444
0.01272999
0.01261709
0.01224775
0.01124243
0.02125069
0.01913838
0.01815779
0.01782698
0.01787993
0.01812593
0.01843692
0.01874293
0.01900192
0.01927034
0.01997259
0.02161809
0.02338706
0.02497737
0.02627172
0.02727722
0.0280315
0.02859097
0.02900233
0.03220973
0.03253617
0.03266576
0.03267693
0.03263475
0.03258841
0.03254959
0.03252983
0.0325203
0.03256687
0.03261639
0.03256846
0.03250759
0.03244364
0.03238421
0.03232999
0.03227771
0.03221147
0.03215999
0.03266753
0.03253531
0.03227669
0.03222187
0.03220271
0.03210466
0.03191342
0.03169572
0.031477
0.03126105
0.03104877
0.03084007
0.0306337
0.03042811
0.03022185
0.03001355
0.02980172
0.02958348
0.02935333
0.02910746
0.02890472
0.0287275
0.02847179
0.02832661
0.02839728
0.02835403
0.02823292
0.02815211
0.0280777
0.02735472
0.02672801
0.0262541
0.02585988
0.02550695
0.02518042
0.02487445
0.02458452
0.02430708
0.02404031
0.02378334
0.02353582
0.02329762
0.02306874
0.02284928
0.02263943
0.02243942
0.02224947
0.02206996
0.02190143
0.02174391
0.02159738
0.02146182
0.0213372
0.02122342
0.0211203
0.0210276
0.02094493
0.02087183
0.02080773
0.02075192
0.02070364
0.02066204
0.02062617
0.02059506
0.02056765
0.02054294
0.02052016
0.02049833
0.02047607
0.02045257
0.0204268
0.02039767
0.02036412
0.02032517
0.02028
0.0202279
0.02016797
0.02009807
0.02001912
0.01994961
0.01991264
0.01987655
0.01983833
0.01979406
0.01974253
0.01968346
0.01961741
0.01954535
0.01946833
0.01938675
0.01930156
0.01921483
0.01912713
0.01903927
0.0189523
0.01886697
0.01878387
0.01870346
0.01862619
0.01855224
0.01848167
0.01841494
0.018352
0.01829288
0.0182376
0.01818616
0.01813852
0.01809461
0.0180544
0.01801782
0.01798487
0.01795551
0.01792963
0.01790684
0.01788688
0.01786962
0.0178549
0.01784264
0.01783275
0.0178252
0.01781996
0.0178171
0.01781659
0.01781849
0.01782265
0.01782903
0.01783704
0.01784383
0.01785131
0.01801336
0.01836224
0.01857063
0.01870139
0.01878184
0.01883024
0.01885863
0.01887473
0.01888342
0.01888774
0.01888949
0.01888992
0.01888957
0.01888845
0.01888276
0.01887305
0.01886062
0.01884841
0.01883767
0.01882948
0.01882474
0.01882414
0.01882826
0.01883765
0.01885278
0.01887211
0.01889434
0.01892013
0.01895004
0.0189846
0.01902421
0.01906931
0.01912019
0.0191758
0.01923101
0.01923878
0.01928419
0.01935347
0.01942139
0.01948337
0.01953719
0.01958152
0.01961644
0.01964209
0.01965874
0.01966685
0.01966694
0.01965956
0.01964537
0.01962502
0.0195992
0.01956857
0.01953373
0.01949521
0.01945346
0.01940891
0.01936193
0.01931289
0.01926217
0.01921002
0.01915675
0.01910263
0.01904772
0.0189923
0.01893653
0.01888047
0.01882421
0.01876818
0.01871292
0.01865732
0.01805311
0.01809979
0.01808633
0.01798599
0.01784386
0.01768208
0.0175187
0.0173642
0.0172238
0.01709978
0.01699299
0.01690342
0.01683022
0.01677293
0.01673013
0.01670035
0.01668209
0.01667399
0.01667502
0.01668352
0.01669792
0.01671737
0.0167409
0.01676762
0.01679676
0.01682763
0.01685965
0.0168923
0.01692514
0.01695778
0.01698988
0.0170212
0.0170515
0.01707988
0.01710472
0.01712644
0.01714637
0.01716549
0.01718433
0.01720304
0.01722166
0.01724018
0.01725883
0.01727694
0.0172957
0.01731972
0.01733601
0.01734748
0.01735734
0.01736641
0.01737617
0.01738561
0.01739421
0.01741534
0.01747813
0.017456
0.01742607
0.01738709
0.01733972
0.01728656
0.01723043
0.0171741
0.01712004
0.01707052
0.01702732
0.01699177
0.01696477
0.01694688
0.0169383
0.01693902
0.01694884
0.01696722
0.01699369
0.01702775
0.01706857
0.01711525
0.01716691
0.01722265
0.01728152
0.01734259
0.01740491
0.01746757
0.01752982
0.01759095
0.01765032
0.01770714
0.01776101
0.01781218
0.01786135
0.01790918
0.01795607
0.01800224
0.01804783
0.01809293
0.01813757
0.01818174
0.01822537
0.01826823
0.01831036
0.018352
0.01839328
0.01843427
0.01847503
0.01851562
0.01855606
0.01859641
0.01863668
0.0186769
0.0187171
0.01875731
0.01879754
0.0188378
0.01887812
0.01891851
0.01895897
0.0189995
0.01904013
0.01908084
0.01912163
0.01916252
0.01920349
0.01924455
0.01928569
0.01932691
0.01936822
0.01940962
0.01945113
0.01949277
0.01953456
0.01957656
0.01961883
0.01966145
0.01970456
0.01974819
0.0197911
0.0198281
0.01987794
0.02002824
0.02049517
0.04319693
0.04014823
0.03946412
0.03988663
0.04078359
0.04178372
0.04270311
0.04345781
0.04405463
0.04375575
0.04484274
0.04706314
0.04955794
0.05189165
0.05387896
0.05549808
0.05675533
0.05770011
0.06515852
0.06522597
0.06516824
0.06489058
0.06450883
0.06411192
0.06373902
0.06340179
0.06309624
0.06279325
0.06267552
0.06232678
0.06186333
0.06137121
0.06087488
0.06038368
0.05990358
0.05943745
0.05897602
0.05870614
0.05833517
0.05781743
0.05728355
0.05673844
0.05618857
0.05563976
0.05509499
0.05455801
0.05402763
0.05348298
0.05294686
0.05242973
0.05191272
0.05139473
0.05087958
0.05037025
0.04987335
0.04941475
0.05223385
0.05167228
0.05115897
0.05067536
0.05020739
0.0497536
0.04931278
0.04888596
0.0484701
0.04806684
0.04768596
0.04732028
0.04696605
0.0466249
0.04629894
0.0459862
0.04569285
0.04543561
0.04526246
0.04509688
0.04483184
0.04457617
0.04436853
0.0441609
0.04391719
0.04364647
0.04336342
0.04307302
0.04277791
0.04248001
0.04218078
0.04188053
0.04157927
0.04127595
0.0409694
0.04065708
0.04033781
0.04001107
0.03968726
0.03937314
0.03905637
0.03876003
0.03853195
0.03834142
0.03814083
0.03792611
0.03766829
0.03728875
0.03679204
0.03632202
0.03589827
0.03549551
0.03510609
0.03472836
0.03436019
0.03400002
0.03364696
0.03330083
0.03296196
0.03263085
0.03230807
0.03199425
0.03169004
0.0313961
0.0311131
0.03084171
0.03058247
0.03033586
0.03010236
0.02988238
0.02967627
0.02948427
0.02930654
0.02914308
0.02899382
0.02885853
0.02873686
0.0286283
0.02853224
0.02844792
0.02837444
0.02831081
0.02825592
0.02820858
0.02816752
0.02813141
0.0280989
0.02806859
0.02803906
0.02800886
0.02797657
0.02794083
0.02790027
0.02785353
0.02779929
0.0277364
0.02766421
0.02758288
0.02749302
0.02739321
0.02728119
0.02715694
0.02702074
0.026873
0.02671441
0.02654585
0.02636832
0.02618295
0.02599102
0.02579383
0.02559285
0.02539001
0.02518773
0.02498696
0.02478859
0.0245936
0.02440294
0.02421749
0.02403805
0.02386543
0.02370028
0.02354301
0.02339386
0.02325296
0.02312032
0.02299589
0.02287951
0.02277098
0.02267001
0.02257629
0.02248944
0.0224091
0.02233481
0.0222662
0.02220277
0.02214416
0.02208985
0.02203954
0.02199269
0.02194909
0.02190819
0.02186989
0.02183353
0.02179918
0.02176589
0.02173404
0.02170305
0.02167673
0.02143395
0.02113578
0.02091246
0.02073866
0.02059953
0.02048504
0.02038867
0.02030615
0.02023458
0.02017186
0.02011639
0.02006694
0.02002252
0.01998231
0.01994563
0.01991184
0.01988037
0.0198507
0.01982247
0.01979539
0.0197692
0.01974365
0.01971851
0.01969358
0.01966867
0.01964362
0.01961836
0.0195928
0.01956695
0.01954082
0.0195144
0.01948755
0.01945986
0.01943043
0.01939853
0.01936977
0.0193547
0.01935531
0.01936316
0.01937474
0.0193893
0.01940615
0.01942492
0.01944534
0.01946732
0.01949082
0.01951583
0.01954234
0.01957037
0.01959995
0.01963108
0.01966379
0.01969808
0.01973398
0.01977148
0.01981057
0.01985124
0.01989347
0.01993724
0.01998252
0.02002926
0.02007743
0.02012698
0.02017784
0.02022995
0.02028321
0.02033754
0.02039281
0.02044895
0.02050532
0.02185173
0.02190587
0.02197444
0.02204804
0.02212116
0.02219216
0.0222609
0.02232705
0.02239029
0.02245065
0.02250829
0.0225634
0.0226162
0.02266695
0.02271598
0.02276358
0.02281007
0.02285573
0.02290088
0.02294578
0.02299063
0.02303562
0.0230809
0.02312661
0.02317286
0.02321975
0.02326732
0.02331561
0.02336464
0.0234144
0.02346483
0.02351585
0.02356729
0.023619
0.02367085
0.02372278
0.0237748
0.02382693
0.02387918
0.02393154
0.02398402
0.02403665
0.02408977
0.02414389
0.02419853
0.02425276
0.02430557
0.02435715
0.02440808
0.02445852
0.02450844
0.02455799
0.02460712
0.02466122
0.02471725
0.02476314
0.02480229
0.02483919
0.02487614
0.02491336
0.02495043
0.02498698
0.02502281
0.02505779
0.02509191
0.0251252
0.02515779
0.02518985
0.02522164
0.0252534
0.02528544
0.02531804
0.02535152
0.02538614
0.02542217
0.02545981
0.02549923
0.02554054
0.02558376
0.02562886
0.02567576
0.02572442
0.02577488
0.0258272
0.02588131
0.02593699
0.02599391
0.02605174
0.02611024
0.02616926
0.02622866
0.02628836
0.02634826
0.02640829
0.02646834
0.02652834
0.02658821
0.02664788
0.02670729
0.02676641
0.02682519
0.02688362
0.02694169
0.02699939
0.02705672
0.02711369
0.0271703
0.02722658
0.02728253
0.02733817
0.02739351
0.02744856
0.02750333
0.02755783
0.02761208
0.02766607
0.0277198
0.0277733
0.02782654
0.02787953
0.02793227
0.02798476
0.02803699
0.02808897
0.02814069
0.02819216
0.02824341
0.02829445
0.02834534
0.02839618
0.0284471
0.02849852
0.02855094
0.02860641
0.02866774
0.02874432
0.02884023
0.02897956
0.02908981
0.03880302
0.04270202
0.04708597
0.05134622
0.05549799
0.05997813
0.06423712
0.06818871
0.07266777
0.08270878
0.1340157
0.1380065
0.1408712
0.1431229
0.1448
0.1459475
0.1466156
0.1468602
0.1466923
0.1667569
0.166592
0.1662893
0.1658875
0.1651241
0.1639152
0.1623252
0.1604561
0.1583887
0.156259
0.1538666
0.151405
0.1490129
0.1467627
0.144653
0.1426564
0.1407389
0.1388719
0.1370922
0.1350945
0.1330221
0.1309425
0.1289329
0.1270069
0.1251588
0.1233828
0.1216704
0.1200187
0.1184387
0.1168401
0.1152691
0.1137217
0.112183
0.1106562
0.1091453
0.1076601
0.1062358
0.1106485
0.1092119
0.1078224
0.1064692
0.1051196
0.1037661
0.1024071
0.1010509
0.09970115
0.09835415
0.09702541
0.09571646
0.0944135
0.09311358
0.09182003
0.09053568
0.08926188
0.08799867
0.08674527
0.08550242
0.0842699
0.08304518
0.08182668
0.08061622
0.07941847
0.07823792
0.07707204
0.07591747
0.07477654
0.07365143
0.07253432
0.07142952
0.07034015
0.06927235
0.06822359
0.06720195
0.06618817
0.06517685
0.06425288
0.06335234
0.06247095
0.06161294
0.06078366
0.05998676
0.05922368
0.05849455
0.05779919
0.05713789
0.05650971
0.0559113
0.05534288
0.05480526
0.05429961
0.05382615
0.05338919
0.05299192
0.05264049
0.05231807
0.0519876
0.0516553
0.0513412
0.05104261
0.0507408
0.05042701
0.05010317
0.04977357
0.04944099
0.04910653
0.04877042
0.04843237
0.0480918
0.04774784
0.04739922
0.04704475
0.04668373
0.04631767
0.04594958
0.04558679
0.04522967
0.04489257
0.04458317
0.04430083
0.04402233
0.04372609
0.04339615
0.04300042
0.04253597
0.04205501
0.04158469
0.04113381
0.04069767
0.04027091
0.03985124
0.03943823
0.03903196
0.03863267
0.03824073
0.03785671
0.03748126
0.03711515
0.03675914
0.03641402
0.03608056
0.0357595
0.03545155
0.03515733
0.03487745
0.03461244
0.03436276
0.03412877
0.03391073
0.03370881
0.03352304
0.03335335
0.03319952
0.03306122
0.03293796
0.03282911
0.03273393
0.03265153
0.0325809
0.03252093
0.03247039
0.03242799
0.03239233
0.03236198
0.03233542
0.03231114
0.03228759
0.0322632
0.03223645
0.03220579
0.03216975
0.03212696
0.03207631
0.03201708
0.03194884
0.03187076
0.03178137
0.03167986
0.03156603
0.03143996
0.03130186
0.03115217
0.03099153
0.03082073
0.03064079
0.03045279
0.03025791
0.03005714
0.02985104
0.02964124
0.02942961
0.02921788
0.02900767
0.02880056
0.02859829
0.0284026
0.02821401
0.02803304
0.02786019
0.02769585
0.02754031
0.02739377
0.02725634
0.02712798
0.02700857
0.02689787
0.02679559
0.02670138
0.02661484
0.02653553
0.02646303
0.02639681
0.02633647
0.02628145
0.02623141
0.02618574
0.02614424
0.02610621
0.02607167
0.02603974
0.02601083
0.02598375
0.02595947
0.02593513
0.02588826
0.02585189
0.02582303
0.02579963
0.02578007
0.0257631
0.02574783
0.02573365
0.02572014
0.02570701
0.0256941
0.0256813
0.02566859
0.02565596
0.02564342
0.025631
0.02561874
0.02560667
0.02559483
0.02558328
0.02557206
0.0255612
0.02555073
0.02554068
0.02553104
0.02552184
0.02551308
0.02550479
0.025497
0.02548973
0.02548298
0.02547683
0.02547149
0.02546842
0.02546885
0.025473
0.02548325
0.02549931
0.02551922
0.02554201
0.02556719
0.02559427
0.02562291
0.02565283
0.02568386
0.02571588
0.0257488
0.02578255
0.02581711
0.02585244
0.02588853
0.02592537
0.02596298
0.02600136
0.02604052
0.02608049
0.02612126
0.02616287
0.02620531
0.02624861
0.02629278
0.02633785
0.02638379
0.0264307
0.02647845
0.02652725
0.02657673
0.02662751
0.02667866
0.02673483
0.02679336
0.02685125
0.02690439
0.02695543
0.02700692
0.02705963
0.02711356
0.02716849
0.02722406
0.02728001
0.02733618
0.02739243
0.02744866
0.02750479
0.02756077
0.02761655
0.02767216
0.02772761
0.02778292
0.02783801
0.02789286
0.02794748
0.02800191
0.02805618
0.02811031
0.02816435
0.02821831
0.02827224
0.02832615
0.02838006
0.02843396
0.02848783
0.02854162
0.02859529
0.02864883
0.02870225
0.02875558
0.02880885
0.02886206
0.02891522
0.02896831
0.02902122
0.02907362
0.02912484
0.02917494
0.02922365
0.02927091
0.02931718
0.02936292
0.02940841
0.02945361
0.02949862
0.02954348
0.02958802
0.02962927
0.02967054
0.02971342
0.02975741
0.02980152
0.0298454
0.02988912
0.02993278
0.02997633
0.03001976
0.03006311
0.03010635
0.03014947
0.03019248
0.03023538
0.03027823
0.03032106
0.03036396
0.030407
0.03045029
0.0304939
0.03053796
0.03058253
0.03062771
0.03067356
0.03072013
0.03076749
0.03081578
0.03086517
0.03091587
0.03096795
0.03102138
0.03107602
0.03113169
0.03118824
0.03124554
0.03130348
0.03136196
0.03142091
0.03148024
0.03153986
0.03159969
0.03165965
0.03171965
0.03177964
0.03183956
0.03189935
0.03195899
0.03201843
0.03207766
0.03213667
0.03219545
0.03225398
0.03231228
0.03237035
0.03242818
0.03248578
0.03254317
0.03260033
0.03265727
0.03271401
0.03277052
0.03282683
0.03288291
0.03293877
0.03299441
0.03304982
0.03310499
0.03315992
0.03321462
0.03326908
0.03332334
0.03337742
0.03343139
0.03348536
0.03353954
0.03359426
0.03365019
0.03370831
0.03377099
0.03384056
0.0339251
0.03402379
0.03415103
0.03422537
0.03120097
0.03696688
0.04225699
0.06939033
0.09461933
0.1271258
0.1465016
0.1654674
0.182882
0.1993443
0.2141758
0.2261106
0.2361471
0.2451006
0.2527371
0.2592318
0.2646455
0.2688269
0.27197
0.2740138
0.2751414
0.2759187
0.2758358
0.2746711
0.2725015
0.2695358
0.2659587
0.2619051
0.2574721
0.2527053
0.2474209
0.2473816
0.242774
0.2380062
0.2331734
0.2283034
0.2234819
0.2187525
0.2141423
0.2096757
0.2053548
0.2011697
0.1971347
0.1932369
0.1894777
0.1858562
0.1823689
0.1790137
0.1757922
0.1726862
0.1696784
0.1667859
0.1640037
0.1613199
0.158729
0.156227
0.1538114
0.1514795
0.1492213
0.1470369
0.1449248
0.1428729
0.1408717
0.1389228
0.137015
0.1351548
0.1333014
0.1314429
0.1296178
0.127834
0.1260776
0.1243498
0.1226504
0.1209777
0.1193281
0.1176948
0.1160709
0.1144595
0.1128618
0.1112731
0.1096928
0.1081239
0.1065697
0.105031
0.1035076
0.1019986
0.1005036
0.09902121
0.09754791
0.09608353
0.09463096
0.09319227
0.09176554
0.0903449
0.08893123
0.08752583
0.08613086
0.08474739
0.08337658
0.08202049
0.08068212
0.07936555
0.07807674
0.07681433
0.07558324
0.07437756
0.0732138
0.07208092
0.07097697
0.06990681
0.06887455
0.06788189
0.06692911
0.06601596
0.06514231
0.06430764
0.06351145
0.06275344
0.0620339
0.06135314
0.06071181
0.06011031
0.0595494
0.05902912
0.0585498
0.05810722
0.05768395
0.05727168
0.0568772
0.05650317
0.05614004
0.0557783
0.05541551
0.05505318
0.05469252
0.05433349
0.05397509
0.0536164
0.05325611
0.05289306
0.05252597
0.05215401
0.05177669
0.05139518
0.05101108
0.05063014
0.0502539
0.04988877
0.04953922
0.04920381
0.04886862
0.04851853
0.04814232
0.04772728
0.04726667
0.04678019
0.04629291
0.04581498
0.04534586
0.04488299
0.04442538
0.04397328
0.04352725
0.04308774
0.04265523
0.04223035
0.04181387
0.04140662
0.04100948
0.04062333
0.04024901
0.03988737
0.0395392
0.03920526
0.03888626
0.03858284
0.03829557
0.03802493
0.03777133
0.03753507
0.03731634
0.03711521
0.03693164
0.03676544
0.0366163
0.03648376
0.03636723
0.03626597
0.0361791
0.03610564
0.03604446
0.03599433
0.03595392
0.03592182
0.03589653
0.03587647
0.03586002
0.03584554
0.03583137
0.03581584
0.03579728
0.03577416
0.03574508
0.03570891
0.0356647
0.03561145
0.03554793
0.03547307
0.03538623
0.03528708
0.03517552
0.03505165
0.03491578
0.03476848
0.03461048
0.03444273
0.03426627
0.03408224
0.0338919
0.03369668
0.03349802
0.03329743
0.03309636
0.03289623
0.03269816
0.03250289
0.03231179
0.03212615
0.03194703
0.03177528
0.03161158
0.03145674
0.03131106
0.03117452
0.03104705
0.03092855
0.03081882
0.03071761
0.0306246
0.03053942
0.03046168
0.03039092
0.03032674
0.03026862
0.03021617
0.03016888
0.03012638
0.03008816
0.03005395
0.03002324
0.02999586
0.02997133
0.02994961
0.02993007
0.02991139
0.02989371
0.02987692
0.02986101
0.02984604
0.02983202
0.02981892
0.02980667
0.02979517
0.02978435
0.02977412
0.02976441
0.02975519
0.0297464
0.02973802
0.02973004
0.02972244
0.02971522
0.02970838
0.02970193
0.02969591
0.02969033
0.02968523
0.02968063
0.02967657
0.0296731
0.02967026
0.02966813
0.02966677
0.0296663
0.02966699
0.02966945
0.02967409
0.02968073
0.02968925
0.02970051
0.02971544
0.02973426
0.02975642
0.02978132
0.0298085
0.02983762
0.02986843
0.02990073
0.02993433
0.02996911
0.03000495
0.03004176
0.03007948
0.03011804
0.0301574
0.0301975
0.03023833
0.03027984
0.03032202
0.03036485
0.03040831
0.03045238
0.03049707
0.03054235
0.03058825
0.03063475
0.03068187
0.03072963
0.03077801
0.03082705
0.03087672
0.03092705
0.03097797
0.0310295
0.03108149
0.0311335
0.03118621
0.03124031
0.03129586
0.0313524
0.03140942
0.03146666
0.03152406
0.03158156
0.03163913
0.03169674
0.03175435
0.03181191
0.03186938
0.03192674
0.03198394
0.03204096
0.03209782
0.0321546
0.03221129
0.03226786
0.03232431
0.03238062
0.03243677
0.03249276
0.03254858
0.03260422
0.03265967
0.03271491
0.03276991
0.03282465
0.03287909
0.03293321
0.03298704
0.0330406
0.0330939
0.03314697
0.03319979
0.03325233
0.03330453
0.03335631
0.03340753
0.03345798
0.03350748
0.03355585
0.03360305
0.03364928
0.03369485
0.03374003
0.03378492
0.0338297
0.03387445
0.0339196
0.03396484
0.03400979
0.03405418
0.034098
0.03414155
0.03418524
0.03422935
0.03427402
0.03431926
0.03436503
0.03441128
0.03445796
0.03450503
0.03455245
0.03460016
0.03464813
0.03469633
0.03474472
0.0347933
0.03484205
0.03489096
0.03494003
0.03498927
0.03503868
0.03508827
0.03513806
0.03518813
0.03523857
0.03528956
0.03534124
0.03539373
0.03544707
0.03550122
0.03555612
0.03561171
0.03566793
0.0357247
0.03578198
0.0358397
0.0358978
0.03595623
0.03601492
0.03607382
0.03613285
0.03619197
0.03625112
0.03631026
0.03636936
0.03642839
0.03648733
0.03654615
0.03660485
0.03666343
0.03672187
0.03678018
0.03683835
0.03689639
0.0369543
0.03701208
0.03706972
0.03712724
0.03718462
0.03724186
0.03729896
0.03735591
0.03741271
0.03746934
0.03752581
0.03758212
0.03763825
0.03769424
0.03775011
0.03780592
0.03786176
0.03791779
0.03797428
0.03803165
0.03809064
0.03815229
0.03821846
0.03829088
0.03837388
0.03846424
0.03857046
0.03863755
0.01751187
0.0202286
0.02289839
0.03260982
0.04397008
0.06395948
0.07648581
0.08914324
0.1022348
0.1152095
0.1283763
0.1425836
0.1577035
0.1730061
0.1886946
0.2062136
0.2361908
0.2489914
0.2617911
0.2744709
0.2867706
0.297943
0.3075793
0.3156441
0.3221287
0.3265852
0.3289691
0.3296288
0.3286714
0.3259017
0.3220212
0.3172747
0.3118579
0.3057161
0.2990633
0.2921241
0.2850611
0.2779884
0.2710094
0.2641717
0.2575705
0.2511016
0.2441088
0.2377179
0.2317898
0.2261976
0.2208936
0.2158658
0.2110985
0.2065717
0.2022691
0.1981788
0.1942856
0.1905804
0.187054
0.1836933
0.1804453
0.1773304
0.1743531
0.1715115
0.168803
0.16622
0.1637583
0.1614128
0.1591787
0.1570515
0.1550254
0.1530938
0.1512492
0.1494836
0.1477899
0.1461601
0.1445845
0.1430571
0.1415702
0.1401166
0.1386835
0.1372591
0.1358336
0.1344216
0.1329933
0.131543
0.1300835
0.1286232
0.1271633
0.1257023
0.1242387
0.1227711
0.1212985
0.1198208
0.1183384
0.1168524
0.1153649
0.1138775
0.1123914
0.1109071
0.1094251
0.1079457
0.1064689
0.1049944
0.1035234
0.1020578
0.1005984
0.09914463
0.09769623
0.09625361
0.09481705
0.09338733
0.09196558
0.09055328
0.0891518
0.08776248
0.08638319
0.0850168
0.08366734
0.08233956
0.08103439
0.07975553
0.07850655
0.07728887
0.07610524
0.07495838
0.0738501
0.07278134
0.07175251
0.070764
0.06981607
0.06890908
0.06804328
0.06721886
0.066436
0.06569507
0.06499626
0.06433966
0.06372494
0.06315118
0.06261521
0.06210869
0.06162487
0.06116356
0.06072519
0.06030509
0.05989686
0.05949693
0.05910446
0.05871917
0.05834013
0.05796585
0.05759474
0.05722517
0.05685559
0.05648453
0.05611095
0.05573425
0.05535487
0.05497386
0.05459401
0.054217
0.05384513
0.05348038
0.05312071
0.05275831
0.05238303
0.05198607
0.05156126
0.05110527
0.05062735
0.05014168
0.04965702
0.04917564
0.04869727
0.04822186
0.04775001
0.04728251
0.04682007
0.0463634
0.04591329
0.04547065
0.04503643
0.0446116
0.04419715
0.04379403
0.04340318
0.04302549
0.04266183
0.042313
0.04197979
0.04166287
0.04136288
0.04108036
0.04081574
0.04056938
0.04034152
0.04013229
0.03994168
0.03976955
0.03961564
0.03947951
0.03936062
0.03925826
0.03917159
0.03909962
0.03904123
0.03899521
0.0389602
0.03893477
0.03891738
0.03890642
0.03890023
0.03889708
0.03889516
0.03889259
0.03888759
0.03887862
0.03886437
0.03884361
0.03881511
0.03877759
0.03872983
0.03867088
0.03860009
0.03851702
0.03842149
0.03831356
0.03819351
0.03806187
0.03791935
0.03776687
0.03760548
0.03743637
0.03726088
0.03708039
0.03689633
0.03671013
0.0365232
0.03633683
0.03615229
0.03597081
0.0357935
0.03562135
0.03545521
0.03529581
0.03514351
0.03499874
0.03486195
0.03473343
0.03461332
0.03450163
0.03439825
0.034303
0.0342156
0.03413575
0.03406306
0.03399716
0.03393762
0.03388402
0.03383593
0.03379294
0.03375462
0.0337206
0.03369048
0.03366394
0.03364063
0.03362024
0.03360246
0.03358686
0.03357305
0.03356065
0.03354939
0.03353911
0.03352969
0.03352104
0.03351307
0.03350571
0.0334989
0.0334926
0.03348675
0.03348133
0.03347633
0.03347171
0.0334675
0.03346367
0.03346025
0.03345725
0.03345466
0.03345251
0.03345083
0.03344966
0.03344906
0.03344908
0.03344979
0.03345128
0.03345365
0.03345703
0.03346157
0.03346739
0.03347443
0.03348287
0.03349295
0.03350497
0.03351935
0.03353654
0.03355676
0.03357987
0.03360553
0.03363341
0.03366327
0.03369491
0.03372817
0.03376289
0.03379893
0.03383617
0.03387452
0.0339139
0.03395422
0.03399544
0.03403747
0.03408026
0.03412376
0.03416791
0.03421269
0.03425803
0.03430391
0.03435029
0.03439716
0.03444448
0.03449227
0.03454052
0.03458924
0.03463844
0.03468811
0.03473825
0.03478887
0.03484
0.03489181
0.03494426
0.03499691
0.03504926
0.03510123
0.03515316
0.03520544
0.03525839
0.03531202
0.03536627
0.03542108
0.0354764
0.03553214
0.03558822
0.03564458
0.03570116
0.03575791
0.0358148
0.03587179
0.03592885
0.03598596
0.0360431
0.03610024
0.03615736
0.03621442
0.0362714
0.03632828
0.03638504
0.03644166
0.0364981
0.03655435
0.03661036
0.0366661
0.03672154
0.03677667
0.03683149
0.036886
0.03694022
0.03699414
0.03704774
0.03710098
0.03715381
0.03720615
0.03725788
0.03730888
0.03735902
0.03740822
0.03745646
0.03750383
0.03755055
0.0375968
0.03764271
0.03768841
0.03773394
0.03777939
0.03782455
0.03786941
0.03791416
0.03795902
0.03800415
0.03804964
0.0380956
0.03814211
0.03818918
0.0382368
0.038285
0.03833375
0.03838306
0.0384329
0.03848323
0.03853403
0.03858524
0.03863683
0.03868876
0.03874097
0.03879343
0.03884607
0.03889887
0.03895178
0.03900476
0.03905779
0.0391109
0.03916411
0.03921752
0.03927119
0.03932515
0.03937938
0.03943381
0.03948847
0.03954353
0.03959902
0.0396549
0.03971115
0.03976773
0.03982461
0.03988175
0.03993912
0.03999667
0.04005437
0.04011217
0.04017005
0.04022797
0.0402859
0.04034384
0.04040175
0.04045964
0.04051749
0.0405753
0.04063307
0.0406908
0.04074849
0.04080614
0.04086375
0.04092133
0.04097887
0.04103637
0.04109384
0.04115126
0.04120863
0.04126594
0.0413232
0.04138039
0.04143751
0.04149457
0.04155157
0.04160854
0.04166551
0.04172256
0.04177981
0.04183744
0.04189575
0.04195518
0.04201638
0.04208026
0.04214815
0.04222115
0.04230151
0.04238577
0.04247959
0.04253608
0.009802157
0.01141025
0.01270762
0.01983777
0.02743911
0.03739834
0.04449445
0.05212357
0.05998829
0.06809946
0.07666389
0.08657788
0.09716321
0.1086898
0.1222962
0.1448984
0.1561904
0.1680832
0.1802758
0.1927554
0.2055191
0.2185302
0.2316196
0.2446641
0.2575059
0.2697637
0.2813396
0.2933251
0.3046137
0.3146864
0.3239048
0.3320741
0.3381332
0.342058
0.3437078
0.3428696
0.3394723
0.3340729
0.326976
0.3185215
0.3091154
0.2991605
0.2889797
0.2787649
0.268683
0.2588957
0.249517
0.2406198
0.2322407
0.2243929
0.2170662
0.2102331
0.2038695
0.1979752
0.1925544
0.1875635
0.1829538
0.1786961
0.1747662
0.1711426
0.1678005
0.1647407
0.161936
0.1593604
0.1569932
0.1548162
0.1527908
0.1508754
0.1490656
0.1473637
0.1457691
0.1442774
0.1428834
0.1415832
0.1403738
0.1392512
0.1382101
0.1372441
0.1363464
0.13551
0.1347271
0.13399
0.1332909
0.1326213
0.1319679
0.1312955
0.1305989
0.1298924
0.1291725
0.1284358
0.1276742
0.1268806
0.126055
0.1251988
0.1243114
0.1233913
0.1224373
0.1214492
0.1204272
0.1193726
0.1182871
0.1171726
0.116031
0.1148647
0.113676
0.1124669
0.1112395
0.1099953
0.1087358
0.1074626
0.1061772
0.1048814
0.1035768
0.1022646
0.1009462
0.09962249
0.09829455
0.0969635
0.09563075
0.09429794
0.09296675
0.09163954
0.09031858
0.08900574
0.08770299
0.08641303
0.08513826
0.08388068
0.0826404
0.08142087
0.08022548
0.07905755
0.0779204
0.0768172
0.07574955
0.07471858
0.07372514
0.07277009
0.07185408
0.07097756
0.07014098
0.06934478
0.06858924
0.06787438
0.06719978
0.06656423
0.06596538
0.065399
0.06486068
0.06434826
0.06386059
0.06339504
0.06294772
0.06251539
0.0620962
0.06168898
0.06129239
0.06090481
0.06052446
0.06014962
0.05977858
0.05940969
0.0590417
0.05867375
0.05830557
0.05793737
0.05757008
0.05720456
0.05684126
0.05648006
0.05611898
0.0557532
0.05537604
0.05498122
0.05456492
0.05412607
0.05366858
0.05320043
0.0527281
0.05225458
0.05178084
0.05130747
0.05083528
0.05036523
0.04989826
0.04943527
0.0489772
0.04852506
0.04807989
0.04764279
0.04721481
0.046797
0.04639038
0.04599596
0.04561469
0.04524749
0.04489526
0.04455883
0.04423894
0.04393628
0.04365144
0.04338495
0.0431372
0.04290852
0.04269907
0.04250891
0.04233797
0.04218603
0.0420527
0.04193748
0.04183971
0.04175859
0.04169314
0.04164227
0.04160473
0.04157911
0.04156394
0.04155782
0.04155922
0.04156647
0.04157765
0.04159061
0.04160277
0.04161238
0.04161854
0.04161999
0.04161536
0.04160318
0.04158207
0.04155085
0.04150857
0.04145451
0.04138823
0.04130951
0.04121841
0.04111522
0.04100045
0.04087482
0.04073925
0.0405948
0.04044269
0.0402842
0.0401207
0.03995357
0.0397842
0.03961394
0.03944409
0.03927589
0.03911049
0.03894891
0.03879207
0.03864075
0.03849558
0.03835709
0.0382257
0.03810169
0.03798526
0.03787647
0.03777531
0.03768168
0.03759541
0.03751628
0.03744399
0.03737824
0.03731867
0.03726493
0.03721664
0.03717342
0.03713489
0.03710069
0.03707046
0.03704386
0.03702057
0.0370003
0.03698277
0.03696769
0.03695479
0.03694376
0.03693433
0.03692626
0.03691936
0.03691348
0.03690849
0.03690428
0.03690075
0.03689782
0.03689543
0.03689353
0.03689208
0.03689106
0.03689044
0.03689022
0.03689041
0.03689098
0.03689181
0.03689291
0.03689437
0.03689627
0.03689867
0.03690165
0.03690529
0.03690967
0.03691487
0.03692099
0.03692813
0.03693641
0.03694594
0.03695688
0.03696941
0.03698374
0.03700015
0.0370189
0.03704016
0.03706391
0.03708999
0.03711818
0.03714833
0.03718028
0.03721392
0.0372491
0.03728568
0.03732355
0.03736263
0.03740283
0.03744406
0.03748627
0.03752937
0.03757331
0.03761802
0.03766342
0.03770948
0.03775611
0.03780327
0.0378509
0.03789893
0.03794731
0.03799598
0.03804491
0.0380942
0.03814387
0.03819395
0.03824448
0.03829512
0.0383456
0.03839571
0.03844556
0.03849526
0.03854491
0.03859481
0.03864522
0.03869624
0.03874793
0.03880026
0.03885321
0.03890674
0.0389608
0.03901535
0.03907031
0.03912563
0.03918125
0.03923712
0.03929321
0.03934948
0.0394059
0.03946244
0.03951908
0.03957579
0.03963255
0.03968933
0.03974611
0.03980286
0.03985957
0.03991619
0.03997271
0.04002909
0.04008531
0.04014134
0.04019713
0.04025268
0.04030798
0.04036301
0.04041777
0.04047225
0.04052641
0.04058021
0.04063359
0.04068648
0.0407388
0.04079044
0.04084133
0.04089141
0.04094067
0.04098917
0.04103704
0.0410844
0.04113137
0.04117803
0.04122443
0.04127062
0.04131662
0.04136247
0.04140833
0.04145431
0.04150051
0.04154701
0.04159391
0.04164128
0.04168921
0.04173771
0.04178684
0.04183659
0.04188699
0.04193803
0.04198968
0.04204195
0.04209478
0.04214815
0.04220202
0.04225635
0.04231108
0.04236616
0.04242155
0.0424772
0.04253306
0.04258913
0.04264539
0.04270189
0.04275867
0.0428158
0.04287332
0.04293125
0.04298957
0.04304827
0.04310734
0.04316675
0.04322648
0.04328651
0.04334681
0.04340737
0.04346815
0.04352914
0.0435903
0.04365161
0.04371304
0.04377456
0.04383616
0.04389781
0.04395951
0.04402124
0.04408301
0.0441448
0.04420661
0.04426846
0.04433033
0.04439223
0.04445416
0.04451613
0.04457814
0.04464018
0.04470225
0.04476436
0.0448265
0.04488866
0.04495084
0.04501303
0.04507523
0.04513745
0.04519968
0.04526195
0.04532428
0.04538674
0.04544939
0.04551238
0.04557591
0.04564025
0.04570582
0.04577318
0.04584303
0.04591631
0.04599363
0.04607641
0.04616114
0.04625334
0.04630933
0.003511329
0.01251516
0.01859074
0.0249866
0.03129684
0.03790057
0.04494044
0.05216838
0.05984169
0.06879098
0.08293908
0.09062515
0.09883985