/*--------------------------------*- C++ -*----------------------------------*\
| =========                 |                                                 |
| \\      /  F ield         | foam-extend: Open Source CFD                    |
|  \\    /   O peration     | Version:     3.1                                |
|   \\  /    A nd           | Web:         http://www.extend-project.de       |
|    \\/     M anipulation  |                                                 |
\*---------------------------------------------------------------------------*/
FoamFile
{
    version     2.0;
    format      ascii;
    class       volScalarField;
    location    "4";
    object      omega;
}
// * * * * * * * * * * * * * * * * * * * * * * * * * * * * * * * * * * * * * //

dimensions      [0 0 -1 0 0 0 0];

internalField   nonuniform List<scalar> 
119952
(
158.2269
195.7219
184.8231
162.9735
147.8062
149.3043
152.5968
156.7907
161.4701
166.4436
171.6141
176.9374
182.4043
188.0275
193.8334
199.8588
206.151
212.7782
219.8794
227.9532
192.3137
192.4036
195.2743
165.2984
162.7197
161.738
161.0181
160.3047
157.7783
151.1457
382.3429
308.7366
257.6446
223.3016
198.73
180.0708
165.0518
152.529
141.7539
129.7186
109.1274
96.13963
87.68627
81.54319
76.62719
72.43171
68.70177
65.31985
62.25608
50.46928
48.55137
46.60068
44.70397
42.90948
41.23727
39.68562
38.24934
36.9138
35.69654
34.57453
33.4557
32.36509
31.3106
30.29709
29.32659
28.3957
27.48998
26.59474
26.25757
25.90256
25.39318
24.94817
24.55712
24.19061
23.81521
23.44558
23.09029
22.75052
22.42685
22.11982
21.82928
21.55473
21.29527
21.04953
20.81515
20.58736
20.35633
20.10759
19.85348
19.61198
19.31908
19.02187
18.84735
18.71612
18.63282
18.75921
19.47151
20.65936
20.85761
20.8629
20.77755
20.66174
20.53302
20.40006
20.26898
20.14424
20.02805
19.92151
19.82514
19.73915
19.66352
19.59808
19.54257
19.49664
19.45982
19.4313
19.41041
19.39708
19.39116
19.39245
19.40077
19.41595
19.43788
19.4665
19.50183
19.54395
19.59307
19.64943
19.7134
19.78539
19.86589
19.95539
20.05432
20.16322
20.28314
20.41451
20.55782
20.71379
20.88287
21.06542
21.26168
21.47182
21.69588
21.93348
22.18277
22.43428
22.66091
22.91739
23.2552
23.6155
23.98995
24.37177
24.75759
25.14525
25.53396
25.9227
26.31067
26.69476
27.07607
27.45506
27.83009
28.20026
28.56507
28.92434
29.27801
29.62612
29.96887
30.30593
30.63854
30.96702
31.29217
31.61472
31.93593
32.25676
32.578
32.90067
33.22595
33.55486
33.88858
34.22805
34.57329
34.92493
35.28359
35.65009
36.02552
36.41075
36.80667
37.21448
37.63496
38.0687
38.51647
38.97915
39.45717
39.95032
40.45808
40.96627
41.36526
43.14856
46.81879
49.98996
52.67059
54.93784
56.86946
58.5376
60.0029
61.31428
62.51085
63.62357
64.67575
65.68573
66.66845
67.63434
68.58769
69.54358
70.51119
71.49327
72.49382
73.51656
74.56554
75.64468
76.75756
77.90771
79.09585
80.3241
81.59379
82.90714
84.26405
85.66521
87.10943
88.59228
90.06836
91.43647
91.45452
90.04684
88.72806
87.45611
86.21352
84.99184
83.77903
82.57282
81.37092
80.17155
78.97481
77.7815
76.5925
75.40932
74.23348
73.06661
71.91025
70.76558
69.63353
68.51491
67.41065
66.32171
65.24908
64.19393
63.15695
62.13902
61.14116
60.16387
59.20821
58.27487
57.36402
56.4773
55.61494
54.77938
53.97024
41.75073
41.1901
40.52052
39.7152
38.881
38.051
37.23174
36.4381
35.68234
34.97026
34.30388
33.68256
33.10382
32.56461
32.06123
31.58993
31.14682
30.7285
30.33191
29.95384
29.59191
29.24423
28.90909
28.58502
28.27086
27.96564
27.66862
27.37923
27.09708
26.82195
26.55383
26.29285
26.0389
25.78932
25.53821
25.28546
25.03248
24.78042
24.53013
24.28238
24.03794
23.79766
23.5626
23.33392
23.11466
22.91269
22.72225
22.53734
22.35792
22.18384
22.01643
21.8554
21.69924
21.54871
21.45229
21.30403
21.14156
20.96545
20.77371
20.56914
20.35541
20.13658
19.91645
19.69854
19.48586
19.28079
19.0851
18.89994
18.72597
18.56335
18.41191
18.27105
18.13995
18.01773
17.90379
17.79747
17.69789
17.60425
17.51585
17.43209
17.35246
17.27626
17.20236
17.12896
17.05387
16.97506
16.89166
16.80434
16.71468
16.62407
16.53341
16.44326
16.35396
16.26576
16.17882
16.09334
16.00976
15.92915
15.85143
15.77572
15.70166
15.62909
15.55796
15.48824
15.4199
15.35293
15.28733
15.22308
15.16017
15.09857
15.03828
14.97926
14.92151
14.86499
14.80968
14.75555
14.70258
14.65072
14.59994
14.55021
14.50147
14.45367
14.40676
14.36067
14.31532
14.2706
14.22638
14.18248
14.13868
14.09463
14.04985
14.00356
13.95439
13.89985
13.83811
13.77196
13.67048
13.51312
13.65622
504.9963
412.2521
354.1599
314.1247
284.1724
260.2261
240.1833
222.9054
207.0894
176.8625
146.1437
126.6679
113.4941
103.9732
96.66993
90.78817
85.86655
81.6222
65.055
62.40139
59.84934
57.40788
55.14415
53.08178
51.21443
49.52472
47.99146
46.59182
45.38027
44.18782
43.0043
41.85086
40.73415
39.65965
38.63134
37.65146
36.71759
36.01413
35.43894
34.77458
34.08079
33.37225
32.66141
31.95793
31.26858
30.59928
29.95159
29.32165
28.71712
28.13841
27.57818
27.03432
26.50677
25.99565
25.50313
25.04439
22.50341
22.12205
21.76242
21.41844
21.08494
20.75981
20.44166
20.12941
19.82184
19.51834
19.22054
18.92637
18.63434
18.34456
18.05718
17.77224
17.4909
17.21772
16.96296
16.72034
16.46696
16.21792
15.98236
15.75548
15.52987
15.30498
15.08233
14.86225
14.6449
14.43044
14.21903
14.01077
13.80573
13.60374
13.40458
13.20769
13.01253
12.81859
12.62698
12.43897
12.25351
12.07357
11.91027
11.76325
11.62764
11.50674
11.41377
11.33415
11.23342
11.11727
11.00117
10.88552
10.77386
10.66576
10.56074
10.45853
10.35893
10.26185
10.16726
10.07513
9.985484
9.898318
9.813645
9.731472
9.651801
9.574643
9.500013
9.427901
9.358287
9.291142
9.226431
9.164117
9.104163
9.046537
8.991214
8.938177
8.887422
8.838958
8.792806
8.749001
8.707588
8.668624
8.632173
8.598305
8.567097
8.53863
8.512989
8.490254
8.470501
8.453795
8.440192
8.429725
8.422404
8.418193
8.416997
8.418661
8.423008
8.429995
8.439988
8.45361
8.471587
8.4941
8.520943
8.551952
8.58681
8.62518
8.666711
8.711014
8.75772
8.806416
8.856606
8.907615
8.958356
9.0086
9.058258
9.107191
9.155241
9.202241
9.248041
9.2925
9.33556
9.377211
9.417448
9.456306
9.49385
9.530153
9.565314
9.599446
9.632673
9.665123
9.696915
9.728188
9.759062
9.789656
9.820077
9.850435
9.880818
9.911322
9.941997
9.972899
10.00403
10.03542
10.067
10.09867
10.12996
10.16016
10.18809
10.19969
10.53275
10.97036
11.31619
11.58923
11.8064
11.98075
12.12245
12.23944
12.33786
12.42243
12.49677
12.5636
12.62494
12.68235
12.73699
12.78975
12.84138
12.89232
12.94281
12.99293
13.04271
13.09217
13.14132
13.19016
13.23866
13.28677
13.33437
13.38125
13.42709
13.47141
13.51346
13.55201
13.58463
13.60628
13.60766
13.57848
13.53584
13.48794
13.43653
13.38187
13.32473
13.26574
13.20535
13.1439
13.08169
13.01898
12.95599
12.89292
12.82992
12.76714
12.70469
12.64269
12.58121
12.52031
12.46007
12.40055
12.34182
12.28392
12.22692
12.17087
12.11578
12.06171
12.00867
11.95671
11.90582
11.85606
11.80745
11.76007
11.71402
11.67073
10.2427
10.18034
10.12746
10.08007
10.03611
9.9942
9.953654
9.91398
9.874753
9.835689
9.796636
9.757516
9.718293
9.678957
9.639535
9.600071
9.560613
9.521215
9.481954
9.442909
9.40415
9.365753
9.327791
9.290331
9.253438
9.21717
9.18158
9.146718
9.11263
9.079355
9.046929
9.015366
8.984643
8.954677
8.925352
8.896556
8.868207
8.840248
8.812652
8.785413
8.758541
8.732045
8.705878
8.679956
8.654401
8.629239
8.604409
8.579991
8.556122
8.532879
8.510353
8.488805
8.46958
8.453167
8.436807
8.418876
8.402058
8.386528
8.371486
8.356614
8.341802
8.326924
8.31183
8.296394
8.280524
8.264153
8.247245
8.229796
8.211832
8.193409
8.174614
8.15554
8.136298
8.117009
8.0978
8.078797
8.060127
8.041907
8.024235
8.007179
7.990737
7.97481
7.959211
7.943733
7.928226
7.912624
7.896925
7.881147
7.865312
7.849436
7.833536
7.817622
7.801704
7.785794
7.769904
7.754046
7.738241
7.722502
7.706841
7.691262
7.675771
7.66037
7.645065
7.629861
7.614766
7.599785
7.584927
7.570197
7.555603
7.541151
7.526849
7.512701
7.498713
7.484888
7.471231
7.457743
7.444425
7.431276
7.418292
7.405469
7.392797
7.380264
7.367855
7.355545
7.343305
7.331094
7.318855
7.306515
7.293965
7.281055
7.267562
7.253151
7.237288
7.219126
7.197375
7.170785
7.14431
7.125135
7.110104
516.0499
460.6426
414.487
378.6677
349.8971
327.392
307.9561
290.8347
277.1334
268.6807
129.9407
124.361
119.3168
114.5944
110.1564
105.9807
102.0491
98.33002
94.52462
71.90421
66.01617
62.08359
59.44988
57.53763
56.00677
54.68406
53.48357
52.3589
51.31194
50.18067
48.90199
47.58051
46.30122
45.11069
44.0237
43.03676
42.13875
41.30243
41.05033
40.57834
39.97623
39.31164
38.62579
37.94342
37.27947
36.6422
36.03736
35.4688
34.92325
34.40228
33.90092
33.41323
32.93768
32.47415
32.02461
31.60447
29.09561
28.72052
28.36834
28.03433
27.71046
27.39265
27.07846
26.76579
26.45277
26.13875
25.82639
25.51629
25.20636
24.89609
24.58593
24.27627
23.96732
23.65916
23.35175
23.04573
22.7419
22.44001
22.13988
21.8416
21.54483
21.24858
20.95348
20.66001
20.36908
20.08164
19.79706
19.51611
19.23956
18.96838
18.70233
18.44232
18.18579
17.92642
17.71322
17.50224
17.29261
17.08493
16.88018
16.679
16.48167
16.28816
16.09836
15.91213
15.72914
15.54868
15.37052
15.19459
15.02095
14.84967
14.68139
14.51696
14.35758
14.20225
14.04556
13.88719
13.72973
13.57375
13.41686
13.25738
13.09525
12.931
12.76515
12.59807
12.43008
12.26144
12.0924
11.92316
11.75386
11.58459
11.41545
11.24683
11.07926
10.91403
10.75163
10.59433
10.44399
10.3019
10.16622
10.03481
9.907447
9.78465
9.655615
9.520844
9.38923
9.262209
9.13945
9.020323
8.90448
8.791783
8.682151
8.575508
8.471775
8.370887
8.272784
8.177416
8.084737
7.9947
7.907259
7.822369
7.739985
7.66006
7.582547
7.507401
7.434577
7.364028
7.295712
7.229589
7.165626
7.103792
7.044065
6.98643
6.930878
6.877409
6.826027
6.776743
6.729574
6.68454
6.641665
6.600975
6.562494
6.526246
6.492255
6.460536
6.431101
6.403953
6.379085
6.356476
6.336094
6.317893
6.301839
6.287938
6.276255
6.266856
6.259708
6.254772
6.252021
6.251428
6.252922
6.256415
6.261791
6.26892
6.277667
6.28791
6.299572
6.312747
6.327794
6.34443
6.36227
6.380976
6.400253
6.419823
6.439347
6.45839
6.47692
6.494928
6.512396
6.529315
6.54568
6.561494
6.576769
6.591535
6.605836
6.619716
6.63322
6.646406
6.65933
6.672047
6.684616
6.697085
6.709514
6.721932
6.734393
6.746898
6.759499
6.772148
6.784896
6.797617
6.810359
6.822915
6.835474
6.847286
6.87202
6.889613
6.902352
6.911841
6.919341
6.925729
6.931598
6.937337
6.943201
6.949348
6.955867
6.962803
6.970167
6.977956
6.986161
6.99477
7.003763
7.013112
7.022782
7.032736
7.042943
7.053363
7.063965
7.074711
7.085563
7.096469
7.107362
7.118153
7.128717
7.138885
7.148409
7.1569
7.163796
7.16801
7.169076
7.168395
7.166327
7.16325
7.159345
7.15469
7.14936
7.14342
7.13692
7.129904
7.122413
7.11447
7.106104
7.097341
7.0882
7.078704
7.068872
7.058725
7.048286
7.037577
7.026624
7.015452
7.004088
6.99256
6.980897
6.969125
6.957274
6.945372
6.933447
6.921528
6.909647
6.897832
6.886128
6.874549
6.863048
6.849766
6.856097
6.860548
6.862586
6.862383
6.860491
6.857269
6.85292
6.847606
6.841448
6.83454
6.826965
6.8188
6.810093
6.800895
6.791249
6.781195
6.770768
6.760002
6.748939
6.737639
6.726139
6.714471
6.702666
6.690755
6.678768
6.666736
6.654687
6.642652
6.630661
6.618741
6.606919
6.595216
6.583647
6.572219
6.560936
6.5498
6.538816
6.527987
6.51732
6.506829
6.496539
6.486507
6.476897
6.467987
6.459702
6.452002
6.44475
6.437732
6.430863
6.424132
6.417576
6.411134
6.404657
6.398177
6.392667
6.387528
6.382597
6.377896
6.373321
6.368751
6.364135
6.35946
6.354721
6.349889
6.344917
6.339766
6.334401
6.328792
6.322914
6.316747
6.310282
6.303513
6.296444
6.289089
6.281468
6.273609
6.265542
6.257304
6.248927
6.240437
6.231842
6.223127
6.21426
6.205214
6.195974
6.186547
6.176948
6.167197
6.157313
6.147312
6.137207
6.127012
6.116741
6.106404
6.096015
6.085586
6.07513
6.064658
6.05418
6.043707
6.033246
6.022805
6.012391
6.002011
5.991672
5.981379
5.971139
5.960958
5.950843
5.940799
5.930831
5.920947
5.911149
5.901444
5.891834
5.882323
5.872913
5.863605
5.854398
5.845289
5.836275
5.827347
5.818496
5.809707
5.80096
5.792227
5.783472
5.774645
5.76568
5.756484
5.746931
5.736846
5.725989
5.714063
5.700736
5.685809
5.669426
5.653431
5.639307
307.5333
228.8178
305.865
140.3818
109.7151
77.87569
67.8138
59.25182
52.48347
49.32113
48.14475
47.62079
47.43413
47.79595
48.13512
48.4944
48.86235
49.21848
49.48899
49.65591
49.71055
49.42523
48.65112
48.31663
47.99415
47.59886
47.12298
46.57465
45.96599
45.30207
44.57468
42.65638
41.84934
41.03196
40.21397
39.40835
38.62317
37.8621
37.12676
36.41844
35.73663
35.07873
34.44421
33.83032
33.23619
32.66312
32.11115
31.58034
31.07115
30.58252
30.11473
29.6693
29.24499
28.83964
28.45174
28.0801
27.72384
27.38219
27.05383
26.73845
26.43566
26.14397
25.86218
25.59005
25.32625
25.0708
24.81941
24.56427
24.35324
24.13875
23.91969
23.69757
23.47348
23.2481
23.02177
22.79556
22.57055
22.34606
22.12163
21.89639
21.66966
21.44149
21.21207
20.98143
20.74952
20.51634
20.28193
20.0463
19.80905
19.57001
19.32988
19.08938
18.84944
18.61126
18.37458
18.1393
17.90555
17.6734
17.44301
17.2147
16.98878
16.76476
16.54313
16.32424
16.10933
15.89774
15.693
15.49374
15.29944
15.11045
14.92711
14.74952
14.57759
14.41113
14.24994
14.09375
13.94227
13.79522
13.65238
13.51355
13.37859
13.24737
13.11982
12.99588
12.87553
12.75842
12.64239
12.52595
12.40951
12.29338
12.17638
12.05716
11.93519
11.81051
11.68326
11.55355
11.42143
11.28702
11.15042
11.01182
10.87138
10.72933
10.58593
10.44165
10.29697
10.15291
10.01005
9.869528
9.73234
9.598953
9.468436
9.339497
9.211129
9.0822
8.951358
8.819784
8.68992
8.562918
8.438842
8.317476
8.198713
8.082557
7.969027
7.858119
7.749816
7.6441
7.540956
7.440369
7.342322
7.246794
7.153758
7.063187
6.975048
6.889308
6.805929
6.724876
6.646109
6.569593
6.495292
6.423171
6.353201
6.285356
6.219614
6.155956
6.094371
6.034851
5.977392
5.921994
5.868661
5.817397
5.768211
5.721109
5.6761
5.633189
5.592381
5.553673
5.51706
5.482533
5.450077
5.419673
5.391293
5.364906
5.34048
5.317999
5.297458
5.278849
5.262128
5.247234
5.234114
5.222725
5.213014
5.204923
5.198389
5.193334
5.189687
5.187376
5.186335
5.186512
5.187866
5.190324
5.193785
5.198134
5.203262
5.209076
5.215565
5.222792
5.230557
5.238679
5.24701
5.255436
5.263865
5.272163
5.280279
5.288208
5.295962
5.303549
5.310983
5.31828
5.325463
5.332552
5.339574
5.346554
5.353516
5.360483
5.367476
5.374508
5.381595
5.388739
5.395946
5.403205
5.410517
5.417856
5.425233
5.432664
5.440737
5.449165
5.457727
5.466256
5.474672
5.482949
5.491084
5.499079
5.506955
5.514732
5.522429
5.530065
5.537655
5.545218
5.552764
5.560298
5.567833
5.575373
5.582919
5.590475
5.598033
5.605584
5.61313
5.620658
5.628153
5.635585
5.642928
5.650134
5.657138
5.663852
5.670135
5.675717
5.680371
5.684127
5.687132
5.689391
5.690996
5.69209
5.692777
5.693103
5.693099
5.692783
5.692173
5.691288
5.690135
5.688717
5.687046
5.685131
5.682971
5.68057
5.677933
5.675068
5.67198
5.668674
5.665159
5.661443
5.657534
5.653441
5.649176
5.644747
5.640167
5.63545
5.630602
5.625637
5.620574
5.615421
5.610203
5.604911
5.599576
5.59413
5.589294
5.584835
5.580683
5.576828
5.573234
5.569808
5.566471
5.563149
5.559791
5.556367
5.552863
5.549275
5.545608
5.541865
5.538053
5.534178
5.530247
5.526269
5.522237
5.518124
5.513927
5.509652
5.505304
5.500889
5.496416
5.491891
5.487325
5.482728
5.478111
5.473486
5.468867
5.464264
5.459687
5.455143
5.450637
5.446174
5.441762
5.437411
5.433136
5.428953
5.424882
5.420951
5.417194
5.413644
5.410308
5.407184
5.404243
5.401438
5.398728
5.39609
5.393514
5.390982
5.388519
5.386172
5.384008
5.3819
5.379768
5.377606
5.375419
5.373199
5.370936
5.368622
5.366248
5.363801
5.361265
5.358626
5.355868
5.352977
5.349936
5.346732
5.343349
5.339775
5.335999
5.332013
5.327811
5.32339
5.318749
5.31389
5.308815
5.303524
5.298015
5.292281
5.286317
5.280119
5.273688
5.267033
5.260165
5.253097
5.245843
5.238417
5.230835
5.223111
5.21526
5.207298
5.19924
5.191099
5.182892
5.17463
5.166327
5.157994
5.149642
5.141281
5.13292
5.124567
5.11623
5.107916
5.099632
5.091385
5.08318
5.075025
5.066924
5.058883
5.050907
5.043001
5.035168
5.027411
5.019735
5.012139
5.004624
4.997191
4.989835
4.982554
4.97534
4.968184
4.961072
4.953989
4.946909
4.939803
4.932631
4.925343
4.917875
4.910148
4.902067
4.893543
4.884457
4.874849
4.864523
4.854682
4.844537
293.6075
201.053
154.0375
129.0392
104.4175
83.21783
70.53282
65.2586
59.6991
56.5966
54.169
51.17058
48.28511
45.72849
43.64058
41.52357
37.78986
37.32579
37.19541
37.50021
38.26708
39.35269
40.52238
41.69438
42.84866
43.96222
44.97682
45.84113
46.54604
47.06756
47.32971
47.41191
47.31188
47.00472
46.52972
45.92332
45.21258
44.4189
43.56751
42.67206
41.76479
40.82967
39.83092
38.87236
37.94714
37.04502
36.16843
35.32278
34.5103
33.73092
32.98429
32.27001
31.58684
30.93428
30.31164
29.71776
29.15315
28.61857
28.11299
27.63493
27.18308
26.75583
26.3519
25.97004
25.60914
25.26818
24.94606
24.64161
24.35364
24.08095
23.8224
23.57679
23.34276
23.11936
22.90539
22.69973
22.50035
22.3028
22.10515
21.91067
21.71973
21.53116
21.34488
21.16093
20.97874
20.79756
20.61675
20.43583
20.25427
20.07167
19.88774
19.70225
19.51509
19.32618
19.13544
18.94282
18.74828
18.5518
18.35335
18.1529
17.95055
17.74654
17.54108
17.33439
17.12677
16.91851
16.70985
16.50102
16.29231
16.08402
15.87646
15.67002
15.46572
15.26441
15.06628
14.8717
14.68066
14.49334
14.30933
14.12908
13.95309
13.7818
13.61553
13.45441
13.29848
13.14776
13.00222
12.8618
12.72641
12.59593
12.47023
12.34915
12.23257
12.12032
12.0122
11.90798
11.80717
11.70874
11.61165
11.51553
11.42016
11.32485
11.22867
11.13098
11.03147
10.92999
10.82635
10.72043
10.61211
10.50134
10.38813
10.27251
10.15463
10.03467
9.912965
9.789914
9.66612
9.542105
9.418456
9.295754
9.174213
9.053467
8.932837
8.811662
8.689445
8.565839
8.441585
8.317932
8.195744
8.075317
7.956687
7.839886
7.724986
7.612061
7.501171
7.392355
7.285648
7.181083
7.078687
6.978481
6.88048
6.784691
6.691114
6.599744
6.510571
6.423582
6.338761
6.25609
6.175551
6.097123
6.020788
5.94653
5.874335
5.804192
5.73609
5.670026
5.605997
5.544003
5.484045
5.426129
5.370259
5.316439
5.264675
5.214969
5.167325
5.121741
5.078211
5.036724
4.997266
4.959821
4.92437
4.89089
4.859351
4.829719
4.801958
4.776036
4.751922
4.72957
4.708928
4.689946
4.672576
4.656773
4.642489
4.629673
4.618275
4.608237
4.599508
4.592029
4.585746
4.580599
4.576528
4.573467
4.571345
4.57009
4.56963
4.569901
4.570844
4.57239
4.574462
4.576984
4.579883
4.5831
4.586629
4.590421
4.594403
4.598517
4.602722
4.60699
4.611301
4.615642
4.62001
4.624403
4.628824
4.633278
4.637772
4.642311
4.646902
4.65155
4.656256
4.661024
4.665853
4.670745
4.6757
4.680729
4.68585
4.691125
4.696588
4.702234
4.708041
4.713981
4.72003
4.726168
4.732379
4.738649
4.744965
4.751317
4.757696
4.764095
4.770507
4.77693
4.783349
4.789764
4.796169
4.802559
4.80893
4.815274
4.821587
4.82786
4.834083
4.840247
4.846326
4.8523
4.858138
4.863797
4.869225
4.874375
4.879237
4.88375
4.887864
4.891556
4.894829
4.897721
4.900291
4.902599
4.904666
4.906512
4.908152
4.909593
4.910847
4.91192
4.912818
4.913545
4.914103
4.914498
4.914728
4.914796
4.914696
4.914438
4.914023
4.913455
4.912735
4.911867
4.910853
4.909698
4.908404
4.906982
4.905423
4.903729
4.901911
4.899972
4.897918
4.895753
4.893482
4.891109
4.888638
4.886162
4.883751
4.88141
4.879124
4.876895
4.874715
4.872551
4.870392
4.868234
4.866071
4.863903
4.861731
4.859553
4.857373
4.85519
4.853006
4.850821
4.848633
4.846441
4.844242
4.842036
4.839825
4.837608
4.835385
4.833159
4.830929
4.828699
4.826471
4.824247
4.822033
4.819831
4.817647
4.815484
4.813344
4.811231
4.809148
4.807099
4.80509
4.803127
4.801219
4.799374
4.797601
4.795909
4.794304
4.792786
4.791354
4.789996
4.788696
4.787439
4.78621
4.785003
4.783808
4.782624
4.781439
4.78024
4.779008
4.777742
4.776443
4.775106
4.773718
4.772265
4.770736
4.769125
4.767424
4.765628
4.763732
4.761731
4.759618
4.757388
4.755033
4.752546
4.74992
4.747147
4.744219
4.741128
4.737869
4.734434
4.730818
4.727016
4.723024
4.718835
4.714446
4.709855
4.705063
4.700073
4.694893
4.689532
4.683993
4.678268
4.672366
4.666297
4.660073
4.653708
4.647214
4.640606
4.633897
4.627101
4.620232
4.613302
4.606322
4.599305
4.59226
4.585198
4.578128
4.571058
4.563996
4.556949
4.549924
4.542929
4.535969
4.529051
4.522179
4.515358
4.508594
4.501891
4.495251
4.488678
4.482174
4.47574
4.469376
4.463081
4.456852
4.450686
4.444577
4.438515
4.43249
4.426486
4.420487
4.414468
4.408403
4.40226
4.396003
4.389594
4.383003
4.37618
4.369182
4.361807
4.354878
4.347208
172.2361
126.9837
184.8924
88.90771
74.26995
60.82616
56.77486
53.65177
50.55149
49.07444
47.47155
45.41978
43.59901
41.86988
40.04999
36.1406
35.44454
34.89408
34.45874
34.13947
33.88427
33.71636
33.6716
33.76909
34.02218
34.42273
34.92979
35.58405
36.44566
37.53407
38.81837
40.24231
41.69952
43.06645
44.29844
45.40309
46.23352
46.74827
46.98476
46.95455
46.67061
46.17427
45.50037
44.6685
43.7061
42.65062
41.53435
40.3842
39.22241
38.06592
36.9287
35.81644
34.74002
33.71232
32.73978
31.81742
30.94159
30.11246
29.33
28.59355
27.9013
27.25409
26.64967
26.0854
25.55894
25.06809
24.60875
24.17934
23.77848
23.40452
23.05588
22.7309
22.42802
22.14594
21.88355
21.63976
21.41347
21.20351
21.00874
20.82803
20.66018
20.50405
20.35845
20.22216
20.09324
19.96448
19.83451
19.70781
19.58447
19.4637
19.34462
19.22613
19.10764
18.98883
18.86925
18.74835
18.62564
18.50071
18.37323
18.24294
18.1097
17.97336
17.83383
17.69107
17.5451
17.39593
17.24361
17.08819
16.92973
16.7683
16.60399
16.43697
16.26738
16.09542
15.9213
15.74526
15.56749
15.38825
15.20779
15.02643
14.84446
14.66231
14.48048
14.29943
14.11952
13.94123
13.76495
13.59125
13.42106
13.25454
13.0919
12.93335
12.77888
12.62841
12.48222
12.34053
12.20349
12.07118
11.94363
11.82082
11.70271
11.58924
11.48033
11.37585
11.27561
11.17937
11.08672
10.99709
10.90979
10.82435
10.74036
10.65733
10.57461
10.49162
10.40794
10.32326
10.23729
10.14978
10.0605
9.969277
9.875956
9.78045
9.682749
9.582917
9.481107
9.377542
9.272543
9.16645
9.059582
8.952222
8.844497
8.736277
8.62723
8.517
8.4054
8.29243
8.178465
8.064241
7.950398
7.837288
7.725082
7.613901
7.503869
7.395108
7.287726
7.181813
7.077446
6.974699
6.873636
6.774313
6.676776
6.581064
6.487205
6.395223
6.305131
6.216943
6.130663
6.046298
5.963848
5.883313
5.804692
5.727985
5.653194
5.580321
5.509371
5.440349
5.373263
5.308123
5.244938
5.183719
5.124478
5.067223
5.011963
4.958703
4.907449
4.858203
4.810961
4.765711
4.722437
4.681126
4.641763
4.60434
4.568859
4.535282
4.503536
4.47357
4.44534
4.418805
4.39392
4.370641
4.34893
4.328746
4.310051
4.292804
4.276961
4.262485
4.24933
4.237449
4.226795
4.217316
4.208961
4.201675
4.195401
4.190078
4.185645
4.182041
4.179204
4.177074
4.175589
4.174689
4.174315
4.17441
4.174925
4.175814
4.177034
4.178543
4.180303
4.182283
4.184456
4.186799
4.189292
4.191921
4.194674
4.197542
4.200516
4.20359
4.206761
4.210023
4.213374
4.21681
4.220328
4.223927
4.227606
4.231366
4.23521
4.239147
4.243184
4.247325
4.251568
4.255908
4.260342
4.264863
4.269468
4.274149
4.278901
4.283719
4.288598
4.293531
4.298512
4.303537
4.3086
4.313693
4.318812
4.323951
4.329114
4.334295
4.339483
4.344667
4.349837
4.354979
4.360078
4.365117
4.370077
4.374934
4.379662
4.384233
4.388619
4.392792
4.396731
4.400422
4.403864
4.407073
4.410074
4.412894
4.415551
4.418056
4.420415
4.422635
4.42472
4.426677
4.428511
4.430221
4.43181
4.43328
4.434632
4.435871
4.436989
4.43799
4.438878
4.439652
4.440313
4.440864
4.441306
4.44164
4.441872
4.442002
4.442022
4.44194
4.441749
4.441449
4.441038
4.440519
4.439931
4.439304
4.438662
4.43798
4.437224
4.43639
4.435476
4.434487
4.433426
4.432298
4.431112
4.429875
4.428594
4.427275
4.425927
4.424555
4.423166
4.421765
4.420357
4.418947
4.417537
4.41613
4.414729
4.413335
4.41195
4.410575
4.409211
4.407858
4.406518
4.405191
4.403878
4.402581
4.4013
4.400038
4.398797
4.397577
4.396381
4.395211
4.394068
4.392954
4.391874
4.39083
4.389825
4.388862
4.387944
4.387073
4.386249
4.385469
4.384729
4.384022
4.383339
4.382671
4.382008
4.381342
4.380665
4.379967
4.379238
4.37847
4.377656
4.376789
4.375863
4.374869
4.3738
4.372647
4.371406
4.370072
4.368642
4.367112
4.365481
4.363745
4.361902
4.359948
4.35788
4.355694
4.353385
4.350949
4.34838
4.345671
4.342817
4.339812
4.336648
4.333319
4.329819
4.326142
4.322281
4.318233
4.313996
4.309569
4.304952
4.300146
4.295157
4.289992
4.284659
4.279166
4.273524
4.267741
4.26183
4.255801
4.249668
4.243441
4.237133
4.230756
4.224321
4.21784
4.211322
4.204778
4.198217
4.191647
4.185077
4.178515
4.171967
4.165442
4.158944
4.152481
4.146058
4.139681
4.133353
4.12708
4.120864
4.11471
4.10862
4.102595
4.096637
4.090744
4.084917
4.079153
4.073447
4.067795
4.062188
4.056618
4.051074
4.04554
4.040003
4.034445
4.028848
4.023195
4.017475
4.011657
4.005788
3.999659
3.993995
3.987489
85.49495
53.00533
46.91114
43.39479
41.61928
39.74558
38.17246
36.86741
35.7937
34.43361
31.36206
30.97427
30.64229
30.37545
30.14116
29.92845
29.77291
29.69751
29.71566
29.82061
29.90714
29.90389
29.95843
30.09543
30.31751
30.62685
31.03905
31.56778
32.22469
33.01664
33.94419
35.01983
36.25538
37.5835
38.97648
40.41713
41.89862
43.27524
44.34107
45.10704
45.56995
45.70234
45.51626
45.03898
44.29912
43.3503
42.23555
40.99759
39.67458
38.29954
36.90393
35.5106
34.14153
32.81632
31.54885
30.34658
29.2156
28.16097
27.17819
26.26728
25.43021
24.6617
23.95615
23.30854
22.71432
22.16888
21.66792
21.20798
20.78575
20.39812
20.04244
19.71602
19.41526
19.13813
18.88322
18.64901
18.43427
18.23815
18.05961
17.89773
17.75162
17.62042
17.50327
17.39931
17.30767
17.22743
17.15766
17.09715
17.04212
16.98522
16.93294
16.8859
16.84296
16.80292
16.76468
16.72719
16.68931
16.65002
16.60856
16.56428
16.5166
16.46498
16.40901
16.34835
16.28278
16.21213
16.13633
16.05531
15.96913
15.87784
15.78154
15.68036
15.57441
15.46383
15.34875
15.22936
15.10584
14.97839
14.84724
14.71259
14.57467
14.4337
14.28992
14.14359
13.99501
13.84449
13.6924
13.53912
13.38503
13.23054
13.07609
12.92215
12.76921
12.61772
12.46809
12.3207
12.17596
12.03438
11.89656
11.76263
11.63269
11.5068
11.38492
11.26693
11.15296
11.04309
10.93736
10.83574
10.73818
10.64454
10.55464
10.4682
10.38486
10.30418
10.22576
10.14924
10.07421
10.00015
9.926609
9.853264
9.779839
9.70606
9.631656
9.556355
9.479864
9.401892
9.322294
9.240971
9.157872
9.072997
8.986401
8.898208
8.808572
8.717636
8.625513
8.532253
8.437789
8.341946
8.244573
8.145562
8.045045
7.943233
7.840566
7.73749
7.634332
7.531306
7.428579
7.326305
7.224632
7.123696
7.023617
6.924502
6.826454
6.729562
6.633909
6.53957
6.446606
6.355072
6.265013
6.176467
6.089469
6.004046
5.920225
5.838025
5.757467
5.678565
5.601337
5.5258
5.451971
5.379867
5.309508
5.240912
5.174102
5.109094
5.045908
4.984564
4.92508
4.86747
4.811747
4.757924
4.706017
4.656039
4.607958
4.561742
4.517366
4.474803
4.434029
4.394996
4.357659
4.322002
4.288015
4.255681
4.22498
4.195887
4.168378
4.142428
4.118014
4.095108
4.073686
4.053716
4.035174
4.018029
4.002244
3.987782
3.974601
3.962659
3.951908
3.942297
3.933772
3.926277
3.919752
3.914138
3.909374
3.905399
3.902151
3.899572
3.897602
3.896184
3.895267
3.8948
3.894738
3.895037
3.895659
3.896569
3.897735
3.899129
3.900728
3.90251
3.904457
3.906552
3.908782
3.911136
3.913602
3.916173
3.91884
3.921598
3.924442
3.927367
3.930373
3.933456
3.936619
3.939862
3.943185
3.946585
3.95006
3.953609
3.957227
3.960914
3.964666
3.968482
3.97236
3.976296
3.980288
3.984332
3.988425
3.992564
3.996743
4.000959
4.005205
4.009475
4.013761
4.01806
4.022363
4.026663
4.030953
4.03522
4.039455
4.043642
4.047768
4.051816
4.055766
4.059603
4.063308
4.066868
4.070276
4.07353
4.076636
4.079607
4.082458
4.085198
4.087835
4.090373
4.092814
4.095162
4.097421
4.099593
4.101678
4.103677
4.105589
4.107416
4.109156
4.110809
4.112374
4.113851
4.11524
4.116538
4.117744
4.118858
4.119878
4.120808
4.121637
4.122362
4.122986
4.123507
4.123945
4.124328
4.124666
4.124933
4.125111
4.125194
4.125174
4.125049
4.124819
4.124482
4.12404
4.123497
4.12286
4.122139
4.121341
4.120476
4.11955
4.118573
4.117554
4.116499
4.115417
4.114314
4.113196
4.112067
4.110933
4.109798
4.108664
4.107534
4.10641
4.105295
4.104189
4.103095
4.102012
4.100942
4.099886
4.098846
4.097822
4.096815
4.095829
4.094863
4.093919
4.093
4.092107
4.091243
4.090409
4.089607
4.08884
4.088107
4.087408
4.086741
4.086104
4.085493
4.0849
4.08432
4.083745
4.083168
4.082579
4.081971
4.081336
4.080663
4.079946
4.079176
4.078344
4.077442
4.076462
4.075398
4.074244
4.072996
4.071651
4.070204
4.068652
4.066994
4.065227
4.063349
4.061358
4.059252
4.057028
4.054683
4.052215
4.049618
4.046891
4.044027
4.041021
4.037869
4.034564
4.031101
4.027474
4.023679
4.019711
4.015566
4.011243
4.006738
4.00205
3.997185
3.99216
3.98698
3.981652
3.976184
3.970583
3.964859
3.95902
3.953077
3.947042
3.940923
3.934733
3.928481
3.922177
3.915833
3.909457
3.903058
3.896646
3.890228
3.883813
3.877407
3.871018
3.864654
3.858319
3.85202
3.845762
3.839551
3.833391
3.827286
3.82124
3.815256
3.809337
3.803483
3.797696
3.791976
3.786322
3.780732
3.775203
3.76973
3.764307
3.758927
3.753583
3.748264
3.742963
3.737668
3.732369
3.727063
3.721723
3.716393
3.710865
3.705855
3.7
103.4758
38.88428
29.77348
27.7401
26.7077
26.13392
25.83834
25.71729
25.72004
25.81869
25.90746
25.87244
25.84845
25.85811
25.89848
25.97372
26.09367
26.26476
26.48667
26.74748
27.0308
27.35122
27.73733
28.2099
28.77871
29.4546
30.25416
31.19295
32.27637
33.50521
34.86612
36.32961
37.91148
39.45397
40.82704
42.03975
43.04945
43.77402
44.14383
44.15847
43.85441
43.24071
42.34633
41.21065
39.87759
38.40923
36.85482
35.25455
33.65135
32.07927
30.56198
29.11734
27.76333
26.50835
25.35303
24.29494
23.33148
22.45012
21.64808
20.91886
20.25528
19.65076
19.0991
18.59484
18.13321
17.71049
17.32213
16.96513
16.6373
16.3367
16.06148
15.8099
15.58044
15.37168
15.18238
15.01174
14.85871
14.72176
14.60014
14.49314
14.40014
14.32049
14.25358
14.19881
14.15554
14.12309
14.10064
14.08472
14.07102
14.06625
14.06918
14.07859
14.09327
14.11194
14.13339
14.15636
14.17964
14.20205