/*--------------------------------*- C++ -*----------------------------------*\
| =========                 |                                                 |
| \\      /  F ield         | foam-extend: Open Source CFD                    |
|  \\    /   O peration     | Version:     3.1                                |
|   \\  /    A nd           | Web:         http://www.extend-project.de       |
|    \\/     M anipulation  |                                                 |
\*---------------------------------------------------------------------------*/
FoamFile
{
    version     2.0;
    format      ascii;
    class       volScalarField;
    location    "4";
    object      pd;
}
// * * * * * * * * * * * * * * * * * * * * * * * * * * * * * * * * * * * * * //

dimensions      [1 -1 -2 0 0 0 0];

internalField   nonuniform List<scalar> 
119952
(
10185.48
10058.87
10034.87
10059.35
10087.6
10073.43
10072.22
10071.35
10071.47
10071.94
10072.63
10073.44
10074.27
10075.07
10075.77
10076.29
10076.47
10075.93
10073.14
10061.24
10113.84
10079.93
10069.72
10137.65
10124.26
10134.36
10139.03
10157.53
10220.61
8149.87
9377.959
9401.942
9427.92
9454.885
9480.666
9505.867
9530.576
9554.739
9578.195
9594.896
9619.333
9641.211
9661.795
9681.629
9700.983
9719.702
9737.989
9755.721
9773.69
9799.513
9808.8
9822.211
9837.017
9851.066
9864.967
9878.707
9892.087
9905.053
9917.955
9927.705
9940.574
9952.228
9963.422
9974.543
9985.471
9996.233
10007.65
10024.28
10051.29
10041.76
10044.76
10058.71
10067.67
10069.74
10069.12
10069.49
10070.11
10070.86
10071.74
10072.67
10073.57
10074.42
10075.17
10075.75
10076.09
10076.1
10075.88
10076.45
10080.82
10084.43
10085.62
10100.86
10121.94
10126.3
10129.94
10133.73
10124.24
10081.52
10073.89
10080.62
10083.14
10085.43
10087.24
10088.41
10089.22
10089.8
10090.17
10090.37
10090.42
10090.34
10090.13
10089.82
10089.39
10088.88
10088.27
10087.58
10086.8
10085.96
10085.04
10084.07
10083.04
10081.95
10080.83
10079.66
10078.46
10077.23
10075.97
10074.71
10073.42
10072.13
10070.84
10069.54
10068.26
10066.98
10065.72
10064.45
10063.2
10061.96
10060.73
10059.51
10058.28
10057.04
10055.78
10054.47
10053.06
10051.65
10051.11
10051.73
10052.09
10050.79
10049.42
10048.3
10047.28
10046.3
10045.35
10044.44
10043.56
10042.69
10041.94
10041.21
10040.51
10039.85
10039.24
10038.68
10038.18
10037.74
10037.37
10037.06
10036.84
10036.68
10036.59
10036.58
10036.65
10036.79
10037
10037.3
10037.67
10038.11
10038.63
10039.22
10039.88
10040.6
10041.39
10042.24
10043.14
10044.09
10045.09
10046.14
10047.21
10048.31
10049.42
10050.54
10051.63
10052.65
10053.48
10054.06
10054.92
10060.79
10062.48
10063.67
10064.72
10065.9
10067.1
10068.3
10069.49
10070.65
10071.77
10072.84
10073.85
10074.81
10075.7
10076.49
10077.19
10077.81
10078.32
10078.72
10078.98
10079.11
10079.1
10078.92
10078.57
10078.03
10077.28
10076.28
10075.01
10073.43
10071.46
10069.03
10065.97
10061.99
10056.59
10048.75
10038.74
10046.94
10051.74
10054.55
10056.01
10056.75
10056.94
10056.64
10055.95
10054.91
10053.55
10051.89
10049.94
10047.71
10045.22
10042.47
10039.47
10036.21
10032.71
10028.96
10024.97
10020.74
10016.26
10011.55
10006.63
10001.43
9996.025
9990.391
9984.523
9978.437
9972.141
9965.646
9958.944
9952.009
9944.427
9954.351
9938.804
9919.47
9911.637
9903.459
9893.874
9884.552
9875.394
9866.005
9856.408
9846.683
9836.818
9826.799
9816.647
9806.334
9795.879
9785.274
9774.54
9763.653
9752.605
9741.454
9730.164
9718.755
9707.23
9695.597
9683.86
9672.023
9660.094
9648.078
9635.981
9623.808
9611.565
9599.256
9586.876
9574.415
9561.892
9549.317
9536.703
9524.061
9511.405
9498.748
9486.113
9473.522
9460.966
9448.749
9436.042
9421.946
9407.451
9393.284
9379.304
9365.275
9351.346
9337.266
9320.739
9301.343
9289.787
9277.327
9262.795
9248.222
9233.523
9218.624
9203.627
9188.554
9173.386
9158.11
9142.724
9127.218
9111.592
9095.84
9079.965
9063.955
9047.8
9031.522
9015.115
8998.571
8981.892
8965.078
8948.13
8931.051
8913.841
8896.503
8879.034
8861.435
8843.708
8825.865
8807.914
8789.867
8771.736
8753.531
8735.257
8716.921
8698.532
8680.1
8661.633
8643.142
8624.639
8606.134
8587.64
8569.167
8550.73
8532.339
8514.01
8495.756
8477.59
8459.526
8441.58
8423.764
8406.095
8388.587
8371.255
8354.113
8337.178
8320.465
8303.987
8287.76
8271.799
8256.119
8240.732
8225.654
8210.898
8196.476
8182.4
8168.677
8155.322
8142.345
8129.75
8117.539
8105.713
8094.266
8083.186
8072.448
8062.011
8051.8
8041.688
8031.437
8020.739
8010.379
8007.987
8030.968
8700.221
8681.02
8661.483
8645.586
8633.595
8624.74
8619.74
8618.72
8620.094
8611.861
8627.863
8638.675
8652.122
8668.242
8686.966
8708.04
8731.262
8756.536
8798.555
8825.678
8845.749
8875.13
8905.5
8936.949
8969.341
9002.194
9035.311
9068.667
9099.365
9130.648
9164.339
9196.519
9228.059
9259.246
9289.966
9320.125
9349.624
9378.539
9402.839
9431.223
9458.368
9484.358
9509.757
9534.443
9558.427
9581.621
9603.573
9625.636
9646.933
9666.933
9686.319
9705.276
9723.742
9741.72
9759.252
9777.072
9796.949
9813.249
9827.785
9841.746
9855.629
9869.423
9882.952
9896.099
9908.854
9921.32
9933.394
9944.852
9956.038
9967.144
9978.221
9989.339
10000.73
10012.62
10024.71
10035.7
10042.96
10047.93
10054.23
10060.4
10064.46
10066.55
10067.74
10068.81
10069.97
10071.15
10072.3
10073.36
10074.33
10075.22
10076.05
10076.83
10077.69
10078.9
10080.89
10084.02
10088.42
10093.99
10101.63
10110.71
10115.9
10116.92
10113.88
10106.11
10094.8
10086.4
10084.25
10085.43
10087.04
10088.06
10088.64
10089.05
10089.39
10089.62
10089.72
10089.68
10089.53
10089.26
10088.9
10088.44
10087.88
10087.25
10086.53
10085.73
10084.86
10083.93
10082.93
10081.88
10080.78
10079.64
10078.45
10077.23
10075.99
10074.72
10073.43
10072.12
10070.81
10069.5
10068.18
10066.87
10065.57
10064.28
10062.99
10061.72
10060.46
10059.21
10057.97
10056.73
10055.5
10054.28
10053.08
10051.94
10050.95
10050.19
10049.72
10049.29
10048.58
10047.62
10046.61
10045.65
10044.74
10043.86
10043.01
10042.2
10041.43
10040.7
10040.01
10039.38
10038.78
10038.24
10037.75
10037.32
10036.94
10036.63
10036.39
10036.22
10036.11
10036.07
10036.1
10036.21
10036.39
10036.65
10036.98
10037.38
10037.86
10038.41
10039.03
10039.72
10040.47
10041.28
10042.15
10043.08
10044.05
10045.08
10046.14
10047.24
10048.36
10049.51
10050.66
10051.83
10053.01
10054.3
10055.79
10057.54
10059.93
10061.96
10063.12
10064.37
10065.7
10066.96
10068.2
10069.4
10070.57
10071.69
10072.76
10073.77
10074.72
10075.6
10076.4
10077.1
10077.71
10078.21
10078.6
10078.86
10078.98
10078.96
10078.77
10078.41
10077.86
10077.1
10076.1
10074.83
10073.26
10071.34
10068.99
10066.11
10062.6
10058.45
10054.19
10051.24
10051.82
10054.48
10056.14
10057.02
10057.48
10057.47
10057.04
10056.26
10055.15
10053.74
10052.03
10050.04
10047.78
10045.26
10042.48
10039.45
10036.17
10032.64
10028.87
10024.86
10020.6
10016.11
10011.38
10006.41
10001.22
9995.789
9990.13
9984.246
9978.14
9971.82
9965.291
9958.569
9951.651
9944.888
9939.933
9934.046
9922.969
9911.357
9901.608
9892.42
9883.244
9873.931
9864.429
9854.759
9844.962
9835.047
9824.994
9814.791
9804.439
9793.938
9783.299
9772.53
9761.587
9750.507
9739.301
9727.974
9716.528
9704.97
9693.306
9681.539
9669.675
9657.72
9645.679
9633.557
9621.36
9609.09
9596.752
9584.347
9571.875
9559.343
9546.761
9534.137
9521.48
9508.801
9496.107
9483.407
9470.716
9457.849
9444.882
9431.684
9418.093
9404.172
9390.143
9376.124
9362.089
9347.888
9333.253
9317.88
9302.061
9287.25
9273.575
9259.97
9245.734
9230.983
9216.03
9201.008
9185.905
9170.695
9155.376
9139.945
9124.399
9108.735
9092.948
9077.034
9060.991
9044.814
9028.504
9012.06
8995.483
8978.771
8961.926
8944.946
8927.833
8910.589
8893.215
8875.713
8858.086
8840.338
8822.476
8804.509
8786.446
8768.298
8750.073
8731.78
8713.425
8695.018
8676.567
8658.084
8639.578
8621.061
8602.544
8584.038
8565.557
8547.113
8528.719
8510.388
8492.134
8473.971
8455.913
8437.974
8420.17
8402.515
8385.024
8367.713
8350.595
8333.687
8317.003
8300.559
8284.37
8268.45
8252.814
8237.477
8222.451
8207.751
8193.389
8179.378
8165.727
8152.449
8139.552
8127.044
8114.929
8103.209
8091.885
8080.953
8070.402
8060.228
8050.419
8041.043
8032.234
8024.568
8018.707
8015.667
8013.287
8292.091
8418.245
8551.639
8689.61
8830.969
8968.072
9101.492
9228.629
9343.349
9441.306
9521.055
9588.544
9638.078
9671.242
9688.765
9691.848
9681.942
9660.552
9630.645
9581.213
9536.631
9486.338
9432.89
9376.953
9319.699
9262.085
9204.823
9148.903
9095.975
9040.65
8990.446
8942.283
8896.987
8854.867
8815.949
8780.405
8748.633
8721.655
8693.606
8668.652
8650.492
8636.151
8625.338
8617.834
8613.694
8612.994
8615.76
8619.966
8628.343
8640.242
8653.982
8670.261
8689.167
8710.518
8734.012
8760.472
8794.357
8823.876
8851.965
8881.35
8912.339
8944.47
8977.213
9010.2
9043.36
9076.62
9109.908
9142.498
9174.454
9206.152
9237.688
9268.873
9299.522
9329.549
9358.918
9387.565
9415.099
9441.608
9467.644
9493.298
9518.373
9542.803
9566.438
9589.314
9611.474
9632.899
9653.55
9673.568
9692.977
9711.823
9730.067
9747.798
9764.888
9781.889
9798.898
9814.299
9828.616
9842.695
9856.735
9870.59
9884.117
9897.24
9909.97
9922.276
9934.163
9945.712
9957.016
9968.145
9979.153
9990.099
10000.96
10011.68
10022.1
10032.02
10039.94
10045.83
10051.36
10056.91
10061.33
10064.17
10066.04
10067.61
10069.12
10070.58
10071.94
10073.2
10074.35
10075.46
10076.55
10077.68
10078.98
10080.58
10082.75
10085.74
10089.68
10094.22
10099.59
10105.21
10108.85
10109.57
10107.49
10102.68
10095.61
10089.77
10087.5
10087.58
10088.23
10088.68
10088.92
10089.1
10089.26
10089.36
10089.37
10089.27
10089.06
10088.75
10088.36
10087.87
10087.3
10086.64
10085.9
10085.09
10084.21
10083.27
10082.26
10081.2
10080.08
10078.93
10077.73
10076.49
10075.23
10073.94
10072.63
10071.3
10069.97
10068.63
10067.29
10065.95
10064.62
10063.29
10061.98
10060.68
10059.39
10058.11
10056.85
10055.61
10054.38
10053.18
10052.03
10050.93
10049.95
10049.1
10048.38
10047.72
10046.94
10046.01
10045.06
10044.15
10043.29
10042.46
10041.67
10040.91
10040.18
10039.5
10038.86
10038.24
10037.69
10037.17
10036.72
10036.32
10035.97
10035.68
10035.45
10035.35
10035.3
10035.3
10035.37
10035.52
10035.73
10036.02
10036.38
10036.8
10037.3
10037.87
10038.5
10039.2
10039.97
10040.79
10041.68
10042.62
10043.61
10044.65
10045.73
10046.84
10047.99
10049.18
10050.39
10051.64
10052.95
10054.35
10055.85
10057.49
10059.45
10061.38
10063.03
10064.41
10065.69
10066.96
10068.21
10069.44
10070.62
10071.76
10072.83
10073.85
10074.81
10075.69
10076.48
10077.19
10077.79
10078.29
10078.68
10078.93
10079.05
10079.02
10078.84
10078.48
10077.94
10077.18
10076.21
10074.99
10073.49
10071.71
10069.63
10067.22
10064.56
10061.86
10059.5
10057.97
10057.6
10058.11
10058.77
10059.13
10059.1
10058.72
10058.02
10057.04
10055.78
10054.23
10052.41
10050.32
10047.97
10045.37
10042.52
10039.42
10036.08
10032.49
10028.66
10024.59
10020.28
10015.73
10010.94
10005.92
10000.67
9995.187
9989.47
9983.528
9977.355
9970.968
9964.348
9957.521
9950.402
9942.963
9934.613
9924.765
9915.402
9907.275
9899.528
9891.417
9882.838
9873.899
9864.691
9855.254
9845.615
9835.791
9825.796
9815.635
9805.311
9794.83
9784.211
9773.533
9762.532
9751.43
9740.211
9728.871
9717.412
9705.841
9694.163
9682.383
9670.506
9658.537
9646.483
9634.348
9622.136
9609.851
9597.497
9585.077
9572.593
9560.051
9547.456
9534.814
9522.13
9509.406
9496.64
9483.823
9470.912
9458.046
9445.001
9431.742
9418.218
9404.444
9390.535
9376.562
9362.534
9348.421
9334.34
9320.538
9307.023
9292.885
9278.057
9262.922
9247.762
9232.635
9217.52
9202.392
9187.219
9171.967
9156.612
9141.153
9125.591
9109.918
9094.128
9078.214
9062.172
9046
9029.695
9013.256
8996.682
8979.973
8963.129
8946.149
8929.036
8911.791
8894.416
8876.913
8859.286
8841.538
8823.677
8805.71
8787.646
8769.495
8751.264
8732.962
8714.596
8696.176
8677.711
8659.211
8640.687
8622.15
8603.612
8585.084
8566.578
8548.108
8529.687
8511.328
8493.044
8474.85
8456.761
8438.789
8420.952
8403.262
8385.736
8368.388
8351.235
8334.29
8317.569
8301.088
8284.862
8268.905
8253.233
8237.859
8222.798
8208.065
8193.671
8179.629
8165.953
8152.652
8139.737
8127.218
8115.101
8103.394
8092.103
8081.234
8070.794
8060.804
8051.298
8042.373
8034.148
8026.922
8020.824
8016.731
8012.792
7552.469
7571.575
7598.971
7629.572
7668.01
7720.235
7776.862
7843.578
7921.662
7997.411
8076.853
8171.877
8279.671
8397.892
8525.303
8657.745
8792.06
8924.795
9053.353
9175.245
9286.88
9386.784
9469.416
9534.193
9582.921
9615.728
9633.324
9636.868
9627.778
9608.136
9581.514
9524.634
9485.882
9440.434
9387.229
9331.277
9275.021
9219.073
9163.723
9109.445
9056.677
9005.678
8956.869
8910.546
8867.179
8826.984
8789.931
8756.053
8725.429
8697.989
8673.838
8653.06
8635.699
8621.932
8611.851
8605.345
8602.268
8602.482
8605.83
8612.344
8621.741
8633.809
8648.624
8666.164
8686.105
8708.343
8732.488
8759.368
8789.034
8817.943
8846.407
8876.451
8908.27
8941.197
8974.678
9008.436
9042.226
9075.846
9109.199
9142.241
9174.918
9207.235
9239.134
9270.52
9301.303
9331.42
9360.807
9389.397
9417.14
9444.123
9470.508
9496.271
9521.35
9545.623
9569.196
9592.049
9614.153
9635.558
9656.302
9676.367
9695.771
9714.559
9732.737
9750.4
9767.631
9784.26
9800.319
9815.692
9830.438
9844.775
9858.827
9872.567
9885.94
9898.912
9911.484
9923.656
9935.473
9946.981
9958.203
9969.177
9979.936
9990.499
10000.82
10010.87
10020.51
10029.52
10037.29
10043.67
10049.25
10054.43
10058.83
10062.15
10064.64
10066.69
10068.54
10070.25
10071.83
10073.29
10074.66
10075.98
10077.3
10078.68
10080.22
10082.03
10084.25
10087
10090.31
10093.98
10097.92
10101.61
10104.15
10104.82
10103.47
10100.42
10096.21
10092.36
10090.15
10089.45
10089.43
10089.52
10089.56
10089.58
10089.59
10089.58
10089.49
10089.31
10089.05
10088.69
10088.26
10087.73
10087.13
10086.45
10085.69
10084.86
10083.96
10082.99
10081.96
10080.88
10079.75
10078.57
10077.35
10076.1
10074.81
10073.5
10072.16
10070.82
10069.46
10068.09
10066.72
10065.35
10063.99
10062.64
10061.3
10059.97
10058.65
10057.36
10056.08
10054.82
10053.59
10052.39
10051.24
10050.14
10049.13
10048.2
10047.36
10046.56
10045.72
10044.83
10043.93
10043.05
10042.2
10041.38
10040.6
10039.84
10039.13
10038.46
10037.83
10037.24
10036.72
10036.24
10035.83
10035.47
10035.18
10034.95
10034.8
10034.64
10034.56
10034.57
10034.65
10034.81
10035.04
10035.34
10035.73
10036.19
10036.7
10037.29
10037.95
10038.67
10039.45
10040.29
10041.2
10042.15
10043.16
10044.22
10045.33
10046.47
10047.65
10048.88
10050.14
10051.44
10052.8
10054.22
10055.73
10057.35
10059.06
10060.73
10062.28
10063.72
10065.1
10066.44
10067.76
10069.03
10070.26
10071.43
10072.55
10073.6
10074.59
10075.49
10076.32
10077.06
10077.7
10078.23
10078.65
10078.94
10079.1
10079.12
10078.99
10078.69
10078.21
10077.54
10076.66
10075.57
10074.24
10072.68
10070.96
10069.02
10066.96
10064.91
10063.1
10061.75
10061.05
10060.92
10061.04
10061.03
10060.72
10060.14
10059.3
10058.22
10056.87
10055.27
10053.41
10051.29
10048.92
10046.31
10043.45
10040.35
10037
10033.42
10029.59
10025.52
10021.22
10016.68
10011.91
10006.89
10001.65
9996.167
9990.455
9984.51
9978.336
9971.927
9965.288
9958.386
9951.253
9943.852
9936.395
9928.878
9920.827
9912.191
9903.485
9894.281
9885.063
9875.759
9866.311
9856.708
9846.952
9837.046
9826.979
9816.746
9806.355
9795.808
9785.097
9774.152
9763.251
9752.178
9740.961
9729.616
9718.149
9706.568
9694.879
9683.086
9671.197
9659.217
9647.149
9635.001
9622.776
9610.477
9598.11
9585.677
9573.181
9560.626
9548.017
9535.357
9522.648
9509.892
9497.084
9484.218
9471.282
9458.28
9445.146
9431.847
9418.36
9404.692
9390.89
9377.003
9363.057
9349.057
9335.022
9320.891
9306.568
9291.987
9277.275
9262.564
9247.84
9233.041
9218.145
9203.152
9188.061
9172.865
9157.557
9142.137
9126.603
9110.95
9095.173
9079.269
9063.233
9047.065
9030.762
9014.322
8997.746
8981.032
8964.181
8947.194
8930.071
8912.815
8895.428
8877.912
8860.272
8842.512
8824.637
8806.656
8788.576
8770.408
8752.157
8733.832
8715.441
8696.994
8678.5
8659.969
8641.412
8622.84
8604.265
8585.698
8567.153
8548.641
8530.177
8511.773
8493.444
8475.203
8457.065
8439.045
8421.158
8403.417
8385.84
8368.441
8351.235
8334.238
8317.465
8300.931
8284.653
8268.645
8252.923
8237.5
8222.392
8207.613
8193.176
8179.095
8165.383
8152.051
8139.113
8126.579
8114.459
8102.764
8091.507
8080.7
8070.363
8060.525
8051.228
8042.551
8034.568
8027.491
8021.265
8016.554
8011.138
7567.053
7555.647
7546.66
7538.772
7531.088
7525.838
7523.31
7522.905
7525.717
7531.909
7541.83
7554.693
7573.231
7596.873
7625.738
7661.452
7715.136
7768.817
7829.388
7897.028
7972.664
8060.617
8160.365
8270.445
8390.568
8518.596
8651.581
8786.352
8920.021
9050.354
9171.621
9282.739
9380.382
9461.047
9523.582
9568.828
9597.752
9611.429
9611.132
9598.432
9574.656
9541.379
9499.829
9456.246
9409.755
9358.361
9303.88
9248.584
9193.498
9139.031
9085.605
9033.661
8983.444
8935.315
8889.732
8846.953
8807.191
8770.612
8737.245
8707.13
8680.356
8656.808
8636.403
8619.466
8606.207
8596.603
8590.524
8587.833
8588.438
8592.267
8599.158
8608.977
8621.71
8637.238
8655.386
8676.03
8698.971
8724.136
8750.942
8779.389
8809.017
8839.354
8870.724
8903.296
8936.752
8970.704
9004.877
9039.081
9073.174
9107.073
9140.704
9173.954
9206.736
9239.002
9270.706
9301.787
9332.184
9361.841
9390.726
9418.823
9446.136
9472.702
9498.543
9523.658
9548.034
9571.677
9594.577
9616.733
9638.174
9658.915
9678.965
9698.376
9717.19
9735.468
9753.13
9770.227
9786.74
9802.759
9818.136
9832.983
9847.337
9861.283
9874.859
9888.06
9900.881
9913.316
9925.371
9937.07
9948.435
9959.485
9970.246
9980.73
9990.941
10000.84
10010.38
10019.43
10027.84
10035.35
10041.85
10047.52
10052.57
10056.97
10060.59
10063.51
10065.96
10068.11
10070.07
10071.87
10073.53
10075.09
10076.6
10078.1
10079.66
10081.35
10083.23
10085.39
10087.88
10090.67
10093.65
10096.62
10099.26
10101.09
10101.69
10100.91
10099.03
10096.4
10093.76
10091.9
10090.96
10090.62
10090.47
10090.36
10090.25
10090.15
10090.02
10089.84
10089.59
10089.26
10088.86
10088.37
10087.81
10087.17
10086.46
10085.67
10084.81
10083.88
10082.89
10081.84
10080.73
10079.57
10078.37
10077.13
10075.84
10074.53
10073.19
10071.83
10070.45
10069.07
10067.67
10066.27
10064.88
10063.48
10062.1
10060.73
10059.37
10058.03
10056.7
10055.4
10054.12
10052.87
10051.66
10050.49
10049.38
10048.33
10047.34
10046.4
10045.51
10044.62
10043.72
10042.82
10041.93
10041.07
10040.25
10039.47
10038.72
10038.01
10037.35
10036.73
10036.17
10035.65
10035.2
10034.8
10034.46
10034.18
10033.96
10033.8
10033.7
10033.68
10033.73
10033.86
10034.05
10034.32
10034.64
10035.03
10035.5
10036.03
10036.64
10037.31
10038.05
10038.86
10039.72
10040.65
10041.63
10042.66
10043.75
10044.88
10046.06
10047.28
10048.54
10049.85
10051.2
10052.6
10054.06
10055.58
10057.16
10058.78
10060.41
10061.98
10063.47
10064.9
10066.29
10067.63
10068.94
10070.19
10071.4
10072.54
10073.63
10074.64
10075.58
10076.44
10077.21
10077.89
10078.45
10078.91
10079.25
10079.46
10079.53
10079.46
10079.23
10078.84
10078.27
10077.53
10076.6
10075.48
10074.17
10072.64
10071.01
10069.33
10067.69
10066.22
10065.03
10064.21
10063.75
10063.45
10063.1
10062.56
10061.8
10060.83
10059.63
10058.21
10056.55
10054.64
10052.49
10050.1
10047.47
10044.6
10041.49
10038.14
10034.55
10030.73
10026.66
10022.36
10017.82
10013.05
10008.04
10002.79
9997.311
9991.595
9985.643
9979.457
9973.031
9966.372
9959.46
9952.307
9944.9
9937.155
9929.011
9920.483
9911.775
9902.861
9894.3
9885.507
9876.45
9867.157
9857.654
9847.961
9838.089
9828.041
9817.822
9807.438
9796.893
9786.185
9775.314
9764.341
9753.229
9741.983
9730.61
9719.117
9707.51
9695.795
9683.978
9672.065
9660.06
9647.97
9635.798
9623.55
9611.229
9598.84
9586.386
9573.869
9561.294
9548.662
9535.977
9523.239
9510.447
9497.598
9484.686
9471.699
9458.629
9445.448
9432.133
9418.673
9405.068
9391.342
9377.521
9363.624
9349.648
9335.581
9321.394
9307.087
9292.671
9278.181
9263.612
9248.948
9234.171
9219.28
9204.288
9189.199
9174.01
9158.714
9143.305
9127.78
9112.135
9096.365
9080.465
9064.434
9048.268
9031.965
9015.524
8998.944
8982.224
8965.365
8948.368
8931.233
8913.963
8896.56
8879.027
8861.368
8843.588
8825.692
8807.687
8789.581
8771.383
8753.099
8734.736
8716.305
8697.814
8679.274
8660.694
8642.086
8623.461
8604.83
8586.205
8567.6
8549.026
8530.498
8512.029
8493.632
8475.323
8457.115
8439.023
8421.064
8403.25
8385.599
8368.125
8350.845
8333.773
8316.925
8300.318
8283.966
8267.885
8252.091
8236.599
8221.423
8206.579
8192.08
8177.941
8164.176
8150.797
8137.819
8125.255
8113.117
8101.419
8090.176
8079.408
8069.137
8059.394
8050.218
8041.67
8033.797
8026.733
8020.333
8015.141
8008.961
7756.604
7727.342
7703.579
7680.882
7661.637
7642.039
7625.757
7610.404
7596.188
7582.786
7570.522
7559.223
7549.234
7540.537
7532.679
7528.319
7525.552
7525.048
7527.424
7532.912
7541.988
7555.081
7572.499
7594.659
7622.127
7655.971
7694.271
7742.857
7798.958
7863.206
7937.17
8022.981
8120.84
8229.917
8348.844
8475.893
8609.16
8744.82
8879.305
9009.081
9130.218
9240.044
9335.834
9415.098
9476.644
9520.842
9548.761
9561.677
9561.006
9548.327
9525.165
9493.77
9455.86
9413.407
9367.757
9318.699
9266.769
9213.419
9159.89
9106.893
9054.949
9004.437
8955.606
8908.774
8864.282
8822.312
8783.044
8746.824
8713.875
8684.248
8657.933
8634.863
8615.071
8598.742
8585.988
8576.791
8571.071
8568.742
8569.734
8573.961
8581.306
8591.691
8605.029
8621.171
8639.938
8661.174
8684.7
8710.425
8737.941
8767.121
8797.73
8829.358
8861.872
8895.296
8929.489
8964.189
8999.141
9034.149
9069.064
9103.767
9138.146
9172.091
9205.519
9238.378
9270.618
9302.184
9333.022
9363.087
9392.352
9420.8
9448.426
9475.251
9501.304
9526.596
9551.123
9574.881
9597.873
9620.111
9641.612
9662.4
9682.498
9701.94
9720.747
9738.929
9756.486
9773.462
9789.868
9805.719
9821.147
9835.983
9850.293
9864.159
9877.619
9890.658
9903.319
9915.597
9927.491
9939.012
9950.181
9961.02
9971.541
9981.745
9991.62
10001.13
10010.23
10018.82
10026.8
10034.06
10040.5
10046.19
10051.23
10055.66
10059.47
10062.68
10065.43
10067.84
10070.03
10072.02
10073.87
10075.61
10077.28
10078.93
10080.61
10082.37
10084.26
10086.32
10088.56
10090.96
10093.41
10095.74
10097.74
10099.14
10099.68
10099.26
10098.1
10096.42
10094.62
10093.18
10092.28
10091.79
10091.5
10091.27
10091.06
10090.85
10090.63
10090.36
10090.04
10089.66
10089.2
10088.67
10088.07
10087.39
10086.64
10085.81
10084.92
10083.96
10082.94
10081.86
10080.73
10079.54
10078.31
10077.03
10075.72
10074.38
10073.01
10071.62
10070.22
10068.8
10067.37
10065.94
10064.51
10063.09
10061.67
10060.27
10058.88
10057.51
10056.16
10054.83
10053.52
10052.25
10051.01
10049.82
10048.68
10047.59
10046.55
10045.56
10044.6
10043.67
10042.74
10041.82
10040.92
10040.06
10039.23
10038.44
10037.69
10036.99
10036.33
10035.71
10035.15
10034.65
10034.2
10033.8
10033.47
10033.21
10033
10032.86
10032.79
10032.78
10032.85
10032.99
10033.2
10033.47
10033.82
10034.24
10034.73
10035.3
10035.93
10036.63
10037.4
10038.23
10039.12
10040.06
10041.07
10042.13
10043.24
10044.4
10045.61
10046.86
10048.15
10049.49
10050.87
10052.3
10053.78
10055.31
10056.87
10058.46
10060.05
10061.62
10063.13
10064.6
10066.02
10067.4
10068.75
10070.04
10071.29
10072.48
10073.6
10074.66
10075.64
10076.54
10077.36
10078.08
10078.69
10079.2
10079.59
10079.86
10080
10080
10079.85
10079.55
10079.08
10078.46
10077.67
10076.72
10075.61
10074.35
10073
10071.63
10070.29
10069.05
10067.98
10067.12
10066.46
10065.89
10065.29
10064.56
10063.67
10062.58
10061.28
10059.8
10058.07
10056.12
10053.93
10051.52
10048.87
10045.98
10042.86
10039.51
10035.92
10032.09
10028.03
10023.73
10019.2
10014.42
10009.42
10004.17
9998.686
9992.967
9987.011
9980.817
9974.382
9967.702
9960.766
9953.577
9946.095
9938.397
9930.426
9922.222
9913.779
9905.08
9896.263
9887.27
9878.087
9868.714
9859.154
9849.41
9839.488
9829.395
9819.135
9808.712
9798.128
9787.39
9776.501
9765.483
9754.332
9743.05
9731.644
9720.118
9708.479
9696.733
9684.885
9672.942
9660.908
9648.789
9636.59
9624.315
9611.968
9599.553
9587.074
9574.533
9561.933
9549.277
9536.565
9523.799
9510.975
9498.091
9485.141
9472.116
9459.008
9445.8
9432.478
9419.035
9405.471
9391.796
9378.025
9364.167
9350.22
9336.182
9322.048
9307.822
9293.501
9279.074
9264.535
9249.885
9235.13
9220.271
9205.313
9190.255
9175.092
9159.819
9144.429
9128.919
9113.285
9097.522
9081.628
9065.599
9049.432
9033.126
9016.678
9000.089
8983.358
8966.484
8949.469
8932.313
8915.02
8897.591
8880.029
8862.339
8844.525
8826.593
8808.547
8790.396
8772.147
8753.808
8735.387
8716.894
8698.337
8679.727
8661.075
8642.391
8623.687
8604.975
8586.266
8567.574
8548.912
8530.292
8511.729
8493.238
8474.831
8456.525
8438.334
8420.274
8402.359
8384.605
8367.029
8349.645
8332.471
8315.521
8298.811
8282.359
8266.179
8250.287
8234.698
8219.43
8204.495
8189.91
8175.69
8161.849
8148.402
8135.362
8122.746
8110.567
8098.842
8087.587
8076.824
8066.575
8056.869
8047.74
8039.232
8031.37
8024.248
8017.694
8012.249
8005.756
7989.06
7944.277
7885.1
7831.742
7788.092
7753.9
7725.634
7701.731
7681.065
7661.805
7641.966
7625.941
7610.77
7596.569
7583.246
7570.986
7559.809
7549.521
7540.654
7533.612
7527.909
7524.368
7522.854
7523.887
7527.763
7534.92
7545.871
7560.934
7580.693
7605.868
7636.693
7673.571
7718.228
7770.78
7832.748
7905.293
7989.287
8086.103
8195.139
8314.449
8441.622
8574.066
8708.398
8840.88
8967.805
9085.587
9191.342
9282.766
9358.107
9416.489
9458.126
9484.043
9495.635
9494.428
9482.044
9460.182
9430.641
9394.858
9354.106
9309.937
9263.088
9213.957
9163.386
9112.385
9061.756
9011.987
8963.431
8916.496
8871.501
8828.675
8788.223
8750.304
8715.182
8683.162
8654.367
8628.806
8606.484
8587.457
8571.817
8559.636
8550.93
8545.674
8543.819
8545.308
8550.069
8558.015
8569.056
8583.08
8599.945
8619.481
8641.629
8666.144
8692.814
8721.387
8751.653
8783.374
8816.236
8850.027
8884.652
8919.978
8955.786
8991.836
9027.922
9063.88
9099.572
9134.878
9169.695
9203.941
9237.55
9270.468
9302.643
9334.029
9364.59
9394.302
9423.155
9451.147
9478.295
9504.618
9530.128
9554.829
9578.727
9601.833
9624.16
9645.73
9666.566
9686.691
9706.129
9724.902
9743.033
9760.543
9777.46
9793.802
9809.59
9824.849
9839.555
9853.744
9867.472
9880.783
9893.717
9906.229
9918.332
9930.044
9941.368
9952.309
9962.904
9973.16
9983.066
9992.609
10001.76
10010.47
10018.68
10026.33
10033.34
10039.67
10045.33
10050.37
10054.85
10058.77
10062.17
10065.14
10067.77
10070.15
10072.32
10074.34
10076.24
10078.02
10079.78
10081.54
10083.34
10085.2
10087.16
10089.2
10091.29
10093.34
10095.25
10096.85
10097.98
10098.49
10098.34
10097.62
10096.55
10095.35
10094.27
10093.47
10092.94
10092.56
10092.25
10091.96
10091.67
10091.37
10091.04
10090.65
10090.21
10089.7
10089.12
10088.47
10087.75
10086.96
10086.1
10085.17
10084.18
10083.13
10082.01
10080.85
10079.63
10078.36
10077.06
10075.72
10074.34
10072.94
10071.52
10070.08
10068.63
10067.17
10065.71
10064.25
10062.8
10061.35
10059.91
10058.49
10057.09
10055.72
10054.36
10053.03
10051.73
10050.46
10049.24
10048.06
10046.94
10045.86
10044.83
10043.84
10042.88
10041.94
10041.02
10040.12
10039.26
10038.43
10037.64
10036.89
10036.18
10035.52
10034.91
10034.34
10033.84
10033.39
10033
10032.67
10032.4
10032.2
10032.06
10032
10032
10032.07
10032.22
10032.43
10032.72
10033.09
10033.52
10034.03
10034.61
10035.26
10035.98
10036.76
10037.61
10038.52
10039.49
10040.52
10041.61
10042.75
10043.94
10045.18
10046.46
10047.79
10049.17
10050.59
10052.05
10053.55
10055.09
10056.65
10058.24
10059.83
10061.4
10062.94
10064.44
10065.9
10067.32
10068.71
10070.04
10071.33
10072.56
10073.73
10074.83
10075.86
10076.81
10077.67
10078.44
10079.11
10079.67
10080.12
10080.46
10080.66
10080.74
10080.67
10080.47
10080.11
10079.61
10078.96
10078.17
10077.25
10076.21
10075.11
10073.96
10072.82
10071.74
10070.76
10069.88
10069.11
10068.37
10067.61
10066.74
10065.72
10064.54
10063.16
10061.59
10059.82
10057.82
10055.6
10053.16
10050.49
10047.59
10044.46
10041.1
10037.51
10033.68
10029.61
10025.31
10020.78
10016
10010.99
10005.74
10000.26
9994.532
9988.568
9982.355
9975.898
9969.198
9962.254
9955.056
9947.595
9939.895
9931.949
9923.753
9915.307
9906.635
9897.792
9888.773
9879.566
9870.167
9860.578
9850.803
9840.849
9830.722
9820.425
9809.963
9799.34
9788.564
9777.639
9766.577
9755.381
9744.055
9732.605
9721.037
9709.356
9697.569
9685.681
9673.699
9661.627
9649.471
9637.236
9624.926
9612.546
9600.099
9587.589
9575.018
9562.389
9549.704
9536.963
9524.166
9511.311
9498.396
9485.414
9472.361
9459.226
9446.001
9432.676
9419.247
9405.711
9392.074
9378.343
9364.522
9350.613
9336.614
9322.523
9308.337
9294.049
9279.652
9265.146
9250.536
9235.823
9221.006
9206.084
9191.054
9175.913
9160.656
9145.278
9129.775
9114.144
9098.38
9082.481
9066.443
9050.264
9033.941
9017.474
9000.861
8984.102
8967.198
8950.148
8932.954
8915.618
8898.143
8880.532
8862.789
8844.919
8826.927
8808.819
8790.602
8772.285
8753.877
8735.383
8716.815
8698.18
8679.488
8660.752
8641.98
8623.186
8604.38
8585.576
8566.786
8548.023
8529.301
8510.634
8492.036
8473.522
8455.107
8436.806
8418.635
8400.608
8382.743
8365.054
8347.558
8330.272
8313.211
8296.391
8279.83
8263.543
8247.545
8231.855
8216.486
8201.456
8186.78
8172.473
8158.551
8145.029
8131.924
8119.25
8107.025
8095.264
8083.987
8073.214
8062.966
8053.271
8044.154
8035.651
8027.772
8020.593
8013.938
8008.362
8001.724
7948.836
7906.544
7842.476
7803.165
7769.255
7740.919
7716.824
7695.764
7676.759
7659.351
7643.066
7627.337
7612.243
7597.943
7584.435
7571.797
7560.136
7549.434
7539.994
7531.913
7525.647
7521.232
7518.699
7518.468
7520.816
7526.226
7535.46
7548.615
7566.354
7588.842
7617.111
7651.989
7694.491
7745.526
7806.679
7879.096
7963.523
8060.257
8168.677
8286.872
8412.329
8542.061
8672.598
8800.248
8921.409
9032.854
9131.962
9216.828
9286.288
9339.917
9378.048
9401.659
9412.086
9410.804
9399.366
9379.349
9352.178
9319.071
9281.263
9239.941
9195.955
9150.027
9102.843
9055.102
9007.454
8960.329
8914.12
8869.35
8826.367
8785.401
8746.657
8710.337
8676.664
8645.876
8618.126
8593.488
8572.021
8553.788
8538.865
8527.321
8519.2
8514.511
8513.235
8515.333
8520.754
8529.422
8541.227
8556.075
8573.846
8594.493
8617.763
8643.439
8671.321
8701.184
8732.79
8765.889
8800.218
8835.544
8871.689
8908.477