/*--------------------------------*- C++ -*----------------------------------*\
| =========                 |                                                 |
| \\      /  F ield         | foam-extend: Open Source CFD                    |
|  \\    /   O peration     | Version:     3.1                                |
|   \\  /    A nd           | Web:         http://www.extend-project.de       |
|    \\/     M anipulation  |                                                 |
\*---------------------------------------------------------------------------*/
FoamFile
{
    version     2.0;
    format      ascii;
    class       surfaceScalarField;
    location    "4";
    object      phi;
}
// * * * * * * * * * * * * * * * * * * * * * * * * * * * * * * * * * * * * * //

dimensions      [0 3 -1 0 0 0 0];

internalField   nonuniform List<scalar> 
275122
(
-0.0001173764
0.0001186842
-3.432128e-08
-1.273499e-06
-0.0001058366
0.0001011154
4.019233e-07
4.319273e-06
-0.0001052928
0.000108132
-1.043816e-07
-2.734764e-06
-0.0001181173
0.0001214581
-1.133116e-07
-3.227549e-06
-0.0001301556
0.0001314634
-1.175224e-07
-1.190295e-06
-0.0001323516
0.0001325107
-1.127619e-07
-4.635064e-08
-0.0001324554
0.000132322
-9.739558e-08
2.30802e-07
-0.0001317311
0.0001314837
-8.454499e-08
3.319663e-07
-0.0001306399
0.0001303279
-7.353631e-08
3.855475e-07
-0.0001293145
0.0001289506
-6.406661e-08
4.279938e-07
-0.0001277891
0.0001273789
-5.5949e-08
4.660814e-07
-0.0001260874
0.0001256372
-4.872292e-08
4.989387e-07
-0.0001242331
0.0001237479
-4.244068e-08
5.276249e-07
-0.0001222445
0.0001217287
-3.709837e-08
5.529469e-07
-0.0001201386
0.0001195968
-3.258935e-08
5.743408e-07
-0.0001179345
0.000117373
-2.88307e-08
5.902801e-07
-0.0001156582
0.0001150878
-2.628294e-08
5.96739e-07
-0.0001133643
0.000112813
-2.858264e-08
5.79932e-07
-0.0001112298
0.0001107856
-5.490092e-08
4.99125e-07
-0.0001099613
0.0001102103
-1.852695e-07
-6.375241e-08
-0.0001224877
0.0001269999
-3.796769e-07
-4.132523e-06
-0.0001292005
0.0001297051
-1.102845e-07
-3.943223e-07
-0.0001315102
0.0001325053
-5.033788e-08
-9.447769e-07
-0.0001472599
0.0001528992
1.360467e-07
-5.775312e-06
-0.0001545368
0.0001548745
2.016036e-07
-5.392819e-07
-0.000156801
0.0001572042
-1.538447e-08
-3.878636e-07
-0.0001578917
0.0001578839
-2.81839e-08
3.597288e-08
-0.0001569812
0.0001559494
-2.237123e-08
1.054225e-06
-0.0001475347
0.0001382636
-2.657994e-08
9.297695e-06
-0.0001320492
0.0001353671
3.396876e-09
-3.321344e-06
-9.75771e-05
0.0001019061
-2.525289e-08
-4.303728e-06
-0.0001142182
0.0001184045
3.752208e-09
-4.190055e-06
-0.0001309516
0.0001351466
3.646088e-09
-4.198691e-06
-0.0001479262
0.000152247
3.557082e-09
-4.324398e-06
-0.000165396
0.0001698278
3.368781e-09
-4.435117e-06
-0.0001832607
0.0001877749
3.234061e-09
-4.517488e-06
-0.0002013949
0.0002059497
2.923755e-09
-4.557663e-06
-0.0002197168
0.000224316
2.679391e-09
-4.601943e-06
-0.0002381394
0.000242705
2.430144e-09
-4.568009e-06
-0.000256313
0.0002615487
7.72204e-08
-5.312858e-06
3.886717e-06
-0.000178841
0.0001795185
-9.07991e-10
-4.563272e-06
3.875596e-06
-0.0001814182
0.0001820124
-7.722838e-10
-4.468993e-06
4.00693e-06
-0.0001835695
0.000184025
-8.570283e-10
-4.461595e-06
4.139429e-06
-0.0001851675
0.0001854892
-7.3124e-10
-4.460376e-06
4.245688e-06
-0.000186285
0.0001865005
-6.347211e-10
-4.460502e-06
4.334145e-06
-0.000187054
0.0001872004
-4.503268e-10
-4.48017e-06
4.397504e-06
-0.0001875774
0.0001876773
-3.243186e-10
-4.497085e-06
4.429081e-06
-0.0001879474
0.0001880381
-2.505293e-10
-4.519531e-06
4.731386e-06
-0.0001880862
0.0001875557
-9.59713e-11
-4.200803e-06
3.446811e-06
-0.0007764834
0.0007793462
-1.497903e-12
-1.766632e-05
3.967621e-06
3.435432e-06
3.953664e-06
4.195346e-06
-0.0007801989
0.00078067
-8.307353e-12
-1.75539e-05
4.355709e-06
4.186612e-06
4.345203e-06
4.320555e-06
-0.0007812359
0.0007817459
-1.704221e-11
-1.794595e-05
4.406162e-06
4.31181e-06
4.397535e-06
4.429273e-06
-0.0007822405
0.000782572
-9.320592e-12
-1.814587e-05
4.486413e-06
4.420671e-06
4.478021e-06
4.509495e-06
-0.0007827755
0.0007829554
1.046525e-11
-1.83266e-05
4.571337e-06
4.502059e-06
4.563802e-06
4.602098e-06
-0.0007830764
0.0007832161
2.371492e-11
-1.857158e-05
4.620434e-06
4.595275e-06
4.614007e-06
4.646223e-06
-0.0007833603
0.0007834821
2.300798e-11
-1.874551e-05
4.671637e-06
4.640041e-06
4.665777e-06
4.6759e-06
-0.0007836371
0.0007838307
2.134776e-12
-1.892002e-05
4.692863e-06
4.670418e-06
4.68728e-06
4.703389e-06
-0.0007841037
0.0007842411
1.357095e-11
-1.902721e-05
4.746072e-06
4.698712e-06
4.741618e-06
4.413179e-06
-0.000784245
0.0007854579
8.036754e-12
-1.931128e-05
4.638269e-06
4.409063e-06
4.637842e-06
4.834017e-06
-0.0007858236
0.0007857126
5.236665e-12
-1.905868e-05
4.751189e-06
4.83373e-06
4.750697e-06
4.774962e-06
-0.0007857427
0.0007859864
5.290143e-12
-1.926019e-05
4.734648e-06
4.773956e-06
4.732926e-06
4.804712e-06
-0.0007862607
0.0007865464
5.950992e-12
-1.945536e-05
4.784206e-06
4.801394e-06
4.779282e-06
4.83629e-06
-0.0007868539
0.0007871678
5.788326e-12
-1.964634e-05
4.82813e-06
4.832551e-06
4.835527e-06
4.877491e-06
-0.0007874721
0.0007877912
-3.744176e-12
-1.984318e-05
4.879397e-06
4.884938e-06
4.882327e-06
4.938867e-06
-0.0007881114
0.0007884253
2.037908e-11
-2.004807e-05
4.941149e-06
4.924078e-06
4.930013e-06
5.052063e-06
-0.0007887601
0.0007890769
-6.083887e-12
-2.041452e-05
5.058429e-06
4.986796e-06
5.00044e-06
5.446266e-06
-0.0007893226
0.0007890642
-2.397216e-11
-2.108705e-05
5.52832e-06
5.147009e-06
5.223917e-06
6.779367e-06
-0.0007875824
0.0007836596
-1.570984e-11
-2.203567e-05
7.208161e-06
6.007908e-06
5.962994e-06
9.75011e-06
-0.0007785411
0.0007851298
-8.283804e-12
-1.633873e-05
9.360763e-06
-0.0007903424
0.000791224
-3.892959e-12
-1.024234e-05
1.422279e-05
-0.0007905217
0.0007901624
-7.862784e-13
-1.386352e-05
1.306675e-05
-0.0007896879
0.0007894006
-5.528456e-14
-1.277948e-05
8.562248e-06
-0.0007892191
0.000790086
-5.559859e-13
-9.429137e-06
4.461589e-06
-0.000791872
0.0007934726
-5.092691e-13
-6.062138e-06
3.048203e-06
-0.0007949754
0.0007964213
6.697848e-13
-4.494102e-06
2.251285e-06
-0.0007978447
0.0007992036
1.469333e-12
-3.610178e-06
1.73595e-06
-0.000800529
0.0008018
1.336872e-12
-3.006996e-06
1.363931e-06
-0.0008030476
0.0008042688
9.093422e-13
-2.585146e-06
1.09151e-06
-0.0008054809
0.0008066851
3.047244e-13
-2.295704e-06
8.896259e-07
-0.0008078926
0.0008091057
-5.677515e-13
-2.102791e-06
7.403955e-07
-0.00081033
0.0008115717
-1.564474e-12
-1.982105e-06
6.349306e-07
-0.0008128277
0.0008141154
-2.233523e-12
-1.92262e-06
5.748004e-07
-0.0008154184
0.0008167701
-2.360094e-12
-1.926461e-06
5.733888e-07
-0.0008181356
0.0008195753
-2.106875e-12
-2.013092e-06
6.691992e-07
-0.0008210247
0.0008225828
-1.841837e-12
-2.227343e-06
9.69366e-07
-0.0008241357
0.0008258415
-1.759658e-12
-2.675102e-06
1.772255e-06
-0.0008274895
0.0008292832
-1.745799e-12
-3.56596e-06
3.77335e-06
-0.0008307613
0.000832138
-1.66223e-12
-5.150048e-06
6.514403e-06
-0.0008322834
0.0008328339
-1.54795e-12
-7.06487e-06
5.111321e-06
-0.0008346878
0.0008368695
-1.12672e-12
-7.293022e-06
9.4381e-06
-0.0008382823
0.0008388537
-1.017134e-12
-1.000948e-05
1.646136e-05
-0.0008353356
0.0008319834
-8.738957e-13
-1.310923e-05
7.896975e-06
-0.0008308081
0.0008317704
-6.73775e-13
-8.859252e-06
3.072874e-06
-0.0008330373
0.0008338275
-5.728109e-13
-3.863038e-06
-8.861303e-07
-0.0008343819
0.0008349106
-1.223893e-12
3.573876e-07
-8.172747e-06
-0.0008358493
0.0008374646
-1.227084e-12
6.557454e-06
-2.780212e-05
-0.0008405424
0.0008528156
-1.261605e-12
1.552895e-05
-5.380744e-06
-0.0008660612
0.0008680093
-1.77953e-12
1.595153e-05
-3.573463e-06
-5.375318e-06
-3.570157e-06
-1.832341e-06
-0.000868376
0.0008701675
-2.426738e-12
5.401028e-06
-1.780998e-06
-1.809573e-06
-1.769604e-06
-9.990789e-07
-0.0008717224
0.0008727429
-2.653229e-12
2.709885e-06
-8.679982e-07
-9.962177e-07
-8.67005e-07
-6.062445e-07
-0.0008736548
0.0008747295
-2.550591e-12
1.297538e-06
-5.744924e-07
-6.111588e-07
-5.803033e-07
-4.64437e-07
-0.0008758995
0.000877163
-2.221442e-12
5.750229e-07
-4.477606e-07
-4.715402e-07
-4.547057e-07
-3.789543e-07
-0.0008784995
0.0008799021
-1.920574e-12
1.034754e-07
-3.668537e-07
-3.863015e-07
-3.739584e-07
-3.302328e-07
-0.0008813608
0.0008828525
-1.672031e-12
-1.686589e-07
-3.243535e-07
-3.372671e-07
-3.311486e-07
-3.093242e-07
-0.0008843807
0.0008859376
-1.533852e-12
-3.108987e-07
-3.071521e-07
-3.159106e-07
-3.135326e-07
-3.025862e-07
-0.0008875167
0.0008891155
-1.444998e-12
-3.76975e-07
-3.022534e-07
-3.087471e-07
-3.082487e-07
-3.036795e-07
-0.0008907297
0.0008923586
-1.388485e-12
-4.010805e-07
-3.044695e-07
-3.09479e-07
-3.101678e-07
-3.094402e-07
-0.0008939996
0.0008956509
-1.373776e-12
-3.992524e-07
-3.109954e-07
-3.150645e-07
-3.165675e-07
-3.18492e-07
-0.0008973115
0.0008989785
-1.442888e-12
-3.781344e-07
-3.205045e-07
-3.239467e-07
-3.259081e-07
-3.299674e-07
-0.0009006521
0.0009023288
-1.599894e-12
-3.417269e-07
-3.323934e-07
-3.351387e-07
-3.375208e-07
-3.432989e-07
-0.0009040099
0.0009056915
-1.799743e-12
-2.932751e-07
-3.459771e-07
-3.482146e-07
-3.50857e-07
-3.579185e-07
-0.0009073756
0.0009090582
-2.010101e-12
-2.359463e-07
-3.607509e-07
-3.6256e-07
-3.653559e-07
-3.733969e-07
-0.0009107417
0.0009124219
-2.213209e-12
-1.72133e-07
-3.763109e-07
-3.777426e-07
-3.806149e-07
-3.89385e-07
-0.0009141018
0.000915777
-2.403758e-12
-1.037995e-07
-3.92321e-07
-3.934205e-07
-3.963115e-07
-4.054504e-07
-0.0009174511
0.0009191199
-2.599318e-12
-3.393536e-08
-4.082966e-07
-4.091728e-07
-4.119707e-07
-4.218673e-07
-0.0009207884
0.0009224478
-2.806764e-12
4.097766e-08
-4.24883e-07
-4.253188e-07
-4.28298e-07
-4.382626e-07
-0.0009241053
0.0009257554
-2.998631e-12
1.150856e-07
-4.411237e-07
-4.414801e-07
-4.44309e-07
-4.541546e-07
-0.0009274029
0.000929043
-3.167201e-12
1.881161e-07
-4.569347e-07
-4.571662e-07
-4.599198e-07
-4.69677e-07
-0.0009306804
0.0009323103
-3.295168e-12
2.597403e-07
-4.723531e-07
-4.725103e-07
-4.751634e-07
-4.847354e-07
-0.0009339376
0.0009355578
-3.376672e-12
3.292167e-07
-4.873013e-07
-4.874102e-07
-4.899545e-07
-4.992738e-07
-0.0009371754
0.0009387866
-3.405125e-12
3.958441e-07
-5.017298e-07
-5.017936e-07
-5.042246e-07
-5.132683e-07
-0.0009403956
0.000941999
-3.371041e-12
4.590226e-07
-5.156196e-07
-5.15611e-07
-5.179262e-07
-5.267046e-07
0.0009451979
-3.268288e-12
5.182563e-07
-5.289201e-07
-5.288485e-07
-5.310454e-07
-0.0009436006
-5.393886e-07
-0.000946794
0.000948387
-3.204896e-12
5.730191e-07
-5.415117e-07
-5.414907e-07
-5.436122e-07
-5.515309e-07
-0.0009499797
0.0009515706
-3.11683e-12
6.231446e-07
-5.534703e-07
-5.535496e-07
-5.554611e-07
-5.630733e-07
-0.0009531619
0.0009547531
-2.984799e-12
6.684419e-07
-5.649706e-07
-5.648611e-07
-5.667207e-07
-5.741791e-07
-0.0009563456
0.0009579397
-2.837844e-12
7.094891e-07
-5.759958e-07
-5.758106e-07
-5.775978e-07
-5.848937e-07
-0.000959536
0.0009611355
-2.703437e-12
7.465061e-07
-5.866551e-07
-5.863866e-07
-5.881218e-07
-5.953253e-07
-0.0009627382
0.0009643457
-2.589213e-12
7.800171e-07
-5.970612e-07
-5.966886e-07
-5.984003e-07
-6.055925e-07
-0.0009659572
0.0009675748
-2.703787e-12
8.10698e-07
-6.073419e-07
-6.068355e-07
-6.085626e-07
-6.158824e-07
-0.0009691975
0.0009708279
-3.487393e-12
8.390088e-07
-6.176861e-07
-6.170135e-07
-6.188052e-07
-6.260543e-07
-0.000972465
0.0009741093
-5.583777e-12
8.648761e-07
-6.276104e-07
-6.269997e-07
-6.28539e-07
-6.359325e-07
-0.0009757571
0.0009774174
-4.661246e-12
8.880196e-07
-6.375279e-07
-6.366969e-07
-6.381962e-07
-6.453713e-07
-0.000979082
0.0009807525
-7.593828e-13
9.163299e-07
-6.471003e-07
-6.463091e-07
-6.480384e-07
-6.586187e-07
-0.000982434
0.0009841289
-3.988064e-12
9.420693e-07
-6.589035e-07
-6.597406e-07
-6.596741e-07
-6.689598e-07
-0.0009858278
0.0009875363
-1.315594e-12
9.722482e-07
-6.708353e-07
-6.69515e-07
-6.714829e-07
-6.811088e-07
-0.0009892508
0.000990975
-1.645257e-12
1.005672e-06
-6.831956e-07
-6.817391e-07
-6.838083e-07
-6.942738e-07
-0.0009927056
0.0009944434
-1.125851e-12
1.044846e-06
-6.964886e-07
-6.948796e-07
-6.970188e-07
-7.089155e-07
-0.0009961873
0.00099794
-1.363398e-12
1.088925e-06
-7.114483e-07
-7.093623e-07
-7.11861e-07
-7.244743e-07
-0.0009996976
0.001001464
-1.177118e-12
1.138232e-06
-7.271186e-07
-7.249513e-07
-7.276023e-07
-7.40788e-07
-0.001003233
0.001005011
-8.001404e-13
1.191488e-06
-7.435267e-07
-7.412944e-07
-7.440171e-07
-7.573639e-07
-0.001006791
0.001008581
-3.766216e-13
1.246546e-06
-7.601689e-07
-7.577907e-07
-7.605235e-07
-7.735201e-07
-0.00101037
0.001012171
1.022478e-13
1.299198e-06
-7.762019e-07
-7.739263e-07
-7.765263e-07
-7.874439e-07
-0.001013971
0.001015788
7.486259e-13
1.337084e-06
-7.893257e-07
-7.879068e-07
-7.896278e-07
-7.934664e-07
-0.001017609
0.001019466
1.683664e-12
1.311691e-06
-7.906456e-07
-7.94018e-07
-7.908831e-07
-7.582145e-07
-0.00102131
0.001023114
2.487114e-12
1.170352e-06
-7.286583e-07
-7.591533e-07
-7.291002e-07
-5.814573e-07
-0.001024608
0.001025961
2.209776e-12
8.779054e-07
-5.333787e-07
-5.806758e-07
-5.354217e-07
-4.409406e-07
-0.001027651
0.001028703
1.424339e-12
7.809616e-07
-4.782248e-07
-4.373153e-07
-4.759658e-07
-8.055658e-07
-0.001030418
0.001032146
1.880994e-12
1.47405e-06
-7.991003e-07
-8.024533e-07
-7.956277e-07
-8.389474e-07
-0.001033746
0.001035287
1.892239e-12
1.793208e-06
-8.322521e-07
-8.352587e-07
-8.286563e-07
-8.729688e-07
-0.00103681
0.001038293
2.482961e-12
1.993063e-06
-8.685304e-07
-8.693873e-07
-8.650189e-07
-9.006103e-07
-0.001039762
0.001041187
2.363803e-12
2.165329e-06
-8.977602e-07
-8.971779e-07
-8.943818e-07
-9.262932e-07
-0.001042588
0.00104394
3.282758e-12
2.343626e-06
-9.245525e-07
-9.230092e-07
-9.213443e-07
-9.520189e-07
-0.001045268
0.001046553
4.407587e-12
2.515669e-06
-9.513964e-07
-9.488614e-07
-9.4833e-07
-9.781019e-07
-0.001047822
0.001049048
3.658386e-12
2.680803e-06
-9.780773e-07
-9.752568e-07
-9.752787e-07
-1.002551e-06
-0.001050255
0.001051415
4.537497e-12
2.846138e-06
-1.003288e-06
-9.998828e-07
-1.000695e-06
-1.027048e-06
-0.001052559
0.001053663
6.349925e-12
3.000652e-06
-1.028457e-06
-1.024447e-06
-1.025566e-06
-1.040839e-06
-0.00105474
0.001055755
-1.298909e-12
3.151068e-06
-1.044731e-06
-1.037868e-06
-1.042345e-06
-1.064935e-06
-0.001056749
0.001057704
1.262827e-11
3.306191e-06
-1.067238e-06
-1.063362e-06
-1.065604e-06
-1.086427e-06
-0.001058639
0.001059528
9.694196e-12
3.455292e-06
-1.087528e-06
-1.084508e-06
-1.085533e-06
-1.10478e-06
-0.001060397
0.001061221
-1.396417e-11
3.592935e-06
-1.105641e-06
-1.102772e-06
-1.103592e-06
-1.121269e-06
-0.001062023
0.001062782
-3.428617e-11
3.723956e-06
-1.121776e-06
-1.119315e-06
-1.119822e-06
-1.13554e-06
-0.001063521
0.001064218
-3.749954e-11
3.841628e-06
-1.135884e-06
-1.13373e-06
-1.134124e-06
-1.148237e-06
-0.001064897
0.001065536
-2.916103e-11
3.950824e-06
-1.148469e-06
-1.146598e-06
-1.146869e-06
-1.159528e-06
-0.001066157
0.001066742
-1.758252e-11
4.050928e-06
-1.15976e-06
-1.158056e-06
-1.158289e-06
-1.16955e-06
-0.001067309
0.001067843
-6.195737e-12
4.141531e-06
-1.169739e-06
-1.168241e-06
-1.168431e-06
-1.179192e-06
-0.001068364
0.001068854
2.511262e-13
4.218953e-06
-1.177096e-06
-1.178054e-06
-1.175208e-06
-1.183014e-06
-0.001069327
0.001069771
-6.22689e-12
4.28875e-06
-1.184332e-06
-1.181641e-06
-1.183672e-06
-1.190627e-06
-0.001070204
0.001070616
1.501935e-11
4.350906e-06
-1.191455e-06
-1.190497e-06
-1.190051e-06
-1.195709e-06
-0.001071016
0.001071396
1.166708e-11
4.399405e-06
-1.195037e-06
-1.194755e-06
-1.194309e-06
-1.199807e-06
-0.001071768
0.001072123
-6.508009e-11
4.441508e-06
-1.19928e-06
-1.199063e-06
-1.198184e-06
-1.203088e-06
-0.00107247
0.001072802
-1.498973e-11
4.476646e-06
-1.202449e-06
-1.201918e-06
-1.201014e-06
-1.205882e-06
0.001073442
-2.054669e-11
4.505563e-06
-0.001073128
-1.204753e-06
-1.205025e-06
-1.204578e-06
-1.208132e-06
-0.001073752
0.001074053
-4.530851e-11
4.528613e-06
-1.20747e-06
-1.207532e-06
-1.206429e-06
-1.209867e-06
-0.00107435
0.00107464
-1.246964e-10
4.546407e-06
-1.208732e-06
-1.20915e-06
-1.208315e-06
-1.210923e-06
-0.001074926
0.001075208
-1.055966e-10
4.559387e-06
-1.209909e-06
-1.210379e-06
-1.209437e-06
-1.212006e-06
-0.001075488
0.001075764
-1.452331e-10
4.569128e-06
-1.211175e-06
-1.211703e-06
-1.210775e-06
-1.212879e-06
-0.00107604
0.001076313
-2.892132e-11
4.574605e-06
-1.211893e-06
-1.212102e-06
-1.211098e-06
-1.213734e-06
-0.001076587
0.001076859
-1.202245e-12
4.579427e-06
-1.21262e-06
-1.213081e-06
-1.212095e-06
-1.214226e-06
-0.001077131
0.001077406
5.962455e-11
4.58057e-06
-1.213253e-06
-1.214231e-06
-1.213137e-06
-1.214904e-06
-0.001077681
0.001077958
7.755304e-11
4.580835e-06
-1.214244e-06
-1.214675e-06
-1.214034e-06
-1.216534e-06
-0.001078237
0.00107852
1.59657e-10
4.581072e-06
-1.216121e-06
-1.216002e-06
-1.215418e-06
-1.218023e-06
-0.001078805
0.001079095
1.741019e-10
4.580006e-06
-1.217555e-06
-1.217148e-06
-1.216668e-06
-1.218991e-06
-0.001079386
0.001079682
9.751963e-11
4.577731e-06
-1.218545e-06
-1.218448e-06
-1.218094e-06
-1.220109e-06
-0.001079981
0.001080285
-7.002017e-11
4.575448e-06
-1.219753e-06
-1.220038e-06
-1.219823e-06
-1.221336e-06
-0.001080591
0.001080904
-7.641392e-11
4.571907e-06
-1.221178e-06
-1.221355e-06
-1.22109e-06
-1.222514e-06
-0.001081218
0.00108154
2.030948e-11
4.567464e-06
-1.222489e-06
-1.222133e-06
-1.22205e-06
-1.223589e-06
-0.001081861
0.001082192
6.674618e-11
4.562337e-06
-1.223811e-06
-1.223141e-06
-1.223365e-06
-1.224473e-06
-0.001082521
0.001082862
5.406795e-11
4.556288e-06
-1.224871e-06
-1.224071e-06
-1.224513e-06
-1.224587e-06
-0.001083198
0.001083552
2.915913e-11
4.545656e-06
-1.225218e-06
-1.224345e-06
-1.225031e-06
-1.223968e-06
-0.001083894
0.00108426
1.489897e-11
4.532024e-06
-1.224843e-06
-1.223865e-06
-1.224701e-06
-1.222574e-06
-0.001084609
0.001084991
1.090733e-11
4.51e-06
-1.223672e-06
-1.222365e-06
-1.22349e-06
-1.21979e-06
-0.001085349
0.001085752
1.092347e-11
4.478775e-06
-1.220881e-06
-1.219526e-06
-1.220727e-06
-1.214032e-06
-0.001086124
0.001086562
1.163726e-11
4.420141e-06
-1.215205e-06
-1.213723e-06
-1.215319e-06
-1.207613e-06
-0.001086982
0.001087515
1.203322e-11
4.295751e-06
-1.207078e-06
-1.207258e-06
-1.206834e-06
-1.180209e-06
-0.001088069
0.001088737
1.646281e-11
3.987744e-06
-1.147785e-06
-1.179938e-06
-1.147798e-06
-9.406388e-07
-0.001089272
0.001089211
1.684612e-11
3.277585e-06
-6.642807e-07
-9.428766e-07
-6.684794e-07
-1.568026e-07
-0.0002719893
0.0002709124
-8.955581e-12
1.233693e-06
-9.407965e-07
-0.0002696796
0.0002693195
1.910688e-12
1.300906e-06
-1.024223e-06
-0.0002684674
0.0002682321
1.458022e-11
1.259497e-06
-1.066017e-06
-0.0002676385
0.0002674728
2.201442e-11
1.231688e-06
-1.09345e-06
-0.0002670583
0.0002669433
2.385773e-11
1.208415e-06
-1.112667e-06
-0.0002666579
0.0002665794
2.109636e-11
1.191145e-06
-1.127908e-06
-0.0002663855
0.0002663325
1.537543e-11
1.18088e-06
-1.140252e-06
-0.0002662025
0.0002661674
1.258869e-11
1.175366e-06
-1.150392e-06
-0.0002660826
0.0002660601
1.124418e-11
1.172816e-06
-1.159036e-06
-0.0002660077
0.0002659942
7.805646e-12
1.17255e-06
-1.166984e-06
-0.0002659642
0.0002659573
-6.421055e-12
1.173901e-06
-1.171236e-06
-0.0002659446
0.0002659411
-2.522454e-11
1.174762e-06
-1.177838e-06
-0.0002659402
0.0002659401
-1.575706e-11
1.178022e-06
-1.184028e-06
-0.0002659481
0.0002659513
-1.870979e-11
1.180812e-06
-1.192165e-06
-0.0002659692
0.0002659763
-3.898489e-11
1.185143e-06
-1.196021e-06
-0.0002660007
0.0002660083
-4.490463e-11
1.188528e-06
-1.20218e-06
-0.0002660358
0.0002660441
-2.903231e-11
1.193993e-06
-1.208442e-06
-0.0002660763
0.0002660852
-3.019286e-11
1.199574e-06
-1.213845e-06
-0.0002661191
0.000266128
-3.284928e-11
1.204957e-06
-1.218542e-06
-0.0002661623
0.000266171
-3.54215e-11
1.209864e-06
-1.222591e-06
-0.0002662055
0.0002662139
-3.578035e-11
1.214264e-06
-1.226386e-06
-0.0002662483
0.0002662564
-3.799168e-11
1.218312e-06
-1.230489e-06
-0.00026629
0.0002662983
-4.010918e-11
1.222186e-06
-1.235279e-06
-0.0002663303
0.0002663398
-3.856809e-11
1.225792e-06
-1.240576e-06
-0.0002663695
0.0002663807
-3.368351e-11
1.22942e-06
-1.245046e-06
-0.000266409
0.0002664224
-3.027802e-11
1.23172e-06
-1.248094e-06
-0.0002664511
0.000266466
-4.376541e-11
1.23325e-06
-1.250133e-06
-0.0002664977
0.0002665146
-4.18466e-11
1.233281e-06
-1.249668e-06
-0.0002665511
0.0002665703
-3.692524e-11
1.230504e-06
-1.244475e-06
-0.0002666175
0.0002666382
-3.367244e-11
1.223776e-06
-1.234972e-06
-0.0002667039
0.0002667277
-2.962393e-11
1.211121e-06
-1.221246e-06
-0.0002668229
0.000266855
-2.633497e-11
1.189193e-06
-1.204588e-06
-0.0002669976
0.000267052
-2.723745e-11
1.150168e-06
-1.150084e-06
-0.0002672845
0.0002673712
-2.982626e-11
1.063477e-06
-1.067688e-06
-0.0002677706
0.0002680031
-3.591695e-11
8.352166e-07
2.96162e-07
-0.0002687802
0.0002686146
-4.841843e-12
-1.305225e-07
9.542479e-07
-0.0002683764
0.0002683976
-3.493708e-11
-9.754298e-07
1.084287e-06
-0.000268454
0.0002684837
-1.836241e-11
-1.114031e-06
1.16362e-06
-0.0002686758
0.0002687398
-1.704416e-11
-1.22759e-06
1.187438e-06
-0.0002689636
0.0002690463
-1.062841e-11
-1.270048e-06
1.215456e-06
-0.0002692966
0.0002693813
-9.334211e-12
-1.300118e-06
1.238092e-06
-0.0002696402
0.0002697279
-4.558677e-12
-1.325761e-06
1.256783e-06
-0.0002699922
0.0002700807
1.904656e-12
-1.345264e-06
1.27318e-06
-0.0002703448
0.0002704324
1.001098e-11
-1.360803e-06
1.287487e-06
-0.0002706929
0.000270779
2.111502e-12
-1.373641e-06
1.300389e-06
-0.0002710345
0.0002711187
-1.439222e-11
-1.38456e-06
1.31186e-06
-0.0002713677
0.0002714497
-1.543073e-11
-1.393846e-06
1.322226e-06
-0.0002716915
0.0002717709
-1.700496e-11
-1.401556e-06
1.331568e-06
-0.0002720042
0.0002720807
-1.804004e-11
-1.408052e-06
1.340034e-06
-0.0002723052
0.0002723788
-2.190871e-11
-1.413595e-06
1.347692e-06
-0.0002725938
0.0002726643
-2.360279e-11
-1.418109e-06
1.354711e-06
-0.0002728694
0.0002729366
-2.094264e-11
-1.42186e-06
1.361233e-06
-0.0002731317
0.0002731954
-2.307138e-11
-1.424959e-06
1.367076e-06
-0.0002733801
0.0002734403
-2.516702e-11
-1.427235e-06
1.372606e-06
-0.0002736139
0.0002736706
-2.412989e-11
-1.42925e-06
1.377834e-06
-0.0002738336
0.0002738866
-2.177934e-11
-1.430783e-06
1.382363e-06
-0.0002740383
0.0002740878
-2.772477e-11
-1.431837e-06
1.386889e-06
-0.0002742279
0.0002742734
-2.45422e-11
-1.432368e-06
1.390297e-06
-0.0002744021
0.0002744438
-1.690886e-11
-1.431973e-06
1.393458e-06
-0.0002745606
0.0002745987
-2.732979e-11
-1.43151e-06
1.396093e-06
-0.0002747016
0.000274735
-2.559202e-11
-1.429463e-06
1.396846e-06
-0.0002748255
0.0002748553
-3.558582e-11
-1.426639e-06
1.398061e-06
-0.0002749316
0.0002749577
-2.809161e-11
-1.424157e-06
1.399247e-06
-0.0002750206
0.0002750422
-2.912657e-11
-1.420826e-06
1.39886e-06
-0.0002750917
0.0002751082
-2.651689e-11
-1.415394e-06
1.398703e-06
-0.0002751435
0.0002751553
-3.072132e-11
-1.410448e-06
1.3991e-06
-0.0002751744
0.0002751812
-2.873292e-11
-1.405821e-06
1.396633e-06
-0.0002751825
0.0002751814
-2.31148e-11
-1.395509e-06
1.389696e-06
-0.0002751787
0.0002751791
-1.284724e-12
-1.390102e-06
1.353649e-06
-0.0002751941
0.0002751847
1.275295e-10
-1.344365e-06
1.854427e-06
-0.0002729919
0.001116763
-3.496315e-11
-5.043578e-06
2.715972e-07
1.857728e-06
2.573919e-07
-0.0002729982
-0.0002849841
-0.0002849866
8.726533e-07
-0.001119878
0.001120003
-3.349412e-11
-4.450583e-06
1.310375e-06
8.516268e-07
1.291015e-06
1.052799e-06
-0.001119925
0.001120001
-3.346492e-11
-4.397633e-06
1.123899e-06
1.036407e-06
1.1085e-06
1.087765e-06
-0.00112058
0.00112103
-3.235019e-11
-4.886971e-06
1.144288e-06
1.073722e-06
1.130595e-06
1.142484e-06
-0.001121327
0.001121337
-3.147696e-11
-4.651024e-06
1.191029e-06
1.129691e-06
1.178365e-06
1.156883e-06
-0.00112126
0.001121118
-3.509314e-11
-4.513741e-06
1.183072e-06
1.145057e-06
1.171228e-06
1.155356e-06
-0.001121031
0.00112094
-4.001602e-11
-4.532937e-06
1.167718e-06
1.144146e-06
1.156686e-06
1.162679e-06
-0.001120884
0.001120794
-4.367181e-11
-4.557701e-06
1.1722e-06
1.151322e-06
1.162277e-06
1.174976e-06
-0.001120708
0.001120587
-4.598174e-11
-4.573043e-06
1.182132e-06
1.164564e-06
1.171853e-06
1.184838e-06
-0.001120467
0.001120319
-4.705437e-11
-4.581942e-06
1.189798e-06
1.175555e-06
1.179736e-06
1.192925e-06
-0.001120164
0.001119983
-4.635597e-11
-4.57737e-06
1.195196e-06
1.184127e-06
1.18652e-06
1.199324e-06
-0.001119797
0.001119588
-4.583731e-11
-4.56409e-06
1.195385e-06
1.191553e-06
1.187299e-06
1.200968e-06
-0.001119353
0.0011191
-5.328322e-11
-4.541427e-06
1.203035e-06
1.193883e-06
1.196242e-06
1.209267e-06
-0.00111883
0.001118537
-5.310043e-11
-4.533528e-06
1.210154e-06
1.203057e-06
1.203916e-06
1.214426e-06
-0.001118228
0.001117899
-4.999082e-11
-4.516638e-06
1.214429e-06
1.208653e-06
1.208728e-06
1.217821e-06
-0.001117555
0.001117184
-5.176732e-11
-4.48956e-06
1.217726e-06
1.212604e-06
1.212547e-06
1.2215e-06
-0.001116797
0.001116389
-5.287247e-11
-4.467545e-06
1.220932e-06
1.216917e-06
1.216348e-06
1.224293e-06
-0.001115963
0.001115515
-5.726458e-11
-4.439386e-06
1.223391e-06
1.220302e-06
1.219619e-06
1.223009e-06
-0.001115057
0.001114583
-5.978611e-11
-4.413729e-06
1.223955e-06
1.220081e-06
1.220371e-06
1.231219e-06
-0.001114097
0.001113575
-5.908655e-11
-4.390452e-06
1.228167e-06
1.228251e-06
1.225146e-06
1.228787e-06
-0.001113044
0.001112495
-5.882129e-11
-4.358747e-06
1.22746e-06
1.226067e-06
1.224721e-06
1.22857e-06
-0.001111934
0.001111356
-5.88323e-11
-4.328713e-06
1.227341e-06
1.226182e-06
1.224958e-06
1.228246e-06
-0.001110765
0.001110157
-5.911622e-11
-4.2987e-06
1.22705e-06
1.226207e-06
1.225011e-06
1.227623e-06
-0.001109537
0.001108901
-6.011753e-11
-4.268491e-06
1.226439e-06
1.225848e-06
1.224684e-06
1.226635e-06
-0.001108253
0.00110759
-6.078029e-11
-4.238016e-06
1.225472e-06
1.225011e-06
1.223781e-06
1.225222e-06
-0.001106916
0.001106228
-6.088882e-11
-4.207118e-06
1.224111e-06
1.223711e-06
1.222522e-06
1.223542e-06
-0.001105529
0.001104816
-6.167741e-11
-4.176335e-06
1.222419e-06
1.222204e-06
1.221081e-06
1.2216e-06
-0.001104093
0.001103357
-6.238877e-11
-4.145578e-06
1.220546e-06
1.220455e-06
1.219392e-06
1.21937e-06
-0.001102611
0.001101852
-6.243554e-11
-4.114318e-06
1.218368e-06
1.218386e-06
1.217349e-06
1.216758e-06
-0.001101084
0.001100302
-6.295724e-11
-4.082109e-06
1.215797e-06
1.215883e-06
1.214888e-06
1.213509e-06
-0.001099512
0.001098709
-6.306372e-11
-4.047517e-06
1.212503e-06
1.212736e-06
1.211686e-06
1.209029e-06
-0.001097898
0.001097074
-6.321074e-11
-4.008877e-06
1.208055e-06
1.208397e-06
1.207379e-06
1.202218e-06
-0.001096241
0.001095398
-6.348904e-11
-3.960601e-06
1.200279e-06
1.201702e-06
1.199777e-06
1.188082e-06
-0.001094554
0.001093708
-6.398161e-11
-3.899595e-06
1.185639e-06
1.187537e-06
1.185048e-06
1.172234e-06
-0.001092865
0.001092021
-6.504172e-11
-3.838003e-06
1.169058e-06
1.171794e-06
1.168564e-06
1.158742e-06
-0.00109118
0.001090335
-6.614258e-11
-3.784183e-06
1.156404e-06
1.15831e-06
1.155906e-06
1.149419e-06
-0.00108949
0.001088637
-6.619023e-11
-3.740485e-06
1.147731e-06
1.148988e-06
1.147231e-06
1.1428e-06
-0.001087782
0.001086918
-6.711676e-11
-3.703164e-06
1.141502e-06
1.142395e-06
1.141076e-06
1.13719e-06
-0.001086051
0.001085172
-6.813468e-11
-3.667154e-06
1.13618e-06
1.136864e-06
1.135837e-06
1.131218e-06
-0.00108429
0.001083394
-6.901797e-11
-3.626477e-06
1.130266e-06
1.130917e-06
1.13e-06
1.123603e-06
-0.001082496
0.001081579
-6.883494e-11
-3.575235e-06
1.122682e-06
1.123331e-06
1.122271e-06
1.11228e-06
-0.00108066
0.001079718
-6.62666e-11
-3.505297e-06
1.112004e-06
1.111996e-06
1.111566e-06
1.093966e-06
-0.001078775
0.001077818
-7.636965e-11
-3.413149e-06
1.091858e-06
1.093608e-06
1.09157e-06
1.076911e-06
-0.001076835
0.001075767
-1.055466e-10
-3.23692e-06
1.076127e-06
1.076493e-06
1.075672e-06
1.010354e-06
-0.001074668
0.001073593
-5.514557e-11
-2.948794e-06
1.00176e-06
1.010349e-06
1.001738e-06
8.424816e-07
-0.001072607
0.001071836
-6.178794e-11
-2.433296e-06
7.599395e-07
8.422566e-07
7.597123e-07
6.673155e-07
-0.001071129
0.001070344
-5.351513e-11
-1.868342e-06
6.598022e-07
6.671067e-07
6.595482e-07
6.416133e-07
-0.001069516
0.001068661
-5.837167e-11
-1.702721e-06
6.377911e-07
6.414159e-07
6.376837e-07
6.176445e-07
-0.001067821
0.001066926
-5.810309e-11
-1.567825e-06
6.138197e-07
6.17281e-07
6.133792e-07
5.976499e-07
-0.001066034
0.001065107
-5.287159e-11
-1.461137e-06
5.966626e-07
5.975341e-07
5.964593e-07
5.750674e-07
-0.001064201
0.001063216
-5.822293e-11
-1.322516e-06
5.792036e-07
5.748123e-07
5.789994e-07
5.510471e-07
-0.001062272
0.001061166
-5.469727e-11
-1.119025e-06
5.619641e-07
5.506559e-07
5.61631e-07
5.097368e-07
-0.001060152
0.001059047
-5.334708e-11
-9.759147e-07
5.318315e-07
5.086445e-07
5.306746e-07
2.609077e-07
-0.001058756
0.00105894
-5.23651e-11
-1.430864e-06
3.653807e-07
2.585235e-07
3.626071e-07
6.134884e-07
-0.001058783
0.001056456
-4.866427e-11
-2.696665e-08
5.573756e-07
6.197036e-07
5.631588e-07
5.032188e-07
-0.00105458
0.001053449
-5.168779e-11
-6.95839e-07
4.031012e-07
5.102042e-07
4.096129e-07
4.30819e-07
-0.001052362
0.001051409
-4.99276e-11
-6.943843e-07
3.865083e-07
4.372176e-07
3.925473e-07
3.974621e-07
-0.001050306
0.001049326
-4.923965e-11
-5.571308e-07
3.664393e-07
4.02712e-07
3.713678e-07
3.770644e-07
-0.001048325
0.001047385
-5.055309e-11
-5.428588e-07
3.600747e-07
3.815283e-07
3.642655e-07
3.763668e-07
-0.001046418
0.001045462
-5.152939e-11
-5.383811e-07
3.671183e-07
3.802235e-07
3.707801e-07
3.77953e-07
-0.00104448
0.0010435
-5.165082e-11
-5.252255e-07
3.71536e-07
3.814511e-07
3.748243e-07
3.775285e-07
-0.001042495
0.001041485
-5.1995e-11
-4.973978e-07
3.730395e-07
3.805716e-07
3.759824e-07
3.765507e-07
-0.001040457
0.00103942
-5.36769e-11
-4.689178e-07
3.737982e-07
3.791159e-07
3.762972e-07
3.761987e-07
-0.001038367
0.001037303
-5.585125e-11
-4.416147e-07
3.743922e-07
3.784158e-07
3.76564e-07
3.758748e-07
-0.001036225
0.001035134
-5.810141e-11
-4.129803e-07
3.743777e-07
3.778102e-07
3.762885e-07
3.750755e-07
-0.00103403
0.001032911
-5.976443e-11
-3.817545e-07
3.73751e-07
3.768101e-07
3.753953e-07
3.735519e-07
-0.001031779