/*--------------------------------*- C++ -*----------------------------------*\
| =========                 |                                                 |
| \\      /  F ield         | foam-extend: Open Source CFD                    |
|  \\    /   O peration     | Version:     3.1                                |
|   \\  /    A nd           | Web:         http://www.extend-project.de       |
|    \\/     M anipulation  |                                                 |
\*---------------------------------------------------------------------------*/
FoamFile
{
    version     2.0;
    format      ascii;
    class       volScalarField;
    location    "9.5";
    object      k;
}
// * * * * * * * * * * * * * * * * * * * * * * * * * * * * * * * * * * * * * //

dimensions      [0 2 -2 0 0 0 0];

internalField   nonuniform List<scalar> 
119952
(
0.03806051
0.03288612
0.03094036
0.03056767
0.03050535
0.03020679
0.03080774
0.03183835
0.03319973
0.03483059
0.0366997
0.0388689
0.04139486
0.04431768
0.04770723
0.05163141
0.05601367
0.0607115
0.06566527
0.07144554
0.08108799
0.08474504
0.08994888
0.09844293
0.1000623
0.1017245
0.1024773
0.1019888
0.09924064
0.01585255
0.07055467
0.06380607
0.0608226
0.06008715
0.06077532
0.06234822
0.06445227
0.06684954
0.06944478
0.07239952
0.07459562
0.08092154
0.08892808
0.09738297
0.1057589
0.1138153
0.1214802
0.1287104
0.135374
0.1575304
0.1618452
0.1649554
0.1668489
0.1676264
0.1673252
0.1660119
0.163792
0.1607935
0.1572892
0.1534475
0.1491871
0.1451993
0.1412126
0.1373599
0.1337794
0.1305722
0.127765
0.1251566
0.1242371
0.1205932
0.1169122
0.1140289
0.1111718
0.108325
0.1058762
0.1043255
0.1040567
0.1051184
0.1075497
0.1115045
0.1171712
0.1246805
0.1340264
0.1448806
0.1566615
0.1689113
0.1816085
0.1945498
0.2072733
0.2198012
0.2305561
0.2388221
0.2457191
0.2487905
0.2480748
0.244535
0.2389664
0.2272991
0.2156527
0.204766
0.1943502
0.1842793
0.1744252
0.1648088
0.1553842
0.1461635
0.1372257
0.1287411
0.1210794
0.1151112
0.1116466
0.1104008
0.1100744
0.109459
0.1080815
0.1058559
0.1029789
0.09975302
0.0964156
0.09316467
0.09015442
0.08740068
0.08489886
0.0826388
0.08061167
0.07881457
0.0772583
0.07597407
0.0749667
0.07421642
0.07370658
0.07342637
0.07336231
0.07349594
0.07380319
0.07425407
0.07481269
0.07543629
0.07607787
0.07668553
0.07718005
0.07750751
0.07763887
0.0775709
0.07728303
0.07674393
0.07592586
0.07494221
0.07361091
0.07112014
0.06736083
0.06612406
0.0711267
0.07972642
0.0890934
0.08737423
0.07690056
0.06653494
0.06071694
0.05970231
0.05912531
0.05658125
0.05284488
0.04937605
0.04667952
0.04452666
0.04270336
0.04116545
0.03991193
0.03890963
0.03810831
0.03747534
0.03700377
0.03669435
0.03654001
0.03652405
0.03662419
0.03681598
0.03707684
0.03739025
0.03774551
0.03813507
0.03855272
0.03899304
0.03945144
0.03992406
0.04040857
0.04090216
0.04138637
0.04182101
0.04220351
0.04253536
0.04281446
0.04304007
0.04321196
0.04332827
0.04335326
0.04021604
0.03718469
0.03606479
0.03530567
0.0347213
0.03424772
0.03384321
0.03347959
0.03313801
0.03280584
0.03247706
0.03215174
0.03182844
0.03150594
0.03118419
0.03086316
0.03054278
0.0302227
0.02990279
0.0295842
0.02926607
0.02894231
0.02859595
0.02825872
0.02792688
0.02759333
0.02725574
0.02691331
0.02656605
0.02621486
0.02586176
0.0255099
0.02516387
0.0248306
0.02452384
0.02426664
0.02428535
0.02432281
0.02433025
0.02430643
0.02425391
0.02417814
0.02408314
0.02397264
0.02384956
0.02371664
0.02357615
0.02343016
0.02328054
0.02312894
0.02297666
0.02282462
0.02267346
0.02252357
0.02237525
0.0222287
0.02208401
0.02194119
0.02180018
0.02166071
0.02152369
0.02139081
0.02125996
0.0211282
0.02099636
0.02086424
0.0207317
0.0205984
0.02046406
0.02032859
0.02123413
0.02120424
0.021084
0.02089502
0.02068657
0.02047687
0.02028388
0.02011361
0.01996676
0.01984157
0.01973503
0.01964419
0.01956618
0.019499
0.01943863
0.01938343
0.01933185
0.01928235
0.01923377
0.01918529
0.01913632
0.01908647
0.01903541
0.01898296
0.0189293
0.01887424
0.01881761
0.01875974
0.01870121
0.01864218
0.01858254
0.01852283
0.01846344
0.01840455
0.01834627
0.01828871
0.01823199
0.01817623
0.01812155
0.01806809
0.01801602
0.01796548
0.01791678
0.01787057
0.01782852
0.01779096
0.0177491
0.01770491
0.01766295
0.01762273
0.01758447
0.0175493
0.01751756
0.01750804
0.01754077
0.01746615
0.01739473
0.01732367
0.01725328
0.01718498
0.01712033
0.01706125
0.01700933
0.01696553
0.01693052
0.01690442
0.01688682
0.0168771
0.01687447
0.01687803
0.01688686
0.01690005
0.01691672
0.01693608
0.01695741
0.01698009
0.01700357
0.01702741
0.01705124
0.01707475
0.01709772
0.01711996
0.01714134
0.01716177
0.01718118
0.01719955
0.01721686
0.01723313
0.01724838
0.01726264
0.01727596
0.01728838
0.01729995
0.0173107
0.01732069
0.01732995
0.01733854
0.01734647
0.0173538
0.01736056
0.01736675
0.01737242
0.01737757
0.01738222
0.01738638
0.01739006
0.01739326
0.01739597
0.01739819
0.01739992
0.01740116
0.0174019
0.01740213
0.01740184
0.01740103
0.01739968
0.01739779
0.01739535
0.01739236
0.01738883
0.01738473
0.01738008
0.01737487
0.01736911
0.0173628
0.01735595
0.01734853
0.01734057
0.01733203
0.01732298
0.01731306
0.01730223
0.01728979
0.01727451
0.01725216
0.01721353
0.01713058
0.01700092
0.0172282
0.06419883
0.08085504
0.09153717
0.09856138
0.1042169
0.1091122
0.1134611
0.1173534
0.1211141
0.131942
0.1554945
0.1739184
0.1872489
0.1966519
0.2032571
0.207927
0.2112283
0.2135304
0.2426238
0.2422274
0.2414906
0.2404721
0.2394028
0.2382985
0.2370814
0.2356826
0.2340666
0.2321425
0.230178
0.2276475
0.2247103
0.2216476
0.2186026
0.2156442
0.2128257
0.210173
0.2077072
0.2056304
0.2033692
0.2010956
0.19909
0.1974265
0.1961448
0.1953142
0.1949792
0.1951743
0.1959513
0.1973418
0.1993291
0.2020021
0.2053815
0.2094801
0.2142515
0.2195666
0.2251855
0.2307189
0.2506952
0.2546339
0.2574057
0.2588057
0.2587857
0.2574438
0.2549765
0.251611
0.2475829
0.2432525
0.2387987
0.2339197
0.2285821
0.2227666
0.216579
0.2101914
0.2038581
0.1978139
0.1922212
0.1865982
0.1807279
0.1751379
0.1697541
0.1643633
0.1590557
0.1541563
0.1500261
0.1470657
0.1459424
0.1470318
0.150661
0.1571165
0.166534
0.1788451
0.1937657
0.2108162
0.2298086
0.2501084
0.2707586
0.2907108
0.3085552
0.3227124
0.3327344
0.3385538
0.3394935
0.336085
0.3291551
0.3183472
0.3053111
0.2924038
0.2799744
0.2680334
0.2565304
0.2453773
0.2344654
0.2236421
0.212717
0.2016524
0.1905705
0.1798141
0.1698663
0.1610878
0.1535743
0.1472286
0.1418767
0.1373166
0.1333366
0.1297437
0.1263955
0.1232146
0.1201726
0.1172618
0.1144858
0.1118564
0.109388
0.107096
0.1049956
0.1031007
0.1014211
0.1000002
0.09890201
0.09813893
0.09770587
0.09759277
0.09778302
0.09825283
0.09897008
0.09989222
0.1009701
0.1021485
0.1033643
0.1045641
0.1056917
0.1066769
0.1075101
0.1082108
0.1087507
0.1091084
0.109134
0.108288
0.1057867
0.1017163
0.09737879
0.09377523
0.091824
0.09234837
0.09567298
0.1009028
0.1064857
0.1122547
0.1177143
0.120216
0.1179486
0.1121943
0.1052134
0.09832869
0.09198556
0.08660675
0.08223319
0.07871288
0.07581281
0.07336362
0.07132582
0.06967938
0.06840352
0.06746816
0.06683454
0.06645664
0.06628875
0.0662878
0.0664175
0.06664924
0.06696027
0.06733197
0.06774873
0.0681975
0.06866778
0.06915241
0.06965105
0.07015409
0.0706327
0.07106943
0.07145348
0.0717781
0.07203869
0.07223477
0.07235781
0.07244273
0.06921217
0.06783461
0.06738189
0.06707238
0.06674295
0.06637161
0.06596137
0.06551824
0.06504762
0.06455365
0.06403931
0.06350779
0.06296222
0.06240541
0.06183971
0.06126707
0.06068884
0.06010588
0.05951886
0.05892865
0.05833634
0.05774226
0.0571456
0.05654741
0.0559489
0.05534844
0.05474279
0.05412821
0.05350145
0.05286051
0.0522048
0.05153485
0.05085135
0.05015346
0.04943694
0.04870352
0.04799041
0.04730383
0.04662821
0.04595809
0.04529078
0.04462526
0.04396139
0.04329964
0.04264085
0.0419861
0.04133663
0.04069374
0.04005873
0.03943285
0.03881727
0.03821304
0.03762103
0.03704193
0.0364762
0.03592414
0.03538591
0.03486157
0.03435111
0.03385442
0.03337117
0.03290113
0.03244435
0.03200074
0.03156984
0.03115128
0.03074479
0.03035034
0.02996852
0.02959826
0.0307833
0.03043868
0.03013094
0.02983301
0.02953793
0.02924869
0.02896739
0.02869473
0.02843096
0.02817582
0.02792869
0.0276891
0.02745676
0.0272317
0.02701396
0.02680344
0.0266001
0.02640392
0.02621488
0.02603297
0.02585824
0.02569081
0.02553109
0.02537891
0.0252338
0.02509528
0.02496291
0.0248363
0.02471509
0.02459897
0.02448754
0.02438032
0.0242769
0.02417696
0.02408016
0.02398618
0.02389474
0.02380564
0.02371872
0.02363388
0.02355111
0.02347054
0.02339243
0.02331711
0.0232445
0.02317343
0.02310217
0.02303087
0.02296121
0.02289395
0.02282932
0.02276737
0.02270987
0.02266535
0.02262387
0.02257022
0.02251255
0.02245838
0.02240912
0.02236444
0.02232373
0.02228641
0.02225199
0.0222201
0.02219044
0.0221628
0.02213704
0.02211301
0.02209057
0.02206961
0.02205002
0.02203168
0.02201447
0.02199829
0.02198302
0.02196854
0.02195473
0.02194146
0.02192863
0.02191612
0.02190382
0.02189161
0.02187941
0.02186711
0.02185464
0.02184191
0.02182886
0.02181541
0.02180152
0.02178714
0.02177222
0.02175673
0.02174064
0.02172393
0.02170656
0.02168853
0.02166981
0.0216504
0.02163028
0.02160945
0.02158789
0.0215656
0.02154257
0.02151879
0.02149425
0.02146895
0.02144286
0.02141597
0.02138829
0.02135979
0.02133046
0.02130028
0.02126925
0.02123736
0.02120458
0.02117091
0.02113635
0.02110087
0.02106448
0.02102715
0.02098892
0.02094972
0.02090963
0.02086854
0.02082657
0.02078353
0.02073964
0.02069449
0.02064848
0.02060075
0.0205519
0.02050003
0.02044581
0.02038468
0.02031676
0.02023606
0.02016049
0.02012443
0.02013954
0.04614383
0.04920271
0.05275023
0.05662611
0.06084796
0.06544111
0.0704328
0.07581675
0.08153671
0.08710229
0.120604
0.1334848
0.1466921
0.1603417
0.1746252
0.1898664
0.2064148
0.2252506
0.2524032
0.2929674
0.3044301
0.3152069
0.3254059
0.3351253
0.3444042
0.3535346
0.3629293
0.3730991
0.3836387
0.3924297
0.3992386
0.4050025
0.4098355
0.4138017
0.4170292
0.4195314
0.4213658
0.4228971
0.4218164
0.4224837
0.4231793
0.4233355
0.4228379
0.4217377
0.4201217
0.4180664
0.4156529
0.4130198
0.4099608
0.4066788
0.4032435
0.3997171
0.3960827
0.392299
0.3883037
0.3839508
0.3980653
0.3933399
0.3883075
0.3830922
0.377751
0.3723158
0.3668116
0.3612551
0.3556705
0.3500543
0.3443935
0.3387284
0.3330694
0.3274
0.3217257
0.3160584
0.3104161
0.3048235
0.2993058
0.2938722
0.2885743
0.2834631
0.2785576
0.2738996
0.2695379
0.265535
0.2619753
0.2589555
0.2565876
0.2550011
0.2543386
0.2547557
0.2563884
0.2593026
0.2634887
0.2688187
0.2750788
0.2818499
0.2883057
0.2941048
0.2987296
0.3017172
0.3028958
0.3023751
0.300437
0.2974295
0.2937161
0.289706
0.2851986
0.2801285
0.2744676
0.2682023
0.2613993
0.2541681
0.2466833
0.2391385
0.2317544
0.2243824
0.2170172
0.209839
0.2028288
0.1959193
0.1891873
0.1828792
0.1773448
0.1730108
0.1704682
0.1704727
0.1735609
0.1802216
0.1907636
0.205275
0.2236346
0.245502
0.270283
0.296841
0.3236599
0.3490167
0.3710158
0.3883335
0.4002811
0.4066322
0.4072247
0.4023935
0.3928622
0.3796274
0.3638632
0.3476727
0.3318652
0.3167688
0.3024167
0.2887351
0.2756107
0.2629237
0.2505115
0.2382891
0.2262966
0.2146776
0.2036326
0.1933479
0.1838944
0.1752803
0.1674925
0.160497
0.1542311
0.1486107
0.1435469
0.1389592
0.134783
0.1309716
0.1274949
0.1243336
0.1214743
0.1189062
0.1166186
0.1146031
0.1128575
0.1113847
0.110194
0.1093441
0.1088565
0.1087304
0.10896
0.1095309
0.1104172
0.11158
0.1129688
0.1145244
0.116182
0.1178794
0.1195601
0.12117
0.1226588
0.1240212
0.1252152
0.1261812
0.1267241
0.1265144
0.1251593
0.1224493
0.118808
0.1145255
0.1100268
0.1061125
0.1033665
0.1022717
0.1033911
0.1069004
0.1120815
0.1179533
0.1233632
0.1274489
0.129501
0.1290108
0.1261039
0.1215514
0.116298
0.1110828
0.1062046
0.101762
0.09790297
0.09465462
0.09198664
0.0898468
0.08817694
0.08690618
0.08598077
0.08535213
0.08497324
0.08480058
0.08479488
0.08492101
0.08514748
0.08544602
0.08579149
0.08616244
0.08654085
0.08693696
0.08732359
0.08767614
0.08797984
0.08822484
0.0884028
0.0885079
0.08852192
0.08845462
0.08826254
0.08810838
0.08789452
0.08759092
0.08720334
0.08674222
0.08621786
0.08563976
0.08501642
0.08435519
0.08366244
0.08294389
0.08220462
0.08144914
0.08068135
0.07990453
0.07912096
0.07833233
0.07754042
0.07674675
0.07595238
0.07515768
0.07436284
0.07356847
0.07277468
0.07198014
0.07118209
0.07037685
0.06956093
0.06873193
0.06788862
0.06703035
0.06615626
0.06526542
0.06435906
0.06344609
0.06253937
0.06164178
0.06075137
0.05986634
0.05898513
0.05810686
0.05723128
0.05635865
0.05548957
0.05462495
0.05376594
0.05291386
0.05207005
0.0512359
0.05041275
0.04960184
0.0488043
0.04802107
0.0472529
0.04650033
0.04576375
0.04504343
0.0443395
0.04365196
0.0429807
0.04232561
0.04168649
0.04106306
0.04045508
0.03986221
0.03928431
0.03872139
0.03817118
0.0376412
0.03714563
0.03664856
0.03615322
0.03567155
0.03521209
0.03477393
0.03435245
0.03394596
0.0335546
0.03317847
0.03281741
0.03247116
0.03213941
0.03182167
0.03151733
0.03122588
0.03094685
0.03067973
0.03042401
0.03017916
0.0299446
0.02971958
0.02950329
0.02929548
0.02909603
0.02890475
0.02872141
0.02854581
0.02837771
0.028217
0.02806389
0.02791832
0.02777955
0.02764692
0.02751988
0.02739784
0.02728028
0.0271668
0.02705702
0.02695065
0.02684747
0.02674733
0.02665016
0.02655586
0.02646402
0.02637417
0.02628532
0.02619758
0.02611133
0.02602688
0.02594491
0.02586511
0.02578788
0.02571177
0.0256378
0.02556723
0.02550187
0.02544124
0.02538394
0.02532919
0.02527693
0.0252274
0.02518076
0.02513697
0.02509594
0.02505751
0.02502154
0.02498785
0.02495627
0.02492658
0.02489859
0.02487208
0.02484684
0.02482268
0.02479939
0.02477679
0.02475469
0.02473295
0.02471139
0.02468988
0.02466828
0.02464648
0.02462436
0.02460185
0.02457884
0.02455526
0.02453106
0.02450617
0.02448054
0.02445414
0.02442694
0.02439891
0.02437004
0.0243403
0.02430969
0.02427821
0.02424584
0.0242126
0.02417847
0.02414346
0.02410758
0.02407083
0.0240332
0.02399471
0.02395536
0.02391513
0.02387404
0.02383207
0.02378923
0.02374549
0.02370087
0.02365534
0.02360889
0.02356151
0.02351318
0.0234639
0.02341364
0.0233624
0.02331015
0.02325688
0.02320256
0.0231472
0.02309074
0.02303322
0.02297451
0.02291468
0.02285353
0.02279115
0.02272713
0.02266156
0.02259363
0.02252329
0.02244902
0.0223708
0.02228709
0.02220058
0.02211452
0.02204012
0.02198726
0.03296119
0.03658923
0.03975934
0.05905772
0.07915812
0.1038647
0.1210065
0.1383161
0.1548961
0.1703149
0.183449
0.194845
0.2060754
0.2176408
0.2292397
0.2409164
0.2527113
0.264672
0.2768304
0.2891781
0.3016802
0.3143035
0.3270976
0.3400691
0.3529218
0.365442
0.3777491
0.3899615
0.4020607
0.414321
0.4285089
0.4619661
0.4710133
0.47955
0.4874806
0.4948117
0.5016455
0.5081198
0.5143263
0.5202183
0.5253098
0.5295115
0.5325105
0.5346066
0.5359007
0.5364609
0.5363183
0.5354923
0.5340475
0.5321073
0.5297841
0.5271539
0.5242486
0.5210719
0.5176674
0.5140714
0.5103156
0.5064228
0.502431
0.49834
0.4941172
0.4897254
0.4851102
0.4802792
0.4752757
0.4701151
0.4649076
0.4595705
0.4533983
0.4473235
0.4413151
0.4353256
0.4293593
0.4234295
0.4175305
0.4116407
0.4057354
0.3997956
0.393812
0.3877844
0.3817049
0.375562
0.3693448
0.363042
0.3566479
0.3501666
0.3436322
0.3370396
0.3304017
0.3237547
0.3171638
0.3107178
0.3044781
0.2985247
0.2929664
0.2879405
0.2836147
0.2801871
0.2778879
0.2769757
0.2776986
0.2802364
0.284695
0.2910687
0.2991078
0.308326
0.3178584
0.3268174
0.3342854
0.3394689
0.3420446
0.3421793
0.3403392
0.3371148
0.3331099
0.3287895
0.3240652
0.3189293
0.313293
0.3070464
0.3001239
0.2925584
0.284425
0.2759355
0.2673235
0.2586674
0.2499875
0.2413738
0.2328821
0.2245203
0.2163708
0.2086682
0.2017938
0.1962545
0.1926887
0.1920557
0.1950975
0.202516
0.214886
0.2325258
0.2553747
0.2829051
0.3139535
0.3467826
0.3793202
0.4094562
0.4353588
0.4555612
0.4691348
0.4757346
0.4754
0.4686547
0.4565931
0.4406264
0.4222059
0.4029996
0.3839612
0.3655542
0.3479516
0.3311861
0.3152225
0.3000043
0.2855027
0.271625
0.258337
0.245676
0.2336815
0.2223924
0.211804
0.2018817
0.1926483
0.1841166
0.1762781
0.1691055
0.1625548
0.1565731
0.1511101
0.1461261
0.1415931
0.137492
0.1338076
0.130525
0.1276285
0.1251038
0.1229405
0.1211329
0.1196806
0.1185922
0.1179202
0.1176778
0.1178631
0.1184652
0.1194603
0.1208085
0.1224541
0.1243315
0.1263684
0.1284961
0.1306555
0.1327856
0.1348343
0.1367632
0.1385199
0.1400371
0.1411538
0.1416516
0.1412658
0.1397855
0.137197
0.1336069
0.1291673
0.1240798
0.1187936
0.1140729
0.1105836
0.1087748
0.108914
0.1110736
0.1148918
0.11966
0.1247434
0.1294864
0.1333026
0.13567
0.1362454
0.1350113
0.1322855
0.1286167
0.1245401
0.1204742
0.1166828
0.1133052
0.1104017
0.1079623
0.1059797
0.1044276
0.1032633
0.1024362
0.1018935
0.1015836
0.1014581
0.1014714
0.1015814
0.1017496
0.101941
0.1021424
0.1023538
0.1025404
0.1026848
0.1027754
0.1028021
0.1027589
0.1026373
0.102446
0.1021715
0.1018137
0.101379
0.1008705
0.1002904
0.09964497
0.09894137
0.09818674
0.09738813
0.09655224
0.0956854
0.09479349
0.0938819
0.09295549
0.09201854
0.09107473
0.09012628
0.08917401
0.08822092
0.08726928
0.0863203
0.08537437
0.08443154
0.08349183
0.08255469
0.08161838
0.08068069
0.07973865
0.07878916
0.07783019
0.07686099
0.07588138
0.07489119
0.07389053
0.07288112
0.0718683
0.07085996
0.06985959
0.06886663
0.06787951
0.06689683
0.06591764
0.06494146
0.06396825
0.06299828
0.0620322
0.06107099
0.06011584
0.0591681
0.0582292
0.05730057
0.05638362
0.05547969
0.05458997
0.05371545
0.05285691
0.05201498
0.05119014
0.05038274
0.04959297
0.0488209
0.04806643
0.04732943
0.04660949
0.04590643
0.04521947
0.04454899
0.04389318
0.04325363
0.0426252
0.04201322
0.04141709
0.04083964
0.04028108
0.03974011
0.03921594
0.03870786
0.03821533
0.03773826
0.03727668
0.03683083
0.03640109
0.03598776
0.03559082
0.03521008
0.03484526
0.03449601
0.0341619
0.03384249
0.0335373
0.03324583
0.03296758
0.03270195
0.03244833
0.03220622
0.03197519
0.03175477
0.03154449
0.03134376
0.03115187
0.03096792
0.03079149
0.03062256
0.03046089
0.03030634
0.03015899
0.03001831
0.02988361
0.02975426
0.0296297
0.02950948
0.02939322
0.02928057
0.02917115
0.02906455
0.02896032
0.02885803
0.0287572
0.02865784
0.02856016
0.02846457
0.02837112
0.02828009
0.02819191
0.02810716
0.02802512
0.02794514
0.02786746
0.02779264
0.0277211
0.02765309
0.0275887
0.02752797
0.0274708
0.02741706
0.02736657
0.02731917
0.02727465
0.02723281
0.02719342
0.02715624
0.027121
0.02708746
0.02705537
0.02702448
0.02699454
0.02696532
0.02693661
0.02690819
0.02687987
0.02685148
0.02682285
0.02679383
0.0267643
0.02673414
0.02670325
0.02667154
0.02663894
0.02660539
0.02657083
0.02653523
0.02649857
0.02646082
0.02642196
0.02638201
0.02634094
0.02629878
0.02625553
0.02621121
0.02616583
0.0261194
0.02607195
0.02602349
0.02597405
0.02592363
0.02587226
0.02581994
0.02576669
0.02571251
0.02565741
0.02560139
0.02554445
0.02548658
0.02542777
0.02536801
0.02530729
0.02524559
0.0251829
0.02511918
0.02505441
0.02498857
0.02492162
0.02485352
0.02478424
0.02471368
0.02464184
0.02456853
0.02449374
0.02441712
0.02433864
0.02425768
0.0241742
0.02408733
0.02399739
0.02390396
0.02380861
0.02371304
0.02362154
0.02354444
0.01573957
0.01750958
0.01917516
0.02516824
0.03335866
0.04707307
0.05698433
0.06768532
0.07936294
0.09136845
0.1039599
0.1179565
0.1330736
0.1487541
0.165353
0.1843303
0.2133647
0.2269913
0.2409395
0.2550109
0.2691501
0.282703
0.2955636
0.3079145
0.3199803
0.3319038
0.3437519
0.3555483
0.3673445
0.3792623
0.3913394
0.4035265
0.4155831
0.4275604
0.4395202
0.4514411
0.4633067
0.4750253
0.4864046
0.4973083
0.5075478
0.5164711
0.5238441
0.5314302
0.538449
0.5445507
0.5498912
0.5544831
0.5585004
0.562029
0.5649973
0.5669401
0.5676992
0.5671673
0.5656754
0.5634255
0.5605483
0.5571574
0.5533598
0.5492728
0.5449994
0.5406624
0.5363239
0.5320154
0.5277698
0.5236056
0.5195391
0.5155649
0.5116753
0.5078609
0.504098
0.5003507
0.4965135
0.4924041
0.4881313
0.4837641
0.4793474
0.4748969
0.4703789
0.465664
0.4608838
0.4560971
0.4512937
0.4464891
0.4417075
0.4369453
0.4321664
0.427322
0.4223742
0.4173029
0.4120997
0.4067614
0.4012758
0.395614
0.3897433
0.3836432
0.3772777
0.3706148
0.363687
0.3565343
0.3492051
0.3417511
0.3342264
0.3267504
0.3194792
0.3125528
0.3061581
0.300536
0.2959878
0.2928769
0.2916128
0.292612
0.2962505
0.3028323
0.3124509
0.3247443
0.3388733
0.3535777
0.3672941
0.3783614
0.3855512
0.3885645
0.3878593
0.3843105
0.3789981
0.3729997
0.3668704
0.3606769
0.3544182
0.3479685
0.3411216
0.3336804
0.325549
0.3167953
0.3075615
0.2980321
0.2883576
0.278605
0.2688734
0.2592571
0.2498056
0.2406194
0.2319406
0.2241806
0.2179209
0.2139209
0.2132971
0.217089
0.2262593
0.2416713
0.2637548
0.2921677
0.3258925
0.3633192
0.4021074
0.439553
0.4731767
0.50097
0.5217133
0.5349437
0.5406293
0.538932
0.5304266
0.5162733
0.4979853
0.4771813
0.4553647
0.4334926
0.4121659
0.3916934
0.3721795
0.3536287
0.3360122
0.319293
0.303432
0.2884077
0.2742429
0.2609529
0.2484952
0.2368289
0.2258811
0.2156253
0.2060496
0.1971225
0.1888389
0.1811765
0.1740981
0.1675668
0.1615541
0.1560419
0.1510197
0.1464797
0.1424128
0.1388081
0.1356534
0.132938
0.1306557
0.1288076
0.1274027
0.1264667
0.1260408
0.126125
0.1267086
0.1277657
0.1292517
0.1311039
0.1332452
0.1355877
0.1380528
0.1405759
0.1430905
0.1455375
0.1478666
0.1500349
0.1519775
0.1535902
0.1546601
0.1549614
0.1543369
0.1526953
0.1500282
0.146283
0.1414618
0.135823
0.1298107
0.1238846
0.1186428
0.1147165
0.1125019
0.1120729
0.1132857
0.1159505
0.1196567
0.1239371
0.1284292
0.132682
0.1362567
0.1387738
0.1399873
0.1398518
0.1385216
0.1362984
0.1335519
0.1306269
0.1277882
0.1251999
0.1229509
0.1210774
0.119577
0.1184234
0.1175758
0.116986
0.1166021
0.1163719
0.1162436
0.1161673
0.1160945
0.1160356
0.1159672
0.115868
0.1157233
0.1155219
0.1152564
0.114921
0.1145164
0.1140361
0.1134729
0.1128335
0.1121236
0.111345
0.1105048
0.1096099
0.1086671
0.1076828
0.1066635
0.1056154
0.1045443
0.1034559
0.1023551
0.1012466
0.1001344
0.09902216
0.09791069
0.09680288
0.0957009
0.09460595
0.09351849
0.09243856
0.09136589
0.09029928
0.08923467
0.08816923
0.08710136
0.08602977
0.08495432
0.08387569
0.08279465
0.08171157
0.08062677
0.07954131
0.07845788
0.07738052
0.07631157
0.07525075
0.07419659
0.07314759
0.07210253
0.07106057
0.0700212
0.06898428
0.06795019
0.06691974
0.06589405
0.06487441
0.06386222
0.06285894
0.06186613
0.06088529
0.05991783
0.058965
0.05802785
0.05710725
0.05620398
0.05531864
0.05445168
0.05360336
0.05277372
0.05196267
0.05116981
0.05039479
0.04963698
0.04889612
0.04817149
0.04746319
0.04677092
0.04609558
0.0454352
0.04478736
0.04415215
0.04353175
0.04292821
0.04234228
0.04177378
0.0412224
0.04068801
0.04017059
0.0396702
0.039187
0.03872111
0.03827262
0.03784152
0.03742769
0.03703095
0.03665104
0.03628764
0.03594036
0.03560878
0.0352924
0.0349907
0.0347032
0.03442938
0.03416875
0.03392077
0.03368492
0.03346064
0.03324729
0.03304417
0.03285064
0.03266605
0.03248964
0.03232056
0.03215859
0.03200348
0.03185513
0.03171325
0.03157718
0.03144627
0.03131992
0.03119761
0.03107881
0.03096301
0.03084973
0.0307385
0.0306291
0.03052159
0.03041615
0.03031287
0.03021196
0.0301136
0.03001775
0.02992414
0.02983282
0.02974416
0.02965855
0.02957623
0.02949731
0.02942188
0.02935001
0.02928172
0.02921702
0.02915582
0.02909803
0.0290435
0.02899206
0.02894349
0.02889758
0.02885405
0.02881267
0.02877316
0.02873524
0.02869864
0.02866311
0.02862837
0.02859418
0.0285603
0.02852651
0.02849261
0.0284584
0.02842372
0.02838842
0.02835235
0.0283154
0.02827746
0.02823846
0.02819832
0.02815699
0.02811441
0.02807057
0.02802544
0.02797902
0.02793131
0.0278823
0.02783203
0.0277805
0.02772775
0.0276738
0.02761869
0.02756244
0.02750508
0.02744666
0.02738719
0.02732672
0.02726526
0.02720284
0.02713948
0.02707518
0.02700996
0.02694383
0.02687679
0.02680882
0.02673992
0.02667007
0.02659925
0.02652744
0.0264546
0.02638069
0.02630568
0.02622949
0.02615209
0.02607338
0.02599328
0.02591165
0.0258284
0.02574327
0.02565614
0.02556663
0.02547468
0.02537985
0.02528244
0.02518236
0.02508059
0.02497821
0.0248773
0.02478916
0.006033782
0.007244794
0.008134975
0.01220174
0.01687657
0.02299078
0.02811831
0.03399435
0.04041856
0.04736376
0.05511739
0.06434004
0.07462131
0.08627778
0.1004093
0.12223
0.1338097
0.146083
0.158646
0.1714386
0.1843704
0.1973228
0.2101952
0.2228788
0.2352585
0.2473241
0.2592693
0.2724114
0.2858934
0.2997136
0.31373
0.3274832
0.3408167
0.3537229
0.3662964
0.3786266
0.3907835
0.4028215
0.4147525
0.4265309
0.4379858
0.4490542
0.4599311
0.470641
0.4811948
0.4915778
0.5017332
0.511562
0.5209544
0.529772
0.5378187
0.5447686
0.5507914
0.5567241
0.5617326
0.5655728
0.5684731
0.570359
0.5712879
0.5710138
0.56954
0.5669811
0.5633418
0.5587237
0.55333
0.5473601
0.5410071
0.5344442
0.5278406
0.5213483
0.5150948
0.5091867
0.5036776
0.4986058
0.4939566
0.4897118
0.4858489
0.4823317
0.4791446
0.4762753
0.4736947
0.4713289
0.4688939
0.4663554
0.4638122
0.461317
0.4588805
0.4564634
0.4540072
0.451438
0.4487413
0.4459255
0.443007
0.4400222
0.4370061
0.4339583
0.4308324
0.42756
0.4240865
0.4203908
0.4164826
0.4123831
0.4080986
0.4035999
0.3988194
0.3936663
0.3880916
0.3820786
0.3756447
0.3688312
0.3616935
0.354296
0.3467124
0.3390317
0.3313788
0.3240063
0.3171942
0.3112871
0.3067286
0.3040692
0.3039503
0.30707
0.314129
0.3256963
0.34187
0.3619821
0.384605
0.4076213
0.4282717
0.4436636
0.4520871
0.4535256
0.4492352
0.4410361
0.4306786
0.4198021
0.4091808
0.3991017
0.3896529
0.3807666
0.3722078
0.3636311
0.3547025
0.3452258
0.3351962
0.3247554
0.3140966
0.3033983
0.2927953
0.2823742
0.2722011
0.2623976
0.2532277
0.2451481
0.2388294
0.2351808
0.2354988
0.2412135
0.2535682
0.2735254
0.3013633
0.3363445
0.3768809
0.4206167
0.4642101
0.5042057
0.5380922
0.5645562
0.5834777
0.5953123
0.6003027
0.59825
0.5891658
0.5739108
0.5539943
0.5310675
0.5067355
0.4820889
0.4579245
0.4347039
0.4125952
0.3915965
0.3716609
0.3527613
0.3348908
0.3180407
0.3021875
0.2872958
0.2733306
0.2602735
0.2481072
0.2367716
0.2262252
0.2163983
0.2072481
0.198738
0.1908143
0.1834413
0.1765988
0.1702762
0.1644699
0.1591793
0.1544037
0.1501403
0.1463844
0.1431318
0.140382
0.1381409
0.136423
0.1352507
0.1346705
0.1346877
0.13529
0.136444
0.1380916
0.1401611
0.1425612
0.1451882
0.1479477
0.1507597
0.1535448
0.1562354
0.1587831
0.1611552
0.1632892
0.1651087
0.1664712
0.1671774
0.1670696
0.1660695
0.1640997
0.16105
0.1568573
0.1515967
0.1454627
0.1387906
0.1320977
0.1259481
0.1207608
0.116805
0.1142639
0.1132388
0.1136917
0.1154779
0.1183776
0.1220012
0.1259429
0.129958
0.1337465
0.1370112
0.1394902
0.1410196
0.141571
0.1412554
0.1402694
0.1388452
0.1372092
0.1355479
0.1339909
0.1326149
0.1314542
0.1305116
0.1297678
0.12919
0.128736
0.1283589
0.128008
0.1276401
0.1272786
0.1268968
0.1264757
0.126003
0.1254716
0.1248767
0.1242171
0.1234919
0.1227007
0.1218465
0.1209337
0.1199667
0.1189479
0.1178816
0.1167727
0.1156266
0.114449
0.1132452
0.1120208
0.1107809
0.1095303
0.1082737
0.1070155
0.1057601
0.1045116
0.1032717
0.1020414
0.1008214
0.09961228
0.09841439
0.09722761
0.09605145
0.09488205
0.09371518
0.09254779
0.09137985
0.09021471
0.08905515
0.08790272
0.08675781
0.08562026
0.08449004
0.08336782
0.08225482
0.08115162
0.08005745
0.07897072
0.07788971
0.07681291
0.07573911
0.07466734
0.07359669
0.07252709
0.07145941
0.07039467
0.06933411
0.06827906
0.06723101
0.06619151
0.06516218
0.06414457
0.06314009
0.06215005
0.06117571
0.06021819
0.05927842
0.05835709
0.05745468
0.05657143
0.05570731
0.054862
0.05403506
0.05322597
0.05243427
0.05165943
0.05090101
0.05015837
0.0494306
0.04871666
0.04801663
0.04733146
0.04666168
0.04600673
0.04536624
0.04474066
0.04413063
0.04353668
0.04295918
0.04239848
0.04185489
0.04132871
0.04082022
0.04032959
0.03985692
0.03940225
0.03896552
0.0385466
0.0381453
0.03776136
0.03739443
0.03704413
0.03671004
0.03639171
0.03608868
0.03580045
0.03552649
0.03526624
0.03501909
0.0347844
0.03456154
0.03434989
0.03414877
0.03395741
0.03377504
0.03360093
0.03343426
0.03327447
0.03312126
0.03297436
0.03283332
0.03269746
0.0325661
0.03243861
0.03231446
0.03219317
0.0320744
0.03195801
0.03184397
0.03173226
0.03162293
0.03151596
0.03141133
0.03130906
0.03120933
0.03111236
0.03101838
0.03092757
0.03084007
0.03075602
0.03067551
0.03059864
0.03052545
0.03045592
0.03038999
0.03032758
0.03026853
0.03021269
0.03015984
0.03010975
0.03006219
0.03001687
0.02997353
0.02993187
0.02989162
0.02985248
0.02981418
0.02977646
0.02973905
0.02970171
0.02966423
0.02962639
0.029588
0.02954891
0.02950894
0.02946798
0.02942591
0.02938264
0.02933808
0.02929218
0.02924489
0.02919618
0.02914603
0.02909444
0.02904141
0.02898696
0.0289311
0.02887388
0.02881532
0.02875547
0.02869436
0.02863205
0.02856858
0.028504
0.02843834
0.02837165
0.02830398
0.02823534
0.02816577
0.02809529
0.02802392
0.02795167
0.02787854
0.02780453
0.02772962
0.02765379
0.02757702
0.02749927
0.0274205
0.02734065
0.02725966
0.02717747
0.02709396
0.02700907
0.02692263
0.02683455
0.02674461
0.0266527
0.02655857
0.02646217
0.02636328
0.02626212
0.02615875
0.02605378
0.0259481
0.02584302
0.02575039
0.001266137
0.005502406
0.008333378
0.01178449
0.01574384
0.02037673
0.02576152
0.03182275
0.03870401
0.04711361
0.05991675
0.06756448
0.07589077
0.08471656
0.09404224
0.1038104
0.1139764
0.1244543
0.1351058
0.1458368
0.1566774
0.1690067
0.1815748
0.1942316
0.2069015
0.2194974
0.23195
0.2442391
0.2563553
0.2683151
0.2802607
0.2923464
0.3048694
0.3177994
0.3311308
0.3447279
0.3582669
0.3714339
0.3841429
0.3963801
0.4081501
0.4194573
0.4302939
0.4406524
0.4504367
0.4597822
0.4688454
0.4777286
0.4864943
0.4951643
0.5037317
0.5121473
0.5202847
0.5280125
0.5351574
0.5415132
0.5467156
0.550967
0.5547225
0.5574612
0.5588696
0.5590523
0.557406
0.5544011
0.5500534
0.5444279
0.5376759
0.529967
0.5215003
0.5125463
0.5033812
0.4942708
0.4854365
0.4770849
0.4693724
0.4624288
0.4563276
0.4511031
0.4467478
0.4431948
0.4403936
0.438294
0.4368614
0.4360293
0.4355186
0.435207
0.4351686
0.4353301
0.4356215
0.4360185
0.4364954
0.4369935
0.4374085
0.4376165
0.4374966
0.4369748
0.4360449
0.4347621
0.4332123
0.4314683
0.4295434
0.4273846
0.4249132
0.4220806
0.4188968
0.4154231
0.4117445
0.4079486