/*--------------------------------*- C++ -*----------------------------------*\
| =========                 |                                                 |
| \\      /  F ield         | foam-extend: Open Source CFD                    |
|  \\    /   O peration     | Version:     3.1                                |
|   \\  /    A nd           | Web:         http://www.extend-project.de       |
|    \\/     M anipulation  |                                                 |
\*---------------------------------------------------------------------------*/
FoamFile
{
    version     2.0;
    format      ascii;
    class       volScalarField;
    location    "9.5";
    object      nut;
}
// * * * * * * * * * * * * * * * * * * * * * * * * * * * * * * * * * * * * * //

dimensions      [0 2 -1 0 0 0 0];

internalField   nonuniform List<scalar> 
119952
(
4.645389e-05
2.95381e-05
2.959747e-05
3.366001e-05
3.688257e-05
3.540688e-05
3.483857e-05
3.465071e-05
3.466188e-05
3.476063e-05
3.487702e-05
3.504121e-05
3.524893e-05
3.5487e-05
3.576456e-05
3.606421e-05
3.6274e-05
3.632023e-05
3.619713e-05
3.603558e-05
4.76943e-05
4.615499e-05
4.592285e-05
6.113792e-05
5.976208e-05
5.904465e-05
5.811595e-05
5.742926e-05
5.687787e-05
2.589243e-05
3.248804e-05
3.347358e-05
3.741797e-05
4.227788e-05
4.801664e-05
5.453356e-05
6.173316e-05
6.941396e-05
7.748784e-05
9.060594e-05
0.0003670776
0.0004732514
0.0005934487
0.0007204814
0.0008501672
0.0009796134
0.001107288
0.00123211
0.001352874
0.002013312
0.002157436
0.002288842
0.002400555
0.002487134
0.002544667
0.002571612
0.002568072
0.002535553
0.002477193
0.002394644
0.002300883
0.002212507
0.002113127
0.002010406
0.001918361
0.001848226
0.001807957
0.001803768
0.00164685
0.001787521
0.001821084
0.001881628
0.001949703
0.002025262
0.002115842
0.002226325
0.002368919
0.002544181
0.002752058
0.002995142
0.003276121
0.003595672
0.003950398
0.004323407
0.004689935
0.004899885
0.004959449
0.00513475
0.005340415
0.005383309
0.006468777
0.006674388
0.006430498
0.006804525
0.006712821
0.006498528
0.00502891
0.005018585
0.004534364
0.004137345
0.003784537
0.003453606
0.00313677
0.002832771
0.00253804
0.002251489
0.001974913
0.001716831
0.001496281
0.001336662
0.001245382
0.001208167
0.001178389
0.001155931
0.00116715
0.001199646
0.001244997
0.001297711
0.00135105
0.001387958
0.001428127
0.001470561
0.00151433
0.001558693
0.001603114
0.001647244
0.00169111
0.001735676
0.001781009
0.001826631
0.001872278
0.001917784
0.001962855
0.002007023
0.002049604
0.00208966
0.002125965
0.002157001
0.002181043
0.002195952
0.002196576
0.002179503
0.002144142
0.00209069
0.002016092
0.00191539
0.001784936
0.001609429
0.001364257
0.001061169
0.0007875495
0.0006500895
0.0004843252
0.0004808606
0.0005345302
0.0006485945
0.0007756905
0.0008839691
0.0009619506
0.001092376
0.00120645
0.001257027
0.001262529
0.001259835
0.001263973
0.001269874
0.001272537
0.001272916
0.001273047
0.001272992
0.001271706
0.001269186
0.001266775
0.00126604
0.001268026
0.001273167
0.001281378
0.00129218
0.001305017
0.00131953
0.001335511
0.001352775
0.001371089
0.001390183
0.001409791
0.001429708
0.001449852
0.001470198
0.001489876
0.00150599
0.00151896
0.001529504
0.001537555
0.001543058
0.001545949
0.001545968
0.001534435
0.001092962
0.0008481861
0.0007967909
0.0007748079
0.0007608264
0.0007496145
0.0007393821
0.0007293951
0.0007193318
0.0007090231
0.0006984146
0.0006875882
0.0006765836
0.0006654177
0.0006541246
0.0006427308
0.0006312558
0.0006197132
0.0006081049
0.0005964569
0.0005847551
0.0005726803
0.0005586617
0.0005449093
0.0005313433
0.0005177018
0.000503946
0.0004900816
0.0004761209
0.0004621007
0.0004480891
0.0004341904
0.0004205699
0.0004075462
0.0003960784
0.0003915496
0.0003948147
0.0003979712
0.0004005876
0.0004026237
0.0004041722
0.0004053265
0.0004061559
0.0004067222
0.0004070758
0.0004072576
0.0004073008
0.0004072381
0.0004070965
0.0004069017
0.0004066778
0.0004064441
0.0004062146
0.0004059995
0.0004058062
0.0004056406
0.0004055073
0.0004054094
0.00040535
0.0004053239
0.0004053322
0.0004054142
0.0004055909
0.0004058248
0.0004061085
0.0004064448
0.0004068367
0.0004072859
0.0004078022
0.0004083536
0.0005249808
0.0005301538
0.000534959
0.0005392078
0.0005428732
0.0005461827
0.0005495742
0.0005530613
0.0005566274
0.0005602584
0.000563928
0.0005676241
0.0005713518
0.0005751366
0.0005789688
0.0005828532
0.0005867936
0.0005907857
0.0005948276
0.0005989188
0.0006030586
0.0006072425
0.0006114595
0.0006156998
0.0006199705
0.0006243131
0.0006287221
0.0006331869
0.0006377012
0.000642257
0.0006468383
0.0006514395
0.0006560584
0.0006606888
0.0006653242
0.0006699589
0.0006745885
0.0006792103
0.0006838221
0.0006884232
0.0006930122
0.0006975856
0.0007021393
0.0007066554
0.0007111063
0.0007153969
0.0007192738
0.0007229379
0.0007265527
0.0007301109
0.0007336342
0.0007371381
0.0007405964
0.0007445677
0.0007485026
0.0007503937
0.0007527594
0.0007555009
0.0007586301
0.0007621177
0.0007659276
0.0007700163
0.0007743369
0.0007788388
0.0007834826
0.0007882286
0.0007930355
0.0007978688
0.0008027002
0.0008075067
0.0008122703
0.0008169777
0.0008216189
0.0008261874
0.0008306785
0.0008350894
0.0008394189
0.0008436673
0.000847835
0.000851923
0.0008559328
0.0008598661
0.0008637251
0.0008675113
0.0008712256
0.0008748691
0.000878443
0.0008819486
0.0008853872
0.0008887595
0.0008920665
0.0008953085
0.0008984857
0.0009015978
0.0009046448
0.0009076265
0.0009105421
0.0009133912
0.0009161733
0.0009188873
0.0009215321
0.0009241067
0.00092661
0.0009290405
0.000931397
0.0009336782
0.0009358827
0.0009380092
0.0009400566
0.0009420238
0.0009439099
0.0009457146
0.0009474378
0.0009490798
0.0009506409
0.0009521218
0.0009535239
0.0009548495
0.0009561012
0.0009572827
0.0009583978
0.0009594518
0.0009604506
0.0009614027
0.0009623165
0.0009632045
0.0009640792
0.0009649602
0.0009658679
0.0009668335
0.0009678854
0.0009690873
0.0009705102
0.0009722892
0.000974636
0.0009780307
0.0009831746
0.000992734
0.0007835117
0.0001043117
0.0001332287
0.0001493041
0.0001604341
0.0001700609
0.0001789838
0.0001874779
0.0001956181
0.0002058877
0.0004911207
0.0007883304
0.001052527
0.001254028
0.001404322
0.001522808
0.001622973
0.001712364
0.001795401
0.002573819
0.002721372
0.002869023
0.003008509
0.00313599
0.003249245
0.003347371
0.00343076
0.003500622
0.003557919
0.00360442
0.003643481
0.003680422
0.003717682
0.003755577
0.003793856
0.003832603
0.003872154
0.003913302
0.003935348
0.003942301
0.00396699
0.004009865
0.00407026
0.004147832
0.004242788
0.004355343
0.004485564
0.004633454
0.004798562
0.004980635
0.005181183
0.005399929
0.005635423
0.005883921
0.006139426
0.00639334
0.006633405
0.007775888
0.007931778
0.00804026
0.008098342
0.008104835
0.00806092
0.007969722
0.007835131
0.007662155
0.007462655
0.007234281
0.006961906
0.006653439
0.006321563
0.005983778
0.005659549
0.005368164
0.005123103
0.004932697
0.00478399
0.004678029
0.004627234
0.004620352
0.004647356
0.004704998
0.004794458
0.00491738
0.005077751
0.00529985
0.005594071
0.005966613
0.006420487
0.006951465
0.007545532
0.008176907
0.007919091
0.007668183
0.007636723
0.007810319
0.008123041
0.008588377
0.009338792
0.009910758
0.01
0.01
0.01
0.01
0.01
0.01
0.01
0.01
0.009613688
0.009080215
0.008524882
0.00795016
0.007356805
0.006745048
0.006125216
0.005519016
0.004958208
0.004471031
0.004067985
0.003744253
0.003489849
0.003295396
0.003152925
0.003055058
0.00299486
0.002966155
0.002963744
0.002983209
0.003020736
0.00307316
0.003137945
0.003213056
0.00329678
0.003387567
0.0034839
0.003584271
0.003690297
0.003805656
0.003930304
0.004063214
0.004203211
0.004348866
0.004498435
0.00464977
0.004800239
0.004946839
0.005086159
0.005214284
0.005327231
0.005419711
0.0054831
0.005508755
0.005492214
0.005420653
0.005275382
0.005023997
0.004613576
0.004033133
0.003385273
0.002801063
0.002300803
0.001928595
0.001679516
0.001398305
0.001141199
0.001090127
0.001140194
0.001228292
0.001368131
0.001569314
0.001811094
0.002076181
0.00236757
0.002536824
0.002662107
0.002777517
0.002884603
0.002982607
0.003070927
0.00315173
0.003227844
0.003302091
0.003376804
0.003453603
0.003533225
0.003615734
0.003700803
0.003787985
0.003876777
0.003966577
0.004056639
0.004146078
0.004233931
0.004319235
0.004401103
0.004478976
0.004553285
0.004623507
0.004689229
0.004750153
0.004806078
0.004856861
0.004902496
0.004942896
0.004980319
0.004587786
0.004412424
0.004355371
0.004327252
0.004307739
0.004291507
0.004276578
0.004261883
0.004246725
0.004230637
0.004213356
0.004194774
0.004174867
0.004153655
0.004131187
0.004107511
0.004082658
0.004056638
0.004029469
0.00400118
0.003971776
0.00394121
0.003909523
0.003876925
0.00384351
0.003809154
0.003773622
0.003736658
0.00369806
0.003657734
0.003615713
0.00357215
0.003527313
0.003481604
0.003435664
0.003390755
0.003348361
0.0033074
0.003266771
0.003225996
0.003184815
0.003143094
0.003100776
0.003057865
0.003014407
0.002970487
0.002926209
0.002881693
0.002837062
0.00279244
0.002747943
0.002703682
0.00265975
0.002616228
0.002573182
0.002530667
0.002488728
0.002447405
0.002406729
0.002366727
0.002327433
0.00228889
0.002251147
0.002214236
0.002178184
0.002143023
0.002108792
0.002075535
0.00204325
0.002011526
0.002321804
0.002295625
0.002270152
0.002244938
0.002220212
0.002196339
0.002173611
0.002152227
0.002132312
0.002113857
0.00209678
0.00208103
0.002066569
0.002053372
0.00204141
0.002030646
0.002021044
0.002012565
0.002005175
0.001998842
0.00199355
0.001989306
0.001986155
0.001984032
0.001982837
0.001982478
0.001982879
0.001983972
0.0019857
0.001988014
0.001990865
0.001994202
0.001997976
0.00200214
0.00200665
0.002011464
0.002016548
0.002021872
0.002027412
0.002033146
0.002039057
0.002045133
0.002051361
0.002057728
0.002064201
0.002070705
0.002077153
0.002083593
0.002090132
0.002096805
0.002103627
0.002110589
0.002117799
0.002125619
0.002133398
0.002140638
0.002147799
0.002155184
0.002162835
0.002170741
0.002178885
0.002187241
0.002195785
0.002204492
0.002213342
0.002222317
0.002231397
0.002240562
0.00224979
0.002259061
0.002268352
0.002277642
0.002286912
0.002296141
0.002305309
0.002314399
0.002323392
0.002332274
0.00234103
0.002349647
0.002358114
0.002366419
0.002374555
0.002382513
0.002390287
0.00239787
0.002405258
0.002412447
0.002419433
0.002426214
0.002432786
0.002439147
0.002445296
0.00245123
0.002456946
0.002462443
0.002467718
0.002472769
0.002477592
0.002482186
0.002486547
0.002490671
0.002494555
0.002498196
0.002501589
0.00250473
0.002507616
0.002510243
0.002512606
0.002514703
0.00251653
0.002518084
0.002519364
0.002520368
0.002521096
0.002521548
0.002521726
0.002521633
0.002521274
0.002520653
0.002519781
0.002518665
0.002517321
0.002515759
0.002514007
0.002512073
0.002510005
0.002507807
0.002505561
0.002503258
0.002501043
0.002498886
0.002497043
0.002495415
0.002494402
0.00249383
0.002495442
0.002501083
0.002511033
2.620406e-05
3.117381e-05
3.854013e-05
4.694203e-05
5.655239e-05
6.753334e-05
8.02199e-05
9.472523e-05
0.0001112779
0.0001390789
0.0006598604
0.0007819688
0.0009118919
0.001050825
0.001200863
0.001367102
0.001560119
0.001818196
0.002367246
0.003859201
0.004131861
0.004353303
0.004558847
0.004751593
0.004924437
0.005089439
0.005268967
0.005506654
0.005983106
0.00632983
0.006475441
0.006599748
0.006712916
0.006814134
0.006906169
0.006990481
0.007069199
0.007156785
0.007177772
0.007344216
0.007488703
0.007596518
0.007676964
0.007738964
0.007788423
0.007829038
0.007863415
0.007894226
0.007928054
0.007970172
0.008017694
0.008065755
0.008109744
0.008146543
0.008174288
0.00818987
0.009009349
0.009010621
0.008999415
0.008981134
0.008958018
0.008930905
0.008900088
0.008865605
0.008827603
0.008785982
0.008740586
0.008692215
0.008641529
0.00858902
0.008535607
0.008482409
0.008430751
0.008382143
0.008338192
0.008299883
0.008268784
0.008246868
0.008235686
0.008237104
0.008252995
0.008285272
0.008335921
0.008406784
0.008499574
0.008615898
0.008757253
0.008924732
0.009118203
0.009335232
0.00957124
0.009818698
0.01
0.01
0.01
0.01
0.01
0.01
0.01
0.01
0.01
0.01
0.01
0.01
0.00995568
0.00965246
0.009306085
0.008926655
0.008529089
0.008130277
0.007747911
0.007398624
0.007097613
0.006846275
0.006647363
0.006508593
0.006426448
0.006394207
0.006408347
0.006468676
0.006576716
0.006734985
0.006952381
0.007252592
0.007646341
0.008139199
0.008725099
0.009385367
0.01
0.009720777
0.009368147
0.009321809
0.009526925
0.00994522
0.01
0.01
0.01
0.01
0.01
0.01
0.01000002
0.01000006
0.01000006
0.01000005
0.01000003
0.01000001
0.01
0.01
0.01
0.01
0.009572526
0.008930109
0.008276092
0.007633312
0.007025632
0.006471621
0.005979955
0.005553771
0.005193753
0.004898749
0.00466556
0.00448919
0.004363559
0.00428221
0.00423885
0.004227792
0.004244172
0.004283971
0.004343914
0.004421303
0.004513841
0.004619515
0.004736525
0.004862923
0.004996997
0.005143027
0.005302121
0.005473202
0.005654903
0.005845421
0.006042379
0.006242756
0.006442983
0.006638994
0.006826372
0.007000598
0.007156679
0.007288378
0.007385601
0.007439949
0.007440083
0.00736907
0.007197312
0.006751367
0.006410646
0.005790112
0.005087267
0.004352353
0.003656402
0.003065021
0.002615991
0.002306174
0.002122195
0.001967589
0.001669568
0.001546482
0.001545995
0.001622122
0.001749045
0.001922712
0.002144739
0.002408531
0.002707779
0.003031387
0.003341301
0.003501637
0.003654939
0.003803436
0.003948829
0.004092481
0.004235394
0.004377805
0.004520018
0.00466217
0.004804133
0.004945544
0.005085833
0.005224221
0.005359731
0.005491218
0.005617421
0.005737007
0.0058485
0.005953216
0.006052089
0.006145359
0.006233224
0.006315805
0.006393125
0.006465165
0.006531575
0.006592418
0.00664278
0.006700459
0.006752369
0.006796228
0.006832761
0.006863038
0.006887952
0.006908179
0.006924213
0.006936429
0.006945122
0.006950541
0.006952904
0.006952402
0.006949199
0.006943425
0.006935158
0.006924463
0.006911441
0.006896202
0.006878843
0.006859442
0.006838067
0.006814763
0.006789492
0.006762094
0.006732321
0.006699896
0.00666459
0.006626281
0.006584968
0.006540738
0.006493733
0.006444172
0.006392429
0.00633917
0.006284919
0.006229573
0.006172877
0.006114643
0.006054742
0.005993107
0.005929734
0.005864667
0.005797992
0.005729832
0.005660337
0.005589678
0.005518037
0.005445598
0.005372542
0.005299041
0.005225255
0.005151324
0.005077372
0.005003505
0.004929816
0.004856387
0.004783287
0.004710577
0.004638309
0.004566531
0.004495285
0.004424609
0.004354557
0.004285168
0.004216535
0.004148718
0.004081832
0.00401766
0.00394518
0.003875058
0.003807547
0.003743262
0.003682533
0.003625275
0.003571014
0.003519365
0.003470132
0.003423397
0.003379333
0.003338013
0.003299459
0.003263651
0.003230541
0.003200066
0.00317215
0.0031467
0.00312361
0.003102751
0.003083958
0.003067009
0.0030516
0.003037644
0.003025116
0.003013976
0.003004183
0.002995696
0.002988488
0.002982557
0.00297797
0.002974697
0.002972567
0.002971445
0.002971231
0.002971837
0.002973187
0.002975214
0.00297786
0.002981075
0.002984819
0.002989057
0.002993762
0.002998905
0.003004445
0.003010338
0.003016528
0.003023026
0.003029867
0.003037075
0.003044679
0.003052658
0.003061026
0.003069684
0.003078644
0.003088002
0.003097843
0.003108119
0.003118739
0.003129648
0.003140834
0.003152299
0.003164033
0.003176018
0.003188229
0.003200639
0.003213221
0.003225947
0.003238788
0.003251716
0.003264701
0.003277717
0.003290735
0.003303731
0.003316678
0.003329555
0.003342338
0.003355008
0.003367546
0.003379934
0.003392156
0.003404198
0.003416047
0.00342769
0.003439117
0.003450319
0.003461285
0.003472007
0.003482479
0.003492693
0.003502644
0.003512324
0.00352173
0.003530854
0.003539692
0.003548238
0.003556486
0.003564432
0.00357207
0.003579393
0.003586396
0.003593073
0.003599417
0.003605421
0.00361108
0.003616386
0.003621333
0.003625912
0.003630119
0.003633946
0.003637387
0.003640436
0.00364309
0.003645342
0.003647191
0.003648634
0.003649671
0.003650301
0.003650528
0.003650356
0.00364979
0.003648842
0.00364752
0.003645842
0.003643824
0.003641492
0.003638867
0.00363599
0.003632889
0.003629622
0.00362623
0.003622789
0.003619361
0.00361606
0.003613016
0.003610515
0.003609116
0.00360949
0.003611961
3.367145e-05
5.312692e-05
0.0001203126
0.0003962827
0.0006740911
0.00118206
0.001583117
0.002062538
0.002615272
0.003062936
0.00338537
0.003644193
0.003910174
0.004197615
0.004494128
0.004797084
0.00510846
0.005430615
0.005765235
0.006111576
0.006465205
0.006817084
0.007149075
0.007470877
0.00777791
0.008062175
0.008335598
0.00860436
0.008872731
0.009156548
0.009520925
0.01
0.01
0.01
0.01
0.01
0.01
0.01
0.01
0.01
0.01
0.01
0.01
0.01
0.01
0.01
0.01
0.01
0.01
0.01
0.009983765
0.009972923
0.009997356
0.01
0.01
0.01
0.01
0.01
0.01
0.01
0.01
0.01
0.01
0.01
0.01
0.01
0.01
0.01
0.01
0.01
0.01
0.01
0.01
0.01
0.01
0.01
0.01
0.01
0.01
0.01
0.01
0.01
0.01
0.01
0.01
0.01
0.01
0.01
0.01
0.01
0.01
0.01
0.01
0.01
0.01
0.01
0.01
0.01
0.01
0.01
0.01
0.01
0.01
0.01
0.01
0.01
0.01
0.01
0.01
0.01
0.01
0.01
0.01
0.01
0.01
0.01
0.01
0.01
0.01
0.01
0.01
0.01
0.009730132
0.009347572
0.008995108
0.008683721
0.00842036
0.008211959
0.008061207
0.007966586
0.00792623
0.00794013
0.008010515
0.00814186
0.008340602
0.008630274
0.009023605
0.009526537
0.01
0.01
0.01
0.01
0.01
0.01
0.01
0.01
0.01
0.01000001
0.01000001
0.01
0.01
0.01
0.01000005
0.01000052
0.01000112
0.0100008
0.01000024
0.01000002
0.01
0.01
0.01
0.01
0.01
0.01
0.01
0.009919309
0.009310044
0.008720312
0.008162684
0.00764633
0.007181237
0.006774455
0.006429578
0.006146789
0.005923357
0.005754521
0.005634497
0.005557327
0.005517463
0.005510036
0.005530918
0.005576658
0.005644371
0.005731648
0.005836458
0.005956964
0.006091381
0.006238113
0.006400963
0.006580158
0.006774387
0.006981806
0.007199846
0.007425133
0.00765357
0.007880543
0.008101146
0.008310587
0.008504162
0.008676545
0.008820627
0.008927306
0.008988784
0.008992707
0.008637991
0.008215783
0.008070841
0.0079752
0.00737775
0.006654687
0.005852833
0.005041878
0.004299369
0.003679113
0.00320801
0.002882303
0.002677263
0.00256913
0.00241031
0.002129909
0.001999162
0.001972208
0.002020444
0.002131037
0.002295122
0.002504332
0.002750817
0.003027627
0.003323271
0.00362205
0.003912109
0.004188173
0.004447847
0.004653525
0.004838516
0.005022562
0.005205375
0.005386365
0.00556472
0.005739477
0.005909579
0.006073909
0.006231313
0.006380601
0.006520519
0.006650253
0.006771471
0.006885328
0.006992908
0.007094968
0.00719198
0.007284248
0.007371851
0.007455052
0.007533177
0.007607458
0.007677691
0.007743426
0.007804363
0.00786058
0.007912231
0.007959498
0.008002561
0.008041596
0.008076771
0.008108247
0.008136177
0.008160698
0.008181931
0.008199958
0.008214777
0.008226319
0.008234766
0.008240289
0.008243005
0.008242988
0.008240271
0.00823484
0.008226597
0.008215326
0.008200793
0.00818277
0.008161071
0.008135621
0.008106445
0.008073636
0.008037315
0.007997642
0.007954868
0.007909388
0.00786161
0.007811664
0.007759476
0.007704949
0.007648004
0.007588598
0.007526727
0.007462427
0.007395765
0.007326853
0.007255834
0.007182874
0.007108156
0.007031876
0.00695423
0.006875411
0.006795604
0.006714981
0.006633693
0.006551879
0.006469658
0.006387141
0.006304423
0.006221583
0.006138685
0.006055779
0.005972907
0.005890096
0.005807395
0.005724822
0.005642476
0.005560347
0.005478621
0.005397223
0.005315878
0.005234973
0.005155019
0.005076325
0.004999121
0.004923588
0.004849793
0.004777922
0.004708179
0.004640782
0.004575959
0.004513919
0.00445484
0.004398841
0.004345998
0.004296351
0.004249908
0.004206648
0.004166515
0.00412943
0.004095281
0.004063935
0.004035241
0.004009057
0.003985254
0.003963703
0.003944268
0.003926802
0.003911135
0.003897049
0.003884238
0.003872565
0.003862097
0.003852878
0.003844972
0.003838478
0.003833289
0.00382927
0.003826323
0.003824368
0.003823341
0.003823185
0.003823855
0.00382531
0.003827508
0.003830416
0.003833999
0.003838232
0.003843123
0.003848688
0.003854947
0.003861894
0.003869529
0.003877858
0.003886894
0.00389658
0.003906858
0.003917724
0.003929186
0.003941241
0.003953871
0.003967049
0.003980744
0.003994914
0.004009518
0.004024509
0.004039844
0.004055479
0.004071371
0.004087477
0.004103753
0.004120159
0.004136654
0.004153201
0.004169764
0.004186309
0.004202804
0.004219222
0.004235533
0.004251715
0.004267743
0.004283598
0.00429926
0.004314713
0.004329941
0.004344931
0.00435967
0.004374145
0.004388348
0.004402267
0.004415894
0.00442922
0.004442239
0.004454941
0.00446732
0.004479367
0.004491076
0.00450244
0.004513449
0.004524097
0.004534376
0.004544277
0.004553792
0.004562912
0.004571627
0.004579929
0.004587808
0.004595254
0.004602258
0.004608811
0.004614903
0.004620525
0.004625669
0.004630327
0.004634492
0.004638158
0.004641322
0.004643979
0.004646127
0.004647769
0.004648904
0.004649541
0.004649683
0.004649345
0.004648536
0.004647279
0.004645588
0.004643497
0.004641026
0.004638222
0.004635111
0.00463176
0.004628217
0.004624587
0.004621007
0.004617639
0.004614858
0.004612867
0.004612711
1.934691e-05
3.09887e-05
4.613404e-05
0.000197572
0.0003211779
0.0005352146
0.0007487181
0.0009460086
0.001195891
0.001441917
0.001711858
0.002063027
0.002484505
0.002968806
0.003525182
0.004252036
0.00562161
0.006191343
0.006752667
0.007269558
0.007732568
0.008138202
0.008507017
0.00885262
0.009181751
0.009497649
0.009801288
0.01
0.01
0.01
0.01
0.01
0.01
0.01
0.01
0.01
0.01
0.01
0.01
0.01
0.01
0.01
0.01
0.01
0.01
0.01
0.01
0.01
0.01
0.01
0.01
0.01
0.01
0.009832003
0.009611235
0.009412165
0.009241654
0.009101134
0.008991667
0.008909213
0.008856145
0.008821792
0.008812412
0.008832962
0.008876483
0.008942231
0.009026326
0.009131932
0.009259876
0.00941155
0.009593578
0.009808136
0.01
0.01
0.01
0.01
0.01
0.01
0.01
0.01
0.01
0.01
0.01
0.01
0.01
0.01
0.01
0.01
0.01
0.01
0.01
0.01
0.01
0.01
0.01
0.01
0.01
0.01
0.01
0.01
0.01
0.01
0.01
0.01
0.01
0.01
0.01
0.01
0.01
0.01
0.01
0.01
0.01
0.01
0.01
0.01
0.01
0.01
0.01
0.01
0.01
0.01
0.01
0.01
0.01
0.01
0.01
0.01
0.01
0.01
0.01
0.01
0.01
0.01
0.01
0.01
0.01
0.00988557
0.009640434
0.009446876
0.009307772
0.009224172
0.009197766
0.009232316
0.009334362
0.00951279
0.009788409
0.01
0.01
0.01
0.01
0.01
0.01
0.01
0.01
0.01000001
0.01000004
0.0100001
0.01000011
0.01000005
0.01000001
0.01
0.01
0.01000007
0.01000127
0.01000222
0.01000202
0.0100007
0.01000006
0.01
0.01
0.01
0.01
0.01
0.01
0.01
0.01
0.01
0.01
0.01
0.009487377
0.008989072
0.008533024
0.00812619
0.007774362
0.007479552
0.007240484
0.007053691
0.00691455
0.006818096
0.006759563
0.006734671
0.006739725
0.006771618
0.006827787
0.006906145
0.007004969
0.007122798
0.007258283
0.007411224
0.007584244
0.007776146
0.007984946
0.008207737
0.008440647
0.008678984
0.008917428
0.009150216
0.009372391
0.009579848
0.009768207
0.009932372
0.01
0.01
0.01
0.009910088
0.009554982
0.009442228
0.009582148
0.009245542
0.008681896
0.007982016
0.00717764
0.006330584
0.005513403
0.004786702
0.004189899
0.003732077
0.003403591
0.003186874
0.003061062
0.00300963
0.002895888
0.00265846
0.002509848
0.002453607
0.002475233
0.002560713
0.002700225
0.002882695
0.003098349
0.00334062
0.003599414
0.003862948
0.004123203
0.004377337
0.004624124
0.004863051
0.005095673
0.005324295
0.005550374
0.005774306
0.005995484
0.006212339
0.006422999
0.006626141
0.006819953
0.006995698
0.007127135
0.007251079
0.007368894
0.007481524
0.007589622
0.007693594
0.007793758
0.007890048
0.007982435
0.008071112
0.008156072
0.008211935
0.008262778
0.008314529
0.008366992
0.00842076
0.008476441
0.008534379
0.00859462
0.008657049
0.008721665
0.008788809
0.008858444
0.008927309
0.008971034
0.009003206
0.009032114
0.009057856
0.009080476
0.009099961
0.009116228
0.009129049
0.009137907
0.009142459
0.009142595
0.009138265
0.009129542
0.009116571
0.009099518
0.009078542
0.0090538
0.009025486
0.008993855
0.008959191
0.00892165
0.008881244
0.008837923
0.008791633
0.008742336
0.008690016
0.008634681
0.008576367
0.008515165
0.008451205
0.008384648
0.00831567
0.008244456
0.008171202
0.008096105
0.008019359
0.007941148
0.007861639
0.007780989
0.007699343
0.007616833
0.007533579
0.007449678
0.00736521
0.007280227
0.007194775
0.007108872
0.007022544
0.006935805
0.006848701
0.006761258
0.00667356
0.006585686
0.006497746
0.006409727
0.006321646
0.006233693
0.006146177
0.006059372
0.005973579
0.005889075
0.005806117
0.005724968
0.005645895
0.00556916
0.00549501
0.005423664
0.005355307
0.00529009
0.005228127
0.005169494
0.005114232
0.005062347
0.00501381
0.004968561
0.004926513
0.004887562
0.004851588
0.004818459
0.004788029
0.00476014
0.00473462
0.004711289
0.004689963
0.004670475
0.004652675
0.004636403
0.004621459
0.004607598
0.004594863
0.004583355
0.004573197
0.004564414
0.004556898
0.004550571
0.004545375
0.004541263
0.004538193
0.004536133
0.004535058
0.004534947
0.004535798
0.004537625
0.004540444
0.00454426
0.00454908
0.004554904
0.004561715
0.004569475
0.004578164
0.00458778
0.004598317
0.004609753
0.004622054
0.004635185
0.004649105
0.004663768
0.004679127
0.00469513
0.004711721
0.004728846
0.004746447
0.004764469
0.004782853
0.004801546
0.004820493
0.004839642
0.004858945
0.004878352
0.004897822
0.004917311
0.004936781
0.004956197
0.004975526
0.004994737
0.005013804
0.005032701
0.005051407
0.0050699
0.005088162
0.005106176
0.005123928
0.005141404
0.00515859
0.005175476
0.005192051
0.005208304
0.005224225
0.005239806
0.005255037
0.005269909
0.005284412
0.005298538
0.005312277
0.005325618
0.005338553
0.00535107
0.005363159
0.005374808
0.005386007
0.005396744
0.005407006
0.005416781
0.005426059
0.005434826
0.005443071
0.005450783
0.005457952
0.005464567
0.005470619
0.005476101
0.005481007
0.005485331
0.005489072
0.005492228
0.0054948
0.005496794
0.005498216
0.005499076
0.005499385
0.005499163
0.005498424
0.005497201
0.005495514
0.005493413
0.005490943
0.005488187
0.005485253
0.005482248
0.005479446
0.005476935
0.005476045
1.784437e-05
2.729643e-05
5.230428e-05
0.0001561381
0.0002507829
0.0003949097
0.0005057437
0.0006320563
0.0007807407
0.0009269495
0.001098838
0.001322548
0.00158106
0.001891881
0.002300314
0.00308123
0.003452135
0.003855334
0.004284162
0.004737454
0.005219568
0.005723251
0.006235794
0.006744096
0.007234581
0.007698544
0.008153227
0.008664086
0.009152706
0.009606833
0.01
0.01
0.01
0.01
0.01
0.01
0.01
0.01
0.01
0.01
0.01
0.01
0.01
0.01
0.01
0.01
0.01
0.01
0.01
0.01
0.01
0.01
0.01
0.01
0.01
0.01
0.01
0.01
0.01
0.009816462
0.009488209
0.009174429
0.008897288
0.008648319
0.008425304
0.008234617
0.008078326
0.007958442
0.007873765
0.007821509
0.0078019
0.007808978
0.007849509
0.007918565
0.008022568
0.008163712
0.008343692
0.00857749
0.008857016
0.009174329
0.00951819
0.009891696
0.01
0.01
0.01
0.01
0.01
0.01
0.01
0.01
0.01
0.01
0.01
0.01
0.01
0.01
0.01
0.01
0.01
0.01
0.01
0.01
0.01
0.01
0.01
0.01
0.01
0.01
0.01
0.01
0.01
0.01
0.01
0.01
0.01
0.01
0.01
0.01
0.01
0.01
0.01
0.01
0.01
0.01
0.01
0.01
0.01
0.01
0.01
0.01
0.01
0.01
0.01000003
0.01000012
0.01000014
0.01000012
0.01000009
0.01000006
0.01000002
0.01
0.01
0.01
0.01
0.01
0.01
0.01
0.01
0.01
0.01
0.01
0.01
0.01
0.01
0.01
0.01
0.01
0.01
0.01
0.01
0.01
0.01
0.01
0.01
0.01
0.01000002
0.01000021
0.01000071
0.01000068
0.01000029
0.01000005
0.01
0.01
0.01
0.01000003
0.01000061
0.01000222
0.01000173
0.01000052
0.01000004
0.01
0.01
0.01
0.01
0.01
0.01
0.01
0.01000001
0.01000002
0.01000003
0.01000003
0.01000001
0.01
0.01
0.009621085
0.009240067
0.008908372
0.008626814
0.008394505
0.008209121
0.008067209
0.007964922
0.007898496
0.007864544
0.007860185
0.007883061
0.007931308
0.008003491
0.008098516
0.008215488
0.008353481
0.008514291
0.008697008
0.008899384
0.009117813
0.009347431
0.009583204
0.009819382
0.01
0.01
0.01
0.01
0.01
0.01
0.01
0.01
0.01
0.01
0.01
0.01
0.01
0.01
0.009705571
0.009047569
0.008282012
0.007452945
0.006620135
0.005845639
0.005173862
0.004623543
0.004195284
0.003877845
0.003659131
0.003525448
0.00346264
0.003457964
0.003403225
0.003194467
0.003050738
0.002980958
0.002981335
0.003041344
0.003151252
0.00330314
0.003483737
0.003685307
0.003901418
0.004124605
0.00434844
0.004570512
0.004790296
0.005007501
0.005221913
0.005433068
0.005639936
0.005841075
0.006034547
0.006219515
0.006393771
0.00655676
0.006708674
0.006849815
0.006979602
0.007097689
0.007205841
0.007305092
0.007397372
0.007485511
0.007566965
0.00764265
0.007716091
0.007789689
0.007864276
0.007940384
0.008018495
0.008098961
0.008181943
0.008267388
0.008355109
0.008444959
0.008536973
0.008631121
0.008726797
0.008823291
0.008920461
0.009019142
0.009121272
0.009228326
0.009340652
0.009460072
0.009585238
0.009680224
0.009704239
0.00972288
0.009736166
0.00974449
0.009748218
0.009747646
0.009742995
0.009734445
0.009722162
0.009706326
0.009687118
0.009664656
0.009638972
0.009610038
0.009577811
0.009542248
0.009503314
0.009460974
0.009415178
0.009365976
0.009313522
0.009257977
0.009199508
0.00913829
0.009074507
0.009008345
0.00893999
0.008869621
0.008797397
0.008723482
0.008648045
0.008571248
0.008493235
0.008414124
0.008334004
0.008252945
0.008170984
0.008088139
0.008004424
0.007919847
0.007834426
0.007748178
0.007661133
0.007573319
0.007484754
0.007395456
0.00730552
0.007215099
0.007124335
0.007033374
0.006942512
0.006852038
0.006762266
0.006673513
0.006586094
0.006500315
0.006416474
0.006334853
0.006255711
0.006179282
0.006105766
0.00603533
0.005968106
0.005904188
0.005843632
0.005786461
0.005732658
0.005682181
0.005634955
0.005590886
0.005549855
0.005511726
0.005476348
0.005443557
0.005413182
0.005385053
0.005358999
0.005334854
0.005312452
0.005291634
0.005272264
0.0052542
0.005237255
0.005221378
0.005206689
0.005193326
0.00518131
0.005170576
0.005161079
0.005152792
0.005145696
0.005139784
0.005135059
0.005131538
0.005129242
0.005128187
0.005128389
0.005129851
0.00513257
0.00513654
0.005141756
0.005148214
0.0051559
0.005164791
0.005174856
0.005186059
0.005198358
0.005211705
0.005226048
0.005241328
0.005257486
0.005274455
0.005292171
0.005310565
0.00532957
0.005349118
0.005369142
0.005389578
0.005410362
0.005431434
0.005452737
0.005474215
0.005495817
0.005517495
0.005539206
0.005560907
0.00558256
0.005604133
0.005625592
0.005646909
0.005668059
0.005689018
0.005709763
0.005730277
0.005750541
0.00577054
0.005790258
0.005809683
0.005828801
0.0058476
0.005866069