/*--------------------------------*- C++ -*----------------------------------*\
| =========                 |                                                 |
| \\      /  F ield         | foam-extend: Open Source CFD                    |
|  \\    /   O peration     | Version:     3.1                                |
|   \\  /    A nd           | Web:         http://www.extend-project.de       |
|    \\/     M anipulation  |                                                 |
\*---------------------------------------------------------------------------*/
FoamFile
{
    version     2.0;
    format      ascii;
    class       volScalarField;
    location    "9.5";
    object      p;
}
// * * * * * * * * * * * * * * * * * * * * * * * * * * * * * * * * * * * * * //

dimensions      [1 -1 -2 0 0 0 0];

internalField   nonuniform List<scalar> 
119952
(
7188.017
6764.211
6720.388
6847.717
6978.562
6976.003
7012.758
7050.239
7087.563
7123.791
7158.475
7190.659
7219.191
7242.611
7258.767
7264.462
7254.559
7222.349
7156.298
6998.308
7256.479
6884.195
6679.829
7083.066
6811.119
6712.442
6638.864
6687.442
7273.839
8918.555
5311.81
5312.786
5332.562
5359.054
5388.089
5419.389
5454.299
5491.639
5530.562
5563.866
5580.116
5619.525
5653.782
5681.147
5704.355
5719.062
5723.599
5715.826
5698.432
5617.94
5576.822
5519.704
5459.564
5405.635
5363.387
5338.968
5337.72
5359.707
5409.221
5464.54
5551.1
5655.262
5763.176
5870.185
5975.384
6076.515
6176.372
6294.508
6440.967
6457.588
6499.11
6590.513
6660.359
6705.842
6742.955
6781.523
6818.59
6852.877
6885.156
6913.992
6938.118
6955.877
6964.859
6961.591
6941.368
6900.097
6836.792
6756.574
6671.007
6568.373
6444.039
6390.139
6389.48
6295.185
6205.112
6133.395
5988.587
5544.339
5464.207
5528.25
5570.46
5643.713
5725.59
5814.108
5908.444
6003.725
6093.894
6170.419
6225.256
6260.952
6295.246
6342.324
6399.155
6456.764
6509.764
6556.704
6598.361
6636.067
6671.218
6704.916
6737.791
6769.88
6801.098
6831.444
6860.923
6889.567
6917.399
6944.429
6970.696
6996.462
7021.867
7047.071
7072.273
7097.738
7123.701
7150.415
7178.203
7207.408
7238.402
7271.555
7307.429
7346.603
7389.5
7437.047
7489.93
7548.641
7616.003
7698.937
7788.201
7864.415
7889.14
7839.762
7863.985
7899.562
7967.042
7976.608
7962.168
7949.019
7921.93
7905.57
7902.202
7901.393
7897.473
7890.82
7884.09
7878.955
7875.917
7875.015
7876.267
7879.617
7884.809
7891.407
7898.981
7907.184
7915.746
7924.464
7933.197
7941.86
7950.419
7958.894
7967.35
7975.896
7984.664
7993.806
8003.473
8013.807
8024.944
8036.99
8049.988
8064.001
8079.039
8095.053
8111.992
8129.781
8148.334
8167.578
8187.527
8237.386
8256.478
8277.293
8297.835
8318.253
8338.46
8358.378
8377.921
8397.021
8415.627
8433.703
8451.208
8468.112
8484.402
8500.076
8515.134
8529.58
8543.42
8556.671
8569.335
8581.433
8593.004
8604.018
8614.453
8624.398
8633.855
8642.815
8651.263
8659.183
8666.546
8673.315
8679.428
8684.768
8689.07
8691.58
8692.077
8701.704
8709.362
8716.146
8722.158
8727.612
8732.608
8737.19
8741.399
8745.268
8748.818
8752.069
8755.039
8757.745
8760.202
8762.425
8764.429
8766.227
8767.834
8769.261
8770.519
8771.619
8772.569
8773.379
8774.059
8774.619
8775.057
8775.362
8775.568
8775.687
8775.718
8775.67
8775.554
8775.338
8775.167
8758.617
8748.456
8741.872
8741.589
8740.375
8738.838
8737.599
8736.404
8735.143
8733.847
8732.53
8731.18
8729.777
8728.314
8726.813
8725.296
8723.723
8722.114
8720.466
8718.785
8717.075
8715.341
8713.591
8711.827
8710.051
8708.262
8706.472
8704.679
8702.89
8701.114
8699.339
8697.579
8695.834
8694.107
8692.399
8690.711
8689.046
8687.404
8685.789
8684.203
8682.654
8681.154
8679.724
8678.393
8677.133
8675.629
8673.477
8670.992
8668.673
8666.481
8664.34
8662.259
8660.106
8656.977
8650.932
8651.314
8649.819
8647.47
8645.225
8642.932
8640.606
8638.28
8635.954
8633.627
8631.29
8628.94
8626.579
8624.204
8621.811
8619.397
8616.961
8614.501
8612.017
8609.508
8606.974
8604.414
8601.829
8599.219
8596.585
8593.927
8591.245
8588.541
8585.815
8583.068
8580.302
8577.517
8574.714
8571.896
8569.063
8566.216
8563.357
8560.488
8557.609
8554.723
8551.831
8548.934
8546.034
8543.133
8540.231
8537.331
8534.433
8531.539
8528.651
8525.769
8522.893
8520.026
8517.167
8514.318
8511.477
8508.646
8505.825
8503.012
8500.207
8497.408
8494.615
8491.824
8489.034
8486.241
8483.44
8480.627
8477.796
8474.938
8472.044
8469.103
8466.099
8463.016
8459.829
8456.509
8453.022
8449.306
8445.286
8440.842
8435.842
8429.995
8422.866
8414.078
8405.471
8409.814
8452.088
7715.815
7687.74
7641.821
7582.919
7513.101
7433.909
7346.794
7252.798
7151.583
7019.929
6912.274
6799.114
6684.77
6570.608
6457.009
6344.66
6233.938
6124.215
5971.566
5879.899
5777.577
5681.105
5591.391
5507.168
5429.079
5357.271
5291.934
5234.778
5184.718
5132.988
5097.052
5068.074
5046.254
5031.42
5024.009
5023.042
5028.756
5041.266
5043.743
5065.669
5089.344
5115.843
5145.179
5176.619
5209.725
5244.367
5279.468
5312.226
5344.588
5374.449
5398.74
5416.538
5425.891
5424.721
5412.526
5391.125
5253.096
5200.299
5148.568
5087.879
5030.374
4987.673
4966.279
4969.334
4997.841
5050.849
5127.038
5217.943
5321.623
5433.329
5548.69
5664.344
5778.827
5890.979
5998.238
6095.843
6173.532
6238.968
6304.659
6366.765
6419.569
6463.161
6501.344
6536.597
6568.989
6598.047
6622.41
6640.686
6651.082
6651.45
6638.247
6607.064
6557.672
6489.841
6404.342
6303.57
6192.593
6081.338
5978.001
5881.346
5780.621
5669.176
5545.972
5407.872
5271.839
5195.149
5198.149
5250.715
5325.032
5408.502
5497.117
5588.48
5678.714
5762.933
5837.434
5901.025
5956.493
6009.7
6065.311
6122.789
6178.953
6230.79
6277.297
6318.889
6356.541
6391.385
6424.333
6455.884
6486.273
6515.621
6544.029
6571.568
6598.28
6624.196
6649.558
6674.12
6698.392
6722.355
6746.187
6770.08
6794.291
6819.079
6844.746
6871.609
6899.997
6930.33
6962.967
6998.357
7037.134
7079.585
7126.68
7178.629
7235.602
7297.868
7363.126
7425.257
7474.266
7510.291
7527.711
7547.531
7584.769
7618.137
7644.086
7636.126
7623.929
7625.666
7629.953
7620.723
7601.137
7585.857
7577.572
7572.448
7569.127
7567.262
7567.299
7569.398
7573.752
7579.846
7587.049
7595.095
7603.697
7612.582
7621.545
7630.438
7639.154
7647.675
7656.046
7664.35
7672.709
7681.268
7690.191
7699.64
7709.765
7720.691
7732.51
7745.346
7759.191
7774.052
7789.897
7806.67
7824.293
7842.633
7861.559
7880.443
7960.093
7977.312
7998.125
8018.566
8038.889
8058.992
8078.796
8098.227
8117.224
8135.734
8153.716
8171.135
8187.965
8204.195
8219.818
8234.834
8249.249
8263.068
8276.301
8288.959
8301.056
8312.605
8323.61
8334.08
8344.047
8353.519
8362.495
8370.966
8378.917
8386.327
8393.166
8399.392
8404.951
8409.798
8414.09
8418.67
8425.023
8431.89
8438.204
8444.099
8449.545
8454.58
8459.237
8463.539
8467.508
8471.165
8474.525
8477.604
8480.419
8482.982
8485.31
8487.415
8489.311
8491.011
8492.527
8493.869
8495.048
8496.074
8496.955
8497.701
8498.317
8498.808
8499.182
8499.449
8499.616
8499.686
8499.674
8499.584
8499.584
8500.684
8441.98
8441.778
8438.158
8435.103
8433.498
8432.423
8431.239
8429.936
8428.687
8427.384
8426.048
8424.676
8423.274
8421.829
8420.326
8418.773
8417.181
8415.553
8413.89
8412.193
8410.465
8408.711
8406.946
8405.158
8403.361
8401.556
8399.746
8397.937
8396.133
8394.338
8392.555
8390.782
8389.027
8387.289
8385.57
8383.872
8382.196
8380.541
8378.91
8377.305
8375.728
8374.178
8372.648
8371.108
8369.504
8367.737
8365.75
8363.582
8361.359
8359.192
8357.055
8354.884
8352.648
8350.09
8346.997
8344.257
8342.208
8340.321
8338.25
8335.982
8333.63
8331.269
8328.917
8326.562
8324.194
8321.814
8319.422
8317.015
8314.593
8312.152
8309.691
8307.208
8304.702
8302.173
8299.619
8297.041
8294.439
8291.813
8289.164
8286.491
8283.795
8281.078
8278.339
8275.58
8272.802
8270.005
8267.192
8264.363
8261.52
8258.663
8255.795
8252.917
8250.03
8247.136
8244.236
8241.333
8238.426
8235.519
8232.612
8229.706
8226.804
8223.906
8221.014
8218.128
8215.25
8212.38
8209.52
8206.669
8203.828
8200.997
8198.176
8195.363
8192.56
8189.764
8186.973
8184.186
8181.401
8178.613
8175.818
8173.013
8170.191
8167.344
8164.464
8161.54
8158.56
8155.506
8152.361
8149.095
8145.686
8142.081
8138.248
8134.111
8129.678
8124.963
8120.374
8116.705
8115.525
8117.736
8123.896
3630.154
3623.906
3632.126
3651.537
3682.467
3723.66
3775.896
3839.64
3914.878
4002.165
4083.184
4193.271
4312.148
4441.914
4581.865
4731.02
4888.695
5052.732
5220.872
5387.427
5565.449
5744.668
5923.618
6100.133
6271.225
6435.752
6591.623
6737.771
6875.676
6996.086
7102.328
7193.962
7269.541
7328.433
7370.282
7394.908
7402.513
7394.182
7365.208
7328.861
7277.052
7213.587
7139.953
7057.584
6967.796
6871.946
6771.649
6668.022
6560.469
6451.424
6340.142
6228.601
6117.623
6008.124
5901.657
5802.769
5595.457
5499.731
5410.797
5321.545
5235.176
5154.327
5079.642
5011.068
4948.727
4892.641
4843.569
4801.899
4767.246
4740.023
4720.724
4709.169
4704.766
4706.82
4714.634
4727.631
4744.434
4764.661
4788.804
4816.694
4847.479
4880.423
4914.992
4950.491
4986.087
5020.739
5052.883
5081.2
5104.098
5119.181
5123.904
5116.073
5093.412
5052.682
4990.364
4921.951
4853.526
4781.607
4714.126
4662.728
4635.147
4635.27
4664.036
4718.931
4796.738
4892.922
5003.571
5123.949
5249.039
5375.471
5499.947
5619.475
5731.376
5835.61
5927.358
6003.71
6072.506
6136.89
6193.463
6240.741
6281.155
6317.209
6349.015
6375.985
6397.032
6410.805
6415.454
6408.605
6386.513
6345.584
6286.029
6207.488
6110.127
5996.399
5870.786
5739.521
5607.918
5481.618
5360.739
5240.978
5126.012
5022.611
4931.922
4884.032
4893.714
4949.245
5028.358
5117.645
5211.192
5305.743
5398.115
5485.126
5564.683
5636.264
5701.22
5762.77
5823.907
5884.711
5942.979
5996.82
6045.559
6089.347
6128.781
6164.693
6197.918
6229.09
6258.618
6286.779
6313.782
6339.774
6364.856
6389.134
6412.832
6435.987
6458.6
6480.872
6502.98
6525.147
6547.609
6570.632
6594.525
6619.617
6646.238
6674.784
6705.674
6739.267
6776.064
6816.479
6860.723
6909.135
6961.052
7015.872
7072.102
7125.92
7172.682
7210.33
7235.654
7261.219
7298.538
7332.577
7351.73
7366.843
7378.579
7370.829
7352.906
7345.771
7350.201
7355.62
7348.899
7335.622
7325.925
7321.224
7320.648
7323.385
7328.347
7334.869
7342.567
7351.056
7360.027
7369.213
7378.429
7387.502
7396.27
7404.718
7412.923
7420.989
7429.048
7437.261
7445.8
7454.842
7464.55
7475.063
7486.48
7498.931
7512.428
7526.961
7542.492
7558.975
7576.338
7594.473
7613.345
7632.858
7653.497
7673.615
7693.674
7713.892
7734.075
7754.038
7773.686
7792.952
7811.773
7830.097
7847.884
7865.104
7881.735
7897.768
7913.197
7928.027
7942.265
7955.913
7968.976
7981.467
7993.403
8004.797
8015.664
8026.02
8035.884
8045.268
8054.168
8062.575
8070.478
8077.866
8084.736
8091.092
8096.965
8102.451
8107.764
8113.242
8119.132
8125.23
8131.172
8136.793
8142.064
8146.993
8151.59
8155.864
8159.827
8163.491
8166.868
8169.972
8172.816
8175.413
8177.777
8179.919
8181.854
8183.593
8185.148
8186.528
8187.745
8188.806
8189.721
8190.498
8191.144
8191.667
8192.07
8192.364
8192.549
8192.638
8192.606
8192.481
8192.134
8191.663
8190.268
8188.45
8187.344
8187.019
8186.834
8186.193
8185.414
8184.446
8183.331
8182.199
8180.967
8179.654
8178.288
8176.868
8175.391
8173.858
8172.277
8170.652
8168.987
8167.286
8165.557
8163.807
8162.028
8160.243
8158.444
8156.635
8154.823
8153.009
8151.2
8149.397
8147.619
8145.82
8144.043
8142.286
8140.546
8138.831
8137.136
8135.461
8133.806
8132.168
8130.546
8128.933
8127.315
8125.669
8123.963
8122.159
8120.221
8118.16
8116.026
8113.877
8111.73
8109.566
8107.372
8105.257
8103.297
8101.175
8098.76
8096.207
8093.658
8091.154
8088.69
8086.258
8083.848
8081.447
8079.046
8076.637
8074.218
8071.787
8069.343
8066.881
8064.401
8061.901
8059.378
8056.834
8054.267
8051.676
8049.062
8046.424
8043.764
8041.08
8038.374
8035.647
8032.898
8030.13
8027.343
8024.537
8021.715
8018.877
8016.025
8013.159
8010.283
8007.396
8004.5
8001.597
7998.689
7995.777
7992.862
7989.946
7987.03
7984.117
7981.207
7978.301
7975.401
7972.509
7969.624
7966.748
7963.881
7961.025
7958.179
7955.344
7952.52
7949.705
7946.901
7944.105
7941.316
7938.533
7935.752
7932.972
7930.189
7927.398
7924.594
7921.772
7918.923
7916.039
7913.109
7910.122
7907.062
7903.913
7900.657
7897.275
7893.756
7890.107
7886.398
7882.772
7879.524
7877.016
7875.718
7876.185
7878.758
3744.845
3710.364
3671.839
3619.727
3582.599
3516.375
3492.363
3480.611
3482.861
3460.867
3419.333
3385.375
3366.393
3360.001
3365.037
3380.814
3407.328
3444.409
3491.993
3550.479
3620.253
3701.806
3794.019
3898.129
4014.038
4140.402
4276.998
4422.688
4576.561
4736.499
4904.372
5056.443
5234.711
5414.806
5591.978
5765.712
5934.51
6097.076
6251.895
6397.228
6530.402
6648.705
6752.281
6840.313
6911.995
6966.849
7004.638
7025.495
7030.057
7019.412
6994.259
6954.892
6902.011
6837.272
6762.47
6679.245
6589.038
6493.207
6392.981
6289.335
6183.038
6075.02
5965.658
5855.64
5746.102
5637.866
5531.396
5426.004
5320.109
5223.131
5133.442
5045.688
4960.808
4880.939
4806.878
4738.654
4676.334
4620.422
4571.45
4529.503
4495.189
4469.15
4451.437
4441.694
4439.319
4443.597
4453.798
4469.107
4488.552
4511.873
4539.103
4569.829
4603.26
4638.802
4675.821
4713.717
4751.634
4788.453
4822.774
4852.959
4877.103
4892.24
4894.59
4882.098
4851.037
4799.963
4729.847
4646.51
4555.629
4462.277
4376.398
4309.984
4270.975
4264.225
4290.639
4347.254
4429.527
4532.712
4652.181
4782.864
4919.405
5057.508
5193.626
5324.923
5448.709
5563.547
5666.503
5756.054
5835.365
5906.808
5969.642
6023.312
6069.116
6108.568
6141.898
6168.637
6188.122
6198.862
6198.953
6185.55
6154.843
6103.149
6030.202
5935.657
5819.552
5684.188
5533.247
5373.656
5213.32
5059.848
4917.565
4789.415
4681.192
4598.598
4544.8
4527.458
4553.791
4617.962
4705.772
4804.37
4906.442
5007.973
5106.239
5199.053
5284.895
5363.645
5436.614
5505.656
5572.154
5636.311
5697.038
5753.385
5805.09
5852.02
5894.406
5932.818
5967.898
6000.204
6030.207
6058.305
6084.817
6109.99
6134.018
6157.062
6179.273
6200.759
6221.599
6241.98
6262.071
6282.157
6302.47
6323.277
6344.893
6367.656
6391.91
6418.058
6446.488
6477.498
6511.518
6548.838
6589.515
6633.607
6680.449
6729.073
6778.738
6826.989
6869.746
6906.209
6937.454
6969.157
7004.217
7035.338
7061.016
7083.358
7092.314
7086.767
7084.476
7094.629
7102.242
7096.759
7086.258
7080.714
7080.36
7081.508
7081.649
7082.573
7085.482
7090.897
7098.582
7107.549
7116.993
7126.514
7135.885
7144.952
7153.629
7161.925
7169.91
7177.69
7185.414
7193.261
7201.421
7210.086
7219.431
7229.608
7240.741
7252.931
7266.205
7280.552
7295.922
7312.276
7329.548
7347.64
7366.47
7385.891
7405.77
7425.591
7445.608
7465.798
7485.925
7505.811
7525.374
7544.552
7563.285
7581.519
7599.215
7616.344
7632.887
7648.832
7664.177
7678.931
7693.111
7706.715
7719.736
7732.187
7744.087
7755.456
7766.311
7776.675
7786.572
7796.01
7804.971
7813.448
7821.435
7828.937
7835.968
7842.555
7848.748
7854.634
7860.348
7866.055
7871.898
7877.82
7883.618
7889.155
7894.393
7899.326
7903.957
7908.286
7912.32
7916.064
7919.528
7922.724
7925.663
7928.355
7930.814
7933.052
7935.079
7936.91
7938.554
7940.021
7941.32
7942.461
7943.452
7944.301
7945.016
7945.605
7946.071
7946.424
7946.662
7946.793
7946.801
7946.702
7946.482
7946.189
7946.061
7945.912
7945.293
7944.215
7943.005
7942.047
7940.891
7939.731
7938.532
7937.305
7936.037
7934.717
7933.337
7931.901
7930.415
7928.879
7927.296
7925.672
7924.008
7922.311
7920.583
7918.829
7917.05
7915.253
7913.442
7911.623
7909.799
7907.974
7906.152
7904.338
7902.52
7900.749
7898.983
7897.226
7895.482
7893.763
7892.05
7890.356
7888.679
7887.012
7885.354
7883.695
7882.022
7880.32
7878.568
7876.744
7874.828
7872.818
7870.737
7868.622
7866.497
7864.362
7862.223
7860.086
7857.862
7855.488
7853.036
7850.604
7848.217
7845.851
7843.481
7841.101
7838.714
7836.322
7833.921
7831.511
7829.089
7826.652
7824.198
7821.727
7819.236
7816.724
7814.191
7811.635
7809.056
7806.454
7803.829
7801.181
7798.509
7795.816
7793.099
7790.362
7787.603
7784.825
7782.027
7779.212
7776.38
7773.532
7770.67
7767.795
7764.908
7762.011
7759.105
7756.193
7753.275
7750.353
7747.428
7744.503
7741.578
7738.655
7735.736
7732.822
7729.914
7727.014
7724.121
7721.239
7718.366
7715.504
7712.654
7709.815
7706.988
7704.172
7701.368
7698.574
7695.789
7693.011
7690.24
7687.471
7684.704
7681.933
7679.155
7676.365
7673.557
7670.725
7667.862
7664.959
7662.009
7659.002
7655.935
7652.805
7649.632
7646.442
7643.329
7640.387
7637.843
7635.819
7634.689
7634.493
7635.715
4001.203
3974.021
3946.063
3892.949
3848.383
3769.322
3721.733
3674.12
3625.306
3576.279
3527.255
3480.623
3434.051
3388.455
3346.093
3305.359
3203.163
3173.323
3149.2
3126.404
3100.955
3075.81
3055.421
3043.175
3040.275
3047.064
3063.868
3090.967
3128.495
3176.782
3235.888
3305.397
3386.588
3479.95
3584.999
3701.373
3828.747
3966.868
4114.778
4270.973
4434.295
4604.231
4770.952
4945.622
5122.28
5297.887
5470.735
5638.896
5801.037
5955.56
6100.112
6232.292
6350.244
6453.442
6541.504
6613.644
6668.988
6707.078
6727.969
6732.22
6720.655
6694.288
6654.165
6601.075
6536.276
6461.526
6378.451
6288.472
6193.016
6093.202
5989.861
5884.136
5776.593
5667.55
5558.247
5449.726
5342.65
5237.117
5133.887
5033.694
4939.109
4849.509
4762.988
4679.574
4600.432
4526.355
4457.613
4394.462
4337.464
4287.292
4244.671
4210.428
4185.098
4168.708
4160.873
4160.957
4168.146
4181.636
4200.601
4224.316
4252.313
4284.244
4319.532
4357.721
4398.139
4440.18
4483.125
4526.045
4567.678
4606.469
4640.675
4668.16
4685.016
4685.634
4667.929
4627.723
4563.016
4474.335
4364.577
4240.306
4112.791
3997.11
3909.029
3855.276
3841.218
3867.089
3928.531
4019.688
4133.649
4264.802
4408.321
4559.138
4712.387
4864.255
5011.679
5151.421
5281.019
5398.742
5503.777
5596.978
5679.643
5752.194
5814.756
5868.054
5912.981
5949.843
5978.323
5998.061
6006.926
6002.323
5981.327
5940.079
5874.561
5783.322
5665.521
5521.231
5353.758
5168.38
4973.364
4779.093
4596.226
4433.387
4297.246
4194.959
4132.573
4112.646
4127.72
4179.032
4260.343
4362.558
4475.226
4590.169
4702.103
4808.414
4907.883
5000.117
5085.637
5165.723
5241.305
5313.163
5381.665
5446.326
5506.515
5562.074
5612.79
5658.697
5700.217
5737.841
5771.991
5803.143
5831.767
5858.273
5882.989
5906.17
5928.025
5948.735
5968.459
5987.354
6005.595
6023.385
6040.947
6058.566
6076.536
6095.191
6114.861
6135.902
6158.779
6183.946
6211.641
6242.139
6275.69
6312.256
6351.805
6393.87
6437.277
6481.225
6524.915
6566.029
6602.922
6636.268
6668.946
6702.417
6734.586
6762.847
6784.989
6798.823
6807.974
6820.176
6832.563
6836.649
6835.041
6834.516
6835.632
6835.77
6834.941
6835.671
6839.288
6844.964
6851.747
6859.374
6867.627
6876.33
6885.367
6894.416
6903.205
6911.658
6919.761
6927.528
6935.043
6942.466
6949.989
6957.817
6966.151
6975.178
6985.056
6995.912
7007.819
7020.868
7034.998
7050.229
7066.5
7083.725
7101.794
7120.579
7139.909
7159.614
7179.544
7199.657
7219.835
7239.916
7259.772
7279.312
7298.457
7317.144
7335.319
7352.944
7369.989
7386.437
7402.278
7417.509
7432.14
7446.183
7459.646
7472.544
7484.887
7496.689
7507.967
7518.746
7529.055
7538.936
7548.416
7557.458
7566.018
7574.078
7581.659
7588.803
7595.549
7601.947
7608.068
7614.001
7619.847
7625.682
7631.485
7637.152
7642.597
7647.779
7652.685
7657.31
7661.652
7665.713
7669.491
7672.993
7676.231
7679.214
7681.954
7684.463
7686.749
7688.827
7690.706
7692.399
7693.914
7695.259
7696.443
7697.476
7698.365
7699.119
7699.744
7700.247
7700.632
7700.899
7701.056
7701.097
7701.035
7700.869
7700.599
7700.19
7699.486
7698.557
7697.644
7696.892
7695.994
7695.171
7694.2
7693.131
7691.99
7690.779
7689.499
7688.153
7686.747
7685.286
7683.772
7682.209
7680.6
7678.95
7677.262
7675.542
7673.793
7672.02
7670.228
7668.421
7666.605
7664.783
7662.959
7661.137
7659.322
7657.512
7655.717
7653.932
7652.163
7650.415
7648.674
7646.959
7645.253
7643.567
7641.868
7640.177
7638.485
7636.776
7635.039
7633.26
7631.422
7629.515
7627.537
7625.5
7623.423
7621.323
7619.203
7617.058
7614.869
7612.613
7610.299
7607.963
7605.618
7603.266
7600.903
7598.527
7596.138
7593.742
7591.339
7588.927
7586.505
7584.07
7581.62
7579.152
7576.667
7574.162
7571.636
7569.089
7566.52
7563.929
7561.314
7558.677
7556.016
7553.333
7550.627
7547.899
7545.15
7542.379
7539.589
7536.78
7533.953
7531.109
7528.249
7525.375
7522.489
7519.59
7516.681
7513.764
7510.84
7507.91
7504.977
7502.041
7499.104
7496.169
7493.235
7490.306
7487.382
7484.464
7481.554
7478.653
7475.763
7472.883
7470.015
7467.159
7464.317
7461.487
7458.67
7455.866
7453.075
7450.294
7447.525
7444.764
7442.01
7439.261
7436.515
7433.768
7431.016
7428.257
7425.486
7422.699
7419.891
7417.061
7414.207
7411.335
7408.453
7405.591
7402.783
7400.11
7397.643
7395.542
7393.878
7392.907
7392.58
7393.322
4125.722
4098.251
4065.043
4018.971
3984.658
3916.931
3883.583
3849.158
3813.266
3776.872
3739.787
3701.496
3661.629
3620.213
3575.417
3461.728
3414.407
3366.874
3318.543
3269.639
3220.471
3171.799
3123.834
3076.862
3031.487
2989.264
2951.984
2917.67
2886.489
2857.254
2829.745
2805.97
2787.782
2776.736
2773.936
2780.013
2795.346
2820.38
2855.715
2901.687
2958.6
3027.034
3106.803
3198.223
3301.417
3416.203
3542.183
3678.834
3825.329
3980.553
4143.391
4311.68
4481.807
4655.993
4831.293
5005.497
5177.135
5344.211
5504.66
5657.279
5800.462
5932.035
6049.539
6151.774
6238.635
6309.397
6363.149
6399.441
6418.363
6420.543
6406.861
6378.537
6336.782
6282.723
6217.539
6142.811
6060.193
5970.869
5876.375
5777.904
5676.014
5571.137
5463.585
5354.638
5246.145
5139.021
5033.787
4930.785
4830.776
4734.095
4641.133
4551.971
4466.18
4383.652
4304.902
4230.49
4160.758
4096.129
4037.411
3985.719
3942.238
3908.005
3883.692
3869.416
3864.702
3868.685
3880.492
3899.167
3923.83
3953.735
3988.243
4026.794
4068.812
4113.819
4161.331
4210.748
4261.157
4311.526
4360.475
4405.726
4445.377
4476.814
4494.638
4494.904
4472.387
4419.985
4334.842
4217.121
4068.681
3897.08
3721.012
3563.504
3444.583
3374.188
3355.795
3387.392
3460.041
3564.743
3693.254
3840.011
4000.527
4169.672
4342.476
4514.515
4681.651
4840.268
4987.959
5123.442
5246.046
5355.749
5453.185
5538.917
5613.297
5676.84
5730.128
5773.32
5805.963
5827.046
5834.463
5825.269
5795.243
5740.187
5656.366
5541.423
5393.097
5211.74
5002.955
4774.301
4536.931
4304.513
4091.339
3909.428
3768.41
3676.243
3635.941
3644.787
3693.71
3776.393
3883.944
4008.144
4139.902
4271.37
4396.419
4512.052
4618.225
4715.942
4806.461
4891.495
4972.096
5048.956
5122.313
5191.61
5256.436
5316.63
5371.855
5421.902
5467.019
5507.604
5544.055
5576.84
5606.467
5633.411
5658.062
5680.719
5701.631
5721.01
5739.041
5755.909
5771.81
5786.963
5801.578
5815.957
5830.421
5845.381
5861.201
5878.232
5896.929
5917.735
5941.055
5967.253
5996.483
6028.606
6063.51
6100.92
6140.027
6179.982
6220.326
6259.846
6296.78
6331.122
6364.537
6398.004
6430.568
6460.444
6486.823
6509.611
6529.128
6545.863
6558.978
6568.095
6575.925
6583.053
6587.433
6589.788
6592.363
6595.911
6600.412
6605.767
6612.461
6620.594
6629.265
6638.086
6646.912
6655.519
6663.804
6671.764
6679.414
6686.765
6693.887
6700.934
6708.098
6715.583
6723.588
6732.302
6741.884
6752.46
6764.12
6776.96
6790.812
6805.894
6822.077
6839.244
6857.275
6876.03
6895.354
6915.099
6935.115
6955.266
6975.417
6995.454
7015.284
7034.798
7053.907
7072.543
7090.655
7108.204
7125.163
7141.515
7157.25
7172.367
7186.869
7200.756
7214.053
7226.794
7238.991
7250.648
7261.783
7272.427
7282.613
7292.371
7301.725
7310.712
7319.31
7327.427
7335.056
7342.27
7349.12
7355.651
7361.918
7367.986
7373.915
7379.747
7385.476
7391.051
7396.418
7401.542
7406.407
7411.005
7415.336
7419.404
7423.2
7426.722
7429.983
7432.994
7435.764
7438.304
7440.624
7442.737
7444.655
7446.389
7447.942
7449.321
7450.537
7451.6
7452.52
7453.304
7453.958
7454.488
7454.899
7455.19
7455.369
7455.433
7455.387
7455.227
7454.938
7454.518
7453.988
7453.38
7452.694
7451.883
7451.059
7450.067
7449.043
7447.958
7446.81
7445.599
7444.323
7442.986
7441.591
7440.142
7438.639
7437.087
7435.489
7433.849
7432.17
7430.459
7428.718
7426.952
7425.166
7423.364
7421.551
7419.731
7417.908
7416.086
7414.269
7412.458
7410.659
7408.873
7407.101
7405.345
7403.597
7401.861
7400.138
7398.417
7396.721
7395.016
7393.305
7391.568
7389.806
7388.01
7386.167
7384.269
7382.316
7380.31
7378.263
7376.183
7374.074
7371.931
7369.746
7367.52
7365.26
7362.97
7360.653
7358.312
7355.954
7353.581
7351.197
7348.802
7346.397
7343.98
7341.551
7339.107
7336.646
7334.168
7331.67
7329.153
7326.616
7324.056
7321.475
7318.87
7316.243
7313.593
7310.92
7308.224
7305.505
7302.765
7300.002
7297.219
7294.416
7291.594
7288.754
7285.896
7283.023
7280.136
7277.236
7274.324
7271.402
7268.471
7265.534
7262.591
7259.644
7256.696
7253.746
7250.798
7247.853
7244.912
7241.976
7239.048
7236.128
7233.218
7230.319
7227.431
7224.556
7221.695
7218.848
7216.016
7213.198
7210.395
7207.607
7204.833
7202.072
7199.324
7196.587
7193.861
7191.142
7188.43
7185.722
7183.016
7180.311
7177.605
7174.898
7172.191
7169.49
7166.804
7164.15
7161.556
7159.06
7156.727
7154.615
7152.841
7151.453
7150.625
7150.304
7150.863
4011.654
3978.975
3960.444
3926.703
3887.282
3848.54
3810.583
3774.793
3740.931
3706.668
3606.291
3572.69
3539.105
3504.549
3468.714
3431.59
3393.064
3352.794
3310.733
3267.41
3223.787
3177.554
3130.13
3081.632
3032.466
2982.785
2932.874
2883.113
2834.031
2785.595
2738.645
2695.525
2655.872
2619.585
2586.491
2556.935
2532.651
2514.974
2504.597
2502.239
2508.475
2523.788
2548.611
2583.247
2628.174
2683.754
2750.439
2828.475
2918.115
3019.503
3132.567
3256.983
3392.159
3537.194
3690.897
3851.96
4018.408
4188.464
4361.353
4535.104
4707.432
4876.324
5040.449
5198.321
5348.227
5488.805
5618.125
5733.706
5833.741
5917.564
5984.594
6034.327
6066.523
6081.43
6079.81
6062.693
6031.501
5987.533
5932.333
5866.982
5792.865
5711.719
5624.572
5532.209
5435.506
5335.478
5232.521
5126.937
5020.261
4914.062
4809.324
4706.733
4606.763
4509.853
4416.09
4325.442
4237.955
4153.494
4071.927
3993.463
3918.419
3847.084
3780.08
3718.711
3664.75
3619.936
3585.688
3562.939
3551.802
3551.64
3561.404
3579.86
3605.839
3638.343
3676.512
3719.576
3766.855
3817.767
3871.785
3928.448
3987.214
4047.342
4107.383
4165.88
4221.275
4270.51
4307.477
4326.94
4326.551
4298.756
4232.055
4121.425
3966.198
3765.747
3528.69
3284.627
3073.234
2919.662
2831.182
2810.973
2854.894
2948.308
3069.811
3213.218
3377.11
3558.399
3750.553
3947.935
4144.901
4336.171
4517.721
4687.072
4843.093
4985.288
5113.512
5228.189
5329.842
5418.845
5495.527
5560.112
5612.54
5651.889
5675.912
5682.176
5667.942
5628.075
5557.34
5451.689
5307.949
5122.514
4895.848
4636.793
4356.324
4070.347
3797.975
3554.016
3350.658
3204.728
3129.989
3123.635
3174.498
3253.529
3366.367
3500.126
3649.467
3805.103
3956.82
4096.49
4221.361
4333.439
4435.462
4529.543
4618.122
4702.464
4782.978
4859.937
4933.194
5002.519
5067.602
5127.725
5182.514
5232.018
5276.408
5315.942
5351.066
5382.324
5410.234
5435.248
5457.726
5477.955
5496.171
5512.583
5527.388
5540.778
5552.974
5564.266
5574.93
5585.288
5595.726
5606.688
5618.695
5632.219
5647.699
5665.734
5686.841
5711.161
5738.551
5768.834
5801.742
5836.837
5873.478
5911.029
5948.507
5984.999
6020.681
6056.119
6091.352
6125.889
6158.934
6190.293
6219.486
6244.909
6266.427
6285.364
6302.13
6316.577
6327.917
6336.244
6343.611
6350.973
6357.617
6363.998
6370.846
6378.091
6385.792
6393.848
6402.311
6411.125
6419.571
6427.455
6434.908
6442.041
6448.834
6455.4
6461.942
6468.649
6475.715
6483.334
6491.689
6500.927
6511.169
6522.499
6534.931
6548.742
6563.632
6579.628
6596.626
6614.505
6633.128
6652.341
6672
6691.94
6712.012
6732.088
6752.051
6771.791
6791.201
6810.195
6828.708
6846.688
6864.099
6880.916
6897.123
6912.713
6927.684
6942.042
6955.797
6968.973
6981.596
6993.681
7005.234
7016.271
7026.822
7036.918
7046.57
7055.796
7064.667
7073.149
7081.168
7088.779
7096.035
7102.962
7109.596
7115.974
7122.141
7128.135
7133.98
7139.676
7145.198
7150.511
7155.588
7160.414
7164.98
7169.284
7173.323
7177.098
7180.616
7183.883
7186.904
7189.688
7192.244
7194.583
7196.716
7198.656
7200.425
7202.018
7203.43
7204.676
7205.768
7206.717
7207.53
7208.215
7208.777
7209.213
7209.528
7209.727
7209.81
7209.78
7209.637
7209.379
7209.014
7208.545
7207.954
7207.235
7206.429
7205.577
7204.692
7203.719
7202.667
7201.542
7200.35
7199.091
7197.77
7196.39
7194.954
7193.464
7191.925
7190.339
7188.71
7187.043
7185.342
7183.611
7181.854
7180.077
7178.282
7176.476
7174.661
7172.843
7171.024
7169.209
7167.4
7165.601
7163.813
7162.036
7160.272
7158.519
7156.777
7155.046
7153.319
7151.598
7149.875
7148.139
7146.396
7144.623
7142.818
7140.972
7139.083
7137.147
7135.166
7133.143
7131.084
7128.991
7126.863
7124.699
7122.5
7120.267
7117.999
7115.699
7113.375
7111.031
7108.671
7106.296
7103.907
7101.503
7099.085
7096.651
7094.2
7091.731
7089.244
7086.736
7084.209
7081.659
7079.088
7076.494
7073.877
7071.237
7068.574
7065.887
7063.178
7060.445
7057.691
7054.915
7052.117
7049.3
7046.463
7043.608
7040.736
7037.849
7034.946
7032.031
7029.104
7026.167
7023.222
7020.27
7017.312
7014.351
7011.388
7008.425
7005.463
7002.504
6999.55
6996.602
6993.662
6990.731
6987.81
6984.901
6982.006
6979.124
6976.257
6973.405
6970.57
6967.752
6964.95
6962.166
6959.399
6956.649
6953.915
6951.197
6948.494
6945.805
6943.13
6940.468
6937.819
6935.182
6932.559
6929.953
6927.368
6924.811
6922.297
6919.844
6917.48
6915.24
6913.178
6911.34
6909.815
6908.632
6907.926
6907.632
6908.105
3768.567
3722.879
3622.946
3589.198
3554.354
3520.153
3487.013
3454.838
3423.303
3392.245
3361.724
3330.056
3297.479
3263.754
3228.77
3192.252
3154.075
3114.022
3071.891
3028.019
2983.503
2937.388
2889.781
2840.958
2791.208
2740.653
2689.223
2636.909
2584.494
2532.776
2482.471
2434.681
2390.762
2351.334
2316.36
2286.309
2262.155
2244.719
2234.607
2232.401
2238.614
2253.683
2277.87
2311.827
2355.812
2410.21
2475.438
2551.885
2639.868
2739.558
2850.914
2973.66
3107.16
3250.495
3402.362
3561.655
3726.057
3894.304
4064.662
4234.854
4403.294
4568.314
4728.705
4883.492
5030.333
5167.067
5291.743
5402.381
5497.32
5575.652
5636.792
5680.549
5706.893
5716.345
5709.702
5688.4
5653.952
5607.83
5552.111
5487.927
5416.012
5337.102
5252.334
5162.891
5069.257
4972.379
4872.948
4771.194
4668.088
4564.934
4462.996
4363.286
4266.481
4172.936
4082.545