/*--------------------------------*- C++ -*----------------------------------*\
| =========                 |                                                 |
| \\      /  F ield         | foam-extend: Open Source CFD                    |
|  \\    /   O peration     | Version:     3.1                                |
|   \\  /    A nd           | Web:         http://www.extend-project.de       |
|    \\/     M anipulation  |                                                 |
\*---------------------------------------------------------------------------*/
FoamFile
{
    version     2.0;
    format      ascii;
    class       volScalarField;
    location    "8.5";
    object      alpha1;
}
// * * * * * * * * * * * * * * * * * * * * * * * * * * * * * * * * * * * * * //

dimensions      [0 0 0 0 0 0 0];

internalField   nonuniform List<scalar> 
119952
(
1
1
1
1
1
1
0.9999998
1
1
1
1
0.9999999
1
1
0.9999999
0.999999
1
0.9999998
1
1
1
1
0.9999997
1
1
0.9999984
0.9999948
0.9999998
0.9999991
1
0.9999999
1
1
0.9999995
0.9999996
0.9999937
0.9999829
0.9999995
0.9999639
0.9999991
0.9998261
0.9999999
0.9988337
0.9999818
0.9999971
0.999314
0.999068
0.9999999
0.9997568
0.995508
0.9996968
0.9999841
0.9972831
0.9948563
0.9993269
0.9999659
0.9982625
0.994852
0.9948569
0.9994636
0.9999227
0.996254
0.9936345
0.9956193
0.9992777
0.9972449
0.9979747
0.9989584
0.9990951
0.9992636
0.9995248
0.9998612
0.9999561
0.9999687
0.9999844
0.99998
0.9999775
0.9999813
0.9999775
0.9999732
0.9999834
0.9999975
1
1
1
0.9999999
0.9999995
0.9999999
1
0.9999998
0.999998
0.9998467
0.9999188
0.9997717
0.9997758
0.9994615
0.9999783
0.9999883
0.9999957
0.999758
0.9986244
0.9993033
0.9983742
0.9993899
0.9893498
0.9976398
0.999993
0.9999939
0.9999888
0.9999999
0.9998786
0.999282
0.9991508
0.9999879
0.9999999
1
0.999997
0.9999005
0.9998769
0.9999966
0.999997
0.9999821
0.9999964
0.9999975
0.9999994
0.9999998
1
1
1
0.9999987
0.9999788
0.9999994
1
1
0.9999521
0.9920416
0.9870324
0.9996283
0.9999954
0.9999999
0.9999929
0.9998491
0.9883669
0.9825672
0.9860531
0.9995692
0.9999883
0.9999969
0.9999909
0.9999894
0.9999999
1
1
1
1
1
1
1
1
1
1
1
1
1
1
1
1
1
1
1
1
1
1
1
1
1
1
1
1
1
1
1
1
1
1
1
1
1
1
1
1
1
1
1
1
1
1
1
1
1
1
1
1
1
1
1
1
1
1
1
1
1
1
1
1
1
1
1
1
1
1
1
1
1
1
1
1
1
1
1
1
1
1
1
1
1
1
1
1
1
1
1
1
1
1
1
1
1
1
1
1
1
1
1
1
1
1
1
1
1
1
1
1
1
1
1
1
1
1
1
1
1
1
1
1
1
1
1
1
1
1
1
1
1
1
1
1
1
1
1
1
1
1
1
1
1
1
1
1
1
1
1
1
1
1
1
1
1
1
1
1
1
1
0.9999999
1
1
1
1
0.9999999
0.9999999
1
0.9999999
1
0.9999999
1
0.9999999
1
1
1
0.9999999
1
1
0.9999999
0.9999999
0.9999999
1
0.9999998
1
0.9999998
0.9999999
1
0.9999999
1
1
1
1
1
1
1
0.9999998
1
1
0.9999999
0.9999999
1
1
1
1
0.9999998
0.9999998
1
1
1
1
1
1
1
1
1
1
1
1
1
1
1
1
1
1
1
1
0.9999999
1
1
1
1
1
1
1
1
1
1
1
1
1
1
1
1
1
1
1
1
1
1
1
1
1
1
1
1
0.9999999
0.9999998
1
1
1
1
1
0.9999999
1
1
1
1
1
1
1
1
0.9999997
0.9999997
1
1
1
1
1
1
0.9999999
1
1
1
1
1
1
0.9999978
0.9999769
0.9999367
0.9998445
0.9994655
0.9994044
0.9997727
0.9999285
0.9999627
0.9998884
0.999739
0.999912
0.9998252
0.996531
0.99705
0.9999754
0.9999274
0.9963139
0.9978129
0.9999783
0.9997745
0.9987127
0.9979251
0.9965073
0.9969242
0.9992891
0.9996859
0.9997164
0.9997666
0.9992338
0.9985562
0.9984034
0.9986074
0.999311
0.9994927
0.9992498
0.9987907
0.997484
0.9954272
0.9937448
0.9937809
0.9945989
0.9949225
0.996481
0.9979946
0.9990145
0.9995792
0.9998791
0.9999713
0.9999369
0.9997984
0.9993407
0.9988852
0.9990274
0.9993811
0.9997063
0.9999154
0.9999791
0.9999952
0.9999996
0.9999994
0.9999946
0.9999783
0.9999496
0.9997003
0.9990505
0.9995108
0.9996202
0.9997984
0.9999821
0.9999198
0.9995092
0.9990525
0.9995001
0.999907
0.9999739
0.999965
0.9999561
0.9999753
0.999997
0.9999998
1
1
0.9999999
0.9999999
1
1
1
1
1
1
1
1
1
1
0.9999999
0.9999997
0.9999985
0.9999947
0.9999887
0.999984
0.9999889
0.9999968
0.9999996
1
1
1
1
1
1
1
1
1
0.9999997
0.9999942
0.9999197
0.9988638
0.9890621
0.982571
0.9833809
0.9928965
0.9989475
0.9999558
0.9999978
0.9999966
0.99996
0.9998006
0.9997304
0.9998374
0.9999702
0.9999992
1
1
1
1
1
1
1
1
1
1
1
1
1
1
1
1
1
1
1
1
1
1
1
1
1
1
1
1
1
1
1
1
1
1
1
1
1
1
1
1
1
1
1
1
1
1
1
1
1
1
1
1
1
1
1
1
1
1
1
1
1
1
1
1
1
1
1
1
1
1
1
1
1
1
1
1
1
1
1
1
1
1
1
1
1
1
1
1
1
1
1
1
1
1
1
1
1
1
1
1
1
1
1
1
1
1
1
1
1
1
1
1
1
1
1
1
1
1
1
1
1
1
1
1
1
1
1
1
1
1
1
1
1
1
1
1
1
1
1
1
1
1
1
1
1
1
1
1
1
1
1
1
1
1
1
1
1
1
1
1
1
1
1
1
1
1
1
1
1
1
1
1
1
1
1
1
1
1
1
1
1
1
1
1
1
1
1
1
1
1
1
1
1
1
1
1
1
1
1
1
1
1
1
1
1
1
1
1
1
1
1
1
1
1
1
1
1
1
1
1
1
1
1
1
1
0.9999999
0.9999999
1
1
1
1
1
1
1
1
0.9999999
1
1
1
1
1
1
1
1
1
1
1
1
1
1
1
1
0.9999999
1
1
1
1
1
1
1
1
1
1
1
1
1
1
1
0.9999999
1
1
1
1
0.9999999
0.9999999
1
0.9999994
0.9999996
0.9999998
0.9999996
1
0.9999999
0.9999998
0.9999991
0.9999999
0.9999999
0.9999994
0.9999999
0.9999998
0.9999998
0.9999998
0.9999996
0.9999991
0.9999986
0.9999979
0.9999977
0.9999996
1
1
1
1
1
1
0.9999999
0.9999979
0.9999986
0.9999996
0.9999999
1
1
0.9999999
0.9999933
0.9999686
0.9999877
0.9999989
0.9999995
0.9999998
0.9999929
0.9999398
0.9998386
0.9997608
0.9997493
0.9997286
0.9988908
0.9965329
0.9945297
0.9976226
0.9991521
0.9994587
0.9989695
0.99774
0.9967356
0.9979866
0.9971734
0.9962665
0.999331
0.9999366
0.9999528
0.9999408
0.9999655
0.999987
0.9999882
0.9999369
0.9997878
0.9997343
0.9998659
0.9999405
0.9999401
0.99989
0.9998119
0.9997297
0.9996367
0.9995616
0.9993429
0.9993168
0.9995705
0.9997112
0.999823
0.9999253
0.9999428
0.9999277
0.9999028
0.9998758
0.9998172
0.9997177
0.9991027
0.999225
0.999722
0.9999655
0.9999948
0.9999696
0.9997114
0.9989251
0.9988136
0.9988136
0.9988136
0.999281
0.9995605
0.9997919
0.9999647
0.9999981
0.9999954
0.9999757
0.9999292
0.9996575
0.9995378
0.9998131
0.9999643
0.9999561
0.9998637
0.9994547
0.9993809
0.9994537
0.9999163
0.9999734
0.9999964
0.9999996
0.9999998
0.9999998
0.9999999
0.9999999
0.9999999
0.9999998
0.9999998
0.9999998
0.9999999
0.9999999
0.9999999
0.9999998
0.9999995
0.999999
0.9999989
0.9999996
0.9999999
0.9999999
0.9999999
0.9999998
0.9999989
0.9999932
0.999954
0.999892
0.9999028
0.9999533
0.9999903
0.9999994
1
1
1
0.9999999
0.9999998
0.9999998
0.9999996
0.9999991
0.9999993
0.9999991
0.9999957
0.9999315
0.999288
0.9979069
0.9977617
0.9959813
0.9924068
0.9943512
0.9978421
0.9997153
0.999893
0.9991194
0.9982109
0.9986833
0.9996746
0.9999828
0.9999999
1
1
1
1
1
1
1
1
1
1
1
1
1
1
1
1
1
1
1
1
1
1
1
1
1
1
1
1
1
1
1
1
1
1
1
1
1
1
1
1
1
1
1
1
1
1
1
1
1
1
1
1
1
1
1
1
1
1
1
1
1
1
1
1
1
1
1
1
1
1
1
1
1
1
1
1
1
1
1
1
1
1
1
1
1
1
1
1
1
1
1
1
1
1
1
1
1
1
1
1
1
1
1
1
1
1
1
1
1
1
1
1
1
1
1
1
1
1
1
1
1
1
1
1
1
1
1
1
1
1
1
1
1
1
1
1
1
1
1
1
1
1
1
1
1
1
1
1
1
1
1
1
1
1
1
1
1
1
1
1
1
1
1
1
1
1
1
1
1
1
1
1
1
1
1
1
1
1
1
1
1
1
1
1
1
1
1
1
1
1
1
1
1
1
1
1
1
1
1
1
1
1
1
1
1
1
1
1
1
1
1
1
1
1
1
1
1
1
1
1
1
1
1
1
1
1
1
1
1
1
1
1
1
1
0.9999999
1
1
1
1
1
1
1
1
1
1
1
1
1
1
1
1
1
1
1
1
1
1
1
1
1
1
1
1
1
1
1
1
1
1
1
1
1
1
1
1
1
1
1
1
1
1
1
1
1
1
1
1
1
0.9999999
0.9999993
0.999999
0.9999997
0.9999999
0.9999987
0.9999972
0.9999957
0.9999953
0.9999941
0.9999932
0.9999933
0.9999968
0.9999992
0.9999965
0.9999884
0.9999669
0.9999145
0.9998355
0.999795
0.9998093
0.9999402
0.999994
0.9999991
0.9999965
0.9999933
0.999992
0.9999957
0.9999994
0.9999999
1
0.9999999
0.9999996
0.9999914
0.9999523
0.9999117
0.9999761
0.9999965
0.9999994
0.9999954
0.9999137
0.9994348
0.9980589
0.9959799
0.994632
0.9951189
0.9966391
0.9968626
0.9935031
0.994568
0.9988588
0.9993586
0.9977203
0.9968418
0.9968357
0.9988816
0.9996209
0.9991691
0.999239
0.9998275
0.9999753
0.9999962
0.9999985
0.9999984
0.9999978
0.9999883
0.9999485
0.9998603
0.9997553
0.999592
0.9991996
0.9985955
0.9980957
0.9976714
0.9970955
0.9967456
0.996355
0.99585
0.9952145
0.9947489
0.9952205
0.9970487
0.9983983
0.9994344
0.9998826
0.9999546
0.9999275
0.9997761
0.9997634
0.9998305
0.999933
0.9999886
0.9999989
0.9999987
0.9999918
0.9999001
0.9996711
0.9997235
0.9996887
0.9988555
0.9986001
0.9989618
0.9996895
0.9999608
0.9999938
0.9999812
0.9999315
0.999853
0.9997217
0.9998827
0.9999914
0.9999375
0.9994326
0.9992906
0.9996563
0.9998594
0.9999777
0.9999955
0.999998
0.9999997
1
1
1
0.9999999
0.9999999
0.9999999
1
1
1
1
0.9999999
0.9999998
0.9999993
0.9999974
0.9999921
0.9999899
0.999994
0.9999977
0.9999996
0.9999999
0.9999996
0.9999963
0.9999329
0.999842
0.999842
0.9998657
0.9999599
0.9999968
0.9999999
0.9999996
0.9999978
0.9999928
0.9999906
0.9999952
0.9999988
0.9999956
0.9999914
0.9999945
0.9999944
0.9999904
0.9999834
0.9999708
0.9999554
0.9997482
0.998712
0.9885719
0.987104
0.9943789
0.9990986
0.9993252
0.9986044
0.99878
0.9995773
0.9999546
0.9999983
0.9999992
0.9999988
0.9999988
0.9999993
0.9999999
1
1
1
1
1
1
1
1
1
1
1
1
1
1
1
1
1
1
1
1
1
1
1
1
1
1
1
1
1
1
1
1
1
1
1
1
1
1
1
1
1
1
1
1
1
1
1
1
1
1
1
1
1
1
1
1
1
1
1
1
1
1
1
1
1
1
1
1
1
1
1
1
1
1
1
1
1
1
1
1
1
1
1
1
1
1
1
1
1
1
1
1
1
1
1
1
1
1
1
1
1
1
1
1
1
1
1
1
1
1
1
1
1
1
1
1
1
1
1
1
1
1
1
1
1
1
1
1
1
1
1
1
1
1
1
1
1
1
1
1
1
1
1
1
1
1
1
1
1
1
1
1
1
1
1
1
1
1
1
1
1
1
1
1
1
1
1
1
1
1
1
1
1
1
1
1
1
1
1
1
1
1
1
1
1
1
1
1
1
1
1
1
1
1
1
1
1
1
1
1
1
1
1
1
1
1
1
1
1
1
1
1
1
1
1
1
1
1
1
1
1
1
1
1
1
1
1
1
1
1
1
1
1
1
1
1
1
1
1
1
1
1
1
1
1
1
1
1
1
1
1
1
1
1
1
1
1
1
1
1
1
1
1
1
1
1
1
1
1
1
1
1
1
1
1
1
1
1
1
1
1
1
1
1
1
1
1
1
1
1
1
1
1
1
1
0.9999999
0.9999997
0.9999996
0.9999998
0.9999997
0.9999989
0.9999975
0.9999965
0.9999977
0.9999972
0.9999968
0.9999988
0.9999998
0.9999995
0.9999963
0.9999857
0.9999549
0.9998411
0.9995376
0.9993615
0.9994377
0.999824
0.9999733
0.9999878
0.9999782
0.9999763
0.9999943
0.9999973
0.999999
0.9999981
0.9999961
0.9999694
0.9999028
0.999839
0.9999242
0.9999864
0.9999981
0.9999985
0.9999781
0.9998188
0.9992147
0.9973888
0.9916173
0.9768427
0.9615415
0.9592567
0.9809338
0.9923589
0.9966239
0.9991809
0.9993768
0.9990645
0.9985932
0.9992438
0.9996324
0.9999207
0.9999642
0.9999163
0.9999383
0.9999767
0.9999842
0.9999663
0.9999482
0.9999432
0.9999471
0.9999257
0.9997459
0.9993443
0.9988377
0.9981916
0.9972339
0.9962918
0.9957591
0.9955822
0.9951342
0.9947683
0.9943604
0.9926499
0.9877947
0.9850668
0.9849755
0.9865267
0.9900992
0.9950802
0.9980639
0.9993584
0.9996176
0.9995789
0.9996826
0.9998634
0.9999534
0.9999891
0.999999
0.9999994
0.9999994
0.999998
0.9999862
0.9999566
0.9999497
0.9999185
0.9994794
0.9992547
0.9994974
0.999892
0.9999805
0.9999735
0.999953
0.9998992
0.9999001
0.9999843
0.999926
0.9995289
0.999455
0.9999025
0.9999848
0.9999947
0.9999993
0.9999996
0.9999998
1
1
1
1
1
1
1
1
0.9999999
0.9999998
0.9999998
0.9999999
0.9999998
0.9999988
0.9999917
0.9999638
0.999963
0.9999814
0.9999964
0.9999998
0.9999999
0.9999987
0.9999889
0.999919
0.999842
0.9998751
0.9999577
0.9999957
0.9999958
0.9999807
0.9999294
0.9999048
0.9999443
0.9999886
0.9999988
0.9999978
0.9999853
0.9999802
0.999987
0.9999759
0.9999738
0.9999806
0.9999947
0.9999922
0.9998493
0.9966087
0.9837852
0.9847936
0.9937105
0.9988064
0.9997702
0.9997369
0.9997679
0.9999163
0.9999921
0.9999907
0.9999418
0.9999482
0.9999752
0.9999943
0.9999995
1
1
0.9999999
0.9999983
0.999998
0.999999
0.9999998
1
1
1
1
1
1
1
1
1
1
1
1
1
1
1
1
1
1
1
1
1
1
1
0.9999999
0.9999997
0.9999991
0.999999
0.9999996
0.9999999
1
1
1
1
1
1
1
1
1
1
1
1
1
1
1
1
1
1
1
1
1
1
1
1
1
1
1
1
1
1
1
1
1
1
1
1
1
1
1
1
1
1
1
1
1
1
1
1
1
1
1
1
1
1
1
1
1
1
1
1
1
1
1
1
1
1
1
1
1
1
1
1
1
1
1
1
1
1
1
1
1
1
1
1
1
1
1
1
1
1
1
1
1
1
1
1
1
1
1
1
1
1
1
1
1
1
1
1
1
1
1
1
1
1
1
1
1
1
1
1
1
1
1
1
1
1
1
1
1
1
1
1
1
1
1
1
1
1
1
1
1
1
1
1
1
1
1
1
1
1
1
1
1
1
1
1
1
1
1
1
1
1
1
1
1
1
1
1
1
1
1
1
1
1
1
1
1
1
1
1
1
1
1
1
1
1
1
1
1
1
1
1
1
1
1
1
1
1
1
1
1
1
1
1
1
1
1
1
1
1
1
1
1
1
1
1
1
1
1
1
1
1
1
1
1
1
1
1
1
1
1
1
1
1
1
1
1
1
1
1
1
1
1
1
1
1
1
1
1
1
1
1
1
1
1
1
1
1
1
1
1
1
1
1
1
1
1
1
1
1
0.9999999
0.9999999
0.9999998
0.9999998
0.9999995
0.9999991
0.9999994
0.9999997
0.9999996
0.9999999
1
1
0.9999999
0.9999991
0.9999959
0.9999798
0.9998658
0.9993712
0.9989393
0.998965
0.9995253
0.9998558
0.9999365
0.9999596
0.9999922
0.9999808
0.9999851
0.9999831
0.9999667
0.9997767
0.9994046
0.9997003
0.9999659
0.999996
0.9999981
0.9999938
0.9999297
0.9997052
0.9993969
0.9990907
0.99744
0.9830733
0.9251118
0.8879229
0.8878163
0.945954
0.9867076
0.9973137
0.9990191
0.9997521
0.9998553
0.9999353
0.999964
0.9999717
0.9999888
0.9999962
0.9999984
0.999998
0.9999875
0.9999036
0.9994275
0.9989316
0.9991787
0.9995531
0.9996764
0.9995104
0.9990918
0.9991158
0.9993493
0.999568
0.9996229
0.9997125
0.9997491
0.9997592
0.9997089
0.999506
0.9986808
0.9946014
0.9832035
0.9768711
0.9768711
0.9781133
0.9837964
0.9890721
0.9940393
0.9980839
0.9994487
0.99964
0.9997698
0.9999269
0.9999903
0.9999989
0.9999998
0.9999998
0.9999997
0.9999977
0.9999914
0.9999838
0.9999618
0.9996372
0.9993918
0.9996631
0.9999399
0.9999922
0.9999918
0.9999823
0.9999541
0.9999501
0.9999243
0.9998387
0.9998463
0.999968
0.9999982
0.9999995
0.9999999
1
1
1
1
1
1
1
1
1
0.9999994
0.9999973
0.9999928
0.9999937
0.9999971
0.9999995
0.9999996
0.9999985
0.9999799
0.9999324
0.9999608
0.9999904
0.999999
0.9999999
0.9999999
0.9999991
0.9999911
0.9999725
0.9999758
0.9999893
0.9999826
0.9999108
0.9996432
0.999486
0.9997082
0.9999387
0.9999961
0.9999988
0.9999988
0.9999978
0.9999825
0.9999745
0.9999799
0.9999921
0.999998
0.9999987
0.9999987
0.9999878
0.9996347
0.9939541
0.9848249
0.9861211
0.9943573
0.9991537
0.9999532
0.9999789
0.9999806
0.999994
0.9999943
0.9999827
0.999845
0.9997263
0.9998288
0.9999435
0.9999926
0.9999997
0.9999999
0.9999996
0.9999964
0.9999954
0.9999968
0.9999993
1
1
1
1
1
1
1
1
1
1
1
1
1
1
1
1
1
1
1
1
1
1
0.9999999
0.9999996
0.9999974
0.9999892
0.9999832
0.99999
0.9999973
0.9999994
0.9999998
0.9999999
0.9999999
1
1
1
1
1
1
1
1
1
1
1
1
1
1
1
1
1
1
1
1
1
1
1
1
1
1
1
1
1
1
1
1
1
1
1
1
1
1
1
1
1
1
1
1
1
1
1
1
1
1
1
1
1
1
1
1
1
1
1
1
1
1
1
1
1
1
1
1
1
1
1
1
1
1
1
1
1
1
1
1
1
1
1
1
1
1
1
1
1
1
1
1
1
1
1
1
1
1
1
1
1
1
1
1
1
1
1
1
1
1
1
1
1
1
1
1
1
1
1
1
1
1
1
1
1
1
1
1
1
1
1
1
1
1
1
1
1
1
1
1
1
1
1
1
1
1
1
1
1
1
1
1
1
1
1
1
1
1
1
1
1
1
1
1
1
1
1
1
1
1
1
1
1
1
1
1
1
1
1
1
1
1
1
1
1
1
1
1
1
1
1
1
1
1
1
1
1
1
1
1
1
1
1
1
1
1
1
1
1
1
1
1
1
1
1
1
1
1
1
1
1
1
1
1
1
1
1
1
1
1
1
1
1
1
1
1
1
1
1
1
1
1
1
1
1
1
1
1
1
1
1
1
1
1
1
1
1
1
1
1
1
1
1
1
1
1
1
1
1
1
1
1
1
0.9999999
0.9999999
0.9999999
0.9999999
1
1
1
1
1
1
1
0.9999999
0.9999996
0.9999967
0.9999611
0.9993955
0.9982789
0.9982073
0.9987877
0.9995824
0.999925
0.9999918
0.9999568
0.9999017
0.9999152
0.9998815
0.9994962
0.9992237
0.999497
0.999966
0.9999963
0.9999967
0.99996
0.9998668
0.9998418
0.9999353
0.9999739
0.9998962
0.9973957
0.9746376
0.9003953
0.847934
0.8478156
0.8608085
0.928452
0.9841661
0.9973831
0.9995964
0.9998173
0.9999406
0.9999839
0.9999954
0.9999991
0.9999992
0.9999992
0.9999979
0.9999862
0.9999129
0.9992826
0.9942234
0.9929432
0.9954111
0.9984222
0.9995683
0.9998908
0.9999708
0.9999853
0.9999911
0.9999957
0.9999965
0.9999939
0.999973
0.9999514
0.9999356
0.9998589
0.99959
0.9984445
0.9929245
0.977843
0.9736212
0.9736212
0.9736212
0.9806017
0.9915672
0.9968529
0.999183
0.999829
0.9999552
0.9999867
0.9999978
0.9999998
0.9999998
0.9999998
0.9999995
0.9999985
0.9999946
0.9999507
0.9995196
0.9994512
0.9997387
0.9999588
0.9999972
0.9999987
0.9999923
0.999967
0.9999595
0.9999714
0.9999838
0.999995
0.9999996
1
1
1
1
1
1
1
1
1
1
0.9999999
0.9999989
0.9999863
0.9999555
0.9999577
0.9999806
0.9999957
0.999995
0.9999963
0.9999925
0.9999446
0.9999495
0.9999799
0.9999962
0.9999997
1
0.9999999
0.9999997
0.9999995
0.9999984
0.9999734
0.9997239
0.9987257
0.9980114
0.9988948
0.9997739
0.9999852
0.9999988
0.9999988
0.9999988
0.9999987
0.9999984
0.9999959
0.9999959
0.9999979
0.9999985
0.9999987
0.9999987
0.9999987
0.9999812
0.9994723
0.9942941
0.986204
0.9889271
0.9960331
0.9995174
0.999983
0.9999956
0.9999956
0.9999956
0.9999949
0.9999678
0.9997158
0.9989632
0.9992497
0.9997623
0.9999714
0.9999989
0.9999997
0.9999995
0.9999977
0.9999963
0.9999968
0.9999989
0.9999999
1
1
1
1
1
1
1
1
1
1
1
1
1
1
1
1
1
1
1
1
1
0.9999998
0.9999982
0.9999865
0.9999227
0.9998208
0.9998492
0.9999215
0.9999817
0.9999987
1
1
1
1
1
1
1
1
1
1
1
1
1
1
1
1
1
1
1
1
1
1
1
1
1
1
1
1
1
1
1
1
1
1
1
1
1
1
1
1
1
1
1
1
1
1
1
1
1
1
1
1
1
1
1
1
1
1
1
1
1
1
1
1
1
1
1
1
1
1
1
1
1
1
1
1
1
1
1
1
1
1
1
1
1
1
1
1
1
1
1
1
1
1
1
1
1
1
1
1
1
1
1
1
1
1
1
1
1
1
1
1
1
1
1
1
1
1
1
1
1
1
1
1
1
1
1
1
1
1
1
1
1
1
1
1
1
1
1
1
1
1
1
1
1
1
1
1
1
1
1
1
1
1
1
1
1
1
1
1
1
1
1
1
1
1
1
1
1
1
1
1
1
1
1
1
1
1
1
1
1
1
1
1
1
1
1
1
1
1
1
1
1
1
1
1
1
1
1
1
1
1
1
1
1
1
1
1
1
1
1
1
1
1
1
1
1
1
1
1
1
1
1
1
1
1
1
1
1
1
1
1
1
1
1
1
1
1
1
1
1
1
1
1
1
1
1
1
1
1
1
1
1
1
1
1
1
1
1
1
1
1
1
1
1
1
1
1
1
1
1
1
1
1
1
1
1
1
1
1
1
1
1
1
1
1
1
1
0.9999998
0.999995
0.9998148
0.9982692
0.9975135
0.9979238
0.9994127
0.9999741
0.9999602
0.9996821
0.9996751
0.9997263
0.9992869
0.9992237
0.9992669
0.9998976
0.9999915
0.9999943
0.999964
0.9999445
0.9999818
0.9999989
0.9999997
0.9999991
0.9999664
0.9994394
0.9936832
0.9537947
0.8477146
0.7675362
0.7675362
0.8342022
0.8798132
0.9543538
0.9932243
0.9994705
0.999872
0.9999395
0.9999832
0.9999981
0.9999992
0.9999992
0.9999987
0.9999915
0.9998984
0.9987103
0.9870322
0.9767056
0.9767696
0.9863056
0.995521
0.9984848
0.9995674
0.9999674
0.9999991
0.9999992
0.9999983
0.9999795
0.9998081
0.999237
0.9990082
0.999367
0.9997899
0.9997589
0.999379
0.9967822
0.9865793
0.9740013
0.9736212
0.9736212
0.9779399
0.9885726
0.9948744
0.9985164
0.999852
0.999997
0.9999998
0.9999998
0.9999998
0.9999998
0.9999998
0.9999991
0.999995
0.9999094
0.9995029
0.9994952
0.9998085
0.9999722
0.9999984
0.9999993
0.9999928
0.9999857
0.9999889
0.9999961
0.9999994
0.9999999
1
1
1
1
1
1
1
0.9999999
0.9999999
0.9999999
0.9999999
0.9999991
0.9999754
0.9999276
0.9999276
0.9999628
0.9999912
0.9999694
0.9999086
0.9998415
0.9998213
0.9998501
0.9999187
0.9999813
0.999999
1
1
1
0.9999996
0.9999811
0.9996344
0.9969143
0.9938218
0.9964135
0.9992424
0.9999492
0.9999984
0.9999988
0.9999969
0.9999843
0.9999602
0.9999618
0.9999825
0.9999933
0.9999895
0.9999829
0.9999833
0.9999872
0.9999945
0.9999957
0.9999788
0.9994588
0.9961063
0.9890603
0.9925549
0.9976933
0.9997214
0.9999859
0.9999933
0.9999919
0.9999923
0.9999902
0.9999277
0.9993709
0.998794
0.9988437
0.9993701
0.9998481
0.9999861
0.9999994
0.9999997
0.9999993
0.9999983
0.9999987
0.9999997
1
1
1
1
1
1
1
1
1
1
1
1
1
1
1
1
1
1
1
1
1
0.9999999
0.9999994
0.9999942
0.999941
0.9995131
0.9986561
0.9988206
0.9995539
0.9999457
0.9999983
1
1
1
1
1
1
1
1
1
1
1
1
1
1
1
1
1
1
1
1
1
1
1
1
1
1
1
1
1
1
1
1
1
1
1
1
1
1
1
1
1
1
1
1
1
1
1
1
1
1
1
1
1
1
1
1
1
1
1
1
1
1
1
1
1
1
1
1
1
1
1
1
1
1
1
1
1
1
1
1
1
1
1
1
1
1
1
1
1
1
1
1
1
1
1
1
1
1
1
1
1
1
1
1
1
1
1
1
1
1
1
1
1
1
1
1
1
1
1
1
1
1
1
1
1
1
1
1
1
1
1
1
1
1
1
1
1
1
1
1
1
1
1
1
1
1
1
1
1
1
1
1
1
1
1
1
1
1
1
1
1
1
1
1
1
1
1
1
1
1
1
1
1
1
1
1
1
1
1
1
1
1
1
1
1
1
1
1
1
1
1
1
1
1
1
1
1
1
1
1
1
1
1
1
1
1
1
1
1
1
1
1
1
1
1
1
1
1
1
1
1
0.9999999
0.9999999
0.9999999
0.9999999
0.9999999
0.9999999
1
1
1
1
1
1
1
1
1
1
1
1
1
1
1
1
1
1
1
1
1
1
1
1
1
1
1
1
1
1
1
1
1
1
1
1
1
1
1
1
1
1
1
1
1
0.9999999
0.9999996
0.9999995
0.9999996
0.9999998
0.9999998
0.9999998
0.9999998
0.9999998
0.9999999
0.9999999
1
1
1
1
1
1
1
1
1
1
1
1
1
1
1
1
1
1
1
1
1
1
1
0.9999996
0.9999765
0.9989273
0.9965821
0.9975491
0.9995468
0.9999775
0.9994735
0.9986723
0.9987909
0.9995975
0.9994168
0.9992236
0.9995313
0.9999812
0.9999949
0.9999904
0.9999929
0.9999994
1
1
0.9999999
0.9999999
0.999999
0.9999656
0.9993889
0.9941024
0.9613375
0.848464
0.7072181
0.6953625
0.7643851
0.8346251
0.9170321
0.9828052
0.9986564
0.9999189
0.9999749
0.9999915
0.9999989
0.9999992
0.9999991
0.9999938
0.9999
0.9988906
0.9920696
0.977133
0.9767057
0.9767057
0.9806512
0.9943646
0.9995825
0.9999902
0.9999954
0.9999945
0.9999709
0.9997552
0.9978814
0.9906201
0.9898617
0.9953971
0.9994192
0.9998553
0.9997609
0.999346
0.998882
0.9986415
0.9973802
0.9824991
0.971641
0.9729639
0.9887731
0.9983205
0.9999288
0.9999994
0.9999998
0.9999998
0.9999998
0.9999998
0.9999998
0.9999995
0.9999935
0.9998707
0.9995342
0.9995891
0.9998395
0.999977
0.9999987
0.9999994
0.9999982
0.9999954
0.9999961
0.999999
0.9999999
0.9999999
0.9999999
0.9999999
0.9999998
0.9999995
0.9999986
0.9999963
0.9999929
0.9999945
0.9999982
0.9999998
0.9999993
0.9999937
0.9999582
0.9999639
0.9999912
0.9999926
0.9999665
0.9996094
0.9980027
0.9966483
0.9977103
0.9992941
0.999937
0.9999989
1
1
0.9999998
0.9999931
0.9997669
0.9970125
0.9874765
0.9907134
0.9974424
0.9997663
0.999994
0.9999969
0.9999683
0.9997956
0.9994319
0.9994746
0.9997755
0.9999679
0.9999721
0.9998877
0.9996251
0.9995836
0.9996494
0.9997842
0.9999196
0.999981
0.9999652
0.9996186
0.9975911
0.9937557
0.9959693
0.9989114
0.9998498
0.9999097
0.999768
0.9998022
0.9999353
0.999972
0.9999217
0.9996337
0.9988689
0.9988294
0.9989512
0.9996026
0.9999496
0.9999984
0.9999999
0.9999999
0.9999997
0.9999997
0.9999998
0.9999999
1
1
1
1
1
1
1
1
1
1
1
1
1
1
1
1
1
1
1
1
0.9999999
0.9999981
0.9999727
0.9996502
0.9971517
0.9964236
0.9977432
0.9993876
0.9999354
0.9999983
1
1
1
1
1
1
1
1
1
1
1
1
1
1
1
1
1
1
1
1
1
1
1
1
1
1
1
1
1
1
1
1
1
1
1
1
1
1
1
1
1
1
1
1
1
1
1
1
1
1
1
1
1
1
1
1
1
1
1
1
1
1
1
1
1
1
1
1
1
1
1
1
1
1
1
1
1
1
1
1
1
1
1
1
1
1
1
1
1
1
1
1
1
1
1
1
1
1
1
1
1
1
1
1
1
1
1
1
1
1
1
1
1
1
1
1
1
1
1
1
1
1
1
1
1
1
1
1
1
1
1
1
1
1
1
1
1
1
1
1
1
1
1
1
1
1
1
1
1
1
1
1
1
1
1
1
1
1
1
1
1
1
1
1
1
1
1
1
1
1
1
1
1
1
1
1
1
1
1
1
1
1
1
1
1
1
1
1
1
1
1
1
1
1
1
1
1
1
1
1
1
1
1
1
1
1
1
1
1
1
1
1
1
1
1
1
1
1
1
1
1
1
1
1
1
1
1
1
1
1
1
1
0.9999999
0.9999999
0.9999999
0.9999999
0.9999999
0.9999999
0.9999999
1
1
1
1
1
1
1
1
1
1
1
1
1
1
1
1
1
1
1
1
1
1
1
1
1
1
1
1
0.9999999
0.9999996
0.999999
0.9999993
0.9999999
1
1
1
1
1
1
1
1
0.9999999
0.9999999
0.9999998
0.9999939
0.9999486
0.9998653
0.9998609
0.9998961
0.9999069
0.9999022
0.9999101
0.9999312
0.9999572
0.9999781
0.9999902
0.9999947
0.9999963
0.9999977
0.9999985
0.9999986
0.9999986
0.9999988
0.9999991
0.9999995
0.9999997
0.9999998
0.9999999
1
1
1
1
1
1
1
1
1
1
1
1
0.9999998
0.9999846
0.9991018
0.9964467
0.9976399
0.9996103
0.9997058
0.9974692
0.9974443
0.9996106
0.9998193
0.999267
0.9993363
0.9999511
0.9999969
0.9999994
0.9999998
1
1
1
0.9999999
1
1
1
0.9999998
0.9999952
0.9999267
0.9991114
0.9930776
0.9596346
0.7937808
0.6703932
0.6811557
0.7880215
0.8884025
0.9724981
0.9976441
0.9999415
0.9999985
0.9999992
0.9999992
0.999999
0.9999961
0.9999677
0.9997349
0.998457
0.9877366
0.9767057
0.9796938
0.9929407
0.9988566
0.9996848
0.9997679
0.9999024
0.9999519
0.9998231
0.9979483
0.9800768
0.9757579
0.9807756
0.9936202
0.9992801
0.9999763
0.9999748
0.9998551
0.9994445
0.9993296
0.9993358
0.9985793
0.9931204
0.9899013
0.9943718
0.9989289
0.9999439
0.9999992
0.9999998
0.9999998
0.9999998
0.9999998
0.9999998
0.9999993
0.9999887
0.9998497
0.9995914
0.9996541
0.9998722
0.999983
0.9999991
0.9999995
0.9999992
0.9999983
0.9999982
0.999999
0.9999992
0.9999993
0.9999996
0.9999995
0.9999973
0.9999687
0.9998885
0.9999058
0.9999616
0.9999929
0.9999995
0.9999996
0.9999989
0.9999983
0.9999985
0.9999985
0.9999983
0.9999793
0.999431
0.993394
0.9838299
0.9890039
0.9969834
0.9997808
0.9999974
1
1
0.9999983
0.9999229
0.9982139
0.987524
0.9855703
0.9922944
0.9988491
0.9999474
0.9999909
0.9999105
0.9990264
0.9968926
0.9971209
0.9988689
0.9998286
0.9999672
0.9998581
0.9992229
0.9958371
0.9862883
0.984117
0.989816
0.9969013
0.9996619
0.9999906
0.999984
0.9998061
0.9986402
0.9981497
0.9989298
0.9997482
0.9998565
0.9995376
0.9995168
0.999704
0.9999405
0.9999914
0.9999708
0.9998379
0.9990902
0.9989064
0.9992974
0.9998717
0.9999942
0.9999999
0.9999999
0.9999997
0.9999994
0.9999995
0.9999996
0.9999998
0.9999999
1
1
1
1
1
1
1
1
1
1
1
1
1
1
1
1
1
1
1
0.9999995
0.9999908
0.9998524
0.9985228
0.9964385
0.9964236
0.9975986
0.999485
0.999972
0.9999997
1
1
1
1
1
1
1
1
1
1
1
1
1
1
1
1
1
1
1
1
1
1
1
1
1
1
1
1
1
1
1
1
1
1
1
1
1
1
1
1
1
1
1
1
1
1
1
1
0.9999999
0.9999999
1
1
1
1
1
1
1
1
1
1
1
1
1
1
1
1
1
1
1
1
1
1
1
1
1
1
1
1
1
1
1
1
1
1
1
1
1
1
1
1
1
1
1
1
1
1
1
1
1
1
1
1
1
1
1
1
1
1
1
1
1
1
1
1
1
1
1
1
1
1
1
1
1
1
1
1
1
1
1
1
1
1
1
1
1
1
1
1
1
1
1
1
1
1
1
1
1
1
1
1
1
1
1
1
1
1
1
1
1
1
1
1
1
1
1
1
1
1
1
1
1
1
1
1
1
1
1
1
1
1
1
1
1
1
1
1
1
1
1
1
1
1
1
1
1
1
1
1
1
1
1
1
1
1
1
1
1
1
1
1
1
1
1
1
1
1
1
1
1
1
1
1
1
1
1
1
1
1
1
1
1
1
1
1
1
1
1
1
1
1
1
1
1
1
1
0.9999999
0.9999999
0.9999999
0.9999999
0.9999999
1
1
1
1
1
1
1
1
1
1
1
1
1
1
1
1
1
1
1
1
1
1
1
1
1
1
1
1
1
0.9999999
0.9999995
0.9999968
0.99999
0.9999907
0.9999958
0.9999984
0.9999991
0.9999996
0.9999999
0.9999998
0.999997
0.9999766
0.9999424
0.9999414
0.9999262
0.9993436
0.9958113
0.9930696
0.9941771
0.9952589
0.9936843
0.9896799
0.9905599
0.9934855
0.9968912
0.998985
0.9993542
0.9995804
0.9998548
0.9999682
0.9999601
0.9999516
0.9999443
0.9999304
0.9999198
0.9999164
0.9999079
0.999946
0.9999926
0.9999999
1
1
1
1
1
1
1
1
1
1
1
1
0.9999999
0.9999918
0.9993822
0.9946313
0.9964941
0.9995261
0.9984409
0.9974443
0.9992257
0.999945
0.9997183
0.9996372
0.9999102
0.9999934
0.9999995
1
1
1
1
1
0.9999999
1
1
1
1
0.9999999
0.9999997
0.9999955
0.9999363
0.9992923
0.9916382
0.9011624
0.6281324
0.5957678
0.7367496
0.8755934
0.9673845
0.9971711
0.9999411
0.9999987
0.9999989
0.9999989
0.9999988
0.9999943
0.9999416
0.9995982
0.9980011
0.992024
0.9907192
0.994062
0.9971012
0.9982281
0.9993995
0.9999455
0.999903
0.9984718
0.9850377
0.9757579
0.9757579
0.9826604
0.9964626
0.9998551
0.999998
0.9999879
0.9998573
0.9995849
0.999689
0.9998713
0.9999174
0.9998823
0.9995839
0.9992514
0.9994858
0.9998623
0.9999905
0.9999997
0.9999998
0.9999998
0.9999998
0.9999998
0.9999993
0.9999862
0.9998492
0.9996539
0.9997126
0.9998998
0.9999881
0.9999994
0.9999995
0.9999995
0.9999983
0.9999943
0.9999885
0.9999896
0.9999957
0.999999
0.9999967
0.9999625
0.999888
0.9998866
0.9999051
0.9999707
0.9999965
0.9999995
0.9999996
0.9999996
0.9999993
0.9999959
0.9999883
0.9999647
0.9993979
0.9880643
0.9795287
0.9813781
0.9940978
0.9995417
0.9999941
1
0.9999997
0.9999815
0.9993032
0.9910778
0.9849704
0.9881824
0.9967541
0.9997447
0.9999759
0.9998171
0.9981177
0.9921499
0.9919268
0.9961575
0.9995243
0.9999562
0.9999247
0.9992984
0.9940168
0.9638224
0.9226778
0.9226583
0.9340235
0.9775449
0.9974641
0.9999269
0.9999989
0.9999933
0.999926
0.9997762
0.9997653
0.9998972
0.9999442
0.9998508
0.9995168
0.9996329
0.9998821
0.9999874
0.9999954
0.9999843
0.9998555
0.9995795
0.9996208
0.9998522
0.9999806
0.9999992
0.999998
0.9999887
0.9999843
0.9999852
0.9999878
0.9999923
0.9999971
0.9999996
1
1
1
1
1
1
1
1
1
1
1
1
1
1
1
1
1
1
0.9999999
0.9999992
0.9999925
0.9999166
0.9990405
0.9965461
0.9973945
0.9991972
0.9999103
0.9999975
1
1
1
1
1
1
1
1
1
1
1
1
1
1
1
1
1
1
1
1
1
1
1
1
1
1
1
1
1
1
1
1
1
1
1
1
1
1
1
1
1
1
1
1
1
1
1
0.9999999
0.9999999
0.9999999
1
1
1
1
1
1
1
1
1
1
1
1
1
1
1
1
1
1
1
1
1
1
1
1
1
1
1
1
1
1
1
1
1
1
1
1
1
1
1
1
1
1
1
1
1
1
1
1
1
1
1
1
1
1
1
1
1
1
1
1
1
1
1
1
1
1
1
1
1
1
1
1
1
1
1
1
1
1
1
1
1
1
1
1
1
1
1
1
1
1
1
1
1
1
1
1
1
1
1
1
1
1
1
1
1
1
1
1
1
1
1
1
1
1
1
1
1
1
1
1
1
1
1
1
1
1
1
1
1
1
1
1
1
1
1
1
1
1
1
1
1
1
1
1
1
1
1
1
1
1
1
1
1
1
1
1
1
1
1
1
1
1
1
1
1
1
1
1
1
1
1
1
1
1
1
1
1
1
1
1
1
1
1
1
1
1
1
1
1
1
1
1
1
1
1
1
1
1
1
1
1
1
1
1
1
1
1
1
1
1
1
1
1
1
1
1
1
1
1
1
1
1
1
1
1
1
1
1
1
1
1
1
1
1
1
1
1
1
1
1
1
1
0.9999998
0.9999983
0.9999838
0.9999136
0.9997603
0.9995127
0.9995047
0.9996981
0.9999443
0.9999787
0.9998477
0.9982191
0.993628
0.9917236
0.9913151
0.9792635
0.9223493
0.9124093
0.9395239
0.9389114
0.8836006
0.7520504
0.7430277
0.8213709
0.9300367
0.9831681
0.9976831
0.9996947
0.9999017
0.9999165
0.9992938
0.9895718
0.9846444
0.9867046
0.9917053
0.9971715
0.9995994
0.9999752
0.9999989
1
1
1
1
1
1
1
1
1
1
1
1
1
1
0.9999992
0.9998398
0.9956151
0.9942618
0.9974746
0.9992829
0.9974443
0.9984399
0.9997658
0.9999686
0.9999311
0.9999429
0.9999861
0.9999987
0.9999999
1
1
1
1
1
1
1
1
1
0.9999999
0.9999999
0.9999998
0.9999998
0.9999983
0.9999699
0.9996243
0.9957043
0.9482341
0.6527649
0.5264901
0.6224621
0.8401934
0.9651121
0.9972515
0.9999518
0.9999989
0.9999989
0.9999989
0.9999975
0.9999898
0.9999644
0.9998888
0.99947
0.996276
0.9942646
0.995957
0.9989495
0.9999198
0.9999759
0.9998585
0.9986321
0.9870619
0.9773522
0.9877948
0.9973649
0.9998325
0.9999974
0.9999991
0.9999921
0.9999331
0.9998576
0.9999075
0.9999772
0.9999845
0.9999845
0.9999826
0.9999618
0.9999096
0.999891
0.9999052
0.9999381
0.9999728
0.9999926
0.9999984
0.9999992
0.9999985
0.9999842
0.9998533
0.9997135
0.9997631
0.9999176
0.9999895
0.9999994
0.9999995
0.9999973
0.9999706
0.9999053
0.9999339
0.9999802
0.9999978
0.9999977
0.9999903
0.999985
0.9999833
0.9999798
0.9999822
0.9999864
0.9999939
0.9999993
0.999999
0.9999842
0.9998191
0.9993878
0.9993894
0.9992785
0.9972345
0.9850558
0.9876372
0.9959043
0.9995862
0.9999911
0.9999999
0.9999961
0.9998054
0.9949031
0.9847416
0.9864977
0.9949038
0.9993526
0.9999445
0.9996411
0.997318
0.9874994
0.9864247
0.9931939
0.9989853
0.9999191
0.9999562
0.9998928
0.9986578
0.9756955
0.9227185
0.9226583
0.9226583
0.9226583
0.9373274
0.9841827
0.9990391
0.9999895
0.9999991
0.999998
0.9999925
0.9999905
0.9999948
0.9999958
0.9999759
0.9998404
0.9997963
0.9999
0.9999856
0.9999954
0.9999954
0.9999882
0.999967
0.9999453
0.9999523
0.9999816
0.9999984
0.9999979
0.9999703
0.9997328
0.9996095
0.9996517
0.9997765
0.9999328
0.9999951
1
1
1
1
1
1
1
1
1
1
1
1
1
1
1
1
1
1
1
1
0.9999996
0.9999936
0.99993
0.9996474
0.9993373
0.9994223
0.9998107
0.9999794
0.9999994
1
1
1
0.9999999
0.9999999
1
1
1
1
1
1
1
1
1
1
1
1
1
1
1
1
1
1
1
1
1
1
1
1
1
1
1
1
1
1
1
1
1
1
1
1
1
1
1
1
0.9999999
0.9999997
0.9999998
0.9999999
1
1
1
1
1
1
1
1
1
1
1
1
1
1
1
1
1
1
1
1
1
1
1
1
1
1
1
1
1
1
1
1
1
1
1
1
1
1
1
1
1
1
1
1
1
1
1
1
1
1
1
1
1
1
1
1
1
1
1
1
1
1
1
1
1
1
1
1
1
1
1
1
1
1
1
1
1
1
1
1
1
1
1
1
1
1
1
1
1
1
1
1
1
1
1
1
1
1
1
1
1
1
1
1
1
1
1
1
1
1
1
1
1
1
1
1
1
1
1
1
1
1
1
1
1
1
1
1
1
1
1
1
1
1
1
1
1
1
1
1
1
1
1
1
1
1
1
1
1
1
1
1
1
1
1
1
1
1
1
1
1
1
1
1
1
1
1
1
1
1
1
1
1
1
1
1
1
1
1
1
0.9999999
0.9999998
0.9999998
0.9999999
1
1
1
0.9999999
0.9999998
0.9999997
0.9999997
0.9999997
0.9999998
0.9999999
0.9999997
0.9999994
0.9999993
0.9999994
0.9999996
0.9999999
1
1
1
1
1
1
1
1
1
1
1
1
1
1
1
1
1
1
1
1
1
1
1
1
1
1
1
1
1
1
1
1
1
1
1
1
1
1
1
1
1
1
1
1
1
1
1
1
1
1
1
1
1
1
1
1
0.9999995
0.9999903
0.9998279
0.9976302
0.9820939
0.9659627
0.9767741
0.994874
0.9986567
0.9957759
0.9633476
0.8698908
0.8071509
0.8046062
0.8047118