/*--------------------------------*- C++ -*----------------------------------*\
| =========                 |                                                 |
| \\      /  F ield         | foam-extend: Open Source CFD                    |
|  \\    /   O peration     | Version:     3.1                                |
|   \\  /    A nd           | Web:         http://www.extend-project.de       |
|    \\/     M anipulation  |                                                 |
\*---------------------------------------------------------------------------*/
FoamFile
{
    version     2.0;
    format      ascii;
    class       volScalarField;
    location    "8.5";
    object      p;
}
// * * * * * * * * * * * * * * * * * * * * * * * * * * * * * * * * * * * * * //

dimensions      [1 -1 -2 0 0 0 0];

internalField   nonuniform List<scalar> 
119952
(
6704.903
6656.479
6780.208
6764.058
6799.551
6790.97
6803.354
6810.946
6817.827
6829.1
6832.308
6836.706
6848.158
6855.904
6868.267
6907.916
6886.958
6922.38
6920.932
6964.475
6935.656
6907.188
6911.423
6908.328
6876.606
6855.861
6849.186
6869.164
6917.664
8248.026
5411.003
5484.884
5494.991
5493.049
5525.109
5601.701
5666.67
5739.364
5794.28
5817.648
5913.252
5915.003
5911.672
5885.994
5854.246
5820.047
5787.751
5761.451
5827.285
5772.895
5703.865
5650.256
5613.305
5576.138
5552.551
5567.746
5522.226
5536.667
5570.396
5652.976
5737.901
5827.417
5922.722
6022.073
6120.209
6206.111
6282.98
6359.793
6416.458
6450.007
6479.463
6500.968
6511.551
6524.424
6534.896
6542.416
6547.722
6554.279
6559.787
6568.492
6579.161
6589.312
6600.185
6612.574
6622.192
6634.229
6641.095
6648.435
6650.714
6641.694
6631.179
6618.522
6591.981
6563.495
6549.446
6564.586
6572.575
6515.278
6462.773
6388.015
6259.089
6122.88
5983.018
5836.442
5697.556
5579.914
5493.209
5433.566
5411.023
5432.967
5484.963
5539.545
5616.639
5724.963
5844.686
5968.461
6099.12
6232.166
6345.228
6439.868
6533.939
6630.574
6717.437
6796.993
6866.407
6928.486
6978.102
7016.871
7048.509
7076.515
7097.888
7116.989
7115.573
7113.114
7115.053
7115.88
7109.488
7103.886
7105.106
7091.877
7082.671
7084.244
7081.637
7081.868
7084.698
7091.57
7079.169
7055.636
7021.14
7016.954
7025.204
7020.946
7013.585
7009.265
7008.431
7014.049
7017.376
7018.036
7011.343
7003.284
6989.872
6975.554
6965.051
6957.417
6948.548
6938.988
6931.903
6929.502
6930.971
6937.446
6946.435
6953.848
6960.964
6966.061
6969.169
6971.49
6973.526
6974.517
6976.644
6980.914
6986.629
6986.67
6987.105
6982.406
6978.873
6971.466
6969.308
6965.925
6965.367
6968.67
6975.276
6984.116
6996.786
7016.027
7036.422
7066.112
7093.758
7146.167
7173.664
7194.753
7220.303
7265.184
7247.374
7309.116
7328.698
7346.121
7363.954
7381.333
7398.125
7413.446
7430.758
7448.109
7457.822
7473.339
7486.717
7489.252
7552.132
7540.918
7553.373
7562.802
7597.096
7594.787
7604.704
7616.752
7627.95
7639.358
7650.293
7661
7671.635
7683.222
7693.882
7704.496
7714.762
7726.023
7736.074
7745.649
7757.568
7765.818
7773.014
7781.103
7788.208
7794.893
7798.713
7804.09
7806.644
7809.901
7824.993
7846.989
7877.103
7924.981
7915.39
7915.371
7924.284
7930.809
7938.568
7939.173
7945.043
7946.561
7950.676
7945.721
7941.351
7929.946
7926.86
7946.642
7953.551
7990.354
7995.643
7958.265
7966.363
7966.395
7966.566
7965.2
7959.373
7945.685
7928.995
7908.109
7927.231
7944.687
7963.71
7995.124
8015.069
8029.114
8032.947
8031.3
8023.41
8019.443
8018.178
8012.652
8006.833
8000.338
8008.382
8033.163
8044.95
8051.432
8055.759
8053.777
8047.896
8041.32
8037.536
8039.049
8044.59
8036.259
8027.472
8019.654
8011.426
8002.335
7989.694
7972.821
7953.619
7947.902
7972.252
7981.717
8002.365
8004.665
8008.309
8006.808
7999.944
7991.037
7980.356
7969.267
7957.676
7940.671
7938.556
7925.007
7903.203
7881.74
7873.694
7884.563
7908.799
7931.354
7936.441
7936.667
7931.25
7923.008
7917.934
7915.049
7917.122
7914.038
7899.869
7881.492
7854.451
7795.841
7746.626
7779.591
7813.005
7857.528
7872.667
7886.567
7883.422
7880.294
7876.525
7872.367
7869.504
7868.067
7866.299
7863.57
7861.531
7861.767
7861.676
7860.82
7858.426
7854.192
7845.173
7829.714
7835.014
7874.297
7900.236
7915.956
7924.691
7929.009
7935.628
7936.749
7930.495
7936.195
7939.064
7940.947
7942.76
7945.465
7949.342
7959.719
7947.341
7960.484
7962.236
7965.497
7969.375
7973.261
7977.618
7981.695
7985.953
7987.738
7988.63
7992.348
7995.726
7998.666
8000.882
8002.956
8004.771
8005.94
8005.269
8003.324
8004.526
8009.831
8014.447
8008.715
7990.136
7976.807
4796.232
4796.804
4504.179
4454.375
4373.157
4348.253
4308.423
4306.807
4250.157
4344.935
4555.419
4640.044
4733.957
4823.563
4912.187
5003.267
5092.319
5155.873
5170.178
5224.568
5230.075
5240.041
5251.131
5280.244
5299.584
5319.218
5337.293
5356.538
5381.909
5357.385
5309.719
5267.069
5230.75
5202.433
5185.408
5176.465
5189.117
5203.161
5207.943
5213.542
5220.881
5249.733
5312.429
5386.202
5450.575
5521.456
5588.614
5619.347
5622.275
5611.396
5591.716
5569.136
5541.54
5513.681
5499.841
5491.734
5403.191
5368.821
5332.83
5295.852
5258.581
5226.101
5202.51
5190.462
5201.905
5247.241
5318.048
5406.593
5506.637
5613.825
5722.99
5828.575
5926.472
6012.708
6078.855
6125.101
6158.347
6183.614
6201.117
6209.356
6216.636
6223.592
6230.207
6234.951
6238.452
6244.86
6255.717
6268.908
6281.879
6292.55
6303.813
6316.085
6329.024
6340.909
6350.577
6354.686
6348.874
6331.778
6309.484
6279.54
6229.116
6176.203
6161.322
6173.533
6151.227
6080.779
5971.033
5835.547
5683.873
5530.043
5386.862
5263.25
5162.758
5094.431
5060.089
5059.831
5089.234
5145.187
5223.353
5314.794
5423.594
5549.099
5675.461
5797.492
5923.627
6039.189
6139.93
6229.52
6316.255
6403
6479.363
6547.963
6608.876
6656.981
6693.299
6723.2
6747.492
6766.678
6781.305
6790.957
6794.99
6794.39
6791.471
6787.019
6781.689
6775.92
6770.984
6767.231
6765.052
6765.328
6764.246
6762.967
6759.281
6752.672
6738.125
6718.097
6707.751
6705.453
6700.278
6696.744
6698.09
6702.141
6707.239
6717.968
6721.306
6711.681
6691.509
6671.107
6657.382
6650.669
6646.032
6639.123
6630.593
6623.155
6619.95
6622.218
6628.983
6638.109
6647.303
6653.854
6657.801
6661.346
6665.017
6667.376
6669.754
6673.636
6678.68
6681.944
6682.6
6680.471
6675.857
6668.38
6661.795
6658.158
6655.969
6656.468
6659.893
6668.022
6678.414
6693.168
6707.722
6735.545
6766.464
6790.172
6875.693
6900.62
6923.669
6953.205
6984.449
7008.137
7032.859
7054.202
7073.161
7091.827
7108.695
7125.236
7141.22
7157.406
7172.677
7188.488
7203.927
7221.494
7241.917
7249.621
7265.171
7277.763
7290.486
7305.994
7319.479
7330.271
7341.827
7353.085
7364.242
7375.339
7386.182
7396.946
7407.889
7418.835
7429.595
7440.239
7450.04
7459.393
7470.98
7481.149
7489.508
7497.598
7505.245
7511.852
7517.864
7520.711
7522.689
7526.596
7539.15
7559.795
7585.301
7611.098
7625.817
7629.66
7639.72
7648.28
7654.555
7659.648
7664.346
7668.419
7669.618
7669.269
7662.638
7649.391
7632.847
7633.831
7669.444
7700.804
7712.477
7720.229
7651.765
7658.978
7661.714
7660.34
7658.47
7650.7
7635.888
7617.659
7607.17
7620.431
7646.752
7672.059
7694.575
7712.766
7721.932
7721.778
7717.735
7713.509
7711.295
7710.741
7709.269
7706.289
7705.274
7713.796
7728.613
7738.231
7743.369
7745.511
7744.464
7740.438
7734.269
7729.688
7727.608
7725.277
7723.384
7718.912
7712.183
7704.4
7693.87
7680.196
7663.641
7646.282
7645.451
7670.344
7693.056
7699.387
7698.635
7698.436
7695.143
7688.309
7679.701
7669.825
7658.358
7647.391
7639.321
7629.027
7616.568
7591.468
7571.933
7574.258
7589.181
7606.087
7618.699
7624.092
7623.579
7619.054
7613.428
7608.927
7607.006
7607.16
7605.209
7587.89
7559.083
7522.635
7483.58
7468.229
7489.706
7519.988
7537.666
7551.138
7561.236
7567.79
7569.736
7567.174
7564.5
7560.853
7558.505
7557.665
7556.617
7555.545
7554.563
7554.396
7553.194
7551.898
7549.737
7546.708
7547.28
7554.643
7573.35
7592.517
7602.792
7608.246
7613.119
7617.33
7621.653
7625.42
7627.342
7629.049
7632.812
7636.906
7640.355
7643.49
7646.518
7649.571
7652.79
7656.293
7660.111
7663.944
7667.718
7671.513
7675.281
7678.841
7682.194
7684.986
7687.395
7689.675
7691.738
7693.607
7695.17
7696.214
7696.661
7696.378
7696.551
7698.113
7700.684
7702.784
7700.584
7694.889
7691.941
3618.595
3766.269
3894.251
3983.161
4230.026
4322.237
4523.073
4620.342
4716.607
4664.503
4906.786
4930.822
4964.794
5024.454
5037.308
5066.832
5109.315
5148.592
5144.05
5147.696
5176.414
5196.82
5217.619
5224.494
5206.859
5194.778
5151.491
5108.347
5078.679
5018.747
4974.509
4935.703
4894.926
4855.284
4810.615
4762.538
4705.028
4615.14
4506.746
4378.416
4240.052
4125.251
4044.339
3996.577
3973.655
3997.127
4087.042
4171.751
4254.212
4353.437
4454.532
4547.488
4641.683
4737.103
4830.064
4901.54
4886.052
4897.677
4891.941
4899.717
4930.357
4966.132
4986.792
4994.314
4999.076
5009.194
5018.322
5011.587
4981.65
4938.048
4891.378
4853.08
4835.056
4828.445
4834.384
4849.43
4869.239
4893.394
4922.142
4962.297
5021.169
5089.348
5158.242
5232.704
5291.295
5312.76
5303.65
5279.839
5257.129
5239.398
5224.617
5211.172
5195.936
5181.124
5160.263
5128.805
5087.247
5040.99
4993.934
4954.687
4941.926
4940.447
4954.923
4985.736
5041.433
5123.347
5226.287
5342.543
5460.015
5573.289
5678.293
5768.66
5839.496
5888.102
5922.226
5945.98
5961.188
5968.45
5971.787
5974.875
5978.177
5980.072
5983.462
5991.299
6004.204
6018.412
6032.332
6044.456
6055.615
6070.199
6087.559
6103.88
6117.233
6125.04
6121.156
6104.934
6081.871
6048.76
5999.935
5941.867
5910.353
5882.997
5828.909
5736.766
5612.255
5475.587
5333.099
5190.139
5055.924
4942.148
4852.765
4794.668
4770.085
4777.753
4814.356
4872.453
4950.602
5042.512
5150.117
5277.161
5405.999
5526.316
5652.29
5775.288
5865.661
5957.415
6047.582
6132.324
6207.504
6275.24
6333.754
6380.314
6417.349
6447.335
6472.225
6492.747
6509.126
6520.398
6525.841
6526.236
6524.141
6520.745
6516.402
6512.187
6507.914
6504.772
6502.17
6500.55
6501.235
6499.084
6495.819
6492.726
6486.616
6474.534
6463.815
6456.925
6457.379
6461.919
6458.028
6449.644
6451.572
6463.836
6467.817
6455.906
6436.685
6420.398
6413.949
6409.818
6403.855
6395.933
6384.899
6374.954
6371.263
6373.593
6381.263
6390.488
6400.575
6406.977
6410.359
6409.149
6422.409
6439.289
6438.838
6438.305
6440.439
6441.949
6439.971
6436.358
6430.764
6424.415
6416.694
6410.797
6407.838
6405.724
6406.823
6411.614
6419.615
6433.887
6463.557
6485.916
6506.131
6533.823
6564.891
6594.971
6625.373
6656.018
6683.283
6706.283
6727.884
6749.295
6769.785
6789.07
6806.996
6823.79
6839.903
6855.594
6871.194
6886.851
6902.609
6918.479
6934.008
6948.667
6962.768
6975.583
6988.473
7001.436
7014.378
7026.761
7038.477
7049.756
7060.7
7071.511
7082.377
7093.443
7104.522
7115.214
7125.442
7134.946
7142.924
7155.078
7168.735
7177.622
7185.147
7192.882
7200.66
7207.603
7213.579
7219.043
7224.726
7232.846
7246.199
7264.437
7283.495
7299.805
7312.936
7323.384
7331.964
7339.302
7345.667
7350.944
7355.52
7358.869
7360.523
7358.14
7351.879
7344.739
7342.86
7351.114
7372.051
7392.219
7405.616
7411.083
7414.937
7416.439
7416.152
7414.734
7412.371
7407.243
7398.804
7389.162
7384.06
7387.536
7403.973
7422.568
7439.014
7452.439
7462.785
7468.564
7470.918
7471.828
7472.4
7470.333
7466.939
7463.816
7462.797
7465.408
7474.334
7483.083
7487.985
7491.007
7492.973
7493.015
7491.286
7489.498
7488.374
7486.382
7480.556
7473.292
7466.078
7458.546
7448.921
7438.37
7427.503
7417.403
7413.049
7420.91
7432.465
7439.599
7443.598
7446.265
7445.67
7440.108
7432.147
7422.909
7412.849
7402.321
7391.509
7382.071
7369.591
7350.714
7340.656
7341.391
7351.428
7363.928
7372.811
7375.486
7374.352
7371.461
7368.16
7365.09
7362.239
7358.497
7350.904
7336.017
7319.731
7290.206
7249.798
7239.494
7259.704
7280.788
7294.095
7306.371
7317.109
7318.326
7316.708
7316.223
7314.06
7311.347
7311.766
7309.659
7308.381
7309.018
7308.924
7308.089
7307.532
7306.86
7307.194
7308.108
7309.871
7315.626
7330.472
7346.958
7357.333
7364.591
7370.651
7375.012
7377.057
7378.489
7380.415
7383.714
7387.297
7388.933
7390.807
7394.047
7397.96
7402.131
7406.294
7410.323
7414.278
7418.085
7421.691
7425.115
7428.402
7431.744
7435.144
7438.262
7441.101
7443.561
7445.815
7447.925
7449.829
7451.341
7452.182
7452.202
7452.633
7453.221
7454.336
7454.28
7452.116
7448.51
7444.49
2956.173
2898.302
2687.482
2898.291
2807.906
2788.254
2729.614
2771.762
2796.242
2817.563
2881.856
2978.595
3096.61
3283.48
3487.788
3682.925
3861.652
4023.852
4170.556
4315.364
4472.894
4569.567
4605.439
4631.671
4700.775
4728.66
4749.034
4783.272
4821.178
4855.707
4887.394
4822.718
4867.469
4905.119
4925.464
4928.647
4908.035
4876.629
4835.303
4787.37
4746.598
4705.512
4659.344
4609.849
4570.414
4541.91
4518.931
4473.453
4383.759
4254.15
4094.861
3940.686
3808.867
3706.922
3645.515
3619.914
3624.18
3655.914
3710.813
3788.185
3884.106
3996.297
4113.225
4230.001
4339.762
4444.853
4540.064
4606.689
4639.644
4650.221
4640.098
4660.367
4693.861
4724.767
4736.434
4726.226
4705.825
4707.641
4727.046
4739.009
4715.96
4660.62
4598.645
4556.995
4539.94
4535.735
4541.1
4556.596
4587.463
4636.623
4693.25
4760.912
4839.744
4919.494
4991.69
5047.313
5073.43
5069.695
5049.473
5025.67
5008.054
4994.59
4983.604
4974.757
4965.317
4950.729
4925.817
4888.562
4840.62
4788.622
4734.951
4681.988
4637.527
4624.651
4630.349
4666.316
4733.389
4823.649
4937.643
5063.228
5192.442
5316.105
5428.496
5524.224
5598.074
5649.417
5683.419
5705.075
5717.377
5721.618
5720.861
5719.891
5719.992
5720.205
5721.622
5728.097
5741.073
5759.617
5779.475
5793.42
5807.444
5826.642
5844.286
5864.026
5887.341
5897.713
5897.729
5879.001
5853.469
5821.146
5774.348
5716.198
5667.181
5607.149
5521.508
5407.467
5273.199
5138.575
5003.059
4869.861
4745.283
4639.91
4561.853
4514.228
4498.912
4510.989
4551.146
4609.787
4687.638
4785.028
4890.094
5011.367
5135.397
5262.155
5378.895
5483.476
5584.832
5681.65
5770.382
5851.76
5924.709
5989.752
6047.069
6095.826
6135.25
6166.638
6192.188
6213.343
6230.426
6243.221
6250.568
6252.423
6251.078
6248.469
6245.068
6240.963
6236.056
6231.228
6226.98
6224.976
6223.568
6222.243
6221.612
6219.47
6216.499
6213.498
6207.699
6198.858
6200.367
6203.452
6200.956
6198.088
6195.769
6195.77
6199.161
6193.161
6183.746
6177.423
6173.393
6168.592
6162.338
6153.539
6138.928
6123.862
6116.484
6118.183
6127.425
6138.937
6148.716
6157.836
6162.213
6163.593
6178.51
6195.879
6201.93
6201.721
6200.688
6200.125
6198.203
6191.431
6181.962
6166.625
6163.036
6166.836
6157.461
6152.885
6160.666
6171.831
6185.472
6198.005
6221.001
6235.859
6249.575
6275.505
6301.202
6331.8
6363.081
6392.302
6425.315
6458.521
6484.367
6506.864
6525.841
6543.63
6560.848
6577.816
6594.43
6610.68
6626.492
6641.883
6656.944
6671.9
6686.506
6700.244
6713.219
6725.852
6737.908
6753.464
6769.562
6781.313
6792.591
6803.986
6815.26
6826.339
6837.583
6849.185
6860.483
6871.437
6882.007
6892.256
6902.286
6912.01
6921.18
6930.359
6939.381
6947.809
6956.21
6964.337
6971.758
6978.813
6986.17
6994.455
7005.872
7020.761
7036.1
7049.883
7062.041
7073.133
7082.459
7090.308
7096.967
7102.614
7107.38
7110.905
7112.53
7111.992
7110.399
7109.032
7110.549
7117.309
7130.731
7144.672
7154.741
7161.07
7163.903
7165.332
7165.977
7166.033
7165.476
7163.061
7159.081
7154.993
7153.402
7158.3
7170.302
7184.73
7198.797
7209.928
7217.129
7220.708
7223.065
7224.358
7224.145
7223.545
7223.403
7223.788
7225.214
7229.153
7235.57
7241.463
7245.259
7247.006
7247.089
7245.715
7243.191
7240.325
7237.473
7234.219
7230.037
7224.827
7219.146
7212.882
7205.584
7197.9
7190.221
7183.643
7180.911
7185.749
7193.153
7198.334
7199.671
7198.125
7194.124
7188.466
7181.822
7174.445
7166.299
7158.826
7149.641
7140.944
7131.767
7118.431
7108.68
7106.483
7110.108
7115.635
7120.303
7122.016
7121.184
7118.395
7114.646
7111.121
7107.97
7104.538
7098.621
7090.315
7080.941
7058.063
7027.106
7019.642
7027.613
7039.047
7051.001
7059.639
7066.301
7068.181
7066.277
7067.181
7066.225
7063.87
7064.336
7062.354
7061.031
7062.212
7062.174
7061.717
7061.588
7062.403
7063.94
7066.219
7069.487
7075.095
7084.833
7096.217
7104.785
7110.274
7115.001
7119.733
7123.753
7127.578
7131.726
7136.289
7139.839
7141.61
7144.614
7148.66
7152.836
7156.845
7160.829
7164.767
7168.581
7172.318
7175.968
7179.574
7183.155
7186.68
7190.061
7193.204
7196.044
7198.547
7200.806
7202.891
7204.708
7206.143
7207.07
7207.578
7208.2
7209.006
7209.877
7210.304
7210.081
7208.988
7207.849
2859.015
2885.356
2936.28
2880.433
2904.425
2865.378
2878.56
2869.075
2853.723
2816.665
2768.113
2691.329
2625.645
2560.152
2536.137
2473.093
2388.64
2361.456
2354.025
2365.613
2403.192
2488.325
2619.663
2787.739
2977.933
3190.337
3390.429
3554.792
3727.912
3871.598
4001.29
4136.614
4236.096
4272.073
4303.206
4348.244
4380.599
4401.626
4428.705
4461.31
4490.321
4515.085
4538.228
4573.554
4615.422
4644.698
4651.03
4634.785
4599.234
4555.872
4500.572
4440.247
4405.665
4377.363
4333.078
4296.649
4271.746
4252.529
4206.74
4111.484
3972.713
3804.846
3641.132
3496.218
3388.976
3325.963
3307.643
3317.326
3346.734
3399.89
3475.237
3569.266
3685.59
3816.481
3943.984
4067.839
4180.114
4279.995
4357.91
4406.63
4426.066
4418.085
4431.289
4456.365
4496.641
4495.543
4454.837
4408.105
4396.455
4410.011
4413.995
4374.957
4303.112
4234.386
4201.04
4194.597
4200.328
4212.924
4242.359
4296.181
4368.087
4455.08
4551.648
4649.463
4742.197
4818.57
4864.091
4874.801
4859
4832.608
4805.241
4782.943
4767.461
4757.966
4750.761
4741.487
4726.89
4703.112
4661.909
4604.793
4539.038
4476.019
4416.163
4361.821
4339.8
4334.607
4355.62
4428.091
4518.412
4638.453
4775.346
4917.827
5053.825
5174.066
5274.822
5353.179
5407.013
5441.821
5461.486
5470.184
5472.582
5469.91
5464.642
5459.422
5455.637
5455.802
5463.038
5477.698
5496.719
5514.001
5532.384
5552.757
5574.572
5604.354
5640.593
5670.436
5687.032
5680.534
5658.247
5627.95
5590.593
5543.326
5486.092
5420.565
5333.832
5224.455
5096.065
4957.558
4823.525
4695.066
4570.408
4456.809
4363.032
4293.957
4254.08
4245.448
4262.21
4301.565
4360.788
4438.02
4531.871
4636.443
4751.697
4873.812
4999.795
5110.067
5209.938
5312.553
5408.28
5495.655
5574.427
5645.118
5708.651
5764.674
5812.966
5852.782
5884.715
5910.758
5932.094
5949.306
5962.894
5972.16
5975.809
5975.07
5972.332
5969.486
5965.841
5960.357
5954.947
5950.906
5948.404
5945.848
5943.276
5942.541
5942.99
5943.337
5938.83
5931.586
5935.444
5949.301
5954.361
5951.092
5944.912
5937.414
5932.701
5936.272
5940.33
5937.028
5932.008
5927.372
5923.673
5920.486
5910.341
5890.893
5876.852
5875.511
5875.93
5878.662
5889.021
5893.313
5902.123
5923.148
5952.724
5948.371
5932.548
5949.912
5969.786
5971.932
5965.165
5957.242
5945.422
5930.018
5919.873
5918.347
5916.698
5915.654
5915.241
5914.467
5919.309
5935.489
5948.909
5965.161
5982.96
5999.364
6023.56
6053.741
6084.525
6107.659
6130.045
6160.492
6192.8
6224.15
6253.401
6278.31
6299.519
6317.168
6333.546
6349.285
6364.983
6380.806
6396.51
6411.928
6427.002
6441.823
6456.435
6470.815
6484.767
6498.324
6510.443
6521.748
6533.463
6545.725
6557.995
6569.848
6581.228
6592.455
6603.735
6615.184
6626.707
6638.015
6649.118
6659.973
6666.863
6672.579
6682.022
6693.129
6703.265
6712.417
6720.872
6728.566
6735.932
6743.713
6752.968
6763.925
6776.963
6790.998
6804.415
6816.045
6826.061
6834.83
6842.519
6849.124
6854.763
6859.539
6863.327
6865.9
6867.298
6868.055
6869.056
6872.089
6878.383
6888.105
6898.578
6907.756
6913.834
6917.789
6920.416
6922.036
6922.964
6923.22
6922.844
6921.66
6921.122
6922.228
6925.416
6932.829
6942.821
6953.388
6961.961
6968.023
6972.084
6974.82
6977.038
6978.895
6980.277
6981.205
6982.147
6983.603
6985.655
6988.698
6992.328
6994.818
6996.198
6997.123
6997.068
6995.982
6994.038
6992.058
6989.665
6985.947
6980.941
6975.533
6970.015
6964.07
6958.019
6952.208
6946.819
6943.402
6943.745
6946.148
6947.907
6947.663
6946.004
6943.186
6939.039
6933.485
6927.152
6920.446
6914.366
6905.122
6894.785
6887.253
6878.248
6870.036
6867.777
6868.56
6871.122
6874.07
6875.263
6874.309
6871.625
6867.918
6863.838
6859.514
6855.107
6851.259
6844.278
6833.537
6819.033
6802.283
6792.844
6793.501
6800.586
6809.504
6813.656
6816.998
6819.348
6817.097
6817.107
6818.107
6817.547
6818.64
6817.153
6815.696
6816.02
6816.213
6816.418
6816.678
6817.674
6819.768
6822.591
6826.412
6831.584
6838.616
6847.979
6856.879
6863.232
6868.482
6873.675
6878.348
6882.204
6885.819
6889.275
6892.26
6894.978
6898.324
6902.501
6906.867
6911.096
6915.016
6918.74
6922.438
6926.287
6930.128
6933.925
6937.606
6941.122
6944.415
6947.517
6950.437
6953.092
6955.446
6957.581
6959.394
6960.978
6962.242
6963.264
6964.214
6965.062
6965.693
6966.103
6966.168
6965.49
6964.618
2569.554
2597.064
2681.195
2580.063
2581.941
2560.324
2560.306
2564.701
2583.349
2603.47
2603.476
2616.36
2624.99
2625.031
2629.889
2577.952
2605.563
2544.562
2509.801
2439.336
2365.626
2293.382
2226.861
2158.052
2147.768
2162.489
2068.595
2002.872
2064.407
2097.269
2124.886
2207.656
2342.051
2504.78
2685.733
2916.015
3119.873
3270.565
3440.107
3585.666
3706.797
3825.939
3908.52
3959.289
3993.094
4025.774
4045.68
4061.067
4080.375
4109.763
4137.507
4166.248
4201.36
4241.64
4275.717
4304.136
4312.64
4295.351
4264.084
4223.872
4164.471
4099.544
4077.136
4073.071
4024.799
3966.666
3949.292
3978.049
3961.317
3841.025
3697.425
3518.325
3338.108
3183.339
3065.913
2997.281
2989.77
3014.309
3051.388
3103.777
3177.298
3271.999
3386.805
3522.101
3662.143
3795.97
3920.531
4033.217
4126.771
4200.732
4247.972
4273.803
4296.182
4314.011
4323.001
4301.003
4239.168
4156.805
4097.893
4062.273
4017.114
3947.6
3867.144
3807.346
3781.951
3789.621
3818.546
3859.353
3905.335
3981.004
4086.223
4211.224
4333.926
4457.065
4562.963
4646.105
4687.991
4695.451
4677.635
4645.471
4609.323
4581.701
4562.645
4549.094
4539.376
4527.512
4509.442
4479.448
4430.042
4362.996
4285.01
4207.182
4128.231
4066.139
4026.731
4018.569
4040.05
4100.136
4194.669
4324.286
4474.439
4630.628
4780.069
4911.217
5018.907
5101.57
5156.79
5189.744
5207.41
5213.072
5211.457
5206.656
5199.745
5191.689
5183.688
5180.258
5185.474
5197.317
5218.394
5242.461
5267.271
5298.838
5334.611
5364.312
5398.058
5432.754
5445.963
5440.094
5418.666
5386.472
5347.23
5302.087
5244.968
5166.772
5061.973
4938.45
4801.388
4661.812
4530.076
4408.618
4296.351
4194.58
4113.282
4053.586
4018.663
4011.934
4031.213
4069.482
4126.707
4200.524
4290.988
4392.318
4502.407
4618.843
4734.449
4846.013
4949.146
5046.874
5138.978
5223.298
5299.505
5367.927
5429.221
5483.266
5530.782
5570.912
5602.585
5628.456
5649.445
5666.977
5680.932
5690.73
5695.265
5695.749
5693.766
5689.977
5685.084
5680.579
5675.959
5670.748
5665.315
5660.515
5657.45
5654.68
5654.233
5659.941
5670.136
5665.725
5665.942
5685.109
5703.361
5700.578
5687.293
5680.921
5676.4
5680.08
5687.172
5684.897
5678.096
5675.998
5676.382
5676.04
5668.73
5653.629
5643.02
5639.177
5635.587
5634.927
5635.06
5646.599
5673.507
5700.208
5720.878
5713.106
5697.552
5704.546
5723.55
5734.806
5729.447
5714.38
5705.513
5707.368
5703.213
5687.204
5674.483
5676.952
5676.352
5671.205
5670.334
5678.97
5688.698
5702.092
5721.375
5742.438
5768.554
5803.283
5836.442
5857.812
5877.604
5901.445
5926.638
5958.739
5989.603
6016.801
6043
6068.481
6088.442
6104.695
6119.758
6134.917
6150.286
6165.998
6181.359
6196.182
6210.547
6224.77
6238.797
6252.767
6263.564
6273.01
6285.245
6297.84
6310.296
6323.109
6336.435
6348.431
6358.413
6367.299
6379.456
6393.553
6405.145
6414.342
6421.928
6429.078
6436.49
6446.41
6459.001
6470.639
6479.607
6487.245
6494.745
6502.581
6511.134
6521.325
6533.039
6545.323
6557.119
6568.034
6577.99
6587.021
6594.721
6601.301
6607.147
6612.333
6616.778
6620.401
6623.048
6625.151
6627.86
6631.842
6637.724
6645.511
6653.943
6661.401
6667.211
6671.454
6674.41
6676.559
6678.113
6679.03
6679.622
6680.081
6680.755
6682.451
6686.746
6693.357
6701.534
6710.257
6717.975
6724.219
6728.953
6731.482
6732.606
6733.854
6735.787
6737.568
6739.291
6741.126
6743.237
6746.059
6749.088
6751.384
6752.528
6752.669
6752.027
6750.637
6748.67
6746.402
6743.513
6739.818
6735.365
6730.485
6725.662
6720.45
6715.019
6710.246
6706.413
6703.238
6702.036
6702.725
6703.375
6702.681
6700.371
6696.68
6691.835
6686.355
6680.326
6673.883
6668.206
6660.598
6651.373
6643.974
6638.572
6632.692
6628.511
6627.081
6627.15
6627.32
6626.477
6623.87
6620.164
6616.139
6612.059
6608.732
6604.262
6598.485
6592.316
6584.226
6576.067
6566.797
6558.794
6557.591
6561.517
6565.477
6567.282
6568.898
6569.894
6568.534
6568.223
6569.598
6570.027
6571.026
6570.205
6569.406
6569.545
6569.962
6570.515
6571.215
6572.493
6574.981
6578.12
6581.975
6586.888
6593.222
6600.641
6608.054
6614.074
6618.847
6623.305
6627.741
6632.262
6636.518
6640.564
6644.264
6648.043
6651.736
6655.221
6659.252
6663.615
6668.085
6672.435
6676.597
6680.573
6684.456
6688.218
6691.89
6695.567
6698.952
6702.214
6705.318
6708.192
6710.746
6712.981
6714.801
6716.462
6717.941
6719.223
6720.285
6721.167
6721.924
6722.304
6722.336
6722.217
6722.265
2402.566
2372.191
2365.077
2356.297
2336.122
2318.502
2300.834
2293.035
2297.784
2306.798
2250.317
2258.902
2267.711
2271.726
2270.903
2267.343
2292.904
2331.945
2327.612
2311.159
2322.586
2364.757
2355.307
2273.519
2162.415
2066.667
1990.296
1928.23
1859.182
1788.174
1742.017
1717.749
1706.001
1741.728
1800.19
1837.885
1916.452
2061.528
2233.239
2408.819
2635.475
2845.923
2994.078
3149.561
3290.444
3394.624
3491.042
3570.757
3618.536
3650.548
3672.39
3682.461
3685.965
3697.872
3721.93
3747.065
3762.472
3782.506
3824.607
3870.743
3896.015
3904.123
3896.154
3881.37
3847.651
3793.495
3728.968
3701.114
3703.564
3680.18
3670.34
3674.404
3676.33
3660.438
3573.164
3420.332
3227.639
3036.211
2862.927
2721.135
2642.871
2653.03
2698.099
2745.379
2804.864
2882.851
2973.999
3089.149
3231.909
3387.256
3534.521
3674.253
3803.339
3921.051
4023.502
4101.529
4155.133
4183.392
4199.596
4188.749
4143.981
4059.844
3940.533
3818.268
3706.559
3588.74
3473.294
3377.102
3314.545
3293.212
3307.256
3357.574
3441.466
3543.158
3666.001
3796.068
3932.306
4084.13
4251.202
4375.593
4462.531
4507.874
4520.786
4505.03
4474.292
4435.349
4400.164
4370.892
4349.95
4332.665
4314.209
4290.775
4256.663
4202.619
4127.334
4037.763
3945.995
3855.412
3781.039
3731.614
3713.082
3729.215
3786.147
3880.975
4012.162
4170.21
4336.585
4493.994
4632.186
4745.838
4832.755
4890.976
4924.255
4939.785
4943.063
4938.64
4930.565
4921.128
4910.348
4901.186
4896.689
4898.521
4911.098
4929.092
4950.744
4985.114
5032.963
5068.997
5111.867
5155.867
5185.494
5194.347
5184.914
5163.405
5130.301
5089.501
5045.998
4988.449
4905.894
4792.997
4663.124
4525.665
4386.813
4261.234
4147.241
4045.065
3954.7
3881.412
3829.177
3798.229
3793.351
3813.106
3852.005
3904.914
3976.175
4062.621
4158.07
4262.075
4371.34
4483.361
4592.33
4693.827
4788.09
4875.432
4956.36
5028.862
5094.297
5154.115
5206.91
5252.285
5290.968
5321.965
5347.252
5367.266
5383.313
5397.08
5407.944
5413.185
5413.893
5412.287
5408.155
5403.629
5398.624
5392.634
5386.151
5379.284
5372.143
5363.952
5358.754
5361.011
5365.511
5380.211
5393.635
5393.556
5409.864
5430.797
5435.294
5425.664
5419.334
5416.02
5424.994
5433.85
5434.925
5431.47
5430.899
5435.471
5438.283
5433.545
5423.874
5414.738
5406.754
5403.516
5405.357
5420.11
5445.336
5468.685
5476.885
5479.118
5475.757
5470.483
5467.687
5474.243
5488.729
5490.408
5482.694
5480.69
5480.859
5464.539
5443.951
5431.693
5426.739
5421.337
5416.847
5416.573
5421.332
5432.555
5447.388
5463.606
5483.202
5506.331
5539.694
5575.874
5602.91
5626.633
5651.432
5676.612
5703.184
5729.909
5754.405
5781.237
5811.488
5838.916
5859.332
5874.938
5889.454
5904.236
5919.702
5935.417
5950.865
5965.711
5979.795
5993.179
6006.031
6018.315
6030.188
6042.082
6053.86
6065.052
6077.26
6091.812
6105.14
6115.604
6124.667
6134.592
6146.608
6159.586
6170.049
6178.107
6187.157
6197.485
6207.097
6215.999
6226.289
6235.793
6243.853
6251.468
6259.482
6268.314
6278.124
6288.855
6300.059
6311.105
6321.581
6331.219
6339.832
6347.365
6354.033
6360.158
6365.898
6370.947
6375.248
6378.857
6382.102
6385.681
6390.035
6395.626
6402.294
6409.296
6415.917
6421.49
6425.943
6429.375
6432.081
6434.436
6436.611
6438.494
6440.41
6442.542
6445.514
6449.424
6454.185
6460.107
6467.096
6473.763
6479.203
6483.615
6487.074
6488.88
6489.857
6491.594
6493.862
6496.298
6498.449
6500.253
6501.869
6503.46
6504.645
6505.182
6505.387
6505.288
6504.235
6502.557
6500.368
6497.824
6494.61
6490.798
6486.685
6482.373
6477.961
6473.582
6469.378
6465.345
6462.099
6459.981
6458.932
6457.75
6455.619
6452.576
6448.76
6444.247
6439.235
6433.75
6428.259
6423.054
6415.759
6407.717
6400.853
6396.37
6391.78
6386.916
6384.094
6382.476
6380.798
6378.44
6375.44
6372.312
6368.759
6364.363
6360.112
6355.787
6350.208
6344.567
6338.058
6331.188
6324.229
6319.222
6317.37
6318.383
6319.719
6320.674
6321.489
6321.985
6321.645
6321.493
6321.987
6322.263
6322.73
6322.603
6322.47
6322.796
6323.442
6324.333
6325.537
6327.149
6329.699
6333.038
6337.004
6341.717
6347.298
6353.293
6359.515
6365.208
6370.1
6375.004
6380.667
6385.859
6389.808
6393.668
6397.76
6402.032
6406.03
6409.32
6412.945
6417.275
6421.901
6426.407
6430.853
6434.838
6438.776
6442.809
6446.944
6450.403
6453.439
6456.644
6459.919
6463.005
6465.832
6468.146
6470.173
6472.114
6473.787
6475.237
6476.474
6477.509
6478.347
6478.957
6479.324
6479.5
6479.652
2154.722
2123.736
2051.515
2033.577
2001.117
1972.355
1954.516
1956.956
1976.596
2003.547
2023.552
2030.988
2033.112
2028.337
2033.772
2057.73
2079.242
2090.016
2086.888
2116.7
2142.199
2147.161
2105.913
2008.283
1891.489
1788.314
1710.812
1636.429
1559.398
1475.996
1406.966
1390.74
1466.452
1445.98
1490.619
1563.78
1661.813
1799.329
1972.942
2155.095
2350.334
2557.698
2718.478
2854.909
2980.317
3064.218
3135.245
3205.276
3237.782
3254.492
3262.878
3253.09
3242.281
3250.427
3267.87
3288.216
3302.99
3291.623
3270.901
3306.027
3346.304
3350.437
3367.855
3391.745
3385.732
3364.769
3355.9
3335.875
3325.892
3327.759
3344.939
3347.677
3294.441
3215.015
3139.232
3039.299
2892.566
2722.348
2549.64
2402.331
2326.208
2346.575
2408.527
2466.411
2524.277
2596.723
2691.064
2817.359
2970.692
3131.161
3288.509
3441.676
3591.406
3735.242
3864.77
3977.023
4065.312
4113.201
4114.095