/*--------------------------------*- C++ -*----------------------------------*\
| =========                 |                                                 |
| \\      /  F ield         | foam-extend: Open Source CFD                    |
|  \\    /   O peration     | Version:     3.1                                |
|   \\  /    A nd           | Web:         http://www.extend-project.de       |
|    \\/     M anipulation  |                                                 |
\*---------------------------------------------------------------------------*/
FoamFile
{
    version     2.0;
    format      ascii;
    class       volScalarField;
    location    "8.5";
    object      pd;
}
// * * * * * * * * * * * * * * * * * * * * * * * * * * * * * * * * * * * * * //

dimensions      [1 -1 -2 0 0 0 0];

internalField   nonuniform List<scalar> 
119952
(
6735.598
6693.893
6817.002
6797.585
6830.263
6822.321
6835.319
6843.524
6851.018
6862.904
6866.725
6871.736
6883.802
6892.161
6905.136
6945.398
6925.053
6961.089
6960.254
7004.41
6970.945
6942.738
6947.231
6938.99
6907.268
6886.523
6879.847
6899.826
6948.359
8278.72
5701.488
5771.828
5778.668
5773.459
5802.252
5875.57
5937.274
6006.704
6058.344
6079.572
6189.11
6190.909
6187.257
6161.896
6130.152
6095.765
6063.401
6037.358
6103.124
6078.082
6010.335
5956.814
5919.036
5881.126
5858.908
5874.299
5828.257
5841.654
5875.384
5959.375
6044.44
6132.832
6227.335
6327.294
6426.55
6511.829
6588.923
6666.036
6722.743
6756.344
6785.88
6807.488
6818.1
6830.977
6841.454
6848.972
6854.278
6860.836
6866.342
6875.047
6885.718
6895.874
6906.747
6919.136
6928.754
6940.791
6947.658
6954.998
6957.276
6948.257
6937.74
6925.038
6898.519
6869.988
6855.94
6870.984
6879.131
6821.837
6769.334
6694.504
6565.23
6429.229
6289.082
6142.818
6000.857
5885.754
5799.77
5740.127
5717.582
5739.529
5791.489
5845.888
5922.941
6031.522
6151.248
6275.024
6405.682
6538.698
6651.753
6746.429
6840.5
6937.131
7023.998
7103.554
7172.969
7235.048
7284.664
7323.434
7355.071
7383.077
7404.444
7423.551
7422.135
7419.676
7421.601
7420.006
7412.08
7410.334
7411.667
7398.439
7389.231
7390.76
7384.638
7383.093
7386.99
7398
7385.728
7362.197
7327.7
7323.513
7331.766
7327.508
7320.148
7315.828
7314.993
7320.611
7323.939
7324.598
7317.906
7309.847
7296.434
7282.116
7271.613
7263.98
7255.11
7245.551
7238.466
7236.064
7237.534
7244.009
7252.997
7260.411
7267.526
7272.624
7275.732
7278.052
7280.088
7281.08
7283.206
7287.476
7293.192
7293.232
7293.667
7288.968
7285.436
7278.029
7275.871
7272.488
7271.93
7275.233
7281.838
7290.678
7303.348
7322.589
7342.985
7372.675
7400.321
7422.073
7449.571
7470.66
7496.209
7541.09
7523.281
7585.022
7604.604
7622.027
7639.86
7657.239
7674.031
7689.352
7706.664
7724.015
7733.728
7749.245
7762.623
7765.158
7828.038
7816.824
7829.279
7838.709
7873.002
7870.694
7880.611
7892.658
7903.857
7915.265
7926.199
7936.906
7947.542
7959.129
7969.788
7980.402
7990.668
8001.929
8011.98
8021.555
8033.474
8041.724
8048.92
8057.009
8064.114
8070.8
8074.62
8079.996
8082.55
8085.807
8100.899
8122.895
8153.009
8200.887
8191.296
8191.278
8200.19
8206.715
8214.474
8215.079
8220.949
8222.468
8226.583
8221.627
8217.258
8205.852
8202.766
8222.548
8229.457
8266.261
8271.549
8264.828
8272.925
8272.958
8273.129
8271.762
8265.936
8252.247
8235.557
8214.672
8233.794
8251.25
8270.272
8301.686
8321.631
8335.676
8339.51
8337.863
8329.973
8326.006
8324.741
8319.214
8313.395
8306.9
8314.945
8339.726
8351.513
8357.995
8362.322
8360.339
8354.458
8347.882
8344.098
8345.612
8351.153
8342.821
8334.034
8326.216
8317.988
8308.897
8296.257
8279.384
8260.182
8254.465
8278.814
8288.28
8308.928
8311.227
8314.872
8313.37
8306.506
8297.6
8286.918
8275.83
8264.239
8247.234
8245.118
8231.569
8209.766
8188.302
8180.257
8191.125
8215.362
8237.917
8243.004
8243.23
8237.813
8229.57
8224.497
8221.612
8223.685
8220.6
8206.431
8188.054
8161.014
8102.403
8053.189
8086.154
8119.567
8164.091
8179.229
8193.13
8189.984
8186.856
8183.087
8178.93
8176.066
8174.629
8172.862
8170.132
8168.093
8168.33
8168.239
8167.383
8164.989
8160.755
8151.736
8136.277
8141.577
8180.86
8206.799
8222.518
8231.254
8235.571
8242.191
8243.312
8237.057
8242.758
8245.626
8247.51
8249.322
8252.027
8255.904
8266.282
8253.903
8267.047
8268.798
8272.06
8275.937
8279.823
8284.181
8288.258
8292.516
8294.3
8295.192
8298.91
8302.289
8305.228
8307.445
8309.519
8311.334
8312.503
8311.831
8309.886
8311.089
8316.393
8321.009
8315.278
8296.699
8283.37
5330.075
5327.365
5031.473
4978.401
4893.916
4865.745
4822.647
4817.764
4758.01
4866.092
5076.576
5161.201
5255.113
5344.719
5433.343
5524.423
5613.475
5677.029
5721.99
5776.38
5781.888
5791.854
5802.943
5832.056
5851.396
5871.03
5889.105
5908.351
5933.721
5909.198
5861.532
5818.881
5782.563
5754.245
5737.219
5728.265
5740.895
5754.888
5759.461
5765.026
5772.568
5801.506
5864.221
5937.953
6002.244
6073.22
6140.33
6169.247
6172.462
6163.195
6143.488
6118.917
6092.147
6065.482
6051.529
6042.837
6015.046
5979.807
5944.071
5908.542
5871.513
5839.052
5815.492
5803.117
5814.146
5859.388
5930.32
6019.296
6119.451
6226.491
6335.374
6440.16
6536.797
6622.003
6688.172
6734.918
6768.363
6794.584
6813.013
6821.878
6829.504
6836.643
6843.315
6848.037
6851.453
6857.581
6868.16
6881.437
6894.625
6905.495
6916.886
6929.198
6942.146
6954.034
6963.701
6967.807
6961.986
6944.872
6922.426
6892.084
6841.942
6789.096
6774.324
6786.647
6764.303
6693.603
6583.578
6448.366
6296.941
6143.152
5999.966
5876.348
5775.868
5707.554
5673.214
5672.956
5702.359
5758.312
5836.477
5927.919
6036.719
6162.224
6288.586
6410.617
6536.752
6652.314
6753.055
6842.645
6929.38
7016.125
7092.488
7161.087
7221.998
7270.099
7306.414
7336.318
7360.616
7379.802
7394.43
7404.082
7408.115
7407.515
7404.596
7400.144
7394.814
7389.045
7384.109
7380.356
7378.174
7378.404
7376.676
7369.394
7361.733
7355.619
7346.9
7330.577
7320.849
7318.577
7313.401
7309.844
7311.093
7315.101
7320.264
7331.074
7334.431
7324.806
7304.634
7284.232
7270.507
7263.794
7259.157
7252.248
7243.718
7236.28
7233.075
7235.343
7242.108
7251.234
7260.428
7266.979
7270.926
7274.471
7278.142
7280.501
7282.879
7286.761
7291.805
7295.069
7295.725
7293.596
7288.982
7281.505
7274.92
7271.283
7269.094
7269.593
7273.018
7281.147
7291.539
7306.293
7320.847
7348.67
7379.589
7403.297
7427.505
7452.433
7475.482
7505.017
7536.261
7559.95
7584.671
7606.014
7624.974
7643.639
7660.507
7677.049
7693.032
7709.218
7724.489
7740.3
7755.74
7773.307
7793.729
7801.433
7816.984
7829.575
7842.298
7857.807
7871.291
7882.084
7893.64
7904.898
7916.054
7927.151
7937.994
7948.759
7959.701
7970.648
7981.408
7992.052
8001.853
8011.205
8022.793
8032.962
8041.321
8049.411
8057.057
8063.664
8069.677
8072.524
8074.502
8078.409
8090.962
8111.607
8137.113
8162.91
8177.63
8181.473
8191.532
8200.092
8206.367
8211.461
8216.158
8220.231
8221.43
8221.082
8214.451
8201.203
8184.66
8185.643
8221.257
8252.616
8264.289
8272.042
8264.89
8272.103
8274.839
8273.466
8271.595
8263.825
8249.013
8230.784
8220.295
8233.556
8259.877
8285.184
8307.7
8325.891
8335.057
8334.903
8330.86
8326.634
8324.42
8323.866
8322.394
8319.414
8318.399
8326.921
8341.738
8351.356
8356.494
8358.636
8357.589
8353.563
8347.394
8342.813
8340.733
8338.402
8336.509
8332.037
8325.308
8317.525
8306.995
8293.321
8276.766
8259.407
8258.576
8283.469
8306.181
8312.512
8311.76
8311.561
8308.268
8301.434
8292.826
8282.95
8271.483
8260.516
8252.446
8242.152
8229.693
8204.593
8185.058
8187.383
8202.306
8219.212
8231.824
8237.217
8236.704
8232.179
8226.553
8222.052
8220.131
8220.285
8218.334
8201.015
8172.208
8135.76
8096.705
8081.354
8102.831
8133.113
8150.791
8164.263
8174.361
8180.915
8182.861
8180.299
8177.625
8173.978
8171.63
8170.79
8169.742
8168.671
8167.688
8167.521
8166.319
8165.023
8162.862
8159.833
8160.405
8167.768
8186.475
8205.642
8215.917
8221.371
8226.244
8230.455
8234.778
8238.545
8240.467
8242.174
8245.937
8250.031
8253.48
8256.615
8259.643
8262.696
8265.915
8269.418
8273.236
8277.069
8280.843
8284.638
8288.406
8291.966
8295.319
8298.111
8300.52
8302.8
8304.863
8306.732
8308.295
8309.339
8309.786
8309.503
8309.676
8311.238
8313.809
8315.909
8313.709
8308.014
8305.066
4399.58
4543.714
4668.429
4754.071
4997.669
5086.608
5284.181
5378.182
5471.18
5416.927
5673.193
5697.228
5731.201
5790.86
5803.714
5833.238
5875.722
5914.998
5910.456
5944.758
5973.476
5993.882
6014.682
6021.557
6003.922
5991.841
5948.554
5905.409
5875.741
5815.809
5771.571
5732.766
5691.988
5652.347
5607.677
5559.6
5502.091
5412.202
5303.808
5175.478
5037.114
4922.314
4841.401
4793.639
4770.717
4794.188
4884.103
4968.811
5051.274
5150.499
5251.594
5344.55
5438.746
5534.166
5627.126
5698.603
5744.426
5756.051
5750.316
5758.092
5788.732
5824.507
5845.167
5852.684
5857.424
5867.558
5876.696
5869.962
5840.025
5796.417
5749.701
5711.317
5693.226
5686.605
5692.526
5706.854
5724.641
5747.079
5778.478
5819.945
5879.08
5946.839
6014.679
6088.28
6147.944
6168.712
6158.825
6137.64
6115.449
6097.732
6082.942
6069.517
6054.3
6039.488
6018.583
5986.998
5945.394
5899.25
5852.258
5813.011
5800.206
5798.661
5813.067
5843.799
5899.432
5981.158
6084.076
6200.549
6318.142
6431.513
6536.604
6626.986
6697.809
6746.394
6780.494
6804.198
6819.32
6826.056
6829.498
6833.012
6836.522
6838.443
6841.811
6849.427
6861.658
6875.769
6889.69
6901.813
6913.373
6928.198
6945.755
6962.224
6975.607
6983.411
6979.51
6963.248
6939.953
6906.739
6858.149
6800.212
6768.69
6741.255
6686.816
6594.61
6470.162
6333.89
6191.451
6048.511
5914.299
5800.523
5711.14
5653.043
5628.46
5636.128
5672.731
5730.827
5808.977
5900.887
6008.491
6135.536
6264.373
6384.69
6510.664
6633.662
6724.036
6815.79
6905.957
6990.699
7065.878
7133.614
7192.124
7238.649
7275.632
7305.627
7330.56
7351.114
7367.5
7378.773
7384.216
7384.611
7382.516
7379.12
7374.776
7370.562
7366.289
7363.146
7360.544
7358.921
7359.551
7356.849
7352.4
7349.182
7341.546
7326.399
7317.347
7313.45
7315.51
7320.202
7315.648
7306.485
7308.818
7321.932
7326.177
7314.281
7295.06
7278.773
7272.324
7268.193
7262.23
7254.308
7243.274
7233.329
7229.638
7231.968
7239.638
7248.863
7258.95
7265.352
7268.734
7267.524
7280.784
7297.664
7297.213
7296.68
7298.814
7300.324
7298.346
7294.733
7289.139
7282.79
7275.069
7269.172
7266.213
7264.099
7265.198
7269.989
7277.99
7292.262
7321.932
7344.291
7364.506
7392.198
7423.266
7453.346
7483.748
7514.393
7541.658
7564.658
7586.259
7607.67
7628.16
7647.445
7665.371
7682.165
7698.278
7713.969
7729.569
7745.226
7760.984
7776.854
7792.383
7807.042
7821.143
7833.958
7846.848
7859.811
7872.753
7885.136
7896.852
7908.131
7919.075
7929.886
7940.752
7951.818
7962.897
7973.589
7983.817
7993.321
8001.299
8013.453
8027.11
8035.997
8043.522
8051.257
8059.035
8065.978
8071.954
8077.418
8083.101
8091.221
8104.574
8122.812
8141.87
8158.18
8171.311
8181.759
8190.339
8197.677
8204.042
8209.319
8213.895
8217.244
8218.898
8216.515
8210.254
8203.114
8201.235
8209.489
8230.426
8250.594
8263.991
8269.458
8273.312
8274.814
8274.527
8273.109
8270.746
8265.618
8257.179
8247.537
8242.435
8245.911
8262.348
8280.943
8297.389
8310.814
8321.16
8326.939
8329.293
8330.203
8330.775
8328.708
8325.314
8322.191
8321.172
8323.783
8332.709
8341.458
8346.36
8349.382
8351.348
8351.39
8349.661
8347.873
8346.749
8344.757
8338.931
8331.667
8324.453
8316.921
8307.296
8296.745
8285.878
8275.778
8271.424
8279.285
8290.84
8297.974
8301.973
8304.64
8304.045
8298.483
8290.522
8281.284
8271.224
8260.696
8249.884
8240.447
8227.966
8209.089
8199.031
8199.766
8209.803
8222.303
8231.186
8233.861
8232.727
8229.836
8226.535
8223.465
8220.614
8216.872
8209.279
8194.392
8178.106
8148.581
8108.173
8097.869
8118.079
8139.163
8152.47
8164.746
8175.484
8176.701
8175.083
8174.598
8172.435
8169.722
8170.141
8168.034
8166.756
8167.393
8167.299
8166.464
8165.907
8165.235
8165.569
8166.483
8168.246
8174.001
8188.847
8205.333
8215.708
8222.966
8229.026
8233.387
8235.432
8236.864
8238.79
8242.089
8245.672
8247.308
8249.182
8252.422
8256.335
8260.506
8264.669
8268.698
8272.653
8276.46
8280.066
8283.49
8286.777
8290.119
8293.519
8296.637
8299.476
8301.936
8304.19
8306.3
8308.204
8309.716
8310.557
8310.577
8311.008
8311.596
8312.711
8312.655
8310.491
8306.885
8302.865
3973.377
3903.952
3689.659
3909.947
3819.562
3830.566
3771.926
3814.075
3838.555
3859.876
3924.168
4020.907
4138.922
4325.792
4530.101
4725.238
4903.964
5066.164
5212.869
5357.677
5515.207
5611.88
5647.752
5673.983
5743.088
5770.972
5791.347
5825.585
5863.491
5898.019
5929.706
5926.343
5971.094
6008.744
6029.089
6032.272
6011.66
5980.254
5938.928
5890.995
5850.223
5809.137
5762.968
5713.473
5674.039
5645.535
5622.554
5577.075
5487.379
5357.769
5198.479
5044.303
4912.484
4810.543
4749.139
4723.535
4727.792
4759.502
4814.344
4891.629
4987.505
5099.711
5216.785
5333.62
5443.386
5548.475
5643.681
5710.305
5743.264
5753.846
5743.723
5763.992
5797.486
5828.392
5840.049
5829.798
5809.353
5811.24
5830.667
5842.633
5819.58
5764.15
5701.647
5658.481
5639.133
5633.443
5639.345
5656.517
5687.629
5733.087
5790.887
5863.279
5942.662
6020.606
6091.834
6147.45
6175.822
6172.902
6152.182
6128.456
6111.489
6098.188
6087.225
6078.38
6068.94
6054.352
6029.429
5992.13
5944.091
5891.977
5838.126
5784.731
5739.604
5726.177
5731.407
5766.739
5833.427
5923.256
6036.693
6161.578
6290.278
6414.461
6528.868
6626.084
6701.076
6752.913
6786.994
6808.62
6820.756
6824.982
6824.299
6823.442
6823.604
6823.829
6825.245
6831.713
6844.588
6862.879
6882.796
6896.702
6909.808
6928.724
6946.766
6967.309
6990.922
7001.331
7001.334
6982.55
6956.932
6924.465
6877.843
6819.814
6770.737
6710.149
6624.351
6510.713
6376.669
6242.176
6106.679
5973.484
5848.907
5743.535
5665.478
5617.853
5602.537
5614.613
5654.771
5713.412
5791.263
5888.653
5993.719
6114.992
6239.022
6365.779
6482.517
6587.092
6688.446
6785.268
6874.004
6955.385
7028.333
7093.376
7150.69
7199.377
7238.701
7270.089
7295.665
7316.924
7334.048
7346.846
7354.193
7356.046
7354.695
7352.084
7348.687
7344.586
7339.677
7334.844
7330.599
7328.595
7327.183
7325.85
7325.205
7323.046
7319.846
7315.703
7298.727
7288.268
7297.795
7306.084
7303.837
7300.175
7298.049
7298.929
7302.736
7296.784
7287.37
7281.047
7277.017
7272.216
7265.963
7257.164
7242.553
7227.487
7220.109
7221.808
7231.05
7242.562
7252.341
7261.461
7265.838
7267.218
7282.135
7299.504
7305.555
7305.346
7304.313
7303.75
7301.828
7295.056
7285.587
7270.25
7266.661
7270.461
7261.086
7256.51
7264.291
7275.456
7289.097
7301.63
7324.626
7339.484
7353.2
7379.13
7404.827
7435.425
7466.706
7495.927
7528.94
7562.146
7587.992
7610.489
7629.466
7647.255
7664.473
7681.441
7698.055
7714.305
7730.117
7745.508
7760.569
7775.525
7790.131
7803.869
7816.844
7829.477
7841.533
7857.089
7873.187
7884.938
7896.216
7907.611
7918.885
7929.964
7941.208
7952.81
7964.108
7975.062
7985.632
7995.881
8005.911
8015.635
8024.805
8033.984
8043.006
8051.434
8059.835
8067.962
8075.383
8082.438
8089.795
8098.08
8109.497
8124.386
8139.725
8153.508
8165.666
8176.758
8186.084
8193.933
8200.592
8206.239
8211.005
8214.53
8216.155
8215.617
8214.024
8212.657
8214.174
8220.934
8234.356
8248.297
8258.366
8264.695
8267.528
8268.957
8269.602
8269.658
8269.101
8266.686
8262.706
8258.618
8257.027
8261.925
8273.927
8288.355
8302.422
8313.553
8320.754
8324.333
8326.69
8327.983
8327.77
8327.17
8327.028
8327.413
8328.839
8332.778
8339.195
8345.088
8348.884
8350.631
8350.714
8349.34
8346.816
8343.95
8341.098
8337.844
8333.662
8328.452
8322.771
8316.507
8309.209
8301.525
8293.846
8287.268
8284.536
8289.374
8296.778
8301.959
8303.296
8301.75
8297.749
8292.091
8285.447
8278.07
8269.924
8262.451
8253.266
8244.569
8235.392
8222.056
8212.305
8210.108
8213.733
8219.26
8223.928
8225.641
8224.809
8222.02
8218.271
8214.746
8211.595
8208.163
8202.246
8193.94
8184.566
8161.688
8130.731
8123.267
8131.238
8142.672
8154.626
8163.264
8169.926
8171.806
8169.902
8170.806
8169.85
8167.495
8167.961
8165.979
8164.656
8165.837
8165.799
8165.342
8165.213
8166.028
8167.565
8169.844
8173.112
8178.72
8188.459
8199.842
8208.41
8213.899
8218.626
8223.358
8227.378
8231.203
8235.351
8239.914
8243.464
8245.235
8248.239
8252.285
8256.461
8260.47
8264.455
8268.392
8272.206
8275.943
8279.593
8283.199
8286.78
8290.305
8293.686
8296.829
8299.669
8302.172
8304.431
8306.516
8308.333
8309.768
8310.695
8311.203
8311.825
8312.631
8313.502
8313.929
8313.706
8312.613
8311.474
4127.36
4141.983
4181.883
4137.339
4161.331
4152.941
4166.123
4156.637
4141.286
4104.228
4055.676
3978.892
3913.208
3847.714
3823.699
3760.655
3737.515
3710.331
3702.9
3714.488
3752.067
3837.2
3968.538
4136.614
4326.808
4539.212
4739.304
4903.667
5076.787
5220.473
5350.165
5485.488
5584.97
5620.948
5652.081
5697.119
5729.474
5750.501
5777.58
5810.185
5839.196
5863.96
5887.103
5922.429
5964.297
5993.573
5999.905
5983.66
5948.109
5904.747
5849.447
5789.122
5754.54
5726.238
5681.952
5645.523
5620.621
5601.404
5555.613
5460.356
5321.583
5153.718
4990.003
4845.088
4737.849
4674.837
4656.517
4666.196
4695.59
4748.704
4823.898
4917.518
5033.605
5164.598
5292.622
5416.678
5528.973
5628.841
5706.753
5755.498
5774.938
5766.959
5780.161
5805.235
5845.474
5844.287
5803.495
5756.878
5745.311
5758.884
5762.868
5723.803
5651.743
5582.203
5546.397
5532.178
5518.004
5509.985
5536.342
5619.369
5706.667
5799.406
5899.419
5997.498
6089.812
6165.55
6211.947
6223.181
6207.769
6181.435
6154.003
6131.735
6116.305
6106.82
6099.591
6090.292
6075.689
6051.915
6010.684
5953.326
5887.03
5823.328
5762.601
5706.969
5683.679
5677.769
5698.543
5770.41
5860.238
5979.73
6114.318
6250.259
6382.581
6502.699
6605.545
6688.715
6749.26
6788.087
6809.496
6818.544
6820.889
6818.357
6813.333
6808.235
6804.497
6804.676
6811.912
6826.572
6845.591
6862.857
6881.2
6901.564
6923.338
6952.528
6988.464
7018.634
7035.761
7029.383
7007.087
6976.761
6939.332
6892.066
6834.946
6769.34
6682.072
6572.596
6444.809
6306.412
6172.393
6043.94
5919.283
5805.684
5711.907
5642.832
5602.955
5594.323
5611.085
5650.44
5709.663
5786.894
5880.746
5985.318
6100.571
6222.687
6348.67
6458.94
6558.802
6661.379
6757.105
6844.505
6923.298
6993.993
7057.526
7113.547
7161.826
7201.548
7233.378
7259.465
7280.912
7298.175
7311.764
7321.009
7324.589
7323.817
7321.132
7318.346
7314.715
7309.229
7303.802
7299.754
7297.262
7294.69
7292.116
7291.39
7291.858
7292.202
7287.502
7275.892
7262.474
7277.689
7294.762
7298.359
7293.477
7285.934
7281.263
7285.034
7289.195
7285.89
7280.805
7276.177
7272.514
7269.353
7259.216
7239.768
7225.727
7224.386
7224.803
7227.535
7237.895
7242.188
7250.998
7272.023
7301.599
7297.246
7281.423
7298.787
7318.661
7320.807
7314.04
7306.117
7294.297
7278.893
7268.748
7267.221
7265.573
7264.529
7264.116
7263.342
7268.184
7284.364
7297.784
7314.036
7331.835
7348.239
7372.435
7402.615
7433.399
7456.533
7478.92
7509.367
7541.675
7573.025
7602.276
7627.184
7648.394
7666.043
7682.421
7698.16
7713.858
7729.681
7745.385
7760.803
7775.877
7790.698
7805.31
7819.69
7833.642
7847.199
7859.318
7870.623
7882.338
7894.6
7906.87
7918.723
7930.103
7941.33
7952.61
7964.059
7975.582
7986.89
7997.993
8008.848
8015.738
8021.454
8030.897
8042.004
8052.14
8061.292
8069.747
8077.441
8084.807
8092.588
8101.843
8112.8
8125.838
8139.873
8153.29
8164.92
8174.936
8183.705
8191.394
8197.999
8203.638
8208.414
8212.202
8214.775
8216.173
8216.93
8217.931
8220.964
8227.258
8236.98
8247.453
8256.631
8262.709
8266.664
8269.291
8270.911
8271.839
8272.095
8271.719
8270.535
8269.997
8271.103
8274.291
8281.704
8291.696
8302.263
8310.836
8316.898
8320.959
8323.695
8325.913
8327.77
8329.152
8330.08
8331.022
8332.478
8334.53
8337.573
8341.203
8343.693
8345.073
8345.998
8345.943
8344.857
8342.913
8340.933
8338.54
8334.822
8329.816
8324.408
8318.89
8312.945
8306.894
8301.083
8295.694
8292.277
8292.62
8295.023
8296.782
8296.538
8294.879
8292.061
8287.914
8282.36
8276.027
8269.321
8263.241
8253.997
8243.66
8236.128
8227.123
8218.911
8216.652
8217.435
8219.997
8222.945
8224.138
8223.184
8220.5
8216.793
8212.713
8208.389
8203.982
8200.134
8193.153
8182.412
8167.908
8151.158
8141.719
8142.376
8149.461
8158.379
8162.531
8165.873
8168.223
8165.972
8165.982
8166.982
8166.422
8167.515
8166.028
8164.571
8164.895
8165.088
8165.293
8165.553
8166.549
8168.643
8171.466
8175.287
8180.459
8187.491
8196.854
8205.754
8212.107
8217.357
8222.55
8227.223
8231.079
8234.694
8238.15
8241.135
8243.853
8247.199
8251.376
8255.742
8259.971
8263.891
8267.615
8271.313
8275.162
8279.003
8282.8
8286.481
8289.997
8293.29
8296.392
8299.312
8301.967
8304.321
8306.456
8308.269
8309.853
8311.117
8312.139
8313.089
8313.937
8314.568
8314.978
8315.043
8314.365
8313.493
4077.189
4093.15
4173.833
4082.219
4084.097
4093.136
4093.118
4097.514
4116.161
4136.282
4136.288
4149.173
4157.802
4157.844
4162.702
4172.077
4199.688
4138.687
4103.926
4033.461
3959.751
3887.507
3820.986
3752.177
3741.893
3756.614
3662.72
3596.997
3658.532
3691.394
3719.011
3801.781
3936.176
4098.904
4279.858
4510.14
4713.998
4864.69
5034.232
5179.791
5300.922
5420.064
5502.645
5553.414
5587.219
5619.899
5639.805
5655.192
5674.499
5703.888
5731.632
5760.373
5795.485
5835.765
5869.842
5898.261
5906.765
5889.476
5858.209
5817.997
5758.596
5693.669
5671.261
5667.196
5618.923
5560.791
5543.417
5572.173
5555.441
5435.149
5291.548
5112.449
4932.232
4777.464
4660.038
4591.406
4583.895
4608.434
4645.512
4697.896
4771.391
4865.91
4979.929
5114.538
5254.62
5389.339
5514.426
5627.241
5720.832
5794.845
5842.066
5867.904
5890.28
5908.083
5916.771
5894.18
5832.815
5750.875
5692.011
5656.395
5611.229
5541.613
5460.8
5400.511
5374.629
5379.669
5385.721
5334.24
5321.009
5396.509
5594.296
5784.185
5923.774
6049.628
6156.693
6240
6282.013
6289.519
6271.715
6239.578
6203.442
6175.824
6156.767
6143.199
6133.347
6120.726
6101.866
6072.266
6023.456
5956.606
5878.355
5799.861
5720.948
5659.228
5620.168
5612.093
5633.717
5693.862
5788.411
5917.947
6067.778
6222.652
6365.598
6478.598
6576.206
6658.869
6716.067
6758.069
6784.136
6797.707
6802.531
6799.903
6793.297
6785.448
6777.697
6774.368
6779.598
6791.442
6812.519
6836.585
6861.392
6892.949
6928.711
6958.376
6991.605
7025.911
7039.552
7034.123
7012.778
6980.584
6941.327
6896.139
6839.014
6760.776
6655.842
6532.33
6395.462
6255.934
6124.2
6002.743
5890.476
5788.705
5707.407
5647.711
5612.788
5606.059
5625.338
5663.607
5720.832
5794.648
5885.109
5986.432
6096.522
6212.963
6328.573
6440.137
6543.268
6640.967
6732.995
6817.361
6893.615
6962.05
7023.346
7077.391
7124.905
7165.023
7196.666
7222.542
7243.553
7261.074
7274.915
7284.287
7288.572
7289.409
7287.793
7284.096
7279.208
7274.702
7270.08
7264.846
7259.4
7254.608
7251.562
7248.802
7248.356
7254.064
7264.242
7259.269
7250.441
7255.072
7275.388
7285.719
7280.07
7274.971
7270.492
7274.174
7281.287
7279.013
7272.193
7269.877
7270.071
7269.892
7262.765
7247.742
7237.144
7233.302
7229.711
7229.046
7229.178
7240.719
7267.63
7294.333
7315.003
7307.231
7291.677
7298.671
7317.675
7328.931
7323.572
7308.505
7299.638
7301.493
7297.338
7281.329
7268.608
7271.077
7270.477
7265.33
7264.459
7273.095
7282.823
7296.217
7315.5
7336.563
7362.678
7397.404
7430.55
7451.911
7471.713
7495.566
7520.762
7552.864
7583.728
7610.925
7637.125
7662.606
7682.567
7698.82
7713.883
7729.042
7744.411
7760.123
7775.484
7790.307
7804.672
7818.895
7832.922
7846.892
7857.689
7867.135
7879.37
7891.965
7904.421
7917.234
7930.56
7942.556
7952.538
7961.424
7973.581
7987.678
7999.27
8008.467
8016.053
8023.203
8030.615
8040.535
8053.126
8064.764
8073.732
8081.37
8088.87
8096.706
8105.259
8115.45
8127.164
8139.448
8151.244
8162.159
8172.115
8181.146
8188.846
8195.426
8201.272
8206.458
8210.903
8214.526
8217.173
8219.276
8221.985
8225.967
8231.849
8239.636
8248.068
8255.526
8261.336
8265.579
8268.535
8270.684
8272.238
8273.155
8273.747
8274.206
8274.88
8276.576
8280.871
8287.482
8295.659
8304.382
8312.1
8318.344
8323.078
8325.607
8326.731
8327.979
8329.912
8331.693
8333.416
8335.251
8337.362
8340.184
8343.213
8345.509
8346.653
8346.794
8346.152
8344.762
8342.795
8340.527
8337.638
8333.943
8329.49
8324.61
8319.787
8314.575
8309.144
8304.371
8300.538
8297.363
8296.161
8296.85
8297.5
8296.806
8294.496
8290.805
8285.96
8280.48
8274.451
8268.008
8262.331
8254.723
8245.498
8238.099
8232.697
8226.817
8222.636
8221.206
8221.275
8221.445
8220.602
8217.995
8214.289
8210.264
8206.184
8202.857
8198.387
8192.61
8186.441
8178.351
8170.192
8160.922
8152.919
8151.716
8155.642
8159.602
8161.407
8163.023
8164.02
8162.659
8162.348
8163.723
8164.152
8165.151
8164.33
8163.531
8163.67
8164.087
8164.64
8165.34
8166.618
8169.106
8172.245
8176.1
8181.013
8187.347
8194.766
8202.179
8208.199
8212.972
8217.43
8221.866
8226.387
8230.643
8234.689
8238.389
8242.168
8245.861
8249.346
8253.377
8257.74
8262.21
8266.56
8270.722
8274.698
8278.581
8282.343
8286.015
8289.692
8293.077
8296.339
8299.443
8302.317
8304.871
8307.106
8308.926
8310.587
8312.066
8313.348
8314.41
8315.292
8316.049
8316.429
8316.461
8316.342
8316.39
4150.815
4150.253
4143.139
4134.359
4114.184
4096.565
4078.897
4071.097
4075.846
4084.86
4089.692
4098.277
4107.086
4111.101
4110.278
4106.718
4132.279
4171.32
4166.987
4150.534
4161.961
4204.132
4194.682
4112.894
4001.79
3906.042
3829.671
3767.605
3698.557
3627.549
3581.392
3557.124
3545.376
3581.103
3639.565
3677.26
3755.827
3900.903
4072.614
4248.194
4474.85
4685.298
4833.453
4988.936
5129.819
5233.999
5330.417
5410.132
5457.911
5489.923
5511.765
5521.836
5525.34
5537.247
5561.305
5586.44
5601.847
5621.881
5663.982
5710.118
5735.39
5743.498
5735.529
5720.745
5687.026
5632.87
5568.343
5540.489
5542.939
5519.555
5509.715
5513.779
5515.705
5499.813
5412.539
5259.707
5067.014
4875.586
4702.302
4560.51
4482.246
4492.405
4537.474
4584.754
4644.239
4722.225
4813.368
4928.453
5070.174
5223.469
5370.603
5511.401
5641.947
5760.288
5862.862
5940.824
5994.328
6022.612
6038.754
6027.198
5981.93
5898.295
5779.845
5657.636
5545.928
5428.041
5312.424
5216.187
5153.801
5132.539
5146.44
5192.164
5234.246
5199.542
5226.005
5355.855
5515.962
5792.059
6061.488
6210.161
6301.165
6346.913
6360.052
6344.376
6313.658
6274.723
6239.537
6210.265
6189.321
6172.015
6153.424
6128.832
6085.425
6029.029
5958.279
5874.239
5784.577
5694.586
5620.361
5570.962
5552.441
5568.582
5625.515
5720.339
5851.487
6009.496
6175.842
6333.11
6470.808
6582.356
6659.131
6689.645
6715.168
6730.697
6733.976
6742.377
6754.447
6754.721
6748.222
6740.247
6735.981
6737.872
6750.469
6768.466
6790.119
6824.488
6872.338
6908.369
6951.232
6995.152
7023.986
7032.714
7023.809
7002.705
6969.671
6928.873
6885.359
6827.764
6745.194
6632.32
6502.469
6365.031
6226.187
6100.609
5986.616
5884.44
5794.075
5720.787
5668.552
5637.604
5632.726
5652.481
5691.38
5744.289
5815.548
5901.97
5997.363
6101.372
6210.679
6322.728
6431.696
6533.195
6627.451
6714.705
6795.642
6868.2
6933.665
6993.489
7046.285
7091.66
7130.342
7161.339
7186.624
7206.592
7222.181
7234.114
7243.666
7250.529
7252.853
7251.635
7247.528
7243.002
7237.996
7232.007
7225.523
7218.652
7211.511
7203.323
7198.127
7200.384
7204.884
7219.584
7232.975
7231.961
7238.756
7244.826
7254.326
7257.752
7257.823
7255.364
7264.361
7273.217
7274.292
7270.836
7270.215
7274.324
7275.754
7271.542
7262.812
7254.061
7246.127
7242.891
7244.731
7259.481
7284.704
7308.054
7316.258
7318.492
7315.132
7309.858
7307.062
7313.618
7328.104
7329.783
7322.069
7320.065
7320.234
7303.914
7283.326
7271.068
7266.114
7260.712
7256.222
7255.948
7260.707
7271.93
7286.763
7302.981
7322.577
7345.706
7379.065
7415.224
7442.143
7465.679
7490.53
7515.843
7542.525
7569.282
7593.78
7620.612
7650.863
7678.291
7698.707
7714.313
7728.829
7743.611
7759.077
7774.792
7790.24
7805.086
7819.17
7832.554
7845.406
7857.69
7869.563
7881.457
7893.235
7904.427
7916.635
7931.187
7944.515
7954.979
7964.042
7973.967
7985.983
7998.961
8009.424
8017.482
8026.532
8036.86
8046.472
8055.374
8065.664
8075.168
8083.228
8090.843
8098.857
8107.689
8117.499
8128.23
8139.434
8150.48
8160.956
8170.594
8179.207
8186.74
8193.408
8199.533
8205.273
8210.322
8214.623
8218.232
8221.477
8225.056
8229.41
8235.001
8241.669
8248.671
8255.292
8260.865
8265.318
8268.75
8271.456
8273.811
8275.986
8277.869
8279.785
8281.917
8284.889
8288.799
8293.56
8299.482
8306.471
8313.138
8318.578
8322.99
8326.449
8328.255
8329.232
8330.969
8333.237
8335.673
8337.824
8339.628
8341.244
8342.835
8344.02
8344.557
8344.762
8344.663
8343.61
8341.932
8339.743
8337.199
8333.985
8330.173
8326.06
8321.748
8317.336
8312.957
8308.753
8304.72
8301.474
8299.356
8298.307
8297.125
8294.994
8291.951
8288.135
8283.622
8278.61
8273.125
8267.634
8262.429
8255.134
8247.092
8240.228
8235.745
8231.155
8226.291
8223.469
8221.851
8220.173
8217.815
8214.815
8211.687
8208.134
8203.738
8199.487
8195.162
8189.583
8183.942
8177.434
8170.563
8163.604
8158.597
8156.745
8157.758
8159.094
8160.049
8160.864
8161.36
8161.02
8160.868
8161.362
8161.638
8162.105
8161.978
8161.845
8162.171
8162.817
8163.708
8164.912
8166.524
8169.074
8172.413
8176.379
8181.092
8186.673
8192.668
8198.89
8204.583
8209.475
8214.379
8220.042
8225.234
8229.183
8233.043
8237.135
8241.407
8245.405
8248.695
8252.32
8256.65
8261.276
8265.782
8270.228
8274.213
8278.151
8282.184
8286.319
8289.778
8292.814
8296.019
8299.294
8302.38
8305.207
8307.521
8309.548
8311.489
8313.162
8314.612
8315.849
8316.884
8317.722
8318.332
8318.699
8318.875
8319.027
4147.375
4147.049
4136.14
4118.202
4085.742
4056.98
4039.141
4041.581
4061.221
4088.172
4108.177
4115.613
4117.737
4112.962
4118.397
4142.355
4163.867
4174.641
4171.513
4201.325
4226.824
4231.786
4190.538
4092.908
3976.114
3872.939
3795.437
3721.054
3644.023
3560.621
3491.591
3475.365
3551.077
3530.605
3575.244
3648.405
3746.438
3883.954
4057.567
4239.72
4434.959
4642.323
4803.103
4939.534
5064.942
5148.843
5219.87
5289.901
5322.407
5339.117
5347.503
5337.715
5326.906
5335.052
5352.495
5372.841
5387.615
5376.248
5355.526
5390.652
5430.929
5435.062
5452.48
5476.37
5470.357
5449.394
5440.525
5420.5
5410.517
5412.384
5429.564
5432.302
5379.066
5299.64
5223.857
5123.924
4977.191
4806.973
4634.265
4486.956
4410.833
4431.2
4493.152
4551.036
4608.902
4681.348
4775.689
4901.983
5055.307
5215.401
5369.53
5521.124
5671.708
5818.645
5949.341
6061.565
6149.275
6197.15
6198.15