/*--------------------------------*- C++ -*----------------------------------*\
| =========                 |                                                 |
| \\      /  F ield         | foam-extend: Open Source CFD                    |
|  \\    /   O peration     | Version:     3.1                                |
|   \\  /    A nd           | Web:         http://www.extend-project.de       |
|    \\/     M anipulation  |                                                 |
\*---------------------------------------------------------------------------*/
FoamFile
{
    version     2.0;
    format      ascii;
    class       surfaceScalarField;
    location    "8.5";
    object      phi;
}
// * * * * * * * * * * * * * * * * * * * * * * * * * * * * * * * * * * * * * //

dimensions      [0 3 -1 0 0 0 0];

internalField   nonuniform List<scalar> 
275122
(
2.605868e-05
-2.998773e-05
1.601096e-07
3.768933e-06
3.302146e-05
-3.10743e-05
-3.53256e-07
-1.593909e-06
2.960237e-05
-2.844399e-05
1.678412e-08
-1.175167e-06
2.755564e-05
-2.725693e-05
9.283769e-09
-3.079993e-07
2.618618e-05
-2.479811e-05
1.286807e-07
-1.516753e-06
2.070445e-05
-1.958435e-05
8.526578e-08
-1.205373e-06
1.478857e-05
-1.310305e-05
1.215702e-07
-1.807091e-06
8.212287e-06
-6.603878e-06
1.210018e-07
-1.729411e-06
1.492936e-06
-1.672848e-07
6.020222e-08
-1.385853e-06
-4.171004e-06
5.470313e-06
-4.822454e-08
-1.251084e-06
-9.263985e-06
1.025597e-05
-1.88532e-08
-9.731293e-07
-1.350661e-05
1.440187e-05
-1.146622e-08
-8.837895e-07
-1.738838e-05
1.850304e-05
-1.295133e-08
-1.101713e-06
-2.181808e-05
2.282965e-05
-1.665696e-08
-9.949201e-07
-2.657694e-05
2.769623e-05
-2.630463e-08
-1.092991e-06
-3.060286e-05
3.19864e-05
1.011233e-07
-1.48466e-06
-3.483205e-05
3.521646e-05
6.628659e-08
-4.507e-07
-3.721395e-05
3.853538e-05
5.215049e-08
-1.37358e-06
-4.070166e-05
4.243639e-05
1.297297e-09
-1.736027e-06
-4.509381e-05
4.962879e-05
5.930271e-09
-4.540906e-06
-5.446066e-05
5.702615e-05
-2.9758e-07
-2.267911e-06
-6.157679e-05
6.244561e-05
-1.442817e-07
-7.245387e-07
-6.876783e-05
7.145774e-05
1.262947e-08
-2.702532e-06
-8.487517e-05
8.829071e-05
-1.086178e-07
-3.306921e-06
-9.251453e-05
9.362458e-05
-1.544458e-07
-9.556049e-07
-9.669797e-05
9.716256e-05
2.499351e-09
-4.670937e-07
-9.323014e-05
9.018092e-05
1.738769e-07
2.875342e-06
-7.304683e-05
6.530338e-05
2.429991e-07
7.500454e-06
-3.620657e-05
2.680154e-05
2.094057e-07
9.195617e-06
-8.966863e-06
9.700219e-06
-3.165337e-08
-7.017023e-07
4.403605e-06
-4.97755e-06
7.783372e-08
4.961115e-07
-9.256216e-07
4.036005e-06
1.689715e-07
-3.279355e-06
-1.553816e-05
1.762298e-05
2.251544e-07
-2.309982e-06
-2.101167e-05
2.198305e-05
2.717796e-07
-1.243154e-06
-2.284909e-05
2.213733e-05
5.991678e-07
1.125964e-07
-1.755008e-05
1.495186e-05
1.103345e-06
1.494877e-06
-4.468313e-06
4.497069e-07
9.955089e-07
3.023099e-06
1.006978e-05
-1.358879e-05
2.541007e-07
3.264915e-06
2.412988e-05
-2.602856e-05
-1.515278e-06
3.413965e-06
3.488392e-05
-4.103078e-05
-2.900146e-06
9.046997e-06
-4.22274e-06
3.685873e-05
-4.040724e-05
-1.778433e-07
7.94909e-06
-2.256802e-06
4.857339e-05
-5.126592e-05
-1.459738e-07
5.095312e-06
-4.106773e-06
5.750306e-05
-6.127546e-05
-2.18294e-07
8.097474e-06
-4.487133e-06
7.074866e-05
-7.347959e-05
-7.257092e-08
7.290631e-06
-4.521943e-06
8.079233e-05
-8.237374e-05
3.558943e-08
6.06777e-06
-4.101075e-06
8.794966e-05
-9.042233e-05
1.943916e-07
6.379354e-06
-2.720386e-06
9.614807e-05
-9.764387e-05
5.528379e-07
3.663352e-06
-3.358954e-06
0.0001012556
-0.0001057993
7.119959e-07
7.190664e-06
-1.273083e-05
0.0001145908
-0.0001174234
-1.437854e-07
1.570727e-05
-7.400882e-06
0.0004726178
-0.0005024893
-1.631275e-06
6.007901e-05
-5.900682e-06
-9.460327e-06
-5.814303e-06
-4.875612e-06
0.0005247162
-0.0005402727
-6.77962e-07
3.528609e-05
-5.280589e-06
-4.499682e-06
-4.395752e-06
-5.917312e-06
0.0005513616
-0.0005534249
-4.127273e-07
2.858907e-05
-6.309852e-06
-6.876862e-06
-7.009031e-06
-4.846686e-06
0.0005532197
-0.0005554846
-2.012124e-07
2.18572e-05
-4.642049e-06
-5.044378e-06
-4.85791e-06
-4.017687e-06
0.0005575235
-0.0005592196
-1.758438e-07
1.776667e-05
-3.795343e-06
-4.184542e-06
-3.897126e-06
-9.580993e-07
0.0005663679
-0.0005764156
-1.020548e-07
1.400047e-05
-6.490636e-07
-1.070544e-06
-1.172946e-06
-6.519042e-07
0.0005868884
-0.0006011689
-6.345939e-08
1.014586e-05
2.373717e-06
-3.456288e-07
2.82189e-06
-1.933402e-06
0.0006106374
-0.0006228427
3.593128e-07
1.909186e-05
-1.760967e-06
-1.773544e-06
-1.777967e-06
-9.461924e-06
0.0006307486
-0.0006244749
6.528799e-07
3.371466e-05
-1.187014e-05
-8.235924e-06
-1.107329e-05
1.093838e-05
0.0006061713
-0.0006232513
4.247519e-07
1.283126e-05
-6.399702e-06
1.064584e-05
-1.136051e-05
-4.2162e-06
0.0005919826
-0.0005712689
-8.515537e-08
-7.597296e-06
-3.441967e-06
-2.942755e-06
-2.430245e-06
-1.992786e-06
0.0005547326
-0.0005312931
-8.851372e-07
-1.68791e-05
-1.942781e-06
-5.616939e-07
-1.177939e-06
3.924074e-07
0.0005151691
-0.0004911655
-1.337491e-06
-2.938479e-05
4.092796e-06
7.090335e-07
1.524432e-06
5.781965e-06
0.0004745365
-0.0004484804
-9.545106e-07
-5.085751e-05
5.386453e-06
7.315847e-06
7.271647e-06
8.309372e-06
0.0004268325
-0.0003977462
-3.043178e-07
-6.467666e-05
7.222418e-06
1.047544e-05
9.887541e-06
1.070324e-05
0.0003791264
-0.0003522073
4.131338e-07
-7.177484e-05
8.22701e-06
1.345017e-05
1.206211e-05
8.652935e-06
0.0003310527
-0.0003089177
1.219675e-07
-6.700451e-05
1.478967e-05
8.204756e-06
1.310013e-05
8.863098e-06
0.000301277
-0.0002832618
-8.105623e-08
-4.92757e-05
5.821908e-06
9.827842e-06
6.828773e-06
-2.441899e-06
0.0002514971
-0.000216663
-8.783133e-07
-2.924576e-05
-1.043768e-06
-1.7179e-06
4.935123e-07
-2.422741e-05
0.0001948729
-0.0001518559
1.605022e-08
-1.880562e-05
2.449351e-05
0.0001333061
-0.0001260897
9.236327e-09
-3.171912e-05
1.605641e-05
0.0001148213
-9.649095e-05
8.848145e-07
-3.527156e-05
2.466323e-05
8.58431e-05
-7.518327e-05
1.130773e-06
-3.645383e-05
9.136546e-06
6.530528e-05
-4.892056e-05
4.880183e-08
-2.557006e-05
2.974819e-05
2.791645e-05
-1.185686e-05
-4.316557e-07
-4.537612e-05
3.697801e-05
-5.458034e-06
1.382792e-05
7.622866e-08
-4.542412e-05
2.863375e-05
-2.423041e-05
3.731525e-05
-2.16024e-07
-4.150257e-05
2.310677e-05
-4.800067e-05
6.021589e-05
-5.815125e-07
-3.474049e-05
1.734499e-05
-7.329806e-05
8.874332e-05
-1.437311e-07
-3.264651e-05
1.635935e-05
-9.956103e-05
0.0001164242
3.648663e-07
-3.35874e-05
2.264795e-05
-0.0001289526
0.0001406705
1.482564e-07
-3.451415e-05
2.263799e-05
-0.0001510393
0.0001615558
1.526593e-07
-3.330719e-05
2.319939e-05
-0.000170303
0.0001784952
1.518531e-07
-3.154348e-05
2.351862e-05
-0.000188522
0.0001949919
2.242111e-07
-3.021272e-05
1.246042e-05
-0.0002009239
0.0002136701
6.808513e-07
-2.58874e-05
2.010461e-05
-0.0002230528
0.00023145
9.227197e-07
-2.942454e-05
1.550293e-05
-0.000237672
0.0002533719
1.878909e-06
-3.308166e-05
2.720141e-05
-0.0002638134
0.000275305
1.850256e-06
-4.054331e-05
2.872136e-05
-0.0002809317
0.0002883938
5.442433e-07
-3.672772e-05
1.858533e-05
-0.0002998802
0.000309591
-7.336969e-07
-2.756243e-05
2.63383e-05
-0.0003173053
0.0003189631
-3.953273e-06
-2.404276e-05
3.125497e-05
-0.0003240158
0.0003207441
-3.178976e-06
-2.480427e-05
3.128133e-05
-0.0003164175
0.0003102622
7.270674e-08
-2.51987e-05
1.328544e-05
-0.000309461
0.0003177387
2.449306e-06
-2.401243e-05
-1.945286e-06
-0.0003313544
0.0003447892
1.150088e-06
-1.263955e-05
-3.955298e-05
-0.0003532205
0.0003534899
1.891255e-06
3.739233e-05
-0.0001121558
-0.0003331082
0.0002954728
2.223843e-06
0.0001475673
-0.0001607829
-0.0002478489
0.0002066012
1.904143e-06
0.0002001265
-2.217829e-05
-0.0001424882
8.282588e-05
-1.384474e-07
0.0001417478
-2.474638e-05
-1.46795e-05
-2.03429e-05
-1.1922e-05
-2.816881e-05
-4.490675e-05
4.584076e-07
0.0001192656
-1.097747e-05
-1.049634e-05
-1.325268e-05
-2.443187e-05
0.0001023175
-0.0001644331
6.855139e-07
0.0001580236
-2.305577e-05
-2.436577e-05
-2.474016e-05
-1.864656e-05
0.0002281088
-0.0003094111
-2.622375e-07
0.0001584278
-1.50428e-05
-2.034902e-05
-2.282497e-05
-2.050788e-05
0.0003912951
-0.0004393906
4.314134e-07
0.000156582
-2.934815e-05
-2.972682e-05
-2.933509e-05
-1.82587e-05
0.0004896938
-0.0005427015
7.247047e-08
0.0001452191
-2.618183e-05
-2.419329e-05
-2.365007e-05
-2.060742e-05
0.000590586
-0.0006350297
-4.618806e-07
0.000125987
-1.972352e-05
-2.059949e-05
-2.015096e-05
-1.654337e-05
0.0006758078
-0.0007146896
-1.128829e-06
0.0001055986
-1.468337e-05
-1.780955e-05
-1.655163e-05
-1.228815e-05
0.0007540722
-0.0007851901
-2.090836e-06
9.003044e-05
-1.605695e-05
-1.551629e-05
-1.296034e-05
-1.147475e-05
0.0008157197
-0.0008379704
-2.263265e-06
6.76006e-05
-1.037329e-05
-1.045954e-05
-1.077907e-05
-7.348206e-06
0.0008578118
-0.00087034
-1.545647e-06
4.026904e-05
-6.084405e-06
-7.07421e-06
-5.688378e-06
-1.636421e-06
0.0008789088
-0.0008827812
-4.975705e-07
1.019747e-05
-1.36879e-06
-1.849395e-06
-9.728135e-07
1.408589e-06
0.0008814742
-0.0008770505
2.018412e-07
-1.015562e-05
1.425868e-06
1.211812e-06
1.483796e-06
2.3201e-06
0.0008709187
-0.0008588185
2.114225e-07
-2.268851e-05
2.5147e-06
2.965357e-06
2.576693e-06
3.30546e-06
0.000844416
-0.0008306359
-2.013208e-07
-2.786588e-05
4.472598e-06
2.903128e-06
3.605976e-06
6.885542e-06
0.0008156074
-0.0007984032
-7.601532e-07
-4.324803e-05
7.415525e-06
6.043323e-06
6.459654e-06
8.709856e-06
0.0007787235
-0.0007519554
-6.903887e-07
-6.192206e-05
1.001214e-05
9.402928e-06
7.719494e-06
1.007531e-05
0.0007280188
-0.0006996663
-5.170337e-07
-6.910421e-05
1.049339e-05
9.496477e-06
1.120356e-05
8.614357e-06
0.0006750673
-0.0006464901
-5.150878e-07
-6.748944e-05
1.143551e-05
8.61637e-06
1.076106e-05
1.279086e-05
0.0006247494
-0.0005959402
-1.621884e-07
-7.718014e-05
1.163766e-05
1.038831e-05
1.371629e-05
8.683325e-06
0.0005630995
-0.0005240486
7.742358e-08
-8.279035e-05
1.00112e-05
1.072074e-05
1.424674e-05
9.767404e-06
0.0004954927
-0.0004582812
-2.973342e-07
-7.847931e-05
8.853638e-06
1.231747e-05
1.062659e-05
1.42314e-05
0.0004289156
-0.0003872739
-6.962883e-07
-8.990472e-05
1.129543e-05
1.291864e-05
1.05138e-05
1.56256e-05
0.0003622342
-0.0003334163
1.345209e-06
-8.58748e-05
1.470395e-05
1.1854e-05
1.352823e-05
1.708244e-05
0.0002963046
-0.0002676871
2.845491e-07
-8.217042e-05
1.534277e-05
8.24361e-06
1.259954e-05
1.481559e-05
-0.0002067695
6.174777e-07
-8.758309e-05
1.392949e-05
1.216933e-05
1.744805e-05
0.0002353727
1.441136e-05
0.0001752691
-0.0001453274
7.753671e-07
-8.636306e-05
1.318445e-05
1.439262e-05
1.365763e-05
1.519641e-05
0.0001174762
-8.671867e-05
3.802161e-07
-8.910167e-05
1.381241e-05
1.515865e-05
1.379649e-05
8.373447e-06
5.367005e-05
-1.877137e-05
-3.481467e-07
-9.064343e-05
1.325821e-05
1.737531e-05
1.708592e-05
6.83727e-06
-2.286161e-05
5.541291e-05
2.081704e-06
-8.310923e-05
1.44803e-05
6.89821e-06
2.026045e-05
1.152115e-05
-8.338158e-05
0.0001142704
8.678432e-07
-8.122569e-05
1.363093e-05
8.02029e-06
1.629664e-05
1.441279e-05
-0.0001472507
0.0001759662
7.839359e-07
-7.863205e-05
1.502436e-05
7.831287e-06
1.186416e-05
1.15137e-05
-0.0002041017
0.0002254401
6.179804e-07
-7.092037e-05
1.363208e-05
1.243744e-05
1.13808e-05
8.150988e-06
-0.0002599452
0.00028038
8.67931e-07
-7.0409e-05
1.35499e-05
1.381152e-05
1.359384e-05
4.382096e-06
-0.0003018269
0.0003328041
1.268112e-06
-6.038978e-05
4.008148e-06
1.264992e-05
7.104328e-06
7.300864e-06
-0.0003717084
0.0003989653
8.182525e-07
-6.161737e-05
8.361921e-06
9.637733e-06
8.241755e-06
7.818938e-06
-0.0004271261
0.0004496285
7.028227e-07
-6.002105e-05
9.779135e-06
9.429454e-06
9.788316e-06
6.063644e-06
-0.0004699237
0.0004885408
6.627612e-07
-5.223325e-05
8.015485e-06
9.308255e-06
9.565989e-06
4.038695e-06
-0.0005116561
0.0005330267
6.441191e-07
-4.278711e-05
4.398228e-06
5.648247e-06
6.687298e-06
3.750215e-06
-0.0005493543
0.0005705617
7.371062e-07
-4.166191e-05
2.468448e-06
6.409672e-06
7.089043e-06
3.632332e-06
-0.0005876186
0.0006036079
8.667371e-07
-3.93972e-05
5.035521e-06
6.885767e-06
6.987499e-06
-3.653944e-07
-0.0006140568
0.0006258606
1.331047e-06
-2.839826e-05
4.815007e-07
7.05324e-06
8.094046e-06
1.396422e-06
-0.0006337925
0.000643926
1.272023e-06
-2.255825e-05
1.85092e-06
3.31616e-06
4.589217e-06
1.465711e-06
-0.0006535197
0.0006661652
1.005602e-06
-2.084863e-05
1.085328e-06
1.905149e-06
2.741315e-06
3.295534e-07
-0.0006742434
0.0006844271
1.022641e-06
-1.308918e-05
7.861894e-08
1.252986e-07
1.349351e-06
-6.71821e-07
-0.000690748
0.0006990924
8.036921e-07
-6.422913e-06
-7.879874e-08
-1.867843e-06
-1.067989e-07
-2.320624e-06
-0.0007018395
0.000704208
7.806853e-07
6.190745e-06
-1.844051e-06
-3.471631e-06
-1.703659e-06
-3.399361e-06
-0.0007008944
0.0006987297
7.984654e-07
1.739863e-05
-3.606683e-06
-4.946673e-06
-4.079747e-06
-5.494682e-06
-0.0006924437
0.0006889351
6.97023e-07
3.125216e-05
-5.930246e-06
-8.630159e-06
-8.385487e-06
-1.233052e-05
-0.0006840546
0.0006940029
3.979052e-07
3.770169e-05
-1.717018e-05
-6.951841e-06
-1.159534e-05
-7.094922e-06
-0.0006625424
0.0006414103
4.672664e-07
7.778913e-05
-2.429664e-05
-1.011966e-05
-1.561315e-05
-1.105697e-05
-0.000615281
0.0005870801
-5.691328e-09
5.876909e-05
-7.077821e-06
-6.262406e-06
-6.165297e-06
-5.337623e-06
-0.0005424991
0.0005009465
-5.842118e-07
6.180277e-05
-4.576063e-06
-6.185995e-06
-3.566251e-06
-4.706052e-06
-0.0004577986
0.0004095658
-6.538411e-07
6.689258e-05
-4.170629e-06
-4.819319e-06
-4.310032e-06
-4.813413e-06
-0.0003774081
0.0003531438
1.308581e-07
4.2263e-05
-5.217672e-06
-3.846293e-06
-4.252178e-06
-4.430667e-06
-0.000330655
0.0003062974
1.524554e-06
3.959806e-05
-4.29987e-06
-4.060554e-06
-3.973963e-06
-3.913724e-06
-0.0002861228
0.0002670585
7.841452e-07
3.311578e-05
-3.596976e-06
-3.830371e-06
-3.494538e-06
-2.264084e-06
-0.0002552476
0.0002432965
-1.171872e-06
2.090061e-05
-1.639712e-06
-2.100994e-06
-1.772853e-06
1.71122e-07
-0.0002381285
0.0002374282
-6.999725e-07
9.509492e-07
2.739708e-07
1.702932e-07
-1.660931e-07
2.612206e-07
-0.0002376267
0.0002360889
-5.906804e-07
1.987241e-06
-1.101543e-07
2.972796e-07
-3.070531e-07
-1.882702e-06
-0.0002383467
0.0002312034
-2.030854e-06
1.70288e-05
-2.401345e-06
-1.721362e-06
-1.849294e-06
-4.252226e-06
-0.0002269721
0.0002131949
-1.883289e-06
3.191732e-05
-4.768877e-06
-3.558267e-06
-3.67743e-06
-5.465598e-06
-0.0001981854
0.0001825639
-1.257012e-06
3.563697e-05
-4.952768e-06
-4.224475e-06
-4.115616e-06
-4.362057e-06
-0.0001689504
0.0001493128
-3.230516e-07
3.789432e-05
-4.276224e-06
-4.53186e-06
-4.763526e-06
-4.173126e-06
-0.0001362184
0.0001208325
-2.431834e-07
3.243301e-05
-4.038616e-06
-4.498301e-06
-4.093897e-06
-3.770296e-06
-0.0001013685
9.027934e-05
-3.595883e-07
2.606439e-05
-3.529344e-06
-3.316827e-06
-3.999168e-06
-2.973134e-06
-7.891871e-05
7.457946e-05
-3.652078e-07
1.595337e-05
-2.8132e-06
-2.716533e-06
-2.746054e-06
-2.69578e-06
-6.282849e-05
4.898914e-05
5.498748e-07
2.43573e-05
-2.748598e-06
-2.856198e-06
-2.767243e-06
-2.613812e-06
-3.648189e-05
2.616791e-05
5.499575e-08
2.052692e-05
-2.533268e-06
-2.599524e-06
-2.521334e-06
-2.173946e-06
-1.841233e-05
1.443736e-05
-7.369845e-07
1.305458e-05
-1.991359e-06
-2.217914e-06
-1.959407e-06
-1.46942e-06
-1.200046e-05
1.062156e-05
-1.212622e-06
7.880449e-06
-1.244967e-06
-1.423605e-06
-1.150939e-06
-6.045288e-07
-1.149259e-05
1.437898e-05
-1.204008e-06
2.912496e-07
-4.270931e-07
-5.613986e-07
-3.806121e-07
2.486687e-07
-1.881864e-05
2.290836e-05
-7.007304e-07
-4.528638e-06
3.176231e-07
2.596101e-07
3.137396e-07
6.124754e-07
-2.694343e-05
2.756823e-05
7.855346e-08
-3.052539e-06
5.809706e-07
5.453048e-07
6.104366e-07
1.407883e-07
-2.709174e-05
2.622437e-05
5.531493e-07
-6.718891e-07
4.199382e-07
2.676362e-07
1.57748e-07
-4.667308e-07
2.304919e-05
7.254284e-07
3.593618e-06
-2.533472e-05
-5.638482e-07
-4.51677e-07
-5.512557e-07
-1.067833e-06
-1.839308e-05
1.204701e-05
6.309605e-07
1.021204e-05
-1.152849e-06
-1.094066e-06
-1.182187e-06
-1.563575e-06
-3.2126e-06
-5.750531e-06
2.15671e-07
1.519728e-05
-1.630986e-06
-1.599691e-06
-1.655566e-06
-1.829998e-06
1.585485e-05
-2.602013e-05
-2.227506e-07
1.771378e-05
-1.824552e-06
-1.852263e-06
-1.818941e-06
-1.585253e-06
3.33935e-05
-4.21371e-05
-4.239648e-07
1.556028e-05
-1.497507e-06
-1.625909e-06
-1.684045e-06
-1.699209e-06
4.422577e-05
-4.860477e-05
-5.659503e-07
1.18898e-05
-1.817845e-06
-1.63574e-06
-1.792059e-06
-1.512829e-06
5.453193e-05
-5.613792e-05
-3.526837e-07
7.761666e-06
-1.395428e-06
-1.505078e-06
-1.389663e-06
-4.553596e-07
5.387383e-05
-4.855672e-05
-6.376532e-08
-3.72819e-06
-2.959615e-07
-4.711477e-07
-3.026881e-07
4.708211e-07
4.369781e-05
-4.159234e-05
1.732088e-07
-4.131449e-06
4.284705e-07
4.517266e-07
5.017523e-07
7.008339e-07
4.088565e-05
-3.869587e-05
-7.180382e-07
-4.515072e-06
7.956933e-07
7.466579e-07
8.001437e-07
1.164224e-06
3.709435e-05
-3.830138e-05
-6.099942e-07
-2.642245e-06
1.147478e-06
1.125019e-06
1.022548e-06
1.449945e-06
3.831717e-05
-3.334578e-05
-5.116007e-07
-1.052649e-05
1.61556e-06
1.457178e-06
1.544009e-06
6.670546e-07
3.135885e-05
-3.376628e-05
-4.615195e-07
7.602964e-07
5.177845e-07
5.922986e-07
3.31516e-07
-7.990197e-07
2.97515e-05
-2.893271e-05
8.233308e-07
1.062379e-06
-7.756608e-07
-4.456813e-07
-6.841333e-07
-1.548293e-06
3.742578e-05
-5.172074e-05
1.3041e-06
1.98653e-05
-1.98999e-06
-1.600869e-06
-1.735285e-06
-1.238354e-06
6.482357e-05
-6.919192e-05
-2.701583e-08
9.589906e-06
-1.386939e-06
-1.462062e-06
-1.107188e-06
-1.457591e-06
7.465864e-05
-7.918235e-05
1.658008e-07
9.845687e-06
-1.666631e-06
-1.40934e-06
-9.542248e-07
-7.917468e-07
8.201225e-05
-8.183521e-05
1.278825e-07
2.459286e-06
-8.94841e-07
-7.003276e-07
-3.772864e-07
1.758319e-07
8.429371e-05
-8.471007e-05
1.393652e-06
-1.82937e-06
1.425552e-07
2.08109e-07
3.255881e-07
-4.2637e-08
8.887378e-05
-9.146922e-05
6.987743e-08
2.908106e-06
-2.786616e-07
-1.331744e-07
7.192813e-08
-3.907323e-07
8.859884e-05
-8.330397e-05
-3.122924e-07
-3.1619e-06
-7.139379e-07
-4.600213e-07
-2.559885e-07
2.494062e-07
7.63553e-05
-7.337379e-05
2.561681e-07
-4.416172e-06
2.269808e-07
3.130959e-07
3.890163e-07
7.441511e-07
7.515216e-05
-7.137466e-05
7.008995e-07
-7.768763e-06
8.009251e-07
7.911211e-07
9.541682e-07
1.851247e-06
6.315753e-05
-5.469633e-05
2.168191e-06
-1.864428e-05
1.987966e-06
1.966583e-06
2.209087e-06
2.925901e-06
4.831181e-05
-4.946639e-05
1.951327e-06
-1.244107e-05
2.453078e-06
3.118373e-06
3.146961e-06
3.054231e-06
1.266162e-05
-1.383664e-05
5.341045e-08
-1.932626e-06
-1.082026e-06
1.395291e-05
-1.461034e-05
1.229847e-07
1.616468e-06
-3.656809e-08
1.565783e-05
-1.576162e-05
-1.07678e-08
1.51127e-07
2.012005e-06
1.430442e-05
-1.452013e-05
-7.184487e-08
-1.724448e-06
1.319897e-06
7.028667e-06
-2.881914e-06
-2.232825e-07
-5.243368e-06
5.042429e-07
1.321229e-07
-6.202626e-08
-8.372746e-07
2.62935e-07
1.283872e-06
-4.698432e-06
5.496763e-06
-1.525644e-07
-1.929639e-06
1.036556e-06
-8.836861e-06
8.877704e-06
9.034871e-09
-1.086434e-06
3.228693e-07
-9.969901e-06
1.075462e-05
-4.014658e-08
-1.067442e-06
2.901962e-07
-1.164041e-05
1.219517e-05
-3.168304e-08
-8.132753e-07
1.868631e-07
-1.27148e-05
1.277257e-05
-3.365278e-08
-2.109766e-07
1.143634e-07
-1.344785e-05
1.357278e-05
-5.732324e-09
-2.33554e-07
8.649347e-08
-1.409013e-05
1.427599e-05
2.654471e-08
-2.989013e-07
5.552274e-07
-1.459463e-05
1.519135e-05
6.700784e-08
-1.218953e-06
5.265119e-07
-1.748744e-05
1.854714e-05
3.55999e-08
-1.621803e-06
1.151689e-07
-1.918527e-05
1.94278e-05
-1.470507e-07
-2.106488e-07
1.136761e-07
-2.011794e-05
2.043284e-05
-1.936264e-07
-2.349492e-07
2.493302e-07
-2.241031e-05
2.342452e-05
-3.931596e-07
-8.703767e-07
-1.456037e-06
-2.550355e-05
2.715373e-05
-6.551314e-07
4.609902e-07
1.863378e-06
-3.000359e-05
3.284484e-05
3.054134e-07
-5.010037e-06
2.580189e-07
-3.303451e-05
3.287324e-05
3.702907e-07
-4.670439e-07
-7.389339e-08
-3.290266e-05
3.283832e-05
1.192223e-07
1.901364e-08
-6.386861e-07
-3.235129e-05
3.210053e-05
8.654344e-09
8.807929e-07
2.94167e-07
-3.046396e-05
3.240799e-05
3.033458e-07
-2.54154e-06
2.745908e-07
-3.413174e-05
3.499319e-05
2.685335e-07
-1.404573e-06
8.304794e-08
-3.513471e-05
3.508558e-05
2.310499e-07
-2.649702e-07
-3.681952e-07
-3.482218e-05
3.439643e-05
7.058437e-08
7.233553e-07
-3.325697e-07
-3.345124e-05
3.317057e-05
1.231099e-07
4.901238e-07
-2.509475e-07
-3.254797e-05
3.238595e-05
6.978825e-08
3.43186e-07
-9.646138e-08
-3.204728e-05
3.199475e-05
5.170998e-08
9.729075e-08
-2.486908e-07
-3.187468e-05
3.160996e-05
4.895205e-08
4.64459e-07
-2.844867e-07
-3.110545e-05
3.083796e-05
6.899919e-08
4.82987e-07
-3.167948e-07
-3.020643e-05
3.024627e-05
-1.061272e-07
3.830797e-07
-2.406032e-07
-3.025664e-05
3.03096e-05
-1.212181e-07
3.088565e-07
-1.166695e-07
-3.038897e-05
3.052792e-05
-7.748397e-08
5.520387e-08
9.503154e-08
-3.107526e-05
3.109018e-05
-3.910463e-08
-7.084627e-08
-1.005387e-07
-3.085592e-05
3.059732e-05
-2.947364e-08
3.886094e-07
5.484945e-08
-3.012859e-05
3.006517e-05
-3.930018e-08
4.78697e-08
2.351301e-07
-2.973125e-05
2.945239e-05
-3.56725e-08
7.94077e-08
3.158447e-07
-3.069124e-05
3.065933e-05
6.387731e-08
-3.478182e-07
-5.254484e-08
-3.002926e-05
2.999862e-05
2.855115e-08
5.462895e-08
-1.957622e-07
-2.888245e-05
2.885229e-05
4.514146e-10
2.254698e-07
-2.920533e-07
-2.753231e-05
2.748414e-05
3.586623e-08
3.043583e-07
-2.955912e-07
-2.576151e-05
2.506075e-05
4.208817e-08
9.542694e-07
-5.725075e-07
-2.425076e-05
2.309888e-05
8.912431e-08
1.635261e-06
-1.162941e-06
-1.921382e-05
1.791038e-05
8.19772e-08
2.3844e-06
-1.635484e-06
-1.395952e-05
1.324146e-05
1.451481e-07
2.20839e-06
-1.006585e-06
-7.753163e-06
7.035433e-06
2.122021e-07
1.512113e-06
-2.308064e-07
-4.97695e-06
4.889914e-06
-3.926573e-08
3.571078e-07
9.385716e-07
-6.244046e-06
7.786976e-06
-3.030542e-07
-2.178447e-06
2.622755e-06
-1.145976e-05
1.338908e-05
-5.422857e-07
-4.009791e-06
1.741635e-06
-2.669446e-05
3.311409e-05
-4.58636e-07
-7.702628e-06
3.43838e-06
-3.369541e-05
3.614374e-05
3.929177e-07
-6.279629e-06
1.133754e-06
-3.925635e-05
4.072318e-05
2.356767e-07
-2.836268e-06
2.96792e-07
-4.156664e-05
4.189883e-05
-1.514702e-08
-6.138372e-07
3.569708e-08
-4.195947e-05
4.183537e-05
-6.915416e-08
1.575618e-07
6.419691e-08
-4.178732e-05
4.154251e-05
-6.276438e-08
2.43376e-07
2.082434e-08
-4.135961e-05
4.137197e-05
-9.35601e-08
6.037315e-08
-5.641486e-07
-4.042135e-05
4.031002e-05
-9.041348e-08
7.659014e-07
-3.898919e-07
-3.914042e-05
3.841051e-05
-4.731618e-08
1.167112e-06
-8.834967e-07
-3.642409e-05
3.606794e-05
-3.195448e-08
1.271601e-06
-1.255325e-06
-3.417359e-05
3.335392e-05
4.265369e-08
2.032341e-06
-1.529997e-06
-2.980129e-05
2.673225e-05
1.361149e-07
4.46292e-06
-3.436908e-06
-2.099981e-05
2.051449e-05
1.426686e-07
3.779565e-06
-2.610455e-06
-1.214413e-05
8.992353e-06
2.899993e-07
5.472236e-06
-1.813616e-06
-2.476689e-06
1.090548e-06
1.903721e-07
3.009385e-06
7.975997e-07
2.747135e-07
5.933852e-07
-8.603115e-08
-1.579667e-06
2.200943e-06
-8.03595e-06
8.539345e-06
-7.321087e-07
-1.972229e-06
1.067492e-06
-1.03272e-05
1.035091e-05
-3.280799e-07
-7.631206e-07
-2.138022e-06
-1.055882e-05
1.042534e-05
-2.95477e-07
2.566978e-06
-2.048649e-06
-7.545817e-06
5.398125e-05
-6.610888e-07
1.521072e-05
-3.67273e-06
-1.862742e-06
-3.601582e-06
-6.991938e-06
-2.246162e-05
-2.03458e-05
-9.726422e-07
-4.603989e-05
3.991074e-05
-2.18158e-07
1.016447e-05
-9.030699e-07
-1.0181e-06
-9.233429e-07
-5.968418e-07
-3.285034e-05
2.744578e-05
6.917352e-08
7.582906e-06
-5.794567e-07
-5.453268e-07
-5.258966e-07
-7.220088e-07
-2.455667e-05
2.185298e-05
-2.4506e-07
5.951526e-06
-7.870871e-07
-7.323555e-07
-7.613291e-07
-1.104799e-06
-1.908464e-05
1.327538e-05
9.152875e-08
1.038097e-05
-1.248039e-06
-1.125786e-06
-1.184612e-06
-2.020178e-06
-5.39312e-06
-1.021389e-05
6.152358e-07
2.346742e-05
-2.303891e-06
-2.043821e-06
-2.107753e-06
-2.931202e-06
2.437645e-05
-4.561556e-05
-7.575598e-07
3.400038e-05
-3.033722e-06
-3.027443e-06
-3.011336e-06
-3.982251e-06
6.273641e-05
-7.212509e-05
-2.837449e-06
2.64758e-05
-3.80696e-06
-3.264334e-06
-3.196131e-06
-4.045937e-06
9.148165e-05
-0.0001050288
-3.141084e-07
2.884272e-05
-4.039165e-06
-3.708801e-06
-3.187526e-06
1.460549e-06
9.839651e-05
-8.708531e-05
2.682399e-06
-2.090228e-05
1.807611e-06
1.508546e-06
2.131971e-06
9.229309e-07
8.565729e-05
-8.391253e-05
6.051969e-07
-5.638075e-06
3.50606e-07
1.028723e-06
9.858625e-07
1.314305e-06
7.733495e-05
-6.158284e-05
7.143733e-07
-2.217789e-05
1.372836e-06
1.659566e-06
1.364707e-06
2.661087e-06
4.305387e-05
-2.65494e-05
1.776627e-06
-2.891719e-05
2.639024e-06
2.583415e-06
2.752566e-06
3.102196e-06
1.300484e-05
2.483352e-06
1.429267e-06
-2.945612e-05
3.18498e-06
3.125942e-06
3.125545e-06
2.927563e-06
-1.200074e-05
1.962078e-05
1.615927e-06
-2.066888e-05
2.862768e-06
2.859937e-06
2.782651e-06
2.171072e-06
-2.263919e-05
2.169566e-05
2.84524e-06
-1.016228e-05
2.054203e-06
2.079533e-06
1.955765e-06
1.525573e-06
-1.866751e-05
1.554911e-05
2.83657e-06
-5.239336e-06
1.250789e-06
1.434015e-06
1.31079e-06
2.793571e-07
-8.626419e-06
5.384614e-06
1.78165e-06
1.365024e-07
1.708457e-07
5.700877e-07
3.033615e-07
-9.442523e-07
-1.675608e-06
-2.020171e-06
-9.665948e-08
7.021369e-06
-9.464292e-07
-7.235986e-07
-6.146507e-07
-1.051816e-06
2.497853e-06
-6.9241e-06
-2.126319e-06
1.038608e-05
-1.10933e-06
-9.021892e-07
-7.701821e-07
-2.128355e-06
1.123692e-05
-1.07654e-05
-3.514938e-06
9.954015e-06
-1.960662e-06
-1.310729e-06
-1.510845e-06
-2.394616e-06
1.27718e-05
-1.728696e-05
-6.616488e-06
2.078724e-05
-2.457956e-06
-2.392832e-06
-2.410184e-06
-1.465246e-06
2.109236e-05
-1.164545e-05
-3.023588e-06
-1.360825e-06
-1.094349e-06
-1.440808e-06
-1.062096e-06
1.275792e-06
2.832616e-06
2.042202e-05
-1.590024e-06
-2.768875e-05
1.850287e-06
1.24243e-06
1.655631e-06
3.773952e-06
-3.814318e-05
4.326678e-05
1.352833e-06
-1.982989e-05
3.394704e-06
2.692663e-06
3.492138e-06
2.346486e-06
-5.720346e-05
6.310763e-05
1.680928e-06
-1.865069e-05
3.747561e-06
2.617597e-06
2.353937e-06
2.228934e-06
-7.089582e-05
7.805829e-05
7.744585e-07
-1.686287e-05
2.188815e-06
2.259823e-06
2.248367e-06
1.942566e-06
-8.253209e-05
8.467006e-05
-3.293742e-07
-9.614088e-06
1.874944e-06
2.026885e-06
1.961093e-06
1.331567e-06
-8.534513e-05
8.448324e-05
-1.645261e-06
-2.872077e-06
1.215006e-06
1.477594e-06
1.355059e-06
5.429675e-07
-8.34268e-05
8.184887e-05
-1.558528e-06
8.57768e-07
4.52384e-07
6.516906e-07
6.316532e-07
1.125039e-07
-8.037823e-05
7.960986e-05
-5.828057e-07
7.555741e-07
1.246032e-07
1.770297e-07
1.814623e-07
5.551377e-07
-8.131429e-05
8.448132e-05
6.230506e-07
-6.275691e-06
6.912617e-07
5.505948e-07
6.886183e-07
2.074057e-06
-8.982302e-05
0.0001004113
2.323639e-06
-2.096557e-05
2.042753e-06
1.971594e-06
1.965247e-06
2.301572e-06
-0.0001023896
0.0001096183
1.794981e-06
-1.726544e-05
2.36715e-06
2.061539e-06
1.511414e-06
6.54954e-07
-0.0001071378
0.0001098127
7.164357e-07
-6.045153e-06
6.644323e-07
9.346972e-07
3.99748e-07
-6.589024e-07
-0.0001101848
0.0001084409
1.82567e-07
4.785754e-06
-8.878906e-07
-7.374205e-07
-9.401858e-07
-1.51629e-06
-0.0001035192
9.896494e-05
-5.069578e-07
1.128211e-05
-1.587871e-06
-1.523395e-06
-1.593384e-06
-1.778143e-06
-9.442787e-05
8.935923e-05
-3.916761e-07
1.268897e-05
-1.814361e-06
-1.799023e-06
-1.837135e-06
-1.866181e-06
-8.308311e-05
7.53462e-05
8.914805e-07
1.462939e-05
-1.941545e-06
-1.946215e-06
-2.030017e-06
-2.492667e-06
-5.906031e-05
5.340908e-05
4.748984e-08
1.612332e-05
-2.641559e-06
-2.614024e-06
-2.771333e-06
-3.883098e-06
-4.079457e-05
2.648592e-05
-3.242757e-07
3.075021e-05
-4.104823e-06
-3.909058e-06
-4.220314e-06
-4.420362e-06
-7.274191e-06
-1.136636e-05
1.027662e-06
3.48539e-05
-4.200069e-06
-4.388972e-06
-4.231613e-06
-1.964283e-06
1.735597e-05
-1.222633e-05
1.419041e-06
-9.818181e-08
-1.078788e-06
-2.202179e-06
-1.20524e-06
3.606484e-06
-5.202589e-06
2.344942e-05
1.727916e-06
-3.560243e-05
4.241178e-06
3.509901e-06
4.270119e-06
5.672389e-06
-2.702205e-05
4.414764e-05
-2.703467e-06
-3.276445e-05
4.033293e-06
4.212209e-06
4.424441e-06
3.962476e-06
-5.789337e-05
5.70472e-05
1.842361e-09
-1.579753e-05
4.311439e-06
4.033328e-06
4.334614e-06
2.786147e-06
-6.748368e-05
8.076157e-05
-6.130534e-07
-2.432045e-05
2.970859e-06
2.977978e-06
2.920637e-06
2.739559e-06
-9.328853e-05
0.0001044733
-1.075323e-06
-2.081402e-05
2.648504e-06
2.689821e-06
2.626688e-06
2.013063e-06
-0.0001110919
0.0001148729
-1.355424e-06
-1.010299e-05
1.786733e-06
2.050318e-06
1.827308e-06
8.219157e-07
-0.0001154397
0.0001162524
-1.055546e-06
-2.69254e-06
6.259678e-07
8.445575e-07
6.429255e-07
-7.587783e-07
-0.000114386
0.0001142542
-2.51441e-07
3.009897e-06
-7.969698e-07
-3.857606e-07
-6.851128e-07
-2.021012e-06
-0.0001146706
0.0001145012
-5.659459e-08
8.652502e-06
-2.448669e-06
-1.793168e-06
-2.163704e-06
-3.524136e-06
-0.0001134412
0.0001105189
1.943823e-07
1.72974e-05
-3.774829e-06
-3.488581e-06
-3.78198e-06
-1.86616e-06
-0.000103875
8.964179e-05
4.770836e-07
1.890375e-05
4.253626e-08
-2.27159e-06
-1.052406e-06
-4.082356e-07
-0.0001012138
9.413332e-05
-1.075439e-06
4.622551e-06
1.457107e-06
1.263586e-06
1.220953e-06
1.18904e-06
-8.388658e-05
8.089954e-05
1.155236e-06
4.59894e-06
-3.536892e-07
-8.053636e-07
-2.797123e-06
-6.37248e-06
-7.48076e-05
6.30291e-05
3.428927e-07
3.086653e-05
-6.873899e-06
-4.91894e-06
-1.265608e-06
-5.205998e-06
-4.473557e-05
2.330408e-05
6.436256e-06
3.007017e-05
-2.370727e-06
-5.18097e-06
-2.317245e-06
-8.875705e-06
-3.102347e-06
-3.614765e-06
5.709179e-06
2.994522e-05
-8.100516e-06
-6.354798e-06
-5.606272e-06
1.322527e-06
-2.235231e-06
1.091123e-05
2.557374e-06
-1.231742e-05
6.458797e-07
2.327418e-06
-3.211776e-06
3.731421e-07
-2.024406e-05
4.098645e-05
-3.210972e-07
-2.227132e-05
5.551314e-07
1.359503e-06
-4.377462e-07
6.311378e-06
-6.298687e-05
7.737693e-05
-4.772412e-07
-3.731529e-05
7.10191e-06
5.9957e-06
3.993478e-06
9.464296e-07
-8.968285e-05
0.0001054849
-2.157676e-06
-2.684261e-05
4.650606e-06
2.019041e-06
5.582147e-06
7.716921e-07
-0.0001109495
0.0001173642
-2.407788e-06
-1.505374e-05
2.150957e-06
3.358211e-06
4.76597e-06
2.614375e-06
-0.0001162032
0.0001144718
-1.636647e-06
-6.02769e-06
2.492008e-06
2.265869e-06