/*--------------------------------*- C++ -*----------------------------------*\
| =========                 |                                                 |
| \\      /  F ield         | foam-extend: Open Source CFD                    |
|  \\    /   O peration     | Version:     3.1                                |
|   \\  /    A nd           | Web:         http://www.extend-project.de       |
|    \\/     M anipulation  |                                                 |
\*---------------------------------------------------------------------------*/
FoamFile
{
    version     2.0;
    format      ascii;
    class       volScalarField;
    location    "13";
    object      alpha1;
}
// * * * * * * * * * * * * * * * * * * * * * * * * * * * * * * * * * * * * * //

dimensions      [0 0 0 0 0 0 0];

internalField   nonuniform List<scalar> 
119952
(
0.9998964
0.9999374
0.999942
0.9998624
0.9997718
0.9999996
0.9999505
0.9879613
0.9987957
0.9999
0.99999
0.9999949
0.9999766
0.9934052
1
0.9999999
0.9999995
0.9996432
0.9998958
0.9999983
0.9995128
0.9998723
0.9999751
0.9969763
0.9975924
1
0.9999994
0.979795
0.9999898
1
0.9993354
0.9902811
0.9999963
0.9995691
0.996245
0.9999959
0.9999833
0.9999857
0.9979501
0.9546359
0.9999871
0.9999498
0.9999998
0.9453436
0.9387313
0.9464032
0.9647306
0.9999444
0.9999781
0.9984711
0.9508018
0.9476332
0.9978545
0.9445004
0.9285181
0.9528078
0.9984282
0.9907708
0.9668938
0.931461
0.9986774
0.9985897
0.9887888
0.9818236
0.9787334
0.9443195
0.9655287
0.9925761
0.9981418
0.9986912
0.9949781
0.9982087
0.9997574
0.998403
0.9980632
0.9995687
0.9999194
0.9991559
0.9261147
0.9606775
0.9988264
0.934877
0.9874861
0.9996735
0.9997331
0.999132
0.9998038
0.9997742
0.9697906
0.9868742
0.9989615
0.9968234
0.9997951
0.9967546
0.9968777
0.9508518
0.9938995
0.9999824
0.9999632
0.9999296
0.9984012
0.999917
0.9995123
0.9990637
0.9998497
0.9994706
0.9894664
0.9893538
0.9992923
0.9999554
0.9993356
0.9976786
0.9990328
0.9999605
0.9997583
0.9990514
0.9996472
0.9996895
0.9998453
0.9998684
0.9999983
0.9999985
0.9999913
0.9993176
0.9973733
0.9996589
0.9978518
0.9997441
0.9999972
0.9998224
0.9925144
0.9924952
0.9999151
0.9998133
0.9939274
0.998242
0.9993451
0.9901019
0.9901066
0.9933463
0.9996587
0.9997454
0.9994744
0.9999812
0.9999996
0.9997377
0.9952419
0.9947094
0.9975579
0.9998786
0.9996909
0.9965231
0.9952477
0.9981093
0.9986904
0.9985156
0.9979238
0.9989533
0.9994255
0.9996327
0.9991468
0.9983624
0.9983413
0.9994422
0.9998864
0.9999892
0.9999196
0.9998882
0.9999945
0.9999965
0.9999158
0.9999585
0.9999809
0.999106
0.9915819
0.9989132
0.9999975
0.9999863
0.9998617
0.9877073
0.992136
0.9999294
0.9999615
0.9996602
0.9997217
0.999998
0.9999993
0.9999736
0.9988388
0.9994096
0.9999979
0.9999998
0.9999984
0.9999998
0.9999998
1
1
1
1
1
1
1
1
0.9999994
1
1
0.9999991
0.9999998
0.9999997
0.9999996
0.9999999
1
1
1
1
1
1
0.9999983
1
0.9999985
0.9999999
0.9999998
1
1
1
0.9999997
1
0.9999999
0.9999999
1
0.9999999
0.9999957
0.999987
0.9999917
0.9999979
0.9999987
0.9999999
0.9999994
0.9999991
0.9999998
0.9999999
1
1
1
1
1
1
1
0.9999996
1
0.9999999
0.9999999
1
0.9999999
1
1
1
1
1
1
1
1
1
1
0.9999982
0.9999999
1
1
1
0.9999964
0.9999959
1
1
1
1
1
1
1
1
1
1
1
0.9999999
0.9999993
0.9999998
0.9999993
0.9999993
1
1
1
0.9999999
0.9999994
0.9999986
0.9999972
0.9999974
0.999998
0.9999989
0.9999997
0.9999999
0.9999999
1
1
0.9999981
0.9999972
0.9999997
1
1
1
1
1
1
1
1
1
1
1
1
1
1
1
1
1
1
1
1
1
1
1
1
1
1
1
1
1
1
1
1
1
1
1
1
1
1
1
1
1
1
1
1
1
1
1
1
1
1
1
1
1
1
1
1
1
1
1
1
1
1
1
1
1
1
1
1
1
1
1
1
1
1
1
1
1
1
1
1
1
1
1
1
1
1
1
1
1
1
1
1
1
1
1
1
1
1
1
1
1
0.9999904
0.9999746
0.9999801
0.9999776
0.9999983
0.9999994
0.9999984
0.9998634
0.9999997
0.9999918
0.9999027
0.9999963
1
1
0.9999993
0.9999433
0.9997135
0.9957531
0.9997491
0.9999999
0.9999983
0.999892
0.9996571
0.9999407
0.9999961
0.999856
0.9999307
0.9999784
0.999988
0.9998098
0.9994115
0.9997572
0.9999494
0.9998958
0.9999902
0.9917126
0.8897327
0.9934846
0.999968
0.9999668
0.9999521
0.9999064
0.9998788
0.9998832
0.9994428
0.9985442
0.999526
0.9753678
0.9514442
0.9776974
0.9994079
0.999851
0.999699
0.9989239
0.9979371
0.9996058
0.9996325
0.999928
0.999955
0.9999495
0.9999388
0.9999638
0.9999678
0.9999667
0.9999525
0.9999386
0.9999339
0.9999829
0.9999835
0.9999813
0.9999724
0.9999531
0.9999382
0.9999493
0.9999654
0.9999711
0.9999748
0.9999918
0.9999915
0.9999274
0.9995332
0.9964251
0.9774382
0.9707186
0.9806596
0.9941509
0.9994568
0.9991849
0.9951966
0.9937102
0.9684621
0.9138593
0.9470198
0.9915531
0.9965239
0.968224
0.9717598
0.9930147
0.998307
0.9914085
0.884621
0.878452
0.9452068
0.9933898
0.9995818
0.9999066
0.9998763
0.9999451
0.9999377
0.9995826
0.9993823
0.9998981
0.9995194
0.9980606
0.9970496
0.998705
0.9994671
0.9995754
0.9990428
0.9981232
0.9984129
0.9993994
0.9997248
0.9990863
0.9995374
0.9998958
0.9999481
0.9999691
0.9999325
0.9982736
0.9914475
0.9867206
0.9958324
0.9954711
0.9992542
0.9999165
0.9998281
0.998475
0.9954239
0.9893719
0.9884495
0.990351
0.9978506
0.9996693
0.9998384
0.9997995
0.9989994
0.9974475
0.9965534
0.998063
0.9998252
0.9999769
0.9999928
0.9999928
0.999993
0.999993
0.9998258
0.9992224
0.9981675
0.9958428
0.9925105
0.9904004
0.9892961
0.9893135
0.9892961
0.9893018
0.9912433
0.9913996
0.9885244
0.9797732
0.9769109
0.9769109
0.9798138
0.9881049
0.9955136
0.9989813
0.999857
0.9999825
0.9999952
0.9999957
0.9999953
0.9999841
0.9997753
0.998559
0.9986921
0.9993533
0.9991949
0.9990306
0.9993572
0.999377
0.9993406
0.9974959
0.9924809
0.9941439
0.9980765
0.9996389
0.9997921
0.9998514
0.9999571
0.9999969
0.999974
0.999931
0.9999166
0.9999856
1
0.9999994
0.9999936
0.9999974
0.9999999
0.9999999
1
1
1
1
1
1
0.9999998
0.9999999
0.9999984
0.9999941
0.9999998
1
0.9999999
0.9999985
0.9999986
0.9999997
0.9999989
0.9999966
0.9999988
0.9999876
0.9999876
0.9999904
0.9999982
0.9999992
0.9999996
0.9999993
0.9999985
0.9999979
0.9999974
0.9999983
0.9999997
0.9999999
0.9999996
0.9999815
0.999979
0.9999979
0.9999976
0.9999993
0.9999981
0.9999239
0.9999599
0.9999989
0.9999999
0.999996
0.9999698
0.9999963
0.9999986
0.9999371
0.9999562
0.9999974
0.9999999
1
1
0.9999985
0.9999995
0.9999999
0.9999648
0.9999907
0.9999976
0.9999877
0.9999924
0.9999543
0.9995053
0.9997921
0.9998939
0.9998912
0.9994407
0.9988962
0.9992924
0.999752
0.9999476
0.9999949
0.9999998
1
1
1
1
1
1
1
1
1
0.9999999
0.9999995
0.9999926
0.9999566
0.9999523
0.9999732
0.9999915
0.9999836
0.9999586
0.9998924
0.9998233
0.9998233
0.9998233
0.9998186
0.9998267
0.9998717
0.9999329
0.9999749
0.9999936
0.999999
0.9999998
0.9999996
0.9999969
0.9999771
0.999957
0.9999648
0.9999872
0.9999987
1
1
1
1
1
1
1
1
1
1
1
1
1
1
1
1
1
1
1
1
1
1
1
1
1
1
1
1
1
1
1
1
1
1
1
1
1
1
1
1
1
1
1
1
1
1
1
1
1
1
1
1
1
1
1
1
1
1
1
1
1
1
1
1
1
1
1
1
1
1
1
1
1
1
1
1
1
1
1
1
1
1
1
1
1
1
1
1
1
1
1
1
1
1
0.9999993
0.9999999
0.9999999
0.9999996
1
1
1
0.9999999
1
1
1
1
1
1
0.9999999
1
1
1
0.9999984
0.9999955
0.9999982
0.9999997
1
1
1
0.9999942
0.9999812
0.9999563
0.9999035
0.999995
1
0.9999651
0.9997229
0.9995373
0.9998406
0.999864
0.9998907
0.9999173
0.9999252
0.9999423
0.999958
0.999989
0.9999222
0.9999291
0.99993
0.9995836
0.9989371
0.9997545
0.9995786
0.9993019
0.9975467
0.9957256
0.9957274
0.9982572
0.9999391
0.9999978
0.9999885
0.9998142
0.9988615
0.999192
0.9997397
0.9990999
0.9989211
0.9995239
0.999876
0.9999083
0.999977
0.9999657
0.9998119
0.9999067
0.9998493
0.9936854
0.9490624
0.8849011
0.8704758
0.8704758
0.8930587
0.9485325
0.8929947
0.8514834
0.8558551
0.893869
0.9229018
0.9423142
0.9534385
0.9574172
0.9691144
0.9829694
0.9898775
0.9949942
0.9981686
0.9995203
0.9998838
0.9998721
0.9998582
0.9998608
0.999796
0.9997464
0.999673
0.9995807
0.9995955
0.9997197
0.9997905
0.9998482
0.99991
0.9999679
0.999991
0.9999921
0.9999921
0.9999921
0.9999921
0.9999921
0.9999921
0.9999921
0.9999921
0.9999921
0.9999921
0.999984
0.9998395
0.9968689
0.9573851
0.9327315
0.9437277
0.9817661
0.9984063
0.9999309
0.9997065
0.9880121
0.8996555
0.8911873
0.9529701
0.993925
0.9967986
0.9857799
0.9863803
0.9893496
0.976315
0.726514
0.7096302
0.9154738
0.993952
0.9998302
0.9999144
0.9993736
0.999802
0.9993609
0.9989692
0.9997188
0.9998482
0.9994009
0.9977022
0.99575
0.9957398
0.9973446
0.9989631
0.9993271
0.9967964
0.993258
0.9940099
0.9979697
0.9988912
0.9997376
0.9998674
0.999488
0.9995396
0.9998642
0.9987913
0.9949295
0.9938624
0.9974577
0.9966972
0.9965334
0.9994646
0.999893
0.9995508
0.9965167
0.9905431
0.9888098
0.9986001
0.9994125
0.9995348
0.9997826
0.9999474
0.9999562
0.9999568
0.9999518
0.9999125
0.9998619
0.9999118
0.9999577
0.9999722
0.9999773
0.9999831
0.9999869
0.9999733
0.9999861
0.9999751
0.9999074
0.999776
0.9970656
0.9979746
0.9980167
0.9955154
0.9859478
0.9909486
0.9970637
0.9981079
0.9965458
0.9840314
0.9544193
0.9530779
0.9530779
0.9716952
0.9898126
0.9968223
0.9994541
0.9999743
0.9999956
0.9999955
0.999985
0.9999611
0.9998203
0.9980501
0.9937945
0.9951047
0.9979028
0.9994101
0.9994173
0.9992973
0.9924305
0.9871008
0.9906457
0.9978337
0.9997393
0.9999178
0.9999755
0.9999973
0.9999913
0.999972
0.9995904
0.9996703
0.9998872
0.9999644
0.9998675
0.9991793
0.9998964
0.9999828
0.9999847
0.9999737
0.999984
0.999972
0.9999604
0.9999628
0.9999646
0.999962
0.9999564
0.9999592
0.9999693
0.9999801
0.9999776
0.9999753
0.9999947
0.9999971
0.9999962
0.9999639
0.9999461
0.9999528
0.9999736
0.9999816
0.9999896
0.9999922
0.9999937
0.9999937
0.9999926
0.9999879
0.9999668
0.9998812
0.9997737
0.9997907
0.9999061
0.9999844
0.9999991
1
1
0.9999999
0.9999998
0.9999994
0.9999975
0.9999899
0.9999915
0.9999965
0.9999986
0.9999992
0.9999992
0.9999929
0.9998854
0.999765
0.9998409
0.9999577
0.9999969
0.9999993
0.9999992
0.9999993
0.999999
0.9999984
0.9999965
0.9999973
0.9999985
0.9999958
0.999992
0.9999927
0.9999936
0.9999837
0.9998451
0.9987964
0.9983499
0.9983499
0.9985992
0.9994782
0.999849
0.9999608
0.9999949
0.9999998
1
1
1
1
1
1
1
0.9999999
0.9999981
0.9999907
0.9999831
0.9999848
0.9999923
0.9999961
0.9999957
0.9999944
0.9999887
0.9999605
0.9998308
0.9996221
0.9996157
0.9996157
0.9996204
0.9997154
0.9998345
0.999932
0.9999879
0.9999989
0.9999991
0.9999972
0.9999652
0.9996847
0.9996038
0.9997802
0.9999472
0.999995
0.9999998
1
1
1
1
1
1
1
1
1
1
1
1
1
1
1
1
1
1
1
1
1
1
1
1
1
1
1
1
1
1
1
1
1
1
1
1
1
1
1
1
1
1
1
1
1
1
1
1
1
1
1
1
1
1
1
1
1
1
1
1
1
1
1
1
1
1
1
1
1
1
1
1
1
1
1
1
1
1
1
1
1
1
1
1
1
1
1
1
1
1
1
1
1
1
1
1
1
1
0.9999999
1
1
1
1
1
1
1
1
1
1
1
1
1
1
1
1
1
0.9999999
1
0.9999999
0.9999998
0.9999997
0.9999994
0.999999
0.999998
0.9999984
0.9999994
0.9999996
0.9999938
0.9996038
0.9984623
0.9992091
0.9999161
0.9999973
0.9994189
0.9930909
0.9843338
0.9843338
0.9843338
0.9844176
0.9890024
0.9938311
0.9954921
0.9966716
0.9985809
0.9996874
0.9998524
0.9998404
0.9988199
0.9975257
0.9973751
0.9974418
0.9960738
0.9960919
0.9976151
0.9988438
0.9996236
0.9998972
0.9999624
0.9999869
0.9999801
0.9998687
0.999774
0.9999006
0.9998907
0.9994359
0.9993231
0.9993279
0.9994115
0.9996645
0.9999484
0.9998223
0.9998234
0.9999251
0.9994577
0.9887275
0.9434344
0.9063003
0.9430292
0.9768802
0.9875667
0.9710253
0.8902207
0.7636253
0.7095068
0.7195077
0.7881701
0.8392605
0.8640157
0.8204591
0.8110937
0.8308432
0.8697525
0.9322642
0.975962
0.9919676
0.9977706
0.9993238
0.9997022
0.9998197
0.9997312
0.9995619
0.9992468
0.9985365
0.9971381
0.9966681
0.9966406
0.9973591
0.998602
0.9993286
0.999767
0.9999506
0.9999881
0.9999921
0.9999921
0.9999921
0.9999921
0.9999921
0.9999921
0.9999921
0.9999921
0.9999921
0.999984
0.9998022
0.9969634
0.9636469
0.9365272
0.9499375
0.9857395
0.9989614
0.9998822
0.9987509
0.9698384
0.8911873
0.9268201
0.9815661
0.998815
0.9873448
0.9661348
0.9661482
0.9203419
0.5767343
0.7051921
0.9362966
0.9966454
0.9999586
0.9999299
0.9986154
0.9987738
0.9979121
0.9977529
0.9983248
0.9995299
0.9996054
0.9978761
0.9915463
0.9811939
0.9840697
0.9967504
0.999499
0.9988697
0.9925321
0.9876214
0.9913109
0.9989088
0.9996743
0.9997956
0.9990303
0.996769
0.9982895
0.9992072
0.9991514
0.9982606
0.9966236
0.9911151
0.9794786
0.9909076
0.9989015
0.9995524
0.9982975
0.9927244
0.9880307
0.988672
0.9969226
0.9996803
0.9998125
0.9998354
0.9999275
0.9999787
0.9999942
0.9999846
0.9999206
0.9998143
0.9998152
0.9998976
0.9999041
0.9998948
0.9999113
0.9999423
0.9999811
0.9999955
0.9999923
0.9999864
0.9999266
0.9999261
0.9999236
0.99988
0.999721
0.9993826
0.9990575
0.9992091
0.9995831
0.9996153
0.9989652
0.9927603
0.9571089
0.9431238
0.9431238
0.9547174
0.9876761
0.9991745
0.9999883
0.9999956
0.9999956
0.9999956
0.9999744
0.9993431
0.9926905
0.9898127
0.9927061
0.9981281
0.9973011
0.993498
0.9944792
0.9968598
0.9969341
0.9904725
0.9918262
0.9964535
0.9994874
0.9999845
0.9999981
0.9999958
0.9999406
0.9990372
0.9990059
0.9995685
0.9998615
0.9997075
0.9990955
0.9994949
0.999838
0.9999338
0.9999775
0.9999626
0.9998435
0.9996662
0.9994609
0.9992707
0.9990134
0.998722
0.9984
0.9981006
0.9975738
0.9969928
0.9981761
0.9989002
0.9989697
0.9977155
0.9972361
0.9979164
0.9984016
0.9982734
0.9983998
0.998632
0.9989131
0.9991784
0.9995403
0.9998294
0.9999484
0.9999291
0.9995883
0.999324
0.9994782
0.9997973
0.9999623
0.9999979
1
1
1
1
0.9999999
0.9999998
0.9999992
0.999999
0.9999995
0.9999997
0.999999
0.9999896
0.9999576
0.9999543
0.9999726
0.999993
0.9999848
0.999924
0.9998528
0.9998846
0.9999536
0.9999934
0.9999995
0.9999995
0.9999989
0.9999982
0.9999986
0.9999991
0.9999989
0.9999924
0.999969
0.9999411
0.999945
0.9999309
0.9995475
0.9983098
0.9982271
0.9988163
0.9996597
0.9999431
0.9999956
0.9999999
1
1
1
1
1
1
0.9999999
0.9999994
0.999999
0.9999991
0.9999994
0.9999996
0.9999997
0.9999996
0.999999
0.9999977
0.9999949
0.9999896
0.9999754
0.9999026
0.9995703
0.9994711
0.9994711
0.9995589
0.9998388
0.9999792
0.9999987
0.9999987
0.9999915
0.9999016
0.9993237
0.9991241
0.9992029
0.999644
0.9999252
0.9999929
0.9999997
1
1
1
1
0.9999999
1
1
1
1
1
1
1
1
1
1
1
1
1
1
1
1
1
1
1
1
1
1
1
1
1
1
1
1
1
1
1
1
1
1
1
1
1
1
1
1
1
1
1
1
1
1
1
1
1
1
1
1
1
1
1
1
1
1
1
1
1
1
1
1
1
1
1
1
1
1
1
1
1
1
1
1
1
1
1
1
1
1
1
1
1
1
0.9999999
1
0.9999998
1
1
1
1
1
1
1
1
0.9999996
0.9999996
0.9999997
0.9999999
0.9999998
0.9999997
0.9999999
1
1
1
1
1
1
1
1
1
1
1
1
1
1
1
0.9999999
0.9999999
0.9999997
0.9999997
0.9999997
0.9999998
0.9999998
0.9999996
0.9999983
0.9999948
0.9999951
0.999998
0.9999973
0.9998862
0.9977085
0.998927
0.9999151
0.9999794
0.9985073
0.9915957
0.9878222
0.9915287
0.9915687
0.9833886
0.9810639
0.9814881
0.9912173
0.9935338
0.994
0.994238
0.9958544
0.9978529
0.9956818
0.9955195
0.9958077
0.9973211
0.9990367
0.9996178
0.9996544
0.9996537
0.9991393
0.9978989
0.9981387
0.9990213
0.9997689
0.9999762
0.9999851
0.9999851
0.9999461
0.9997245
0.9997843
0.9996371
0.9993687
0.9996242
0.9999291
0.9995167
0.9997908
0.9997476
0.9965928
0.9831454
0.9727507
0.9822236
0.9943007
0.9984749
0.9988949
0.9988762
0.9979392
0.9963732
0.9938824
0.9916177
0.9895378
0.9896158
0.9835507
0.9539232
0.8450899
0.7107976
0.7101423
0.8453992
0.9524365
0.9830552
0.9918183
0.9945959
0.997358
0.9993691
0.9999339
0.9999552
0.9999072
0.9997854
0.9993525
0.9971209
0.9875607
0.9822457
0.9843916
0.9885131
0.9924597
0.9965271
0.9989581
0.9997557
0.9999617
0.9999915
0.9999906
0.999985
0.9999917
0.9999921
0.9999921
0.999979
0.9999186
0.9998911
0.9996872
0.9991759
0.9981341
0.9912189
0.9716642
0.9802307
0.9939124
0.9994133
0.9972598
0.9575675
0.9277838
0.9639456
0.9963684
0.9947328
0.9744095
0.9589363
0.9244642
0.5754697
0.6908634
0.9337137
0.9964304
0.9999569
0.9999646
0.9991256
0.9991502
0.9988076
0.9981412
0.9981139
0.9987549
0.9997055
0.9995941
0.9984645
0.9688401
0.9512273
0.9903532
0.9995025
0.9999155
0.9984304
0.9904907
0.9842618
0.9942706
0.9995498
0.9997023
0.9987713
0.9968289
0.9894913
0.9953546
0.9991731
0.9978864
0.9876794
0.9743468
0.9728468
0.9728733
0.9857875
0.9973857
0.9989396
0.9978279
0.9930704
0.9915674
0.9976915
0.9997623
0.999927
0.9999179
0.999812
0.9999423
0.9999951
0.9999971
0.9999744
0.9998961
0.9997606
0.9998559
0.9998496
0.9998305
0.9997823
0.9998024
0.9999054
0.9999784
0.9999931
0.9999931
0.9999918
0.9999903
0.9999904
0.9999894
0.9999798
0.9999501
0.9998202
0.9995909
0.9996766
0.9998782
0.9998902
0.9998104
0.9990872
0.9911893
0.9510642
0.9492867
0.9775282
0.9961406
0.9994457
0.9999581
0.9999887
0.9999835
0.9999663
0.9998201
0.9990132
0.9988489
0.9990022
0.9965111
0.9852893
0.9844031
0.9917298
0.9989851
0.9992066
0.9945261
0.9802737
0.9863996
0.9967344
0.9998017
0.9999969
0.9999981
0.9999942
0.9997169
0.9981139
0.9982327
0.9993627
0.9998755
0.9998024
0.9997809
0.9993486
0.9986529
0.9992218
0.9998429
0.9999258
0.9997899
0.9994762
0.9989951
0.9983289
0.9973345
0.9957276
0.9936617
0.9930858
0.9901149
0.9865859
0.9864851
0.9859594
0.9839108
0.9864788
0.992689
0.9943449
0.9912155
0.9867734
0.9816078
0.9806603
0.9823729
0.9877585
0.9932993
0.9976949
0.9995251
0.9996908
0.9994052
0.9993233
0.9994312
0.9998094
0.9999765
0.9999992
1
1
1
1
1
0.9999998
0.9999997
0.9999999
0.9999999
0.9999996
0.9999948
0.9999665
0.9999706
0.9999915
0.999998
0.9999888
0.9998119
0.9994276
0.9994716
0.999778
0.9999658
0.9999958
0.9999787
0.9999233
0.9999133
0.9999449
0.999987
0.999999
0.9999992
0.9999987
0.9999988
0.9999988
0.999998
0.9999949
0.9999853
0.9999137
0.9991204
0.9983619
0.9985277
0.9994031
0.999918
0.9999971
1
1
1
1
1
0.9999999
0.9999999
0.9999999
0.9999999
0.9999999
1
1
1
1
0.9999998
0.999999
0.9999948
0.9999803
0.9999565
0.999957
0.9999215
0.9996906
0.9995393
0.9996608
0.999892
0.9999756
0.999994
0.9999953
0.9999922
0.999956
0.9996404
0.9991605
0.9991563
0.9995785
0.9999127
0.9999857
0.9999972
0.9999996
0.9999997
0.9999997
0.9999998
1
1
1
1
1
1
1
1
0.9999999
0.9999995
0.9999995
0.9999997
0.9999999
1
1
1
1
1
1
1
1
1
1
1
1
1
1
1
1
1
1
1
1
1
1
1
1
1
1
1
1
1
1
1
1
1
1
1
1
1
1
1
1
1
1
1
1
1
1
1
1
1
1
1
1
1
1
1
1
1
1
1
1
1
1
1
1
1
1
1
1
1
1
1
1
1
1
1
1
1
1
1
1
1
1
1
1
1
1
1
1
1
0.9999999
0.9999999
0.9999997
0.9999996
0.9999996
0.9999996
0.9999998
0.9999999
1
1
1
1
1
1
1
1
1
1
1
1
1
1
1
1
1
1
1
1
1
1
1
0.9999997
0.9999994
0.9999994
0.9999998
0.9999999
0.9999997
0.9999946
0.9999866
0.9999943
0.9999906
0.9992504
0.9986095
0.9995846
0.9999823
0.9988847
0.9955639
0.9965824
0.9986218
0.9992371
0.9992439
0.9993345
0.9989032
0.9978075
0.9951914
0.9822102
0.9655659
0.9661451
0.9880184
0.9939131
0.9987887
0.9995112
0.9995966
0.9996613
0.999667
0.9996713
0.9995501
0.9973293
0.9888922
0.9899675
0.9962786
0.9995503
0.999979
0.9999808
0.9999212
0.9997643
0.9998378
0.9999498
0.9999036
0.9996109
0.9998162
0.9996305
0.9987246
0.9994301
0.999362
0.9960567
0.9911657
0.9961538
0.9983972
0.9971171
0.9960851
0.9991013
0.9991013
0.9981872
0.9958072
0.9938531
0.9930158
0.9944717
0.9970243
0.9979873
0.9989364
0.9988238
0.9960389
0.9940986
0.9931509
0.9938216
0.9942695
0.9873245
0.9867812
0.9924547
0.9983409
0.9998474
0.9999914
0.999992
0.9999847
0.9999692
0.9998584
0.9986894
0.989086
0.9739576
0.9738329
0.9738329
0.9769784
0.9868529
0.993244
0.9980273
0.9997466
0.9999618
0.9999775
0.9999893
0.9999908
0.9999508
0.9991963
0.9965189
0.9963723
0.9972485
0.9959632
0.9911586
0.9894245
0.9578416
0.8539396
0.8998042
0.977263
0.9977575
0.9919187
0.9623541
0.9691191
0.9930596
0.9979246
0.9840914
0.9480417
0.9312892
0.7755658
0.6381463
0.8040541
0.9756924
0.999293
0.9999513
0.999783
0.9997806
0.9997284
0.9994274
0.9991783
0.9995095
0.9998749
0.9998784
0.9994875
0.9831859
0.9322748
0.9710486
0.9981055
0.9999515
0.9999391
0.9992909
0.9931719
0.9876427
0.9957135
0.9995951
0.9995355
0.9984838
0.9931228
0.9803398
0.9945378
0.9978825
0.9828958
0.9728468
0.9728468
0.9728468
0.976519
0.994149
0.9983888
0.9994259
0.9992461
0.9992586
0.9999118
0.9999862
0.999995
0.9999978
0.9999985
0.9999987
0.9999985
0.9999982
0.9999941
0.9999807
0.9999364
0.9996878
0.9994655
0.9996127
0.9996181
0.9997471
0.9998932
0.9999362
0.9999177
0.9998891
0.9998704
0.9998518
0.9998378
0.999876
0.9999622
0.9999853
0.9999845
0.9999515
0.9997941
0.9997776
0.999899
0.9999248
0.9999251
0.9998918
0.9996825
0.9984106
0.9915113
0.9878986
0.99096
0.9974544
0.999775
0.9999788
0.9998849
0.9989661
0.9991611
0.9997903
0.9998786
0.9993471
0.995075
0.9883286
0.9931219
0.9990481
0.999108
0.9921791
0.9801981
0.9801981
0.9875802
0.9976476
0.9998895
0.9999977
0.9999981
0.9999775
0.9995601
0.998594
0.9984503
0.9991746
0.9998496
0.9999163
0.9997939
0.9989218
0.9975402
0.9982297
0.9994179
0.9999314
0.9999567
0.999906
0.9997794
0.9994832
0.9988873
0.9988174
0.9989122
0.9983606
0.9962181
0.9917764
0.9798682
0.9760124
0.9848136
0.9951872
0.9969899
0.9945266
0.9879097
0.9678585
0.9502563
0.9502214
0.9500301
0.9609263
0.9754606
0.9901776
0.9980789
0.999736
0.9998561
0.9997806
0.9998164
0.99994
0.9999922
0.9999996
1
1
1
1
1
1
1
1
0.9999999
0.9999993
0.9999947
0.9999874
0.999991
0.999998
0.9999966
0.9999761
0.9998917
0.9997122
0.9997586
0.99992
0.9999889
0.9999769
0.9997882
0.9996773
0.9997766
0.9999487
0.9999952
0.9999995
0.9999999
1
0.9999999
0.9999988
0.9999871
0.9999807
0.9999787
0.9999562
0.9996365
0.9987073
0.9987082
0.9994166
0.9998815
0.9999914
0.9999999
1
1
0.9999999
0.9999995
0.9999985
0.9999977
0.9999978
0.9999986
0.9999997
1
1
1
1
0.9999998
0.999998
0.9999765
0.9998257
0.9997617
0.9998572
0.9999657
0.9999784
0.9999643
0.9998802
0.999891
0.999956
0.9999899
0.9999952
0.9999952
0.9999952
0.9999919
0.9999737
0.9998984
0.9998636
0.9999104
0.9999777
0.9999961
0.9999983
0.9999992
0.9999998
1
1
1
1
1
1
1
1
0.9999999
0.9999992
0.9999949
0.9999924
0.9999942
0.9999978
0.9999997
1
1
1
1
1
1
1
1
1
1
1
1
1
1
1
1
1
1
1
1
1
1
1
1
1
1
1
1
1
1
1
1
1
1
1
1
1
1
1
1
1
1
1
1
1
1
1
1
1
1
1
1
1
1
1
1
1
1
1
1
1
1
1
1
1
1
1
1
1
1
1
1
1
1
1
1
1
1
1
1
1
1
1
1
1
1
1
1
1
1
1
1
1
0.9999999
0.9999997
0.9999996
0.9999996
0.9999996
0.9999999
1
1
1
1
1
1
1
1
1
1
1
1
1
1
1
1
1
1
1
1
1
1
1
1
1
1
0.9999999
0.9999996
0.9999997
0.9999999
0.9999998
0.9999928
0.9999889
0.9999859
0.9999291
0.9990688
0.9993149
0.9999361
0.9997297
0.9989356
0.999498
0.9994815
0.9997258
0.9997722
0.9995095
0.9998131
0.999864
0.9985461
0.9786758
0.9318504
0.926888
0.9641064
0.9937718
0.9994791
0.9995912
0.9996031
0.9988753
0.9991134
0.9996744
0.9994652
0.9949448
0.9842229
0.9852345
0.9941431
0.9992545
0.9997442
0.9993643
0.9995389
0.999814
0.9999468
0.9999878
0.9999845
0.9999109
0.9999358
0.9976938
0.993604
0.9963379
0.997452
0.996216
0.9984376
0.9994098
0.9993204
0.9975965
0.9971706
0.998899
0.9979465
0.9955215
0.989049
0.9779543
0.9773776
0.9773776
0.9835494
0.9933764
0.998743
0.9998594
0.9999482
0.9999385
0.999875
0.9996239
0.9987891
0.9977517
0.9975839
0.9981563
0.9993375
0.9999188
0.9999958
0.9999982
0.9999982
0.9999971
0.9999868
0.9999234
0.9996242
0.9978827
0.9888693
0.9747344
0.9738329
0.9738329
0.9738329
0.9857585
0.9968752
0.9997852
0.9999778
0.9999731
0.9998265
0.9983306
0.9878137
0.9730638
0.977366
0.9708281
0.893083
0.7520559
0.7828194
0.8600609
0.8372275
0.8326768
0.8534476
0.9504142
0.9929532
0.9930911
0.9867473
0.9932423
0.9984592
0.9921275
0.9546065
0.942836
0.9388665
0.7506698
0.6734421
0.8500143
0.9839851
0.9996145
0.9999299
0.9999298
0.9999298
0.9999087
0.9998677
0.9996411
0.9997431
0.9997966
0.9994764
0.9863494
0.9030179
0.9514956
0.9948766
0.9999216
0.999949
0.9997482
0.9985762
0.9969277
0.9909885
0.9948539
0.9990759
0.9994581
0.9983611
0.989957
0.9730258
0.9875455
0.9935367
0.9770964
0.9728468
0.9728468
0.986242
0.9959407
0.9984616
0.9994598
0.999731
0.9998407
0.9999513
0.9999893
0.9999967
0.9999985
0.9999991
0.9999995
0.9999995
0.9999991
0.9999974
0.9999892
0.9999339
0.9995963
0.9979717
0.99608
0.9969556
0.9990769
0.9998683
0.9998762
0.9996507
0.9989126
0.9984942
0.998877
0.9991489
0.9994178
0.99975
0.9999395
0.9999913
0.9999939
0.9999921
0.9999356
0.9998002
0.9998554
0.9999565
0.9999901
0.9999897
0.9999821
0.9999018
0.9989333
0.9948371
0.9943745
0.9970746
0.9995554
0.9997596
0.998774
0.9988871
0.9995805
0.9998862
0.999843
0.9992795
0.9978055
0.9979631
0.999411
0.9994357
0.9970289
0.9829521
0.9801981
0.9801981
0.9899909
0.9985086
0.9999469
0.999998
0.999998
0.9999687
0.9997176
0.9988925
0.9987562
0.9992884
0.9999009
0.9998514
0.9988265
0.9971727
0.9986743
0.9996876
0.9999644
0.999988
0.999988
0.9999875
0.9999845
0.9999507
0.9999459
0.9999568
0.9999563
0.9999287
0.9998864
0.9998415
0.9996938
0.9997135
0.9997829
0.9998135
0.9997249
0.9993614
0.9979663
0.9903827
0.9657691
0.9458502
0.945732
0.945732
0.9540336
0.9842103
0.9982181
0.9999562
0.9999925
0.9999836
0.9999635
0.9999787
0.9999952
0.9999996
0.9999997
0.9999994
0.9999994
0.9999995
0.9999997
0.9999999
1
0.9999999
0.9999993
0.9999977
0.9999982
0.9999988
0.9999988
0.9999963
0.9999726
0.9999534
0.9999629
0.999979
0.9999731
0.999815
0.9996958
0.9997949
0.9999554
0.9999569
0.9997953
0.9997047
0.9997965
0.999955
0.9999969
0.9999997
0.9999994
0.999981
0.9997693
0.9998268
0.9999305
0.9999305
0.9998622
0.9993343
0.9990999
0.9992754
0.9997747
0.9999617
0.9999972
0.9999999
0.9999999
0.9999997
0.9999958
0.9999886
0.9999886
0.9999947
0.999999
0.9999999
1
1
1
1
0.9999997
0.9999949
0.9999151
0.9996192
0.9995942
0.9997035
0.9999131
0.999989
0.9999956
0.9999968
0.9999904
0.9999729
0.9999805
0.9999934
0.9999987
0.9999992
0.9999994
0.9999995
0.9999995
0.9999991
0.9999945
0.9999889
0.9999919
0.9999976
0.9999997
1
1
1
1
0.9999999
0.9999999
1
1
1
0.9999995
0.9999918
0.9999671
0.9999732
0.9999902
0.9999986
0.9999999
1
1
1
1
1
1
1
1
1
1
1
1
1
1
1
1
1
1
1
1
1
1
1
1
1
1
1
1
1
1
1
1
1
1
1
1
1
1
1
1
1
1
1
1
1
1
1
1
1
1
1
1
1
1
1
1
1
1
1
1
1
1
1
1
1
1
1
1
1
1
1
1
1
1
1
1
1
1
1
1
1
1
1
1
1
1
1
1
0.9999999
0.9999999
1
1
1
0.9999999
0.9999998
0.9999997
0.9999999
1
1
1
1
1
1
1
1
1
1
1
1
1
1
1
1
1
1
1
1
1
1
1
1
1
1
1
1
1
1
0.9999999
0.9999999
0.9999998
0.999999
0.9999965
0.9999847
0.9998124
0.999708
0.9995607
0.9994025
0.9997244
0.9998983
0.9998538
0.9999279
0.9999436
0.9991482
0.999226
0.999864
0.9989828
0.9840514
0.9439957
0.926888
0.951341
0.9904628
0.9953184
0.9953855
0.997724
0.9977777
0.998746
0.9997282
0.9997814
0.9992634
0.9916239
0.9846285
0.9883595
0.9967166
0.9989
0.9994588
0.9997814
0.9999437
0.9999823
0.9999878
0.9999878
0.9999873
0.9998105
0.9913168
0.9592582
0.9316809
0.9806326
0.9942597
0.9992239
0.9994098
0.9994098
0.9992106
0.99936
0.99936
0.9986132
0.9975683
0.995064
0.9913831
0.9838976
0.9775656
0.97809
0.9883814
0.9968499
0.9995847
0.9999677
0.9999923
0.9999924
0.9999919
0.9999867
0.999942
0.9995558
0.9986274
0.9989863
0.9996768
0.9999357
0.9999923
0.9999982
0.9999982
0.9999979
0.9999951
0.9999824
0.9999363
0.9997493
0.9985093
0.9891293
0.9741741
0.9738329
0.9747287
0.9916149
0.9993072
0.9999763
0.999791
0.9945169
0.968525
0.9330706
0.9419817
0.9367326
0.8748589
0.4590004
0.2321259
0.27706
0.7427173
0.9517343
0.8904503
0.8423909
0.882948
0.9761806
0.9981907
0.9974056
0.996964
0.998977
0.997666
0.9774575
0.9650482
0.973989
0.9414193
0.7149763
0.6928057
0.8928949
0.9919173
0.9998133
0.9999298
0.9999298
0.9999242
0.999692
0.9985174
0.9986763
0.9988694
0.9971261
0.9517371
0.8682824
0.9331284
0.9924383
0.9992591
0.9988931
0.9979092
0.9910068
0.9832836
0.98742
0.9902551
0.9946814
0.9989284
0.9995516
0.997964
0.9830889
0.9729595
0.9839914
0.9938285
0.9826806
0.9829705
0.9937907
0.9987873
0.9995884
0.9998041
0.9998987
0.9999424
0.9999788
0.9999956
0.9999987
0.9999993
0.9999995
0.9999996
0.9999996
0.9999996
0.9999993
0.9999968
0.9999818
0.9998274
0.9979429
0.989128
0.986943
0.9922717
0.9983157
0.9996899
0.9989042
0.994985
0.9913465
0.9937022
0.9974349
0.9990424
0.9995501
0.9997734
0.9999102
0.9999815
0.9999971
0.9999966
0.9999842
0.9999325
0.9999387
0.999981
0.999992
0.999992
0.9999919
0.9999837
0.9998755
0.9985668
0.9965108
0.9968576
0.998851
0.9993041
0.9992244
0.9991897
0.9992463
0.9995074
0.9998577
0.9998677
0.999864
0.9999212
0.9999045
0.9994826
0.9943461
0.9805434
0.9801981
0.9825154
0.9949703
0.999655
0.9999935
0.999998
0.9999978
0.9999843
0.9997689
0.9992628
0.9994556
0.9998847
0.9998375
0.9983108
0.9962207
0.9981067
0.9996871
0.9999656
0.9999421
0.9998794
0.9999238
0.9999668
0.999986
0.9999905
0.9999921
0.9999939
0.9999948
0.9999945
0.9999946
0.9999952
0.9999977
0.9999988
0.9999986
0.9999969
0.9999898
0.9999613
0.9998321
0.9991828
0.9937633
0.9619169
0.945732
0.945732
0.9679792
0.9948704
0.9998184
0.9999925
0.9999925
0.9999925
0.9999897
0.9999897
0.9999921
0.9999963
0.9999951
0.9999905
0.999991
0.9999947
0.9999986
0.9999998
0.9999994
0.9999974
0.9999955
0.9999961
0.9999981
0.9999987
0.9999964
0.9999716
0.9999712
0.9999881
0.9999982
0.9999958
0.9999685
0.9997785
0.999652
0.999652
0.999652
0.9997895
0.9999394
0.9999787
0.9999578
0.9998057
0.9997966
0.9998972
0.9999582
0.9999727
0.999979
0.9999694
0.9997743
0.9995411
0.999607
0.9998346
0.9999231
0.9997531
0.9994872
0.9996746
0.9999143
0.9999935
0.9999998
0.9999999
0.9999996
0.9999988
0.9999982
0.9999988
0.9999997
1
1
1
1
0.9999999
0.9999993
0.999993
0.9999363
0.9996811
0.9995831
0.999689
0.9998973
0.999973
0.999957
0.9999447
0.9999711
0.9999929
0.9999961
0.9999965
0.9999983
0.9999994
0.9999998
0.9999999
0.9999999
0.9999998
0.9999997
0.9999998
0.9999996
0.9999993
0.9999995
0.9999999
1
1
0.9999999
0.9999995
0.9999995
0.9999997
0.9999999
0.9999996
0.9999952
0.9999723
0.9999667
0.9999667
0.9999807
0.999995
0.9999993
1
1
1
1
1
1
1
1
1
1
1
1
1
1
1
1
1
1
1
1
1
1
1
1
1
1
1
1
1
1
1
1
1
1
1
1
1
1
1
1
1
1
1
1
1
1
1
1
1
1
1
1
1
1
1
1
1
1
1
1
1
1
1
1
1
1
1
1
1
1
1
1
1
1
1
1
1
1
1
1
1
1
1
1
1
1
0.9999999
0.9999999
0.9999999
1
0.9999999
0.9999999
0.9999999
1
1
1
1
1
1
1
1
1
0.9999999
0.9999999
0.9999999
0.9999999
1
1
1
1
1
1
1
1
1
1
1
1
1
1
1
1
1
1
1
1
1
1
1
1
1
1
1
1
1
1
1
1
1
1
1
1
1
1
1
1
1
0.9999996
0.9999947
0.9999817
0.9999463
0.9996599
0.9990594
0.999212
0.9996979
0.9999184
0.9999915
0.9999966
0.9998818
0.9997114
0.9996137
0.9998149
0.997228
0.9860044
0.9794923
0.9927683
0.9927738
0.9802321
0.9787811
0.9914209
0.9978302
0.9996428
0.9998418
0.9998418
0.9998418
0.9989313
0.9886303
0.9847723
0.9893699
0.9975645
0.9997521
0.9999721
0.9999856
0.9999576
0.9999818
0.9999878
0.9999878
0.9997158
0.9865411
0.9184055
0.8924937
0.901886
0.972703
0.9983631
0.9994098
0.9989042
0.998803
0.9984226
0.9982355
0.9992848
0.9996669
0.9997381
0.999728
0.9993403
0.9975612
0.9975399
0.9981774
0.9990207
0.99964
0.9999062
0.999975
0.9999932
0.9999958
0.9999959
0.9999958