/*--------------------------------*- C++ -*----------------------------------*\
| =========                 |                                                 |
| \\      /  F ield         | foam-extend: Open Source CFD                    |
|  \\    /   O peration     | Version:     3.1                                |
|   \\  /    A nd           | Web:         http://www.extend-project.de       |
|    \\/     M anipulation  |                                                 |
\*---------------------------------------------------------------------------*/
FoamFile
{
    version     2.0;
    format      ascii;
    class       volScalarField;
    location    "17";
    object      alpha1;
}
// * * * * * * * * * * * * * * * * * * * * * * * * * * * * * * * * * * * * * //

dimensions      [0 0 0 0 0 0 0];

internalField   nonuniform List<scalar> 
119952
(
1
1
0.9999999
1
1
1
1
1
0.9999999
1
1
1
1
0.9999999
1
0.9999999
1
0.9999999
1
1
1
1
0.9999999
1
0.9999999
1
1
1
1
1
1
1
1
0.9999999
1
0.9999999
1
1
1
1
1
1
1
1
1
1
1
1
1
1
1
1
1
1
0.9999999
1
1
1
0.9999999
1
1
0.9999999
0.9999999
1
1
0.9999999
1
1
0.9999999
0.9999999
1
1
1
1
0.9999999
1
1
1
0.9999999
1
1
0.9999999
1
1
1
0.9999998
1
1
0.9999998
0.9999999
1
1
1
0.9999999
0.9999999
1
1
0.9999999
1
1
0.9999998
1
1
1
0.9999998
1
1
1
0.9999999
0.9999998
1
1
1
0.9999999
0.9999998
1
1
1
0.9999999
0.9999999
1
0.9999999
1
1
1
1
0.9999999
1
1
1
0.9999998
1
1
0.9999998
1
1
0.9999998
0.9999999
1
1
1
0.9999998
0.9999999
1
1
1
1
1
0.9999999
1
1
0.9999999
1
1
1
1
1
1
1
1
1
1
1
1
1
1
1
1
1
1
1
1
1
1
1
1
1
1
1
1
1
1
1
1
1
1
1
1
1
1
1
1
1
1
1
1
1
1
1
1
1
1
1
1
1
1
1
1
1
1
1
1
1
1
1
1
1
1
1
1
1
1
1
1
1
1
1
1
1
1
1
1
1
1
1
1
1
1
1
1
1
1
1
1
1
1
1
1
1
1
1
1
1
1
1
1
1
1
1
1
1
1
1
1
1
1
1
1
1
1
1
1
1
1
1
1
1
1
1
1
1
1
1
1
1
1
1
1
1
1
1
1
1
1
1
1
1
1
1
1
0.9999999
1
1
0.9999999
1
1
1
1
1
1
1
1
1
1
1
1
1
1
1
1
1
1
1
1
1
1
1
1
1
1
1
1
1
1
1
1
1
1
1
1
1
1
1
1
1
1
1
1
1
1
1
1
1
1
1
1
1
1
1
1
1
1
1
1
1
1
1
1
1
1
1
1
1
1
1
1
1
1
1
1
1
1
1
1
1
1
1
1
1
1
1
1
1
1
1
1
1
1
1
1
1
1
1
1
1
1
1
1
1
1
1
1
1
1
1
1
1
1
1
1
1
1
1
1
1
1
1
1
1
1
0.9999999
1
1
1
0.9999999
1
1
0.9999999
0.9999999
1
1
1
1
0.9999999
0.9999999
1
1
0.9999999
1
1
1
1
1
1
0.9999999
1
1
1
1
1
1
1
1
0.9999999
1
1
1
1
1
1
1
1
1
1
1
0.9999999
0.9999999
1
1
1
1
0.9999999
1
1
1
1
1
1
1
0.9999999
1
1
1
1
1
1
1
1
1
1
0.9999999
0.9999999
1
1
1
1
1
1
1
1
1
0.9999999
0.9999999
1
1
1
1
1
1
1
1
1
1
1
1
1
1
1
1
1
1
1
1
1
0.9999999
0.9999999
0.9999999
1
1
1
1
1
1
1
1
1
1
1
1
1
1
1
1
1
1
1
1
1
1
1
1
1
1
1
1
1
1
1
1
1
1
1
1
1
1
1
1
1
1
1
1
1
1
1
1
1
1
1
1
1
1
1
1
1
1
1
1
1
1
1
1
1
1
1
1
1
1
1
1
1
1
1
1
1
1
1
1
1
1
1
1
1
1
1
1
1
1
1
1
1
1
1
1
1
1
1
1
1
1
1
1
1
1
1
1
1
1
1
1
1
1
1
1
1
1
1
1
1
1
1
1
1
1
1
1
1
1
1
1
1
1
1
1
1
1
1
1
1
1
1
0.9999997
0.9999996
0.9999998
1
1
1
1
1
1
1
1
1
1
1
1
1
1
1
1
1
1
1
1
1
1
1
1
1
1
1
1
1
1
1
1
1
0.9999999
0.9999999
0.9999999
1
1
1
0.9999999
1
1
1
1
1
1
1
0.9999999
0.9999999
1
1
1
1
1
1
1
1
1
1
1
1
1
1
1
1
0.9999999
0.9999998
0.9999999
1
1
1
1
1
1
1
1
1
1
1
1
1
1
1
1
1
1
1
1
1
1
1
1
1
1
1
1
1
1
1
1
1
1
1
1
1
1
1
1
1
1
1
1
1
1
1
1
1
1
1
1
1
1
1
1
1
1
1
1
1
1
1
1
1
1
1
1
1
1
1
1
1
1
1
1
1
1
1
1
1
1
1
1
1
1
1
1
1
1
1
1
1
1
1
1
1
1
1
1
1
1
1
1
1
1
1
1
1
1
1
1
1
1
1
1
1
1
1
1
1
1
1
1
1
1
1
1
1
1
1
1
1
1
1
1
0.9999999
0.9999999
1
1
1
1
1
1
1
1
0.9999999
0.9999999
1
1
1
1
1
1
1
0.9999999
0.9999999
1
1
1
1
1
1
1
1
1
1
1
1
1
1
1
1
1
1
0.9999999
0.9999999
0.9999999
1
1
1
1
1
1
1
1
1
1
1
1
1
1
1
1
1
1
1
1
1
1
1
0.9999999
0.9999999
1
1
1
1
1
1
1
1
1
0.9999999
0.9999999
0.9999999
1
1
1
1
1
1
1
1
1
1
1
1
1
1
1
1
1
1
1
1
1
0.9999999
0.9999999
1
1
1
1
1
1
1
1
1
1
1
1
1
1
1
1
1
1
1
1
1
1
1
1
1
1
1
1
1
1
1
1
1
1
1
1
1
1
1
1
1
1
1
1
1
1
1
1
1
1
1
1
1
1
1
1
1
1
1
1
1
1
1
1
1
1
1
1
1
1
1
1
1
1
1
1
1
1
1
1
1
1
1
1
1
1
1
1
1
1
1
1
1
1
1
1
1
1
1
1
1
1
1
1
1
1
1
1
1
1
1
1
1
1
1
1
1
1
1
1
1
1
1
1
1
1
1
1
1
1
1
1
1
1
1
1
1
0.9999998
0.9999993
0.9999968
0.9999886
0.9999869
0.9999922
0.9999987
0.9999999
1
1
1
1
1
1
1
1
1
1
1
1
1
1
1
1
1
1
1
1
1
1
1
1
1
1
1
1
1
1
1
1
0.9999998
0.9999995
0.9999996
0.9999999
1
1
1
1
1
1
1
1
1
1
1
1
1
1
1
1
1
1
1
1
1
1
1
1
1
1
1
0.9999999
1
1
1
1
0.9999999
0.9999999
0.9999999
1
1
1
1
1
1
1
1
1
1
1
1
1
1
1
1
1
1
1
1
1
1
1
1
1
1
1
1
1
1
1
1
1
1
1
1
1
1
1
1
1
1
1
1
1
1
1
1
1
1
1
1
1
1
1
1
1
1
1
1
1
1
1
1
1
1
1
1
1
1
1
1
1
1
1
1
1
1
1
1
1
1
1
1
1
1
1
1
1
1
1
1
1
1
1
1
1
1
1
1
1
1
1
1
1
1
1
1
1
1
1
1
1
1
1
1
1
1
1
1
1
1
1
1
1
1
1
1
1
1
1
1
1
1
1
1
1
1
1
1
1
1
1
1
1
1
0.9999999
0.9999999
1
1
1
1
1
1
1
1
1
1
1
1
1
1
1
1
1
1
1
1
1
1
1
1
1
1
1
1
1
1
1
1
1
1
1
1
1
1
1
1
1
1
1
1
1
1
1
1
1
1
1
1
1
1
1
1
1
1
1
1
1
1
1
1
1
1
1
1
1
1
1
1
1
1
1
1
1
1
1
1
1
1
1
1
1
1
1
1
1
1
1
1
1
1
1
1
1
1
1
1
1
1
1
1
1
1
1
1
1
1
1
1
1
1
1
1
1
1
1
1
1
1
1
1
1
1
1
1
1
1
1
1
1
1
1
1
1
1
1
1
1
1
1
1
1
1
1
1
1
1
1
1
1
1
1
1
1
1
1
1
1
1
1
1
1
1
1
1
1
1
1
1
1
1
1
0.9999999
1
1
1
1
1
1
0.9999999
0.9999996
0.9999976
0.9999882
0.9999687
0.9999302
0.9998686
0.9998974
0.9999695
0.9999971
0.9999999
1
1
1
1
1
1
1
1
1
1
1
1
1
1
1
1
1
1
1
1
1
1
1
1
1
1
1
1
1
1
1
1
1
1
1
1
1
1
1
1
0.9999999
0.9999997
0.9999982
0.9999865
0.9999041
0.9998621
0.9999337
0.99999
0.9999997
1
1
1
0.9999999
0.9999999
0.9999999
0.9999999
0.9999999
1
1
1
1
1
1
1
1
1
1
1
1
1
1
1
1
1
1
1
1
1
1
1
1
1
0.9999999
0.9999991
0.9999987
0.9999994
0.9999999
1
1
1
1
1
1
1
1
1
1
1
1
1
0.9999999
0.9999996
0.9999996
0.9999998
1
1
1
1
1
1
1
1
1
1
1
0.9999999
0.9999999
1
1
1
1
1
1
1
0.9999999
0.9999999
1
1
1
1
1
1
1
1
1
1
1
1
1
1
1
1
1
1
1
1
1
1
1
1
1
1
1
1
1
1
1
1
1
1
1
1
1
1
1
1
1
1
1
1
1
1
1
1
1
1
1
1
1
1
1
1
1
1
1
1
1
1
1
1
1
1
1
1
1
1
1
1
1
1
1
1
1
1
1
1
1
1
1
1
1
1
1
1
1
1
1
1
1
1
1
1
1
1
1
1
1
1
1
1
1
1
1
1
1
1
1
1
1
1
1
1
1
1
1
1
1
1
1
1
1
1
1
1
1
1
1
1
1
1
1
1
1
1
1
1
1
1
1
1
1
1
1
1
1
1
1
1
1
1
1
1
1
1
1
1
1
1
1
1
1
1
1
1
1
1
1
1
1
1
1
1
1
1
1
1
1
1
1
1
1
1
1
1
1
1
1
1
1
1
1
1
1
1
1
1
1
1
1
1
1
1
1
1
1
1
1
1
1
1
1
1
1
1
1
1
1
1
1
1
1
1
1
1
1
1
1
1
1
1
1
1
1
1
1
1
1
1
1
1
1
1
1
1
1
1
1
1
1
1
1
1
1
1
1
1
1
1
1
1
1
1
1
1
1
1
1
1
1
1
1
1
1
1
1
1
1
1
1
1
1
1
1
1
1
1
1
1
1
1
1
1
1
1
1
1
1
1
1
1
1
1
1
1
1
1
1
1
1
1
1
1
1
1
1
1
1
1
1
1
1
1
1
1
0.9999999
0.9999998
0.9999999
1
1
1
1
0.9999997
0.9999978
0.9999854
0.9999187
0.9996833
0.9986833
0.9974926
0.9983194
0.9995323
0.9999606
0.9999991
1
1
1
1
1
1
1
1
1
1
1
1
1
1
1
1
1
1
1
1
1
1
1
1
1
1
1
1
1
1
1
1
1
1
1
1
1
1
1
0.9999999
0.9999997
0.9999986
0.9999935
0.9999727
0.9998443
0.999709
0.999709
0.9998339
0.9999686
0.9999986
0.9999997
0.9999995
0.9999984
0.9999949
0.9999894
0.9999909
0.9999968
0.9999996
0.9999999
0.9999999
0.9999998
0.9999997
0.9999993
0.9999978
0.9999924
0.9999879
0.9999914
0.9999976
0.9999998
1
1
1
1
1
1
1
1
1
1
1
1
1
1
1
0.9999999
0.999999
0.9999985
0.9999987
0.9999996
1
1
1
1
1
1
1
1
1
1
0.9999999
0.9999997
0.9999982
0.9999966
0.999998
0.9999995
1
1
1
1
1
1
1
1
1
1
1
1
1
0.9999999
0.9999999
1
1
1
1
1
1
0.9999999
0.9999999
1
1
1
1
1
1
1
1
1
1
1
1
1
1
1
1
1
1
1
1
1
1
1
1
1
1
1
1
1
1
1
1
1
1
1
1
1
1
1
1
1
1
1
1
1
1
1
1
1
1
1
1
1
1
1
1
1
1
1
1
1
1
1
1
1
1
1
1
1
1
1
1
1
1
1
1
1
1
1
1
1
1
1
1
1
1
1
1
1
1
1
1
1
1
1
1
1
1
1
1
1
1
1
1
1
1
1
1
1
1
1
1
1
1
1
1
1
1
1
1
1
1
1
1
1
1
1
1
1
1
1
1
1
1
1
1
1
1
1
1
1
1
1
1
1
1
1
1
1
1
1
1
1
1
1
1
1
1
1
1
1
1
1
1
1
1
1
1
1
1
1
1
1
1
1
1
1
1
1
1
1
1
1
1
1
1
1
1
1
1
1
1
1
1
1
1
1
1
1
1
1
1
1
1
1
1
1
1
1
1
1
1
1
1
1
1
1
1
1
1
1
1
1
1
1
1
1
1
1
1
1
1
1
1
1
1
1
1
1
1
1
1
1
1
1
1
1
1
1
1
1
1
1
1
1
1
1
1
1
1
1
1
1
1
0.9999999
0.9999997
0.9999985
0.9999954
0.9999959
0.9999986
0.9999999
1
1
1
1
1
1
1
1
1
1
1
1
1
1
1
1
1
1
1
1
1
1
1
1
0.9999999
0.9999999
0.9999998
0.9999998
0.9999998
0.9999997
0.9999995
0.999998
0.999994
0.9999941
0.9999975
0.9999996
1
1
1
1
1
1
1
1
1
1
0.9999999
0.9999998
0.9999993
0.9999993
0.9999997
1
1
1
1
1
1
1
1
1
1
1
1
1
1
1
0.9999999
0.9999996
0.9999996
0.9999999
0.9999999
0.9999999
0.9999998
0.9999983
0.9999825
0.9998431
0.9990805
0.9955037
0.9898986
0.9914371
0.9966649
0.9995273
0.9999821
0.9999998
1
1
1
1
1
1
1
1
1
1
1
1
1
1
1
1
1
1
1
1
1
1
1
0.9999999
0.9999997
0.9999993
0.9999994
0.9999998
1
1
1
1
1
1
1
1
1
1
0.9999997
0.9999985
0.9999917
0.9999549
0.9997745
0.9991038
0.9987173
0.9993446
0.9998865
0.999989
0.9999904
0.9999894
0.9999817
0.9999305
0.9997455
0.9996993
0.9998021
0.9999603
0.9999972
0.9999979
0.9999971
0.9999925
0.9999733
0.9998912
0.9995449
0.9988608
0.9990078
0.9996908
0.9999729
0.9999958
0.9999956
0.999993
0.9999857
0.9999864
0.9999952
0.9999995
1
1
1
1
1
1
1
0.9999998
0.9999996
0.9999997
0.9999999
0.9999999
0.9999999
0.9999999
0.9999999
0.9999999
0.9999998
0.9999997
0.9999994
0.9999979
0.9999919
0.9999791
0.9999801
0.9999925
0.9999982
0.9999981
0.9999955
0.9999857
0.9999863
0.9999952
0.9999995
1
1
1
1
1
1
1
1
1
1
1
1
1
1
1
0.9999999
1
1
1
1
1
1
1
1
1
1
1
1
1
1
1
1
0.9999998
0.9999998
0.9999999
1
1
1
1
1
1
1
1
1
1
1
1
1
1
1
1
1
1
1
1
1
1
1
1
1
1
1
1
1
1
1
1
1
1
1
1
1
1
1
1
1
1
1
1
1
1
1
1
1
1
1
1
1
1
1
1
1
1
1
1
1
1
1
1
1
1
1
1
1
1
1
1
1
1
1
1
1
1
1
1
1
1
1
1
1
1
1
1
1
1
1
1
1
1
1
1
1
1
1
1
1
1
1
1
1
1
1
1
1
1
1
1
1
1
1
1
1
1
1
1
1
1
1
1
1
1
1
1
1
1
1
1
1
1
1
1
1
1
1
1
1
1
1
1
1
1
1
1
1
1
0.9999999
0.9999999
0.9999999
0.9999999
0.9999999
0.9999999
0.9999998
0.9999996
0.9999996
0.9999996
0.9999997
0.9999997
0.9999996
0.9999992
0.9999986
0.9999983
0.9999985
0.999999
0.9999994
0.9999994
0.9999992
0.9999986
0.9999977
0.9999973
0.9999975
0.9999985
0.9999989
0.9999987
0.9999971
0.999992
0.9999895
0.9999915
0.9999949
0.9999952
0.9999928
0.9999804
0.9999615
0.9999636
0.9999756
0.99999
0.9999943
0.9999936
0.9999877
0.99998
0.9999803
0.9999839
0.9999907
0.9999951
0.9999954
0.999995
0.9999947
0.9999949
0.9999952
0.9999947
0.9999932
0.9999934
0.9999941
0.999995
0.9999958
0.9999966
0.9999973
0.9999979
0.9999982
0.9999985
0.9999988
0.9999991
0.9999993
0.9999995
0.9999997
0.9999998
0.9999999
0.9999999
0.9999999
1
1
1
1
1
0.9999999
0.9999999
0.9999997
0.9999995
0.9999996
0.9999996
0.9999997
0.9999997
0.9999997
0.9999996
0.9999995
0.9999993
0.9999992
0.999999
0.999999
0.999999
0.999999
0.999999
0.9999989
0.9999988
0.9999985
0.9999971
0.9999907
0.9999821
0.9999874
0.9999968
0.9999998
0.9999998
0.9999996
0.9999973
0.9999798
0.9999305
0.9999413
0.9999812
0.999998
0.9999999
1
1
1
1
1
1
1
1
1
1
1
1
0.9999999
0.9999998
0.999999
0.9999986
0.9999989
0.9999997
1
1
1
1
0.9999999
0.9999996
0.9999985
0.999996
0.9999921
0.9999869
0.9999741
0.9999012
0.9997767
0.9998034
0.9999235
0.9999897
0.9999994
0.9999999
0.9999999
1
1
1
1
1
1
0.9999998
0.999999
0.9999948
0.9999734
0.9999474
0.9999635
0.9999903
0.9999993
1
1
1
0.9999999
0.9999996
0.9999994
0.9999995
0.9999999
1
1
1
1
1
1
1
1
0.9999998
0.9999993
0.9999993
0.9999992
0.9999987
0.9999958
0.999983
0.9999167
0.9995245
0.9967212
0.9805448
0.9770309
0.985518
0.997277
0.9998553
0.9999982
1
1
1
1
1
1
1
1
1
1
1
1
1
1
0.9999999
0.9999999
1
1
1
1
1
1
0.9999999
0.9999995
0.999997
0.999995
0.9999957
0.9999985
0.9999999
1
1
1
1
1
1
1
1
1
1
0.9999997
0.9999947
0.9999346
0.9994638
0.9968277
0.9908373
0.9924305
0.9977669
0.9998091
0.9999756
0.9999679
0.9998724
0.9990561
0.9966727
0.9968779
0.9988349
0.9998503
0.9999944
0.9999967
0.9999966
0.9999845
0.9999045
0.999389
0.9954545
0.9818715
0.9825518
0.9936379
0.9993533
0.9999386
0.9999258
0.9997927
0.9995161
0.9996065
0.9998853
0.9999906
0.9999998
1
1
1
1
1
0.9999999
0.9999991
0.9999986
0.9999989
0.9999997
0.9999999
0.9999999
0.9999999
0.9999999
0.9999998
0.9999994
0.9999973
0.9999873
0.9999305
0.999627
0.9993292
0.999545
0.9998798
0.9999892
0.9999918
0.9999767
0.9999094
0.9998986
0.9999414
0.9999898
0.9999995
1
1
1
1
1
1
1
1
1
1
0.9999999
0.9999999
1
1
1
1
1
1
1
1
1
1
1
1
1
1
1
0.9999999
0.9999997
0.9999983
0.999996
0.9999963
0.9999985
0.9999998
1
1
1
1
1
1
1
1
1
1
1
1
1
1
1
1
1
1
1
1
1
1
1
1
1
1
1
1
1
1
1
1
1
1
1
1
1
1
1
1
1
1
1
1
1
1
1
1
1
1
1
1
1
1
1
1
1
1
1
1
1
1
1
1
1
1
1
1
1
1
1
1
1
1
1
1
1
1
1
1
1
1
1
1
1
1
1
1
1
1
1
1
1
1
1
1
1
1
1
1
1
1
1
1
1
1
1
1
1
1
1
1
1
1
1
1
1
1
1
1
1
1
1
1
1
1
1
1
1
1
1
1
1
0.9999999
0.9999998
0.9999998
0.9999998
0.9999997
0.9999994
0.9999982
0.9999956
0.9999932
0.9999928
0.9999932
0.999994
0.999994
0.9999925
0.9999863
0.9999732
0.9999575
0.9999481
0.9999472
0.9999533
0.9999646
0.9999644
0.9999531
0.9999181
0.9998511
0.9997962
0.9997982
0.9998545
0.9999014
0.9998987
0.9998624
0.9997295
0.9994933
0.9994141
0.9994939
0.9997124
0.999842
0.9998449
0.999807
0.9996511
0.9993485
0.9992339
0.9992986
0.999591
0.9998048
0.9997933
0.9996089
0.9989561
0.9987149
0.9989561
0.9993898
0.9994274
0.9991701
0.9980007
0.99683
0.9970627
0.9982489
0.9993372
0.9994682
0.9993653
0.9988716
0.9981754
0.9981661
0.9988414
0.9994794
0.999535
0.9994829
0.9993148
0.9992677
0.999356
0.9995206
0.9994897
0.9991085
0.9987299
0.9988938
0.999221
0.9994877
0.999614
0.9996691
0.9997003
0.9997266
0.999762
0.999814
0.9998268
0.9997991
0.9998015
0.9999174
0.9999878
0.9999952
0.9999948
0.9999919
0.9999857
0.9999886
0.9999964
0.9999986
0.9999985
0.9999979
0.9999967
0.9999928
0.999981
0.9999739
0.9999752
0.9999779
0.9999771
0.9999808
0.9999831
0.9999752
0.9999504
0.9999093
0.9998709
0.9998578
0.999871
0.9999358
0.9999791
0.9999799
0.9999741
0.9999375
0.9997377
0.9995211
0.9997158
0.9999432
0.999997
0.9999988
0.9999983
0.9999924
0.9999362
0.9996846
0.9996553
0.9998322
0.9999739
0.9999984
1
1
0.9999999
0.9999996
0.9999961
0.9999886
0.9999908
0.9999967
0.9999997
1
1
0.9999999
0.9999993
0.999995
0.9999829
0.9999825
0.999992
0.9999988
0.9999999
1
1
0.9999999
0.9999998
0.9999987
0.9999945
0.9999826
0.9999481
0.9997991
0.9989081
0.996741
0.9966915
0.9985816
0.9997652
0.9999802
0.9999959
0.9999987
0.9999988
0.9999985
0.9999963
0.9999943
0.9999965
0.9999993
0.9999994
0.9999986
0.9999912
0.9999283
0.9995436
0.9993494
0.9995426
0.9998951
0.9999932
0.9999991
0.9999991
0.9999985
0.9999934
0.999986
0.9999884
0.999996
0.9999995
1
1
1
1
1
1
1
1
1
0.9999998
0.9999995
0.999999
0.9999976
0.9999902
0.9999478
0.9997142
0.9989616
0.9971368
0.9859694
0.9763649
0.9763649
0.9793305
0.9928253
0.9992908
0.9999862
1
1
1
1
1
0.9999999
0.9999998
0.9999992
0.9999958
0.9999743
0.9998592
0.9997921
0.9998426
0.9999576
0.9999968
0.9999999
0.9999999
0.9999999
0.9999999
0.9999999
0.9999997
0.9999983
0.9999883
0.9999639
0.9999633
0.9999833
0.9999972
0.9999999
1
1
1
1
1
1
0.9999999
0.9999997
0.9999989
0.9999975
0.9999973
0.9999977
0.9999954
0.9999437
0.9991302
0.9885254
0.9570387
0.9717408
0.9935377
0.999566
0.9999006
0.9997554
0.998673
0.9933933
0.9884218
0.9930448
0.9986575
0.9999361
0.9999967
0.9999967
0.9999967
0.9999942
0.9999022
0.9980774
0.9735772
0.9528705
0.9528705
0.9750075
0.996082
0.9998022
0.9995623
0.9975697
0.9971799
0.9981126
0.999626
0.9999816
0.9999998
1
1
1
1
1
1
1
0.9999998
0.9999997
0.9999996
0.9999996
0.9999996
0.9999995
0.9999993
0.9999983
0.9999934
0.9999588
0.9995415
0.9962287
0.9948467
0.9959262
0.9988996
0.9999201
0.9999698
0.9999541
0.9997709
0.9995902
0.9997636
0.9999465
0.9999963
0.9999999
1
1
1
1
0.9999999
0.9999999
1
1
1
1
1
0.9999999
1
1
1
1
1
1
1
1
1
1
1
0.9999999
0.9999997
0.9999986
0.9999923
0.9999534
0.9998844
0.9998907
0.999955
0.9999934
0.9999996
1
1
1
1
1
1
1
1
1
1
1
0.9999998
0.9999994
0.9999995
0.9999998
1
1
1
1
1
1
1
1
1
1
1
1
1
1
1
1
1
1
1
1
1
1
1
1
1
1
1
1
1
1
1
1
1
1
1
1
1
1
1
1
1
1
1
1
1
1
1
1
0.9999999
1
1
1
1
1
1
1
1
1
1
1
1
1
1
1
1
1
1
1
1
1
1
1
1
1
1
1
1
1
1
1
1
1
1
1
1
1
1
1
1
1
1
1
1
1
1
1
1
1
1
1
1
1
1
1
1
1
1
1
1
1
1
1
1
1
1
1
1
1
1
1
1
1
1
1
1
1
1
1
0.9999999
0.9999998
0.9999995
0.9999991
0.9999985
0.9999972
0.9999934
0.9999808
0.9999406
0.9998561
0.9997914
0.9997896
0.9998131
0.9998281
0.9997776
0.999446
0.9984371
0.9972687
0.9971265
0.9974799
0.9985056
0.999117
0.9990408
0.9981764
0.9949847
0.9902004
0.9893218
0.9911488
0.9956902
0.9981292
0.9979256
0.9955615
0.9875114
0.9781019
0.9781055
0.9847808
0.9945074
0.9969096
0.9956312
0.9885782
0.9704442
0.9600995
0.9652805
0.9822292
0.9947537
0.995598
0.9937514
0.9865319
0.9690706
0.9563167
0.963146
0.9879336
0.9978383
0.9970508
0.991799
0.9737435
0.9646498
0.9776041
0.9936276
0.9922961
0.978705
0.9435594
0.9221323
0.9406986
0.9818625
0.9917354
0.9898834
0.981425
0.9499783
0.9370448
0.9673426
0.9942001
0.9957294
0.9938291
0.9832736
0.9679422
0.9751422
0.9920036
0.9963178
0.995368
0.9891925
0.979956
0.9835076
0.9913913
0.9916041
0.9913297
0.9913609
0.9922742
0.9943799
0.9947864
0.9925115
0.9852953
0.9889212
0.9971103
0.9997573
0.999916
0.9998807
0.9996391
0.9993552
0.9996143
0.9999239
0.9999898
0.9999889
0.9999773
0.9998602
0.999555
0.9995929
0.9998236
0.999888
0.9998045
0.9993422
0.9989545
0.9990857
0.9996504
0.999923
0.9997706
0.9987828
0.9967652
0.996832
0.9982326
0.9995666
0.9998567
0.99984
0.9997025
0.9989512
0.9971947
0.9973643
0.9990053
0.9998941
0.9999938
0.9999933
0.9999805
0.9998458
0.9991041
0.9988804
0.999222
0.9998171
0.9999843
0.9999971
0.9999972
0.9999957
0.9999821
0.99993
0.9999198
0.9999579
0.9999927
0.999999
0.9999993
0.9999993
0.9999989
0.9999928
0.9999359
0.9998868
0.9999124
0.9999747
0.9999976
0.9999998
0.9999998
0.9999998
0.9999996
0.9999986
0.9999956
0.999988
0.9999648
0.9998449
0.998347
0.9810593
0.9719555
0.9782547
0.9942486
0.9994777
0.999941
0.9999918
0.999997
0.999997
0.9999922
0.9999365
0.9999151
0.999949
0.9999907
0.9999982
0.9999977
0.9999894
0.9998511
0.9984704
0.9976397
0.9982584
0.9995448
0.999957
0.99998
0.9999781
0.9999443
0.9998209
0.9998127
0.9999139
0.9999857
0.9999988
0.9999998
1
1
1
1
1
1
1
1
1
0.9999997
0.9999976
0.9999876
0.9999655
0.9999214
0.9996732
0.9986087
0.99489
0.9774803
0.9720447
0.9720447
0.9773914
0.9924691
0.9991829
0.9999765
0.9999992
0.9999993
0.9999993
0.9999992
0.9999985
0.9999954
0.9999795
0.9998876
0.999185
0.9963562
0.9958298
0.9974033
0.9994831
0.9999593
0.9999929
0.9999972
0.9999994
0.9999997
0.9999996
0.999999
0.9999947
0.9999622
0.9997999
0.9997379
0.9998122
0.999955
0.9999964
0.9999997
1
1
1
1
1
1
1
1
0.9999992
0.9999877
0.999913
0.9996922
0.9996198
0.9997584
0.9998414
0.9992774
0.9889226
0.940287
0.9433689
0.9767392
0.9960761
0.9997703
0.9991125
0.9920981
0.9589859
0.946885
0.9682834
0.9940891
0.9997631
0.9999964
0.9999967
0.9999967
0.9999967
0.9999794
0.9995789
0.9906936
0.956733
0.9649859
0.9880517
0.9986968
0.9999366
0.9999109
0.9988932
0.9971528
0.9978082
0.9993477
0.9999476
0.9999992
1
1
1
1
1
1
0.9999999
0.9999995
0.9999972
0.9999819
0.9998324
0.997386
0.9906076
0.9906442
0.9959299
0.9991719
0.9978811
0.9913306
0.9916368
0.9970771
0.9996191
0.9999167
0.9999219
0.999898
0.9995561
0.9988046
0.9988729
0.9995244
0.9999249
0.999997
1
1
1
0.9999998
0.9999997
0.9999997
0.9999999
1
1
1
1
1
1
1
1
0.9999999
0.9999996
0.9999981
0.9999915
0.9999637
0.9999342
0.9999502
0.9999844
0.9999957
0.9999947
0.9999848
0.9998933
0.9993759
0.9991713
0.9993906
0.9998477
0.9999865
0.9999987
0.9999998
1
1
1
1
1
1
1
1
1
0.9999998
0.9999991
0.9999961
0.9999956
0.9999978
0.9999997
1
1
1
1
1
1
1
1
1
1
1
1
1
1
1
1
1
1
1
1
1
1
1
1
1
1
1
1
1
1
1
1
1
1
1
0.9999999
0.9999999
0.9999999
1
1
1
1
1
1
0.9999999
1
1
1
0.9999999
0.9999999
1
1
1
0.9999999
1
1
1
1
1
1
1
1
1
0.9999999
1
1
1
1
0.9999999
1
1
1
1
1
1
1
1
1
1
1
1
1
1
1
1
1
1
1
1
1
1
1
1
1
1
1
1
1
1
1
1
1
1
1
1
1
1
1
1
1
1
1
1
1
1
1
1
1
1
1
1
1
1
1
1
1
1
1
1
1
1
1
1
1
1
1
1
1
0.9999999
0.9999994
0.999996
0.9999799
0.9999249
0.9998032
0.9996322
0.9994455
0.9992513
0.9990035
0.9984969
0.9969192
0.9915171
0.9812395
0.9772661
0.9782799
0.9823474
0.9870972
0.987064
0.9763963
0.9299978
0.8706927
0.8654059
0.8912969
0.9501466
0.9798255
0.9777353
0.9553004
0.8651735
0.7116879
0.7022667
0.8016625
0.943543
0.9722409
0.9642318
0.9273198
0.7238661
0.5405264
0.6250735
0.8525202
0.9449709
0.9477059
0.9438915
0.8075796
0.420586
0.4236081
0.6977934
0.8900282
0.9318677
0.9478174
0.9052692
0.512888
0.3035273
0.5650463
0.911483
0.9877241
0.9829747
0.8694859
0.563787
0.6428755
0.8706459
0.95838
0.9682674
0.929358
0.496531
0.31223
0.5603305
0.8762285
0.938097
0.9117097
0.5945768
0.428266
0.5744496
0.866425
0.9773773
0.9770245
0.8710008
0.6656941
0.7016265
0.8693184
0.9701356
0.9678693
0.9248319
0.8540459
0.84389
0.905472
0.9859148
0.9773897
0.8810622
0.865505
0.9088849
0.945343
0.9179235
0.785511
0.8055205
0.9425485
0.9943215
0.9985073
0.9986351
0.9974263
0.9938395
0.9954194
0.9986192
0.9997869
0.9999331
0.9998235
0.9981984
0.9974985
0.9984686
0.9997173
0.9998057
0.9995628
0.9983393
0.9923698
0.9838308
0.9896945
0.9973883
0.9997498
0.9997381
0.9988656
0.9938677
0.9889415
0.9899557
0.993523
0.9968704
0.997453
0.996627
0.9912483
0.9866362
0.9894186
0.9951699
0.9989894
0.9999328
0.9999262
0.9989228
0.9969568
0.9970319
0.9986316
0.9997193
0.9999389
0.9999436
0.9999398
0.9998726
0.9994653
0.9985519
0.9988664
0.9996834
0.9999697
0.9999976
0.9999985
0.9999985
0.9999971
0.999977
0.999795
0.999694
0.9997779
0.9999405
0.9999926
0.9999991
0.9999994
0.9999993
0.9999989
0.9999969
0.9999882
0.9999404
0.9995048
0.9887014
0.9293246
0.9234076
0.9573834
0.9925023
0.9964458
0.9955403
0.996552
0.9990225
0.9999172
0.9999967
0.999997
0.9999955
0.999949
0.9999059
0.9999138
0.9999673
0.9999956
0.9999918
0.999913
0.9988044
0.9969496
0.9974755
0.9990456
0.99979
0.9998123
0.9997394
0.9988827
0.9983378
0.9987754
0.9996751
0.9999649
0.9999951
0.9999994
1
1
1
1
1
1
1
1
1
1
0.9999998
0.9999947
0.9998731
0.9985422
0.9953554
0.9958772
0.9961027
0.9805311
0.9643176
0.9643176
0.9808402
0.9963112
0.9997835
0.9999966
0.9999991
0.9999991
0.9999984
0.999995
0.9999781
0.999889
0.9993764
0.9961438
0.9824731
0.9775216
0.9835514
0.9958821
0.999559
0.9999087
0.999976
0.9999947
0.9999952
0.9999952
0.9999942
0.9999856
0.9999301
0.9995777
0.9986999
0.9987547
0.9995056
0.9999207
0.9999928
0.9999994
1
1
1
1
1
1
1
1
1
0.9999999
0.9999968
0.9999136
0.9988402
0.993302
0.9906215
0.9942481
0.9986487
0.9969859
0.9788214
0.93621
0.9581905
0.9868771
0.9983858
0.999453
0.9962002
0.9261347
0.8357302
0.8367522
0.9361514
0.9924327
0.9998158
0.9999967
0.9999967
0.9999967
0.9999953
0.9999451
0.9992427
0.9971097
0.9961246
0.9963765
0.9976836
0.9994091
0.9999381
0.999944
0.9998999
0.9997602
0.9997052
0.999778
0.9999395
0.9999957
0.9999999
1
1
0.9999999
0.9999997
0.9999983
0.9999901
0.9999027
0.9981949
0.9860138
0.9828749
0.9878006
0.9971002
0.9997109
0.9998246
0.9989974
0.9874515
0.979822
0.9902341
0.9985716
0.9998847
0.999854
0.9993012
0.9973704
0.9971214
0.9982968
0.9996685
0.9999777
0.9999995
0.9999998
0.9999998
0.9999993
0.9999982
0.9999986
0.9999996
1
1
1
1
1
1
1
0.9999997
0.9999981
0.9999895
0.9999384
0.9995817
0.9980742
0.9979502
0.9990545
0.999885
0.999975
0.9999718
0.9999248
0.9995051
0.9977671
0.9975822
0.9987812
0.9997843
0.9999742
0.9999972
0.9999999
1
1
1
1
1
1
1
1
0.9999998
0.9999991
0.9999955
0.9999784
0.9999634
0.9999793
0.9999958
0.9999997
1
0.9999999
0.9999998
0.9999997
0.9999998
0.9999999
1
1
1
1
1
1
1
1
1
1
1
1
1
1
1
1
1
1
1
1
1
1
1
0.9999998
0.9999998
0.9999999
1
1
1
1
0.9999999
0.9999998
0.9999999
1
1
1
1
1
1
1
1
0.9999999
0.9999999
1
1
1
1
1
1
1
1
1
1
1
1
1
1
1
1
1
1
1
1
1
1
1
1
1
1
1
1
1
1
1
0.9999999
1
1
1
1
1
1
1
1
1
1
1
1
1
1
1
1
1
1
1
1
1
1
1
1
1
1
1
1
1
1
1
1
1
1
1
1
1
1
1
1
1
1
1
1
1
1
1
1
1
1
1
1
1
1
1
1
1
1
1
1
1
1
1
1
1
1
1
0.9999998
0.9999991
0.9999959
0.9999835
0.9999375
0.9997616
0.9990909
0.996838
0.9907904
0.980163
0.9693498
0.9605478
0.9537528
0.9485514
0.9382898
0.9050112
0.8073669
0.6697912
0.6505774
0.6788402
0.7357095
0.787997
0.8015459
0.7356685
0.4122581
0.1624623
0.1587019
0.2820949
0.629897
0.8013211
0.7566228
0.4242938
0.08757418
0.02432968
0.02545947
0.136953
0.6251752
0.7080575
0.427566
0.09225022
0.01461882
0.01388077
0.06090074
0.3619293
0.4626104
0.2983654
0.08144408
0.02226435
0.02190775
0.0666615
0.2226341
0.2488613
0.1757153
0.08300259
0.04732837
0.02852728
0.05468242
0.2465858
0.3585095
0.289774
0.139268
0.1931272
0.5534742
0.410241
0.1345245
0.08330606
0.1720233
0.4309655
0.3889122
0.144209
0.03463683
0.02972253
0.03208118
0.1594689
0.4664949
0.4623959
0.2213423
0.07604356
0.1701013
0.6423418
0.5675764
0.1652341
0.1228201
0.2694124
0.7229205
0.7225696
0.3569711
0.07733165
0.1521543
0.6962748
0.9696796
0.9614249
0.8540501
0.4011031
0.1513082
0.1318636
0.1163083
0.2764412
0.7921238
0.9690013
0.948124
0.8915811
0.8928975
0.937872
0.9877132
0.99761
0.9951646
0.9917549
0.9945185
0.998473
0.9984874
0.9982826
0.9986345
0.9995452
0.9993507
0.9871281
0.9468847
0.9474254
0.9775828
0.9961894
0.9975227
0.9965152
0.9927012
0.9850881
0.9745016
0.953203
0.915214
0.9044949
0.9120662
0.9360352
0.9615012
0.9689353
0.9687352
0.9675246
0.9680322
0.982609
0.9970211
0.9998148
0.9998679
0.9996747
0.9996145
0.9997376
0.9999338
0.9999503
0.9998759
0.998271
0.991477
0.9909906
0.9958273
0.9993623
0.9999652
0.999998
0.999998
0.9999965
0.9999514
0.9995295
0.9993718
0.9995785
0.9998893
0.9999817
0.9999963
0.9999965
0.9999964
0.9999945
0.9999826
0.9999053
0.9982966
0.9496876
0.8795149
0.8934253
0.9632136
0.9910792
0.9889387
0.988729
0.994141
0.9990515
0.9997201
0.9995391
0.9995449
0.9998238
0.9999737
0.9999969
0.9999947
0.9999824
0.9999796
0.9999869
0.9999897
0.9999828
0.9998559
0.9985311
0.9961138
0.9972378
0.9986945
0.9989575
0.9971279
0.9918967
0.9926333
0.9968561
0.9994054
0.9999023
0.9999811
0.9999984
0.9999999
0.9999999
0.9999999
0.9999999
0.9999999
0.9999998
0.999998
0.9999856
0.9999812
0.9999883
0.9999969
0.9999958
0.9999828
0.9998694
0.9987318
0.9847861
0.9512392
0.9534393
0.9804268
0.9969528
0.9998185
0.9999759
0.9999836
0.9999876
0.9999932
0.9999974
0.9999957
0.999977
0.9998595
0.9991317
0.9927742
0.9294527
0.843009
0.8626583
0.9533802
0.9947766
0.9996402
0.9999632
0.9999959
0.9999967
0.9999967
0.9999909
0.9999647
0.999857
0.999309
0.9960666
0.9890806
0.9912457
0.9972757
0.999699
0.9999849
0.9999996
1
1
1
1
1
1
0.9999999
0.9999997
0.9999987
0.9999951
0.9999933
0.9999946
0.9999833
0.9996495
0.9924491
0.9658023
0.9639943
0.9806832
0.9971746
0.9997697
0.9990401
0.967801
0.8630155
0.8671099
0.9477064
0.9944359
0.9927566
0.9040919
0.8357302
0.8941493
0.9785437
0.998948
0.9999889
0.9999967
0.9999911
0.9999738
0.9999529
0.9999109
0.9998314
0.9998517
0.9998772
0.9999167
0.9999459
0.9999482
0.9999353
0.9998781
0.9997427
0.9997183
0.9998361
0.9999365
0.9998819
0.9998953
0.999954
0.9999772
0.9999755
0.9999668
0.9999264
0.9996208
0.9950565
0.9877597
0.9877597
0.9926709
0.9976414
0.9994956
0.9998243
0.9998246
0.9998246
0.9988385
0.9863295
0.979822
0.9836329
0.9957145
0.997377
0.9931935
0.9915377
0.9946084
0.9989154
0.9999267
0.9999983
0.9999999
0.9999999
0.9999997
0.9999963
0.9999915
0.9999949
0.9999989
0.9999999
1
1
1
1
0.9999999
0.9999995
0.9999981
0.9999923
0.9999517
0.9990959
0.9926286
0.9907871
0.9930524
0.9982721
0.9998637
0.9999209
0.999839
0.9987352
0.9929925
0.9914329
0.9942044
0.9987074
0.999905
0.9999979
1
1
1
1
1
1
1
0.9999999
0.9999996
0.9999985
0.999994
0.9999742
0.9998837
0.9997138
0.9997784
0.9999395
0.9999948
0.9999996
0.9999997
0.9999991
0.9999989
0.9999994
0.9999999
1
1
1
1
1
1
1
1
1
1
1
1
1
1
1
1
1
1
1
1
1
1
1
0.9999999
0.9999994
0.9999994
0.9999996
0.9999999
1
1
1
0.9999999
0.9999997
0.9999996
0.9999998
1
1
1
1
1
1
1
1
1
1
1
1
1
1
1
1
1
1
1
1
1
1
1
1
1
1
1
1
1
1
1
1
1
1
1
1
1
1
1
1
1
1
1
1
1
1
1
1
1
1
1
1
1
1
1
0.9999999
1
1
1
1
1
1
1
1
1
1
1
1
1
1
1
1
1
1
1
1
1
1
1
1
1
1
1
1
1
1
1
1
1
1
1
1
1
1
1
1
1
1
1
1
1
1
1
1
1
1
1
1
1
1
1
1
1
1
1
1
1
1
0.9999999
0.9999983
0.9999826
0.9998973
0.9995625
0.9986854
0.9966775
0.9921448
0.9814655
0.956592
0.9013065
0.8018541
0.6839317
0.6079568
0.5642003
0.5363352
0.5232386
0.4740878
0.3049243
0.1137779
0.06787085
0.07694077
0.1169313
0.1418354
0.1287147
0.08215235
0.03280956
0.02048021
0.02243125
0.0315867
0.03502352
0.03385648
0.02966639
0.02058572
0.01650835
0.02102607
0.02501432
0.02154994
0.01830708
0.01809803
0.01997416
0.030905
0.03014468
0.01133035
0.006626571
0.008096607
0.01332742
0.01752124
0.01594831
0.01006035
0.00909156
0.009545246
0.01114421
0.01787125
0.05612581
0.0870452
0.04205974
0.02094334
0.02495085
0.03448851
0.03909525
0.02691855
0.02104853
0.02688429
0.2597051
0.5104688
0.2138428
0.02656954
0.01636661
0.01636661
0.01650153
0.02996116
0.03463849
0.06090328
0.1169368
0.1148359
0.07144446
0.07016488
0.06716661
0.06302641
0.06302641
0.06302641
0.2208902
0.4664053
0.4514642
0.2015427
0.07468411
0.04902865
0.05754026
0.06387515
0.06057849
0.2379466
0.789515
0.8890465
0.5308739
0.09558505
0.0516979
0.0516979
0.05173347
0.0516979
0.07051609
0.5105278
0.785969
0.5737257
0.2103462
0.3020811
0.7503516
0.9725206
0.9965748
0.9950307
0.9929248
0.9951677
0.9978402
0.9906857
0.9476747
0.9523175
0.9783635
0.9915
0.9918047
0.9918047
0.9897467
0.9835745
0.9686271
0.9341615
0.8985363
0.8413856
0.5873558
0.1901432
0.1071558
0.1090024
0.1100184
0.135855
0.3194218
0.5815066
0.5754866
0.536577
0.6294807
0.8687921
0.9862062
0.9996721
0.9999541
0.9999541
0.9999541
0.9999541
0.9999541
0.9999541
0.9998698
0.9980543
0.99177
0.9917027
0.9960595
0.9992144
0.9998945
0.9999695
0.9999684
0.9998228
0.9994927
0.9995862
0.9998016
0.9998809
0.9999397
0.9999846
0.9999849
0.9999732
0.9998547
0.9983697
0.9524582
0.8475232
0.865381
0.9502008
0.9852332
0.9746463
0.9712627
0.9826676
0.9965194
0.9994622
0.999446
0.9994833
0.9997749
0.9999338
0.9999269
0.9998055
0.9997265
0.9998549
0.9999719
0.9999919
0.99999
0.99999
0.99999
0.9999867
0.9998069
0.9986531
0.9973462
0.9964219
0.9923049
0.9747584
0.9725755
0.9845442
0.9966458
0.9991981
0.9997057
0.9999386
0.9999942
0.9999982
0.9999983
0.9999985
0.9999993
0.9999995
0.9999991
0.9999923
0.9999546
0.9999491
0.9999728
0.999992
0.9999917
0.9999855
0.9999145
0.9985796
0.9691825
0.9272961
0.9340482
0.9734799
0.9960828
0.99979
0.9999834
0.9999973
0.9999993
0.9999993
0.9999992
0.999997
0.9999795
0.9998606
0.9991221
0.9908847
0.8435453
0.6249431
0.6534215
0.87406
0.984152
0.9992663
0.9999883
0.9999967
0.9999967
0.9999967
0.9999967
0.9999938
0.999938
0.9992292
0.9881852
0.917484
0.922248
0.9740549
0.9973094
0.9998958
0.9999987
1
1
1
1
1
1
1
0.9999997
0.9999968
0.9999584
0.9996268
0.9984718
0.9981289
0.9988798
0.9995275
0.9981929
0.9771597
0.9636443
0.9784841
0.9963541
0.9997393
0.9997697
0.9992864
0.9956038
0.9899311
0.991734
0.992202
0.9699512
0.89801
0.9417412
0.9728747
0.9923946
0.9992604
0.9999481
0.9999484
0.9999098
0.9994185
0.998726
0.9988784
0.9994333
0.999474
0.9993753
0.9994123
0.9997273
0.9999489
0.9999286
0.99952
0.9987932
0.9987932
0.9989508
0.9996016
0.9999426
0.9999843