/*--------------------------------*- C++ -*----------------------------------*\
| =========                 |                                                 |
| \\      /  F ield         | foam-extend: Open Source CFD                    |
|  \\    /   O peration     | Version:     3.1                                |
|   \\  /    A nd           | Web:         http://www.extend-project.de       |
|    \\/     M anipulation  |                                                 |
\*---------------------------------------------------------------------------*/
FoamFile
{
    version     2.0;
    format      ascii;
    class       volScalarField;
    location    "17";
    object      k;
}
// * * * * * * * * * * * * * * * * * * * * * * * * * * * * * * * * * * * * * //

dimensions      [0 2 -2 0 0 0 0];

internalField   nonuniform List<scalar> 
119952
(
0.06506939
0.06095772
0.05966596
0.05814227
0.05637352
0.05462669
0.05363921
0.05296877
0.05239376
0.05181175
0.05116731
0.05044315
0.04964707
0.0488095
0.04798277
0.04723124
0.04661435
0.04617847
0.04599516
0.04630883
0.04968294
0.04795641
0.04820139
0.05114242
0.04916554
0.04846659
0.04798145
0.04755659
0.04631229
0.01920704
0.09214743
0.08937389
0.08689759
0.0853084
0.08453636
0.08437715
0.08462192
0.08508903
0.08565559
0.08627271
0.08285247
0.08355762
0.08630309
0.08982039
0.09344
0.09679866
0.09977326
0.10238
0.1045877
0.1148164
0.1160954
0.1168603
0.11719
0.1172725
0.1172463
0.1172016
0.1171859
0.1172177
0.1172743
0.1176674
0.1177837
0.1177332
0.1176169
0.1174632
0.1172874
0.1170904
0.1168264
0.1166117
0.1186105
0.1183143
0.117333
0.1170978
0.1169452
0.1164461
0.1154882
0.1143482
0.1131492
0.1119174
0.1106711
0.1094282
0.1081989
0.1069868
0.1057962
0.1046361
0.1035151
0.1024325
0.1013722
0.1003296
0.0994806
0.09876139
0.09771785
0.09706379
0.09726951
0.09722721
0.09718362
0.09747261
0.09791019
0.09618897
0.09459307
0.09350606
0.09269643
0.09203144
0.09142
0.09081591
0.09019622
0.08954572
0.08885511
0.08811989
0.08731837
0.08645514
0.08553633
0.08456519
0.08354673
0.08249645
0.08144848
0.08046357
0.07964223
0.07911229
0.07895808
0.0791486
0.07954588
0.07997849
0.08030953
0.08046373
0.08042033
0.08018934
0.07979222
0.07924387
0.07854562
0.07769494
0.07669712
0.0755685
0.07433494
0.07302887
0.07168592
0.07034144
0.06902732
0.06776919
0.06658406
0.06547922
0.06445566
0.06350944
0.06264302
0.06188301
0.06127595
0.06086907
0.0606771
0.06069874
0.06088804
0.06112126
0.06133723
0.06149188
0.06157592
0.06159901
0.06156989
0.06149281
0.06137875
0.06122871
0.06103716
0.06078832
0.060462
0.06003649
0.05949401
0.05882729
0.05803928
0.0571388
0.05614334
0.05508681
0.05403003
0.05307918
0.05239241
0.05214908
0.05245123
0.05318098
0.05406096
0.0548347
0.05535334
0.05556119
0.05546824
0.05513951
0.05464272
0.05401611
0.05328347
0.05246573
0.05158555
0.05066762
0.0497323
0.04880405
0.04791771
0.04710966
0.04639335
0.04576579
0.04523373
0.04480263
0.04447415
0.04424522
0.04408115
0.04393389
0.04359444
0.04330337
0.04311039
0.04299792
0.04293618
0.04289587
0.04284869
0.04277365
0.0426548
0.04247998
0.04224188
0.04192812
0.04154418
0.0410728
0.04049184
0.03983789
0.03915872
0.03853724
0.03812952
0.03819796
0.0388893
0.0400828
0.04161488
0.04289439
0.04350228
0.04344743
0.04295173
0.04224547
0.04148761
0.04074929
0.04003561
0.03932721
0.03861017
0.03787717
0.03702965
0.03647693
0.03606291
0.03567304
0.03532229
0.03499757
0.03469302
0.03441247
0.03414067
0.03388111
0.0336554
0.03347524
0.03334838
0.03327988
0.0332723
0.03332551
0.03343664
0.03360004
0.03380739
0.03404793
0.03430888
0.03457657
0.03483799
0.03508183
0.03529954
0.0354874
0.03564863
0.03579826
0.03594343
0.03606297
0.0361393
0.03616656
0.03614891
0.03609952
0.03604152
0.03556393
0.03569645
0.03577415
0.03576617
0.03576887
0.03578851
0.03582765
0.03588146
0.03593275
0.03596801
0.03597688
0.03595437
0.03589757
0.0358053
0.03567744
0.03551445
0.03531575
0.03507949
0.03480735
0.03450146
0.03416497
0.03380453
0.03343
0.03305237
0.03268376
0.03233567
0.03201942
0.03174351
0.03151359
0.03133375
0.03120565
0.031128
0.03109734
0.03110902
0.03115688
0.03123199
0.03132571
0.0314302
0.03153804
0.03164228
0.03173648
0.03181466
0.03187118
0.03190087
0.03190053
0.03186659
0.03177017
0.03161432
0.03140014
0.03113138
0.0308152
0.03046205
0.03008156
0.02969988
0.02942077
0.02895163
0.02847293
0.02799773
0.02753382
0.02708646
0.02666203
0.02626692
0.02590704
0.02558893
0.02531833
0.02509986
0.02493709
0.02483398
0.02479253
0.02481118
0.02490216
0.02510481
0.02546092
0.02596859
0.02658341
0.02724472
0.02790131
0.02852619
0.02911378
0.02966694
0.03018559
0.03066222
0.03108289
0.03143038
0.03168712
0.03183796
0.0318741
0.03179669
0.03161499
0.03134135
0.03098891
0.0305675
0.03008749
0.02956184
0.02900904
0.02844757
0.02789532
0.02736635
0.02687135
0.02641462
0.02599735
0.02562033
0.02528223
0.02497758
0.02470121
0.02444872
0.0242165
0.02400145
0.02380097
0.023613
0.02343588
0.02326827
0.0231091
0.02295748
0.02281266
0.02267396
0.02254073
0.02241234
0.02228817
0.02216758
0.02204994
0.02193462
0.02182102
0.0217086
0.02159682
0.02148529
0.02137363
0.02126163
0.02114908
0.02103598
0.02092219
0.02080778
0.02069226
0.02057493
0.02045217
0.02031482
0.02013359
0.01991938
0.0201221
0.1081064
0.1005216
0.1012971
0.1050953
0.1096711
0.1140293
0.1178334
0.1210278
0.1236777
0.1242293
0.1289392
0.1360857
0.143711
0.1508642
0.1570085
0.1620847
0.1662139
0.1695091
0.1919655
0.1923342
0.1925938
0.1924631
0.1921607
0.1918893
0.1916715
0.1915237
0.1914374
0.1912974
0.191444
0.1915274
0.1912339
0.1907371
0.1901266
0.1894563
0.1887746
0.1881179
0.187486
0.1870911
0.1867986
0.1860826
0.1851721
0.1841459
0.1830392
0.1819205
0.180837
0.1798074
0.178843
0.1779011
0.1769466
0.1760695
0.175281
0.1745694
0.1739273
0.1733334
0.1727682
0.1722299
0.1831325
0.1822243
0.1813152
0.1803966
0.179419
0.1783725
0.1772567
0.1760764
0.1748495
0.1735917
0.172332
0.1710955
0.1698711
0.1686478
0.1674346
0.1662332
0.1650652
0.1639928
0.1631573
0.1623507
0.1612181
0.1600937
0.1591255
0.1581124
0.1569336
0.155576
0.1540811
0.1524753
0.1507762
0.148999
0.1471505
0.1452292
0.1432287
0.1411513
0.1390112
0.1368365
0.1346646
0.1325404
0.1305201
0.1286483
0.1269041
0.1253522
0.1241055
0.1230748
0.1221398
0.1213688
0.1207303
0.1199995
0.1191031
0.1184125
0.1179897
0.1176789
0.1174248
0.1171822
0.1169104
0.1165765
0.1161601
0.1156756
0.1151171
0.1144758
0.1137445
0.1129143
0.1119744
0.1109151
0.1097328
0.1084356
0.1070503
0.1056239
0.1042131
0.102866
0.1016091
0.1004484
0.09937789
0.09838882
0.09747563
0.09663834
0.09588061
0.09520354
0.09459871
0.09404505
0.09351088
0.09295905
0.09235362
0.09166674
0.09088362
0.09000496
0.08904613
0.08803346
0.08699864
0.08597222
0.08498043
0.08404305
0.08317274
0.08237858
0.08167164
0.08106413
0.08056666
0.08018275
0.07989772
0.07968001
0.07949955
0.07933496
0.07916452
0.07896349
0.07871338
0.07840532
0.07803978
0.07762584
0.07717892
0.07671711
0.07625628
0.07580558
0.07536462
0.07492243
0.07445874
0.0739474
0.07336138
0.0726787
0.07188517
0.07097776
0.0699782
0.06894635
0.06796762
0.06711678
0.06643083
0.06590984
0.06553304
0.06527374
0.06510782
0.06501636
0.06498222
0.0649836
0.06498804
0.06495497
0.06484119
0.06461148
0.06424262
0.06373099
0.06308696
0.0623397
0.06152705
0.06071437
0.05996169
0.0593132
0.05879554
0.05844309
0.05826448
0.05828143
0.05771781
0.05721917
0.05710805
0.05729614
0.05769648
0.05822978
0.05882765
0.05943091
0.0599885
0.06045633
0.06079649
0.06097704
0.0609703
0.06075171
0.06029283
0.05959204
0.05866964
0.05751903
0.05613908
0.05454406
0.05278648
0.05098982
0.04932603
0.04791456
0.04676506
0.04582761
0.04505827
0.04444251
0.04398842
0.04370914
0.04360657
0.04366094
0.04382789
0.0440441
0.04424097
0.04437671
0.0444495
0.04443128
0.0442798
0.04400594
0.04363256
0.04319313
0.04272241
0.04225152
0.04181065
0.04142755
0.04112662
0.0409273
0.04084297
0.04088028
0.04103881
0.04131107
0.04168254
0.04213186
0.04263148
0.04314913
0.0436503
0.04410093
0.04447049
0.04473708
0.04489188
0.04493689
0.04487809
0.04472473
0.04449099
0.04419601
0.04386495
0.04352615
0.04320518
0.04291668
0.04544186
0.04527759
0.04513952
0.04499833
0.04483183
0.04462315
0.04435936
0.04403459
0.04365271
0.04322754
0.04277099
0.04228995
0.04179235
0.04128482
0.04077282
0.04026122
0.03975454
0.03925686
0.0387716
0.03830125
0.03784732
0.03741059
0.03699146
0.03659032
0.03620786
0.03584479
0.03550292
0.03518661
0.03490046
0.03464847
0.03443413
0.03425872
0.03411655
0.03400035
0.03390211
0.03381362
0.03372722
0.03363646
0.03353658
0.0334246
0.03329954
0.03316221
0.03301504
0.03286174
0.03270563
0.03254491
0.03237661
0.03220132
0.03201905
0.03182994
0.03163228
0.03142506
0.03120723
0.03098737
0.0307635
0.03051597
0.0302528
0.02998735
0.02972933
0.02948446
0.02925604
0.02904523
0.02885314
0.02868012
0.02852468
0.02838536
0.02825923
0.02814013
0.02802196
0.02790077
0.02777829
0.0276623
0.02756147
0.02748341
0.02743355
0.02741467
0.02742844
0.02747826
0.02757164
0.02772083
0.0279416
0.02825025
0.02865952
0.02917418
0.02978737
0.03047913
0.03121646
0.0319529
0.03265183
0.0332871
0.03383384
0.03427196
0.03458884
0.03478045
0.03485095
0.03481042
0.03467077
0.03444323
0.03414784
0.03380418
0.03342763
0.03302888
0.03261945
0.0322106
0.03181171
0.03142855
0.0310619
0.03071125
0.03037568
0.03005431
0.02974622
0.02945051
0.02916633
0.02889288
0.02862943
0.02837528
0.02812981
0.02789231
0.02766212
0.02743849
0.0272207
0.02700791
0.02679939
0.02659426
0.02639191
0.02619147
0.02599259
0.02579445
0.02559707
0.02539953
0.02520229
0.02500373
0.02480438
0.02460034
0.02439119
0.02417251
0.02396314
0.02380852
0.02371479
0.0576551
0.06269826
0.06853232
0.07484083
0.08167861
0.08921239
0.09784655
0.1082638
0.1215913
0.1394011
0.2108981
0.2285185
0.2450413
0.2591829
0.2723481
0.2851801
0.2976695
0.309643
0.3247272
0.3987032
0.4086514
0.414111
0.4174387
0.419268
0.4199223
0.4196274
0.4185112
0.4164572
0.4137856
0.409972
0.4062908
0.4028257
0.399444
0.3959791
0.3923392
0.3885044
0.3844908
0.3805812
0.3751397
0.3698489
0.3646463
0.3595832
0.3546811
0.3499328
0.3453255
0.3408372
0.3364399
0.332155
0.3278804
0.3236173
0.3194287
0.3153372
0.3113622
0.3075108
0.3037721
0.3001315
0.3105193
0.3071146
0.3037461
0.3005236
0.2974615
0.2945216
0.2916539
0.2888099
0.285995
0.2832321
0.2805304
0.2779595
0.2755389
0.2732066
0.2709
0.268586
0.266271
0.2639981
0.2618166
0.2597021
0.2576279
0.2555864
0.2535138
0.2513742
0.249171
0.246952
0.2447678
0.2426326
0.2405377
0.2384857
0.2364724
0.2345112
0.232642
0.2308986
0.2292879
0.2277909
0.2263664
0.2249619
0.2235348
0.2221029
0.2206459
0.2191343
0.2175519
0.2158876
0.2141355
0.2123043
0.2104251
0.2085361
0.2066665
0.2048165
0.2029761
0.2011445
0.199338
0.197573
0.1958706
0.1942385
0.1926987
0.1912227
0.1897363
0.1882624
0.1868428
0.1854336
0.1839303
0.1822373
0.1803642
0.1783478
0.1762247
0.1740228
0.171754
0.1694123
0.1669813
0.164452
0.1618327
0.1591541
0.1564623
0.1538081
0.1512457
0.1488142
0.1465354
0.1444546
0.1425964
0.1409295
0.1394482
0.1381564
0.137065
0.1361295
0.1353388
0.134756
0.1343579
0.1341045
0.133934
0.1337829
0.1335985
0.1333446
0.1330023
0.1325731
0.1320624
0.1314644
0.1307733
0.1299806
0.1290755
0.1280482
0.1268952
0.1256225
0.1242472
0.1227933
0.1212851
0.1197411
0.1181727
0.1165862
0.1149866
0.113381
0.1117813
0.1102051
0.1086739
0.1072092
0.1058283
0.1045414
0.1033501
0.1022472
0.1012182
0.1002442
0.09930588
0.098388
0.09748296
0.09659214
0.09572458
0.09489394
0.09411594
0.09340498
0.09277198
0.09222515
0.09177137
0.09141544
0.09115753
0.0909901
0.09089568
0.09084728
0.09081508
0.09076968
0.09068253
0.09052567
0.09027627
0.08991851
0.08944513
0.0888592
0.08817419
0.08741217
0.0866007
0.08576887
0.08494264
0.08414063
0.08337116
0.08263113
0.08190788
0.08118307
0.08043615
0.07964969
0.07881885
0.07796016
0.07710723
0.07629243
0.07553174
0.07482312
0.0741536
0.07350757
0.07287381
0.07224981
0.07164134
0.07105723
0.07050387
0.06998066
0.06947958
0.0689861
0.06848449
0.06796048
0.06740966
0.06683431
0.06625387
0.06568898
0.06519275
0.06481505
0.06460549
0.06457932
0.06478063
0.06519828
0.0658121
0.06664043
0.06766853
0.06885477
0.07014718
0.07148855
0.07282051
0.07408655
0.07523381
0.0762154
0.07699264
0.07753589
0.07782276
0.07783585
0.07756278
0.07699719
0.07616988
0.07511587
0.07384573
0.07238203
0.07076274
0.06903632
0.06724574
0.06541893
0.06357311
0.06172477
0.05989753
0.05812273
0.05643595
0.05487247
0.0534632
0.05223087
0.05118697
0.05033126
0.04965237
0.04913207
0.0487469
0.04846215
0.04823871
0.04804583
0.04785845
0.04766575
0.04748169
0.04732409
0.04721118
0.04716644
0.04721485
0.04737877
0.04767461
0.04811077
0.04868655
0.04939175
0.05020667
0.0511027
0.05204386
0.05298967
0.05389829
0.0547293
0.05544957
0.05604135
0.0565026
0.05683944
0.05706138
0.05718322
0.05722878
0.05722951
0.05721761
0.05721708
0.05722691
0.05724485
0.05724111
0.05722567
0.05718714
0.05710408
0.05695581
0.05672418
0.05639782
0.0559753
0.05546561
0.05488433
0.05424104
0.05354401
0.05280027
0.05201639
0.05119935
0.05035695
0.04949788
0.04863179
0.04776913
0.0469209
0.04609809
0.04531105
0.04456876
0.04387838
0.04324516
0.04267254
0.04216217
0.04171382
0.04132521
0.04099187
0.04070701
0.04046337
0.04025818
0.04008841
0.0399459
0.03981768
0.03969178
0.03955776
0.0394071
0.03923332
0.03903212
0.03880138
0.03854106
0.03825301
0.03793713
0.03759703
0.03723758
0.03686538
0.03648682
0.03610869
0.03573611
0.03537407
0.03502561
0.03469424
0.03437873
0.03408186
0.03380678
0.03355517
0.03332676
0.03312045
0.03293524
0.03277154
0.03262977
0.03250908
0.03240653
0.03231629
0.0322321
0.03214786
0.03205711
0.03195477
0.03183852
0.03170852
0.03156607
0.0314123
0.03124748
0.03107097
0.03088215
0.03068184
0.03047373
0.03026525
0.03006778
0.02989624
0.02976787
0.02970041
0.02970983
0.02980803
0.03000075
0.03028677
0.03065902
0.0311046
0.03160415
0.03213255
0.03266145
0.03316288
0.0336126
0.0339922
0.03429
0.03450086
0.03462545
0.03466862
0.0346381
0.03454377
0.0343959
0.03420343
0.03397351
0.03371324
0.03343166
0.03313705
0.03283586
0.03253217
0.03222889
0.03192828
0.03163205
0.03134144
0.03105731
0.03078017
0.0305103
0.03024779
0.02999254
0.0297443
0.02950264
0.02926702
0.02903676
0.02881117
0.02858944
0.02837087
0.0281547
0.02794039
0.02772729
0.02751513
0.02730322
0.02709149
0.02687888
0.0266658
0.02645155
0.02624044
0.026037
0.02585634
0.02570537
0.04425547
0.05045271
0.05604693
0.08713429
0.1183018
0.1571584
0.1829242
0.2086533
0.2328012
0.2554719
0.2755276
0.2929743
0.3099228
0.327121
0.3444433
0.3616646
0.3784317
0.3949098
0.4111764
0.4271082
0.442576
0.4573489
0.4711039
0.4836942
0.495054
0.5054664
0.5150247
0.5233071
0.530063
0.5352123
0.5390693
0.558963
0.5574501
0.5546702
0.5509888
0.5465499
0.5415054
0.5359933
0.5301239
0.5240238
0.5178192
0.511521
0.5051928
0.4988709
0.4926074
0.486428
0.4803368
0.4743256
0.4683725
0.4622998
0.4560081
0.4495883
0.4430452
0.4364342
0.4298336
0.4233243
0.4169659
0.4107842
0.4047592
0.3988575
0.3930837
0.3874601
0.3820293
0.3768416
0.3719282
0.3672656
0.3628099
0.3584486
0.3539104
0.3495256
0.3453571
0.3414684
0.337886
0.3345743
0.3314429
0.3283861
0.3253429
0.3223255
0.319406
0.3166719
0.3141424
0.3117554
0.3094138
0.3070334
0.3045999
0.3021778
0.2998528
0.2976625
0.2955788
0.293517
0.2913739
0.2890756
0.2866237
0.2841024
0.2816122
0.2791984
0.2768454
0.2745171
0.2721993
0.2699268
0.267767
0.265769
0.2639504
0.2622802
0.2607094
0.2591673
0.2576249
0.256061
0.2544501
0.2527678
0.250987
0.2490773
0.2470221
0.244838
0.2425775
0.2403021
0.2380473
0.2358108
0.233578
0.231348
0.2291396
0.2269772
0.2248687
0.2228046
0.2207956
0.2188649
0.217012
0.2152258
0.213491
0.2117525
0.2099141
0.2078786
0.2056368
0.2032267
0.2006995
0.1980999
0.1954512
0.1927471
0.1899582
0.1870562
0.184037
0.1809305
0.1777899
0.1746744
0.1716409
0.1687348
0.16599
0.1634376
0.1611026
0.1589958
0.1571372
0.1555434
0.154233
0.1532303
0.1525392
0.1521
0.151851
0.1517382
0.1516932
0.151645
0.1515339
0.1513217
0.1509968
0.1505748
0.150065
0.149466
0.1487757
0.1479889
0.1470966
0.146091
0.1449695
0.1437362
0.1423998
0.1409681
0.1394438
0.1378257
0.1361127
0.1343064
0.1324124
0.1304413
0.1284095
0.1263383
0.1242517
0.1221752
0.1201343
0.1181531
0.1162531
0.1144518
0.1127613
0.1111877
0.1097314
0.1083893
0.1071575
0.1060336
0.1050183
0.1041152
0.1033306
0.102671
0.1021411
0.1017433
0.1014772
0.1013394
0.1013202
0.1014033
0.1015638
0.1017687
0.101981
0.1021652
0.1022889
0.1023176
0.1022189
0.1019691
0.1015541
0.1009703
0.1002254
0.09933791
0.0983355
0.09725266
0.09612713
0.09499541
0.09388808
0.09282615
0.09182003
0.09087042
0.08997033
0.0891089
0.08827776
0.08747628
0.08670899
0.08597706
0.08527199
0.0845758
0.08386512
0.08311685
0.08231382
0.08144916
0.08052771
0.07956434
0.07858031
0.07759843
0.07663918
0.07571787
0.07484487
0.07402655
0.07326975
0.07258286
0.07198136
0.07148393
0.0711191
0.07093169
0.07098712
0.07131091
0.07192607
0.07283687
0.07403299
0.07548775
0.07715805
0.07898662
0.08090601
0.08284324
0.08472509
0.08648275
0.08805522
0.0893916
0.09045159
0.09120624
0.09163593
0.09172875
0.09148276
0.0909096
0.09003329
0.08891756
0.08759482
0.0860982
0.08446086
0.08270925
0.08085858
0.07891661
0.07689225
0.07480125
0.07266794
0.0705227
0.06839923
0.06633135
0.06435036
0.06248261
0.06074932
0.05916563
0.0577407
0.05647871
0.05537753
0.05442964
0.05362532
0.05295347
0.05240346
0.0519666
0.05163512
0.05142185
0.05135352
0.05143977
0.05169143
0.05211837
0.052726
0.05351265
0.05446743
0.05557015
0.05679155
0.05809396
0.05943261
0.0607587
0.06202348
0.06318137
0.0641967
0.06505454
0.06575972
0.06632518
0.06676696
0.06710963
0.0673909
0.0676556
0.06793844
0.06822742
0.06851089
0.0687774
0.06900311
0.06917052
0.06926768
0.06927255
0.06916648
0.06893619
0.06857717
0.0680975
0.06751638
0.06685407
0.06611911
0.0653131
0.06443698
0.06349482
0.06249394
0.06144381
0.06035527
0.05924056
0.05811365
0.05699025
0.05588726
0.05482162
0.05380892
0.05286224
0.05199151
0.05120328
0.05050078
0.0498841
0.04935048
0.04889458
0.04850875
0.04818338
0.04790703
0.04766597
0.04745004
0.04725331
0.0470661
0.04687607
0.04667296
0.04644857
0.04619671
0.0459132
0.04559543
0.04523867
0.04484357
0.04441409
0.04395573
0.04347555
0.04298132
0.04248132
0.04198336
0.04149505
0.04102292
0.04057296
0.04014999
0.03975807
0.03939991
0.03907673
0.03878864
0.03853495
0.0383143
0.03812449
0.03796242
0.03782386
0.03770354
0.0375958
0.03749489
0.03739482
0.03728955
0.03717404
0.0370449
0.03689978
0.03673633
0.03655163
0.03634197
0.03610318
0.03583134
0.03552372
0.0351796
0.03480079
0.0343921
0.03396145
0.03351995
0.03308162
0.03266258
0.03227987
0.03195003
0.03168769
0.0315042
0.03140632
0.03139542
0.03146726
0.03161211
0.03181556
0.03206007
0.03232721
0.03259923
0.03285995
0.03309572
0.03329614
0.03345428
0.03356651
0.03363185
0.03365121
0.03362693
0.03356241
0.03346173
0.0333294
0.03317009
0.03298858
0.03278996
0.03257912
0.03235985
0.03213547
0.03190871
0.03168181
0.03145647
0.03123397
0.03101521
0.03080078
0.03059094
0.03038568
0.03018476
0.02998776
0.02979409
0.02960316
0.02941429
0.02922698
0.02904064
0.02885503
0.02866976
0.02848501
0.02830072
0.0281179
0.02793747
0.02776215
0.02759446
0.02744145
0.02730986
0.02201603
0.02463008
0.02718138
0.03649498
0.04879182
0.06967967
0.08434294
0.09991134
0.116637
0.1336209
0.1512105
0.170513
0.191177
0.2123603
0.2344258
0.2591786
0.2973029
0.3153363
0.3337444
0.3525032
0.3718404
0.3909959
0.4093328
0.4269133
0.4435591
0.4596223
0.4752189
0.4903355
0.5049189
0.5188508
0.5319981
0.5441552
0.5551427
0.5646548
0.5725749
0.5779243
0.5815164
0.5832528
0.5827451
0.5803499
0.576798
0.571816
0.5636535
0.5557235
0.5477936
0.539778
0.5317839
0.5239216
0.5162765
0.5089106
0.5018686
0.4951905
0.4888837
0.4829418
0.477336
0.4720423
0.4670228
0.4622275
0.4576178
0.4531559
0.4487945
0.4443749
0.4396434
0.4347369
0.4297492
0.4247818
0.4199354
0.4152827
0.4108392
0.4065628
0.4023849
0.3982644
0.3942113
0.3902922
0.3865925
0.3831781
0.3800297
0.3770774
0.3741774
0.3712319
0.3682596
0.3653628
0.362674
0.3602881
0.3581944
0.356269
0.3543329
0.3522697
0.3501096
0.3479955
0.3460764
0.3443988
0.3428761
0.3413442
0.3396514
0.337782
0.3358677
0.3340713
0.3324692
0.3309919
0.329468
0.3277137
0.3256178
0.3232129
0.3206607
0.3181429
0.3157335
0.3133888
0.311032
0.3086445
0.3062976
0.3040999
0.3021286
0.3004037
0.2988751
0.297442
0.296009
0.2945247
0.2929752
0.2913481
0.2896039
0.2876867
0.2855476
0.2831652
0.2805815
0.2779005
0.2752237
0.272589
0.2699727
0.2673425
0.2647001
0.2620791
0.259514
0.2570012
0.2545267
0.2521099
0.2498023
0.2476376
0.2455836
0.2435422
0.2413756
0.2390467
0.236481
0.2336741
0.230673
0.2275423
0.2243435
0.221117
0.2178676
0.2145647
0.211164
0.2076453
0.2040344
0.2003936
0.1967955
0.1933075
0.1899839
0.1868666
0.1839902
0.1813865
0.1790792
0.1770982
0.1754814
0.1742605
0.1734669
0.1730907
0.1730153
0.1731446
0.1733804
0.173625
0.17379
0.1738065
0.1736399
0.1733004
0.1728406
0.1722753
0.1716075
0.1708408
0.169977
0.1690164
0.1679585
0.1668021
0.1655435
0.1641749
0.1626826
0.1610501
0.1592632
0.1573155
0.1552101
0.1529581
0.150577
0.1480884
0.1455169
0.1428878
0.1402254
0.1375558
0.1349077
0.1323126
0.1298032
0.1274107
0.1251625
0.1230799
0.1211779
0.1194654
0.1179475
0.1166267
0.1155047
0.1145834
0.1138634
0.1133433
0.1130186
0.1128811
0.1129178
0.113109
0.1134277
0.1138385
0.114299
0.1147647
0.1151928
0.1155402
0.1157638
0.1158264
0.1156995
0.1153639
0.1148114
0.1140458
0.1130825
0.1119481
0.110679
0.1093185
0.1079134
0.1065089
0.1051438
0.103847
0.1026362
0.1015182
0.1004919
0.09955192
0.09869064
0.09789618
0.0971501
0.09642686
0.09569583
0.09492489
0.09408488
0.09315409
0.09212189
0.09099072
0.08977596
0.08850361
0.08720638
0.08591914
0.08467509
0.08350363
0.0824298
0.08147583
0.08066278
0.08001325
0.07955178
0.07930674
0.07930695
0.07961128
0.08027573
0.08131321
0.08272034
0.08447382
0.08652886
0.08881941
0.09126251
0.09376644
0.09623939
0.09859517
0.1007516
0.1026422
0.1042202
0.1054457
0.1062907
0.1067375
0.1067799
0.1064312
0.1057306
0.1047364
0.1035212
0.1021293
0.1005895
0.09891917
0.09711977
0.09518379
0.09311456
0.09092076
0.08862018
0.08623916
0.08380992
0.08136866
0.07895115
0.07658852
0.07430646
0.07212592
0.07006322
0.06813106
0.06634017
0.06469935
0.06321607
0.06189726
0.06074971
0.05978031
0.0589956
0.05840141
0.05800133
0.05781072
0.05786488
0.05817101
0.05873078
0.0595385
0.06057924
0.06182828
0.06325198
0.06480798
0.06644597
0.06810849
0.06973516
0.07126942
0.07266053
0.07387203
0.07489875
0.07575851
0.07647046
0.07705657
0.07755634
0.07803099
0.07854307
0.0790868
0.0796455
0.08018841
0.08067944
0.08108631
0.0813907
0.08157825
0.08163109
0.08153265
0.0812743
0.08085883
0.0803052
0.07964721
0.07890926
0.07809253
0.07718864
0.07619246
0.07510843
0.07394778
0.07272343
0.07144822
0.0701355
0.06880083
0.06746296
0.06614376
0.06486618
0.06365118
0.06251541
0.06147013
0.06052146
0.05967133
0.05891855
0.05825938
0.0576877
0.05719512
0.05677112
0.0564033
0.05607821
0.05578279
0.05550411
0.05523279
0.0549624
0.05468551
0.05439459
0.0540822
0.05374088
0.05336372
0.05294874
0.05249663
0.05201007
0.05149363
0.0509535
0.05039677
0.04983106
0.04926386
0.04870252
0.04815403
0.04762531
0.04712287
0.0466528
0.04621983
0.04582713
0.04547586
0.04516525
0.0448926
0.0446537
0.04444328
0.04425537
0.04408379
0.04392268
0.0437667
0.04361115
0.04345211
0.04328644
0.04311135
0.04292353
0.04271858
0.04249087
0.04223395
0.04194126
0.04160686
0.0412262
0.04079653
0.04031717
0.03978974
0.03921825
0.0386093
0.03797204
0.03731797
0.03666047
0.03601405
0.03539347
0.03481278
0.03428442
0.03381809
0.03342015
0.03309349
0.03283769
0.03264913
0.03252146
0.03244635
0.0324142
0.03241467
0.0324373
0.03247219
0.03251067
0.03254557
0.03257106
0.03258269
0.03257753
0.03255397
0.03251134
0.03244992
0.03237136
0.03227754
0.03217019
0.03205173
0.03192461
0.03179095
0.03165284
0.03151218
0.0313706
0.03122941
0.03108955
0.03095165
0.03081604
0.03068276
0.03055164
0.03042229
0.03029425
0.03016697
0.03004007
0.02991311
0.02978607
0.02965886
0.02953203
0.02940592
0.02928195
0.02916091
0.02904539
0.02893625
0.02883835
0.0287545
0.009496644
0.01104025
0.01224136
0.01822487
0.02512807
0.03424477
0.04173854
0.05022631
0.05943613
0.06924214
0.08000413
0.09269059
0.106601
0.1221421
0.1407405
0.169415
0.1847533
0.200913
0.2173658
0.2340679
0.2509481
0.2678844
0.2847207
0.3013138
0.3174938
0.3332431
0.3486003
0.3652035
0.382048
0.399408
0.4172779
0.4351423
0.4524049
0.4685402
0.4838959
0.4985291
0.512462
0.5256222
0.5378519
0.548935
0.5586825
0.5668034
0.572937
0.5763885
0.5774724
0.5758036
0.5718793
0.5658126
0.5578231
0.5483528
0.5378052
0.5266557
0.5151344
0.5037389
0.4926954
0.4821506
0.4722572
0.463138
0.4548617
0.4474387
0.4408578
0.4350783
0.4300613
0.425746
0.4220687
0.4189609
0.4163851
0.4142512
0.4124539
0.4107822
0.4089776
0.4070985
0.4051205
0.4030971
0.4010821
0.3991518
0.3974064
0.3959097
0.3946423
0.3935078
0.3923873
0.3912104
0.3899944
0.3888401
0.3878759
0.3871824
0.386726
0.3863717
0.3859417
0.3853131
0.3845056
0.3836921
0.3831123
0.3829086
0.3830218
0.3831986
0.383135
0.3826854
0.3819846
0.3813385
0.3810118
0.381031
0.3811509
0.3810601
0.3805378
0.379646
0.3787236
0.3780861
0.3777976
0.3775929
0.3770708
0.3759019
0.3739569
0.3714427
0.3687473
0.3661866
0.3638185
0.3615039
0.3591102
0.3566545
0.3543013
0.3522329
0.3505556
0.349265
0.3482276
0.3472372
0.3461594
0.3449479
0.3436373
0.3422128
0.3405602
0.3385376
0.3360419
0.3330639
0.329768
0.3264081
0.3231461
0.319967
0.3167715
0.3135123
0.3102372
0.3070266
0.3039213
0.3008839
0.2979113
0.2951085
0.2925845
0.2903149
0.2881198
0.2856877
0.2827214
0.2793608
0.2756636
0.2716876
0.2675094
0.2631925
0.2587916
0.2543595
0.2499374
0.2455475
0.2411509
0.2367134
0.2322502
0.2278277
0.223535
0.2194532
0.2156527
0.212182
0.2090801
0.2063861
0.2041355
0.2023658
0.2011103
0.2003951
0.2002534
0.2006112
0.2013025
0.2021674
0.2030576
0.2038331
0.2043716
0.204586
0.2044549
0.2040428
0.2034644
0.2027284
0.2018374
0.2007968
0.1996251
0.1983566
0.1970267
0.1956469
0.1941926
0.1926132
0.1908513
0.1888628
0.1866264
0.1841439
0.1814326
0.1785235
0.175453
0.1722563
0.1689642
0.1656018
0.1621872
0.1587429
0.1553047
0.1519136
0.1486152
0.1454566
0.1424821
0.13973
0.1372297
0.1350011
0.1330561
0.1314003
0.1300352
0.1289591
0.1281676
0.1276527
0.1274019
0.1273978
0.1276166
0.128026
0.1285863
0.1292507
0.1299667
0.130678
0.1313265
0.1318563
0.132221
0.13238
0.1323024
0.1319691
0.1313715
0.130512
0.1294058
0.1280822
0.1265838
0.1249616
0.1232681
0.1215638
0.1199014
0.1183212
0.1168494
0.1154997
0.1142758
0.1131726
0.1121763
0.1112629
0.1104
0.1095498
0.1086728
0.1077328
0.1066996
0.1055533
0.1042862
0.1029041
0.1014268
0.09988584
0.09832077
0.09677518
0.09529254
0.09391352
0.09267479
0.09160944
0.09074834
0.09012212
0.08976242
0.08970211
0.08997296
0.09060191
0.09166093
0.09317109
0.09511637
0.09745648
0.1001225
0.1030128
0.1060102
0.1090118
0.1119199
0.1146508
0.1171312
0.1192956
0.1210833
0.1224392
0.1233234
0.1237127
0.1236064
0.1230457
0.1221172
0.1209285
0.1195609
0.1180435
0.1163859
0.1145835
0.1126263
0.1105037
0.1082147
0.105769
0.103188
0.1005019
0.09774225
0.09495152
0.09218094
0.08946787
0.08683516
0.08430031
0.08187655
0.07957386
0.07740336
0.07537869
0.0735146
0.07182708
0.07033355
0.06905212
0.06800047
0.06719527
0.06665135
0.06637869
0.06640166
0.06674166
0.06739444
0.06834488
0.06956714
0.07102591
0.07267789
0.07447172
0.07634619
0.07823098
0.08005325
0.08174711
0.08325839
0.08455634
0.08565087
0.08657587
0.08735024
0.08799947
0.08858799
0.08921836
0.08993503
0.09073416
0.091568
0.09236417
0.09306414
0.09363115
0.09404385
0.09429152
0.09435994
0.0942338
0.09390833
0.09339235
0.09271609
0.09193458
0.09108485
0.09015812
0.08913156
0.08799062
0.08674573
0.08541603
0.08401845
0.08256651
0.0810728
0.0795529
0.0780259
0.07651822
0.07506333
0.07368907
0.07241409
0.07124729
0.07018987
0.0692384
0.06838767
0.06763183
0.06696388
0.06637511
0.06585477
0.06538981
0.06496583
0.06457015
0.06419371
0.06382972
0.06347081
0.06310911
0.06273774
0.06235032
0.0619402
0.06150152
0.06103079
0.06052736
0.05999326
0.05943273
0.05885152
0.05825608
0.05765287
0.057048
0.05644732
0.05585673
0.05528278
0.05473287
0.05421479
0.05373562
0.05330023
0.05291008
0.05256289
0.05225323
0.05197359
0.05171567
0.05147161
0.05123479
0.05099996
0.05076362
0.05052466
0.05028398
0.05004265
0.04979978
0.04955127
0.04928995
0.04900666
0.04869166
0.04833598
0.04793231
0.04747542
0.04696227
0.04639211
0.04576643
0.04508869
0.04436413
0.04359978
0.04280432
0.04198793
0.04116186
0.04033794
0.03952781
0.03874232
0.03799094
0.0372816
0.03662055
0.03601247
0.03546056
0.03496652
0.0345301
0.03414935
0.03382109
0.03354118
0.03330455
0.0331055
0.03293808
0.03279641
0.03267486
0.03256831
0.03247231
0.03238313
0.03229794
0.03221458
0.03213146
0.03204784
0.03196375
0.03188018
0.03179832
0.03171804
0.03163942
0.03156272
0.03148827
0.03141629
0.03134686
0.03127989
0.03121513
0.03115217
0.0310905
0.03102956
0.03096878
0.03090775
0.03084615
0.03078403
0.03072153
0.03065929
0.03059797
0.03053881
0.03048281
0.03043173
0.03038644
0.03034924
0.03032073
0.0023316
0.009050101
0.01347705
0.01861497
0.02434383
0.03090025
0.03838377
0.04660076
0.05581014
0.06690807
0.08364861
0.09374301
0.1046962
0.1162269
0.1283838
0.1411064
0.1543266
0.1679266
0.1817337
0.1956123
0.2095409
0.2252664
0.2412467
0.2572979
0.2732909
0.2891712
0.304829
0.3202626
0.3354165
0.3501558
0.3646936
0.3792002
0.3940709
0.4090188
0.4240799
0.4391943
0.4539879
0.4680545
0.4815527
0.4945268
0.5069229
0.5186661
0.5296026
0.5394182
0.5476891
0.5541541
0.557708
0.5584193
0.5562308
0.5512925
0.5436229
0.5336068
0.5216979
0.5083442
0.4940636
0.4793588
0.4647196
0.4505514
0.4371901
0.424903
0.4138849
0.4042513
0.3960628
0.3893025
0.3838946
0.3797213
0.3766507
0.3745725
0.3734015
0.3730651
0.3734475
0.3741436
0.3750827
0.3763116
0.3777673
0.3792863
0.380789
0.38226
0.3837527
0.3853279
0.3870656
0.3890721
0.3914016
0.3939553
0.3965146
0.3988824
0.4010012
0.4029853
0.4050735
0.4074921