/*--------------------------------*- C++ -*----------------------------------*\
| =========                 |                                                 |
| \\      /  F ield         | foam-extend: Open Source CFD                    |
|  \\    /   O peration     | Version:     3.1                                |
|   \\  /    A nd           | Web:         http://www.extend-project.de       |
|    \\/     M anipulation  |                                                 |
\*---------------------------------------------------------------------------*/
FoamFile
{
    version     2.0;
    format      ascii;
    class       volScalarField;
    location    "17";
    object      nut;
}
// * * * * * * * * * * * * * * * * * * * * * * * * * * * * * * * * * * * * * //

dimensions      [0 2 -1 0 0 0 0];

internalField   nonuniform List<scalar> 
119952
(
5.115951e-05
3.417096e-05
3.511385e-05
3.905701e-05
4.159516e-05
3.933999e-05
3.784721e-05
3.674501e-05
3.583985e-05
3.502176e-05
3.423826e-05
3.346521e-05
3.269043e-05
3.191523e-05
3.115007e-05
3.041002e-05
2.970383e-05
2.903818e-05
2.837745e-05
2.771716e-05
3.613151e-05
3.412191e-05
3.351553e-05
4.426554e-05
4.268445e-05
4.1902e-05
4.13053e-05
4.112723e-05
4.099521e-05
2.797015e-05
3.183045e-05
3.48674e-05
3.945796e-05
4.403436e-05
4.878866e-05
5.375771e-05
5.899642e-05
6.440899e-05
6.995018e-05
7.953868e-05
0.0003554971
0.000409859
0.0004705869
0.0005346312
0.0005998634
0.0006650076
0.0007294263
0.0007929034
0.000854687
0.001198422
0.001260044
0.001319509
0.001377698
0.001434005
0.001489325
0.001543947
0.00159813
0.001652362
0.001706392
0.001762405
0.001815655
0.001867851
0.001920023
0.001972454
0.00202531
0.002078745
0.002132897
0.00218987
0.002091611
0.002252678
0.002260313
0.00227454
0.00228115
0.002272183
0.002245991
0.002210755
0.002169806
0.00212475
0.002077046
0.002028194
0.001979628
0.001932962
0.001890072
0.001852954
0.001823387
0.001802856
0.001792734
0.001794953
0.00181512
0.001838578
0.001865813
0.00190466
0.001953243
0.001996358
0.002037035
0.002065707
0.002046687
0.001948784
0.00193128
0.001930556
0.001938444
0.001947819
0.001955057
0.001958095
0.001956127
0.001948708
0.001935504
0.00191592
0.001889274
0.001855669
0.001815041
0.001767128
0.001711777
0.001649496
0.001582233
0.001514316
0.001452499
0.001403497
0.001370347
0.001351309
0.001341922
0.001337696
0.001335558
0.001334081
0.001333152
0.001333489
0.001336022
0.001341159
0.001348604
0.001357696
0.001367723
0.001378032
0.001388048
0.001397282
0.001405336
0.00141189
0.001416662
0.001419325
0.001419392
0.001416125
0.001408609
0.001396065
0.001378718
0.001358372
0.001338816
0.001323251
0.001312981
0.001303902
0.001292639
0.001278812
0.001261622
0.001241088
0.001217423
0.00119164
0.001164784
0.001137964
0.001112392
0.001089019
0.001068531
0.001051177
0.001036806
0.001024885
0.001014546
0.001004638
0.0009937375
0.0009801399
0.0009619774
0.0009375583
0.0009062463
0.0008701199
0.0008355477
0.0008116145
0.0008029523
0.000806768
0.0008166116
0.0008270116
0.0008351041
0.0008402269
0.0008437177
0.0008477417
0.0008537979
0.000862183
0.0008724536
0.0008839683
0.0008961091
0.000908191
0.000919623
0.0009300023
0.0009394601
0.0009486369
0.0009575479
0.0009655172
0.0009725224
0.000978583
0.0009838678
0.0009889239
0.0009932863
0.0008677533
0.0008171751
0.0007577713
0.0007210738
0.0006954798
0.0006744277
0.0006553425
0.0006365394
0.000617231
0.0005971188
0.0005763706
0.000554911
0.000532269
0.0005089452
0.0004854899
0.0004593046
0.0004310999
0.0004018093
0.0003724641
0.000344782
0.0003218019
0.0003016445
0.000282737
0.0002811238
0.0002888756
0.0002976732
0.0003034998
0.0003062471
0.000307423
0.0003086692
0.000310981
0.0003143869
0.0003182207
0.0003217042
0.0003253084
0.0003292354
0.0003292901
0.0003348757
0.0003428936
0.000350721
0.0003597033
0.0003690891
0.0003789584
0.0003871624
0.0003938939
0.000400574
0.0004072921
0.00041413
0.0004211586
0.0004284266
0.0004359479
0.000443692
0.0004515779
0.0004594672
0.0004671604
0.0004744058
0.000480923
0.0004864367
0.0004907239
0.0004936615
0.0004952608
0.000495619
0.0004949573
0.0004938042
0.0004923928
0.0004908303
0.0004893775
0.0004883558
0.0004880365
0.0004885474
0.0006083764
0.0006134292
0.0006183971
0.0006228191
0.0006264549
0.000629245
0.000631401
0.00063291
0.0006338843
0.0006345939
0.0006353162
0.0006363063
0.0006376794
0.0006394383
0.0006415433
0.0006439581
0.0006466562
0.0006496191
0.0006528478
0.0006563558
0.0006601617
0.0006643074
0.0006688433
0.0006738041
0.0006792057
0.0006850289
0.0006912092
0.000697605
0.0007040566
0.0007104131
0.0007165268
0.0007222459
0.0007274317
0.0007319509
0.0007356782
0.0007385124
0.0007404198
0.0007414487
0.0007417197
0.0007414133
0.0007407551
0.000739997
0.0007393959
0.0007391851
0.0007395581
0.000740617
0.0007420663
0.0007441609
0.0007469268
0.0007503459
0.0007543738
0.0007589413
0.0007639201
0.0007697041
0.0007763346
0.00078065
0.0007848044
0.0007887931
0.000792613
0.0007961422
0.0007992579
0.000801764
0.0008034074
0.0008039451
0.0008031065
0.0008005805
0.0007960003
0.0007887983
0.0007776513
0.0007623885
0.0007447313
0.0007290238
0.0007181425
0.0007124319
0.0007107648
0.0007111937
0.000711916
0.0007121017
0.0007119567
0.0007122577
0.0007138867
0.0007175829
0.0007238651
0.0007330229
0.0007451218
0.0007599841
0.0007772441
0.0007964061
0.0008168093
0.0008376388
0.0008579924
0.0008769417
0.0008936699
0.0009077473
0.0009195916
0.0009297725
0.0009388966
0.0009475116
0.0009562033
0.0009651831
0.0009744211
0.0009839467
0.0009936786
0.001003423
0.001013006
0.001022296
0.0010312
0.001039655
0.001047626
0.001055106
0.001062101
0.001068632
0.001074728
0.001080418
0.001085736
0.001090709
0.001095363
0.001099717
0.001103787
0.001107582
0.001111109
0.001114372
0.001117376
0.001120122
0.001122619
0.001124875
0.001126905
0.001128731
0.00113038
0.001131892
0.001133314
0.001134719
0.001136194
0.001137905
0.001140099
0.001143345
0.001148497
0.001159073
0.0009170389
4.602434e-05
4.944703e-05
5.605743e-05
6.425661e-05
7.318451e-05
8.229797e-05
9.133786e-05
0.0001001955
0.0001098384
0.0004228492
0.0005409765
0.0006684988
0.00079646
0.0009192664
0.001033578
0.001138943
0.001236016
0.001326058
0.001906115
0.001996356
0.002090812
0.002184728
0.002277465
0.002368898
0.002458091
0.002544787
0.002629019
0.002710123
0.002790003
0.00286742
0.002941197
0.003012925
0.003083172
0.003152295
0.003220727
0.003288803
0.003356274
0.003408068
0.00344391
0.003478995
0.003515267
0.003552817
0.003591683
0.003632618
0.003675836
0.00372091
0.003767566
0.003815267
0.003863529
0.003913952
0.003967088
0.00402267
0.004080037
0.004138079
0.004195641
0.00425118
0.005032962
0.005076235
0.005115496
0.005151196
0.005182386
0.005209492
0.005233237
0.005254409
0.005273958
0.005292434
0.005310481
0.005328512
0.005346519
0.005364449
0.005382652
0.005400901
0.005419338
0.005438332
0.005459864
0.005477002
0.005482985
0.00548529
0.005484651
0.005474736
0.005451751
0.005415429
0.005367544
0.005309053
0.005241045
0.005164741
0.005081421
0.004992655
0.004900542
0.004807994
0.004718459
0.00463565
0.00456313
0.004504092
0.004461146
0.004435753
0.004425761
0.004432415
0.004451866
0.004475858
0.004501404
0.00452867
0.004553807
0.004570545
0.004587752
0.004620091
0.004660534
0.004700509
0.004737166
0.004768233
0.004791741
0.004805774
0.004808581
0.00480176
0.004784988
0.004757552
0.004718747
0.0046678
0.004603994
0.004526959
0.004437124
0.004336319
0.004228155
0.004117415
0.004008484
0.00390402
0.003804875
0.003710943
0.003622048
0.003538429
0.00346086
0.003390568
0.003328944
0.003277177
0.003236017
0.003205755
0.003186298
0.00317724
0.003177938
0.003187584
0.003205265
0.003230014
0.00326084
0.003296712
0.003336514
0.00337898
0.003422705
0.003466193
0.003508047
0.003547307
0.003583636
0.00361701
0.003647147
0.00367324
0.003693349
0.003705188
0.003707067
0.003697822
0.003676244
0.003641468
0.003593522
0.003533329
0.00346284
0.003384887
0.003302934
0.003220735
0.003141872
0.003069332
0.003005175
0.002950329
0.002904485
0.002866144
0.002832826
0.002801394
0.002768463
0.002731229
0.00268903
0.00264439
0.002601225
0.00256178
0.002525641
0.002490931
0.002455947
0.002420222
0.002384983
0.002352787
0.002326552
0.002308679
0.002300592
0.00230273
0.002314709
0.002335636
0.002364297
0.00239946
0.002439894
0.002484507
0.002532387
0.002585389
0.00264547
0.002712581
0.0027868
0.002868184
0.002956687
0.00305277
0.003017188
0.003009186
0.003030435
0.003072145
0.00312667
0.003187432
0.00324883
0.003306096
0.003355208
0.003392721
0.003415531
0.003420656
0.003404785
0.003364195
0.003292015
0.003186159
0.003050114
0.002883737
0.002689361
0.00247452
0.002255098
0.00205417
0.001888297
0.001758042
0.001652358
0.001561662
0.001481287
0.001410848
0.00135184
0.001305918
0.001274011
0.001256068
0.001251214
0.001258114
0.001275275
0.001301668
0.00133651
0.001376592
0.001418361
0.00146263
0.00151009
0.001560459
0.00161355
0.00166928
0.0017277
0.001788969
0.001853315
0.001920966
0.001992065
0.002066583
0.002144228
0.002224361
0.002305924
0.002387388
0.002466749
0.002541613
0.002609356
0.002667364
0.002713356
0.002745831
0.002764351
0.002769357
0.002761822
0.002743154
0.002715276
0.002680827
0.002643144
0.002605743
0.002571536
0.002542095
0.003004911
0.002997559
0.002989524
0.002978473
0.002962538
0.002940134
0.002910242
0.002872838
0.002829027
0.002780828
0.00272962
0.00267646
0.002622691
0.002569223
0.002516734
0.002465836
0.002417161
0.002371346
0.002329055
0.002290936
0.002257561
0.002229369
0.002206606
0.002189277
0.002177101
0.002169472
0.002165901
0.002166458
0.00217104
0.002179399
0.002191247
0.002206051
0.00222231
0.00223847
0.002253054
0.002264714
0.00227232
0.002275027
0.002272328
0.00226407
0.002250471
0.002232102
0.002209871
0.002184982
0.002158635
0.002131035
0.002103156
0.002076499
0.002052111
0.002030784
0.002012808
0.001998288
0.001986998
0.001979269
0.001975095
0.001973979
0.001976079
0.001981611
0.00199062
0.002002966
0.002018289
0.002035791
0.002054594
0.002073719
0.002092073
0.002108627
0.002121637
0.002128506
0.002127702
0.002118687
0.002102059
0.002079042
0.002050703
0.002017667
0.001979974
0.001937264
0.001889315
0.001836573
0.001780383
0.001722909
0.001666839
0.001614985
0.001569886
0.001533498
0.001507013
0.00149076
0.001484188
0.001476489
0.001457155
0.001453257
0.001463237
0.001485234
0.001517297
0.001557545
0.001604146
0.001654782
0.001706877
0.001747777
0.001780865
0.001813521
0.001845582
0.001876747
0.001907148
0.001937101
0.001966995
0.001997018
0.002026894
0.002056389
0.002085326
0.002113579
0.002141068
0.002167747
0.002193603
0.002218639
0.002242876
0.002266341
0.002289067
0.002311082
0.002332414
0.002353081
0.002373102
0.002392483
0.002411235
0.002429357
0.002446865
0.002463756
0.002480063
0.002495791
0.002511005
0.002525714
0.002540037
0.00255398
0.002567746
0.002581287
0.002594891
0.002608497
0.002623703
0.002642703
0.002664852
3.376588e-05
4.176843e-05
5.401633e-05
6.881881e-05
8.681015e-05
0.0001089467
0.0001370409
0.0001738571
0.0002242997
0.0003179747
0.001162745
0.001351527
0.001539872
0.001689425
0.001824926
0.001964964
0.002107394
0.002250137
0.002407496
0.004487761
0.004729576
0.004856869
0.004954746
0.005038315
0.005112116
0.0051806
0.005244656
0.005301371
0.005355592
0.005440514
0.00555516
0.005671326
0.005773934
0.005858603
0.005926569
0.005980916
0.006024755
0.006065865
0.005992735
0.005971552
0.005978492
0.006001235
0.006032088
0.006066272
0.006100844
0.006133939
0.00616431
0.006191634
0.006215462
0.006237478
0.006259535
0.006282553
0.006306695
0.006331612
0.006356595
0.006379954
0.007200047
0.007225695
0.007247964
0.007269589
0.007291216
0.007312319
0.007332285
0.007350744
0.007368463
0.007386399
0.007404861
0.007424555
0.007445142
0.007465167
0.007483618
0.007500408
0.007516228
0.007532111
0.007548708
0.007564782
0.007578923
0.007590634
0.007599047
0.00760433
0.007607668
0.007610747
0.007614719
0.007619705
0.007625485
0.007632343
0.00764073
0.007651361
0.007665029
0.007681882
0.007701301
0.007722076
0.007742858
0.00776393
0.007767673
0.007770363
0.007771248
0.007769568
0.007764834
0.007756926
0.007746127
0.007733159
0.007719108
0.007704914
0.007691139
0.007677712
0.007664505
0.00765162
0.007639445
0.007628139
0.007617806
0.007608236
0.007599546
0.007590133
0.007577686
0.007562332
0.00754386
0.007520067
0.007485145
0.007436237
0.007375236
0.00730375
0.007223075
0.007134311
0.007038347
0.006936179
0.006829267
0.006720068
0.0066118
0.006508294
0.006413341
0.006330376
0.006262412
0.006211284
0.006176769
0.006159596
0.006158668
0.00616821
0.006185085
0.006207449
0.006233927
0.006262128
0.006295232
0.006339694
0.006387456
0.006435447
0.006480823
0.006521025
0.006553995
0.006578131
0.006592017
0.006594743
0.006587
0.00656866
0.006539451
0.006498928
0.006446604
0.006382174
0.006305779
0.006218274
0.006121323
0.006017064
0.005907462
0.005793871
0.005677114
0.005557862
0.005437
0.005315813
0.005195993
0.005079541
0.004968565
0.004865082
0.004770926
0.004687742
0.004616969
0.004559786
0.004517035
0.004489152
0.00447615
0.004477644
0.004492916
0.004520971
0.004560575
0.004610291
0.004668544
0.004733627
0.004803778
0.004877348
0.004952886
0.005028956
0.005103907
0.005175659
0.005241512
0.005298423
0.005343485
0.005374058
0.005387593
0.005381629
0.005354607
0.005305989
0.005236443
0.005148038
0.00504419
0.004929432
0.004809005
0.004688343
0.004572492
0.004465561
0.004370293
0.004287907
0.004218134
0.004159467
0.004109474
0.004065473
0.004025473
0.003988787
0.003955179
0.003923592
0.003891668
0.003856321
0.003814761
0.003765473
0.00370889
0.003647509
0.003585134
0.00352626
0.00347503
0.003434759
0.003407668
0.003394884
0.003396643
0.003412544
0.003441877
0.003483644
0.003536853
0.003599809
0.003673885
0.00376271
0.00386712
0.003987086
0.004123013
0.004273209
0.004427471
0.004597072
0.004778523
0.004967373
0.005158637
0.005347079
0.00552755
0.005695197
0.005845609
0.005974894
0.006079736
0.006157292
0.006204841
0.006219318
0.006196942
0.006132774
0.006026707
0.005882149
0.005701145
0.005489585
0.005257571
0.005016826
0.004775969
0.004538404
0.004305053
0.004076428
0.003854526
0.003642719
0.003444979
0.003265094
0.00310612
0.002970063
0.002857806
0.002769274
0.002703603
0.002659402
0.002634597
0.00262665
0.002633168
0.002651812
0.002679792
0.002716731
0.002765198
0.00282657
0.002901053
0.002989017
0.003090878
0.003206915
0.00333708
0.003480844
0.003637047
0.003803779
0.003978295
0.00415703
0.004335734
0.004509712
0.004674141
0.004824428
0.004956834
0.005069171
0.005160758
0.005231769
0.005282923
0.005315792
0.005333328
0.00533986
0.00534042
0.005339468
0.005338178
0.005338428
0.005323128
0.005308785
0.005293832
0.00527514
0.005249796
0.005215135
0.005169276
0.005111619
0.005042987
0.004965045
0.004879527
0.004788755
0.004694365
0.004597456
0.004498894
0.004399558
0.004300466
0.004202821
0.004108026
0.004017668
0.003933423
0.003856928
0.003789612
0.003732573
0.003686501
0.003651641
0.003627799
0.003614328
0.00361012
0.003613571
0.003622503
0.003634768
0.003649827
0.003667118
0.003685187
0.003701787
0.003714872
0.003722668
0.003723744
0.00371706
0.003702006
0.003678406
0.003646512
0.003606884
0.003559869
0.003507301
0.003451274
0.00339424
0.003338293
0.003285449
0.003237031
0.003194311
0.00315795
0.00312879
0.003106014
0.003089886
0.003080568
0.003077817
0.003081062
0.003089592
0.003102713
0.00312014
0.003141464
0.003165934
0.003192317
0.003218544
0.003242534
0.003262384
0.003276264
0.003282874
0.003281516
0.003271759
0.003253112
0.003224831
0.003185849
0.003134934
0.003071099
0.00299405
0.00290453
0.00280448
0.002696985
0.002586022
0.002476062
0.002371563
0.00227647
0.002193791
0.002125374
0.002071934
0.002033162
0.002008022
0.001995022
0.001992418
0.001998427
0.002011403
0.002029936
0.002052887
0.002079367
0.002108706
0.00214038
0.002173973
0.002209134
0.002245562
0.002282941
0.002320876
0.002358816
0.002396435
0.002434059
0.002472127
0.002510643
0.002549364
0.002588099
0.002626703
0.002665068
0.002703121
0.002740814
0.002778113
0.002814999
0.002851461
0.002887488
0.002923069
0.00295819
0.002992834
0.003026979
0.003060605
0.003093689
0.003126217
0.003158179
0.003189583
0.003220438
0.003250782
0.00328065
0.003310118
0.003339235
0.003368144
0.003396941
0.003426027
0.00345585
0.003487321
0.003519207
4.094495e-05
6.712613e-05
0.0001483654
0.0005085083
0.00088206
0.001605606
0.002158809
0.002833729
0.003604485
0.004243463
0.004716153
0.005097709
0.005468687
0.005828075
0.006196015
0.006549005
0.00687036
0.007173832
0.007465675
0.007746079
0.008021347
0.008281111
0.008473668
0.008602432
0.008697858
0.008767886
0.008815131
0.008848985
0.008874024
0.008649405
0.00875634
0.007924467
0.007811372
0.007727482
0.007669763
0.007647161
0.007658138
0.00770012
0.00777241
0.007868452
0.007978888
0.008117265
0.008274259
0.00845446
0.008647086
0.008851331
0.009067538
0.0092984
0.009544205
0.009686129
0.009719769
0.009746174
0.009765671
0.009779431
0.00978886
0.009795264
0.009799556
0.009802181
0.009803071
0.009802145
0.009799924
0.009797143
0.009794679
0.009793251
0.009793177
0.009793914
0.009794975
0.009796818
0.00977778
0.009762263
0.009750905
0.009744179
0.009741677
0.009741967
0.009743147
0.009743673
0.009743293
0.009742869
0.009743749
0.009746901
0.009751828
0.009756836
0.009760187
0.00976103
0.009759985
0.009758615
0.009758178
0.009758576
0.00975851
0.009756091
0.009749717
0.009738962
0.009725009
0.009710109
0.009696118
0.009683499
0.009671747
0.009660355
0.009649435
0.009639875
0.009632741
0.009628418
0.009626547
0.009625944
0.009625251
0.009623099
0.009618255
0.009610525
0.009599631
0.009585305
0.009567276
0.009545299
0.009519457
0.009490452
0.009459561
0.009428033
0.009396511
0.009364949
0.009333166
0.009301271
0.009269703
0.009238898
0.009208907
0.009179499
0.009150801
0.009122929
0.00909554
0.009068124
0.009039842
0.00900845
0.008968256
0.008917128
0.008855648
0.008785158
0.008706985
0.008622134
0.008531197
0.008434537
0.008332697
0.008227028
0.008119891
0.008014552
0.007914604
0.00782344
0.007744021
0.007678459
0.007627902
0.007592891
0.007573139
0.007566794
0.007572135
0.007587626
0.007611494
0.007643454
0.007684007
0.007729766
0.007777401
0.007825011
0.007870335
0.007911164
0.007945674
0.007972593
0.007991133
0.008000746
0.008001519
0.00799364
0.00797715
0.007951896
0.007917633
0.007874185
0.007821561
0.00775998
0.007689765
0.007611187
0.007524335
0.007429184
0.007325827
0.00721465
0.00709644
0.006972434
0.006844256
0.00671378
0.006582969
0.006453833
0.006328473
0.00620915
0.006098309
0.005998502
0.005912224
0.005841675
0.005788556
0.005753933
0.005738207
0.005741137
0.005761931
0.005799366
0.005851921
0.005917827
0.005995131
0.006081796
0.00617576
0.006274865
0.00637671
0.006478541
0.006577145
0.006668969
0.006750527
0.006818531
0.006869634
0.006900458
0.006908229
0.006891043
0.006848074
0.006779702
0.006687823
0.006575702
0.006447933
0.006310127
0.006168432
0.006028955
0.005897189
0.005777089
0.005671534
0.005581628
0.005507102
0.005446691
0.005398689
0.00536127
0.005332238
0.005308542
0.005286154
0.005260493
0.005227158
0.005182775
0.005125736
0.005056632
0.004978189
0.004894774
0.004811656
0.004734207
0.004667245
0.004614604
0.004579008
0.004562126
0.004564827
0.004587325
0.004629483
0.004690643
0.004769785
0.00486794
0.00498991
0.005135893
0.005305603
0.005497471
0.005708458
0.005934947
0.00617243
0.006415204
0.006657241
0.006892434
0.007114971
0.007319865
0.00750278
0.00766037
0.007790042
0.007889821
0.007958012
0.007992857
0.00799245
0.007954714
0.00787707
0.007762512
0.007613527
0.007434251
0.007230663
0.007008871
0.006773924
0.006529058
0.006276511
0.006018489
0.005758206
0.005499579
0.005247161
0.005005616
0.004779333
0.00457161
0.004385226
0.004221844
0.004082303
0.003966783
0.003874735
0.003805096
0.003756842
0.003728984
0.003720582
0.00373034
0.003755887
0.003798594
0.00386234
0.003947998
0.004056052
0.004186713
0.004339516
0.004513456
0.004706343
0.004915143
0.005135787
0.005363274
0.005591907
0.005815682
0.006028706
0.006225549
0.006402008
0.006556053
0.006687534
0.006797033
0.006885498
0.006954911
0.00700898
0.007052917
0.007091777
0.007125723
0.007156421
0.007185143
0.007209606
0.007228344
0.007240284
0.007242925
0.007233705
0.007210483
0.007171911
0.007117932
0.007049954
0.00697004
0.006880203
0.006782195
0.006677156
0.006565934
0.006449362
0.006328411
0.006204251
0.006078312
0.005952341
0.005828426
0.005708946
0.005596421
0.005493306
0.005401754
0.005323423
0.005259346
0.005209868
0.00517465
0.00515274
0.005142653
0.005142475
0.005149996
0.005162724
0.005177698
0.005192881
0.005207264
0.00521919
0.005226517
0.005227419
0.005220413
0.005204399
0.005178677
0.005142883
0.005096388
0.005040043
0.004975576
0.004905067
0.004830919
0.004755572
0.004681428
0.004610582
0.004544882
0.00448573
0.004434224
0.004391038
0.004356665
0.004331327
0.00431496
0.004307253
0.004307713
0.00431568
0.00433032
0.004350604
0.004375268
0.004402833
0.004431702
0.004460205
0.0044866
0.004509181
0.004526486
0.004537317
0.004540561
0.004534965
0.004519011
0.004490886
0.004448592
0.004390214
0.00431426
0.004219995
0.004107728
0.003978996
0.003836613
0.003684606
0.00352791
0.003371881
0.003221693
0.003081786
0.002955512
0.002845007
0.002751244
0.002674203
0.002613132
0.002566816
0.002533791
0.002512527
0.002501544
0.002499473
0.002505077
0.002517268
0.002535112
0.002557805
0.002584644
0.002614995
0.002648259
0.002683868
0.002721277
0.002759929
0.00279919
0.002839069
0.002880064
0.002922431
0.00296593
0.003010355
0.003055539
0.003101345
0.003147665
0.003194405
0.003241484
0.003288828
0.003336366
0.003384026
0.003431737
0.003479422
0.003527007
0.003574422
0.003621605
0.003668503
0.003715085
0.00376133
0.003807253
0.00385287
0.003898251
0.003943462
0.003988646
0.004033951
0.004079641
0.004125964
0.004173348
0.004220185
2.28003e-05
3.705823e-05
5.623135e-05
0.0002453472
0.0004035597
0.000691552
0.0009756685
0.001237243
0.001566286
0.001887524
0.002235429
0.002685973
0.003219844
0.003824233
0.004501969
0.005362989
0.006999653
0.007655284
0.008283484
0.008843158
0.009326621
0.009731486
0.01
0.01
0.01
0.01
0.01
0.01
0.01
0.01
0.01
0.01
0.01
0.01
0.009946739
0.009453238
0.008955044
0.008491048
0.008071783
0.007718672
0.007355619
0.007070409
0.007008351
0.006864482
0.006760189
0.006707619
0.006690428
0.006707652
0.006758541
0.006841389
0.006954994
0.007093709
0.007260639
0.007452507
0.007674225
0.007918902
0.0081938
0.008505042
0.008846371
0.009216106
0.009608505
0.01
0.01
0.01
0.01
0.01
0.01
0.01
0.01
0.01
0.01
0.01
0.01
0.01
0.01
0.01
0.01
0.01
0.01
0.01
0.01
0.01
0.01
0.01
0.01
0.01
0.01
0.01
0.01
0.01
0.01
0.01
0.01
0.01
0.01
0.01
0.01
0.01
0.01
0.01
0.01
0.01
0.01
0.01
0.01
0.01
0.01
0.01
0.01
0.01
0.01
0.01
0.01
0.01
0.01
0.01
0.01
0.01
0.01
0.01
0.01
0.01
0.01
0.01
0.01
0.01
0.01
0.01
0.01
0.01
0.01
0.01
0.01
0.01
0.01
0.01
0.00996369
0.009926415
0.009891965
0.009860063
0.009827871
0.009789909
0.009744824
0.009692709
0.009634515
0.009571395
0.00950434
0.009433908
0.009360075
0.009282446
0.009200917
0.009116333
0.009030736
0.008946974
0.008868076
0.008796844
0.008735544
0.0086858
0.008648597
0.008624403
0.008612904
0.008613508
0.008625607
0.008648189
0.008680351
0.008720105
0.008763705
0.008808932
0.00885367
0.008895935
0.008934005
0.008966585
0.008992972
0.009013057
0.00902693
0.009034569
0.009036275
0.009032219
0.009022442
0.009006917
0.008985618
0.008958463
0.008925183
0.008885191
0.008837584
0.008781296
0.008715385
0.008639294
0.008552925
0.008456671
0.008351384
0.00823825
0.008118677
0.007994112
0.007866042
0.007736173
0.007606612
0.007479952
0.007359267
0.007247953
0.007149447
0.007066901
0.007002876
0.006959146
0.006936611
0.006935334
0.006954668
0.006993409
0.007049907
0.007122174
0.007207987
0.007304954
0.007410498
0.007521795
0.007635738
0.007748916
0.007857694
0.007958478
0.00804791
0.008122631
0.008179227
0.008214689
0.008226629
0.008213383
0.008174291
0.008109659
0.008021167
0.007911727
0.007785579
0.007648202
0.00750547
0.007363802
0.007228967
0.007105739
0.006997517
0.006906155
0.00683211
0.006774709
0.006732294
0.006702172
0.006680542
0.006662632
0.006643124
0.006616765
0.006579082
0.006527067
0.006459697
0.006378157
0.006285712
0.006187252
0.006088614
0.005995845
0.005914564
0.005849541
0.005804508
0.005782193
0.005784426
0.005812352
0.005866467
0.005946718
0.006052036
0.006184674
0.006347974
0.00654072
0.006760258
0.007002334
0.007261216
0.007529887
0.007800737
0.008066254
0.008319665
0.00855523
0.008767974
0.008954473
0.009112969
0.009242072
0.009340864
0.00940869
0.009444963
0.009449407
0.009422291
0.009363969
0.009275975
0.009160474
0.009019719
0.008856298
0.008672412
0.008469801
0.008250821
0.008017588
0.00777248
0.007518245
0.007258259
0.006996546
0.006737488
0.006485397
0.006244239
0.006017433
0.005807755
0.005617322
0.005447709
0.005300047
0.005175135
0.005073616
0.004996121
0.004943226
0.004915318
0.004912413
0.00493366
0.004979638
0.005054828
0.005159916
0.005294763
0.005458234
0.005648051
0.005860774
0.00609212
0.006336633
0.006588149
0.006839854
0.007084865
0.007316925
0.007530527
0.007721679
0.007889385
0.008034834
0.008159277
0.008264059
0.008351745
0.008427085
0.008495845
0.008558446
0.008616864
0.008671981
0.008723139
0.008768497
0.008806197
0.008834156
0.008850353
0.008852533
0.008839027
0.008809011
0.008762918
0.008702754
0.008630643
0.008548154
0.008456249
0.00835537
0.008246034
0.008129016
0.008005276
0.007875938
0.007742344
0.007606176
0.007469565
0.007335144
0.007205904
0.007084882
0.00697483
0.006877935
0.006795664
0.006728709
0.006677024
0.006639902
0.006616068
0.006603772
0.006600883
0.006604966
0.006613377
0.00662347
0.00663257
0.006638736
0.006640677
0.006636989
0.006626282
0.006607247
0.006578679
0.006539599
0.006490099
0.006430899
0.006363215
0.006288704
0.006209395
0.006127513
0.006045346
0.005965071
0.005888674
0.00581786
0.005754079
0.005698487
0.005651984
0.00561516
0.005588345
0.005571557
0.005564484
0.005566466
0.005576523
0.005593406
0.005615648
0.005641656
0.005669811
0.005698508
0.005726189
0.005751416
0.005772937
0.005789621
0.005800283
0.005803515
0.005797597
0.005780501
0.005749983
0.005703769
0.005639777
0.005556358
0.005452543
0.005328276
0.005184611
0.005023824
0.004849373
0.004665691
0.0044778
0.004290826
0.004109548
0.003938048
0.003779474
0.003635915
0.003508505
0.003397623
0.003303082
0.003224299
0.00316042
0.003110418
0.003073177
0.003047564
0.003032456
0.003026773
0.003029487
0.003039621
0.003056243
0.00307847
0.003105478
0.003136495
0.003170783
0.003207629
0.003246234
0.003286261
0.00332827
0.003372695
0.003419267
0.003467749
0.003517938
0.003569656
0.003622744
0.003677051
0.003732428
0.00378873
0.003845809
0.003903516
0.003961707
0.004020243
0.004079002
0.004137876
0.004196789
0.004255685
0.004314555
0.004373405
0.004432301
0.00449131
0.004550577
0.004610225
0.004670466
0.004731442
0.004793325
0.004853585
2.079866e-05
3.205277e-05
6.39044e-05
0.0001941132
0.0003124823
0.0004983602
0.0006397211
0.0008001808
0.0009899785
0.00117507
0.001392033
0.001672633
0.001992767
0.002373754
0.002868574
0.003823648
0.004274655
0.004759465
0.005269113
0.005802009
0.00636308
0.00694263
0.007523783
0.008090878
0.008626791
0.009124071
0.009596149
0.01
0.01
0.01
0.01
0.01
0.01
0.01
0.01
0.01
0.01
0.01
0.01
0.01
0.01
0.01
0.009864336
0.009371912
0.008863012
0.008365924
0.007890782
0.007471733
0.007112507
0.006802188
0.006547932
0.006333121
0.006169397
0.006035165
0.005957437
0.00594165
0.005974707
0.006050379
0.006163509
0.006316629
0.006504795
0.006731392
0.006993434
0.007300407
0.007663411
0.008080571
0.008546155
0.009055741
0.009603189
0.01
0.01
0.01
0.01
0.01
0.01
0.01
0.01
0.01
0.01
0.01
0.01
0.01
0.01
0.01
0.01
0.01
0.01
0.01
0.01
0.01
0.01
0.01
0.01
0.01
0.01
0.01
0.01
0.01
0.01
0.01
0.01
0.01
0.01
0.01
0.01
0.01
0.01
0.01
0.01
0.01
0.01
0.01
0.01
0.01
0.01
0.01
0.01
0.01
0.01
0.01
0.01
0.01
0.01
0.01
0.01
0.01
0.01
0.01
0.01
0.01
0.01
0.01
0.01
0.01
0.01
0.01
0.01
0.01
0.01
0.01
0.01
0.01
0.01
0.01
0.01
0.01
0.01
0.01
0.01
0.01
0.009973534
0.009945073
0.009915703
0.009885076
0.009853202
0.009820428
0.009787565
0.009755486
0.009723808
0.009690041
0.009652853
0.00961144
0.009566198
0.009518836
0.009471859
0.009428078
0.00938968
0.009358515
0.009335958
0.009322969
0.009320014
0.009327173
0.009344321
0.009370754
0.009405675
0.009446248
0.009489672
0.009533367
0.009575275
0.009613701
0.009647328
0.00967544
0.009698182
0.009716478
0.009731291
0.009742963
0.009752024
0.009758856
0.009763751
0.009766956
0.009768571
0.009768209
0.009764731
0.009756353
0.009741078
0.009717101
0.009683046
0.009638063
0.009581722
0.009514185
0.009436095
0.009348342
0.009251901
0.009147706
0.009036532
0.008919476
0.008798405
0.00867575
0.008554571
0.008438476
0.008331377
0.00823714
0.008159209
0.008100297
0.0080622
0.00804577
0.008050969
0.008076999
0.008122446
0.008185413
0.008263653
0.008354653
0.00845567
0.008563737
0.008675716
0.008788369
0.008898428
0.009002643
0.009097766
0.009180691
0.009248729
0.009299306
0.009330177
0.009339582
0.009326297
0.00928983
0.009230447
0.009149646
0.009050126
0.00893576
0.008811244
0.008682505
0.008555556
0.008435861
0.008327839
0.008234571
0.008157706
0.008097479
0.008052726
0.008020896
0.007998166
0.007979744
0.007960337
0.007934714
0.007898297
0.007847729
0.007781324
0.007699375
0.007604228
0.007500039
0.007392295
0.007287195
0.007191017
0.007109593
0.007047963
0.007010228
0.006999542
0.007018205
0.007067727
0.007148842
0.007261315
0.007403527
0.007578521
0.007785405
0.008020021
0.008276445
0.008547076
0.008822756
0.009094417
0.009355198
0.009599422
0.009822947
0.01
0.01
0.01
0.01000003
0.01000015
0.01000075
0.01000169
0.01000143
0.01000055
0.01000008
0.01
0.01
0.01
0.01
0.01
0.009830801
0.00964439
0.009442384
0.009226384
0.008998243
0.008759774
0.008513892
0.008264918
0.00801693
0.007773488
0.007537861
0.007313018
0.007101539
0.006905763
0.006727922
0.006570113
0.006434394
0.006322846
0.006237501
0.006180208
0.006152494
0.006155351
0.006188708
0.006254288
0.006354373
0.006488184
0.006653584
0.006847098
0.007064148
0.00729931
0.00754654
0.007799106
0.008049755