/*--------------------------------*- C++ -*----------------------------------*\
| =========                 |                                                 |
| \\      /  F ield         | foam-extend: Open Source CFD                    |
|  \\    /   O peration     | Version:     3.1                                |
|   \\  /    A nd           | Web:         http://www.extend-project.de       |
|    \\/     M anipulation  |                                                 |
\*---------------------------------------------------------------------------*/
FoamFile
{
    version     2.0;
    format      ascii;
    class       volScalarField;
    location    "17";
    object      p;
}
// * * * * * * * * * * * * * * * * * * * * * * * * * * * * * * * * * * * * * //

dimensions      [1 -1 -2 0 0 0 0];

internalField   nonuniform List<scalar> 
119952
(
5621.598
4416.411
4243.214
4422.382
4607.572
4461.887
4421.104
4397.314
4389.064
4389.563
4397.532
4412.693
4433.738
4459.747
4489.537
4522.095
4556.239
4589.803
4614.464
4602.717
4855.121
4777.371
4777.033
5090.39
5099.792
5169.845
5222.959
5326.69
5610.279
7017.228
2800.19
2789.027
2822.015
2856.246
2890.887
2927.231
2965.296
3006.138
3048.759
3063.252
3086.924
3142.685
3178.56
3216.552
3252.603
3288.253
3322.606
3354.814
3385.748
3414.21
3431.317
3437.842
3461.792
3485.823
3512.681
3541
3571.353
3603.006
3638.755
3663.63
3698.684
3739.012
3777.989
3816.158
3854.185
3891.945
3935.84
4022.112
4175.127
4079.836
4047.87
4126.811
4165.59
4153.355
4124.696
4110.654
4107.173
4111.103
4122.564
4140.904
4165.155
4194.158
4226.908
4262.339
4299.328
4336.901
4375.378
4418.594
4477.237
4538.876
4582.579
4686.192
4819.607
4872.688
4914.985
4955.158
4934.754
4770.768
4749.16
4807.448
4838.021
4862.647
4887.163
4908.185
4927.146
4945.191
4963.073
4981.237
4999.8
5018.755
5038.149
5057.778
5077.211
5095.814
5112.827
5127.546
5139.83
5150.583
5161.414
5173.483
5186.849
5200.954
5215.329
5229.853
5244.674
5260.07
5276.426
5294.126
5313.362
5334.143
5356.379
5379.935
5404.646
5430.318
5456.752
5483.743
5511.093
5538.612
5566.11
5593.396
5620.26
5646.419
5671.903
5696.024
5719.359
5742.351
5767.031
5794.057
5819.913
5840.725
5860.952
5880.915
5900.646
5919.84
5938.862
5957.569
5976.154
5994.655
6013.168
6031.72
6050.336
6068.99
6087.657
6106.3
6124.784
6142.973
6160.662
6177.536
6193.111
6206.779
6217.941
6227.177
6236.771
6248.029
6260.585
6273.351
6285.464
6296.344
6305.652
6313.665
6320.719
6327.124
6333.074
6338.696
6344.113
6349.379
6354.479
6359.442
6364.146
6368.564
6372.638
6376.304
6379.46
6382.058
6383.902
6385.104
6387.446
6424.346
6420.906
6419.155
6416.731
6413.994
6409.815
6404.94
6399.417
6393.384
6387.033
6380.528
6374.195
6368.216
6362.878
6358.624
6356.445
6355.301
6355.418
6356.554
6357.878
6357.671
6353.493
6347.664
6346.994
6352.183
6359.676
6367.012
6373.348
6378.653
6383.17
6387.15
6390.615
6393.265
6394.413
6392.593
6388.647
6408.997
6424.233
6436.478
6447.316
6456.629
6464.967
6472.343
6478.83
6484.498
6489.437
6493.7
6497.354
6500.467
6503.103
6505.32
6507.17
6508.693
6509.918
6510.863
6511.543
6511.971
6512.172
6512.194
6512.113
6512.026
6512.025
6512.204
6512.322
6512.663
6513.28
6514.12
6515.122
6516.12
6517.13
6520.348
6504.987
6486.019
6486.862
6486.182
6482.871
6480.738
6478.872
6477
6475.365
6474.094
6473.245
6472.879
6472.993
6473.574
6474.593
6476.015
6477.834
6480.066
6482.682
6485.651
6488.952
6492.578
6496.499
6500.729
6505.196
6509.922
6514.788
6519.748
6524.746
6529.734
6534.687
6539.564
6544.335
6548.98
6553.459
6557.771
6561.905
6565.858
6569.636
6573.25
6576.725
6580.115
6583.501
6586.864
6589.519
6590.234
6590.284
6590.555
6591.006
6591.561
6592.215
6592.825
6590.338
6582.905
6587.518
6591.071
6590.916
6591.336
6591.89
6592.251
6592.61
6593
6593.4
6593.809
6594.198
6594.531
6594.738
6594.822
6594.665
6594.232
6593.819
6593.859
6594.183
6594.631
6595.143
6595.642
6596.013
6596.152
6595.998
6595.508
6594.653
6593.409
6591.769
6589.754
6587.445
6584.879
6582.211
6579.568
6577.049
6574.76
6572.684
6570.766
6568.903
6567.075
6565.187
6563.28
6561.367
6559.446
6557.526
6555.629
6553.748
6551.886
6550.09
6548.35
6546.654
6544.993
6543.352
6541.714
6540.058
6538.367
6536.621
6534.807
6532.911
6530.923
6528.833
6526.636
6524.324
6521.893
6519.338
6516.655
6513.837
6510.88
6507.774
6504.511
6501.078
6497.457
6493.624
6489.548
6485.179
6480.455
6475.26
6469.443
6462.701
6454.582
6444.604
6435.093
6441.625
6495.192
3890.371
3764.335
3627.329
3497.163
3378.71
3270.292
3171.74
3083.99
3008.465
2884.056
2831.238
2772.09
2715.874
2667.3
2624.11
2587.775
2557.142
2526.617
2472.575
2471.698
2440.507
2416.597
2402.788
2393.008
2386.86
2383.709
2382.194
2383.709
2391.753
2383.151
2390.528
2402.303
2414.446
2428.838
2445.405
2463.604
2485.456
2519.137
2525.059
2545.96
2579.607
2613.313
2647.519
2683.263
2720.423
2758.233
2794.495
2831.933
2874.92
2915.668
2953.064
2988.821
3023.288
3056.119
3087.632
3121.635
3082.648
3110.959
3138.875
3161.787
3184.998
3209.715
3237.07
3266.437
3297.99
3332.124
3369.33
3407.533
3445.324
3483.414
3522.656
3563.566
3607.272
3654.601
3702.496
3742.861
3759.698
3760.274
3769.305
3780.674
3783.774
3778.083
3771.882
3772.381
3781.494
3798.569
3822.445
3852.127
3886.678
3925.201
3966.806
4010.719
4056.736
4105.232
4157.311
4213.778
4274.754
4340.435
4410.7
4479.562
4534.409
4566.855
4579.294
4568.181
4536.031
4516.191
4524.047
4545.887
4569.271
4589.487
4606.775
4622.89
4639.194
4656.237
4674.027
4692.505
4711.679
4731.49
4751.639
4771.611
4790.748
4808.401
4824.141
4837.973
4850.418
4862.281
4874.248
4886.616
4899.406
4912.638
4926.438
4941.036
4956.712
4973.724
4992.286
5012.482
5034.262
5057.483
5081.951
5107.44
5133.719
5160.564
5187.765
5215.13
5242.488
5269.668
5296.513
5322.868
5348.59
5373.592
5397.858
5421.706
5445.396
5469.085
5492.614
5515.486
5537.071
5557.612
5577.395
5596.642
5615.573
5634.414
5653.208
5672.013
5690.926
5709.981
5729.177
5748.476
5767.796
5787.015
5805.987
5824.565
5842.55
5859.716
5875.852
5890.665
5903.945
5915.876
5926.863
5937.754
5949.197
5961.122
5973.029
5984.382
5994.844
6004.212
6012.514
6019.925
6026.607
6032.704
6038.317
6043.546
6048.439
6053.059
6057.39
6061.403
6065.169
6068.608
6071.516
6073.926
6076.103
6077.379
6078.043
6078.957
6143.905
6139.299
6137.599
6134.995
6131.217
6126.653
6121.35
6115.472
6109.207
6102.736
6096.274
6090.106
6084.519
6079.838
6076.183
6073.994
6072.811
6072.903
6073.771
6074.827
6075.4
6075.033
6073.958
6076.356
6080.922
6087.264
6093.935
6100.26
6106.006
6111.147
6115.735
6119.735
6123.02
6125.616
6128.425
6133.345
6142.898
6155.287
6166.291
6175.812
6184.536
6192.12
6198.769
6204.603
6209.668
6214.025
6217.742
6220.883
6223.513
6225.697
6227.493
6228.953
6230.116
6231.011
6231.661
6232.084
6232.307
6232.377
6232.37
6232.377
6232.49
6232.793
6233.31
6234.013
6234.983
6236.23
6237.703
6239.304
6240.946
6243.264
6192.485
6194.895
6189.512
6182.679
6178.16
6175.678
6173.764
6171.758
6169.765
6168.219
6167.043
6166.382
6166.151
6166.38
6167.082
6168.23
6169.794
6171.76
6174.154
6176.962
6180.158
6183.717
6187.624
6191.824
6196.28
6201.028
6205.721
6210.559
6215.463
6220.361
6225.208
6230.015
6234.732
6239.35
6243.827
6248.161
6252.333
6256.344
6260.194
6263.883
6267.413
6270.78
6273.965
6276.915
6279.49
6281.59
6283.016
6283.934
6284.581
6285.12
6285.58
6285.85
6285.676
6284.667
6283.191
6282.547
6283.093
6284.261
6285.286
6285.92
6286.129
6286.261
6286.398
6286.612
6286.86
6287.051
6287.197
6287.209
6287.152
6286.992
6286.869
6286.855
6286.978
6287.256
6287.613
6287.987
6288.326
6288.563
6288.627
6288.461
6288.032
6287.313
6286.278
6284.915
6283.217
6281.206
6278.998
6276.685
6274.376
6272.138
6269.989
6267.933
6265.935
6263.934
6261.902
6259.858
6257.801
6255.732
6253.67
6251.616
6249.564
6247.609
6245.655
6243.772
6241.956
6240.166
6238.42
6236.704
6234.993
6233.265
6231.498
6229.676
6227.785
6225.813
6223.752
6221.591
6219.325
6216.948
6214.455
6211.841
6209.102
6206.233
6203.23
6200.083
6196.788
6193.329
6189.698
6185.871
6181.831
6177.539
6172.971
6168.07
6162.847
6157.368
6152.131
6148.192
6147.505
6151.208
6159.679
2969.746
3061.513
3175.778
3306.909
3454.101
3616.936
3793.95
3983.983
4184.334
4389.69
4587.124
4804.044
5019.28
5228.941
5429.99
5617.984
5788.088
5933.742
6047.262
6108.511
6157.903
6172.721
6152.413
6098.775
6014.12
5901.336
5764.344
5607.346
5438.2
5249.887
5058.091
4859.743
4660.974
4464.559
4273.033
4088.407
3912.838
3748.095
3582.111
3434.536
3295.257
3166.843
3048.774
2940.576
2842.139
2753.159
2673.898
2600.448
2531.471
2472.809
2419.692
2372.098
2330.767
2295.369
2265.968
2248.665
2140.736
2119.564
2106.045
2094.376
2083.922
2075.953
2071.057
2068.659
2068.166
2068.559
2070.354
2076.157
2084.534
2094.703
2107.04
2121.516
2137.95
2156.376
2176.889
2199.404
2225.147
2251.815
2280.686
2312.852
2346.956
2382.617
2419.859
2458.516
2498.616
2540.122
2581.397
2621.454
2660.118
2697.018
2731.698
2763.814
2792.861
2819.591
2844.283
2868.039
2889.129
2909.629
2932.359
2957.005
2984.126
3013.828
3046.374
3081.67
3118.913
3157.385
3196.9
3237.428
3278.679
3320.314
3361.212
3400.095
3435.811
3467.631
3486.72
3490.811
3491.102
3493.62
3494.622
3491.854
3489.677
3493.516
3505.89
3526.651
3554.766
3589.219
3629.084
3673.369
3721.149
3771.575
3824.037
3878.135
3933.791
3991.56
4051.414
4111.361
4169.842
4225.856
4272.74
4302.711
4317.834
4318.842
4306.589
4296.276
4300.044
4314.058
4331.033
4346.949
4361.265
4375.145
4389.789
4405.682
4422.822
4441.14
4460.621
4481.164
4502.399
4523.706
4544.309
4563.443
4580.535
4595.41
4608.387
4620.118
4631.327
4642.502
4653.919
4665.889
4678.76
4692.831
4708.349
4725.509
4744.476
4765.284
4787.842
4811.966
4837.408
4863.884
4891.099
4918.769
4946.637
4974.487
5002.139
5029.443
5056.266
5082.497
5108.066
5132.938
5157.118
5180.716
5203.873
5226.675
5249.083
5271.073
5291.886
5311.466
5330.734
5349.529
5367.891
5386.336
5404.917
5423.708
5442.798
5462.216
5481.932
5501.867
5521.887
5541.828
5561.496
5580.665
5599.093
5616.555
5632.876
5647.899
5661.55
5673.968
5685.556
5696.903
5708.388
5719.98
5731.407
5742.371
5752.65
5762.11
5770.728
5778.556
5785.658
5792.109
5797.981
5803.355
5808.286
5812.83
5816.989
5820.801
5824.25
5827.251
5829.86
5831.915
5833.477
5834.491
5834.976
5834.908
5833.954
5832.78
5830.059
5825.823
5820.71
5815.001
5808.729
5801.994
5795.001
5787.917
5780.96
5774.397
5768.548
5763.707
5760.051
5757.296
5756.736
5757.084
5758.205
5759.805
5761.678
5763.893
5766.519
5770.438
5775.587
5781.74
5788.338
5794.961
5801.451
5807.688
5813.678
5819.391
5824.898
5830.472
5836.546
5843.703
5852.337
5861.876
5871.287
5879.839
5887.508
5893.916
5899.563
5904.475
5908.602
5912.073
5914.925
5917.225
5919.052
5920.479
5921.571
5922.369
5922.909
5923.23
5923.351
5923.254
5922.976
5922.641
5922.335
5922.112
5922.176
5922.634
5923.49
5924.72
5926.339
5928.337
5930.609
5932.926
5934.724
5935.171
5932.996
5929.595
5929.241
5929.395
5928.9
5927.675
5926.069
5924.356
5922.79
5921.324
5920.609
5920.152
5920.062
5920.379
5921.117
5922.287
5923.892
5925.937
5928.431
5931.369
5934.731
5938.484
5942.596
5947.011
5951.669
5956.506
5961.418
5966.385
5971.352
5976.286
5981.159
5985.911
5990.529
5995.037
5999.33
6003.514
6007.545
6011.433
6015.177
6018.771
6022.203
6025.45
6028.493
6031.297
6033.78
6035.87
6037.506
6038.669
6039.518
6040.15
6040.654
6040.989
6041.277
6041.836
6042.903
6043.672
6043.71
6043.256
6042.674
6042.195
6041.997
6041.84
6041.713
6041.596
6041.498
6041.416
6041.312
6041.193
6041.1
6041.015
6040.942
6040.952
6041.099
6041.339
6041.611
6041.867
6042.065
6042.157
6042.105
6041.88
6041.465
6040.841
6039.986
6038.886
6037.531
6035.924
6034.087
6032.078
6030.018
6027.984
6026.003
6024.076
6022.192
6020.309
6018.388
6016.408
6014.355
6012.245
6010.119
6007.989
6005.866
6003.799
6001.782
5999.821
5997.902
5996.047
5994.212
5992.413
5990.602
5988.793
5986.948
5985.059
5983.1
5981.063
5978.939
5976.721
5974.402
5971.977
5969.442
5966.791
5964.021
5961.128
5958.108
5954.957
5951.667
5948.233
5944.644
5940.894
5936.967
5932.862
5928.569
5924.135
5919.63
5915.314
5911.476
5908.702
5907.355
5908.553
5912.14
2492.637
2477.691
2466.681
2442.681
2435.868
2412.49
2432.77
2470.054
2522.573
2559.598
2584.897
2630.847
2699.506
2788.429
2895.339
3019.261
3158.146
3310.908
3477.207
3655.412
3844.511
4042.597
4246.834
4454.17
4661.011
4863.279
5058.005
5238.838
5402.65
5545.112
5664.383
5707.278
5757.175
5768.015
5739.902
5678.568
5587.242
5468.907
5327.303
5166.812
4992.086
4806.495
4613.606
4417.092
4220.681
4027.343
3839.596
3659.408
3488.234
3326.381
3174.37
3032.848
2900.913
2778.529
2666.077
2563.652
2471.031
2387.607
2312.286
2244.029
2182.091
2125.764
2075.219
2030.943
1993.048
1961.059
1933.626
1909.557
1885.905
1866.834
1852.02
1838.597
1827.385
1819.81
1815.836
1814.22
1813.715
1814.348
1816.984
1821.737
1829.248
1840.14
1854.148
1869.342
1885.326
1902.662
1922.101
1944.814
1970.317
1997.39
2027.59
2060.624
2095.351
2131.503
2169.587
2209.934
2252.034
2295.131
2338.587
2381.436
2422.297
2460.409
2495.61
2527.714
2556.014
2580.571
2602.216
2621.654
2640.218
2659.56
2680.573
2703.763
2729.788
2759.074
2791.985
2828.21
2866.783
2907.055
2948.751
2991.429
3034.158
3075.677
3114.234
3148.676
3178.388
3202.057
3216.028
3218.761
3214.4
3206.441
3201.815
3197.739
3197.385
3204.065
3219.672
3244.291
3277.035
3316.838
3362.756
3413.736
3468.671
3526.336
3585.535
3645.349
3705.282
3765.118
3824.188
3881.266
3935.033
3984.042
4024.892
4053.784
4070.479
4076.901
4075.015
4071.597
4073.592
4081.495
4092.435
4103.948
4115.228
4126.741
4139.336
4153.615
4169.8
4187.869
4207.819
4229.515
4252.479
4275.904
4298.753
4319.948
4338.604
4354.333
4367.357
4378.293
4388.012
4397.259
4406.59
4416.664
4428.025
4441.067
4456.081
4473.148
4492.369
4513.75
4537.177
4562.436
4589.223
4617.175
4645.9
4675.017
4704.186
4733.129
4761.635
4789.552
4816.771
4843.226
4868.886
4893.737
4917.795
4941.123
4963.811
4985.907
5007.404
5028.192
5047.897
5066.913
5085.155
5102.8
5120.447
5138.267
5156.317
5174.765
5193.716
5213.185
5233.129
5253.46
5274.044
5294.693
5315.169
5335.181
5354.421
5372.629
5389.621
5405.226
5419.471
5432.538
5444.732
5456.41
5467.821
5479.021
5489.925
5500.405
5510.349
5519.679
5528.369
5536.435
5543.908
5550.818
5557.193
5563.061
5568.433
5573.327
5577.737
5581.676
5585.117
5588.037
5590.395
5592.188
5593.379
5593.981
5593.816
5592.995
5591.198
5587.913
5583.372
5577.987
5571.981
5565.433
5558.397
5550.982
5543.345
5535.659
5528.133
5521.026
5514.717
5509.574
5505.84
5503.534
5502.864
5503.674
5505.467
5508.047
5511.156
5514.642
5518.662
5523.642
5529.564
5536.205
5543.282
5550.557
5557.854
5565.124
5572.435
5579.728
5586.988
5594.302
5601.817
5609.619
5617.868
5626.549
5635.155
5643.026
5650.005
5656.041
5661.189
5665.597
5668.842
5671.536
5673.631
5675.164
5676.232
5676.92
5677.296
5677.417
5677.316
5677.012
5676.54
5675.888
5675.083
5674.367
5673.863
5673.377
5673.317
5673.946
5675.228
5677.061
5679.369
5682.101
5685.141
5688.087
5690.728
5692.931
5694.913
5696.6
5694.428
5691.486
5688.458
5685.408
5682.563
5680.011
5677.625
5675.843
5674.556
5673.993
5673.907
5674.195
5674.874
5675.982
5677.544
5679.585
5682.116
5685.137
5688.642
5692.607
5696.983
5701.701
5706.681
5711.818
5717.005
5722.175
5727.279
5732.285
5737.169
5741.89
5746.455
5750.82
5755.09
5759.183
5763.056
5766.807
5770.431
5773.916
5777.24
5780.388
5783.349
5786.036
5788.438
5790.493
5792.183
5793.506
5794.535
5795.336
5795.981
5796.498
5796.946
5797.322
5797.504
5797.385
5797.042
5796.709
5796.51
5796.418
5796.394
5796.312
5796.148
5795.932
5795.697
5795.465
5795.242
5795.044
5794.891
5794.797
5794.786
5794.881
5795.072
5795.307
5795.528
5795.688
5795.756
5795.702
5795.504
5795.144
5794.613
5793.913
5793.046
5792.002
5790.77
5789.36
5787.807
5786.168
5784.501
5782.839
5781.224
5779.593
5777.937
5776.229
5774.442
5772.568
5770.623
5768.613
5766.562
5764.486
5762.401
5760.33
5758.284
5756.271
5754.294
5752.364
5750.477
5748.592
5746.72
5744.845
5742.897
5740.93
5738.888
5736.782
5734.593
5732.314
5729.939
5727.463
5724.883
5722.194
5719.392
5716.476
5713.443
5710.29
5707.014
5703.612
5700.082
5696.424
5692.639
5688.74
5684.755
5680.745
5676.82
5673.141
5669.93
5667.424
5665.912
5665.675
5666.495
2679.119
2650.502
2623.195
2571.327
2528.021
2452.187
2410.357
2369.695
2330.859
2294.274
2259.987
2229.448
2202.603
2181.159
2165.814
2157.213
2098.728
2111.923
2134.578
2163.819
2197.222
2240.645
2299.123
2372.469
2464.887
2573.899
2698.997
2839.299
2993.698
3161.023
3340.045
3528.947
3725.73
3927.491
4132.028
4336.026
4535.388
4730.128
4909.602
5070.555
5207.341
5314.654
5384.812
5427.645
5435.736
5406.697
5343.751
5250.652
5130.946
4988.471
4827.394
4652.174
4466.74
4274.804
4079.843
3885.4
3694.385
3509.178
3331.983
3164.199
3006.139
2857.468
2718.588
2590.1
2471.755
2363.388
2265.091
2176.758
2097.63
2026.515
1962.083
1903.176
1849.407
1800.994
1758.616
1722.828
1693.451
1668.789
1647.163
1627.236
1608.875
1592.386
1578.405
1568.669
1562.989
1560.71
1560.132
1559.668
1559.612
1560.88
1564.514
1572.439
1584.841
1599.207
1616.055
1630.928
1646.654
1664.677
1686.207
1711.191
1738.883
1771.258
1805.734
1840.547
1876.805
1915.716
1957.763
2002.201
2048.532
2096.046
2142.923
2186.748
2226.474
2262.475
2294.699
2321.831
2343.355
2361.253
2376.601
2391.756
2408.161
2426.137
2446.795
2471.074
2499.363
2532.626
2570.661
2611.87
2654.805
2699.157
2744.377
2789.373
2832.319
2870.587
2902.487
2927.656
2944.566
2952.617
2950.62
2938.783
2922.813
2905.289
2895.264
2893.839
2902.161
2920.843
2949.731
2987.953
3034.207
3087.331
3146.109
3209.452
3275.77
3343.077
3409.802
3475.047
3538.227
3598.588
3655.143
3706.677
3751.935
3789.423
3817.082
3834.316
3842.054
3844.361
3843.378
3843.748
3847.183
3853.092
3860.259
3868.012
3876.519
3886.577
3898.955
3914.01
3931.846
3952.56
3976.048
4001.735
4028.484
4054.775
4078.98
4099.657
4116.066
4128.454
4137.688
4145.181
4151.806
4158.259
4165.842
4175.312
4186.969
4201.054
4217.755
4237.137
4259.104
4283.5
4310.082
4338.492
4368.282
4398.951
4429.999
4460.972
4491.5
4521.312
4550.232
4578.17
4605.097
4631.006
4655.905
4679.824
4702.822
4724.995
4746.364
4766.882
4786.493
4805.198
4823.195
4840.17
4856.566
4873.195
4890.062
4907.366
4925.342
4944.1
4963.621
4983.841
5004.678
5025.991
5047.555
5069.056
5090.116
5110.343
5129.402
5147.112
5163.383
5178.25
5191.853
5204.437
5216.278
5227.594
5238.494
5248.992
5259.066
5268.69
5277.847
5286.534
5294.764
5302.545
5309.879
5316.752
5323.148
5329.04
5334.405
5339.211
5343.442
5347.063
5350.065
5352.42
5354.086
5355.021
5355.132
5354.284
5352.388
5349.223
5344.682
5339.055
5332.599
5325.45
5317.748
5309.664
5301.38
5292.996
5284.577
5276.28
5268.327
5261.249
5255.601
5251.8
5249.754
5249.475
5250.562
5253.12
5256.706
5260.941
5265.587
5270.692
5276.456
5282.865
5289.825
5297.221
5304.974
5313.125
5321.602
5330.31
5339.125
5347.913
5356.665
5365.375
5373.996
5382.536
5390.996
5399.168
5406.667
5413.251
5418.811
5423.373
5426.895
5429.967
5432
5433.354
5434.116
5434.39
5434.291
5433.922
5433.359
5432.631
5431.742
5430.699
5429.458
5427.92
5426.755
5426.199
5425.188
5424.836
5425.621
5427.332
5429.678
5432.564
5435.981
5439.717
5443.516
5446.938
5449.379
5450.33
5449.505
5448.1
5445.942
5443.076
5439.875
5436.657
5433.803
5430.976
5428.782
5427.485
5427.008
5427.039
5427.378
5428.007
5429.05
5430.568
5432.595
5435.14
5438.209
5441.823
5445.988
5450.666
5455.753
5461.134
5466.666
5472.212
5477.679
5483.006
5488.164
5493.139
5497.918
5502.491
5506.845
5511.009
5514.945
5518.756
5522.407
5525.943
5529.345
5532.602
5535.699
5538.588
5541.216
5543.55
5545.574
5547.286
5548.692
5549.828
5550.731
5551.44
5551.972
5552.336
5552.518
5552.53
5552.438
5552.347
5552.283
5552.213
5552.096
5551.905
5551.613
5551.225
5550.772
5550.287
5549.803
5549.355
5548.986
5548.736
5548.633
5548.68
5548.852
5549.102
5549.363
5549.57
5549.671
5549.636
5549.448
5549.102
5548.604
5547.95
5547.151
5546.235
5545.214
5544.095
5542.892
5541.623
5540.307
5538.957
5537.573
5536.178
5534.765
5533.329
5531.833
5530.257
5528.597
5526.898
5525.084
5523.19
5521.24
5519.249
5517.234
5515.216
5513.2
5511.196
5509.214
5507.248
5505.278
5503.306
5501.3
5499.311
5497.298
5495.113
5492.912
5490.633
5488.278
5485.832
5483.292
5480.653
5477.914
5475.071
5472.124
5469.071
5465.911
5462.645
5459.275
5455.803
5452.236
5448.587
5444.877
5441.147
5437.456
5433.893
5430.579
5427.639
5425.241
5423.481
5422.455
5421.807
2861.275
2823.939
2781.828
2728.161
2688.991
2613.746
2574.983
2536.452
2497.728
2458.386
2419.09
2379.725
2338.896
2298.077
2255.441
2146.34
2104.743
2064.359
2025.428
1988.314
1953.61
1921.932
1893.854
1870.485
1852.209
1840.145
1834.812
1839.711
1853.57
1876.103
1908.001
1951.81
2009.43
2083.709
2174.845
2282.183
2405.236
2543.214
2695.109
2859.776
3035.874
3220.771
3411.954
3607.933
3807.22
4007.034
4204.344
4394.153
4570.01
4726.389
4858.251
4961.846
5032.133
5068.735
5070.045
5035.619
4967.761
4870.24
4747.146
4602.471
4440.375
4265.043
4080.575
3890.809
3698.834
3508.22
3322.079
3142.436
2971.304
2809.737
2658.027
2515.9
2383.354
2261.094
2148.78
2046.002
1953.137
1870.593
1797.475
1731.97
1672.381
1617.429
1566.576
1520.29
1480.136
1447.495
1422.11
1401.942
1383.776
1365.547
1347.006
1329.558
1313.845
1304.767
1304.418
1304
1304.5
1303.589
1302.139
1301.591
1304.124
1312.859
1328.133
1343.053
1359.934
1373.547
1387.37
1403.363
1423.71
1448.545
1475.485
1510.034
1547.991
1582.004
1617.217
1657.122
1702.177
1750.102
1800.853
1854.081
1906.733
1954.93
1997.686
2035.715
2068.224
2092.756
2108.607
2121.747
2132.271
2142.788
2154.938
2168.151
2184.682
2206.268
2233.29
2268.016
2309.347
2354.13
2399.829
2447.57
2497.204
2546.99
2593.373
2632.519
2662.801
2685.045
2695.382
2698.967
2689.776
2662.499
2629.015
2598.729
2580.574
2576.388
2586.205
2608.477
2642.231
2686.529
2740.01
2801.893
2870.21
2943.684
3020.483
3097.648
3172.754
3244.573
3312.475
3375.774
3433.616
3484.995
3528.981
3564.72
3591.085
3607.802
3616.316
3616.969
3614.792
3612.557
3611.988
3613.296
3615.979
3619.597
3624.298
3631.165
3641.19
3654.837
3672.38
3694.183
3720.231
3749.708
3781.058
3812.189
3840.681
3864.169
3881.336
3892.501
3898.704
3902.827
3906.166
3908.813
3913.08
3920.122
3930.216
3943.387
3959.688
3979.191
4001.775
4027.246
4055.324
4085.599
4117.53
4150.496
4183.859
4217.023
4249.514
4280.989
4311.235
4340.168
4367.785
4394.114
4419.193
4443.066
4465.764
4487.381
4507.999
4527.604
4546.133
4563.608
4580.128
4595.742
4610.819
4626.008
4641.672
4658.041
4675.397
4693.893
4713.439
4733.916
4755.257
4777.337
4799.947
4822.73
4845.164
4866.711
4886.926
4905.537
4922.487
4937.894
4951.919
4964.802
4976.784
4988.047
4998.724
5008.895
5018.615
5027.929
5036.873
5045.481
5053.777
5061.762
5069.42
5076.714
5083.596
5090.004
5095.877
5101.152
5105.781
5109.718
5112.934
5115.396
5117.05
5117.781
5117.458
5115.92
5113.069
5108.825
5103.211
5096.389
5088.617
5080.122
5071.09
5061.771
5052.511
5043.333
5034.058
5024.766
5015.672
5007.951
5002.123
4998.028
4995.599
4995.365
4997.046
5000.549
5005.237
5010.583
5016.29
5022.305
5028.764
5035.711
5043.146
5051.047
5059.385
5068.267
5077.718
5087.603
5097.783
5107.92
5118.008
5127.909
5137.486
5146.747
5155.559
5163.741
5171.045
5177.303
5182.453
5186.52
5189.549
5191.665
5193.033
5193.602
5193.532
5192.955
5192.019
5190.86
5189.578
5188.199
5186.704
5185.13
5183.484
5181.316
5179.236
5178.25
5176.645
5175.76
5176.78
5179.224
5182.24
5185.646
5189.538
5193.922
5198.639
5203.117
5206.354
5207.843
5207.705
5206.14
5203.349
5199.828
5195.874
5191.957
5188.433
5184.474
5181.56
5179.893
5179.806
5180.174
5180.472
5180.936
5181.849
5183.299
5185.31
5187.868
5190.95
5194.625
5198.954
5203.895
5209.345
5215.146
5221.107
5227.054
5232.857
5238.446
5243.805
5248.942
5253.839
5258.475
5262.864
5267.018
5270.91
5274.581
5278.112
5281.588
5284.972
5288.221
5291.313
5294.196
5296.808
5299.116
5301.115
5302.823
5304.253
5305.422
5306.349
5307.044
5307.515
5307.777
5307.855
5307.812
5307.721
5307.623
5307.509
5307.359
5307.153
5306.862
5306.456
5305.921
5305.281
5304.575
5303.852
5303.187
5302.663
5302.333
5302.241
5302.383
5302.699
5303.094
5303.455
5303.703
5303.787
5303.682
5303.38
5302.895
5302.251
5301.469
5300.587
5299.632
5298.623
5297.574
5296.498
5295.411
5294.332
5293.28
5292.243
5291.162
5290.018
5288.848
5287.613
5286.275
5284.804
5283.242
5281.587
5279.867
5278.072
5276.21
5274.298
5272.383
5270.42
5268.428
5266.422
5264.401
5262.363
5260.303
5258.205
5256.076
5253.857
5251.686
5249.427
5247.011
5244.553
5242.019
5239.404
5236.696
5233.894
5230.998
5228.008
5224.924
5221.749
5218.485
5215.137
5211.713
5208.225
5204.691
5201.136
5197.595
5194.127
5190.788
5187.683
5184.865
5182.492
5180.51
5179.019
5177.391
2860.256
2809.201
2758.528
2697.311
2637.403
2584.19
2535.706
2491.236
2450.281
2409.473
2303.428
2265.307
2227.536
2189.48
2150.849
2111.649
2071.775
2030.973
1989.452
1948.02
1907.401
1866.164
1825.581
1786.04
1747.91
1711.636
1677.353
1645.383
1617.089
1593.596
1575.97
1565.965
1564.7
1573.123
1592.33
1623.019
1666.806
1725.095
1798.972
1888.886
1994.586
2115.613
2251.34
2400.565
2561.608
2732.16
2910.831
3096.118
3287.587
3483.449
3679.523
3871.829
4055.19
4223.603
4371.361
4493.424
4585.815
4644.974
4669.147
4658.511
4614.056
4538.15
4434.349
4306.828
4159.705
3997.119
3822.876
3640.948
3455.22
3268.847
3084.397
2904.524
2732.055
2569.165
2416.545
2274.454
2143.138
2021.662
1908.929
1804.679
1709.201
1623.48
1548.515
1483.317
1425.229
1372.2
1322.589
1275.198
1230.527
1191.96
1163.784
1144.974
1131.416
1117.931
1101.333
1081.815
1062.206
1046.039
1037.735
1040.623
1046.995
1048.023
1045.181
1041.456
1038.767
1039.74
1048.895
1068.721
1086.185
1099.572
1111.911
1124.561
1138.356
1157.829
1184.225
1211.047
1244.42
1284.982
1320.122
1352.699
1392.795
1442.084
1494.564
1551.581
1613.789
1675.12
1727.43
1772.554
1814.605
1850.939
1874.636
1881.979
1884.559
1885.288
1889.796
1898.304
1905.319
1916.763
1935.969
1958.94
1995.434
2042.877
2094.149
2142.653
2193.599
2248.474
2307.735
2361.768
2403.43
2431.44
2450.715
2458.875
2457.769
2442.389
2392.94
2330.05
2280.161
2250.503
2242.924
2255.362
2282.832
2323.383
2375.462
2435.947
2506.008
2584.562
2670.707
2760.94
2850.185
2935.174
3014.807
3088.742
3156.33
3216.678
3269.151
3313.427
3348.891
3374.274
3389.014
3394.231
3392.227
3386.736
3380.734
3375.974
3372.744
3370.884
3370.118
3370.237
3373.051
3379.894
3391.442
3408.195
3431.109
3460.427
3495.027
3532.862
3571.094
3605.907
3633.399
3651.442
3660.679
3663.454
3662.366
3659.409
3657.154
3657.394
3661.343
3669.453
3681.664
3697.684
3717.408
3740.74
3767.502
3797.394
3829.943
3864.497
3900.28
3936.474
3972.294
4007.119
4040.544
4072.356
4102.509
4131.007
4157.86
4183.141
4206.963
4229.411
4250.591
4270.581
4289.299
4306.648
4322.806
4337.95
4351.966
4365.094
4378.382
4392.59
4407.869
4424.552
4442.816
4462.419
4483.178
4505.071
4528.006
4551.781
4575.992
4599.992
4623.051
4644.579
4664.233
4681.896
4697.744
4712.057
4725.146
4737.251
4748.503
4759.023
4768.927
4778.336
4787.373
4796.109
4804.589
4812.881
4821.002
4828.925
4836.597
4843.94
4850.86
4857.258
4863.039
4868.121
4872.439
4875.96
4878.656
4880.471
4881.222
4880.698
4878.637
4874.995
4869.75
4862.924
4854.701
4845.455
4835.514
4825.078
4814.369
4804.288
4794.58
4784.509
4774.568
4765.238
4756.709
4749.53
4743.793
4740.413
4740.091
4742.837
4747.612
4753.643
4760.179
4766.838
4773.524
4780.539
4787.944
4795.795
4804.192
4813.21
4822.97
4833.552
4844.807
4856.56
4868.12
4879.496
4890.716
4901.302
4911.14
4920.189
4928.362
4935.521
4941.539
4946.35
4949.962
4952.445
4953.886
4954.383
4954.035
4953.012
4951.482
4949.638
4947.666
4945.709
4943.788
4941.839
4939.926
4938.17
4935.647
4931.866
4929.693
4927.314
4925.76
4928.025
4931.663
4934.979
4938.451
4942.44
4947.219
4953.123
4959.493
4964.472
4966.742
4966.53
4964.498
4961.161
4956.926
4952.184
4947.585
4942.968
4937.372
4933.902
4933.055
4933.719
4933.71
4933.303
4933.494
4934.155
4935.499
4937.502
4940.065
4943.166
4946.915
4951.397
4956.616
4962.486
4968.801
4975.289
4981.717
4987.918
4993.806
4999.373
5004.686
5009.736
5014.478
5018.953
5023.152
5027.003
5030.555
5033.977
5037.44
5040.827
5044.104
5047.273
5050.257
5052.878
5055.138
5057.092
5058.77
5060.186
5061.353
5062.26
5062.901
5063.279
5063.413
5063.345
5063.146
5062.901
5062.663
5062.461
5062.285
5062.079
5061.767
5061.278
5060.59
5059.736
5058.77
5057.783
5056.893
5056.197
5055.751
5055.668
5055.945
5056.476
5057.103
5057.656
5058.018
5058.132
5057.989
5057.597
5056.989
5056.227
5055.309
5054.321
5053.3
5052.262
5051.229
5050.218
5049.245
5048.317
5047.433
5046.586
5045.804
5045.037
5044.219
5043.299
5042.267
5041.106
5039.797
5038.331
5036.779
5035.144
5033.422
5031.603
5029.724
5027.794
5025.827
5023.816
5021.766
5019.675
5017.541
5015.359
5013.134
5010.851
5008.525
5006.095
5003.653
5001.111
4998.455
4995.746
4992.962
4990.091
4987.132
4984.09
4980.966
4977.765
4974.491
4971.154
4967.763
4964.335
4960.886
4957.446
4954.042
4950.724
4947.524
4944.536
4941.765
4939.361
4937.176
4935.335
4932.988
2596.687
2530.455
2397.967
2346.716
2297.343
2251.847
2209.614
2169.886
2131.842
2095.087
2059.481
2023.207
1986.591
1949.293
1911.322
1872.436
1832.584
1791.71
1749.787
1707.317
1665.679
1624.26
1583.234
1542.931
1502.969
1463.408
1425.344
1389.619
1357.256
1330.145
1309.862
1297.257
1293.431
1299.409
1316.485
1345.759
1388.621
1446.071
1518.806
1607.184
1711.014
1829.787
1962.766
2107.988
2262.936
2426.463
2598.848
2779.843
2966.958
3157.334
3346.838
3530.665
3703.471
3859.538
3993.428
4100.425
4176.912
4220.354
4229.487
4204.847
4148.292
4062.612
3951.721
3819.532
3670.445
3508.811
3338.02
3161.416
2981.645
2801.679
2624.382
2452.087
2287.966
2135
1994.078
1865.111
1747.76
1640.465
1540.12
1445.108
1356.834
1279.084
1213.382
1157.627
1108.045
1062.274
1018.905
976.1193
933.7257
896.6835
869.3787
858.9658
857.371
847.609
834.8306
815.344
793.5885
775.3497
766.6403
772.8819
788.7763