/*--------------------------------*- C++ -*----------------------------------*\
| =========                 |                                                 |
| \\      /  F ield         | foam-extend: Open Source CFD                    |
|  \\    /   O peration     | Version:     3.1                                |
|   \\  /    A nd           | Web:         http://www.extend-project.de       |
|    \\/     M anipulation  |                                                 |
\*---------------------------------------------------------------------------*/
FoamFile
{
    version     2.0;
    format      ascii;
    class       volScalarField;
    location    "17";
    object      pd;
}
// * * * * * * * * * * * * * * * * * * * * * * * * * * * * * * * * * * * * * //

dimensions      [1 -1 -2 0 0 0 0];

internalField   nonuniform List<scalar> 
119952
(
5652.293
4453.825
4280.008
4455.908
4638.285
4493.239
4453.068
4429.892
4422.255
4423.367
4431.949
4447.723
4469.381
4496.004
4526.407
4559.577
4594.335
4628.511
4653.786
4642.652
4890.41
4812.921
4812.841
5121.052
5130.454
5200.507
5253.621
5357.352
5640.974
7047.922
3090.675
3075.971
3105.693
3136.656
3168.03
3201.102
3235.904
3273.479
3312.833
3325.177
3362.831
3418.592
3454.467
3492.459
3528.509
3564.16
3598.512
3630.72
3661.654
3720.772
3737.879
3744.404
3768.355
3792.386
3819.243
3847.562
3877.915
3909.569
3945.318
3970.193
4005.246
4045.575
4084.551
4122.72
4160.748
4198.508
4242.403
4328.674
4481.689
4386.398
4354.432
4433.373
4472.152
4459.917
4431.258
4417.217
4413.735
4417.665
4429.126
4447.467
4471.717
4500.72
4533.471
4568.901
4605.891
4643.464
4681.94
4725.156
4783.799
4845.438
4889.142
4992.755
5126.169
5179.25
5221.548
5261.72
5241.317
5077.331
5055.722
5114.011
5144.584
5169.21
5193.725
5214.748
5233.708
5251.754
5269.636
5287.8
5306.362
5325.318
5344.711
5364.341
5383.774
5402.377
5419.39
5434.109
5446.393
5457.146
5467.977
5480.045
5493.411
5507.516
5521.891
5536.416
5551.237
5566.632
5582.989
5600.689
5619.925
5640.705
5662.941
5686.498
5711.208
5736.881
5763.315
5790.306
5817.656
5845.174
5872.672
5899.959
5926.822
5952.981
5978.466
6002.586
6025.921
6048.913
6073.594
6100.619
6126.475
6147.287
6167.515
6187.477
6207.209
6226.403
6245.424
6264.132
6282.717
6301.218
6319.73
6338.282
6356.899
6375.553
6394.219
6412.862
6431.346
6449.535
6467.224
6484.098
6499.674
6513.342
6524.503
6533.739
6543.334
6554.592
6567.147
6579.913
6592.026
6602.906
6612.215
6620.228
6627.281
6633.687
6639.637
6645.259
6650.676
6655.941
6661.042
6666.004
6670.708
6675.126
6679.2
6682.866
6686.022
6688.621
6690.465
6691.666
6694.009
6700.253
6696.813
6695.061
6692.638
6689.9
6685.722
6680.846
6675.323
6669.29
6662.939
6656.434
6650.101
6644.122
6638.784
6634.53
6632.351
6631.207
6631.324
6632.46
6633.785
6633.577
6629.399
6623.571
6622.9
6628.089
6635.583
6642.918
6649.255
6654.559
6659.077
6663.057
6666.522
6669.172
6670.319
6668.5
6664.553
6684.903
6700.139
6712.385
6723.222
6732.535
6740.874
6748.249
6754.736
6760.404
6765.343
6769.606
6773.26
6776.373
6779.009
6781.226
6783.076
6784.599
6785.824
6786.77
6787.45
6787.877
6788.078
6788.1
6788.019
6787.932
6787.931
6788.11
6788.228
6788.569
6789.186
6790.026
6791.028
6792.026
6793.036
6826.911
6811.55
6792.582
6793.425
6792.744
6789.434
6787.301
6785.435
6783.563
6781.927
6780.656
6779.808
6779.442
6779.556
6780.136
6781.155
6782.577
6784.397
6786.628
6789.245
6792.214
6795.514
6799.141
6803.062
6807.292
6811.758
6816.484
6821.351
6826.31
6831.308
6836.297
6841.249
6846.126
6850.898
6855.542
6860.022
6864.333
6868.467
6872.421
6876.198
6879.812
6883.288
6886.677
6890.064
6893.427
6896.082
6896.796
6896.847
6897.118
6897.569
6898.123
6898.778
6899.388
6896.901
6889.468
6894.081
6897.633
6897.478
6897.899
6898.452
6898.813
6899.172
6899.563
6899.963
6900.372
6900.76
6901.094
6901.301
6901.385
6901.228
6900.794
6900.382
6900.421
6900.746
6901.194
6901.705
6902.205
6902.575
6902.715
6902.56
6902.071
6901.215
6899.971
6898.332
6896.316
6894.008
6891.441
6888.773
6886.131
6883.611
6881.323
6879.247
6877.328
6875.465
6873.637
6871.749
6869.843
6867.929
6866.009
6864.089
6862.191
6860.311
6858.449
6856.652
6854.912
6853.217
6851.555
6849.914
6848.276
6846.621
6844.929
6843.184
6841.37
6839.474
6837.485
6835.396
6833.198
6830.886
6828.456
6825.901
6823.217
6820.4
6817.442
6814.337
6811.074
6807.64
6804.019
6800.186
6796.111
6791.742
6787.017
6781.822
6776.005
6769.263
6761.145
6751.166
6741.655
6748.187
6801.754
4424.213
4294.896
4154.622
4021.19
3899.469
3787.784
3685.964
3594.947
3516.318
3405.212
3352.394
3293.246
3237.03
3188.456
3145.266
3108.931
3078.298
3047.774
3024.387
3023.51
2992.32
2968.41
2954.601
2944.821
2938.673
2935.522
2934.006
2935.521
2943.565
2934.964
2942.341
2954.116
2966.259
2980.651
2997.217
3015.416
3037.268
3070.949
3076.871
3097.772
3131.419
3165.126
3199.332
3235.075
3272.235
3310.046
3346.308
3383.746
3426.733
3467.48
3504.877
3540.634
3575.101
3607.931
3639.445
3673.447
3695.773
3724.084
3752
3774.912
3798.123
3822.84
3850.195
3879.562
3911.115
3945.249
3982.455
4020.658
4058.449
4096.539
4135.781
4176.691
4220.397
4267.726
4315.621
4355.986
4372.823
4373.399
4382.43
4393.799
4396.899
4391.208
4385.007
4385.506
4394.619
4411.694
4435.57
4465.252
4499.803
4538.326
4579.931
4623.844
4669.861
4718.357
4770.436
4826.903
4887.878
4953.56
5023.825
5092.687
5147.534
5179.98
5192.419
5181.306
5149.156
5129.316
5137.172
5159.012
5182.396
5202.612
5219.9
5236.015
5252.319
5269.362
5287.152
5305.63
5324.804
5344.615
5364.764
5384.736
5403.873
5421.526
5437.266
5451.098
5463.543
5475.406
5487.373
5499.741
5512.531
5525.763
5539.562
5554.161
5569.837
5586.849
5605.411
5625.607
5647.387
5670.608
5695.076
5720.565
5746.844
5773.689
5800.89
5828.255
5855.613
5882.793
5909.638
5935.993
5961.715
5986.717
6010.983
6034.831
6058.521
6082.21
6105.739
6128.611
6150.196
6170.737
6190.52
6209.767
6228.698
6247.539
6266.333
6285.138
6304.051
6323.106
6342.302
6361.601
6380.921
6400.14
6419.112
6437.69
6455.675
6472.841
6488.977
6503.79
6517.07
6529.001
6539.988
6550.879
6562.322
6574.247
6586.154
6597.507
6607.969
6617.337
6625.639
6633.05
6639.732
6645.829
6651.442
6656.671
6661.564
6666.184
6670.515
6674.528
6678.294
6681.733
6684.641
6687.051
6689.228
6690.504
6691.168
6692.082
6695.717
6691.112
6689.412
6686.807
6683.03
6678.466
6673.162
6667.285
6661.02
6654.549
6648.087
6641.918
6636.332
6631.65
6627.996
6625.806
6624.623
6624.715
6625.584
6626.64
6627.213
6626.846
6625.771
6628.169
6632.734
6639.077
6645.747
6652.072
6657.818
6662.96
6667.548
6671.547
6674.833
6677.428
6680.237
6685.157
6694.71
6707.099
6718.104
6727.625
6736.349
6743.932
6750.581
6756.415
6761.481
6765.838
6769.555
6772.696
6775.326
6777.509
6779.306
6780.766
6781.928
6782.824
6783.473
6783.896
6784.12
6784.19
6784.183
6784.189
6784.303
6784.606
6785.123
6785.825
6786.795
6788.042
6789.516
6791.117
6792.758
6795.076
6805.61
6808.02
6802.637
6795.804
6791.285
6788.803
6786.889
6784.883
6782.89
6781.344
6780.168
6779.507
6779.276
6779.505
6780.207
6781.355
6782.919
6784.885
6787.279
6790.087
6793.283
6796.842
6800.749
6804.949
6809.405
6814.153
6818.846
6823.684
6828.588
6833.486
6838.333
6843.14
6847.857
6852.476
6856.952
6861.286
6865.458
6869.469
6873.319
6877.008
6880.538
6883.905
6887.09
6890.04
6892.615
6894.715
6896.141
6897.059
6897.706
6898.245
6898.705
6898.975
6898.801
6897.792
6896.316
6895.672
6896.218
6897.386
6898.411
6899.045
6899.254
6899.386
6899.523
6899.737
6899.985
6900.176
6900.322
6900.334
6900.277
6900.117
6899.994
6899.979
6900.103
6900.381
6900.738
6901.112
6901.451
6901.688
6901.752
6901.586
6901.157
6900.438
6899.404
6898.04
6896.342
6894.331
6892.123
6889.81
6887.501
6885.263
6883.114
6881.058
6879.06
6877.06
6875.027
6872.983
6870.926
6868.857
6866.795
6864.741
6862.689
6860.734
6858.78
6856.897
6855.081
6853.291
6851.545
6849.829
6848.118
6846.39
6844.623
6842.801
6840.91
6838.938
6836.877
6834.716
6832.45
6830.073
6827.58
6824.966
6822.227
6819.358
6816.355
6813.208
6809.913
6806.454
6802.823
6798.996
6794.956
6790.664
6786.096
6781.195
6775.972
6770.493
6765.256
6761.317
6760.63
6764.333
6772.804
3750.731
3838.957
3949.955
4077.819
4221.744
4381.307
4555.058
4741.824
4938.908
5142.115
5353.531
5570.45
5785.687
5995.347
6196.397
6384.391
6554.494
6700.149
6813.668
6905.574
6954.966
6969.783
6949.476
6895.837
6811.182
6698.398
6561.406
6404.409
6235.263
6046.949
5855.154
5656.805
5458.036
5261.621
5070.096
4885.47
4709.901
4545.158
4379.174
4231.599
4092.32
3963.905
3845.836
3737.638
3639.201
3550.221
3470.961
3397.51
3328.533
3269.872
3216.755
3169.161
3127.829
3092.431
3063.03
3045.727
2999.111
2977.939
2964.42
2952.751
2942.297
2934.328
2929.432
2927.034
2926.541
2926.934
2928.729
2934.532
2942.909
2953.078
2965.415
2979.891
2996.325
3014.751
3035.264
3057.779
3083.522
3110.19
3139.061
3171.226
3205.331
3240.992
3278.234
3316.891
3356.991
3398.497
3439.772
3479.829
3518.492
3555.393
3590.073
3622.189
3651.236
3677.966
3702.658
3726.414
3747.504
3768.004
3790.734
3815.38
3842.501
3872.203
3904.749
3940.045
3977.288
4015.76
4055.275
4095.803
4137.054
4178.689
4219.587
4258.47
4294.186
4326.006
4345.095
4349.186
4349.477
4351.995
4352.997
4350.229
4348.052
4351.891
4364.265
4385.026
4413.141
4447.594
4487.459
4531.744
4579.524
4629.95
4682.412
4736.51
4792.166
4849.935
4909.789
4969.736
5028.217
5084.231
5131.115
5161.086
5176.209
5177.216
5164.964
5154.651
5158.419
5172.433
5189.408
5205.324
5219.64
5233.52
5248.164
5264.057
5281.197
5299.514
5318.996
5339.539
5360.774
5382.081
5402.684
5421.818
5438.91
5453.785
5466.762
5478.493
5489.702
5500.877
5512.294
5524.264
5537.135
5551.205
5566.724
5583.884
5602.851
5623.659
5646.217
5670.34
5695.783
5722.259
5749.474
5777.144
5805.012
5832.862
5860.514
5887.818
5914.641
5940.872
5966.441
5991.313
6015.493
6039.091
6062.248
6085.05
6107.458
6129.448
6150.261
6169.841
6189.109
6207.904
6226.266
6244.711
6263.292
6282.083
6301.173
6320.591
6340.307
6360.242
6380.262
6400.203
6419.871
6439.04
6457.468
6474.93
6491.251
6506.274
6519.925
6532.343
6543.931
6555.278
6566.763
6578.355
6589.782
6600.746
6611.025
6620.485
6629.103
6636.931
6644.033
6650.484
6656.356
6661.73
6666.661
6671.205
6675.364
6679.176
6682.625
6685.626
6688.235
6690.29
6691.852
6692.866
6693.351
6693.283
6692.329
6691.155
6688.434
6684.198
6679.085
6673.376
6667.104
6660.369
6653.376
6646.292
6639.335
6632.772
6626.923
6622.082
6618.426
6615.671
6615.111
6615.459
6616.58
6618.18
6620.053
6622.268
6624.894
6628.813
6633.962
6640.115
6646.713
6653.336
6659.826
6666.063
6672.053
6677.766
6683.273
6688.847
6694.921
6702.078
6710.712
6720.251
6729.662
6738.214
6745.883
6752.291
6757.938
6762.85
6766.977
6770.448
6773.3
6775.6
6777.427
6778.854
6779.946
6780.744
6781.284
6781.605
6781.726
6781.629
6781.351
6781.016
6780.71
6780.487
6780.551
6781.009
6781.865
6783.095
6784.714
6786.712
6788.983
6791.298
6793.089
6793.535
6791.364
6787.969
6787.616
6787.77
6787.275
6786.05
6784.444
6782.731
6781.165
6779.699
6778.984
6778.527
6778.437
6778.754
6779.492
6780.662
6782.267
6784.312
6786.806
6789.744
6793.106
6796.859
6800.971
6805.386
6810.044
6814.881
6819.793
6824.76
6829.727
6834.661
6839.534
6844.286
6848.904
6853.412
6857.705
6861.889
6865.92
6869.808
6873.551
6877.146
6880.578
6883.825
6886.868
6889.672
6892.155
6894.245
6895.881
6897.044
6897.893
6898.525
6899.029
6899.364
6899.652
6900.211
6901.278
6902.047
6902.085
6901.631
6901.049
6900.57
6900.372
6900.215
6900.088
6899.971
6899.873
6899.791
6899.687
6899.568
6899.475
6899.39
6899.317
6899.327
6899.474
6899.714
6899.985
6900.242
6900.44
6900.532
6900.48
6900.255
6899.84
6899.216
6898.361
6897.261
6895.906
6894.299
6892.462
6890.453
6888.393
6886.359
6884.378
6882.452
6880.567
6878.684
6876.763
6874.783
6872.73
6870.62
6868.494
6866.364
6864.241
6862.174
6860.157
6858.196
6856.277
6854.422
6852.587
6850.788
6848.977
6847.169
6845.323
6843.434
6841.475
6839.438
6837.314
6835.096
6832.777
6830.353
6827.817
6825.166
6822.396
6819.503
6816.483
6813.332
6810.042
6806.608
6803.019
6799.269
6795.342
6791.237
6786.944
6782.51
6778.005
6773.689
6769.851
6767.077
6765.73
6766.928
6770.515
3509.841
3483.341
3468.857
3454.338
3447.524
3454.802
3475.083
3512.367
3564.885
3601.911
3627.209
3673.159
3741.818
3830.741
3937.651
4061.573
4200.459
4353.221
4519.519
4697.725
4886.824
5084.91
5289.147
5496.483
5703.323
5905.591
6100.318
6281.151
6444.962
6587.424
6706.695
6810.903
6860.8
6871.64
6843.527
6782.193
6690.867
6572.532
6430.928
6270.437
6095.711
5910.12
5717.231
5520.717
5324.306
5130.968
4943.221
4763.033
4591.859
4430.006
4277.995
4136.473
4004.538
3882.154
3769.702
3667.277
3574.656
3491.232
3415.911
3347.654
3285.716
3229.389
3178.844
3134.568
3096.673
3064.684
3037.251
3013.182
2989.53
2970.459
2955.645
2942.222
2931.01
2923.435
2919.461
2917.845
2917.34
2917.973
2920.609
2925.362
2932.873
2943.765
2957.773
2972.967
2988.951
3006.287
3025.726
3048.439
3073.942
3101.015
3131.215
3164.249
3198.976
3235.128
3273.212
3313.559
3355.659
3398.756
3442.212
3485.061
3525.922
3564.034
3599.235
3631.339
3659.639
3684.196
3705.841
3725.279
3743.843
3763.185
3784.198
3807.388
3833.413
3862.699
3895.609
3931.835
3970.408
4010.68
4052.376
4095.054
4137.783
4179.302
4217.859
4252.301
4282.013
4305.682
4319.653
4322.386
4318.025
4310.066
4305.44
4301.364
4301.01
4307.69
4323.297
4347.916
4380.66
4420.463
4466.381
4517.361
4572.296
4629.961
4689.16
4748.974
4808.907
4868.743
4927.813
4984.891
5038.657
5087.667
5128.517
5157.409
5174.104
5180.526
5178.64
5175.222
5177.217
5185.12
5196.06
5207.573
5218.853
5230.366
5242.961
5257.24
5273.425
5291.494
5311.444
5333.14
5356.104
5379.529
5402.378
5423.573
5442.229
5457.958
5470.982
5481.918
5491.637
5500.884
5510.215
5520.289
5531.65
5544.691
5559.706
5576.773
5595.994
5617.375
5640.802
5666.061
5692.848
5720.8
5749.525
5778.642
5807.811
5836.754
5865.26
5893.177
5920.396
5946.851
5972.511
5997.362
6021.42
6044.748
6067.436
6089.532
6111.029
6131.817
6151.522
6170.538
6188.78
6206.425
6224.072
6241.892
6259.942
6278.39
6297.341
6316.81
6336.754
6357.085
6377.669
6398.318
6418.794
6438.806
6458.046
6476.254
6493.246
6508.851
6523.096
6536.163
6548.357
6560.035
6571.446
6582.646
6593.55
6604.03
6613.974
6623.304
6631.994
6640.06
6647.533
6654.443
6660.818
6666.686
6672.058
6676.952
6681.362
6685.301
6688.742
6691.662
6694.02
6695.813
6697.004
6697.606
6697.441
6696.62
6694.823
6691.538
6686.997
6681.612
6675.606
6669.058
6662.022
6654.607
6646.97
6639.284
6631.758
6624.651
6618.341
6613.196
6609.452
6607.125
6606.412
6607.154
6608.979
6611.638
6614.778
6618.267
6622.287
6627.267
6633.189
6639.83
6646.907
6654.182
6661.479
6668.749
6676.06
6683.353
6690.613
6697.927
6705.442
6713.244
6721.493
6730.174
6738.78
6746.651
6753.629
6759.666
6764.814
6769.222
6772.467
6775.161
6777.256
6778.789
6779.857
6780.545
6780.921
6781.042
6780.941
6780.637
6780.165
6779.513
6778.708
6777.992
6777.488
6777.002
6776.942
6777.571
6778.853
6780.686
6782.992
6785.711
6788.661
6791.56
6794.28
6796.545
6798.537
6800.225
6798.053
6795.111
6792.083
6789.033
6786.188
6783.636
6781.25
6779.468
6778.181
6777.618
6777.532
6777.82
6778.499
6779.607
6781.169
6783.21
6785.741
6788.762
6792.267
6796.232
6800.608
6805.326
6810.306
6815.443
6820.63
6825.8
6830.904
6835.91
6840.794
6845.515
6850.08
6854.445
6858.715
6862.807
6866.679
6870.431
6874.056
6877.541
6880.865
6884.013
6886.974
6889.661
6892.063
6894.118
6895.808
6897.131
6898.16
6898.961
6899.606
6900.123
6900.571
6900.946
6901.129
6901.01
6900.667
6900.334
6900.135
6900.043
6900.019
6899.937
6899.773
6899.557
6899.322
6899.09
6898.867
6898.669
6898.516
6898.422
6898.411
6898.506
6898.697
6898.932
6899.153
6899.313
6899.381
6899.327
6899.129
6898.769
6898.238
6897.538
6896.671
6895.627
6894.395
6892.985
6891.432
6889.793
6888.126
6886.464
6884.849
6883.218
6881.562
6879.854
6878.067
6876.193
6874.248
6872.238
6870.187
6868.111
6866.026
6863.955
6861.909
6859.896
6857.919
6855.989
6854.102
6852.217
6850.345
6848.47
6846.522
6844.555
6842.513
6840.407
6838.218
6835.939
6833.564
6831.088
6828.508
6825.819
6823.017
6820.102
6817.068
6813.915
6810.639
6807.237
6803.708
6800.049
6796.264
6792.365
6788.38
6784.37
6780.445
6776.766
6773.555
6771.049
6769.537
6769.3
6770.12
3947.464
3907.129
3868.798
3828.234
3784.928
3739.75
3697.919
3657.257
3618.422
3581.837
3547.55
3517.011
3490.165
3468.722
3453.376
3444.775
3447.603
3460.798
3483.453
3512.694
3546.097
3589.52
3647.998
3721.344
3813.762
3922.774
4047.872
4188.174
4342.573
4509.898
4688.92
4877.822
5074.605
5276.366
5480.903
5684.901
5884.263
6079.003
6258.477
6419.43
6556.216
6663.529
6733.687
6776.52
6784.611
6755.572
6692.626
6599.527
6479.821
6337.346
6176.269
6001.049
5815.615
5623.679
5428.718
5234.275
5043.26
4858.053
4680.858
4513.074
4355.014
4206.343
4067.463
3938.975
3820.63
3712.263
3613.966
3525.633
3446.505
3375.39
3310.958
3252.051
3198.282
3149.869
3107.491
3071.703
3042.326
3017.664
2996.038
2976.111
2957.75
2941.261
2927.28
2917.544
2911.864
2909.585
2909.007
2908.543
2908.487
2909.755
2913.389
2921.314
2933.716
2948.082
2964.93
2979.803
2995.529
3013.552
3035.082
3060.066
3087.758
3120.133
3154.609
3189.422
3225.68
3264.591
3306.638
3351.076
3397.407
3444.921
3491.798
3535.623
3575.349
3611.35
3643.574
3670.706
3692.23
3710.128
3725.476
3740.631
3757.036
3775.012
3795.67
3819.949
3848.238
3881.501
3919.536
3960.745
4003.68
4048.032
4093.252
4138.248
4181.194
4219.462
4251.362
4276.531
4293.441
4301.492
4299.495
4287.658
4271.688
4254.164
4244.139
4242.714
4251.036
4269.718
4298.606
4336.828
4383.082
4436.206
4494.984
4558.327
4624.645
4691.952
4758.677
4823.922
4887.102
4947.463
5004.018
5055.552
5100.81
5138.298
5165.957
5183.191
5190.929
5193.236
5192.253
5192.623
5196.058
5201.967
5209.134
5216.887
5225.394
5235.452
5247.83
5262.885
5280.721
5301.435
5324.923
5350.61
5377.359
5403.65
5427.855
5448.532
5464.941
5477.329
5486.563
5494.056
5500.681
5507.134
5514.717
5524.187
5535.844
5549.929
5566.63
5586.012
5607.979
5632.375
5658.957
5687.367
5717.157
5747.826
5778.874
5809.847
5840.375
5870.187
5899.107
5927.045
5953.972
5979.881
6004.78
6028.699
6051.697
6073.87
6095.239
6115.757
6135.368
6154.073
6172.07
6189.045
6205.441
6222.07
6238.937
6256.241
6274.217
6292.975
6312.496
6332.716
6353.553
6374.866
6396.43
6417.931
6438.991
6459.218
6478.277
6495.987
6512.258
6527.125
6540.728
6553.312
6565.153
6576.469
6587.369
6597.867
6607.941
6617.565
6626.722
6635.409
6643.639
6651.42
6658.754
6665.627
6672.023
6677.915
6683.28
6688.086
6692.317
6695.938
6698.94
6701.296
6702.961
6703.896
6704.007
6703.159
6701.263
6698.098
6693.557
6687.93
6681.474
6674.325
6666.623
6658.539
6650.255
6641.871
6633.451
6625.152
6617.182
6610.014
6604.049
6598.901
6595.25
6596.086
6598.807
6601.942
6605.58
6609.816
6614.462
6619.567
6625.331
6631.74
6638.7
6646.096
6653.849
6662
6670.477
6679.185
6688
6696.788
6705.54
6714.25
6722.871
6731.411
6739.871
6748.043
6755.542
6762.126
6767.686
6772.248
6775.77
6778.842
6780.875
6782.229
6782.991
6783.265
6783.166
6782.797
6782.234
6781.506
6780.617
6779.574
6778.333
6776.795
6775.63
6775.074
6774.063
6773.711
6774.494
6776.198
6778.516
6781.229
6784.464
6788.2
6792.167
6795.771
6798.252
6799.205
6798.379
6796.973
6794.81
6791.937
6788.737
6785.527
6782.678
6779.851
6777.657
6776.36
6775.883
6775.913
6776.25
6776.871
6777.908
6779.431
6781.467
6784.015
6787.084
6790.698
6794.863
6799.541
6804.628
6810.009
6815.541
6821.087
6826.554
6831.881
6837.039
6842.014
6846.793
6851.366
6855.72
6859.883
6863.819
6867.629
6871.28
6874.817
6878.22
6881.477
6884.574
6887.463
6890.091
6892.425
6894.449
6896.161
6897.567
6898.703
6899.606
6900.315
6900.844
6901.207
6901.39
6901.405
6901.313
6901.222
6901.158
6901.088
6900.971
6900.78
6900.488
6900.1
6899.647
6899.162
6898.678
6898.23
6897.861
6897.611
6897.508
6897.555
6897.727
6897.977
6898.238
6898.445
6898.546
6898.511
6898.323
6897.977
6897.479
6896.825
6896.026
6895.11
6894.089
6892.97
6891.767
6890.498
6889.182
6887.832
6886.448
6885.053
6883.64
6882.204
6880.708
6879.132
6877.472
6875.773
6873.959
6872.065
6870.115
6868.124
6866.109
6864.091
6862.075
6860.071
6858.089
6856.123
6854.153
6852.181
6850.175
6848.186
6846.173
6843.988
6841.787
6839.508
6837.153
6834.707
6832.167
6829.528
6826.789
6823.946
6820.999
6817.946
6814.786
6811.52
6808.15
6804.678
6801.111
6797.462
6793.752
6790.022
6786.331
6782.768
6779.454
6776.514
6774.116
6772.356
6771.33
6770.682
4368.91
4320.025
4274.466
4230.317
4191.147
4146.558
4107.796
4069.264
4030.54
3991.198
3951.902
3912.538
3871.709
3830.889
3788.253
3740.465
3698.868
3658.484
3619.553
3582.439
3547.735
3516.057
3487.979
3464.61
3446.334
3434.27
3428.937
3433.836
3447.695
3470.228
3502.126
3545.935
3603.555
3677.834
3768.97
3876.308
3999.361
4137.339
4289.234
4453.901
4629.999
4814.896
5006.079
5202.058
5401.345
5601.159
5798.469
5988.278
6164.135
6320.514
6452.376
6555.971
6626.258
6662.86
6664.17
6629.744
6561.886
6464.365
6341.271
6196.596
6034.5
5859.168
5674.7
5484.934
5292.959
5102.345
4916.204
4736.561
4565.429
4403.862
4252.152
4110.025
3977.479
3855.219
3742.905
3640.127
3547.262
3464.718
3391.6
3326.094
3266.506
3211.554
3160.701
3114.415
3074.261
3041.62
3016.235
2996.067
2977.901
2959.672
2941.131
2923.683
2907.97
2898.892
2898.543
2898.125
2898.625
2897.714
2896.264
2895.716
2898.249
2906.984
2922.258
2937.178
2954.059
2967.672
2981.495
2997.488
3017.835
3042.67
3069.61
3104.159
3142.116
3176.129
3211.342
3251.247
3296.302
3344.227
3394.978
3448.206
3500.858
3549.055
3591.811
3629.84
3662.349
3686.881
3702.732
3715.872
3726.396
3736.913
3749.063
3762.276
3778.807
3800.393
3827.415
3862.141
3903.472
3948.255
3993.954
4041.695
4091.329
4141.115
4187.498
4226.644
4256.926
4279.17
4289.507
4293.092
4283.901
4256.624
4223.14
4192.854
4174.699
4170.513
4180.33
4202.602
4236.356
4280.654
4334.135
4396.018
4464.335
4537.809
4614.608
4691.773
4766.879
4838.698
4906.6
4969.899
5027.741
5079.12
5123.106
5158.845
5185.21
5201.927
5210.441
5211.094
5208.917
5206.682
5206.113
5207.421
5210.104
5213.722
5218.423
5225.29
5235.315
5248.962
5266.505
5288.308
5314.356
5343.833
5375.183
5406.314
5434.805
5458.294
5475.461
5486.626
5492.829
5496.951
5500.291
5502.938
5507.205
5514.247
5524.341
5537.512
5553.813
5573.313
5595.892
5621.364
5649.447
5679.724
5711.655
5744.621
5777.984
5811.148
5843.639
5875.114
5905.36
5934.293
5961.91
5988.239
6013.318
6037.191
6059.889
6081.506
6102.124
6121.729
6140.258
6157.733
6174.253
6189.867
6204.944
6220.133
6235.797
6252.166
6269.522
6288.017
6307.564
6328.04
6349.382
6371.462
6394.072
6416.852
6439.28
6460.827
6481.047
6499.661
6516.612
6532.019
6546.044
6558.927
6570.909
6582.172
6592.849
6603.02
6612.74
6622.054
6630.998
6639.606
6647.901
6655.886
6663.544
6670.839
6677.721
6684.129
6690.002
6695.277
6699.906
6703.843
6707.059
6709.521
6711.175
6711.906
6711.583
6710.045
6707.194
6702.95
6697.336
6690.513
6682.741
6674.247
6665.215
6655.896
6646.636
6637.455
6628.156
6618.642
6608.333
6594.916
6580.164
6578.52
6584.414
6588.737
6591.142
6594.674
6599.362
6604.708
6610.415
6616.43
6622.889
6629.836
6637.271
6645.172
6653.51
6662.392
6671.843
6681.728
6691.908
6702.045
6712.133
6722.034
6731.611
6740.872
6749.684
6757.866
6765.17
6771.428
6776.578
6780.644
6783.673
6785.789
6787.157
6787.726
6787.657
6787.08
6786.144
6784.985
6783.703
6782.324
6780.829
6779.255
6777.609
6775.441
6773.361
6772.373
6770.757
6769.813
6770.546
6771.922
6774.323
6778.727
6783.482
6788.03
6792.749
6797.226
6800.45
6801.857
6801.425
6799.786
6797.159
6793.89
6789.995
6786.078
6782.553
6778.587
6775.643
6773.845
6773.207
6772.485
6773.017
6774.569
6775.931
6777.417
6779.428
6781.982
6785.052
6788.728
6793.071
6798.02
6803.47
6809.271
6815.232
6821.179
6826.982
6832.571
6837.929
6843.066
6847.964
6852.6
6856.988
6861.143
6865.035
6868.706
6872.237
6875.712
6879.097
6882.346
6885.437
6888.318
6890.92
6893.207
6895.209
6896.936
6898.375
6899.544
6900.466
6901.146
6901.618
6901.894
6901.979
6901.937
6901.846
6901.748
6901.634
6901.484
6901.278
6900.987
6900.581
6900.046
6899.406
6898.7
6897.977
6897.312
6896.788
6896.458
6896.366
6896.508
6896.824
6897.219
6897.58
6897.828
6897.912
6897.807
6897.505
6897.02
6896.376
6895.594
6894.712
6893.757
6892.748
6891.699
6890.623
6889.536
6888.457
6887.405
6886.368
6885.287
6884.143
6882.973
6881.738
6880.4
6878.929
6877.367
6875.712
6873.992
6872.197
6870.335
6868.423
6866.508
6864.545
6862.553
6860.547
6858.526
6856.488
6854.428
6852.33
6850.201
6847.982
6845.811
6843.552
6841.136
6838.678
6836.144
6833.529
6830.821
6828.019
6825.123
6822.133
6819.049
6815.874
6812.61
6809.262
6805.838
6802.35
6798.816
6795.261
6791.72
6788.252
6784.913
6781.808
6778.99
6776.617
6774.635
6773.144
6771.516
4608.505
4587.263
4536.591
4475.373
4415.466
4362.253
4313.768
4269.298
4228.343
4187.536
4142.803
4104.682
4066.911
4028.855
3990.224
3951.024
3911.15
3870.348
3828.827
3787.395
3746.776
3705.539
3664.956
3625.415
3587.285
3551.011
3516.728
3484.758
3456.464
3432.971
3415.345
3405.34
3404.075
3412.498
3431.705
3462.394
3506.181
3564.47
3638.347
3728.261
3833.961
3954.988
4090.715
4239.94
4400.983
4571.535
4750.206
4935.493
5126.962
5322.824
5518.898
5711.204
5894.565
6062.978
6210.736
6332.799
6425.19
6484.349
6508.522
6497.886
6453.431
6377.525
6273.724
6146.203
5999.079
5836.494
5662.251
5480.323
5294.595
5108.222
4923.772
4743.899
4571.43
4408.54
4255.92
4113.829
3982.513
3861.037
3748.304
3644.054
3548.576
3462.855
3387.89
3322.692
3264.604
3211.575
3161.964
3114.573
3069.902
3031.335
3003.159
2984.349
2970.791
2957.306
2940.708
2921.19
2901.581
2885.414
2877.11
2879.998
2886.37
2887.398
2884.555
2880.831
2878.142
2879.114
2888.27
2908.095
2925.559
2938.946
2951.285
2963.935
2977.731
2997.202
3023.597
3050.419
3083.792
3124.356
3159.495
3192.073
3232.168
3281.456
3333.934
3390.951
3453.16
3514.492
3566.803
3611.927
3653.974
3690.299
3713.992
3721.338
3723.924
3724.654
3729.158
3737.643
3744.623
3756.071
3775.299
3798.297
3834.799
3882.24
3933.501
3981.991
4032.938
4087.82
4147.093
4201.134
4242.797
4270.806
4290.08
4298.24
4297.135
4281.754
4232.303
4169.413
4119.525
4089.868
4082.292
4094.731
4122.202
4162.754
4214.834
4275.319
4345.381
4423.936
4510.081
4600.314
4689.559
4774.548
4854.181
4928.116
4995.705
5056.053
5108.526
5152.802
5188.266
5213.649
5228.389
5233.605
5231.601
5226.11
5220.109
5215.348
5212.118
5210.259
5209.492
5209.611
5212.425
5219.268
5230.816
5247.568
5270.482
5299.8
5334.4
5372.236
5410.467
5445.28
5472.771
5490.812
5500.037
5502.797
5501.718
5498.778
5496.529
5496.769
5500.718
5508.823
5521.002
5536.931
5556.675
5580.081
5606.873
5636.768
5669.318
5703.872
5739.655
5775.849
5811.669
5846.494
5879.919
5911.731
5941.884
5970.382
5997.235
6022.516
6046.338
6068.785
6089.965
6109.953
6128.672
6146.022
6162.181
6177.325
6191.34
6204.469
6217.757
6231.964
6247.241
6263.92
6282.176
6301.77
6322.506
6344.264
6366.971
6390.795
6415.227
6439.348
6462.425
6483.954
6503.608
6521.271
6537.119
6551.432
6564.521
6576.626
6587.878
6598.398
6608.3
6617.701
6626.7
6635.387
6643.897
6652.238
6660.376
6668.3
6675.972
6683.315
6690.235
6696.632
6702.412
6707.495
6711.814
6715.335
6718.031
6719.846
6720.597
6720.073
6718.012
6714.37
6709.125
6702.299
6694.075
6684.829
6674.888
6664.45
6653.736
6643.632
6633.802
6623.011
6607.92
6568.871
6553.885
6562.299
6578.166
6579.522
6579.463
6582.212
6586.987
6593.018
6599.554
6606.213
6612.899
6619.914
6627.319
6635.17
6643.567
6652.585
6662.345
6672.927
6684.182
6695.935
6707.495
6718.871
6730.091
6740.677
6750.515
6759.564
6767.737
6774.896
6780.913
6785.719
6789.328
6791.813
6793.258
6793.757
6793.41
6792.387
6790.857
6789.013
6787.041
6785.084
6783.163
6781.214
6779.301
6777.545
6775.022
6771.232
6768.948
6765.704
6759.307
6750.567
6757.131
6770.251
6777.475
6781.77
6786.535
6792.264
6797.133
6797.734
6800.381
6803.764
6803.598
6800.526
6796.295
6791.553
6786.932
6782.167
6775.624
6764.926
6739.125
6741.039
6761.397
6771.49
6772.756
6773.394
6774.493
6775.988
6778.718
6782.33
6786.273
6790.771
6795.991
6801.861
6808.176
6814.664
6821.092
6827.293
6833.179
6838.745
6844.059
6849.111
6853.853
6858.328
6862.527
6866.378
6869.93
6873.351
6876.81
6880.179
6883.351
6885.962
6888.4
6891.417
6894.292
6896.447
6898.13
6899.518
6900.562
6901.449
6902.168
6902.635
6902.787
6902.72
6902.521
6902.276
6902.038
6901.836
6901.66
6901.454
6901.142
6900.653
6899.965
6899.11
6898.145
6897.158
6896.268
6895.572
6895.126
6895.043
6895.32
6895.851
6896.478
6897.031
6897.393
6897.507
6897.364
6896.972
6896.364
6895.602
6894.684
6893.695
6892.672
6891.63
6890.597
6889.59
6888.619
6887.692
6886.808
6885.961
6885.179
6884.412
6883.594
6882.674
6881.642
6880.481
6879.172
6877.706
6876.154
6874.519
6872.797
6870.978
6869.099
6867.169
6865.202
6863.191
6861.141
6859.05
6856.916
6854.734
6852.509
6850.226
6847.9
6845.47
6843.028
6840.486
6837.83
6835.121
6832.337
6829.466
6826.507
6823.465
6820.341
6817.14
6813.866
6810.529
6807.138
6803.71
6800.261
6796.821
6793.417
6790.099
6786.899
6783.911
6781.14
6778.736
6776.551
6774.71
6772.363
4589.341
4553.767
4482.591
4431.341
4381.967
4336.472
4294.239
4254.511
4216.467
4179.712
4144.106
4107.832
4071.216
4033.918
3995.947
3957.061
3917.209
3876.335
3834.412
3791.942
3750.304
3708.885
3667.859
3627.556
3587.594
3548.033
3509.969
3474.244
3441.881
3414.77
3394.487
3381.882
3378.056
3384.034
3401.11
3430.384
3473.246
3530.696
3603.431
3691.809
3795.639
3914.412
4047.391
4192.613
4347.561
4511.088
4683.473
4864.468
5051.583
5241.959
5431.463
5615.29
5788.096
5944.163
6078.053
6185.05
6261.537
6304.979
6314.112
6289.472
6232.917
6147.237
6036.346
5904.157
5755.07
5593.436
5422.645
5246.041
5066.27
4886.304
4709.007
4536.712
4372.591
4219.625
4078.703
3949.736
3832.385
3725.09
3624.745
3529.733
3441.459
3363.709
3298.007
3242.252
3192.669
3146.899
3103.529
3060.74
3018.342
2981.294
2953.989
2943.577
2941.984
2932.222
2919.44
2899.94
2878.158
2859.886
2851.157
2857.397