/*--------------------------------*- C++ -*----------------------------------*\
| =========                 |                                                 |
| \\      /  F ield         | foam-extend: Open Source CFD                    |
|  \\    /   O peration     | Version:     3.1                                |
|   \\  /    A nd           | Web:         http://www.extend-project.de       |
|    \\/     M anipulation  |                                                 |
\*---------------------------------------------------------------------------*/
FoamFile
{
    version     2.0;
    format      ascii;
    class       volScalarField;
    location    "1";
    object      k;
}
// * * * * * * * * * * * * * * * * * * * * * * * * * * * * * * * * * * * * * //

dimensions      [0 2 -2 0 0 0 0];

internalField   nonuniform List<scalar> 
119952
(
0.01656052
0.01337277
0.01333876
0.01444906
0.01515598
0.01509036
0.01521013
0.01535543
0.01547392
0.01555341
0.01559579
0.01560677
0.01559255
0.01555863
0.01550953
0.01544926
0.01538193
0.01531341
0.01525884
0.01529825
0.01712261
0.01666531
0.01665851
0.01859064
0.018032
0.01775081
0.01748026
0.01721393
0.01646494
0.01932694
0.01740472
0.01440463
0.01453709
0.01564972
0.01695966
0.01818255
0.01926453
0.02022258
0.02108694
0.02203824
0.02476862
0.02841572
0.03182111
0.03480218
0.03733553
0.03949336
0.04136256
0.04301953
0.04450885
0.05286157
0.05400296
0.05525753
0.05662771
0.05805915
0.05948705
0.06086427
0.0621671
0.06338783
0.06450355
0.06545007
0.06633736
0.06725028
0.06822072
0.06924045
0.07028501
0.07133275
0.07238037
0.07348744
0.07415385
0.07427732
0.0745426
0.07490904
0.07524085
0.0754622
0.07563746
0.07579987
0.07594957
0.07608232
0.07620328
0.07631437
0.07641179
0.07649549
0.07656704
0.07662889
0.0766857
0.07674767
0.07683987
0.07700264
0.07724683
0.07750354
0.07784257
0.07836644
0.07879389
0.07894953
0.07891359
0.07861837
0.07777132
0.07650073
0.07590375
0.07543154
0.07499172
0.07458148
0.07420893
0.07387575
0.07357915
0.07331429
0.07307596
0.0728595
0.07266106
0.07247762
0.07230668
0.07214616
0.07199423
0.07184925
0.07170973
0.07157431
0.07144176
0.07131091
0.07118066
0.07104991
0.07091756
0.07078273
0.07064463
0.07050249
0.0703559
0.07020515
0.07005121
0.06989569
0.06974054
0.06958765
0.0694384
0.06929346
0.06915276
0.06901565
0.06888118
0.06874834
0.06861629
0.06848441
0.06835244
0.06822035
0.06808835
0.06795677
0.06782602
0.06769665
0.06756951
0.06744732
0.0673433
0.0672848
0.06713173
0.06684794
0.0664802
0.06607253
0.065656
0.06524867
0.06485997
0.06449391
0.06415135
0.06383137
0.06353217
0.0632521
0.06298914
0.0627406
0.06250419
0.06227817
0.0620611
0.06185165
0.0616486
0.06145088
0.06125751
0.06106766
0.0608806
0.06069568
0.06051237
0.06033022
0.06014889
0.05996811
0.05978758
0.05960706
0.05942631
0.05924514
0.05906343
0.05888128
0.05869897
0.05851686
0.05833536
0.05815413
0.05797559
0.05780006
0.05762718
0.05745721
0.05729015
0.05712587
0.05696411
0.05680464
0.05664743
0.05649521
0.0563639
0.05306992
0.04906935
0.0474678
0.04637743
0.0454759
0.04470215
0.04403406
0.04345392
0.04294521
0.04249393
0.04208976
0.04172152
0.0413809
0.04106266
0.04076246
0.04047676
0.04020275
0.03993818
0.03968123
0.03943048
0.03918478
0.03894324
0.03870515
0.03846988
0.03823708
0.03800655
0.03777816
0.03755189
0.03732787
0.03710641
0.03688816
0.0366743
0.03646838
0.03627338
0.03611239
0.03612943
0.03659355
0.03709297
0.03755383
0.03796916
0.03834272
0.03868229
0.03899569
0.03928915
0.03956745
0.03983383
0.0400907
0.04033962
0.04058182
0.04081817
0.04104935
0.04127589
0.04149827
0.04171688
0.04193206
0.04214412
0.04235331
0.04255987
0.04276402
0.04296593
0.04316584
0.04336384
0.04356016
0.04375479
0.0439479
0.04413954
0.04432966
0.04451819
0.04470552
0.04489131
0.05207064
0.05217308
0.05232612
0.05262727
0.0530905
0.05368082
0.05434316
0.05502698
0.05569566
0.05632673
0.05690908
0.05743995
0.05792113
0.05835676
0.05875192
0.05911193
0.05944185
0.05974634
0.0600295
0.06029489
0.06054553
0.06078389
0.06101206
0.06123172
0.0614443
0.061651
0.0618528
0.06205052
0.06224482
0.06243622
0.06262506
0.06281157
0.06299585
0.06317789
0.06335762
0.06353489
0.06370951
0.06388117
0.06404953
0.06421415
0.0643745
0.06452983
0.06467896
0.06482054
0.06495027
0.0650606
0.06514514
0.06521905
0.06528757
0.06535327
0.06541737
0.06548041
0.06554297
0.06560877
0.06557922
0.06548158
0.06542123
0.06544876
0.06558385
0.06581881
0.06612848
0.06648211
0.06685186
0.06721723
0.06756546
0.06789
0.06818857
0.06846158
0.06871085
0.06893886
0.06914827
0.06934165
0.06952137
0.06968954
0.06984805
0.06999853
0.07014243
0.07028102
0.07041541
0.07054654
0.07067524
0.07080219
0.0709279
0.07105278
0.07117706
0.07130088
0.07142427
0.07154716
0.0716694
0.07179076
0.07191091
0.07202944
0.0721459
0.0722598
0.07237068
0.07247816
0.07258197
0.07268193
0.07277803
0.07287033
0.07295904
0.07304439
0.0731267
0.07320632
0.07328357
0.07335879
0.0734323
0.07350439
0.07357535
0.0736454
0.07371476
0.07378362
0.07385216
0.07392052
0.07398883
0.07405722
0.0741258
0.0741947
0.07426403
0.07433394
0.07440455
0.07447606
0.07454864
0.07462256
0.07469812
0.0747757
0.07485579
0.07493906
0.07502641
0.0751191
0.07521901
0.07532902
0.07545388
0.0756017
0.07578826
0.07604787
0.07646046
0.07722641
0.077902
0.01506653
0.014062
0.01488171
0.0162052
0.01752697
0.01870209
0.01973251
0.02064975
0.0215095
0.02309343
0.02691321
0.0306648
0.03400123
0.03683769
0.039224
0.04125991
0.04303866
0.04463361
0.05332275
0.05447505
0.05574152
0.05714507
0.05863831
0.06014701
0.06161243
0.06300186
0.0643033
0.06551368
0.06656096
0.06748985
0.06842522
0.06942409
0.07048736
0.07158672
0.0726889
0.07376824
0.07481024
0.07559004
0.0761936
0.07687099
0.07762377
0.0784489
0.07933076
0.08024705
0.0811756
0.08209838
0.08299976
0.08384955
0.084644
0.08540791
0.08617061
0.08695041
0.08775182
0.08856933
0.08939192
0.09019216
0.09803829
0.09880222
0.09949171
0.1001365
0.100757
0.1013626
0.1019499
0.1025243
0.1030945
0.1036586
0.1042105
0.1047464
0.1052675
0.1057793
0.1062878
0.106798
0.1073131
0.1078317
0.1083424
0.108782
0.1091404
0.1094564
0.1097207
0.1099187
0.1100561
0.1101522
0.1102237
0.1102822
0.1103355
0.1103876
0.1104406
0.1104954
0.1105518
0.1106116
0.110678
0.110755
0.1108447
0.1109522
0.1110833
0.1112362
0.1114073
0.1116052
0.1118128
0.1119695
0.1120405
0.1120134
0.1118646
0.1116087
0.1113847
0.111219
0.1110782
0.1109423
0.1108
0.1106479
0.1104863
0.1103178
0.1101453
0.1099716
0.1097994
0.1096309
0.1094678
0.1093111
0.1091616
0.1090193
0.108884
0.1087551
0.1086317
0.108513
0.1083977
0.1082848
0.108173
0.1080613
0.1079485
0.107834
0.1077171
0.1075977
0.1074764
0.1073539
0.1072314
0.1071102
0.1069918
0.106877
0.1067664
0.1066603
0.1065585
0.1064603
0.1063651
0.1062724
0.1061815
0.1060922
0.1060042
0.1059174
0.1058321
0.1057483
0.1056666
0.1055877
0.105513
0.1054443
0.1053874
0.1053423
0.1052979
0.1052443
0.1051759
0.1050911
0.1049907
0.1048769
0.1047524
0.1046199
0.1044816
0.1043397
0.1041959
0.1040513
0.1039066
0.1037626
0.1036195
0.1034777
0.1033372
0.1031979
0.1030599
0.1029229
0.1027868
0.1026513
0.1025163
0.1023815
0.1022467
0.1021119
0.1019769
0.1018416
0.101706
0.1015701
0.1014334
0.1012958
0.1011576
0.1010196
0.1008823
0.1007465
0.1006132
0.1004829
0.1003565
0.1002344
0.100117
0.1000045
0.09989675
0.09979377
0.09969545
0.09960186
0.09951288
0.09942802
0.09507423
0.09297583
0.09232156
0.09201911
0.09179058
0.09156694
0.0913344
0.09109394
0.09084984
0.09060637
0.09036679
0.09013308
0.08990633
0.08968701
0.0894751
0.08927029
0.08907208
0.08887992
0.08869319
0.08851132
0.0883338
0.08816015
0.0879899
0.0878231
0.0876592
0.08749835
0.08734052
0.08718589
0.08703486
0.08688809
0.0867467
0.08661269
0.08648983
0.08638574
0.08631708
0.08631053
0.08636102
0.08644809
0.0865597
0.08668901
0.08683143
0.08698336
0.08714193
0.08730482
0.08747015
0.08763645
0.08780257
0.0879676
0.08813088
0.0882919
0.08845033
0.08860597
0.08875869
0.08890847
0.08905533
0.08919934
0.08934058
0.08947917
0.08961524
0.08974893
0.08988038
0.09000973
0.09013711
0.09026263
0.09038632
0.09050814
0.09062794
0.09074543
0.0908597
0.09095787
0.09791179
0.09816264
0.09833145
0.09844871
0.09853967
0.0986241
0.09871573
0.09882261
0.098948
0.09909169
0.09925142
0.09942383
0.09960528
0.09979236
0.0999821
0.1001721
0.1003606
0.1005461
0.1007278
0.100905
0.1010775
0.1012467
0.1014137
0.1015788
0.1017423
0.1019042
0.1020647
0.1022241
0.1023824
0.1025397
0.102696
0.1028512
0.1030051
0.1031575
0.1033079
0.103456
0.1036013
0.1037432
0.1038812
0.1040146
0.1041427
0.1042648
0.1043799
0.104487
0.1045846
0.104671
0.1047469
0.1048143
0.1048748
0.1049295
0.1049794
0.105025
0.1050667
0.1051031
0.1051288
0.1051424
0.1051452
0.1051415
0.1051378
0.1051408
0.1051565
0.1051884
0.1052378
0.105304
0.105385
0.1054781
0.1055806
0.1056897
0.1058033
0.1059195
0.1060369
0.1061545
0.1062716
0.1063879
0.1065032
0.1066174
0.1067307
0.1068433
0.1069555
0.1070675
0.1071796
0.1072921
0.107405
0.1075186
0.1076327
0.1077473
0.1078622
0.1079771
0.1080916
0.1082052
0.1083175
0.1084277
0.1085353
0.1086398
0.1087405
0.1088371
0.1089291
0.1090165
0.1090991
0.109177
0.1092504
0.1093197
0.1093851
0.109447
0.1095059
0.1095621
0.1096161
0.1096682
0.1097189
0.1097683
0.1098169
0.1098648
0.1099122
0.1099594
0.1100066
0.1100538
0.1101013
0.1101492
0.1101976
0.1102467
0.1102967
0.1103478
0.1104001
0.1104541
0.1105101
0.1105684
0.1106297
0.1106947
0.1107645
0.1108403
0.1109241
0.1110188
0.1111284
0.1112595
0.1114217
0.1116298
0.1119025
0.1122398
0.1125269
0.02048149
0.01672181
0.01751398
0.01908608
0.02045707
0.02149889
0.02229
0.0229159
0.02344087
0.02409024
0.02683855
0.0304775
0.03377831
0.03658156
0.03890192
0.04083972
0.04250063
0.04397223
0.04530195
0.05363369
0.05467324
0.05587517
0.05723256
0.05867946
0.06013969
0.06155816
0.0629067
0.06417502
0.06534012
0.06633571
0.06729257
0.06830486
0.06940356
0.07057232
0.07177414
0.07297304
0.07414354
0.07527653
0.07593769
0.07667666
0.077494
0.07839187
0.07935919
0.0803715
0.08140177
0.08242681
0.08342955
0.08438652
0.08527461
0.08611459
0.08694149
0.08778325
0.08865003
0.08953735
0.09043231
0.0913079
0.09935215
0.1001886
0.1009329
0.1016158
0.1022555
0.1028683
0.1034762
0.1040866
0.1047001
0.1053122
0.1059142
0.1064997
0.1070684
0.1076263
0.1081808
0.1087386
0.1093034
0.1098756
0.1104521
0.1110249
0.111585
0.1121283
0.1126564
0.1131752
0.1136914
0.1142099
0.1147334
0.115262
0.1157936
0.1163236
0.116848
0.1173646
0.1178743
0.1183799
0.1188849
0.1193926
0.1199075
0.1204483
0.1208234
0.1212484
0.1216961
0.1221532
0.1226147
0.1230796
0.1235494
0.1240243
0.1245027
0.1249824
0.1254605
0.1259342
0.1264018
0.1268627
0.1273174
0.1277666
0.1282105
0.1286467
0.1290668
0.1294502
0.129792
0.1301007
0.1303721
0.1305979
0.1307779
0.1309195
0.1310321
0.1311237
0.1312015
0.1312706
0.1313351
0.1313979
0.1314612
0.1315272
0.131598
0.1316763
0.1317643
0.1318649
0.1319801
0.1321086
0.1322478
0.1323952
0.1325391
0.132654
0.1327152
0.1326939
0.1325967
0.1324421
0.1322999
0.1321924
0.1321057
0.1320256
0.1319424
0.13185
0.1317457
0.1316292
0.1315016
0.1313651
0.1312223
0.1310759
0.1309283
0.1307818
0.1306379
0.1304977
0.1303619
0.1302307
0.1301037
0.1299806
0.1298604
0.1297423
0.1296253
0.1295082
0.1293903
0.1292706
0.1291489
0.129025
0.1288995
0.128773
0.1286467
0.128522
0.1284001
0.1282819
0.1281681
0.1280591
0.1279546
0.1278543
0.1277577
0.127664
0.1275729
0.1274837
0.1273963
0.1273106
0.1272265
0.1271442
0.127064
0.1269863
0.1269118
0.126841
0.1267753
0.1267161
0.1266616
0.1266088
0.126554
0.1264948
0.1264289
0.1263553
0.1262739
0.1261848
0.1260887
0.1259864
0.1258788
0.1257666
0.1256506
0.1255314
0.1254097
0.125286
0.1251605
0.1250335
0.1249051
0.1247757
0.124645
0.1245132
0.1243802
0.124246
0.1241107
0.123974
0.1238363
0.1236974
0.1235573
0.1234164
0.1232748
0.1231331
0.1229915
0.1228509
0.1227119
0.1225754
0.1224421
0.1223129
0.1221884
0.1220692
0.1219557
0.1218479
0.121746
0.1216498
0.1215592
0.1214731
0.1213888
0.1212898
0.1210904
0.1210809
0.1210941
0.1210948
0.1210773
0.1210417
0.120989
0.1209208
0.1208388
0.1207448
0.1206407
0.1205283
0.120409
0.1202845
0.1201557
0.1200238
0.1198896
0.1197536
0.1196164
0.1194783
0.1193398
0.1192012
0.1190628
0.1189246
0.1187871
0.1186505
0.1185154
0.1183822
0.1182516
0.1181247
0.1180027
0.1178882
0.1177844
0.1176967
0.1176326
0.1175977
0.1175869
0.1175962
0.1176222
0.1176625
0.1177157
0.1177805
0.1178557
0.1179403
0.118033
0.1181329
0.1182385
0.1183488
0.1184627
0.1185793
0.1186976
0.118817
0.1189368
0.1190566
0.1191759
0.1192945
0.1194121
0.1195285
0.1196437
0.1197575
0.11987
0.1199811
0.1200908
0.120199
0.1203056
0.1204104
0.1205133
0.1206147
0.1207171
0.1208407
0.1208055
0.1208179
0.1208519
0.1208935
0.1209364
0.1209794
0.1210237
0.121072
0.1211267
0.1211899
0.1212628
0.1213461
0.1214395
0.1215428
0.121655
0.1217753
0.1219026
0.122036
0.1221745
0.1223173
0.1224637
0.1226129
0.1227643
0.1229176
0.1230723
0.1232283
0.1233853
0.1235433
0.123702
0.1238612
0.1240208
0.1241804
0.1243396
0.1244979
0.1246549
0.1248099
0.1249623
0.1251113
0.1252563
0.1253964
0.1255309
0.1256589
0.1257797
0.1258924
0.1259961
0.1260902
0.1261748
0.1262509
0.1263196
0.1263816
0.1264378
0.1264887
0.1265348
0.1265758
0.1266107
0.1266395
0.1266624
0.1266799
0.1266937
0.126706
0.1267195
0.126737
0.1267608
0.1267923
0.1268324
0.1268814
0.126939
0.1270045
0.127077
0.1271556
0.1272394
0.1273277
0.1274195
0.1275145
0.127612
0.1277118
0.1278138
0.1279177
0.1280236
0.1281314
0.1282412
0.128353
0.1284668
0.1285825
0.1286998
0.1288186
0.1289385
0.129059
0.1291796
0.1292996
0.1294185
0.1295355
0.1296498
0.1297608
0.1298678
0.1299704
0.130068
0.1301605
0.1302478
0.1303298
0.1304069
0.1304792
0.1305471
0.130611
0.1306714
0.1307288
0.1307835
0.1308361
0.1308868
0.1309362
0.1309844
0.1310319
0.1310788
0.1311254
0.1311719
0.1312185
0.1312653
0.1313125
0.1313604
0.1314091
0.1314587
0.1315096
0.131562
0.1316161
0.1316725
0.1317316
0.1317941
0.1318606
0.1319323
0.1320105
0.132097
0.1321944
0.1323061
0.1324367
0.132592
0.1327791
0.1330027
0.133251
0.1334609
0.03004055
0.03837255
0.04583901
0.06624742
0.07634273
0.09363309
0.09679964
0.09918588
0.1005485
0.1011148
0.1009658
0.1003794
0.09918067
0.09775188
0.0964777
0.09534051
0.09433576
0.09345385
0.0926853
0.09202503
0.09147154
0.09102082
0.09064828
0.09035599
0.09017442
0.09013146
0.09023761
0.0904848
0.09085286
0.091316
0.09183109
0.09946041
0.1000886
0.1006774
0.1012544
0.1018359
0.1024232
0.1030218
0.1036392
0.1042731
0.1049154
0.105556
0.1061908
0.1068223
0.1074575
0.1081039
0.1087659
0.1094436
0.1101334
0.1108265
0.1115102
0.1121755
0.1128199
0.1134477
0.1140662
0.1146818
0.1152984
0.115917
0.1165362
0.1171517
0.1177589
0.1183546
0.1189392
0.1195161
0.1200902
0.1206658
0.1212481
0.1218562
0.1222939
0.1227847
0.123298
0.123819
0.1243424
0.124868
0.1253955
0.1259247
0.1264557
0.1269871
0.1275166
0.1280417
0.1285609
0.1290739
0.1295824
0.1300885
0.1305942
0.1311011
0.1316094
0.1321183
0.1326258
0.1331291
0.1336258
0.1341154
0.1345987
0.1350772
0.1355527
0.1360262
0.1364982
0.1369683
0.1374356
0.1378992
0.1383586
0.1388142
0.1392668
0.139718
0.1401692
0.1406209
0.1410545
0.1414823
0.1419086
0.1423353
0.1427645
0.1432003
0.1436519
0.1441178
0.1445896
0.145063
0.1455356
0.1460055
0.1464714
0.1469322
0.1473869
0.1478346
0.1482738
0.1487013
0.1491109
0.1494924
0.1498425
0.150163
0.1504522
0.1507059
0.1509233
0.1511076
0.1512641
0.151398
0.1515144
0.1516179
0.1517123
0.1518007
0.1518861
0.1519708
0.1520572
0.1521476
0.152244
0.1523484
0.1524618
0.1525833
0.1527101
0.1528384
0.1529599
0.1530594
0.1531189
0.1531118
0.1530469
0.1529376
0.1528212
0.1527182
0.1526287
0.1525462
0.1524643
0.1523779
0.1522834
0.152179
0.1520643
0.1519404
0.1518087
0.1516713
0.1515304
0.151388
0.151246
0.1511057
0.1509679
0.1508332
0.1507016
0.1505727
0.1504461
0.1503209
0.1501961
0.1500709
0.1499443
0.1498156
0.1496846
0.1495512
0.1494158
0.1492795
0.1491434
0.1490088
0.1488771
0.1487492
0.1486261
0.1485079
0.1483946
0.1482859
0.1481813
0.1480801
0.1479817
0.1478857
0.1477917
0.1476995
0.1476091
0.1475207
0.1474343
0.1473503
0.147269
0.1471905
0.1471151
0.1470429
0.1469739
0.1469069
0.1468405
0.146773
0.1467033
0.1466299
0.1465523
0.1464695
0.1463816
0.1462886
0.1461906
0.1460879
0.1459808
0.1458696
0.1457549
0.1456366
0.1455153
0.1453911
0.1452641
0.1451346
0.1450025
0.1448681
0.1447313
0.1445921
0.1444506
0.1443069
0.144161
0.1440131
0.1438634
0.1437121
0.1435602
0.1434083
0.1432571
0.1431071
0.1429592
0.1428143
0.1426732
0.1425368
0.1424057
0.1422807
0.1421619
0.1420498
0.1419442
0.141845
0.1417519
0.1416645
0.1415809
0.1414965
0.1414023
0.1413288
0.141272
0.1412249
0.1411818
0.1411385
0.141092
0.1410403
0.140982
0.1409164
0.1408433
0.1407629
0.1406753
0.1405812
0.1404812
0.1403757
0.1402655
0.1401511
0.140033
0.1399119
0.1397882
0.1396622
0.1395346
0.1394057
0.1392763
0.1391465
0.1390171
0.1388888
0.1387626
0.1386396
0.1385215
0.1384105
0.1383097
0.1382233
0.1381568
0.1381103
0.1380811
0.1380677
0.138069
0.1380834
0.1381102
0.1381486
0.1381979
0.1382573
0.1383262
0.1384035
0.1384883
0.1385796
0.1386765
0.1387778
0.1388828
0.1389905
0.1391004
0.1392116
0.1393238
0.1394363
0.139549
0.1396614
0.1397734
0.1398847
0.1399951
0.1401047
0.1402134
0.1403209
0.140427
0.1405315
0.1406343
0.140735
0.1408337
0.14093
0.1410066
0.1410741
0.1411365
0.1411943
0.1412475
0.1412964
0.1413421
0.141386
0.1414302
0.1414768
0.1415278
0.1415848
0.1416492
0.141722
0.1418037
0.1418946
0.1419949
0.1421042
0.1422224
0.1423489
0.1424835
0.1426241
0.1427693
0.1429183
0.1430708
0.1432263
0.1433847
0.1435455
0.1437085
0.1438734
0.1440398
0.1442072
0.1443751
0.1445429
0.1447099
0.1448755
0.1450387
0.1451988
0.1453548
0.1455059
0.1456512
0.1457898
0.1459209
0.1460438
0.1461576
0.1462621
0.1463574
0.1464439
0.1465225
0.1465939
0.1466587
0.1467177
0.1467712
0.1468196
0.146863
0.1469018
0.1469367
0.1469682
0.1469969
0.1470239
0.1470504
0.1470777
0.1471073
0.1471404
0.1471782
0.1472212
0.14727
0.1473247
0.1473853
0.1474517
0.1475234
0.1476001
0.1476815
0.1477672
0.147857
0.1479506
0.1480478
0.1481485
0.1482528
0.1483604
0.1484714
0.1485857
0.1487032
0.1488236
0.1489468
0.1490724
0.1491998
0.1493286
0.149458
0.1495873
0.1497158
0.1498425
0.1499666
0.1500873
0.1502039
0.1503158
0.1504224
0.1505236
0.150619
0.1507088
0.1507931
0.1508722
0.1509464
0.1510162
0.151082
0.1511444
0.1512038
0.1512608
0.1513157
0.151369
0.1514211
0.1514722
0.1515227
0.1515728
0.1516228
0.1516729
0.1517232
0.1517741
0.1518257
0.1518781
0.1519317
0.1519867
0.1520434
0.1521021
0.1521634
0.1522277
0.1522957
0.1523683
0.1524464
0.1525316
0.1526254
0.1527302
0.1528488
0.1529848
0.153142
0.1533244
0.1535326
0.1537555
0.1539457
0.02812835
0.03818928
0.0509116
0.09134466
0.1053511
0.1361402
0.1436455
0.147396
0.1500076
0.1516884
0.1520158
0.1507255
0.1498035
0.1486954
0.1474183
0.14604
0.1517771
0.1502011
0.1486536
0.1471275
0.1455375
0.1438008
0.1419364
0.1399883
0.1379998
0.1360183
0.1340882
0.1322491
0.1305327
0.1289622
0.1275531
0.1263137
0.1252458
0.1243452
0.1236046
0.1230171
0.1225768
0.1222781
0.1221139
0.1220755
0.1221543
0.1223556
0.1224695
0.122709
0.1230322
0.1234147
0.1238431
0.1243099
0.1248097
0.1253369
0.1258869
0.1264544
0.1270348
0.127624
0.1282198
0.1288217
0.1294305
0.1300473
0.1306721
0.131304
0.13194
0.1325766
0.1332089
0.1338321
0.1344437
0.1350433
0.1356325
0.1362129
0.1367865
0.1373542
0.1379163
0.1384723
0.1390213
0.1395631
0.1400982
0.1406281
0.1411548
0.1416805
0.1422061
0.1427125
0.1432141
0.1437163
0.1442228
0.1447407
0.1452728
0.1458093
0.1463463
0.1468823
0.1474163
0.1479478
0.148476
0.1490006
0.1495213
0.1500387
0.1505532
0.1510658
0.1515771
0.1520876
0.152597
0.1531049
0.1536105
0.1541124
0.1546098
0.1551022
0.1555897
0.1560726
0.1565513
0.1570261
0.1574973
0.157965
0.1584291
0.1588897
0.159347
0.1598013
0.1602532
0.1607034
0.1611517
0.1615953
0.162035
0.162472
0.1629078
0.1633438
0.163782
0.1642237
0.1646679
0.1651127
0.1655562
0.1659972
0.1664349
0.1668683
0.1672968
0.1677193
0.1681347
0.1685411
0.1689359
0.1693152
0.1696734
0.1700078
0.170318
0.1706028
0.1708602
0.1710896
0.1712924
0.1714713
0.1716295
0.1717705
0.1718975
0.1720136
0.1721216
0.1722241
0.1723234
0.1724216
0.1725206
0.1726221
0.1727273
0.1728368
0.1729499
0.1730645
0.1731773
0.1732828
0.1733722
0.1734347
0.1734564
0.1734232
0.1733579
0.1732785
0.1731993
0.1731241
0.1730512
0.1729775
0.1728998
0.1728154
0.1727228
0.1726212
0.1725109
0.1723928
0.1722684
0.1721396
0.1720081
0.1718755
0.1717431
0.1716119
0.1714824
0.1713548
0.171229
0.1711045
0.1709806
0.1708565
0.1707314
0.1706044
0.170475
0.1703429
0.1702081
0.1700713
0.1699334
0.1697955
0.169659
0.1695252
0.1693954
0.1692701
0.1691499
0.1690347
0.1689243
0.1688182
0.1687157
0.1686164
0.1685196
0.168425
0.1683325
0.1682418
0.168153
0.1680663
0.1679817
0.1678995
0.1678198
0.1677424
0.1676674
0.1675947
0.1675239
0.1674544
0.1673854
0.1673159
0.1672451
0.1671722
0.1670969
0.1670181
0.1669358
0.1668497
0.1667596
0.1666656
0.1665675
0.1664654
0.1663596
0.1662499
0.1661367
0.1660198
0.1658994
0.1657755
0.1656481
0.1655173
0.1653832
0.1652457
0.165105
0.1649613
0.1648147
0.1646654
0.1645138
0.1643604
0.1642057
0.1640505
0.1638957
0.1637422
0.1635911
0.1634435
0.1633003
0.1631623
0.1630303
0.1629049
0.1627862
0.1626743
0.1625692
0.1624706
0.1623781
0.1622906
0.1622065
0.1621238
0.162046
0.1619745
0.1619089
0.1618475
0.1617885
0.1617301
0.1616706
0.1616085
0.1615428
0.1614725
0.1613971
0.1613163
0.16123
0.1611383
0.1610413
0.1609394
0.1608327
0.1607217
0.1606066
0.1604881
0.1603664
0.1602421
0.1601156
0.1599876
0.1598586
0.1597294
0.1596008
0.1594739
0.1593498
0.1592305
0.159118
0.1590151
0.1589258
0.158855
0.1587984
0.1587568
0.1587299
0.158717
0.1587176
0.158731
0.1587566
0.1587939
0.1588421
0.1589006
0.1589685
0.1590449
0.1591289
0.1592194
0.1593156
0.1594167
0.1595215
0.1596294
0.1597396
0.1598516
0.1599648
0.1600789
0.1601933
0.1603079
0.1604223
0.1605362
0.16065
0.1607629
0.1608749
0.1609858
0.1610953
0.161203
0.1613086
0.1614117
0.1615112
0.1616038
0.1616895
0.1617687
0.1618419
0.1619095
0.161972
0.1620302
0.1620854
0.1621389
0.1621925
0.1622476
0.1623058
0.1623686
0.162437
0.162512
0.1625941
0.1626837
0.1627807
0.162885
0.1629962
0.1631138
0.1632374
0.1633665
0.1635007
0.1636397
0.1637831
0.1639307
0.1640822
0.1642372
0.1643953
0.164556
0.164719
0.1648834
0.1650487
0.1652141
0.1653788
0.1655417
0.165702
0.1658588
0.1660109
0.1661575
0.1662978
0.1664308
0.1665559
0.1666725
0.1667802
0.1668793
0.1669698
0.1670525
0.1671279
0.1671966
0.1672592
0.1673163
0.1673683
0.1674158
0.1674592
0.1674993
0.1675365
0.1675714
0.1676045
0.1676366
0.1676683
0.1677005
0.167734
0.1677697
0.1678082
0.1678502
0.167896
0.1679462
0.1680007
0.1680599
0.1681236
0.168192
0.1682649
0.1683423
0.1684242
0.1685105
0.1686013
0.1686965
0.1687962
0.1689002
0.1690086
0.1691212
0.1692377
0.1693579
0.1694813
0.1696073
0.1697354
0.1698647
0.1699944
0.1701238
0.1702517
0.1703774
0.1704998
0.1706183
0.1707322
0.1708408
0.170944
0.1710413
0.1711329
0.1712189
0.1712994
0.1713749
0.1714458
0.1715126
0.1715758
0.1716358
0.1716933
0.1717485
0.1718021
0.1718543
0.1719055
0.171956
0.1720061
0.1720561
0.1721061
0.1721565
0.1722073
0.1722588
0.1723113
0.1723649
0.17242
0.1724769
0.1725359
0.1725974
0.172662
0.1727304
0.1728032
0.1728816
0.1729666
0.1730598
0.1731631
0.1732785
0.1734085
0.1735558
0.1737224
0.1739078
0.1741027
0.17427
0.01658108
0.0220884
0.02703439
0.04798308
0.0664391
0.09104283
0.1056482
0.1202586
0.134054
0.1469686
0.1581014
0.1681297
0.1764666
0.1827413
0.1873052
0.1981813
0.198642
0.1980521
0.1966661
0.1945089
0.191807
0.188826
0.1857734
0.1828451
0.1801428
0.1776813
0.175177
0.1730738
0.1712364
0.1695483
0.1678912
0.1661703
0.164361
0.1624759
0.1605415
0.1585887
0.1566506
0.1547608
0.1529514
0.151251
0.1496835
0.1482665
0.1470116
0.1459244
0.1450053
0.1442509
0.1436553
0.1432108
0.1429084
0.1427382
0.1426891
0.1427485
0.1428841
0.1430965
0.1433782
0.1437207
0.1441176
0.1445685
0.1450654
0.1455947
0.1461487
0.1467225
0.1473123
0.1479153
0.1485293
0.1491528
0.1497846
0.1504239
0.1510694
0.1517195
0.1523721
0.1530247
0.1536744
0.1543181
0.1549535
0.1555788
0.1561934
0.1567976
0.1573919
0.1579772
0.1585541
0.1591233
0.1596852
0.1602402
0.1607891
0.1613326
0.1618718
0.1624077
0.1629406
0.163468
0.163991
0.1645115
0.1650312
0.1655517
0.1660718
0.1665898
0.1671044
0.1676148
0.1681209
0.1686227
0.1691204
0.1696142
0.1701043
0.1705911
0.1710751
0.1715566
0.1720361
0.1725138
0.1729897
0.1734639
0.1739358
0.174405
0.1748709
0.1753328
0.1757904
0.1762436
0.1766923
0.1771366
0.1775768
0.178013
0.1784454
0.1788744
0.1793
0.1797227
0.1801429
0.1805607
0.1809765
0.1813898
0.1818006
0.1822092
0.1826158
0.1830207
0.1834244
0.1838267
0.1842271
0.1846249
0.1850193
0.1854098
0.1857961
0.1861777
0.1865542
0.1869248
0.1872887
0.1876446
0.1879905
0.188324
0.1886421
0.1889426
0.1892247
0.1894873
0.1897294
0.1899505
0.1901513
0.190333
0.1904975
0.190647
0.1907836
0.1909095
0.1910268
0.1911376
0.1912436
0.1913467
0.1914482
0.1915495
0.1916514
0.1917542
0.1918574
0.1919597
0.1920588
0.1921513
0.1922323
0.1922961
0.192336
0.1923454
0.1923197
0.1922751
0.1922238
0.1921706
0.1921156
0.1920574
0.1919942
0.1919242
0.1918463
0.1917601
0.1916656
0.1915637
0.1914558
0.1913432
0.1912274
0.1911098
0.1909915
0.1908735
0.1907563
0.1906402
0.1905249
0.1904101
0.1902952
0.1901796
0.1900624
0.1899429
0.1898207
0.1896955
0.1895676
0.1894373
0.1893057
0.189174
0.1890434
0.1889152
0.1887906
0.1886703
0.1885547
0.1884441
0.1883381
0.1882364
0.1881385
0.1880439
0.1879519
0.1878623
0.1877746
0.1876888
0.1876049
0.1875229
0.1874429
0.187365
0.1872892
0.1872154
0.1871437
0.1870739
0.1870058
0.186939
0.1868733
0.186808
0.1867426
0.1866765
0.1866092
0.1865406
0.1864695
0.186396
0.1863196
0.1862401
0.1861573
0.186071
0.1859812
0.1858877
0.1857904
0.1856893
0.1855844
0.1854755
0.1853626
0.1852458
0.1851249
0.1850001
0.1848715
0.1847391
0.1846031
0.184464
0.1843219
0.1841774
0.1840312
0.1838839
0.1837366
0.18359
0.1834454
0.1833038
0.1831661
0.1830333
0.1829061
0.1827851
0.1826706
0.1825627
0.1824614
0.1823664
0.1822774
0.1821937
0.1821145
0.1820389
0.1819665
0.1818977
0.1818321
0.1817694
0.1817088
0.1816494
0.1815902
0.1815302
0.1814686
0.1814045
0.1813373
0.1812664
0.1811914
0.1811122
0.1810285
0.1809403
0.1808478
0.1807509
0.1806499
0.180545
0.1804366
0.180325
0.1802107
0.1800941
0.1799759
0.1798568
0.1797376
0.1796195
0.1795035
0.1793914
0.179285
0.1791873
0.1791021
0.1790283
0.1789659
0.1789159
0.1788786
0.1788539
0.1788418
0.1788419
0.178854
0.1788777
0.1789123
0.1789573
0.179012
0.1790755
0.1791469
0.1792254
0.1793099
0.1793997
0.1794941
0.179592
0.1796929
0.1797962
0.1799012
0.1800076
0.1801149
0.1802229
0.1803311
0.1804396
0.1805478
0.1806556
0.1807629
0.1808694
0.1809747
0.1810786
0.1811805
0.18128
0.1813766
0.181469
0.1815568
0.1816394
0.1817169
0.1817891
0.1818563
0.1819192
0.1819783
0.1820348
0.1820896
0.1821441
0.1821993
0.1822565
0.1823167
0.1823808
0.1824494
0.1825232
0.1826024
0.1826873
0.1827779
0.1828742
0.1829762
0.1830837
0.1831967
0.183315
0.1834383
0.1835665
0.1836994
0.1838366
0.1839778
0.1841225
0.1842703
0.1844205
0.1845724
0.1847253
0.1848782
0.1850302
0.1851803
0.1853276
0.185471
0.1856096
0.1857425
0.1858689
0.1859882
0.1860999
0.1862037
0.1862996
0.1863877
0.1864685
0.1865424
0.18661
0.1866718
0.1867283
0.1867801
0.1868277
0.1868716
0.1869124
0.1869506
0.1869867
0.1870211
0.1870542
0.1870865
0.1871185
0.1871508
0.1871837
0.187218
0.1872541
0.1872925
0.1873336
0.1873777
0.1874253
0.1874764
0.1875314
0.1875905
0.1876537
0.1877213
0.1877934
0.1878701
0.1879516
0.1880378
0.1881289
0.1882248
0.1883255
0.1884306
0.1885399
0.1886529
0.1887692
0.188888
0.1890086
0.1891301
0.1892517
0.1893724
0.1894912
0.1896073
0.1897198
0.1898281
0.1899316
0.1900298
0.1901227
0.19021
0.1902919
0.1903687
0.1904406
0.190508
0.1905713
0.1906312
0.190688
0.1907422
0.1907942
0.1908446
0.1908936
0.1909416
0.1909889
0.1910358
0.1910825
0.1911293
0.1911763
0.1912238
0.1912719
0.1913209
0.1913711
0.1914226
0.1914758
0.1915309
0.1915884
0.1916488
0.1917126
0.1917805
0.1918533
0.191932
0.1920177
0.1921118
0.1922159
0.1923316
0.1924606
0.192604
0.1927609
0.1929241
0.1930642
0.004762735
0.0234413
0.03745642
0.05136105
0.06434651
0.07694505
0.08959629
0.1014184
0.1124694
0.1235739
0.1398197
0.1482956
0.1570358
0.1657976
0.174709
0.1834934
0.1917427
0.1989821
0.2046483
0.2087002
0.210272
0.2107167
0.2102914
0.2091425
0.2072875
0.2049034
0.2022418
0.1995588
0.1970297
0.1947572
0.1927628
0.1910011
0.1895226
0.1882554
0.1871068
0.1859801
0.1847928
0.183503
0.1821017
0.1805987
0.1790151
0.1773792
0.1757237
0.1740831
0.1724917
0.1709804
0.1695763
0.1683004
0.1671681
0.1661888
0.1653668
0.1647017
0.1641896
0.1638236
0.1635946
0.1634922
0.163504
0.1636141
0.1638104
0.1640817
0.1644177
0.164809
0.1652473
0.1657236
0.1662301
0.1667604
0.1673101
0.167876
0.1684555
0.1690466
0.1696478
0.1702573
0.1708738
0.1714955
0.1721207
0.1727472
0.1733729
0.1739957
0.1746133
0.1752237
0.1758253
0.176417
0.1769983
0.1775694
0.1781305
0.1786823
0.1792253
0.1797605
0.1802884
0.1808099
0.1813255
0.1818361
0.1823423
0.1828446
0.1833426
0.1838364
0.1843261
0.1848118
0.1852936
0.1857702
0.1862414
0.1867067
0.1871659
0.1876192
0.1880669
0.1885095
0.1889475
0.1893814
0.1898117
0.1902388
0.1906633
0.1910853
0.1915052
0.191923
0.1923388
0.1927523
0.1931634
0.1935716
0.1939765
0.1943777
0.1947751
0.1951685
0.1955578
0.195943
0.1963245
0.1967023
0.1970767
0.1974479
0.1978163
0.198182
0.1985453
0.1989064
0.1992653
0.199622
0.1999765
0.2003285
0.2006781
0.2010249
0.2013688
0.2017092
0.2020459
0.2023784
0.2027067
0.2030304
0.2033495
0.2036636
0.2039725
0.2042755
0.2045718
0.2048601
0.2051392
0.2054072
0.2056627
0.2059049
0.2061329
0.2063462
0.2065443
0.2067274
0.2068963
0.2070518
0.2071952
0.2073278
0.2074511
0.2075666
0.2076756
0.2077795
0.2078795
0.2079767
0.2080719
0.2081659
0.2082587
0.2083501
0.2084393
0.2085249
0.2086051
0.2086772
0.2087382
0.208785
0.2088143
0.2088245
0.208818
0.2087986
0.2087699
0.2087337
0.2086908
0.2086413
0.2085848
0.208521
0.20845