/*--------------------------------*- C++ -*----------------------------------*\
| =========                 |                                                 |
| \\      /  F ield         | foam-extend: Open Source CFD                    |
|  \\    /   O peration     | Version:     3.1                                |
|   \\  /    A nd           | Web:         http://www.extend-project.de       |
|    \\/     M anipulation  |                                                 |
\*---------------------------------------------------------------------------*/
FoamFile
{
    version     2.0;
    format      ascii;
    class       volScalarField;
    location    "1";
    object      nut;
}
// * * * * * * * * * * * * * * * * * * * * * * * * * * * * * * * * * * * * * //

dimensions      [0 2 -1 0 0 0 0];

internalField   nonuniform List<scalar> 
119952
(
4.536713e-05
2.595398e-05
2.690904e-05
3.298252e-05
3.785115e-05
3.653098e-05
3.571496e-05
3.502323e-05
3.432072e-05
3.356825e-05
3.276576e-05
3.192374e-05
3.105387e-05
3.016609e-05
2.926813e-05
2.836577e-05
2.746279e-05
2.656005e-05
2.564779e-05
2.475079e-05
3.392402e-05
3.21281e-05
3.138453e-05
4.415173e-05
4.27684e-05
4.205119e-05
4.143288e-05
4.119081e-05
4.023811e-05
4.458546e-05
2.444499e-05
2.294121e-05
2.694246e-05
3.297206e-05
3.995175e-05
4.730332e-05
5.486656e-05
6.253692e-05
7.033789e-05
8.335697e-05
0.0002435581
0.0003477104
0.0004479364
0.0005351315
0.0006086675
0.0006722097
0.0007295524
0.0007834558
0.0008356732
0.001278218
0.001400612
0.001526706
0.001650532
0.001767371
0.001874831
0.001972672
0.002061933
0.002144129
0.002220357
0.002300816
0.002395204
0.002500368
0.002610166
0.00271879
0.002822538
0.002920243
0.003013429
0.003106854
0.003088293
0.003080319
0.003125151
0.003193222
0.003262253
0.003322488
0.003374778
0.003418119
0.003451478
0.00347484
0.003490318
0.003499752
0.00350416
0.003504636
0.003502214
0.003497858
0.003492609
0.003488017
0.003487486
0.003496316
0.003512893
0.003530931
0.003558367
0.003599205
0.003627911
0.003637451
0.003627572
0.003573829
0.003384184
0.00307452
0.002997618
0.002967068
0.002951215
0.002942033
0.002936558
0.002932912
0.002929816
0.002926452
0.002922369
0.002917378
0.002911464
0.002904707
0.00289722
0.002889127
0.002880537
0.002871543
0.002862215
0.002852608
0.00284276
0.0028327
0.002822438
0.002811976
0.002801301
0.002790416
0.002779316
0.002767965
0.002756321
0.002744403
0.002732273
0.002720017
0.002707734
0.002695507
0.002683391
0.002671397
0.0026595
0.002647653
0.002635798
0.002623885
0.002611873
0.00259974
0.00258748
0.0025751
0.002562615
0.002550048
0.002537421
0.002524776
0.002512189
0.002500007
0.002488515
0.002435437
0.002364938
0.002303206
0.002252733
0.002211778
0.002178237
0.002150252
0.002126387
0.002105582
0.002087059
0.002070242
0.00205471
0.002040219
0.002026527
0.002013371
0.002000612
0.001988169
0.001975976
0.001963975
0.001952119
0.001940369
0.001928692
0.001917065
0.001905466
0.00189388
0.001882292
0.001870693
0.001859078
0.001847443
0.001835777
0.001824073
0.001812317
0.001800497
0.0017886
0.001776625
0.001764586
0.0017525
0.00174038
0.001728087
0.001715804
0.001703552
0.001691263
0.001678944
0.001666591
0.001654193
0.001641735
0.00162921
0.001616609
0.001604409
0.001591385
0.001227565
0.0009471352
0.0008636073
0.0008238528
0.0007989612
0.0007807265
0.0007660229
0.0007533757
0.0007419811
0.0007314005
0.0007214489
0.0007118654
0.0007024887
0.0006933101
0.000684299
0.0006754237
0.0006666602
0.0006579897
0.0006493972
0.0006408724
0.0006324069
0.0006239946
0.0006156304
0.0006073068
0.0005990272
0.000590793
0.0005825993
0.0005744539
0.0005663611
0.0005583285
0.0005503736
0.0005425301
0.0005349647
0.0005276494
0.0005216945
0.0005258317
0.0005429556
0.0005577229
0.0005703393
0.0005814916
0.0005916892
0.0006012847
0.0006105074
0.0006194992
0.0006283503
0.0006371087
0.0006457989
0.0006544468
0.0006630628
0.0006716533
0.0006802236
0.0006887776
0.0006973187
0.0007058502
0.0007143744
0.0007228937
0.0007314103
0.0007399256
0.0007484414
0.000756959
0.0007654831
0.0007740113
0.0007825381
0.0007910731
0.0007996157
0.0008081648
0.0008167187
0.0008252747
0.0008338547
0.0008425573
0.001195727
0.001261786
0.001331516
0.001401968
0.001469746
0.001531952
0.001586837
0.001633994
0.00167402
0.001707958
0.001736944
0.001762014
0.001784029
0.001803677
0.001821496
0.001837901
0.001853216
0.001867691
0.001881519
0.00189485
0.001907798
0.001920447
0.001932861
0.001945089
0.001957167
0.00196912
0.001980969
0.001992732
0.002004421
0.002016044
0.002027607
0.002039111
0.002050559
0.00206195
0.002073283
0.002084555
0.002095763
0.002106904
0.002117969
0.002128947
0.002139821
0.002150559
0.002161097
0.002171348
0.002181048
0.002189633
0.002196878
0.00220362
0.002210091
0.002216408
0.002222622
0.002228759
0.002234867
0.00224115
0.002246609
0.002264465
0.00229618
0.002337657
0.002383824
0.002430118
0.002473274
0.002511519
0.002544331
0.002572014
0.002595278
0.002614945
0.002631782
0.002646442
0.002659444
0.002671191
0.002681988
0.002692065
0.002701593
0.002710703
0.002719493
0.002728039
0.002736398
0.002744615
0.002752727
0.002760761
0.00276874
0.00277668
0.002784594
0.002792489
0.00280037
0.002808239
0.002816097
0.002823943
0.002831776
0.00283959
0.00284738
0.002855138
0.002862853
0.002870513
0.002878106
0.002885623
0.002893055
0.002900398
0.00290765
0.002914813
0.002921889
0.002928885
0.002935807
0.002942662
0.002949457
0.002956201
0.002962899
0.002969559
0.002976188
0.002982792
0.002989376
0.002995945
0.003002506
0.003009062
0.00301562
0.003022183
0.003028756
0.003035346
0.003041957
0.003048597
0.003055274
0.003061997
0.003068777
0.003075628
0.003082567
0.003089618
0.00309681
0.003104184
0.003111796
0.00311973
0.003128109
0.003137137
0.003147154
0.003158767
0.003173241
0.003193475
0.003226144
0.003285416
0.003269695
2.225306e-05
2.456493e-05
2.993578e-05
3.680266e-05
4.431584e-05
5.208679e-05
6.001083e-05
6.807784e-05
7.713136e-05
0.0001964474
0.0003007636
0.0004088587
0.0005053841
0.0005858821
0.0006535314
0.0007130957
0.0007682154
0.0008212226
0.001238495
0.001363092
0.001495634
0.001628122
0.001753925
0.00186926
0.001973446
0.00206766
0.002153723
0.002233648
0.002310975
0.002402812
0.002509547
0.002624336
0.002739648
0.002850081
0.002953058
0.003048177
0.003136331
0.003169501
0.003205524
0.003284569
0.003385603
0.003496329
0.003608994
0.003718991
0.003823981
0.00392312
0.004016431
0.004106068
0.004198816
0.004298214
0.004403926
0.004513274
0.004622994
0.004730347
0.004833442
0.004927556
0.005931696
0.006045075
0.006150934
0.006254909
0.006358731
0.006461902
0.006562445
0.006659686
0.006753809
0.006844658
0.006933095
0.007020833
0.007109325
0.00719928
0.007290575
0.007382553
0.007474234
0.007563858
0.007646411
0.00770957
0.007758262
0.00780161
0.007840702
0.007874891
0.007905414
0.007934058
0.007961508
0.007987677
0.008012114
0.008034259
0.008053701
0.008070274
0.008083817
0.008094842
0.00810429
0.008113252
0.0081225
0.008133375
0.008147186
0.008163795
0.008182917
0.008205498
0.008227855
0.008241713
0.008241739
0.008220992
0.008169555
0.008079404
0.00798575
0.007910065
0.007848989
0.007799823
0.007759854
0.007727008
0.007699701
0.007676704
0.007657034
0.007639916
0.007624754
0.007611093
0.007598589
0.007586976
0.007576044
0.007565623
0.007555567
0.007545754
0.007536075
0.007526434
0.007516741
0.007506911
0.00749686
0.007486512
0.007475798
0.007464655
0.007453042
0.007440958
0.007428451
0.007415614
0.007402581
0.007389497
0.007376492
0.007363657
0.007351026
0.007338586
0.007326283
0.007314041
0.007301786
0.007289453
0.007277003
0.00726442
0.007251713
0.007238912
0.00722606
0.00721322
0.007200484
0.007187987
0.007175885
0.007163442
0.007147172
0.007125452
0.007098338
0.007067249
0.00703393
0.006999927
0.006966395
0.006934088
0.006903431
0.00687461
0.006847649
0.006822478
0.006798985
0.006776997
0.006756316
0.006736769
0.0067182
0.006700471
0.006683456
0.006667043
0.006651131
0.006635629
0.006620478
0.00660561
0.006590967
0.006576502
0.006562175
0.006547952
0.006533805
0.006519709
0.006505632
0.00649154
0.006477355
0.006463031
0.006448568
0.006433981
0.006419303
0.006404575
0.006389842
0.006375152
0.006360546
0.006346054
0.006331693
0.006317471
0.00630339
0.006289451
0.006275686
0.006262207
0.006249447
0.006240819
0.00563939
0.005306931
0.005172555
0.00509509
0.005036874
0.004987646
0.004944506
0.004906409
0.004872705
0.004842814
0.004816172
0.004792218
0.004770447
0.004750437
0.004731836
0.004714362
0.004697784
0.004681922
0.00466663
0.004651798
0.004637339
0.004623188
0.004609282
0.004595596
0.004582141
0.004568916
0.00455591
0.004543139
0.004530645
0.004518496
0.004506817
0.004495847
0.004486065
0.004478538
0.004475823
0.004482084
0.00449519
0.004512139
0.004531149
0.004551007
0.004570942
0.004590502
0.004609461
0.004627736
0.004645326
0.004662274
0.004678639
0.004694487
0.004709878
0.004724867
0.004739505
0.004753834
0.00476789
0.004781705
0.004795306
0.004808717
0.004821956
0.00483504
0.004847984
0.004860801
0.004873503
0.004886101
0.004898603
0.004911017
0.004923346
0.004935587
0.004947729
0.004959752
0.00497157
0.004981046
0.005889101
0.005934441
0.005970228
0.006003939
0.006039015
0.006076553
0.006116358
0.00615761
0.006199296
0.006240458
0.006280344
0.006318423
0.006354373
0.006388048
0.006419434
0.006448606
0.006475696
0.006500866
0.006524288
0.006546133
0.006566564
0.006585891
0.006604371
0.006622139
0.006639294
0.006655922
0.006672096
0.006687875
0.00670331
0.006718441
0.006733302
0.006747916
0.006762302
0.006776473
0.006790438
0.006804199
0.006817756
0.006831099
0.006844214
0.006857075
0.006869643
0.006881857
0.00689363
0.006904826
0.006915257
0.006924729
0.006933355
0.006941381
0.00694896
0.006956191
0.006963139
0.006969836
0.006976253
0.006982251
0.00698798
0.006994926
0.007004623
0.007018117
0.007035758
0.007057242
0.007081799
0.007108419
0.007136058
0.007163788
0.007190881
0.007216826
0.007241316
0.007264208
0.007285482
0.007305201
0.007323479
0.007340453
0.007356276
0.007371094
0.00738505
0.007398273
0.007410883
0.007422983
0.007434667
0.007446014
0.007457094
0.007467961
0.007478662
0.007489232
0.007499696
0.007510073
0.007520374
0.007530606
0.007540767
0.007550852
0.00756085
0.007570744
0.007580514
0.007590137
0.007599592
0.007608859
0.007617924
0.007626777
0.007635415
0.007643842
0.007652065
0.007660097
0.007667952
0.007675647
0.007683201
0.007690633
0.007697959
0.007705198
0.007712365
0.007719478
0.00772655
0.007733595
0.007740625
0.007747654
0.007754693
0.007761753
0.007768848
0.007775989
0.007783192
0.007790473
0.007797848
0.007805342
0.00781298
0.007820794
0.007828825
0.007837126
0.007845763
0.007854826
0.007864439
0.007874773
0.007886079
0.007898728
0.007913288
0.007930651
0.007952208
0.007980025
0.008016453
0.008059167
0.008090374
3.033017e-05
2.754249e-05
3.300953e-05
4.038802e-05
4.799092e-05
5.536613e-05
6.259228e-05
6.97044e-05
7.682373e-05
8.959595e-05
0.0002562558
0.0003658565
0.0004691091
0.000556276
0.0006278118
0.0006885869
0.0007431137
0.0007945012
0.0008445763
0.001289805
0.001413231
0.00154151
0.001667726
0.001786432
0.001894914
0.001993035
0.002082138
0.002164014
0.002240298
0.002322483
0.002421443
0.002533324
0.002650599
0.002766224
0.002875758
0.002977518
0.003071708
0.003160641
0.003165401
0.003231221
0.003329322
0.003443303
0.003562658
0.003680701
0.003793797
0.003900442
0.004000477
0.004094751
0.004189412
0.004290975
0.004400728
0.00451623
0.004633504
0.004748899
0.004859861
0.004962759
0.005999161
0.006117558
0.006226479
0.006333274
0.006439565
0.00654504
0.006649802
0.006752972
0.006853591
0.006950956
0.007045239
0.007138302
0.007232151
0.007327996
0.007425948
0.00752527
0.007624798
0.007723279
0.007819249
0.007908408
0.007991403
0.008072421
0.008154624
0.008239576
0.008327493
0.008417739
0.008509276
0.008600994
0.00869192
0.008781659
0.008870678
0.008959884
0.009050128
0.009141845
0.009234978
0.009329101
0.009423796
0.009520432
0.009560917
0.009619657
0.009689524
0.009766986
0.009850097
0.009937609
0.01
0.01
0.01
0.01
0.01
0.01
0.01
0.01
0.01
0.01
0.01
0.01
0.01
0.01
0.01
0.01
0.01
0.01
0.01
0.01
0.01
0.01
0.01
0.01
0.01
0.01
0.01
0.01
0.01
0.01
0.01
0.01
0.01
0.01
0.01
0.01
0.01
0.01
0.01
0.01
0.01
0.01
0.01
0.01
0.01
0.01
0.01
0.01
0.01
0.01
0.01
0.01
0.01
0.01
0.01
0.01
0.01
0.01
0.01
0.01
0.01
0.01
0.01
0.01
0.01
0.01
0.01
0.01
0.01
0.01
0.01
0.01
0.01
0.01
0.01
0.01
0.01
0.01
0.01
0.01
0.01
0.01
0.01
0.01
0.01
0.01
0.01
0.01
0.01
0.01
0.01
0.01
0.01
0.01
0.01
0.01
0.01
0.01
0.01
0.01
0.01
0.01
0.01
0.01
0.01
0.01
0.01
0.01
0.01
0.01
0.01
0.01
0.01
0.01
0.01
0.01
0.01
0.01
0.01
0.01
0.01
0.01
0.01
0.009995749
0.009977663
0.009959641
0.009941665
0.00992375
0.009905934
0.00988827
0.009870817
0.009853633
0.009836772
0.009820272
0.009804158
0.00978844
0.009773115
0.009758168
0.009743617
0.009729441
0.009715468
0.009699843
0.009666164
0.009665148
0.009664353
0.009656764
0.009642317
0.00962253
0.009599062
0.009573363
0.009546547
0.009519439
0.00949261
0.009466423
0.009441095
0.009416727
0.009393354
0.009370963
0.009349506
0.009328917
0.009309126
0.009290062
0.009271655
0.009253863
0.009236638
0.009219959
0.00920384
0.009188262
0.009173225
0.009158758
0.00914492
0.009131817
0.009119632
0.009108718
0.009099651
0.009093423
0.009091445
0.009094355
0.009100942
0.009110545
0.009122524
0.009136349
0.009151565
0.009167792
0.009184717
0.00920208
0.009219672
0.009237354
0.009254998
0.00927251
0.009289826
0.009306909
0.009323732
0.009340281
0.009356551
0.009372544
0.009388268
0.009403733
0.009418952
0.00943394
0.009448712
0.009463281
0.009477664
0.009491875
0.009505927
0.00951983
0.009533583
0.009547173
0.009560581
0.009573851
0.009587332
0.009604027
0.009569169
0.0095528
0.009547967
0.009551263
0.009560915
0.009575861
0.009595315
0.00961854
0.009644791
0.009673334
0.009703482
0.009734621
0.009766227
0.00979788
0.009829257
0.009860124
0.009890323
0.009919755
0.009948368
0.009976146
0.01
0.01
0.01
0.01
0.01
0.01
0.01
0.01
0.01
0.01
0.01
0.01
0.01
0.01
0.01
0.01
0.01
0.01
0.01
0.01
0.01
0.01
0.01
0.01
0.01
0.01
0.01
0.01
0.01
0.01
0.01
0.01
0.01
0.01
0.01
0.01
0.01
0.01
0.01
0.01
0.01
0.01
0.01
0.01
0.01
0.01
0.01
0.01
0.01
0.01
0.01
0.01
0.01
0.01
0.01
0.01
0.01
0.01
0.01
0.01
0.01
0.01
0.01
0.01
0.01
0.01
0.01
0.01
0.01
0.01
0.01
0.01
0.01
0.01
0.01
0.01
0.01
0.01
0.01
0.01
0.01
0.01
0.01
0.01
0.01
0.01
0.01
0.01
0.01
0.01
0.01
0.01
0.01
0.01
0.01
0.01
0.01
0.01
0.01
0.01
0.01
0.01
0.01
0.01
0.01
0.01
0.01
0.01
0.01
0.01
0.01
0.01
0.01
0.01
0.01
0.01
0.01
0.01
0.01
9.954389e-05
0.0001646033
0.0002807731
0.0007283153
0.00106272
0.001977748
0.002385644
0.002742206
0.00305339
0.00332346
0.003532614
0.003688348
0.003737432
0.00378107
0.003862907
0.003953251
0.004038695
0.004114128
0.004178974
0.004234833
0.004284021
0.004328881
0.004373726
0.004427234
0.004493241
0.004570599
0.004655579
0.004744023
0.004832631
0.00491923
0.004998683
0.005997264
0.006103843
0.006204985
0.006306371
0.006409249
0.006512143
0.006614005
0.006714454
0.006812776
0.006908554
0.007002925
0.007098205
0.007196308
0.007298059
0.007403098
0.00751025
0.007617978
0.007724614
0.007827329
0.007922419
0.008013667
0.008105171
0.008199414
0.008297131
0.008397795
0.008500214
0.008603015
0.008704966
0.008805286
0.008904257
0.009002956
0.009102611
0.009204011
0.009307267
0.009411946
0.00951755
0.009625587
0.009675992
0.009744724
0.009824384
0.009911702
0.01
0.01
0.01
0.01
0.01
0.01
0.01
0.01
0.01
0.01
0.01
0.01
0.01
0.01
0.01
0.01
0.01
0.01
0.01
0.01
0.01
0.01
0.01
0.01
0.01
0.01
0.01
0.01
0.01
0.01
0.01
0.01
0.01
0.01
0.01
0.01
0.01
0.01
0.01
0.01
0.01
0.01
0.01
0.01
0.01
0.01
0.01
0.01
0.01
0.01
0.01
0.01
0.01
0.01
0.01
0.01
0.01
0.01
0.01
0.01
0.01
0.01
0.01
0.01
0.01
0.01
0.01
0.01
0.01
0.01
0.01
0.01
0.01
0.01
0.01
0.01
0.01
0.01
0.01
0.01
0.01
0.01
0.01
0.01
0.01
0.01
0.01
0.01
0.01
0.01
0.01
0.01
0.01
0.01
0.01
0.01
0.01
0.01
0.01
0.01
0.01
0.01
0.01
0.01
0.01
0.01
0.01
0.01
0.01
0.01
0.01
0.01
0.01
0.01
0.01
0.01
0.01
0.01
0.01
0.01
0.01
0.01
0.01
0.01
0.01
0.01
0.01
0.01
0.01
0.01
0.01
0.01
0.01
0.01
0.01
0.01
0.01
0.01
0.01
0.01
0.01
0.01
0.01
0.01
0.01
0.01
0.01
0.01
0.01
0.01
0.01
0.01
0.01
0.01
0.01
0.01
0.01
0.01
0.01
0.01
0.01
0.01
0.01
0.01
0.01
0.01
0.01
0.01
0.01
0.01
0.01
0.01
0.01
0.01
0.01
0.01
0.01
0.01
0.01
0.01
0.01
0.01
0.01
0.01
0.01
0.01
0.01
0.01
0.01
0.01
0.01
0.01
0.01
0.01
0.01
0.01
0.01
0.01
0.01
0.01
0.01
0.01
0.01
0.01
0.01
0.01
0.01
0.01
0.01
0.01
0.01
0.01
0.01
0.01
0.01
0.01
0.01
0.01
0.01
0.01
0.01
0.01
0.01
0.01
0.01
0.01
0.01
0.01
0.01
0.01
0.01
0.01
0.01
0.01
0.01
0.01
0.01
0.01
0.01
0.01
0.01
0.01
0.01
0.01
0.01
0.01
0.01
0.01
0.01
0.01
0.01
0.01
0.01
0.01
0.01
0.01
0.01
0.01
0.01
0.01
0.01
0.01
0.01
0.01
0.01
0.01
0.01
0.01
0.01
0.01
0.01
0.01
0.01
0.01
0.01
0.01
0.01
0.01
0.01
0.01
0.01
0.01
0.01
0.01
0.01
0.01
0.01
0.01
0.01
0.01
0.01
0.01
0.01
0.01
0.01
0.01
0.01
0.01
0.01
0.01
0.01
0.01
0.01
0.01
0.01
0.01
0.01
0.01
0.01
0.01
0.01
0.01
0.01
0.01
0.01
0.01
0.01
0.01
0.01
0.01
0.01
0.01
0.01
0.01
0.01
0.01
0.01
0.01
0.01
0.01
0.01
0.01
0.01
0.01
0.01
0.01
0.01
0.01
0.01
0.01
0.01
0.01
0.01
0.01
0.01
0.01
0.01
0.01
0.01
0.01
0.01
0.01
0.01
0.01
0.01
0.01
0.01
0.01
0.01
0.01
0.01
0.01
0.01
0.01
0.01
0.01
0.01
0.01
0.01
0.01
0.01
0.01
0.01
0.01
0.01
0.01
0.01
0.01
0.01
0.01
0.01
0.01
0.01
0.01
0.01
0.01
0.01
0.01
0.01
0.01
0.01
6.40866e-05
0.0001382602
0.0002216572
0.0008902802
0.001241685
0.002717725
0.003351357
0.003701411
0.00421495
0.004669099
0.005003046
0.005236459
0.005570143
0.005875933
0.006183694
0.006478268
0.007837981
0.008088488
0.008321266
0.008530853
0.008709182
0.008854029
0.008967279
0.009047144
0.009100352
0.00913671
0.009162785
0.009182425
0.009197922
0.009210855
0.009222533
0.009234157
0.009246914
0.009262306
0.00928246
0.009309489
0.0093449
0.009389267
0.009442266
0.009502953
0.009570253
0.009644775
0.009666449
0.00971209
0.009773764
0.00984734
0.009930362
0.01
0.01
0.01
0.01
0.01
0.01
0.01
0.01
0.01
0.01
0.01
0.01
0.01
0.01
0.01
0.01
0.01
0.01
0.01
0.01
0.01
0.01
0.01
0.01
0.01
0.01
0.01
0.01
0.01
0.01
0.01
0.01
0.01
0.01
0.01
0.01
0.01
0.01
0.01
0.01
0.01
0.01
0.01
0.01
0.01
0.01
0.01
0.01
0.01
0.01
0.01
0.01
0.01
0.01
0.01
0.01
0.01
0.01
0.01
0.01
0.01
0.01
0.01
0.01
0.01
0.01
0.01
0.01
0.01
0.01
0.01
0.01
0.01
0.01
0.01
0.01
0.01
0.01
0.01
0.01
0.01
0.01
0.01
0.01
0.01
0.01
0.01
0.01
0.01
0.01
0.01
0.01
0.01
0.01
0.01
0.01
0.01
0.01
0.01
0.01
0.01
0.01
0.01
0.01
0.01
0.01
0.01
0.01
0.01
0.01
0.01
0.01
0.01
0.01
0.01
0.01
0.01
0.01
0.01
0.01
0.01
0.01
0.01
0.01
0.01
0.01
0.01
0.01
0.01
0.01
0.01
0.01
0.01
0.01
0.01
0.01
0.01
0.01
0.01
0.01
0.01
0.01
0.01
0.01
0.01
0.01
0.01
0.01
0.01
0.01
0.01
0.01
0.01
0.01
0.01
0.01
0.01
0.01
0.01
0.01
0.01
0.01
0.01
0.01
0.01
0.01
0.01
0.01
0.01
0.01
0.01
0.01
0.01
0.01
0.01
0.01
0.01
0.01
0.01
0.01
0.01
0.01
0.01
0.01
0.01
0.01
0.01
0.01
0.01
0.01
0.01
0.01
0.01
0.01
0.01
0.01
0.01
0.01
0.01
0.01
0.01
0.01
0.01
0.01
0.01
0.01
0.01
0.01
0.01
0.01
0.01
0.01
0.01
0.01
0.01
0.01
0.01
0.01
0.01
0.01
0.01
0.01
0.01
0.01
0.01
0.01
0.01
0.01
0.01
0.01
0.01
0.01
0.01
0.01
0.01
0.01
0.01
0.01
0.01
0.01
0.01
0.01
0.01
0.01
0.01
0.01
0.01
0.01
0.01
0.01
0.01
0.01
0.01
0.01
0.01
0.01
0.01
0.01
0.01
0.01
0.01
0.01
0.01
0.01
0.01
0.01
0.01
0.01
0.01
0.01
0.01
0.01
0.01
0.01
0.01
0.01
0.01
0.01
0.01
0.01
0.01
0.01
0.01
0.01
0.01
0.01
0.01
0.01
0.01
0.01
0.01
0.01
0.01
0.01
0.01
0.01
0.01
0.01
0.01
0.01
0.01
0.01
0.01
0.01
0.01
0.01
0.01
0.01
0.01
0.01
0.01
0.01
0.01
0.01
0.01
0.01
0.01
0.01
0.01
0.01
0.01
0.01
0.01
0.01
0.01
0.01
0.01
0.01
0.01
0.01
0.01
0.01
0.01
0.01
0.01
0.01
0.01
0.01
0.01
0.01
0.01
0.01
0.01
0.01
0.01
0.01
0.01
0.01
0.01
0.01
0.01
0.01
0.01
0.01
0.01
0.01
0.01
0.01
0.01
0.01
0.01
0.01
0.01
0.01
0.01
0.01
0.01
0.01
0.01
0.01
0.01
0.01
0.01
0.01
0.01
0.01
0.01
0.01
0.01
0.01
0.01
0.01
0.01
0.01
0.01
0.01
0.01
0.01
0.01
0.01
0.01
0.01
0.01
0.01
0.01
0.01
0.01
0.01
0.01
0.01
0.01
0.01
0.01
0.01
0.01
0.01
0.01
0.01
0.01
0.01
0.01
0.01
0.01
0.01
0.01
0.01
0.01
0.01
0.01
0.01
0.01
0.01
0.01
0.01
0.01
0.01
0.01
4.001118e-05
7.415307e-05
0.0001196816
0.0004360955
0.0007716825
0.001580354
0.002113795
0.002767901
0.003493039
0.004175367
0.004778605
0.005302942
0.005818245
0.006324636
0.00675729
0.008034952
0.008418342
0.008758475
0.009091884
0.009402168
0.009686196
0.00995581
0.01
0.01
0.01
0.01
0.01
0.01
0.01
0.01
0.01
0.01
0.01
0.01
0.01
0.01
0.01
0.01
0.01
0.01
0.01
0.01
0.01
0.01
0.01
0.01
0.01
0.01
0.01
0.01
0.01
0.01
0.01
0.01
0.01
0.01
0.01
0.01
0.01
0.01
0.01
0.01
0.01
0.01
0.01
0.01
0.01
0.01
0.01
0.01
0.01
0.01
0.01
0.01
0.01
0.01
0.01
0.01
0.01
0.01
0.01
0.01
0.01
0.01
0.01
0.01
0.01
0.01
0.01
0.01
0.01
0.01
0.01
0.01
0.01
0.01
0.01
0.01
0.01
0.01
0.01
0.01
0.01
0.01
0.01
0.01
0.01
0.01
0.01
0.01
0.01
0.01
0.01
0.01
0.01
0.01
0.01
0.01
0.01
0.01
0.01
0.01
0.01
0.01
0.01
0.01
0.01
0.01
0.01
0.01
0.01
0.01
0.01
0.01
0.01
0.01
0.01
0.01
0.01
0.01
0.01
0.01
0.01
0.01
0.01
0.01
0.01
0.01
0.01
0.01
0.01
0.01
0.01
0.01
0.01
0.01
0.01
0.01
0.01
0.01
0.01
0.01
0.01
0.01
0.01
0.01
0.01
0.01
0.01
0.01
0.01
0.01
0.01
0.01
0.01
0.01
0.01
0.01
0.01
0.01
0.01
0.01
0.01
0.01
0.01
0.01
0.01
0.01
0.01
0.01
0.01
0.01
0.01
0.01
0.01
0.01
0.01
0.01
0.01
0.01
0.01
0.01
0.01
0.01
0.01
0.01
0.01
0.01
0.01
0.01
0.01
0.01
0.01
0.01
0.01
0.01
0.01
0.01
0.01
0.01
0.01
0.01
0.01
0.01
0.01
0.01
0.01
0.01
0.01
0.01
0.01
0.01
0.01
0.01
0.01
0.01
0.01
0.01
0.01
0.01
0.01
0.01
0.01
0.01
0.01
0.01
0.01
0.01
0.01
0.01
0.01
0.01
0.01
0.01
0.01
0.01
0.01
0.01
0.01
0.01
0.01
0.01
0.01
0.01
0.01
0.01
0.01
0.01
0.01
0.01
0.01
0.01
0.01
0.01
0.01
0.01
0.01
0.01
0.01
0.01
0.01
0.01
0.01
0.01
0.01
0.01
0.01
0.01
0.01
0.01
0.01
0.01
0.01
0.01
0.01
0.01
0.01
0.01
0.01
0.01
0.01
0.01
0.01
0.01
0.01
0.01
0.01
0.01
0.01
0.01
0.01
0.01
0.01
0.01
0.01
0.01
0.01
0.01
0.01
0.01
0.01
0.01
0.01
0.01
0.01
0.01
0.01
0.01
0.01
0.01
0.01
0.01
0.01
0.01
0.01
0.01
0.01
0.01
0.01
0.01
0.01
0.01
0.01
0.01
0.01
0.01
0.01
0.01
0.01
0.01
0.01
0.01
0.01
0.01
0.01
0.01
0.01
0.01
0.01
0.01
0.01
0.01
0.01
0.01
0.01
0.01
0.01
0.01
0.01
0.01
0.01
0.01
0.01
0.01
0.01
0.01
0.01
0.01
0.01
0.01
0.01
0.01
0.01
0.01
0.01
0.01
0.01
0.01
0.01
0.01
0.01
0.01
0.01
0.01
0.01
0.01
0.01
0.01
0.01
0.01
0.01
0.01
0.01
0.01
0.01
0.01
0.01
0.01
0.01
0.01
0.01
0.01
0.01
0.01
0.01
0.01
0.01
0.01
0.01
0.01
0.01
0.01
0.01
0.01
0.01
0.01
0.01
0.01
0.01
0.01
0.01
0.01
0.01
0.01
0.01
0.01
0.01
0.01
0.01
0.01
0.01
0.01
0.01
0.01
0.01
0.01
0.01
0.01
0.01
0.01
0.01
0.01
0.01
0.01
0.01
0.01
0.01
0.01
0.01
0.01
0.01
0.01
0.01
0.01
0.01
0.01
0.01
0.01
0.01
0.01
0.01
0.01
0.01
0.01
0.01
0.01
0.01
0.01
0.01
0.01
0.01
0.01
0.01
0.01
4.788415e-05
0.0004025538
0.0007118146
0.001076343
0.001457469
0.001895286
0.002417447
0.002984859
0.003564862
0.004206652
0.005430772
0.005892553
0.00630519
0.00663347
0.006934348
0.007231477
0.007542799
0.007760134
0.007464701
0.007435256
0.007868798
0.00852758
0.009328635
0.01
0.01
0.01
0.01
0.01
0.01
0.01
0.01
0.01
0.01
0.01
0.01
0.01
0.01
0.01
0.01
0.01
0.01
0.01
0.01
0.01
0.01
0.01
0.01
0.01
0.01
0.01
0.01
0.01
0.01
0.01
0.01
0.01
0.01
0.01
0.01
0.01
0.01
0.01
0.01
0.01
0.01
0.01
0.01
0.01
0.01
0.01
0.01
0.01
0.01
0.01
0.01
0.01
0.01
0.01
0.01
0.01
0.01
0.01
0.01
0.01
0.01
0.01
0.01
0.01
0.01
0.01
0.01
0.01
0.01
0.01
0.01
0.01
0.01
0.01
0.01
0.01
0.01
0.01
0.01
0.01
0.01
0.01
0.01
0.01
0.01
0.01
0.01
0.01
0.01
0.01
0.01
0.01
0.01
0.01
0.01
0.01
0.01
0.01
0.01
0.01
0.01
0.01
0.01
0.01
0.01
0.01
0.01
0.01
0.01
0.01
0.01
0.01
0.01
0.01
0.01
0.01
0.01
0.01
0.01
0.01
0.01
0.01
0.01
0.01
0.01
0.01
0.01
0.01
0.01
0.01
0.01
0.01
0.01
0.01
0.01
0.01
0.01
0.01
0.01
0.01
0.01
0.01
0.01
0.01
0.01
0.01
0.01
0.01
0.01
0.01
0.01
0.01
0.01
0.01
0.01
0.01
0.01
0.01
0.01
0.01
0.01
0.01
0.01
0.01
0.01
0.01
0.01
0.01
0.01
0.01
0.01
0.01
0.01
0.01
0.01
0.01
0.01
0.01
0.01
0.01
0.01
0.01
0.01
0.01
0.01
0.01
0.01
0.01
0.01
0.01
0.01
0.01
0.01
0.01
0.01
0.01
0.01
0.01
0.01
0.01
0.01
0.01
0.01
0.01
0.01
0.01
0.01
0.01
0.01
0.01
0.01
0.01
0.01
0.01
0.01
0.01
0.01
0.01
0.01
0.01
0.01
0.01
0.01
0.01
0.01
0.01
0.01
0.01
0.01
0.01
0.01
0.01
0.01
0.01
0.01
0.01
0.01
0.01
0.01
0.01
0.01
0.01
0.01
0.01
0.01
0.01
0.01
0.01
0.01
0.01
0.01
0.01
0.01
0.01
0.01
0.01
0.01
0.01
0.01
0.01
0.01
0.01
0.01
0.01
0.01
0.01
0.01
0.01
0.01
0.01
0.01
0.01
0.01
0.01
0.01
0.01
0.01
0.01
0.01
0.01
0.01
0.01
0.01
0.01
0.01
0.01
0.01
0.01
0.01
0.01
0.01
0.01
0.01
0.01
0.01
0.01
0.01
0.01
0.01
0.01
0.01
0.01
0.01
0.01
0.01
0.01
0.01
0.01
0.01
0.01
0.01
0.01
0.01
0.01
0.01
0.01
0.01
0.01
0.01
0.01
0.01
0.01
0.01
0.01
0.01
0.01
0.01
0.01
0.01
0.01
0.01
0.01
0.01
0.01
0.01
0.01
0.01
0.01
0.01
0.01
0.01
0.01
0.01
0.01
0.01
0.01
0.01
0.01
0.01
0.01
0.01
0.01
0.01
0.01
0.01
0.01
0.01
0.01
0.01
0.01
0.01
0.01
0.01
0.01
0.01
0.01
0.01
0.01
0.01
0.01
0.01
0.01
0.01
0.01
0.01
0.01
0.01
0.01
0.01
0.01
0.01
0.01
0.01
0.01
0.01
0.01
0.01
0.01
0.01
0.01
0.01
0.01
0.01
0.01
0.01
0.01
0.01
0.01
0.01
0.01
0.01
0.01
0.01
0.01
0.01
0.01
0.01
0.01
0.01
0.01
0.01
0.01
0.01
0.01
0.01
0.01
0.01
0.01
0.01
0.01
0.01
0.01
0.01
0.01
0.01
0.01
0.01
0.01
0.01
0.01
0.01
0.01
0.01
0.01
0.01
0.01
0.01
0.01
0.01
0.01
0.01
0.01
0.01
0.01
0.01
0.01
0.01
0.01
0.01
0.01
0.01
0.01
0.01
0.01
0.01
0.01
0.01
0.01
0.01
0.01
0.01
0.01
0.01
0.01
0.01
5.110687e-05
0.0008745068
0.001974142
0.002742382
0.003497376
0.004214379
0.004859083
0.005404126
0.005837423
0.0061555
0.00635796
0.006508473
0.006595755
0.006670061
0.006766496
0.006909266
0.006811687
0.006478571
0.0064146
0.006574187
0.006924463
0.007474067
0.008281088
0.009248298
0.01
0.01
0.01
0.01
0.01
0.01
0.01
0.01
0.01
0.01
0.01
0.01
0.01
0.01
0.01
0.01
0.01
0.01
0.01
0.01
0.01
0.01
0.01
0.01
0.01
0.01
0.01
0.01
0.01
0.01
0.01
0.01
0.01
0.01
0.01
0.01
0.01
0.01
0.01
0.01
0.01
0.01
0.01
0.01
0.01
0.01
0.01
0.01
0.01
0.01
0.01
0.01
0.01
0.01
0.01
0.01
0.01
0.01
0.01
0.01
0.01
0.01
0.01
0.01
0.01
0.01
0.01
0.01
0.01
0.01
0.01
0.01
0.01
0.01
0.01
0.01
0.01
0.01
0.01
0.01
0.01
0.01
0.01
0.01
0.01
0.01
0.01
0.01
0.01
0.01
0.01
0.01
0.01
0.01
0.01
0.01
0.01
0.01
0.01
0.01
0.01
0.01
0.01
0.01
0.01
0.01
0.01
0.01
0.01
0.01
0.01
0.01
0.01
0.01
0.01
0.01
0.01
0.01
0.01
0.01
0.01
0.01
0.01
0.01
0.01
0.01
0.01
0.01
0.01
0.01
0.01
0.01
0.01
0.01
0.01
0.01
0.01
0.01
0.01
0.01
0.01
0.01
0.01
0.01
0.01
0.01
0.01
0.01
0.01
0.01
0.01
0.01
0.01
0.01
0.01
0.01
0.01
0.01
0.01
0.01
0.01
0.01
0.01
0.01
0.01
0.01
0.01
0.01
0.01
0.01
0.01
0.01
0.01
0.01
0.01
0.01
0.01
0.01
0.01
0.01
0.01
0.01
0.01
0.01
0.01
0.01
0.01
0.01
0.01
0.01
0.01
0.01
0.01
0.01
0.01
0.01
0.01
0.01
0.01
0.01
0.01
0.01
0.01
0.01
0.01
0.01
0.01
0.01
0.01
0.01
0.01
0.01
0.01
0.01
0.01
0.01
0.01
0.01
0.01
0.01
0.01
0.01
0.01
0.01
0.01
0.01
0.01
0.01
0.01
0.01
0.01
0.01
0.01
0.01
0.01
0.01
0.01
0.01
0.01
0.01
0.01
0.01
0.01
0.01
0.01
0.01
0.01
0.01
0.01
0.01
0.01
0.01
0.01
0.01
0.01
0.01
0.01
0.01
0.01
0.01
0.01
0.01
0.01
0.01
0.01
0.01
0.01
0.01
0.01
0.01
0.01
0.01
0.01
0.01
0.01
0.01
0.01
0.01
0.01
0.01
0.01
0.01
0.01
0.01
0.01
0.01
0.01
0.01
0.01
0.01
0.01
0.01
0.01
0.01
0.01
0.01
0.01
0.01
0.01
0.01
0.01
0.01
0.01
0.01
0.01
0.01
0.01
0.01
0.01
0.01
0.01
0.01
0.01
0.01
0.01
0.01
0.01
0.01
0.01
0.01
0.01
0.01
0.01
0.01
0.01
0.01
0.01
0.01
0.01
0.01
0.01
0.01
0.01
0.01
0.01
0.01
0.01
0.01
0.01
0.01
0.01
0.01
0.01
0.01
0.01
0.01
0.01
0.01
0.01
0.01
0.01
0.01
0.01
0.01
0.01
0.01
0.01
0.01
0.01
0.01
0.01
0.01
0.01
0.01
0.01
0.01
0.01
0.01
0.01
0.01
0.01
0.01
0.01
0.01
0.01
0.01
0.01
0.01
0.01
0.01
0.01
0.01
0.01
0.01
0.01
0.01
0.01
0.01
0.01
0.01
0.01
0.01
0.01
0.01
0.01
0.01
0.01
0.01
0.01
0.01
0.01
0.01
0.01
0.01
0.01
0.01
0.01
0.01
0.01
0.01
0.01
0.01
0.01
0.01
0.01
0.01
0.01
0.01
0.01
0.01
0.01
0.01
0.01
0.01
0.01
0.01
0.01
0.01
0.01
0.01
0.01
0.01
0.01
0.01
0.01
0.01
0.01
0.01
0.01
0.01
0.01
0.01
0.01
0.01
0.01
0.01
0.01
0.01
0.01
0.01
0.01
0.01
0.01
0.01
0.01
0.01
0.01
0.01
0.01
0.01
0.01
0.01
0.01
0.01
0.01
2.069092e-05
3.045327e-05
4.509407e-05
0.0001845053
0.0002817264
0.0005900313
0.0006982886
0.0007637543
0.0007593158
0.0007412721
0.0007630841
0.0007831762
0.0007926068
0.0007663252
0.0005127831
9.316837e-05
1.314022e-05
4.533741e-05
0.001238174
0.002441627
0.003346889
0.004207113
0.0049645
0.005577722
0.006024576
0.006300364
0.006413767
0.00638992
0.006278479
0.006148299
0.006047988
0.005894733
0.005404638
0.00507326
0.004998946
0.005137813
0.00544915
0.005930343
0.006581729
0.007455684
0.008541967
0.009690881
0.01
0.01
0.01
0.01
0.01
0.01
0.01
0.01
0.01
0.01
0.01
0.01
0.01
0.01
0.01
0.01
0.01
0.01
0.01
0.01
0.01
0.01
0.01
0.01
0.01
0.01
0.01
0.01
0.01
0.01
0.01
0.01
0.01
0.01
0.01
0.01
0.01
0.01
0.01
0.01
0.01
0.01
0.01
0.01
0.01
0.01
0.01
0.01
0.01
0.01
0.01
0.01
0.01
0.01
0.01
0.01
0.01
0.01
0.01
0.01
0.01
0.01
0.01
0.01
0.01
0.01
0.01
0.01
0.01
0.01
0.01
0.01
0.01
0.01
0.01
0.01
0.01
0.01
0.01
0.01
0.01
0.01
0.01
0.01
0.01
0.01
0.01
0.01
0.01
0.01
0.01
0.01
0.01
0.01
0.01
0.01
0.01
0.01
0.01
0.01
0.01
0.01
0.01
0.01
0.01
0.01
0.01
0.01
0.01
0.01
0.01
0.01
0.01
0.01
0.01
0.01
0.01
0.01
0.01
0.01
0.01
0.01
0.01
0.01
0.01
0.01
0.01
0.01
0.01
0.01
0.01
0.01
0.01
0.01
0.01
0.01
0.01
0.01
0.01
0.01
0.01
0.01
0.01
0.01
0.01
0.01
0.01
0.01
0.01
0.01
0.01
0.01
0.01
0.01
0.01
0.01
0.01
0.01
0.01
0.01
0.01
0.01
0.01
0.01
0.01
0.01
0.01
0.01
0.01
0.01
0.01
0.01
0.01
0.01
0.01
0.01
0.01
0.01
0.01
0.01
0.01
0.01
0.01
0.01
0.01
0.01
0.01
0.01
0.01
0.01
0.01
0.01
0.01
0.01
0.01
0.01
0.01
0.01
0.01
0.01
0.01
0.01
0.01
0.01
0.01
0.01
0.01
0.01
0.01
0.01
0.01
0.01
0.01
0.01
0.01
0.01
0.01
0.01
0.01
0.01
0.01
0.01
0.01
0.01
0.01
0.01
0.01
0.01
0.01
0.01
0.01
0.01
0.01
0.01
0.01
0.01
0.01
0.01
0.01
0.01
0.01
0.01
0.01
0.01
0.01
0.01
0.01
0.01
0.01
0.01
0.01
0.01
0.01
0.01
0.01
0.01
0.01
0.01
0.01
0.01
0.01
0.01
0.01
0.01
0.01
0.01
0.01
0.01
0.01
0.01
0.01
0.01
0.01
0.01
0.01
0.01
0.01
0.01
0.01
0.01
0.01
0.01
0.01
0.01
0.01
0.01
0.01
0.01
0.01
0.01
0.01
0.01
0.01
0.01
0.01
0.01
0.01
0.01
0.01
0.01
0.01
0.01
0.01
0.01
0.01
0.01
0.01
0.01
0.01
0.01
0.01
0.01
0.01
0.01
0.01
0.01
0.01
0.01
0.01
0.01
0.01
0.01
0.01
0.01
0.01
0.01
0.01
0.01
0.01
0.01
0.01
0.01
0.01
0.01
0.01
0.01
0.01
0.01
0.01
0.01
0.01
0.01
0.01
0.01