/*--------------------------------*- C++ -*----------------------------------*\
| =========                 |                                                 |
| \\      /  F ield         | foam-extend: Open Source CFD                    |
|  \\    /   O peration     | Version:     3.1                                |
|   \\  /    A nd           | Web:         http://www.extend-project.de       |
|    \\/     M anipulation  |                                                 |
\*---------------------------------------------------------------------------*/
FoamFile
{
    version     2.0;
    format      ascii;
    class       volScalarField;
    location    "1";
    object      omega;
}
// * * * * * * * * * * * * * * * * * * * * * * * * * * * * * * * * * * * * * //

dimensions      [0 0 -1 0 0 0 0];

internalField   nonuniform List<scalar> 
119952
(
183.4555
215.8228
206.2548
189.3169
176.3324
179.3793
183.8599
188.6849
193.5492
198.3801
203.1897
208.0156
212.9015
217.8902
223.0215
228.3354
233.8773
239.7115
245.984
253.394
220.7379
220.0875
222.3733
194.5648
191.624
190.1268
188.6752
187.2352
182.9278
198.1404
346.3727
268.1473
230.725
209.3525
193.6478
180.4362
168.7918
158.5063
149.396
138.7857
101.6949
81.72237
71.03936
65.03481
61.33978
58.75154
56.69581
54.90996
53.26108
41.35567
38.55667
36.19395
34.30877
32.85058
31.72928
30.85372
30.14992
29.56344
29.05098
28.44647
27.69591
26.89615
26.13655
25.46737
24.90135
24.42699
24.01927
23.65333
24.01128
24.11352
23.85248
23.45876
23.06407
22.71256
22.41257
22.1759
22.00494
21.8952
21.83276
21.80565
21.80602
21.82694
21.86247
21.90738
21.95657
22.00324
22.03302
22.02393
21.98952
21.94989
21.87592
21.77327
21.7188
21.70463
21.75383
21.99836
22.98082
24.88217
25.32135
25.42292
25.41046
25.35032
25.27072
25.18853
25.11392
25.05228
25.00573
24.9743
24.95688
24.95179
24.95727
24.97162
24.99333
25.02113
25.05393
25.09084
25.13112
25.17419
25.21956
25.2669
25.31594
25.36638
25.41799
25.47088
25.52529
25.5812
25.63844
25.69678
25.75606
25.81616
25.87711
25.93903
26.00216
26.06673
26.13295
26.20098
26.27092
26.34279
26.41661
26.49232
26.56987
26.64921
26.7303
26.81293
26.89667
26.97886
27.06164
27.62741
28.38625
29.02387
29.51091
29.87304
30.1418
30.34467
30.50243
30.62997
30.73769
30.83281
30.92026
31.00261
31.08231
31.16197
31.24253
31.32439
31.40783
31.49309
31.58034
31.66969
31.76116
31.85477
31.9505
32.04833
32.14824
32.25019
32.35414
32.46005
32.56799
32.67801
32.79025
32.90489
33.02215
33.1422
33.26501
33.39051
33.51875
33.65232
33.78917
33.92914
34.07346
34.22223
34.37566
34.53399
34.6975
34.86637
35.0409
35.21248
35.41814
43.23187
51.80817
54.96456
56.29335
56.91879
57.25713
57.484
57.67896
57.87911
58.09939
58.34059
58.60873
58.90615
59.22698
59.5682
59.92795
60.30471
60.69727
61.10471
61.52625
61.96134
62.40959
62.87076
63.34505
63.83195
64.33142
64.84416
65.36971
65.90825
66.45982
67.02384
67.59863
68.16969
68.74523
69.22134
68.70912
67.39695
66.50787
65.84471
65.29615
64.80213
64.33274
63.87423
63.42082
62.97036
62.52281
62.07924
61.63927
61.20358
60.77268
60.34684
59.9263
59.5112
59.10161
58.6976
58.29918
57.90636
57.51912
57.13743
56.76125
56.39033
56.02482
55.66522
55.31068
54.96129
54.61701
54.27776
53.94348
53.61308
53.27983
43.54727
41.34859
39.29817
37.53815
36.12224
35.0408
34.24621
33.67636
33.2706
32.97899
32.7639
32.59903
32.46648
32.35433
32.25477
32.16274
32.07498
31.98942
31.90481
31.8204
31.73582
31.65091
31.56567
31.48016
31.39451
31.30891
31.2235
31.13841
31.05377
30.96967
30.8862
30.8034
30.7213
30.63987
30.55908
30.47888
30.39919
30.31992
30.24102
30.1624
30.08406
30.00607
29.92876
29.85267
29.77939
29.71301
29.65351
29.59633
29.54067
29.48612
29.43252
29.37976
29.32745
29.2746
29.19031
28.91702
28.49134
27.99758
27.51204
27.08462
26.73722
26.47087
26.27483
26.13408
26.034
25.96231
25.90966
25.86929
25.83655
25.80828
25.78247
25.7578
25.73347
25.70903
25.68421
25.65892
25.63313
25.60688
25.58023
25.55329
25.52614
25.49886
25.47155
25.44425
25.41702
25.38989
25.36285
25.3359
25.309
25.28209
25.25512
25.22801
25.2007
25.17313
25.14524
25.11699
25.08834
25.05929
25.02984
25.00001
24.96982
24.93932
24.90856
24.87758
24.84646
24.81523
24.78393
24.75263
24.72133
24.69009
24.65891
24.62783
24.59684
24.56596
24.5352
24.50455
24.47401
24.44358
24.41324
24.38299
24.35282
24.32271
24.29262
24.26255
24.23244
24.20225
24.1719
24.14131
24.11032
24.07872
24.04616
24.01203
23.97528
23.93392
23.88355
23.81352
23.70026
23.50582
23.82546
298.9611
244.4609
217.8126
200.4638
186.4756
174.246
163.3935
153.7612
144.7967
117.5553
89.48296
75.00097
67.278
62.8756
60.01854
57.86026
56.02421
54.35019
43.05449
39.96433
37.26949
35.09877
33.43262
32.17692
31.22073
30.47012
29.85681
29.33035
28.80211
28.08786
27.26597
26.45397
25.72862
25.11743
24.61479
24.20077
23.85279
23.8492
23.76947
23.40368
22.92761
22.4375
21.98141
21.57764
21.22803
20.92681
20.66505
20.42089
20.15902
19.87056
19.56677
19.26548
18.9816
18.72364
18.49446
18.30363
16.52787
16.34425
16.17506
16.00927
15.84545
15.68619
15.53535
15.39476
15.26464
15.14446
15.03088
14.91937
14.80697
14.69304
14.57879
14.46627
14.35774
14.25618
14.16905
14.11
14.06764
14.02997
13.99373
13.95812
13.92161
13.88347
13.84457
13.80655
13.77109
13.73961
13.71302
13.69166
13.67569
13.66445
13.65672
13.65112
13.64662
13.64159
13.63456
13.62555
13.61461
13.60127
13.58955
13.58571
13.59428
13.6253
13.69286
13.81398
13.94793
14.06044
14.15191
14.22369
14.27862
14.31963
14.34943
14.37047
14.38485
14.39434
14.40038
14.40409
14.40633
14.40774
14.40879
14.40983
14.4111
14.41275
14.4149
14.41758
14.42084
14.42468
14.42911
14.43413
14.43973
14.44594
14.45276
14.4602
14.46821
14.47674
14.48568
14.49493
14.50442
14.51411
14.52402
14.53418
14.54468
14.5556
14.567
14.57892
14.59138
14.60436
14.61781
14.63168
14.64589
14.66035
14.67494
14.68947
14.70383
14.71979
14.74533
14.78395
14.83416
14.89183
14.95265
15.01318
15.07103
15.12484
15.17397
15.2183
15.25803
15.29352
15.32521
15.3536
15.37918
15.40243
15.4237
15.44335
15.46164
15.47882
15.49509
15.51064
15.52558
15.54002
15.55406
15.56777
15.58123
15.59448
15.60758
15.62057
15.63353
15.64653
15.65969
15.6731
15.68684
15.70094
15.71545
15.7304
15.7458
15.76165
15.77797
15.79477
15.81205
15.82983
15.8481
15.86685
15.88598
15.90523
15.92347
15.93189
16.85896
17.5197
17.84835
18.06035
18.22372
18.35875
18.4719
18.56632
18.64464
18.70945
18.7632
18.80822
18.84652
18.87974
18.90917
18.93582
18.96045
18.98364
19.00583
19.02734
19.04838
19.06913
19.08972
19.11027
19.13062
19.15079
19.17082
19.19067
19.21026
19.22943
19.24788
19.26505
19.27967
19.28883
19.28519
19.25679
19.21187
19.159
19.10326
19.04831
18.9964
18.94855
18.90502
18.86556
18.82971
18.79693
18.76669
18.73849
18.71193
18.68664
18.66236
18.63884
18.61593
18.59347
18.57135
18.54951
18.52787
18.5064
18.48505
18.46381
18.44266
18.42159
18.40057
18.37962
18.35872
18.33787
18.31708
18.29636
18.27586
18.2608
16.62593
16.54118
16.4703
16.39735
16.31718
16.23027
16.13963
16.04886
15.96117
15.87891
15.8035
15.73555
15.67508
15.62173
15.57491
15.53392
15.49803
15.46657
15.43889
15.41445
15.39276
15.37327
15.35554
15.33928
15.32426
15.3103
15.29725
15.28499
15.27341
15.26243
15.25196
15.24193
15.23226
15.22288
15.21373
15.20473
15.1958
15.1869
15.17796
15.16894
15.15984
15.15067
15.1415
15.13246
15.12375
15.11554
15.10768
15.09993
15.09216
15.08434
15.07644
15.06851
15.06063
15.0529
15.04423
15.03124
15.01083
14.98144
14.94335
14.89829
14.84884
14.79772
14.74733
14.69949
14.65537
14.61559
14.5803
14.54938
14.52248
14.49919
14.47903
14.46157
14.44639
14.43313
14.42146
14.41112
14.40189
14.39359
14.38605
14.37917
14.37284
14.36698
14.36153
14.35642
14.35161
14.34704
14.34266
14.33843
14.3343
14.3302
14.32609
14.32193
14.31768
14.31328
14.30873
14.30399
14.29906
14.29391
14.28856
14.283
14.27725
14.27132
14.26523
14.25899
14.25263
14.24617
14.23963
14.23302
14.22636
14.21966
14.21293
14.20617
14.1994
14.19261
14.18581
14.17899
14.17215
14.16529
14.1584
14.15148
14.1445
14.13747
14.13035
14.12313
14.11579
14.10829
14.10057
14.09258
14.08422
14.07536
14.06581
14.05527
14.04327
14.02905
14.01141
13.98865
13.9591
13.92697
13.90874
375.3945
288.6649
253.0348
231.02
212.5366
196.0864
181.4679
168.6535
157.4493
145.051
104.7334
83.30453
72.00522
65.76152
61.96431
59.30947
57.19263
55.34571
53.63867
41.58279
38.68669
36.24703
34.31773
32.8473
31.73742
30.88664
30.21256
29.65555
29.16581
28.56241
27.79027
26.96254
26.1841
25.51215
24.95833
24.50801
24.13756
23.81685
23.98991
23.72993
23.27621
22.76647
22.27527
21.83592
21.45654
21.13269
20.8549
20.60846
20.35479
20.06877
19.75616
19.43729
19.13239
18.85434
18.608
18.39862
16.56101
16.37722
16.21027
16.04475
15.87926
15.71699
15.56079
15.41345
15.27667
15.15075
15.03345
14.91947
14.80451
14.687
14.56794
14.4498
14.33526
14.22654
14.12567
14.03885
13.96313
13.89029
13.81503
13.73556
13.65253
13.56777
13.48334
13.40101
13.32198
13.2462
13.17239
13.0989
13.0246
12.94923
12.87333
12.79787
12.72391
12.65156
12.63721
12.60423
12.55955
12.50674
12.44807
12.38524
12.31952
12.25252
12.18586
12.12057
12.05695
11.9947
11.93331
11.8724
11.81191
11.75208
11.69352
11.6374
11.58592
11.54193
11.50459
11.47255
11.44518
11.42174
11.40092
11.38149
11.36275
11.34444
11.32663
11.30956
11.29352
11.27881
11.26563
11.25403
11.24385
11.23481
11.2265
11.21847
11.21029
11.20196
11.19353
11.18534
11.17875
11.176
11.17936
11.19471
11.22404
11.26776
11.3146
11.35873
11.39966
11.4372
11.47109
11.50124
11.52771
11.55065
11.57033
11.58702
11.60105
11.61275
11.62243
11.63041
11.63696
11.64236
11.64685
11.65066
11.65396
11.65693
11.65971
11.66241
11.66516
11.66805
11.67117
11.67457
11.67833
11.68245
11.68693
11.69172
11.69677
11.70201
11.70737
11.71282
11.71835
11.724
11.72981
11.73583
11.74214
11.74877
11.75573
11.76304
11.77067
11.77857
11.78669
11.79497
11.80333
11.8117
11.82003
11.82868
11.83885
11.85162
11.86766
11.887
11.90917
11.93344
11.95899
11.98505
12.01103
12.03643
12.0609
12.08422
12.10625
12.12694
12.14631
12.16442
12.18133
12.19712
12.21188
12.22571
12.23871
12.25096
12.26254
12.27349
12.28391
12.29386
12.30341
12.3126
12.32151
12.33015
12.33859
12.34689
12.35508
12.3632
12.37132
12.37948
12.38772
12.39604
12.40445
12.41297
12.4216
12.43033
12.43918
12.44815
12.45724
12.46646
12.47578
12.48511
12.49439
12.50431
12.52725
12.52758
12.52998
12.53989
12.55687
12.57899
12.60425
12.63097
12.65785
12.68403
12.70891
12.73219
12.75372
12.77349
12.79157
12.80806
12.82309
12.83681
12.84937
12.86088
12.87147
12.88124
12.89027
12.8986
12.90625
12.91327
12.91971
12.92557
12.93085
12.93551
12.93942
12.94235
12.94383
12.94306
12.93883
12.93085
12.9203
12.9077
12.8936
12.87851
12.8629
12.8472
12.83172
12.8167
12.8023
12.7886
12.77564
12.76341
12.75188
12.74099
12.73069
12.72092
12.71161
12.70269
12.69413
12.68586
12.67785
12.67005
12.66243
12.65497
12.64763
12.6404
12.63325
12.62617
12.61914
12.61216
12.60523
12.59834
12.59131
12.5823
12.62446
12.64738
12.65734
12.65733
12.64904
12.63378
12.61279
12.58736
12.55877
12.52825
12.49684
12.46541
12.43464
12.40501
12.37683
12.35028
12.32544
12.30232
12.28086
12.26098
12.24258
12.22561
12.20999
12.19562
12.1824
12.17022
12.15899
12.14862
12.13903
12.13014
12.12187
12.11416
12.10692
12.1001
12.09361
12.08741
12.08142
12.07559
12.06987
12.06423
12.05865
12.05312
12.04766
12.04232
12.03716
12.03221
12.02745
12.02279
12.01819
12.01363
12.00908
12.00457
12.0001
11.9957
11.9912
11.986
11.97933
11.97049
11.95901
11.94475
11.92789
11.90887
11.88829
11.86679
11.84499
11.82343
11.80251
11.78257
11.76379
11.7463
11.73013
11.71529
11.70171
11.68934
11.67807
11.66783
11.65852
11.65004
11.6423
11.63524
11.62878
11.62285
11.61738
11.61233
11.60765
11.60327
11.59917
11.59528
11.59157
11.58798
11.58449
11.58106
11.57765
11.57424
11.5708
11.56733
11.5638
11.56021
11.55655
11.55282
11.54903
11.54517
11.54125
11.53727
11.53325
11.52919
11.52509
11.52096
11.51681
11.51263
11.50844
11.50423
11.50001
11.49577
11.49151
11.48724
11.48293
11.4786
11.47422
11.4698
11.46533
11.46078
11.45614
11.45141
11.44654
11.4415
11.43627
11.43077
11.42495
11.4187
11.41188
11.4043
11.3957
11.38568
11.37376
11.35936
11.34217
11.32338
11.30782
301.782
233.1214
163.26
90.95981
71.8371
47.34329
40.57589
36.1701
32.93013
30.42454
28.58105
27.21526
26.53712
25.85297
24.97542
24.11699
23.35798
22.71535
22.17896
21.7305
21.3518
21.02641
20.72564
20.40913
20.0689
19.71984
19.38268
19.07343
18.79987
18.56307
18.37106
16.5843
16.39763
16.22524
16.0559
15.8889
15.72803
15.57631
15.43524
15.30552
15.1863
15.07314
14.96024
14.84404
14.72412
14.60252
14.48232
14.36649
14.25746
14.15892
14.07527
13.99802
13.91949
13.83608
13.74767
13.65618
13.56418
13.474
13.38732
13.30471
13.22502
13.14619
13.06649
12.98522
12.90284
12.82049
12.73942
12.65961
12.6389
12.60012
12.55021
12.4922
12.42774
12.35854
12.28683
12.21445
12.14281
12.07295
12.00525
11.93937
11.87456
11.81019
11.74597
11.68202
11.61875
11.55675
11.49675
11.4399
11.38648
11.3358
11.28679
11.23852
11.19044
11.14237
11.09445
11.04696
11.00023
10.95445
10.90953
10.86523
10.82122
10.77726
10.73325
10.68927
10.64557
10.60309
10.5677
10.53492
10.5025
10.46922
10.43441
10.39763
10.35835
10.31713
10.27501
10.23269
10.19058
10.14888
10.10765
10.0669
10.02665
9.986995
9.948173
9.910658
9.875248
9.842859
9.813589
9.78737
9.764297
9.744295
9.726901
9.711496
9.697521
9.684557
9.672317
9.660637
9.649449
9.638743
9.628542
9.618853
9.609652
9.600868
9.592391
9.58409
9.575875
9.567803
9.560034
9.552854
9.546917
9.543271
9.54312
9.549415
9.562399
9.581371
9.60248
9.623516
9.644157
9.664452
9.684328
9.703644
9.722245
9.739971
9.756672
9.772222
9.786527
9.799531
9.811217
9.821611
9.830772
9.838791
9.845782
9.851871
9.857194
9.861889
9.866093
9.869938
9.873554
9.877058
9.880557
9.884142
9.887877
9.891801
9.895918
9.900205
9.904615
9.909095
9.913596
9.918084
9.922554
9.927025
9.931535
9.936136
9.940881
9.945814
9.950965
9.956345
9.961946
9.967745
9.973705
9.979781
9.985921
9.992074
9.99821
10.0044
10.01087
10.01793
10.02591
10.03505
10.04546
10.05715
10.06997
10.08374
10.09823
10.11318
10.12836
10.14358
10.15867
10.17351
10.18798
10.20202
10.21556
10.22857
10.24102
10.25294
10.26433
10.27522
10.28562
10.29557
10.30508
10.31419
10.32295
10.33138
10.33952
10.34741
10.35508
10.36257
10.36989
10.37707
10.38415
10.39114
10.39807
10.40494
10.41176
10.41851
10.4252
10.43182
10.43838
10.44488
10.45133
10.45773
10.46409
10.47038
10.47661
10.48301
10.49064
10.49688
10.50251
10.50868
10.51615
10.52522
10.53587
10.54785
10.56083
10.57448
10.58848
10.60255
10.61645
10.63002
10.64314
10.65568
10.66759
10.67885
10.68945
10.69942
10.70874
10.71744
10.72552
10.73299
10.73986
10.74614
10.75182
10.7569
10.76139
10.76525
10.76839
10.77068
10.77186
10.77158
10.76936
10.76553
10.7605
10.75445
10.74753
10.73992
10.73174
10.72318
10.71439
10.70549
10.6966
10.68779
10.67911
10.67065
10.66243
10.65447
10.64675
10.63929
10.63209
10.62513
10.6184
10.61188
10.60556
10.59942
10.59344
10.58761
10.5819
10.57631
10.5708
10.56537
10.56001
10.55473
10.54952
10.54438
10.53935
10.5349
10.53611
10.53921
10.54218
10.54391
10.54373
10.54129
10.53644
10.52921
10.51975
10.50833
10.49526
10.48086
10.46547
10.44939
10.43291
10.41627
10.39966
10.38325
10.36717
10.35153
10.33639
10.3219
10.30814
10.29514
10.28288
10.27136
10.26055
10.25041
10.24091
10.23201
10.22367
10.21584
10.20848
10.20153
10.19495
10.1887
10.18272
10.17698
10.17144
10.16608
10.16089
10.15585
10.15097
10.14627
10.14177
10.13747
10.13337
10.12943
10.12563
10.12194
10.11834
10.11484
10.11143
10.10812
10.10485
10.10149
10.09782
10.09358
10.08851
10.08244
10.07522
10.06684
10.05735
10.0469
10.03566
10.02384
10.01166
9.999323
9.987015
9.974892
9.963078
9.95167
9.940737
9.930324
9.920454
9.911134
9.902358
9.89411
9.886367
9.8791
9.87228
9.865874
9.859849
9.854173
9.848815
9.843742
9.838923
9.834328
9.829928
9.825697
9.821608
9.817642
9.81378
9.810005
9.806307
9.802675
9.7991
9.795575
9.792094
9.788651
9.78524
9.781857
9.778498
9.775159
9.771836
9.768526
9.765226
9.761934
9.758647
9.755362
9.752076
9.748786
9.745489
9.742181
9.738857
9.735512
9.732141
9.728738
9.725294
9.721801
9.718248
9.714622
9.710909
9.707088
9.703137
9.699026
9.69472
9.690171
9.685319
9.680086
9.67437
9.668038
9.660915
9.652785
9.643394
9.632489
9.619975
9.606353
9.594084
371.9147
276.2131
229.6862
102.6022
84.84527
50.09345
42.8619
39.82157
35.5894
32.48772
30.38466
28.78385
26.89402
25.30583
23.83985
22.54307
19.36431
18.56974
17.8643
17.24652
16.71082
16.24128
15.82826
15.4732
15.16423
14.88701
14.63401
14.40242
14.19154
14.00112
13.83059
13.67896
13.54461
13.42486
13.31593
13.21416
13.11698
13.02318
12.93269
12.84606
12.76395
12.68621
12.66955
12.63467
12.58801
12.5328
12.47115
12.4047
12.3354
12.26526
12.19572
12.12758
12.06085
11.99481
11.92861
11.86167
11.7939
11.7257
11.65778
11.59102
11.52659
11.46562
11.40785
11.35221
11.29757
11.24317
11.1887
11.13428
11.08027
11.02711
10.97511
10.92429
10.87438
10.82494
10.7756
10.72618
10.6767
10.62744
10.57934
10.5386
10.50052
10.46268
10.42364
10.38231
10.33851
10.29318
10.24699
10.20046
10.15406
10.10812
10.0628
10.01807
9.973822
9.929956
9.886422
9.843254
9.800572
9.75858
9.717571
9.677762
9.639206
9.601804
9.565365
9.529687
9.494604
9.460024
9.425919
9.392307
9.35921
9.326618
9.294474
9.26269
9.231166
9.199817
9.168597
9.137529
9.106833
9.077326
9.048959
9.021398
8.994246
8.96714
8.939787
8.912017
8.883884
8.855551
8.827179
8.798906
8.770833
8.743031
8.715555
8.688461
8.661826
8.635777
8.610526
8.586386
8.563691
8.542564
8.523073
8.505343
8.489441
8.475266
8.462596
8.451176
8.440759
8.431128
8.422103
8.413544
8.405348
8.397442
8.389773
8.382297
8.374971
8.367757
8.360627
8.353585
8.346705
8.340125
8.334053
8.328825
8.324933
8.322933
8.323817
8.328906
8.336879
8.346364
8.356345
8.366558
8.377038
8.387822
8.398898
8.410214
8.421675
8.433151
8.44449
8.455541
8.466158
8.476218
8.485622
8.49431
8.502259
8.509474
8.515989
8.521862
8.527167
8.531989
8.536423
8.540569
8.544523
8.548376
8.552204
8.556067
8.559997
8.564003
8.568067
8.572156
8.576226
8.580239
8.584168
8.588006
8.591765
8.595478
8.599187
8.602938
8.606774
8.610728
8.614817
8.619047
8.623408
8.627878
8.632429
8.637027
8.64164
8.646241
8.650832
8.65546
8.660197
8.665147
8.670428
8.676146
8.682382
8.689174
8.69653
8.704435
8.712824
8.721613
8.730709
8.740042
8.74954
8.759127
8.768725
8.778264
8.787696
8.796983
8.806095
8.815008
8.823705
8.832174
8.84041
8.848413
8.856186
8.863738
8.871082
8.878234
8.885209
8.892029
8.898715
8.905289
8.91177
8.918171
8.924497
8.930746
8.93691
8.942976
8.948931
8.954761
8.960455
8.966009
8.97142
8.976694
8.981837
8.986858
8.991761
8.99656
9.001319
9.006192
9.010988
9.015673
9.020388
9.025339
9.030722
9.036669
9.04324
9.050442
9.058232
9.066529
9.075233
9.084236
9.093433
9.102724
9.112003
9.121183
9.130198
9.138993
9.147522
9.155744
9.163618
9.17112
9.178227
9.184922
9.191169
9.196944
9.202226
9.20699
9.211199
9.214791
9.217666
9.219691
9.220664
9.220289
9.219068
9.217022
9.214228
9.210773
9.206722
9.202147
9.197122
9.191723
9.186021
9.180081
9.173957
9.16771
9.161397
9.155072
9.148764
9.1425
9.136293
9.130158
9.124122
9.118198
9.11239
9.106701
9.101129
9.095671
9.090326
9.085094
9.079956
9.074895
9.069899
9.064976
9.060132
9.055371
9.050696
9.046143
9.041867
9.038541
9.036153
9.034444
9.033075
9.031709
9.030036
9.027795
9.024784
9.020863
9.015957
9.010047
9.003162
8.995368
8.986764
8.977465
8.9676
8.957304
8.946709
8.935942
8.92512
8.914351
8.903725
8.893316
8.883181
8.873363
8.863895
8.854798
8.846084
8.837759
8.829818
8.822252
8.815048
8.808189
8.801654
8.795422
8.78947
8.783778
8.778325
8.773094
8.768074
8.763256
8.758635
8.754213
8.749994
8.745983
8.742183
8.738584
8.73517
8.731922
8.728822
8.725857
8.723014
8.720283
8.717659
8.715121
8.712624
8.710101
8.707462
8.704612
8.701448
8.697879
8.693834
8.689266
8.68416
8.678528
8.672408
8.665859
8.658952
8.651768
8.644388
8.636892
8.629356
8.621844
8.614413
8.607111
8.599973
8.593028
8.586293
8.579781
8.573496
8.567439
8.561608
8.555996
8.550595
8.545397
8.54039
8.535566
8.530912
8.526419
8.522077
8.517879
8.513818
8.509888
8.506087
8.502409
8.498853
8.495414
8.492087
8.488868
8.48575
8.482724
8.479782
8.476915
8.474114
8.471371
8.468675
8.466019
8.463394
8.460794
8.458212
8.455642
8.453077
8.450513
8.447943
8.445362
8.442766
8.440146
8.437499
8.434815
8.432087
8.429305
8.426459
8.423534
8.420516
8.417384
8.414115
8.41068
8.407044
8.40316
8.398974
8.394416
8.3894
8.383822
8.377561
8.37049
8.362491
8.353533
8.343874
8.334977
223.8443
176.6547
225.8859
110.0288
86.09642
57.60915
49.98033
43.4476
38.37746
35.19897
33.08526
31.70497
30.32986
28.89357
27.71897
24.6649
23.59633
22.61262
21.63095
20.68766
19.8021
18.96641
18.16514
17.40618
16.69364
16.02717
15.46918
14.93257
14.43529
13.98436
13.58012
13.21807
12.89468
12.60807
12.35554
12.13332
11.93759
11.765
11.61275
11.47849
11.36016
11.25592
11.16404
11.08274
11.01014
10.94438
10.88373
10.82683
10.7727
10.72074
10.67075
10.62331
10.58422
10.5484
10.51307
10.47666
10.43818
10.39687
10.35308
10.30775
10.26149
10.21475
10.16777
10.12059
10.07312
10.02523
9.976854
9.928057
9.879036
9.830114
9.781724
9.734327
9.688197
9.643379
9.59975
9.557113
9.515288
9.474163
9.433701
9.393925
9.354876
9.316558
9.278913
9.24182
9.205135
9.168729
9.132515
9.096491
9.060874
9.026538
8.993423
8.961151
8.929312
8.89757
8.865771
8.833924
8.802083
8.770313
8.7387
8.707326
8.676245
8.645476
8.615012
8.584828
8.5549
8.525218
8.495798
8.466683
8.437949
8.409675
8.381926
8.35474
8.32812
8.302043
8.276471
8.251363
8.226688
8.202419
8.178537
8.155015
8.131824
8.108922
8.086266
8.063809
8.041513
8.019357
7.997365
7.975657
7.954305
7.93332
7.912665
7.892276
7.872092
7.852071
7.832205
7.812507
7.792997
7.773694
7.754619
7.735791
7.717235
7.69898
7.681071
7.663576
7.646594
7.630255
7.61469
7.599973
7.586152
7.573295
7.561454
7.550618
7.540721
7.531665
7.52334
7.515633
7.508436
7.501648
7.495182
7.488963
7.48293
7.477033
7.471235
7.46551
7.459849
7.454271
7.448827
7.443611
7.438749
7.43442
7.430852
7.428288
7.427035
7.427519
7.430129
7.434003
7.438467
7.443278
7.448428
7.45396
7.459908
7.466278
7.473045
7.480146
7.487491
7.494962
7.502436
7.509795
7.516933
7.523766
7.530228
7.536281
7.541913
7.547132
7.551966
7.556457
7.560662
7.564644
7.568467
7.572196
7.575885
7.579575
7.583286
7.587021
7.590764
7.594483
7.598142
7.601707
7.605153
7.608472
7.611671
7.614774
7.617812
7.620825
7.623847
7.626907
7.630032
7.633232
7.636509
7.639852
7.643246
7.646671
7.650105
7.65353
7.656937
7.660329
7.663722
7.667143
7.670632
7.674238
7.678009
7.681988
7.68621
7.690703
7.695484
7.700538
7.705839
7.711365
7.717101
7.723021
7.729088
7.73527
7.741534
7.747849
7.75419
7.760529
7.766847
7.773125
7.779348
7.785505
7.791586
7.797588
7.803508
7.809347
7.815108
7.820797
7.826419
7.83198
7.837483
7.842928
7.848308
7.853612
7.858825
7.863928
7.868904
7.873735
7.878407
7.882914
7.887252
7.891423
7.895434
7.899295
7.903016
7.906614
7.910114
7.913557
7.916954
7.920312
7.92366
7.92705
7.93055
7.934229
7.938147
7.94235
7.946866
7.951704
7.956854
7.962297
7.967998
7.973918
7.98001
7.986223
7.992508
7.998817
8.005105
8.011327
8.01744
8.023406
8.029186
8.034748
8.040053
8.045068
8.049757
8.054086
8.058011
8.061482
8.06443
8.066758
8.068272
8.069137
8.069414
8.06911
8.068253
8.06688
8.065026
8.062724
8.060012
8.056927
8.053508
8.049793
8.045823
8.041639
8.037282
8.032791
8.028204
8.023552
8.018856
8.014137
8.009419
8.004721
8.000058
7.995441
7.990878
7.986374
7.981939
7.977574
7.973266
7.969003
7.964794
7.960646
7.956564
7.952553
7.948621
7.944786
7.941092
7.937653
7.934544
7.931783
7.929339
7.927138
7.925079
7.923043
7.920911
7.918567
7.915914
7.912871
7.909382
7.905415
7.900959
7.896025
7.89064
7.884845
7.878693
7.872242
7.865553
7.858687
7.851705
7.844663
7.837613
7.830601
7.823668
7.816846
7.810164
7.803644
7.7973
7.791144
7.785182
7.779419
7.773855
7.768488
7.763318
7.75834
7.753554
7.748956
7.744546
7.740326
7.736296
7.732459
7.728817
7.725373
7.722124
7.719065
7.716184
7.713467
7.710903
7.708476
7.706175
7.703988
7.701903
7.699908
7.697981
7.696096
7.69422
7.692315
7.690337
7.688243
7.685988
7.683533
7.680846
7.677903
7.674693
7.671213
7.667472
7.663488
7.659285
7.654891
7.650339
7.645662
7.640893
7.636063
7.6312
7.626328
7.621469
7.616641
7.611858
7.607132
7.602473
7.597888
7.593382
7.588962
7.584632
7.580396
7.576257
7.57222
7.56829
7.564471
7.560767
7.557186
7.55373
7.550405
7.547212
7.544154
7.541228
7.53843
7.535756
7.533198
7.530745
7.528389
7.526119
7.523922
7.521789
7.519709
7.517673
7.51567
7.513693
7.511734
7.509787
7.507846
7.505904
7.503956
7.501997
7.500022
7.498024
7.495997
7.493935
7.491831
7.489674
7.487456
7.485163
7.482781
7.480293
7.477677
7.474909
7.471957
7.468785
7.465348
7.461596
7.457467
7.452897
7.447821
7.442183
7.43597
7.429335
7.423195
99.46371
58.23148
52.62103
47.71813
44.14948
40.59813
37.06236
33.97763
31.54945
29.37583
25.74583
25.16662
24.9058
24.99409
25.19472
25.37426
25.42063
25.24147
24.79813
24.04706
23.15737
22.14634
21.13835
20.171
19.24556
18.356
17.50222
16.68533
15.91258
15.18856
14.51514
13.89943
13.33663
12.8237
12.35868
11.93936
11.56267
11.2261
10.92769
10.6654
10.43675
10.23887
10.06868
9.923001
9.798718
9.692858
9.602646
9.525543
9.459244
9.40166
9.350913
9.305359
9.263605
9.224526
9.187267
9.151251
9.116286
9.082954
9.050989
9.019876
8.989087
8.958171
8.926823
8.894951
8.862573
8.829733
8.796484
8.762872
8.728916
8.694611
8.659948
8.624931
8.5896
8.554045
8.518405
8.48287
8.447652
8.412947
8.378904
8.345609
8.31309
8.281333
8.250305
8.219965
8.190276
8.161208
8.132724
8.104776
8.077305
8.050243
8.023518
7.99707
7.97086
7.944907
7.919344
7.894258
7.869671
7.845568
7.82191
7.798655
7.775772
7.75324
7.731035
7.709135
7.687527
7.666195
7.645122
7.624286
7.603668
7.583245
7.563004
7.542935
7.523044
7.503345
7.483862
7.464623
7.445656
7.426987
7.408628
7.390587
7.37286
7.355441
7.338317
7.321475
7.304896
7.28856
7.272443
7.256523
7.240773
7.225171
7.2097
7.194353
7.179144
7.164095
7.149229
7.134564
7.12011
7.105876
7.091867
7.078087
7.064539
7.051222
7.038135
7.025276
7.012644
7.000243
6.988084
6.976185
6.964576
6.953302
6.942416
6.931974
6.922009
6.912549
6.903622
6.895254
6.887448
6.880183
6.873425
6.867127
6.861239
6.855707
6.850476
6.845493
6.840711
6.836086
6.831581
6.827167
6.822828
6.818557
6.814366
6.810285
6.806366
6.802679
6.799316
6.796383
6.793984
6.792227
6.791237
6.79111
6.791775
6.793099
6.79496
6.797276
6.800009
6.803141
6.806658
6.81054
6.814747
6.819228
6.823914
6.82873
6.833598
6.838446
6.843206
6.847826
6.852267
6.856505
6.860532
6.864351
6.867979
6.871442
6.874773
6.878006
6.881176
6.884313
6.887436
6.890557
6.893671
6.896767
6.899821
6.902808
6.905704
6.908493
6.911164
6.913724
6.916186
6.918573
6.920913
6.923237
6.925572
6.927931
6.930326
6.932758
6.935225
6.93772
6.940229
6.94274
6.945242
6.947725
6.950184
6.952621
6.955041
6.957454
6.959881
6.962345
6.964868
6.967473
6.970184
6.973023
6.976
6.979114
6.982365
6.985759
6.989297
6.99297
6.99677
7.000684
7.004701
7.008806
7.012987
7.01723
7.021524
7.025857
7.030219
7.034601
7.038995
7.043395
7.047796
7.052194
7.056587
7.060971
7.065341
7.069693
7.074016
7.078298
7.082522
7.08667
7.090723
7.09466
7.098464
7.102121
7.105622
7.108963
7.112144
7.115172
7.118055
7.120803
7.123431
7.125954
7.128394
7.130768
7.133094
7.135389
7.137675
7.139978
7.14233
7.144761
7.147303
7.149982
7.152819
7.155829
7.15902
7.162394
7.165944
7.169658
7.173519
7.177506
7.181594
7.185756
7.189964
7.194186
7.198392
7.202551
7.206631
7.210601
7.214428
7.218079
7.221518
7.224709
7.227607
7.230152
7.232225
7.23391
7.235227
7.236156
7.23669
7.236833
7.236594
7.235988
7.235029
7.233734
7.232124
7.230221
7.228049
7.225636
7.223008
7.220196
7.217226
7.214128
7.210928
7.207647
7.204305
7.200921
7.197512
7.194091
7.190671
7.187261
7.18387
7.180507
7.177176
7.173871
7.170588
7.167337
7.164126
7.160959
7.157842
7.154785
7.151798
7.148897
7.14611
7.143468
7.140992
7.138695
7.136571
7.134602
7.132752
7.130974
7.129217
7.127423
7.12554
7.123516
7.12131
7.118888
7.116226
7.11331
7.110137
7.106713
7.103049
7.099165
7.095085
7.090836
7.086448
7.08195
7.077374
7.072747
7.068095
7.063442
7.05881
7.054216
7.049678
7.045208
7.040819
7.036522
7.032326
7.02824
7.024273
7.020431
7.016724
7.013158
7.00974
7.006476
7.003372
7.000431
6.997655
6.995042
6.99259
6.990289
6.988132
6.986107
6.984204
6.982411
6.980717
6.979113
6.977586
6.976125
6.974715
6.973342
6.971988
6.970635
6.969263
6.967851
6.966378
6.964822
6.963164
6.961388
6.959481
6.957434
6.955242
6.952905
6.950426
6.947811
6.94507
6.942214
6.939253
6.936202
6.933071
6.929874
6.926621
6.923323
6.919991
6.916635
6.913264
6.909888
6.906517
6.903161
6.89983
6.896535
6.893287
6.890097
6.886978
6.883939
6.880994
6.87815
6.875416
6.872799
6.870303
6.867928
6.865675
6.863538
6.861512
6.859589
6.85776
6.856015
6.854344
6.852736
6.851181
6.84967
6.848193
6.846744
6.845315
6.8439
6.842492
6.841087
6.83968
6.838267
6.836842
6.835401
6.83394
6.832454
6.830936
6.829381
6.827781
6.826127
6.824409
6.822616
6.820733
6.818744
6.81663
6.814367
6.81193
6.809288
6.80641
6.80326
6.799805
6.796019
6.791896
6.787529
6.783493
125.4495
41.64155
31.92862
28.87808
26.83753
25.38214
24.36348
23.69818
23.32872
23.21639
23.33879
23.64671
24.18496
24.83382
25.47113
25.96813
26.20523
26.07883
25.55723
24.74081
23.71302
22.55036
21.34697
20.19508
19.13319
18.14189
17.20061
16.30721
15.46584
14.67918
13.94785
13.27272
12.65347
12.08723
11.57112
11.10249
10.67884
10.29817
9.958803
9.659023
9.396811
9.169761
8.975095
8.809743
8.670449
8.553897
8.456822
8.376118
8.308904
8.25258
8.204849
8.163726
8.127542
8.094925
8.064792
8.036325
8.008975
7.982476
7.956653
7.931358
7.906461
7.881844
7.857409
7.833079
7.808788
7.784476
7.760092
7.735592
7.710938
7.686103
7.66107
7.635843
7.610445
7.584926
7.55936
7.533843
7.508486
7.483401
7.458692
7.434443
7.410715
7.38754
7.364926
7.342867
7.321341
7.30032
7.279771
7.259655
7.239933
7.220562
7.201502
7.182718
7.16418
7.145881
7.127836
7.110079
7.092643
7.07556