/*--------------------------------*- C++ -*----------------------------------*\
| =========                 |                                                 |
| \\      /  F ield         | foam-extend: Open Source CFD                    |
|  \\    /   O peration     | Version:     3.1                                |
|   \\  /    A nd           | Web:         http://www.extend-project.de       |
|    \\/     M anipulation  |                                                 |
\*---------------------------------------------------------------------------*/
FoamFile
{
    version     2.0;
    format      ascii;
    class       surfaceScalarField;
    location    "1";
    object      phi;
}
// * * * * * * * * * * * * * * * * * * * * * * * * * * * * * * * * * * * * * //

dimensions      [0 3 -1 0 0 0 0];

internalField   nonuniform List<scalar> 
275122
(
-9.850272e-05
9.950415e-05
-6.656284e-08
-9.348672e-07
-8.940929e-05
8.5557e-05
2.949865e-07
3.557296e-06
-9.000308e-05
9.290354e-05
-5.547629e-08
-2.844992e-06
-0.0001022413
0.0001052975
-4.579136e-08
-3.010375e-06
-0.0001130532
0.0001141194
-4.08579e-08
-1.025392e-06
-0.000114728
0.0001147666
-2.851908e-08
-1.008294e-08
-0.0001142975
0.0001140426
-1.933568e-08
2.742675e-07
-0.0001131366
0.0001127902
-1.389793e-08
3.602075e-07
-0.0001116598
0.0001112538
-9.965237e-09
4.159422e-07
-0.0001099684
0.0001095182
-7.214016e-09
4.573843e-07
-0.0001081152
0.0001076305
-5.268215e-09
4.899261e-07
-0.0001061349
0.0001056228
-3.875901e-09
5.159687e-07
-0.0001040531
0.000103519
-2.866029e-09
5.369315e-07
-0.0001018902
0.0001013386
-2.128436e-09
5.536955e-07
-9.966278e-05
9.909756e-05
-1.602356e-09
5.668185e-07
-9.738666e-05
9.681229e-05
-1.318136e-09
5.75691e-07
-9.508202e-05
9.450571e-05
-1.667839e-09
5.779793e-07
-9.27873e-05
9.222826e-05
-5.043608e-09
5.640854e-07
-9.063059e-05
9.016762e-05
-2.516677e-08
4.881305e-07
-8.920044e-05
8.935407e-05
-1.145922e-07
-3.903992e-08
-9.908382e-05
0.0001023649
-2.899295e-07
-2.991152e-06
-0.0001038693
0.0001042356
-1.30056e-07
-2.362485e-07
-0.0001050446
0.0001057361
-7.739347e-08
-6.141273e-07
-0.0001171431
0.0001213233
8.290017e-08
-4.263148e-06
-0.0001226037
0.0001228148
1.819043e-07
-3.930077e-07
-0.0001240418
0.0001242207
9.403488e-08
-2.729617e-07
-0.0001243061
0.0001241692
5.829677e-08
7.866024e-08
-0.0001232297
0.0001223448
5.187952e-08
8.330689e-07
-0.0001157097
0.0001086305
4.834785e-08
7.030873e-06
-0.0001196402
0.0001229887
3.164209e-09
-3.351702e-06
-6.342782e-05
6.623085e-05
-1.852147e-08
-2.784506e-06
-7.51581e-05
7.817608e-05
2.403761e-10
-3.018225e-06
-8.753792e-05
9.071185e-05
2.07302e-10
-3.174137e-06
-0.0001004404
0.000103752
2.858057e-10
-3.311858e-06
-0.0001137985
0.0001171784
3.066387e-10
-3.380283e-06
-0.0001273846
0.0001308056
3.780489e-10
-3.421404e-06
-0.0001411077
0.0001445562
3.510302e-10
-3.448768e-06
-0.0001549291
0.0001583999
4.913922e-10
-3.471263e-06
-0.0001688352
0.0001723278
5.972987e-10
-3.493133e-06
-0.0001829975
0.0001866491
5.334435e-08
-3.704893e-06
3.040449e-06
-0.0001252199
0.0001255673
-1.821895e-10
-3.387623e-06
3.182068e-06
-0.0001265128
0.0001267428
-6.043179e-11
-3.411956e-06
3.28977e-06
-0.0001273184
0.0001274665
-7.279351e-11
-3.437744e-06
3.383512e-06
-0.0001278224
0.0001279216
-4.711294e-11
-3.482665e-06
3.438427e-06
-0.0001281857
0.0001282673
-5.293575e-11
-3.519979e-06
3.471672e-06
-0.0001285022
0.0001285787
-3.751558e-11
-3.548214e-06
3.494881e-06
-0.0001288053
0.00012888
-2.815576e-11
-3.569487e-06
3.516927e-06
-0.000129102
0.0001291767
2.926524e-11
-3.591725e-06
3.684823e-06
-0.0001293687
0.0001293298
-1.857747e-11
-3.645929e-06
3.119645e-06
-0.0005207854
0.0005222959
-1.953931e-11
-1.440467e-05
3.324278e-06
3.12433e-06
3.325913e-06
3.361245e-06
-0.0005233276
0.0005241536
-1.404844e-11
-1.443405e-05
3.442155e-06
3.362488e-06
3.442213e-06
3.419944e-06
-0.0005248885
0.0005255295
-1.026837e-11
-1.441581e-05
3.467396e-06
3.420029e-06
3.467487e-06
3.494949e-06
-0.0005260331
0.0005264843
-9.174188e-12
-1.444811e-05
3.503567e-06
3.494913e-06
3.503508e-06
3.522626e-06
-0.000526909
0.000527301
-7.49485e-12
-1.449637e-05
3.529723e-06
3.522391e-06
3.529547e-06
3.546741e-06
-0.0005276725
0.0005280236
-5.099386e-12
-1.45504e-05
3.553008e-06
3.546664e-06
3.552886e-06
3.565675e-06
-0.0005283608
0.0005286829
-3.112072e-12
-1.459582e-05
3.571449e-06
3.56545e-06
3.571218e-06
3.580509e-06
-0.0005289946
0.0005292942
-1.701342e-12
-1.463206e-05
3.58566e-06
3.580563e-06
3.585741e-06
3.607914e-06
-0.0005295757
0.0005297852
-1.124874e-12
-1.465383e-05
3.614506e-06
3.608157e-06
3.613802e-06
3.522279e-06
-0.0005298973
0.0005303759
-1.415392e-12
-1.454077e-05
3.508644e-06
3.522899e-06
3.508373e-06
3.560169e-06
-0.0005307577
0.0005310021
-1.815318e-12
-1.44453e-05
3.541087e-06
3.559226e-06
3.540507e-06
3.524502e-06
-0.0005313092
0.0005316321
-2.596374e-13
-1.4396e-05
3.512244e-06
3.524243e-06
3.51213e-06
3.521805e-06
-0.0005319527
0.0005322422
-2.081476e-12
-1.437784e-05
3.521852e-06
3.522094e-06
3.522632e-06
3.538401e-06
-0.0005325061
0.0005327396
-5.1674e-12
-1.439164e-05
3.541692e-06
3.537482e-06
3.540576e-06
3.559208e-06
-0.000532947
0.0005331256
-7.090583e-12
-1.441888e-05
3.563708e-06
3.556588e-06
3.560834e-06
3.590745e-06
-0.0005332863
0.0005334231
1.108535e-12
-1.449278e-05
3.597994e-06
3.580445e-06
3.586752e-06
3.667338e-06
-0.000533543
0.0005336149
5.878903e-12
-1.47121e-05
3.69196e-06
3.631322e-06
3.649604e-06
3.958134e-06
-0.0005335661
0.0005331397
4.314644e-17
-1.530669e-05
4.068331e-06
3.812624e-06
3.894033e-06
4.856729e-06
-0.0005318101
0.0005287858
4.694393e-14
-1.608691e-05
5.214073e-06
4.44661e-06
4.593873e-06
5.563372e-06
-0.0005247674
0.0005292209
6.915432e-13
-1.001689e-05
6.226224e-06
-0.000532881
0.0005341405
1.536976e-12
-7.48569e-06
1.020895e-05
-0.0005338865
0.0005331819
1.857843e-12
-9.504272e-06
9.117204e-06
-0.000532473
0.0005318236
5.595092e-13
-8.467801e-06
4.928105e-06
-0.000531531
0.000532191
5.63564e-12
-5.588047e-06
2.186736e-06
-0.0005331981
0.0005341715
5.739982e-12
-3.16015e-06
9.636716e-07
-0.0005351623
0.0005361027
4.763893e-12
-1.904089e-06
2.893709e-07
-0.0005369996
0.0005378325
4.617032e-12
-1.122269e-06
-1.687769e-07
-0.0005386556
0.0005394151
4.63048e-12
-5.907507e-07
-4.819626e-07
-0.0005401508
0.0005408487
4.580342e-12
-2.158612e-07
-7.248709e-07
-0.0005415295
0.000542185
4.49744e-12
6.932894e-08
-9.180448e-07
-0.0005428302
0.0005434561
4.434415e-12
2.921595e-07
-1.070638e-06
-0.0005440764
0.0005446837
4.478015e-12
4.633513e-07
-1.187551e-06
-0.0005452888
0.0005458854
4.61351e-12
5.909737e-07
-1.272607e-06
-0.0005464802
0.0005470716
4.680936e-12
6.812256e-07
-1.308509e-06
-0.0005476667
0.0005482678
4.571134e-12
7.073937e-07
-1.266228e-06
-0.0005488798
0.0005495107
4.31354e-12
6.353247e-07
-1.071127e-06
-0.0005501591
0.000550829
4.047799e-12
4.012173e-07
-5.190596e-07
-0.0005515056
0.0005521823
3.923886e-12
-1.576623e-07
1.115792e-06
-0.0005528281
0.0005530647
3.798111e-12
-1.352314e-06
2.616151e-06
-0.0005524781
0.0005523731
3.666032e-12
-2.511216e-06
2.089564e-06
-0.0005529563
0.0005536013
3.745649e-12
-2.734535e-06
5.566805e-06
-0.0005539457
0.0005533964
3.475138e-12
-5.017559e-06
1.000431e-05
-0.0005503365
0.0005474265
3.189745e-12
-7.094359e-06
4.080114e-06
-0.0005459351
0.0005455958
2.701968e-12
-3.740801e-06
8.770309e-07
-0.000545452
0.0005451617
2.183397e-12
-5.86736e-07
-2.232748e-06
-0.0005448617
0.0005445981
1.790001e-12
2.496257e-06
-7.883539e-06
-0.0005445155
0.0005450044
1.490978e-12
7.394655e-06
-2.203563e-05
-0.0005469463
0.0005539328
1.665688e-12
1.504905e-05
-4.159978e-06
-0.0005623673
0.0005638876
1.364308e-12
1.298708e-05
-3.047465e-06
-4.196758e-06
-3.10316e-06
-1.638186e-06
-0.0005636556
0.0005633018
4.178518e-13
6.697113e-06
-1.487087e-06
-1.686906e-06
-1.531136e-06
-9.882891e-07
-0.0005627937
0.00056231
-8.009095e-13
4.359242e-06
-9.172136e-07
-1.022698e-06
-9.473397e-07
-7.382612e-07
-0.0005619182
0.0005616681
-1.607464e-12
3.200783e-06
-7.156783e-07
-7.607722e-07
-7.359895e-07
-6.378284e-07
-0.0005615047
0.0005614321
-1.565501e-12
2.630163e-06
-6.268892e-07
-6.525501e-07
-6.402552e-07
-5.907862e-07
-0.0005614146
0.0005614581
-1.07111e-12
2.328723e-06
-5.858092e-07
-6.00711e-07
-5.949111e-07
-5.6914e-07
-0.0005615355
0.0005616519
-6.249005e-13
2.168862e-06
-5.670396e-07
-5.75845e-07
-5.732119e-07
-5.603982e-07
-0.0005617897
0.0005619528
-3.947506e-13
2.086132e-06
-5.598782e-07
-5.648991e-07
-5.640305e-07
-5.588128e-07
-0.0005621299
0.0005623229
-3.63869e-13
2.048761e-06
-5.591962e-07
-5.618213e-07
-5.619693e-07
-5.613437e-07
-0.0005625249
0.0005627366
-3.475994e-13
2.039313e-06
-5.621835e-07
-5.633564e-07
-5.640764e-07
-5.660446e-07
-0.0005629538
0.0005631765
-3.898121e-13
2.046595e-06
-5.671734e-07
-5.675051e-07
-5.685501e-07
-5.717049e-07
-0.0005634024
0.0005636308
-3.780681e-13
2.062674e-06
-5.72851e-07
-5.727665e-07
-5.738186e-07
-5.775527e-07
-0.0005638611
0.0005640924
-3.823632e-13
2.082438e-06
-5.786711e-07
-5.782464e-07
-5.793158e-07
-5.830821e-07
-0.0005643248
0.0005645574
-3.203953e-13
2.102603e-06
-5.840947e-07
-5.835706e-07
-5.845529e-07
-5.88004e-07
-0.0005647907
0.0005650242
-2.374784e-13
2.121064e-06
-5.88885e-07
-5.883615e-07
-5.892226e-07
-5.92217e-07
-0.000565258
0.0005654921
-2.193036e-13
2.136825e-06
-5.929665e-07
-5.924879e-07
-5.932234e-07
-5.957379e-07
-0.0005657267
0.0005659617
-1.885796e-13
2.149629e-06
-5.96369e-07
-5.959509e-07
-5.965727e-07
-5.986475e-07
-0.0005661973
0.0005664337
-2.143493e-13
2.159663e-06
-5.991816e-07
-5.988216e-07
-5.993493e-07
-6.010513e-07
-0.0005666708
0.0005669088
-2.269695e-13
2.167331e-06
-6.01507e-07
-6.012003e-07
-6.016514e-07
-6.0306e-07
-0.0005671478
0.000567388
-2.729117e-13
2.173134e-06
-6.034561e-07
-6.031919e-07
-6.035848e-07
-6.047806e-07
-0.0005676291
0.0005678716
-2.478471e-13
2.177613e-06
-6.051366e-07
-6.049015e-07
-6.052546e-07
-6.063296e-07
-0.0005681151
0.0005683599
-2.08155e-13
2.181377e-06
-6.06668e-07
-6.064408e-07
-6.067773e-07
-6.078525e-07
-0.0005686058
0.000568853
-1.835681e-14
2.185154e-06
-6.082179e-07
-6.079677e-07
-6.083278e-07
-6.094807e-07
-0.0005691013
0.0005693506
1.443413e-12
2.189635e-06
-6.098703e-07
-6.096203e-07
-6.100097e-07
-6.10832e-07
-0.0005696005
0.0005698505
-1.249044e-11
2.194404e-06
-6.111137e-07
-6.110904e-07
-6.114186e-07
-6.126447e-07
0.0005703503
-7.842307e-12
2.201934e-06
-6.131019e-07
-6.127616e-07
-6.131609e-07
-0.0005701005
-6.153651e-07
-0.0005705999
0.0005708486
4.191098e-13
2.21449e-06
-6.160887e-07
-6.155157e-07
-6.161757e-07
-6.191797e-07
-0.0005710969
0.0005713435
-6.566518e-13
2.231738e-06
-6.199969e-07
-6.191778e-07
-6.199906e-07
-6.235083e-07
-0.0005715892
0.0005718324
-8.573104e-13
2.252505e-06
-6.244091e-07
-6.234589e-07
-6.243676e-07
-6.282884e-07
-0.0005720743
0.000572313
-3.197952e-13
2.276352e-06
-6.292215e-07
-6.282831e-07
-6.292266e-07
-6.332173e-07
-0.0005725499
0.0005727831
-7.450359e-14
2.30153e-06
-6.341358e-07
-6.332461e-07
-6.341705e-07
-6.379261e-07
-0.0005730144
0.0005732419
-2.180903e-13
2.325936e-06
-6.387608e-07
-6.379797e-07
-6.388196e-07
-6.420449e-07
-0.0005734675
0.0005736896
-4.209546e-13
2.347655e-06
-6.427482e-07
-6.421173e-07
-6.428233e-07
-6.453917e-07
-0.0005739098
0.0005741271
-5.297551e-13
2.365605e-06
-6.459581e-07
-6.454715e-07
-6.460387e-07
-6.479903e-07
-0.0005743428
0.0005745562
-4.701745e-13
2.379707e-06
-6.484462e-07
-6.480722e-07
-6.485284e-07
-6.500249e-07
-0.0005747684
0.0005749787
-3.724819e-13
2.390723e-06
-6.504147e-07
-6.501061e-07
-6.504964e-07
-6.517527e-07
-0.0005751882
0.0005753962
-1.731543e-13
2.399903e-06
-6.521253e-07
-6.518363e-07
-6.522091e-07
-6.534363e-07
-0.0005756036
0.0005758097
5.235785e-14
2.408604e-06
-6.538314e-07
-6.535198e-07
-6.539153e-07
-6.552813e-07
-0.0005760152
0.0005762194
2.346604e-13
2.417982e-06
-6.557263e-07
-6.553649e-07
-6.558101e-07
-6.574107e-07
-0.000576423
0.000576625
3.33003e-13
2.428778e-06
-6.579175e-07
-6.574874e-07
-6.579925e-07
-6.598713e-07
-0.0005768263
0.0005770258
4.13241e-13
2.44126e-06
-6.604445e-07
-6.599176e-07
-6.604789e-07
-6.62598e-07
-0.0005772243
0.0005774207
2.827936e-13
2.45518e-06
-6.631819e-07
-6.626153e-07
-6.632164e-07
-6.653435e-07
-0.000577616
0.0005778092
1.191245e-13
2.469824e-06
-6.659771e-07
-6.654851e-07
-6.661397e-07
-6.680424e-07
-0.0005780011
0.0005781907
-7.078171e-14
2.484109e-06
-6.686098e-07
-6.682269e-07
-6.687776e-07
-6.704689e-07
-0.000578379
0.0005785655
-1.60508e-13
2.496758e-06
-6.710377e-07
-6.705583e-07
-6.711188e-07
-6.72368e-07
-0.0005787512
0.0005789358
-5.46592e-13
2.505999e-06
-6.72827e-07
-6.724554e-07
-6.729149e-07
-6.727977e-07
-0.0005791203
0.000579305
-1.272358e-12
2.507087e-06
-6.729965e-07
-6.729048e-07
-6.730988e-07
-6.702187e-07
-0.0005794924
0.0005796828
-3.606608e-12
2.489631e-06
-6.695767e-07
-6.704381e-07
-6.697682e-07
-6.537883e-07
-0.0005798759
0.0005800569
8.115475e-13
2.424296e-06
-6.48558e-07
-6.54087e-07
-6.488203e-07
-5.895393e-07
-0.0005801821
0.000580203
-5.150389e-13
2.292844e-06
-5.659689e-07
-5.904882e-07
-5.677193e-07
-6.051728e-07
-0.0005804111
0.0005804287
1.093153e-14
2.431782e-06
-6.222333e-07
-6.02457e-07
-6.195869e-07
-5.949244e-07
-0.0005804684
0.0005805245
-1.640557e-12
2.322457e-06
-5.960379e-07
-5.930531e-07
-5.945466e-07
-6.046724e-07
-0.0005806155
0.0005807192
-1.098027e-12
2.308039e-06
-6.016694e-07
-6.043688e-07
-6.010169e-07
-6.143971e-07
-0.0005808349
0.0005809702
-2.880458e-13
2.324346e-06
-6.160115e-07
-6.137488e-07
-6.154976e-07
-6.278353e-07
-0.0005811188
0.0005812769
-2.028951e-13
2.354097e-06
-6.287275e-07
-6.273507e-07
-6.282983e-07
-6.381882e-07
-0.0005814418
0.0005816117
-4.08579e-13
2.383701e-06
-6.389747e-07
-6.378109e-07
-6.386377e-07
-6.466668e-07
-0.0005817852
0.0005819608
-6.957703e-13
2.411957e-06
-6.473934e-07
-6.463858e-07
-6.47128e-07
-6.536867e-07
-0.0005821382
0.0005823161
-9.033016e-13
2.437675e-06
-6.543263e-07
-6.534484e-07
-6.540958e-07
-6.595798e-07
-0.0005824946
0.0005826728
-9.198003e-13
2.460835e-06
-6.601823e-07
-6.593402e-07
-6.599308e-07
-6.646134e-07
-0.0005828511
0.0005830283
-9.780928e-13
2.48183e-06
-6.650786e-07
-6.644064e-07
-6.649268e-07
-6.690052e-07
-0.0005832053
0.0005833814
-1.310756e-12
2.500939e-06
-6.695756e-07
-6.689367e-07
-6.695488e-07
-6.729273e-07
-0.0005835577
0.0005837313
-9.448244e-12
2.518722e-06
-6.734319e-07
-6.72787e-07
-6.732247e-07
-6.745295e-07
-0.0005839027
0.0005840714
-2.796493e-11
2.531602e-06
-6.755847e-07
-6.746214e-07
-6.75527e-07
-6.770689e-07
-0.0005842392
0.0005844061
-1.18138e-11
2.542355e-06
-6.773487e-07
-6.773311e-07
-6.775745e-07
-6.807833e-07
-0.0005845744
0.0005847411
-3.983651e-12
2.555619e-06
-6.805569e-07
-6.806121e-07
-6.804176e-07
-6.833628e-07
-0.0005849068
0.0005850706
-2.11777e-12
2.569497e-06
-6.833608e-07
-6.832865e-07
-6.832913e-07
-6.858073e-07
-0.0005852333
0.0005853942
-1.442469e-12
2.582352e-06
-6.858835e-07
-6.857321e-07
-6.858057e-07
-6.880098e-07
-0.0005855541
0.0005857121
-1.021213e-12
2.593978e-06
-6.880918e-07
-6.87925e-07
-6.88005e-07
-6.900227e-07
-0.0005858692
0.0005860246
-6.34806e-13
2.604726e-06
-6.900844e-07
-6.899466e-07
-6.900155e-07
-6.918822e-07
-0.000586179
0.0005863316
-5.400582e-13
2.614788e-06
-6.919231e-07
-6.918186e-07
-6.918567e-07
-6.936401e-07
-0.0005864834
0.0005866335
-4.301124e-13
2.624323e-06
-6.936555e-07
-6.935642e-07
-6.935761e-07
-6.953178e-07
-0.0005867828
0.0005869304
-1.598364e-13
2.633465e-06
-6.953134e-07
-6.952404e-07
-6.952436e-07
-6.96913e-07
-0.0005870772
0.0005872224
-6.971507e-15
2.642244e-06
-6.968908e-07
-6.968513e-07
-6.96825e-07
-6.984688e-07
-0.0005873668
0.0005875097
3.335921e-14
2.650732e-06
-6.984221e-07
-6.983805e-07
-6.983336e-07
-7.000051e-07
-0.0005876518
0.0005877924
4.763896e-14
2.659035e-06
-6.999663e-07
-6.998736e-07
-6.99817e-07
-7.015287e-07
0.0005880708
-2.406253e-15
2.66719e-06
-0.0005879323
-7.014311e-07
-7.013813e-07
-7.013066e-07
-7.029003e-07
-0.0005882085
0.000588345
2.428212e-14
2.675003e-06
-7.028426e-07
-7.028952e-07
-7.02853e-07
-7.041977e-07
-0.0005884807
0.0005886149
5.850105e-14
2.68234e-06
-7.040361e-07
-7.042171e-07
-7.040515e-07
-7.054084e-07
-0.0005887482
0.0005888802
-5.93682e-15
2.689227e-06
-7.05274e-07
-7.053509e-07
-7.052084e-07
-7.066785e-07
-0.0005890116
0.0005891416
-1.093699e-13
2.696134e-06
-7.065235e-07
-7.065899e-07
-7.064199e-07
-7.078979e-07
-0.000589271
0.0005893991
-1.572113e-13
2.702922e-06
-7.07686e-07
-7.077747e-07
-7.076377e-07
-7.09094e-07
-0.0005895265
0.0005896525
6.559553e-13
2.709883e-06
-7.089164e-07
-7.090853e-07
-7.08837e-07
-7.103913e-07
-0.0005897778
0.0005899016
8.163198e-13
2.717199e-06
-7.102154e-07
-7.102885e-07
-7.100392e-07
-7.11854e-07
-0.0005900245
0.0005901458
3.565677e-12
2.725349e-06
-7.114697e-07
-7.116579e-07
-7.116472e-07
-7.13288e-07
-0.0005902661
0.0005903849
-7.41309e-12
2.734543e-06
-7.132308e-07
-7.13506e-07
-7.13309e-07
-7.154532e-07
-0.0005905022
0.0005906182
-4.720316e-11
2.745075e-06
-7.161775e-07
-7.146447e-07
-7.147515e-07
-7.145247e-07
-0.0005907334
0.0005908428
-1.106596e-10
2.756358e-06
-7.19206e-07
-7.198612e-07
-7.121294e-07
-7.12842e-07
-0.0005909544
0.0005910431
-3.848136e-10
2.765594e-06
-7.180843e-07
-7.136587e-07
-7.092934e-07
-7.251923e-07
-0.0005911507
0.0005912619
-2.640538e-10
2.778851e-06
-7.197406e-07
-7.248681e-07
-7.200061e-07
-7.232623e-07
-0.0005913482
0.0005914548
-6.327955e-11
2.787351e-06
-7.234022e-07
-7.234358e-07
-7.237131e-07
-7.223842e-07
-0.0005915537
0.0005916479
-3.833578e-12
2.795108e-06
-7.220488e-07
-7.226433e-07
-7.222461e-07
-7.239954e-07
-0.0005917418
0.0005918335
3.484126e-12
2.802881e-06
-7.235236e-07
-7.237639e-07
-7.233518e-07
-7.24888e-07
-0.0005919244
0.000592014
1.254184e-12
2.809031e-06
-7.245308e-07
-7.247596e-07
-7.244425e-07
-7.25428e-07
-0.0005921028
0.0005921905
-3.695867e-13
2.81324e-06
-7.250727e-07
-7.254051e-07
-7.250358e-07
-7.257336e-07
-0.000592278
0.0005923652
-1.03587e-12
2.815271e-06
-7.255804e-07
-7.256677e-07
-7.255191e-07
-7.258203e-07
-0.0005924527
0.0005925412
-2.67066e-12
2.814599e-06
-7.258001e-07
-7.257208e-07
-7.257485e-07
-7.258663e-07
-0.0005926307
0.0005927248
-1.239436e-11
2.808154e-06
-7.257183e-07
-7.253231e-07
-7.253686e-07
-7.323445e-07
-0.0005928276
0.0005929438
-1.787053e-11
2.78336e-06
-7.115096e-07
-7.274268e-07
-7.282693e-07
-7.107029e-07
-0.0005930309
0.0005931394
2.860141e-10
2.732042e-06
-7.095787e-07
-7.082728e-07
-7.122471e-07
-4.887934e-07
-0.0005930813
0.0005923623
-1.641363e-11
2.578829e-06
-4.419695e-07
-4.867458e-07
-4.422801e-07
-3.926746e-07
-0.0001475881
0.0001473532
7.811049e-11
6.274649e-07
-5.593712e-07
-0.0001469961
0.000146951
-1.395668e-10
6.046432e-07
-6.268504e-07
-0.000146913
0.0001469183
-9.984571e-11
6.216612e-07
-6.587994e-07
-0.0001469562
0.0001469728
-5.631888e-11
6.423206e-07
-6.769735e-07
-0.0001470267
0.0001470452
-2.746281e-11
6.585469e-07
-6.884455e-07
-0.0001471005
0.0001471186
-1.02143e-11
6.703748e-07
-6.962701e-07
-0.0001471716
0.0001471887
5.557324e-13
6.791858e-07
-7.020088e-07
-0.0001472384
0.0001472543
6.929151e-12
6.860435e-07
-7.071881e-07
-0.0001473007
0.0001473159
1.449251e-11
6.919915e-07
-7.089121e-07
-0.0001473625
0.0001473761
-3.710357e-11
6.953436e-07
-7.111259e-07
-0.0001474177
0.0001474309
5.117177e-11
6.978717e-07
-7.131026e-07
-0.0001474666
0.0001474788
6.864896e-12
7.008856e-07
-7.160016e-07
-0.0001475154
0.0001475275
1.647908e-11
7.039199e-07
-7.180268e-07
-0.0001475629
0.0001475745
1.839923e-11
7.064837e-07
-7.195729e-07
-0.0001476082
0.0001476192
1.63336e-11
7.086015e-07
-7.208728e-07
-0.0001476513
0.0001476618
1.389245e-11
7.104045e-07
-7.219925e-07
-0.0001476925
0.0001477025
1.35908e-11
7.119599e-07
-7.229662e-07
-0.000147732
0.0001477416
1.406196e-11
7.133133e-07
-7.238502e-07
-0.0001477701
0.0001477795
1.31522e-11
7.14508e-07
-7.246155e-07
-0.0001478071
0.0001478161
1.338444e-11
7.155309e-07
-7.25282e-07
-0.0001478431
0.0001478519
1.468671e-11
7.163942e-07
-7.258641e-07
-0.0001478784
0.0001478871
1.395132e-11
7.170892e-07
-7.26324e-07
-0.0001479133
0.000147922
1.358056e-11
7.175845e-07
-7.266966e-07
-0.0001479482
0.000147957
1.652483e-11
7.178757e-07
-7.269786e-07
-0.0001479835
0.0001479925
2.207613e-11
7.179402e-07
-7.271326e-07
-0.0001480198
0.0001480292
2.492227e-11
7.177218e-07
-7.269159e-07
-0.0001480577
0.0001480677
1.209458e-11
7.169292e-07
-7.263739e-07
-0.0001480986
0.0001481094
4.577e-12
7.155082e-07
-7.253675e-07
-0.0001481435
0.0001481557
1.18167e-11
7.131786e-07
-7.238406e-07
-0.0001481949
0.0001482092
1.410225e-11
7.095708e-07
-7.211929e-07
-0.0001482564
0.0001482739
1.578932e-11
7.036661e-07
-7.166546e-07
-0.0001483344
0.0001483578
1.665451e-11
6.932463e-07
-7.038156e-07
-0.0001484358
0.0001484658
3.50081e-11
6.737536e-07
-6.883363e-07
-0.0001485949
0.0001486524
2.461416e-11
6.308206e-07
-6.203375e-07
-0.000148882
0.0001489999
2.125324e-11
5.023818e-07
1.919325e-07
-0.0001494086
0.0001493235
2.4903e-11
-1.068395e-07
6.301768e-07
-0.0001489717
0.0001488907
8.434097e-12
-5.491869e-07
6.88841e-07
-0.0001486907
0.0001486413
2.763878e-12
-6.395309e-07
7.027769e-07
-0.0001485151
0.0001484855
-3.819859e-12
-6.731832e-07
7.177314e-07
-0.0001484087
0.0001483883
-7.939845e-12
-6.972801e-07
7.249762e-07
-0.0001483379
0.0001483246
-1.245735e-11
-7.116691e-07
7.299671e-07
-0.000148293
0.0001482851
-1.149308e-11
-7.220659e-07
7.335211e-07
-0.0001482677
0.0001482639
-9.998964e-12
-7.297258e-07
7.36337e-07
-0.0001482572
0.0001482565
-1.268767e-11
-7.356184e-07
7.385837e-07
-0.0001482581
0.0001482598
-1.21344e-11
-7.40266e-07
7.403736e-07
-0.0001482676
0.0001482712
-9.508377e-12
-7.439771e-07
7.420289e-07
-0.000148284
0.000148289
-1.030472e-11
-7.470219e-07
7.433901e-07
-0.0001483057
0.0001483118
-9.813445e-12
-7.49516e-07
7.445936e-07
-0.0001483315
0.0001483385
-7.984724e-12
-7.516261e-07
7.456026e-07
-0.0001483606
0.0001483682
-8.47674e-12
-7.532733e-07
7.464737e-07
-0.000148392
0.0001484002
-7.976128e-12
-7.546615e-07
7.472355e-07
-0.0001484253
0.0001484339
-6.521934e-12
-7.55795e-07
7.478899e-07
-0.00014846
0.0001484688
-6.472248e-12
-7.567194e-07
7.484587e-07
-0.0001484956
0.0001485046
-6.856006e-12
-7.574747e-07
7.489642e-07
-0.0001485319
0.000148541
-5.500176e-12
-7.580948e-07
7.494028e-07
-0.0001485685
0.0001485777
-4.99331e-12
-7.58601e-07
7.498012e-07
-0.0001486053
0.0001486145
-5.90397e-12
-7.590177e-07
7.501481e-07
-0.0001486421
0.0001486513
-4.729832e-12
-7.593527e-07
7.504586e-07
-0.0001486788
0.000148688
-3.437178e-12
-7.596271e-07
7.507707e-07
-0.0001487153
0.0001487244
-6.103869e-12
-7.598525e-07
7.509934e-07
-0.0001487514
0.0001487605
-4.728007e-12
-7.600116e-07
7.510998e-07
-0.0001487871
0.0001487961
-2.278453e-12
-7.60094e-07
7.513162e-07
-0.0001488224
0.0001488312
-3.50427e-12
-7.601674e-07
7.514252e-07
-0.0001488571
0.0001488659
-3.853143e-12
-7.60185e-07
7.514987e-07
-0.0001488913
0.0001488999
-3.084691e-12
-7.601638e-07
7.515077e-07
-0.0001489247
0.0001489333
-4.466455e-12
-7.600731e-07
7.514617e-07
-0.0001489573
0.0001489657
-6.130376e-12
-7.598526e-07
7.507484e-07
-0.0001489892
0.0001489979
-5.505717e-12
-7.594356e-07
7.563197e-07
-0.0001490247
0.0001490317
-2.453052e-11
-7.632163e-07
7.984186e-07
-0.0001490523
0.0001490393
-1.218551e-10
-7.853363e-07
7.130115e-07
-0.0001485524
0.0005987164
-4.677642e-13
-2.833729e-06
5.890869e-08
7.048284e-07
6.962366e-08
-0.0001485535
-0.0001501605
-0.0001501626
4.442189e-07
-0.0006003613
0.0006008779
-1.19829e-13
-2.628782e-06
6.041112e-07
4.532478e-07
6.106216e-07
5.6715e-07
-0.0006013002
0.000601609
-2.475598e-13
-2.680345e-06
6.142262e-07
5.718127e-07
6.183116e-07
6.264504e-07
-0.000601838
0.000601971
-5.71818e-13
-2.689171e-06
6.484874e-07
6.297063e-07
6.515023e-07
6.629476e-07
-0.0006020658
0.0006021231
-1.174201e-12
-2.732545e-06
6.723919e-07
6.653296e-07
6.745862e-07
6.845091e-07
-0.000602176
0.0006022061
-3.746549e-12
-2.789179e-06
6.933574e-07
6.862502e-07
6.950119e-07
7.076628e-07
-0.0006021964
0.0006021901
-1.1335e-11
-2.835573e-06
7.112791e-07
7.093956e-07
7.135015e-07
7.276508e-07
-0.0006021544
0.0006021292
-5.113936e-11
-2.884653e-06
7.255216e-07
7.277792e-07
7.289793e-07
7.365382e-07
-0.0006020929
0.0006020663
-8.038994e-11
-2.923426e-06
7.375943e-07
7.375627e-07
7.383901e-07
7.474801e-07
-0.0006020368
0.0006019991
4.113055e-11
-2.954915e-06
7.489678e-07
7.475951e-07
7.485819e-07
7.504845e-07
-0.0006019663
0.0006019372
5.672524e-12
-2.974341e-06
7.510633e-07
7.506847e-07
7.512159e-07
7.528527e-07
-0.0006019106
0.0006018864
1.872766e-12
-2.988685e-06
7.534392e-07
7.5301e-07
7.535872e-07
7.54099e-07
-0.0006018647
0.0006018453
8.147367e-13
-2.998254e-06
7.546217e-07
7.541935e-07
7.547092e-07
7.547018e-07
-0.0006018281
0.0006018129
3.043487e-13
-3.00458e-06
7.551756e-07
7.547327e-07
7.551888e-07
7.548841e-07
-0.0006017995
0.0006017878
-6.815366e-14
-3.008636e-06
7.553041e-07
7.548628e-07
7.552839e-07
7.548323e-07
-0.0006017776
0.0006017687
-5.74614e-14
-3.011148e-06
7.552221e-07
7.54804e-07
7.551924e-07
7.546365e-07
-0.000601761
0.0006017543
1.000389e-13
-3.012524e-06
7.550055e-07
7.545897e-07
7.549484e-07
7.543807e-07
-0.0006017486
0.0006017437
1.748395e-13
-3.013125e-06
7.547213e-07
7.54299e-07
7.546394e-07
7.540898e-07
-0.0006017395
0.0006017358
1.464978e-13
-3.013232e-06
7.544214e-07
7.540161e-07
7.543508e-07
7.537876e-07
-0.0006017327
0.00060173
7.965116e-14
-3.012948e-06
7.541043e-07
7.537156e-07
7.540291e-07
7.534991e-07
-0.0006017277
0.0006017256
2.458655e-14
-3.012382e-06
7.53802e-07
7.534045e-07
7.537013e-07
7.532129e-07
-0.0006017239
0.0006017222
-8.150156e-15
-3.011635e-06
7.535089e-07
7.531251e-07
7.534252e-07
7.529545e-07
-0.0006017207
0.0006017193
-1.697654e-14
-3.010786e-06
7.532341e-07
7.52881e-07
7.531646e-07
7.527213e-07
-0.0006017179
0.0006017165
-1.203161e-14
-3.009906e-06
7.529912e-07
7.526424e-07
7.529362e-07
7.525291e-07
-0.0006017151
0.0006017136
-9.157868e-15
-3.008973e-06
7.527773e-07
7.52448e-07
7.526879e-07
7.523059e-07
-0.0006017122
0.0006017107
-1.512153e-14
-3.00811e-06
7.525911e-07
7.522148e-07
7.524715e-07
7.521601e-07
-0.0006017092
0.0006017077
-3.149478e-14
-3.007383e-06
7.524003e-07
7.520475e-07
7.522914e-07
7.520301e-07
-0.0006017062
0.0006017046
-5.631783e-14
-3.006864e-06
7.522786e-07
7.519306e-07
7.521841e-07
7.519681e-07
-0.000601703
0.0006017014
-7.787607e-14
-3.00659e-06
7.522064e-07
7.518823e-07
7.52125e-07
7.519361e-07
-0.0006016998
0.0006016983
-8.569084e-14
-3.006467e-06
7.521761e-07
7.518468e-07
7.520807e-07
7.51929e-07
-0.0006016967
0.0006016951
-7.103359e-14
-3.006433e-06
7.521568e-07
7.5183e-07
7.520614e-07
7.519284e-07
-0.0006016936
0.000601692
-2.943752e-14
-3.00639e-06
7.52148e-07
7.51844e-07
7.52066e-07
7.518944e-07
-0.0006016903
0.0006016886
4.992738e-14
-3.00612e-06
7.521021e-07
7.518111e-07
7.520136e-07
7.518153e-07
-0.0006016869
0.0006016849
1.812863e-13
-3.005497e-06
7.520005e-07
7.517175e-07
7.519028e-07
7.516655e-07
-0.0006016828
0.0006016804
3.241712e-13
-3.004424e-06
7.518357e-07
7.515805e-07
7.517537e-07
7.514266e-07
-0.0006016778
0.0006016746
3.949763e-13
-3.002716e-06
7.515718e-07
7.513476e-07
7.514905e-07
7.510824e-07
-0.0006016712
0.000601667
3.505846e-13
-3.000191e-06
7.511975e-07
7.509907e-07
7.510993e-07
7.505845e-07
-0.0006016623
0.0006016565
2.272039e-13
-2.996562e-06
7.506587e-07
7.505007e-07
7.505763e-07
7.498709e-07
-0.00060165
0.0006016419
9.370014e-14
-2.99127e-06
7.498729e-07
7.498002e-07
7.498038e-07
7.487959e-07
-0.0006016328
0.0006016212
-6.392084e-15
-2.98333e-06
7.486868e-07
7.4872e-07
7.48631e-07
7.471344e-07
-0.000601608
0.000601591
-6.71746e-14
-2.971014e-06
7.46857e-07
7.471704e-07
7.468893e-07
7.446231e-07
-0.0006015707
0.0006015414
-1.036439e-13
-2.949811e-06
7.442352e-07
7.453594e-07
7.449404e-07
7.400436e-07
-0.0006015094
0.0006014805
-1.713984e-13
-2.910819e-06
7.354716e-07
7.306836e-07
7.335801e-07
7.267723e-07
-0.0006014342
0.000601376
-8.69379e-14
-2.841963e-06
7.232906e-07
7.269423e-07
7.231154e-07
6.990528e-07
-0.0006013015
0.0006012151
-3.8322e-14
-2.688726e-06
6.887483e-07
6.988592e-07
6.88518e-07
5.865149e-07
-0.0006011883
0.0006012839
-3.490081e-14
-2.369526e-06
5.506952e-07
5.863226e-07
5.504656e-07
5.049199e-07
-0.0006014181
0.0006015317
1.567797e-14
-2.131379e-06
5.041614e-07
5.047234e-07
5.039724e-07
4.900843e-07
-0.0006016314
0.0006017198
6.081797e-14
-2.04558e-06
4.886718e-07
4.899299e-07
4.885186e-07
4.794805e-07
-0.0006018017
0.0006018738
8.799977e-14
-1.988654e-06
4.789363e-07
4.793685e-07
4.7883e-07
4.735659e-07
-0.0006019401
0.0006019995
9.020363e-14
-1.95266e-06
4.731747e-07
4.734865e-07
4.730979e-07
4.692552e-07
-0.0006020551
0.0006021053
3.497191e-13
-1.926605e-06
4.689742e-07
4.69202e-07
4.689238e-07
4.666354e-07
-0.0006021531
0.0006021956
8.05672e-12
-1.908135e-06
4.662809e-07
4.665463e-07
4.661499e-07
4.688612e-07
-0.0006022337
0.0006022676
5.385812e-12
-1.908614e-06
4.682874e-07
4.689938e-07
4.68505e-07
4.102579e-07
-0.0006023232
0.0006025249
6.561342e-13
-1.907551e-06
4.417562e-07
4.10959e-07
4.428028e-07
4.145181e-07
-0.0006027112
0.0006025183
4.596985e-13
-1.381061e-06
3.732712e-07
4.133504e-07
3.728083e-07
3.512543e-07
-0.0006024607
0.000602616
1.621781e-13
-1.489728e-06
3.154354e-07
3.519107e-07
3.15855e-07
3.428067e-07
-0.0006027776
0.0006029345
7.916439e-14
-1.518589e-06
3.379044e-07
3.430059e-07
3.380245e-07
3.583182e-07
-0.0006030703
0.0006031831
6.401109e-14
-1.551256e-06
3.609615e-07
3.582938e-07
3.609011e-07
3.794638e-07
-0.0006032668
0.0006033265
6.182461e-14
-1.585905e-06
3.837286e-07
3.793554e-07
3.836183e-07
3.981359e-07
-0.000603367
0.0006033898
4.809876e-14
-1.622809e-06
4.01975e-07
3.980261e-07
4.01865e-07
4.160042e-07
-0.0006033948
0.0006033897
-2.04123e-15
-1.664772e-06
4.189612e-07
4.159278e-07
4.188959e-07
4.291091e-07
-0.0006033771
0.0006033589
-2.838694e-14
-1.702868e-06
4.314287e-07
4.290696e-07
4.313992e-07
4.384135e-07
-0.0006033375
0.0006033164
-5.211419e-14
-1.735017e-06
4.396504e-07
4.383991e-07
4.396455e-07
4.452176e-07
-0.0006032945
0.0006032735
-5.480697e-14
-1.761238e-06
4.459211e-07
4.452231e-07
4.459418e-07
4.49155e-07
-0.0006032549
0.0006032392
-3.97009e-14