/*--------------------------------*- C++ -*----------------------------------*\
| =========                 |                                                 |
| \\      /  F ield         | foam-extend: Open Source CFD                    |
|  \\    /   O peration     | Version:     3.1                                |
|   \\  /    A nd           | Web:         http://www.extend-project.de       |
|    \\/     M anipulation  |                                                 |
\*---------------------------------------------------------------------------*/
FoamFile
{
    version     2.0;
    format      ascii;
    class       volScalarField;
    location    "16";
    object      alpha1;
}
// * * * * * * * * * * * * * * * * * * * * * * * * * * * * * * * * * * * * * //

dimensions      [0 0 0 0 0 0 0];

internalField   nonuniform List<scalar> 
119952
(
1
1
0.9999999
1
0.9999999
1
1
1
1
1
1
1
1
1
1
1
1
1
1
1
1
1
1
1
1
1
1
1
1
1
1
1
1
1
1
1
1
1
1
1
1
1
1
1
1
0.9999999
1
1
1
1
1
0.9999999
1
1
0.9999999
1
1
1
0.9999999
1
1
1
1
1
1
1
1
1
1
1
1
1
1
1
1
1
0.9999999
1
1
1
1
1
1
1
1
1
1
1
1
1
1
1
1
1
1
1
1
1
1
1
1
1
1
1
1
1
1
1
1
0.9999999
0.9999999
1
1
0.9999998
0.9999999
1
1
1
1
1
0.9999998
1
1
1
1
1
1
1
1
1
1
1
0.9999999
1
1
1
1
1
1
1
0.9999999
1
1
1
1
0.9999999
1
1
1
1
1
1
1
1
1
0.9999998
0.9999947
0.9999865
0.9999946
1
1
1
1
1
1
1
1
1
1
1
0.9999999
0.9999971
0.9999689
0.9999742
0.9999998
1
1
1
1
1
1
1
1
1
1
1
1
1
1
1
1
1
1
1
1
1
1
1
1
1
1
1
1
1
1
1
1
1
1
1
1
1
1
1
1
1
1
1
1
1
1
0.9999996
1
0.9999999
0.9999999
1
0.9999998
1
0.9999998
1
1
1
1
0.9999992
0.9999994
0.9999999
1
1
0.9999999
1
0.9999999
1
0.9999997
0.9999995
1
0.9999999
0.9999998
1
1
0.9999999
1
1
1
1
1
1
1
1
1
1
1
1
1
1
1
1
1
1
1
1
1
1
1
1
1
1
1
1
1
1
1
1
1
1
1
1
1
1
1
1
1
1
1
1
1
1
1
1
1
1
1
1
1
1
1
1
1
1
1
1
1
1
0.9999999
0.9999993
0.9999998
1
1
1
1
1
1
1
1
1
1
1
1
1
1
1
1
1
1
1
1
1
1
1
1
0.9999992
1
1
1
0.9999998
1
0.9999993
0.9999996
1
1
1
1
1
1
0.9999997
0.9999999
1
1
0.9999989
0.9999998
1
1
1
0.9999996
0.9999998
1
1
0.9999997
0.9999998
1
1
1
1
1
0.9999999
0.9999999
1
0.9999998
0.9999992
0.9999999
0.9999981
0.9999992
1
1
1
1
0.9999998
0.9999999
1
1
1
1
1
1
1
1
1
1
1
1
1
0.9999986
0.9999992
1
1
0.9999999
0.9999974
1
1
1
1
1
1
1
1
1
1
1
1
1
1
1
1
1
1
1
1
1
1
1
1
1
1
1
1
1
1
1
0.9999999
1
1
1
0.9999999
1
1
0.9999999
1
1
1
1
0.9999999
1
1
1
0.9999999
1
1
1
1
1
1
1
1
1
1
1
1
1
1
1
1
1
1
1
1
1
1
1
1
1
1
1
1
1
1
1
1
1
1
1
1
1
1
1
1
1
1
1
1
1
1
1
1
1
1
1
1
1
1
1
0.9999999
0.9999997
0.999999
0.9999965
0.9999876
0.9999799
0.9999873
0.9999974
0.9999999
1
1
1
1
1
1
0.9999999
0.9999999
1
1
1
1
1
1
1
1
1
1
1
1
1
1
1
1
1
1
1
1
1
1
1
1
0.9999999
0.9999998
0.9999998
0.9999999
0.9999999
0.9999998
0.9999996
0.9999994
0.9999995
0.9999999
1
1
0.9999996
0.9999956
0.9999647
0.9997875
0.999196
0.9985813
0.9988289
0.9995896
0.9999487
0.9999981
1
1
0.9999996
0.9999952
0.9999857
0.9999843
0.9999819
0.999929
0.9994167
0.9960845
0.9853517
0.9825206
0.9876223
0.9967814
0.9998165
0.9999985
1
1
1
0.9999999
0.9999993
0.9999969
0.9999877
0.9999517
0.9998615
0.9998508
0.9999348
0.9999923
0.9999998
1
1
1
0.9999996
0.999998
0.9999938
0.9999917
0.9999937
0.9999983
1
1
1
1
1
1
1
1
1
1
1
1
1
1
1
1
1
1
1
1
1
1
1
1
1
1
1
1
1
1
1
1
1
1
1
1
1
1
1
1
1
1
1
1
1
1
1
0.9999997
0.9999999
1
1
1
1
1
1
1
1
1
1
0.9999999
1
1
1
1
1
1
1
1
1
1
1
1
1
1
1
1
1
1
1
1
1
1
1
1
1
1
1
1
1
1
1
1
1
1
1
1
1
1
1
1
1
1
1
0.9999999
0.9999999
0.9999999
1
1
0.9999999
0.9999996
0.9999983
0.9999937
0.9999772
0.9999676
0.9999737
0.999992
0.9999993
1
1
1
1
0.9999999
0.9999998
0.9999994
0.9999979
0.9999942
0.9999935
0.999997
0.9999996
1
1
1
1
1
1
1
1
1
1
1
0.9999999
0.9999994
0.9999989
0.999999
0.9999996
1
1
1
1
1
1
1
1
1
1
1
1
1
1
1
1
0.9999998
0.9999992
0.9999996
0.9999999
1
1
1
1
1
0.9999999
1
1
1
1
1
0.9999996
0.9999983
0.9999981
0.9999988
0.9999998
1
1
1
1
0.9999992
0.9999967
0.9999966
0.9999977
0.9999994
1
1
0.9999998
0.9999984
0.9999978
0.9999987
0.9999997
1
1
1
1
1
1
1
1
1
1
1
0.9999999
1
1
1
1
1
1
1
1
1
1
1
1
1
1
1
1
1
1
1
1
1
1
1
1
1
1
1
1
1
1
1
1
1
1
0.9999999
0.9999999
0.9999999
1
1
0.9999999
1
1
1
1
1
1
1
1
1
1
1
1
1
1
1
1
1
1
1
1
1
1
1
1
1
1
1
1
1
1
1
1
1
1
1
1
1
1
1
1
1
1
1
1
1
0.9999999
0.9999999
0.9999999
1
1
1
1
1
1
1
1
1
1
1
1
1
1
1
1
1
1
1
1
1
1
1
1
1
1
1
1
1
1
1
1
1
1
1
1
1
1
1
1
1
1
1
1
0.9999995
0.9999972
0.999992
0.9999895
0.9999933
0.9999981
0.9999999
0.9999999
0.9999991
0.999994
0.9999609
0.9997702
0.999536
0.9997186
0.9999425
0.9999968
0.9999999
1
1
1
1
1
1
1
1
1
1
1
1
1
1
1
1
1
1
1
1
1
1
1
1
1
1
1
1
1
1
1
1
1
0.9999999
0.9999994
0.9999981
0.9999971
0.999997
0.9999977
0.999999
0.9999996
0.9999999
1
0.9999999
0.9999994
0.9999924
0.9998792
0.9985017
0.9926124
0.9892913
0.9936699
0.9986241
0.9999077
0.9999983
1
1
1
0.9999996
0.9999934
0.9999292
0.999768
0.9996197
0.9991782
0.994101
0.9432722
0.907158
0.9097874
0.9637419
0.9958275
0.9999089
0.9999997
1
0.9999997
0.999998
0.9999896
0.9999534
0.9997994
0.9991853
0.9984263
0.9989696
0.9997728
0.9999858
0.9999997
1
1
0.9999998
0.9999988
0.9999927
0.9999617
0.999913
0.9999347
0.9999841
0.9999991
1
1
1
1
1
1
1
1
1
1
1
1
1
1
1
1
1
1
1
1
1
1
1
1
1
1
1
1
1
1
1
1
1
1
1
1
1
1
1
1
1
1
1
1
0.9999999
0.9999995
0.9999987
0.999999
0.9999998
1
1
1
1
1
1
1
1
1
1
1
1
1
0.9999999
0.9999996
0.9999995
0.9999996
0.9999999
1
1
1
1
1
1
1
1
1
1
1
1
1
1
1
1
1
1
1
1
1
1
1
1
1
1
1
1
1
1
1
1
0.9999999
0.9999995
0.9999986
0.9999974
0.999998
0.9999993
0.9999999
0.9999998
0.9999992
0.9999948
0.9999688
0.9998397
0.9997897
0.9998476
0.999964
0.9999977
0.9999999
0.9999999
0.9999999
0.9999996
0.9999985
0.9999941
0.9999779
0.9999166
0.9997868
0.9997913
0.9999224
0.9999919
0.9999998
1
1
1
1
0.9999999
0.9999999
0.9999999
1
1
1
0.9999999
0.9999992
0.9999956
0.9999885
0.9999909
0.9999975
0.9999998
1
1
1
1
1
1
1
1
1
1
1
1
1
1
1
1
1
1
1
1
1
1
1
1
1
0.9999999
0.9999999
0.9999999
1
1
1
0.9999995
0.9999982
0.9999983
0.9999993
0.9999999
1
1
1
1
1
0.9999993
0.999997
0.9999966
0.9999978
0.9999996
1
1
0.9999998
0.999998
0.9999967
0.9999967
0.9999976
0.9999995
1
1
1
1
1
1
1
1
1
1
1
1
1
1
1
1
1
1
1
1
1
1
1
1
1
1
1
1
1
1
1
1
1
1
1
1
1
1
1
1
1
1
1
1
1
1
1
1
1
1
1
1
1
1
1
1
1
1
1
1
1
0.9999999
0.9999999
1
1
1
1
1
1
1
1
1
1
1
1
1
1
1
1
1
1
1
1
1
1
1
1
1
1
1
1
1
1
1
1
1
1
1
1
1
1
1
1
1
1
1
1
1
1
1
1
1
1
1
1
1
1
1
1
1
1
1
1
1
1
1
1
1
1
1
1
0.9999999
0.9999998
0.9999998
0.9999998
0.9999999
0.9999999
1
1
1
1
1
1
1
1
1
1
1
1
1
1
0.9999998
0.9999974
0.9999705
0.999826
0.9994642
0.9994733
0.9997018
0.9999374
0.9999959
0.9999999
0.9999996
0.99999
0.9998129
0.9985102
0.998203
0.9990254
0.9998439
0.9999926
0.9999999
1
1
1
1
1
1
1
1
1
1
1
0.9999999
0.9999998
0.9999998
0.9999999
1
1
1
1
1
1
1
1
1
1
1
1
0.9999999
0.9999998
0.9999994
0.9999993
0.9999997
0.9999999
0.9999998
0.9999993
0.9999962
0.9999848
0.9999792
0.9999885
0.9999978
0.9999998
0.9999999
0.9999999
1
0.9999996
0.9999921
0.9998748
0.9984642
0.9864223
0.9633549
0.9773419
0.9948903
0.9996603
0.9999928
0.9999982
0.999998
0.999999
0.9999996
0.9999987
0.9999844
0.9998506
0.9989979
0.9917164
0.9407071
0.907158
0.907158
0.907158
0.9095925
0.9659004
0.996668
0.9999468
0.9999998
0.9999997
0.9999924
0.9999216
0.9994755
0.9969211
0.9892778
0.9886522
0.99542
0.999457
0.9999824
0.9999995
0.9999995
0.9999992
0.9999974
0.9999877
0.9999327
0.999663
0.9993892
0.9996579
0.9999377
0.9999972
1
1
0.9999998
0.9999997
0.9999998
0.9999999
0.9999999
0.9999998
0.9999996
0.9999998
1
1
1
1
1
1
1
1
1
1
1
1
1
1
1
1
1
1
1
1
1
1
1
1
1
1
1
0.9999999
0.9999999
1
1
1
1
1
1
0.9999995
0.9999971
0.9999971
0.999999
0.9999999
1
1
1
1
1
1
1
1
1
1
0.9999999
0.9999991
0.9999958
0.9999909
0.9999914
0.9999966
0.9999995
1
1
1
1
1
1
0.9999999
0.9999998
0.9999998
0.9999998
0.9999999
1
1
1
1
1
1
1
1
1
1
1
1
1
1
1
1
1
1
1
0.9999998
0.9999988
0.9999952
0.9999838
0.9999737
0.9999822
0.999995
0.9999995
0.9999997
0.9999995
0.9999959
0.9999628
0.99971
0.9990354
0.9992723
0.9997967
0.9999816
0.9999996
0.9999999
0.9999999
0.9999999
0.9999997
0.9999965
0.999961
0.9996897
0.9984133
0.9975705
0.9985318
0.9997079
0.999985
0.9999998
0.9999999
0.9999999
0.9999999
0.9999999
0.9999999
1
1
1
1
0.9999999
0.9999992
0.9999949
0.9999682
0.9999326
0.9999599
0.9999915
0.9999995
1
1
1
1
1
1
1
1
1
1
1
1
1
1
1
1
1
1
1
1
1
1
1
1
1
1
1
1
1
1
1
1
1
0.9999999
0.9999993
0.9999985
0.9999987
0.9999995
0.9999999
1
1
1
1
0.9999999
0.9999993
0.9999985
0.9999991
0.9999998
1
1
0.9999998
0.9999987
0.9999976
0.9999986
0.9999997
1
1
1
1
1
1
1
1
1
1
1
1
1
1
1
1
1
1
1
1
1
1
1
1
1
1
1
1
1
1
1
1
1
1
1
1
1
1
1
1
1
1
1
1
1
1
1
1
1
1
1
1
1
1
1
1
1
1
1
1
1
1
1
1
1
1
1
1
1
1
1
1
1
1
1
1
1
1
1
1
1
1
1
1
1
1
1
1
1
1
1
1
1
1
1
1
1
1
1
1
1
1
1
1
1
1
1
1
1
1
1
1
1
1
1
1
1
1
1
1
1
1
1
1
1
1
1
1
1
1
1
1
1
1
1
1
1
1
1
1
1
1
0.9999997
0.9999979
0.9999945
0.9999935
0.9999937
0.9999944
0.9999963
0.9999989
0.9999998
0.9999997
0.9999994
0.9999978
0.9999971
0.9999986
0.9999998
1
1
1
0.9999999
0.9999977
0.9999624
0.9995581
0.9971248
0.9930152
0.9935497
0.9973749
0.9995996
0.9999801
0.9999997
0.9999998
0.9999987
0.9999636
0.9989746
0.9969716
0.9984827
0.9997389
0.9999881
0.9999999
1
1
0.9999999
0.9999998
0.9999999
0.9999999
0.9999999
0.9999999
0.9999993
0.9999972
0.9999968
0.9999985
0.9999998
1
0.9999999
0.9999999
1
1
1
1
1
1
1
1
1
0.9999999
0.9999994
0.9999955
0.9999805
0.9999795
0.999991
0.9999988
0.9999996
0.9999993
0.9999971
0.9999818
0.9999128
0.9998814
0.9999444
0.9999918
0.9999993
0.9999998
0.9999998
0.9999998
0.9999998
0.9999971
0.9999191
0.9984135
0.9809808
0.9633613
0.9633603
0.9813043
0.9967513
0.9998187
0.9999775
0.9999864
0.9999929
0.9999984
0.9999992
0.9999967
0.9999507
0.9990661
0.9813014
0.911093
0.907158
0.907158
0.9172636
0.9637616
0.98726
0.9965024
0.9996468
0.9999933
0.9999992
0.9999951
0.9999403
0.9986822
0.9715494
0.9355446
0.9473866
0.9835574
0.9980295
0.9998876
0.9999751
0.9999749
0.9999633
0.9999082
0.9996712
0.9985447
0.9956253
0.9959846
0.9987291
0.9998808
0.9999966
0.9999992
0.9999984
0.9999969
0.9999978
0.9999994
0.9999999
0.9999998
0.9999989
0.9999984
0.9999993
0.9999999
1
1
1
1
1
1
1
1
1
1
1
1
1
1
1
1
1
1
1
1
1
1
1
1
0.9999999
0.9999995
0.9999992
0.9999996
0.9999999
1
1
1
1
1
0.9999997
0.9999966
0.9999925
0.9999959
0.9999992
1
1
1
1
1
1
1
1
1
0.9999997
0.9999976
0.9999844
0.9999383
0.9999041
0.9999449
0.9999883
0.9999992
1
1
1
1
0.9999999
0.9999995
0.9999977
0.9999947
0.9999948
0.9999978
0.9999997
1
1
1
1
1
1
1
1
1
1
1
1
1
1
1
1
1
0.9999999
0.9999991
0.9999945
0.9999766
0.9999012
0.9998168
0.9998747
0.9999633
0.9999968
0.9999989
0.9999989
0.999999
0.9999973
0.9999487
0.9991355
0.9977836
0.9982221
0.9994674
0.9999546
0.9999922
0.9999885
0.9999823
0.9999824
0.999988
0.9999921
0.9999692
0.9995683
0.9952588
0.9917245
0.9939759
0.9984971
0.9998981
0.9999875
0.999977
0.9999702
0.9999814
0.9999965
0.9999998
1
1
1
0.9999998
0.9999989
0.9999923
0.9999439
0.9997465
0.9997281
0.9998773
0.9999831
0.9999992
1
1
1
1
1
1
1
1
1
1
1
1
1
1
1
1
1
1
1
1
1
1
1
1
1
1
1
1
1
1
1
1
1
1
1
1
1
1
1
1
0.9999993
0.9999987
0.9999987
0.9999995
0.9999999
1
1
0.9999999
0.9999999
0.9999999
1
1
0.9999999
0.9999999
0.9999998
0.9999998
0.9999999
1
1
1
1
1
1
1
1
1
1
1
1
1
1
1
1
1
1
1
1
1
1
1
1
1
1
1
1
1
1
1
1
1
1
1
1
1
1
1
1
1
1
1
1
1
1
1
1
1
1
1
1
1
1
1
1
1
1
1
1
1
1
1
1
1
1
1
1
1
1
1
1
1
1
1
1
1
1
1
1
1
1
1
1
1
1
1
1
1
1
1
1
1
1
1
1
1
1
1
1
1
1
1
1
1
1
1
1
1
1
1
1
1
1
1
1
1
1
1
1
1
1
1
1
1
1
1
0.9999999
0.9999998
0.9999996
0.9999992
0.9999988
0.9999985
0.9999983
0.9999981
0.9999981
0.999999
0.9999999
1
1
1
1
1
1
1
1
1
1
1
1
0.9999996
0.9999977
0.9999889
0.9999503
0.9998146
0.999719
0.9998335
0.999969
0.9999952
0.9999924
0.9999711
0.9999501
0.9999721
0.9999948
0.9999998
1
1
1
0.9999997
0.999992
0.9998412
0.9974291
0.9838138
0.9580966
0.9674367
0.9903057
0.9989407
0.9999442
0.9999593
0.9999439
0.9999449
0.9999627
0.9999503
0.9994694
0.9961437
0.9976053
0.9993812
0.9999496
0.9999991
1
1
0.9999999
0.9999998
0.9999996
0.9999985
0.9999888
0.9999665
0.9999708
0.9999887
0.9999983
0.9999999
1
1
1
1
1
1
1
1
1
1
1
0.9999997
0.9999982
0.9999852
0.9999212
0.999906
0.9999406
0.999988
0.999996
0.9999958
0.9999923
0.9999692
0.9998253
0.9993667
0.9993931
0.9997968
0.9999811
0.9999996
0.9999999
0.9999998
0.9999992
0.9999941
0.9999746
0.9999332
0.9993512
0.9882881
0.9635613
0.9633613
0.9813716
0.9958731
0.9994044
0.9998603
0.99995
0.9999844
0.9999955
0.9999952
0.9999934
0.9999888
0.9999325
0.9991625
0.9924681
0.9710554
0.9639636
0.9737624
0.9896699
0.9980594
0.9995761
0.9999099
0.9999921
0.9999964
0.9999744
0.9995132
0.9908121
0.9457378
0.9584856
0.9873108
0.9952727
0.9825842
0.9418225
0.944329
0.977873
0.9974519
0.9982621
0.990668
0.9612599
0.9586821
0.9790381
0.9968407
0.9998555
0.999992
0.9999829
0.9999676
0.999977
0.9999946
0.9999995
0.9999996
0.9999989
0.9999962
0.9999961
0.9999982
0.9999997
1
1
1
1
1
1
1
1
1
1
1
1
1
1
1
1
1
1
1
1
1
1
1
0.9999997
0.9999982
0.9999942
0.9999952
0.9999986
0.9999999
1
1
1
1
1
0.9999999
0.9999979
0.9999874
0.9999874
0.9999955
0.9999996
1
1
1
1
1
1
1
0.9999997
0.9999968
0.9999729
0.9998434
0.9994775
0.9994934
0.9998134
0.9999775
0.9999993
1
1
0.9999999
0.9999995
0.9999974
0.9999884
0.9999575
0.9999341
0.9999585
0.9999907
0.9999994
1
1
1
1
1
1
1
1
1
1
1
1
1
1
1
1
0.9999997
0.9999976
0.9999811
0.9999019
0.9996037
0.9993708
0.9994233
0.9997623
0.9999683
0.9999918
0.9999885
0.999954
0.9998225
0.9997843
0.9998483
0.9997358
0.9983163
0.9977836
0.9979242
0.9992087
0.9999182
0.9999254
0.9995726
0.9991282
0.9991201
0.9993875
0.9998117
0.9996462
0.9962936
0.9917245
0.9917245
0.9935623
0.9979687
0.9992272
0.9994581
0.9997931
0.9999709
0.9999983
0.9999999
1
1
1
0.9999996
0.9999955
0.9999462
0.9994665
0.9986551
0.9991622
0.9998066
0.999984
0.9999996
1
1
1
1
1
1
1
1
1
1
0.9999999
0.9999997
0.9999996
0.9999998
1
1
1
1
1
1
1
1
1
1
1
1
1
1
1
1
1
1
1
1
1
1
1
1
1
1
1
0.9999998
0.9999989
0.999999
0.9999996
1
1
1
1
1
1
1
1
1
1
1
1
1
1
1
1
1
1
1
1
1
1
1
1
0.9999999
1
1
1
1
1
1
1
1
1
1
1
1
1
1
1
1
1
1
1
1
1
1
1
1
1
1
1
1
1
1
1
1
1
1
1
1
1
1
1
1
1
1
1
1
1
1
1
1
1
1
1
1
1
1
1
1
1
1
1
1
1
1
1
1
1
1
1
1
1
1
1
1
1
1
1
1
1
1
1
1
1
1
1
1
1
1
1
1
1
1
1
1
1
1
1
1
1
1
1
1
1
1
1
1
1
1
1
1
1
1
1
1
1
0.9999999
0.9999999
0.9999997
0.9999995
0.9999992
0.9999989
0.9999983
0.9999963
0.99999
0.9999636
0.9998286
0.9992292
0.9984055
0.9989138
0.9997559
0.999987
0.9999999
1
1
1
1
1
1
1
1
0.9999999
0.9999997
0.9999998
0.9999999
0.9999995
0.9999956
0.9999481
0.9993632
0.9975845
0.9978565
0.9992375
0.9998972
0.9999334
0.9998425
0.9996156
0.9997163
0.999918
0.9999927
0.9999999
1
1
1
0.9999994
0.9999825
0.9995827
0.9937867
0.9567223
0.8702365
0.9144436
0.9765765
0.9975892
0.999725
0.9995938
0.9989813
0.9986785
0.9989144
0.9991991
0.998512
0.9949194
0.9958746
0.9981726
0.999662
0.9999837
0.9999998
0.9999998
0.9999995
0.9999972
0.9999787
0.9998646
0.9998171
0.999874
0.9999691
0.9999955
0.999999
0.9999999
1
1
1
1
1
1
1
1
1
0.9999999
0.999999
0.9999897
0.9998728
0.9996247
0.9996737
0.9998739
0.9999806
0.9999946
0.9999938
0.9999801
0.9999054
0.9995029
0.9975042
0.9952767
0.9972839
0.9994727
0.9999739
0.9999997
0.9999999
0.9999999
0.9999997
0.9999899
0.9997601
0.9976534
0.9957781
0.995128
0.9801598
0.9675212
0.9803132
0.9933116
0.9976387
0.9989912
0.9996858
0.9999457
0.9999813
0.9999748
0.9999484
0.9998257
0.9994958
0.9991341
0.9988465
0.9986651
0.9979237
0.9965204
0.9956155
0.9966948
0.9979264
0.9984795
0.9993653
0.9998838
0.9999053
0.9994432
0.9867535
0.9287402
0.9228812
0.9568461
0.9932499
0.998665
0.9902416
0.9586514
0.9667388
0.9905831
0.9970306
0.9880677
0.8992727
0.8522047
0.8847145
0.9708756
0.9981755
0.9999779
0.9999941
0.9999874
0.9999807
0.9999895
0.9999977
0.9999974
0.9999914
0.9999898
0.9999935
0.9999986
0.9999999
1
1
1
1
1
1
1
1
0.9999999
0.9999999
1
1
1
1
0.9999999
0.9999997
0.9999987
0.9999939
0.9999847
0.9999871
0.9999962
0.9999996
0.9999994
0.9999965
0.9999779
0.9999706
0.999982
0.9999967
0.9999998
1
1
1
1
1
0.9999999
0.9999986
0.9999866
0.9999689
0.9999806
0.9999959
0.9999998
1
1
1
1
1
1
0.9999995
0.9999909
0.999883
0.9991453
0.9974709
0.9982093
0.9995391
0.9999635
0.9999993
0.9999999
0.9999999
0.9999993
0.9999937
0.9999532
0.9997837
0.9995055
0.9995271
0.9998098
0.9999761
0.9999993
1
1
1
1
0.9999999
1
1
0.9999999
0.9999997
0.9999996
0.9999996
0.9999998
0.9999999
0.9999999
0.9999998
0.9999992
0.9999952
0.999973
0.9998755
0.9993377
0.99729
0.9977695
0.9993145
0.9999306
0.9999902
0.9999883
0.9999705
0.9998564
0.9990771
0.9962006
0.9956109
0.9968894
0.9993033
0.9999504
0.9999749
0.9999747
0.9999751
0.9999751
0.9999277
0.9989465
0.9870146
0.9724274
0.9839832
0.9964547
0.9996838
0.9997702
0.9994341
0.9971557
0.9910817
0.990102
0.9939612
0.99871
0.9999215
0.9999959
0.9999964
0.9999963
0.9999979
0.9999989
0.9999985
0.9999904
0.9998386
0.99838
0.9975218
0.998041
0.9994202
0.9999503
0.9999986
0.9999995
0.999999
0.9999993
0.9999998
1
1
1
1
0.9999999
0.9999995
0.9999976
0.9999952
0.999997
0.9999994
1
1
1
1
1
1
1
1
1
1
1
1
1
1
1
1
1
1
1
1
1
1
1
1
1
1
1
1
1
1
0.9999999
0.9999997
0.9999996
0.9999998
1
1
1
1
1
1
1
1
1
1
1
1
1
1
1
1
1
1
1
1
1
1
0.9999999
0.9999999
1
1
1
1
1
1
1
1
1
1
1
1
1
1
1
1
1
1
1
1
1
1
1
1
1
1
1
1
1
1
1
1
1
1
1
1
1
1
1
1
1
1
1
1
1
1
1
1
1
1
1
1
1
1
1
1
1
1
1
1
1
1
1
1
1
1
1
1
1
1
1
1
1
0.9999999
0.9999998
0.9999995
0.9999988
0.9999983
0.9999982
0.9999981
0.9999979
0.9999966
0.9999931
0.9999873
0.9999839
0.9999833
0.9999837
0.9999862
0.9999882
0.9999881
0.9999854
0.9999778
0.9999678
0.9999657
0.9999705
0.9999816
0.9999913
0.9999941
0.9999942
0.9999943
0.9999944
0.999995
0.9999964
0.999998
0.9999988
0.9999988
0.9999988
0.9999987
0.9999984
0.9999979
0.9999966
0.9999916
0.9999795
0.9999587
0.9999259
0.9998768
0.9998618
0.9998742
0.9998773
0.9997798
0.998607
0.9867774
0.9668887
0.9780858
0.9946976
0.9996442
0.9999903
0.9999998
1
1
0.9999999
0.9999999
0.9999997
0.9999992
0.9999981
0.9999977
0.9999982
0.9999982
0.999998
0.9999985
0.9999993
0.9999969
0.9998652
0.9969008
0.9946641
0.9962454
0.9989384
0.9993173
0.9989171
0.997628
0.9980603
0.9993152
0.999911
0.9999955
0.9999999
1
1
1
0.9999988
0.9999632
0.9991479
0.9880333
0.8963801
0.8254631
0.8536345
0.9544641
0.9954921
0.9990739
0.9979821
0.9910747
0.9849242
0.9860796
0.9893543
0.9891106
0.9874724
0.9931319
0.9984749
0.9998484
0.9999861
0.9999914
0.9999861
0.9999485
0.9997015
0.9991047
0.9992181
0.9997173
0.9999522
0.999991
0.9999983
0.9999997
0.9999999
0.9999999
0.9999999
0.9999999
0.9999999
0.9999999
0.9999999
0.9999998
0.9999997
0.9999995
0.9999987
0.9999859
0.9997227
0.999332
0.999411
0.9997546
0.9999473
0.9999915
0.9999946
0.9999946
0.9999884
0.9998461
0.9972889
0.977812
0.9761602
0.9907471
0.9989615
0.9999705
0.9999993
0.9999995
0.9999995
0.9999992
0.9999922
0.9998217
0.9973195
0.9769554
0.9680835
0.9790245
0.9953548
0.9946436
0.9802257
0.9856851
0.9932389
0.9982468
0.9996475
0.999663
0.9996647
0.9994947
0.9989666
0.9972038
0.9872843
0.9650639
0.9607355
0.9666414
0.9710731
0.9421937
0.8458584
0.8844916
0.9679902
0.9972001
0.9991405
0.9990279
0.9978703
0.9793608
0.9335915
0.9314899
0.9622359
0.9910442
0.99923
0.9991374
0.9961452
0.9944739
0.9966014
0.998644
0.9950639
0.9178103
0.8522047
0.8522047
0.922731
0.9887848
0.9996461
0.999994
0.9999941
0.9999941
0.9999941
0.9999895
0.9999724
0.9999717
0.9999863
0.999997
0.9999996
1
1
1
1
1
1
1
1
1
0.9999999
0.9999999
0.9999999
1
1
1
0.9999999
0.999999
0.9999922
0.9999474
0.9998918
0.9999373
0.9999879
0.9999985
0.9999973
0.9999809
0.9999102
0.9999169
0.9999719
0.9999965
0.9999998
0.9999999
0.9999999
0.9999999
0.9999999
1
1
0.9999993
0.9999899
0.9999324
0.9999315
0.9999744
0.9999973
0.9999999
1
1
1
1
0.9999999
0.9999994
0.9999918
0.9998654
0.998164
0.9943091
0.9956192
0.9986445
0.9998679
0.9999973
0.9999999
0.9999999
0.9999996
0.9999933
0.9999126
0.9992396
0.997074
0.9974674
0.9991418
0.9999145
0.9999981
1
0.9999999
0.9999996
0.9999984
0.999998
0.9999987
0.9999997
0.9999999
0.9999995
0.9999971
0.9999972
0.9999987
0.9999992
0.9999989
0.9999963
0.9999769
0.9998518
0.9995262
0.9985585
0.9961629
0.9958991
0.9959475
0.9982242
0.9997468
0.9999874
0.9999902
0.9999649
0.9994147
0.9929793
0.987682
0.9938822
0.9990255
0.9999115
0.9999225
0.9999123
0.9999126
0.999917
0.9998918
0.9997775
0.999138
0.9922849
0.9727378
0.9720045
0.9720045
0.9826977
0.997312
0.999809
0.9986444
0.9781072
0.9600724
0.9673774
0.9892833
0.9986884
0.9996184
0.9997489
0.9999191
0.9999906
0.999995
0.9999898
0.9999507
0.9995863
0.9979046
0.9976434
0.9982022
0.9994504
0.9999389
0.9999899
0.9999899
0.9999934
0.9999985
0.9999999
0.9999999
0.9999999
0.9999998
0.9999995
0.9999978
0.9999893
0.9999644
0.9999656
0.9999881
0.9999987
0.9999999
0.9999999
0.9999998
0.9999997
0.9999999
1
1
1
1
1
1
1
1
1
1
1
1
1
1
0.9999999
0.9999999
1
1
1
1
1
1
1
1
1
1
1
1
1
0.9999999
0.9999999
0.9999999
1
1
1
1
1
1
1
1
1
1
1
1
1
1
1
1
1
1
1
1
1
1
1
1
1
1
1
1
1
1
1
1
1
1
1
1
1
1
1
1
1
1
1
1
1
1
1
1
1
1
1
1
1
1
1
1
1
1
1
1
1
1
1
1
1
1
1
1
1
1
1
1
1
1
1
1
1
1
1
1
1
1
1
1
1
1
1
1
1
1
1
1
1
1
1
1
1
1
1
1
1
1
1
1
1
0.9999998
0.9999992
0.9999973
0.9999933
0.9999869
0.9999776
0.9999645
0.9999402
0.9998732
0.9996713
0.9992931
0.9991453
0.9991935
0.999339
0.9993583
0.9991609
0.9982745
0.996676
0.9960519
0.9962347
0.997125
0.9981711
0.9983451
0.9980613
0.9966245
0.9939571
0.9932017
0.9938364
0.9960468
0.9982948
0.9988382
0.9988275
0.9987078
0.9984887
0.9984455
0.9986677
0.999331
0.9997175
0.9997408
0.9997264
0.9996965
0.999679
0.9996848
0.9997442
0.9998127
0.9997103
0.9991134
0.9975792
0.9961264
0.9961444
0.9969269
0.9973849
0.9969442
0.9901638
0.9357272
0.9015445
0.95263
0.9926254
0.9995988
0.9999941
0.9999996
0.9999995
0.9999957
0.999963
0.9999488
0.9999637
0.9999673
0.9999571
0.9999436
0.9999577
0.9999877
0.9999975
0.9999955
0.9999819
0.9999738
0.9999794
0.9999607
0.9997178
0.9989721
0.998137
0.9935492
0.9874012
0.9900329
0.9967887
0.9995404
0.9999491
0.9999977
0.9999998
0.9999998
0.9999996
0.9999997
0.9999991
0.9999724
0.9990595
0.9811696
0.8456185
0.7896085
0.8400706
0.9593328
0.9968898
0.9976568
0.9907278
0.9574204
0.8874628
0.6383171
0.5319251
0.6606766
0.8758067
0.973983
0.9967617
0.9998584
0.9999849
0.9999821
0.999896
0.9985869
0.9936883
0.9946546
0.998186
0.9997716
0.9999862
0.9999982
0.9999982
0.9999982
0.9999983
0.9999985
0.9999986
0.9999986
0.9999984
0.9999973
0.999995
0.9999936
0.9999931
0.9999896
0.9999327
0.9995559
0.9994708
0.999697
0.9998471
0.9998986
0.9999606
0.9999929
0.9999946
0.9999946
0.9999931
0.9998917
0.997185
0.9736764
0.9650931
0.9708062
0.9915214
0.9993671
0.9999847
0.999992
0.9999904
0.9999943
0.9999913
0.9999134
0.9976931
0.9707155
0.9564181
0.9697219
0.9832043
0.9720991
0.9681893
0.9766822
0.9938001
0.9985907
0.9968936
0.9917509
0.9900128
0.994142
0.9954135
0.9852909
0.945269
0.8613763
0.4881772
0.1619838
0.1251587
0.124903
0.3309641
0.8194151
0.9782386
0.9863416
0.9847046
0.9294004
0.8242538
0.8734548
0.9629954
0.9890548
0.9935364
0.9977677
0.9997041
0.9999049
0.9998398
0.9997966
0.9998552
0.999916
0.9998142
0.9970738
0.9508263
0.8841643
0.9273247
0.9823439
0.9988062
0.9999836
0.9999941
0.9999941
0.9999898
0.9999578
0.9999483
0.9999652
0.9999904
0.9999986
0.9999999
1
1
1
1
1
1
1
1
1
1
1
1
1
0.9999999
0.9999997
0.9999989
0.9999947
0.9999687
0.9998198
0.9996603
0.9998156
0.9999646
0.9999952
0.9999917
0.9999479
0.9997744
0.9998085
0.9999432
0.9999946
0.9999998
0.9999999
0.9999996
0.9999996
0.9999998
1
1
0.9999998
0.9999953
0.9999309
0.9998843
0.9998974
0.9999651
0.9999966
0.9999992
0.999999
0.9999986
0.9999977
0.9999965
0.9999941
0.9999786
0.9997978
0.9979557
0.9943286
0.9943091
0.9963471
0.999246
0.9999585
0.9999996
0.9999999
0.9999999
0.9999986
0.9999706
0.9994103
0.9960867
0.9954019
0.9961011
0.9988841
0.9999212
0.9999982
0.999998
0.9999942
0.9999824
0.9999809
0.9999914
0.9999987
0.9999999
0.9999998
0.9999986
0.9999967
0.9999959
0.9999937
0.9999771
0.9998448
0.9993664
0.9987316
0.9954729
0.9909354
0.9909354
0.9936219
0.9984635
0.9998821
0.9999945
0.9999957
0.9999948
0.9999513
0.9993563
0.9955866
0.9860108
0.9849442
0.9919031
0.9986565
0.99988
0.9992732
0.9971294
0.9968489
0.9983354
0.9988547
0.994632
0.9739037
0.9720045
0.9720045
0.9754778
0.9909482
0.9987401
0.9999279
0.9999507
0.9996536
0.9967164
0.973908
0.9625807
0.9625807
0.9781774
0.9954975
0.9997002
0.999975
0.9999735
0.9998984
0.9990941
0.997094
0.9972822
0.998824
0.9996108
0.9997353
0.9997002
0.9997298
0.9998533
0.9999678
0.9999978
0.9999997
0.9999997
0.9999992
0.9999971
0.9999893
0.9999553
0.9998221
0.9997116
0.9998415
0.9999707
0.9999983
0.9999997
0.9999996
0.9999988
0.999999
0.9999997
1
1
1
1
1
1
1
1
1
1
1
1
1
0.9999999
0.9999997
0.9999996
0.9999998
1
1
1
1
1
1
1
1
1
1
1
1
1
1
1
1
1
1
1
1
1
1
1
1
1
1
1
1
1
1
1
1
1
1
1
1
1
1
1
1
1
1
1
1
1
1
1
1
1
1
1
1
1
1
1
1
1
1
1
1
1
1
1
1
0.9999999
1
0.9999999
1
1
1
1
1
1
1
1
1
1
1
1
1
1
1
1
1
1
1
1
1
1
1
1
1
1
1
1
1
1
1
1
1
1
1
1
1
1
1
1
1
1
1
1
1
1
1
1
1
1
1
1
1
1
1
1
1
1
1
1
1
1
1
0.9999998
0.9999989
0.9999939
0.9999721
0.9998882
0.9996186
0.9989816
0.9979242
0.9966907
0.9955334
0.9944423
0.9928288
0.9878971
0.9724383
0.9520508
0.9496828
0.9552693
0.9685385
0.9734606
0.9667802
0.9311682
0.868746
0.8535925
0.877506
0.9386078
0.9669106
0.9634655
0.94548
0.8670893
0.7661324
0.7848132
0.8952275
0.9738153
0.9766477
0.9717978
0.9517954
0.9176629
0.9171972
0.9580704
0.9915166
0.9945626
0.9924265
0.9847623
0.9847442
0.9936288
0.9972814
0.9964388
0.9957578
0.9975881
0.9981499
0.9923794
0.9650219
0.9497301
0.961242
0.9854278
0.9824497
0.9012796
0.6703804
0.6879842
0.8827236
0.9882533
0.9996886
0.9999737
0.9999934
0.9999976
0.9999939
0.9999834
0.9999675
0.9999333
0.9996719
0.999364
0.9993981
0.9997465
0.9999586
0.9999741
0.9999692
0.9999496
0.9998869
0.9997366
0.999577
0.9994485
0.9987728
0.9911687
0.9697518
0.9733747
0.9886278
0.9974352
0.9996619
0.9999848
0.9999997
0.9999998
0.9999996
0.9999961
0.999987
0.999983
0.9999616
0.999318
0.9866778
0.8436021
0.7917694
0.8643859
0.9734278
0.9987869
0.9992625
0.9933184
0.9153906
0.4640643
0.08041128
0.05545201
0.06290459
0.07139702
0.1145634
0.5313909
0.9307
0.9973884
0.9999594
0.9999135
0.9988131
0.9938027
0.9933462
0.9952293
0.9989215
0.9999441
0.9999968
0.9999959
0.999989
0.9999527
0.9998285
0.9997556
0.9997813
0.9998544
0.9999229
0.999935
0.9999329
0.9999085
0.9995686
0.9989743
0.9992142
0.9995301
0.9996982
0.9998655
0.9999742
0.9999945
0.9999946
0.9999946
0.9999946
0.9999946
0.9999902
0.9998567
0.9973577
0.9740867
0.9708319
0.987363
0.9980952
0.9998129
0.9999297
0.9999647
0.9999913
0.9999951
0.9999787
0.9996238
0.9917892
0.9803617
0.9740466
0.9578681
0.9026476
0.9119443
0.9691183
0.9964581
0.9991505
0.9988657
0.9866868
0.9071809
0.8957188
0.9552593
0.9860276
0.9400182
0.4689216
0.1816112
0.1816112
0.2096037
0.3598925
0.6257358
0.8936871
0.9433352
0.9357394
0.6687999
0.3584792
0.4992095
0.8573907
0.9794692
0.9976428
0.9997858
0.9999201
0.9999525
0.9999553
0.9999553
0.9999553
0.9999543
0.9999133
0.9995593
0.9961089
0.9827294
0.9579753
0.9706158
0.9903469
0.9988871
0.9999673
0.9999936
0.9999854
0.9999237
0.9998877
0.9999246
0.9999796
0.9999967
0.9999997
1
1
1
1
1
1
1
1
1
1
0.9999999
0.9999998
0.9999996
0.9999994
0.999999
0.999997
0.9999852
0.9999245
0.9995819
0.9984793
0.9984818
0.9994476
0.9999335
0.9999759
0.9999544
0.9998065
0.999399
0.9994732
0.9998411
0.999986
0.9999997
1
1
0.9999998
0.9999996
0.9999997
0.9999998
0.9999999
0.9999998
0.9999959
0.999944
0.9998843
0.9999243
0.9999779
0.9999694
0.9999384
0.9999406
0.9999748
0.9999675
0.9998865
0.9995604
0.9989326
0.9964193
0.9946399
0.9951679
0.9978214
0.9996287
0.9999809
0.9999997
0.9999999
0.9999999
0.9999998
0.9999972
0.9999497
0.9991152
0.9957665
0.9954019
0.9974245
0.9995091
0.9999062
0.9998876
0.999853
0.9998509
0.9999071
0.999978
0.9999982
0.9999996
0.9999996
0.9999991
0.9999966
0.9999813
0.9998622
0.9992339
0.9982882
0.9957646
0.9846482
0.9822724
0.9844153
0.9947157
0.9993492
0.9998696
0.9998055
0.999735
0.9997447
0.999869
0.9999517
0.9998132
0.9972325
0.9658958
0.9146822
0.9412464
0.9800496
0.9966041
0.9996342
0.9987536
0.9852524
0.9764297
0.9810142
0.9946654
0.9993437
0.9992668
0.9985929
0.9980316
0.9983378
0.9992845
0.9998965
0.999975
0.999975
0.9999681
0.9996244
0.9920153
0.9637048
0.9625807
0.9625807
0.9790304
0.9971142
0.9997195
0.9993224
0.9960681
0.9940976
0.9960636
0.9990143
0.9999182
0.9999658
0.9998033
0.9991598
0.9991289
0.9995865
0.9999392
0.9999977
0.9999997
0.9999973
0.9999703
0.9997848
0.9988636
0.9976462
0.9980654
0.999404
0.9999442
0.9999981
0.9999992
0.999998
0.999995
0.9999966
0.9999992
0.9999999
1
1
1
1
1
1
1
1
1
1
1
1
0.9999998
0.999999
0.9999982
0.9999991
0.9999998
1
1
1
1
1
1
1
1
1
1
1
1
1
1
1
1
1
1
1
1
1
1
1
1
1
1
1
1
1
1
1
1
1
1
1
1
1
1
1
1
1
1
1
1
1
1
1
1
1
1
1
1
1
1
1
1
1
1
1
1
1
1
1
1
1
1
1
1
1
1
1
1
1
1
1
1
1
1
0.9999999
0.9999999
1
1
1
1
1
1
1
1
1
1
1
1
1
1
1
1
1
1
1
1
1
1
1
1
1
1
1
1
1
1
1
1
1
1
1
1
1
1
1
1
1
1
1
1
1
1
1
1
1
1
1
1
1
1
1
1
1
1
1
0.9999999
0.999999
0.9999934
0.9999688
0.9998769
0.9995738
0.9986237
0.9959965
0.9890722
0.9732347
0.9464181
0.9140136
0.8886324
0.8739044
0.8608654
0.8386728
0.7768237
0.6218138
0.5129415
0.5217931
0.57897
0.6808674
0.7289694
0.6726132
0.3887032
0.1518304
0.1469454
0.3190419
0.7233039
0.8011221
0.6006629
0.1760371
0.04857476
0.04853357
0.1717585
0.7259543
0.851933
0.6442769
0.2282206
0.1086121
0.1949
0.6758714
0.9273191
0.8776889
0.6960943
0.7124594
0.8675164
0.9765661
0.9874344
0.977462
0.9409172
0.9402154
0.9785297
0.9967768
0.9860713
0.8243283
0.6284487
0.7174844
0.8760599
0.8234523
0.3858172
0.08735925
0.2232548
0.7566646
0.9798463
0.9996227
0.9999935
0.9999951
0.9999945
0.9999644
0.9993898
0.9973476
0.9972886
0.998845
0.9997838
0.9998064
0.9997713
0.9996023
0.9987643
0.9955383
0.9926218
0.9929734
0.9930528
0.9880113
0.9372116
0.8894985
0.9254856
0.9803423
0.9952725
0.998667
0.9998323
0.9999923
0.9999982
0.9999982
0.9999979
0.999996
0.9999863
0.9999244
0.9993588
0.9952907
0.9822597
0.8751934
0.8718489
0.9417439
0.9907098
0.9996492
0.9998817
0.9984186
0.9447975
0.4397789
0.047427
0.01670347
0.01670347
0.02804645
0.09336892
0.4944449
0.9114297
0.9951272
0.9993303
0.9967187
0.9956166
0.9967667
0.9986281
0.999218
0.9996598
0.9999323
0.9999253
0.9994837
0.99513
0.9765591
0.9672795
0.9750904
0.976203
0.9643002
0.9644794
0.970387
0.9831568
0.9951218
0.9990093
0.9989226
0.9987314
0.9986011
0.997931