/*--------------------------------*- C++ -*----------------------------------*\
| =========                 |                                                 |
| \\      /  F ield         | foam-extend: Open Source CFD                    |
|  \\    /   O peration     | Version:     3.1                                |
|   \\  /    A nd           | Web:         http://www.extend-project.de       |
|    \\/     M anipulation  |                                                 |
\*---------------------------------------------------------------------------*/
FoamFile
{
    version     2.0;
    format      ascii;
    class       volScalarField;
    location    "16";
    object      k;
}
// * * * * * * * * * * * * * * * * * * * * * * * * * * * * * * * * * * * * * //

dimensions      [0 2 -2 0 0 0 0];

internalField   nonuniform List<scalar> 
119952
(
0.03588915
0.03183799
0.03086205
0.03127028
0.03141462
0.03108095
0.03154557
0.03229476
0.03329264
0.03448452
0.03585495
0.03739739
0.03911565
0.04099827
0.04302419
0.04516972
0.04740342
0.04968402
0.05197082
0.05443314
0.05850711
0.05853516
0.05906582
0.06079008
0.05783253
0.05512285
0.05201807
0.04804077
0.04262317
0.01055023
0.07414219
0.07057193
0.06906249
0.06895231
0.06971139
0.07083026
0.07187988
0.07253585
0.07262923
0.07225981
0.0692542
0.06941771
0.07097002
0.07315317
0.07549392
0.07765777
0.0794169
0.08072242
0.08171936
0.09032522
0.09142944
0.09248075
0.09372173
0.09521502
0.09704358
0.09918342
0.101517
0.1038627
0.1060627
0.1081194
0.1094464
0.1100684
0.109944
0.1090104
0.1073053
0.1050242
0.1026523
0.1007165
0.1014644
0.1007919
0.09967811
0.09872049
0.09742952
0.09570966
0.0939665
0.09262803
0.09193196
0.09201155
0.09297528
0.09488663
0.09774527
0.1014746
0.105929
0.1109072
0.1161596
0.1213803
0.12618
0.1300586
0.1327282
0.1340897
0.133494
0.1317362
0.1294633
0.1255313
0.1203966
0.1145732
0.1082511
0.1012597
0.09601104
0.09192822
0.08873906
0.08620337
0.08409745
0.08231072
0.08075
0.07933184
0.07797438
0.07660781
0.07519422
0.07373319
0.07225269
0.07079791
0.06940919
0.06811132
0.0669224
0.0658483
0.06484807
0.06384814
0.062689
0.06107766
0.05817011
0.05519008
0.05494855
0.05760428
0.06156739
0.06521064
0.06772879
0.06909212
0.06960506
0.06955521
0.06921507
0.06887778
0.06871488
0.06864387
0.06844335
0.06795186
0.0671997
0.06640603
0.06573963
0.06530299
0.06517667
0.06541391
0.06605332
0.06713343
0.06869734
0.07078743
0.07344125
0.07672577
0.08049402
0.08466372
0.08915598
0.09384995
0.09866042
0.103447
0.1079997
0.1120556
0.1153693
0.1177622
0.1191121
0.1193137
0.1182929
0.1160358
0.1125478
0.107917
0.102603
0.09693357
0.09111515
0.0853825
0.07999187
0.07516803
0.07101304
0.06746743
0.06436847
0.0615629
0.05898467
0.05664107
0.05456627
0.05278003
0.05117459
0.0496732
0.04806944
0.04604671
0.04339694
0.04462054
0.04937334
0.05461776
0.05875964
0.06077374
0.06047205
0.05858265
0.05607587
0.05358934
0.05133469
0.04929111
0.04733899
0.04538192
0.04338805
0.04140869
0.03834291
0.0359233
0.03394331
0.0322428
0.03074938
0.02947377
0.02845727
0.0277304
0.0272408
0.02686083
0.02650443
0.02614246
0.02578106
0.0254548
0.02521314
0.02509074
0.02509067
0.02516161
0.02525912
0.02534248
0.02535448
0.02523507
0.02497651
0.02460179
0.02413332
0.02360442
0.02305457
0.02251809
0.02201758
0.02156368
0.0211684
0.02084415
0.0205904
0.02039629
0.02023333
0.02034182
0.02055894
0.02075244
0.02092632
0.02107575
0.0212051
0.02132125
0.02142885
0.02153145
0.02163142
0.02173026
0.02182903
0.02192838
0.02202862
0.02212967
0.02223141
0.02233377
0.02243679
0.02254042
0.02264453
0.02274903
0.02285361
0.02295801
0.02306212
0.02316556
0.02326726
0.02336587
0.02345997
0.02354814
0.02362905
0.02370185
0.02376588
0.02382167
0.02386758
0.02416566
0.02420997
0.02418362
0.02404927
0.02387341
0.02368118
0.02348752
0.02329888
0.02311772
0.02294421
0.02278019
0.02262675
0.02248633
0.02236133
0.02225468
0.02216964
0.02210968
0.02207817
0.02207814
0.02211194
0.0221809
0.02228506
0.02242317
0.02259282
0.02279078
0.02301327
0.02325591
0.02351401
0.02378363
0.02406145
0.02434665
0.02464409
0.02496258
0.0253111
0.02569596
0.02612037
0.02658251
0.02707348
0.02757883
0.02808084
0.02856032
0.02899722
0.02937469
0.02968175
0.02991576
0.03007976
0.03017015
0.03020934
0.03018712
0.03009425
0.0299048
0.02962139
0.02927979
0.02895396
0.0291309
0.0298172
0.03071259
0.03152551
0.03206277
0.03224219
0.03210922
0.03176391
0.03138511
0.0311557
0.03109998
0.03106652
0.03093803
0.03069785
0.03035938
0.029921
0.02937329
0.02871605
0.02796776
0.02716546
0.02633603
0.02547166
0.0245666
0.02361623
0.02263199
0.02165437
0.0207361
0.01992018
0.01922817
0.01865855
0.01819856
0.01783277
0.01754501
0.01731847
0.01713804
0.01699348
0.01687807
0.01678819
0.01672128
0.01666949
0.01662556
0.0165822
0.01653431
0.01647886
0.01641449
0.01634161
0.01626202
0.01617828
0.01609327
0.01600998
0.01593141
0.01586043
0.01579984
0.01575228
0.01572017
0.01570551
0.01570982
0.0157342
0.01577936
0.01584568
0.0159332
0.01604158
0.01617021
0.0163182
0.0164844
0.01666747
0.01686589
0.01707806
0.01730233
0.01753705
0.01778067
0.0180318
0.01828917
0.01855183
0.01881908
0.01909028
0.01936478
0.01964196
0.01992107
0.02020123
0.02048008
0.02075224
0.02100761
0.02129694
0.02198875
0.1004385
0.09320512
0.0944686
0.09865859
0.1034217
0.1077919
0.1114773
0.1144725
0.1168922
0.1180036
0.1237815
0.131512
0.139354
0.1464614
0.152383
0.1571251
0.1608415
0.1636805
0.1861578
0.1859945
0.1856796
0.1848685
0.1837794
0.1825915
0.181431
0.1803625
0.1794019
0.1784939
0.1780648
0.1773604
0.1765236
0.1758122
0.1752966
0.1750677
0.1751992
0.1757018
0.1765434
0.1778434
0.1792485
0.1804587
0.1814903
0.1823031
0.1827628
0.1827184
0.1820102
0.1804955
0.1781291
0.1749244
0.1709961
0.1667329
0.1624166
0.1582692
0.1543673
0.1507423
0.1474987
0.1448092
0.1535451
0.1520616
0.1513524
0.1513243
0.151874
0.1529021
0.15429
0.1558758
0.1574931
0.158993
0.1602574
0.1611578
0.1615315
0.1612204
0.1601027
0.1581053
0.1553086
0.1519496
0.1483463
0.1445942
0.1407827
0.137327
0.1342745
0.1314563
0.1287869
0.1263517
0.1243286
0.1230785
0.1229378
0.1240763
0.1265768
0.1304126
0.13545
0.1414645
0.1481585
0.1551706
0.1620613
0.1682952
0.173305
0.1766455
0.1780384
0.1775517
0.1756892
0.1726177
0.1683885
0.1632663
0.1574451
0.1512595
0.1452121
0.1395473
0.134176
0.1290701
0.1242195
0.1196534
0.1154314
0.1116193
0.1082656
0.1053827
0.1029434
0.1008942
0.09917384
0.09772808
0.09650831
0.09546677
0.09457128
0.09380057
0.09310376
0.09240844
0.0916432
0.09064039
0.0891587
0.08723739
0.08528935
0.08368072
0.08247034
0.08160618
0.08106242
0.08084578
0.0809995
0.08158631
0.08265114
0.0841903
0.08611559
0.08819972
0.09007758
0.09137639
0.09187427
0.0915671
0.09062229
0.08936625
0.08812874
0.08715005
0.08661084
0.08665086
0.0873828
0.08890219
0.0912875
0.09458788
0.09880542
0.1038677
0.1096586
0.1160308
0.1228085
0.1297961
0.1367157
0.1432164
0.1489611
0.153676
0.1571567
0.1592182
0.1597268
0.1586857
0.156278
0.1528229
0.1486954
0.1442464
0.1397352
0.1352662
0.1308987
0.1266804
0.1226359
0.1187589
0.1150294
0.1114246
0.1079189
0.1044974
0.1011586
0.09789197
0.09464741
0.09135952
0.08789759
0.0840494
0.07983211
0.07569141
0.07185527
0.06844566
0.0655849
0.06339173
0.06192673
0.06113813
0.06087857
0.06097787
0.06122932
0.06144562
0.06139589
0.06096349
0.06001983
0.05866768
0.05740368
0.05487437
0.05221839
0.04965207
0.04729614
0.04518432
0.04329372
0.04160272
0.04010251
0.03878487
0.03763582
0.03664045
0.03577584
0.03501336
0.03433161
0.03372193
0.03319248
0.03276815
0.03248729
0.03239228
0.03251603
0.03286688
0.03341615
0.03409372
0.03479723
0.03541436
0.03585209
0.03605983
0.03603474
0.03580935
0.035433
0.03495687
0.03442616
0.03387599
0.0333281
0.03280565
0.03235539
0.03198251
0.03166708
0.03140179
0.03118233
0.03100481
0.03086568
0.03076132
0.03068802
0.03064206
0.03061984
0.03061806
0.03063364
0.03066366
0.03070527
0.030756
0.03081403
0.03087779
0.03094565
0.03101594
0.03108727
0.03115835
0.03122742
0.03129181
0.03134771
0.03139016
0.03141344
0.03141181
0.03138022
0.03131497
0.03121409
0.03107757
0.03090688
0.03070272
0.03216024
0.03189885
0.03162455
0.03133587
0.03103511
0.0307265
0.03041596
0.03010971
0.02981377
0.02953486
0.02928029
0.0290576
0.02887454
0.02873854
0.02865621
0.02863291
0.0286725
0.0287772
0.02894758
0.02918228
0.02947798
0.0298296
0.03023075
0.0306744
0.03115334
0.03166061
0.03219033
0.0327393
0.03330862
0.03390446
0.03453659
0.03521465
0.03594413
0.03672387
0.03754605
0.03839615
0.03925362
0.04009494
0.04089619
0.04163451
0.0422894
0.04284474
0.04329044
0.04362213
0.04383914
0.04394307
0.04391647
0.04374609
0.0434185
0.0429203
0.04224042
0.0413799
0.04037694
0.0393215
0.03828911
0.0373277
0.03643193
0.03556913
0.03472527
0.03390465
0.0331169
0.03237667
0.03171627
0.03117563
0.03077377
0.03050272
0.03034929
0.03030637
0.03037427
0.03055744
0.03084511
0.03120723
0.03162683
0.03207372
0.03250157
0.0328432
0.03301841
0.03295981
0.03264325
0.03209739
0.03138533
0.03057873
0.02974018
0.02891368
0.02813447
0.02743863
0.02684109
0.02634053
0.02592597
0.02558165
0.02529054
0.02503953
0.02481834
0.02461776
0.02443595
0.02427493
0.02412596
0.02397922
0.02382872
0.02367181
0.02350857
0.02334099
0.02317215
0.02300572
0.02284559
0.02269571
0.02256019
0.02244321
0.02234878
0.0222804
0.02224088
0.02223239
0.02225649
0.02231417
0.02240578
0.02253109
0.02268927
0.02287903
0.02309864
0.02334601
0.02361867
0.02391392
0.02422897
0.02455979
0.02490243
0.02525363
0.02561047
0.02597017
0.02633021
0.02668814
0.02704201
0.02739052
0.0277343
0.02806991
0.0283954
0.02870916
0.02903084
0.02941196
0.02980713
0.04955977
0.05398306
0.05911818
0.06469059
0.07075269
0.07744483
0.08512197
0.09441236
0.1063487
0.1222675
0.1856531
0.2018113
0.2171339
0.2306493
0.2432329
0.2556109
0.2678068
0.2799913
0.2950583
0.3647657
0.3754058
0.3823706
0.3874847
0.3909928
0.3933118
0.3946683
0.3950981
0.394645
0.3935926
0.3914709
0.389527
0.3878059
0.3861423
0.3843635
0.3823797
0.380173
0.3777513
0.3753587
0.3712723
0.3671859
0.3630446
0.3589271
0.3548659
0.3508448
0.3468389
0.3428323
0.3388257
0.3348718
0.3308654
0.326835
0.3228159
0.3188093
0.3148202
0.3108478
0.3068954
0.3030015
0.3160283
0.3121948
0.3083084
0.3043795
0.3003175
0.2960773
0.2916938
0.2872518
0.2828361
0.2784805
0.274228
0.270153
0.2662686
0.2626159
0.2592509
0.2562339
0.2536332
0.2515135
0.2499181
0.2488172
0.2481555
0.247852
0.2477391
0.2476413
0.2473914
0.2468093
0.2456918
0.2438453
0.2411762
0.2377507
0.2337567
0.2292301
0.2242862
0.2191391
0.2139571
0.2088923
0.2040142
0.1994536
0.1952994
0.1916323
0.1886561
0.1865683
0.1853416
0.1848945
0.1850985
0.185774
0.1867223
0.1877613
0.1887269
0.1894441
0.1897352
0.1894403
0.1884327
0.1866316
0.1840423
0.180722
0.1767875
0.1723798
0.1677012
0.163069
0.1586861
0.1546428
0.1510147
0.1479086
0.1454697
0.1438948
0.1435769
0.1447919
0.1476325
0.1520561
0.1578944
0.164877
0.1726448
0.1807743
0.1887761
0.1960306
0.2018516
0.2056736
0.2072252
0.2065849
0.2042107
0.2005375
0.1958486
0.1903662
0.1844262
0.1783599
0.1724608
0.1667733
0.1611861
0.1556377
0.1501341
0.1447129
0.1394436
0.1344186
0.1297416
0.1255051
0.1217739
0.1185827
0.1159415
0.1138375
0.1122272
0.1110387
0.1101878
0.1095773
0.1090992
0.1086648
0.108183
0.107504
0.1065156
0.1053065
0.1040397
0.1027733
0.1014663
0.1000653
0.09855034
0.09693904
0.09528604
0.0936892
0.09228945
0.09124677
0.09069402
0.09068024
0.09111921
0.09178091
0.09239075
0.09273918
0.09273093
0.09237588
0.09180298
0.09123624
0.09092367
0.09110699
0.0920022
0.09378961
0.0966097
0.1005521
0.1056335
0.111776
0.1188166
0.1265416
0.1347019
0.1430176
0.151114
0.1586228
0.165255
0.1707806
0.1749777
0.1775914
0.1784447
0.1775797
0.1752911
0.1720339
0.1682923
0.164469
0.1607332
0.1571079
0.1535683
0.1501529
0.146912
0.1437848
0.1406474
0.1374358
0.1341266
0.1307251
0.1272471
0.123674
0.119994
0.1162237
0.11227
0.10805
0.1037158
0.09941253
0.09510692
0.09074033
0.08634075
0.08200757
0.07788892
0.07413233
0.07085226
0.06811755
0.06593251
0.06424004
0.0629301
0.06184613
0.06084982
0.05981608
0.058797
0.05754903
0.05614928
0.05467527
0.05318167
0.05170931
0.05030409
0.04900491
0.04783395
0.04679149
0.04586608
0.04503888
0.04428948
0.04359788
0.04294069
0.04229842
0.04165879
0.04101942
0.04038988
0.03979201
0.0392584
0.03882833
0.03854067
0.03842364
0.03848385
0.03869899
0.03901922
0.03937809
0.03970715
0.03994919
0.04006715
0.04004681
0.03989381
0.03962844
0.03927902
0.0388746
0.03845686
0.03805962
0.03769847
0.03738635
0.03713137
0.03693721
0.03680415
0.03672985
0.03671011
0.03673955
0.03681218
0.03692184
0.03706237
0.03722779
0.03741255
0.03761208
0.03782275
0.03804146
0.03826528
0.03849134
0.03871692
0.03893885
0.03915318
0.03935447
0.03953572
0.03968907
0.03980686
0.03988248
0.03991116
0.03989032
0.03982027
0.03970305
0.03954358
0.03935086
0.03910985
0.03883915
0.03854573
0.03823616
0.03791665
0.03759256
0.03726909
0.03695206
0.03664814
0.0363654
0.03611322
0.0359018
0.03574151
0.03564197
0.03561123
0.0356553
0.03577795
0.03598061
0.03626219
0.03661896
0.03704466
0.03753115
0.03806926
0.03864956
0.03926301
0.03990159
0.04055982
0.04123719
0.04193991
0.04268032
0.04347295
0.04432783
0.04524502
0.04621365
0.04721432
0.04822052
0.04920243
0.05013195
0.05098462
0.05173945
0.05238001
0.05289692
0.05328896
0.0535607
0.053718
0.0537515
0.05363958
0.05336896
0.05292937
0.05231733
0.0515359
0.05060186
0.04955347
0.04844278
0.04730064
0.04612016
0.04488136
0.04357534
0.04221238
0.04081507
0.03941331
0.03804627
0.03675614
0.03557057
0.03449928
0.0335423
0.03269662
0.03196126
0.03134072
0.03084437
0.03048411
0.03027514
0.0302359
0.03038135
0.03071206
0.03119998
0.03176729
0.03232472
0.03282583
0.03322879
0.03350275
0.0336297
0.03360563
0.03344402
0.03317362
0.03283011
0.03244902
0.03205938
0.03168167
0.03132672
0.03099495
0.030689
0.03040977
0.03015232
0.02990827
0.02966832
0.02943486
0.02920877
0.02898184
0.02874991
0.02851185
0.0282688
0.02802332
0.02777885
0.02753932
0.02730906
0.02709293
0.02689622
0.02672419
0.02658161
0.02647239
0.02639959
0.02636559
0.02637213
0.02642016
0.0265098
0.02664045
0.02681078
0.02701893
0.02726249
0.02753881
0.02784381
0.02817211
0.02852023
0.02888509
0.02926329
0.0296513
0.03004562
0.03044284
0.03083964
0.03123265
0.03161809
0.03199111
0.03235253
0.03270274
0.03304611
0.03338596
0.03374196
0.03407286
0.03835346
0.04371364
0.04855621
0.07561654
0.1026114
0.1362814
0.1584772
0.1806403
0.2014502
0.2210109
0.2383614
0.2535297
0.2682935
0.2833024
0.2985031
0.313791
0.3288699
0.3438384
0.3588055
0.3736769
0.3883505
0.4026494
0.4163274
0.4292705
0.4411967
0.4523182
0.4627476
0.4722982
0.4807877
0.4880947
0.4943608
0.5185755
0.5200067
0.5201632
0.5193904
0.5178461
0.5156641
0.5129798
0.5099196
0.5066239
0.5032294
0.4997713
0.4963165
0.4929041
0.4895754
0.4863238
0.4831256
0.4799039
0.4764814
0.4725415
0.4681138
0.4633284
0.4582517
0.4529946
0.4476402
0.4422249
0.4367581
0.4312517
0.4257151
0.4201714
0.4146779
0.4092866
0.4040254
0.3988971
0.3938596
0.3888487
0.3838121
0.3787389
0.3735281
0.3685026
0.3636524
0.3588608
0.3539488
0.3487947
0.3434024
0.3378729
0.3323227
0.3268265
0.3214272
0.3161398
0.3109782
0.3059891
0.3012481
0.2968511
0.2929047
0.2895163
0.2867744
0.2847158
0.2833112
0.2824486
0.2819422
0.2816073
0.2812768
0.2807618
0.2798304
0.2782478
0.2758607
0.2726743
0.2685758
0.2636722
0.2582176
0.2524587
0.2465945
0.2407987
0.235185
0.2298978
0.2250397
0.2206999
0.2169641
0.2139366
0.2118187
0.2105967
0.2101565
0.2103195
0.2108808
0.2116457
0.2124276
0.2130391
0.2133027
0.2130634
0.2121996
0.2106316
0.2083385
0.2052276
0.2013832
0.1969301
0.1920454
0.1869732
0.1819748
0.1772731
0.1730541
0.1695027
0.1668246
0.1652631
0.1651345
0.1667845
0.170285
0.1755272
0.1822998
0.1903133
0.1992055
0.2085206
0.2176547
0.225823
0.2321865
0.2360794
0.2372378
0.235895
0.2326523
0.2281981
0.2229625
0.2171677
0.2111159
0.2050514
0.1991077
0.1932445
0.1873509
0.1813826
0.175357
0.169328
0.1633699
0.1575592
0.1520033
0.1468209
0.142115
0.13797
0.13445
0.1315981
0.1294212
0.1278729
0.1268566
0.126236
0.1258643
0.1256208
0.1253913
0.1250496
0.1245321
0.1238841
0.1231521
0.1222983
0.1212285
0.1198579
0.1181399
0.1160621
0.113644
0.1109451
0.1080744
0.1051838
0.1024458
0.1000184
0.09800869
0.09644108
0.09524863
0.09431485
0.09354677
0.09289274
0.0923809
0.0921576
0.09237637
0.09322045
0.09489351
0.09758573
0.1014507
0.1065848
0.1129946
0.1205651
0.1290649
0.1382111
0.1476597
0.1570274
0.1659093
0.1740406
0.1812503
0.1873673
0.192097
0.1950766
0.1960765
0.1952097
0.1929307
0.1898293
0.1864438
0.1831616
0.1800193
0.1769649
0.1739672
0.1711258
0.1685501
0.1661284
0.1635928
0.1607658
0.1576127
0.1541832
0.1505431
0.1467276
0.142762
0.1386557
0.1343585
0.1298906
0.1253806
0.1208557
0.1162195
0.111378
0.1063247
0.1011632
0.09603892
0.09108474
0.08640619
0.08208391
0.07818348
0.07474472
0.07177596
0.06923539
0.06706669
0.06516419
0.06347908
0.06194245
0.06050339
0.05913445
0.05783372
0.05661488
0.05549381
0.05448075
0.05357871
0.0527895
0.05210508
0.05150616
0.05096291
0.05044559
0.0499279
0.04938543
0.04879818
0.04815286
0.0474451
0.04668088
0.04587715
0.04506116
0.04426806
0.04353634
0.04290126
0.04238798
0.04200557
0.04174503
0.04158182
0.04148213
0.04140981
0.04133337
0.0412306
0.04109099
0.04091468
0.0407099
0.04048856
0.04027238
0.04009117
0.03995817
0.03988325
0.03987277
0.03992896
0.04005016
0.04023174
0.0404671
0.0407484
0.04106736
0.04141569
0.04178551
0.04217004
0.04256414
0.04296384
0.04336581
0.04376659
0.04416217
0.04454863
0.04492187
0.04527671
0.04560582
0.04590013
0.04615031
0.0463481
0.04648721
0.04656402
0.04657814
0.04653237
0.04643235
0.04628451
0.04609652
0.04587318
0.04562068
0.04534514
0.04505181
0.04474568
0.04443197
0.04411641
0.04380584
0.04350894
0.04323656
0.04300155
0.0428178
0.04269882
0.04265608
0.04269803
0.04282993
0.04305399
0.04336939
0.04377205
0.04425458
0.04480681
0.04541703
0.04607338
0.04676483
0.04748152
0.04821535
0.04896259
0.04972745
0.05052388
0.0513732
0.05229628
0.0533024
0.05438184
0.0555084
0.05664794
0.05775925
0.05880379
0.0597539
0.06058885
0.06129229
0.061854
0.06227362
0.06256129
0.062733
0.06280072
0.06274326
0.06254038
0.06217482
0.06164045
0.06094572
0.06011016
0.05915997
0.05812456
0.05702836
0.05587218
0.05463217
0.05328707
0.05183429
0.05028783
0.04867273
0.04702111
0.04537092
0.04375717
0.04220078
0.04071106
0.03929228
0.03794792
0.03668187
0.03549883
0.0344063
0.03341581
0.03254326
0.03180816
0.03123189
0.03083483
0.03063112
0.03062238
0.03079899
0.03114092
0.03161311
0.03215924
0.03270731
0.03323106
0.03370885
0.0341223
0.03445833
0.03470933
0.03487413
0.03495897
0.034976
0.03494042
0.03486571
0.03476107
0.0346317
0.03447913
0.03430182
0.0340953
0.0338564
0.03359752
0.03332582
0.03304189
0.03274809
0.03244751
0.0321434
0.03183917
0.03153853
0.03124764
0.03097346
0.03072266
0.03050121
0.0303141
0.03016556
0.03005911
0.02999751
0.02998262
0.03001526
0.03009532
0.03022183
0.03039306
0.03060677
0.03085847
0.03114371
0.03145946
0.03180212
0.03216774
0.03255216
0.03295107
0.03336014
0.03377511
0.03419186
0.03460638
0.03501493
0.03541373
0.0357988
0.03616915
0.03652967
0.03688341
0.03723154
0.03754863
0.01948351
0.02176999
0.02400386
0.03222035
0.04305069
0.06142705
0.07424722
0.0877997
0.1022972
0.116963
0.1321018
0.1486706
0.1663638
0.1844621
0.2032903
0.2243909
0.2571001
0.2725533
0.2883339
0.304359
0.3209197
0.3374359
0.3534154
0.3689212
0.3836561
0.3980235
0.4121673
0.4261104
0.4398377
0.4532683
0.466277
0.4787321
0.4905017
0.5013282
0.5111086
0.5195121
0.526049
0.5312592
0.5346237
0.5362711
0.5368047
0.5359185
0.5318326
0.5277202
0.5234297
0.518918
0.5143023
0.5097413
0.5053711
0.5013077
0.4976616
0.4945042
0.4918734
0.4897425
0.4880583
0.4867187
0.4856199
0.4846415
0.4836574
0.4824963
0.4807372
0.478424
0.4756831
0.472624
0.4693667
0.4659893
0.4625026
0.4588769
0.4550766
0.4510834
0.4469104
0.4426254
0.4383241
0.434087
0.4299262
0.4257801
0.4215228
0.4170903
0.4124883
0.407863
0.4033579
0.3989996
0.3946493
0.3900518
0.3850042
0.3794951
0.3737142
0.3678211
0.3619297
0.3560747
0.3502438
0.3444373
0.3387061
0.3331729
0.3279734
0.3232571
0.3191861
0.3159054
0.3134904
0.3119136
0.3110311
0.3106155
0.3104576
0.3103689
0.3101233
0.3094685
0.3081539
0.3060391
0.3029545
0.2987201
0.2935063
0.2875854
0.2812441
0.2747276
0.2682386
0.2619337
0.2559615
0.2504561
0.2455426
0.2413361
0.2379278
0.2353906
0.2338374
0.2331506
0.2331346
0.2335732
0.2342615
0.2350016
0.2356019
0.2358904
0.2357281
0.2350196
0.2336874
0.2315348
0.2285166
0.2246728
0.2201121
0.215026
0.2096848
0.2043857
0.1994112
0.1950198
0.191463
0.1890035
0.1879263
0.1885396
0.1911538
0.1957834
0.2022675
0.2103457
0.2197067
0.2299836
0.2406237
0.2507987
0.2595134
0.2657891
0.2689738
0.2690197
0.2664886
0.2622915
0.2573835
0.2520369
0.246406
0.2405648
0.2345431
0.2283343
0.2218974
0.2152354
0.2083823
0.2014216
0.1944617
0.1876283
0.1810326
0.1747714
0.1689426
0.1636309
0.1588987
0.1547985
0.1513882
0.1487377
0.1468556
0.1456654
0.1450217
0.1447583
0.144727
0.1447902
0.1448214
0.1447533
0.1445761
0.1442573
0.1437022
0.1427902
0.1414256
0.1395552
0.1371633
0.1342646
0.1309058
0.1271737
0.1232003
0.1191541
0.1152089
0.1115142
0.1081966
0.1053391
0.102959
0.1010396
0.09957644
0.09859471
0.09819652
0.09859655
0.09992946
0.1023484
0.105998
0.1109885
0.1173677
0.1250766
0.1339205
0.1435912
0.1537691
0.1640556
0.1739984
0.1832538
0.1916799
0.199237
0.2057516
0.2108168
0.2139378
0.2148622
0.2138518
0.2115798
0.2087477
0.2058506
0.2030127
0.2001884
0.1974072
0.1947461
0.1923189
0.1901712
0.1881436
0.1859013
0.1831632
0.1798799
0.1761598
0.1721561
0.1679716
0.1636218
0.1590955
0.1544062
0.1496097
0.1447852
0.1399361
0.1349661
0.1297603
0.1243043
0.118754
0.1132793
0.1079491
0.1027632
0.09774991
0.09299648
0.08858775
0.08457623
0.08097948
0.07778927
0.07496901
0.07248648
0.07029929
0.0683638
0.0666461
0.06512542
0.0637905
0.06263373
0.06164674
0.06081723
0.06012719
0.05955267
0.0590643
0.0586291
0.05821311
0.05778343
0.05730986
0.05676681
0.05613512
0.05540372
0.05457061
0.05364342
0.05263915
0.05158309
0.05050679
0.04944509
0.04843233
0.04749838
0.04666552
0.04594482
0.04533598
0.04483012
0.04441327
0.04406998
0.04378659
0.04355346
0.04336576
0.04322208
0.04312238
0.04307576
0.04311219
0.04323411
0.04343957
0.0437243
0.04408122
0.04450088
0.04497256
0.045485
0.04602718
0.04658887
0.0471613
0.0477376
0.04831301
0.04888431
0.04944866
0.05000249
0.05054133
0.05106061
0.0515556
0.05201954
0.05244261
0.05281341
0.05312144
0.05335871
0.05352031
0.05360483
0.05361496
0.05355733
0.05344147
0.05327713
0.0530726
0.05283414
0.05256755
0.05227902
0.05197514
0.05166179
0.05134367
0.0510253
0.05071302
0.05041681
0.05015087
0.04993277
0.04978135
0.04971372
0.04974247
0.04987466
0.05011289
0.05045617
0.05089995
0.05143572
0.05205096
0.05273024
0.05345769
0.05421925
0.05500349
0.05580105
0.05660482
0.05741366
0.05823813
0.05910151
0.06003661
0.06107366
0.06221999
0.06345087
0.06471723
0.06596185
0.06712859
0.06817719
0.06908685
0.06984479
0.07044176
0.07087518
0.0711547
0.07130309
0.07135046
0.07130974
0.07115689
0.07086193
0.07040094
0.06977094
0.06899275
0.06810296
0.0671348
0.0661097
0.06502982
0.0638751
0.06261664
0.0612377
0.05973984
0.05813665
0.05644902
0.05470455
0.05293407
0.05116297
0.04940983
0.04768653
0.04600151
0.04436091
0.0427689
0.04122974
0.03974942
0.03833529
0.03699622
0.03574443
0.03459648
0.03357247
0.03269425
0.03198205
0.03145122
0.0311099
0.03095792
0.03098593
0.03117775
0.03151491
0.0319726
0.03251748
0.03309965
0.03368004
0.03424316
0.03477369
0.03525911
0.03569063
0.03606221
0.03636886
0.03660819
0.03677999
0.03688566
0.03692726
0.03690671
0.03682386
0.03668304
0.03649503
0.03626996
0.03601447
0.03573497
0.0354373
0.03512633
0.03481162
0.03450328
0.03421023
0.03393966
0.03369705
0.03348831
0.0333191
0.03319392
0.0331161
0.03308781
0.03310998
0.03318267
0.03330484
0.03347258
0.0336831
0.03393408
0.03422234
0.03454408
0.03489493
0.03527023
0.03566507
0.0360745
0.03649359
0.03691758
0.03734195
0.03776257
0.03817575
0.03857822
0.03896696
0.03934029
0.03970423
0.04005192
0.04036314
0.00810743
0.009509775
0.01059282
0.015811
0.02187474
0.02989623
0.03656152
0.04412237
0.05231905
0.0610442
0.07059275
0.08179284
0.09401913
0.1076018
0.1237735
0.1486778
0.161875
0.1757164
0.1897615
0.2039745
0.2183021
0.2326559
0.2468994
0.2609465
0.2746808
0.2880076
0.301081
0.3152339
0.3296535
0.3444728
0.359788
0.3751967
0.3902513
0.4045008
0.4183285
0.4317384
0.4447652
0.4573747
0.4694913
0.4809812
0.4916428
0.501338
0.5098925
0.5166356
0.5215171
0.5244172
0.5250529
0.5237319
0.5205958
0.5159317
0.5100538
0.5033693
0.4960258
0.4885687
0.4812439
0.4742388
0.4677748
0.4620766
0.4573079
0.4536117
0.4510669
0.4496987
0.4494736
0.4502763
0.451952
0.4542945
0.4571008
0.4601088
0.4627562
0.4649351
0.4666931
0.4680189
0.4689278
0.4694719
0.4697468
0.4697936
0.4695636
0.4689718
0.4679498
0.466456
0.4645113
0.4622244
0.4597606
0.4572566
0.4547247
0.4520444
0.449019
0.4455274
0.4416556
0.4376642
0.4337732
0.4299939
0.4261035
0.4217652
0.416815
0.4112968
0.4052739
0.3990364
0.3928112
0.3866589
0.3805408
0.3744246
0.3683275
0.3623181
0.3565956
0.3514929
0.3472403
0.3440141
0.3419003
0.3408445
0.3406331
0.3409568
0.3415427
0.3420917
0.3422576
0.3417423
0.3403942
0.3382667
0.3349683
0.3303503
0.3245203
0.3177804
0.3105069
0.303044
0.2956671
0.2885819
0.2819541
0.2759255
0.2706235
0.2661647
0.2626437
0.2601176
0.2586241
0.2580573
0.2581825
0.2587606
0.2595622
0.2603737
0.2610129
0.2613389
0.2612947
0.2606965
0.2593035
0.2570079
0.2537566
0.2495723
0.2445718
0.2389833
0.2331497
0.227447
0.2222314
0.2178374
0.2145825
0.2127795
0.2127397
0.2147562
0.2190464
0.2254796
0.2337836
0.2435994
0.2545591
0.2662148
0.2778326
0.28834
0.2965586
0.3015965
0.3031253
0.3014703
0.2975855
0.2928478
0.2884354
0.2841935
0.2797283
0.2746388
0.2686944
0.2618797
0.2543267
0.2462379
0.237855
0.2294321
0.2211816
0.2132713
0.2058556
0.1990231
0.1928132
0.1872456
0.1823031
0.1779616
0.1742537
0.1712922
0.1691704
0.1678677
0.1672555
0.1671616
0.1674148
0.1678452
0.1682974
0.1686607
0.1688542
0.1687743
0.1682849
0.1672544
0.1655927
0.1632641
0.160283
0.1566939
0.1525606
0.1479856
0.143108
0.1381087
0.1331729
0.1284581
0.1241087
0.120269
0.1170239
0.1143983
0.1124314
0.1111822
0.1107209
0.111257
0.1129606
0.1159577
0.1203608
0.126243
0.1336013
0.1422841
0.1520314
0.1625512
0.173464
0.1842297
0.1942979
0.2034454
0.2117908
0.21948
0.2262945
0.2316024
0.234724
0.2354312
0.2342309
0.2320368
0.2296
0.2272534
0.224776
0.2222312
0.2197391
0.217362
0.2151299
0.2130225
0.2108896
0.2084256
0.2053362
0.2015432
0.1972066
0.1925851
0.1878449
0.1829976
0.1780128
0.172901
0.1676881
0.162415
0.1570984
0.1516698
0.1460399
0.140244
0.1344762
0.1288897
0.1234836
0.1181744
0.1129237
0.1078027
0.1029164
0.09834228
0.0941266
0.09029516
0.08684887
0.08377723
0.08105709
0.07865873
0.07655561
0.07472763
0.07315856
0.0718324
0.07073024
0.06982814
0.06909647
0.06850024
0.0680006
0.06755698
0.0671293
0.06667991
0.06617542
0.06558848
0.0648991
0.06409553
0.06317436
0.06214012
0.06100505
0.05978838
0.05851535
0.05721629
0.05592443
0.05467334
0.05349393
0.05241135
0.05144361
0.05060137
0.04988858
0.04930393
0.04884266
0.04849792
0.04826193
0.04812681
0.04808515
0.04812893
0.04825596
0.04849744
0.04884628
0.04928919
0.04981146
0.05039753
0.05103188
0.05169984
0.05238821
0.05308577
0.05378395
0.05447726
0.05516301
0.05583987
0.05650546
0.05715512
0.0577827
0.05838193
0.05894592
0.05946526
0.05992693
0.06031777
0.06062792
0.06085136
0.06098566
0.06103233
0.06099756
0.06089228
0.06073025
0.06052383
0.06028117
0.06000755
0.05970905
0.05939372
0.0590694
0.05874102
0.05841035
0.05807899
0.05775254
0.05744361
0.05717226
0.05696383
0.05684451
0.05683571
0.05694972
0.05718875
0.05755016
0.05802844
0.05861438
0.05929384
0.06004748
0.06085289
0.06168933
0.06254173
0.0634007
0.06425967
0.06511329
0.06596329
0.06682845
0.06774801
0.06877285
0.06994253
0.0712574
0.07266735
0.07408901
0.07543184
0.07662616
0.07763965
0.07846623
0.07910666
0.07956038
0.07983185
0.07994034
0.07992153
0.07982133
0.07965014
0.07938652
0.07898498
0.07840939
0.07765423
0.07674896
0.07575114
0.07471882
0.07367304
0.07258977
0.07142742
0.07015111
0.06874633
0.06722326
0.06559583
0.06387912
0.06209307
0.06026014
0.05840142
0.05653436
0.05467234
0.05282603
0.05100319
0.04921005
0.0474527
0.04573596
0.04406314
0.04243703
0.0408628
0.03934976
0.03791123
0.03656355
0.03532464
0.0342134
0.03324865
0.03244709
0.03182132
0.03137866
0.03112001
0.03103938
0.03112379
0.03135336
0.03170664
0.03216179
0.03269407
0.03327631
0.03387553
0.03446013
0.03502105
0.0355492
0.03603661
0.03647658
0.03686356
0.03719274
0.03745831
0.03765564
0.03778154
0.03783439
0.03781866
0.03774199
0.03761364
0.03744398
0.0372431
0.03702155
0.03678998
0.03655819
0.03633351
0.03612557
0.03594395
0.03579562
0.03568599
0.03562026
0.03560138
0.03562998
0.03570564
0.03582874
0.03599859
0.03621333
0.0364701
0.0367652
0.03709429
0.03745252
0.03783477
0.03823575
0.03865014
0.03907278
0.03949876
0.03992357
0.04034323
0.0407543
0.04115422
0.04153978
0.0419108
0.04225968
0.04256916
0.001902437
0.007397305
0.0110855
0.01543193
0.02036916
0.02609721
0.03271001
0.04004897
0.04830825
0.05825856
0.07321171
0.08227893
0.09208385
0.1023727
0.1131685
0.1244082
0.1360241
0.1479078
0.1599094
0.1719142
0.1839247
0.1973755
0.210992
0.2246228
0.2381696
0.251579
0.2647933
0.2777653
0.2905251
0.3030251
0.3152784
0.327559
0.340171
0.3529442
0.3659452
0.3790968
0.3921154
0.4046423
0.4168334
0.4287506
0.4404127
0.4517527
0.462674
0.4730354
0.482563
0.4908963
0.4975919
0.502311
0.5045732
0.5044968
0.5020748
0.4973766
0.4907437
0.4825539
0.4732331
0.4632023
0.4528962
0.4427063
0.4330053
0.424138
0.416389
0.4100303
0.4053023
0.4023827
0.4014015
0.4023773
0.4052636
0.4099004
0.416046
0.4233882
0.4312094
0.4391617
0.4471964
0.4550562
0.4625285
0.4694753
0.4757906
0.4813725
0.486273
0.490646
0.4945424
0.4978621
0.5004208
0.5020739
0.5027962
0.5027462
0.5022222
0.5015264
0.5007816
0.4998104
0.4982559
0.495802
0.4924387