/*--------------------------------*- C++ -*----------------------------------*\
| =========                 |                                                 |
| \\      /  F ield         | foam-extend: Open Source CFD                    |
|  \\    /   O peration     | Version:     3.1                                |
|   \\  /    A nd           | Web:         http://www.extend-project.de       |
|    \\/     M anipulation  |                                                 |
\*---------------------------------------------------------------------------*/
FoamFile
{
    version     2.0;
    format      ascii;
    class       volScalarField;
    location    "16";
    object      p;
}
// * * * * * * * * * * * * * * * * * * * * * * * * * * * * * * * * * * * * * //

dimensions      [1 -1 -2 0 0 0 0];

internalField   nonuniform List<scalar> 
119952
(
6705.526
6242.213
6184.072
6274.287
6369.74
6335.82
6338.137
6339.115
6341.23
6342.164
6341.634
6339.133
6334.08
6326.001
6314.333
6298.399
6277.383
6250.498
6208.716
6107.057
6336.513
6138.912
6031.766
6338.616
6261.35
6283.213
6286.384
6356.325
6573.762
6872.113
4168.94
4202.065
4273.494
4343.923
4410.268
4475.288
4539.821
4604.926
4669.563
4706.727
4762.628
4821.918
4874.312
4922.744
4967.363
5008.975
5048.054
5085.131
5118.059
5156.067
5164.037
5188.607
5216.566
5247.811
5280.272
5315.03
5352.454
5392.184
5438.225
5477.694
5524.114
5575.914
5627.163
5678.79
5728.453
5774.791
5820.135
5883.146
5973.729
5941.329
5957.815
6009.853
6045.423
6057.19
6058.295
6061.839
6063.863
6064.335
6063.132
6059.563
6053.061
6043.173
6029.412
6011.286
5988.306
5959.978
5926.814
5893.991
5873.071
5856.33
5828.563
5867.144
5950.416
5954.226
5957.919
5959.381
5902.613
5726.351
5695.286
5729.996
5745.8
5761.324
5775.449
5787.634
5799.279
5811.324
5824.71
5840.324
5858.815
5880.604
5905.849
5934.537
5966.496
6001.342
6038.434
6077.038
6116.526
6156.059
6194.224
6228.247
6248.982
6250.929
6256.263
6284.588
6315.044
6339.325
6358.277
6373.167
6384.683
6392.939
6397.741
6399.652
6400.033
6400.336
6401.489
6403.757
6407.004
6411.077
6415.677
6420.864
6426.218
6431.273
6435.497
6438.35
6439.345
6438.092
6434.733
6427.519
6416.646
6403.335
6385.495
6361.751
6333.331
6299.88
6261.344
6217.53
6168.607
6115.43
6059.506
6002.872
5948.17
5898.641
5855.854
5823.233
5803.089
5795.891
5799.792
5813.197
5833.808
5859.217
5887.717
5918.412
5950.403
5982.528
6014.085
6044.891
6074.938
6104.954
6136.182
6168.431
6202.241
6230.021
6207.923
6194.292
6222.208
6253.925
6282.996
6306.652
6322.915
6334.548
6344.693
6354.934
6366.262
6378.996
6392.941
6407.459
6423.701
6473.351
6483.674
6496.509
6508.45
6519.431
6529.233
6537.937
6545.544
6552.383
6558.612
6564.463
6569.863
6574.72
6578.906
6582.274
6584.735
6586.297
6587.051
6587.165
6586.898
6586.443
6585.854
6585.112
6584.223
6583.191
6582.006
6580.666
6579.165
6577.512
6575.712
6573.753
6571.597
6569.056
6565.816
6561.01
6554.971
6560.983
6565.454
6567.803
6569.992
6571.349
6572.349
6572.877
6573.046
6572.866
6572.367
6571.587
6570.564
6569.339
6567.953
6566.451
6564.873
6563.26
6561.647
6560.067
6558.549
6557.121
6555.808
6554.63
6553.602
6552.738
6552.042
6551.525
6551.196
6551.055
6551.116
6551.412
6551.977
6553.05
6553.53
6539.086
6537.151
6528.147
6529.364
6532.776
6534.874
6537.164
6540.23
6543.588
6546.985
6550.59
6554.284
6557.984
6561.652
6565.189
6568.517
6571.556
6574.23
6576.476
6578.238
6579.476
6580.161
6580.281
6579.847
6578.876
6577.397
6575.456
6573.111
6570.43
6567.476
6564.347
6561.104
6557.808
6554.505
6551.219
6547.981
6544.838
6541.844
6539.073
6536.612
6534.566
6533.039
6532.206
6532.253
6533.097
6534.133
6534.197
6534.383
6536.201
6539.746
6544.077
6548.466
6550.749
6549.63
6548.286
6542.567
6548.968
6556.69
6564.007
6569.833
6573.353
6574.81
6574.834
6575.239
6577.541
6581.115
6584.446
6587.306
6589.636
6591.276
6592.025
6591.833
6590.683
6588.81
6586.765
6585.139
6584.199
6583.791
6583.525
6583.063
6582.306
6581.166
6579.723
6578.03
6576.128
6574.035
6571.803
6569.492
6567.177
6564.944
6562.876
6561.042
6559.468
6558.182
6557.206
6556.558
6556.21
6556.106
6556.208
6556.47
6556.839
6557.261
6557.687
6558.073
6558.38
6558.575
6558.629
6558.518
6558.227
6557.747
6557.072
6556.198
6555.125
6553.854
6552.389
6550.732
6548.89
6546.867
6544.671
6542.31
6539.789
6537.116
6534.301
6531.352
6528.277
6525.083
6521.779
6518.366
6514.845
6511.21
6507.448
6503.526
6499.387
6494.919
6489.912
6484.112
6478.193
6478.704
6500.72
3818.088
3713.441
3597.069
3490.983
3396.375
3312.389
3238.52
3174.701
3123.964
3033.039
2999.761
2968.045
2939.725
2919.455
2905.533
2898.566
2896.087
2898.778
2888.51
2918.428
2921.948
2941.854
2972.689
3008.692
3049.873
3096.089
3147.897
3204.306
3261.394
3318.071
3387.293
3456.3
3526.816
3598.487
3670.297
3742.072
3814.376
3890.249
3944.312
4005.495
4070.125
4133.355
4195.203
4256.763
4318.593
4380.148
4439.266
4497.829
4558.053
4613.14
4663.237
4709.739
4752.616
4791.984
4828.47
4863.095
4844.794
4877.397
4899.741
4923.926
4952.018
4982.625
5015.437
5051.235
5090.155
5131.604
5176.591
5224.14
5272.792
5322.523
5372.868
5423.182
5473.143
5522.394
5572.407
5617.68
5650.438
5676.561
5705.087
5731.609
5749.394
5759.083
5763.891
5765.562
5765.022
5762.036
5755.926
5746.204
5732.535
5714.715
5692.5
5665.909
5635.819
5604.087
5573.757
5548.564
5530.9
5524.82
5535.603
5556.834
5570.758
5569.795
5553.189
5521.175
5474.291
5445.525
5447.096
5455.92
5465.668
5475.664
5485.805
5496.696
5508.708
5522.318
5537.926
5556.358
5578.114
5603.53
5632.816
5665.775
5701.825
5740.181
5779.643
5818.797
5856.465
5891.384
5919.466
5941.843
5958.494
5976.944
5998.239
6021.019
6041.589
6058.827
6073.191
6084.894
6093.849
6099.944
6103.496
6105.262
6105.98
6106.223
6106.616
6107.646
6109.811
6112.951
6116.694
6120.636
6124.2
6126.781
6127.785
6126.693
6123.089
6116.661
6107.04
6093.418
6075.214
6052.312
6024.035
5990.479
5952.445
5909.787
5861.997
5809.524
5753.765
5696.46
5639.95
5587.046
5541.069
5505.111
5480.987
5469.306
5470.201
5481.882
5502.441
5528.667
5559.195
5592.008
5626.216
5659.064
5690.609
5721.361
5751.115
5780.035
5807.84
5835.304
5861.399
5881.38
5898.504
5905.658
5908.916
5930.8
5955.5
5978.142
6000.198
6018.51
6033.068
6046.553
6059.667
6072.75
6086.303
6100.212
6115.239
6127.937
6205.173
6214.694
6223.23
6234.031
6244.162
6253.373
6261.794
6269.342
6276.142
6282.388
6288.089
6293.314
6297.942
6301.916
6305.212
6307.794
6309.683
6310.953
6311.717
6312.105
6312.2
6312.016
6311.532
6310.745
6309.673
6308.361
6306.855
6305.188
6303.375
6301.417
6299.298
6296.982
6294.418
6291.618
6288.935
6287.428
6288.497
6290.984
6292.684
6293.995
6294.989
6295.557
6295.776
6295.659
6295.231
6294.516
6293.549
6292.363
6290.999
6289.498
6287.9
6286.248
6284.577
6282.921
6281.308
6279.766
6278.321
6277
6275.817
6274.785
6273.915
6273.217
6272.702
6272.38
6272.267
6272.383
6272.77
6273.466
6274.571
6276.238
6215.362
6218.828
6221.901
6223.319
6224.532
6226.545
6229.389
6232.757
6236.377
6240.118
6243.934
6247.827
6251.744
6255.586
6259.248
6262.644
6265.693
6268.322
6270.467
6272.076
6273.112
6273.56
6273.432
6272.743
6271.513
6269.79
6267.636
6265.122
6262.34
6259.376
6256.294
6253.128
6249.898
6246.623
6243.267
6239.917
6236.626
6233.444
6230.477
6227.844
6225.659
6224.033
6223.018
6222.644
6222.782
6223.26
6223.928
6224.953
6226.574
6228.982
6231.872
6234.591
6236.965
6238.597
6239.907
6242.708
6246.166
6250.619
6255.852
6260.56
6263.995
6266.299
6268.029
6270.065
6272.598
6275.539
6278.382
6280.911
6282.953
6284.339
6285.021
6284.934
6284.163
6283.003
6281.864
6281.099
6280.723
6280.307
6279.486
6278.325
6276.913
6275.424
6273.794
6271.988
6269.999
6267.838
6265.538
6263.142
6260.734
6258.426
6256.308
6254.411
6252.776
6251.466
6250.457
6249.817
6249.499
6249.358
6249.455
6249.726
6250.102
6250.526
6250.951
6251.333
6251.638
6251.83
6251.878
6251.759
6251.461
6250.975
6250.297
6249.421
6248.348
6247.079
6245.616
6243.964
6242.125
6240.106
6237.914
6235.555
6233.04
6230.368
6227.555
6224.605
6221.528
6218.334
6215.028
6211.619
6208.109
6204.5
6200.793
6196.977
6193.076
6189.101
6185.256
6181.939
6180.046
6179.95
6181.391
3202.386
3276.401
3368.692
3474.491
3593.19
3724.886
3868.234
4022.283
4184.978
4352.027
4509.789
4687.04
4863.491
5036.263
5202.212
5358.262
5500.169
5622.424
5718.959
5763.442
5805.228
5817.532
5799.643
5752.258
5677.192
5576.653
5453.643
5312.284
5159.763
4990.029
4816.925
4638.283
4459.869
4284.436
4114.46
3951.849
3798.55
3655.935
3512.821
3387.543
3271.374
3166.497
3072.599
2988.985
2915.375
2851.239
2796.717
2748.709
2706.542
2674.995
2649.659
2630.696
2618.497
2612.523
2612.809
2623.611
2563.667
2579.024
2601.98
2630.596
2663.936
2702.093
2745.356
2793.819
2847.108
2904.614
2966.878
3032.972
3100.713
3170.372
3241.967
3314.583
3387.369
3459.333
3529.399
3596.657
3661.098
3722.57
3781.609
3839.64
3897.763
3956.387
4015.801
4076.098
4137.278
4198.715
4258.722
4317.201
4371.364
4421.557
4467.131
4508.348
4545.023
4578.928
4611.912
4637.957
4662.294
4683.48
4708.697
4736.647
4767.132
4800.881
4838.236
4878.823
4922.242
4968.187
5016.504
5066.57
5117.644
5169.023
5220.258
5268.72
5316.394
5362.399
5401.941
5433.755
5462.618
5489.543
5510.547
5523.596
5530.642
5533.284
5532.632
5528.277
5520.115
5507.699
5490.632
5468.968
5442.792
5412.394
5378.8
5343.917
5310.174
5280.863
5259.466
5247.933
5248.209
5259.595
5271.13
5274.822
5269.776
5255.654
5231.878
5215.118
5213.565
5218.463
5225.437
5233.15
5241.576
5251.028
5261.581
5273.558
5287.602
5304.654
5325.329
5350.095
5379.458
5413.355
5451.033
5491.345
5532.789
5573.573
5612.158
5647.397
5678.131
5703.497
5723.188
5742.076
5762.567
5783.103
5801.361
5817.035
5830.648
5842.489
5852.467
5860.127
5865.301
5868.483
5870.261
5871.165
5872.156
5873.362
5875.274
5877.632
5880.438
5883.146
5885.336
5886.453
5885.907
5883.146
5877.693
5869.223
5857.334
5841.384
5820.412
5794.201
5762.456
5725.427
5684.767
5639.568
5588.875
5533.647
5475.395
5415.783
5357.201
5303.07
5257.394
5223.467
5203.062
5196.305
5202.137
5218.697
5245.835
5280.38
5317.485
5352.833
5387.652
5420.411
5451.996
5482.325
5511.018
5538.286
5564.375
5588.86
5610.868
5630.469
5647.453
5657.983
5668.662
5687.004
5708.846
5731.221
5752.951
5773.24
5791.191
5807.243
5821.88
5835.605
5849.049
5862.074
5874.71
5885.348
5896.586
5911.378
5924.419
5934.54
5943.104
5951.272
5958.975
5965.992
5972.23
5977.825
5982.881
5987.303
5991.271
5994.654
5997.436
5999.646
6001.334
6002.57
6003.445
6004.044
6004.426
6004.616
6004.617
6004.418
6004.006
6003.369
6002.491
6001.357
5999.966
5998.303
5996.403
5994.327
5992.18
5990.144
5988.49
5987.634
5987.707
5988.48
5989.286
5989.902
5990.206
5990.192
5989.883
5989.292
5988.43
5987.318
5985.986
5984.473
5982.817
5981.053
5979.224
5977.376
5975.545
5973.752
5972.018
5970.357
5968.815
5967.419
5966.18
5965.106
5964.196
5963.454
5962.893
5962.534
5962.399
5962.515
5962.915
5963.634
5964.698
5966.061
5967.332
5968.557
5969.883
5971.748
5974.326
5977.493
5981.057
5984.891
5988.913
5993.046
5997.251
6001.51
6005.759
6009.9
6013.824
6017.437
6020.658
6023.41
6025.622
6027.243
6028.238
6028.599
6028.353
6027.53
6026.157
6024.295
6022.024
6019.428
6016.603
6013.632
6010.567
6007.422
6004.217
6001.033
5997.49
5993.842
5990.328
5986.897
5983.64
5980.729
5978.313
5976.46
5975.21
5974.578
5974.535
5974.797
5975.464
5976.437
5977.824
5979.72
5982.078
5984.683
5987.396
5990.129
5992.672
5995.689
5999.605
6004.297
6009.274
6013.773
6017.458
6020.357
6022.629
6024.78
6027.158
6029.668
6032.004
6034.132
6035.952
6037.314
6038.172
6038.562
6038.498
6037.983
6037.148
6036.228
6035.431
6034.871
6034.397
6033.826
6033.154
6032.182
6030.677
6028.692
6026.432
6024.058
6021.597
6019.055
6016.494
6014.013
6011.722
6009.688
6007.939
6006.52
6005.451
6004.756
6004.596
6004.276
6004.356
6004.627
6005.004
6005.428
6005.855
6006.246
6006.566
6006.775
6006.836
6006.728
6006.44
6005.968
6005.307
6004.453
6003.404
6002.161
6000.729
5999.108
5997.303
5995.319
5993.16
5990.838
5988.37
5985.717
5982.924
5979.999
5976.946
5973.777
5970.501
5967.129
5963.672
5960.14
5956.55
5952.925
5949.306
5945.783
5942.496
5939.677
5937.587
5936.659
5936.578
2764.513
2756.437
2748.108
2728.484
2724.226
2701.183
2718.935
2750.662
2794.505
2824.318
2843.459
2879.249
2933.59
3004.544
3090.263
3189.488
3300.894
3423.177
3556.738
3700.177
3852.647
4012.655
4177.777
4346.477
4515.361
4680.895
4840.534
4990.113
5125.388
5243.551
5342.508
5368.578
5411.222
5420.249
5395.195
5340.672
5259.27
5153.249
5025.83
4881.18
4723.419
4555.714
4381.572
4204.557
4028.314
3855.8
3689.63
3531.602
3382.985
3243.751
3113.807
2994.235
2885.058
2786.451
2698.549
2621.064
2553.345
2494.515
2443.638
2400.219
2364.062
2334.943
2312.88
2297.62
2288.437
2284.756
2285.652
2291.844
2302.823
2319.476
2341.382
2368.388
2401.414
2440.187
2484.384
2534.011
2589.025
2649.262
2713.738
2781.366
2851.894
2924.842
2999.57
3075.079
3150.078
3223.276
3293.675
3360.626
3423.137
3481.146
3536.162
3590.225
3644.637
3700.178
3757.78
3817.949
3880.091
3943.565
4007.399
4070.051
4129.338
4183.983
4233.318
4277.013
4315.492
4348.156
4376.105
4400.029
4420.056
4442.864
4465.443
4490.064
4517.656
4548.871
4584.029
4622.866
4665.1
4710.691
4759.287
4810.006
4861.714
4913.379
4963.743
5014.876
5063.763
5110.224
5152.279
5188.927
5221.545
5250.586
5274.209
5291.028
5301.475
5306.41
5306.414
5301.368
5291.206
5275.943
5255.577
5230.08
5199.489
5164.281
5125.597
5085.412
5045.83
5009.583
4980.158
4961.429
4955.805
4962.663
4975.662
4987.266
4993.001
4991.532
4983.3
4976.523
4975.203
4977.738
4982.332
4988.031
4994.537
5001.716
5010.024
5019.631
5031.018
5045.398
5063.905
5087.566
5117.003
5152.256
5192.545
5236.383
5281.744
5326.368
5368.368
5406.363
5439.254
5466.51
5489.053
5509.459
5528.827
5546.74
5562.652
5576.598
5588.87
5599.671
5609.156
5617.273
5623.935
5629.354
5633.609
5637.062
5640.201
5642.991
5646.096
5648.845
5651.211
5652.978
5653.9
5653.448
5651.083
5646.295
5638.674
5627.861
5613.313
5594.867
5571.445
5542.134
5507.96
5469.781
5426.664
5378.028
5323.742
5265.207
5203.519
5139.961
5077.163
5019.303
4971.449
4937.571
4919.327
4915.943
4927.074
4952.766
4988.637
5030.847
5074.713
5113.103
5146.174
5178.364
5210.618
5240.99
5269.111
5295.266
5319.669
5342.116
5362.469
5381.579
5398.499
5411.634
5425.055
5441.191
5460.002
5481.658
5503.597
5525.345
5546.506
5565.88
5582.837
5598.046
5612.006
5625.239
5637.688
5649.864
5662.197
5674.067
5684.81
5694.119
5702.421
5710.153
5717.247
5723.621
5729.228
5734.247
5738.698
5742.567
5745.978
5748.859
5751.219
5753.111
5754.593
5755.735
5756.623
5757.342
5757.956
5758.494
5758.949
5759.292
5759.484
5759.484
5759.238
5758.713
5757.965
5756.88
5755.521
5753.968
5752.324
5750.716
5749.305
5748.332
5747.9
5748.131
5747.945
5747.854
5747.559
5746.979
5746.131
5745.034
5743.699
5742.143
5740.398
5738.499
5736.487
5734.407
5732.296
5730.168
5728.095
5726.1
5724.209
5722.426
5720.757
5719.218
5717.845
5716.659
5715.655
5714.821
5714.161
5713.707
5713.484
5713.527
5713.855
5714.498
5715.416
5716.615
5717.994
5719.586
5721.731
5724.423
5727.484
5730.831
5734.461
5738.37
5742.523
5746.86
5751.327
5755.87
5760.411
5764.842
5769.045
5772.909
5776.338
5779.244
5781.551
5783.2
5784.16
5784.428
5784.035
5783.032
5781.473
5779.435
5776.997
5774.246
5771.285
5768.21
5765.063
5761.836
5758.458
5755.203
5751.64
5747.791
5743.974
5740.275
5736.701
5733.528
5730.851
5728.698
5727.144
5726.22
5725.802
5726.093
5726.823
5727.844
5729.096
5730.621
5732.468
5734.779
5737.673
5740.956
5744.245
5747.881
5752.164
5756.722
5761.31
5765.685
5769.652
5773.094
5775.974
5778.45
5780.772
5783.019
5784.989
5786.67
5788.109
5789.252
5790.037
5790.477
5790.587
5790.496
5790.259
5790.016
5789.809
5789.69
5789.524
5789.006
5788.082
5786.877
5785.451
5783.772
5781.898
5779.903
5777.695
5775.2
5772.558
5769.92
5767.443
5765.268
5763.427
5761.933
5760.783
5759.949
5759.296
5759.418
5759.61
5759.925
5760.333
5760.769
5761.199
5761.595
5761.932
5762.165
5762.237
5762.125
5761.83
5761.354
5760.691
5759.831
5758.774
5757.527
5756.094
5754.476
5752.674
5750.693
5748.537
5746.216
5743.713
5741.092
5738.317
5735.406
5732.371
5729.225
5725.979
5722.648
5719.248
5715.797
5712.322
5708.857
5705.46
5702.211
5699.234
5696.631
5694.573
5693.301
5692.162
2881.504
2857.445
2834.532
2788.231
2750.338
2681.881
2646.815
2612.857
2580.972
2551.399
2523.931
2499.707
2478.877
2462.693
2451.369
2445.866
2388.405
2400.393
2420.205
2444.891
2471.848
2506.17
2552.401
2610.981
2683.856
2770.395
2870.023
2981.973
3105.524
3239.85
3383.839
3536.115
3695.398
3859.288
4025.208
4191.195
4354.373
4512.396
4661.019
4795.296
4910.007
4999.676
5057.295
5093.505
5099.764
5073.443
5017.025
4933.412
4825.524
4696.612
4550.616
4391.576
4223.295
4049.333
3873.276
3698.486
3527.814
3363.93
3208.782
3062.526
2925.254
2797.966
2681.498
2576.165
2481.859
2398.416
2325.38
2261.87
2206.762
2159.133
2118.485
2084.636
2057.804
2038.103
2024.966
2017.484
2015.122
2016.958
2022.907
2033.285
2048.49
2068.869
2095.503
2128.979
2168.13
2212.829
2263.682
2320.886
2383.976
2451.701
2523.256
2598.202
2675.925
2755.586
2835.924
2915.177
2991.602
3063.863
3130.702
3191.127
3245.219
3294.422
3342.378
3391.119
3441.455
3494.971
3552.912
3614.747
3680.194
3748.481
3817.012
3882.465
3942.457
3995.93
4042.482
4082.218
4115.124
4142.313
4164.96
4184.148
4202.461
4220.916
4241.291
4264.974
4292.786
4325.184
4362.06
4403.28
4448.751
4497.927
4549.765
4603.002
4656.487
4709.464
4761.768
4812.342
4860.55
4905.408
4946.179
4982.842
5015.207
5042.29
5063.068
5077.127
5084.61
5085.921
5081.126
5069.865
5052.131
5028.172
4998.051
4961.814
4919.855
4873.137
4824.659
4776.079
4729.13
4688.249
4660.582
4650.978
4659.309
4679.697
4702.929
4721.079
4731.107
4733.521
4732.653
4732.248
4733.477
4735.917
4739.54
4744.785
4749.689
4754.971
4761.341
4769.421
4780.455
4795.743
4817.114
4846.04
4882.87
4926.814
4975.929
5027.407
5078.176
5125.577
5167.706
5203.614
5233.385
5257.938
5278.666
5296.606
5312.263
5325.892
5337.831
5348.42
5357.979
5367.022
5375.814
5383.946
5391.462
5398.008
5404.14
5410.152
5415.377
5420.496
5424.304
5427.219
5429.021
5429.122
5427.122
5422.655
5415.395
5404.999
5391.161
5373.724
5352.523
5326.528
5295.523
5260.538
5220.494
5172.58
5118.347
5059.441
4996.805
4930.468
4861.207
4792.169
4728.638
4677.231
4643.078
4628.741
4633.216
4655
4690.343
4732.57
4776.902
4820.906
4861.6
4897.211
4931.768
4965.656
4996.876
5025.148
5050.894
5075.269
5100.267
5122.644
5139.972
5153.883
5165.608
5179.65
5196.165
5213.669
5232.758
5253.905
5275.831
5299.168
5322.063
5342.232
5359.649
5375.454
5389.78
5402.783
5415.12
5426.661
5437.21
5447
5455.941
5463.893
5470.91
5477.12
5482.635
5487.489
5491.756
5495.494
5498.734
5501.512
5503.834
5505.731
5507.247
5508.44
5509.384
5510.165
5510.862
5511.533
5512.207
5512.884
5513.548
5514.169
5514.704
5515.09
5515.238
5515.166
5514.837
5514.255
5513.432
5512.434
5511.351
5510.302
5509.393
5508.633
5507.815
5507.548
5506.901
5506.018
5504.862
5503.438
5501.774
5499.89
5497.807
5495.564
5493.203
5490.768
5488.303
5485.851
5483.438
5481.104
5478.875
5476.781
5474.841
5473.04
5471.363
5469.856
5468.549
5467.428
5466.478
5465.701
5465.132
5464.806
5464.756
5465.002
5465.566
5466.453
5467.7
5469.29
5471.245
5473.641
5476.454
5479.625
5483.133
5486.981
5491.149
5495.598
5500.273
5505.117
5510.064
5515.022
5519.87
5524.462
5528.672
5532.392
5535.525
5537.985
5539.704
5540.653
5540.833
5540.291
5539.099
5537.333
5535.1
5532.474
5529.523
5526.346
5523.047
5519.694
5516.317
5512.823
5509.336
5505.941
5502.003
5497.874
5493.768
5489.867
5486.337
5483.262
5480.705
5478.792
5477.625
5476.973
5477.157
5478.127
5479.434
5480.74
5482.06
5483.717
5485.929
5488.664
5492.027
5495.81
5499.955
5504.383
5508.894
5513.37
5517.674
5521.646
5525.181
5528.31
5531.152
5533.624
5535.845
5537.817
5539.459
5540.78
5541.802
5542.472
5542.85
5543.044
5543.186
5543.264
5543.342
5543.414
5543.476
5543.483
5543.203
5542.577
5541.712
5540.671
5539.316
5537.584
5535.539
5533.286
5530.869
5528.34
5525.837
5523.551
5521.523
5519.691
5518.134
5516.904
5516.013
5515.457
5515.332
5515.453
5515.761
5516.18
5516.621
5517.065
5517.463
5517.776
5517.963
5517.985
5517.829
5517.493
5516.992
5516.323
5515.454
5514.378
5513.114
5511.665
5510.029
5508.212
5506.218
5504.051
5501.716
5499.224
5496.587
5493.809
5490.902
5487.876
5484.746
5481.526
5478.232
5474.885
5471.508
5468.133
5464.799
5461.559
5458.483
5455.641
5453.198
5451.115
5449.626
5448.014
3025.925
2992.605
2954.718
2905.505
2868.971
2797.431
2761.625
2726.54
2691.41
2655.867
2620.685
2585.822
2549.975
2514.484
2477.804
2375.813
2340.879
2307.375
2275.467
2245.406
2217.623
2192.68
2170.862
2152.851
2139.556
2131.592
2128.55
2133.729
2145.956
2164.778
2190.641
2225.829
2271.628
2330.198
2401.784
2486.668
2584.329
2694.096
2815.31
2947.324
3088.864
3238.105
3393.189
3552.225
3713.691
3876.02
4036.04
4191.06
4336.131
4466.236
4576.71
4663.686
4722.21
4752.354
4751.831
4719.74
4657.78
4568.894
4456.51
4324.14
4175.782
4015.266
3846.828
3673.791
3499.808
3328.399
3162.441
3003.659
2853.145
2711.552
2579.49
2458.017
2347.518
2248
2159.536
2082.22
2015.548
1957.988
1907.833
1864.091
1826.713
1796.018
1772.293
1755.677
1745.132
1739.437
1738.649
1741.182
1746.435
1754.998
1767.634
1786.027
1812.471
1846.663
1885.044
1929.955
1982.683
2043.42
2111.024
2183.597
2260.34
2341.071
2425.197
2511.834
2599.534
2685.759
2767.707
2843.147
2910.048
2967.281
3014.772
3054.872
3093.863
3133.711
3175.898
3222.505
3276.211
3337.285
3406.13
3481.684
3559.329
3633.501
3700.511
3759.103
3809.204
3850.969
3884.66
3911.111
3931.531
3947.524
3961.226
3974.54
3989.671
4008.301
4031.817
4061.064
4095.821
4135.959
4181.498
4231.858
4285.797
4341.621
4397.865
4453.509
4508.116
4561.148
4612.019
4660.083
4704.731
4745.507
4781.846
4812.933
4837.867
4856.025
4867.113
4870.873
4867.296
4855.825
4836.027
4807.832
4771.797
4728.376
4678.155
4622.153
4565.313
4503.219
4439.229
4383
4346.211
4335.208
4348.79
4382.043
4422.073
4455.536
4476.389
4485.337
4487.132
4486.861
4487.161
4488.72
4491.071
4494.107
4497.048
4499.237
4501.059
4503.571
4508.929
4519.586
4537.635
4565.168
4603.53
4652.313
4708.909
4769.159
4828.651
4883.651
4931.568
4971.366
5003.444
5028.98
5049.387
5065.879
5079.395
5090.645
5100.41
5109.26
5117.464
5126.208
5135.618
5144.456
5153.465
5161.569
5170.352
5180.311
5189.048
5196.769
5202.135
5205.792
5207.63
5207.188
5203.97
5197.646
5187.998
5174.904
5158.284
5138.565
5115.652
5088.245
5056.397
5018.878
4973.096
4918.652
4858.466
4794.74
4727.944
4656.603
4580.668
4504.109
4433.47
4378.658
4344.336
4333.83
4347.732
4379.901
4421.633
4467.946
4514.407
4558.306
4601.151
4642.155
4681.265
4717.999
4750.974
4779.98
4806.762
4834.666
4861.69
4884.009
4899.652
4912.267
4924.245
4938.218
4953.361
4969.436
4986.677
5006.579
5030.688
5057.486
5082.687
5103.95
5121.112
5136.653
5151.34
5165.214
5178.101
5189.976
5200.683
5210.201
5218.539
5225.76
5232.002
5237.419
5242.138
5246.234
5249.773
5252.813
5255.399
5257.572
5259.35
5260.764
5261.856
5262.691
5263.35
5263.923
5264.493
5265.128
5265.867
5266.716
5267.666
5268.701
5269.79
5270.882
5271.875
5272.66
5273.179
5273.445
5273.397
5273.056
5272.473
5271.718
5270.864
5269.95
5268.971
5268.011
5266.813
5265.323
5263.468
5261.366
5259.021
5256.472
5253.766
5250.948
5248.062
5245.154
5242.267
5239.454
5236.751
5234.173
5231.726
5229.418
5227.234
5225.18
5223.28
5221.617
5220.249
5219.05
5217.962
5217.042
5216.343
5215.904
5215.755
5215.916
5216.412
5217.279
5218.578
5220.303
5222.414
5224.926
5227.88
5231.281
5235.1
5239.294
5243.814
5248.623
5253.685
5258.956
5264.371
5269.828
5275.184
5280.257
5284.892
5288.976
5292.403
5295.078
5296.918
5297.885
5297.983
5297.268
5295.86
5293.855
5291.458
5288.667
5285.453
5281.932
5278.243
5274.509
5270.886
5267.294
5263.567
5260.489
5256.44
5252.048
5247.571
5243.234
5239.198
5235.589
5232.519
5230.106
5228.386
5227.346
5227.423
5229.097
5231.108
5232.736
5234.158
5235.839
5237.649
5239.735
5242.907
5247.186
5251.87
5256.553
5261.223
5265.808
5270.237
5274.382
5278.093
5281.344
5284.158
5286.55
5288.579
5290.303
5291.787
5293.01
5293.962
5294.737
5295.315
5295.732
5296.16
5296.378
5296.615
5296.873
5297.067
5297.175
5297.103
5296.824
5296.319
5295.592
5294.505
5293.035
5291.225
5289.239
5287.146
5284.923
5282.61
5280.32
5278.205
5276.34
5274.754
5273.486
5272.565
5272.04
5271.914
5272.029
5272.288
5272.636
5273.048
5273.449
5273.802
5274.043
5274.163
5274.129
5273.927
5273.541
5272.967
5272.206
5271.255
5270.124
5268.837
5267.38
5265.729
5263.889
5261.87
5259.679
5257.324
5254.815
5252.161
5249.374
5246.463
5243.44
5240.32
5237.12
5233.857
5230.555
5227.24
5223.945
5220.71
5217.582
5214.625
5211.894
5209.501
5207.387
5205.785
5203.95
2979.872
2936.103
2897.398
2847.01
2795.59
2748.563
2704.946
2664.579
2627.111
2589.625
2487.085
2452.051
2417.551
2382.97
2348.142
2313.096
2277.793
2242.042
2206.023
2170.452
2135.943
2101.279
2067.561
2035.091
2004.161
1975.072
1948.211
1923.641
1901.914
1884.166
1871.278
1864.521
1864.662
1872.025
1887.662
1912.365
1947.257
1993.527
2051.831
2122.642
2206.143
2302.056
2409.795
2528.673
2657.973
2795.636
2939.72
3089.871
3244.123
3402.21
3561.309
3717.622
3867.536
4006.314
4129.04
4231.016
4308.121
4356.662
4374.811
4362.237
4319.422
4248.167
4151.402
4032.643
3895.684
3744.568
3583.137
3415.684
3245.799
3076.097
2908.832
2747.92
2595.764
2453.257
2321.442
2200.245
2088.728
1986.824
1895.349
1814.502
1744.746
1686.272
1637.019
1594.144
1556.259
1523.46
1496.545
1476.582
1464.387
1457.674
1453.778
1455.377
1457.931
1461.933
1468.97
1478.287
1491.472
1515.284
1552.986
1589.34
1633.168
1688.967
1755.853
1830.703
1909.431
1991.842
2079.417
2172.019
2268.564
2366.885
2463.337
2554.105
2635.445
2703.194
2755.196
2792.302
2818.738
2842.913
2869.054
2901.613
2939.579
2987.887
3046.794
3119.57
3206.366
3298.79
3385.942
3462.522
3527.496
3581.674
3625.769
3660.11
3685.277
3702.387
3713.392
3720.835
3727.307
3735.543
3747.681
3765.77
3791.336
3823.521
3862.266
3908.116
3960.774
4018.443
4078.293
4138.003
4196.763
4254.458
4310.667
4364.82
4416.442
4464.983
4509.899
4550.483
4585.905
4615.308
4637.938
4653.249
4660.558
4659.225
4647.809
4625.512
4592.541
4550.009
4499.507
4445.702
4386.82
4314.605
4228.193
4140.008
4063.924
4016.298
4010.65
4037.089
4090.775
4150.595
4198.214
4228.844
4240.887
4242.125
4240.559
4239.814
4240.884
4242.8
4244.212
4245.21
4243.747
4239.768
4234.911
4232.496
4236.09
4248.492
4272.737
4311.582
4365.975
4432.738
4505.342
4576.957
4642.215
4697.553
4741.824
4776.073
4802.11
4821.705
4836.392
4847.546
4856.365
4863.916
4871.117
4878.197
4886.405
4895.828
4905.354
4915.74
4925.923
4936.462
4948.986
4961.785
4972.161
4979.629
4984.885
4987.363
4986.52
4982.218
4974.379
4962.701
4947.115
4928.151
4906.992
4883.57
4856.455
4822.743
4779.09
4725.725
4664.644
4599.941
4532.141
4462.641
4386.856
4303.255
4218.844
4137.923
4077.707
4043.47
4037.271
4057.8
4097.28
4144.708
4194.529
4245.468
4293.264
4339.008
4384.65
4429.085
4470.373
4506.316
4538.428
4570.582
4600.802
4623.837
4641.632
4656.718
4671.182
4685.547
4698.646
4711.721
4726.675
4745.518
4770.867
4800.283
4825.577
4848.666
4867.306
4883.73
4899.193
4913.869
4927.647
4940.407
4952.076
4962.606
4971.979
4980.099
4986.97
4992.756
4997.622
5001.714
5005.153
5008.031
5010.425
5012.399
5013.992
5015.234
5016.165
5016.829
5017.294
5017.649
5018
5018.439
5019.048
5019.867
5020.886
5022.086
5023.451
5024.949
5026.52
5028.097
5029.656
5031.018
5032.152
5032.965
5033.38
5033.393
5033.023
5032.311
5031.317
5030.078
5028.621
5026.866
5024.878
5022.215
5019.392
5016.362
5013.151
5009.807
5006.39
5002.953
4999.542
4996.2
4992.965
4989.864
4986.954
4984.245
4981.72
4979.34
4977.063
4974.976
4973.305
4971.884
4970.514
4969.245
4968.178
4967.36
4966.818
4966.58
4966.659
4967.066
4967.891
4969.267
4971.121
4973.328
4975.953
4979.104
4982.805
4986.994
4991.578
4996.485
5001.684
5007.163
5012.902
5018.843
5024.874
5030.848
5036.536
5041.732
5046.308
5050.14
5053.133
5055.179
5056.22
5056.247
5055.325
5053.724
5051.564
5048.971
5045.866
5042.238
5038.212
5033.914
5029.502
5025.429
5021.843
5018.446
5015.807
5011.57
5006.537
5001.365
4996.326
4991.732
4987.662
4984.136
4981.311
4979.47
4978.703
4979.647
4981.328
4983.332
4985.133
4986.414
4987.565
4988.404
4989.929
4993.245
4998.114
5003.295
5008.467
5013.531
5018.382
5023.016
5027.348
5031.173
5034.429
5037.187
5039.493
5041.474
5043.163
5044.551
5045.598
5046.393
5047.023
5047.536
5047.959
5048.522
5049.07
5049.658
5050.27
5050.892
5051.334
5051.467
5051.365
5050.994
5050.388
5049.523
5048.382
5046.991
5045.433
5043.67
5041.725
5039.652
5037.513
5035.503
5033.753
5032.261
5031.036
5030.093
5029.447
5029.106
5029.031
5029.145
5029.38
5029.696
5030.031
5030.342
5030.602
5030.712
5030.643
5030.384
5029.926
5029.259
5028.386
5027.34
5026.13
5024.749
5023.206
5021.512
5019.649
5017.599
5015.377
5012.995
5010.463
5007.792
5004.991
5002.072
4999.049
4995.935
4992.75
4989.513
4986.247
4982.981
4979.748
4976.586
4973.538
4970.661
4967.993
4965.626
4963.492
4961.829
4959.868
2723.744
2665.506
2545.922
2502.12
2459.002
2418.511
2380.406
2344.226
2309.359
2275.554
2242.847
2209.569
2176.101
2142.204
2107.953
2073.181
2037.893
2002.072
1965.715
1929.253
1893.831
1858.945
1824.858
1791.806
1759.666
1728.334
1698.323
1670.464
1645.492
1624.397
1608.638
1599.355
1597.098
1602.442
1616.4
1639.89
1673.939
1719.334
1776.641
1846.217
1928.114
2022.215
2127.748
2243.637
2368.21
2499.861
2638.444
2783.983
2934.634
3088.288
3241.826
3391.292
3532.508
3660.852
3771.591
3860.337
3923.096
3956.792
3959.791
3932.125
3875.307
3791.9
3685.329
3559.111
3417.563
3264.583
3104.752
2940.314
2774.255
2609.535
2447.221
2292.576
2148.61
2017.132
1899.743
1794.289
1696.389
1604.817
1523.046
1452.357
1392.705
1343.835
1302.703
1266.731
1236.016
1210.93
1188.821
1171.835
1164.234
1162.512
1161.597
1166.658
1174.582
1174.377
1176.521
1179.976
1190.305
1210.759
1244.321
1279.155