/*--------------------------------*- C++ -*----------------------------------*\
| =========                 |                                                 |
| \\      /  F ield         | foam-extend: Open Source CFD                    |
|  \\    /   O peration     | Version:     3.1                                |
|   \\  /    A nd           | Web:         http://www.extend-project.de       |
|    \\/     M anipulation  |                                                 |
\*---------------------------------------------------------------------------*/
FoamFile
{
    version     2.0;
    format      ascii;
    class       surfaceScalarField;
    location    "16";
    object      phi;
}
// * * * * * * * * * * * * * * * * * * * * * * * * * * * * * * * * * * * * * //

dimensions      [0 3 -1 0 0 0 0];

internalField   nonuniform List<scalar> 
275122
(
-0.0002128199
0.0002138934
-1.62803e-07
-9.107601e-07
-0.0001869585
0.0001779642
7.66335e-07
8.227979e-06
-0.0001837768
0.0001884532
-1.879792e-07
-4.488468e-06
-0.0002057688
0.0002116652
-1.915673e-07
-5.70486e-06
-0.0002275844
0.0002305188
-2.040954e-07
-2.73032e-06
-0.0002339585
0.0002347582
-2.080026e-07
-5.916587e-07
-0.0002372668
0.0002380091
-1.791443e-07
-5.631147e-07
-0.0002398157
0.0002403385
-1.654896e-07
-3.573317e-07
-0.0002417778
0.0002422247
-1.475336e-07
-2.993353e-07
-0.0002434702
0.0002438526
-1.318036e-07
-2.506814e-07
-0.0002449215
0.0002452577
-1.168935e-07
-2.193077e-07
-0.0002462033
0.0002465044
-1.030236e-07
-1.980889e-07
-0.0002473795
0.0002476691
-9.00111e-08
-1.995786e-07
-0.0002485261
0.0002488098
-7.752956e-08
-2.06227e-07
-0.0002496346
0.0002499015
-6.580767e-08
-2.011211e-07
-0.0002506528
0.0002508896
-5.50088e-08
-1.818635e-07
-0.0002515213
0.0002517179
-4.540026e-08
-1.512061e-07
-0.0002521754
0.000252365
-4.019484e-08
-1.493791e-07
-0.0002527532
0.0002530273
-7.205412e-08
-2.019949e-07
-0.0002546528
0.0002562328
-3.590633e-07
-1.220948e-06
-0.0002895773
0.0003003534
-6.988308e-07
-1.007723e-05
-0.0003088213
0.0003101193
-2.467462e-07
-1.051218e-06
-0.00031569
0.0003181993
-1.447957e-07
-2.364471e-06
-0.0003540837
0.0003672782
2.697043e-07
-1.346421e-05
-0.0003695281
0.0003687583
5.285934e-07
2.411303e-07
-0.0003683997
0.0003667415
2.544356e-08
1.632744e-06
-0.000361019
0.0003572888
1.17892e-08
3.718351e-06
-0.0003437062
0.0003361085
1.386919e-07
7.458998e-06
-0.0003025558
0.0002783063
-1.021124e-07
2.435161e-05
-0.0001201822
0.0001233006
3.381649e-09
-3.12183e-06
-0.0002085223
0.0002194912
-4.453378e-08
-1.092434e-05
-0.0002499372
0.0002601837
7.724215e-09
-1.025422e-05
-0.0002917765
0.0003023551
8.009456e-09
-1.058663e-05
-0.0003349025
0.0003459602
8.740602e-09
-1.106651e-05
-0.0003798581
0.0003913101
8.179264e-09
-1.146019e-05
-0.0004260867
0.000437727
7.415543e-09
-1.16477e-05
-0.0004727053
0.0004843011
6.266892e-09
-1.160203e-05
-0.0005187297
0.0005299984
5.935058e-09
-1.127461e-05
-0.0005629582
0.0005736813
5.102817e-09
-1.072823e-05
-0.0006045042
0.000615352
1.801219e-07
-1.102799e-05
9.018501e-06
-0.000415617
0.0004159159
2.249277e-10
-9.317598e-06
8.350883e-06
-0.0004157938
0.0004155271
-3.687676e-10
-8.083815e-06
7.982649e-06
-0.0004140983
0.0004134427
-5.262637e-10
-7.326506e-06
7.783264e-06
-0.0004110066
0.0004100818
-4.783307e-10
-6.857988e-06
7.76889e-06
-0.0004070736
0.0004060331
-4.703959e-10
-6.727906e-06
7.954017e-06
-0.0004028818
0.0004018555
-3.96e-10
-6.927223e-06
8.288735e-06
-0.000398862
0.0003979225
-5.022537e-10
-7.348732e-06
8.695056e-06
-0.0003952393
0.0003944014
-6.249425e-10
-7.856553e-06
9.363092e-06
-0.0003920029
0.0003904812
-5.228566e-10
-7.840846e-06
7.603179e-06
-0.001593204
0.001592334
-3.248361e-10
-3.100997e-05
8.369543e-06
7.577489e-06
8.329888e-06
9.466973e-06
-0.001589348
0.001587166
-3.600657e-10
-3.624246e-05
9.778151e-06
9.434907e-06
9.745174e-06
9.561708e-06
-0.001584837
0.001583263
-3.428568e-10
-3.727153e-05
9.868546e-06
9.551245e-06
9.864129e-06
1.008567e-05
-0.001581899
0.001581146
-2.448455e-10
-3.978869e-05
1.020057e-05
1.007138e-05
1.01846e-05
1.036917e-05
-0.001580773
0.001580939
1.21734e-10
-4.178868e-05
1.046109e-05
1.035005e-05
1.044227e-05
1.058138e-05
-0.00158143
0.001582358
2.449894e-10
-4.338225e-05
1.066098e-05
1.056529e-05
1.064586e-05
1.077307e-05
-0.001583601
0.001585153
1.348631e-10
-4.474002e-05
1.083385e-05
1.075965e-05
1.082124e-05
1.085338e-05
-0.001586955
0.001588979
-5.282065e-12
-4.54991e-05
1.089566e-05
1.084108e-05
1.088502e-05
1.090898e-05
-0.001591381
0.001593397
-8.085663e-11
-4.551541e-05
1.085417e-05
1.089555e-05
1.084075e-05
1.027967e-05
-0.0015939
0.001597372
-9.78481e-11
-4.476942e-05
1.038368e-05
1.025785e-05
1.037631e-05
1.057335e-05
-0.001600469
0.001601979
-7.599415e-11
-4.375003e-05
1.054788e-05
1.057283e-05
1.054603e-05
1.006198e-05
-0.001603334
0.001604496
-3.889341e-11
-4.104736e-05
9.8806e-06
1.006241e-05
9.880527e-06
9.284736e-06
-0.00160565
0.001606476
-6.187703e-12
-3.756831e-05
9.087085e-06
9.283919e-06
9.086366e-06
8.182916e-06
-0.001607206
0.001607452
1.990141e-11
-3.246818e-05
7.928975e-06
8.181108e-06
7.928829e-06
6.698957e-06
-0.00160763
0.001607403
3.60494e-11
-2.590197e-05
6.372794e-06
6.690013e-06
6.366935e-06
4.877827e-06
-0.001607127
0.001606398
4.829473e-11
-1.796883e-05
4.505052e-06
4.837703e-06
4.476769e-06
3.125766e-06
-0.001605552
0.001604029
5.493385e-11
-1.010043e-05
2.814105e-06
2.985071e-06
2.698133e-06
2.394985e-06
-0.00160171
0.001597866
5.308116e-11
-4.591551e-06
2.315232e-06
1.895911e-06
1.829419e-06
4.672661e-06
-0.001590303
0.001576284
3.315127e-11
-1.909945e-06
5.087946e-06
3.323408e-06
2.845561e-06
-9.706583e-06
-0.001556987
0.001557753
-1.679447e-11
8.940983e-06
-5.759561e-06
-0.00155668
0.001547008
-4.197562e-11
1.543223e-05
1.032486e-05
-0.00153222
0.001515641
-7.350828e-11
6.253379e-06
1.303276e-05
-0.001500129
0.001485227
-7.163453e-11
1.869033e-06
9.903148e-06
-0.001470783
0.001459287
-3.20048e-11
1.592327e-06
7.353761e-06
-0.00145021
0.001442512
2.092711e-11
3.442899e-07
8.760527e-06
-0.001435701
0.001430686
4.73915e-11
-3.745991e-06
1.075678e-05
-0.001427043
0.001425212
3.987103e-11
-8.925418e-06
1.293559e-05
-0.001424414
0.001425229
1.740199e-11
-1.375015e-05
1.496571e-05
-0.001427098
0.001430511
-1.303599e-11
-1.837845e-05
1.707651e-05
-0.00143486
0.001440718
-3.767264e-11
-2.293396e-05
1.925927e-05
-0.001447455
0.00145567
-5.007251e-11
-2.747369e-05
2.151977e-05
-0.001464698
0.001475124
-5.141959e-11
-3.194608e-05
2.372495e-05
-0.001486287
0.001498732
-4.610492e-11
-3.617002e-05
2.57432e-05
-0.001511831
0.001526069
-3.869997e-11
-3.998136e-05
2.74809e-05
-0.001540867
0.00155665
-3.197152e-11
-4.326371e-05
2.888072e-05
-0.001572884
0.001589976
-2.672841e-11
-4.597279e-05
3.002248e-05
-0.001607381
0.00162557
-2.34489e-11
-4.82118e-05
3.133516e-05
-0.001643649
0.001662417
-2.111864e-11
-5.010322e-05
3.337539e-05
-0.001679933
0.001698257
-2.03382e-11
-5.169903e-05
3.931412e-05
-0.001712894
0.001726272
-1.976646e-11
-5.269277e-05
3.095185e-05
-0.001743145
0.001758681
-1.613392e-11
-4.648721e-05
3.293062e-05
-0.001771796
0.001781448
-1.132228e-11
-4.258238e-05
4.278657e-05
-0.001781893
0.001778342
-6.531441e-12
-3.923581e-05
1.367278e-05
-0.001777898
0.001780562
7.133337e-13
-1.633645e-05
-9.54341e-06
-0.001782921
0.001783326
2.63464e-11
9.138509e-06
-2.856846e-05
-0.001781906
0.001779776
4.685822e-11
3.069801e-05
-5.506721e-05
-0.001778067
0.00177895
6.167234e-11
5.418461e-05
-9.478486e-05
-0.001779588
0.001796049
3.984862e-11
7.832363e-05
-2.055608e-05
-0.001815366
0.001810647
3.066474e-11
7.688764e-05
-1.556721e-05
-2.054478e-05
-1.550055e-05
-1.158175e-05
-0.001799336
0.00179163
4.79619e-11
5.356782e-05
-1.152933e-05
-1.139931e-05
-1.135202e-05
-9.608297e-06
-0.001783208
0.001772888
6.612353e-11
4.7675e-05
-9.171636e-06
-9.498838e-06
-9.076328e-06
-7.982218e-06
-0.001761526
0.001750147
9.764037e-11
4.277737e-05
-7.79095e-06
-7.905228e-06
-7.720029e-06
-7.37095e-06
-0.001738907
0.001727656
1.227706e-10
4.053157e-05
-7.320183e-06
-7.318304e-06
-7.270673e-06
-7.03683e-06
-0.001716197
0.001704447
1.282816e-10
3.968231e-05
-6.972202e-06
-6.993738e-06
-6.929046e-06
-6.755634e-06
-0.001692436
0.0016801
9.927282e-11
3.917184e-05
-6.701476e-06
-6.714939e-06
-6.663609e-06
-6.388942e-06
-0.001667489
0.001654574
2.465067e-11
3.825321e-05
-6.309569e-06
-6.358487e-06
-6.281479e-06
-5.896282e-06
-0.001641514
0.001628334
-8.030422e-11
3.652821e-05
-5.796301e-06
-5.876564e-06
-5.779193e-06
-5.312515e-06
-0.001615208
0.001602228
-1.803583e-10
3.400587e-05
-5.212493e-06
-5.300452e-06
-5.201044e-06
-4.748542e-06
-0.001589514
0.001577167
-2.456483e-10
3.115813e-05
-4.663584e-06
-4.740981e-06
-4.657876e-06
-4.287924e-06
-0.001565205
0.001553723
-2.611706e-10
2.851093e-05
-4.227929e-06
-4.286144e-06
-4.226307e-06
-3.986673e-06
-0.001542661
0.001532091
-2.352601e-10
2.646072e-05
-3.958817e-06
-3.986553e-06
-3.958602e-06
-3.848607e-06
-0.001521901
0.001512128
-1.880454e-10
2.516642e-05
-3.846037e-06
-3.850335e-06
-3.848155e-06
-3.848747e-06
-0.001502639
0.001493435
-1.351071e-10
2.46434e-05
-3.866133e-06
-3.853296e-06
-3.871149e-06
-3.954078e-06
-0.001484394
0.001475493
-8.494476e-11
2.479702e-05
-3.987014e-06
-3.960785e-06
-3.994232e-06
-4.134626e-06
-0.001466645
0.001457848
-4.31237e-11
2.543347e-05
-4.175688e-06
-4.142402e-06
-4.183761e-06
-4.360911e-06
-0.001449039
0.00144024
-1.255505e-11
2.635441e-05
-4.409472e-06
-4.367916e-06
-4.416498e-06
-4.630257e-06
-0.001431403
0.001422522
1.163762e-11
2.751746e-05
-4.68855e-06
-4.629809e-06
-4.6879e-06
-5.015557e-06
-0.001413489
0.001404397
3.45989e-11
2.925767e-05
-5.10503e-06
-4.979476e-06
-5.065982e-06
-5.582661e-06
-0.001395223
0.001386055
7.190024e-11
3.146177e-05
-5.721903e-06
-5.432096e-06
-5.556907e-06
-6.73047e-06
-0.001376752
0.001367933
1.074093e-10
3.551256e-05
-7.085723e-06
-6.324679e-06
-6.553421e-06
-8.615882e-06
-0.001359875
0.001352006
1.928629e-10
4.234031e-05
-9.281846e-06
-8.063584e-06
-8.51028e-06
-1.312062e-05
-0.001344853
0.001341673
1.093269e-10
5.563691e-05
-1.415866e-05
-1.190227e-05
-1.327602e-05
-1.332975e-05
-0.001342096
0.001341041
-2.166662e-11
5.510677e-05
-1.225323e-05
-1.449089e-05
-1.397861e-05
-7.797869e-06
0.001322786
-9.674128e-11
4.261051e-05
-6.908004e-06
-8.781243e-06
-7.498477e-06
-0.001334411
-4.423461e-06
-0.001308137
0.001291899
-6.347162e-11
3.285984e-05
-4.084204e-06
-4.267857e-06
-3.845674e-06
-3.245192e-06
-0.001275118
0.001258739
1.942502e-11
2.915449e-05
-3.226575e-06
-3.130502e-06
-3.173107e-06
-3.144956e-06
-0.001242874
0.001227478
1.280893e-10
2.819419e-05
-3.188015e-06
-3.204074e-06
-3.260975e-06
-3.396007e-06
-0.001212499
0.001197915
2.92758e-10
2.841331e-05
-3.463078e-06
-3.453173e-06
-3.517154e-06
-3.615355e-06
-0.001183523
0.001169125
4.851275e-10
2.895073e-05
-3.636578e-06
-3.64212e-06
-3.658467e-06
-3.651318e-06
-0.001154593
0.001139793
5.953994e-10
2.940962e-05
-3.649843e-06
-3.656578e-06
-3.652216e-06
-3.611348e-06
-0.001124807
0.001109615
4.47783e-10
2.961939e-05
-3.606612e-06
-3.607693e-06
-3.60205e-06
-3.504373e-06
-0.001094498
0.001079595
5.046415e-11
2.886031e-05
-3.47956e-06
-3.499126e-06
-3.474419e-06
-3.184777e-06
-0.00106525
0.001051753
-3.844811e-10
2.608508e-05
-3.113141e-06
-3.180512e-06
-3.109319e-06
-2.595968e-06
-0.001039273
0.001028181
-6.403744e-10
2.125686e-05
-2.488504e-06
-2.593174e-06
-2.486181e-06
-1.885498e-06
-0.001018312
0.001010097
-6.730644e-10
1.552985e-05
-1.772521e-06
-1.884167e-06
-1.771434e-06
-1.161601e-06
-0.001003031
0.0009976215
-5.685488e-10
9.832454e-06
-1.049654e-06
-1.161286e-06
-1.049372e-06
-4.828098e-07
-0.0009932004
0.0009903055
-4.073597e-10
4.649642e-06
-3.9413e-07
-4.830135e-07
-3.943346e-07
9.082995e-08
-0.0009883263
0.0009877652
-2.577223e-10
5.746461e-08
1.617084e-07
9.039409e-08
1.610376e-07
6.003239e-07
-0.0009880327
0.0009897239
-1.454703e-10
-4.23224e-06
6.71188e-07
5.99466e-07
6.702218e-07
1.091199e-06
-0.0009922146
0.0009960279
-7.181517e-11
-8.307186e-06
1.156987e-06
1.090048e-06
1.15568e-06
1.55305e-06
-0.001000579
0.001006393
-2.854236e-11
-1.214844e-05
1.615925e-06
1.551459e-06
1.614189e-06
1.989595e-06
-0.001012893
0.001020581
-5.16587e-12
-1.575843e-05
2.047689e-06
1.987629e-06
2.045657e-06
2.386814e-06
-0.001028897
0.001038303
6.147808e-12
-1.905143e-05
2.437925e-06
2.384669e-06
2.435686e-06
2.735593e-06
-0.001048267
0.001059219
1.227354e-11
-2.197704e-05
2.779431e-06
2.733216e-06
2.776986e-06
3.03837e-06
-0.001070657
0.001082992
1.619851e-11
-2.4561e-05
3.076968e-06
3.035822e-06
3.074364e-06
3.307729e-06
-0.001095755
0.001109359
1.84787e-11
-2.690823e-05
3.347307e-06
3.30494e-06
3.344469e-06
3.564326e-06
-0.001123354
0.001138137
1.925987e-11
-2.917498e-05
3.634844e-06
3.561033e-06
3.631549e-06
3.786524e-06
-0.001153105
0.00116901
1.961571e-11
-3.14686e-05
3.998405e-06
3.781769e-06
3.996524e-06
4.237069e-06
-0.00118589
0.001202811
1.953797e-11
-3.406515e-05
4.332788e-06
4.239803e-06
4.334324e-06
4.297897e-06
-0.001220774
0.00123898
1.916491e-11
-3.567845e-05
4.437142e-06
4.298927e-06
4.438427e-06
4.763726e-06
-0.001257347
0.001276642
1.836514e-11
-3.836404e-05
4.773162e-06
4.76203e-06
4.770746e-06
4.859365e-06
-0.001296354
0.001316731
1.701445e-11
-3.981463e-05
4.862544e-06
4.85637e-06
4.859595e-06
5.028583e-06
-0.001337335
0.001358506
1.485321e-11
-4.132772e-05
5.052757e-06
5.025638e-06
5.049923e-06
5.177605e-06
-0.001379924
0.001401907
1.146272e-11
-4.271132e-05
5.18939e-06
5.174564e-06
5.186232e-06
5.317639e-06
-0.001424134
0.001446895
6.826332e-12
-4.40538e-05
5.331767e-06
5.314657e-06
5.32864e-06
5.41677e-06
-0.001469912
0.001493338
9.546363e-13
-4.508548e-05
5.416373e-06
5.413386e-06
5.413475e-06
5.401604e-06
-0.001516952
0.001540688
-7.031301e-12
-4.530133e-05
5.384032e-06
5.3989e-06
5.380761e-06
5.224428e-06
-0.001564466
0.001588005
-1.546551e-11
-4.435037e-05
5.184274e-06
5.220669e-06
5.181538e-06
4.881829e-06
-0.001611404
0.001634228
-2.446327e-11
-4.224046e-05
4.82779e-06
4.881357e-06
4.825253e-06
4.401201e-06
-0.001656768
0.001678391
-3.28752e-11
-3.909478e-05
4.34048e-06
4.397716e-06
4.331926e-06
3.748753e-06
-0.001699576
0.001719455
-3.947484e-11
-3.471143e-05
3.668575e-06
3.747525e-06
3.667125e-06
2.920366e-06
-0.001738598
0.001756026
-4.236594e-11
-2.886288e-05
2.797731e-06
2.919442e-06
2.796859e-06
1.71764e-06
-0.001772506
0.001787221
-4.098827e-11
-2.116094e-05
1.506541e-06
1.716366e-06
1.505388e-06
3.864356e-07
-0.001800717
0.001811644
-4.045804e-11
-1.213879e-05
2.197138e-07
3.860737e-07
2.194151e-07
-9.609374e-07
-0.001821102
0.001827856
-3.793256e-11
-2.573881e-06
-1.128421e-06
-9.614989e-07
-1.129472e-06
-2.274888e-06
-0.001832887
0.001835219
-4.117701e-11
7.168365e-06
-2.475182e-06
-2.275362e-06
-2.475539e-06
-3.714123e-06
-0.001835885
0.001834004
-4.629985e-11
1.714149e-05
-3.916155e-06
-3.713955e-06
-3.916058e-06
-5.078567e-06
-0.001830476
0.00182464
-5.074356e-11
2.653513e-05
-5.27169e-06
-5.077807e-06
-5.271057e-06
-6.271606e-06
-0.001817177
0.001807627
-5.38611e-11
3.495868e-05
-6.434133e-06
-6.27016e-06
-6.432853e-06
-7.1242e-06
-0.001796532
0.001783701
-5.586533e-11
4.150444e-05
-7.214502e-06
-7.122319e-06
-7.212833e-06
-7.375115e-06
-0.001769737
0.001754857
-5.517126e-11
4.434709e-05
-7.360266e-06
-7.373232e-06
-7.358437e-06
-6.984364e-06
-0.001739622
0.001724565
-4.882744e-11
4.281208e-05
-6.894916e-06
-6.982708e-06
-6.893102e-06
-6.284342e-06
-0.001709981
0.001696277
-4.226059e-11
3.864896e-05
-6.189653e-06
-6.282736e-06
-6.188011e-06
-5.690656e-06
0.001671443
-3.743833e-11
3.462803e-05
-0.001683423
-5.634601e-06
-5.688971e-06
-5.633393e-06
-5.359079e-06
-0.001660196
0.001649482
-3.793338e-11
3.210447e-05
-5.33757e-06
-5.357679e-06
-5.336534e-06
-5.199206e-06
-0.001639207
0.00162911
-4.385737e-11
3.087712e-05
-5.192198e-06
-5.198067e-06
-5.190858e-06
-5.074324e-06
-0.001619223
0.00160934
-3.794335e-11
3.014787e-05
-5.059493e-06
-5.072336e-06
-5.058253e-06
-4.956438e-06
-0.001599371
0.00158928
-5.842371e-11
2.990151e-05
-4.95178e-06
-4.953663e-06
-4.948614e-06
-4.801812e-06
-0.001579032
0.001568202
-2.713769e-12
3.001552e-05
-4.800289e-06
-4.792504e-06
-4.790976e-06
-4.901981e-06
-0.001556654
0.001545015
-4.218925e-11
3.127358e-05
-4.946543e-06
-4.8747e-06
-4.910442e-06
-5.248824e-06
-0.001532972
0.001519605
2.213527e-10
3.451285e-05
-5.463793e-06
-5.12907e-06
-5.305184e-06
-6.569098e-06
-0.001505319
0.001492085
2.126057e-10
3.950154e-05
-6.984261e-06
-6.216229e-06
-6.497228e-06
-1.187893e-05
-0.001479265
0.001467216
9.058921e-10
6.147158e-05
-1.366889e-05
-1.115232e-05
-1.272287e-05
-1.756294e-05
-0.001461857
0.001458352
1.077902e-10
7.328562e-05
-1.737713e-05
-1.724735e-05
-1.759385e-05
-9.318974e-06
-0.001446407
0.001425284
-1.95818e-10
5.734303e-05
-7.797798e-06
-1.039478e-05
-8.708626e-06
-4.912865e-06
-0.001400285
0.001372695
-6.104457e-11
4.685373e-05
-4.345858e-06
-5.377419e-06
-4.626907e-06
-3.008317e-06
-0.001342754
0.001311991
1.937316e-11
4.252104e-05
-2.822301e-06
-3.037373e-06
-2.889126e-06
-1.995308e-06
-0.00128047
0.001248821
1.449099e-10
3.971781e-05
-1.961049e-06
-2.075871e-06
-2.036372e-06
-2.112423e-06
-0.001217787
0.001188158
3.107744e-10
3.840051e-05
-2.232859e-06
-2.15473e-06
-2.271713e-06
-2.765115e-06
-0.001160678
0.001135534
2.487941e-10
3.64526e-05
-2.874221e-06
-2.78287e-06
-2.887193e-06
-2.983524e-06
-0.001112631
0.001091746
-5.542703e-11
3.285242e-05
-2.999315e-06
-2.985267e-06
-2.999268e-06
-2.745301e-06
-0.001072682
0.001055513
-4.282066e-10
2.807101e-05
-2.708179e-06
-2.742518e-06
-2.704834e-06
-2.304985e-06
-0.001040053
0.00102654
-6.702606e-10
2.261943e-05
-2.251506e-06
-2.301649e-06
-2.24798e-06
-1.811553e-06
-0.001014682
0.001004874
-7.289648e-10
1.693668e-05
-1.75548e-06
-1.808743e-06
-1.752704e-06
-1.34297e-06
-0.0009966031
0.0009902566
-6.614406e-10
1.161059e-05
-1.290728e-06
-1.341071e-06
-1.288627e-06
-9.520869e-07
-0.0009851717
0.0009819289
-5.420749e-10
6.938777e-06
-8.969698e-07
-9.507552e-07
-8.955513e-07
-6.288727e-07
-0.0009797076
0.0009786483
-3.909792e-10
3.46968e-06
-5.765594e-07
-6.284416e-07
-5.761154e-07
-9.253939e-08
-0.0009776159
0.0009771394
-2.467344e-10
4.311742e-07
1.168498e-07
-9.330434e-08
1.145797e-07
2.839888e-07
-0.0002420643
0.0002416298
-3.702322e-10
1.508344e-07
-1.726597e-07
-0.0002403998
0.0002402349
8.734388e-12
3.37592e-07
-3.130539e-07
-0.0002404114
0.0002406187
3.874281e-10
1.053765e-07
-4.588714e-07
-0.0002414684
0.0002417974
1.217582e-09
1.286556e-07
-6.061441e-07
-0.0002428597
0.0002432254
2.70137e-09
2.377036e-07
-7.892767e-07
-0.0002443279
0.0002446837
4.590286e-09
4.288238e-07
-9.616243e-07
-0.0002457185
0.0002460422
5.934139e-09
6.319971e-07
-1.086811e-06
-0.0002469359
0.0002472008
4.351745e-09
8.175645e-07
-1.145717e-06
-0.000247958
0.000248188
6.770629e-10
9.15003e-07
-1.123923e-06
-0.00024881
0.0002489901
-1.111504e-09
9.449041e-07
-1.136358e-06
-0.0002494588
0.0002495832
-1.55387e-09
1.013456e-06
-1.213525e-06
-0.0002498634
0.0002499158
-1.885462e-09
1.163036e-06
-1.349874e-06
-0.0002499478
0.0002499045
-1.877128e-09
1.395133e-06
-1.541595e-06
-0.0002496131
0.0002494506
-1.354569e-09
1.705449e-06
-1.754729e-06
-0.0002487709
0.0002484683
-2.206995e-09
2.059461e-06
-1.9376e-06
-0.0002473441
0.0002468874
-3.296026e-09
2.397586e-06
-2.054921e-06
-0.0002452962
0.0002446857
-3.393473e-09
2.668849e-06
-2.086365e-06
-0.0002426541
0.0002419085
-2.689562e-09
2.834706e-06
-2.028184e-06
-0.0002395272
0.0002386859
-1.577536e-09
2.871126e-06
-1.893523e-06
-0.0002360739
0.000235178
-2.434666e-10
2.78966e-06
-1.730288e-06
-0.0002324713
0.0002315695
7.788578e-10
2.631286e-06
-1.577945e-06
-0.0002289149
0.0002280552
8.788381e-10
2.436718e-06
-1.44792e-06
-0.0002255831
0.0002248002
3.810773e-10
2.230434e-06
-1.34025e-06
-0.0002225812
0.0002218905
-1.365843e-10
2.031037e-06
-1.260271e-06
-0.0002199589
0.0002193671
-4.017729e-10
1.852481e-06
-1.202704e-06
-0.0002177279
0.0002172311
-4.470287e-10
1.699899e-06
-1.156637e-06
-0.0002158635
0.0002154529
-3.893761e-10
1.567661e-06
-1.110512e-06
-0.0002143307
0.0002139981
-2.974094e-10
1.443434e-06
-1.058495e-06
-0.0002131032
0.0002128453
-2.105223e-10
1.316635e-06
-1.000449e-06
-0.0002121745
0.0002119923
-1.452088e-10
1.182813e-06
-9.365858e-07
-0.000211547
0.0002114396
-9.365677e-11
1.044098e-06
-8.915891e-07
-0.0002112356
0.0002112161
-5.716388e-11
9.11098e-07
-8.319222e-07
-0.0002112687
0.0002113399
-2.164403e-11
7.607633e-07
-7.57731e-07
-0.0002116796
0.0002118607
7.807046e-12
5.766962e-07
-6.298908e-07
-0.0002125643
0.0002129095
2.372649e-11
2.846703e-07
4.995692e-07
-0.0002141552
0.000214198
6.322519e-11
-5.423902e-07
1.1641e-06
-0.0002147058
0.0002149466
2.506825e-11
-1.40494e-06
1.231526e-06
-0.0002158197
0.0002161626
7.92668e-11
-1.574454e-06
1.36092e-06
-0.0002172746
0.0002176735
1.06281e-10
-1.75995e-06
1.42687e-06
-0.0002189454
0.0002194019
1.190388e-10
-1.88345e-06
1.48204e-06
-0.0002208294
0.0002213253
1.3535e-10
-1.97805e-06
1.531802e-06
-0.0002228615
0.0002233932
1.485031e-10
-2.063673e-06
1.574714e-06
-0.0002250253
0.000225584
1.653424e-10
-2.133504e-06
1.612206e-06
-0.0002272899
0.00022787
1.757662e-10
-2.192415e-06
1.645576e-06
-0.0002296314
0.0002302271
1.636749e-10
-2.241493e-06
1.674895e-06
-0.0002320285
0.0002326349
1.57714e-10
-2.281412e-06
1.700539e-06
-0.0002344619
0.0002350745
1.646386e-10
-2.313341e-06
1.722922e-06
-0.000236915
0.0002375303
1.619499e-10
-2.338431e-06
1.742914e-06
-0.0002393743
0.0002399894
1.606032e-10
-2.358203e-06
1.760964e-06
-0.0002418293
0.0002424418
1.508992e-10
-2.373572e-06
1.777222e-06
-0.0002442715
0.0002448792
1.448994e-10
-2.385087e-06
1.791647e-06
-0.0002466937
0.0002472955
1.430562e-10
-2.393605e-06
1.804955e-06
-0.0002490915
0.0002496869
1.375452e-10
-2.400507e-06
1.817891e-06
-0.0002514628
0.0002520514
1.339132e-10
-2.406636e-06
1.830105e-06
-0.0002538067
0.0002543884
1.365395e-10
-2.411943e-06
1.841682e-06
-0.0002561228
0.0002566974
1.329596e-10
-2.416452e-06
1.852453e-06
-0.0002584108
0.0002589783
1.265673e-10
-2.420167e-06
1.862932e-06
-0.000260671
0.0002612318
1.301141e-10
-2.423862e-06
1.872741e-06
-0.0002629045
0.000263459
1.377468e-10
-2.427314e-06
1.88103e-06
-0.0002651128
0.0002656612
1.379754e-10
-2.429542e-06
1.886837e-06
-0.0002672961
0.0002678381
1.26043e-10
-2.428947e-06
1.889039e-06
-0.0002694519
0.0002699864
1.189072e-10
-2.423679e-06
1.88667e-06
-0.0002715741
0.0002720991
1.211101e-10
-2.411868e-06
1.878565e-06
-0.0002736537
0.0002741667
1.169438e-10
-2.391659e-06
1.863838e-06
-0.0002756807
0.0002761787
1.122011e-10
-2.361918e-06
1.844687e-06
-0.0002776426
0.0002781219
1.257436e-10
-2.324185e-06
1.821609e-06
-0.0002795258
0.000279984
1.422929e-10
-2.279949e-06
1.800397e-06
-0.000281321
0.0002817547
1.100192e-10
-2.234272e-06
1.74685e-06
-0.0002829803
0.0002834101
9.243285e-11
-2.176765e-06
1.722208e-06
-0.000284719
0.0002851247
2.905557e-10
-2.128279e-06
2.314993e-06
-0.0002842607
0.001161684
3.27405e-12
-9.580833e-06
3.782873e-07
2.318991e-06
3.617593e-07
-0.0002842649
-0.0002944753
-0.0002944763
1.076446e-06
-0.001168814
0.001172656
5.32713e-12
-9.025096e-06
1.536489e-06
1.05472e-06
1.51596e-06
1.338989e-06
-0.001175584
0.001178252
5.529519e-12
-8.201406e-06
1.44445e-06
1.32222e-06
1.428549e-06
1.346501e-06
-0.001181368
0.001184469
6.885483e-12
-8.570594e-06
1.403404e-06
1.331448e-06
1.388537e-06
1.399932e-06
-0.001187598
0.001190402
7.220312e-12
-8.494446e-06
1.459127e-06
1.385717e-06
1.444942e-06
1.448011e-06
-0.001193054
0.001195503
5.345529e-12
-8.292595e-06
1.48728e-06
1.434595e-06
1.473937e-06
1.462879e-06
-0.001197932
0.001200267
2.674739e-12
-8.204193e-06
1.484719e-06
1.449741e-06
1.47199e-06
1.481228e-06
-0.001202603
0.001204833
8.141533e-13
-8.162644e-06
1.498667e-06
1.467031e-06
1.486362e-06
1.507841e-06
-0.001207032
0.00120914
1.985196e-12
-8.15513e-06
1.528537e-06
1.494672e-06
1.516037e-06
1.55023e-06
-0.001211204
0.001213181
-2.323054e-12
-8.172258e-06
1.559572e-06
1.537641e-06
1.547923e-06
1.589899e-06
-0.001215128
0.001217015
-3.828315e-12
-8.239467e-06
1.596913e-06
1.579238e-06
1.586431e-06
1.637196e-06
-0.001218862
0.001220664
-2.619887e-12
-8.350955e-06
1.64701e-06
1.627254e-06
1.637302e-06
1.689699e-06
-0.001222447
0.001224202
-2.587004e-12
-8.516543e-06
1.699764e-06
1.680699e-06
1.691021e-06
1.747753e-06
-0.00122595
0.001227695
-2.479681e-12
-8.740196e-06
1.757976e-06
1.739628e-06
1.750061e-06
1.809517e-06
-0.001229448
0.001231221
-2.964196e-12
-9.016811e-06
1.819339e-06
1.802225e-06
1.812221e-06
1.87229e-06
-0.001233017
0.001234854
-3.456542e-12
-9.332116e-06
1.881594e-06
1.86578e-06
1.875252e-06
1.934205e-06
-0.001236725
0.001238653
-3.480965e-12
-9.670816e-06
1.943102e-06
1.928357e-06
1.9374e-06
1.994345e-06
-0.001240623
0.001242658
-3.260093e-12
-1.00193e-05
2.002885e-06
1.989047e-06
1.997706e-06
2.051941e-06
-0.00124474
0.00124689
-2.972502e-12
-1.036473e-05
2.060039e-06
2.0472e-06
2.055411e-06
2.105579e-06
-0.001249087
0.00125135
-2.521571e-12
-1.069188e-05
2.113062e-06
2.101322e-06
2.108892e-06
2.153132e-06
-0.001253658
0.001256024
-1.785722e-12
-1.098392e-05
2.159746e-06
2.149255e-06
2.15592e-06
2.192455e-06
-0.00125843
0.00126088
-7.467402e-13
-1.122322e-05
2.197842e-06
2.18893e-06
2.194381e-06
2.221646e-06
-0.001263361
0.001265868
6.838589e-13
-1.139484e-05
2.225548e-06
2.218487e-06
2.222468e-06
2.240011e-06
-0.001268395
0.001270927
1.978725e-12
-1.14909e-05
2.242455e-06
2.237146e-06
2.239697e-06
2.24771e-06
-0.001273466
0.001275989
2.82867e-12
-1.151047e-05
2.248728e-06
2.24502e-06
2.246039e-06
2.24542e-06
-0.001278506
0.001280984
3.132003e-12
-1.145417e-05
2.24509e-06
2.242885e-06
2.242541e-06
2.234284e-06
-0.00128344
0.001285831
2.984134e-12
-1.132052e-05
2.232732e-06
2.231989e-06
2.23051e-06
2.215815e-06
-0.001288181
0.001290435
2.548243e-12
-1.11084e-05
2.213405e-06
2.213822e-06
2.211488e-06
2.191845e-06
-0.001292626
0.001294695
2.041361e-12
-1.082627e-05
2.188852e-06
2.190097e-06
2.187116e-06
2.165122e-06
-0.001296682
0.001298528
1.591191e-12
-1.049847e-05
2.162465e-06
2.163531e-06
2.160967e-06
2.139806e-06
-0.001300286
0.001301908
1.374078e-12
-1.017422e-05
2.138008e-06
2.138478e-06
2.136707e-06
2.124602e-06
-0.001303444
0.001304868
1.325924e-12
-9.920735e-06
2.124897e-06
2.123399e-06
2.123725e-06
2.124559e-06
-0.001306227
0.001307515
1.315851e-12
-9.789327e-06
2.127116e-06
2.123434e-06
2.126014e-06
2.135858e-06
-0.001308766
0.00130998
1.228974e-12
-9.761794e-06
2.139387e-06
2.13479e-06
2.138323e-06
2.14833e-06
-0.001311173
0.001312348
9.599732e-13
-9.773176e-06
2.151627e-06
2.147346e-06
2.15065e-06
2.157673e-06
-0.001313518
0.001314688
4.263068e-13
-9.804495e-06
2.160533e-06
2.156755e-06
2.159625e-06
2.159824e-06
-0.001315869
0.001317052
-2.927515e-13
-9.822738e-06
2.161051e-06
2.158934e-06
2.16016e-06
2.145219e-06
-0.001318249
0.001319428
-1.079223e-12
-9.755435e-06
2.143792e-06
2.144403e-06
2.142989e-06
2.107967e-06
-0.001320613
0.001321747
-1.799865e-12
-9.554996e-06
2.103272e-06
2.107258e-06
2.102586e-06
2.043527e-06
-0.001322872
0.001323908
-2.461006e-12
-9.192112e-06
2.035029e-06
2.042848e-06
2.034429e-06
1.948908e-06
-0.001324917
0.001325786
-3.099777e-12
-8.638111e-06
1.936421e-06
1.948225e-06
1.935668e-06
1.811063e-06
-0.001326598
0.00132721
-3.475209e-12
-7.818755e-06
1.793251e-06
1.810427e-06
1.792498e-06
1.640588e-06
-0.0013277
0.001327915
-3.339686e-12
-6.718881e-06
1.611805e-06
1.639998e-06
1.611228e-06
1.381234e-06
-0.001328025
0.001327826
-2.811212e-12
-5.269015e-06
1.352964e-06
1.380773e-06
1.352493e-06
1.076819e-06
-0.001327434
0.001326758
-1.761922e-12
-3.555238e-06
1.039114e-06
1.076458e-06
1.038724e-06
6.468684e-07
-0.001326038
0.001325163
-2.292752e-13
-1.430852e-06
5.06716e-07
6.465206e-07
5.063448e-07
1.451288e-07
-0.00132431
0.001323091
1.746347e-12
7.168115e-07
1.065301e-07
1.448261e-07
1.062475e-07
-2.082153e-07
-0.001321608
0.001319746
4.371349e-12
2.766454e-06
-2.440974e-07
-2.083677e-07
-2.442207e-07
-5.734012e-07
-0.001317481
0.001314741
9.835696e-12
5.164294e-06
-6.380486e-07
-5.736353e-07
-6.386964e-07
-1.194808e-06
-0.001311654
0.001308062
1.948048e-11
8.517861e-06
-1.267191e-06
-1.194947e-06
-1.268478e-06
-2.092764e-06
-0.001304053
0.001299505
3.569342e-11
1.312936e-05
-2.196075e-06
-2.093374e-06
-2.199133e-06
-3.293635e-06
-0.001294483
0.001288939
6.636427e-11
1.898359e-05
-3.426734e-06
-3.293811e-06
-3.425781e-06
-5.04555e-06
-0.001283312
0.001277694
9.907414e-11
2.599636e-05
-5.148375e-06
-5.042066e-06
-5.143145e-06
-6.121175e-06
-0.001270581
0.001262887
8.609777e-11
3.215136e-05
-6.102966e-06
-6.125274e-06
-6.108186e-06
-5.91011e-06
-0.001258252
0.001250881
3.254349e-11
3.043547e-05
-5.61402e-06
-5.924647e-06
-5.616031e-06
-4.086534e-06
-0.001241202
0.001230318
-2.169154e-11
2.679276e-05
-3.879583e-06
-4.075135e-06
-3.867254e-06
-2.728693e-06
-0.001219125
0.001207225
-3.947491e-11
2.249072e-05
-2.576531e-06
-2.718852e-06
-2.566641e-06
-2.031285e-06
-0.001194599
0.001181529
-3.907552e-11
2.118302e-05
-2.033274e-06
-2.022619e-06
-2.026329e-06
-2.265187e-06
-0.001168303
0.001155153
-3.584312e-11
2.246283e-05
-2.39198e-06
-2.263442e-06
-2.392082e-06
-2.841841e-06
-0.001142043
0.001128979
-3.304483e-11
2.465925e-05
-2.953125e-06
-2.8445e-06
-2.955682e-06
-3.293297e-06
-0.001115891
0.00110275
-3.451514e-11
2.647945e-05
-3.376331e-06
-3.293113e-06
-3.376425e-06
-3.657841e-06
-0.001089662
0.001076651
-3.524333e-11
2.77308e-05
-3.703191e-06
-3.656926e-06
-3.701934e-06
-3.623978e-06
-0.001063713
0.001050758
-2.535298e-11
2.732834e-05
-3.566278e-06
-3.620739e-06
-3.562911e-06
-3.023357e-06
-0.001037842
0.0010249
-1.947401e-11
2.466812e-05
-2.844235e-06
-3.019217e-06
-2.839513e-06
-2.113406e-06
-0.001011771
0.0009988355
-1.945179e-11
2.119054e-05
-2.017062e-06
-2.110207e-06
-2.014243e-06
-1.716071e-06
-0.0009862197
0.0009741333
-1.909645e-11
1.891832e-05
-1.701078e-06
-1.714617e-06
-1.700066e-06
-1.659497e-06
-0.0009625022
0.0009513302
-1.240872e-11
1.782675e-05
-1.667999e-06
-1.659368e-06
-1.667882e-06
-1.69305e-06
-0.0009404209
0.0009296777
-3.337958e-12
1.752947e-05
-1.700732e-06
-1.692446e-06
-1.69998e-06
-1.734783e-06
-0.0009189564
0.0009081505
1.323068e-11
1.774867e-05