/*--------------------------------*- C++ -*----------------------------------*\
| =========                 |                                                 |
| \\      /  F ield         | foam-extend: Open Source CFD                    |
|  \\    /   O peration     | Version:     3.1                                |
|   \\  /    A nd           | Web:         http://www.extend-project.de       |
|    \\/     M anipulation  |                                                 |
\*---------------------------------------------------------------------------*/
FoamFile
{
    version     2.0;
    format      ascii;
    class       volScalarField;
    location    "6.5";
    object      k;
}
// * * * * * * * * * * * * * * * * * * * * * * * * * * * * * * * * * * * * * //

dimensions      [0 2 -2 0 0 0 0];

internalField   nonuniform List<scalar> 
119952
(
0.02021531
0.01789979
0.01708762
0.01665896
0.01610328
0.01542411
0.01508315
0.0148871
0.01474658
0.0146236
0.01449673
0.0143571
0.01420911
0.01406595
0.01394423
0.01386048
0.0138257
0.01384218
0.01391418
0.01409891
0.01565756
0.01489608
0.0147993
0.01605541
0.0149601
0.01441597
0.01403016
0.01371147
0.013041
0.01805927
0.05370445
0.05131054
0.04927292
0.04781879
0.04689261
0.04635512
0.04606323
0.04590431
0.0457984
0.04572418
0.04361056
0.04374562
0.04483616
0.04626477
0.04767824
0.04891773
0.04992951
0.05071759
0.05130573
0.05524633
0.05549486
0.05545246
0.0551952
0.05481053
0.05436943
0.05391448
0.05346978
0.05304533
0.05275009
0.05252058
0.05214024
0.05172257
0.05128055
0.05080855
0.05030748
0.04977751
0.04921131
0.04859265
0.04883848
0.04822869
0.04742569
0.04697458
0.04657803
0.04609488
0.04549679
0.04487734
0.04427894
0.04371298
0.04318628
0.04270594
0.04227875
0.04191049
0.04160743
0.04137697
0.04122565
0.04115315
0.04114867
0.04119983
0.0413532
0.04159306
0.04174922
0.04202399
0.04255355
0.04299648
0.043344
0.04367349
0.04383557
0.04321115
0.04268612
0.04219414
0.04172872
0.04127198
0.0408139
0.04035897
0.03990859
0.03946366
0.03902543
0.03859535
0.03817422
0.03776147
0.03735631
0.03695759
0.0365641
0.03617471
0.03578816
0.03540268
0.03501664
0.03462829
0.03423584
0.03383829
0.03343637
0.03303138
0.03262503
0.03221967
0.03181782
0.03142176
0.0310333
0.03065449
0.03028584
0.02992889
0.0295844
0.02925285
0.02893478
0.02863051
0.02834015
0.02806407
0.02780219
0.02755437
0.02732033
0.02709955
0.02689195
0.02669743
0.02651545
0.02634537
0.02618631
0.02603659
0.02589979
0.02579312
0.02572827
0.02566251
0.02558723
0.02550165
0.02540881
0.02531186
0.02521292
0.02511376
0.02501579
0.02491997
0.02482688
0.02473682
0.02464974
0.02456557
0.02448422
0.02440548
0.02432908
0.02425476
0.0241822
0.02411112
0.0240412
0.02397215
0.02390367
0.0238355
0.02376734
0.02369897
0.02363012
0.02356057
0.02349013
0.02341859
0.02334579
0.0232716
0.02319587
0.02311854
0.02303955
0.0229584
0.02287524
0.02279156
0.02270633
0.02261944
0.02253111
0.02244142
0.02235066
0.02225929
0.02216738
0.02207535
0.02198248
0.02188766
0.02179925
0.02167094
0.02134431
0.02100082
0.02066732
0.02035965
0.02007623
0.01981552
0.01957503
0.01935268
0.01914671
0.01895574
0.0187788
0.01861498
0.01846353
0.01832413
0.01819629
0.01807939
0.01797147
0.01787273
0.01778382
0.01770439
0.01763414
0.01757281
0.01752019
0.01747615
0.01744062
0.0174135
0.0173949
0.01738483
0.01738351
0.01739111
0.01740791
0.01743402
0.01746776
0.01750546
0.01749689
0.01761331
0.01775081
0.01788534
0.01800983
0.01812162
0.01822065
0.01830706
0.01838122
0.0184437
0.01849517
0.0185364
0.01856829
0.01859174
0.01860761
0.01861676
0.01861996
0.01861794
0.01861135
0.01860078
0.01858678
0.01856982
0.01855032
0.01852864
0.01850508
0.01847992
0.01845337
0.01842563
0.01839686
0.0183672
0.01833676
0.0183056
0.0182742
0.01824282
0.01821117
0.01805505
0.0181232
0.01813729
0.01809899
0.01802707
0.01793442
0.01783514
0.01773883
0.01765073
0.01757316
0.01750598
0.01744961
0.01740288
0.01736441
0.01733285
0.0173068
0.01728494
0.0172661
0.01724928
0.01723365
0.01721857
0.01720351
0.01718814
0.01717221
0.0171556
0.01713825
0.01712017
0.01710144
0.01708217
0.01706248
0.01704253
0.01702249
0.01700255
0.01698286
0.0169636
0.01694495
0.01692706
0.01691009
0.01689418
0.01687948
0.01686616
0.0168544
0.01684456
0.01683744
0.01683521
0.01683896
0.01684082
0.01684073
0.01684325
0.01684806
0.01685465
0.01686385
0.01687669
0.01690529
0.01699179
0.01697499
0.01695934
0.01694204
0.01692029
0.01689411
0.01686391
0.01683105
0.01679738
0.01676456
0.01673392
0.01670642
0.01668277
0.01666334
0.0166482
0.0166372
0.01663002
0.01662628
0.01662552
0.01662725
0.01663098
0.01663621
0.01664247
0.01664933
0.01665641
0.01666335
0.01666986
0.01667568
0.01668057
0.01668439
0.01668699
0.0166883
0.01668823
0.01668677
0.01668392
0.01667969
0.01667414
0.01666733
0.01665935
0.01665029
0.01664022
0.01662924
0.01661746
0.01660497
0.01659189
0.01657833
0.01656442
0.01655025
0.01653594
0.01652156
0.0165072
0.01649293
0.01647881
0.0164649
0.01645125
0.01643791
0.01642491
0.01641227
0.01640001
0.01638815
0.01637669
0.01636562
0.01635495
0.01634467
0.01633476
0.0163252
0.01631598
0.01630707
0.01629842
0.01629003
0.01628181
0.01627376
0.01626582
0.01625788
0.01624972
0.01624133
0.01623229
0.01622235
0.01621031
0.01619435
0.01616949
0.01612441
0.01602817
0.01587154
0.01604817
0.05875851
0.06711584
0.07687658
0.08350751
0.08825765
0.09194145
0.09494376
0.09743517
0.0996583
0.1039203
0.1152015
0.1251412
0.1327943
0.1383271
0.1420877
0.1444782
0.145824
0.1463895
0.1631541
0.1611178
0.1588917
0.1563462
0.1536662
0.150966
0.1482769
0.1456011
0.1429209
0.1401908
0.1376766
0.1349301
0.1319898
0.1290172
0.1260884
0.1232474
0.1205206
0.117922
0.1154488
0.1133228
0.1112153
0.108997
0.1068442
0.104772
0.1027844
0.1008857
0.09907704
0.09735515
0.09571805
0.0941304
0.09259133
0.09112989
0.0897157
0.08833168
0.08697194
0.08563095
0.0843134
0.08305395
0.08692401
0.08561826
0.0844101
0.08328296
0.08220221
0.08114834
0.08011064
0.07908211
0.07805429
0.0770281
0.07600915
0.07497466
0.0739202
0.07284718
0.07176099
0.07066217
0.06956698
0.06849896
0.06750228
0.06650539
0.06538284
0.06427822
0.06324592
0.06221775
0.06115454
0.06007492
0.05900313
0.0579476
0.05691156
0.05589734
0.05490753
0.05394436
0.05301143
0.0521123
0.05125244
0.05043643
0.04967134
0.04896452
0.0483316
0.04778803
0.04733057
0.0469755
0.04678595
0.04672789
0.04673576
0.0467868
0.04686876
0.04688523
0.04679517
0.04678727
0.04686753
0.04698266
0.04710031
0.04721208
0.04731434
0.04740435
0.04747945
0.0475374
0.04757672
0.04759669
0.04759705
0.04757784
0.04753938
0.04748197
0.04740547
0.04730899
0.04718964
0.04704255
0.04686917
0.04667083
0.0464489
0.04620486
0.04594027
0.04565694
0.04535691
0.04504246
0.04471592
0.04437967
0.04403611
0.04368756
0.04333622
0.04298423
0.04263363
0.04228632
0.04194405
0.04160837
0.04128074
0.04096244
0.04065457
0.04035799
0.04007352
0.03980166
0.03954273
0.03929685
0.03906399
0.03884422
0.03863867
0.03844944
0.03827657
0.03811803
0.0379728
0.03784069
0.03772006
0.03760898
0.03750593
0.03740961
0.03731878
0.03723238
0.03714953
0.03706948
0.03699162
0.03691562
0.0368412
0.0367679
0.03669527
0.03662293
0.03655051
0.03647767
0.03640408
0.03632943
0.03625344
0.03617582
0.0360963
0.03601462
0.03593053
0.03584379
0.03575417
0.03566144
0.03556538
0.03546578
0.03536245
0.0352552
0.03514383
0.03502817
0.03490794
0.03478318
0.03465379
0.03451956
0.03437964
0.03423418
0.03408284
0.03392629
0.0337635
0.03359596
0.03342135
0.03324316
0.03305795
0.03288296
0.0322035
0.03142677
0.030877
0.03045897
0.03011862
0.02982292
0.02955315
0.02929889
0.02905348
0.02881274
0.02857438
0.02833714
0.02810042
0.02786395
0.0276277
0.02739209
0.02715774
0.02692469
0.02669318
0.02646352
0.02623591
0.02601054
0.02578761
0.02556726
0.02534965
0.02513494
0.02492328
0.02471482
0.02450966
0.02430789
0.02410946
0.02391409
0.02372104
0.02352907
0.02333787
0.02315235
0.0229871
0.02284543
0.02271533
0.02259266
0.02247599
0.02236435
0.02225707
0.02215371
0.022054
0.0219577
0.02186464
0.02177464
0.02168752
0.02160311
0.02152122
0.02144168
0.0213643
0.02128889
0.02121526
0.02114322
0.02107259
0.02100318
0.02093481
0.02086731
0.0208005
0.02073423
0.02066835
0.02060269
0.02053717
0.02047162
0.02040606
0.02034034
0.02027454
0.02020959
0.02091886
0.0208402
0.02078307
0.02073085
0.02067654
0.02061835
0.02055638
0.0204908
0.02042169
0.02034927
0.02027393
0.02019611
0.02011612
0.0200343
0.019951
0.01986655
0.01978128
0.0196955
0.01960948
0.01952351
0.01943785
0.01935274
0.01926842
0.0191851
0.01910299
0.01902228
0.01894315
0.01886577
0.0187903
0.01871689
0.01864567
0.01857679
0.01851034
0.01844645
0.01838521
0.0183267
0.01827099
0.01821818
0.01816828
0.0181214
0.01807757
0.01803697
0.01799973
0.01796618
0.017936
0.01790849
0.01788224
0.01785721
0.01783395
0.01781318
0.01779445
0.01777813
0.017764
0.01775929
0.01776024
0.01775164
0.01773709
0.01772279
0.01771047
0.01770014
0.01769144
0.01768394
0.0176772
0.01767082
0.01766444
0.01765776
0.01765054
0.01764259
0.01763377
0.01762396
0.0176131
0.01760111
0.01758796
0.01757365
0.01755817
0.01754155
0.01752382
0.01750502
0.01748522
0.01746448
0.01744289
0.01742054
0.01739751
0.01737391
0.01734984
0.01732542
0.01730076
0.01727598
0.0172512
0.01722654
0.01720209
0.01717797
0.01715427
0.0171311
0.01710853
0.01708663
0.01706549
0.01704517
0.01702571
0.01700719
0.01698964
0.0169731
0.01695761
0.01694318
0.01692982
0.01691753
0.01690632
0.01689616
0.01688705
0.01687896
0.01687186
0.01686571
0.0168605
0.01685617
0.01685269
0.01685001
0.01684811
0.0168469
0.01684639
0.01684647
0.01684718
0.01684836
0.0168501
0.01685219
0.01685478
0.01685755
0.01686078
0.01686392
0.01686741
0.01687037
0.01687343
0.01687494
0.01687552
0.0168718
0.01686376
0.01684819
0.01683822
0.01686237
0.01691869
0.06081771
0.06319562
0.06604556
0.06920236
0.07264783
0.07637428
0.08034143
0.08450015
0.08874341
0.09260743
0.123383
0.1356951
0.1482418
0.1611562
0.1746161
0.1889028
0.2043898
0.2220632
0.2478251
0.2837994
0.2937754
0.3026936
0.3108471
0.3183785
0.3252492
0.3317074
0.3379085
0.3440968
0.3499984
0.354437
0.3567955
0.3578684
0.3579242
0.3570571
0.3553696
0.3529577
0.3499438
0.346614
0.3406228
0.3359999
0.3317654
0.3275359
0.323152
0.3185735
0.31378
0.3088057
0.3037134
0.2985555
0.2931924
0.2877715
0.2823043
0.2768409
0.2713912
0.265945
0.2604811
0.2549425
0.2589848
0.2535343
0.2479406
0.242293
0.2366327
0.230971
0.2253224
0.2197004
0.2141239
0.2085918
0.2031163
0.1977455
0.1924796
0.1873207
0.1822819
0.1773761
0.1726147
0.1680102
0.1635669
0.1592808
0.1551769
0.1512649
0.1475302
0.1439692
0.1405791
0.1373541
0.1342881
0.1313696
0.128593
0.1259634
0.123456
0.121062
0.1187729
0.1165946
0.114523
0.1125612
0.1106595
0.10882
0.1071258
0.1054535
0.1037739
0.1020981
0.1004417
0.09881214
0.09720772
0.09562641
0.09406552
0.09252633
0.0910058
0.08950213
0.08801742
0.08655018
0.08510283
0.0836727
0.08226764
0.08088386
0.0795272
0.07815521
0.07674777
0.07533522
0.07393667
0.07254921
0.07116206
0.06977792
0.06840748
0.06706035
0.06574176
0.06445355
0.06319585
0.06196834
0.06077092
0.05960408
0.05846899
0.05736768
0.05630352
0.05528141
0.05430917
0.05339566
0.05254696
0.05177361
0.05108972
0.05049307
0.04996804
0.04949916
0.04907034
0.04866229
0.04827076
0.04792917
0.04766226
0.04747139
0.04734658
0.04727648
0.04725218
0.04726703
0.04731533
0.04739163
0.04749049
0.04760672
0.04773589
0.04787397
0.04801735
0.04816271
0.04830694
0.04844695
0.04857956
0.04870174
0.04881078
0.04890432
0.04898023
0.04903663
0.04907189
0.04908472
0.04907423
0.04904
0.048982
0.04890058
0.04879648
0.0486708
0.04852491
0.04836047
0.04817943
0.04798386
0.047776
0.04755814
0.04733266
0.04710188
0.04686807
0.04663334
0.04639962
0.04616866
0.04594206
0.04572117
0.04550717
0.04530119
0.04510447
0.04491829
0.04474334
0.04457882
0.04442342
0.04427755
0.04414091
0.04401311
0.04389357
0.0437815
0.04367606
0.04357643
0.04348179
0.04339136
0.04330436
0.04322001
0.04313765
0.04305668
0.04297653
0.04289667
0.04281661
0.04273588
0.04265406
0.04257078
0.04248568
0.04239846
0.04230882
0.0422165
0.04212124
0.04202281
0.04192101
0.04181562
0.04170644
0.04159329
0.04147599
0.04135435
0.04122822
0.0410974
0.04096179
0.0408212
0.04067556
0.04052453
0.04036827
0.04020617
0.04003858
0.03986447
0.03968505
0.03949815
0.03930672
0.03910591
0.03890278
0.03868442
0.0384477
0.03821823
0.0379906
0.03776022
0.03752548
0.03728594
0.03704152
0.0367925
0.03653931
0.03628231
0.03602186
0.03575836
0.03549217
0.03522357
0.03495277
0.03467992
0.03440529
0.03412966
0.03385362
0.03357756
0.03330187
0.03302688
0.03275294
0.03248036
0.03220943
0.03194044
0.03167362
0.03140919
0.03114733
0.03088813
0.03063156
0.03037746
0.03012514
0.02987325
0.02962315
0.02937963
0.02914852
0.02892963
0.02871966
0.02851713
0.02832112
0.02813085
0.02794574
0.02776539
0.02758949
0.02741783
0.02725022
0.02708651
0.02692655
0.02677022
0.02661736
0.02646785
0.02632153
0.02617826
0.02603788
0.02590021
0.02576509
0.02563236
0.02550181
0.0253733
0.0252466
0.02512159
0.02499802
0.02487585
0.02475474
0.02463481
0.02451561
0.02439759
0.0242791
0.02415996
0.0240573
0.02395354
0.02384227
0.02372383
0.02360251
0.02348149
0.02336175
0.02324308
0.02312507
0.02300746
0.02289017
0.02277316
0.02265643
0.02253995
0.02242377
0.02230792
0.0221925
0.0220776
0.02196333
0.02184984
0.02173726
0.02162577
0.02151551
0.02140667
0.02129942
0.02119393
0.02109038
0.02098893
0.02088976
0.02079303
0.0206989
0.02060751
0.02051901
0.02043351
0.02035116
0.02027206
0.0201963
0.02012398
0.02005518
0.01998998
0.01992847
0.01987071
0.0198168
0.01976669
0.01972026
0.01967712
0.01963686
0.01959903
0.01956388
0.01953132
0.01950166
0.01947434
0.01944957
0.01942603
0.01940439
0.01938491
0.01936835
0.01935452
0.01934244
0.01933121
0.0193204
0.0193099
0.01929965
0.01928957
0.01927952
0.01926933
0.01925883
0.01924785
0.01923623
0.01922382
0.01921051
0.01919618
0.01918073
0.01916407
0.01914616
0.01912695
0.01910643
0.0190846
0.01906149
0.01903714
0.01901164
0.01898505
0.01895749
0.01892907
0.01889992
0.01887016
0.01883996
0.01880946
0.01877882
0.0187482
0.01871776
0.01868765
0.01865801
0.018629
0.01860075
0.01857337
0.01854698
0.01852168
0.01849755
0.01847468
0.01845313
0.01843295
0.01841418
0.01839685
0.01838096
0.01836653
0.01835354
0.01834199
0.01833183
0.01832304
0.01831559
0.01830942
0.01830448
0.01830074
0.01829811
0.01829657
0.01829604
0.01829648
0.01829781
0.0183
0.01830296
0.0183067
0.01831108
0.01831615
0.01832174
0.01832797
0.01833454
0.01834169
0.01834894
0.01835668
0.01836406
0.01837171
0.0183782
0.01838467
0.0183895
0.01839611
0.01840482
0.01842372
0.01845064
0.04879262
0.0524408
0.05562926
0.07878184
0.1031403
0.1323078
0.1522761
0.1719446
0.1902336
0.2066833
0.220403
0.2317359
0.2425433
0.253263
0.2637159
0.2739845
0.2841307
0.2942018
0.3042332
0.3142212
0.3241397
0.3339162
0.3436698
0.3533121
0.3626887
0.3716498
0.3803218
0.3886744
0.3967172
0.4048161
0.4149238
0.440643
0.4451288
0.4487304
0.4512648
0.4530317
0.4541359
0.4546145
0.4544407
0.4537534
0.4521469
0.4490775
0.4453089
0.4408488
0.4358235
0.4303372
0.4244825
0.4183525
0.412019
0.4055572
0.3990245
0.3925043
0.3859889
0.3795198
0.3731222
0.3668153
0.3605985
0.3544738
0.3484408
0.3424964
0.3366235
0.3308172
0.325051
0.3192385
0.3133608
0.3074343
0.301505
0.2955355
0.2891411
0.2828562
0.276675
0.2705669
0.2645147
0.2585101
0.2525471
0.2466196
0.2407219
0.2348525
0.2290221
0.2232396
0.2175107
0.2118491
0.2062732
0.2008009
0.195451
0.1902373
0.1851711
0.1802651
0.1755305
0.1709736
0.1666032
0.1624273
0.1584488
0.1546669
0.1510784
0.1476774
0.1444602
0.1414199
0.1385471
0.1358344
0.1332733
0.130852
0.1285432
0.1263423
0.1242273
0.1222106
0.1202708
0.1183715
0.1165024
0.1146654
0.1128614
0.1110857
0.10933
0.1075871
0.1058523
0.1041237
0.102402
0.1006879
0.09898268
0.09728692
0.09560288
0.09393121
0.09227423
0.0906309
0.08900094
0.08737494
0.08574095
0.08410234
0.08247443
0.08086534
0.07927349
0.07769841
0.07614548
0.07462199
0.07313281
0.07167965
0.07026215
0.06887917
0.06752944
0.06621195
0.06492608
0.06367196
0.06245051
0.0612639
0.06011541
0.05900977
0.05795155
0.05694435
0.05599232
0.05509718
0.05425275
0.05345038
0.05268409
0.05195192
0.05125451
0.05060361
0.05001663
0.049503
0.04906183
0.04868793
0.04837612
0.04812254
0.04792407
0.04777753
0.04767935
0.04762578
0.04761312
0.04763767
0.04769587
0.04778437
0.0478998
0.04803863
0.04819727
0.04837231
0.04856036
0.04875792
0.0489614
0.04916722
0.0493718
0.04957163
0.04976333
0.04994374
0.05010994
0.0502593
0.05038956
0.05049889
0.05058588
0.05064961
0.05068968
0.0507062
0.05069973
0.05067132
0.05062241
0.05055479
0.05047051
0.05037177
0.05026086
0.05014015
0.05001199
0.04987862
0.04974217
0.04960466
0.049468
0.04933397
0.04920381
0.04907776
0.04895519
0.04883548
0.04872028
0.04861118
0.048508
0.04841032
0.04831764
0.04822938
0.04814494
0.04806367
0.0479849
0.04790795
0.04783217
0.04775693
0.04768164
0.04760575
0.04752874
0.04745014
0.04736953
0.04728651
0.04720076
0.04711198
0.04701991
0.04692432
0.04682501
0.04672181
0.04661456
0.04650313
0.04638739
0.04626721
0.04614248
0.04601308
0.04587891
0.04573984
0.04559578
0.04544657
0.04529216
0.04513233
0.04496705
0.044796
0.04461923
0.04443622
0.04424734
0.04405168
0.04385017
0.04364144
0.04342775
0.04320764
0.04298383
0.04275425
0.04251723
0.04227279
0.04202197
0.04176554
0.0415038
0.04123695
0.04096521
0.04068886
0.04040826
0.04012376
0.03983575
0.03954462
0.03925075
0.03895464
0.03865665
0.03835703
0.03805616
0.0377545
0.03745244
0.03715041
0.03684874
0.03654777
0.03624781
0.03594912
0.03565191
0.03535637
0.03506259
0.03477058
0.03448025
0.03419147
0.03390418
0.03361863
0.03333593
0.03305847
0.03278927
0.03252966
0.03227887
0.03203575
0.03179939
0.03156919
0.03134471
0.03112561
0.03091162
0.03070254
0.03049817
0.03029837
0.03010297
0.02991184
0.02972483
0.0295418
0.02936259
0.02918705
0.029015
0.02884628
0.02868069
0.02851805
0.02835819
0.02820087
0.02804594
0.02789316
0.02774241
0.02759338
0.02744608
0.02730007
0.02715562
0.02701197
0.02686995
0.02672786
0.02658684
0.0264451
0.02630367
0.02616353
0.02602463
0.02588648
0.02574858
0.02561061
0.02547246
0.02533412
0.02519569
0.02505728
0.02491902
0.02478102
0.02464338
0.02450622
0.02436967
0.02423385
0.0240989
0.02396497
0.02383222
0.0237008
0.02357088
0.02344263
0.02331622
0.02319184
0.02306966
0.02294986
0.02283261
0.02271809
0.02260646
0.02249789
0.02239254
0.02229055
0.02219206
0.0220972
0.0220061
0.02191886
0.02183559
0.02175639
0.02168132
0.02161046
0.02154382
0.02148137
0.02142304
0.02136866
0.02131798
0.0212707
0.02122674
0.02118608
0.02114876
0.02111459
0.02108346
0.02105533
0.02103054
0.02100855
0.02098856
0.0209702
0.0209535
0.02093845
0.02092497
0.02091288
0.02090197
0.02089202
0.02088276
0.02087395
0.02086532
0.02085664
0.02084769
0.02083826
0.02082817
0.02081725
0.02080536
0.02079236
0.02077815
0.02076265
0.0207458
0.02072756
0.02070792
0.0206869
0.02066454
0.0206409
0.02061605
0.0205901
0.02056315
0.02053534
0.0205068
0.0204777
0.0204482
0.02041845
0.02038864
0.02035894
0.02032951
0.02030052
0.02027212
0.02024447
0.02021771
0.02019195
0.02016732
0.02014391
0.02012181
0.0201011
0.02008182
0.02006403
0.02004774
0.02003299
0.02001976
0.02000806
0.01999785
0.01998913
0.01998184
0.01997595
0.0199714
0.01996816
0.01996616
0.01996534
0.01996565
0.01996703
0.01996942
0.01997276
0.019977
0.01998209
0.01998796
0.0199946
0.02000192
0.02000992
0.02001851
0.0200277
0.02003736
0.02004753
0.02005804
0.02006894
0.02008015
0.02009182
0.02010434
0.02011813
0.02013468
0.02015435
0.02017827
0.02533231
0.02749575
0.02950196
0.03705647
0.0480177
0.06598163
0.07932253
0.09360385
0.1089911
0.124606
0.1406833
0.1582325
0.1767609
0.1955156
0.2150186
0.2370204
0.2700628
0.2843832
0.2986886
0.3128919
0.3270992
0.3405329
0.3528042
0.3641028
0.3746993
0.3847711
0.394419
0.4036845
0.4126571
0.4214827
0.4299406
0.4378998
0.4454217
0.4525607
0.4592652
0.4655067
0.4712544
0.4764296
0.4808929
0.4845836
0.4872537
0.48861
0.4888213
0.4889399
0.4883819
0.4867816
0.4842047
0.4807381
0.4765819
0.471373
0.4655214
0.4591178
0.4519462
0.4443587
0.4365562
0.4286727
0.4208133
0.4130647
0.4054952
0.3981605
0.3910826
0.3842867
0.3777904
0.3715818
0.3656371
0.3599353
0.3544455
0.3491402
0.3439941
0.3389841
0.3340909
0.3293037
0.3246155
0.3200151
0.3154706
0.3109353
0.3063013
0.3016138
0.2968591
0.2920024
0.287095
0.282165
0.2771953
0.2721744
0.2671005
0.2619718
0.256782
0.2515261
0.2462041
0.2408217
0.2353894
0.22993
0.2244673
0.2190202
0.2136061
0.2082414
0.2029505
0.1977589
0.1926885
0.1877581
0.1829862
0.1783898
0.1739809
0.1697667
0.1657509
0.1619348
0.1583169
0.1548934
0.1516589
0.1486063
0.1457272
0.1430113
0.1404479
0.1380232
0.135726
0.1335396
0.13145
0.1294434
0.1275029
0.1256137
0.1237646
0.1219463
0.1201491
0.1183626
0.1165774
0.1147869
0.1129875
0.111178
0.1093589
0.1075316
0.1056979
0.1038612
0.1020242
0.1001903
0.09836166
0.09653977
0.09472339
0.09290895
0.09109904
0.08930328
0.08753012
0.08578291
0.08406363
0.08237631
0.08072618
0.0791171
0.07755065
0.0760265
0.07454331
0.07309926
0.07169243
0.07032104
0.0689837
0.06767955
0.06640852
0.06517134
0.06396957
0.06280485
0.06167831
0.06059099
0.05954291
0.05853106
0.05755113
0.0566007
0.05567995
0.05479132
0.05394279
0.05314569
0.05240821
0.05173294
0.05111901
0.0505647
0.05006871
0.04963008
0.04924768
0.04891995
0.04864493
0.04842049
0.04824434
0.0481142
0.0480278
0.04798277
0.04797667
0.04800718
0.04807197
0.04816858
0.04829438
0.04844659
0.04862227
0.04881832
0.04903143
0.04925815
0.04949488
0.04973788
0.04998338
0.05022759
0.05046677
0.05069737
0.05091604
0.05111983
0.05130619
0.05147308
0.05161902
0.05174309
0.05184499
0.05192495
0.05198371
0.05202245
0.05204274
0.05204644
0.05203562
0.05201245
0.05197919
0.05193807
0.05189121
0.05184044
0.05178699
0.0517315
0.05167436
0.05161576
0.05155612
0.05149724
0.05144029
0.05138523
0.0513318
0.05127968
0.05122851
0.05117784
0.05112715
0.05107589
0.05102351
0.05096947
0.05091324
0.05085434
0.05079231
0.05072674
0.05065729
0.05058364
0.05050554
0.05042277
0.05033518
0.05024263
0.05014504
0.05004232
0.04993445
0.04982139
0.04970313
0.04957967
0.04945098
0.04931707
0.04917792
0.04903349
0.04888374
0.04872866
0.04856812
0.04840209
0.04823039
0.04805296
0.04786953
0.04768012
0.0474844
0.04728259
0.04707443
0.04686058
0.04664103
0.04641577
0.04618411
0.04594584
0.04570097
0.0454496
0.04519182
0.04492771
0.04465736
0.04438101
0.04409893
0.04381148
0.04351903
0.04322199
0.04292076
0.04261575
0.04230738
0.04199609
0.04168226
0.04136634
0.04104877
0.04072998
0.04041038
0.04009035
0.03977026
0.03945044
0.03913118
0.03881273
0.03849531
0.03817905
0.03786404
0.03755036
0.03723807
0.03692739
0.03661879
0.03631316
0.036012
0.03571721
0.03543018
0.03515106
0.03487924
0.03461406
0.03435509
0.03410203
0.03385465
0.03361274
0.03337613
0.03314466
0.0329182
0.03269662
0.03247978
0.03226755
0.03205981
0.03185641
0.03165717
0.03146196
0.03127057
0.03108284
0.03089857
0.03071756
0.0305396
0.03036449
0.03019199
0.03002194
0.02985407
0.02968825
0.0295242
0.02936185
0.02920085
0.02904118
0.02888212
0.02872362
0.02856583
0.0284088
0.02825223
0.02809584
0.02793963
0.02778372
0.0276282
0.02747306
0.02731825
0.02716378
0.02700966
0.02685592
0.02670263
0.02654985
0.02639765
0.02624615
0.02609545
0.02594569
0.02579701
0.02564957
0.02550352
0.02535904
0.0252163
0.0250755
0.02493681
0.02480042
0.02466653
0.02453533
0.024407
0.02428172
0.02415969
0.02404107
0.02392603
0.02381474
0.02370734
0.02360398
0.0235048
0.02340991
0.02331943
0.02323344
0.02315201
0.02307517
0.02300292
0.02293523
0.022872
0.02281307
0.02275824
0.02270741
0.02266054
0.02261763
0.02257859
0.02254335
0.02251184
0.02248391
0.02245907
0.02243698
0.02241754
0.02240068
0.02238625
0.02237399
0.02236363
0.02235493
0.02234764
0.02234151
0.02233631
0.02233177
0.02232764
0.02232368
0.02231964
0.02231531
0.02231048
0.02230496
0.02229857
0.02229115
0.02228259
0.02227278
0.02226164
0.02224913
0.02223521
0.02221989
0.02220318
0.02218514
0.02216583
0.02214533
0.02212375
0.02210121
0.02207783
0.02205378
0.02202921
0.02200428
0.02197917
0.02195405
0.02192908
0.02190443
0.02188027
0.02185674
0.02183398
0.02181213
0.02179131
0.0217716
0.02175312
0.02173592
0.02172008
0.02170563
0.02169261
0.02168103
0.0216709
0.02166221
0.02165495
0.02164909
0.02164459
0.02164143
0.02163955
0.0216389
0.02163944
0.02164111
0.02164386
0.02164763
0.02165238
0.02165805
0.02166459
0.02167196
0.02168013
0.02168904
0.02169867
0.02170899
0.02171997
0.02173159
0.02174384
0.02175673
0.02177028
0.02178463
0.02179986
0.02181641
0.02183428
0.02185461
0.02187652
0.02190041
0.009635825
0.01127496
0.01243888
0.01785358
0.02411847
0.03228202
0.03939493
0.04766345
0.05679877
0.0667758
0.0779425
0.09120669
0.1059299
0.1224738
0.1422124
0.1715752
0.1866573
0.2022744
0.2178313
0.2332324
0.2483577
0.2630979
0.2773558
0.2910621
0.3041234
0.3165472
0.3286948
0.3420447
0.3554816
0.3690105
0.3825269
0.3955376
0.4076648
0.4188724
0.4292537
0.4389282
0.4479934
0.456531
0.4644174
0.4715352
0.478146
0.4842314
0.4897699
0.4947379
0.4990868
0.5027514
0.5056496
0.5076554
0.5085391
0.5082653
0.5070812
0.5048352
0.5015927
0.498076
0.4935932
0.4880824
0.4813198
0.4733736
0.4650219
0.4560229
0.4464944
0.4365921
0.426459
0.4163132
0.4063474
0.3967237
0.3875597
0.378945
0.3709311
0.3635423
0.3567797
0.3506131
0.3450083
0.3399053
0.3352363
0.330932
0.3269261
0.323174
0.31964
0.3162963
0.3131074
0.3100503
0.3070183
0.303953
0.3008992
0.2978539
0.2947829
0.2916641
0.2884711
0.2851755
0.2817676
0.2782421
0.2745872
0.270793
0.2668562
0.262772
0.2585339
0.2541368
0.2495833
0.2448875
0.2400712
0.2351447
0.2301267
0.225044
0.21992
0.2147842
0.2096688
0.204605
0.1996222
0.1947474
0.1900051
0.1854165
0.1809978
0.1767607
0.172712
0.1688557
0.1651941
0.1617265
0.1584506
0.155361
0.1524508
0.1497105
0.1471299
0.1446967
0.1423983
0.1402193
0.1381449
0.1361614
0.1342526
0.1324012
0.1305914
0.1288099
0.127044
0.1252816
0.1235115
0.1217245
0.1199141
0.1180771
0.1162128
0.1143225
0.1124087
0.1104756
0.1085276
0.1065698
0.1046069
0.1026427
0.1006805
0.09872301
0.09677498
0.09484423
0.09293887
0.09106488
0.08922671
0.0874288
0.08567561
0.08397057
0.08231532
0.08070982
0.07915279
0.07764221
0.07617565
0.07475053
0.07336436
0.07201494
0.07070057
0.06942005
0.06817268
0.06695799
0.06577539
0.0646241
0.0635029
0.06240971
0.06134208
0.06029865
0.05928001
0.05828894
0.05733098
0.05641334
0.05554222
0.05472114
0.05395132
0.05323304
0.05256647
0.05195181
0.05138909
0.05087796
0.05041772
0.05000743
0.04964596
0.04933204
0.04906438
0.04884156
0.04866214
0.0485247
0.04842782
0.04837005
0.04834988
0.04836574
0.04841594
0.04849866
0.04861188
0.04875336
0.04892065
0.04911099
0.04932136
0.04954846
0.04978873
0.05003842
0.05029364
0.05055048
0.05080509
0.05105382
0.05129328
0.05152053
0.05173307
0.05192898
0.05210688
0.05226602
0.0524062
0.05252775
0.0526315
0.05271865
0.05279072
0.05284946
0.05289667
0.05293417
0.05296352
0.05298601
0.0530027
0.05301441
0.05302175
0.05302513
0.05302514
0.05302297
0.05301926
0.05301406
0.05300722
0.05299855
0.05298777
0.05297448
0.05295825
0.05293862
0.0529151
0.05288725
0.05285463
0.05281683
0.05277351
0.05272437
0.05266917
0.05260773
0.05253991
0.05246564
0.05238488
0.05229765
0.05220399
0.05210397
0.05199769
0.05188526
0.05176679
0.05164239
0.05151216
0.05137621
0.05123462
0.05108743
0.05093468
0.05077638
0.05061246
0.05044288
0.05026753
0.05008635
0.0498992
0.04970608
0.04950693
0.04930182
0.04909071
0.04887348
0.04864991
0.04841987
0.04818316
0.04793964
0.04768925
0.04743201
0.04716799
0.04689731
0.04662016
0.04633679
0.04604749
0.04575259
0.04545246
0.04514748
0.04483805
0.04452463
0.04420763
0.0438875
0.0435647
0.04323967
0.04291285
0.04258466
0.0422555
0.04192573
0.04159569
0.04126569
0.04093597
0.04060677
0.04027829
0.03995071
0.03962429
0.03929935
0.03897645
0.0386564
0.03834029
0.03802945
0.03772495
0.03742721
0.03713606
0.0368512
0.03657236
0.03629939
0.03603213
0.03577045
0.03551424
0.03526339
0.0350178
0.03477737
0.03454199
0.03431158
0.034086
0.03386514
0.03364885
0.03343699
0.03322938
0.03302586
0.03282623
0.03263029
0.03243783
0.03224865
0.03206251
0.0318792
0.03169848
0.03152014
0.03134394
0.03116969
0.03099711
0.03082597
0.03065601
0.03048715
0.03031922
0.03015181
0.02998461
0.02981761
0.02965091
0.02948463
0.02931878
0.02915333
0.02898824
0.02882349
0.02865908
0.02849506
0.02833149
0.02816841
0.02800593
0.02784413
0.02768312
0.02752304
0.02736401
0.0272062
0.02704977
0.02689488
0.02674173
0.02659049
0.02644136
0.02629454
0.02615023
0.02600863
0.02586994
0.02573436
0.0256021
0.02547334
0.02534827
0.02522707
0.02510993
0.024997
0.02488844
0.02478439
0.02468498
0.02459032
0.02450051
0.02441559
0.02433559
0.02426052
0.0241903
0.02412483
0.02406406
0.0240079
0.0239563
0.02390923
0.02386663
0.0238284
0.02379439
0.02376441
0.02373821
0.0237156
0.02369642
0.02368049
0.02366758
0.02365745
0.02364984
0.0236445
0.02364116
0.02363956
0.02363944
0.02364052
0.02364252
0.02364518
0.02364822
0.02365138
0.02365442
0.02365711
0.02365921
0.02366054
0.02366091
0.02366019
0.02365825
0.02365502
0.02365044
0.02364446
0.02363707
0.02362828
0.02361811
0.0236066
0.02359384
0.02357991
0.02356492
0.023549
0.02353229
0.02351493
0.02349709
0.02347892
0.0234606
0.02344228
0.02342414
0.02340632
0.02338897
0.02337223
0.02335623
0.02334109
0.02332691
0.02331377
0.02330176
0.02329092
0.02328131
0.02327296
0.02326589
0.0232601
0.02325559
0.02325236
0.02325037
0.0232496
0.02325001
0.02325158
0.02325426
0.023258
0.02326276
0.0232685
0.02327517
0.02328273
0.02329114
0.02330037
0.02331038
0.02332115
0.02333265
0.02334486
0.02335777
0.02337138
0.02338569
0.02340075
0.02341661
0.02343342
0.02345129
0.02347052
0.02349114
0.02351382
0.02353765
0.02356194
0.002636775
0.009669422
0.01389878
0.01871366
0.02416155
0.03054536
0.03798057
0.04647201
0.05629074
0.06848173
0.08699797
0.09787258
0.1097409
0.1223249
0.135571
0.1493212
0.163468
0.1778237
0.1921532
0.2063027
0.2202227
0.2358689
0.2513461
0.2664465
0.2810884
0.2951946
0.3087529
0.3217692
0.3343717
0.3465862
0.358434
0.3702549
0.382452
0.3947563