/*--------------------------------*- C++ -*----------------------------------*\
| =========                 |                                                 |
| \\      /  F ield         | foam-extend: Open Source CFD                    |
|  \\    /   O peration     | Version:     3.1                                |
|   \\  /    A nd           | Web:         http://www.extend-project.de       |
|    \\/     M anipulation  |                                                 |
\*---------------------------------------------------------------------------*/
FoamFile
{
    version     2.0;
    format      ascii;
    class       volScalarField;
    location    "6.5";
    object      nut;
}
// * * * * * * * * * * * * * * * * * * * * * * * * * * * * * * * * * * * * * //

dimensions      [0 2 -1 0 0 0 0];

internalField   nonuniform List<scalar> 
119952
(
3.477022e-05
2.203308e-05
2.212608e-05
2.46793e-05
2.625695e-05
2.460242e-05
2.358127e-05
2.288407e-05
2.233135e-05
2.184681e-05
2.139231e-05
2.095272e-05
2.052579e-05
2.01204e-05
1.974792e-05
1.941607e-05
1.912199e-05
1.885094e-05
1.856665e-05
1.827639e-05
2.470702e-05
2.303566e-05
2.257638e-05
3.07056e-05
2.89998e-05
2.824107e-05
2.769538e-05
2.751776e-05
2.696035e-05
2.713642e-05
2.533481e-05
2.755493e-05
3.098728e-05
3.440452e-05
3.79234e-05
4.158704e-05
4.543259e-05
4.937643e-05
5.338999e-05
6.046367e-05
0.0002557509
0.000291319
0.0003296658
0.0003687007
0.0004068925
0.0004434649
0.0004780519
0.0005105754
0.0005405854
0.0007305464
0.0007544955
0.000775914
0.0007951731
0.0008127148
0.0008294366
0.0008461927
0.0008635721
0.00088198
0.0009028474
0.0009253746
0.0009478907
0.000971598
0.0009970392
0.001024109
0.001052555
0.001082134
0.001112675
0.001144121
0.001092356
0.001188202
0.001199239
0.001213235
0.001223952
0.001227495
0.001223499
0.001214798
0.001202331
0.001186606
0.001168107
0.001147427
0.00112527
0.001102489
0.001080043
0.001058896
0.001039904
0.00102374
0.001011008
0.001002544
0.001000413
0.0009995769
0.001002365
0.001011139
0.0009641195
0.0009916738
0.0009973797
0.000974768
0.0009877103
0.0009947202
0.0009879216
0.0009875329
0.0009907258
0.0009955451
0.001001335
0.001007869
0.001014957
0.001022474
0.001030334
0.001038471
0.001046823
0.0010553
0.001063821
0.001072296
0.001080637
0.001088756
0.001096573
0.001104009
0.001110992
0.001117426
0.001123192
0.001128197
0.001132404
0.00113579
0.001138362
0.001140171
0.001141289
0.001141784
0.0011417
0.001141105
0.001140051
0.001138569
0.001136713
0.001134516
0.001132012
0.001129234
0.0011262
0.001122946
0.001119496
0.001115866
0.001112072
0.001108109
0.001103993
0.001099753
0.001095395
0.001090927
0.001086383
0.001081944
0.001078362
0.00107257
0.001065175
0.001057204
0.001049014
0.001040843
0.001032841
0.001025085
0.00101757
0.001010265
0.001003134
0.0009961399
0.0009892443
0.0009824113
0.0009756033
0.0009687915
0.0009619488
0.0009550506
0.0009480752
0.000941003
0.0009338167
0.0009265011
0.0009190416
0.0009114256
0.0009036418
0.0008956799
0.0008875304
0.0008791861
0.0008706398
0.0008618868
0.0008529215
0.0008437407
0.0008343422
0.0008247255
0.000814891
0.0008048398
0.0007945727
0.0007841262
0.0007734807
0.0007626378
0.0007516295
0.000740462
0.000729139
0.0007176749
0.0007060899
0.0006944097
0.0006826536
0.0006708575
0.0006590497
0.0006473865
0.0006373441
0.0005301673
0.0005152567
0.0004749595
0.0004442521
0.0004221345
0.0004050772
0.0003911964
0.000379393
0.000369009
0.0003596351
0.0003510086
0.0003429624
0.0003353793
0.0003281757
0.0003212892
0.0003147127
0.0003083931
0.0003023295
0.0002964336
0.0002907236
0.0002851991
0.0002798517
0.0002746708
0.0002696463
0.0002647708
0.0002600396
0.0002554465
0.0002509909
0.0002466697
0.0002424844
0.0002384387
0.0002345424
0.0002308176
0.000227383
0.00022431
0.0002241109
0.0002206689
0.0002232285
0.000225677
0.0002289126
0.0002323437
0.0002359025
0.0002395617
0.0002432985
0.0002470864
0.0002508978
0.0002547489
0.0002585927
0.000262429
0.0002662534
0.0002700599
0.0002738455
0.0002776081
0.0002813465
0.0002850603
0.0002887488
0.0002924114
0.0002960481
0.0002996602
0.0003032486
0.0003068088
0.0003103296
0.0003138577
0.0003173476
0.000320815
0.0003242627
0.0003276932
0.0003309263
0.0003342097
0.0003380342
0.0004397068
0.0004151113
0.0004387944
0.0004571555
0.0004625971
0.0004676053
0.0004724211
0.0004770711
0.0004815683
0.0004859244
0.0004901368
0.0004942358
0.0004982221
0.0005021102
0.0005059127
0.0005096394
0.0005132992
0.0005169001
0.0005204492
0.000523953
0.0005274174
0.0005308477
0.0005342495
0.0005376278
0.0005409879
0.0005443339
0.0005476703
0.0005510015
0.0005543317
0.0005576649
0.0005610048
0.000564355
0.000567719
0.0005710995
0.0005744994
0.0005779209
0.0005813656
0.0005848345
0.0005883279
0.0005918449
0.0005953835
0.0005989387
0.0006025019
0.0006060583
0.0006095945
0.000613061
0.000616179
0.0006190708
0.0006219364
0.0006247587
0.0006275224
0.0006302342
0.0006329012
0.000635935
0.0006391282
0.0006404489
0.0006417011
0.0006429939
0.0006443492
0.0006457655
0.0006472233
0.0006487101
0.000650218
0.0006517392
0.0006532664
0.0006547899
0.0006563034
0.0006578016
0.0006592772
0.0006607242
0.0006621374
0.0006635138
0.0006648526
0.0006661547
0.0006674215
0.0006686553
0.0006698589
0.0006710365
0.0006721938
0.000673337
0.0006744722
0.0006756042
0.0006767379
0.0006778784
0.0006790314
0.000680203
0.0006813995
0.0006826269
0.0006838902
0.0006851938
0.0006865417
0.0006879379
0.0006893859
0.0006908885
0.0006924471
0.0006940618
0.0006957328
0.0006974602
0.0006992444
0.0007010861
0.0007029858
0.0007049435
0.0007069585
0.0007090297
0.0007111559
0.0007133356
0.0007155675
0.0007178501
0.0007201823
0.0007225628
0.0007249903
0.0007274637
0.0007299819
0.0007325442
0.0007351496
0.0007377978
0.0007404885
0.0007432219
0.0007459984
0.0007488192
0.0007516855
0.0007545999
0.0007575644
0.0007605837
0.0007636612
0.0007668053
0.0007700221
0.0007733218
0.0007767156
0.0007802293
0.0007838825
0.0007877201
0.0007917868
0.0007961839
0.0008010692
0.000806767
0.00081371
0.0008235622
0.0006277272
6.987374e-05
8.223782e-05
9.579558e-05
0.0001059586
0.0001142015
0.0001214319
0.0001280767
0.000134306
0.0001418163
0.0004133801
0.0006036695
0.000786682
0.0009435437
0.001071862
0.001176342
0.001263237
0.001337584
0.001403002
0.001983944
0.002060293
0.00213595
0.00220548
0.002267741
0.002322411
0.0023695
0.002409292
0.002442191
0.002468699
0.002490878
0.002506874
0.002519505
0.002531288
0.002543216
0.0025557
0.002568941
0.002583024
0.002597824
0.002603994
0.002598763
0.002596988
0.002599481
0.002605355
0.002613663
0.002623604
0.002634408
0.002645325
0.002655801
0.00266506
0.002672198
0.002677541
0.00268041
0.002680361
0.002677163
0.002670607
0.00266065
0.002646805
0.003080666
0.003061954
0.003043394
0.003024989
0.003006505
0.002988015
0.00296978
0.002952144
0.002935432
0.002920101
0.002906639
0.002895009
0.002885389
0.002877968
0.002872912
0.002870208
0.002870044
0.002872633
0.002878421
0.00288488
0.002888722
0.002894509
0.002899585
0.002900315
0.002895615
0.002886308
0.002872593
0.002854129
0.002830631
0.002801959
0.002768154
0.002729429
0.002686234
0.002639186
0.002589113
0.002536939
0.002483805
0.00243091
0.002379666
0.002331061
0.002285016
0.002242918
0.002206364
0.002170968
0.002135085
0.002091922
0.002042005
0.002027025
0.001994494
0.001971095
0.0019542
0.001942158
0.001920472
0.001903077
0.001891892
0.001885845
0.001884998
0.001889071
0.001897497
0.001909677
0.001925148
0.001943573
0.001964709
0.001988246
0.002014102
0.002042231
0.0020719
0.002094152
0.0021163
0.00213882
0.002161608
0.002184569
0.002207613
0.002230665
0.002253663
0.002276559
0.002299309
0.002321875
0.002344226
0.002366334
0.002388172
0.002409721
0.002430963
0.002451887
0.002472484
0.002492753
0.002512693
0.00253231
0.002551609
0.002570595
0.002589276
0.002607667
0.002625777
0.002643618
0.002661214
0.002678614
0.002695929
0.002713302
0.00273061
0.002747644
0.002764449
0.002781001
0.002797171
0.002812847
0.002827953
0.002842425
0.002856216
0.002869292
0.002881626
0.0028932
0.002903996
0.002914034
0.002923362
0.002931994
0.002939932
0.002947175
0.002953717
0.002959553
0.002964675
0.002969076
0.002972745
0.002975673
0.00297785
0.002979264
0.002979905
0.002979763
0.002978826
0.002977085
0.00297453
0.002971153
0.002966946
0.002961903
0.002956021
0.002949294
0.00294172
0.002933306
0.002924049
0.002913932
0.00290284
0.002890734
0.002877623
0.002863593
0.002848608
0.002832846
0.002816225
0.002799197
0.002781814
0.0027687
0.00263241
0.002485205
0.002386747
0.002316734
0.002263922
0.002221661
0.002186034
0.002154747
0.002126338
0.002099804
0.002074532
0.002050147
0.002026414
0.002003185
0.001980376
0.001957963
0.001935933
0.001914264
0.00189294
0.001871954
0.001851298
0.001830968
0.001810958
0.001791267
0.001771899
0.00175286
0.001734163
0.001715827
0.001697878
0.001680356
0.001663319
0.001646864
0.001631166
0.001616627
0.001604343
0.001595177
0.001588429
0.001583555
0.001579729
0.00157667
0.001574215
0.001572253
0.001570703
0.001569508
0.001568629
0.001568032
0.001567691
0.001567584
0.001567691
0.001567995
0.001568482
0.001569137
0.001569947
0.0015709
0.001571983
0.001573186
0.001574496
0.001575902
0.001577394
0.001578961
0.001580592
0.001582275
0.001584
0.001585756
0.001587533
0.001589319
0.001591104
0.001592871
0.00159458
0.001595957
0.001887607
0.001893905
0.001900189
0.001905893
0.001910908
0.001915278
0.001919083
0.001922389
0.001925262
0.001927767
0.001929966
0.001931908
0.001933631
0.001935166
0.001936544
0.00193779
0.001938926
0.001939974
0.001940954
0.001941883
0.001942779
0.00194366
0.001944543
0.001945445
0.001946381
0.001947369
0.001948424
0.00194956
0.001950795
0.001952141
0.001953613
0.001955225
0.001956987
0.001958911
0.001961007
0.001963282
0.001965741
0.001968389
0.001971223
0.001974244
0.00197744
0.001980803
0.00198431
0.001987953
0.001991666
0.001995371
0.001998957
0.002002473
0.002005972
0.002009511
0.002013018
0.002016524
0.002019994
0.002023968
0.002027798
0.002030796
0.00203334
0.002035742
0.002038044
0.002040226
0.002042265
0.002044134
0.002045797
0.002047219
0.002048368
0.002049218
0.002049751
0.002049948
0.0020498
0.002049299
0.00204844
0.002047226
0.002045663
0.002043758
0.002041528
0.002038987
0.002036159
0.002033069
0.002029745
0.00202622
0.002022526
0.002018701
0.002014779
0.0020108
0.0020068
0.002002819
0.001998896
0.001995067
0.001991368
0.001987833
0.001984494
0.001981381
0.001978519
0.001975933
0.001973641
0.001971658
0.001969999
0.001968672
0.001967687
0.001967048
0.001966756
0.001966813
0.001967216
0.001967958
0.001969033
0.001970434
0.00197215
0.00197417
0.001976485
0.001979081
0.001981948
0.001985072
0.001988443
0.001992049
0.001995881
0.001999927
0.00200418
0.00200863
0.002013276
0.002018107
0.002023128
0.00202833
0.002033725
0.002039304
0.002045094
0.002051083
0.00205732
0.002063786
0.002070568
0.002077641
0.002085164
0.002093099
0.002101725
0.002110973
0.002121245
0.002132451
0.002146148
0.002164077
0.002185456
2.819853e-05
3.287512e-05
3.986594e-05
4.765428e-05
5.637213e-05
6.610183e-05
7.703655e-05
8.919575e-05
0.0001026285
0.000125571
0.0006313464
0.0007500236
0.0008762161
0.001011832
0.001159534
0.001325164
0.001521461
0.001789293
0.002346378
0.003680304
0.003939919
0.004142128
0.004321972
0.004484215
0.004622219
0.004750878
0.004885792
0.005063721
0.005417758
0.005656867
0.00573797
0.005806075
0.005864393
0.00591281
0.005954073
0.00598956
0.006020728
0.006052407
0.005988226
0.006047217
0.006122588
0.006188312
0.006240442
0.0062809
0.006311135
0.006333288
0.006349422
0.006359644
0.006365313
0.006370707
0.006376181
0.006381189
0.006384037
0.006382942
0.006376372
0.006361834
0.006983893
0.006958133
0.006920994
0.006875871
0.00682458
0.006768035
0.006707017
0.006642223
0.006574465
0.006504222
0.006432172
0.006359632
0.006287186
0.006215457
0.006145177
0.00607696
0.006011292
0.005948626
0.005889153
0.005832677
0.005779508
0.00572975
0.005682979
0.00563893
0.005597304
0.005557699
0.005519716
0.005482775
0.005446479
0.00541064
0.005374366
0.005337279
0.0052989
0.005259577
0.005220143
0.00518053
0.005139682
0.005098765
0.005046265
0.004988715
0.004927137
0.00486279
0.004796933
0.004730744
0.004665239
0.004601523
0.004540498
0.004483259
0.004430538
0.004382756
0.004340475
0.004303805
0.004272966
0.004247449
0.004227323
0.00421142
0.004199341
0.004187355
0.004174216
0.004162021
0.004149837
0.00413575
0.004118477
0.004098048
0.004074541
0.004047774
0.004017408
0.003983067
0.003944425
0.003901242
0.003853436
0.003801061
0.003744377
0.003683759
0.003619839
0.003553289
0.003485129
0.003416249
0.003346896
0.003277916
0.00321048
0.003143129
0.003075113
0.003007153
0.002940292
0.002873838
0.002811428
0.002756564
0.002709127
0.002668201
0.002633398
0.002604251
0.002580371
0.00256142
0.002547078
0.002537042
0.002531026
0.002528763
0.00253
0.002534498
0.002542032
0.002552385
0.002565341
0.002580688
0.002598225
0.002617763
0.002639095
0.002662032
0.002686401
0.002712043
0.002738817
0.002766595
0.002795265
0.002824729
0.002854899
0.002885691
0.002917029
0.00294884
0.002981052
0.0030136
0.00304642
0.003079454
0.003112647
0.003145949
0.003179318
0.003212715
0.003246109
0.003279468
0.003312768
0.00334599
0.003379118
0.003412138
0.003445041
0.00347783
0.003510519
0.003543112
0.003575537
0.003607647
0.00363934
0.003670719
0.00370176
0.003732416
0.003762629
0.003792338
0.00382148
0.003849999
0.003877846
0.003904975
0.003931346
0.003956921
0.003981671
0.004005568
0.004028582
0.004050688
0.004071861
0.004092078
0.004111317
0.004129558
0.004146784
0.004162977
0.004178121
0.004192202
0.004205207
0.004217123
0.004227939
0.004237645
0.004246231
0.004253689
0.004260013
0.004265195
0.004269231
0.004272117
0.004273853
0.004274435
0.004273865
0.004272129
0.004269227
0.004265125
0.004259839
0.004253334
0.004245675
0.004236791
0.004226844
0.004215666
0.00420363
0.004189993
0.004165812
0.004147319
0.004131566
0.004116799
0.00410205
0.004086792
0.004070748
0.004053802
0.004035936
0.004017182
0.003997603
0.00397727
0.003956258
0.003934632
0.003912441
0.003889701
0.003866368
0.003842546
0.003818378
0.003793971
0.003769409
0.003744769
0.003720116
0.003695517
0.00367103
0.003646719
0.003622649
0.003598892
0.003575528
0.003552661
0.003530419
0.003508987
0.003488514
0.003468734
0.00344991
0.003432442
0.003416623
0.003402269
0.003389036
0.003376764
0.003365341
0.003354674
0.003344697
0.003335358
0.003326622
0.00331846
0.00331085
0.003303774
0.003297216
0.003291159
0.003285591
0.003280495
0.003275857
0.003271661
0.003267891
0.00326453
0.003261559
0.00325896
0.003256711
0.003254795
0.003253186
0.003251867
0.00325081
0.003250001
0.003249404
0.003249014
0.003248783
0.003248727
0.003248726
0.003249782
0.003243383
0.003237763
0.003232409
0.003227316
0.003222692
0.003218637
0.003215113
0.003212025
0.003209287
0.003206831
0.003204613
0.003202596
0.003200748
0.003199044
0.003197462
0.003195988
0.003194611
0.003193327
0.003192133
0.00319103
0.003190023
0.003189119
0.003188329
0.003187664
0.003187139
0.003186769
0.003186571
0.003186562
0.003186762
0.00318719
0.003187864
0.003188803
0.003190025
0.003191548
0.003193387
0.003195556
0.003198067
0.003200927
0.003204143
0.003207715
0.00321164
0.003215908
0.003220505
0.003225404
0.003230563
0.003235922
0.003241426
0.003247051
0.00325282
0.003258736
0.003264791
0.003270942
0.003277169
0.00328336
0.003289413
0.00329541
0.00330142
0.003307392
0.003313207
0.003318765
0.003324009
0.003328908
0.003333434
0.00333755
0.00334122
0.003344403
0.003347063
0.003349166
0.003350683
0.003351592
0.003351875
0.003351519
0.003350519
0.003348877
0.003346599
0.003343702
0.003340205
0.003336138
0.003331535
0.003326439
0.003320894
0.003314953
0.003308669
0.003302101
0.00329531
0.003288359
0.003281312
0.003274234
0.003267187
0.003260235
0.003253438
0.003246853
0.003240535
0.003234532
0.003228889
0.003223645
0.003218837
0.003214493
0.003210639
0.003207295
0.003204475
0.00320219
0.003200445
0.003199239
0.003198571
0.003198433
0.003198815
0.003199705
0.003201088
0.003202949
0.003205269
0.003208032
0.003211218
0.003214809
0.003218786
0.003223135
0.003227837
0.00323288
0.00323825
0.00324394
0.003249939
0.003256247
0.00326286
0.003269786
0.003277027
0.003284606
0.003292535
0.003300857
0.003309598
0.003318839
0.00332863
0.003339103
0.00335035
0.003362573
0.003375934
0.003390795
0.003407638
0.00342679
0.003447356
3.758195e-05
5.774763e-05
0.0001387601
0.0004486036
0.0007562913
0.001314247
0.001765567
0.00230327
0.002916184
0.003393129
0.003722238
0.003976068
0.004238284
0.004511771
0.004785891
0.005058882
0.00533268
0.00560906
0.005888813
0.006170809
0.006451624
0.006724464
0.006978861
0.007218385
0.007442188
0.007644783
0.007835175
0.008013371
0.008181374
0.008353586
0.008586081
0.009290085
0.009299051
0.009229599
0.008940517
0.008665383
0.00838814
0.008110119
0.007824272
0.007535432
0.007294937
0.00711795
0.006969358
0.006851168
0.006764788
0.00671024
0.006687066
0.006691923
0.006727199
0.006788597
0.006860456
0.006947236
0.00706391
0.007196101
0.007340506
0.007494022
0.00765807
0.007827995
0.008002916
0.008187042
0.008386615
0.008596462
0.008836426
0.008962029
0.008970307
0.008970411
0.008962953
0.008948603
0.008906144
0.008860645
0.008811235
0.00875722
0.008698381
0.008634725
0.008566399
0.008493659
0.008416866
0.008336516
0.008253376
0.008168214
0.008081777
0.007994895
0.007908388
0.007823004
0.007739646
0.007658655
0.007580251
0.007504669
0.00743212
0.007362715
0.007296588
0.007233794
0.007174247
0.007117718
0.007063909
0.007012473
0.006963123
0.006915556
0.006869412
0.006824385
0.006780093
0.00673572
0.00668883
0.006639556
0.006586486
0.006531068
0.006471628
0.006407203
0.006338118
0.006265193
0.006189287
0.00611123
0.006031877
0.005952246
0.005873465
0.005796726
0.005723167
0.005653737
0.005589271
0.005530316
0.005477299
0.00543025
0.005389117
0.005353332
0.005322239
0.005294365
0.005268372
0.005243956
0.005220794
0.005197977
0.005174421
0.00514945
0.005122704
0.005093863
0.005062517
0.005028188
0.004990405
0.004948746
0.004902888
0.004852604
0.004797805
0.004738509
0.004674901
0.004607271
0.004536076
0.004461789
0.004384847
0.004305644
0.004224737
0.004142116
0.004057728
0.003971868
0.003885451
0.003799253
0.00371517
0.003635425
0.003561293
0.003493102
0.003430858
0.003374497
0.003323959
0.00327918
0.003240061
0.003206456
0.003178181
0.003155028
0.00313677
0.003123171
0.003113988
0.003108977
0.003107891
0.00311048
0.003116503
0.003125722
0.003137907
0.003152834
0.003170292
0.003190082
0.003212023
0.003235949
0.00326171
0.003289172
0.003318211
0.003348714
0.003380573
0.003413686
0.003447956
0.003483287
0.003519588
0.003556768
0.003594743
0.003633428
0.003672746
0.003712624
0.003752992
0.003793785
0.003834944
0.003876415
0.003918148
0.003960101
0.00400223
0.0040445
0.004086876
0.004129312
0.004171733
0.004214001
0.004255942
0.004297413
0.004338588
0.004379628
0.004420465
0.004461031
0.004501258
0.004541081
0.004580435
0.004619258
0.004657488
0.004695065
0.004731933
0.004768035
0.004803321
0.004837739
0.004871241
0.004903783
0.00493532
0.004965813
0.004995226
0.005023523
0.005050674
0.00507665
0.005101425
0.005124975
0.00514728
0.005168321
0.005188081
0.005206545
0.005223701
0.005239538
0.005254049
0.005267223
0.005279058
0.005289548
0.005298691
0.005306481
0.005312919
0.005317992
0.00532171
0.005324053
0.005325052
0.005324674
0.005322986
0.005319938
0.005315667
0.005310064
0.005302735
0.005294061
0.005284208
0.005273315
0.005261499
0.005248819
0.005235289
0.005220919
0.00520572
0.005189711
0.005172921
0.00515538
0.005137126
0.005118192
0.005098615
0.005078431
0.005057672
0.005036376
0.005014597
0.004992395
0.004969831
0.004946964
0.004923852
0.004900551
0.004877116
0.004853607
0.004830076
0.004806582
0.004783184
0.004759945
0.004736933
0.00471423
0.004691934
0.004670151
0.004649038
0.004628819
0.004609699
0.004591704
0.004574715
0.004558618
0.004543329
0.004528793
0.004514975
0.004501845
0.004489386
0.004477584
0.004466429
0.004455913
0.00444603
0.004436775
0.00442814
0.004420117
0.004412699
0.004405874
0.004399631
0.004393956
0.004388834
0.004384248
0.004380179
0.004376607
0.004373511
0.004370867
0.004368654
0.004366841
0.004365412
0.004364326
0.004363579
0.004363107
0.004362938
0.004363
0.00436289
0.004362517
0.004362031
0.004361573
0.004361176
0.004360827
0.004360504
0.004360194
0.004359893
0.004359603
0.004359335
0.004359094
0.004358887
0.004358717
0.004358589
0.004358504
0.004358469
0.00435849
0.004358576
0.004358736
0.004358984
0.004359334
0.004359803
0.00436041
0.004361176
0.004362124
0.004363277
0.004364662
0.004366305
0.004368234
0.004370476
0.004373059
0.004376011
0.004379358
0.004383126
0.004387339
0.004392017
0.00439718
0.004402841
0.004409012
0.004415697
0.004422895
0.004430598
0.004438786
0.004447435
0.004456507
0.004465961
0.00447576
0.004485892
0.004496349
0.004507113
0.004518144
0.004529393
0.004540817
0.004552397
0.004564058
0.004575686
0.004587218
0.004598616
0.004609836
0.004620822
0.004631512
0.00464184
0.004651735
0.004661128
0.004669949
0.00467813
0.004685611
0.004692336
0.004698258
0.004703334
0.00470753
0.004710819
0.004713185
0.004714617
0.004715117
0.004714694
0.004713368
0.004711168
0.004708134
0.004704309
0.00469975
0.004694516
0.004688675
0.004682299
0.004675466
0.004668257
0.004660755
0.004653045
0.004645213
0.004637342
0.004629516
0.004621813
0.00461431
0.004607077
0.004600179
0.004593677
0.004587623
0.004582065
0.004577043
0.004572592
0.004568737
0.004565499
0.004562892
0.004560922
0.004559592
0.004558898
0.004558834
0.004559389
0.004560547
0.004562292
0.004564606
0.004567468
0.004570858
0.004574754
0.004579137
0.004583987
0.004589286
0.004595018
0.004601171
0.004607733
0.004614699
0.004622066
0.004629838
0.004638022
0.004646637
0.004655702
0.004665257
0.004675343
0.004686027
0.004697389
0.004709524
0.004722583
0.004736672
0.004752072
0.004768829
0.004787459
0.004807535
0.004828808
2.280913e-05
3.559501e-05
5.189651e-05
0.0002308249
0.0003695843
0.0005980813
0.0008397418
0.001063961
0.001349271
0.001632663
0.001944852
0.002352816
0.002838154
0.003390528
0.004020339
0.004830056
0.006273112
0.006849141
0.007394266
0.007876073
0.008293353
0.008646777
0.008952946
0.00922589
0.009473289
0.009699875
0.009908053
0.01
0.01
0.01
0.01
0.01
0.01
0.01
0.01
0.01
0.01
0.01
0.01
0.01
0.009700076
0.009241524
0.009311039
0.009021497
0.00868605
0.008393197
0.008087871
0.007779722
0.00747907
0.007185449
0.006915922
0.006693255
0.006528971
0.006394431
0.00628657
0.006209615
0.006164897
0.006152486
0.006171046
0.006217328
0.006294196
0.006394326
0.006514268
0.006655752
0.006818376
0.006997349
0.00719477
0.007411203
0.007647842
0.007910601
0.008199995
0.008512129
0.008842176
0.009180802
0.009524028
0.009842535
0.009873447
0.009893811
0.009903913
0.009902816
0.009892022
0.009872495
0.009844453
0.009808217
0.009764236
0.009712986
0.009654888
0.009590479
0.009520413
0.009445535
0.009366832
0.00928625
0.009204965
0.009123096
0.009040767
0.008958017
0.008875612
0.008794365
0.008714912
0.008637736
0.00856325
0.008491764
0.008423438
0.008358312
0.008296325
0.008237349
0.00818114
0.008127338
0.008075502
0.008025073
0.007975517
0.007926197
0.007876535
0.007825681
0.007773068
0.007717822
0.007659637
0.007597957
0.007532211
0.007462219
0.007388153
0.007310383
0.007229401
0.007145828
0.007060468
0.006974302
0.006888433
0.006804021
0.006722158
0.006643843
0.006569903
0.006501009
0.006437565
0.006379776
0.006327529
0.006280488
0.00623799
0.00619918
0.006163469
0.00613043
0.006099434
0.00606965
0.006040303
0.006010789
0.005980583
0.005949144
0.005915893
0.005880252
0.00584168
0.005799706
0.00575394
0.005704082
0.005649932
0.005591399
0.005528494
0.005461336
0.005390111
0.00531505
0.005236365
0.005154344
0.005069196
0.0049811
0.00489035
0.004797626
0.004703829
0.004610179
0.004518207
0.004429276
0.004344246
0.004263577
0.004187573
0.004116491
0.00405056
0.003989958
0.003934786
0.003885075
0.003840797
0.003801874
0.003768191
0.003739601
0.003715932
0.003696988
0.003682559
0.003672433
0.00366639
0.003664209
0.003665667
0.003670548
0.003678649
0.003689776
0.003703751
0.00372041
0.003739604
0.003761193
0.003785048
0.003811046
0.003839071
0.003869008
0.003900745
0.003934172
0.003969178
0.004005655
0.004043496
0.004082595
0.004122853
0.004164169
0.004206448
0.0042496
0.00429354
0.004338187
0.004383466
0.004429307
0.004475643
0.00452241
0.004569541
0.004616955
0.004664548
0.00471219
0.004759744
0.004807053
0.004854033
0.004900898
0.004947769
0.004994566
0.005041216
0.005087646
0.005133786
0.005179566
0.005224916
0.005269768
0.005314055
0.005357711
0.005400671
0.005442872
0.005484254
0.005524757
0.005564327
0.005602909
0.005640453
0.005676912
0.005712242
0.005746401
0.005779351
0.005811057
0.005841489
0.005870616
0.005898414
0.005924859
0.005949931
0.005973613
0.00599589
0.006016749
0.006036179
0.006054173
0.006070721
0.006085819
0.006099459
0.00611164
0.006122354
0.00613161
0.0061394
0.006145748
0.006150657
0.006154175
0.006156312
0.006157042
0.00615634
0.006154229
0.006150749
0.006145949
0.006139877
0.006132576
0.006124089
0.006114463
0.006103748
0.006091995
0.006079255
0.006065579
0.006051017
0.006035619
0.006019432
0.006002505
0.005984886
0.005966628
0.005947784
0.005928406
0.005908549
0.005888266
0.005867611
0.005846635
0.005825392
0.005803934
0.005782312
0.005760582
0.005738795
0.005717012
0.005695298
0.005673732
0.005652417
0.005631477
0.00561107
0.005591358
0.005572433
0.005554291
0.005536876
0.00552014
0.005504059
0.005488618
0.005473813
0.005459639
0.005446099
0.005433197
0.005420938
0.005409327
0.00539837
0.00538807
0.005378432
0.005369457
0.005361142
0.005353484
0.005346479
0.005340118
0.005334391
0.005329285
0.005324785
0.005320876
0.005317535
0.005314748
0.005312487
0.005310734
0.005309456
0.005308639
0.005308242
0.005308247
0.005308591
0.005309225
0.005310125
0.005311275
0.005312641
0.005314189
0.005315905
0.005317783
0.005319811
0.005321973
0.00532425
0.005326629
0.005329099
0.005331651
0.005334281
0.005336984
0.005339758
0.005342606
0.005345533
0.005348545
0.005351654
0.005354872
0.005358215
0.005361704
0.005365358
0.005369202
0.005373262
0.005377568
0.005382149
0.005387036
0.005392265
0.005397868
0.00540388
0.005410337
0.005417273
0.005424721
0.005432715
0.005441284
0.005450457
0.005460257
0.005470705
0.005481815
0.005493597
0.005506052
0.005519173
0.005532948
0.005547355
0.00556236
0.005577932
0.005594051
0.0056107
0.005627852
0.005645473
0.005663518
0.005681942
0.005700682
0.00571964
0.005738734
0.005757908
0.005777106
0.005796253
0.005815265
0.005834052
0.005852527
0.005870603
0.005888189
0.005905198
0.005921543
0.005937138
0.005951905
0.00596577
0.005978664
0.005990526
0.006001306
0.00601096
0.006019454
0.006026768
0.006032892
0.006037828
0.00604159
0.006044203
0.006045701
0.006046131
0.006045546
0.006044011
0.006041596
0.006038382
0.006034453
0.006029901
0.00602482
0.006019308
0.006013465
0.006007389
0.006001179
0.005994928
0.00598873
0.005982671
0.005976831
0.005971287
0.005966107
0.005961353
0.005957077
0.005953325
0.005950136
0.005947538
0.005945555
0.005944201
0.005943486
0.005943412
0.005943976
0.005945172
0.005946989
0.005949412
0.005952426
0.005956013
0.005960154
0.005964829
0.005970019
0.005975708
0.005981878
0.005988518
0.005995615
0.006003165
0.006011164
0.006019615
0.006028527
0.006037917
0.006047808
0.006058234
0.006069243
0.006080892
0.006093264
0.006106443
0.006120565
0.006135719
0.006152131
0.006169791
0.006189107
0.006209535
0.006230621
2.110346e-05
3.158709e-05
6.327477e-05
0.0001804316
0.0002812247
0.0004294574
0.0005477317
0.000684409
0.0008477771
0.001012506
0.001209489
0.001468197
0.001770843
0.002138378
0.002621657
0.003510724
0.003945202
0.004413745
0.0049068
0.005420154
0.005955092
0.006499975
0.007038183
0.007555156
0.008036966
0.008477058
0.008901225
0.009364642
0.009790028
0.01
0.01
0.01
0.01
0.01
0.01
0.01
0.01
0.01
0.01
0.01
0.01
0.01
0.01
0.01
0.01
0.01
0.01
0.01
0.009955881
0.009697313
0.009412865
0.009152797
0.00893905
0.008570457
0.008223179
0.007897091
0.007567617
0.007241803
0.006935915
0.006653228
0.006403771
0.006191394
0.006020802
0.00588682
0.005790122
0.005731034
0.005711373
0.005730208
0.005786576
0.00587994
0.006006
0.006166951
0.006356571
0.006578679
0.006835862
0.007133394
0.007481926
0.007874309
0.008308596
0.008770305
0.009252502
0.009744315
0.01
0.01
0.01
0.01
0.01
0.01
0.01
0.01
0.01
0.01
0.01
0.01
0.01
0.01
0.01
0.01
0.01
0.01
0.01
0.01
0.01
0.01
0.009958602
0.009877295
0.009795871
0.009715227
0.00963611
0.00955912
0.009484739
0.009413312
0.009345022
0.009279897
0.009217778
0.009158484
0.009101863
0.009047661
0.008995548
0.008945077
0.008895739
0.008846927
0.008798029
0.00874834
0.008697205
0.00864388
0.008587754
0.00852829
0.008464955
0.008397359
0.008325356
0.00824904
0.008168694
0.008084765
0.007997879
0.007908847
0.007818639
0.007728334
0.007639039
0.007551829
0.00746768
0.007387443
0.007311774
0.007241135
0.007175745
0.007115595
0.00706045
0.007009893
0.006963497
0.006920857
0.006881478
0.006844724
0.006809903
0.006776367
0.006743504
0.006710699
0.006677314
0.006642711
0.006606275
0.006567442
0.006525707
0.006480639
0.006431887
0.006379187
0.006322363
0.006261324
0.006196054
0.006126596
0.006053026
0.00597547
0.005894087
0.005809069
0.005720699
0.005629477
0.005536113
0.005441513
0.005346769
0.005252989
0.005161075
0.005071691
0.004985346
0.004902485
0.004823513
0.004748785
0.004678592
0.004613149
0.004552606
0.004497051
0.004446519
0.004400997
0.004360433
0.004324732
0.004293771
0.004267405
0.004245471
0.004227795
0.004214193
0.004204481
0.00419848
0.004196019
0.004196936
0.004201085
0.004208329
0.004218546
0.004231622
0.004247449
0.004265924
0.004286947
0.004310416
0.004336227
0.004364275
0.00439445
0.004426638
0.004460726
0.004496597
0.004534133
0.00457322
0.004613742
0.004655588
0.00469865
0.004742825
0.004788014
0.004834122
0.004881058
0.004928732
0.004977051
0.005025913
0.005075203
0.005124804
0.005174589
0.005224426
0.005274148
0.005323706
0.005373322
0.005423059
0.005472837
0.005522579
0.005572211
0.005621662
0.005670857
0.005719727
0.0057682
0.005816205
0.005863673
0.005910537