/*--------------------------------*- C++ -*----------------------------------*\
| =========                 |                                                 |
| \\      /  F ield         | foam-extend: Open Source CFD                    |
|  \\    /   O peration     | Version:     3.1                                |
|   \\  /    A nd           | Web:         http://www.extend-project.de       |
|    \\/     M anipulation  |                                                 |
\*---------------------------------------------------------------------------*/
FoamFile
{
    version     2.0;
    format      ascii;
    class       volScalarField;
    location    "6.5";
    object      omega;
}
// * * * * * * * * * * * * * * * * * * * * * * * * * * * * * * * * * * * * * //

dimensions      [0 0 -1 0 0 0 0];

internalField   nonuniform List<scalar> 
119952
(
202.5857
249.495
233.2844
203.1779
181.6834
181.2796
183.0185
185.7104
188.8668
192.2759
195.8116
199.4224
203.1455
207.0857
211.3859
216.2038
221.6689
227.8513
234.8444
243.205
211.0213
208.0224
209.542
180.7528
174.491
171.2949
168.9909
167.0634
162.7604
191.4907
606.7263
504.7716
423.9278
365.3963
321.6126
287.8125
260.7783
238.625
220.0112
199.7741
170.5197
150.1639
136.0049
125.4806
117.1765
110.308
104.4437
99.33417
94.90772
75.6233
73.55227
71.46728
69.41281
67.44129
65.54983
63.71419
61.91699
60.14346
58.42636
56.75602
55.0066
53.23454
51.43284
49.61243
47.79559
45.9994
44.22794
42.4716
41.51467
40.58963
39.54649
38.71844
38.05543
37.55198
37.18581
36.94223
36.82758
36.83867
36.97118
37.21887
37.5721
38.01441
38.52388
39.07556
39.64369
40.19881
40.70063
41.09527
41.33613
41.61067
41.65071
41.56105
41.68872
41.87363
42.01804
42.28997
42.8851
43.44051
43.20801
42.72682
42.11934
41.45667
40.75948
40.04388
39.32048
38.59624
37.87648
37.16554
36.46674
35.78267
35.11523
34.46584
33.8357
33.22572
32.63636
32.06739
31.51835
30.98935
30.48083
29.99324
29.52688
29.08229
28.65962
28.25862
27.87885
27.51988
27.18167
26.86387
26.56535
26.2864
26.02626
25.78443
25.56048
25.35391
25.16441
24.99146
24.83455
24.69325
24.56705
24.45566
24.35881
24.27584
24.20629
24.14953
24.10412
24.06464
24.0177
24.04796
24.15403
24.27395
24.39168
24.50096
24.60089
24.69245
24.77758
24.85859
24.93762
25.01653
25.09681
25.17969
25.26615
25.35692
25.45273
25.55412
25.66155
25.77543
25.89609
26.02384
26.15899
26.30181
26.4526
26.61162
26.77919
26.95558
27.14109
27.33604
27.54078
27.75567
27.98108
28.21738
28.465
28.7244
28.99616
29.27896
29.57442
29.88517
30.20947
30.54774
30.90098
31.26962
31.65413
32.05499
32.47237
32.90617
33.35481
33.80926
34.20327
36.65672
41.00489
44.21603
46.5216
48.23025
49.56149
50.65362
51.59566
52.44499
53.23928
54.00364
54.75469
55.50427
56.26111
57.03313
57.81872
58.62449
59.44332
60.29252
61.17089
62.07729
63.01244
63.97772
64.97473
66.00481
67.06912
68.16887
69.30491
70.47818
71.68917
72.93746
74.22074
75.53156
76.82088
78.04139
78.07246
76.92737
75.87519
74.88485
73.93506
73.01288
72.11055
71.2236
70.3488
69.48412
68.62885
67.78284
66.94642
66.12011
65.30463
64.50067
63.70888
62.92985
62.16406
61.41188
60.67366
59.94964
59.2399
58.54442
57.86317
57.19606
56.54306
55.90405
55.27872
54.66681
54.06803
53.48199
52.90968
52.35219
51.80885
41.06156
40.6734
40.19278
39.59046
38.96928
38.35376
37.75262
37.18278
36.65259
36.1644
35.71651
35.30624
34.92996
34.58286
34.26055
33.95891
33.67419
33.40316
33.14305
32.8916
32.64694
32.40763
32.1725
31.9407
31.71161
31.48481
31.26
31.03702
30.81578
30.59629
30.37858
30.16274
29.94888
29.73712
29.52762
29.32053
29.11604
28.91432
28.71559
28.52011
28.32823
28.14045
27.95768
27.78188
27.61705
27.46703
27.33105
27.20323
27.08195
26.9673
26.85905
26.75806
26.66559
26.58336
26.58589
26.50483
26.42872
26.34868
26.2595
26.16137
26.05578
25.94541
25.83346
25.7228
25.61577
25.51417
25.41929
25.33187
25.25221
25.18025
25.11567
25.05793
25.00632
24.96004
24.91825
24.8801
24.84475
24.81137
24.77918
24.74742
24.71542
24.68261
24.6485
24.61265
24.5747
24.53429
24.49111
24.44494
24.39561
24.34302
24.28715
24.22796
24.1655
24.09981
24.03103
23.95931
23.88483
23.80777
23.72831
23.64664
23.56295
23.47742
23.39025
23.30165
23.21179
23.12085
23.02901
22.9364
22.84318
22.74946
22.65535
22.56095
22.46633
22.37155
22.27667
22.18172
22.08671
21.99164
21.8965
21.80126
21.70585
21.61022
21.51424
21.4178
21.32072
21.22281
21.12383
21.02343
20.92106
20.8161
20.70756
20.59405
20.47308
20.33997
20.18488
19.98645
19.69764
19.27182
19.14614
588.7753
532.7311
494.0463
454.3076
417.8639
385.8659
358.0044
333.6505
311.3638
251.3916
190.8354
159.0747
140.74
129.0531
120.7878
114.3714
109.0205
104.3402
82.23728
78.2014
74.38927
70.88991
67.76179
65.00398
62.57729
60.43314
58.52157
56.78732
55.27231
53.82403
52.38719
50.96899
49.57835
48.22452
46.9145
45.65268
44.44059
43.51883
42.79549
41.97055
41.10211
40.2141
39.32579
38.45309
37.60885
36.80271
36.04112
35.32018
34.64988
34.03492
33.47088
32.95515
32.48661
32.06423
31.68902
31.37894
28.21598
27.96197
27.73551
27.53166
27.34145
27.15794
26.97528
26.78803
26.5904
26.37858
26.15019
25.8979
25.6188
25.31202
24.97848
24.61918
24.239
23.84535
23.45115
23.05309
22.63383
22.20695
21.81206
21.45206
21.1197
20.81376
20.54003
20.30307
20.10561
19.94938
19.83543
19.76398
19.73448
19.7456
19.79537
19.88082
19.99808
20.14246
20.31024
20.50055
20.71345
20.94393
21.205
21.52399
21.88942
22.28525
22.70978
23.13007
23.46217
23.73669
23.98298
24.19095
24.35785
24.48205
24.56344
24.60294
24.60156
24.56047
24.48124
24.36574
24.21639
24.03597
23.82738
23.59358
23.33744
23.0618
22.76962
22.46377
22.14675
21.82083
21.48812
21.15056
20.80993
20.46786
20.12586
19.78533
19.44755
19.11372
18.78492
18.46212
18.14618
17.83785
17.53776
17.24644
16.96433
16.69174
16.42889
16.17592
15.93291
15.69987
15.47673
15.26332
15.05944
14.8648
14.67901
14.50161
14.33223
14.17072
14.01759
13.87299
13.73612
13.60686
13.48508
13.37043
13.26257
13.16116
13.06581
12.97616
12.89187
12.81262
12.73818
12.66822
12.60234
12.54023
12.48167
12.42645
12.37441
12.3254
12.27928
12.23594
12.19527
12.15719
12.1216
12.08843
12.05761
12.02908
12.00277
11.97864
11.95664
11.93671
11.91881
11.90289
11.8889
11.8768
11.86651
11.85801
11.8513
11.84639
11.84345
11.84273
11.84409
11.84746
11.85263
11.85944
11.86743
11.87596
11.8836
11.87668
12.23347
12.64555
12.93685
13.14738
13.30374
13.42371
13.51907
13.59737
13.66362
13.72164
13.77389
13.822
13.86707
13.90983
13.95073
13.9901
14.02824
14.0653
14.10144
14.13684
14.17162
14.2059
14.23976
14.27328
14.30649
14.33939
14.37194
14.40403
14.43546
14.46592
14.49479
14.52099
14.54238
14.55442
14.54668
14.51397
14.47159
14.42668
14.37926
14.32935
14.27758
14.2244
14.17013
14.11506
14.05941
14.00335
13.94704
13.89058
13.83406
13.77753
13.72105
13.66463
13.60829
13.55203
13.49585
13.43975
13.38371
13.32772
13.27177
13.21584
13.15995
13.10406
13.0482
12.99235
12.93653
12.88075
12.82509
12.76961
12.71465
12.66299
11.08221
11.00383
10.93737
10.87724
10.82027
10.7652
10.71157
10.65903
10.60723
10.55588
10.50482
10.45397
10.40329
10.35275
10.30237
10.25217
10.20218
10.15245
10.10301
10.05391
10.00518
9.956852
9.908967
9.861547
9.814616
9.768193
9.722294
9.676934
9.632124
9.587876
9.544198
9.501101
9.458593
9.416686
9.375391
9.334727
9.294712
9.255375
9.216753
9.178902
9.141904
9.105888
9.071029
9.037524
9.005523
8.975019
8.945787
8.917581
8.890426
8.864433
8.839688
8.816223
8.794087
8.774493
8.758387
8.741223
8.723129
8.70581
8.689933
8.67558
8.662656
8.651067
8.640742
8.631625
8.623667
8.616827
8.611067
8.606358
8.602676
8.599998
8.598297
8.597539
8.597685
8.598692
8.600507
8.60307
8.60631
8.610146
8.61449
8.619244
8.624309
8.629579
8.634945
8.640298
8.645526
8.650516
8.655159
8.659352
8.662994
8.665989
8.66825
8.669696
8.670258
8.669879
8.668512
8.666124
8.662692
8.658203
8.652653
8.646048
8.638405
8.629748
8.620108
8.609524
8.598036
8.58569
8.572534
8.558615
8.543982
8.528683
8.512766
8.496273
8.479246
8.461723
8.443738
8.425316
8.406486
8.387258
8.367651
8.34766
8.327291
8.306519
8.285338
8.263694
8.241564
8.218851
8.195505
8.171351
8.146273
8.119961
8.092136
8.062182
8.029366
7.992431
7.949937
7.900857
7.845791
7.791944
7.741491
645.8146
560.2736
490.8514
439.5933
400.3216
369.4407
344.4052
323.758
306.2584
284.3084
195.4283
180.9211
169.184
159.2716
150.5916
142.5504
134.3379
124.1066
105.6203
77.11302
74.56382
73.07684
71.92251
70.99982
70.36647
69.82024
69.16146
67.95335
64.60208
62.65607
62.18149
61.6369
61.03346
60.38705
59.68513
58.92881
58.12318
57.26879
56.88209
55.56274
54.18711
52.92815
51.78351
50.721
49.71847
48.75915
47.83323
46.94532
46.06095
45.17105
44.27483
43.38391
42.51091
41.66496
40.85099
40.07374
37.08315
36.43712
35.82442
35.23815
34.67359
34.12675
33.59502
33.07633
32.56902
32.07022
31.57818
31.09385
30.61459
30.13788
29.6626
29.1883
28.71508
28.24353
27.77427
27.30836
26.84951
26.39992
25.96001
25.53129
25.11551
24.7142
24.32881
23.96042
23.6103
23.28068
22.97127
22.68234
22.41463
22.16805
21.93867
21.72774
21.53042
21.34241
21.22873
21.13841
21.06171
20.99578
20.93874
20.88723
20.8366
20.78147
20.71701
20.63818
20.54057
20.42142
20.27829
20.11015
19.91657
19.69952
19.46093
19.20584
18.93802
18.66458
18.38615
18.10063
17.81677
17.54197
17.27873
17.02711
16.789
16.56722
16.36422
16.18189
16.02156
15.88426
15.77058
15.68091
15.61515
15.57314
15.55415
15.55781
15.58312
15.62991
15.70021
15.79467
15.91342
16.06459
16.24917
16.46047
16.68894
16.93286
17.16948
17.38729
17.59322
17.79153
17.97927
18.15358
18.31217
18.45345
18.57632
18.67988
18.76333
18.82609
18.86794
18.88894
18.88936
18.86969
18.83061
18.77288
18.69721
18.60434
18.49527
18.37105
18.23266
18.08106
17.91719
17.74193
17.5562
17.36095
17.15717
16.94588
16.72814
16.50507
16.27778
16.04741
15.8151
15.58194
15.349
15.11727
14.88768
14.66108
14.43823
14.21979
14.0063
13.79821
13.59587
13.39957
13.20947
13.02571
12.84837
12.67764
12.51374
12.35676
12.20645
12.06237
11.9243
11.79212
11.66566
11.54473
11.4291
11.31855
11.21287
11.11182
11.01515
10.92264
10.83405
10.74921
10.66791
10.58997
10.51524
10.44356
10.37479
10.3088
10.24545
10.18465
10.12628
10.07024
10.01645
9.964805
9.915234
9.867654
9.82199
9.778169
9.736119
9.695771
9.65706
9.619915
9.584278
9.550079
9.517276
9.485793
9.455641
9.426729
9.399083
9.372523
9.347171
9.322656
9.299307
9.27633
9.254567
9.232573
9.229342
9.215165
9.195206
9.172228
9.147982
9.123523
9.099436
9.076047
9.053492
9.03178
9.010865
8.990678
8.971146
8.95219
8.933751
8.915833
8.898607
8.882044
8.865967
8.850243
8.834771
8.819471
8.804277
8.789125
8.773949
8.758677
8.74322
8.727463
8.711252
8.694363
8.676465
8.657045
8.635523
8.612147
8.586645
8.559396
8.531381
8.503041
8.474286
8.445105
8.415527
8.385567
8.355239
8.32456
8.293546
8.262215
8.23058
8.198656
8.166452
8.133978
8.101242
8.06825
8.035008
8.001521
7.967792
7.933826
7.899626
7.865197
7.830541
7.795668
7.760576
7.725283
7.689782
7.654105
7.61824
7.582244
7.546092
7.509892
7.473421
7.434331
7.417346
7.398174
7.376008
7.350946
7.323849
7.295478
7.26623
7.236268
7.205672
7.174516
7.142882
7.110845
7.078478
7.045841
7.012991
6.979979
6.946855
6.913666
6.880456
6.847268
6.81414
6.781109
6.74821
6.715473
6.682929
6.650602
6.618519
6.586701
6.555169
6.52394
6.493032
6.46246
6.43224
6.402384
6.372909
6.343827
6.315159
6.286921
6.25914
6.231843
6.205076
6.178881
6.153321
6.128437
6.10428
6.080838
6.058092
6.035949
6.014436
5.993527
5.973324
5.953741
5.934869
5.916509
5.899043
5.882398
5.866673
5.851898
5.83798
5.82482
5.812379
5.800669
5.78972
5.779559
5.770204
5.761666
5.75395
5.747057
5.740986
5.735729
5.731275
5.727607
5.724703
5.722537
5.721079
5.720292
5.720137
5.720566
5.721532
5.72298
5.724855
5.727096
5.729644
5.732433
5.735399
5.738474
5.741593
5.74469
5.747702
5.750567
5.753224
5.755617
5.757695
5.759412
5.760727
5.761604
5.762012
5.761928
5.761331
5.760207
5.758551
5.756358
5.753633
5.750382
5.746617
5.742354
5.737608
5.7324
5.72675
5.72068
5.714212
5.707368
5.700169
5.692636
5.684787
5.676639
5.668205
5.659499
5.650523
5.641289
5.631786
5.622023
5.611971
5.601638
5.590965
5.579959
5.568518
5.556645
5.544158
5.531053
5.517004
5.501991
5.485456
5.467442
5.447233
5.425308
5.401049
5.376377
5.352112
384.4862
272.5116
400.9024
175.6157
136.3764
100.672
86.24769
74.65235
65.23373
60.91229
59.21248
58.28268
57.22678
56.13384
55.10278
54.1591
53.28104
52.45117
51.6629
50.92059
50.24156
49.65693
49.24441
48.94614
48.73415
48.61482
48.5403
48.50324
48.4903
48.46015
48.32516
47.43153
47.8682
48.28993
48.69837
49.09617
49.48069
49.839
50.15697
50.38561
50.45147
50.39336
50.25328
50.01371
49.67555
49.24227
48.72033
48.12022
47.45136
46.72807
45.96955
45.18027
44.36287
43.52841
42.68746
41.8473
41.01337
40.19101
39.38421
38.59424
37.82147
37.06804
36.33381
35.62123
34.93312
34.27205
33.63903
33.02588
32.46535
31.92275
31.40026
30.89644
30.40965
29.93843
29.48112
29.03573
28.59995
28.17154
27.7489
27.33029
26.91372
26.49804
26.08283
25.668
25.25322
24.83951
24.42809
24.02039
23.61783
23.22154
22.83303
22.45395
22.08578
21.72985
21.38736
21.05925
20.74646
20.44954
20.16869
19.90427
19.65655
19.42658
19.21758
19.02872
18.86093
18.71219
18.58432
18.47475
18.38122
18.30198
18.23496
18.1773
18.12537
18.07504
18.02212
17.9625
17.89254
17.80908
17.70941
17.59157
17.45438
17.29777
17.12233
16.92981
16.72246
16.50339
16.27466
16.03796
15.7973
15.55708
15.32026
15.08868
14.86431
14.64939
14.44594
14.25556
14.07945
13.91851
13.7734
13.64462
13.53246
13.43713
13.35868
13.29722
13.25273
13.22558
13.21632
13.22551
13.25344
13.3017
13.37023
13.45724
13.55933
13.67424
13.79601
13.91959
14.04451
14.17165
14.30016
14.4282
14.55376
14.67517
14.7911
14.90042
15.00209
15.0952
15.17903
15.25298
15.31665
15.3698
15.41232
15.44412
15.46518
15.47556
15.4754
15.46479
15.44382
15.41253
15.37094
15.31904
15.25682
15.18429
15.10149
15.00854
14.90563
14.79307
14.67127
14.54075
14.40216
14.25625
14.10385
13.94587
13.78326
13.617
13.44807
13.27744
13.10602
12.93467
12.76419
12.59529
12.42861
12.26472
12.10411
11.94726
11.79457
11.64636
11.50279
11.36393
11.22953
11.09939
10.97351
10.85182
10.73425
10.62068
10.511
10.40506
10.30274
10.20389
10.10838
10.01606
9.926808
9.840496
9.757008
9.676233
9.598066
9.52241
9.449175
9.378275
9.30963
9.243166
9.17881
9.116494
9.056154
8.997726
8.941146
8.886355
8.833292
8.781895
8.732106
8.683862
8.637105
8.591768
8.547801
8.505133
8.463719
8.423479
8.384379
8.346315
8.309279
8.273122
8.237889
8.203373
8.169765
8.136934
8.105973
8.07589
8.046093
8.016359
7.986691
7.957131
7.927699
7.898407
7.869268
7.840294
7.811498
7.78289
7.754483
7.726286
7.698317
7.670605
7.64317
7.615997
7.589077
7.562401
7.535959
7.509738
7.483722
7.457891
7.432221
7.406681
7.381232
7.355824
7.330387
7.304828
7.279025
7.252823
7.226056
7.198618
7.1705
7.141879
7.113104
7.084442
7.05593
7.027514
6.999141
6.970773
6.942389
6.913966
6.88549
6.856943
6.828313
6.799587
6.770752
6.741798
6.712713
6.683488
6.654113
6.624577
6.594872
6.56499
6.534923
6.504663
6.474207
6.443546
6.412683
6.381608
6.350333
6.318842
6.287168
6.255278
6.223245
6.190994
6.158683
6.126027
6.09386
6.061891
6.030143
5.998645
5.967343
5.936141
5.904954
5.873731
5.842451
5.811107
5.77971
5.748278
5.716831
5.685392
5.653981
5.622622
5.591336
5.560147
5.529077
5.498147
5.467379
5.436793
5.406409
5.376243
5.346315
5.316639
5.287232
5.258106
5.229274
5.200749
5.17254
5.144658
5.117113
5.089912
5.063066
5.036584
5.010476
4.984754
4.959432
4.934527
4.910057
4.886044
4.862508
4.839468
4.816943
4.794934
4.773436
4.752422
4.731888
4.71184
4.692307
4.673288
4.654808
4.636904
4.619662
4.603043
4.586975
4.571442
4.556479
4.542125
4.528409
4.515346
4.502951
4.491231
4.480195
4.469846
4.460185
4.451211
4.442923
4.435316
4.428385
4.422118
4.416505
4.411531
4.407177
4.403423
4.400243
4.397611
4.395496
4.393865
4.392684
4.391915
4.391518
4.391454
4.391678
4.392148
4.392818
4.393645
4.394584
4.395591
4.396623
4.397639
4.3986
4.39947
4.400214
4.400801
4.401204
4.401398
4.401361
4.401075
4.400527
4.399706
4.398604
4.397218
4.395547
4.393592
4.391359
4.388853
4.386082
4.383055
4.37978
4.37627
4.372533
4.368581
4.364422
4.360066
4.355521
4.350792
4.345884
4.3408
4.335537
4.330095
4.324464
4.318639
4.312596
4.306324
4.299782
4.292948
4.285751
4.278152
4.27004
4.261353
4.251942
4.241758
4.230648
4.218674
4.205714
4.192242
4.178727
352.828
234.3096
174.7945
160.5393
129.9235
110.3222
94.46061
87.9768
80.77777
76.32073
72.33627
67.2524
62.28022
57.66523
53.48271
49.07198
43.05085
41.521
40.39462
39.72689
39.44113
39.38264
39.40649
39.46533
39.55324
39.66764
39.80792
39.97404
40.16611
40.38533
40.64
40.934
41.26508
41.62296
42.00154
42.40177
42.82667
43.27817
43.75659
44.26619
44.80452
45.30408
45.6769
46.18733
46.70326
47.16824
47.60385
47.99288
48.31931
48.58111
48.71589
48.69471
48.50694
48.19166
47.76522
47.23675
46.61603
45.91505
45.14749
44.32873
43.47073
42.58836
41.69506
40.79988
39.90944
39.03044
38.16708
37.32297
36.50135
35.70508
34.93643
34.19785
33.49274
32.82456
32.19146
31.59098
31.02273
30.4851
29.97393
29.48681
29.02288
28.58092
28.15751
27.74963
27.35498
26.97129
26.59606
26.22665
25.86066
25.49583
25.1301
24.76027
24.38546
24.00722
23.62699
23.24637
22.86609
22.487
22.11021
21.73696
21.36878
21.00739
20.65438
20.31112
19.97883
19.65861
19.35145
19.05832
18.78013
18.51775
18.27182
18.04286
17.83118
17.63721
17.46106
17.30276
17.16139
17.0366
16.92768
16.83329
16.75176
16.68125
16.61951
16.56387
16.51128
16.45856
16.40249
16.34005
16.26843
16.18514
16.0882
15.97616
15.84825
15.70436
15.54503
15.37138
15.18492
14.9873
14.78048
14.56721
14.35053
14.13309
13.91712
13.70474
13.49804
13.2989
13.10886
12.92912
12.7606
12.60396
12.45971
12.3282
12.20965
12.10423
12.01204
11.93322
11.86795
11.81642
11.77884
11.75533
11.74603
11.75063
11.7683
11.79765
11.83715
11.88486
11.93898
11.99873
12.06382
12.13369
12.20731
12.28345
12.36093
12.43875
12.51597
12.59176
12.66532
12.73595
12.80305
12.86613
12.92483
12.97888
13.02808
13.07231
13.11153
13.1457
13.17479
13.19873
13.21743
13.2307
13.23832
13.23998
13.23533
13.22397
13.20548
13.17948
13.14557
13.10345
13.0529
12.9938
12.92615
12.8501
12.76594
12.67407
12.57503
12.46946
12.3581
12.24173
12.12117
11.99728
11.87088
11.7428
11.61379
11.4846
11.35589
11.22827
11.10225
10.97823
10.85654
10.73751
10.6213
10.50771
10.39666
10.28823
10.18242
10.07925
9.9787
9.88072
9.785258
9.692247
9.601615
9.513292
9.427207
9.343291
9.26148
9.181714
9.103938
9.028103
8.954163
8.882077
8.811809
8.743322
8.676586
8.611569
8.54824
8.48657
8.426526
8.368076
8.311186
8.25582
8.201938
8.149499
8.098458
8.048772
8.000388
7.953259
7.907323
7.862531
7.818811
7.776118
7.734372
7.693544
7.653562
7.614437
7.576132
7.538649
7.501877
7.465734
7.430148
7.39505
7.360379
7.326074
7.292082
7.258365
7.224893
7.191647
7.158613
7.125781
7.093148
7.060709
7.028468
6.996427
6.964586
6.932951
6.901524
6.870309
6.839306
6.808515
6.777931
6.747545
6.717347
6.687315
6.657424
6.627637
6.597908
6.568179
6.538389
6.508483
6.47843
6.448248
6.418027
6.387931
6.358116
6.328631
6.299444
6.270503
6.241773
6.213227
6.184839
6.156587
6.128447
6.100398
6.072418
6.044489
6.01659
5.988704
5.96081
5.932892
5.904932
5.876912
5.848816
5.820629
5.792334
5.763918
5.735367
5.706671
5.677816
5.648798
5.619603
5.590236
5.560682
5.530956
5.501041
5.470954
5.440638
5.410134
5.379502
5.348772
5.317925
5.286947
5.255855
5.224681
5.193455
5.162194
5.130911
5.09962
5.068335
5.037074
5.005854
4.974691
4.943604
4.912611
4.88173
4.850981
4.820382
4.78995
4.759704
4.729661
4.699836
4.670247
4.640906
4.611829
4.583027
4.554513
4.526298
4.498392
4.470804
4.443544
4.416619
4.390039
4.363811
4.337943
4.312445
4.287327
4.2626
4.238275
4.214362
4.190874
4.167821
4.14521
4.123047
4.10133
4.080049
4.059206
4.038809
4.018874
3.999414
3.980449
3.961998
3.944074
3.926658
3.909744
3.893348
3.877492
3.862193
3.847458
3.833293
3.819705
3.806702
3.794293
3.782482
3.771275
3.760674
3.750677
3.741285
3.732492
3.724294
3.716684
3.709652
3.703185
3.697271
3.691891
3.687028
3.682661
3.678766
3.67532
3.672296
3.669667
3.667404
3.665477
3.663854
3.662504
3.661393
3.660488
3.659758
3.659169
3.658689
3.658289
3.657938
3.657608
3.657274
3.656911
3.656495
3.656007
3.65543
3.654746
3.653944
3.653013
3.651945
3.650733
3.649373
3.647864
3.646205
3.644397
3.642443
3.640344
3.638106
3.635732
3.633227
3.630594
3.627839
3.624965
3.621974
3.618869
3.615649
3.612314
3.608861
3.605286
3.60158
3.597734
3.593735
3.589563
3.585199
3.580609
3.575765
3.570619
3.565134
3.559252
3.552944
3.546155
3.538902
3.531141
3.523053
3.514964
170.7535
126.2082
196.5851
98.94931
85.7623
75.16931
71.92377
69.64176
66.9973
65.95102
64.44251
62.12156
59.81889
57.27412
54.24522
48.87174
47.31248
45.82829
44.39376
43.0306
41.70509
40.47677
39.4073
38.52497
37.84057
37.34164
36.92691
36.52512
36.31058
36.29123
36.43533
36.67746
36.95833
37.25311
37.55309
37.85554
38.15931
38.46371
38.7763
39.10684
39.44858
39.79851
40.15584
40.52125
40.89645
41.28415
41.68777
42.1102
42.5514
43.00456
43.45816
43.8861
44.30384
44.80888
45.28087
45.68329
46.0278
46.2808
46.4131
46.42825
46.30877
46.04678
45.64015
45.10342
44.45233
43.705
42.87885
41.9931
41.06601
40.11487
39.15579
38.20067
37.26157
36.34564
35.45754
34.60101
33.77876
32.99469
32.25393
31.56184
30.91763
30.32002
29.76622
29.25403
28.77985
28.33893
27.92493
27.53423
27.16327
26.8087
26.46816
26.13974
25.82124
25.51066
25.20629
24.90636
24.60882
24.31142
24.0119
23.70662
23.39223
23.07184
22.747
22.41749
22.08342
21.74525
21.40379
21.06024
20.71606
20.37294
20.03272
19.69727
19.36837
19.0477
18.73684
18.43708
18.14948
17.87495
17.61433
17.36833
17.13751
16.92232
16.72305
16.5399
16.37288
16.2218
16.08627
15.96585
15.85981
15.767
15.68599
15.61513
15.55254
15.49601
15.44304
15.39093
15.33695
15.27847
15.21302
15.13838
15.05269
14.95451
14.84286
14.71728
14.57784
14.42503
14.25979
14.08338
13.89747
13.70412
13.50565
13.30439
13.10249
12.90202
12.70491
12.51294
12.32761
12.15013
11.98146
11.82229
11.67316
11.53444
11.40635
11.28905
11.18262
11.08712
11.0026
10.92907
10.86653
10.8149
10.774
10.7435
10.72283
10.71123
10.70787
10.7119
10.72254
10.73928
10.76175
10.78953
10.82198
10.85838
10.89796
10.94002
10.98388
11.0289
11.07448
11.12005
11.16513
11.20929
11.25218
11.29355
11.3332
11.37101
11.40694
11.44096
11.4731
11.50338
11.53178
11.55826
11.58271
11.60495
11.62472
11.64169
11.65543
11.66546
11.67126
11.67227
11.66793
11.65771
11.64113
11.6178
11.58741
11.54981
11.50494
11.4529
11.39392
11.32834
11.25662
11.17933
11.09708
11.01055
10.92044
10.82746
10.73231
10.63565
10.53809
10.44018
10.34238
10.24514
10.14882
10.05378
9.960195
9.867819
9.776634
9.68676
9.598272
9.511224
9.425641
9.341529
9.258877
9.177667
9.097875
9.019474
8.94244
8.86675
8.792385
8.719329
8.647573
8.577112
8.507943
8.440069
8.373494
8.308225
8.244268
8.181629
8.120313
8.060325
8.001665
7.944329
7.888312
7.833601
7.78018
7.72803
7.677124
7.62743
7.578912
7.531528
7.48523
7.439973
7.395704
7.352378
7.309946
7.268369
7.227599
7.187584
7.148265
7.109586
7.071484
7.033895
6.996763
6.960037
6.92367
6.887621
6.851856
6.816344
6.781063
6.745995
6.711125
6.676443
6.641945
6.607628
6.573492
6.539539
6.505774
6.472202
6.438826
6.405651
6.37268
6.339911
6.307342
6.274964
6.242767
6.210732
6.178837
6.147059
6.115373
6.083763
6.05223
6.020803
5.989542
5.958539
5.927881
5.897607
5.867706
5.83815
5.808912
5.779969
5.751301
5.722885
5.694701
5.666726
5.63894
5.611321
5.583849
5.556503
5.529262
5.502106
5.475014
5.447964
5.420937
5.393912
5.366869
5.339788
5.312649
5.285437
5.258132
5.230719
5.203183
5.175512
5.147694
5.119719
5.091575
5.063253
5.034741
5.00605
4.977179
4.948104
4.91881
4.889306
4.859622
4.829783
4.799812
4.769724
4.739534
4.709257
4.678911
4.648515
4.61809
4.587656
4.557234
4.526843
4.496504
4.466238
4.436064
4.406003
4.376075
4.346296
4.316687
4.287263
4.258042
4.229039
4.200269
4.171746
4.143483
4.115493
4.087786
4.060375
4.033268
4.006476
3.98001
3.953877
3.928088
3.902652
3.877578
3.852878
3.828559
3.804632
3.781103
3.757978
3.735261
3.712955
3.691063
3.669588
3.648539
3.627926
3.607762
3.588059
3.568825
3.550066
3.531786
3.513992
3.496695
3.479907
3.463635
3.447886
3.432666
3.417982
3.40384
3.390247
3.377207
3.364723
3.352796
3.341426
3.330613
3.320354
3.310646
3.301483
3.29286
3.284767
3.277195
3.27013
3.263559
3.257466
3.251833
3.246643
3.241875
3.23751
3.233525
3.229898
3.226606
3.223623
3.220926
3.218488
3.216284
3.214288
3.212476
3.210822
3.209302
3.207892
3.20657
3.205315
3.204106
3.202926
3.201756
3.200582
3.19939
3.198168
3.196907
3.195597
3.194231
3.192806
3.191315
3.189758
3.188131
3.186435
3.184668
3.182832
3.180927
3.178954
3.176914
3.174808
3.172636
3.170399
3.168094
3.165721
3.163277
3.160757
3.158157
3.155469
3.152684
3.14979
3.146775
3.143621
3.140309
3.136816
3.133121
3.129196
3.125023
3.120579
3.115869
3.110874
3.10568
3.100551
74.19507
53.7995
53.20708
50.84468
50.00258
48.98353
48.28732
47.70866
47.19863
46.14667
43.38936
43.2423
43.05954
42.83424
42.52769
42.13797
41.72021
41.31837
40.94793
40.59156
40.08436
39.29976
38.53986
37.80588
37.12133
36.4932
35.94892
35.50616
35.16687
34.92592
34.77068
34.68579
34.68481
34.78667
34.99047
35.2721
35.59332
35.92071
36.23726
36.5345
36.80951
37.06443
37.31968
37.57637
37.83526
38.09962
38.37461
38.66207
38.96334
39.28009
39.615
39.97177
40.35332
40.76318
41.1908
41.63097
42.05831
42.48494
42.933
43.33447
43.6353
43.83073
43.90076
43.82976
43.61142
43.24104
42.71988
42.05884
41.27693
40.39755
39.44831
38.45411
37.44009
36.42628
35.43087
34.46625
33.54183
32.66548
31.84085
31.07073
30.36062
29.71387
29.12793
28.59856
28.12163
27.69252
27.30573
26.95449
26.63199
26.33337
26.05389
25.78863
25.53324
25.28385
25.03716
24.7908
24.5434
24.2942
24.04273
23.7887
23.53165
23.27085
23.00543
22.73357
22.45543
22.17317
21.8856
21.59218
21.29274
20.9873
20.67645
20.3611
20.0425
19.72219
19.40193
19.08357
18.76896
18.45991
18.15811
17.86502
17.5819
17.30982
17.04975
16.80251
16.56874
16.34896
16.14353
15.95267
15.77646
15.61485
15.46766
15.33456
15.21514
15.10881
15.01463
14.93146
14.85788
14.79226
14.73267
14.67691
14.62262
14.56736
14.50877
14.44462
14.37291
14.29195
14.20033
14.09707
13.98157
13.85366
13.7136
13.562
13.39986
13.22849
13.04956
12.86495
12.67666
12.48665
12.29684
12.10901
11.92483
11.74571
11.57287
11.40724
11.24957
11.1004
10.9601
10.82892
10.70699
10.59437
10.49105
10.397
10.31211
10.23627
10.16929
10.11091
10.0608
10.01852
9.983593
9.955494
9.93374
9.917895
9.90761
9.90259
9.902517
9.906989
9.915532
9.927642
9.94282
9.960582
9.980455
10.00199
10.02474
10.04832
10.07238
10.09662
10.12079
10.14472
10.16829
10.19144
10.21418
10.23653
10.25857
10.28036
10.30197
10.32344
10.34477
10.36587
10.38661
10.40677
10.42605
10.44406
10.46035
10.47438
10.48561
10.49345
10.49733
10.4967
10.49108
10.48005
10.46329
10.44061
10.41192
10.37726
10.33679
10.29077
10.23957
10.18364
10.12348
10.05963
9.992668
9.923141
9.851588
9.778514
9.70439
9.629655
9.5547
9.479877
9.405567
9.331796
9.258259
9.185034
9.112244
9.039978
8.968297
8.897242
8.826836
8.757087
8.688
8.619574
8.551808
8.484705
8.41827
8.352514
8.287451
8.223103
8.159497
8.096662
8.034633
7.973446
7.913139
7.85375
7.795315
7.737871
7.681448
7.626074
7.571772
7.518558
7.466444
7.415432
7.36552
7.316698
7.268946
7.222241
7.176553
7.131846
7.088084
7.045224
7.003224
6.962037
6.921614
6.881896
6.84282
6.804321
6.766335
6.728808
6.691687
6.654924
6.618473
6.582295
6.546354
6.510622
6.475075
6.439696
6.404469
6.369387
6.334444
6.299639
6.264973
6.23045
6.196075
6.161857
6.127801
6.093914
6.060203
6.026669
5.993315
5.960139
5.927136
5.894303
5.861632
5.82912
5.79677
5.764597
5.73263
5.700915
5.669508
5.638464
5.607812
5.577558
5.547689
5.518189
5.489044
5.460237
5.431752
5.403573
5.375682
5.348062
5.320693
5.293556
5.266634
5.239904
5.213349
5.186946
5.160675
5.134514
5.10844
5.082432
5.056467
5.030523
5.004578
4.978611
4.9526
4.926526
4.90037
4.874112
4.847737
4.821227
4.794569
4.767749
4.740758
4.713578
4.686191
4.658589
4.630778
4.60277
4.574576
4.546206
4.517667
4.48897
4.460127
4.431153
4.402064
4.372879
4.343614
4.314289
4.284924
4.255538
4.226152
4.196786
4.16746
4.138195
4.10901
4.079924
4.050956
4.022124
3.993447
3.96494
3.93662
3.908502
3.880601
3.852932
3.825507
3.798338
3.77144
3.744822
3.718497
3.692476
3.66677
3.64139
3.616345
3.591646
3.567301
3.54332
3.519708
3.496474
3.473619
3.451153
3.429082
3.407414
3.386159
3.365327
3.344927
3.324968
3.305458
3.286405
3.267816
3.249699
3.232061
3.214909
3.198252
3.182094
3.166443
3.151303
3.136679
3.122576
3.108995
3.095936
3.083401
3.071388
3.059896
3.048923
3.038465
3.028519
3.019081
3.010143
3.001696
2.993727
2.986222
2.979166
2.972546
2.966346
2.96055
2.955141
2.950102
2.945415
2.941061
2.937019
2.933272
2.929797
2.926575
2.923584
2.920805
2.918216
2.915799
2.913533
2.9114
2.909382
2.907462
2.905624
2.903854
2.902137
2.900463
2.898819
2.897196
2.895585
2.89398
2.892375
2.890763
2.889141
2.887506
2.885854
2.884184
2.882493
2.88078
2.879044
2.877283
2.875496
2.873682
2.871837
2.86996
2.868048
2.866096
2.864101
2.862056
2.859954
2.857789
2.855552
2.853233
2.850824
2.848319
2.8457
2.842949
2.840052
2.836996
2.833782
2.830398
2.826897
2.823488
103.3076
42.77773
36.68289
35.58331
35.10977
35.01078
35.21718
35.56534
36.00741
36.50466
36.87942
37.00054
37.0775
37.09515
37.05981
36.96882
36.83927
36.67555
36.46748
36.19698
35.84396
35.43815
35.04327
34.67097
34.33686
34.04851
33.82121
33.66051
33.55976
33.51589
33.52405
33.58016
33.68742
33.84545
34.04932
34.28058
34.51499
34.73202
34.92136
35.07846
35.21528
35.36341
35.51725
35.68212
35.86401
36.06854
36.30137
36.56404
36.85683
37.1797
37.53391
37.92385
38.34459
38.80551
39.29785
39.82904
40.32083
40.77115
41.15508
41.44696
41.61523
41.63651
41.49334
41.17558
40.684
40.02946
39.22849
38.30932
37.30338
36.24527
35.16899
34.10381
33.0748
32.09949
31.19125
30.35609
29.59962
28.92445
28.33506
27.82555
27.38849
27.01664
26.70211
26.43492
26.20538
26.00706
25.83378
25.67959
25.53823
25.40373
25.27043
25.1331
24.98698
24.82786
24.65242
24.45907
24.24768