/*--------------------------------*- C++ -*----------------------------------*\
| =========                 |                                                 |
| \\      /  F ield         | foam-extend: Open Source CFD                    |
|  \\    /   O peration     | Version:     3.1                                |
|   \\  /    A nd           | Web:         http://www.extend-project.de       |
|    \\/     M anipulation  |                                                 |
\*---------------------------------------------------------------------------*/
FoamFile
{
    version     2.0;
    format      ascii;
    class       volScalarField;
    location    "6.5";
    object      pd;
}
// * * * * * * * * * * * * * * * * * * * * * * * * * * * * * * * * * * * * * //

dimensions      [1 -1 -2 0 0 0 0];

internalField   nonuniform List<scalar> 
119952
(
9182.224
8972.363
8953.717
9017.525
9082.368
9078.883
9093.724
9110.792
9129.7
9148.812
9167.856
9186.744
9205.174
9223.097
9240.484
9257.301
9273.496
9288.689
9301.452
9306.071
9371.216
9357.027
9364.6
9441.637
9446.485
9469.454
9483.899
9509.004
9561.01
10052.72
7070.554
7098.875
7136.022
7179.746
7223.205
7267.605
7313.829
7361.153
7410.183
7441.66
7502.545
7553.781
7607.059
7659.984
7714.097
7769.121
7824.796
7881.123
7937.719
8024.128
8066.86
8111.824
8164.935
8217.823
8269.7
8321.328
8372.191
8422.262
8471.327
8513.952
8561.057
8607.625
8652.152
8695.923
8739.043
8781.62
8825.089
8877.814
8945.098
8949.174
8975.834
9019.163
9053.599
9075.29
9092.937
9112.002
9131.617
9151.105
9170.459
9189.553
9208.238
9226.413
9244.05
9261.142
9277.667
9293.621
9309.234
9325.555
9345.318
9365.667
9382.56
9413.194
9448.201
9465.849
9479.594
9491.169
9488.206
9455.605
9461.016
9474.718
9485.75
9496.56
9506.666
9515.989
9524.709
9532.936
9540.756
9548.222
9555.365
9562.2
9568.741
9575.01
9581.021
9586.787
9592.321
9597.636
9602.74
9607.636
9612.33
9616.827
9621.131
9625.249
9629.185
9632.944
9636.533
9639.962
9643.237
9646.371
9649.358
9652.22
9654.948
9657.56
9660.058
9662.448
9664.732
9666.921
9669.016
9671.023
9672.949
9674.796
9676.565
9678.265
9679.895
9681.449
9682.916
9684.338
9686.12
9688.296
9690.406
9691.735
9693.066
9694.456
9695.835
9697.21
9698.583
9699.952
9701.317
9702.679
9704.041
9705.407
9706.747
9708.08
9709.405
9710.722
9712.029
9713.324
9714.607
9715.875
9717.127
9718.362
9719.578
9720.775
9721.95
9723.102
9724.231
9725.334
9726.412
9727.461
9728.481
9729.47
9730.427
9731.349
9732.233
9733.079
9733.942
9734.724
9735.429
9736.103
9736.728
9737.307
9737.83
9738.287
9738.664
9738.929
9739.021
9738.896
9739.039
9741.458
9742.415
9742.352
9742.451
9742.516
9742.497
9742.409
9742.258
9742.054
9741.792
9741.476
9741.104
9740.68
9740.202
9739.667
9739.07
9738.388
9737.728
9736.993
9736.192
9735.333
9734.412
9733.428
9732.375
9731.247
9730.034
9728.723
9727.297
9725.731
9723.986
9722.002
9719.675
9716.808
9713.182
9707.656
9700.883
9707.425
9711.589
9714.481
9716.689
9718.502
9720.061
9721.427
9722.654
9723.783
9724.833
9725.822
9726.763
9727.667
9728.542
9729.394
9730.23
9731.055
9731.873
9732.689
9733.505
9734.325
9735.151
9735.988
9736.838
9737.703
9738.586
9739.49
9740.416
9741.37
9742.357
9743.396
9744.53
9745.565
9746.444
9762.097
9756.846
9749.028
9750.476
9751.861
9752.291
9753.081
9754.198
9755.356
9756.515
9757.712
9759.008
9760.341
9761.704
9763.105
9764.539
9765.998
9767.481
9768.986
9770.512
9772.056
9773.618
9775.197
9776.792
9778.404
9780.032
9781.675
9783.332
9785.005
9786.694
9788.398
9790.118
9791.856
9793.611
9795.386
9797.182
9799.003
9800.852
9802.735
9804.66
9806.64
9808.696
9810.865
9813.189
9815.61
9817.677
9818.866
9819.616
9820.597
9821.805
9823.107
9824.496
9825.779
9825.997
9821.43
9826.583
9829.177
9830.234
9831.572
9832.937
9834.211
9835.481
9836.768
9838.068
9839.373
9840.674
9841.967
9843.244
9844.504
9845.745
9846.961
9848.151
9849.309
9850.434
9851.522
9852.572
9853.583
9854.551
9855.477
9856.358
9857.194
9857.984
9858.726
9859.419
9860.063
9860.658
9861.201
9861.694
9862.134
9862.521
9862.855
9863.135
9863.36
9863.529
9863.642
9863.698
9863.697
9863.636
9863.517
9863.336
9863.095
9862.791
9862.424
9861.992
9861.495
9860.93
9860.296
9859.592
9858.816
9857.965
9857.039
9856.034
9854.948
9853.778
9852.521
9851.171
9849.726
9848.18
9846.526
9844.758
9842.867
9840.843
9838.673
9836.343
9833.835
9831.128
9828.191
9824.978
9821.442
9817.528
9813.14
9808.142
9802.342
9795.405
9786.841
9776.238
9766.038
9771.643
9820.696
9188.344
9120.501
9029.678
8926.905
8814.54
8694.994
8570.336
8442.147
8311.553
8170.995
8044.482
7918.786
7794.732
7676.75
7564.24
7458.063
7358.983
7267.268
7168.516
7108.781
7038.242
6976.288
6929.379
6892.189
6864.234
6845.275
6834.231
6832.684
6834.688
6838.38
6855.157
6875.458
6899.614
6927.384
6958.24
6991.832
7028.059
7067.899
7095.871
7139.157
7182.56
7226.14
7271.221
7317.524
7364.958
7413.247
7460.964
7511.344
7564.82
7616.672
7669.061
7722.633
7777.111
7832.378
7887.767
7944.585
8020.994
8078.825
8128.268
8177.639
8229.319
8282.186
8334.615
8385.782
8435.581
8484.019
8530.849
8576.733
8621.962
8666.466
8710.357
8753.827
8797.219
8840.694
8883.818
8924.336
8957.642
8986.743
9016.519
9045.791
9071.71
9094.05
9114.571
9134.656
9154.682
9174.507
9193.939
9212.883
9231.33
9249.3
9266.842
9284.041
9301.089
9318.301
9336.144
9354.972
9374.897
9395.855
9417.857
9439.616
9457.536
9469.745
9476.276
9477.215
9475.139
9476.423
9483.028
9492.611
9502.838
9512.483
9521.33
9529.589
9537.472
9545.07
9552.374
9559.361
9566.035
9572.422
9578.54
9584.405
9590.031
9595.421
9600.59
9605.546
9610.297
9614.851
9619.211
9623.385
9627.376
9631.191
9634.835
9638.316
9641.641
9644.816
9647.852
9650.752
9653.523
9656.172
9658.704
9661.125
9663.44
9665.656
9667.775
9669.803
9671.748
9673.612
9675.404
9677.123
9678.777
9680.374
9681.926
9683.46
9685.017
9686.64
9688.353
9690.056
9691.632
9693.048
9694.411
9695.768
9697.13
9698.491
9699.842
9701.184
9702.519
9703.844
9705.138
9706.474
9707.796
9709.104
9710.402
9711.688
9712.962
9714.222
9715.468
9716.697
9717.909
9719.103
9720.277
9721.43
9722.56
9723.666
9724.748
9725.804
9726.832
9727.831
9728.8
9729.737
9730.64
9731.51
9732.344
9733.146
9733.909
9734.626
9735.292
9735.932
9736.512
9737.042
9737.505
9737.928
9738.273
9738.622
9738.905
9739.205
9741.571
9741.568
9741.321
9741.564
9741.641
9741.626
9741.548
9741.411
9741.216
9740.965
9740.66
9740.302
9739.889
9739.423
9738.903
9738.328
9737.7
9737.022
9736.294
9735.504
9734.655
9733.746
9732.772
9731.73
9730.613
9729.412
9728.116
9726.709
9725.169
9723.466
9721.555
9719.373
9716.836
9713.96
9711.13
9709.442
9710.612
9713.326
9715.466
9717.287
9718.922
9720.355
9721.642
9722.82
9723.913
9724.937
9725.905
9726.83
9727.72
9728.583
9729.426
9730.255
9731.073
9731.886
9732.697
9733.509
9734.327
9735.151
9735.986
9736.834
9737.698
9738.58
9739.482
9740.407
9741.36
9742.345
9743.369
9744.437
9745.625
9747.976
9750.233
9752.912
9753.014
9752.076
9751.716
9752.225
9753.223
9754.362
9755.512
9756.678
9757.891
9759.165
9760.495
9761.868
9763.274
9764.709
9766.171
9767.656
9769.165
9770.694
9772.242
9773.809
9775.393
9776.994
9778.611
9780.244
9781.892
9783.556
9785.235
9786.929
9788.638
9790.363
9792.105
9793.864
9795.642
9797.441
9799.262
9801.109
9802.985
9804.896
9806.847
9808.842
9810.869
9812.89
9814.821
9816.569
9818.031
9819.251
9820.417
9821.654
9822.941
9824.237
9825.439
9826.328
9826.512
9826.862
9828.206
9830.061
9831.833
9833.33
9834.641
9835.897
9837.164
9838.45
9839.741
9841.023
9842.29
9843.541
9844.776
9845.993
9847.189
9848.359
9849.5
9850.61
9851.685
9852.724
9853.724
9854.685
9855.603
9856.478
9857.309
9858.094
9858.832
9859.522
9860.163
9860.754
9861.294
9861.784
9862.221
9862.605
9862.935
9863.211
9863.432
9863.596
9863.704
9863.755
9863.747
9863.68
9863.553
9863.365
9863.115
9862.802
9862.426
9861.984
9861.475
9860.899
9860.254
9859.538
9858.749
9857.886
9856.947
9855.929
9854.829
9853.646
9852.374
9851.012
9849.553
9847.994
9846.329
9844.549
9842.65
9840.618
9838.445
9836.115
9833.615
9830.918
9828.009
9824.841
9821.392
9817.592
9813.417
9808.761
9803.659
9798.139
9792.768
9788.462
9786.908
9788.482
9794.105
4260.24
4264.756
4291.49
4330.416
4383.269
4446.257
4521.824
4608.936
4707.389
4816.66
4939.645
5075.607
5220.678
5377.387
5546.111
5726.493
5918.312
6119.981
6328.134
6576.879
6807.387
7043.842
7284.009
7524.449
7760.542
7990.237
8209.405
8414.31
8603.428
8767.191
8907.869
9023.41
9112.323
9173.876
9208.213
9216.307
9199.949
9160.925
9096.516
9023.46
8933.003
8830.939
8719.667
8601.908
8479.43
8354.253
8228.481
8102.846
7977.116
7855.691
7736.523
7622.142
7513.202
7410.456
7315.392
7232.04
7115.833
7045.371
6988.172
6938.129
6895.745
6862.315
6838.199
6822.881
6815.551
6815.318
6822.398
6835.567
6852.951
6874.502
6900.271
6929.689
6961.926
6996.666
7033.393
7071.843
7111.577
7151.642
7192.976
7236.041
7280.696
7326.608
7373.606
7421.614
7470.757
7521.049
7572.058
7624.031
7677.017
7731.016
7785.769
7841.212
7897.019
7954.193
8011.972
8066.743
8119.62
8172.583
8226.217
8279.99
8333.067
8384.866
8435.235
8484.198
8532.028
8578.945
8624.855
8669.738
8713.654
8756.761
8798.964
8840.325
8880.376
8918.677
8953.163
8983.416
9012.293
9040.646
9067.16
9090.942
9112.742
9133.672
9154.251
9174.49
9194.27
9213.535
9232.303
9250.633
9268.601
9286.324
9303.938
9321.64
9339.614
9358.117
9377.275
9396.588
9415.697
9434.265
9450.478
9462.703
9470.927
9476.231
9479.164
9482.171
9488.04
9496.683
9506.29
9515.591
9524.216
9532.292
9540.026
9547.511
9554.736
9561.667
9568.297
9574.639
9580.707
9586.522
9592.098
9597.439
9602.539
9607.416
9612.098
9616.589
9620.889
9625.003
9628.937
9632.697
9636.287
9639.716
9642.989
9646.115
9649.099
9651.949
9654.67
9657.269
9659.751
9662.122
9664.387
9666.552
9668.621
9670.601
9672.497
9674.314
9676.059
9677.735
9679.352
9680.921
9682.454
9683.969
9685.486
9687.03
9688.605
9690.163
9691.63
9693.039
9694.41
9695.756
9697.095
9698.427
9699.752
9701.069
9702.379
9703.682
9704.975
9706.271
9707.557
9708.834
9710.102
9711.359
9712.604
9713.837
9715.057
9716.261
9717.448
9718.618
9719.769
9720.9
9722.009
9723.096
9724.159
9725.197
9726.208
9727.193
9728.149
9729.074
9729.969
9730.831
9731.66
9732.452
9733.205
9733.92
9734.595
9735.228
9735.813
9736.352
9736.845
9737.295
9737.715
9738.121
9738.584
9739.185
9740.132
9740.761
9740.932
9740.873
9740.815
9740.781
9740.713
9740.587
9740.401
9740.156
9739.855
9739.499
9739.087
9738.62
9738.1
9737.53
9736.895
9736.241
9735.523
9734.744
9733.907
9733.01
9732.05
9731.025
9729.928
9728.753
9727.493
9726.136
9724.671
9723.084
9721.367
9719.535
9717.658
9715.893
9714.518
9713.931
9714.377
9715.629
9717.131
9718.567
9719.871
9721.069
9722.193
9723.256
9724.264
9725.222
9726.139
9727.023
9727.881
9728.718
9729.541
9730.352
9731.157
9731.959
9732.762
9733.568
9734.379
9735.2
9736.032
9736.879
9737.74
9738.621
9739.52
9740.443
9741.388
9742.363
9743.355
9744.381
9745.417
9746.594
9747.381
9747.34
9747.53
9748.347
9749.575
9750.938
9752.301
9753.629
9754.929
9756.222
9757.528
9758.864
9760.233
9761.631
9763.055
9764.501
9765.97
9767.461
9768.972
9770.503
9772.054
9773.622
9775.207
9776.809
9778.427
9780.061
9781.71
9783.375
9785.054
9786.748
9788.457
9790.181
9791.92
9793.676
9795.45
9797.241
9799.053
9800.885
9802.741
9804.618
9806.518
9808.431
9810.341
9812.217
9814.03
9815.735
9817.283
9818.657
9819.932
9821.199
9822.497
9823.786
9825.06
9826.388
9828.053
9829.696
9830.961
9831.968
9832.938
9833.96
9835.038
9836.164
9837.335
9838.542
9839.772
9841.009
9842.244
9843.469
9844.683
9845.881
9847.062
9848.221
9849.353
9850.457
9851.529
9852.566
9853.568
9854.531
9855.454
9856.336
9857.174
9857.967
9858.715
9859.415
9860.068
9860.671
9861.224
9861.726
9862.176
9862.574
9862.917
9863.206
9863.44
9863.618
9863.738
9863.801
9863.805
9863.75
9863.634
9863.457
9863.218
9862.915
9862.548
9862.115
9861.616
9861.048
9860.412
9859.704
9858.924
9858.07
9857.139
9856.13
9855.041
9853.867
9852.608
9851.258
9849.815
9848.273
9846.628
9844.873
9843.001
9841.005
9838.874
9836.598
9834.163
9831.554
9828.751
9825.734
9822.477
9818.964
9815.175
9811.14
9806.919
9802.729
9798.845
9795.724
9793.661
9793.386
9795.074
4569.519
4503.331
4450.491
4399.019
4353.378
4321.94
4305.975
4313.977
4338.097
4328.835
4288.121
4258.813
4252.156
4263.044
4289.06
4328.413
4379.839
4442.923
4517.053
4602.167
4698.842
4806.509
4924.758
5054.753
5196.954
5349.992
5514.975
5691.607
5879.45
6075.762
6283.463
6548.921
6778.446
7014.993
7252.86
7490.692
7725.709
7954.476
8173.22
8377.766
8563.482
8726.04
8863.839
8975.787
9060.292
9116.88
9145.989
9148.893
9127.558
9084.621
9022.935
8945.223
8853.416
8750.047
8637.869
8519.327
8396.746
8271.997
8146.472
8021.368
7897.883
7777.249
7660.367
7548.006
7441.221
7340.784
7247.052
7160.19
7079.178
7009.795
6952.715
6903.835
6863.014
6831.46
6809.421
6796.325
6791.347
6793.906
6803.106
6817.709
6837.263
6861.376
6889.545
6921.104
6954.536
6990.409
7028.109
7067.131
7106.832
7147.403
7189.347
7232.71
7277.293
7322.973
7369.684
7417.458
7466.208
7515.992
7567.016
7619.07
7672.085
7725.925
7780.616
7835.946
7892.161
7947.89
8003.927
8059.961
8115.392
8170.17
8224.508
8278.383
8331.521
8383.592
8434.428
8484.027
8532.464
8579.767
8625.886
8670.834
8714.629
8757.327
8798.867
8839.205
8878.036
8914.973
8949.17
8980.386
9009.65
9037.676
9064.165
9088.683
9111.486
9133.211
9154.308
9174.907
9194.989
9214.543
9233.602
9252.233
9270.511
9288.53
9306.383
9324.19
9342.063
9360.11
9378.283
9396.336
9413.922
9430.635
9445.564
9457.896
9467.462
9474.78
9480.396
9485.701
9492.255
9500.392
9509.326
9518.204
9526.638
9534.627
9542.291
9549.706
9556.871
9563.759
9570.356
9576.666
9582.704
9588.487
9594.027
9599.327
9604.396
9609.251
9613.904
9618.361
9622.625
9626.702
9630.6
9634.322
9637.877
9641.27
9644.507
9647.597
9650.545
9653.358
9656.042
9658.602
9661.044
9663.375
9665.599
9667.722
9669.749
9671.687
9673.54
9675.315
9677.019
9678.658
9680.241
9681.778
9683.28
9684.76
9686.231
9687.706
9689.185
9690.65
9692.073
9693.455
9694.803
9696.104
9697.408
9698.706
9699.998
9701.284
9702.563
9703.836
9705.103
9706.367
9707.625
9708.875
9710.117
9711.349
9712.569
9713.778
9714.973
9716.153
9717.316
9718.463
9719.59
9720.698
9721.785
9722.85
9723.891
9724.908
9725.9
9726.865
9727.802
9728.71
9729.587
9730.434
9731.247
9732.025
9732.768
9733.475
9734.142
9734.771
9735.358
9735.905
9736.413
9736.889
9737.34
9737.796
9738.269
9738.801
9739.271
9739.533
9739.701
9739.832
9739.928
9739.977
9739.962
9739.874
9739.716
9739.495
9739.218
9738.884
9738.495
9738.053
9737.559
9737.013
9736.41
9735.756
9735.046
9734.281
9733.461
9732.586
9731.653
9730.66
9729.605
9728.482
9727.289
9726.021
9724.676
9723.258
9721.781
9720.284
9718.839
9717.554
9716.587
9716.11
9716.276
9717.047
9718.149
9719.3
9720.395
9721.436
9722.441
9723.413
9724.351
9725.256
9726.131
9726.981
9727.812
9728.627
9729.431
9730.228
9731.02
9731.811
9732.605
9733.403
9734.208
9735.022
9735.848
9736.689
9737.544
9738.418
9739.311
9740.224
9741.158
9742.113
9743.088
9744.079
9745.079
9746
9746.844
9747.821
9748.907
9749.943
9750.897
9751.858
9752.895
9754.011
9755.183
9756.393
9757.64
9758.928
9760.256
9761.622
9763.02
9764.447
9765.9
9767.378
9768.879
9770.402
9771.946
9773.509
9775.091
9776.689
9778.305
9779.937
9781.585
9783.248
9784.925
9786.617
9788.324
9790.045
9791.781
9793.532
9795.298
9797.081
9798.88
9800.696
9802.525
9804.364
9806.212
9808.06
9809.895
9811.699
9813.45
9815.121
9816.683
9818.125
9819.485
9820.815
9822.152
9823.497
9824.866
9826.272
9827.681
9828.877
9829.907
9830.955
9832.108
9833.337
9834.587
9835.836
9837.084
9838.336
9839.592
9840.845
9842.092
9843.33
9844.553
9845.76
9846.946
9848.108
9849.244
9850.35
9851.425
9852.467
9853.473
9854.441
9855.369
9856.257
9857.102
9857.904
9858.66
9859.37
9860.033
9860.647
9861.211
9861.725
9862.187
9862.596
9862.953
9863.255
9863.501
9863.691
9863.825
9863.9
9863.917
9863.874
9863.771
9863.606
9863.378
9863.087
9862.731
9862.309
9861.821
9861.265
9860.639
9859.942
9859.173
9858.331
9857.412
9856.416
9855.34
9854.182
9852.939
9851.608
9850.186
9848.668
9847.051
9845.329
9843.496
9841.547
9839.474
9837.268
9834.919
9832.418
9829.754
9826.917
9823.897
9820.7
9817.337
9813.862
9810.352
9806.962
9803.857
9801.248
9799.391
9798.545
9798.618
5436.072
5361.541
5287.578
5210.127
5126.698
5041.568
4959.776
4878.134
4798.325
4720.182
4644.692
4575.576
4509.279
4448.17
4395.024
4348.769
4306.098
4282.274
4268.98
4258.854
4244.005
4229.728
4223.338
4228.578
4246.258
4276.1
4317.791
4371.198
4436.145
4510.495
4595.272
4691.391
4799.125
4918.019
5048.155
5189.753
5343.197
5508.781
5685.995
5873.272
6069.367
6276.308
6487.132
6711.034
6941.423
7176.118
7412.325
7646.47
7874.824
8093.845
8298.74
8484.63
8647.612
8785.55
8897.112
8981.166
9037.371
9066.242
9069.125
9048.054
9005.429
8944.054
8866.997
8776.663
8675.286
8565.315
8449.101
8328.889
8206.384
8082.881
7959.688
7838.149
7719.339
7603.78
7492.138
7385.476
7284.961
7191.313
7105.442
7028.173
6961.037
6904.264
6856.772
6818.315
6789.306
6769.789
6759.284
6757.053
6762.312
6774.109
6791.643
6814.213
6841.045
6871.453
6904.821
6941.313
6979.156
7018.191
7058.157
7098.875
7140.387
7182.807
7226.207
7270.593
7315.966
7362.327
7409.703
7458.134
7507.703
7558.454
7610.275
7663.128
7716.918
7771.645
7827.085
7883.14
7939.334
7995.921
8052.731
8109.081
8164.659
8219.585
8273.959
8327.652
8380.407
8432.02
8482.401
8531.52
8579.364
8625.912
8671.155
8715.077
8757.68
8798.905
8838.665
8876.753
8912.919
8946.868
8978.473
9008.068
9036.093
9062.64
9087.607
9111.094
9133.444
9154.991
9175.911
9196.254
9216.048
9235.333
9254.173
9272.636
9290.795
9308.721
9326.489
9344.157
9361.744
9379.185
9396.316
9412.843
9428.423
9442.59
9454.929
9465.273
9473.88
9481.275
9488.233
9495.559
9503.608
9512.15
9520.728
9529.031
9536.98
9544.618
9551.993
9559.113
9565.962
9572.529
9578.815
9584.832
9590.592
9596.106
9601.383
9606.432
9611.263
9615.886
9620.308
9624.538
9628.582
9632.446
9636.137
9639.66
9643.023
9646.231
9649.291
9652.21
9654.993
9657.646
9660.174
9662.583
9664.879
9667.067
9669.152
9671.14
9673.038
9674.85
9676.584
9678.247
9679.845
9681.388
9682.884
9684.344
9685.778
9687.196
9688.605
9690.006
9691.392
9692.748
9694.073
9695.361
9696.656
9697.932
9699.188
9700.444
9701.695
9702.943
9704.186
9705.425
9706.66
9707.889
9709.111
9710.326
9711.531
9712.725
9713.907
9715.076
9716.231
9717.369
9718.49
9719.593
9720.676
9721.739
9722.78
9723.798
9724.792
9725.762
9726.705
9727.622
9728.51
9729.37
9730.199
9730.996
9731.761
9732.491
9733.187
9733.847
9734.471
9735.056
9735.606
9736.121
9736.608
9737.07
9737.521
9737.957
9738.374
9738.733
9739.032
9739.279
9739.458
9739.563
9739.599
9739.571
9739.479
9739.327
9739.115
9738.846
9738.523
9738.145
9737.714
9737.23
9736.692
9736.102
9735.461
9734.77
9734.027
9733.232
9732.385
9731.486
9730.533
9729.525
9728.462
9727.344
9726.172
9724.952
9723.695
9722.424
9721.175
9720.009
9719.004
9718.262
9717.884
9717.951
9718.445
9719.223
9720.111
9721.016
9721.912
9722.801
9723.68
9724.544
9725.388
9726.215
9727.026
9727.824
9728.612
9729.393
9730.17
9730.946
9731.723
9732.504
9733.29
9734.085
9734.891
9735.709
9736.541
9737.389
9738.254
9739.137
9740.04
9740.961
9741.901
9742.857
9743.822
9744.787
9745.738
9746.735
9747.774
9748.74
9749.626
9750.53
9751.522
9752.612
9753.775
9754.984
9756.226
9757.497
9758.801
9760.14
9761.511
9762.912
9764.34
9765.794
9767.272
9768.774
9770.297
9771.84
9773.403
9774.984
9776.583
9778.199
9779.831
9781.478
9783.14
9784.817
9786.508
9788.213
9789.931
9791.663
9793.408
9795.166
9796.938
9798.724
9800.526
9802.333
9804.135
9805.937
9807.739
9809.525
9811.281
9812.99
9814.634
9816.198
9817.68
9819.101
9820.487
9821.865
9823.241
9824.616
9825.968
9827.26
9828.477
9829.678
9830.899
9832.143
9833.396
9834.644
9835.885
9837.124
9838.367
9839.613
9840.858
9842.098
9843.328
9844.545
9845.744
9846.924
9848.081
9849.213
9850.316
9851.39
9852.432
9853.439
9854.409
9855.342
9856.234
9857.085
9857.893
9858.657
9859.376
9860.048
9860.672
9861.247
9861.772
9862.247
9862.669
9863.038
9863.353
9863.612
9863.816
9863.963
9864.052
9864.082
9864.053
9863.963
9863.811
9863.596
9863.318
9862.975
9862.567
9862.091
9861.548
9860.935
9860.252
9859.496
9858.668
9857.764
9856.784
9855.725
9854.585
9853.363
9852.054
9850.658
9849.169
9847.586
9845.904
9844.118
9842.225
9840.218
9838.093
9835.843
9833.465
9830.953
9828.308
9825.531
9822.639
9819.656
9816.638
9813.647
9810.805
9808.203
9806.034
9804.381
9803.43
9802.915
6129.84
6059.55
5992.57
5922.276
5857.677
5785.483
5721.006
5653.238
5582.761
5511.489
5439.246
5364.926
5289.31
5212.191
5130.335
5035.417
4953.342
4872.765
4792.886
4714.491
4638.525
4566.393
4498.367
4435.183
4378.476
4329.516
4288.645
4257.078
4233.116
4214.074
4198.765
4189.608
4188.795
4197.91
4217.729
4248.39
4289.663
4341.376
4403.621
4477.575
4561.894
4656.611
4761.972
4878.19
5005.351
5143.676
5293.678
5455.755
5628.581
5810.909
6003.771
6207.528
6418.362
6638.333
6865.631
7097.413
7330.819
7562.789
7788.78
8005.253
8207.623
8391.407
8552.678
8688.776
8798.159
8879.972
8934.098
8961.231
8962.872
8941.119
8898.511
8837.791
8761.872
8673.274
8574.361
8467.382
8354.377
8237.581
8118.763
7998.989
7879.374
7760.947
7644.528
7530.988
7421.322
7316.194
7216.654
7124.112
7039.7
6964.118
6897.981
6841.838
6795.751
6759.57
6733.254
6716.652
6709.309
6710.509
6719.406
6735.11
6756.762
6783.515
6814.431
6848.644
6885.495
6924.45
6964.615
7005.562
7047.06
7088.995
7131.344
7174.189
7217.667
7261.907
7307.008
7353.013
7399.975
7447.996
7497.158
7547.515
7599.045
7651.728
7705.49
7760.268
7815.881
7872.205
7929.021
7986.193
8043.478
8100.471
8156.93
8212.82
8268.124
8322.709
8376.355
8428.861
8480.103
8530.008
8578.535
8625.647
8671.312
8715.496
8758.173
8799.286
8838.755
8876.461
8912.276
8946.088
8977.84
9007.67
9035.846
9062.547
9087.821
9111.753
9134.549
9156.451
9177.631
9198.176
9218.139
9237.57
9256.528
9275.075
9293.27
9311.167
9328.81
9346.222
9363.394
9380.258
9396.683
9412.453
9427.325
9441.034
9453.351
9464.182
9473.689
9482.232
9490.262
9498.235
9506.44
9514.862
9523.287
9531.508
9539.43
9547.054
9554.404
9561.491
9568.309
9574.852
9581.119
9587.117
9592.858
9598.351
9603.606
9608.63
9613.433
9618.026
9622.418
9626.616
9630.627
9634.46
9638.119
9641.613
9644.947
9648.128
9651.161
9654.053
9656.81
9659.436
9661.936
9664.317
9666.584
9668.741
9670.793
9672.747
9674.609
9676.384
9678.079
9679.701
9681.259
9682.759
9684.212
9685.625
9687.009
9688.37
9689.715
9691.046
9692.362
9693.656
9694.926
9696.174
9697.414
9698.639
9699.868
9701.088
9702.3
9703.512
9704.722
9705.93
9707.133
9708.332
9709.525
9710.711
9711.887
9713.054
9714.209
9715.351
9716.478
9717.59
9718.685
9719.762
9720.819
9721.856
9722.872
9723.865
9724.835
9725.78
9726.701
9727.595
9728.462
9729.301
9730.111
9730.89
9731.639
9732.355
9733.038
9733.687
9734.302
9734.883
9735.43
9735.944
9736.43
9736.888
9737.323
9737.733
9738.114
9738.46
9738.761
9738.998
9739.161
9739.253
9739.281
9739.252
9739.165
9739.02
9738.816
9738.556
9738.241
9737.873
9737.451
9736.977
9736.452
9735.877
9735.253
9734.579
9733.857
9733.087
9732.269
9731.404
9730.492
9729.535
9728.533
9727.491
9726.414
9725.31
9724.196
9723.093
9722.038
9721.076
9720.266
9719.676
9719.366
9719.376
9719.693
9720.243
9720.926
9721.668
9722.436
9723.217
9724.005
9724.792
9725.574
9726.348
9727.115
9727.877
9728.634
9729.388
9730.142
9730.897
9731.656
9732.421
9733.194
9733.977
9734.771
9735.578
9736.4
9737.238
9738.093
9738.967
9739.858
9740.768
9741.695
9742.637
9743.59
9744.553
9745.53
9746.523
9747.502
9748.444
9749.379
9750.361
9751.415
9752.536
9753.706
9754.914
9756.154
9757.425
9758.728
9760.065
9761.433
9762.831
9764.257
9765.709
9767.186
9768.686
9770.208
9771.751
9773.313
9774.894
9776.493
9778.109
9779.74
9781.388
9783.049
9784.725
9786.415
9788.118
9789.833
9791.56
9793.299
9795.049
9796.809
9798.577
9800.352
9802.136
9803.918
9805.694
9807.464
9809.216
9810.938
9812.62
9814.256
9815.828
9817.328
9818.785
9820.213
9821.618
9823.009
9824.382
9825.727
9827.042
9828.337
9829.617
9830.885
9832.142
9833.396
9834.647
9835.896
9837.146
9838.396
9839.647
9840.894
9842.134
9843.363
9844.577
9845.775
9846.952
9848.107
9849.238
9850.342
9851.416
9852.459
9853.468
9854.442
9855.378
9856.276
9857.132
9857.947
9858.718
9859.445
9860.126
9860.76
9861.346
9861.882
9862.368
9862.802
9863.183
9863.511
9863.784
9864.001
9864.161
9864.264
9864.308
9864.292
9864.216
9864.078
9863.877
9863.613
9863.284
9862.889
9862.428
9861.899
9861.301
9860.632
9859.893
9859.08
9858.194
9857.231
9856.192
9855.073
9853.874
9852.592
9851.225
9849.77
9848.225
9846.588
9844.854
9843.023
9841.089
9839.052
9836.908
9834.658
9832.302
9829.846
9827.3
9824.685
9822.028
9819.38
9816.791
9814.361
9812.149
9810.309
9808.834
9807.91
9807.206
6388.66
6375.154
6329.011
6262.264
6189.717
6118.99
6049.583
5982.934
5918.571
5853.15
5775.732
5709.522
5643.046
5574.771
5504.233
5431.757
5357.395
5280.915
5202.537
5123.154
5044.438
4963.406
4882.31
4801.55
4722.002
4644.196
4569.139
4497.173
4429.166
4366.6
4311.023
4264.504
4226.71
4196.629
4173.718
4158.212
4151.17
4153.247
4165.075
4186.976
4219.053
4261.082
4313.134
4375.18
4447.562
4530.234
4623.19
4726.485
4840.241
4964.525
5099.532
5245.731
5403.302
5571.018
5748.486
5936.584
6134.894
6341.866
6557.514
6781.105
7009.121
7238.848
7466.908
7689.2
7901.57
8099.556
8278.86
8435.707
8567.386
8672.284
8749.787
8800.078
8824.137
8823.659
8800.832
8758.236
8698.522
8624.543
8538.655
8443.345
8340.9
8233.056
8121.447
8007.415
7892.342
7777.524
7663.405
7550.4
7439.581
7332.168
7229.056
7131.235
7040.015
6956.624
6881.992
6816.914
6762.13
6718.002
6684.494
6661.424
6648.508
6645.251
6650.931
6664.678
6685.542
6712.518
6744.544
6780.545
6819.5
6860.569
6903.072
6946.32
6989.822
7033.316
7076.704
7120.015
7163.386
7207.014
7251.089
7295.791
7341.285
7387.713
7435.21
7483.891
7533.841
7585.089
7637.631
7691.406
7746.33
7802.258
7859.037
7916.451
7974.284
8032.299
8090.197
8147.743
8204.789
8261.212
8316.858
8371.533
8425.05
8477.274
8528.1
8577.445
8625.255
8671.482
8716.079
8759.01
8800.226
8839.669
8877.278
8912.996
8946.783
8978.636
9008.651
9037.007
9063.875
9089.363
9113.572
9136.658
9158.8
9180.153
9200.819
9220.867
9240.356
9259.342
9277.883
9296.027
9313.815
9331.274
9348.412
9365.206
9381.596
9397.48
9412.706
9427.112
9440.532
9452.84
9463.996
9474.104
9483.388
9492.133
9500.626
9509.077
9517.534
9525.913
9534.092
9541.998
9549.615
9556.953
9564.021
9570.819
9577.342
9583.592
9589.574
9595.297
9600.77
9606.002
9611.001
9615.778
9620.343
9624.704
9628.87
9632.848
9636.648
9640.275
9643.736
9647.04
9650.191
9653.196
9656.061
9658.791
9661.391
9663.866
9666.221
9668.461
9670.591
9672.616
9674.54
9676.37
9678.112
9679.772
9681.358
9682.876
9684.336
9685.745
9687.111
9688.444
9689.749
9691.033
9692.3
9693.549
9694.781
9695.995
9697.193
9698.382
9699.564
9700.744
9701.92
9703.095
9704.266
9705.439
9706.61
9707.779
9708.944
9710.105
9711.259
9712.405
9713.542
9714.668
9715.78
9716.879
9717.963
9719.029
9720.078
9721.107
9722.117
9723.105
9724.071
9725.014
9725.934
9726.829
9727.698
9728.541
9729.357
9730.145
9730.904
9731.634
9732.332
9732.999
9733.635
9734.238
9734.808
9735.347
9735.854
9736.332
9736.78
9737.201
9737.592
9737.953
9738.277
9738.552
9738.766
9738.916
9739.004
9739.034
9739.008
9738.925
9738.784
9738.586
9738.333
9738.026
9737.666
9737.254
9736.791
9736.279
9735.718
9735.11
9734.455
9733.755
9733.01
9732.222
9731.393
9730.525
9729.619
9728.68
9727.712
9726.723
9725.725
9724.733
9723.77
9722.865
9722.054
9721.382
9720.892
9720.621
9720.591
9720.793
9721.188
9721.716
9722.322
9722.975
9723.657
9724.358
9725.07
9725.787
9726.507
9727.227
9727.948
9728.671
9729.395
9730.123
9730.855
9731.593
9732.34
9733.096
9733.864
9734.645
9735.44
9736.25
9737.077
9737.922
9738.784
9739.665
9740.565
9741.481
9742.413
9743.361
9744.322
9745.295
9746.271
9747.246
9748.225
9749.222
9750.257
9751.337
9752.462
9753.628
9754.831
9756.069
9757.34
9758.643
9759.98
9761.347
9762.745
9764.17
9765.622
9767.098
9768.598
9770.12
9771.663
9773.226
9774.808
9776.408
9778.024
9779.657
9781.305
9782.967
9784.643
9786.332
9788.033
9789.745
9791.469
9793.202
9794.944
9796.694
9798.447
9800.201
9801.964
9803.733
9805.492
9807.237
9808.962
9810.659
9812.317
9813.941
9815.527
9817.048
9818.53
9819.988
9821.418
9822.826
9824.214
9825.581
9826.929
9828.258
9829.565
9830.853
9832.129
9833.401
9834.672
9835.941
9837.206
9838.468
9839.726
9840.978
9842.221
9843.451
9844.666
9845.864
9847.041
9848.197
9849.328
9850.432
9851.509
9852.555
9853.568
9854.545
9855.485
9856.386
9857.248
9858.069
9858.847
9859.582
9860.271
9860.914
9861.51
9862.056
9862.553
9862.999
9863.392
9863.732
9864.018
9864.248
9864.422
9864.538
9864.596
9864.594
9864.532
9864.408
9864.222
9863.972
9863.658
9863.278
9862.832
9862.318
9861.736
9861.084
9860.361
9859.566
9858.699
9857.756
9856.738
9855.644
9854.47
9853.217
9851.882
9850.464
9848.961
9847.371
9845.694
9843.928
9842.071
9840.125
9838.089
9835.966
9833.761
9831.485
9829.15
9826.778
9824.399
9822.055
9819.792
9817.684
9815.777
9814.181
9812.866
9812.003
9811.267
6383.631
6349.432
6271.615
6208.335
6143.86
6080.8
6018.963
5958.014
5897.341
5836.585
5775.979
5712.898
5647.928
5580.847
5511.571
5439.833
5365.717
5289.115
5210.03
5129.442
5049.364
4968.321
4886.573
4804.774
4723.161
4641.933
4562.417
4485.992
4413.868
4347.229
4287.913
4237.54
4196.279
4163.776
4139.949
4124.959
4119.207
4122.916
4136.274
4159.288
4191.897
4234.196
4286.048
4347.508
4418.703
4499.781
4590.874
4692.056
4803.374
4924.841
5056.579
5198.877
5351.473
5513.76
5686.089
5869.316
6062.466
6264.865
6475.976
6694.614
6917.971
7142.877
7365.709
7582.33
7788.375
7979.464
8151.496
8300.967
8425.414
8523.406
8594.652
8639.664
8659.763
8656.759
8632.982
8590.936
8533.156
8462.528
8381.343
8291.435
8194.497
8092.568
7987.243
7879.229
7769.761
7660.166
7550.861
7442.139
7334.735
7229.693
7128.108
7031.192
6940.369
6857.163
6782.913
6718.729
6665.458
6623.548