/*--------------------------------*- C++ -*----------------------------------*\
| =========                 |                                                 |
| \\      /  F ield         | foam-extend: Open Source CFD                    |
|  \\    /   O peration     | Version:     3.1                                |
|   \\  /    A nd           | Web:         http://www.extend-project.de       |
|    \\/     M anipulation  |                                                 |
\*---------------------------------------------------------------------------*/
FoamFile
{
    version     2.0;
    format      ascii;
    class       volScalarField;
    location    "3.5";
    object      p;
}
// * * * * * * * * * * * * * * * * * * * * * * * * * * * * * * * * * * * * * //

dimensions      [1 -1 -2 0 0 0 0];

internalField   nonuniform List<scalar> 
119952
(
7867.839
7894.549
7836.402
7845.949
7879.439
7886.469
7880.683
7863.703
7859.773
7857.284
7847.092
7837.544
7823.798
7807.596
7799.646
7799.102
7779.108
7777.006
7766.575
7763.656
7770.547
7706.01
7696.765
7726.576
7687.527
7681.908
7713.1
7720.328
7762.18
6159.797
7772.126
7695.796
7649.792
7697.55
7727.392
7736.241
7749.256
7761.472
7797.769
7861.229
7694.951
7711.452
7712.778
7719.913
7731.313
7742.717
7757.002
7771.506
7726.351
7685.712
7715.846
7711.809
7734.051
7761.967
7770.188
7779.761
7780.307
7770.197
7767.538
7709.621
7691.328
7693.059
7696.955
7702.097
7707.008
7716.558
7702.446
7649.711
7605.623
7555.564
7584.16
7602.926
7611.611
7582.673
7597.179
7594.645
7588.105
7584.256
7567.559
7559.604
7549.574
7536.233
7521.842
7509.282
7495.737
7482.09
7466.259
7457.072
7448.608
7427.623
7424.607
7440.78
7437.793
7414.347
7399.211
7403.151
7346.389
7192.338
7130.52
7141.252
7146.185
7138.517
7129.782
7120.091
7109.979
7099.01
7086.053
7074.933
7068.112
7064.23
7075.608
7088.573
7011.818
7005.402
6991.704
6974.414
6956.769
6940.262
6923.241
6897.179
6880.458
6861.249
6841.213
6821.247
6801.197
6780.524
6760.201
6740.437
6719.963
6699.087
6677.754
6656.67
6635.933
6615.729
6594.392
6572.957
6552.221
6531.336
6510.111
6485.292
6468.421
6447.642
6426.443
6406.822
6389.509
6371.109
6337.957
6295.694
6247.147
6231.882
6221.229
6202.533
6185.665
6170.81
6153.507
6136.928
6116.77
6100.815
6083.851
6067.657
6051.593
6035.734
6020.634
6005.619
5989.183
5974.872
5961.19
5946.15
5931.922
5919.03
5906.068
5892.803
5878.127
5866.162
5854.362
5843.059
5833.291
5817.728
5808.816
5798.658
5788.347
5777.986
5768.977
5759.691
5750.203
5739.64
5732.971
5723.951
5715.457
5708.229
5701.717
5695.41
5688.204
5684.054
5680.835
5680.169
5681.028
5705.13
5635.142
5639.651
5630.725
5633.968
5610.83
5632.97
5628.125
5621.543
5616.946
5612.75
5608.17
5603.978
5600.984
5598.503
5590.542
5588.224
5584.01
5573.218
5595.026
5577.946
5575.564
5569.837
5578.364
5568.042
5563.78
5561.179
5559.818
5557.245
5554.562
5551.587
5549.845
5549.086
5545.751
5542.688
5541.094
5543.698
5541.375
5539.937
5540.268
5539.009
5538.171
5537.576
5536.75
5536.385
5536.194
5536.041
5535.459
5534.982
5535.017
5534.732
5533.745
5546.28
5538.944
5537.075
5538.377
5539.413
5539.693
5540.512
5541.987
5539.591
5545.734
5546.735
5548.971
5551.562
5553.705
5557.151
5558.486
5579.146
5565.67
5474.62
5510.997
5509.173
5513.168
5517.223
5521.241
5526.29
5526.833
5528.094
5534.641
5541.263
5538.004
5541.635
5544.047
5546.507
5550.261
5555.89
5556.733
5559.956
5564.747
5567.441
5569.327
5573.101
5576.939
5580.255
5582.121
5584.599
5588.151
5591.67
5595.073
5598.471
5602.014
5606.235
5611.391
5613.348
5617
5619.154
5623.315
5627.606
5631.108
5633.313
5637.61
5641.989
5646.687
5649.983
5654.484
5656.763
5662.269
5667.876
5673.573
5679.711
5685.06
5684.232
5673.227
5652.612
5663.013
5673.024
5685.357
5697.191
5671.928
5693.741
5695.194
5698.202
5702.948
5708.762
5710.016
5711.35
5718.677
5720.827
5727.156
5731.259
5732.699
5738.324
5742.942
5747.058
5751.207
5755.939
5761.171
5765.167
5769.043
5773.787
5778.546
5782.339
5786.615
5790.385
5793.756
5797.524
5802.277
5805.957
5809.24
5812.973
5816.409
5819.989
5823.138
5826.556
5829.82
5832.858
5836.325
5839.457
5842.539
5845.963
5848.537
5852.288
5857.849
5859.39
5859.81
5864.834
5867.858
5871.008
5873.587
5876.368
5879.473
5885.159
5881.421
5888.133
5890.02
5892.436
5895.391
5898.006
5900.734
5903.483
5906.505
5908.402
5909.672
5913.424
5916.619
5918.919
5921.871
5924.76
5927.77
5931.119
5934.546
5938.034
5942.699
5949.11
5954.258
5947.666
5925.087
5909.482
6965.042
6971.599
7012.681
7027.633
7049.761
7064.49
7108.362
7125.346
7151.524
7136.185
7121.884
7135.898
7164.199
7173.623
7196.515
7217.021
7241.799
7242.018
7187.545
7246.22
7260.541
7288.947
7330.608
7343.265
7349.18
7368.199
7378.906
7370.19
7373.356
7347.679
7373.142
7385.424
7427.368
7409.169
7442.959
7459.392
7447.19
7425.035
7396.587
7421.464
7441.207
7453.878
7467.241
7479.757
7484.129
7479.889
7446.549
7430.223
7436.804
7444.674
7451.267
7462.536
7476.529
7485.744
7485.012
7471.214
7379.793
7398.067
7418.431
7431.785
7442.885
7453.288
7454.608
7457.168
7450.466
7440.751
7425.19
7410.872
7400.358
7394.557
7391.988
7388.466
7381.361
7368.468
7346.129
7319.751
7300.135
7291.527
7292.683
7292.881
7290.884
7287.982
7283.927
7277.464
7267.832
7255.883
7243.968
7231.803
7219.682
7207.141
7194.346
7181.48
7168.982
7156.854
7145.184
7134.601
7125.419
7117.516
7110.435
7101.464
7087.487
7066.31
7036.286
6993.929
6937.314
6883.595
6851.072
6839.648
6835.651
6829.999
6821.239
6809.595
6796.752
6783.966
6773.184
6764.848
6758.456
6752.608
6744.625
6726.761
6701.687
6679.307
6660.985
6644.153
6626.988
6608.322
6588.674
6568.86
6549.238
6529.586
6509.654
6489.508
6469.293
6448.956
6428.44
6407.694
6386.75
6365.753
6344.803
6323.81
6302.681
6281.258
6259.82
6238.548
6217.289
6195.986
6174.707
6153.567
6132.676
6111.769
6090.251
6067.88
6043.918
6015.539
5982.117
5948.918
5929.232
5914.599
5899.167
5881.031
5862.257
5844.202
5826.697
5808.892
5790.815
5773.254
5756.436
5740.475
5725.015
5709.634
5694.159
5678.999
5664.264
5649.853
5635.783
5622.067
5608.522
5595.062
5581.717
5568.724
5555.97
5543.738
5532.013
5520.969
5510.302
5499.646
5488.905
5478.349
5468.304
5458.657
5449.169
5439.88
5431.158
5423.226
5415.316
5407.25
5399.519
5392.307
5385.711
5379.215
5372.5
5367.754
5362.223
5350.425
5398.693
5375.005
5363.99
5358.672
5355.142
5354.671
5354.021
5350.014
5345.011
5340.67
5336.333
5332.224
5328.34
5324.552
5320.794
5318.355
5315.186
5313.008
5310.827
5304.944
5302.547
5299.306
5296.016
5293.791
5292.078
5288.668
5285.919
5283.444
5281.115
5279.037
5276.971
5274.972
5272.961
5271.091
5269.353
5267.904
5266.65
5265.399
5264.713
5263.91
5262.974
5262.172
5261.448
5260.886
5260.449
5260.094
5259.783
5259.619
5259.638
5259.787
5260.067
5260.288
5261.257
5260.906
5261.677
5262.457
5263.348
5264.3
5265.208
5266.307
5267.334
5268.926
5270.548
5272.151
5274.205
5276.82
5279.564
5281.763
5281.899
5274.53
5180.968
5194.291
5206.485
5210.938
5213.805
5217.122
5220.789
5224.45
5227.719
5230.57
5232.695
5234.27
5236.186
5238.649
5241.579
5244.969
5248.639
5252.341
5255.716
5258.726
5262.381
5265.225
5267.795
5270.705
5273.725
5276.705
5279.588
5282.58
5285.851
5289.396
5293.006
5296.518
5299.856
5302.953
5306.413
5310.762
5314.422
5317.637
5321.113
5324.763
5328.418
5332.117
5335.918
5339.851
5343.886
5347.888
5351.758
5355.821
5360.073
5364.422
5368.292
5370.781
5370.923
5368.031
5366.646
5367
5370.506
5376.081
5380.752
5383.309
5386.217
5389.857
5393.926
5398.026
5401.825
5405.395
5408.901
5412.789
5416.939
5421.201
5425.474
5429.596
5433.653
5437.827
5442.18
5446.53
5450.738
5454.985
5459.165
5463.306
5467.553
5471.855
5476.242
5480.325
5484.304
5487.902
5491.32
5495.243
5499.362
5503.145
5506.692
5510.346
5513.896
5517.306
5520.623
5523.903
5527.137
5530.364
5533.609
5536.858
5540.061
5543.203
5546.365
5549.597
5552.939
5556.246
5559.098
5561.835
5564.835
5567.826
5570.756
5573.566
5576.309
5578.924
5581.461
5584.039
5586.723
5589.436
5592.096
5594.733
5597.378
5600.028
5602.526
5604.896
5607.457
5610.246
5612.908
5615.42
5618.13
5621.06
5624.084
5627.076
5630.035
5632.622
5634.548
5634.722
5633.067
5629.026
5627.202
6490.521
6540.177
6552.707
6560.51
6612.262
6567.975
6603.182
6574.191
6582.722
6627.346
6487.388
6510.965
6499.205
6536.612
6534.06
6543.809
6555.128
6560.995
6529.768
6491.576
6505.582
6511.06
6520.866
6536.661
6548.198
6578.983
6577.301
6582.01
6603.304
6597.222
6606.822
6618.202
6630.367
6643.292
6656.864
6672.494
6690.127
6690.169
6702.046
6725.971
6744.17
6761.862
6781.907
6806.122
6822.791
6841.73
6845.832
6843.187
6852.219
6867.885
6884.898
6902.81
6923.062
6942.587
6961.389
6974.209
6916.6
6934.644
6962.225
6990.739
7013.638
7030.791
7044.262
7054.33
7060.68
7065.176
7069.336
7073.715
7080.002
7089.748
7102.153
7114.025
7123.012
7128.4
7130.342
7130.246
7130.574
7133.586
7139.589
7147.316
7155.554
7161.589
7163.488
7160.379
7152.493
7144.674
7141.729
7144.165
7150.907
7159.488
7166.627
7171.242
7173.584
7172.403
7172.586
7177.065
7182.958
7188.7
7193.588
7196.477
7195.336
7190.355
7181.722
7170.058
7157.235
7148.904
7145.995
7143.275
7139.596
7134.141
7125.233
7112.048
7095.17
7078.156
7065.995
7060.538
7057.463
7054.449
7050.993
7046.752
7041.203
7033.602
7024.147
7013.615
7002.865
6991.984
6980.536
6968.245
6955.158
6941.493
6927.761
6914.069
6900.723
6888.012
6875.643
6863.318
6850.353
6836.031
6819.302
6798.736
6773.469
6743.412
6709.183
6676.091
6649.471
6629.571
6613.616
6599.239
6585.295
6571.011
6556.84
6543.893
6531.796
6520.77
6508.604
6494.41
6478.223
6462.017
6446.297
6431.163
6415.382
6398.374
6380.241
6361.935
6343.105
6323.705
6304.039
6284.266
6264.315
6244.153
6223.918
6203.554
6182.939
6162.086
6141.103
6120.076
6098.93
6077.734
6056.368
6034.957
6013.478
5991.991
5970.458
5949.006
5927.545
5906.135
5884.723
5863.12
5841.156
5818.577
5795.32
5770.814
5745.07
5717.736
5692.639
5670.176
5649.823
5631.057
5613.235
5595.349
5577.407
5559.513
5542.38
5525.599
5509.278
5493.893
5479.003
5463.976
5448.672
5433.411
5418.438
5403.806
5389.581
5375.627
5361.979
5348.548
5335.362
5322.369
5309.575
5297.062
5285.05
5274.422
5263.938
5253.545
5243.114
5232.876
5222.948
5213.292
5203.677
5194.373
5185.125
5176.217
5167.864
5159.832
5152.104
5144.796
5137.792
5131.118
5125.336
5119.218
5111.019
5100.237
5087.213
5074.922
5065.141
5057.486
5051.808
5048.49
5045.389
5041.865
5037.859
5033.374
5028.967
5024.901
5020.984
5017.293
5013.768
5010.493
5007.379
5004.274
5001.067
4998.12
4995.367
4992.287
4989.216
4986.355
4983.746
4981.281
4978.855
4976.403
4974.053
4971.864
4969.81
4967.824
4965.916
4964.11
4962.489
4961.02
4959.724
4958.689
4957.727
4956.828
4956.001
4955.267
4954.662
4954.134
4953.704
4953.364
4953.096
4952.934
4952.914
4953.011
4953.222
4953.519
4953.965
4954.457
4955.065
4955.785
4956.582
4957.479
4958.525
4959.615
4960.794
4962.092
4963.506
4965.046
4966.671
4968.318
4969.854
4971.179
4972.247
4973.718
4976.649
4973.945
4970.386
4968.368
4967.981
4969.174
4971.536
4974.254
4977.338
4980.581
4983.929
4987.303
4990.449
4993.271
4995.996
4998.844
5001.823
5004.977
5008.269
5011.284
5014.033
5016.885
5019.895
5023.073
5026.356
5029.676
5033.008
5036.34
5039.696
5043.101
5046.558
5050.007
5053.91
5058.055
5061.208
5064.275
5067.714
5071.306
5074.94
5078.627
5082.348
5086.112
5089.934
5093.813
5097.688
5101.657
5105.725
5109.806
5113.805
5117.585
5120.952
5123.646
5125.166
5124.67
5122.225
5121.817
5124.491
5127.865
5131.88
5136.2
5140.708
5145.117
5149.342
5153.323
5157.142
5160.95
5164.848
5168.839
5172.91
5177.035
5181.126
5185.195
5189.308
5193.586
5197.89
5202.214
5206.575
5210.687
5214.65
5219.107
5223.828
5228.298
5232.306
5236.051
5239.829
5243.588
5247.794
5251.618
5255.15
5258.761
5262.164
5265.466
5268.813
5272.151
5275.511
5278.843
5282.137
5285.388
5288.639
5291.91
5295.216
5298.551
5301.867
5305.093
5308.048
5310.833
5313.688
5316.767
5319.878
5322.744
5325.487
5328.255
5331.024
5333.781
5336.527
5339.243
5341.889
5344.49
5347.057
5349.586
5352.104
5354.604
5357.113
5359.646
5362.205
5364.732
5367.264
5369.828
5372.414
5374.983
5377.546
5380.008
5382.293
5384.17
5385.327
5385.165
5382.88
5377.817
5372.967
5495.288
5449.843
5282.985
5742.799
5827.269
5942.723
5980.037
5970.41
6033.662
6097.832
6147.619
6202.743
6237.226
6265.069
6287.498
6298.823
6308.517
6306.087
6304.494
6304.536
6292.626
6241.482
6237.215
6245.361
6251.236
6255.931
6266.563
6267.697
6267.987
6264.755
6256.109
6161.419
6183.507
6207.014
6221.048
6229.99
6239.524
6253.733
6267.457
6275.18
6281.949
6291.167
6304.684
6316.276
6326.2
6336.318
6351.801
6374.213
6389.238
6398.336
6409.79
6424.629
6442.242
6460.347
6478.412
6496.807
6513.293
6528.066
6540.007
6549.16
6558.185
6569.98
6584.869
6601.538
6618.861
6636.427
6653.132
6669.45
6685.15
6701.245
6720.486
6740.951
6757.451
6770.827
6783.318
6794.87
6804.852
6811.255
6814.875
6820.882
6829.396
6839.923
6851.561
6862.427
6871.82
6879.26
6883.741
6885.239
6885.48
6887.696
6892.947
6899.986
6906.817
6912.302
6915.429
6915.711
6913.83
6911.602
6910.704
6911.631
6914.493
6919.392
6924.458
6927.833
6929.897
6931.088
6931.183
6931.375
6933.47
6936.848
6940.424
6943.009
6943.617
6942.146
6938.561
6933.818
6927.851
6920.843
6913.638
6905.815
6897.975
6890.055
6881.617
6872.024
6859.739
6845.648
6834.133
6824.691
6816.461
6809.858
6804.173
6798.405
6791.784
6783.917
6774.525
6763.728
6752.049
6739.84
6727.574
6715.152
6702.789
6690.178
6677.209
6664.255
6651.404
6638.441
6625.299
6612.064
6598.246
6583.313
6566.188
6546.315
6523.53
6497.591
6468.743
6438.358
6410.022
6385.952
6367.248
6352.685
6340.284
6327.695
6314.904
6302.017
6289.221
6276.922
6264.913
6252.544
6239.261
6224.442
6208.384
6190.987
6172.427
6153.4
6134.811
6117.096
6098.72
6079.337
6059.368
6039.264
6019.195
5999.044
5978.782
5958.332
5937.649
5916.758
5895.697
5874.535
5853.263
5831.864
5810.379
5788.821
5767.226
5745.543
5723.804
5702.115
5680.424
5658.673
5636.828
5614.723
5592.467
5569.756
5546.42
5522.143
5496.868
5471.42
5447.479
5425.816
5406.564
5389.14
5371.853
5353.716
5334.806
5315.866
5298.573
5281.621
5265.438
5250.014
5234.221
5218.261
5202.434
5186.911
5171.888
5157.281
5143.131
5129.298
5115.805
5102.405
5089.176
5076.12
5063.351
5050.726
5038.791
5028.382
5018.158
5007.591
4997.039
4986.673
4976.506
4966.525
4956.834
4947.319
4938.177
4929.832
4921.621
4913.604
4906.075
4899.112
4892.271
4885.395
4879.186
4870.701
4860.814
4851.218
4841.418
4830.79
4820.127
4813.558
4809.158
4805.045
4800.658
4796.069
4791.602
4787.283
4783.081
4778.915
4774.963
4771.176
4767.625
4764.184
4760.838
4757.538
4754.256
4751.032
4747.941
4745.054
4742.193
4739.458
4737.232
4734.896
4732.432
4729.991
4727.671
4725.515
4723.505
4721.611
4719.792
4718.075
4716.507
4715.123
4713.881
4712.8
4711.836
4710.89
4709.985
4709.237
4708.713
4708.314
4707.904
4707.536
4707.274
4707.124
4707.126
4707.301
4707.556
4707.906
4708.313
4708.776
4709.293
4709.926
4710.669
4711.53
4712.492
4713.57
4714.758
4716.027
4717.357
4718.769
4720.163
4721.443
4722.404
4722.519
4721.36
4718.803
4715.684
4714.751
4716.947
4720.367
4723.665
4726.667
4729.551
4732.379
4735.214
4738.102
4740.878
4743.429
4745.908
4748.441
4751.1
4753.955
4756.964
4760.231
4763.666
4766.97
4770.195
4773.268
4776.281
4779.298
4782.353
4785.456
4788.644
4791.908
4795.219
4798.604
4802.065
4805.508
4808.829
4812.109
4815.426
4818.901
4822.499
4826.123
4829.755
4833.398
4837.086
4840.789
4844.527
4848.269
4851.99
4855.734
4859.47
4863.124
4866.63
4869.907
4872.823
4875.256
4877.264
4878.931
4879.297
4880.325
4883.613
4887.36
4890.926
4894.589
4897.988
4901.445
4904.997
4908.649
4912.433
4916.296
4920.194
4924.111
4928.089
4932.18
4936.331
4940.537
4944.73
4948.757
4952.78
4956.825
4960.942
4965.208
4969.446
4973.709
4978.128
4982.282
4986.174
4990.172
4994.019
4997.723
5001.603
5005.263
5008.812
5012.675
5016.249
5019.678
5023.107
5026.587
5030.02
5033.436
5036.8
5040.092
5043.354
5046.604
5049.835
5053.049
5056.226
5059.377
5062.488
5065.556
5068.581
5071.609
5074.586
5077.428
5080.277
5083.095
5085.859
5088.6
5091.299
5093.938
5096.531
5099.1
5101.662
5104.213
5106.754
5109.287
5111.806
5114.289
5116.743
5119.202
5121.667
5124.099
5126.483
5128.814
5131.069
5133.186
5135.059
5136.552
5137.479
5137.853
5137.568
5136.947
5137.051
5176.151
5185.521
5221.954
5176.755
5185.522
5102.695
5104.564
5031.733
5024.827
4994.334
4964.055
5055.788
5237.051
5292.924
5454.593
5577.882
5665.19
5623.797
5611.236
5692.396
5776.411
5838.886
5890.877
5921.726
5943.964
5961.507
5972.989
5978.218
5978.581
5974.207
5967.698
5958.857
5945.876
5933.396
5927.946
5928.951
5936.664
5946.322
5953.023
5956.338
5957.551
5960.294
5971.578
5972.094
5972.335
5976.175
5984.394
5995.541
6006.697
6017.546
6028.223
6038.325
6046.338
6056.17
6066.682
6078.747
6092.951
6109.376
6128.621
6143.869
6154.841
6166.556
6180.365
6196.818
6214.358
6231.745
6249.23
6265.907
6281.001
6294.252
6306.122
6317.64
6330.186
6343.753
6358.82
6374.684
6390.783
6406.218
6421.221
6436.535
6452.227
6468.832
6485.838
6503.102
6519.668
6534.769
6547.672
6558.641
6567.602
6575.192
6582.6
6590.443
6598.649
6607.334
6615.916
6623.929
6631.055
6636.41
6640.289
6643.536
6646.947
6651.27
6656.333
6661.233
6665.638
6669.032
6670.914
6671.225
6670.596
6669.999
6670.191
6672.085
6675.636
6679.518
6682.543
6684.863
6686.963
6688.51
6689.507
6690.993
6693.228
6695.325
6696.735
6696.63
6694.474
6690.559
6685.017
6677.836
6669.515
6661.408
6653.993
6646.965
6639.743
6631.826
6623.02
6613.389
6603.164
6592.62
6582.514
6573.736
6566.584
6560.151
6553.843
6546.867
6539.056
6530.18
6519.833
6508.412
6496.225
6483.992
6471.95
6459.61
6446.474
6433.077
6419.572
6405.799
6391.794
6377.612
6363.191
6348.099
6331.88
6314.13
6294.561
6272.909
6249.093
6223.614
6197.658
6173.268
6152.069
6134.278
6118.901
6104.674
6090.691
6076.55
6062.297
6048.208
6034.466
6021
6007.113
5991.96
5975.503
5958.587
5941.578
5924.346
5906.686
5888.767
5870.887
5852.474
5833.376
5813.719
5793.798
5773.79
5753.643
5733.331
5712.827
5692.106
5671.145
5649.991
5628.702
5607.284
5585.75
5564.136
5542.431
5520.661
5498.818
5476.906
5454.998
5433.013
5410.977
5388.779
5366.469
5343.987
5321.249
5298.158
5274.759
5251.156
5227.522
5204.404
5182.904
5163.098
5144.015
5125.039
5106.577
5087.29
5068.89
5051.918
5034.24
5018.114
5003.149
4987.799
4971.623
4955.522
4939.917
4924.826
4910.27
4896.191
4882.441
4868.78
4855.247
4841.807
4828.74
4816.387
4803.878
4791.755
4781.232
4771.02
4760.767
4750.445
4740.08
4729.918
4719.898
4710.275
4700.81
4692.051
4684.125
4676.13
4667.777
4660.046
4652.672
4645.812
4638.228
4630.519
4622.215
4613.228
4604.664
4596.124
4587.137
4578.8
4572.514
4566.49
4560.831
4555.671
4550.757
4546.304
4542.004
4537.874
4533.865
4529.979
4526.257
4522.611
4519.104
4515.845
4512.666
4509.573
4506.579
4503.632
4500.712
4497.759
4494.782
4492.091
4489.679
4487.27
4484.866
4482.569
4480.455
4478.476
4476.546
4474.697
4472.957
4471.388
4470.038
4468.772
4467.408
4466.194
4465.269
4464.516
4463.893
4463.402
4462.94
4462.471
4462.068
4461.792
4461.649
4461.653
4461.803
4462.012
4462.319
4462.691
4463.16
4463.714
4464.369
4465.113
4465.962
4466.903
4467.922
4469.017
4470.173
4471.368
4472.566
4473.756
4474.969
4476.113
4477.184
4478.214
4479.213
4480.163
4480.911
4481.41
4481.729
4482.142
4483.076
4484.598
4486.71
4489.199
4491.873
4494.616
4497.277
4499.95
4502.748
4505.622
4508.635
4511.527
4514.614
4517.708
4520.766
4523.688
4526.571
4529.487
4532.543
4535.721
4538.982
4542.294
4545.598
4548.917
4552.298
4555.716
4559.165
4562.649
4566.153
4569.655
4573.174
4576.719
4580.276
4583.837
4587.419
4591.054
4594.703
4598.378
4602.056
4605.735
4609.384
4612.987
4616.507
4619.883
4623.053
4625.975
4628.656
4631.164
4633.571
4634.721
4635.56
4638.355
4641.3
4644.22
4648.048
4651.864
4655.661
4659.533
4663.448
4667.419
4671.393
4675.362
4679.32
4683.25
4687.205
4691.213
4695.407
4699.637
4703.613
4707.609
4711.799
4716.055
4720.352
4724.683
4728.738
4732.845
4736.918
4740.68
4744.65
4748.601
4752.487
4756.465
4760.065
4763.628
4767.309
4770.872
4774.353
4777.751
4781.139
4784.657
4788.158
4791.579
4794.934
4798.253
4801.54
4804.797
4808.028
4811.233
4814.398
4817.513
4820.578
4823.572
4826.507
4829.399
4832.261
4835.132
4837.942
4840.705
4843.474
4846.198
4848.866
4851.472
4854.04
4856.571
4859.096
4861.634
4864.151
4866.597
4868.997
4871.356
4873.715
4876.059
4878.369
4880.602
4882.755
4884.78
4886.672
4888.339
4889.742
4890.79
4891.508
4891.83
4891.7
4891.634
5036.781
5053.363
5082.136
5047.586
5035.607
4997.18
4985.381
4958.734
4914.262
4911.671
4920.438
4918.005
4923.116
4926.436
4901.021
4787.479
4745.815
4708.75
4639.558
4543.661
4601.831
4731.031
4859.735
4969.957
5100.377
5341.267
5406.901
5323.807
5384.918
5428.613
5503.641
5568.262
5619.952
5657.499
5683.535
5703.778
5714.909
5713.556
5711.5
5709.052
5703.703
5697.197
5687.719
5679.045
5674.962
5674.115
5676.11
5679.543
5682.062
5685.676
5687.81
5688.72
5689.551
5694.293
5703.767
5714.599
5725.381
5736.662
5748.287
5757.986
5765.25
5773.353
5793.137
5814.899
5830.649
5838.162
5851.541
5872.786
5895.008
5906.89
5913.809
5922.939
5935.386
5950.701
5967.425
5984.972
6002.66
6019.674
6035.273
6050.021
6063.914
6077.104
6090.161
6103.277
6116.465
6130.603
6145.04
6159.166
6174.173
6189.993
6206.095
6222.362
6238.989
6255.456
6271.361
6286.069
6298.618
6309.411
6318.773
6326.842
6334.329
6341.805
6349.42
6357.261
6365.64
6373.975
6381.706
6388.404
6394.081
6398.905
6403.086
6407.158
6411.171
6415.154
6419.139
6422.852
6425.673
6427.112
6427.663
6428.199
6429.107
6430.837
6433.557
6436.657
6439.398
6441.702
6444.024
6446.065
6447.46
6448.53
6449.429
6449.946
6449.651
6448.47
6446.334
6443.274
6439.034
6433.666
6427.594
6421.322
6414.589
6407.221
6399.435
6391.285
6382.722
6373.528
6363.635
6353.56
6343.898
6334.774
6326.209
6318.159
6310.6
6301.938
6293.128
6283.47
6273.174
6261.699
6249.307
6236.698
6224.083
6211.27
6198.115
6184.661
6171.036
6157.117
6142.846
6128.254
6113.234
6097.666
6081.1
6063.335
6044.332
6023.922
6001.978
5979.064
5956.138
5934.277
5914.04
5895.44
5878.31
5862.353
5847.386
5832.828
5818.616
5804.474
5790.386
5776.159
5761.661
5746.431
5730.542
5714.186
5697.575
5680.531
5662.753
5644.444
5625.952
5607.277
5588.246
5568.809
5549.039
5528.993
5508.71
5488.238
5467.622
5446.783
5425.715
5404.446
5383.006
5361.426
5339.727
5317.946
5296.052
5274.076
5252.035
5229.91
5207.727
5185.494
5163.178
5140.83
5118.367
5095.855
5073.218
5050.543
5027.853
5005.282
4982.435
4959.533
4938.083
4918.215
4898.949
4879.463
4860.399
4841.695
4822.656
4805.205
4788.447
4771.54
4756.362
4740.882
4724.665
4708.508
4692.927
4677.833
4663.248
4649.314
4635.742
4622.003
4608.46
4595.43
4582.723
4570.687
4558.674
4546.364
4535.216
4524.541
4514.124
4503.907
4493.67
4483.333
4473.607
4464.31
4454.792
4445.94
4437.87
4429.889
4421.533
4413.394
4405.461
4397.919
4389.98
4382.001
4374.258
4366.213
4358.239
4350.062
4341.877
4334.43
4328.099
4322.334
4316.936
4311.541
4306.359
4301.503
4296.828
4292.312
4288.059
4284.047
4280.232
4276.553
4272.971
4269.374
4266.014
4262.808
4259.687
4256.627
4253.576
4250.713
4248.162
4245.683
4243.104
4240.631
4238.194
4235.9
4233.872
4231.983
4230.131
4228.284
4226.589
4225.163
4223.775
4222.523
4221.367
4220.366
4219.446
4218.613
4217.93
4217.384
4216.903
4216.497
4216.172
4215.951
4215.824
4215.816
4215.929
4216.135
4216.409
4216.792
4217.251
4217.8
4218.422
4219.121
4219.935
4220.832
4221.803
4222.838
4223.873
4224.923
4226.006
4227.124
4228.183
4229.015
4229.557
4229.776
4229.637
4229.379
4229.406
4230.214
4231.75
4234.03
4236.474
4238.977
4241.554
4244.181
4246.858
4249.617
4252.442
4255.123
4257.84
4260.637
4263.493
4266.456
4269.371
4272.229
4275.237
4278.332
4281.299
4284.344
4287.506
4290.767
4294.053
4297.348
4300.621
4303.913
4307.267
4310.66
4314.062
4317.477
4320.892
4324.3
4327.745
4331.261
4334.81
4338.353
4341.921
4345.512
4349.137
4352.773
4356.405
4360.023
4363.599
4367.105
4370.505
4373.764
4376.852
4379.773
4382.557
4385.205
4388.089
4390.036
4391.358
4393.946
4397.79
4401.136
4404.487
4408.244
4411.774
4415.224
4418.882
4422.748
4426.717
4430.68
4434.613
4438.591
4442.562
4446.485
4450.534
4454.631
4458.647
4462.711
4466.951
4471.148
4475.334
4479.517
4483.541
4487.56
4491.548
4495.341
4499.248
4503.253
4507.211
4511.174
4514.809
4518.398
4522.017
4525.578
4529.063
4532.443
4535.806
4539.29
4542.751
4546.214
4549.639
4553.011
4556.334
4559.627
4562.87
4566.086
4569.26
4572.382
4575.422
4578.33
4581.266
4584.178
4587.113
4589.997
4592.734
4595.499
4598.265
4601.013
4603.701
4606.33
4608.882
4611.371
4613.835
4616.32
4618.852
4621.259
4623.589
4625.925
4628.232
4630.496
4632.684
4634.77
4636.785
4638.662
4640.377
4641.913
4643.235
4644.325
4645.182
4645.812
4646.284
4646.906
4829.121
4797.225
4794.351
4790.88
4782.835
4773.101
4769.24
4774.517
4770.623
4766.295
4687.158
4660.834
4622.026
4576.562
4597.956
4624.881
4618.125
4595.139
4604.539
4592.03
4522.632
4469.719
4418.525
4342.489
4276.621
4358.581
4437.877
4555.665
4711.186
4812.141
4915.49
5029.393
5082.434
5112.314
5155.692
5216.627
5282.352
5337.464
5376.49
5404.035
5421.971
5431.732
5432.501
5431.797
5429.42
5424.519
5419.065
5413.373
5406.934
5402.727
5401.194
5401.101
5404.102
5408.272
5413.782
5420.887
5428.145
5435.98
5444.398
5452.755
5463.089
5474.784
5487.804
5501.2
5514.545
5523.186
5527.116
5542.733
5565.526
5585.877
5606.438
5623.336
5637.721
5652.81
5663.839
5673.168
5683.539
5695.561
5710.332
5727.011
5743.649
5760.259
5776.904
5792.817
5807.993
5822.563
5836.465
5849.821
5862.774
5875.322
5888.501
5902.067
5916.144
5930.865
5946.016
5961.312
5976.825
5992.355
6007.613
6022.312
6036.1
6048.559
6059.798
6070.008
6079.097
6087.399
6095.566
6103.628
6111.606
6119.706
6127.632
6135.169
6142.16
6148.345
6153.764
6158.436
6162.631
6166.621
6170.58
6174.495
6178.143
6181.314
6183.678
6185.221
6186.616
6188.389
6190.302
6192.272
6194.285
6196.415
6198.585
6200.823
6202.892
6204.351
6205.09
6205.194
6204.754
6203.708
6202.262
6200.505
6197.915
6194.356
6189.696
6183.765
6176.693
6168.946
6161.162
6153.421
6145.437
6137.179
6128.292
6119.542
6110.404
6100.992
6091.519
6082.216
6073.198
6064.157
6055.983
6047.128
6037.551
6027.127
6015.781
6003.615
5990.963
5978.144
5965.236
5952.066
5938.363
5924.483
5910.278
5895.612
5880.443
5864.889
5848.945
5832.179
5814.491
5795.909
5776.424
5756.098
5735.098
5714.003
5693.473
5673.845
5655.266
5637.745
5621.306
5605.852
5591.048
5576.564
5562.105
5547.584
5532.8
5517.641
5502.142
5486.16
5469.677
5452.872
5435.672
5417.866
5399.573
5381.005
5362.237
5343.236
5323.898
5304.177
5284.092
5263.712
5243.115
5222.365
5201.395
5180.2
5158.794
5137.21
5115.468
5093.588
5071.615
5049.532
5027.345
5005.085
4982.743
4960.339
4937.902
4915.424
4892.93
4870.378
4847.816
4825.251
4802.691
4780.217
4757.74
4735.176
4712.613
4691.625
4672.587
4653.204
4633.702
4613.784
4594.028
4574.057
4555.805
4539.202
4522.951
4508.525
4492.931
4476.7
4460.618
4445.073
4430.158
4415.624
4402.001
4388.675
4375.262
4361.596
4348.347
4335.932
4323.651
4311.501
4299.518
4288.355
4277.501
4267.108
4257.14
4247.106
4236.567
4226.833
4217.931
4208.353
4199.161
4190.776
4182.552
4174.171
4165.981
4157.996
4150.195
4142.444
4134.641
4126.764
4118.912
4111.083
4103.291
4095.754
4088.932
4082.741
4077.021
4071.716
4066.549
4061.451
4056.589
4051.7
4046.817
4042.457
4038.408
4034.528
4030.824
4027.234
4023.746
4020.456
4017.256
4014.127
4011.119
4008.278
4005.508
4002.686
4000.225
3997.76
3995.345
3992.933
3990.696
3988.649
3986.707
3984.756
3982.905
3981.227
3979.692
3978.29
3976.998
3975.849
3974.832
3973.924
3973.049
3972.204
3971.575
3971.08
3970.641
3970.31
3970.096
3969.995
3970.007
3970.105
3970.293
3970.592
3971.016
3971.465
3971.989
3972.59
3973.282
3974.074
3974.947
3975.887
3976.853
3977.856
3978.897
3980.034
3981.175
3982.268
3983.382
3984.439
3985.422
3986.478
3987.765
3988.938
3990.058
3991.289
3992.568
3994.028
3995.689
3997.59
3999.75
4002.114
4004.685
4007.251
4009.818
4012.467
4015.225
4018.01
4020.873
4023.757
4026.676
4029.673
4032.775
4035.687
4038.681
4041.774
4044.961
4048.191
4051.438
4054.694
4057.974
4061.305
4064.684
4068.086
4071.498
4074.919
4078.364
4081.846
4085.383
4088.942
4092.494
4096.041
4099.597
4103.169
4106.752
4110.322
4113.869
4117.359
4120.795
4124.142
4127.402
4130.55
4133.595
4136.52
4139.564
4142.803
4144.917
4146.752
4149.263
4152.847
4155.976
4159.398
4162.993
4166.591
4170.096
4173.824
4177.719
4181.699
4185.589
4189.451
4193.452
4197.532
4201.551
4205.598
4209.663
4213.716
4217.798
4221.941
4226.066
4230.184
4234.278
4238.313
4242.32
4246.292
4250.183
4254.088
4258.018
4261.907
4265.763
4269.469
4273.114
4276.741
4280.322
4283.848
4287.318
4290.739
4294.15
4297.531
4300.947
4304.347
4307.75
4311.104
4314.415
4317.68
4320.925
4324.096
4327.276
4330.376
4333.284
4336.184
4339.147
4342.108
4344.992
4347.736
4350.46
4353.204
4355.918
4358.571
4361.201
4363.716
4366.199
4368.699
4371.257
4373.662
4375.922
4378.188
4380.48
4382.729
4384.955
4387.105
4389.141
4391.014
4392.716
4394.295
4395.751
4397.023
4398.124
4399.053
4399.983
4400.905
4401.523
4580.867
4552.681
4486.765
4483.487
4476.108
4468.209
4463.998
4462.883
4458.395
4450.637
4436.039
4414.756
4388.627
4364.425
4365.174
4386.132
4414.125
4398.954
4354.318
4350.942
4344.1
4251.795
4124.529
4054.449
4098.594
4135.803
4200.352
4300.913
4430.773
4525.475
4590.069
4661.087
4784.683
4855.245
4869.622
4916.619
4985.861
5043.47
5085.809
5113.656
5131.49
5141.287
5144.361
5144.602
5142.201
5137.891
5133.029
5128.986
5124.712
5121.991
5121.373
5122.325
5125.802
5131.85
5138.88
5147.188
5155.687
5164.11
5171.446
5180.63
5192.746
5207.407
5223.588
5241.2
5258.821
5279.004
5303.765
5314.77
5328.697
5355.065
5382.541
5398.836
5397.338
5396.951
5408.3
5423.893
5440.674
5457.185
5473.627
5489.786
5505.217
5520.603
5536.408
5552.185
5567.46
5582.086
5596.24
5610.059
5623.187
5635.691
5648.137
5660.871
5674.166
5687.816
5701.605
5715.84
5730.454
5745.256