/*--------------------------------*- C++ -*----------------------------------*\
| =========                 |                                                 |
| \\      /  F ield         | foam-extend: Open Source CFD                    |
|  \\    /   O peration     | Version:     3.1                                |
|   \\  /    A nd           | Web:         http://www.extend-project.de       |
|    \\/     M anipulation  |                                                 |
\*---------------------------------------------------------------------------*/
FoamFile
{
    version     2.0;
    format      ascii;
    class       volScalarField;
    location    "15";
    object      p;
}
// * * * * * * * * * * * * * * * * * * * * * * * * * * * * * * * * * * * * * //

dimensions      [1 -1 -2 0 0 0 0];

internalField   nonuniform List<scalar> 
119952
(
7259.463
7181.303
7304.715
7296.222
7401.897
7407.876
7488.272
7535.971
7584.555
7617.332
7610.21
7595.823
7564.508
7525.379
7501.909
7488.12
7490.723
7465.958
7525.992
7496.215
7585.55
7558.105
7561.36
7615.655
7606.057
7592.446
7613.725
7622.261
7650.741
7385.388
6909.997
6888.761
6874.016
6834.536
6761.864
6770.03
6724.605
6676.865
6504.987
6341.307
6531.081
6434.051
6439.501
6473.038
6550.368
6646.29
6751.976
6863.029
7062.313
7166.953
7233.332
7298.836
7359.515
7406.889
7433.886
7462.621
7483.662
7498.427
7517.705
7487.15
7453.206
7365.635
7273.701
7185.162
7110.834
7039.225
6990.474
6965.192
6950.474
6948.632
6974.668
7019.931
7077.469
7133.758
7199.332
7255.369
7301.072
7327.241
7327.46
7310.174
7280.034
7245.373
7215.873
7199.704
7191.691
7198.184
7209.957
7229.751
7260.592
7278.604
7296.544
7323.187
7331.987
7327.572
7334.143
7337.502
7316.469
7269.754
7265.492
7292.874
7319.922
7332.66
7341.044
7345.453
7364.398
7357.581
7350.685
7338.036
7320.77
7303.912
7284.988
7268.937
7251.35
7228.839
7197.788
7148.748
7106.05
7032.363
6961.775
6884.338
6812.867
6743.308
6690.936
6655.988
6630.101
6615.67
6605.784
6598.63
6595.491
6596.704
6599.541
6600.83
6606.306
6613.44
6624.96
6640.892
6663.543
6683.995
6705.331
6708.109
6693.934
6696.353
6713.129
6728.723
6733.089
6747.207
6781.307
6780.495
6811.476
6825.22
6836.846
6846.358
6852.265
6855.204
6861.45
6873.099
6899.267
6928.439
6958.019
6964.82
6971.425
6977.698
6986.348
6989.54
6997.453
7015.831
7026.825
7033.8
7050.739
7083.886
7130.064
7164.6
7190.246
7198.609
7202.673
7210.127
7222.559
7217.093
7230.414
7240.018
7249.543
7260.735
7275.384
7295.235
7320.411
7359.189
7385.775
7415.372
7435.55
7448.125
7459.324
7467.656
7473.762
7484.953
7497.155
7512.206
7527.396
7561.486
7522.244
7538.728
7538.947
7545.601
7538.041
7555.606
7561.097
7562.531
7563.018
7562.795
7564.623
7559.715
7553.255
7541.335
7535.169
7514.147
7493.965
7476.918
7459.973
7431.107
7409.256
7380.316
7362.436
7348.882
7340.771
7340.389
7338.591
7333.707
7326.693
7318.296
7306.833
7294.22
7281.43
7265.317
7247.919
7228.628
7211.685
7195.664
7178.895
7162.706
7148.893
7144.307
7140.578
7149.606
7153.391
7157.02
7152.538
7148.515
7146.458
7144.122
7136.681
7130.26
7120.413
7112.489
7104.278
7095.482
7087.918
7074.176
7067.994
7059.317
7057.634
7060.959
7058.527
7061.971
7063.153
7064.83
7059.387
7065.879
7063.332
7031.274
7029.082
7028.172
7032.229
7037.959
7043.352
7047.099
7043.482
7046.227
7049.077
7050.347
7051.52
7054.928
7057.497
7059.648
7061.609
7064.697
7069.373
7074.927
7084.463
7091.67
7100.238
7108.619
7117.106
7125.014
7131.876
7138.059
7143.163
7147.636
7152.995
7160.167
7168.171
7176.562
7187.026
7195.115
7201.794
7209.961
7217.691
7225.56
7233.716
7242.12
7250.701
7259.424
7268.573
7277.655
7285.987
7293.745
7301.093
7306.86
7311.339
7314.348
7316.703
7318.975
7320.974
7323.904
7327.461
7330.572
7331.828
7332.233
7332.383
7335.349
7342.074
7349.119
7355.56
7360.962
7364.399
7366.965
7368.62
7370.284
7371.7
7372.259
7371.439
7370.778
7370.114
7369.979
7371.475
7373.054
7373.431
7373.732
7373.527
7374.174
7371.978
7369.759
7366.826
7363.045
7359.369
7356.151
7351.954
7345.751
7336.278
7321.496
7318.047
7318.405
7323.304
7318.674
7313.592
7305.498
7298.587
7290.278
7281.895
7273.714
7265.679
7259
7255.52
7242.928
7235.275
7229.254
7221.206
7212.158
7202.693
7193.499
7184.841
7181.203
7170.981
7176.61
7174.247
7172.977
7170.791
7167.428
7163.75
7160.993
7158.603
7154.824
7150.666
7148.698
7146.807
7145.134
7143.45
7141.911
7141.092
7140.825
7140.437
7140.599
7142.19
7144.767
7145.753
7137.199
7121.14
7110.118
6205.243
6200.334
6273.163
6390.607
6374.654
6358.022
6337.588
6331.368
6332.959
6298.152
6197.297
6181.713
6170.17
6170.905
6197.555
6251.554
6308.851
6353.436
6379.198
6444.583
6510.146
6559.994
6600.721
6612.185
6617.064
6615.094
6611.249
6605.726
6601.552
6605.139
6618.449
6628.326
6640.818
6644.842
6648.756
6649.965
6651.686
6647.064
6633.987
6606.763
6556.43
6499.748
6466.886
6426.171
6334.637
6244.802
6179.984
6128.512
6095.899
6104.393
6156.703
6244.795
6362.062
6492.914
6622.385
6750.452
6817.935
6909.777
6977.296
7036.019
7087.537
7131.658
7162.379
7182.196
7191.175
7189.574
7163.57
7100.87
7002.959
6913.004
6830.038
6765.076
6711.045
6658.701
6615.54
6585.735
6583.103
6614.197
6672.276
6738.158
6801.034
6868.099
6926.916
6971.627
6991.996
6987.289
6966.508
6937.077
6900.215
6867.912
6851.519
6855.005
6865.432
6882.643
6906.249
6931.615
6955.696
6978.387
6991.387
7002.738
7016.651
7023.804
7013.494
6993.761
6978.84
6975.544
6992.792
7012.663
7023.479
7027.574
7030.326
7045.919
7050.663
7042.84
7031.52
7011.526
6989.008
6967.229
6947.217
6924.003
6896.489
6864.791
6819.004
6754.349
6671
6587.417
6510.121
6443.628
6387.788
6345.795
6319.682
6304.443
6296.466
6290.518
6285.663
6283.82
6286.806
6291.085
6294.662
6297.374
6300.906
6306.611
6317.384
6336.69
6360.516
6380.807
6391.272
6391.743
6395.348
6408.301
6429.056
6448.197
6463.526
6471.748
6479.746
6496.135
6517.764
6533.73
6545.091
6549.378
6552.522
6556.848
6568.587
6585.52
6608.795
6632.561
6652.533
6660.192
6656.349
6679.375
6685.924
6700.009
6714.542
6721.066
6718.478
6733.172
6763.778
6809.068
6846.988
6863.456
6868.551
6879.034
6891.521
6903.368
6912.974
6920.316
6930.181
6942.827
6957.955
6977.743
7001.324
7028.945
7060.401
7088.668
7111.116
7129.717
7143.103
7153.494
7160.06
7167.536
7173.349
7190.221
7205.985
7206.976
7267.561
7260.726
7261.733
7261.801
7266.968
7274.734
7281.83
7287.391
7289.4
7293.054
7294.445
7292.465
7285.909
7275.684
7261.695
7246.329
7227.759
7209.313
7187.332
7159.041
7135.979
7107.181
7086.619
7073.91
7068.549
7066.472
7064.809
7063.002
7059.05
7052.523
7042.548
7030.835
7015.65
7000.995
6984.641
6966.577
6947.935
6930.803
6914.207
6896.257
6877.276
6864.226
6862.687
6867.759
6874.394
6880.695
6884.579
6884.261
6881.24
6876.139
6869.506
6860.891
6853.063
6840.371
6834.783
6827.276
6817.962
6807.025
6795.3
6787.376
6783.416
6783.027
6783.83
6784.504
6786.333
6787.751
6788.5
6788.509
6787.83
6787.952
6723.534
6724.6
6725.189
6728.178
6732.799
6737.198
6739.696
6740.298
6740.707
6740.971
6741.933
6744.278
6747.746
6751.144
6752.757
6754.378
6757.378
6762.388
6769.025
6778.009
6786.242
6794.898
6803.839
6812.518
6820.673
6828.133
6833.928
6837.663
6841.34
6847.135
6854.146
6862.918
6872.683
6881.149
6889.735
6897.929
6905.801
6913.336
6921.046
6929.304
6937.832
6946.42
6955.188
6964.572
6973.87
6982.337
6990.011
6996.697
7001.982
7005.954
7008.777
7010.875
7012.61
7015.129
7018.75
7020.868
7024.164
7025.662
7023.924
7024.196
7029.472
7036.987
7043.922
7049.871
7054.765
7058.498
7061.007
7062.865
7064.342
7065.023
7064.975
7063.537
7062.618
7064.851
7066.948
7067.809
7067.315
7065.783
7063.842
7064.949
7065.731
7066.025
7063.144
7059.221
7057.142
7051.887
7047.771
7045.449
7040.543
7032.12
7020.509
7013.305
7012.518
7012.011
7007.814
7001.872
6995.33
6988.399
6980.766
6972.738
6964.556
6956.558
6949.174
6942.318
6935.19
6927.297
6919.258
6911.12
6903.687
6893.953
6884.601
6878.435
6872.563
6869.243
6867.337
6865.182
6862.751
6860.114
6857.298
6854.379
6851.814
6849.379
6846.699
6843.813
6841.084
6838.662
6836.684
6835.243
6834.238
6833.316
6832.757
6832.769
6832.982
6833.487
6833.341
6831.422
6827.652
6821.65
6816.8
4343.39
4243.794
4182.561
4087.642
4138.91
4274.005
4404.023
4585.862
4674.831
4756.392
5521.837
5759.412
6133.054
6355.876
6546.334
6736.605
6840.322
6892.195
6957.826
6929.567
6899.429
6831.453
6739.635
6658.514
6609.789
6582.21
6565.517
6579.399
6606.226
6504.467
6432.409
6354.523
6257.75
6169.497
6106.898
6090.335
6100.367
6068.347
6079.983
6121.815
6121.714
6102.104
6115.535
6085.599
6042.079
6020.277
5981.622
5924.26
5889.673
5883.282
5878.862
5887.494
5926.804
5982.826
6030.542
6072.087
6075.902
6152.482
6223.654
6277.007
6313.075
6325.039
6321.063
6309.291
6299.764
6296.79
6295.488
6300.869
6313.166
6326.384
6332.319
6338.678
6347.458
6355.404
6357.923
6356.892
6353.91
6332.856
6286.306
6216.422
6126.569
6025.448
5914.771
5813.08
5728.322
5673.947
5659.358
5689.38
5760.925
5864.724
5999.768
6142.322
6283.683
6413.536
6529.741
6628.628
6701.591
6768.962
6826.795
6873.868
6911.006
6941.657
6967.939
6981.016
6950.185
6866.725
6761.748
6659.701
6572.525
6508.699
6456.414
6396.694
6336.983
6290.27
6272.57
6296.24
6362.416
6431.677
6498.587
6567.599
6627.665
6671.762
6693.578
6686.509
6657.382
6622.163
6590.139
6567.095
6562.656
6569.177
6585.969
6612.045
6641.466
6669.448
6697.963
6719.792
6731.433
6748.388
6761.783
6761.297
6757.899
6752.005
6740.878
6739.055
6755.167
6772.905
6779.868
6779.789
6783.049
6791.863
6799.216
6798.069
6786.017
6763.178
6737.063
6711.08
6686.296
6660.442
6630.061
6595.664
6541
6463.322
6370.769
6293.07
6225.456
6162.211
6111.261
6076.117
6054.642
6045.302
6039.327
6036.67
6037.423
6039.117
6044.767
6049.147
6047.37
6044.541
6043.881
6049.976
6063.761
6077.265
6092.193
6116.21
6141.559
6158.345
6168.888
6179.504
6190.953
6203.752
6219.456
6233.27
6246.632
6254.534
6272.162
6286.223
6296.778
6305.295
6306.489
6303.244
6308.859
6322.956
6344.923
6371.118
6399.8
6411.876
6419.443
6439.309
6449.261
6456.255
6462.359
6464.172
6443.867
6451.065
6482.397
6527.479
6563.042
6584.375
6590.903
6607.551
6627.209
6642.865
6658.669
6676.357
6691.494
6704.545
6720.403
6740.357
6764.344
6791.662
6819.679
6842.175
6865.256
6885.067
6897.431
6905.246
6905.864
6909.594
6924.039
6941.918
6949.401
6953.46
6956.967
6959.942
6964.741
6971.981
6975.194
6975.557
6976.045
6980.083
6983.554
6994.341
6998.204
6993.544
6983.807
6969.911
6952.228
6932.24
6911.222
6890.067
6865.362
6837.244
6809.925
6782.045
6764.834
6755.331
6755.749
6757.788
6757.825
6756.829
6753.872
6748.423
6736.908
6724.901
6710.623
6693.845
6675.559
6656.538
6632.722
6616.26
6606.327
6582.391
6557.836
6540.557
6544.018
6556.147
6563.575
6572.855
6578.207
6577.719
6573.919
6568.204
6561.294
6553.346
6544.612
6536.15
6529.244
6521.132
6510.321
6494.827
6479.553
6471.83
6470.827
6472.993
6475.084
6476.848
6478.427
6479.55
6480.405
6480.814
6480.554
6480.33
6480.146
6479.434
6479.217
6480.105
6481.44
6483.198
6485.418
6487.74
6490.282
6493.084
6495.337
6498.939
6502.474
6504.867
6506.125
6508.538
6512.104
6518.098
6527.621
6535.907
6542.985
6550.29
6558.275
6566.605
6575.096
6582.759
6588.396
6592.142
6596.069
6601.755
6609.599
6618.505
6627.886
6636.564
6644.157
6651.571
6658.989
6666.383
6674.201
6682.717
6691.343
6700.062
6709.177
6718.821
6728.556
6737.813
6746.362
6753.448
6759.131
6762.705
6764.994
6766.4
6767.16
6767.655
6772.094
6776.918
6780.612
6782.14
6781.98
6783.301
6787.326
6794.06
6800.648
6806.419
6810.926
6814.179
6816.338
6817.992
6819.314
6820.131
6820.348
6819.631
6820.099
6822.385
6821.136
6820.399
6821.827
6820.41
6817.448
6819.04
6819.941
6817.092
6812.916
6810.31
6807.712
6803.078
6802.163
6796.598
6790.038
6784.262
6775.769
6771.856
6770.867
6769.179
6764.479
6758.004
6750.784
6743.514
6735.821
6727.896
6720.048
6712.44
6704.857
6696.929
6688.024
6679.64
6672.004
6665.643
6657.186
6646.969
6638.532
6632.577
6628.142
6624.823
6622.274
6619.603
6616.528
6613.37
6610.164
6606.9
6603.826
6601.069
6598.635
6596.411
6594.282
6592.297
6590.636
6589.336
6588.189
6587.275
6586.604
6586.086
6585.979
6586.009
6585.377
6583.88
6581.868
6578.915
6576.674
4527.964
4615.893
4597.945
4646.956
4534.704
4474.946
4302.096
4285.1
4184.873
4036.773
3872.111
3753.336
3681.537
3664.101
3657.419
3683.257
3769.754
3902.086
4071.773
4309.959
4638.25
4959.917
5256.158
5543.594
5850.484
6087.151
6313.901
6485.789
6610.007
6654.302
6652.679
6602.046
6570.19
6489.613
6385.467
6282.005
6202.783
6152.025
6140.839
6162.939
6157.215
6099.377
6003.068
5887.518
5766.637
5657.909
5586.26
5544.604
5553.448
5611.432
5668.231
5694.659
5702.949
5717.488
5724.415
5725.752
5703.037
5664.377
5620.735
5585.49
5559.231
5553.256
5566.792
5597.406
5641.64
5677.62
5720.717
5770.951
5838.502
5914.796
5996.561
6057.929
6091.891
6099.833
6085.423
6062.587
6042.27
6033.431
6038.418
6048.366
6064.169
6080.532
6090.376
6097.865
6103.634
6113.274
6124.747
6129.841
6129.502
6115.83
6069.01
5985.494
5868.301
5730.237
5588.007
5460.724
5367.274
5308.84
5290.155
5318.458
5392.966
5504.286
5645.58
5799.766
5950.09
6093.378
6227.036
6345.17
6435.039
6512.367
6575.468
6629.566
6672.238
6710.483
6754.37
6772.401
6732.937
6643.816
6537.025
6426.169
6332.811
6258.361
6198.624
6137.524
6071.03
6011.32
5975.418
5983.054
6044.374
6119.186
6190.885
6260.212
6319.736
6363.575
6382.579
6366.263
6318.79
6262.329
6221.536
6207.316
6222.554
6256.456
6293.47
6329.598
6369.022
6402.557
6434.618
6460.098
6476.258
6490.287
6499.298
6506.367
6515.613
6518.924
6509.851
6513.197
6521.709
6536.312
6537.264
6531.208
6531.754
6536.087
6547.2
6551.561
6536.668
6510.039
6479.542
6449.029
6419.277
6389.062
6354.912
6315.281
6253.303
6163.643
6071.664
5999.435
5937.8
5878.46
5832.067
5800.465
5783.849
5777.837
5775.551
5776.173
5775.772
5778.702
5784.278
5793.263
5801.701
5807.782
5811.935
5817.751
5814.34
5801.222
5814.645
5852.152
5886.95
5914.223
5941.405
5963.346
5975.093
5988.88
5995.697
6004.653
6013.446
6019.953
6032.601
6042.612
6051.286
6058.759
6062.039
6057.105
6055.087
6068.246
6081.898
6107.19
6148.716
6178.565
6194.754
6201.172
6209.851
6213.122
6213.205
6205.209
6167.639
6161.883
6199.28
6244.745
6279.643
6307.883
6324.668
6347.158
6374.982
6393.759
6407.677
6423.522
6440.723
6460.346
6483.57
6507.846
6529.54
6561.342
6577.341
6593.326
6622.928
6642.823
6660.127
6669.138
6680.097
6686.552
6692.7
6688.852
6686.867
6696.935
6703.43
6704.425
6708.998
6713.087
6721.937
6730.978
6738.139
6745.117
6745.004
6744.149
6755.296
6757.039
6742.463
6728.056
6708.809
6685.04
6660.65
6636.2
6610.282
6583.171
6557.205
6532.567
6514.134
6507.895
6511.254
6513.341
6514.009
6512.94
6511.549
6509.514
6499.598
6485.713
6470.251
6452.082
6433.504
6413.939
6393.806
6373.373
6351.055
6328.668
6306.717
6287.333
6292.956
6306.644
6318.886
6325.971
6330.213
6331.144
6328.455
6322.995
6315.805
6307.875
6299.626
6290.993
6281.96
6272.583
6263.197
6248.597
6233.962
6222.881
6220.725
6223.367
6226.281
6228.399
6230.156
6231.789
6232.82
6233.7
6233.879
6233.855
6233.276
6232.996
6233.451
6235.072
6237.357
6239.932
6242.212
6243.831
6245.483
6246.726
6248.143
6250.473
6253.469
6256.501
6259.655
6262.583
6267.445
6272.899
6279.623
6287.236
6295.769
6304.403
6312.092
6320.147
6328.601
6336.45
6342.314
6346.906
6351.498
6357.469
6365.906
6373.616
6380.431
6389.118
6398.124
6406.45
6414.321
6422.018
6429.951
6438.461
6447.298
6456.267
6465.602
6475.072
6484.475
6493.757
6502.538
6509.416
6513.969
6517.062
6518.633
6518.93
6519.24
6523.292
6529.378
6533.456
6533.587
6532.943
6536.392
6541.095
6546.598
6551.722
6556.732
6561.024
6564.681
6567.931
6570.566
6572.76
6573.856
6574.479
6573.093
6576.842
6584.835
6584.776
6577.487
6571.62
6572.24
6574.602
6577.065
6577.488
6575.799
6573.811
6569.749
6567.046
6563.418
6557.743
6555.966
6550.037
6543.326
6539.117
6533.252
6528.321
6524.522
6520.594
6515.291
6509.965
6503.796
6496.641
6488.845
6480.837
6472.797
6464.668
6456.72
6448.869
6441.187
6433.603
6426.342
6419.497
6411.094
6401.217
6394.598
6388.902
6383.436
6378.598
6374.685
6371.455
6368.08
6364.775
6361.774
6359.044
6356.51
6354.132
6351.868
6349.63
6347.552
6345.734
6344.204
6342.928
6341.864
6341.009
6340.356
6339.929
6339.708
6339.503
6339.001
6338.085
6336.716
6334.925
6333.866
4110.237
4110.833
4080.99
4110.903
4119.559
4114.875
4132.073
4160.414
4190.694
4223.09
4262.096
4290.966
4305.444
4335.631
4298.89
4186.713
4057.09
3952.348
3810.488
3677.818
3550.359
3436.06
3343.184
3276.445
3248.449
3264.52
3324.613
3411.917
3549.895
3744.178
3980.469
4258.531
4576.431
4927.143
5267.16
5549.707
5794.812
6008.938
6171.37
6274.265
6317.115
6297.504
6255.088
6213.076
6155.044
6066.801
5950.663
5861.079
5808.943
5778.475
5761.572
5732.553
5666.558
5552.282
5417.832
5281.777
5151.599
5049.82
4996.073
4998.379
5049.834
5143.36
5248.575
5315.66
5340.606
5351.791
5365.926
5370.567
5356.955
5328.805
5292.483
5266.881
5270.624
5301.142
5348.799
5405.915
5457.544
5494.799
5531.429
5586.687
5669.546
5747.157
5825.403
5868.519
5873.994
5848.218
5807.6
5774.226
5762.395
5769.053
5782.153
5802.289
5826.555
5843.083
5852.734
5863.487
5876.123
5888.65
5900.201
5904.65
5887.882
5834.882
5732.691
5588.558
5422.606
5262.826
5123.732
5017.085
4946.446
4913.631
4931.037
5001.395
5119.066
5270.42
5439.509
5605.108
5763.507
5915.292
6058.588
6176.643
6270.069
6340.354
6395.238
6440.013
6478.471
6526.236
6547.043
6527.623
6446.395
6330.001
6206.735
6098.08
6020.891
5962.327
5894.579
5820.027
5750.065
5697.035
5684.77
5731.605
5809.057
5886.548
5954.869
6009.626
6049.238
6053.882
6012.902
5928.006
5843.812
5803.874
5814.843
5862.563
5937.493
6009.075
6055.939
6104.81
6141.271
6175.888
6201.916
6218.805
6231.782
6246.263
6262.567
6277.7
6287.52
6293.037
6303.888
6312.693
6321.466
6302.52
6271.67
6254.377
6275.927
6299.085
6300.039
6281.309
6253.194
6219.112
6183.281
6147.214
6110.531
6070.652
6021.988
5954.899
5864.769
5777.64
5709.482
5652.991
5600.334
5559.208
5532.047
5519.001
5514.052
5511.927
5511.993
5516.934
5524.285
5533.477
5545.739
5558.613
5567.901
5573.065
5574.152
5576.65
5580.172
5577.995
5599.412
5638.572
5669.639
5701.513
5733.035
5759.247
5769.113
5773.711
5775.587
5780.41
5783.43
5790.806
5801.461
5809.395
5813.292
5816.748
5810.471
5799.017
5806.267
5822.699
5855.286
5899.305
5948.153
5974.514
5976.481
5980.228
5973.659
5965.11
5955.138
5907.782
5876.881
5916.942
5963.944
5999.517
6035.29
6073.672
6107.514
6130.09
6146.116
6172.445
6192.602
6202.954
6216.349
6232.374
6250.881
6267.701
6293.063
6310.915
6324.108
6346.684
6380.525
6406.796
6419.995
6435.307
6442.482
6439.054
6437.182
6442.102
6453.402
6466.008
6469.952
6463.094
6458.241
6463.938
6470.476
6479.604
6490.91
6496.215
6502.168
6508.282
6503.336
6497.725
6487.61
6460.588
6431.767
6406.18
6381.77
6359.367
6335.741
6312.905
6295.532
6279.483
6269.651
6269.67
6270.173
6269.402
6267.584
6266.714
6263.682
6256.206
6243.848
6228.538
6209.569
6188.603
6166.808
6148.115
6125.172
6101.208
6092.214
6071.529
6054.46
6053.717
6063.864
6075.913
6080.969
6082.862
6083.747
6081.357
6076.031
6069.359
6061.99
6053.559
6044.207
6035.726
6028.845
6020.731
6010.836
5997.969
5985.609
5979.416
5979.324
5980.556
5981.881
5983.466
5984.612
5985.518
5986.224
5986.576
5986.489
5986.286
5986.228
5986.665
5987.725
5989.151
5990.758
5992.12
5992.711
5993.632
5995.354
5997.913
6000.964
6003.674
6006.861
6011.171
6016.369
6020.358
6025.175
6032.826
6041.908
6049.727
6057.318
6064.977
6073.068
6081.149
6088.608
6095.378
6101.292
6106.752
6112.953
6120.803
6129.094
6137.115
6145.09
6152.888
6160.678
6168.569
6176.822
6185.161
6193.918
6203.138
6212.368
6221.709
6231.352
6240.888
6250.092
6258.656
6266.03
6271.295
6274.585
6276.521
6276.705
6276.434
6279.78
6282.803
6287.131
6289.862
6287.812
6292.615
6295.755
6299.856
6307.017
6314.38
6319.211
6321.91
6324.335
6326.82
6328.957
6330.334
6332.781
6337.065
6339.824
6341.434
6335.634
6328.94
6329.497
6331.293
6332.1
6334.1
6332.745
6329.998
6329.064
6324.272
6320.803
6319.022
6314.885
6313.973
6308
6300.768
6295.734
6290.1
6284.461
6278.589
6272.898
6268.244
6263.244
6258.304
6252.305
6244.59
6236.076
6227.441
6219.026
6210.873
6202.832
6195.102
6187.461
6180.143
6172.553
6164.338
6156.003
6149.061
6142.242
6136.367
6131.672
6127.814
6124.317
6120.849
6117.44
6114.374
6111.571
6108.949
6106.513
6104.422
6102.296
6100.138
6098.32
6097.016
6096.012
6095.06
6094.328
6093.692
6093.315
6093.191
6092.988
6092.702
6092.619
6092.043
6090.903
6090.544
4010.834
4022.546
3998.9
3989.213
3988.595
3965.427
3911.18
3874.068
3856.823
3839.829
3825.395
3820.415
3821.905
3824.776
3837.2
3794.674
3824.12
3852.083
3875.894
3940.503
3917.226
3949.83
4024.676
4001.686
3945.288
3846.95
3703.659
3549.76
3424.37
3301.332
3187.882
3089.151
3010.243
2962.588
2947.733
2963.368
3013.699
3087.398
3200.235
3381.988
3621.721
3895.592
4213.401
4571.215
4928.89
5236.969
5487.668
5699.686
5862.787
5963.564
5993.616
5974.034
5933.005
5891.392
5835.226
5754.415
5643.842
5537.192
5466.334
5416.637
5365.737
5301.883
5199.91
5049.107
4877.921
4702.429
4547.053
4420.179
4342.799
4336.739
4394.954
4512.115
4658.092
4801.275
4908.112
4973.51
5024.186
5046.927
5038.028
5003.791
4967.203
4954.851
4971.481
5013.837
5073.976
5140.642
5211.414
5266.81
5314.557
5369.843
5450.245
5530.712
5609.432
5660.459
5652.279
5603.898
5540.211
5490.595
5478.736
5490.361
5510.219
5535.453
5564.715
5591.225
5612.064
5623.975
5636.132
5652.527
5661.917
5665.749
5642.325
5580.839
5464.331
5300.505
5117.119
4947.003
4799.7
4678.236
4585.629
4532.815
4533.703
4598.03
4721.403
4885.82
5072.742
5259.826
5434.465
5600.431
5762.563
5903.492
6018.439
6106.821
6166.073
6207.332
6237.912
6277.153
6306.117
6295.205
6217.573
6111.14
5992.399
5868.545
5783.86
5714.205
5633.875
5564.741
5501.11
5436.044
5396.617
5430.372
5508.294
5592.157
5660.284
5707.098
5731.372
5700.533
5604.795
5464.119
5353.345
5329.471
5417.404
5533.425
5645.649
5741.269
5807.562
5853.957
5888.827
5917.987
5940.586
5955.932
5972.159
5993.799
6015.978
6036.968
6055.198
6073.854
6091.224
6110.494
6118.435
6089.806
6046.082
6035.946
6050.533
6057.176
6049.789
6028.598
5997.424
5958.257
5916.786
5874.357
5830.849
5784.171
5730.073
5660.187
5575.64
5493.232
5430.019
5377.162
5329.455
5290.553
5261.91
5246.084
5242.692
5244.234
5247.853
5252.331
5258.24
5268.535
5282.738
5300.016
5317.203
5333.649
5348.433
5357.757
5358.245
5350.47
5355.536
5393.722
5428.752
5450.566
5481.353
5510.187
5526.609
5540.014
5543.993
5537.18
5543.878
5553.467
5562.557
5563.177
5569.132
5578.568
5573.38
5567.769
5565.303
5579.017
5613.219
5649.451
5702.606
5743.232
5750.956
5750.606
5735.969
5726.531
5714.881
5670.413
5642.862
5674.889
5706.565
5741.231
5787.652
5844.072
5886.418
5897.384
5904.228
5928.442
5954.365
5968.147
5964.144
5971.461
5969.284
5977.804
6005.365
6036.805
6057.67
6080.731
6117.72
6147.803
6166.306
6176.347
6184.663
6188.035
6189.608
6193.095
6201.955
6213.081
6220.43
6217.062
6211.557
6210.425
6211.833
6219.014
6228.377
6235.853
6243.736
6250.649
6248.685
6240.541
6225.71
6205.409
6182.506
6154.078
6123.523
6097.648
6078.34
6062.135
6049.058
6039.585
6029.357
6021.556
6022.853
6021.81
6017.031
6021.202
6028.906
6021.453
6004.516
5977.91
5963.186
5951.25
5922.085
5895.374
5874.265
5854.14
5834.479
5822.842
5818.227
5820.117
5825.58
5831.628
5836.027
5838.157
5837.746
5834.338
5828.162
5821.095
5813.641
5805.64
5797.885
5791.545
5785.238
5779.38
5771.443
5759.622
5748.706
5739.89
5735.193
5734.028
5734.219
5735.257
5736.58
5737.703
5738.431
5738.916
5739.02
5738.957
5739.088
5739.607
5740.721
5742.435
5744.159
5745.171
5745.396
5746.182
5747.694
5750.744
5754.375
5757.129
5760.744
5765.535
5770.594
5774.909
5777.797
5783.232
5793.624
5803.524
5809.547
5816.595
5824.988
5833.583
5841.45
5848.612
5855.145
5861.502
5868.454
5876.301
5884.094
5891.569
5898.977
5906.499
5914.529
5922.84
5931.511
5940.586
5949.891
5959.473
5969.172
5978.937
5988.545
5998.082
6007.412
6015.462
6022.264
6027.344
6030.89
6033.142
6034.763
6034.967
6036.425
6039.127
6045.042
6048.42
6044.97
6047.995
6053.478
6056.741
6062.907
6068.879
6072.943
6075.769
6078.645
6081.88
6085.235
6088.496
6091.173
6096.016
6097.556
6094.875
6089.857
6086.45
6088.609
6089.457
6089.22
6089.696
6087.917
6085.28
6083.081
6078.533
6074.613
6073.544
6070.606
6069.271
6064.071
6057.926
6052.367
6046.514
6040.423
6033.728
6027.558
6022.006
6014.9
6008.77
6003.193
5997.217
5989.839
5981.275
5972.449
5963.849
5955.722
5947.904
5940.747
5932.948
5924.749
5916.145
5909.078
5902.268
5895.198
5889.339
5884.556
5880.277
5876.313
5872.63
5869.246
5866.087
5862.997
5860.359
5858.46
5856.38
5854.569
5852.993
5851.682
5850.36
5849.255
5848.307
5847.565
5846.881
5846.691
5846.677
5846.654
5846.517
5846.446
5846.354
5846.358
5846.722
3786.176
3752.892
3744.641
3737.449
3726.315
3731.246
3748.876
3745.676
3719.129
3699.396
3605.835
3584.569
3560.133
3531.407
3507.823
3497.396
3497.104
3498.899
3495.576
3511.399
3539.397
3559.735
3606.603
3681.402
3718.058
3722.466
3769.826
3788.526
3714.817
3601.643
3477.314
3352.613
3217.984
3101.875
2987.159
2873.826
2789.111
2721.604
2683.001
2671.022
2686.56
2725.896
2788.191
2878.473
3019.966
3243.101
3513.913
3828.255
4193.535
4576.244
4905.523
5167.925
5372.29
5526.919
5626.605
5659.114
5640.593
5591.118
5529.615
5463.122
5391.256
5295.716
5190.661
5107.131
5038.596
4964.026
4861.285
4712.656
4503.296
4272.705
4022.511
3801.872
3630.485
3526.693
3552.168
3649.474
3806.936
3999.517
4206.839
4379.931
4533.37
4642.443
4680.735
4675.146
4654.191
4638.945
4641.257
4667.227
4717.329
4783.329
4861.47
4944.187
5017.166
5082.962
5151.328
5227.219
5308.192
5374.489
5426.62
5415.347
5351.099
5263.123
5206.028
5208.775
5224.777
5243.366
5266.943
5297.357
5331.392
5360.944
5382.067
5394.443
5408.355
5422.084
5417.667
5387.171
5313.329
5188.842
5017.855
4826.213
4648.167
4494.254
4360.472
4244.814
4166.571
4148.218
4199.725
4322.724
4496.924
4701.312
4909.761
5102.953
5274.839
5447.694
5602.54
5734.08
5841.607
5912.622
5958.216
5984.184
6003.216
6021.76
6006.338
5944.732
5837.943
5717.419
5601.923
5516.551
5447.892
5377.032
5311.887
5256.565
5182.817
5153.937
5164.504
5235.38
5325.922
5396.582
5434.253
5444.931
5378.046
5209.706
5040.18
4988.261
5002.014
5081.08
5229.811
5377.181
5487.41
5580.736
5617.715
5648.401
5661.306
5681.113
5696.342
5712.435
5734.246
5763.126
5797.204
5824.918
5850.439
5875.788
5903.682
5919.516
5899.161
5870.748
5867.723
5859.676
5837.625
5811.58
5780.311
5742.556
5698.336
5651.079
5602.512
5552.313
5499.955
5442.393
5372.088
5293.13
5212.649
5151.141
5101.559
5056.85
5019.183
4991.976
4978.485
4974.68
4977.46
4983.248
4990.184
5000.672
5012.833
5027.767
5046.4
5066.461
5087.606
5111.391
5136.884
5160.037
5159.555
5141.595
5158.596
5183.436
5200.912
5228.671
5250.428
5273.773
5291.363
5307.067
5312.845
5324.458
5332.497
5323.282
5325.491
5332.084
5342.132
5342.145
5333.482
5340.997
5352.611
5371.081
5408.952
5468.827
5522.661
5536.377
5529.519
5511.698
5500.455
5492.107
5479.933
5473.553
5500.148
5523.338
5544.242
5586.835
5632.462
5674.264
5686.377
5681.238
5681.092
5699.232
5716.697
5704.387
5694.19
5689.245
5696.782
5733.091
5774.217
5804.34
5833.724
5867.47
5893.426
5907.088
5909.015
5913.33
5919.589
5926.893
5937.549
5948.309
5958.979
5966.614
5966.933
5963.209
5962.048
5963.416
5965.611
5969.09
5971.183
5977.503
5985.574
5988.677
5980.35
5966.542
5949.523
5926.805
5896.579
5870.816
5852.076
5834.241
5818.218
5803.984
5792.725
5785.518
5782.771
5780.061
5777.298
5766.859
5769.249
5785.923
5785.671
5764.556
5741.106
5718.313
5694.086
5674.402
5655.655
5633.097
5617.2
5609.316
5594.196
5584.466
5587.416
5591.735
5592.988
5592.929
5592.839
5591.687
5588.668
5583.072
5575.595
5567.95
5559.377
5550.835
5543.847
5538.164
5531.651
5524.811
5514.438
5502.225
5493.933
5489.347
5487.349
5487.048
5487.757
5488.867
5489.989
5490.631
5490.765
5490.757
5490.954
5491.666
5492.6
5493.675
5494.771
5497.049
5497.853
5496.237
5495.186
5496.638
5501.117
5506.116
5511.314
5515.832
5521.619
5526.134
5530.603
5531.366
5534.25
5542.887
5553.572
5562.259
5570.178
5578.743
5586.595
5594.233
5601.846
5609.22
5616.342
5623.57
5631.165
5638.861
5646.349
5653.524
5660.548
5668.532
5677.184
5686.342
5695.992
5705.892
5715.926
5725.866
5735.743
5745.804
5755.591
5764.695
5772.63
5779.562
5784.708
5788.279
5791.073
5793.49
5795.12
5797.621
5799.776
5802.162
5805.141
5804.574
5805.448
5812.258
5817.574
5821.857
5825.466
5827.613
5830.631
5835.052
5838.707
5841.113
5844.134
5847.305
5850.245
5851.29
5850.229
5848.125
5846.336
5846.347
5846.204
5845.651
5845.146
5843.674
5841.53
5839.179
5835.923
5832.612
5830.363
5827.448
5824.91
5820.43
5814.995
5809.381
5803.489
5797.499
5791.655
5786.079
5778.864
5768.953
5760.747
5754.493
5748.694
5741.827
5734.055
5725.313
5716.386
5708.426
5701.872
5694.505
5685.579
5677.096
5669.225
5662.351
5655.485
5648.424
5642.318
5637.013
5632.318
5627.982
5624.132
5620.738
5617.444
5614.768
5612.867
5610.328
5607.456
5605.509
5604.151
5603.186
5602.523
5601.474
5600.411
5600.17
5599.986
5599.938
5599.973
5600.025
5600.157
5600.349
5601.01
5601.881
5602.259
3543.974
3508.422
3421.765
3398.892
3380.836
3390.325
3411.803
3415.966
3407.303
3396.868
3379.766
3356.696
3326.747
3295.869
3272.41
3243.973
3215.265
3216.727
3206.526
3188.947
3231.477
3286.732
3355.526
3461.232
3477.57
3508.871
3537.843
3508.258
3416.627
3295.237
3159.946
3042.963
2923.78
2785.627
2673.139
2578.92
2505.689
2448.866
2409.88
2394.861
2404.128
2432.118
2475.392
2532.931
2633.142
2823.097
3088.946
3409.931
3785.277
4188.776
4549.406
4825.226
5023.016
5158.068
5244.344
5286.088
5266.947
5205.735
5137.505
5079.344
5020.772
4952.035
4867.939
4782.43
4695.903
4593.832
4442.977
4233.597
3947.4
3635.126
3302.385
3015.823
2797.266
2631.32
2612.638
2763.379
3029.466
3327.492
3609.007
3855.351
4044.374
4184.391
4286.754
4318.021
4318.802
4314.945
4327.227
4365.548
4427
4504.457
4589.864
4677.384
4760.231
4837.567
4914.343
4991.012
5073.452
5142.927
5179.44