/*--------------------------------*- C++ -*----------------------------------*\
| =========                 |                                                 |
| \\      /  F ield         | foam-extend: Open Source CFD                    |
|  \\    /   O peration     | Version:     3.1                                |
|   \\  /    A nd           | Web:         http://www.extend-project.de       |
|    \\/     M anipulation  |                                                 |
\*---------------------------------------------------------------------------*/
FoamFile
{
    version     2.0;
    format      ascii;
    class       volScalarField;
    location    "28";
    object      H;
}
// * * * * * * * * * * * * * * * * * * * * * * * * * * * * * * * * * * * * * //

dimensions      [0 1 0 0 0 0 0];

internalField   nonuniform List<scalar> 
2539
(
0.85752
0.856818
0.855886
0.854964
0.854041
0.853118
0.852194
0.851271
0.850347
0.849423
0.848499
0.847574
0.84665
0.845725
0.8448
0.843874
0.842949
0.842023
0.841097
0.840171
0.839244
0.838317
0.83739
0.836463
0.835536
0.834608
0.83368
0.832752
0.831823
0.830895
0.829966
0.829037
0.828107
0.827177
0.826247
0.825317
0.824387
0.823456
0.822525
0.821594
0.820662
0.81973
0.818798
0.817866
0.816934
0.816001
0.815068
0.814134
0.8132
0.812267
0.811332
0.810398
0.809463
0.808528
0.807593
0.806657
0.805721
0.804785
0.803848
0.802911
0.801974
0.801037
0.800099
0.799161
0.798223
0.797284
0.796346
0.795406
0.794467
0.793527
0.792587
0.791647
0.790706
0.789765
0.788823
0.787882
0.78694
0.785997
0.785055
0.784112
0.783168
0.782225
0.781281
0.780336
0.779392
0.778447
0.777501
0.776556
0.77561
0.774663
0.773717
0.772769
0.771822
0.770874
0.769926
0.768978
0.768029
0.76708
0.76613
0.76518
0.76423
0.763279
0.762328
0.761376
0.760425
0.759472
0.75852
0.757567
0.756613
0.75566
0.754705
0.753751
0.752796
0.751841
0.750885
0.749929
0.748972
0.748015
0.747058
0.7461
0.745142
0.744183
0.743224
0.742264
0.741304
0.740344
0.739383
0.738422
0.73746
0.736498
0.735536
0.734572
0.733609
0.732645
0.731681
0.730716
0.72975
0.728785
0.727818
0.726851
0.725884
0.724917
0.723948
0.72298
0.72201
0.721041
0.720071
0.7191
0.718129
0.717157
0.716185
0.715212
0.714239
0.713265
0.712291
0.711316
0.710341
0.709365
0.708388
0.707411
0.706434
0.705456
0.704477
0.703498
0.702518
0.701537
0.700557
0.699575
0.698593
0.69761
0.696627
0.695643
0.694659
0.693674
0.692688
0.691702
0.690715
0.689727
0.688739
0.68775
0.686761
0.685771
0.68478
0.683789
0.682567
0.681213
0.680414
0.680097
0.679804
0.679514
0.679223
0.678932
0.678641
0.67835
0.678059
0.677768
0.677477
0.677185
0.676894
0.676603
0.676311
0.67602
0.675728
0.675437
0.675145
0.674853
0.674561
0.674269
0.673978
0.673686
0.673393
0.673101
0.672809
0.672517
0.672225
0.671932
0.67164
0.671347
0.671055
0.670762
0.670469
0.670177
0.669884
0.669591
0.669298
0.669005
0.668712
0.668419
0.668125
0.667832
0.667539
0.667245
0.666952
0.666658
0.666365
0.666071
0.665777
0.665483
0.665189
0.664895
0.664601
0.664307
0.664013
0.663719
0.663425
0.66313
0.662836
0.662541
0.662247
0.661952
0.661657
0.661363
0.661068
0.660773
0.660478
0.660183
0.659888
0.659592
0.659297
0.659002
0.658706
0.658411
0.658115
0.657819
0.657524
0.657228
0.656932
0.656636
0.65634
0.656044
0.655748
0.655452
0.655155
0.654859
0.654563
0.654266
0.653969
0.653673
0.653376
0.653079
0.652782
0.652485
0.652188
0.651891
0.651594
0.651297
0.650999
0.650702
0.650404
0.650107
0.649809
0.649511
0.649213
0.648916
0.648618
0.64832
0.648021
0.647723
0.647425
0.647127
0.646828
0.64653
0.646231
0.645932
0.645633
0.645335
0.645036
0.644737
0.644438
0.644138
0.643839
0.64354
0.64324
0.642941
0.642641
0.642342
0.642042
0.641742
0.641442
0.641142
0.640842
0.640542
0.640242
0.639941
0.639641
0.63934
0.63904
0.638739
0.638438
0.638138
0.637837
0.637536
0.637235
0.636933
0.636632
0.636331
0.636029
0.635728
0.635426
0.635124
0.634823
0.634521
0.634219
0.633917
0.633615
0.633312
0.63301
0.632708
0.632405
0.632102
0.6318
0.631497
0.631194
0.630891
0.630588
0.630285
0.629982
0.629678
0.629375
0.629071
0.628768
0.628464
0.62816
0.627856
0.627552
0.627248
0.626944
0.62664
0.626336
0.626031
0.625726
0.625422
0.625117
0.624812
0.624507
0.624202
0.623897
0.623592
0.623287
0.622981
0.622676
0.62237
0.62207
0.621647
0.623705
0.598429
0.572794
0.54428
0.527656
0.517139
0.50963
0.503735
0.49878
0.49442
0.490466
0.486808
0.483379
0.480135
0.477044
0.474085
0.471239
0.468494
0.46584
0.463266
0.460767
0.458335
0.455965
0.453652
0.451392
0.449181
0.447017
0.444896
0.442816
0.440774
0.438768
0.436796
0.434857
0.432948
0.431069
0.429217
0.427392
0.425592
0.423817
0.422065
0.420334
0.418626
0.416937
0.415268
0.413618
0.411986
0.410371
0.408774
0.407192
0.405626
0.404074
0.402538
0.401015
0.399505
0.398008
0.396524
0.395051
0.39359
0.39214
0.390701
0.389271
0.387851
0.386441
0.385039
0.383646
0.382261
0.380883
0.379513
0.378149
0.376791
0.375439
0.374091
0.372749
0.37141
0.370074
0.368741
0.36741
0.36608
0.36475
0.363419
0.362085
0.360748
0.359406
0.358057
0.356698
0.355327
0.353941
0.352535
0.351104
0.349643
0.348142
0.346591
0.344977
0.343285
0.341492
0.339576
0.337508
0.335258
0.332799
0.330112
0.327199
0.319637
0.316419
0.31346
0.310719
0.308164
0.30577
0.303514
0.301382
0.299358
0.297432
0.295593
0.293833
0.292145
0.290522
0.288959
0.287452
0.285995
0.284586
0.283221
0.281897
0.280612
0.279362
0.278146
0.276963
0.275809
0.274683
0.273585
0.272512
0.271463
0.270438
0.269434
0.268451
0.267489
0.266545
0.26562
0.264712
0.263822
0.262947
0.262088
0.261244
0.260415
0.259599
0.258797
0.258008
0.257231
0.256466
0.255713
0.254972
0.254241
0.253521
0.252811
0.252111
0.251421
0.250741
0.250069
0.249407
0.248753
0.248107
0.24747
0.246841
0.246219
0.245605
0.244998
0.244399
0.243807
0.243221
0.242642
0.24207
0.241504
0.240945
0.240391
0.239844
0.239302
0.238766
0.238235
0.23771
0.237191
0.236677
0.236167
0.235663
0.235164
0.23467
0.23418
0.233695
0.233215
0.232739
0.232267
0.2318
0.231337
0.230878
0.230424
0.229973
0.229527
0.229084
0.228644
0.228204
0.227766
0.227336
0.226932
0.226584
0.22629
0.226019
0.225749
0.22548
0.225213
0.224947
0.224683
0.22442
0.224158
0.223898
0.223639
0.223382
0.223126
0.222871
0.222618
0.222365
0.222115
0.221865
0.221617
0.22137
0.221124
0.220879
0.220636
0.220394
0.220153
0.219913
0.219674
0.219437
0.2192
0.218965
0.218731
0.218498
0.218266
0.218036
0.217806
0.217578
0.21735
0.217124
0.216898
0.216674
0.216451
0.216228
0.216007
0.215787
0.215567
0.215349
0.215132
0.214915
0.2147
0.214486
0.214272
0.21406
0.213848
0.213637
0.213428
0.213219
0.213011
0.212804
0.212598
0.212392
0.212188
0.211984
0.211782
0.21158
0.211379
0.211179
0.210979
0.210781
0.210583
0.210386
0.21019
0.209995
0.209801
0.209607
0.209414
0.209222
0.209031
0.20884
0.20865
0.208461
0.208273
0.208085
0.207899
0.207713
0.207527
0.207343
0.207159
0.206975
0.206793
0.206611
0.20643
0.20625
0.20607
0.205891
0.205713
0.205535
0.205358
0.205182
0.205006
0.204831
0.204657
0.204483
0.20431
0.204137
0.203966
0.203795
0.203624
0.203454
0.203285
0.203116
0.202948
0.20278
0.202614
0.202447
0.202282
0.202117
0.201952
0.201788
0.201625
0.201462
0.2013
0.201138
0.200977
0.200817
0.200657
0.200497
0.200338
0.20018
0.200022
0.199865
0.199709
0.199552
0.199397
0.199242
0.199087
0.198933
0.19878
0.198627
0.198474
0.198322
0.198171
0.19802
0.197869
0.197719
0.19757
0.197421
0.197272
0.197124
0.196977
0.19683
0.196683
0.196537
0.196391
0.196246
0.196101
0.195957
0.195813
0.19567
0.195527
0.195385
0.195243
0.195101
0.19496
0.19482
0.194679
0.19454
0.1944
0.194262
0.194123
0.193985
0.193848
0.19371
0.193574
0.193437
0.193301
0.193166
0.193031
0.192896
0.192762
0.192628
0.192495
0.192362
0.192229
0.192097
0.191965
0.191833
0.191702
0.191572
0.191441
0.191312
0.191182
0.191053
0.190924
0.190796
0.190668
0.19054
0.190413
0.190286
0.19016
0.190033
0.189908
0.189782
0.189657
0.189532
0.189408
0.189284
0.189161
0.189037
0.188914
0.188792
0.18867
0.188548
0.188426
0.188305
0.188184
0.188064
0.187943
0.187824
0.187704
0.187585
0.187466
0.187348
0.187229
0.187111
0.186994
0.186877
0.18676
0.186643
0.186527
0.186411
0.186295
0.18618
0.186065
0.185951
0.185836
0.185722
0.185608
0.185495
0.185382
0.185269
0.185156
0.185044
0.184932
0.184821
0.184709
0.184598
0.184487
0.184377
0.184267
0.184157
0.184047
0.183938
0.183829
0.18372
0.183612
0.183504
0.183396
0.183288
0.183181
0.183074
0.182967
0.18286
0.182754
0.182648
0.182543
0.182437
0.182332
0.182227
0.182123
0.182018
0.181914
0.18181
0.181707
0.181603
0.1815
0.181398
0.181295
0.181193
0.181091
0.180989
0.180888
0.180786
0.180685
0.180585
0.180484
0.180384
0.180284
0.180184
0.180085
0.179985
0.179886
0.179788
0.179689
0.179591
0.179493
0.179395
0.179297
0.1792
0.179103
0.179006
0.178909
0.178813
0.178717
0.178621
0.178525
0.17843
0.178334
0.178239
0.178145
0.17805
0.177956
0.177861
0.177768
0.177674
0.17758
0.177487
0.177394
0.177301
0.177209
0.177116
0.177024
0.176932
0.176841
0.176749
0.176658
0.176567
0.176476
0.176385
0.176295
0.176204
0.176114
0.176025
0.175935
0.175846
0.175756
0.175667
0.175578
0.17549
0.175401
0.175313
0.175225
0.175138
0.17505
0.174962
0.174875
0.174788
0.174702
0.174618
0.174534
0.174439
0.174331
0.174216
0.174102
0.173989
0.173875
0.173762
0.173649
0.173537
0.173425
0.173313
0.173201
0.17309
0.172979
0.172869
0.172758
0.172648
0.172539
0.172429
0.17232
0.172211
0.172103
0.171995
0.171887
0.171779
0.171672
0.171565
0.171458
0.171351
0.171245
0.171139
0.171033
0.170928
0.170823
0.170718
0.170614
0.170509
0.170405
0.170302
0.170198
0.170095
0.169992
0.16989
0.169787
0.169685
0.169583
0.169482
0.16938
0.169279
0.169179
0.169078
0.168978
0.168878
0.168778
0.168679
0.168579
0.16848
0.168382
0.168283
0.168185
0.168087
0.167989
0.167892
0.167794
0.167697
0.167601
0.167504
0.167408
0.167312
0.167216
0.16712
0.167025
0.16693
0.166835
0.166741
0.166646
0.166552
0.166458
0.166365
0.166271
0.166178
0.166085
0.165992
0.1659
0.165807
0.165715
0.165623
0.165532
0.16544
0.165349
0.165258
0.165167
0.165077
0.164987
0.164896
0.164807
0.164717
0.164628
0.164538
0.164449
0.16436
0.164272
0.164183
0.164095
0.164007
0.16392
0.163832
0.163745
0.163658
0.163571
0.163484
0.163397
0.163311
0.163225
0.163139
0.163053
0.162968
0.162882
0.162797
0.162712
0.162628
0.162543
0.162459
0.162375
0.162291
0.162207
0.162123
0.16204
0.161957
0.161874
0.161791
0.161709
0.161626
0.161544
0.161462
0.16138
0.161298
0.161217
0.161136
0.161054
0.160974
0.160893
0.160812
0.160732
0.160652
0.160572
0.160492
0.160412
0.160333
0.160253
0.160174
0.160095
0.160016
0.159938
0.159859
0.159781
0.159703
0.159625
0.159547
0.15947
0.159392
0.159315
0.159238
0.159161
0.159085
0.159008
0.158932
0.158855
0.158779
0.158703
0.158628
0.158552
0.158477
0.158402
0.158328
0.158254
0.158174
0.158085
0.158
0.157972
0.158052
0.158109
0.158119
0.158097
0.15808
0.158063
0.158049
0.158042
0.158042
0.158047
0.158053
0.158061
0.158075
0.158095
0.15812
0.158148
0.158181
0.158218
0.158261
0.158308
0.158359
0.158413
0.158471
0.158532
0.1586
0.158674
0.158753
0.158836
0.158922
0.159012
0.159109
0.159212
0.159318
0.159428
0.159542
0.15966
0.159782
0.15991
0.160045
0.160183
0.160325
0.160474
0.16063
0.160789
0.160953
0.161121
0.161294
0.161471
0.161655
0.161843
0.162035
0.162233
0.162437
0.162649
0.162866
0.163087
0.163313
0.163544
0.16378
0.164022
0.164272
0.164529
0.164793
0.16506
0.165331
0.165607
0.16589
0.166181
0.166481
0.166786
0.167098
0.167416
0.167742
0.168072
0.16841
0.168754
0.169104
0.169462
0.169832
0.170211
0.170599
0.170991
0.171387
0.171786
0.172188
0.172599
0.17303
0.173497
0.173998
0.174509
0.174967
0.175301
0.175497
0.175694
0.176224
0.177492
0.179613
0.181899
0.182545
0.179243
0.171367
0.162832
0.155367
0.155296
0.155226
0.155156
0.155086
0.155016
0.154946
0.154877
0.154807
0.154738
0.154669
0.1546
0.154531
0.154462
0.154393
0.154325
0.154257
0.154189
0.15412
0.154053
0.153985
0.153917
0.15385
0.153782
0.153715
0.153648
0.153581
0.153514
0.153448
0.153381
0.153315
0.153249
0.153182
0.153116
0.153051
0.152985
0.152919
0.152854
0.152788
0.152723
0.152658
0.152593
0.152528
0.152464
0.152399
0.152335
0.152271
0.152206
0.152142
0.152078
0.152015
0.151951
0.151887
0.151824
0.151761
0.151698
0.151635
0.151572
0.151509
0.151446
0.151384
0.151321
0.151259
0.151197
0.151135
0.151073
0.151011
0.150949
0.150888
0.150826
0.150765
0.150704
0.150643
0.150582
0.150521
0.15046
0.1504
0.150339
0.150279
0.150219
0.150158
0.150099
0.150039
0.149979
0.149918
0.149854
0.149793
0.149754
0.149745
0.149749
0.149752
0.149755
0.149759
0.149762
0.149766
0.149769
0.149773
0.149776
0.149779
0.149783
0.149786
0.14979
0.149793
0.149796
0.1498
0.149803
0.149807
0.14981
0.149813
0.149817
0.14982
0.149823
0.149827
0.14983
0.149834
0.149837
0.14984
0.149844
0.149847
0.149851
0.149854
0.149857
0.149861
0.149864
0.149867
0.149871
0.149874
0.149877
0.149881
0.149884
0.149887
0.149891
0.149894
0.149897
0.149901
0.149904
0.149908
0.149911
0.149914
0.149918
0.149921
0.149924
0.149928
0.149931
0.149934
0.149937
0.149941
0.149944
0.149947
0.149951
0.149954
0.149957
0.149961
0.149964
0.149967
0.149971
0.149974
0.149977
0.149981
0.149984
0.149987
0.14999
0.149994
0.149997
0.15
0.150004
0.150007
0.15001
0.150013
0.150017
0.15002
0.150023
0.150027
0.15003
0.150033
0.150036
0.15004
0.150043
0.150046
0.150049
0.150053
0.150056
0.150059
0.150062
0.150066
0.150069
0.150072
0.150075
0.150079
0.150082
0.150085
0.150088
0.150092
0.150095
0.150098
0.150101
0.150105
0.150108
0.150111
0.150114
0.150117
0.150121
0.150124
0.150127
0.15013
0.150134
0.150137
0.15014
0.150143
0.150146
0.15015
0.150153
0.150156
0.150159
0.150162
0.150166
0.150169
0.150172
0.150175
0.150178
0.150182
0.150185
0.150188
0.150191
0.150194
0.150197
0.150201
0.150204
0.150207
0.15021
0.150213
0.150217
0.15022
0.150223
0.150226
0.150229
0.150232
0.150236
0.150239
0.150242
0.150245
0.150248
0.150251
0.150254
0.150258
0.150261
0.150264
0.150267
0.15027
0.150273
0.150276
0.15028
0.150283
0.150286
0.150289
0.150292
0.150295
0.150298
0.150301
0.150305
0.150308
0.150311
0.150314
0.150317
0.15032
0.150323
0.150326
0.150329
0.150333
0.150336
0.150339
0.150342
0.150345
0.150348
0.150351
0.150354
0.150357
0.15036
0.150364
0.150367
0.15037
0.150373
0.150376
0.150379
0.150382
0.150385
0.150388
0.150391
0.150394
0.150397
0.1504
0.150404
0.150407
0.15041
0.150413
0.150416
0.150419
0.150422
0.150425
0.150428
0.150431
0.150434
0.150437
0.15044
0.150443
0.150446
0.150449
0.150452
0.150455
0.150458
0.150461
0.150465
0.150468
0.150471
0.150474
0.150477
0.15048
0.150483
0.150486
0.150489
0.150492
0.150495
0.150498
0.150501
0.150504
0.150507
0.15051
0.150513
0.150516
0.150519
0.150522
0.150525
0.150528
0.150531
0.150534
0.150537
0.150539
0.150542
0.150547
0.150553
0.150556
0.150544
0.150508
0.1505
0.150686
0.151175
0.151355
0.149193
0.143318
0.140903
0.164092
0.255253
0.465278
0.641287
0.665401
0.665454
0.665758
0.66606
0.666361
0.666662
0.666963
0.667265
0.667566
0.667867
0.668168
0.668469
0.66877
0.669071
0.669371
0.669672
0.669973
0.670273
0.670574
0.670875
0.671175
0.671475
0.671776
0.672076
0.672376
0.672676
0.672976
0.673276
0.673576
0.673876
0.674176
0.674476
0.674775
0.675076
0.67537
0.675578
0.675639
0.675634
0.675632
0.67563
0.675627
0.675624
0.675622
0.675619
0.675617
0.675614
0.675611
0.675609
0.675606
0.675603
0.675601
0.675598
0.675595
0.675592
0.67559
0.675587
0.675584
0.675581
0.675579
0.675576
0.675573
0.67557
0.675567
0.675565
0.675562
0.675559
0.675556
0.675553
0.67555
0.675547
0.675545
0.675542
0.675539
0.675536
0.675533
0.67553
0.675528
0.675525
0.675522
0.675519
0.675516
0.675514
0.675511
0.675508
0.675505
0.675502
0.675499
0.675497
0.675494
0.675491
0.675488
0.675485
0.675482
0.675479
0.675476
0.675473
0.675471
0.675468
0.675465
0.675462
0.675459
0.675456
0.675453
0.67545
0.675447
0.675443
0.67544
0.675437
0.675434
0.675431
0.675428
0.675425
0.675421
0.675418
0.675415
0.675411
0.675408
0.675405
0.675401
0.675398
0.675395
0.675391
0.675388
0.675384
0.675381
0.675377
0.675374
0.67537
0.675367
0.675363
0.67536
0.675356
0.675353
0.675349
0.675345
0.675342
0.675338
0.675334
0.675331
0.675327
0.675323
0.67532
0.675316
0.675312
0.675308
0.675305
0.675301
0.675297
0.675293
0.67529
0.675286
0.675282
0.675278
0.675274
0.675271
0.675267
0.675263
0.675259
0.675255
0.675251
0.675247
0.675243
0.675239
0.675235
0.675231
0.675227
0.675223
0.675219
0.675215
0.675211
0.675207
0.675203
0.675199
0.675194
0.67519
0.675186
0.675181
0.675177
0.675173
0.675168
0.675164
0.67516
0.675155
0.675151
0.675146
0.675142
0.675137
0.675132
0.675128
0.675123
0.675119
0.675114
0.675109
0.675104
0.6751
0.675095
0.67509
0.675085
0.67508
0.675075
0.675071
0.675066
0.675061
0.675056
0.675051
0.675046
0.675041
0.675036
0.675031
0.675026
0.675021
0.675016
0.67501
0.675005
0.675
0.674995
0.67499
0.674985
0.674979
0.674974
0.674969
0.674963
0.674958
0.674953
0.674947
0.674942
0.674937
0.674931
0.674926
0.67492
0.674915
0.674909
0.674904
0.674898
0.674892
0.674887
0.674881
0.674875
0.674869
0.674864
0.674858
0.674852
0.674846
0.67484
0.674834
0.674828
0.674822
0.674816
0.67481
0.674803
0.674797
0.674791
0.674785
0.674778
0.674772
0.674765
0.674759
0.674752
0.674746
0.674739
0.674733
0.674726
0.674719
0.674712
0.674706
0.674699
0.674692
0.674685
0.674678
0.674671
0.674664
0.674657
0.67465
0.674643
0.674636
0.674628
0.674621
0.674614
0.674607
0.674599
0.674592
0.674584
0.674577
0.674569
0.674562
0.674554
0.674547
0.674539
0.674531
0.674524
0.674516
0.674508
0.6745
0.674492
0.674484
0.674476
0.674468
0.67446
0.674452
0.674444
0.674436
0.674427
0.674419
0.674411
0.674403
0.674394
0.674386
0.674377
0.674369
0.67436
0.674351
0.674343
0.674334
0.674325
0.674316
0.674308
0.674299
0.67429
0.674281
0.674272
0.674263
0.674254
0.674245
0.674236
0.674226
0.674217
0.674208
0.674199
0.674189
0.67418
0.674171
0.674161
0.674152
0.674143
0.674133
0.674124
0.674114
0.674105
0.674095
0.674086
0.674076
0.674067
0.674057
0.674048
0.674038
0.674028
0.674019
0.674009
0.674
0.67399
0.673981
0.673971
0.673961
0.673952
0.673942
0.673933
0.673923
0.673914
0.673904
0.673895
0.673885
0.673876
0.673866
0.673857
0.673847
0.673838
0.673829
0.673819
0.67381
0.673801
0.673792
0.673782
0.673773
0.673764
0.673755
0.673746
0.673737
0.673728
0.673719
0.67371
0.673701
0.673693
0.673684
0.673675
0.673667
0.673658
0.67365
0.673641
0.673633
0.673625
0.673616
0.673608
0.6736
0.673592
0.673584
0.673577
0.673569
0.673561
0.673554
0.673547
0.673539
0.673532
0.673525
0.673518
0.673511
0.673504
0.673498
0.673491
0.673485
0.673479
0.673473
0.673467
0.673461
0.673455
0.673449
0.673444
0.673439
0.673434
0.673429
0.673424
0.673419
0.673415
0.67341
0.673406
0.673402
0.673398
0.673394
0.673391
0.673387
0.673384
0.673381
0.673378
0.673375
0.673373
0.673371
0.673368
0.673366
0.673365
0.673363
0.673361
0.67336
0.673359
0.673358
0.673357
0.673357
0.673356
0.673356
0.673356
0.673356
0.673357
0.673357
0.673358
0.673359
0.67336
0.673361
0.673362
0.673364
0.673365
0.673367
0.673369
0.673372
0.673374
0.673376
0.673379
0.673382
0.673385
0.673388
0.673391
0.673395
0.673398
0.673402
0.673405
0.673409
0.673413
0.673417
0.673422
0.673426
0.67343
0.673435
0.673439
0.673444
0.673449
0.673453
0.673458
0.673463
0.673468
0.673473
0.673478
0.673483
0.673488
0.673494
0.673499
0.673504
0.673509
0.673514
0.673519
0.673524
0.673529
0.673535
0.67354
0.673545
0.67355
0.673554
0.673559
0.673564
0.673569
0.673574
0.673578
0.673583
0.673587
0.673592
0.673596
0.6736
0.673604
0.673608
0.673612
0.673616
0.67362
0.673623
0.673627
0.67363
0.673633
0.673637
0.67364
0.673643
0.673645
0.673648
0.673651
0.673653
0.673655
0.673658
0.67366
0.673662
0.673664
0.673665
0.673667
0.673668
0.67367
0.673671
0.673672
0.673673
0.673674
0.673675
0.673676
0.673676
0.673677
0.673677
0.673677
0.673678
0.673678
0.673678
0.673678
0.673677
0.673677
0.673677
0.673676
0.673676
0.673675
0.673674
0.673673
0.673673
0.673672
0.673671
0.67367
0.673668
0.673667
0.673666
0.673665
0.673663
0.673662
0.67366
0.673659
0.673657
0.673655
0.673654
0.673652
0.67365
0.673648
0.673646
0.673644
0.673642
0.67364
0.673638
0.673636
0.673634
0.673632
0.67363
0.673627
0.673625
0.673623
0.673621
0.673618
0.673616
0.673614
0.673611
0.673609
0.673607
0.673604
0.673602
0.6736
0.673597
0.673595
0.673592
0.67359
0.673587
0.673585
0.673582
0.67358
0.673577
0.673575
0.673572
0.67357
0.673567
0.673565
0.673562
0.67356
0.673557
0.673555
0.673553
0.67355
0.673548
0.673545
0.673543
0.67354
0.673538
0.673535
0.673533
0.67353
0.673528
0.673525
0.673523
0.67352
0.673518
0.673515
0.673513
0.67351
0.673508
0.673506
0.673503
0.673501
0.673498
0.673496
0.673493
0.673491
0.673489
0.673486
0.673484
0.673481
0.673479
0.673477
0.673474
0.673472
0.673469
0.673467
0.673465
0.673462
0.67346
0.673458
0.673455
0.673453
0.67345
0.673448
0.673446
0.673444
0.673441
0.673439
0.673437
0.673434
0.673432
0.67343
0.673427
0.673425
0.673423
0.673421
0.673418
0.673416
0.673414
0.673412
0.673409
0.673407
0.673405
0.673403
0.673401
0.673398
0.673396
0.673394
0.673392
0.67339
0.673388
0.673385
0.673383
0.673381
0.673379
0.673377
0.673375
0.673373
0.673371
0.673368
0.673366
0.673364
0.673362
0.67336
0.673358
0.673356
0.673354
0.673352
0.67335
0.673348
0.673346
0.673344
0.673342
0.67334
0.673338
0.673335
0.673333
0.673331
0.673329
0.673327
0.673325
0.673323
0.673321
0.673319
0.673317
0.673316
0.673314
0.673312
0.67331
0.673308
0.673306
0.673304
0.673302
0.6733
0.673298
0.673296
0.673294
0.673292
0.67329
0.673288
0.673287
0.673285
0.673283
0.673281
0.673279
0.673277
0.673275
0.673274
0.673272
0.67327
0.673268
0.673266
0.673264
0.673263
0.673261
0.673259
0.673257
0.673255
0.673254
0.673252
0.67325
0.673248
0.673247
0.673245
0.673243
0.673241
0.67324
0.673238
0.673236
0.673235
0.673233
0.673231
0.67323
0.673228
0.673226
0.673225
0.673223
0.673221
0.67322
0.673218
0.673216
0.673215
0.673213
0.673212
0.67321
0.673209
0.673207
0.673205
0.673204
0.673202
0.673201
0.673199
0.673198
0.673196
0.673195
0.673193
0.673192
0.673191
0.673189
0.673188
0.673186
0.673185
0.673184
0.673182
0.673181
0.673179
0.673178
0.673177
0.673176
0.673174
0.673173
0.673172
0.67317
0.673169
0.673168
0.673167
0.673166
0.673164
0.673163
0.673162
0.673161
0.67316
0.673159
0.673158
0.673157
0.673155
0.673154
0.673153
0.673152
0.673151
0.67315
0.673149
0.673148
0.673147
0.673147
0.673146
0.673145
0.673144
0.673143
0.673142
0.673141
0.67314
0.673139
0.673139
0.673138
0.673137
0.673136
0.673135
0.673135
0.673134
0.673133
0.673132
0.673132
0.673131
0.67313
0.673129
0.673129
0.673128
0.673127
0.673127
0.673126
0.673125
0.673125
0.673124
0.673123
0.673123
0.673122
0.673121
0.673121
0.67312
0.673119
0.673119
0.673118
0.673117
0.673117
0.673116
0.673115
0.673115
0.673114
0.673113
0.673113
0.673112
0.673112
0.673111
0.67311
0.67311
0.673109
0.673108
0.673108
0.673107
0.673106
0.673106
0.673105
0.673104
0.673104
0.673103
0.673102
0.673101
0.673101
0.6731
0.673099
0.673099
0.673098
0.673097
0.673096
0.673095
0.673095
0.673094
0.673093
0.673092
0.673091
0.673091
0.67309
0.673089
0.673088
0.673087
0.673086
0.673085
0.673084
0.673083
0.673082
0.673081
0.673081
0.67308
0.673079
0.673078
0.673077
0.673076
0.673075
0.673073
0.673072
0.673071
0.67307
0.673069
0.673068
0.673067
0.673066
0.673065
0.673064
0.673063
0.673061
0.67306
0.673059
0.673058
0.673057
0.673056
0.673054
0.673053
0.673052
0.673051
0.673049
0.673048
0.673047
0.673046
0.673044
0.673043
0.673042
0.673041
0.673039
0.673038
0.673037
0.673036
0.673034
0.673033
0.673032
0.67303
0.673029
0.673028
0.673026
0.673025
0.673024
)
;

boundaryField
{
    inlet
    {
        type            criticalFlowDepthInlet;
        criticalH       0.38;
        value           uniform 0.85752;
    }
    outlet
    {
        type            zeroGradient;
    }
    right
    {
        type            empty;
    }
    left
    {
        type            empty;
    }
    atmosphere
    {
        type            empty;
    }
    bottomWall
    {
        type            empty;
    }
}


// ************************************************************************* //
