/*--------------------------------*- C++ -*----------------------------------*\
| =========                 |                                                 |
| \\      /  F ield         | foam-extend: Open Source CFD                    |
|  \\    /   O peration     | Version:     3.1                                |
|   \\  /    A nd           | Web:         http://www.extend-project.de       |
|    \\/     M anipulation  |                                                 |
\*---------------------------------------------------------------------------*/
FoamFile
{
    version     2.0;
    format      ascii;
    class       volVectorField;
    location    "28";
    object      HU;
}
// * * * * * * * * * * * * * * * * * * * * * * * * * * * * * * * * * * * * * //

dimensions      [0 2 -1 0 0 0 0];

internalField   nonuniform List<vector> 
2539
(
(0.624831 0 0)
(0.624657 0 0)
(0.624663 0 0)
(0.624663 0 0)
(0.624662 0 0)
(0.624662 0 0)
(0.624661 0 0)
(0.624661 0 0)
(0.624661 0 0)
(0.62466 0 0)
(0.62466 0 0)
(0.624659 0 0)
(0.624659 0 0)
(0.624658 0 0)
(0.624658 0 0)
(0.624657 0 0)
(0.624657 0 0)
(0.624656 0 0)
(0.624656 0 0)
(0.624656 0 0)
(0.624655 0 0)
(0.624655 0 0)
(0.624654 0 0)
(0.624654 0 0)
(0.624653 0 0)
(0.624653 0 0)
(0.624652 0 0)
(0.624652 0 0)
(0.624651 0 0)
(0.624651 0 0)
(0.62465 0 0)
(0.62465 0 0)
(0.624649 0 0)
(0.624649 0 0)
(0.624648 0 0)
(0.624648 0 0)
(0.624647 0 0)
(0.624647 0 0)
(0.624646 0 0)
(0.624646 0 0)
(0.624645 0 0)
(0.624645 0 0)
(0.624644 0 0)
(0.624644 0 0)
(0.624643 0 0)
(0.624643 0 0)
(0.624642 0 0)
(0.624642 0 0)
(0.624641 0 0)
(0.624641 0 0)
(0.62464 0 0)
(0.62464 0 0)
(0.624639 0 0)
(0.624639 0 0)
(0.624638 0 0)
(0.624638 0 0)
(0.624637 0 0)
(0.624637 0 0)
(0.624636 0 0)
(0.624636 0 0)
(0.624635 0 0)
(0.624635 0 0)
(0.624634 0 0)
(0.624633 0 0)
(0.624633 0 0)
(0.624632 0 0)
(0.624632 0 0)
(0.624631 0 0)
(0.624631 0 0)
(0.62463 0 0)
(0.62463 0 0)
(0.624629 0 0)
(0.624628 0 0)
(0.624628 0 0)
(0.624627 0 0)
(0.624627 0 0)
(0.624626 0 0)
(0.624626 0 0)
(0.624625 0 0)
(0.624624 0 0)
(0.624624 0 0)
(0.624623 0 0)
(0.624623 0 0)
(0.624622 0 0)
(0.624622 0 0)
(0.624621 0 0)
(0.62462 0 0)
(0.62462 0 0)
(0.624619 0 0)
(0.624619 0 0)
(0.624618 0 0)
(0.624617 0 0)
(0.624617 0 0)
(0.624616 0 0)
(0.624615 0 0)
(0.624615 0 0)
(0.624614 0 0)
(0.624614 0 0)
(0.624613 0 0)
(0.624612 0 0)
(0.624612 0 0)
(0.624611 0 0)
(0.62461 0 0)
(0.62461 0 0)
(0.624609 0 0)
(0.624609 0 0)
(0.624608 0 0)
(0.624607 0 0)
(0.624607 0 0)
(0.624606 0 0)
(0.624605 0 0)
(0.624605 0 0)
(0.624604 0 0)
(0.624603 0 0)
(0.624603 0 0)
(0.624602 0 0)
(0.624601 0 0)
(0.624601 0 0)
(0.6246 0 0)
(0.624599 0 0)
(0.624599 0 0)
(0.624598 0 0)
(0.624597 0 0)
(0.624596 0 0)
(0.624596 0 0)
(0.624595 0 0)
(0.624594 0 0)
(0.624594 0 0)
(0.624593 0 0)
(0.624592 0 0)
(0.624591 0 0)
(0.624591 0 0)
(0.62459 0 0)
(0.624589 0 0)
(0.624589 0 0)
(0.624588 0 0)
(0.624587 0 0)
(0.624586 0 0)
(0.624586 0 0)
(0.624585 0 0)
(0.624584 0 0)
(0.624583 0 0)
(0.624583 0 0)
(0.624582 0 0)
(0.624581 0 0)
(0.62458 0 0)
(0.624579 0 0)
(0.624579 0 0)
(0.624578 0 0)
(0.624577 0 0)
(0.624576 0 0)
(0.624575 0 0)
(0.624575 0 0)
(0.624574 0 0)
(0.624573 0 0)
(0.624572 0 0)
(0.624571 0 0)
(0.624571 0 0)
(0.62457 0 0)
(0.624569 0 0)
(0.624568 0 0)
(0.624567 0 0)
(0.624566 0 0)
(0.624566 0 0)
(0.624565 0 0)
(0.624564 0 0)
(0.624563 0 0)
(0.624562 0 0)
(0.624561 0 0)
(0.62456 0 0)
(0.624559 0 0)
(0.624559 0 0)
(0.624558 0 0)
(0.624557 0 0)
(0.624556 0 0)
(0.624555 0 0)
(0.624554 0 0)
(0.624553 0 0)
(0.624552 0 0)
(0.624551 0 0)
(0.62455 0 0)
(0.624549 0 0)
(0.624548 0 0)
(0.624548 0 0)
(0.624337 0 0)
(0.624423 0 0)
(0.624844 0 0)
(0.624866 0 0)
(0.624867 0 0)
(0.624867 0 0)
(0.624867 0 0)
(0.624867 0 0)
(0.624867 0 0)
(0.624867 0 0)
(0.624867 0 0)
(0.624867 0 0)
(0.624866 0 0)
(0.624866 0 0)
(0.624866 0 0)
(0.624866 0 0)
(0.624866 0 0)
(0.624866 0 0)
(0.624866 0 0)
(0.624866 0 0)
(0.624866 0 0)
(0.624866 0 0)
(0.624866 0 0)
(0.624866 0 0)
(0.624865 0 0)
(0.624865 0 0)
(0.624865 0 0)
(0.624865 0 0)
(0.624865 0 0)
(0.624865 0 0)
(0.624865 0 0)
(0.624865 0 0)
(0.624865 0 0)
(0.624865 0 0)
(0.624865 0 0)
(0.624865 0 0)
(0.624864 0 0)
(0.624864 0 0)
(0.624864 0 0)
(0.624864 0 0)
(0.624864 0 0)
(0.624864 0 0)
(0.624864 0 0)
(0.624864 0 0)
(0.624864 0 0)
(0.624864 0 0)
(0.624864 0 0)
(0.624864 0 0)
(0.624863 0 0)
(0.624863 0 0)
(0.624863 0 0)
(0.624863 0 0)
(0.624863 0 0)
(0.624863 0 0)
(0.624863 0 0)
(0.624863 0 0)
(0.624863 0 0)
(0.624863 0 0)
(0.624863 0 0)
(0.624862 0 0)
(0.624862 0 0)
(0.624862 0 0)
(0.624862 0 0)
(0.624862 0 0)
(0.624862 0 0)
(0.624862 0 0)
(0.624862 0 0)
(0.624862 0 0)
(0.624862 0 0)
(0.624862 0 0)
(0.624861 0 0)
(0.624861 0 0)
(0.624861 0 0)
(0.624861 0 0)
(0.624861 0 0)
(0.624861 0 0)
(0.624861 0 0)
(0.624861 0 0)
(0.624861 0 0)
(0.624861 0 0)
(0.624861 0 0)
(0.62486 0 0)
(0.62486 0 0)
(0.62486 0 0)
(0.62486 0 0)
(0.62486 0 0)
(0.62486 0 0)
(0.62486 0 0)
(0.62486 0 0)
(0.62486 0 0)
(0.62486 0 0)
(0.624859 0 0)
(0.624859 0 0)
(0.624859 0 0)
(0.624859 0 0)
(0.624859 0 0)
(0.624859 0 0)
(0.624859 0 0)
(0.624859 0 0)
(0.624859 0 0)
(0.624859 0 0)
(0.624858 0 0)
(0.624858 0 0)
(0.624858 0 0)
(0.624858 0 0)
(0.624858 0 0)
(0.624858 0 0)
(0.624858 0 0)
(0.624858 0 0)
(0.624858 0 0)
(0.624858 0 0)
(0.624857 0 0)
(0.624857 0 0)
(0.624857 0 0)
(0.624857 0 0)
(0.624857 0 0)
(0.624857 0 0)
(0.624857 0 0)
(0.624857 0 0)
(0.624857 0 0)
(0.624857 0 0)
(0.624856 0 0)
(0.624856 0 0)
(0.624856 0 0)
(0.624856 0 0)
(0.624856 0 0)
(0.624856 0 0)
(0.624856 0 0)
(0.624856 0 0)
(0.624856 0 0)
(0.624856 0 0)
(0.624855 0 0)
(0.624855 0 0)
(0.624855 0 0)
(0.624855 0 0)
(0.624855 0 0)
(0.624855 0 0)
(0.624855 0 0)
(0.624855 0 0)
(0.624855 0 0)
(0.624855 0 0)
(0.624854 0 0)
(0.624854 0 0)
(0.624854 0 0)
(0.624854 0 0)
(0.624854 0 0)
(0.624854 0 0)
(0.624854 0 0)
(0.624854 0 0)
(0.624854 0 0)
(0.624853 0 0)
(0.624853 0 0)
(0.624853 0 0)
(0.624853 0 0)
(0.624853 0 0)
(0.624853 0 0)
(0.624853 0 0)
(0.624853 0 0)
(0.624853 0 0)
(0.624852 0 0)
(0.624852 0 0)
(0.624852 0 0)
(0.624852 0 0)
(0.624852 0 0)
(0.624852 0 0)
(0.624852 0 0)
(0.624852 0 0)
(0.624852 0 0)
(0.624851 0 0)
(0.624851 0 0)
(0.624851 0 0)
(0.624851 0 0)
(0.624851 0 0)
(0.624851 0 0)
(0.624851 0 0)
(0.624851 0 0)
(0.624851 0 0)
(0.62485 0 0)
(0.62485 0 0)
(0.62485 0 0)
(0.62485 0 0)
(0.62485 0 0)
(0.62485 0 0)
(0.62485 0 0)
(0.62485 0 0)
(0.624849 0 0)
(0.624849 0 0)
(0.624849 0 0)
(0.624849 0 0)
(0.624849 0 0)
(0.624849 0 0)
(0.624849 0 0)
(0.624849 0 0)
(0.624849 0 0)
(0.624848 0 0)
(0.624848 0 0)
(0.624848 0 0)
(0.624848 0 0)
(0.624854 0 0)
(0.624724 0 0)
(0.627349 0 0)
(0.59742 0 0)
(0.604913 0 0)
(0.612977 0 0)
(0.617568 0 0)
(0.619829 0 0)
(0.621024 0 0)
(0.621703 0 0)
(0.62212 0 0)
(0.622395 0 0)
(0.622589 0 0)
(0.622735 0 0)
(0.62285 0 0)
(0.622944 0 0)
(0.623023 0 0)
(0.623091 0 0)
(0.62315 0 0)
(0.623202 0 0)
(0.623249 0 0)
(0.623292 0 0)
(0.62333 0 0)
(0.623365 0 0)
(0.623397 0 0)
(0.623427 0 0)
(0.623455 0 0)
(0.62348 0 0)
(0.623504 0 0)
(0.623526 0 0)
(0.623547 0 0)
(0.623567 0 0)
(0.623585 0 0)
(0.623603 0 0)
(0.623619 0 0)
(0.623635 0 0)
(0.623649 0 0)
(0.623663 0 0)
(0.623677 0 0)
(0.623689 0 0)
(0.623701 0 0)
(0.623712 0 0)
(0.623723 0 0)
(0.623734 0 0)
(0.623743 0 0)
(0.623753 0 0)
(0.623762 0 0)
(0.62377 0 0)
(0.623779 0 0)
(0.623786 0 0)
(0.623794 0 0)
(0.623801 0 0)
(0.623808 0 0)
(0.623814 0 0)
(0.62382 0 0)
(0.623826 0 0)
(0.623831 0 0)
(0.623836 0 0)
(0.623841 0 0)
(0.623846 0 0)
(0.62385 0 0)
(0.623854 0 0)
(0.623858 0 0)
(0.623862 0 0)
(0.623865 0 0)
(0.623868 0 0)
(0.62387 0 0)
(0.623872 0 0)
(0.623874 0 0)
(0.623876 0 0)
(0.623877 0 0)
(0.623878 0 0)
(0.623878 0 0)
(0.623878 0 0)
(0.623878 0 0)
(0.623877 0 0)
(0.623875 0 0)
(0.623873 0 0)
(0.62387 0 0)
(0.623866 0 0)
(0.623862 0 0)
(0.623856 0 0)
(0.62385 0 0)
(0.623841 0 0)
(0.623832 0 0)
(0.62382 0 0)
(0.623807 0 0)
(0.62379 0 0)
(0.62377 0 0)
(0.623746 0 0)
(0.623716 0 0)
(0.62368 0 0)
(0.623635 0 0)
(0.623579 0 0)
(0.623508 0 0)
(0.623421 0 0)
(0.623311 0 0)
(0.623176 0 0)
(0.62301 0 0)
(0.622814 0 0)
(0.622589 0 0)
(0.622348 0 0)
(0.622117 0 0)
(0.621716 0 0)
(0.621962 0 0)
(0.622169 0 0)
(0.622345 0 0)
(0.622497 0 0)
(0.62263 0 0)
(0.622746 0 0)
(0.62285 0 0)
(0.622942 0 0)
(0.623026 0 0)
(0.623101 0 0)
(0.623169 0 0)
(0.623232 0 0)
(0.62329 0 0)
(0.623343 0 0)
(0.623392 0 0)
(0.623437 0 0)
(0.623479 0 0)
(0.623519 0 0)
(0.623556 0 0)
(0.623591 0 0)
(0.623623 0 0)
(0.623654 0 0)
(0.623683 0 0)
(0.623711 0 0)
(0.623737 0 0)
(0.623762 0 0)
(0.623785 0 0)
(0.623808 0 0)
(0.623829 0 0)
(0.62385 0 0)
(0.62387 0 0)
(0.623888 0 0)
(0.623906 0 0)
(0.623924 0 0)
(0.62394 0 0)
(0.623956 0 0)
(0.623972 0 0)
(0.623987 0 0)
(0.624001 0 0)
(0.624015 0 0)
(0.624028 0 0)
(0.624041 0 0)
(0.624053 0 0)
(0.624066 0 0)
(0.624077 0 0)
(0.624089 0 0)
(0.6241 0 0)
(0.62411 0 0)
(0.624121 0 0)
(0.624131 0 0)
(0.62414 0 0)
(0.62415 0 0)
(0.624159 0 0)
(0.624168 0 0)
(0.624177 0 0)
(0.624186 0 0)
(0.624194 0 0)
(0.624202 0 0)
(0.62421 0 0)
(0.624218 0 0)
(0.624225 0 0)
(0.624233 0 0)
(0.62424 0 0)
(0.624247 0 0)
(0.624254 0 0)
(0.624261 0 0)
(0.624267 0 0)
(0.624274 0 0)
(0.62428 0 0)
(0.624286 0 0)
(0.624292 0 0)
(0.624298 0 0)
(0.624304 0 0)
(0.62431 0 0)
(0.624315 0 0)
(0.624321 0 0)
(0.624326 0 0)
(0.624331 0 0)
(0.624337 0 0)
(0.624342 0 0)
(0.624347 0 0)
(0.624352 0 0)
(0.624356 0 0)
(0.624361 0 0)
(0.624366 0 0)
(0.62437 0 0)
(0.624375 0 0)
(0.624379 0 0)
(0.624384 0 0)
(0.624388 0 0)
(0.624393 0 0)
(0.624397 0 0)
(0.6244 0 0)
(0.624401 0 0)
(0.624401 0 0)
(0.624402 0 0)
(0.624419 0 0)
(0.624474 0 0)
(0.624569 0 0)
(0.624626 0 0)
(0.624627 0 0)
(0.624629 0 0)
(0.624631 0 0)
(0.624632 0 0)
(0.624634 0 0)
(0.624635 0 0)
(0.624637 0 0)
(0.624638 0 0)
(0.62464 0 0)
(0.624641 0 0)
(0.624643 0 0)
(0.624644 0 0)
(0.624646 0 0)
(0.624647 0 0)
(0.624649 0 0)
(0.62465 0 0)
(0.624651 0 0)
(0.624653 0 0)
(0.624654 0 0)
(0.624655 0 0)
(0.624657 0 0)
(0.624658 0 0)
(0.624659 0 0)
(0.624661 0 0)
(0.624662 0 0)
(0.624663 0 0)
(0.624665 0 0)
(0.624666 0 0)
(0.624667 0 0)
(0.624668 0 0)
(0.62467 0 0)
(0.624671 0 0)
(0.624672 0 0)
(0.624673 0 0)
(0.624674 0 0)
(0.624676 0 0)
(0.624677 0 0)
(0.624678 0 0)
(0.624679 0 0)
(0.62468 0 0)
(0.624681 0 0)
(0.624683 0 0)
(0.624684 0 0)
(0.624685 0 0)
(0.624686 0 0)
(0.624687 0 0)
(0.624688 0 0)
(0.624689 0 0)
(0.62469 0 0)
(0.624691 0 0)
(0.624692 0 0)
(0.624694 0 0)
(0.624695 0 0)
(0.624696 0 0)
(0.624697 0 0)
(0.624698 0 0)
(0.624699 0 0)
(0.6247 0 0)
(0.624701 0 0)
(0.624702 0 0)
(0.624703 0 0)
(0.624704 0 0)
(0.624705 0 0)
(0.624706 0 0)
(0.624707 0 0)
(0.624707 0 0)
(0.624708 0 0)
(0.624709 0 0)
(0.62471 0 0)
(0.624711 0 0)
(0.624712 0 0)
(0.624713 0 0)
(0.624714 0 0)
(0.624715 0 0)
(0.624716 0 0)
(0.624717 0 0)
(0.624718 0 0)
(0.624718 0 0)
(0.624719 0 0)
(0.62472 0 0)
(0.624721 0 0)
(0.624722 0 0)
(0.624723 0 0)
(0.624724 0 0)
(0.624724 0 0)
(0.624725 0 0)
(0.624726 0 0)
(0.624727 0 0)
(0.624728 0 0)
(0.624729 0 0)
(0.624729 0 0)
(0.62473 0 0)
(0.624731 0 0)
(0.624732 0 0)
(0.624733 0 0)
(0.624733 0 0)
(0.624734 0 0)
(0.624735 0 0)
(0.624736 0 0)
(0.624736 0 0)
(0.624737 0 0)
(0.624738 0 0)
(0.624739 0 0)
(0.624739 0 0)
(0.62474 0 0)
(0.624741 0 0)
(0.624742 0 0)
(0.624742 0 0)
(0.624743 0 0)
(0.624744 0 0)
(0.624745 0 0)
(0.624745 0 0)
(0.624746 0 0)
(0.624747 0 0)
(0.624747 0 0)
(0.624748 0 0)
(0.624749 0 0)
(0.62475 0 0)
(0.62475 0 0)
(0.624751 0 0)
(0.624752 0 0)
(0.624752 0 0)
(0.624753 0 0)
(0.624754 0 0)
(0.624754 0 0)
(0.624755 0 0)
(0.624756 0 0)
(0.624756 0 0)
(0.624757 0 0)
(0.624758 0 0)
(0.624758 0 0)
(0.624759 0 0)
(0.624759 0 0)
(0.62476 0 0)
(0.624761 0 0)
(0.624761 0 0)
(0.624762 0 0)
(0.624763 0 0)
(0.624763 0 0)
(0.624764 0 0)
(0.624764 0 0)
(0.624765 0 0)
(0.624766 0 0)
(0.624766 0 0)
(0.624767 0 0)
(0.624767 0 0)
(0.624768 0 0)
(0.624769 0 0)
(0.624769 0 0)
(0.62477 0 0)
(0.62477 0 0)
(0.624771 0 0)
(0.624772 0 0)
(0.624772 0 0)
(0.624773 0 0)
(0.624773 0 0)
(0.624774 0 0)
(0.624774 0 0)
(0.624775 0 0)
(0.624776 0 0)
(0.624776 0 0)
(0.624777 0 0)
(0.624777 0 0)
(0.624778 0 0)
(0.624778 0 0)
(0.624779 0 0)
(0.624779 0 0)
(0.62478 0 0)
(0.62478 0 0)
(0.624781 0 0)
(0.624782 0 0)
(0.624782 0 0)
(0.624783 0 0)
(0.624783 0 0)
(0.624784 0 0)
(0.624784 0 0)
(0.624785 0 0)
(0.624785 0 0)
(0.624786 0 0)
(0.624786 0 0)
(0.624787 0 0)
(0.624787 0 0)
(0.624788 0 0)
(0.624788 0 0)
(0.624789 0 0)
(0.624789 0 0)
(0.62479 0 0)
(0.62479 0 0)
(0.624791 0 0)
(0.624791 0 0)
(0.624792 0 0)
(0.624792 0 0)
(0.624793 0 0)
(0.624793 0 0)
(0.624794 0 0)
(0.624794 0 0)
(0.624794 0 0)
(0.624795 0 0)
(0.624795 0 0)
(0.624796 0 0)
(0.624796 0 0)
(0.624797 0 0)
(0.624797 0 0)
(0.624798 0 0)
(0.624798 0 0)
(0.624799 0 0)
(0.624799 0 0)
(0.6248 0 0)
(0.6248 0 0)
(0.6248 0 0)
(0.624801 0 0)
(0.624801 0 0)
(0.624802 0 0)
(0.624802 0 0)
(0.624803 0 0)
(0.624803 0 0)
(0.624803 0 0)
(0.624804 0 0)
(0.624804 0 0)
(0.624805 0 0)
(0.624805 0 0)
(0.624806 0 0)
(0.624806 0 0)
(0.624806 0 0)
(0.624807 0 0)
(0.624807 0 0)
(0.624808 0 0)
(0.624808 0 0)
(0.624809 0 0)
(0.624809 0 0)
(0.624809 0 0)
(0.62481 0 0)
(0.62481 0 0)
(0.624811 0 0)
(0.624811 0 0)
(0.624811 0 0)
(0.624812 0 0)
(0.624812 0 0)
(0.624813 0 0)
(0.624813 0 0)
(0.624813 0 0)
(0.624814 0 0)
(0.624814 0 0)
(0.624815 0 0)
(0.624815 0 0)
(0.624815 0 0)
(0.624816 0 0)
(0.624816 0 0)
(0.624817 0 0)
(0.624817 0 0)
(0.624817 0 0)
(0.624818 0 0)
(0.624818 0 0)
(0.624818 0 0)
(0.624819 0 0)
(0.624819 0 0)
(0.62482 0 0)
(0.62482 0 0)
(0.62482 0 0)
(0.624821 0 0)
(0.624821 0 0)
(0.624821 0 0)
(0.624822 0 0)
(0.624822 0 0)
(0.624822 0 0)
(0.624823 0 0)
(0.624823 0 0)
(0.624824 0 0)
(0.624824 0 0)
(0.624824 0 0)
(0.624825 0 0)
(0.624825 0 0)
(0.624825 0 0)
(0.624826 0 0)
(0.624826 0 0)
(0.624826 0 0)
(0.624827 0 0)
(0.624827 0 0)
(0.624827 0 0)
(0.624828 0 0)
(0.624828 0 0)
(0.624828 0 0)
(0.624829 0 0)
(0.624829 0 0)
(0.624829 0 0)
(0.62483 0 0)
(0.62483 0 0)
(0.62483 0 0)
(0.624831 0 0)
(0.624831 0 0)
(0.624831 0 0)
(0.624832 0 0)
(0.624832 0 0)
(0.624832 0 0)
(0.624833 0 0)
(0.624833 0 0)
(0.624833 0 0)
(0.624834 0 0)
(0.624834 0 0)
(0.624834 0 0)
(0.624835 0 0)
(0.624835 0 0)
(0.624835 0 0)
(0.624836 0 0)
(0.624836 0 0)
(0.624836 0 0)
(0.624837 0 0)
(0.624837 0 0)
(0.624837 0 0)
(0.624837 0 0)
(0.624838 0 0)
(0.624838 0 0)
(0.624838 0 0)
(0.624839 0 0)
(0.624839 0 0)
(0.624839 0 0)
(0.62484 0 0)
(0.62484 0 0)
(0.62484 0 0)
(0.624841 0 0)
(0.624841 0 0)
(0.624841 0 0)
(0.624841 0 0)
(0.624842 0 0)
(0.624842 0 0)
(0.624842 0 0)
(0.624843 0 0)
(0.624843 0 0)
(0.624843 0 0)
(0.624843 0 0)
(0.624844 0 0)
(0.624844 0 0)
(0.624844 0 0)
(0.624845 0 0)
(0.624845 0 0)
(0.624845 0 0)
(0.624845 0 0)
(0.624846 0 0)
(0.624846 0 0)
(0.624846 0 0)
(0.624847 0 0)
(0.624847 0 0)
(0.624847 0 0)
(0.624847 0 0)
(0.624848 0 0)
(0.624851 0 0)
(0.624854 0 0)
(0.624849 0 0)
(0.62482 0 0)
(0.624798 0 0)
(0.624798 0 0)
(0.624799 0 0)
(0.624799 0 0)
(0.6248 0 0)
(0.6248 0 0)
(0.6248 0 0)
(0.624801 0 0)
(0.624801 0 0)
(0.624802 0 0)
(0.624802 0 0)
(0.624803 0 0)
(0.624803 0 0)
(0.624803 0 0)
(0.624804 0 0)
(0.624804 0 0)
(0.624805 0 0)
(0.624805 0 0)
(0.624806 0 0)
(0.624806 0 0)
(0.624806 0 0)
(0.624807 0 0)
(0.624807 0 0)
(0.624808 0 0)
(0.624808 0 0)
(0.624808 0 0)
(0.624809 0 0)
(0.624809 0 0)
(0.62481 0 0)
(0.62481 0 0)
(0.62481 0 0)
(0.624811 0 0)
(0.624811 0 0)
(0.624812 0 0)
(0.624812 0 0)
(0.624812 0 0)
(0.624813 0 0)
(0.624813 0 0)
(0.624814 0 0)
(0.624814 0 0)
(0.624814 0 0)
(0.624815 0 0)
(0.624815 0 0)
(0.624816 0 0)
(0.624816 0 0)
(0.624816 0 0)
(0.624817 0 0)
(0.624817 0 0)
(0.624817 0 0)
(0.624818 0 0)
(0.624818 0 0)
(0.624818 0 0)
(0.624819 0 0)
(0.624819 0 0)
(0.62482 0 0)
(0.62482 0 0)
(0.62482 0 0)
(0.624821 0 0)
(0.624821 0 0)
(0.624821 0 0)
(0.624822 0 0)
(0.624822 0 0)
(0.624822 0 0)
(0.624823 0 0)
(0.624823 0 0)
(0.624824 0 0)
(0.624824 0 0)
(0.624824 0 0)
(0.624825 0 0)
(0.624825 0 0)
(0.624825 0 0)
(0.624826 0 0)
(0.624826 0 0)
(0.624826 0 0)
(0.624827 0 0)
(0.624827 0 0)
(0.624827 0 0)
(0.624828 0 0)
(0.624828 0 0)
(0.624828 0 0)
(0.624829 0 0)
(0.624829 0 0)
(0.624829 0 0)
(0.62483 0 0)
(0.62483 0 0)
(0.62483 0 0)
(0.624831 0 0)
(0.624831 0 0)
(0.624831 0 0)
(0.624832 0 0)
(0.624832 0 0)
(0.624832 0 0)
(0.624833 0 0)
(0.624833 0 0)
(0.624833 0 0)
(0.624834 0 0)
(0.624834 0 0)
(0.624834 0 0)
(0.624835 0 0)
(0.624835 0 0)
(0.624835 0 0)
(0.624836 0 0)
(0.624836 0 0)
(0.624836 0 0)
(0.624836 0 0)
(0.624837 0 0)
(0.624837 0 0)
(0.624837 0 0)
(0.624838 0 0)
(0.624838 0 0)
(0.624838 0 0)
(0.624839 0 0)
(0.624839 0 0)
(0.624839 0 0)
(0.624839 0 0)
(0.62484 0 0)
(0.62484 0 0)
(0.62484 0 0)
(0.624841 0 0)
(0.624841 0 0)
(0.624841 0 0)
(0.624842 0 0)
(0.624842 0 0)
(0.624842 0 0)
(0.624842 0 0)
(0.624843 0 0)
(0.624843 0 0)
(0.624843 0 0)
(0.624844 0 0)
(0.624844 0 0)
(0.624844 0 0)
(0.624844 0 0)
(0.624845 0 0)
(0.624845 0 0)
(0.624845 0 0)
(0.624846 0 0)
(0.624846 0 0)
(0.624846 0 0)
(0.624846 0 0)
(0.624847 0 0)
(0.624847 0 0)
(0.624847 0 0)
(0.624848 0 0)
(0.624848 0 0)
(0.624848 0 0)
(0.624848 0 0)
(0.624849 0 0)
(0.624849 0 0)
(0.624849 0 0)
(0.62485 0 0)
(0.62485 0 0)
(0.62485 0 0)
(0.62485 0 0)
(0.624851 0 0)
(0.624851 0 0)
(0.624851 0 0)
(0.624851 0 0)
(0.624852 0 0)
(0.624852 0 0)
(0.624852 0 0)
(0.624852 0 0)
(0.624853 0 0)
(0.624853 0 0)
(0.624853 0 0)
(0.624854 0 0)
(0.624854 0 0)
(0.624854 0 0)
(0.624854 0 0)
(0.624855 0 0)
(0.624855 0 0)
(0.624855 0 0)
(0.624856 0 0)
(0.624857 0 0)
(0.624859 0 0)
(0.624855 0 0)
(0.624838 0 0)
(0.624818 0 0)
(0.624853 0 0)
(0.625041 0 0)
(0.625287 0 0)
(0.625094 0 0)
(0.624954 0 0)
(0.624968 0 0)
(0.624971 0 0)
(0.624972 0 0)
(0.624981 0 0)
(0.624998 0 0)
(0.625012 0 0)
(0.625015 0 0)
(0.625016 0 0)
(0.625024 0 0)
(0.625038 0 0)
(0.62505 0 0)
(0.625055 0 0)
(0.625064 0 0)
(0.625073 0 0)
(0.625082 0 0)
(0.625095 0 0)
(0.6251 0 0)
(0.625109 0 0)
(0.625114 0 0)
(0.62512 0 0)
(0.625132 0 0)
(0.625144 0 0)
(0.625155 0 0)
(0.625164 0 0)
(0.62517 0 0)
(0.625176 0 0)
(0.625188 0 0)
(0.6252 0 0)
(0.62521 0 0)
(0.625217 0 0)
(0.625222 0 0)
(0.625231 0 0)
(0.625239 0 0)
(0.625247 0 0)
(0.625261 0 0)
(0.625272 0 0)
(0.625275 0 0)
(0.625287 0 0)
(0.625303 0 0)
(0.625311 0 0)
(0.625317 0 0)
(0.625327 0 0)
(0.625335 0 0)
(0.625342 0 0)
(0.625354 0 0)
(0.625364 0 0)
(0.625371 0 0)
(0.625378 0 0)
(0.625392 0 0)
(0.625405 0 0)
(0.625416 0 0)
(0.625425 0 0)
(0.625432 0 0)
(0.625442 0 0)
(0.62545 0 0)
(0.625458 0 0)
(0.625473 0 0)
(0.625487 0 0)
(0.6255 0 0)
(0.625508 0 0)
(0.625513 0 0)
(0.625521 0 0)
(0.62553 0 0)
(0.625545 0 0)
(0.62556 0 0)
(0.625573 0 0)
(0.625583 0 0)
(0.625592 0 0)
(0.625605 0 0)
(0.625616 0 0)
(0.625624 0 0)
(0.625637 0 0)
(0.625646 0 0)
(0.625657 0 0)
(0.625675 0 0)
(0.625694 0 0)
(0.62571 0 0)
(0.62572 0 0)
(0.625724 0 0)
(0.625728 0 0)
(0.625733 0 0)
(0.625738 0 0)
(0.625758 0 0)
(0.62581 0 0)
(0.62588 0 0)
(0.625933 0 0)
(0.625905 0 0)
(0.625741 0 0)
(0.625459 0 0)
(0.625247 0 0)
(0.625462 0 0)
(0.626432 0 0)
(0.628062 0 0)
(0.629379 0 0)
(0.62853 0 0)
(0.623686 0 0)
(0.614991 0 0)
(0.607115 0 0)
(0.610872 0 0)
(0.624862 0 0)
(0.624862 0 0)
(0.624863 0 0)
(0.624863 0 0)
(0.624863 0 0)
(0.624863 0 0)
(0.624864 0 0)
(0.624864 0 0)
(0.624864 0 0)
(0.624864 0 0)
(0.624865 0 0)
(0.624865 0 0)
(0.624865 0 0)
(0.624865 0 0)
(0.624865 0 0)
(0.624866 0 0)
(0.624866 0 0)
(0.624866 0 0)
(0.624866 0 0)
(0.624867 0 0)
(0.624867 0 0)
(0.624867 0 0)
(0.624867 0 0)
(0.624867 0 0)
(0.624868 0 0)
(0.624868 0 0)
(0.624868 0 0)
(0.624868 0 0)
(0.624869 0 0)
(0.624869 0 0)
(0.624869 0 0)
(0.624869 0 0)
(0.624869 0 0)
(0.62487 0 0)
(0.62487 0 0)
(0.62487 0 0)
(0.62487 0 0)
(0.624871 0 0)
(0.624871 0 0)
(0.624871 0 0)
(0.624871 0 0)
(0.624871 0 0)
(0.624872 0 0)
(0.624872 0 0)
(0.624872 0 0)
(0.624872 0 0)
(0.624873 0 0)
(0.624873 0 0)
(0.624873 0 0)
(0.624873 0 0)
(0.624873 0 0)
(0.624874 0 0)
(0.624874 0 0)
(0.624874 0 0)
(0.624874 0 0)
(0.624874 0 0)
(0.624875 0 0)
(0.624875 0 0)
(0.624875 0 0)
(0.624875 0 0)
(0.624875 0 0)
(0.624876 0 0)
(0.624876 0 0)
(0.624876 0 0)
(0.624876 0 0)
(0.624876 0 0)
(0.624877 0 0)
(0.624877 0 0)
(0.624877 0 0)
(0.624877 0 0)
(0.624877 0 0)
(0.624878 0 0)
(0.624878 0 0)
(0.624878 0 0)
(0.624878 0 0)
(0.624878 0 0)
(0.624879 0 0)
(0.624879 0 0)
(0.624879 0 0)
(0.624879 0 0)
(0.62488 0 0)
(0.62488 0 0)
(0.624881 0 0)
(0.624879 0 0)
(0.624873 0 0)
(0.624868 0 0)
(0.624888 0 0)
(0.62496 0 0)
(0.625012 0 0)
(0.625012 0 0)
(0.625012 0 0)
(0.625012 0 0)
(0.625012 0 0)
(0.625012 0 0)
(0.625012 0 0)
(0.625012 0 0)
(0.625012 0 0)
(0.625012 0 0)
(0.625012 0 0)
(0.625012 0 0)
(0.625012 0 0)
(0.625012 0 0)
(0.625012 0 0)
(0.625012 0 0)
(0.625012 0 0)
(0.625012 0 0)
(0.625012 0 0)
(0.625012 0 0)
(0.625012 0 0)
(0.625012 0 0)
(0.625012 0 0)
(0.625012 0 0)
(0.625012 0 0)
(0.625012 0 0)
(0.625012 0 0)
(0.625012 0 0)
(0.625012 0 0)
(0.625012 0 0)
(0.625012 0 0)
(0.625012 0 0)
(0.625012 0 0)
(0.625012 0 0)
(0.625012 0 0)
(0.625012 0 0)
(0.625012 0 0)
(0.625012 0 0)
(0.625012 0 0)
(0.625012 0 0)
(0.625012 0 0)
(0.625012 0 0)
(0.625012 0 0)
(0.625012 0 0)
(0.625012 0 0)
(0.625012 0 0)
(0.625012 0 0)
(0.625012 0 0)
(0.625012 0 0)
(0.625012 0 0)
(0.625012 0 0)
(0.625012 0 0)
(0.625012 0 0)
(0.625012 0 0)
(0.625012 0 0)
(0.625012 0 0)
(0.625012 0 0)
(0.625012 0 0)
(0.625012 0 0)
(0.625012 0 0)
(0.625012 0 0)
(0.625012 0 0)
(0.625012 0 0)
(0.625012 0 0)
(0.625012 0 0)
(0.625012 0 0)
(0.625012 0 0)
(0.625012 0 0)
(0.625012 0 0)
(0.625012 0 0)
(0.625012 0 0)
(0.625012 0 0)
(0.625012 0 0)
(0.625012 0 0)
(0.625012 0 0)
(0.625012 0 0)
(0.625012 0 0)
(0.625012 0 0)
(0.625012 0 0)
(0.625012 0 0)
(0.625012 0 0)
(0.625012 0 0)
(0.625012 0 0)
(0.625012 0 0)
(0.625012 0 0)
(0.625012 0 0)
(0.625012 0 0)
(0.625012 0 0)
(0.625012 0 0)
(0.625012 0 0)
(0.625012 0 0)
(0.625012 0 0)
(0.625012 0 0)
(0.625012 0 0)
(0.625012 0 0)
(0.625012 0 0)
(0.625012 0 0)
(0.625012 0 0)
(0.625012 0 0)
(0.625012 0 0)
(0.625012 0 0)
(0.625012 0 0)
(0.625012 0 0)
(0.625012 0 0)
(0.625012 0 0)
(0.625012 0 0)
(0.625012 0 0)
(0.625012 0 0)
(0.625012 0 0)
(0.625012 0 0)
(0.625012 0 0)
(0.625012 0 0)
(0.625012 0 0)
(0.625012 0 0)
(0.625012 0 0)
(0.625012 0 0)
(0.625012 0 0)
(0.625012 0 0)
(0.625012 0 0)
(0.625012 0 0)
(0.625012 0 0)
(0.625012 0 0)
(0.625012 0 0)
(0.625012 0 0)
(0.625012 0 0)
(0.625012 0 0)
(0.625012 0 0)
(0.625012 0 0)
(0.625012 0 0)
(0.625012 0 0)
(0.625012 0 0)
(0.625012 0 0)
(0.625012 0 0)
(0.625012 0 0)
(0.625012 0 0)
(0.625012 0 0)
(0.625012 0 0)
(0.625012 0 0)
(0.625012 0 0)
(0.625012 0 0)
(0.625012 0 0)
(0.625012 0 0)
(0.625012 0 0)
(0.625012 0 0)
(0.625012 0 0)
(0.625012 0 0)
(0.625012 0 0)
(0.625012 0 0)
(0.625012 0 0)
(0.625012 0 0)
(0.625012 0 0)
(0.625012 0 0)
(0.625012 0 0)
(0.625012 0 0)
(0.625012 0 0)
(0.625012 0 0)
(0.625012 0 0)
(0.625012 0 0)
(0.625012 0 0)
(0.625012 0 0)
(0.625012 0 0)
(0.625012 0 0)
(0.625012 0 0)
(0.625012 0 0)
(0.625012 0 0)
(0.625012 0 0)
(0.625012 0 0)
(0.625012 0 0)
(0.625012 0 0)
(0.625012 0 0)
(0.625012 0 0)
(0.625012 0 0)
(0.625012 0 0)
(0.625012 0 0)
(0.625012 0 0)
(0.625012 0 0)
(0.625012 0 0)
(0.625012 0 0)
(0.625012 0 0)
(0.625012 0 0)
(0.625012 0 0)
(0.625012 0 0)
(0.625012 0 0)
(0.625012 0 0)
(0.625012 0 0)
(0.625012 0 0)
(0.625012 0 0)
(0.625012 0 0)
(0.625012 0 0)
(0.625012 0 0)
(0.625012 0 0)
(0.625012 0 0)
(0.625012 0 0)
(0.625012 0 0)
(0.625012 0 0)
(0.625012 0 0)
(0.625012 0 0)
(0.625012 0 0)
(0.625012 0 0)
(0.625012 0 0)
(0.625012 0 0)
(0.625012 0 0)
(0.625012 0 0)
(0.625012 0 0)
(0.625012 0 0)
(0.625012 0 0)
(0.625012 0 0)
(0.625012 0 0)
(0.625012 0 0)
(0.625012 0 0)
(0.625012 0 0)
(0.625012 0 0)
(0.625012 0 0)
(0.625012 0 0)
(0.625012 0 0)
(0.625012 0 0)
(0.625012 0 0)
(0.625012 0 0)
(0.625012 0 0)
(0.625012 0 0)
(0.625012 0 0)
(0.625012 0 0)
(0.625012 0 0)
(0.625012 0 0)
(0.625012 0 0)
(0.625012 0 0)
(0.625012 0 0)
(0.625012 0 0)
(0.625012 0 0)
(0.625012 0 0)
(0.625012 0 0)
(0.625012 0 0)
(0.625012 0 0)
(0.625012 0 0)
(0.625012 0 0)
(0.625012 0 0)
(0.625012 0 0)
(0.625012 0 0)
(0.625012 0 0)
(0.625012 0 0)
(0.625012 0 0)
(0.625012 0 0)
(0.625012 0 0)
(0.625012 0 0)
(0.625012 0 0)
(0.625012 0 0)
(0.625012 0 0)
(0.625012 0 0)
(0.625011 0 0)
(0.625013 0 0)
(0.625017 0 0)
(0.62502 0 0)
(0.625005 0 0)
(0.624954 0 0)
(0.624911 0 0)
(0.625079 0 0)
(0.625706 0 0)
(0.62629 0 0)
(0.624363 0 0)
(0.616695 0 0)
(0.608848 0 0)
(0.631542 0 0)
(0.720656 0 0)
(0.815153 0 0)
(0.754335 0 0)
(0.620851 0 0)
(0.599338 0 0)
(0.599561 0 0)
(0.599549 0 0)
(0.599539 0 0)
(0.599529 0 0)
(0.59952 0 0)
(0.599511 0 0)
(0.599501 0 0)
(0.599492 0 0)
(0.599483 0 0)
(0.599473 0 0)
(0.599464 0 0)
(0.599455 0 0)
(0.599446 0 0)
(0.599437 0 0)
(0.599428 0 0)
(0.599419 0 0)
(0.59941 0 0)
(0.599401 0 0)
(0.599393 0 0)
(0.599384 0 0)
(0.599375 0 0)
(0.599366 0 0)
(0.599358 0 0)
(0.599349 0 0)
(0.59934 0 0)
(0.599332 0 0)
(0.599323 0 0)
(0.599314 0 0)
(0.599306 0 0)
(0.599297 0 0)
(0.599289 0 0)
(0.59928 0 0)
(0.599272 0 0)
(0.599257 0 0)
(0.599178 0 0)
(0.59911 0 0)
(0.599103 0 0)
(0.599094 0 0)
(0.599085 0 0)
(0.599076 0 0)
(0.599068 0 0)
(0.599059 0 0)
(0.59905 0 0)
(0.599041 0 0)
(0.599032 0 0)
(0.599023 0 0)
(0.599015 0 0)
(0.599006 0 0)
(0.598997 0 0)
(0.598988 0 0)
(0.598979 0 0)
(0.59897 0 0)
(0.598961 0 0)
(0.598952 0 0)
(0.598943 0 0)
(0.598934 0 0)
(0.598925 0 0)
(0.598916 0 0)
(0.598907 0 0)
(0.598898 0 0)
(0.598889 0 0)
(0.598881 0 0)
(0.598872 0 0)
(0.598863 0 0)
(0.598854 0 0)
(0.598845 0 0)
(0.598837 0 0)
(0.598828 0 0)
(0.598819 0 0)
(0.598811 0 0)
(0.598802 0 0)
(0.598794 0 0)
(0.598785 0 0)
(0.598777 0 0)
(0.598769 0 0)
(0.59876 0 0)
(0.598752 0 0)
(0.598744 0 0)
(0.598736 0 0)
(0.598728 0 0)
(0.59872 0 0)
(0.598712 0 0)
(0.598704 0 0)
(0.598696 0 0)
(0.598688 0 0)
(0.59868 0 0)
(0.598672 0 0)
(0.598665 0 0)
(0.598657 0 0)
(0.598649 0 0)
(0.598642 0 0)
(0.598634 0 0)
(0.598626 0 0)
(0.598619 0 0)
(0.598611 0 0)
(0.598603 0 0)
(0.598596 0 0)
(0.598588 0 0)
(0.598581 0 0)
(0.598573 0 0)
(0.598566 0 0)
(0.598558 0 0)
(0.598551 0 0)
(0.598543 0 0)
(0.598535 0 0)
(0.598528 0 0)
(0.59852 0 0)
(0.598513 0 0)
(0.598505 0 0)
(0.598497 0 0)
(0.59849 0 0)
(0.598482 0 0)
(0.598475 0 0)
(0.598467 0 0)
(0.598459 0 0)
(0.598452 0 0)
(0.598444 0 0)
(0.598436 0 0)
(0.598429 0 0)
(0.598421 0 0)
(0.598414 0 0)
(0.598406 0 0)
(0.598398 0 0)
(0.598391 0 0)
(0.598383 0 0)
(0.598376 0 0)
(0.598368 0 0)
(0.598361 0 0)
(0.598353 0 0)
(0.598346 0 0)
(0.598338 0 0)
(0.598331 0 0)
(0.598324 0 0)
(0.598316 0 0)
(0.598309 0 0)
(0.598302 0 0)
(0.598295 0 0)
(0.598288 0 0)
(0.598281 0 0)
(0.598274 0 0)
(0.598267 0 0)
(0.59826 0 0)
(0.598253 0 0)
(0.598247 0 0)
(0.59824 0 0)
(0.598233 0 0)
(0.598227 0 0)
(0.59822 0 0)
(0.598214 0 0)
(0.598207 0 0)
(0.598201 0 0)
(0.598195 0 0)
(0.598188 0 0)
(0.598182 0 0)
(0.598176 0 0)
(0.59817 0 0)
(0.598164 0 0)
(0.598158 0 0)
(0.598152 0 0)
(0.598146 0 0)
(0.59814 0 0)
(0.598134 0 0)
(0.598128 0 0)
(0.598122 0 0)
(0.598117 0 0)
(0.598111 0 0)
(0.598105 0 0)
(0.5981 0 0)
(0.598094 0 0)
(0.598088 0 0)
(0.598083 0 0)
(0.598077 0 0)
(0.598071 0 0)
(0.598066 0 0)
(0.59806 0 0)
(0.598055 0 0)
(0.598049 0 0)
(0.598043 0 0)
(0.598038 0 0)
(0.598032 0 0)
(0.598027 0 0)
(0.598021 0 0)
(0.598016 0 0)
(0.59801 0 0)
(0.598005 0 0)
(0.597999 0 0)
(0.597994 0 0)
(0.597989 0 0)
(0.597983 0 0)
(0.597978 0 0)
(0.597973 0 0)
(0.597967 0 0)
(0.597962 0 0)
(0.597957 0 0)
(0.597951 0 0)
(0.597946 0 0)
(0.597941 0 0)
(0.597936 0 0)
(0.597931 0 0)
(0.597926 0 0)
(0.597921 0 0)
(0.597916 0 0)
(0.597911 0 0)
(0.597907 0 0)
(0.597902 0 0)
(0.597897 0 0)
(0.597892 0 0)
(0.597888 0 0)
(0.597883 0 0)
(0.597879 0 0)
(0.597875 0 0)
(0.59787 0 0)
(0.597866 0 0)
(0.597862 0 0)
(0.597858 0 0)
(0.597854 0 0)
(0.59785 0 0)
(0.597846 0 0)
(0.597842 0 0)
(0.597838 0 0)
(0.597834 0 0)
(0.59783 0 0)
(0.597827 0 0)
(0.597823 0 0)
(0.59782 0 0)
(0.597816 0 0)
(0.597813 0 0)
(0.59781 0 0)
(0.597806 0 0)
(0.597803 0 0)
(0.5978 0 0)
(0.597797 0 0)
(0.597794 0 0)
(0.59779 0 0)
(0.597787 0 0)
(0.597784 0 0)
(0.597782 0 0)
(0.597779 0 0)
(0.597776 0 0)
(0.597773 0 0)
(0.59777 0 0)
(0.597768 0 0)
(0.597765 0 0)
(0.597762 0 0)
(0.59776 0 0)
(0.597757 0 0)
(0.597755 0 0)
(0.597752 0 0)
(0.59775 0 0)
(0.597747 0 0)
(0.597745 0 0)
(0.597743 0 0)
(0.59774 0 0)
(0.597738 0 0)
(0.597736 0 0)
(0.597734 0 0)
(0.597732 0 0)
(0.59773 0 0)
(0.597728 0 0)
(0.597726 0 0)
(0.597724 0 0)
(0.597722 0 0)
(0.597721 0 0)
(0.597719 0 0)
(0.597717 0 0)
(0.597716 0 0)
(0.597714 0 0)
(0.597713 0 0)
(0.597712 0 0)
(0.597711 0 0)
(0.59771 0 0)
(0.597708 0 0)
(0.597708 0 0)
(0.597707 0 0)
(0.597706 0 0)
(0.597705 0 0)
(0.597705 0 0)
(0.597704 0 0)
(0.597704 0 0)
(0.597703 0 0)
(0.597703 0 0)
(0.597703 0 0)
(0.597703 0 0)
(0.597703 0 0)
(0.597703 0 0)
(0.597703 0 0)
(0.597703 0 0)
(0.597704 0 0)
(0.597704 0 0)
(0.597705 0 0)
(0.597705 0 0)
(0.597706 0 0)
(0.597707 0 0)
(0.597708 0 0)
(0.597708 0 0)
(0.597709 0 0)
(0.597711 0 0)
(0.597712 0 0)
(0.597713 0 0)
(0.597714 0 0)
(0.597716 0 0)
(0.597717 0 0)
(0.597719 0 0)
(0.59772 0 0)
(0.597722 0 0)
(0.597723 0 0)
(0.597725 0 0)
(0.597727 0 0)
(0.597729 0 0)
(0.597731 0 0)
(0.597733 0 0)
(0.597735 0 0)
(0.597737 0 0)
(0.597739 0 0)
(0.597741 0 0)
(0.597743 0 0)
(0.597745 0 0)
(0.597748 0 0)
(0.59775 0 0)
(0.597753 0 0)
(0.597755 0 0)
(0.597757 0 0)
(0.59776 0 0)
(0.597763 0 0)
(0.597765 0 0)
(0.597768 0 0)
(0.597771 0 0)
(0.597773 0 0)
(0.597776 0 0)
(0.597779 0 0)
(0.597782 0 0)
(0.597785 0 0)
(0.597788 0 0)
(0.597791 0 0)
(0.597794 0 0)
(0.597797 0 0)
(0.5978 0 0)
(0.597803 0 0)
(0.597806 0 0)
(0.597809 0 0)
(0.597813 0 0)
(0.597816 0 0)
(0.597819 0 0)
(0.597823 0 0)
(0.597826 0 0)
(0.597829 0 0)
(0.597833 0 0)
(0.597836 0 0)
(0.59784 0 0)
(0.597843 0 0)
(0.597847 0 0)
(0.59785 0 0)
(0.597854 0 0)
(0.597857 0 0)
(0.597861 0 0)
(0.597864 0 0)
(0.597868 0 0)
(0.597871 0 0)
(0.597875 0 0)
(0.597878 0 0)
(0.597882 0 0)
(0.597885 0 0)
(0.597888 0 0)
(0.597892 0 0)
(0.597895 0 0)
(0.597898 0 0)
(0.597902 0 0)
(0.597905 0 0)
(0.597908 0 0)
(0.597911 0 0)
(0.597914 0 0)
(0.597917 0 0)
(0.59792 0 0)
(0.597922 0 0)
(0.597925 0 0)
(0.597928 0 0)
(0.59793 0 0)
(0.597933 0 0)
(0.597935 0 0)
(0.597937 0 0)
(0.597939 0 0)
(0.597941 0 0)
(0.597943 0 0)
(0.597945 0 0)
(0.597947 0 0)