/*--------------------------------*- C++ -*----------------------------------*\
| =========                 |                                                 |
| \\      /  F ield         | foam-extend: Open Source CFD                    |
|  \\    /   O peration     | Version:     3.1                                |
|   \\  /    A nd           | Web:         http://www.extend-project.de       |
|    \\/     M anipulation  |                                                 |
\*---------------------------------------------------------------------------*/
FoamFile
{
    version     2.0;
    format      ascii;
    class       volVectorField;
    location    "28";
    object      U;
}
// * * * * * * * * * * * * * * * * * * * * * * * * * * * * * * * * * * * * * //

dimensions      [0 1 -1 0 0 0 0];

internalField   nonuniform List<vector> 
2539
(
(0.728649 0 0)
(0.729043 0 0)
(0.729844 0 0)
(0.730631 0 0)
(0.73142 0 0)
(0.732211 0 0)
(0.733004 0 0)
(0.733798 0 0)
(0.734595 0 0)
(0.735393 0 0)
(0.736194 0 0)
(0.736996 0 0)
(0.737801 0 0)
(0.738607 0 0)
(0.739415 0 0)
(0.740225 0 0)
(0.741038 0 0)
(0.741852 0 0)
(0.742668 0 0)
(0.743486 0 0)
(0.744307 0 0)
(0.745129 0 0)
(0.745953 0 0)
(0.74678 0 0)
(0.747608 0 0)
(0.748438 0 0)
(0.749271 0 0)
(0.750105 0 0)
(0.750942 0 0)
(0.751781 0 0)
(0.752622 0 0)
(0.753465 0 0)
(0.75431 0 0)
(0.755157 0 0)
(0.756006 0 0)
(0.756858 0 0)
(0.757712 0 0)
(0.758567 0 0)
(0.759425 0 0)
(0.760286 0 0)
(0.761148 0 0)
(0.762013 0 0)
(0.762879 0 0)
(0.763748 0 0)
(0.76462 0 0)
(0.765493 0 0)
(0.766369 0 0)
(0.767247 0 0)
(0.768127 0 0)
(0.76901 0 0)
(0.769895 0 0)
(0.770782 0 0)
(0.771671 0 0)
(0.772563 0 0)
(0.773457 0 0)
(0.774354 0 0)
(0.775252 0 0)
(0.776154 0 0)
(0.777057 0 0)
(0.777963 0 0)
(0.778872 0 0)
(0.779782 0 0)
(0.780696 0 0)
(0.781611 0 0)
(0.782529 0 0)
(0.78345 0 0)
(0.784373 0 0)
(0.785298 0 0)
(0.786226 0 0)
(0.787157 0 0)
(0.78809 0 0)
(0.789025 0 0)
(0.789963 0 0)
(0.790904 0 0)
(0.791847 0 0)
(0.792793 0 0)
(0.793741 0 0)
(0.794692 0 0)
(0.795645 0 0)
(0.796601 0 0)
(0.79756 0 0)
(0.798522 0 0)
(0.799486 0 0)
(0.800452 0 0)
(0.801422 0 0)
(0.802394 0 0)
(0.803369 0 0)
(0.804346 0 0)
(0.805327 0 0)
(0.80631 0 0)
(0.807296 0 0)
(0.808284 0 0)
(0.809276 0 0)
(0.81027 0 0)
(0.811267 0 0)
(0.812267 0 0)
(0.813269 0 0)
(0.814275 0 0)
(0.815283 0 0)
(0.816295 0 0)
(0.817309 0 0)
(0.818326 0 0)
(0.819346 0 0)
(0.820369 0 0)
(0.821395 0 0)
(0.822424 0 0)
(0.823456 0 0)
(0.824491 0 0)
(0.825529 0 0)
(0.82657 0 0)
(0.827615 0 0)
(0.828662 0 0)
(0.829712 0 0)
(0.830766 0 0)
(0.831822 0 0)
(0.832882 0 0)
(0.833945 0 0)
(0.835011 0 0)
(0.83608 0 0)
(0.837152 0 0)
(0.838228 0 0)
(0.839307 0 0)
(0.840389 0 0)
(0.841474 0 0)
(0.842563 0 0)
(0.843655 0 0)
(0.844751 0 0)
(0.845849 0 0)
(0.846951 0 0)
(0.848057 0 0)
(0.849166 0 0)
(0.850278 0 0)
(0.851394 0 0)
(0.852513 0 0)
(0.853636 0 0)
(0.854762 0 0)
(0.855891 0 0)
(0.857025 0 0)
(0.858161 0 0)
(0.859302 0 0)
(0.860446 0 0)
(0.861593 0 0)
(0.862745 0 0)
(0.8639 0 0)
(0.865058 0 0)
(0.86622 0 0)
(0.867386 0 0)
(0.868556 0 0)
(0.86973 0 0)
(0.870907 0 0)
(0.872088 0 0)
(0.873273 0 0)
(0.874462 0 0)
(0.875655 0 0)
(0.876851 0 0)
(0.878052 0 0)
(0.879256 0 0)
(0.880465 0 0)
(0.881677 0 0)
(0.882894 0 0)
(0.884114 0 0)
(0.885339 0 0)
(0.886568 0 0)
(0.887801 0 0)
(0.889038 0 0)
(0.890279 0 0)
(0.891524 0 0)
(0.892774 0 0)
(0.894027 0 0)
(0.895286 0 0)
(0.896548 0 0)
(0.897815 0 0)
(0.899086 0 0)
(0.900361 0 0)
(0.901641 0 0)
(0.902925 0 0)
(0.904214 0 0)
(0.905508 0 0)
(0.906805 0 0)
(0.908108 0 0)
(0.909415 0 0)
(0.910726 0 0)
(0.912043 0 0)
(0.913364 0 0)
(0.914689 0 0)
(0.916634 0 0)
(0.918329 0 0)
(0.91879 0 0)
(0.919187 0 0)
(0.91958 0 0)
(0.919974 0 0)
(0.920368 0 0)
(0.920762 0 0)
(0.921157 0 0)
(0.921552 0 0)
(0.921948 0 0)
(0.922344 0 0)
(0.922741 0 0)
(0.923138 0 0)
(0.923535 0 0)
(0.923933 0 0)
(0.924331 0 0)
(0.92473 0 0)
(0.925129 0 0)
(0.925528 0 0)
(0.925928 0 0)
(0.926329 0 0)
(0.92673 0 0)
(0.927131 0 0)
(0.927533 0 0)
(0.927935 0 0)
(0.928337 0 0)
(0.928741 0 0)
(0.929144 0 0)
(0.929548 0 0)
(0.929952 0 0)
(0.930357 0 0)
(0.930762 0 0)
(0.931168 0 0)
(0.931574 0 0)
(0.931981 0 0)
(0.932388 0 0)
(0.932795 0 0)
(0.933203 0 0)
(0.933611 0 0)
(0.93402 0 0)
(0.934429 0 0)
(0.934839 0 0)
(0.935249 0 0)
(0.93566 0 0)
(0.936071 0 0)
(0.936482 0 0)
(0.936894 0 0)
(0.937307 0 0)
(0.93772 0 0)
(0.938133 0 0)
(0.938547 0 0)
(0.938961 0 0)
(0.939376 0 0)
(0.939791 0 0)
(0.940207 0 0)
(0.940623 0 0)
(0.941039 0 0)
(0.941456 0 0)
(0.941874 0 0)
(0.942292 0 0)
(0.94271 0 0)
(0.943129 0 0)
(0.943549 0 0)
(0.943968 0 0)
(0.944389 0 0)
(0.94481 0 0)
(0.945231 0 0)
(0.945653 0 0)
(0.946075 0 0)
(0.946498 0 0)
(0.946921 0 0)
(0.947345 0 0)
(0.947769 0 0)
(0.948193 0 0)
(0.948618 0 0)
(0.949044 0 0)
(0.94947 0 0)
(0.949897 0 0)
(0.950324 0 0)
(0.950751 0 0)
(0.951179 0 0)
(0.951608 0 0)
(0.952037 0 0)
(0.952467 0 0)
(0.952897 0 0)
(0.953327 0 0)
(0.953758 0 0)
(0.95419 0 0)
(0.954622 0 0)
(0.955054 0 0)
(0.955487 0 0)
(0.955921 0 0)
(0.956355 0 0)
(0.956789 0 0)
(0.957224 0 0)
(0.95766 0 0)
(0.958096 0 0)
(0.958532 0 0)
(0.958969 0 0)
(0.959407 0 0)
(0.959845 0 0)
(0.960284 0 0)
(0.960723 0 0)
(0.961162 0 0)
(0.961603 0 0)
(0.962043 0 0)
(0.962484 0 0)
(0.962926 0 0)
(0.963368 0 0)
(0.963811 0 0)
(0.964254 0 0)
(0.964698 0 0)
(0.965142 0 0)
(0.965587 0 0)
(0.966033 0 0)
(0.966478 0 0)
(0.966925 0 0)
(0.967372 0 0)
(0.967819 0 0)
(0.968267 0 0)
(0.968716 0 0)
(0.969165 0 0)
(0.969615 0 0)
(0.970065 0 0)
(0.970516 0 0)
(0.970967 0 0)
(0.971419 0 0)
(0.971871 0 0)
(0.972324 0 0)
(0.972777 0 0)
(0.973231 0 0)
(0.973686 0 0)
(0.974141 0 0)
(0.974597 0 0)
(0.975053 0 0)
(0.97551 0 0)
(0.975967 0 0)
(0.976425 0 0)
(0.976883 0 0)
(0.977342 0 0)
(0.977802 0 0)
(0.978262 0 0)
(0.978723 0 0)
(0.979184 0 0)
(0.979646 0 0)
(0.980108 0 0)
(0.980571 0 0)
(0.981034 0 0)
(0.981498 0 0)
(0.981963 0 0)
(0.982428 0 0)
(0.982894 0 0)
(0.983361 0 0)
(0.983827 0 0)
(0.984295 0 0)
(0.984763 0 0)
(0.985232 0 0)
(0.985701 0 0)
(0.986171 0 0)
(0.986641 0 0)
(0.987113 0 0)
(0.987584 0 0)
(0.988056 0 0)
(0.988529 0 0)
(0.989003 0 0)
(0.989477 0 0)
(0.989951 0 0)
(0.990427 0 0)
(0.990902 0 0)
(0.991379 0 0)
(0.991856 0 0)
(0.992333 0 0)
(0.992812 0 0)
(0.99329 0 0)
(0.99377 0 0)
(0.99425 0 0)
(0.994731 0 0)
(0.995212 0 0)
(0.995694 0 0)
(0.996176 0 0)
(0.996659 0 0)
(0.997143 0 0)
(0.997628 0 0)
(0.998113 0 0)
(0.998598 0 0)
(0.999084 0 0)
(0.999571 0 0)
(1.00006 0 0)
(1.00055 0 0)
(1.00104 0 0)
(1.00153 0 0)
(1.00202 0 0)
(1.00251 0 0)
(1.003 0 0)
(1.00349 0 0)
(1.00398 0 0)
(1.00448 0 0)
(1.00495 0 0)
(1.00584 0 0)
(0.998315 0 0)
(1.05607 0 0)
(1.12622 0 0)
(1.1704 0 0)
(1.19857 0 0)
(1.21858 0 0)
(1.23419 0 0)
(1.24728 0 0)
(1.25884 0 0)
(1.26938 0 0)
(1.27922 0 0)
(1.28853 0 0)
(1.29743 0 0)
(1.30601 0 0)
(1.3143 0 0)
(1.32236 0 0)
(1.33022 0 0)
(1.3379 0 0)
(1.34543 0 0)
(1.35281 0 0)
(1.36007 0 0)
(1.36721 0 0)
(1.37424 0 0)
(1.38118 0 0)
(1.38804 0 0)
(1.39481 0 0)
(1.40151 0 0)
(1.40814 0 0)
(1.41471 0 0)
(1.42122 0 0)
(1.42767 0 0)
(1.43408 0 0)
(1.44044 0 0)
(1.44675 0 0)
(1.45302 0 0)
(1.45926 0 0)
(1.46546 0 0)
(1.47163 0 0)
(1.47777 0 0)
(1.48387 0 0)
(1.48996 0 0)
(1.49601 0 0)
(1.50205 0 0)
(1.50806 0 0)
(1.51406 0 0)
(1.52003 0 0)
(1.52599 0 0)
(1.53194 0 0)
(1.53787 0 0)
(1.54379 0 0)
(1.5497 0 0)
(1.5556 0 0)
(1.5615 0 0)
(1.56738 0 0)
(1.57326 0 0)
(1.57914 0 0)
(1.58501 0 0)
(1.59089 0 0)
(1.59676 0 0)
(1.60263 0 0)
(1.60851 0 0)
(1.61439 0 0)
(1.62027 0 0)
(1.62616 0 0)
(1.63206 0 0)
(1.63797 0 0)
(1.64389 0 0)
(1.64982 0 0)
(1.65577 0 0)
(1.66173 0 0)
(1.66772 0 0)
(1.67372 0 0)
(1.67975 0 0)
(1.68581 0 0)
(1.6919 0 0)
(1.69802 0 0)
(1.70418 0 0)
(1.71038 0 0)
(1.71663 0 0)
(1.72294 0 0)
(1.7293 0 0)
(1.73573 0 0)
(1.74224 0 0)
(1.74884 0 0)
(1.75554 0 0)
(1.76236 0 0)
(1.76932 0 0)
(1.77644 0 0)
(1.78376 0 0)
(1.79132 0 0)
(1.79918 0 0)
(1.80739 0 0)
(1.81605 0 0)
(1.82526 0 0)
(1.83516 0 0)
(1.84591 0 0)
(1.85771 0 0)
(1.87076 0 0)
(1.88526 0 0)
(1.90134 0 0)
(1.94507 0 0)
(1.96563 0 0)
(1.98484 0 0)
(2.00292 0 0)
(2.02002 0 0)
(2.03627 0 0)
(2.05179 0 0)
(2.06665 0 0)
(2.08092 0 0)
(2.09468 0 0)
(2.10797 0 0)
(2.12083 0 0)
(2.1333 0 0)
(2.14541 0 0)
(2.1572 0 0)
(2.16868 0 0)
(2.17989 0 0)
(2.19083 0 0)
(2.20153 0 0)
(2.212 0 0)
(2.22225 0 0)
(2.23231 0 0)
(2.24218 0 0)
(2.25187 0 0)
(2.26139 0 0)
(2.27075 0 0)
(2.27996 0 0)
(2.28902 0 0)
(2.29795 0 0)
(2.30674 0 0)
(2.31541 0 0)
(2.32396 0 0)
(2.33239 0 0)
(2.34072 0 0)
(2.34893 0 0)
(2.35705 0 0)
(2.36507 0 0)
(2.37299 0 0)
(2.38083 0 0)
(2.38857 0 0)
(2.39623 0 0)
(2.40381 0 0)
(2.41132 0 0)
(2.41874 0 0)
(2.42609 0 0)
(2.43337 0 0)
(2.44058 0 0)
(2.44772 0 0)
(2.4548 0 0)
(2.46181 0 0)
(2.46876 0 0)
(2.47565 0 0)
(2.48249 0 0)
(2.48926 0 0)
(2.49598 0 0)
(2.50265 0 0)
(2.50926 0 0)
(2.51582 0 0)
(2.52233 0 0)
(2.5288 0 0)
(2.53521 0 0)
(2.54158 0 0)
(2.5479 0 0)
(2.55418 0 0)
(2.56042 0 0)
(2.56661 0 0)
(2.57276 0 0)
(2.57887 0 0)
(2.58494 0 0)
(2.59097 0 0)
(2.59696 0 0)
(2.60291 0 0)
(2.60883 0 0)
(2.61471 0 0)
(2.62056 0 0)
(2.62637 0 0)
(2.63215 0 0)
(2.63789 0 0)
(2.6436 0 0)
(2.64928 0 0)
(2.65492 0 0)
(2.66053 0 0)
(2.66612 0 0)
(2.67167 0 0)
(2.6772 0 0)
(2.68269 0 0)
(2.68816 0 0)
(2.69359 0 0)
(2.699 0 0)
(2.70439 0 0)
(2.70974 0 0)
(2.71507 0 0)
(2.72037 0 0)
(2.72564 0 0)
(2.73089 0 0)
(2.73615 0 0)
(2.74142 0 0)
(2.74668 0 0)
(2.75181 0 0)
(2.75646 0 0)
(2.76028 0 0)
(2.76361 0 0)
(2.76692 0 0)
(2.77023 0 0)
(2.77352 0 0)
(2.7768 0 0)
(2.78008 0 0)
(2.78334 0 0)
(2.7866 0 0)
(2.78984 0 0)
(2.79307 0 0)
(2.7963 0 0)
(2.79952 0 0)
(2.80272 0 0)
(2.80592 0 0)
(2.80911 0 0)
(2.81229 0 0)
(2.81546 0 0)
(2.81862 0 0)
(2.82177 0 0)
(2.82491 0 0)
(2.82805 0 0)
(2.83117 0 0)
(2.83429 0 0)
(2.8374 0 0)
(2.8405 0 0)
(2.84359 0 0)
(2.84667 0 0)
(2.84975 0 0)
(2.85281 0 0)
(2.85587 0 0)
(2.85892 0 0)
(2.86196 0 0)
(2.865 0 0)
(2.86803 0 0)
(2.87104 0 0)
(2.87405 0 0)
(2.87706 0 0)
(2.88005 0 0)
(2.88304 0 0)
(2.88602 0 0)
(2.88899 0 0)
(2.89196 0 0)
(2.89491 0 0)
(2.89786 0 0)
(2.90081 0 0)
(2.90374 0 0)
(2.90667 0 0)
(2.90959 0 0)
(2.9125 0 0)
(2.91541 0 0)
(2.91831 0 0)
(2.9212 0 0)
(2.92409 0 0)
(2.92697 0 0)
(2.92984 0 0)
(2.9327 0 0)
(2.93556 0 0)
(2.93841 0 0)
(2.94126 0 0)
(2.9441 0 0)
(2.94693 0 0)
(2.94975 0 0)
(2.95257 0 0)
(2.95538 0 0)
(2.95819 0 0)
(2.96099 0 0)
(2.96378 0 0)
(2.96657 0 0)
(2.96935 0 0)
(2.97212 0 0)
(2.97489 0 0)
(2.97765 0 0)
(2.98041 0 0)
(2.98316 0 0)
(2.9859 0 0)
(2.98864 0 0)
(2.99137 0 0)
(2.99409 0 0)
(2.99681 0 0)
(2.99953 0 0)
(3.00223 0 0)
(3.00494 0 0)
(3.00763 0 0)
(3.01032 0 0)
(3.01301 0 0)
(3.01568 0 0)
(3.01836 0 0)
(3.02103 0 0)
(3.02369 0 0)
(3.02634 0 0)
(3.02899 0 0)
(3.03164 0 0)
(3.03428 0 0)
(3.03691 0 0)
(3.03954 0 0)
(3.04217 0 0)
(3.04478 0 0)
(3.0474 0 0)
(3.05 0 0)
(3.05261 0 0)
(3.0552 0 0)
(3.0578 0 0)
(3.06038 0 0)
(3.06296 0 0)
(3.06554 0 0)
(3.06811 0 0)
(3.07068 0 0)
(3.07324 0 0)
(3.07579 0 0)
(3.07835 0 0)
(3.08089 0 0)
(3.08343 0 0)
(3.08597 0 0)
(3.0885 0 0)
(3.09103 0 0)
(3.09355 0 0)
(3.09606 0 0)
(3.09857 0 0)
(3.10108 0 0)
(3.10358 0 0)
(3.10608 0 0)
(3.10857 0 0)
(3.11106 0 0)
(3.11355 0 0)
(3.11602 0 0)
(3.1185 0 0)
(3.12097 0 0)
(3.12343 0 0)
(3.12589 0 0)
(3.12835 0 0)
(3.1308 0 0)
(3.13324 0 0)
(3.13569 0 0)
(3.13812 0 0)
(3.14056 0 0)
(3.14299 0 0)
(3.14541 0 0)
(3.14783 0 0)
(3.15025 0 0)
(3.15266 0 0)
(3.15506 0 0)
(3.15747 0 0)
(3.15986 0 0)
(3.16226 0 0)
(3.16465 0 0)
(3.16703 0 0)
(3.16941 0 0)
(3.17179 0 0)
(3.17416 0 0)
(3.17653 0 0)
(3.1789 0 0)
(3.18126 0 0)
(3.18361 0 0)
(3.18597 0 0)
(3.18831 0 0)
(3.19066 0 0)
(3.193 0 0)
(3.19533 0 0)
(3.19766 0 0)
(3.19999 0 0)
(3.20232 0 0)
(3.20464 0 0)
(3.20695 0 0)
(3.20926 0 0)
(3.21157 0 0)
(3.21388 0 0)
(3.21618 0 0)
(3.21847 0 0)
(3.22077 0 0)
(3.22305 0 0)
(3.22534 0 0)
(3.22762 0 0)
(3.2299 0 0)
(3.23217 0 0)
(3.23444 0 0)
(3.23671 0 0)
(3.23897 0 0)
(3.24123 0 0)
(3.24348 0 0)
(3.24573 0 0)
(3.24798 0 0)
(3.25022 0 0)
(3.25246 0 0)
(3.2547 0 0)
(3.25693 0 0)
(3.25916 0 0)
(3.26139 0 0)
(3.26361 0 0)
(3.26583 0 0)
(3.26804 0 0)
(3.27025 0 0)
(3.27246 0 0)
(3.27467 0 0)
(3.27687 0 0)
(3.27906 0 0)
(3.28126 0 0)
(3.28345 0 0)
(3.28564 0 0)
(3.28782 0 0)
(3.29 0 0)
(3.29218 0 0)
(3.29435 0 0)
(3.29652 0 0)
(3.29869 0 0)
(3.30085 0 0)
(3.30301 0 0)
(3.30516 0 0)
(3.30732 0 0)
(3.30947 0 0)
(3.31161 0 0)
(3.31376 0 0)
(3.3159 0 0)
(3.31803 0 0)
(3.32017 0 0)
(3.3223 0 0)
(3.32442 0 0)
(3.32655 0 0)
(3.32867 0 0)
(3.33078 0 0)
(3.3329 0 0)
(3.33501 0 0)
(3.33711 0 0)
(3.33922 0 0)
(3.34132 0 0)
(3.34342 0 0)
(3.34551 0 0)
(3.3476 0 0)
(3.34969 0 0)
(3.35178 0 0)
(3.35386 0 0)
(3.35594 0 0)
(3.35802 0 0)
(3.36009 0 0)
(3.36216 0 0)
(3.36423 0 0)
(3.36629 0 0)
(3.36835 0 0)
(3.37041 0 0)
(3.37246 0 0)
(3.37452 0 0)
(3.37656 0 0)
(3.37861 0 0)
(3.38065 0 0)
(3.38269 0 0)
(3.38473 0 0)
(3.38676 0 0)
(3.3888 0 0)
(3.39082 0 0)
(3.39285 0 0)
(3.39487 0 0)
(3.39689 0 0)
(3.39891 0 0)
(3.40092 0 0)
(3.40293 0 0)
(3.40494 0 0)
(3.40694 0 0)
(3.40895 0 0)
(3.41095 0 0)
(3.41294 0 0)
(3.41494 0 0)
(3.41693 0 0)
(3.41892 0 0)
(3.4209 0 0)
(3.42288 0 0)
(3.42486 0 0)
(3.42684 0 0)
(3.42881 0 0)
(3.43079 0 0)
(3.43276 0 0)
(3.43472 0 0)
(3.43668 0 0)
(3.43864 0 0)
(3.4406 0 0)
(3.44256 0 0)
(3.44451 0 0)
(3.44646 0 0)
(3.44841 0 0)
(3.45035 0 0)
(3.45229 0 0)
(3.45423 0 0)
(3.45617 0 0)
(3.4581 0 0)
(3.46003 0 0)
(3.46196 0 0)
(3.46389 0 0)
(3.46581 0 0)
(3.46773 0 0)
(3.46965 0 0)
(3.47156 0 0)
(3.47348 0 0)
(3.47539 0 0)
(3.47729 0 0)
(3.4792 0 0)
(3.4811 0 0)
(3.483 0 0)
(3.4849 0 0)
(3.48679 0 0)
(3.48869 0 0)
(3.49058 0 0)
(3.49246 0 0)
(3.49435 0 0)
(3.49623 0 0)
(3.49811 0 0)
(3.49999 0 0)
(3.50186 0 0)
(3.50373 0 0)
(3.5056 0 0)
(3.50747 0 0)
(3.50934 0 0)
(3.5112 0 0)
(3.51306 0 0)
(3.51492 0 0)
(3.51677 0 0)
(3.51862 0 0)
(3.52047 0 0)
(3.52232 0 0)
(3.52417 0 0)
(3.52601 0 0)
(3.52785 0 0)
(3.52969 0 0)
(3.53153 0 0)
(3.53336 0 0)
(3.53519 0 0)
(3.53702 0 0)
(3.53884 0 0)
(3.54067 0 0)
(3.54249 0 0)
(3.54431 0 0)
(3.54613 0 0)
(3.54794 0 0)
(3.54975 0 0)
(3.55156 0 0)
(3.55337 0 0)
(3.55518 0 0)
(3.55698 0 0)
(3.55878 0 0)
(3.56058 0 0)
(3.56237 0 0)
(3.56417 0 0)
(3.56596 0 0)
(3.56775 0 0)
(3.56954 0 0)
(3.57132 0 0)
(3.57311 0 0)
(3.57489 0 0)
(3.57667 0 0)
(3.57841 0 0)
(3.58011 0 0)
(3.58188 0 0)
(3.58398 0 0)
(3.58633 0 0)
(3.58869 0 0)
(3.59103 0 0)
(3.59338 0 0)
(3.59572 0 0)
(3.59806 0 0)
(3.60039 0 0)
(3.60272 0 0)
(3.60505 0 0)
(3.60737 0 0)
(3.60969 0 0)
(3.61201 0 0)
(3.61432 0 0)
(3.61663 0 0)
(3.61894 0 0)
(3.62125 0 0)
(3.62355 0 0)
(3.62584 0 0)
(3.62814 0 0)
(3.63043 0 0)
(3.63271 0 0)
(3.635 0 0)
(3.63728 0 0)
(3.63955 0 0)
(3.64183 0 0)
(3.6441 0 0)
(3.64637 0 0)
(3.64863 0 0)
(3.65089 0 0)
(3.65315 0 0)
(3.6554 0 0)
(3.65765 0 0)
(3.6599 0 0)
(3.66215 0 0)
(3.66439 0 0)
(3.66663 0 0)
(3.66886 0 0)
(3.67109 0 0)
(3.67332 0 0)
(3.67555 0 0)
(3.67777 0 0)
(3.67999 0 0)
(3.68221 0 0)
(3.68442 0 0)
(3.68663 0 0)
(3.68884 0 0)
(3.69104 0 0)
(3.69324 0 0)
(3.69544 0 0)
(3.69764 0 0)
(3.69983 0 0)
(3.70202 0 0)
(3.7042 0 0)
(3.70638 0 0)
(3.70856 0 0)
(3.71074 0 0)
(3.71292 0 0)
(3.71509 0 0)
(3.71725 0 0)
(3.71942 0 0)
(3.72158 0 0)
(3.72374 0 0)
(3.7259 0 0)
(3.72805 0 0)
(3.7302 0 0)
(3.73235 0 0)
(3.73449 0 0)
(3.73663 0 0)
(3.73877 0 0)
(3.74091 0 0)
(3.74304 0 0)
(3.74517 0 0)
(3.7473 0 0)
(3.74942 0 0)
(3.75154 0 0)
(3.75366 0 0)
(3.75577 0 0)
(3.75789 0 0)
(3.76 0 0)
(3.7621 0 0)
(3.76421 0 0)
(3.76631 0 0)
(3.76841 0 0)
(3.77051 0 0)
(3.7726 0 0)
(3.77469 0 0)
(3.77678 0 0)
(3.77886 0 0)
(3.78094 0 0)
(3.78302 0 0)
(3.7851 0 0)
(3.78717 0 0)
(3.78924 0 0)
(3.79131 0 0)
(3.79338 0 0)
(3.79544 0 0)
(3.7975 0 0)
(3.79956 0 0)
(3.80161 0 0)
(3.80367 0 0)
(3.80571 0 0)
(3.80776 0 0)
(3.80981 0 0)
(3.81185 0 0)
(3.81389 0 0)
(3.81592 0 0)
(3.81796 0 0)
(3.81999 0 0)
(3.82202 0 0)
(3.82404 0 0)
(3.82606 0 0)
(3.82808 0 0)
(3.8301 0 0)
(3.83212 0 0)
(3.83413 0 0)
(3.83614 0 0)
(3.83815 0 0)
(3.84015 0 0)
(3.84216 0 0)
(3.84416 0 0)
(3.84615 0 0)
(3.84815 0 0)
(3.85014 0 0)
(3.85213 0 0)
(3.85412 0 0)
(3.8561 0 0)
(3.85808 0 0)
(3.86006 0 0)
(3.86204 0 0)
(3.86401 0 0)
(3.86599 0 0)
(3.86796 0 0)
(3.86992 0 0)
(3.87189 0 0)
(3.87385 0 0)
(3.87581 0 0)
(3.87777 0 0)
(3.87972 0 0)
(3.88167 0 0)
(3.88362 0 0)
(3.88557 0 0)
(3.88752 0 0)
(3.88946 0 0)
(3.8914 0 0)
(3.89334 0 0)
(3.89527 0 0)
(3.8972 0 0)
(3.89913 0 0)
(3.90106 0 0)
(3.90299 0 0)
(3.90491 0 0)
(3.90683 0 0)
(3.90875 0 0)
(3.91067 0 0)
(3.91258 0 0)
(3.91449 0 0)
(3.9164 0 0)
(3.91831 0 0)
(3.92021 0 0)
(3.92211 0 0)
(3.92401 0 0)
(3.92591 0 0)
(3.92781 0 0)
(3.9297 0 0)
(3.93159 0 0)
(3.93348 0 0)
(3.93536 0 0)
(3.93725 0 0)
(3.93913 0 0)
(3.94101 0 0)
(3.94289 0 0)
(3.94476 0 0)
(3.94661 0 0)
(3.94844 0 0)
(3.95032 0 0)
(3.95241 0 0)
(3.95476 0 0)
(3.95667 0 0)
(3.9562 0 0)
(3.95356 0 0)
(3.95243 0 0)
(3.95306 0 0)
(3.95352 0 0)
(3.95393 0 0)
(3.95434 0 0)
(3.95463 0 0)
(3.95471 0 0)
(3.95461 0 0)
(3.95447 0 0)
(3.95432 0 0)
(3.95407 0 0)
(3.95363 0 0)
(3.95305 0 0)
(3.95241 0 0)
(3.95164 0 0)
(3.95077 0 0)
(3.94978 0 0)
(3.94864 0 0)
(3.94742 0 0)
(3.9461 0 0)
(3.94471 0 0)
(3.94324 0 0)
(3.94163 0 0)
(3.93987 0 0)
(3.93797 0 0)
(3.93595 0 0)
(3.93386 0 0)
(3.93169 0 0)
(3.92938 0 0)
(3.92691 0 0)
(3.92432 0 0)
(3.92165 0 0)
(3.91891 0 0)
(3.91606 0 0)
(3.91312 0 0)
(3.91007 0 0)
(3.90686 0 0)
(3.90352 0 0)
(3.90013 0 0)
(3.8966 0 0)
(3.89287 0 0)
(3.88905 0 0)
(3.88516 0 0)
(3.88115 0 0)
(3.87704 0 0)
(3.87285 0 0)
(3.86852 0 0)
(3.86407 0 0)
(3.85953 0 0)
(3.85491 0 0)
(3.85013 0 0)
(3.84519 0 0)
(3.84012 0 0)
(3.83495 0 0)
(3.82971 0 0)
(3.82434 0 0)
(3.81889 0 0)
(3.81335 0 0)
(3.80763 0 0)
(3.80175 0 0)
(3.79573 0 0)
(3.78961 0 0)
(3.78345 0 0)
(3.77719 0 0)
(3.77084 0 0)
(3.76432 0 0)
(3.75763 0 0)
(3.7508 0 0)
(3.74386 0 0)
(3.73682 0 0)
(3.72964 0 0)
(3.72235 0 0)
(3.71497 0 0)
(3.70746 0 0)
(3.69984 0 0)
(3.69212 0 0)
(3.6842 0 0)
(3.67608 0 0)
(3.66778 0 0)
(3.65939 0 0)
(3.65097 0 0)
(3.64252 0 0)
(3.63404 0 0)
(3.62551 0 0)
(3.61677 0 0)
(3.60745 0 0)
(3.59735 0 0)
(3.58667 0 0)
(3.57635 0 0)
(3.56792 0 0)
(3.56273 0 0)
(3.55996 0 0)
(3.55475 0 0)
(3.53854 0 0)
(3.50408 0 0)
(3.45537 0 0)
(3.41661 0 0)
(3.43105 0 0)
(3.54278 0 0)
(3.75156 0 0)
(4.02185 0 0)
(4.02367 0 0)
(4.0255 0 0)
(4.02732 0 0)
(4.02914 0 0)
(4.03096 0 0)
(4.03278 0 0)
(4.03459 0 0)
(4.0364 0 0)
(4.03821 0 0)
(4.04002 0 0)
(4.04182 0 0)
(4.04363 0 0)
(4.04543 0 0)
(4.04723 0 0)
(4.04902 0 0)
(4.05082 0 0)
(4.05261 0 0)
(4.0544 0 0)
(4.05619 0 0)
(4.05798 0 0)
(4.05976 0 0)
(4.06154 0 0)
(4.06332 0 0)
(4.0651 0 0)
(4.06688 0 0)
(4.06865 0 0)
(4.07042 0 0)
(4.07219 0 0)
(4.07396 0 0)
(4.07573 0 0)
(4.07749 0 0)
(4.07925 0 0)
(4.08101 0 0)
(4.08277 0 0)
(4.08452 0 0)
(4.08628 0 0)
(4.08803 0 0)
(4.08978 0 0)
(4.09153 0 0)
(4.09327 0 0)
(4.09501 0 0)
(4.09676 0 0)
(4.09849 0 0)
(4.10023 0 0)
(4.10197 0 0)
(4.1037 0 0)
(4.10543 0 0)
(4.10716 0 0)
(4.10889 0 0)
(4.11061 0 0)
(4.11234 0 0)
(4.11406 0 0)
(4.11578 0 0)
(4.11749 0 0)
(4.11921 0 0)
(4.12092 0 0)
(4.12263 0 0)
(4.12434 0 0)
(4.12605 0 0)
(4.12776 0 0)
(4.12946 0 0)
(4.13116 0 0)
(4.13286 0 0)
(4.13456 0 0)
(4.13626 0 0)
(4.13795 0 0)
(4.13964 0 0)
(4.14133 0 0)
(4.14302 0 0)
(4.14471 0 0)
(4.14639 0 0)
(4.14807 0 0)
(4.14976 0 0)
(4.15143 0 0)
(4.15311 0 0)
(4.15479 0 0)
(4.15646 0 0)
(4.15813 0 0)
(4.1598 0 0)
(4.16147 0 0)
(4.16313 0 0)
(4.16479 0 0)
(4.16644 0 0)
(4.16811 0 0)
(4.16986 0 0)
(4.17168 0 0)
(4.17324 0 0)
(4.17384 0 0)
(4.17374 0 0)
(4.17364 0 0)
(4.17355 0 0)
(4.17345 0 0)
(4.17336 0 0)
(4.17326 0 0)
(4.17317 0 0)
(4.17307 0 0)
(4.17298 0 0)
(4.17288 0 0)
(4.17279 0 0)
(4.17269 0 0)
(4.1726 0 0)
(4.1725 0 0)
(4.17241 0 0)
(4.17231 0 0)
(4.17222 0 0)
(4.17213 0 0)
(4.17203 0 0)
(4.17194 0 0)
(4.17184 0 0)
(4.17175 0 0)
(4.17165 0 0)
(4.17156 0 0)
(4.17147 0 0)
(4.17137 0 0)
(4.17128 0 0)
(4.17118 0 0)
(4.17109 0 0)
(4.171 0 0)
(4.1709 0 0)
(4.17081 0 0)
(4.17071 0 0)
(4.17062 0 0)
(4.17053 0 0)
(4.17043 0 0)
(4.17034 0 0)
(4.17025 0 0)
(4.17015 0 0)
(4.17006 0 0)
(4.16997 0 0)
(4.16987 0 0)
(4.16978 0 0)
(4.16969 0 0)
(4.16959 0 0)
(4.1695 0 0)
(4.16941 0 0)
(4.16932 0 0)
(4.16922 0 0)
(4.16913 0 0)
(4.16904 0 0)
(4.16894 0 0)
(4.16885 0 0)
(4.16876 0 0)
(4.16867 0 0)
(4.16857 0 0)
(4.16848 0 0)
(4.16839 0 0)
(4.1683 0 0)
(4.16821 0 0)
(4.16811 0 0)
(4.16802 0 0)
(4.16793 0 0)
(4.16784 0 0)
(4.16775 0 0)
(4.16765 0 0)
(4.16756 0 0)
(4.16747 0 0)
(4.16738 0 0)
(4.16729 0 0)
(4.16719 0 0)
(4.1671 0 0)
(4.16701 0 0)
(4.16692 0 0)
(4.16683 0 0)
(4.16674 0 0)
(4.16665 0 0)
(4.16656 0 0)
(4.16646 0 0)
(4.16637 0 0)
(4.16628 0 0)
(4.16619 0 0)
(4.1661 0 0)
(4.16601 0 0)
(4.16592 0 0)
(4.16583 0 0)
(4.16574 0 0)
(4.16565 0 0)
(4.16556 0 0)
(4.16546 0 0)
(4.16537 0 0)
(4.16528 0 0)
(4.16519 0 0)
(4.1651 0 0)
(4.16501 0 0)
(4.16492 0 0)
(4.16483 0 0)
(4.16474 0 0)
(4.16465 0 0)
(4.16456 0 0)
(4.16447 0 0)
(4.16438 0 0)
(4.16429 0 0)
(4.1642 0 0)
(4.16411 0 0)
(4.16402 0 0)
(4.16393 0 0)
(4.16384 0 0)
(4.16375 0 0)
(4.16366 0 0)
(4.16357 0 0)
(4.16349 0 0)
(4.1634 0 0)
(4.16331 0 0)
(4.16322 0 0)
(4.16313 0 0)
(4.16304 0 0)
(4.16295 0 0)
(4.16286 0 0)
(4.16277 0 0)
(4.16268 0 0)
(4.16259 0 0)
(4.16251 0 0)
(4.16242 0 0)
(4.16233 0 0)
(4.16224 0 0)
(4.16215 0 0)
(4.16206 0 0)
(4.16197 0 0)
(4.16188 0 0)
(4.1618 0 0)
(4.16171 0 0)
(4.16162 0 0)
(4.16153 0 0)
(4.16144 0 0)
(4.16136 0 0)
(4.16127 0 0)
(4.16118 0 0)
(4.16109 0 0)
(4.161 0 0)
(4.16092 0 0)
(4.16083 0 0)
(4.16074 0 0)
(4.16065 0 0)
(4.16056 0 0)
(4.16048 0 0)
(4.16039 0 0)
(4.1603 0 0)
(4.16021 0 0)
(4.16013 0 0)
(4.16004 0 0)
(4.15995 0 0)
(4.15986 0 0)
(4.15978 0 0)
(4.15969 0 0)
(4.1596 0 0)
(4.15952 0 0)
(4.15943 0 0)
(4.15934 0 0)
(4.15926 0 0)
(4.15917 0 0)
(4.15908 0 0)
(4.159 0 0)
(4.15891 0 0)
(4.15882 0 0)
(4.15874 0 0)
(4.15865 0 0)
(4.15856 0 0)
(4.15848 0 0)
(4.15839 0 0)
(4.1583 0 0)
(4.15822 0 0)
(4.15813 0 0)
(4.15804 0 0)
(4.15796 0 0)
(4.15787 0 0)
(4.15779 0 0)
(4.1577 0 0)
(4.15761 0 0)
(4.15753 0 0)
(4.15744 0 0)
(4.15736 0 0)
(4.15727 0 0)
(4.15719 0 0)
(4.1571 0 0)
(4.15701 0 0)
(4.15693 0 0)
(4.15684 0 0)
(4.15676 0 0)
(4.15667 0 0)
(4.15659 0 0)
(4.1565 0 0)
(4.15642 0 0)
(4.15633 0 0)
(4.15625 0 0)
(4.15616 0 0)
(4.15608 0 0)
(4.15599 0 0)
(4.15591 0 0)
(4.15582 0 0)
(4.15574 0 0)
(4.15565 0 0)
(4.15557 0 0)
(4.15548 0 0)
(4.1554 0 0)
(4.15531 0 0)
(4.15523 0 0)
(4.15514 0 0)
(4.15506 0 0)
(4.15498 0 0)
(4.15489 0 0)
(4.15481 0 0)
(4.15472 0 0)
(4.15464 0 0)
(4.15455 0 0)
(4.15447 0 0)
(4.15439 0 0)
(4.1543 0 0)
(4.15422 0 0)
(4.15413 0 0)
(4.15405 0 0)
(4.15397 0 0)
(4.15388 0 0)
(4.1538 0 0)
(4.15372 0 0)
(4.15363 0 0)
(4.15355 0 0)
(4.15347 0 0)
(4.15338 0 0)
(4.1533 0 0)
(4.15322 0 0)
(4.15313 0 0)
(4.15305 0 0)
(4.15297 0 0)
(4.15288 0 0)
(4.1528 0 0)
(4.15272 0 0)
(4.15263 0 0)
(4.15255 0 0)
(4.15247 0 0)
(4.15238 0 0)
(4.1523 0 0)
(4.15222 0 0)
(4.15214 0 0)
(4.15205 0 0)
(4.15197 0 0)
(4.15189 0 0)
(4.15181 0 0)
(4.15174 0 0)
(4.15165 0 0)
(4.1515 0 0)
(4.15131 0 0)
(4.15131 0 0)
(4.15202 0 0)
(4.15334 0 0)
(4.15237 0 0)
(4.14281 0 0)
(4.12516 0 0)
(4.13354 0 0)
(4.24822 0 0)
(4.4821 0 0)
(4.39178 0 0)
(3.19351 0 0)
(1.62126 0 0)
(0.968133 0 0)
(0.900718 0 0)
(0.90098 0 0)
(0.90055 0 0)
(0.900128 0 0)
(0.899707 0 0)
(0.899286 0 0)
(0.898866 0 0)
(0.898446 0 0)
(0.898027 0 0)
(0.897608 0 0)
(0.89719 0 0)
(0.896772 0 0)
(0.896355 0 0)
(0.895938 0 0)
(0.895522 0 0)
(0.895107 0 0)
(0.894692 0 0)
(0.894277 0 0)
(0.893863 0 0)
(0.89345 0 0)
(0.893037 0 0)
(0.892624 0 0)
(0.892212 0 0)
(0.891801 0 0)
(0.89139 0 0)
(0.890979 0 0)
(0.890569 0 0)
(0.890159 0 0)
(0.88975 0 0)
(0.889341 0 0)
(0.888933 0 0)
(0.888525 0 0)
(0.888118 0 0)
(0.887711 0 0)
(0.887301 0 0)
(0.886912 0 0)
(0.88673 0 0)
(0.886726 0 0)
(0.886716 0 0)
(0.886707 0 0)
(0.886697 0 0)
(0.886687 0 0)
(0.886678 0 0)
(0.886668 0 0)
(0.886658 0 0)
(0.886649 0 0)
(0.886639 0 0)
(0.886629 0 0)
(0.88662 0 0)
(0.88661 0 0)
(0.8866 0 0)
(0.886591 0 0)
(0.886581 0 0)
(0.886571 0 0)
(0.886562 0 0)
(0.886552 0 0)
(0.886542 0 0)
(0.886533 0 0)
(0.886523 0 0)
(0.886514 0 0)
(0.886504 0 0)
(0.886495 0 0)
(0.886485 0 0)
(0.886476 0 0)
(0.886467 0 0)
(0.886457 0 0)
(0.886448 0 0)
(0.886439 0 0)
(0.88643 0 0)
(0.886421 0 0)
(0.886412 0 0)
(0.886403 0 0)
(0.886394 0 0)
(0.886386 0 0)
(0.886377 0 0)
(0.886368 0 0)
(0.88636 0 0)
(0.886351 0 0)
(0.886343 0 0)
(0.886334 0 0)
(0.886326 0 0)
(0.886318 0 0)
(0.88631 0 0)
(0.886302 0 0)
(0.886294 0 0)
(0.886286 0 0)
(0.886278 0 0)
(0.88627 0 0)
(0.886262 0 0)
(0.886255 0 0)
(0.886247 0 0)
(0.88624 0 0)
(0.886232 0 0)
(0.886224 0 0)
(0.886217 0 0)
(0.88621 0 0)
(0.886202 0 0)
(0.886195 0 0)
(0.886187 0 0)
(0.88618 0 0)
(0.886173 0 0)
(0.886166 0 0)
(0.886158 0 0)
(0.886151 0 0)
(0.886144 0 0)
(0.886137 0 0)
(0.88613 0 0)
(0.886123 0 0)
(0.886116 0 0)
(0.886108 0 0)
(0.886101 0 0)
(0.886094 0 0)
(0.886087 0 0)
(0.88608 0 0)
(0.886073 0 0)
(0.886066 0 0)
(0.886059 0 0)
(0.886052 0 0)
(0.886045 0 0)
(0.886039 0 0)
(0.886032 0 0)
(0.886025 0 0)
(0.886018 0 0)
(0.886012 0 0)
(0.886005 0 0)
(0.885998 0 0)
(0.885992 0 0)
(0.885985 0 0)
(0.885979 0 0)
(0.885972 0 0)
(0.885966 0 0)
(0.88596 0 0)
(0.885954 0 0)
(0.885948 0 0)
(0.885942 0 0)
(0.885936 0 0)
(0.88593 0 0)
(0.885924 0 0)
(0.885918 0 0)
(0.885913 0 0)
(0.885907 0 0)
(0.885902 0 0)
(0.885897 0 0)
(0.885891 0 0)
(0.885886 0 0)
(0.885881 0 0)
(0.885876 0 0)
(0.885872 0 0)
(0.885867 0 0)
(0.885862 0 0)
(0.885858 0 0)
(0.885853 0 0)
(0.885849 0 0)
(0.885845 0 0)
(0.885841 0 0)
(0.885837 0 0)
(0.885833 0 0)
(0.885829 0 0)
(0.885825 0 0)
(0.885821 0 0)
(0.885818 0 0)
(0.885814 0 0)
(0.88581 0 0)
(0.885807 0 0)
(0.885804 0 0)
(0.8858 0 0)
(0.885797 0 0)
(0.885794 0 0)
(0.885791 0 0)
(0.885788 0 0)
(0.885785 0 0)
(0.885782 0 0)
(0.885779 0 0)
(0.885777 0 0)
(0.885774 0 0)
(0.885771 0 0)
(0.885769 0 0)
(0.885766 0 0)
(0.885763 0 0)
(0.885761 0 0)
(0.885759 0 0)
(0.885756 0 0)
(0.885754 0 0)
(0.885752 0 0)
(0.885749 0 0)
(0.885747 0 0)
(0.885745 0 0)
(0.885743 0 0)
(0.885741 0 0)
(0.885739 0 0)
(0.885738 0 0)
(0.885736 0 0)
(0.885734 0 0)
(0.885733 0 0)
(0.885731 0 0)
(0.88573 0 0)
(0.885728 0 0)
(0.885727 0 0)
(0.885726 0 0)
(0.885725 0 0)
(0.885724 0 0)
(0.885723 0 0)
(0.885722 0 0)
(0.885721 0 0)
(0.885721 0 0)
(0.88572 0 0)
(0.88572 0 0)
(0.88572 0 0)
(0.885719 0 0)
(0.885719 0 0)
(0.885719 0 0)
(0.88572 0 0)
(0.88572 0 0)
(0.88572 0 0)
(0.885721 0 0)
(0.885722 0 0)
(0.885722 0 0)
(0.885723 0 0)
(0.885724 0 0)
(0.885725 0 0)
(0.885727 0 0)
(0.885728 0 0)
(0.88573 0 0)
(0.885731 0 0)
(0.885733 0 0)
(0.885735 0 0)
(0.885737 0 0)
(0.885739 0 0)
(0.885741 0 0)
(0.885743 0 0)
(0.885746 0 0)
(0.885748 0 0)
(0.885751 0 0)
(0.885754 0 0)
(0.885757 0 0)
(0.88576 0 0)
(0.885763 0 0)
(0.885766 0 0)
(0.885769 0 0)
(0.885773 0 0)
(0.885776 0 0)
(0.88578 0 0)
(0.885784 0 0)
(0.885788 0 0)
(0.885792 0 0)
(0.885796 0 0)
(0.8858 0 0)
(0.885804 0 0)
(0.885809 0 0)
(0.885813 0 0)
(0.885818 0 0)
(0.885822 0 0)
(0.885827 0 0)
(0.885832 0 0)
(0.885837 0 0)
(0.885843 0 0)
(0.885848 0 0)
(0.885854 0 0)
(0.885859 0 0)
(0.885865 0 0)
(0.885871 0 0)
(0.885877 0 0)
(0.885883 0 0)
(0.885889 0 0)
(0.885896 0 0)
(0.885902 0 0)
(0.885909 0 0)
(0.885916 0 0)
(0.885923 0 0)
(0.885931 0 0)
(0.885938 0 0)
(0.885946 0 0)
(0.885953 0 0)
(0.885961 0 0)
(0.88597 0 0)
(0.885978 0 0)
(0.885986 0 0)
(0.885995 0 0)
(0.886004 0 0)
(0.886013 0 0)
(0.886022 0 0)
(0.886031 0 0)
(0.886041 0 0)
(0.886051 0 0)
(0.886061 0 0)
(0.886071 0 0)
(0.886081 0 0)
(0.886091 0 0)
(0.886102 0 0)
(0.886113 0 0)
(0.886124 0 0)
(0.886135 0 0)
(0.886146 0 0)
(0.886158 0 0)
(0.88617 0 0)
(0.886182 0 0)
(0.886194 0 0)
(0.886206 0 0)
(0.886218 0 0)
(0.886231 0 0)
(0.886243 0 0)
(0.886256 0 0)
(0.886269 0 0)
(0.886282 0 0)
(0.886296 0 0)
(0.886309 0 0)
(0.886323 0 0)
(0.886337 0 0)
(0.88635 0 0)
(0.886364 0 0)
(0.886379 0 0)
(0.886393 0 0)
(0.886407 0 0)
(0.886422 0 0)
(0.886437 0 0)
(0.886452 0 0)
(0.886466 0 0)
(0.886482 0 0)
(0.886497 0 0)
(0.886512 0 0)
(0.886527 0 0)
(0.886543 0 0)
(0.886559 0 0)
(0.886574 0 0)
(0.88659 0 0)
(0.886606 0 0)
(0.886622 0 0)
(0.886639 0 0)
(0.886655 0 0)
(0.886671 0 0)
(0.886688 0 0)
(0.886704 0 0)
(0.886721 0 0)
(0.886738 0 0)
(0.886755 0 0)
(0.886771 0 0)
(0.886789 0 0)
(0.886806 0 0)
(0.886823 0 0)
(0.88684 0 0)
(0.886857 0 0)
(0.886875 0 0)
(0.886892 0 0)
(0.88691 0 0)
(0.886927 0 0)
(0.886945 0 0)
(0.886962 0 0)
(0.88698 0 0)
(0.886998 0 0)
(0.887016 0 0)
(0.887033 0 0)
(0.887051 0 0)
(0.887069 0 0)
(0.887087 0 0)
(0.887104 0 0)
(0.887122 0 0)
(0.88714 0 0)
(0.887158 0 0)
(0.887175 0 0)
(0.887193 0 0)
(0.887211 0 0)
(0.887228 0 0)
(0.887246 0 0)
(0.887263 0 0)
(0.88728 0 0)
(0.887298 0 0)
(0.887315 0 0)
(0.887332 0 0)
(0.887349 0 0)
(0.887366 0 0)
(0.887382 0 0)
(0.887399 0 0)
(0.887415 0 0)
(0.887432 0 0)
(0.887448 0 0)
(0.887464 0 0)
(0.88748 0 0)
(0.887495 0 0)
(0.88751 0 0)
(0.887526 0 0)
(0.887541 0 0)
(0.887555 0 0)
(0.88757 0 0)
(0.887584 0 0)
(0.887598 0 0)
(0.887612 0 0)
(0.887625 0 0)
(0.887639 0 0)
(0.887651 0 0)
(0.887664 0 0)
(0.887676 0 0)
(0.887689 0 0)
(0.8877 0 0)
(0.887712 0 0)
(0.887723 0 0)
(0.887733 0 0)
(0.887744 0 0)
(0.887754 0 0)
(0.887763 0 0)
(0.887773 0 0)
(0.887782 0 0)
(0.88779 0 0)
(0.887798 0 0)
(0.887806 0 0)
(0.887813 0 0)
(0.88782 0 0)
(0.887826 0 0)
(0.887832 0 0)
(0.887838 0 0)
(0.887843 0 0)
(0.887847 0 0)
(0.887851 0 0)
(0.887855 0 0)
(0.887858 0 0)
(0.887861 0 0)
(0.887863 0 0)
(0.887864 0 0)
(0.887865 0 0)
(0.887866 0 0)
(0.887866 0 0)
(0.887865 0 0)
(0.887864 0 0)
(0.887862 0 0)
(0.887859 0 0)
(0.887856 0 0)
(0.887853 0 0)
(0.887849 0 0)
(0.887844 0 0)
(0.887838 0 0)
(0.887832 0 0)
(0.887825 0 0)
(0.887818 0 0)
(0.88781 0 0)
(0.887801 0 0)
(0.887792 0 0)
(0.887782 0 0)
(0.887771 0 0)
(0.887759 0 0)
(0.887747 0 0)
(0.887735 0 0)
(0.887721 0 0)
(0.887707 0 0)
(0.887692 0 0)
(0.887676 0 0)
(0.88766 0 0)
(0.887643 0 0)
(0.887625 0 0)
(0.887607 0 0)
(0.887588 0 0)
(0.887568 0 0)
(0.887548 0 0)
(0.887527 0 0)
(0.887505 0 0)
(0.887482 0 0)
(0.887459 0 0)
(0.887436 0 0)
(0.887411 0 0)
(0.887386 0 0)
(0.88736 0 0)
(0.887334 0 0)
(0.887307 0 0)
(0.88728 0 0)
(0.887251 0 0)
(0.887223 0 0)
(0.887194 0 0)
(0.887164 0 0)
(0.887133 0 0)