/*--------------------------------*- C++ -*----------------------------------*\
| =========                 |                                                 |
| \\      /  F ield         | foam-extend: Open Source CFD                    |
|  \\    /   O peration     | Version:     3.1                                |
|   \\  /    A nd           | Web:         http://www.extend-project.de       |
|    \\/     M anipulation  |                                                 |
\*---------------------------------------------------------------------------*/
FoamFile
{
    version     2.0;
    format      ascii;
    class       volScalarField;
    location    "20";
    object      alpha;
}
// * * * * * * * * * * * * * * * * * * * * * * * * * * * * * * * * * * * * * //

dimensions      [0 0 -1 0 0 0 0];

internalField   nonuniform List<scalar> 
2539
(
0.00548299
0.00549195
0.00550598
0.00551984
0.00553376
0.00554774
0.00556178
0.00557586
0.00559001
0.0056042
0.00561845
0.00563276
0.00564712
0.00566154
0.00567601
0.00569055
0.00570513
0.00571978
0.00573448
0.00574924
0.00576406
0.00577894
0.00579387
0.00580887
0.00582392
0.00583903
0.00585421
0.00586944
0.00588474
0.00590009
0.00591551
0.00593099
0.00594653
0.00596214
0.0059778
0.00599353
0.00600933
0.00602519
0.00604111
0.00605709
0.00607315
0.00608926
0.00610545
0.00612169
0.00613801
0.00615439
0.00617084
0.00618736
0.00620394
0.0062206
0.00623732
0.00625411
0.00627098
0.00628791
0.00630491
0.00632198
0.00633913
0.00635635
0.00637364
0.006391
0.00640843
0.00642594
0.00644352
0.00646118
0.00647891
0.00649672
0.0065146
0.00653256
0.00655059
0.00656871
0.0065869
0.00660517
0.00662351
0.00664194
0.00666045
0.00667903
0.0066977
0.00671644
0.00673527
0.00675418
0.00677318
0.00679225
0.00681141
0.00683066
0.00684999
0.0068694
0.0068889
0.00690849
0.00692816
0.00694792
0.00696777
0.00698771
0.00700773
0.00702785
0.00704805
0.00706835
0.00708874
0.00710922
0.00712979
0.00715045
0.00717121
0.00719207
0.00721302
0.00723406
0.0072552
0.00727644
0.00729777
0.00731921
0.00734074
0.00736237
0.0073841
0.00740593
0.00742787
0.0074499
0.00747204
0.00749428
0.00751663
0.00753908
0.00756164
0.0075843
0.00760707
0.00762995
0.00765294
0.00767604
0.00769924
0.00772256
0.00774599
0.00776953
0.00779319
0.00781696
0.00784084
0.00786484
0.00788895
0.00791319
0.00793754
0.00796201
0.0079866
0.00801131
0.00803614
0.0080611
0.00808617
0.00811138
0.0081367
0.00816216
0.00818774
0.00821344
0.00823928
0.00826525
0.00829134
0.00831757
0.00834393
0.00837043
0.00839706
0.00842382
0.00845072
0.00847776
0.00850494
0.00853225
0.00855971
0.00858731
0.00861506
0.00864294
0.00867097
0.00869915
0.00872748
0.00875595
0.00878458
0.00881335
0.00884228
0.00887136
0.00890059
0.00892998
0.00895953
0.00898923
0.0090191
0.00904912
0.00907931
0.00910966
0.00914017
0.00917085
0.0092017
0.00923272
0.0092639
0.00929526
0.00933096
0.00416693
0.00418118
0.00418588
0.00419009
0.00419428
0.00419847
0.00420267
0.00420688
0.00421109
0.00421531
0.00421954
0.00422377
0.00422801
0.00423226
0.00423651
0.00424077
0.00424504
0.00424932
0.0042536
0.00425789
0.00426219
0.00426649
0.00427081
0.00427512
0.00427945
0.00428378
0.00428812
0.00429247
0.00429683
0.00430119
0.00430556
0.00430993
0.00431432
0.00431871
0.00432311
0.00432751
0.00433193
0.00433635
0.00434078
0.00434521
0.00434965
0.0043541
0.00435856
0.00436303
0.0043675
0.00437198
0.00437647
0.00438097
0.00438547
0.00438998
0.0043945
0.00439903
0.00440356
0.0044081
0.00441265
0.00441721
0.00442178
0.00442635
0.00443093
0.00443552
0.00444011
0.00444472
0.00444933
0.00445395
0.00445858
0.00446322
0.00446786
0.00447251
0.00447717
0.00448184
0.00448652
0.0044912
0.0044959
0.0045006
0.0045053
0.00451002
0.00451475
0.00451948
0.00452422
0.00452897
0.00453373
0.0045385
0.00454327
0.00454806
0.00455285
0.00455765
0.00456246
0.00456727
0.0045721
0.00457693
0.00458177
0.00458663
0.00459149
0.00459635
0.00460123
0.00460612
0.00461101
0.00461591
0.00462082
0.00462574
0.00463067
0.00463561
0.00464056
0.00464551
0.00465048
0.00465545
0.00466043
0.00466542
0.00467042
0.00467543
0.00468045
0.00468547
0.00469051
0.00469556
0.00470061
0.00470567
0.00471074
0.00471583
0.00472092
0.00472602
0.00473112
0.00473624
0.00474137
0.00474651
0.00475165
0.00475681
0.00476197
0.00476715
0.00477233
0.00477753
0.00478273
0.00478794
0.00479316
0.00479839
0.00480364
0.00480889
0.00481415
0.00481942
0.0048247
0.00482999
0.00483529
0.00484059
0.00484591
0.00485124
0.00485658
0.00486193
0.00486729
0.00487266
0.00487804
0.00488342
0.00488882
0.00489423
0.00489965
0.00490508
0.00491052
0.00491597
0.00492143
0.0049269
0.00493238
0.00493787
0.00494337
0.00494888
0.0049544
0.00495994
0.00496548
0.00497103
0.00497659
0.00498217
0.00498775
0.00499335
0.00499896
0.00500457
0.0050102
0.00501584
0.00502149
0.00502715
0.00503282
0.0050385
0.00504419
0.0050499
0.00505561
0.00506134
0.00506707
0.00507282
0.00507858
0.00508435
0.00509013
0.00509592
0.00510173
0.00510754
0.00511337
0.00511921
0.00512506
0.00513092
0.00513679
0.00514267
0.00514857
0.00515442
0.00516153
0.00514341
0.00268787
0.00301427
0.00344091
0.00372689
0.00392044
0.00406436
0.00418078
0.00428119
0.00437173
0.0044558
0.00453536
0.00461163
0.00468537
0.00475711
0.00482722
0.00489597
0.00496357
0.00503019
0.00509598
0.00516103
0.00522545
0.00528932
0.00535271
0.00541568
0.00547829
0.00554059
0.00560261
0.00566441
0.00572601
0.00578744
0.00584874
0.00590994
0.00597106
0.00603211
0.00609314
0.00615415
0.00621517
0.00627621
0.00633729
0.00639843
0.00645965
0.00652095
0.00658236
0.00664389
0.00670555
0.00676736
0.00682932
0.00689146
0.00695379
0.00701631
0.00707904
0.007142
0.0072052
0.00726864
0.00733235
0.00739634
0.00746061
0.00752519
0.00759009
0.00765532
0.0077209
0.00778685
0.00785318
0.00791992
0.00798707
0.00805466
0.00812272
0.00819126
0.00826032
0.00832991
0.00840007
0.00847083
0.00854223
0.00861431
0.00868711
0.00876069
0.00883509
0.00891038
0.00898664
0.00906395
0.00914241
0.00922213
0.00930326
0.00938595
0.0094704
0.00955687
0.00964565
0.00973713
0.0098318
0.00993027
0.0100333
0.010142
0.0102577
0.0103819
0.0105168
0.010665
0.0108293
0.0110129
0.0112189
0.0114491
0.0120832
0.0123768
0.0126553
0.0129209
0.0131755
0.0134203
0.0136567
0.0138855
0.0141076
0.0143236
0.0145341
0.0147397
0.0149407
0.0151375
0.0153305
0.01552
0.0157062
0.0158893
0.0160695
0.0162472
0.0164223
0.016595
0.0167656
0.016934
0.0171005
0.0172652
0.017428
0.0175892
0.0177488
0.0179069
0.0180635
0.0182187
0.0183726
0.0185252
0.0186766
0.0188269
0.018976
0.019124
0.019271
0.0194171
0.0195621
0.0197062
0.0198494
0.0199918
0.0201333
0.020274
0.020414
0.0205531
0.0206915
0.0208293
0.0209663
0.0211026
0.0212384
0.0213734
0.0215079
0.0216417
0.021775
0.0219077
0.0220398
0.0221714
0.0223025
0.0224331
0.0225632
0.0226927
0.0228218
0.0229505
0.0230787
0.0232064
0.0233337
0.0234606
0.023587
0.0237131
0.0238388
0.023964
0.0240889
0.0242134
0.0243376
0.0244614
0.0245848
0.0247079
0.0248306
0.024953
0.0250751
0.0251969
0.0253183
0.0254395
0.0255603
0.0256809
0.0258011
0.0259211
0.0260407
0.0261601
0.0262791
0.0263979
0.0265167
0.0266359
0.0267557
0.0268747
0.0269887
0.0270899
0.0271743
0.0272506
0.0273268
0.0274029
0.0274789
0.0275548
0.0276305
0.0277062
0.0277817
0.0278571
0.0279325
0.0280077
0.0280828
0.0281578
0.0282327
0.0283075
0.0283822
0.0284568
0.0285313
0.0286057
0.0286801
0.0287543
0.0288284
0.0289024
0.0289763
0.0290501
0.0291239
0.0291975
0.0292711
0.0293445
0.0294179
0.0294912
0.0295644
0.0296375
0.0297105
0.0297834
0.0298562
0.029929
0.0300016
0.0300742
0.0301467
0.0302191
0.0302914
0.0303637
0.0304358
0.0305079
0.0305799
0.0306518
0.0307237
0.0307954
0.0308671
0.0309387
0.0310102
0.0310816
0.031153
0.0312243
0.0312955
0.0313666
0.0314377
0.0315087
0.0315796
0.0316504
0.0317212
0.0317919
0.0318625
0.031933
0.0320035
0.0320739
0.0321442
0.0322145
0.0322847
0.0323548
0.0324248
0.0324948
0.0325647
0.0326346
0.0327043
0.032774
0.0328437
0.0329132
0.0329827
0.0330522
0.0331216
0.0331909
0.0332601
0.0333293
0.0333984
0.0334674
0.0335364
0.0336053
0.0336742
0.033743
0.0338117
0.0338804
0.033949
0.0340175
0.034086
0.0341544
0.0342228
0.0342911
0.0343593
0.0344275
0.0344956
0.0345636
0.0346316
0.0346996
0.0347674
0.0348353
0.034903
0.0349707
0.0350384
0.0351059
0.0351735
0.0352409
0.0353084
0.0353757
0.035443
0.0355103
0.0355774
0.0356446
0.0357116
0.0357787
0.0358456
0.0359125
0.0359794
0.0360462
0.0361129
0.0361796
0.0362463
0.0363129
0.0363794
0.0364459
0.0365123
0.0365787
0.036645
0.0367112
0.0367774
0.0368436
0.0369097
0.0369758
0.0370418
0.0371077
0.0371736
0.0372395
0.0373053
0.037371
0.0374367
0.0375024
0.037568
0.0376335
0.037699
0.0377644
0.0378298
0.0378952
0.0379605
0.0380257
0.0380909
0.0381561
0.0382212
0.0382862
0.0383512
0.0384162
0.0384811
0.038546
0.0386108
0.0386755
0.0387402
0.0388049
0.0388695
0.0389341
0.0389986
0.0390631
0.0391275
0.0391919
0.0392563
0.0393206
0.0393848
0.039449
0.0395132
0.0395773
0.0396413
0.0397053
0.0397693
0.0398332
0.0398971
0.039961
0.0400247
0.0400885
0.0401522
0.0402158
0.0402795
0.040343
0.0404065
0.04047
0.0405335
0.0405968
0.0406602
0.0407235
0.0407867
0.04085
0.0409131
0.0409763
0.0410393
0.0411024
0.0411654
0.0412283
0.0412912
0.0413541
0.0414169
0.0414797
0.0415425
0.0416052
0.0416678
0.0417304
0.041793
0.0418555
0.041918
0.0419805
0.0420429
0.0421052
0.0421675
0.0422298
0.0422921
0.0423542
0.0424164
0.0424785
0.0425406
0.0426026
0.0426646
0.0427266
0.0427885
0.0428503
0.0429122
0.0429739
0.0430357
0.0430974
0.0431591
0.0432207
0.0432823
0.0433438
0.0434053
0.0434668
0.0435282
0.0435896
0.0436509
0.0437122
0.0437735
0.0438347
0.0438959
0.0439571
0.0440182
0.0440792
0.0441403
0.0442012
0.0442622
0.0443231
0.044384
0.0444448
0.0445056
0.0445664
0.0446271
0.0446878
0.0447484
0.044809
0.0448696
0.0449301
0.0449906
0.045051
0.0451114
0.0451718
0.0452321
0.0452924
0.0453527
0.0454129
0.0454731
0.0455333
0.0455934
0.0456534
0.0457135
0.0457735
0.0458334
0.0458933
0.0459532
0.0460131
0.0460729
0.0461326
0.0461924
0.0462521
0.0463117
0.0463714
0.0464309
0.0464905
0.04655
0.0466095
0.0466689
0.0467283
0.0467877
0.046847
0.0469063
0.0469656
0.0470248
0.047084
0.0471431
0.0472022
0.0472613
0.0473203
0.0473793
0.0474383
0.0474972
0.0475561
0.047615
0.0476738
0.0477326
0.0477913
0.0478501
0.0479087
0.0479674
0.048026
0.0480846
0.0481431
0.0482016
0.0482601
0.0483185
0.0483769
0.0484352
0.0484936
0.0485519
0.0486101
0.0486683
0.0487265
0.0487847
0.0488428
0.0489009
0.0489589
0.0490169
0.0490749
0.0491328
0.0491907
0.0492486
0.0493064
0.0493642
0.049422
0.0494797
0.0495374
0.0495952
0.049653
0.0497101
0.0497661
0.049822
0.0498825
0.0499532
0.0500297
0.0501062
0.0501827
0.0502591
0.0503355
0.0504118
0.0504881
0.0505643
0.0506405
0.0507166
0.0507927
0.0508687
0.0509447
0.0510207
0.0510966
0.0511724
0.0512482
0.051324
0.0513997
0.0514754
0.051551
0.0516266
0.0517021
0.0517776
0.0518531
0.0519285
0.0520038
0.0520791
0.0521544
0.0522296
0.0523048
0.0523799
0.052455
0.05253
0.052605
0.0526799
0.0527548
0.0528297
0.0529045
0.0529792
0.053054
0.0531286
0.0532033
0.0532778
0.0533524
0.0534269
0.0535013
0.0535757
0.0536501
0.0537244
0.0537987
0.0538729
0.0539471
0.0540212
0.0540953
0.0541694
0.0542434
0.0543174
0.0543913
0.0544652
0.054539
0.0546128
0.0546865
0.0547602
0.0548339
0.0549075
0.0549811
0.0550546
0.0551281
0.0552015
0.0552749
0.0553483
0.0554216
0.0554948
0.0555681
0.0556412
0.0557144
0.0557875
0.0558605
0.0559335
0.0560065
0.0560794
0.0561523
0.0562251
0.0562979
0.0563707
0.0564434
0.056516
0.0565886
0.0566612
0.0567338
0.0568063
0.0568787
0.0569511
0.0570235
0.0570958
0.0571681
0.0572403
0.0573125
0.0573847
0.0574568
0.0575288
0.0576009
0.0576728
0.0577448
0.0578167
0.0578885
0.0579603
0.0580321
0.0581039
0.0581755
0.0582472
0.0583188
0.0583903
0.0584619
0.0585333
0.0586048
0.0586762
0.0587475
0.0588188
0.0588901
0.0589613
0.0590325
0.0591037
0.0591748
0.0592458
0.0593168
0.0593878
0.0594588
0.0595297
0.0596005
0.0596713
0.0597421
0.0598128
0.0598835
0.0599542
0.0600248
0.0600953
0.0601658
0.0602363
0.0603068
0.0603772
0.0604475
0.0605178
0.0605881
0.0606583
0.0607285
0.0607987
0.0608688
0.0609389
0.0610089
0.0610789
0.0611488
0.0612187
0.0612886
0.0613584
0.0614282
0.061498
0.0615677
0.0616373
0.0617069
0.0617765
0.0618461
0.0619156
0.061985
0.0620544
0.0621238
0.0621931
0.0622625
0.0623318
0.0624011
0.06247
0.0625381
0.0626062
0.062678
0.0627582
0.0628407
0.0628861
0.0926505
0.0925448
0.0925102
0.092542
0.0925664
0.092589
0.0926095
0.0926222
0.0926237
0.0926175
0.0926095
0.0925995
0.092583
0.0925571
0.0925243
0.0924872
0.0924437
0.0923943
0.0923379
0.0922744
0.0922066
0.0921334
0.0920564
0.0919744
0.0918843
0.0917862
0.091681
0.0915704
0.0914558
0.0913359
0.091208
0.0910725
0.0909312
0.0907857
0.0906362
0.0904809
0.0903207
0.0901543
0.0899794
0.0897991
0.0896151
0.0894229
0.0892219
0.0890167
0.088807
0.0885916
0.0883719
0.088147
0.087915
0.0876778
0.0874365
0.0871899
0.0869353
0.0866732
0.0864052
0.0861328
0.0858564
0.0855746
0.0852888
0.0849976
0.084698
0.0843907
0.0840776
0.0837611
0.0834421
0.0831189
0.0827906
0.0824542
0.0821105
0.0817608
0.0814067
0.0810478
0.080683
0.0803139
0.0799408
0.0795624
0.07918
0.0787919
0.0783948
0.0779894
0.0775777
0.0771635
0.0767493
0.0763348
0.0759196
0.0755013
0.075069
0.0746074
0.0741124
0.0736045
0.0731368
0.0727792
0.0725653
0.0724007
0.0720042
0.0709937
0.0691971
0.067094
0.066029
0.0679431
0.0744874
0.0572649
0.0653535
0.0654227
0.0654919
0.065561
0.0656301
0.0656992
0.0657682
0.0658372
0.0659062
0.0659751
0.0660439
0.0661128
0.0661815
0.0662503
0.066319
0.0663876
0.0664563
0.0665249
0.0665934
0.0666619
0.0667304
0.0667988
0.0668672
0.0669355
0.0670038
0.0670721
0.0671403
0.0672085
0.0672766
0.0673447
0.0674128
0.0674808
0.0675488
0.0676167
0.0676846
0.0677525
0.0678203
0.0678881
0.0679558
0.0680235
0.0680912
0.0681588
0.0682264
0.068294
0.0683615
0.0684289
0.0684964
0.0685637
0.0686311
0.0686984
0.0687657
0.0688329
0.0689001
0.0689672
0.0690343
0.0691014
0.0691684
0.0692354
0.0693024
0.0693693
0.0694361
0.069503
0.0695698
0.0696365
0.0697032
0.0697699
0.0698365
0.0699031
0.0699697
0.0700362
0.0701027
0.0701691
0.0702355
0.0703019
0.0703682
0.0704345
0.0705007
0.0705669
0.0706331
0.0706992
0.0707653
0.0708312
0.0708968
0.0709626
0.0710299
0.0711003
0.0711697
0.0712207
0.0712366
0.0712328
0.071229
0.0712252
0.0712213
0.0712175
0.0712137
0.0712099
0.0712061
0.0712023
0.0711985
0.0711947
0.0711909
0.0711871
0.0711833
0.0711795
0.0711757
0.0711719
0.0711681
0.0711643
0.0711605
0.0711567
0.071153
0.0711492
0.0711454
0.0711416
0.0711379
0.0711341
0.0711303
0.0711266
0.0711228
0.071119
0.0711153
0.0711115
0.0711078
0.071104
0.0711003
0.0710965
0.0710928
0.0710891
0.0710853
0.0710816
0.0710778
0.0710741
0.0710704
0.0710667
0.0710629
0.0710592
0.0710555
0.0710518
0.0710481
0.0710443
0.0710406
0.0710369
0.0710332
0.0710295
0.0710258
0.0710221
0.0710184
0.0710147
0.071011
0.0710073
0.0710037
0.071
0.0709963
0.0709926
0.0709889
0.0709852
0.0709816
0.0709779
0.0709742
0.0709706
0.0709669
0.0709632
0.0709596
0.0709559
0.0709523
0.0709486
0.0709449
0.0709413
0.0709377
0.070934
0.0709304
0.0709267
0.0709231
0.0709194
0.0709158
0.0709122
0.0709086
0.0709049
0.0709013
0.0708977
0.0708941
0.0708904
0.0708868
0.0708832
0.0708796
0.070876
0.0708724
0.0708688
0.0708652
0.0708616
0.070858
0.0708544
0.0708508
0.0708472
0.0708436
0.07084
0.0708364
0.0708328
0.0708293
0.0708257
0.0708221
0.0708185
0.070815
0.0708114
0.0708078
0.0708042
0.0708007
0.0707971
0.0707936
0.07079
0.0707865
0.0707829
0.0707793
0.0707758
0.0707723
0.0707687
0.0707652
0.0707616
0.0707581
0.0707546
0.070751
0.0707475
0.070744
0.0707404
0.0707369
0.0707334
0.0707299
0.0707263
0.0707228
0.0707193
0.0707158
0.0707123
0.0707088
0.0707053
0.0707018
0.0706983
0.0706948
0.0706913
0.0706878
0.0706843
0.0706808
0.0706773
0.0706738
0.0706703
0.0706669
0.0706634
0.0706599
0.0706564
0.070653
0.0706495
0.070646
0.0706426
0.0706391
0.0706356
0.0706322
0.0706287
0.0706253
0.0706218
0.0706183
0.0706149
0.0706114
0.070608
0.0706046
0.0706011
0.0705977
0.0705942
0.0705908
0.0705874
0.0705839
0.0705805
0.0705771
0.0705737
0.0705702
0.0705668
0.0705634
0.07056
0.0705566
0.0705532
0.0705497
0.0705463
0.0705429
0.0705395
0.0705361
0.0705327
0.0705293
0.0705259
0.0705225
0.0705191
0.0705158
0.0705124
0.070509
0.0705056
0.0705022
0.0704988
0.0704955
0.0704921
0.0704887
0.0704853
0.070482
0.0704786
0.0704752
0.0704719
0.0704685
0.0704652
0.0704618
0.0704584
0.0704551
0.0704517
0.0704484
0.070445
0.0704417
0.0704384
0.070435
0.0704317
0.0704283
0.070425
0.0704217
0.0704183
0.070415
0.0704117
0.0704084
0.070405
0.0704017
0.0703984
0.0703951
0.0703918
0.0703885
0.0703852
0.0703818
0.0703785
0.0703752
0.0703719
0.0703686
0.0703653
0.070362
0.0703587
0.0703555
0.0703522
0.0703489
0.0703456
0.0703423
0.070339
0.0703357
0.0703325
0.0703292
0.0703259
0.0703226
0.0703194
0.0703161
0.0703128
0.0703096
0.0703063
0.0703031
0.0702998
0.0702965
0.0702933
0.07029
0.0702868
0.0702835
0.0702803
0.070277
0.0702738
0.0702707
0.0702677
0.0702644
0.0702594
0.0702525
0.0702502
0.0702681
0.0703098
0.0703018
0.0700523
0.0694975
0.0694793
0.0724051
0.0798401
0.0810145
0.0524827
0.0162159
0.00391528
0.00221381
0.00213716
0.0021354
0.00213288
0.00213037
0.00212786
0.00212536
0.00212286
0.00212039
0.00211834
0.00211741
0.0021172
0.00211698
0.00211677
0.00211655
0.00211634
0.00211613
0.00211592
0.00211571
0.0021155
0.0021153
0.0021151
0.0021149
0.0021147
0.00211451
0.00211432
0.00211413
0.00211394
0.00211376
0.00211358
0.0021134
0.00211322
0.00211305
0.00211288
0.00211272
0.00211255
0.0021124
0.00211224
0.00211209
0.00211194
0.00211179
0.00211165
0.00211151
0.00211138
0.00211125
0.00211112
0.002111
0.00211088
0.00211076
0.00211065
0.00211054
0.00211044
0.00211034
0.00211024
0.00211015
0.00211006
0.00210997
0.00210989
0.00210982
0.00210975
0.00210968
0.00210961
0.00210955
0.0021095
0.00210945
0.0021094
0.00210935
0.00210931
0.00210928
0.00210925
0.00210922
0.0021092
0.00210918
0.00210916
0.00210915
0.00210914
0.00210914
0.00210914
0.00210915
0.00210916
0.00210917
0.00210919
0.00210921
0.00210923
0.00210926
0.0021093
0.00210933
0.00210938
0.00210942
0.00210947
0.00210953
0.00210958
0.00210965
0.00210971
0.00210978
0.00210986
0.00210993
0.00211002
0.0021101
0.0021102
0.00211029
0.00211039
0.00211049
0.0021106
0.00211071
0.00211083
0.00211095
0.00211107
0.0021112
0.00211134
0.00211148
0.00211162
0.00211176
0.00211192
0.00211207
0.00211223
0.0021124
0.00211257
0.00211274
0.00211292
0.0021131
0.00211329
0.00211348
0.00211368
0.00211388
0.00211409
0.0021143
0.00211452
0.00211475
0.00211497
0.00211521
0.00211545
0.00211569
0.00211594
0.00211619
0.00211646
0.00211672
0.00211699
0.00211727
0.00211755
0.00211784
0.00211814
0.00211844
0.00211875
0.00211906
0.00211938
0.00211971
0.00212004
0.00212038
0.00212073
0.00212108
0.00212144
0.00212181
0.00212219
0.00212257
0.00212296
0.00212336
0.00212376
0.00212418
0.0021246
0.00212503
0.00212547
0.00212591
0.00212637
0.00212683
0.0021273
0.00212779
0.00212828
0.00212878
0.00212929
0.00212981
0.00213034
0.00213088
0.00213143
0.00213199
0.00213256
0.00213314
0.00213374
0.00213434
0.00213496
0.00213559
0.00213623
0.00213688
0.00213755
0.00213823
0.00213892
0.00213962
0.00214034
0.00214107
0.00214182
0.00214258
0.00214335
0.00214414
0.00214494
0.00214575
0.00214659
0.00214743
0.00214829
0.00214917
0.00215007
0.00215098
0.0021519
0.00215284
0.0021538
0.00215478
0.00215577
0.00215678
0.00215781
0.00215885
0.00215991
0.00216099
0.00216208
0.0021632
0.00216433
0.00216548
0.00216665
0.00216783
0.00216904
0.00217026
0.0021715
0.00217275
0.00217403
0.00217532
0.00217664
0.00217796
0.00217931
0.00218068
0.00218206
0.00218346
0.00218488
0.00218631
0.00218776
0.00218923
0.00219072
0.00219222
0.00219373
0.00219527
0.00219682
0.00219838
0.00219996
0.00220156
0.00220316
0.00220479
0.00220642
0.00220807
0.00220973
0.00221141
0.0022131
0.0022148
0.0022165
0.00221822
0.00221996
0.0022217
0.00222344
0.0022252
0.00222697
0.00222874
0.00223052
0.0022323
0.0022341
0.00223589
0.00223769
0.0022395
0.0022413
0.00224311
0.00224492
0.00224673
0.00224854
0.00225035
0.00225216
0.00225397
0.00225577
0.00225757
0.00225937
0.00226116
0.00226294
0.00226471
0.00226648
0.00226824
0.00226999
0.00227173
0.00227346
0.00227517
0.00227687
0.00227856
0.00228023
0.00228189
0.00228353
0.00228515
0.00228675
0.00228834
0.0022899
0.00229144
0.00229296
0.00229445
0.00229592
0.00229736
0.00229878
0.00230017
0.00230153
0.00230287
0.00230417
0.00230544
0.00230668
0.00230788
0.00230905
0.00231018
0.00231128
0.00231234
0.00231337
0.00231435
0.0023153
0.0023162
0.00231706
0.00231788
0.00231865
0.00231938
0.00232006
0.0023207
0.00232129
0.00232183
0.00232232
0.00232276
0.00232315
0.00232348
0.00232377
0.00232399
0.00232417
0.00232429
0.00232435
0.00232436
0.0023243
0.00232419
0.00232402
0.00232379
0.00232349
0.00232314
0.00232272
0.00232224
0.0023217
0.00232109
0.00232041
0.00231967
0.00231887
0.002318
0.00231706
0.00231606
0.00231499
0.00231386
0.00231266
0.00231139
0.00231006
0.00230866
0.00230719
0.00230567
0.00230407
0.00230242
0.00230071
0.00229893
0.0022971
0.00229521
0.00229326
0.00229126
0.00228921
0.00228711
0.00228496
0.00228277
0.00228054
0.00227827
0.00227596
0.00227362
0.00227125
0.00226885
0.00226644
0.002264
0.00226155
0.00225908
0.00225661
0.00225413
0.00225166
0.00224919
0.00224672
0.00224427
0.00224183
0.0022394
0.002237
0.00223463
0.00223228
0.00222996
0.00222768
0.00222544
0.00222323
0.00222106
0.00221894
0.00221687
0.00221484
0.00221286
0.00221093
0.00220905
0.00220723
0.00220546
0.00220374
0.00220208
0.00220047
0.00219892
0.00219742
0.00219598
0.00219459
0.00219326
0.00219197
0.00219074
0.00218956
0.00218843
0.00218735
0.00218632
0.00218533
0.00218439
0.0021835
0.00218264
0.00218183
0.00218106
0.00218033
0.00217963
0.00217897
0.00217835
0.00217776
0.0021772
0.00217667
0.00217617
0.0021757
0.00217525
0.00217483
0.00217443
0.00217405
0.0021737
0.00217337
0.00217305
0.00217276
0.00217248
0.00217221
0.00217197
0.00217173
0.00217151
0.0021713
0.0021711
0.00217092
0.00217074
0.00217058
0.00217042
0.00217027
0.00217013
0.00216999
0.00216986
0.00216974
0.00216962
0.00216951
0.0021694
0.0021693
0.0021692
0.0021691
0.00216901
0.00216892
0.00216883
0.00216874
0.00216866
0.00216858
0.0021685
0.00216842
0.00216834
0.00216827
0.00216819
0.00216812
0.00216805
0.00216797
0.0021679
0.00216783
0.00216776
0.00216769
0.00216762
0.00216755
0.00216748
0.00216741
0.00216734
0.00216726
0.00216719
0.00216712
0.00216705
0.00216698
0.00216691
0.00216684
0.00216676
0.00216669
0.00216662
0.00216655
0.00216647
0.0021664
0.00216632
0.00216625
0.00216617
0.0021661
0.00216602
0.00216595
0.00216587
0.00216579
0.00216571
0.00216564
0.00216556
0.00216548
0.0021654
0.00216532
0.00216524
0.00216516
0.00216508
0.002165
0.00216491
0.00216483
0.00216475
0.00216467
0.00216458
0.0021645
0.00216441
0.00216433
0.00216424
0.00216416
0.00216407
0.00216398
0.0021639
0.00216381
0.00216372
0.00216363
0.00216354
0.00216346
0.00216337
0.00216328
0.00216318
0.00216309
0.002163
0.00216291
0.00216282
0.00216272
0.00216263
0.00216254
0.00216244
0.00216235
0.00216225
0.00216215
0.00216206
0.00216196
0.00216186
0.00216176
0.00216167
0.00216157
0.00216147
0.00216137
0.00216127
0.00216116
0.00216106
0.00216096
0.00216086
0.00216075
0.00216065
0.00216054
0.00216044
0.00216033
0.00216023
0.00216012
0.00216001
0.0021599
0.00215979
0.00215968
0.00215957
0.00215946
0.00215935
0.00215924
0.00215913
0.00215901
0.0021589
0.00215879
0.00215867
0.00215855
0.00215844
0.00215832
0.0021582
0.00215809
0.00215797
0.00215785
0.00215773
0.00215761
0.00215749
0.00215737
0.00215724
0.00215712
0.002157
0.00215687
0.00215675
0.00215663
0.0021565
0.00215638
0.00215625
0.00215612
0.00215599
0.00215587
0.00215574
0.00215561
0.00215548
0.00215535
0.00215522
0.00215509
0.00215496
0.00215483
0.0021547
0.00215457
0.00215443
0.0021543
0.00215417
0.00215403
0.0021539
0.00215377
0.00215363
0.0021535
0.00215336
0.00215323
0.00215309
0.00215295
0.00215282
0.00215268
0.00215255
0.00215241
0.00215227
0.00215213
0.002152
0.00215186
0.00215172
0.00215158
0.00215144
0.0021513
0.00215116
0.00215102
0.00215088
0.00215074
0.0021506
0.00215046
0.00215032
0.00215018
0.00215004
0.0021499
0.00214976
0.00214961
0.00214947
0.00214933
0.00214919
0.00214904
0.0021489
0.00214875
0.00214861
0.00214846
0.00214832
0.00214817
0.00214803
0.00214788
0.00214773
0.00214758
0.00214743
0.00214728
0.00214713
0.00214698
0.00214683
0.00214668
0.00214652
0.00214637
0.00214622
0.00214606
0.0021459
0.00214574
0.00214558
0.00214542
0.00214526
0.0021451
0.00214493
0.00214477
0.0021446
0.00214443
0.00214426
0.00214409
0.00214391
0.00214373
0.00214356
0.00214338
0.00214319
0.00214301
0.00214282
0.00214263
0.00214244
0.00214225
0.00214205
0.00214185
0.00214165
0.00214144
0.00214123
0.00214102
0.00214081
0.00214059
0.00214037
0.00214015
0.00213992
0.00213969
0.00213945
0.00213921
0.00213897
0.00213873
0.00213848
0.00213822
0.00213797
0.0021377
0.00213744
0.00213717
0.00213689
0.00213661
0.00213633
0.00213604
0.00213575
0.00213546
0.00213516
0.00213485
0.00213454
0.00213423
0.00213391
0.00213359
0.00213327
0.00213294
0.0021326
0.00213226
0.00213192
0.00213157
0.00213122
0.00213087
0.00213051
0.00213015
0.00212979
0.00212942
0.00212905
0.00212867
0.00212829
0.00212791
0.00212753
0.00212715
0.00212676
0.00212637
0.00212598
0.00212558
0.00212519
0.00212479
0.0021244
0.002124
0.0021236
0.0021232
0.0021228
0.0021224
0.002122
0.0021216
0.0021212
0.0021208
0.0021204
0.00212
0.0021196
0.00211921
0.00211882
0.00211842
0.00211803
0.00211765
0.00211726
0.00211688
0.0021165
0.00211612
0.00211575
0.00211537
0.00211501
0.00211464
0.00211428
0.00211392
0.00211356
0.00211321
0.00211287
0.00211252
0.00211218
0.00211185
0.00211152
0.00211119
0.00211086
0.00211055
0.00211023
0.00210992
0.00210961
0.00210931
0.00210901
0.00210872
0.00210843
0.00210814
0.00210786
0.00210758
0.00210731
0.00210704
0.00210677
0.00210651
0.00210625
0.002106
0.00210575
0.0021055
0.00210526
0.00210502
0.00210479
0.00210455
0.00210433
0.0021041
0.00210388
0.00210366
0.00210345
0.00210323
0.00210303
0.00210282
0.00210262
0.00210242
0.00210222
0.00210203
0.00210183
0.00210164
0.00210146
0.00210127
0.00210109
0.00210091
0.00210074
0.00210056
0.00210039
0.00210022
0.00210005
0.00209989
0.00209972
0.00209956
0.0020994
0.00209924
0.00209908
0.00209893
0.00209878
0.00209863
0.00209848
0.00209833
0.00209818
0.00209804
0.0020979
0.00209776
0.00209762
0.00209748
0.00209734
0.0020972
0.00209707
0.00209694
0.00209681
0.00209667
0.00209655
0.00209642
0.00209629
0.00209617
0.00209604
0.00209592
0.0020958
0.00209567
0.00209555
0.00209544
0.00209532
0.0020952
0.00209508
0.00209497
0.00209486
0.00209474
0.00209463
0.00209452
0.00209441
0.0020943
0.00209419
0.00209408
0.00209398
0.00209387
0.00209377
0.00209366
0.00209356
0.00209345
0.00209335
0.00209325
0.00209315
0.00209305
0.00209295
0.00209285
0.00209275
0.00209266
0.00209256
0.00209246
0.00209237
0.00209227
0.00209218
0.00209208
0.00209199
0.0020919
0.0020918
0.00209171
0.00209162
0.00209153
0.00209144
0.00209135
0.00209126
0.00209117
0.00209108
0.00209099
0.0020909
0.00209081
0.00209073
0.00209064
0.00209055
0.00209046
0.00209038
0.00209029
0.0020902
0.00209012
0.00209003
0.00208994
0.00208986
0.00208977
0.00208968
0.0020896
0.00208951
0.00208943
0.00208934
0.00208926
0.00208917
0.00208909
0.002089
0.00208891
0.00208883
0.00208874
0.00208866
0.00208857
0.00208849
0.0020884
0.0020883
)
;

boundaryField
{
    inlet
    {
        type            calculated;
        value           uniform 0.00548447;
    }
    outlet
    {
        type            calculated;
        value           uniform 0.0020883;
    }
    right
    {
        type            empty;
    }
    left
    {
        type            empty;
    }
    atmosphere
    {
        type            empty;
    }
    bottomWall
    {
        type            empty;
    }
}


// ************************************************************************* //
