/*--------------------------------*- C++ -*----------------------------------*\
| =========                 |                                                 |
| \\      /  F ield         | foam-extend: Open Source CFD                    |
|  \\    /   O peration     | Version:     3.1                                |
|   \\  /    A nd           | Web:         http://www.extend-project.de       |
|    \\/     M anipulation  |                                                 |
\*---------------------------------------------------------------------------*/
FoamFile
{
    version     2.0;
    format      ascii;
    class       surfaceScalarField;
    location    "20";
    object      phi;
}
// * * * * * * * * * * * * * * * * * * * * * * * * * * * * * * * * * * * * * //

dimensions      [0 3 -1 0 0 0 0];

internalField   nonuniform List<scalar> 
2538
(
0.0728805
0.0729403
0.0730197
0.0730985
0.0731775
0.0732567
0.0733361
0.0734157
0.0734955
0.0735755
0.0736556
0.073736
0.0738165
0.0738973
0.0739782
0.0740594
0.0741407
0.0742223
0.074304
0.074386
0.0744681
0.0745505
0.074633
0.0747158
0.0747988
0.0748819
0.0749653
0.0750489
0.0751327
0.0752167
0.0753009
0.0753853
0.07547
0.0755548
0.0756399
0.0757252
0.0758107
0.0758964
0.0759823
0.0760685
0.0761548
0.0762414
0.0763282
0.0764153
0.0765025
0.07659
0.0766777
0.0767657
0.0768538
0.0769422
0.0770309
0.0771197
0.0772088
0.0772981
0.0773877
0.0774775
0.0775675
0.0776578
0.0777483
0.077839
0.07793
0.0780212
0.0781127
0.0782044
0.0782963
0.0783885
0.078481
0.0785737
0.0786666
0.0787598
0.0788533
0.078947
0.0790409
0.0791351
0.0792296
0.0793243
0.0794193
0.0795146
0.0796101
0.0797058
0.0798019
0.0798982
0.0799947
0.0800916
0.0801887
0.080286
0.0803837
0.0804816
0.0805798
0.0806783
0.080777
0.080876
0.0809753
0.0810749
0.0811748
0.0812749
0.0813754
0.0814761
0.0815771
0.0816784
0.08178
0.0818819
0.0819841
0.0820866
0.0821893
0.0822924
0.0823958
0.0824995
0.0826034
0.0827077
0.0828123
0.0829172
0.0830224
0.083128
0.0832338
0.08334
0.0834464
0.0835532
0.0836603
0.0837677
0.0838755
0.0839836
0.084092
0.0842007
0.0843098
0.0844192
0.0845289
0.084639
0.0847494
0.0848601
0.0849712
0.0850826
0.0851944
0.0853065
0.085419
0.0855318
0.085645
0.0857585
0.0858724
0.0859866
0.0861012
0.0862162
0.0863315
0.0864472
0.0865633
0.0866797
0.0867966
0.0869137
0.0870313
0.0871493
0.0872676
0.0873863
0.0875054
0.0876249
0.0877448
0.0878651
0.0879857
0.0881068
0.0882283
0.0883502
0.0884725
0.0885951
0.0887183
0.0888418
0.0889657
0.0890901
0.0892148
0.08934
0.0894656
0.0895917
0.0897182
0.0898451
0.0899725
0.0901002
0.0902285
0.0903572
0.0904863
0.0906159
0.0907459
0.0908764
0.0910074
0.0911388
0.0912707
0.091403
0.0915666
0.0917486
0.0918565
0.0918993
0.0919389
0.0919783
0.0920177
0.0920571
0.0920966
0.0921362
0.0921758
0.0922154
0.0922551
0.0922948
0.0923345
0.0923743
0.0924142
0.092454
0.092494
0.0925339
0.0925739
0.092614
0.0926541
0.0926942
0.0927344
0.0927746
0.0928149
0.0928552
0.0928956
0.092936
0.0929764
0.0930169
0.0930575
0.093098
0.0931387
0.0931793
0.09322
0.0932608
0.0933016
0.0933424
0.0933833
0.0934243
0.0934653
0.0935063
0.0935473
0.0935885
0.0936296
0.0936708
0.0937121
0.0937534
0.0937947
0.0938361
0.0938776
0.093919
0.0939606
0.0940021
0.0940438
0.0940854
0.0941272
0.0941689
0.0942107
0.0942526
0.0942945
0.0943364
0.0943784
0.0944205
0.0944626
0.0945047
0.0945469
0.0945891
0.0946314
0.0946737
0.0947161
0.0947585
0.094801
0.0948435
0.0948861
0.0949287
0.0949714
0.0950141
0.0950569
0.0950997
0.0951425
0.0951855
0.0952284
0.0952714
0.0953145
0.0953576
0.0954008
0.095444
0.0954872
0.0955305
0.0955739
0.0956173
0.0956608
0.0957043
0.0957478
0.0957915
0.0958351
0.0958788
0.0959226
0.0959664
0.0960103
0.0960542
0.0960982
0.0961422
0.0961863
0.0962304
0.0962746
0.0963188
0.0963631
0.0964074
0.0964518
0.0964962
0.0965407
0.0965853
0.0966299
0.0966745
0.0967192
0.096764
0.0968088
0.0968537
0.0968986
0.0969436
0.0969886
0.0970337
0.0970788
0.097124
0.0971692
0.0972145
0.0972599
0.0973053
0.0973507
0.0973963
0.0974418
0.0974875
0.0975331
0.0975789
0.0976247
0.0976705
0.0977164
0.0977624
0.0978084
0.0978545
0.0979006
0.0979468
0.097993
0.0980393
0.0980857
0.0981321
0.0981786
0.0982251
0.0982717
0.0983183
0.098365
0.0984118
0.0984586
0.0985055
0.0985524
0.0985994
0.0986465
0.0986936
0.0987407
0.098788
0.0988353
0.0988826
0.09893
0.0989775
0.099025
0.0990726
0.0991202
0.0991679
0.0992157
0.0992635
0.0993114
0.0993594
0.0994074
0.0994555
0.0995036
0.0995518
0.0996
0.0996484
0.0996967
0.0997452
0.0997937
0.0998422
0.0998909
0.0999396
0.0999883
0.100037
0.100086
0.100135
0.100184
0.100233
0.100282
0.100331
0.100381
0.10043
0.100478
0.100547
0.100215
0.104448
0.109122
0.114838
0.118456
0.120865
0.122646
0.124081
0.125314
0.126419
0.127438
0.128395
0.129306
0.13018
0.131023
0.131841
0.132637
0.133414
0.134174
0.13492
0.135652
0.136371
0.13708
0.137779
0.138469
0.13915
0.139824
0.14049
0.14115
0.141804
0.142453
0.143096
0.143734
0.144367
0.144997
0.145622
0.146244
0.146862
0.147478
0.14809
0.148699
0.149306
0.149911
0.150514
0.151114
0.151713
0.152309
0.152905
0.153499
0.154091
0.154683
0.155273
0.155863
0.156452
0.15704
0.157628
0.158216
0.158803
0.15939
0.159978
0.160565
0.161153
0.161741
0.16233
0.162919
0.163509
0.164101
0.164693
0.165288
0.165883
0.166481
0.16708
0.167682
0.168286
0.168894
0.169504
0.170118
0.170736
0.171359
0.171987
0.17262
0.17326
0.173907
0.174562
0.175227
0.175903
0.176592
0.177296
0.178019
0.178763
0.179534
0.180337
0.18118
0.182074
0.183029
0.184062
0.18519
0.186433
0.18781
0.189339
0.191024
0.195543
0.197532
0.199396
0.201155
0.202823
0.204411
0.20593
0.207387
0.208789
0.210141
0.211448
0.212715
0.213944
0.215139
0.216302
0.217437
0.218544
0.219626
0.220684
0.221721
0.222736
0.223733
0.22471
0.225671
0.226615
0.227543
0.228457
0.229356
0.230242
0.231116
0.231976
0.232826
0.233663
0.234491
0.235307
0.236114
0.236911
0.237699
0.238478
0.239248
0.24001
0.240764
0.241511
0.242249
0.242981
0.243705
0.244423
0.245134
0.245838
0.246537
0.247229
0.247915
0.248595
0.24927
0.249939
0.250603
0.251262
0.251916
0.252565
0.253208
0.253848
0.254482
0.255112
0.255738
0.256359
0.256976
0.257589
0.258198
0.258803
0.259404
0.260002
0.260595
0.261185
0.261771
0.262354
0.262934
0.26351
0.264082
0.264651
0.265218
0.265781
0.266341
0.266897
0.267451
0.268002
0.26855
0.269095
0.269638
0.270177
0.270714
0.271248
0.27178
0.272308
0.272834
0.27336
0.273886
0.274413
0.274932
0.275421
0.275845
0.276202
0.276534
0.276865
0.277195
0.277524
0.277852
0.278179
0.278505
0.27883
0.279154
0.279477
0.279799
0.28012
0.28044
0.280759
0.281078
0.281395
0.281712
0.282027
0.282342
0.282656
0.282969
0.283281
0.283592
0.283903
0.284212
0.284521
0.284829
0.285136
0.285442
0.285748
0.286052
0.286356
0.286659
0.286961
0.287263
0.287563
0.287863
0.288162
0.288461
0.288758
0.289055
0.289351
0.289647
0.289941
0.290235
0.290528
0.290821
0.291113
0.291404
0.291694
0.291984
0.292272
0.292561
0.292848
0.293135
0.293421
0.293707
0.293992
0.294276
0.294559
0.294842
0.295124
0.295406
0.295687
0.295967
0.296246
0.296525
0.296804
0.297081
0.297359
0.297635
0.297911
0.298186
0.298461
0.298735
0.299008
0.299281
0.299553
0.299825
0.300096
0.300366
0.300636
0.300906
0.301174
0.301442
0.30171
0.301977
0.302244
0.30251
0.302775
0.30304
0.303304
0.303568
0.303831
0.304093
0.304356
0.304617
0.304878
0.305139
0.305399
0.305658
0.305917
0.306175
0.306433
0.306691
0.306947
0.307204
0.30746
0.307715
0.30797
0.308224
0.308478
0.308731
0.308984
0.309237
0.309489
0.30974
0.309991
0.310241
0.310491
0.310741
0.31099
0.311238
0.311486
0.311734
0.311981
0.312228
0.312474
0.31272
0.312965
0.31321
0.313455
0.313699
0.313942
0.314185
0.314428
0.31467
0.314912
0.315153
0.315394
0.315635
0.315875
0.316114
0.316353
0.316592
0.31683
0.317068
0.317306
0.317543
0.31778
0.318016
0.318252
0.318487
0.318722
0.318957
0.319191
0.319425
0.319658
0.319891
0.320124
0.320356
0.320588
0.320819
0.32105
0.321281
0.321511
0.321741
0.32197
0.322199
0.322428
0.322656
0.322884
0.323112
0.323339
0.323566
0.323792
0.324018
0.324244
0.324469
0.324694
0.324919
0.325143
0.325367
0.32559
0.325813
0.326036
0.326258
0.32648
0.326702
0.326923
0.327144
0.327365
0.327585
0.327805
0.328025
0.328244
0.328463
0.328681
0.328899
0.329117
0.329335
0.329552
0.329769
0.329985
0.330201
0.330417
0.330633
0.330848
0.331063
0.331277
0.331491
0.331705
0.331918
0.332132
0.332344
0.332557
0.332769
0.332981
0.333193
0.333404
0.333615
0.333825
0.334036
0.334245
0.334455
0.334664
0.334873
0.335082
0.335291
0.335499
0.335706
0.335914
0.336121
0.336328
0.336535
0.336741
0.336947
0.337152
0.337358
0.337563
0.337767
0.337972
0.338176
0.33838
0.338584
0.338787
0.33899
0.339192
0.339395
0.339597
0.339799
0.34
0.340202
0.340402
0.340603
0.340803
0.341004
0.341203
0.341403
0.341602
0.341801
0.342
0.342198
0.342396
0.342594
0.342792
0.342989
0.343186
0.343383
0.343579
0.343775
0.343971
0.344167
0.344362
0.344558
0.344752
0.344947
0.345141
0.345335
0.345529
0.345723
0.345916
0.346109
0.346302
0.346494
0.346686
0.346878
0.34707
0.347261
0.347452
0.347643
0.347834
0.348024
0.348214
0.348404
0.348594
0.348783
0.348972
0.349161
0.34935
0.349538
0.349726
0.349914
0.350102
0.350289
0.350476
0.350663
0.35085
0.351036
0.351222
0.351408
0.351594
0.351779
0.351964
0.352149
0.352334
0.352518
0.352703
0.352887
0.35307
0.353254
0.353437
0.35362
0.353803
0.353985
0.354167
0.35435
0.354531
0.354713
0.354894
0.355075
0.355256
0.355437
0.355617
0.355798
0.355978
0.356157
0.356337
0.356516
0.356695
0.356874
0.357053
0.357231
0.35741
0.357588
0.357763
0.357935
0.358109
0.358303
0.358526
0.358761
0.358996
0.35923
0.359465
0.359699
0.359932
0.360166
0.360399
0.360631
0.360863
0.361095
0.361327
0.361558
0.361789
0.362019
0.36225
0.362479
0.362709
0.362938
0.363167
0.363396
0.363624
0.363852
0.364079
0.364306
0.364533
0.36476
0.364986
0.365212
0.365438
0.365663
0.365888
0.366113
0.366337
0.366561
0.366785
0.367008
0.367231
0.367454
0.367676
0.367898
0.36812
0.368342
0.368563
0.368784
0.369004
0.369225
0.369445
0.369664
0.369884
0.370103
0.370321
0.37054
0.370758
0.370976
0.371193
0.371411
0.371628
0.371844
0.372061
0.372277
0.372492
0.372708
0.372923
0.373138
0.373353
0.373567
0.373781
0.373995
0.374208
0.374421
0.374634
0.374847
0.375059
0.375271
0.375483
0.375694
0.375905
0.376116
0.376327
0.376537
0.376747
0.376957
0.377166
0.377375
0.377584
0.377793
0.378001
0.378209
0.378417
0.378625
0.378832
0.379039
0.379246
0.379452
0.379658
0.379864
0.38007
0.380275
0.38048
0.380685
0.38089
0.381094
0.381298
0.381502
0.381705
0.381909
0.382112
0.382314
0.382517
0.382719
0.382921
0.383123
0.383324
0.383525
0.383726
0.383927
0.384127
0.384327
0.384527
0.384727
0.384926
0.385125
0.385324
0.385523
0.385721
0.385919
0.386117
0.386315
0.386512
0.386709
0.386906
0.387102
0.387299
0.387495
0.387691
0.387886
0.388082
0.388277
0.388472
0.388666
0.388861
0.389055
0.389249
0.389443
0.389636
0.389829
0.390022
0.390215
0.390407
0.390599
0.390791
0.390983
0.391175
0.391366
0.391557
0.391748
0.391938
0.392129
0.392319
0.392509
0.392698
0.392888
0.393077
0.393266
0.393455
0.393643
0.393831
0.39402
0.394208
0.394395
0.394581
0.394765
0.394951
0.395149
0.395372
0.395585
0.395656
0.395454
0.395313
0.395287
0.395342
0.395386
0.395427
0.395462
0.395481
0.39548
0.395467
0.395452
0.395432
0.395398
0.395348
0.395286
0.395216
0.395134
0.395041
0.394934
0.394816
0.39469
0.394554
0.394411
0.394257
0.394088
0.393905
0.393709
0.393504
0.393291
0.393067
0.392828
0.392575
0.392312
0.392042
0.391762
0.391472
0.391173
0.39086
0.390532
0.390196
0.38985
0.389487
0.38911
0.388724
0.388329
0.387923
0.387509
0.387082
0.386643
0.386194
0.385736
0.385266
0.38478
0.384279
0.383767
0.383247
0.382716
0.382176
0.381626
0.381063
0.380483
0.379888
0.379281
0.378667
0.378046
0.377416
0.376772
0.376112
0.375436
0.374747
0.374048
0.373337
0.372614
0.37188
0.371136
0.370379
0.369613
0.36883
0.368028
0.367207
0.366373
0.365532
0.364689
0.363842
0.362992
0.362128
0.361225
0.360254
0.359215
0.358165
0.357228
0.356547
0.35615
0.355751
0.354679
0.352145
0.347985
0.343611
0.342397
0.348708
0.364734
0.383851
0.402291
0.402473
0.402656
0.402838
0.40302
0.403201
0.403383
0.403564
0.403745
0.403926
0.404107
0.404287
0.404468
0.404648
0.404827
0.405007
0.405186
0.405366
0.405545
0.405723
0.405902
0.40608
0.406258
0.406436
0.406614
0.406792
0.406969
0.407146
0.407323
0.4075
0.407676
0.407852
0.408029
0.408204
0.40838
0.408556
0.408731
0.408906
0.409081
0.409255
0.40943
0.409604
0.409778
0.409952
0.410126
0.410299
0.410472
0.410645
0.410818
0.410991
0.411163
0.411336
0.411508
0.41168
0.411851
0.412023
0.412194
0.412365
0.412536
0.412707
0.412877
0.413047
0.413218
0.413388
0.413557
0.413727
0.413896
0.414065
0.414234
0.414403
0.414572
0.41474
0.414908
0.415076
0.415244
0.415412
0.415579
0.415746
0.415913
0.41608
0.416247
0.416413
0.416578
0.416744
0.416915
0.417094
0.417263
0.417371
0.417396
0.417386
0.417377
0.417367
0.417358
0.417348
0.417339
0.417329
0.41732
0.417311
0.417301
0.417292
0.417282
0.417273
0.417263
0.417254
0.417244
0.417235
0.417226
0.417216
0.417207
0.417197
0.417188
0.417179
0.417169
0.41716
0.417151
0.417141
0.417132
0.417122
0.417113
0.417104
0.417094
0.417085
0.417076
0.417066
0.417057
0.417048
0.417039
0.417029
0.41702
0.417011
0.417001
0.416992
0.416983
0.416974
0.416964
0.416955
0.416946
0.416937
0.416927
0.416918
0.416909
0.4169
0.41689
0.416881
0.416872
0.416863
0.416854
0.416845
0.416835
0.416826
0.416817
0.416808
0.416799
0.41679
0.41678
0.416771
0.416762
0.416753
0.416744
0.416735
0.416726
0.416717
0.416707
0.416698
0.416689
0.41668
0.416671
0.416662
0.416653
0.416644
0.416635
0.416626
0.416617
0.416608
0.416599
0.41659
0.416581
0.416572
0.416563
0.416554
0.416545
0.416536
0.416527
0.416518
0.416509
0.4165
0.416491
0.416482
0.416473
0.416464
0.416455
0.416446
0.416437
0.416428
0.416419
0.41641
0.416401
0.416392
0.416383
0.416375
0.416366
0.416357
0.416348
0.416339
0.41633
0.416321
0.416312
0.416304
0.416295
0.416286
0.416277
0.416268
0.416259
0.41625
0.416242
0.416233
0.416224
0.416215
0.416206
0.416198
0.416189
0.41618
0.416171
0.416163
0.416154
0.416145
0.416136
0.416127
0.416119
0.41611
0.416101
0.416093
0.416084
0.416075
0.416066
0.416058
0.416049
0.41604
0.416032
0.416023
0.416014
0.416006
0.415997
0.415988
0.41598
0.415971
0.415962
0.415954
0.415945
0.415936
0.415928
0.415919
0.41591
0.415902
0.415893
0.415885
0.415876
0.415867
0.415859
0.41585
0.415842
0.415833
0.415825
0.415816
0.415807
0.415799
0.41579
0.415782
0.415773
0.415765
0.415756
0.415748
0.415739
0.415731
0.415722
0.415714
0.415705
0.415697
0.415688
0.41568
0.415671
0.415663
0.415654
0.415646
0.415637
0.415629
0.41562
0.415612
0.415604
0.415595
0.415587
0.415578
0.41557
0.415561
0.415553
0.415545
0.415536
0.415528
0.415519
0.415511
0.415503
0.415494
0.415486
0.415478
0.415469
0.415461
0.415453
0.415444
0.415436
0.415428
0.415419
0.415411
0.415403
0.415394
0.415386
0.415378
0.415369
0.415361
0.415353
0.415345
0.415336
0.415328
0.41532
0.415312
0.415303
0.415295
0.415287
0.415279
0.41527
0.415262
0.415254
0.415246
0.415237
0.415229
0.415221
0.415213
0.415205
0.415196
0.415188
0.41518
0.415172
0.415164
0.415156
0.415147
0.415139
0.415131
0.415123
0.415115
0.415107
0.415099
0.41509
0.415082
0.415074
0.415066
0.415058
0.41505
0.415042
0.415034
0.415026
0.415018
0.415009
0.415001
0.414994
0.414987
0.414977
0.414963
0.414946
0.414949
0.415013
0.415119
0.415
0.414136
0.412696
0.413796
0.424152
0.443039
0.431814
0.334117
0.193305
0.110812
0.0920801
0.0911082
0.0910693
0.0910206
0.0909721
0.0909238
0.0908755
0.0908271
0.0907798
0.0907443
0.0907288
0.0907225
0.0907161
0.0907097
0.0907034
0.0906971
0.0906909
0.0906848
0.0906787
0.0906726
0.0906666
0.0906607
0.0906549
0.0906491
0.0906434
0.0906378
0.0906322
0.0906268
0.0906214
0.0906161
0.0906109
0.0906057
0.0906007
0.0905958
0.0905909
0.0905862
0.0905815
0.090577
0.0905725
0.0905682
0.090564
0.0905598
0.0905558
0.0905519
0.0905481
0.0905444
0.0905408
0.0905374
0.090534
0.0905308
0.0905276
0.0905246
0.0905217
0.090519
0.0905163
0.0905138
0.0905114
0.0905091
0.0905069
0.0905048
0.0905029
0.0905011
0.0904993
0.0904978
0.0904963
0.090495
0.0904937
0.0904926
0.0904916
0.0904908
0.09049
0.0904894
0.0904889
0.0904885
0.0904882
0.0904881
0.0904881
0.0904881
0.0904883
0.0904887
0.0904891
0.0904897
0.0904904
0.0904912
0.0904921
0.0904931
0.0904943
0.0904955
0.0904969
0.0904984
0.0905001
0.0905018
0.0905037
0.0905057
0.0905078
0.09051
0.0905124
0.0905148
0.0905174
0.0905202
0.090523
0.090526
0.090529
0.0905323
0.0905356
0.0905391
0.0905426
0.0905464
0.0905502
0.0905542
0.0905583
0.0905625
0.0905669
0.0905714
0.090576
0.0905808
0.0905857
0.0905907
0.0905959
0.0906012
0.0906066
0.0906122
0.090618
0.0906239
0.0906299
0.0906361
0.0906424
0.0906489
0.0906555
0.0906623
0.0906692
0.0906763
0.0906836
0.090691
0.0906986
0.0907063
0.0907143
0.0907223
0.0907306
0.090739
0.0907476
0.0907564
0.0907654
0.0907745
0.0907839
0.0907934
0.0908031
0.0908131
0.0908232
0.0908335
0.090844
0.0908547
0.0908657
0.0908768
0.0908882
0.0908998
0.0909116
0.0909236
0.0909359
0.0909484
0.0909612
0.0909742
0.0909874
0.091001
0.0910147
0.0910288
0.091043
0.0910576
0.0910725
0.0910876
0.091103
0.0911187
0.0911347
0.0911511
0.0911677
0.0911846
0.0912019
0.0912195
0.0912374
0.0912556
0.0912742
0.0912932
0.0913125
0.0913322
0.0913522
0.0913726
0.0913934
0.0914146
0.0914361
0.0914581
0.0914805
0.0915032
0.0915264
0.0915501
0.0915741
0.0915986
0.0916235
0.0916489
0.0916747
0.0917009
0.0917277
0.0917548
0.0917825
0.0918106
0.0918392
0.0918683
0.0918979
0.091928
0.0919585
0.0919896
0.0920211
0.0920532
0.0920857
0.0921188
0.0921524
0.0921864
0.092221
0.0922561
0.0922917
0.0923278
0.0923644
0.0924015
0.0924391
0.0924773
0.0925159
0.092555
0.0925946
0.0926347
0.0926753
0.0927163
0.0927578
0.0927998
0.0928423
0.0928852
0.0929286
0.0929724
0.0930166
0.0930613
0.0931064
0.0931518
0.0931977
0.093244
0.0932906
0.0933376
0.093385
0.0934327
0.0934807
0.093529
0.0935776
0.0936266
0.0936757
0.0937252
0.0937749
0.0938248
0.0938749
0.0939252
0.0939757
0.0940263
0.0940771
0.094128
0.094179
0.0942301
0.0942812
0.0943325
0.0943837
0.0944349
0.0944861
0.0945373
0.0945884
0.0946395
0.0946904
0.0947413
0.0947919
0.0948424
0.0948928
0.0949429
0.0949928
0.0950424
0.0950917
0.0951407
0.0951894
0.0952377
0.0952857
0.0953332
0.0953803
0.095427
0.0954732
0.0955188
0.095564
0.0956085
0.0956525
0.0956959
0.0957387
0.0957808
0.0958222
0.0958628
0.0959028
0.095942
0.0959804
0.0960179
0.0960546
0.0960905
0.0961255
0.0961595
0.0961926
0.0962247
0.0962558
0.0962859
0.0963149
0.0963429
0.0963697
0.0963954
0.09642
0.0964434
0.0964656
0.0964865
0.0965062
0.0965246
0.0965417
0.0965575
0.0965719
0.0965849
0.0965965
0.0966067
0.0966155
0.0966227
0.0966285
0.0966328
0.0966355
0.0966366
0.0966361
0.096634
0.0966303
0.096625
0.0966179
0.0966092
0.0965987
0.0965865
0.0965726
0.0965569
0.0965394
0.0965202
0.0964991
0.0964762
0.0964515
0.0964249
0.0963965
0.0963663
0.0963342
0.0963003
0.0962646
0.096227
0.0961877
0.0961465
0.0961036
0.0960589
0.0960125
0.0959643
0.0959146
0.0958632
0.0958102
0.0957557
0.0956997
0.0956423
0.0955836
0.0955235
0.0954623
0.0953999
0.0953364
0.0952719
0.0952066
0.0951405
0.0950737
0.0950062
0.0949383
0.0948699
0.0948013
0.0947325
0.0946635
0.0945946
0.0945258
0.0944573
0.094389
0.0943212
0.094254
0.0941873
0.0941214
0.0940563
0.093992
0.0939288
0.0938665
0.0938054
0.0937455
0.0936869
0.0936295
0.0935735
0.0935188
0.0934656
0.0934139
0.0933637
0.0933149
0.0932677
0.093222
0.0931779
0.0931353
0.0930942
0.0930547
0.0930166
0.0929801
0.0929451
0.0929115
0.0928793
0.0928486
0.0928192
0.0927912
0.0927645
0.0927391
0.0927149
0.0926919
0.09267
0.0926493
0.0926297
0.0926111
0.0925935
0.0925768
0.0925611
0.0925463
0.0925323
0.0925191
0.0925067
0.092495
0.0924841
0.0924737
0.092464
0.0924549
0.0924464
0.0924384
0.0924308
0.0924238
0.0924172
0.092411
0.0924052
0.0923998
0.0923947
0.0923899
0.0923854
0.0923812
0.0923773
0.0923736
0.0923701
0.0923669
0.0923638
0.0923609
0.0923582
0.0923556
0.0923532
0.0923508
0.0923486
0.0923465
0.0923446
0.0923426
0.0923408
0.0923391
0.0923374
0.0923358
0.0923342
0.0923326
0.0923312
0.0923297
0.0923283
0.0923269
0.0923255
0.0923242
0.0923229
0.0923216
0.0923203
0.092319
0.0923177
0.0923164
0.0923152
0.0923139
0.0923127
0.0923114
0.0923101
0.0923089
0.0923076
0.0923063
0.0923051
0.0923038
0.0923025
0.0923012
0.0922999
0.0922986
0.0922973
0.0922959
0.0922946
0.0922933
0.0922919
0.0922906
0.0922892
0.0922878
0.0922864
0.092285
0.0922836
0.0922822
0.0922808
0.0922793
0.0922779
0.0922764
0.092275
0.0922735
0.092272
0.0922705
0.092269
0.0922675
0.092266
0.0922644
0.0922629
0.0922613
0.0922598
0.0922582
0.0922566
0.092255
0.0922534
0.0922518
0.0922502
0.0922485
0.0922469
0.0922452
0.0922436
0.0922419
0.0922402
0.0922385
0.0922368
0.0922351
0.0922333
0.0922316
0.0922298
0.0922281
0.0922263
0.0922245
0.0922227
0.0922209
0.092219
0.0922172
0.0922154
0.0922135
0.0922116
0.0922097
0.0922078
0.0922059
0.092204
0.0922021
0.0922001
0.0921981
0.0921962
0.0921942
0.0921921
0.0921901
0.0921881
0.092186
0.092184
0.0921819
0.0921798
0.0921777
0.0921756
0.0921734
0.0921713
0.0921691
0.0921669
0.0921647
0.0921625
0.0921603
0.0921581
0.0921558
0.0921535
0.0921513
0.092149
0.0921466
0.0921443
0.092142
0.0921396
0.0921372
0.0921348
0.0921324
0.09213
0.0921276
0.0921252
0.0921227
0.0921202
0.0921177
0.0921152
0.0921127
0.0921102
0.0921077
0.0921051
0.0921026
0.0921
0.0920974
0.0920948
0.0920922
0.0920896
0.092087
0.0920843
0.0920817
0.092079
0.0920763
0.0920737
0.092071
0.0920683
0.0920656
0.0920629
0.0920601
0.0920574
0.0920547
0.0920519
0.0920492
0.0920464
0.0920437
0.0920409
0.0920381
0.0920353
0.0920325
0.0920297
0.0920269
0.0920241
0.0920213
0.0920185
0.0920157
0.0920129
0.0920101
0.0920072
0.0920044
0.0920016
0.0919987
0.0919959
0.091993
0.0919902
0.0919873
0.0919845
0.0919816
0.0919788
0.0919759
0.091973
0.0919701
0.0919673
0.0919644
0.0919615
0.0919586
0.0919557
0.0919528
0.0919498
0.0919469
0.091944
0.0919411
0.0919381
0.0919351
0.0919322
0.0919292
0.0919262
0.0919232
0.0919202
0.0919172
0.0919141
0.0919111
0.091908
0.0919049
0.0919018
0.0918986
0.0918955
0.0918923
0.0918891
0.0918859
0.0918826
0.0918793
0.091876
0.0918726
0.0918692
0.0918658
0.0918624
0.0918589
0.0918553
0.0918517
0.0918481
0.0918444
0.0918407
0.0918369
0.0918331
0.0918292
0.0918252
0.0918212
0.0918171
0.091813
0.0918088
0.0918045
0.0918002
0.0917957
0.0917912
0.0917866
0.091782
0.0917772
0.0917724
0.0917675
0.0917624
0.0917573
0.0917521
0.0917468
0.0917414
0.0917359
0.0917303
0.0917246
0.0917187
0.0917128
0.0917068
0.0917006
0.0916943
0.091688
0.0916815
0.0916748
0.0916681
0.0916613
0.0916543
0.0916472
0.09164
0.0916327
0.0916253
0.0916178
0.0916101
0.0916023
0.0915945
0.0915865
0.0915784
0.0915702
0.0915619
0.0915535
0.091545
0.0915364
0.0915277
0.0915189
0.0915101
0.0915011
0.0914921
0.091483
0.0914739
0.0914647
0.0914554
0.0914461
0.0914367
0.0914273
0.0914179
0.0914084
0.0913989
0.0913894
0.0913799
0.0913703
0.0913608
0.0913513
0.0913418
0.0913323
0.0913228
0.0913134
0.091304
0.0912946
0.0912853
0.091276
0.0912668
0.0912577
0.0912486
0.0912396
0.0912307
0.0912218
0.0912131
0.0912045
0.0911959
0.0911875
0.0911791
0.0911709
0.0911628
0.0911548
0.0911469
0.0911391
0.0911315
0.091124
0.0911166
0.0911094
0.0911023
0.0910953
0.0910885
0.0910818
0.0910752
0.0910688
0.0910625
0.0910564
0.0910504
0.0910446
0.0910388
0.0910333
0.0910278
0.0910225
0.0910174
0.0910124
0.0910075
0.0910027
0.0909981
0.0909936
0.0909893
0.0909851
0.090981
0.090977
0.0909732
0.0909695
0.0909659
0.0909624
0.090959
0.0909558
0.0909526
0.0909496
0.0909467
0.0909439
0.0909412
0.0909386
0.0909361
0.0909337
0.0909314
0.0909292
0.0909271
0.0909251
0.0909232
0.0909214
0.0909196
0.090918
0.0909164
0.0909149
0.0909135
0.0909121
0.0909109
0.0909097
0.0909086
0.0909076
0.0909066
0.0909057
0.0909049
0.0909042
0.0909035
0.0909029
0.0909023
0.0909018
0.0909014
0.090901
0.0909007
0.0909004
0.0909003
0.0909001
0.0909
0.0909
0.0909
0.0909001
0.0909002
0.0909004
0.0909006
0.0909009
0.0909012
0.0909016
0.090902
0.0909024
0.0909029
0.0909035
0.0909041
0.0909047
0.0909054
0.0909061
0.0909068
0.0909076
0.0909085
0.0909093
0.0909102
0.0909112
0.0909121
0.0909131
0.0909142
0.0909153
0.0909164
0.0909175
0.0909187
0.0909199
0.0909211
0.0909224
0.0909237
0.090925
0.0909263
0.0909277
0.0909291
0.0909305
0.0909319
0.0909334
0.0909349
0.0909364
0.0909379
0.0909395
0.0909411
0.0909427
0.0909443
0.0909459
0.0909476
0.0909492
0.0909509
0.0909526
0.0909543
0.0909561
0.0909578
0.0909595
0.0909613
0.0909631
0.0909649
0.0909667
0.0909685
0.0909703
0.0909721
0.090974
0.0909758
0.0909776
0.0909795
0.0909814
0.0909832
0.0909851
0.090987
0.0909888
0.0909907
0.0909926
0.0909945
0.0909964
0.0909982
0.0910001
0.091002
0.0910039
0.0910058
0.0910077
0.0910096
0.0910115
0.0910133
0.0910152
0.0910172
)
;

boundaryField
{
    inlet
    {
        type            calculated;
        value           uniform -0.0728804;
    }
    outlet
    {
        type            calculated;
        value           uniform 0.0910183;
    }
    right
    {
        type            empty;
    }
    left
    {
        type            empty;
    }
    atmosphere
    {
        type            empty;
    }
    bottomWall
    {
        type            empty;
    }
}


// ************************************************************************* //
