/*--------------------------------*- C++ -*----------------------------------*\
| =========                 |                                                 |
| \\      /  F ield         | foam-extend: Open Source CFD                    |
|  \\    /   O peration     | Version:     3.1                                |
|   \\  /    A nd           | Web:         http://www.extend-project.de       |
|    \\/     M anipulation  |                                                 |
\*---------------------------------------------------------------------------*/
FoamFile
{
    version     2.0;
    format      ascii;
    class       volVectorField;
    location    "20";
    object      U;
}
// * * * * * * * * * * * * * * * * * * * * * * * * * * * * * * * * * * * * * //

dimensions      [0 1 -1 0 0 0 0];

internalField   nonuniform List<vector> 
2539
(
(0.728608 0 0)
(0.729002 0 0)
(0.729804 0 0)
(0.73059 0 0)
(0.731379 0 0)
(0.732171 0 0)
(0.732964 0 0)
(0.733759 0 0)
(0.734555 0 0)
(0.735354 0 0)
(0.736155 0 0)
(0.736957 0 0)
(0.737762 0 0)
(0.738569 0 0)
(0.739377 0 0)
(0.740188 0 0)
(0.741 0 0)
(0.741815 0 0)
(0.742631 0 0)
(0.743449 0 0)
(0.74427 0 0)
(0.745092 0 0)
(0.745917 0 0)
(0.746744 0 0)
(0.747572 0 0)
(0.748403 0 0)
(0.749236 0 0)
(0.75007 0 0)
(0.750907 0 0)
(0.751746 0 0)
(0.752587 0 0)
(0.753431 0 0)
(0.754276 0 0)
(0.755123 0 0)
(0.755973 0 0)
(0.756825 0 0)
(0.757679 0 0)
(0.758535 0 0)
(0.759393 0 0)
(0.760253 0 0)
(0.761116 0 0)
(0.761981 0 0)
(0.762848 0 0)
(0.763717 0 0)
(0.764589 0 0)
(0.765462 0 0)
(0.766338 0 0)
(0.767217 0 0)
(0.768097 0 0)
(0.76898 0 0)
(0.769865 0 0)
(0.770752 0 0)
(0.771642 0 0)
(0.772534 0 0)
(0.773428 0 0)
(0.774325 0 0)
(0.775224 0 0)
(0.776126 0 0)
(0.77703 0 0)
(0.777936 0 0)
(0.778844 0 0)
(0.779755 0 0)
(0.780669 0 0)
(0.781585 0 0)
(0.782503 0 0)
(0.783424 0 0)
(0.784347 0 0)
(0.785273 0 0)
(0.786201 0 0)
(0.787132 0 0)
(0.788065 0 0)
(0.789001 0 0)
(0.789939 0 0)
(0.79088 0 0)
(0.791823 0 0)
(0.792769 0 0)
(0.793717 0 0)
(0.794669 0 0)
(0.795622 0 0)
(0.796579 0 0)
(0.797538 0 0)
(0.798499 0 0)
(0.799464 0 0)
(0.800431 0 0)
(0.8014 0 0)
(0.802373 0 0)
(0.803348 0 0)
(0.804326 0 0)
(0.805306 0 0)
(0.80629 0 0)
(0.807276 0 0)
(0.808264 0 0)
(0.809256 0 0)
(0.81025 0 0)
(0.811248 0 0)
(0.812248 0 0)
(0.813251 0 0)
(0.814257 0 0)
(0.815265 0 0)
(0.816277 0 0)
(0.817291 0 0)
(0.818309 0 0)
(0.819329 0 0)
(0.820352 0 0)
(0.821379 0 0)
(0.822408 0 0)
(0.82344 0 0)
(0.824476 0 0)
(0.825514 0 0)
(0.826555 0 0)
(0.8276 0 0)
(0.828647 0 0)
(0.829698 0 0)
(0.830751 0 0)
(0.831808 0 0)
(0.832868 0 0)
(0.833931 0 0)
(0.834997 0 0)
(0.836067 0 0)
(0.837139 0 0)
(0.838215 0 0)
(0.839295 0 0)
(0.840377 0 0)
(0.841463 0 0)
(0.842552 0 0)
(0.843644 0 0)
(0.844739 0 0)
(0.845838 0 0)
(0.846941 0 0)
(0.848046 0 0)
(0.849156 0 0)
(0.850268 0 0)
(0.851384 0 0)
(0.852504 0 0)
(0.853627 0 0)
(0.854753 0 0)
(0.855883 0 0)
(0.857016 0 0)
(0.858153 0 0)
(0.859294 0 0)
(0.860438 0 0)
(0.861586 0 0)
(0.862738 0 0)
(0.863893 0 0)
(0.865052 0 0)
(0.866214 0 0)
(0.867381 0 0)
(0.868551 0 0)
(0.869724 0 0)
(0.870902 0 0)
(0.872083 0 0)
(0.873269 0 0)
(0.874458 0 0)
(0.875651 0 0)
(0.876848 0 0)
(0.878048 0 0)
(0.879253 0 0)
(0.880462 0 0)
(0.881675 0 0)
(0.882891 0 0)
(0.884112 0 0)
(0.885337 0 0)
(0.886566 0 0)
(0.887799 0 0)
(0.889036 0 0)
(0.890278 0 0)
(0.891523 0 0)
(0.892773 0 0)
(0.894027 0 0)
(0.895286 0 0)
(0.896548 0 0)
(0.897815 0 0)
(0.899087 0 0)
(0.900362 0 0)
(0.901643 0 0)
(0.902927 0 0)
(0.904216 0 0)
(0.90551 0 0)
(0.906808 0 0)
(0.908111 0 0)
(0.909418 0 0)
(0.91073 0 0)
(0.912046 0 0)
(0.913367 0 0)
(0.914693 0 0)
(0.916639 0 0)
(0.918334 0 0)
(0.918795 0 0)
(0.919192 0 0)
(0.919586 0 0)
(0.91998 0 0)
(0.920374 0 0)
(0.920769 0 0)
(0.921164 0 0)
(0.92156 0 0)
(0.921956 0 0)
(0.922352 0 0)
(0.922749 0 0)
(0.923146 0 0)
(0.923544 0 0)
(0.923942 0 0)
(0.924341 0 0)
(0.92474 0 0)
(0.925139 0 0)
(0.925539 0 0)
(0.92594 0 0)
(0.92634 0 0)
(0.926741 0 0)
(0.927143 0 0)
(0.927545 0 0)
(0.927948 0 0)
(0.928351 0 0)
(0.928754 0 0)
(0.929158 0 0)
(0.929562 0 0)
(0.929967 0 0)
(0.930372 0 0)
(0.930777 0 0)
(0.931183 0 0)
(0.93159 0 0)
(0.931997 0 0)
(0.932404 0 0)
(0.932812 0 0)
(0.93322 0 0)
(0.933629 0 0)
(0.934038 0 0)
(0.934447 0 0)
(0.934858 0 0)
(0.935268 0 0)
(0.935679 0 0)
(0.93609 0 0)
(0.936502 0 0)
(0.936914 0 0)
(0.937327 0 0)
(0.93774 0 0)
(0.938154 0 0)
(0.938568 0 0)
(0.938983 0 0)
(0.939398 0 0)
(0.939813 0 0)
(0.940229 0 0)
(0.940646 0 0)
(0.941063 0 0)
(0.94148 0 0)
(0.941898 0 0)
(0.942316 0 0)
(0.942735 0 0)
(0.943154 0 0)
(0.943574 0 0)
(0.943994 0 0)
(0.944415 0 0)
(0.944836 0 0)
(0.945258 0 0)
(0.94568 0 0)
(0.946102 0 0)
(0.946526 0 0)
(0.946949 0 0)
(0.947373 0 0)
(0.947798 0 0)
(0.948223 0 0)
(0.948648 0 0)
(0.949074 0 0)
(0.9495 0 0)
(0.949927 0 0)
(0.950355 0 0)
(0.950783 0 0)
(0.951211 0 0)
(0.95164 0 0)
(0.952069 0 0)
(0.952499 0 0)
(0.95293 0 0)
(0.95336 0 0)
(0.953792 0 0)
(0.954224 0 0)
(0.954656 0 0)
(0.955089 0 0)
(0.955522 0 0)
(0.955956 0 0)
(0.95639 0 0)
(0.956825 0 0)
(0.957261 0 0)
(0.957696 0 0)
(0.958133 0 0)
(0.95857 0 0)
(0.959007 0 0)
(0.959445 0 0)
(0.959883 0 0)
(0.960322 0 0)
(0.960762 0 0)
(0.961202 0 0)
(0.961642 0 0)
(0.962083 0 0)
(0.962525 0 0)
(0.962967 0 0)
(0.963409 0 0)
(0.963852 0 0)
(0.964296 0 0)
(0.96474 0 0)
(0.965185 0 0)
(0.96563 0 0)
(0.966076 0 0)
(0.966522 0 0)
(0.966969 0 0)
(0.967416 0 0)
(0.967864 0 0)
(0.968312 0 0)
(0.968761 0 0)
(0.969211 0 0)
(0.969661 0 0)
(0.970111 0 0)
(0.970562 0 0)
(0.971014 0 0)
(0.971466 0 0)
(0.971919 0 0)
(0.972372 0 0)
(0.972826 0 0)
(0.97328 0 0)
(0.973735 0 0)
(0.97419 0 0)
(0.974646 0 0)
(0.975103 0 0)
(0.97556 0 0)
(0.976018 0 0)
(0.976476 0 0)
(0.976935 0 0)
(0.977394 0 0)
(0.977854 0 0)
(0.978314 0 0)
(0.978775 0 0)
(0.979237 0 0)
(0.979699 0 0)
(0.980162 0 0)
(0.980625 0 0)
(0.981089 0 0)
(0.981553 0 0)
(0.982018 0 0)
(0.982484 0 0)
(0.98295 0 0)
(0.983417 0 0)
(0.983884 0 0)
(0.984352 0 0)
(0.98482 0 0)
(0.985289 0 0)
(0.985759 0 0)
(0.986229 0 0)
(0.9867 0 0)
(0.987171 0 0)
(0.987643 0 0)
(0.988116 0 0)
(0.988589 0 0)
(0.989063 0 0)
(0.989537 0 0)
(0.990012 0 0)
(0.990488 0 0)
(0.990964 0 0)
(0.991441 0 0)
(0.991918 0 0)
(0.992396 0 0)
(0.992875 0 0)
(0.993354 0 0)
(0.993834 0 0)
(0.994314 0 0)
(0.994795 0 0)
(0.995277 0 0)
(0.995759 0 0)
(0.996242 0 0)
(0.996725 0 0)
(0.997209 0 0)
(0.997694 0 0)
(0.998179 0 0)
(0.998665 0 0)
(0.999152 0 0)
(0.999639 0 0)
(1.00013 0 0)
(1.00062 0 0)
(1.0011 0 0)
(1.00159 0 0)
(1.00208 0 0)
(1.00258 0 0)
(1.00307 0 0)
(1.00356 0 0)
(1.00405 0 0)
(1.00455 0 0)
(1.00502 0 0)
(1.00591 0 0)
(0.99839 0 0)
(1.05615 0 0)
(1.12629 0 0)
(1.17047 0 0)
(1.19865 0 0)
(1.21865 0 0)
(1.23426 0 0)
(1.24736 0 0)
(1.25891 0 0)
(1.26946 0 0)
(1.2793 0 0)
(1.28861 0 0)
(1.29751 0 0)
(1.30608 0 0)
(1.31438 0 0)
(1.32244 0 0)
(1.3303 0 0)
(1.33798 0 0)
(1.34551 0 0)
(1.35289 0 0)
(1.36014 0 0)
(1.36728 0 0)
(1.37432 0 0)
(1.38126 0 0)
(1.38811 0 0)
(1.39489 0 0)
(1.40159 0 0)
(1.40822 0 0)
(1.41479 0 0)
(1.4213 0 0)
(1.42775 0 0)
(1.43416 0 0)
(1.44052 0 0)
(1.44683 0 0)
(1.4531 0 0)
(1.45934 0 0)
(1.46554 0 0)
(1.47171 0 0)
(1.47784 0 0)
(1.48395 0 0)
(1.49004 0 0)
(1.49609 0 0)
(1.50213 0 0)
(1.50814 0 0)
(1.51414 0 0)
(1.52011 0 0)
(1.52607 0 0)
(1.53202 0 0)
(1.53795 0 0)
(1.54387 0 0)
(1.54978 0 0)
(1.55569 0 0)
(1.56158 0 0)
(1.56746 0 0)
(1.57335 0 0)
(1.57922 0 0)
(1.5851 0 0)
(1.59097 0 0)
(1.59684 0 0)
(1.60271 0 0)
(1.60859 0 0)
(1.61447 0 0)
(1.62035 0 0)
(1.62624 0 0)
(1.63214 0 0)
(1.63805 0 0)
(1.64397 0 0)
(1.6499 0 0)
(1.65585 0 0)
(1.66181 0 0)
(1.6678 0 0)
(1.6738 0 0)
(1.67984 0 0)
(1.68589 0 0)
(1.69198 0 0)
(1.6981 0 0)
(1.70426 0 0)
(1.71047 0 0)
(1.71672 0 0)
(1.72302 0 0)
(1.72938 0 0)
(1.73581 0 0)
(1.74232 0 0)
(1.74892 0 0)
(1.75562 0 0)
(1.76244 0 0)
(1.7694 0 0)
(1.77653 0 0)
(1.78385 0 0)
(1.79141 0 0)
(1.79926 0 0)
(1.80747 0 0)
(1.81613 0 0)
(1.82534 0 0)
(1.83524 0 0)
(1.846 0 0)
(1.8578 0 0)
(1.87085 0 0)
(1.88535 0 0)
(1.90143 0 0)
(1.94515 0 0)
(1.96571 0 0)
(1.98492 0 0)
(2.003 0 0)
(2.0201 0 0)
(2.03635 0 0)
(2.05187 0 0)
(2.06673 0 0)
(2.08101 0 0)
(2.09476 0 0)
(2.10805 0 0)
(2.12091 0 0)
(2.13338 0 0)
(2.1455 0 0)
(2.15728 0 0)
(2.16876 0 0)
(2.17997 0 0)
(2.19091 0 0)
(2.20161 0 0)
(2.21208 0 0)
(2.22234 0 0)
(2.23239 0 0)
(2.24226 0 0)
(2.25195 0 0)
(2.26147 0 0)
(2.27083 0 0)
(2.28004 0 0)
(2.2891 0 0)
(2.29803 0 0)
(2.30682 0 0)
(2.31549 0 0)
(2.32404 0 0)
(2.33247 0 0)
(2.3408 0 0)
(2.34901 0 0)
(2.35713 0 0)
(2.36515 0 0)
(2.37307 0 0)
(2.38091 0 0)
(2.38865 0 0)
(2.39631 0 0)
(2.40389 0 0)
(2.4114 0 0)
(2.41882 0 0)
(2.42617 0 0)
(2.43345 0 0)
(2.44066 0 0)
(2.4478 0 0)
(2.45488 0 0)
(2.46189 0 0)
(2.46884 0 0)
(2.47573 0 0)
(2.48256 0 0)
(2.48934 0 0)
(2.49606 0 0)
(2.50273 0 0)
(2.50934 0 0)
(2.5159 0 0)
(2.52241 0 0)
(2.52888 0 0)
(2.53529 0 0)
(2.54166 0 0)
(2.54798 0 0)
(2.55426 0 0)
(2.5605 0 0)
(2.56669 0 0)
(2.57284 0 0)
(2.57895 0 0)
(2.58502 0 0)
(2.59105 0 0)
(2.59704 0 0)
(2.60299 0 0)
(2.60891 0 0)
(2.61479 0 0)
(2.62064 0 0)
(2.62645 0 0)
(2.63222 0 0)
(2.63797 0 0)
(2.64368 0 0)
(2.64935 0 0)
(2.655 0 0)
(2.66061 0 0)
(2.6662 0 0)
(2.67175 0 0)
(2.67727 0 0)
(2.68277 0 0)
(2.68823 0 0)
(2.69367 0 0)
(2.69908 0 0)
(2.70446 0 0)
(2.70982 0 0)
(2.71515 0 0)
(2.72045 0 0)
(2.72572 0 0)
(2.73097 0 0)
(2.73622 0 0)
(2.74149 0 0)
(2.74676 0 0)
(2.75188 0 0)
(2.75654 0 0)
(2.76036 0 0)
(2.76369 0 0)
(2.767 0 0)
(2.7703 0 0)
(2.7736 0 0)
(2.77688 0 0)
(2.78016 0 0)
(2.78342 0 0)
(2.78667 0 0)
(2.78992 0 0)
(2.79315 0 0)
(2.79638 0 0)
(2.79959 0 0)
(2.8028 0 0)
(2.806 0 0)
(2.80919 0 0)
(2.81236 0 0)
(2.81553 0 0)
(2.8187 0 0)
(2.82185 0 0)
(2.82499 0 0)
(2.82813 0 0)
(2.83125 0 0)
(2.83437 0 0)
(2.83748 0 0)
(2.84058 0 0)
(2.84367 0 0)
(2.84675 0 0)
(2.84983 0 0)
(2.85289 0 0)
(2.85595 0 0)
(2.859 0 0)
(2.86204 0 0)
(2.86508 0 0)
(2.8681 0 0)
(2.87112 0 0)
(2.87413 0 0)
(2.87714 0 0)
(2.88013 0 0)
(2.88312 0 0)
(2.8861 0 0)
(2.88907 0 0)
(2.89203 0 0)
(2.89499 0 0)
(2.89794 0 0)
(2.90088 0 0)
(2.90382 0 0)
(2.90675 0 0)
(2.90967 0 0)
(2.91258 0 0)
(2.91549 0 0)
(2.91839 0 0)
(2.92128 0 0)
(2.92417 0 0)
(2.92705 0 0)
(2.92992 0 0)
(2.93278 0 0)
(2.93564 0 0)
(2.93849 0 0)
(2.94134 0 0)
(2.94418 0 0)
(2.94701 0 0)
(2.94983 0 0)
(2.95265 0 0)
(2.95546 0 0)
(2.95827 0 0)
(2.96107 0 0)
(2.96386 0 0)
(2.96665 0 0)
(2.96943 0 0)
(2.9722 0 0)
(2.97497 0 0)
(2.97773 0 0)
(2.98049 0 0)
(2.98324 0 0)
(2.98598 0 0)
(2.98872 0 0)
(2.99145 0 0)
(2.99417 0 0)
(2.99689 0 0)
(2.99961 0 0)
(3.00231 0 0)
(3.00501 0 0)
(3.00771 0 0)
(3.0104 0 0)
(3.01309 0 0)
(3.01576 0 0)
(3.01844 0 0)
(3.0211 0 0)
(3.02377 0 0)
(3.02642 0 0)
(3.02907 0 0)
(3.03172 0 0)
(3.03436 0 0)
(3.03699 0 0)
(3.03962 0 0)
(3.04225 0 0)
(3.04486 0 0)
(3.04748 0 0)
(3.05008 0 0)
(3.05269 0 0)
(3.05528 0 0)
(3.05788 0 0)
(3.06046 0 0)
(3.06304 0 0)
(3.06562 0 0)
(3.06819 0 0)
(3.07076 0 0)
(3.07332 0 0)
(3.07587 0 0)
(3.07843 0 0)
(3.08097 0 0)
(3.08351 0 0)
(3.08605 0 0)
(3.08858 0 0)
(3.09111 0 0)
(3.09363 0 0)
(3.09614 0 0)
(3.09866 0 0)
(3.10116 0 0)
(3.10366 0 0)
(3.10616 0 0)
(3.10865 0 0)
(3.11114 0 0)
(3.11363 0 0)
(3.1161 0 0)
(3.11858 0 0)
(3.12105 0 0)
(3.12351 0 0)
(3.12597 0 0)
(3.12843 0 0)
(3.13088 0 0)
(3.13333 0 0)
(3.13577 0 0)
(3.13821 0 0)
(3.14064 0 0)
(3.14307 0 0)
(3.14549 0 0)
(3.14791 0 0)
(3.15033 0 0)
(3.15274 0 0)
(3.15514 0 0)
(3.15755 0 0)
(3.15995 0 0)
(3.16234 0 0)
(3.16473 0 0)
(3.16711 0 0)
(3.1695 0 0)
(3.17187 0 0)
(3.17425 0 0)
(3.17661 0 0)
(3.17898 0 0)
(3.18134 0 0)
(3.18369 0 0)
(3.18605 0 0)
(3.1884 0 0)
(3.19074 0 0)
(3.19308 0 0)
(3.19541 0 0)
(3.19775 0 0)
(3.20007 0 0)
(3.2024 0 0)
(3.20472 0 0)
(3.20703 0 0)
(3.20935 0 0)
(3.21165 0 0)
(3.21396 0 0)
(3.21626 0 0)
(3.21856 0 0)
(3.22085 0 0)
(3.22314 0 0)
(3.22542 0 0)
(3.2277 0 0)
(3.22998 0 0)
(3.23225 0 0)
(3.23452 0 0)
(3.23679 0 0)
(3.23905 0 0)
(3.24131 0 0)
(3.24357 0 0)
(3.24582 0 0)
(3.24806 0 0)
(3.25031 0 0)
(3.25255 0 0)
(3.25478 0 0)
(3.25702 0 0)
(3.25925 0 0)
(3.26147 0 0)
(3.26369 0 0)
(3.26591 0 0)
(3.26813 0 0)
(3.27034 0 0)
(3.27255 0 0)
(3.27475 0 0)
(3.27695 0 0)
(3.27915 0 0)
(3.28134 0 0)
(3.28353 0 0)
(3.28572 0 0)
(3.2879 0 0)
(3.29008 0 0)
(3.29226 0 0)
(3.29443 0 0)
(3.2966 0 0)
(3.29877 0 0)
(3.30093 0 0)
(3.30309 0 0)
(3.30525 0 0)
(3.3074 0 0)
(3.30955 0 0)
(3.3117 0 0)
(3.31384 0 0)
(3.31598 0 0)
(3.31812 0 0)
(3.32025 0 0)
(3.32238 0 0)
(3.32451 0 0)
(3.32663 0 0)
(3.32875 0 0)
(3.33087 0 0)
(3.33298 0 0)
(3.33509 0 0)
(3.3372 0 0)
(3.3393 0 0)
(3.34141 0 0)
(3.3435 0 0)
(3.3456 0 0)
(3.34769 0 0)
(3.34978 0 0)
(3.35186 0 0)
(3.35395 0 0)
(3.35603 0 0)
(3.3581 0 0)
(3.36018 0 0)
(3.36225 0 0)
(3.36431 0 0)
(3.36638 0 0)
(3.36844 0 0)
(3.3705 0 0)
(3.37255 0 0)
(3.3746 0 0)
(3.37665 0 0)
(3.3787 0 0)
(3.38074 0 0)
(3.38278 0 0)
(3.38482 0 0)
(3.38685 0 0)
(3.38888 0 0)
(3.39091 0 0)
(3.39294 0 0)
(3.39496 0 0)
(3.39698 0 0)
(3.399 0 0)
(3.40101 0 0)
(3.40302 0 0)
(3.40503 0 0)
(3.40703 0 0)
(3.40904 0 0)
(3.41104 0 0)
(3.41303 0 0)
(3.41503 0 0)
(3.41702 0 0)
(3.41901 0 0)
(3.42099 0 0)
(3.42297 0 0)
(3.42495 0 0)
(3.42693 0 0)
(3.4289 0 0)
(3.43088 0 0)
(3.43285 0 0)
(3.43481 0 0)
(3.43677 0 0)
(3.43874 0 0)
(3.44069 0 0)
(3.44265 0 0)
(3.4446 0 0)
(3.44655 0 0)
(3.4485 0 0)
(3.45044 0 0)
(3.45238 0 0)
(3.45432 0 0)
(3.45626 0 0)
(3.45819 0 0)
(3.46012 0 0)
(3.46205 0 0)
(3.46398 0 0)
(3.4659 0 0)
(3.46782 0 0)
(3.46974 0 0)
(3.47166 0 0)
(3.47357 0 0)
(3.47548 0 0)
(3.47739 0 0)
(3.47929 0 0)
(3.48119 0 0)
(3.48309 0 0)
(3.48499 0 0)
(3.48689 0 0)
(3.48878 0 0)
(3.49067 0 0)
(3.49256 0 0)
(3.49444 0 0)
(3.49632 0 0)
(3.4982 0 0)
(3.50008 0 0)
(3.50196 0 0)
(3.50383 0 0)
(3.5057 0 0)
(3.50757 0 0)
(3.50943 0 0)
(3.51129 0 0)
(3.51315 0 0)
(3.51501 0 0)
(3.51687 0 0)
(3.51872 0 0)
(3.52057 0 0)
(3.52242 0 0)
(3.52426 0 0)
(3.52611 0 0)
(3.52795 0 0)
(3.52978 0 0)
(3.53162 0 0)
(3.53345 0 0)
(3.53528 0 0)
(3.53711 0 0)
(3.53894 0 0)
(3.54076 0 0)
(3.54259 0 0)
(3.54441 0 0)
(3.54622 0 0)
(3.54804 0 0)
(3.54985 0 0)
(3.55166 0 0)
(3.55347 0 0)
(3.55527 0 0)
(3.55708 0 0)
(3.55888 0 0)
(3.56068 0 0)
(3.56247 0 0)
(3.56427 0 0)
(3.56606 0 0)
(3.56785 0 0)
(3.56963 0 0)
(3.57142 0 0)
(3.5732 0 0)
(3.57499 0 0)
(3.57676 0 0)
(3.5785 0 0)
(3.58021 0 0)
(3.58197 0 0)
(3.58408 0 0)
(3.58643 0 0)
(3.58878 0 0)
(3.59113 0 0)
(3.59348 0 0)
(3.59582 0 0)
(3.59816 0 0)
(3.60049 0 0)
(3.60282 0 0)
(3.60515 0 0)
(3.60747 0 0)
(3.60979 0 0)
(3.61211 0 0)
(3.61442 0 0)
(3.61673 0 0)
(3.61904 0 0)
(3.62135 0 0)
(3.62365 0 0)
(3.62594 0 0)
(3.62824 0 0)
(3.63053 0 0)
(3.63281 0 0)
(3.6351 0 0)
(3.63738 0 0)
(3.63966 0 0)
(3.64193 0 0)
(3.6442 0 0)
(3.64647 0 0)
(3.64873 0 0)
(3.65099 0 0)
(3.65325 0 0)
(3.6555 0 0)
(3.65776 0 0)
(3.66 0 0)
(3.66225 0 0)
(3.66449 0 0)
(3.66673 0 0)
(3.66896 0 0)
(3.6712 0 0)
(3.67343 0 0)
(3.67565 0 0)
(3.67787 0 0)
(3.68009 0 0)
(3.68231 0 0)
(3.68452 0 0)
(3.68673 0 0)
(3.68894 0 0)
(3.69115 0 0)
(3.69335 0 0)
(3.69555 0 0)
(3.69774 0 0)
(3.69993 0 0)
(3.70212 0 0)
(3.70431 0 0)
(3.70649 0 0)
(3.70867 0 0)
(3.71085 0 0)
(3.71302 0 0)
(3.71519 0 0)
(3.71736 0 0)
(3.71953 0 0)
(3.72169 0 0)
(3.72385 0 0)
(3.726 0 0)
(3.72816 0 0)
(3.73031 0 0)
(3.73245 0 0)
(3.7346 0 0)
(3.73674 0 0)
(3.73888 0 0)
(3.74101 0 0)
(3.74315 0 0)
(3.74528 0 0)
(3.7474 0 0)
(3.74953 0 0)
(3.75165 0 0)
(3.75377 0 0)
(3.75588 0 0)
(3.758 0 0)
(3.76011 0 0)
(3.76221 0 0)
(3.76432 0 0)
(3.76642 0 0)
(3.76852 0 0)
(3.77062 0 0)
(3.77271 0 0)
(3.7748 0 0)
(3.77689 0 0)
(3.77897 0 0)
(3.78105 0 0)
(3.78313 0 0)
(3.78521 0 0)
(3.78728 0 0)
(3.78936 0 0)
(3.79142 0 0)
(3.79349 0 0)
(3.79555 0 0)
(3.79761 0 0)
(3.79967 0 0)
(3.80173 0 0)
(3.80378 0 0)
(3.80583 0 0)
(3.80788 0 0)
(3.80992 0 0)
(3.81196 0 0)
(3.814 0 0)
(3.81604 0 0)
(3.81807 0 0)
(3.8201 0 0)
(3.82213 0 0)
(3.82416 0 0)
(3.82618 0 0)
(3.8282 0 0)
(3.83022 0 0)
(3.83223 0 0)
(3.83425 0 0)
(3.83626 0 0)
(3.83826 0 0)
(3.84027 0 0)
(3.84227 0 0)
(3.84427 0 0)
(3.84627 0 0)
(3.84826 0 0)
(3.85026 0 0)
(3.85225 0 0)
(3.85423 0 0)
(3.85622 0 0)
(3.8582 0 0)
(3.86018 0 0)
(3.86216 0 0)
(3.86413 0 0)
(3.86611 0 0)
(3.86807 0 0)
(3.87004 0 0)
(3.87201 0 0)
(3.87397 0 0)
(3.87593 0 0)
(3.87789 0 0)
(3.87984 0 0)
(3.88179 0 0)
(3.88374 0 0)
(3.88569 0 0)
(3.88764 0 0)
(3.88958 0 0)
(3.89152 0 0)
(3.89346 0 0)
(3.89539 0 0)
(3.89733 0 0)
(3.89926 0 0)
(3.90119 0 0)
(3.90311 0 0)
(3.90503 0 0)
(3.90696 0 0)
(3.90887 0 0)
(3.91079 0 0)
(3.9127 0 0)
(3.91462 0 0)
(3.91653 0 0)
(3.91843 0 0)
(3.92034 0 0)
(3.92224 0 0)
(3.92414 0 0)
(3.92604 0 0)
(3.92793 0 0)
(3.92982 0 0)
(3.93172 0 0)
(3.9336 0 0)
(3.93549 0 0)
(3.93737 0 0)
(3.93925 0 0)
(3.94114 0 0)
(3.94302 0 0)
(3.94489 0 0)
(3.94674 0 0)
(3.94857 0 0)
(3.95045 0 0)
(3.95254 0 0)
(3.95489 0 0)
(3.9568 0 0)
(3.95633 0 0)
(3.95369 0 0)
(3.95256 0 0)
(3.95319 0 0)
(3.95365 0 0)
(3.95407 0 0)
(3.95447 0 0)
(3.95477 0 0)
(3.95485 0 0)
(3.95475 0 0)
(3.9546 0 0)
(3.95445 0 0)
(3.9542 0 0)
(3.95377 0 0)
(3.95318 0 0)
(3.95254 0 0)
(3.95177 0 0)
(3.9509 0 0)
(3.94992 0 0)
(3.94877 0 0)
(3.94756 0 0)
(3.94624 0 0)
(3.94484 0 0)
(3.94338 0 0)
(3.94177 0 0)
(3.94 0 0)
(3.9381 0 0)
(3.93609 0 0)
(3.934 0 0)
(3.93183 0 0)
(3.92951 0 0)
(3.92704 0 0)
(3.92446 0 0)
(3.92178 0 0)
(3.91905 0 0)
(3.9162 0 0)
(3.91325 0 0)
(3.91021 0 0)
(3.907 0 0)
(3.90365 0 0)
(3.90027 0 0)
(3.89674 0 0)
(3.89301 0 0)
(3.88919 0 0)
(3.8853 0 0)
(3.88128 0 0)
(3.87718 0 0)
(3.87299 0 0)
(3.86866 0 0)
(3.8642 0 0)
(3.85967 0 0)
(3.85505 0 0)
(3.85027 0 0)
(3.84533 0 0)
(3.84026 0 0)
(3.83509 0 0)
(3.82985 0 0)
(3.82448 0 0)
(3.81903 0 0)
(3.81349 0 0)
(3.80777 0 0)
(3.80189 0 0)
(3.79587 0 0)
(3.78975 0 0)
(3.78359 0 0)
(3.77733 0 0)
(3.77099 0 0)
(3.76446 0 0)
(3.75777 0 0)
(3.75094 0 0)
(3.744 0 0)
(3.73697 0 0)
(3.72978 0 0)
(3.72249 0 0)
(3.71511 0 0)
(3.7076 0 0)
(3.69999 0 0)
(3.69227 0 0)
(3.68434 0 0)
(3.67622 0 0)
(3.66792 0 0)
(3.65953 0 0)
(3.65111 0 0)
(3.64267 0 0)
(3.63418 0 0)
(3.62565 0 0)
(3.61691 0 0)
(3.6076 0 0)
(3.59749 0 0)
(3.58681 0 0)
(3.57649 0 0)
(3.56807 0 0)
(3.56288 0 0)
(3.56012 0 0)
(3.5549 0 0)
(3.53868 0 0)
(3.50421 0 0)
(3.45549 0 0)
(3.41674 0 0)
(3.4312 0 0)
(3.54295 0 0)
(3.75172 0 0)
(4.02199 0 0)
(4.02382 0 0)
(4.02564 0 0)
(4.02747 0 0)
(4.02929 0 0)
(4.03111 0 0)
(4.03292 0 0)
(4.03474 0 0)
(4.03655 0 0)
(4.03836 0 0)
(4.04017 0 0)
(4.04197 0 0)
(4.04378 0 0)
(4.04558 0 0)
(4.04738 0 0)
(4.04917 0 0)
(4.05097 0 0)
(4.05276 0 0)
(4.05455 0 0)
(4.05634 0 0)
(4.05813 0 0)
(4.05991 0 0)
(4.06169 0 0)
(4.06347 0 0)
(4.06525 0 0)
(4.06703 0 0)
(4.0688 0 0)
(4.07058 0 0)
(4.07235 0 0)
(4.07411 0 0)
(4.07588 0 0)
(4.07764 0 0)
(4.07941 0 0)
(4.08117 0 0)
(4.08292 0 0)
(4.08468 0 0)
(4.08643 0 0)
(4.08818 0 0)
(4.08993 0 0)
(4.09168 0 0)
(4.09343 0 0)
(4.09517 0 0)
(4.09691 0 0)
(4.09865 0 0)
(4.10039 0 0)
(4.10212 0 0)
(4.10386 0 0)
(4.10559 0 0)
(4.10732 0 0)
(4.10905 0 0)
(4.11077 0 0)
(4.1125 0 0)
(4.11422 0 0)
(4.11594 0 0)
(4.11765 0 0)
(4.11937 0 0)
(4.12108 0 0)
(4.1228 0 0)
(4.12451 0 0)
(4.12621 0 0)
(4.12792 0 0)
(4.12962 0 0)
(4.13133 0 0)
(4.13303 0 0)
(4.13472 0 0)
(4.13642 0 0)
(4.13811 0 0)
(4.13981 0 0)
(4.1415 0 0)
(4.14319 0 0)
(4.14487 0 0)
(4.14656 0 0)
(4.14824 0 0)
(4.14992 0 0)
(4.1516 0 0)
(4.15328 0 0)
(4.15495 0 0)
(4.15663 0 0)
(4.1583 0 0)
(4.15997 0 0)
(4.16164 0 0)
(4.1633 0 0)
(4.16496 0 0)
(4.16661 0 0)
(4.16828 0 0)
(4.17003 0 0)
(4.17185 0 0)
(4.17341 0 0)
(4.17401 0 0)
(4.17391 0 0)
(4.17382 0 0)
(4.17372 0 0)
(4.17363 0 0)
(4.17353 0 0)
(4.17344 0 0)
(4.17334 0 0)
(4.17325 0 0)
(4.17315 0 0)
(4.17306 0 0)
(4.17296 0 0)
(4.17287 0 0)
(4.17277 0 0)
(4.17268 0 0)
(4.17259 0 0)
(4.17249 0 0)
(4.1724 0 0)
(4.1723 0 0)
(4.17221 0 0)
(4.17211 0 0)
(4.17202 0 0)
(4.17193 0 0)
(4.17183 0 0)
(4.17174 0 0)
(4.17165 0 0)
(4.17155 0 0)
(4.17146 0 0)
(4.17136 0 0)
(4.17127 0 0)
(4.17118 0 0)
(4.17108 0 0)
(4.17099 0 0)
(4.1709 0 0)
(4.1708 0 0)
(4.17071 0 0)
(4.17062 0 0)
(4.17052 0 0)
(4.17043 0 0)
(4.17034 0 0)
(4.17025 0 0)
(4.17015 0 0)
(4.17006 0 0)
(4.16997 0 0)
(4.16987 0 0)
(4.16978 0 0)
(4.16969 0 0)
(4.1696 0 0)
(4.1695 0 0)
(4.16941 0 0)
(4.16932 0 0)
(4.16923 0 0)
(4.16914 0 0)
(4.16904 0 0)
(4.16895 0 0)
(4.16886 0 0)
(4.16877 0 0)
(4.16867 0 0)
(4.16858 0 0)
(4.16849 0 0)
(4.1684 0 0)
(4.16831 0 0)
(4.16822 0 0)
(4.16812 0 0)
(4.16803 0 0)
(4.16794 0 0)
(4.16785 0 0)
(4.16776 0 0)
(4.16767 0 0)
(4.16758 0 0)
(4.16748 0 0)
(4.16739 0 0)
(4.1673 0 0)
(4.16721 0 0)
(4.16712 0 0)
(4.16703 0 0)
(4.16694 0 0)
(4.16685 0 0)
(4.16676 0 0)
(4.16667 0 0)
(4.16657 0 0)
(4.16648 0 0)
(4.16639 0 0)
(4.1663 0 0)
(4.16621 0 0)
(4.16612 0 0)
(4.16603 0 0)
(4.16594 0 0)
(4.16585 0 0)
(4.16576 0 0)
(4.16567 0 0)
(4.16558 0 0)
(4.16549 0 0)
(4.1654 0 0)
(4.16531 0 0)
(4.16522 0 0)
(4.16513 0 0)
(4.16504 0 0)
(4.16495 0 0)
(4.16486 0 0)
(4.16477 0 0)
(4.16468 0 0)
(4.16459 0 0)
(4.1645 0 0)
(4.16441 0 0)
(4.16432 0 0)
(4.16424 0 0)
(4.16415 0 0)
(4.16406 0 0)
(4.16397 0 0)
(4.16388 0 0)
(4.16379 0 0)
(4.1637 0 0)
(4.16361 0 0)
(4.16352 0 0)
(4.16343 0 0)
(4.16335 0 0)
(4.16326 0 0)
(4.16317 0 0)
(4.16308 0 0)
(4.16299 0 0)
(4.1629 0 0)
(4.16281 0 0)
(4.16273 0 0)
(4.16264 0 0)
(4.16255 0 0)
(4.16246 0 0)
(4.16237 0 0)
(4.16228 0 0)
(4.1622 0 0)
(4.16211 0 0)
(4.16202 0 0)
(4.16193 0 0)
(4.16184 0 0)
(4.16176 0 0)
(4.16167 0 0)
(4.16158 0 0)
(4.16149 0 0)
(4.16141 0 0)
(4.16132 0 0)
(4.16123 0 0)
(4.16114 0 0)
(4.16106 0 0)
(4.16097 0 0)
(4.16088 0 0)
(4.16079 0 0)
(4.16071 0 0)
(4.16062 0 0)
(4.16053 0 0)
(4.16045 0 0)
(4.16036 0 0)
(4.16027 0 0)
(4.16019 0 0)
(4.1601 0 0)
(4.16001 0 0)
(4.15993 0 0)
(4.15984 0 0)
(4.15975 0 0)
(4.15967 0 0)
(4.15958 0 0)
(4.15949 0 0)
(4.15941 0 0)
(4.15932 0 0)
(4.15923 0 0)
(4.15915 0 0)
(4.15906 0 0)
(4.15898 0 0)
(4.15889 0 0)
(4.1588 0 0)
(4.15872 0 0)
(4.15863 0 0)
(4.15855 0 0)
(4.15846 0 0)
(4.15837 0 0)
(4.15829 0 0)
(4.1582 0 0)
(4.15812 0 0)
(4.15803 0 0)
(4.15795 0 0)
(4.15786 0 0)
(4.15777 0 0)
(4.15769 0 0)
(4.1576 0 0)
(4.15752 0 0)
(4.15743 0 0)
(4.15735 0 0)
(4.15726 0 0)
(4.15718 0 0)
(4.15709 0 0)
(4.15701 0 0)
(4.15692 0 0)
(4.15684 0 0)
(4.15675 0 0)
(4.15667 0 0)
(4.15658 0 0)
(4.1565 0 0)
(4.15642 0 0)
(4.15633 0 0)
(4.15625 0 0)
(4.15616 0 0)
(4.15608 0 0)
(4.15599 0 0)
(4.15591 0 0)
(4.15582 0 0)
(4.15574 0 0)
(4.15566 0 0)
(4.15557 0 0)
(4.15549 0 0)
(4.1554 0 0)
(4.15532 0 0)
(4.15524 0 0)
(4.15515 0 0)
(4.15507 0 0)
(4.15499 0 0)
(4.1549 0 0)
(4.15482 0 0)
(4.15473 0 0)
(4.15465 0 0)
(4.15457 0 0)
(4.15448 0 0)
(4.1544 0 0)
(4.15432 0 0)
(4.15423 0 0)
(4.15415 0 0)
(4.15407 0 0)
(4.15399 0 0)
(4.1539 0 0)
(4.15382 0 0)
(4.15374 0 0)
(4.15365 0 0)
(4.15357 0 0)
(4.15349 0 0)
(4.1534 0 0)
(4.15332 0 0)
(4.15324 0 0)
(4.15316 0 0)
(4.15307 0 0)
(4.15299 0 0)
(4.15291 0 0)
(4.15283 0 0)
(4.15274 0 0)
(4.15266 0 0)
(4.15258 0 0)
(4.1525 0 0)
(4.15242 0 0)
(4.15233 0 0)
(4.15225 0 0)
(4.15217 0 0)
(4.15209 0 0)
(4.15201 0 0)
(4.15192 0 0)
(4.15184 0 0)
(4.15176 0 0)
(4.15168 0 0)
(4.1516 0 0)
(4.15152 0 0)
(4.15143 0 0)
(4.15135 0 0)
(4.15127 0 0)
(4.15119 0 0)
(4.15111 0 0)
(4.15103 0 0)
(4.15095 0 0)
(4.15086 0 0)
(4.15078 0 0)
(4.1507 0 0)
(4.15062 0 0)
(4.15054 0 0)
(4.15046 0 0)
(4.15038 0 0)
(4.1503 0 0)
(4.15022 0 0)
(4.15013 0 0)
(4.15005 0 0)
(4.14998 0 0)
(4.1499 0 0)
(4.14983 0 0)
(4.14972 0 0)
(4.14955 0 0)
(4.14938 0 0)
(4.1496 0 0)
(4.15067 0 0)
(4.15172 0 0)
(4.14828 0 0)
(4.13443 0 0)
(4.11949 0 0)
(4.15643 0 0)
(4.32661 0 0)
(4.53417 0 0)
(4.10211 0 0)
(2.58023 0 0)
(1.28588 0 0)
(0.930373 0 0)
(0.911228 0 0)
(0.910937 0 0)
(0.910449 0 0)
(0.909964 0 0)
(0.909479 0 0)
(0.908996 0 0)
(0.908514 0 0)
(0.908029 0 0)
(0.907567 0 0)
(0.90732 0 0)
(0.907257 0 0)
(0.907193 0 0)
(0.907129 0 0)
(0.907065 0 0)
(0.907002 0 0)
(0.90694 0 0)
(0.906878 0 0)
(0.906817 0 0)
(0.906756 0 0)
(0.906696 0 0)
(0.906637 0 0)
(0.906578 0 0)
(0.90652 0 0)
(0.906462 0 0)
(0.906406 0 0)
(0.90635 0 0)
(0.906295 0 0)
(0.906241 0 0)
(0.906187 0 0)
(0.906135 0 0)
(0.906083 0 0)
(0.906032 0 0)
(0.905982 0 0)
(0.905933 0 0)
(0.905885 0 0)
(0.905838 0 0)
(0.905792 0 0)
(0.905747 0 0)
(0.905703 0 0)
(0.905661 0 0)
(0.905619 0 0)
(0.905578 0 0)
(0.905538 0 0)
(0.9055 0 0)
(0.905462 0 0)
(0.905426 0 0)
(0.905391 0 0)
(0.905356 0 0)
(0.905323 0 0)
(0.905292 0 0)
(0.905261 0 0)
(0.905232 0 0)
(0.905203 0 0)
(0.905176 0 0)
(0.90515 0 0)
(0.905125 0 0)
(0.905102 0 0)
(0.905079 0 0)
(0.905058 0 0)
(0.905038 0 0)
(0.905019 0 0)
(0.905002 0 0)
(0.904985 0 0)
(0.90497 0 0)
(0.904956 0 0)
(0.904943 0 0)
(0.904931 0 0)
(0.904921 0 0)
(0.904912 0 0)
(0.904904 0 0)
(0.904897 0 0)
(0.904891 0 0)
(0.904887 0 0)
(0.904883 0 0)
(0.904881 0 0)
(0.90488 0 0)
(0.904881 0 0)
(0.904882 0 0)
(0.904885 0 0)
(0.904889 0 0)
(0.904894 0 0)
(0.9049 0 0)
(0.904907 0 0)
(0.904916 0 0)
(0.904926 0 0)
(0.904937 0 0)
(0.904949 0 0)
(0.904962 0 0)
(0.904977 0 0)
(0.904992 0 0)
(0.905009 0 0)
(0.905027 0 0)
(0.905047 0 0)
(0.905067 0 0)
(0.905089 0 0)
(0.905112 0 0)
(0.905136 0 0)
(0.905161 0 0)
(0.905188 0 0)
(0.905215 0 0)
(0.905244 0 0)
(0.905275 0 0)
(0.905306 0 0)
(0.905339 0 0)
(0.905373 0 0)
(0.905408 0 0)
(0.905445 0 0)
(0.905482 0 0)
(0.905522 0 0)
(0.905562 0 0)
(0.905604 0 0)
(0.905647 0 0)
(0.905691 0 0)
(0.905737 0 0)
(0.905783 0 0)
(0.905832 0 0)
(0.905882 0 0)
(0.905933 0 0)
(0.905985 0 0)
(0.906039 0 0)
(0.906094 0 0)
(0.906151 0 0)
(0.906209 0 0)
(0.906269 0 0)
(0.90633 0 0)
(0.906392 0 0)
(0.906456 0 0)
(0.906522 0 0)
(0.906589 0 0)
(0.906657 0 0)
(0.906728 0 0)
(0.906799 0 0)
(0.906873 0 0)
(0.906948 0 0)
(0.907024 0 0)
(0.907103 0 0)
(0.907183 0 0)
(0.907264 0 0)
(0.907348 0 0)
(0.907433 0 0)
(0.90752 0 0)
(0.907609 0 0)
(0.907699 0 0)
(0.907792 0 0)
(0.907886 0 0)
(0.907982 0 0)
(0.90808 0 0)
(0.908181 0 0)
(0.908283 0 0)
(0.908387 0 0)
(0.908493 0 0)
(0.908601 0 0)
(0.908712 0 0)
(0.908824 0 0)
(0.908939 0 0)
(0.909056 0 0)
(0.909176 0 0)
(0.909297 0 0)
(0.909421 0 0)
(0.909548 0 0)
(0.909676 0 0)
(0.909808 0 0)
(0.909941 0 0)
(0.910078 0 0)
(0.910217 0 0)
(0.910358 0 0)
(0.910503 0 0)
(0.91065 0 0)
(0.9108 0 0)
(0.910952 0 0)
(0.911108 0 0)
(0.911267 0 0)
(0.911428 0 0)
(0.911593 0 0)
(0.911761 0 0)
(0.911932 0 0)
(0.912106 0 0)
(0.912283 0 0)
(0.912464 0 0)
(0.912648 0 0)
(0.912836 0 0)
(0.913027 0 0)
(0.913222 0 0)
(0.913421 0 0)
(0.913623 0 0)
(0.913829 0 0)
(0.914039 0 0)
(0.914252 0 0)
(0.91447 0 0)
(0.914692 0 0)
(0.914918 0 0)
(0.915147 0 0)
(0.915381 0 0)
(0.91562 0 0)
(0.915862 0 0)
(0.916109 0 0)
(0.916361 0 0)
(0.916616 0 0)
(0.916877 0 0)
(0.917142 0 0)
(0.917411 0 0)
(0.917686 0 0)
(0.917964 0 0)
(0.918248 0 0)
(0.918537 0 0)
(0.91883 0 0)
(0.919128 0 0)
(0.919431 0 0)
(0.919739 0 0)
(0.920052 0 0)
(0.92037 0 0)
(0.920693 0 0)
(0.921021 0 0)
(0.921355 0 0)
(0.921693 0 0)
(0.922036 0 0)
(0.922384 0 0)
(0.922738 0 0)
(0.923096 0 0)
(0.92346 0 0)
(0.923828 0 0)
(0.924202 0 0)
(0.924581 0 0)
(0.924964 0 0)
(0.925353 0 0)
(0.925747 0 0)
(0.926145 0 0)
(0.926548 0 0)
(0.926957 0 0)
(0.92737 0 0)
(0.927787 0 0)
(0.92821 0 0)
(0.928636 0 0)
(0.929068 0 0)
(0.929504 0 0)
(0.929944 0 0)
(0.930388 0 0)
(0.930837 0 0)
(0.93129 0 0)
(0.931747 0 0)
(0.932208 0 0)
(0.932672 0 0)
(0.93314 0 0)
(0.933612 0 0)
(0.934087 0 0)
(0.934566 0 0)
(0.935048 0 0)
(0.935533 0 0)
(0.93602 0 0)
(0.936511 0 0)
(0.937004 0 0)
(0.9375 0 0)
(0.937998 0 0)
(0.938498 0 0)
(0.939 0 0)
(0.939504 0 0)
(0.94001 0 0)
(0.940517 0 0)
(0.941025 0 0)
(0.941535 0 0)
(0.942045 0 0)
(0.942557 0 0)
(0.943068 0 0)
(0.943581 0 0)
(0.944093 0 0)
(0.944605 0 0)
(0.945117 0 0)
(0.945629 0 0)
(0.94614 0 0)
(0.94665 0 0)
(0.947159 0 0)
(0.947666 0 0)
(0.948172 0 0)
(0.948677 0 0)
(0.949179 0 0)
(0.949679 0 0)
(0.950176 0 0)
(0.950671 0 0)
(0.951163 0 0)
(0.951651 0 0)
(0.952137 0 0)
(0.952618 0 0)
(0.953096 0 0)
(0.953569 0 0)
(0.954038 0 0)
(0.954502 0 0)
(0.954961 0 0)
(0.955415 0 0)
(0.955864 0 0)
(0.956307 0 0)
(0.956744 0 0)
(0.957175 0 0)
(0.957599 0 0)
(0.958016 0 0)
(0.958427 0 0)
(0.95883 0 0)
(0.959226 0 0)
(0.959614 0 0)
(0.959993 0 0)
(0.960365 0 0)
(0.960728 0 0)
(0.961082 0 0)
(0.961427 0 0)
(0.961763 0 0)
(0.962089 0 0)
(0.962405 0 0)
(0.962711 0 0)
(0.963007 0 0)
(0.963292 0 0)
(0.963566 0 0)
(0.963829 0 0)
(0.96408 0 0)
(0.96432 0 0)
(0.964548 0 0)
(0.964763 0 0)
(0.964967 0 0)
(0.965157 0 0)
(0.965335 0 0)
(0.965499 0 0)
(0.96565 0 0)
(0.965787 0 0)
(0.965911 0 0)
(0.96602 0 0)
(0.966115 0 0)
(0.966195 0 0)
(0.96626 0 0)
(0.96631 0 0)
(0.966345 0 0)
(0.966364 0 0)
(0.966368 0 0)
(0.966355 0 0)
(0.966326 0 0)
(0.966281 0 0)
(0.966219 0 0)
(0.96614 0 0)
(0.966044 0 0)
(0.965931 0 0)
(0.9658 0 0)
(0.965652 0 0)
(0.965486 0 0)
(0.965302 0 0)
(0.965101 0 0)
(0.964881 0 0)
(0.964643 0 0)
(0.964386 0 0)
(0.964112 0 0)
(0.963819 0 0)
(0.963507 0 0)
(0.963177 0 0)
(0.962829 0 0)
(0.962463 0 0)
(0.962078 0 0)
(0.961675 0 0)
(0.961255 0 0)
(0.960817 0 0)
(0.960361 0 0)
(0.959888 0 0)
(0.959399 0 0)
(0.958893 0 0)
(0.958371 0 0)
(0.957833 0 0)
(0.957281 0 0)
(0.956714 0 0)
(0.956133 0 0)
(0.955538 0 0)
(0.954932 0 0)
(0.954313 0 0)
(0.953684 0 0)
(0.953044 0 0)
(0.952395 0 0)
(0.951737 0 0)
(0.951072 0 0)
(0.950401 0 0)
(0.949724 0 0)
(0.949042 0 0)
(0.948357 0 0)
(0.947669 0 0)
(0.94698 0 0)
(0.946291 0 0)
(0.945602 0 0)
(0.944915 0 0)
(0.944231 0 0)
(0.94355 0 0)
(0.942875 0 0)
(0.942205 0 0)
(0.941542 0 0)
(0.940886 0 0)
(0.940239 0 0)
(0.939601 0 0)
(0.938974 0 0)
(0.938357 0 0)
(0.937752 0 0)
(0.937159 0 0)
(0.936579 0 0)
(0.936011 0 0)
(0.935458 0 0)
(0.934919 0 0)
(0.934394 0 0)
(0.933884 0 0)
(0.933389 0 0)
(0.932909 0 0)
(0.932445 0 0)
(0.931996 0 0)
(0.931562 0 0)
(0.931143 0 0)
(0.93074 0 0)
(0.930353 0 0)
(0.92998 0 0)
(0.929622 0 0)
(0.929279 0 0)
(0.928951 0 0)
(0.928636 0 0)
(0.928336 0 0)
(0.928049 0 0)
(0.927775 0 0)
(0.927515 0 0)
(0.927267 0 0)
(0.927031 0 0)
(0.926807 0 0)
(0.926594 0 0)
(0.926392 0 0)
(0.926201 0 0)
(0.92602 0 0)
(0.925849 0 0)
(0.925688 0 0)
(0.925535 0 0)
(0.925391 0 0)
(0.925255 0 0)
(0.925127 0 0)
(0.925007 0 0)
(0.924894 0 0)
(0.924787 0 0)
(0.924687 0 0)
(0.924593 0 0)
(0.924505 0 0)
(0.924422 0 0)
(0.924345 0 0)
(0.924272 0 0)
(0.924204 0 0)
(0.92414 0 0)
(0.92408 0 0)
(0.924024 0 0)
(0.923971 0 0)