/*--------------------------------*- C++ -*----------------------------------*\
| =========                 |                                                 |
| \\      /  F ield         | foam-extend: Open Source CFD                    |
|  \\    /   O peration     | Version:     3.1                                |
|   \\  /    A nd           | Web:         http://www.extend-project.de       |
|    \\/     M anipulation  |                                                 |
\*---------------------------------------------------------------------------*/
FoamFile
{
    version     2.0;
    format      ascii;
    class       volScalarField;
    location    "13";
    object      alpha1;
}
// * * * * * * * * * * * * * * * * * * * * * * * * * * * * * * * * * * * * * //

dimensions      [0 0 0 0 0 0 0];

internalField   nonuniform List<scalar> 
119952
(
1
1
1
1
1
1
1
1
1
1
1
1
1
1
1
0.9999999
1
1
1
0.9999999
1
1
1
1
1
1
1
1
1
1
1
0.9999999
1
1
1
1
1
1
1
1
1
1
1
1
1
1
1
1
1
1
1
1
1
1
1
1
1
1
1
1
1
1
1
1
1
1
1
1
1
1
1
1
1
0.9999999
1
1
1
1
1
1
0.9999999
1
1
1
1
1
1
1
1
1
1
1
1
0.9999999
0.9999999
1
1
1
1
1
1
1
1
1
1
1
1
1
1
1
1
1
1
1
1
0.9999999
1
1
1
1
1
1
1
1
0.9999999
1
1
1
0.9999999
1
1
1
1
1
1
1
1
1
1
1
1
1
1
1
1
1
1
1
1
1
1
1
1
1
1
1
1
1
1
1
1
0.9999999
1
0.9999998
0.9999999
1
0.9999997
0.9999999
1
1
0.9999999
1
1
1
1
1
1
1
1
1
1
1
1
1
1
1
1
1
1
1
1
1
1
1
1
1
1
1
1
1
1
1
1
1
1
1
1
1
1
1
1
1
1
1
1
1
1
1
1
1
1
1
1
1
1
1
1
1
1
1
1
0.9999997
1
1
1
1
0.9999999
1
0.9999996
0.9999999
1
1
1
1
1
1
1
1
0.9999997
1
1
0.9999996
1
1
0.9999998
1
1
1
0.9999997
0.9999997
1
0.9999999
0.9999998
0.9999999
0.9999998
0.9999998
1
0.9999999
0.9999998
0.9999997
0.9999999
0.9999999
0.9999999
1
0.9999997
0.9999998
1
1
0.9999998
1
1
1
0.9999998
1
0.9999997
0.9999997
1
1
0.9999995
0.9999999
0.9999999
0.9999994
0.9999997
1
0.9999996
0.9999995
1
1
0.9999994
0.9999998
1
1
1
0.9999994
0.9999996
1
1
1
0.9999994
0.9999997
1
1
1
1
0.9999996
0.9999996
1
1
0.9999999
0.9999973
0.9999982
1
1
1
1
1
1
1
1
1
0.9999999
0.9999995
0.9999952
0.9999438
0.9999727
0.9999999
1
1
1
1
1
1
1
1
1
1
1
1
1
1
1
1
1
1
1
1
1
1
1
1
1
1
1
1
1
1
1
1
1
1
1
1
1
1
1
1
1
1
1
1
1
1
1
1
1
1
1
1
1
1
1
1
1
1
1
1
1
1
1
1
1
1
1
1
1
1
1
1
1
1
1
1
1
1
1
1
1
1
1
1
1
1
1
1
1
1
1
1
1
0.9999999
1
1
0.9999999
0.9999999
1
1
1
0.9999999
0.9999999
1
1
1
0.9999999
1
1
0.9999999
0.9999999
1
1
1
1
1
1
0.9999999
1
1
1
1
1
1
1
1
1
1
1
0.9999999
0.9999999
0.9999999
1
1
1
1
1
1
1
1
1
1
1
1
1
1
1
1
1
1
1
1
1
1
1
1
0.9999999
0.9999999
0.9999999
1
1
0.9999998
0.9999994
0.9999971
0.9999957
0.9999967
0.9999983
0.9999995
0.9999999
1
1
1
1
1
1
1
1
1
1
1
1
1
1
1
1
1
1
1
1
1
1
1
1
1
1
1
1
1
1
1
1
1
1
1
0.9999999
0.9999999
0.9999999
1
1
1
1
1
0.9999999
0.9999999
1
1
1
1
1
1
1
1
1
1
1
1
1
1
1
1
1
1
1
1
1
1
1
1
0.9999999
1
1
1
1
1
0.9999999
0.9999999
1
1
1
0.9999999
0.9999999
1
1
1
1
1
1
0.9999999
0.9999999
1
1
1
1
1
1
1
1
1
1
1
1
1
1
1
1
1
1
1
1
1
1
1
1
1
1
1
1
1
1
1
1
1
1
1
1
1
1
1
1
1
1
1
1
1
1
1
1
1
1
1
1
1
1
1
1
1
1
1
1
1
1
1
1
1
1
1
1
1
1
1
0.9999999
0.9999991
0.9999992
0.9999999
0.9999999
1
1
1
1
1
1
0.9999998
1
1
1
1
1
1
1
1
1
1
1
0.9999999
0.9999997
0.9999997
0.9999997
0.9999999
1
1
1
1
1
1
1
1
1
0.9999998
0.9999997
0.9999999
1
1
1
1
0.9999999
0.9999999
0.9999999
1
1
1
1
0.9999999
0.9999999
1
1
1
1
1
1
1
1
0.9999998
0.9999985
0.9999914
0.999967
0.9999609
0.9999815
0.9999974
0.9999999
1
1
1
0.9999998
0.9999983
0.9999891
0.9999431
0.9997257
0.9989927
0.9988391
0.9988649
0.9995328
0.9999424
0.9999985
1
1
1
1
1
1
0.9999996
0.9999977
0.9999927
0.9999915
0.9999953
0.9999993
1
1
1
1
1
1
1
1
1
1
1
1
1
1
1
1
1
1
1
1
1
1
1
1
1
1
1
1
1
1
1
1
1
1
1
1
1
1
1
1
1
1
1
1
1
0.9999999
0.9999999
0.9999999
1
1
1
1
1
1
1
1
1
1
1
1
1
1
1
1
1
1
1
1
1
1
1
1
1
1
1
1
1
1
1
1
1
1
1
1
1
1
1
1
1
1
1
1
1
1
1
1
1
1
1
1
1
1
1
1
1
1
1
1
1
1
1
1
1
1
1
1
1
1
1
1
1
1
1
1
0.9999999
0.9999999
0.9999999
0.9999999
1
1
1
1
1
1
1
0.9999999
0.9999999
1
1
1
1
1
1
1
1
1
1
1
1
1
1
1
1
1
1
1
1
0.9999999
0.9999998
0.9999998
0.9999999
1
1
1
1
1
1
1
1
1
1
0.9999999
0.9999999
0.9999999
1
1
1
1
1
1
1
1
1
1
0.9999999
0.9999991
0.9999953
0.99998
0.9999206
0.9996789
0.9989275
0.9987559
0.9989693
0.9994174
0.9998022
0.9999677
0.9999984
1
1
1
1
1
1
1
1
1
1
1
1
1
1
1
1
1
1
0.9999999
0.9999993
0.9999957
0.9999861
0.9999717
0.9999734
0.9999839
0.9999949
0.9999994
1
1
1
1
1
1
1
1
1
1
1
1
1
1
0.9999999
0.9999999
0.9999999
1
1
1
1
1
1
1
1
1
1
1
1
1
1
1
1
1
1
1
1
1
1
1
1
0.9999999
1
1
1
1
1
1
1
1
1
1
1
1
1
1
1
1
1
1
0.9999999
0.9999999
0.9999999
1
1
1
1
1
1
1
1
1
1
0.9999999
0.9999998
0.9999998
0.9999999
1
1
1
1
1
1
1
1
1
1
1
1
1
1
1
1
1
1
1
1
1
1
1
1
1
1
1
1
1
1
1
1
1
0.9999998
0.9999993
0.9999993
0.9999995
0.9999998
0.9999999
1
1
1
1
1
1
1
1
1
1
1
1
1
1
1
1
1
1
0.9999998
0.9999978
0.9999819
0.999957
0.9999563
0.9999636
0.9999758
0.9999889
0.9999972
0.9999998
1
1
1
1
1
1
1
1
1
1
1
0.9999998
0.9999997
0.9999998
0.9999999
1
1
1
1
1
1
1
1
1
1
1
1
1
0.9999999
0.9999999
1
1
1
1
1
1
1
1
1
1
1
0.9999998
0.9999998
0.9999999
1
1
1
0.9999999
0.9999992
0.9999942
0.9999615
0.9998484
0.9998317
0.9999257
0.9999905
0.9999997
1
1
1
0.9999995
0.9999943
0.9999443
0.9995344
0.998155
0.9978635
0.9983812
0.9995518
0.9999551
0.9999958
0.9999993
1
1
1
1
1
1
0.9999994
0.999994
0.9999608
0.9999425
0.9999717
0.9999955
0.9999989
0.999998
0.9999979
0.9999988
0.9999998
1
1
1
1
1
1
1
1
1
1
1
1
1
1
1
1
1
1
1
1
1
1
1
1
1
1
1
1
1
1
1
1
1
1
1
1
1
1
1
1
1
0.9999999
0.9999997
0.9999993
0.9999992
0.9999992
0.9999992
0.9999995
0.9999999
1
1
1
1
1
1
1
1
1
1
1
1
1
1
1
1
1
1
1
1
1
1
1
1
1
1
1
1
1
1
1
1
1
1
1
1
1
1
1
1
1
1
1
1
1
1
1
1
1
1
1
1
1
1
1
1
0.9999999
0.9999999
0.9999999
0.9999999
0.9999999
1
1
1
1
1
1
1
1
1
1
1
1
1
1
1
1
1
1
1
1
1
1
1
1
0.9999999
0.9999998
0.9999998
0.9999998
0.9999999
1
1
1
1
1
1
1
0.9999999
0.9999999
0.9999999
1
1
1
1
1
1
1
1
1
1
1
1
1
1
1
1
1
1
0.9999998
0.9999997
0.9999997
0.9999998
1
1
1
1
1
1
1
1
1
1
0.9999999
0.9999999
0.9999999
1
1
1
1
1
1
0.9999999
0.9999982
0.9999801
0.9999173
0.999835
0.999652
0.9988596
0.9955087
0.981571
0.9560073
0.957228
0.9756529
0.9942681
0.9996207
0.9999951
1
1
1
1
1
0.9999999
0.9999999
0.9999999
1
1
1
1
1
1
1
1
1
0.9999993
0.9999872
0.9998876
0.9994569
0.9989445
0.9990368
0.9994953
0.9998886
0.9999907
0.9999998
1
1
1
1
1
1
1
1
1
1
0.9999999
0.9999999
1
1
1
1
1
1
1
0.9999999
0.9999999
1
1
1
1
1
1
1
1
0.9999999
0.9999999
0.9999999
1
1
1
1
1
1
1
1
1
1
0.9999999
1
1
1
1
1
1
1
1
1
1
1
1
1
1
0.9999999
0.9999999
1
1
1
1
1
1
1
1
1
1
1
1
1
1
1
0.9999999
0.9999996
0.9999996
0.9999997
0.9999999
1
1
1
1
1
1
1
1
1
1
1
1
1
1
1
1
1
1
1
1
1
1
1
1
1
1
1
1
1
1
1
1
0.9999999
0.9999994
0.9999993
0.9999993
0.9999997
0.9999999
1
1
1
1
1
1
1
1
1
1
1
1
1
1
1
1
1
0.9999999
0.9999989
0.9999831
0.9997837
0.999034
0.9987867
0.9991468
0.9997317
0.9999755
0.9999996
1
1
1
1
1
1
1
1
1
1
1
1
1
0.9999999
1
1
1
1
1
1
1
0.9999999
0.9999999
0.9999999
1
1
1
1
0.9999998
0.9999998
0.9999999
1
1
1
1
1
1
1
1
1
0.9999999
0.9999996
0.9999996
0.9999998
1
1
1
0.9999993
0.9999887
0.9998903
0.9994663
0.9993286
0.9996675
0.9999501
0.9999983
1
1
0.9999998
0.9999984
0.9999833
0.999814
0.9982669
0.9946913
0.9965868
0.9991879
0.9999343
0.9999986
1
1
1
1
1
1
1
1
0.9999995
0.9999931
0.9999376
0.9998559
0.9999111
0.9999807
0.999998
0.9999883
0.999982
0.9999872
0.9999971
0.9999998
0.9999999
0.9999998
0.9999997
0.9999996
0.9999997
0.9999999
1
1
1
1
1
1
1
1
1
1
1
1
1
1
1
1
1
1
1
1
1
1
1
1
1
1
1
1
1
1
1
1
1
1
1
1
0.9999999
0.9999999
0.9999997
0.9999985
0.9999949
0.9999928
0.9999938
0.9999964
0.9999989
0.9999999
1
1
1
1
1
1
1
1
1
1
1
1
1
1
1
1
1
1
1
1
1
1
1
1
1
1
1
1
1
1
1
1
1
1
1
1
1
1
1
1
1
1
1
1
1
1
1
1
1
1
1
1
1
1
1
1
1
1
1
1
1
1
1
1
1
1
0.9999999
0.9999998
0.9999998
0.9999998
0.9999999
1
1
1
1
1
1
1
1
1
1
1
1
1
1
1
1
1
1
1
1
1
1
1
1
0.9999999
0.9999998
0.9999998
0.9999998
0.9999999
1
1
1
1
1
1
1
0.9999999
0.9999999
1
1
1
1
1
1
1
1
1
1
1
1
1
1
1
1
1
1
0.9999998
0.9999997
0.9999998
1
1
1
1
1
1
1
1
1
1
0.9999999
0.9999999
1
1
1
1
1
0.9999998
0.9999956
0.9999445
0.9997489
0.9993462
0.9986241
0.9978764
0.9976077
0.995268
0.9802505
0.891686
0.8663672
0.8663672
0.9095766
0.9824837
0.9991612
0.9999919
1
1
1
1
1
0.9999999
0.9999999
0.9999999
1
1
1
1
1
1
1
0.9999999
0.9999979
0.9999585
0.9995593
0.9971296
0.9927549
0.9933724
0.9973519
0.9995567
0.9999703
0.9999992
1
1
1
0.9999999
0.9999998
0.9999996
0.9999993
0.9999983
0.9999954
0.999991
0.9999919
0.9999977
0.9999999
1
1
1
1
1
1
1
0.9999999
0.9999999
0.9999999
1
1
1
1
1
1
1
1
1
1
1
0.9999999
0.9999999
1
1
1
1
1
1
1
0.9999999
1
1
1
1
1
1
1
1
1
1
1
1
1
1
1
1
0.9999999
0.9999999
1
1
1
1
1
1
1
1
1
1
1
1
1
1
0.9999999
0.9999996
0.9999998
0.9999999
1
1
1
1
1
1
1
1
1
1
1
1
1
1
1
1
1
1
1
1
1
1
1
1
1
1
1
1
1
1
1
1
1
1
0.9999999
0.9999997
0.9999997
0.9999999
1
1
1
1
1
1
1
1
0.9999999
0.9999999
0.9999999
0.9999999
1
1
1
1
1
0.9999999
0.9999991
0.9999852
0.9997644
0.9971228
0.992768
0.9954399
0.9987187
0.9998649
0.9999962
1
1
1
1
1
1
1
1
1
1
1
1
1
1
1
1
1
1
1
1
0.9999999
0.9999998
0.9999998
0.9999999
1
1
1
0.9999998
0.9999997
0.9999997
0.9999999
1
1
1
1
1
1
1
1
1
1
0.9999997
0.9999996
0.9999998
1
1
0.9999999
0.9999973
0.9999394
0.9991268
0.9975664
0.9985488
0.9996982
0.9999837
0.9999998
1
0.9999993
0.9999919
0.9999213
0.9992892
0.9949735
0.9862034
0.9906905
0.9978135
0.9998498
0.9999978
1
1
1
1
1
1
1
1
0.9999999
0.9999972
0.9999564
0.9997447
0.9997291
0.9998809
0.9999849
0.9999985
0.9999962
0.999985
0.9999883
0.9999968
0.9999987
0.9999984
0.999997
0.9999948
0.9999948
0.9999977
0.9999997
1
1
1
1
1
1
1
1
1
1
1
1
1
1
1
1
1
1
1
1
1
1
1
1
1
1
1
1
1
1
1
1
1
1
1
1
1
1
1
0.9999999
0.9999994
0.9999933
0.9999618
0.9999523
0.9999697
0.9999923
0.9999994
1
1
1
1
1
1
1
1
1
1
1
1
1
1
1
1
1
1
1
1
1
1
1
1
1
1
1
1
1
1
1
1
1
1
1
1
1
1
1
1
1
1
1
1
1
1
1
1
1
1
1
1
1
1
1
1
1
1
1
1
1
1
1
1
1
1
1
1
1
1
1
1
1
1
1
1
1
0.9999999
0.9999997
0.9999997
0.9999997
0.9999999
1
1
1
1
1
1
1
1
1
1
1
1
1
1
1
1
1
1
1
1
1
1
1
1
0.9999999
0.9999999
1
1
1
1
1
1
1
1
1
1
1
1
1
1
1
1
1
1
1
1
1
1
1
1
1
1
1
1
1
0.9999999
0.9999999
0.9999999
1
1
1
1
1
1
1
1
1
1
0.9999999
1
1
1
1
0.9999999
0.9999913
0.9997139
0.996945
0.9934228
0.9956112
0.9966167
0.9941583
0.9918127
0.9875907
0.9460934
0.7926819
0.881531
0.9679545
0.991175
0.9980923
0.9998623
0.9999982
1
1
1
1
1
1
0.9999999
1
1
1
1
1
1
0.9999999
0.9999994
0.999994
0.9999294
0.998981
0.9955436
0.9839944
0.9846678
0.9935608
0.9986951
0.9998671
0.9999926
0.9999991
0.9999995
0.9999995
0.9999995
0.999999
0.9999953
0.9999744
0.9998696
0.9996241
0.9996301
0.9998742
0.9999895
0.9999997
1
1
1
1
1
1
1
1
1
1
1
1
1
1
1
1
1
1
1
1
1
1
1
0.9999999
0.9999998
0.9999999
1
1
1
1
1
0.9999999
0.9999999
1
1
1
1
1
1
0.9999999
0.9999999
1
1
1
1
1
1
1
1
1
1
0.9999999
0.9999999
1
1
1
1
1
1
1
1
1
1
0.9999999
0.9999999
1
1
1
1
1
1
1
0.9999999
0.9999999
0.9999999
1
1
1
1
1
1
1
1
1
1
1
1
1
1
1
1
1
1
1
1
1
1
1
1
1
1
1
1
1
1
1
1
1
1
1
1
1
1
1
0.9999999
0.9999995
0.9999993
0.9999995
0.9999998
1
1
1
1
1
0.9999992
0.9999839
0.9996887
0.9957861
0.9926666
0.9926666
0.9943863
0.9986573
0.9999275
0.9999994
1
1
1
1
1
0.9999999
0.9999998
0.9999996
0.9999994
0.9999994
0.9999996
0.9999999
1
1
0.9999999
0.9999998
0.9999998
0.9999999
1
1
0.9999999
0.9999999
0.9999999
1
1
1
0.9999999
0.9999997
0.9999997
0.9999999
1
1
1
0.9999998
0.9999998
0.9999999
1
1
1
1
0.9999999
0.9999999
1
1
1
0.9999997
0.999991
0.9997508
0.9975338
0.9968724
0.998057
0.9996352
0.9999825
0.9999998
0.9999998
0.999994
0.9998647
0.9981236
0.983066
0.953574
0.9684554
0.9926431
0.9995248
0.9999937
0.9999997
0.9999992
0.9999966
0.9999945
0.9999953
0.9999966
0.9999973
0.9999974
0.9999974
0.9999964
0.9999835
0.9998643
0.9994661
0.9994348
0.9997058
0.9999531
0.9999978
0.9999985
0.9999984
0.9999982
0.9999942
0.999978
0.9999381
0.9999199
0.9999347
0.9999788
0.9999983
0.9999999
0.9999999
0.9999999
0.9999998
0.9999998
0.9999999
1
1
1
1
1
1
1
1
1
1
1
1
1
1
1
1
1
1
1
1
1
1
1
1
1
1
1
1
1
1
1
1
1
1
1
0.9999999
0.9999979
0.9999589
0.9998714
0.9998828
0.9999492
0.9999911
0.9999995
1
1
1
1
1
1
1
1
1
1
1
1
1
1
1
1
1
1
1
1
1
1
1
1
1
1
1
1
1
1
1
1
1
1
1
1
1
1
1
1
1
1
1
1
1
1
1
1
1
1
1
1
1
1
1
1
1
1
1
1
1
1
1
1
1
1
1
1
1
1
1
1
1
1
1
1
1
1
1
1
1
1
1
0.9999999
0.9999998
0.9999999
1
1
1
1
1
1
1
1
1
1
1
1
1
1
1
1
1
1
1
1
1
1
1
1
1
1
1
1
1
1
1
1
1
1
1
1
1
1
1
1
1
1
1
1
1
1
1
1
1
1
1
1
1
1
1
1
1
1
1
1
1
1
1
1
1
1
1
1
1
1
1
1
1
0.9999985
0.9998329
0.995488
0.9719247
0.974654
0.9921115
0.9964524
0.9947761
0.9840934
0.9530298
0.8465344
0.7615143
0.8039393
0.8965104
0.967575
0.9946617
0.9996485
0.9999929
0.9999999
1
1
1
1
1
1
1
1
1
1
1
0.9999997
0.9999867
0.9998841
0.9996646
0.9983407
0.9955557
0.9848301
0.9832948
0.9873777
0.993242
0.9939361
0.9951771
0.9970773
0.9986429
0.9995458
0.9999084
0.9999737
0.999968
0.9998592
0.9988438
0.9965228
0.9976734
0.9994658
0.9999609
0.9999991
1
1
1
1
1
1
1
1
1
1
1
1
0.9999999
0.9999998
0.9999999
1
1
1
1
1
1
1
1
1
0.9999997
0.9999996
0.9999997
0.9999999
1
1
1
1
1
0.9999999
0.9999999
1
1
1
1
1
0.9999999
0.9999999
0.9999999
1
1
1
1
1
1
1
1
1
1
0.9999999
0.9999999
0.9999999
1
1
1
1
1
1
1
1
0.9999999
0.9999999
0.9999999
0.9999999
1
1
1
1
1
0.9999997
0.9999996
0.9999998
1
1
1
1
1
1
1
1
1
1
1
1
1
1
1
1
1
1
1
1
1
1
1
1
1
1
1
1
1
0.9999999
0.9999999
0.9999999
0.9999999
1
1
1
1
1
1
0.9999998
0.9999985
0.9999976
0.9999984
0.9999996
1
1
1
1
1
0.9999999
0.9999976
0.99996
0.9994026
0.9949823
0.9926666
0.9951085
0.9989301
0.9999385
0.9999993
1
1
0.9999998
0.9999993
0.9999972
0.9999899
0.9999724
0.9999649
0.9999768
0.9999949
0.9999997
1
1
1
0.9999998
0.9999998
0.9999999
1
1
1
1
1
1
0.9999999
0.9999998
0.9999998
0.9999999
1
1
1
1
1
0.9999997
0.9999995
0.9999995
0.9999998
1
1
1
1
1
1
1
1
1
0.9999996
0.9999876
0.9996376
0.997322
0.9967978
0.9986637
0.999784
0.9999901
0.9999998
0.999999
0.9999749
0.9993328
0.9829194
0.9160903
0.910751
0.9635171
0.9952638
0.9998501
0.9999818
0.9999736
0.9999521
0.999835
0.9994333
0.9992718
0.9994424
0.999687
0.9997865
0.9997951
0.9997821
0.9996873
0.9992828
0.9983439
0.9982416
0.9992937
0.9999241
0.9999978
0.9999985
0.9999985
0.9999985
0.9999843
0.9997657
0.9992124
0.9993926
0.9998141
0.9999836
0.9999993
0.9999992
0.9999977
0.9999952
0.9999952
0.9999978
0.9999998
1
1
1
1
1
1
1
1
1
1
1
1
1
1
1
1
1
1
1
1
1
1
1
1
1
1
1
1
1
1
1
1
1
1
1
1
0.9999992
0.999988
0.9999083
0.9998714
0.9998873
0.9999622
0.9999959
1
1
1
1
1
1
1
1
1
1
1
1
1
1
1
1
1
1
1
1
1
1
1
1
1
1
1
1
1
1
1
1
1
1
1
1
1
1
1
1
1
1
1
1
1
1
1
1
1
1
1
1
1
1
1
1
1
1
1
1
1
1
1
1
1
1
1
1
1
1
1
1
1
1
1
1
1
1
1
1
1
1
1
1
1
1
1
1
1
1
1
1
1
1
1
1
1
1
1
1
1
1
1
1
1
1
1
1
1
1
1
1
1
1
1
1
1
1
1
1
1
1
1
1
0.9999999
0.9999997
0.9999996
0.9999996
0.9999998
0.9999999
0.9999999
0.9999998
0.9999987
0.9999925
0.9999769
0.9999683
0.9999764
0.9999905
0.9999986
0.9999999
1
1
0.9999999
0.9999999
0.9999998
0.9999998
0.9999998
0.9999999
0.9999999
1
1
1
1
1
1
1
1
1
1
0.9999926
0.9981981
0.9586807
0.9471557
0.9732545
0.9897196
0.9897101
0.9934668
0.97571
0.8048813
0.3395606
0.09394986
0.0908684
0.1899444
0.6249603
0.9373001
0.9956319
0.9998482
0.9999973
1
1
1
1
1
1
0.9999999
0.9999999
0.9999999
1
1
0.9999965
0.9997351
0.9969906
0.995657
0.9891661
0.9936479
0.9959588
0.989629
0.9758984
0.9402045
0.8555688
0.8412895
0.8715495
0.924932
0.9687977
0.9915822
0.9985404
0.9987711
0.995842
0.9900958
0.994272
0.9987036
0.9998897
0.9999979
1
1
1
1
1
1
1
1
1
0.9999999
0.9999998
0.9999998
0.9999999
0.9999999
0.9999998
0.9999998
0.9999999
1
1
1
1
1
1
1
1
0.9999997
0.9999996
0.9999997
0.9999999
1
1
1
1
1
1
1
1
1
1
1
1
0.9999999
0.9999999
0.9999999
1
1
1
1
0.9999999
1
1
1
1
1
1
1
1
1
1
0.9999999
0.9999999
0.9999999
0.9999999
1
1
1
1
0.9999999
0.9999999
0.9999999
1
1
1
1
0.9999999
0.9999995
0.9999996
0.9999998
1
1
1
1
1
1
1
1
1
1
1
1
1
1
1
1
1
1
1
1
1
1
1
1
1
1
1
0.9999999
0.9999995
0.9999992
0.9999994
0.9999998
1
1
1
1
0.9999999
0.9999998
0.9999988
0.9999953
0.999994
0.9999969
0.9999995
1
1
1
1
1
1
0.9999995
0.9999912
0.9998945
0.9993158
0.9983054
0.9984673
0.9993921
0.9999311
0.9999974
0.9999973
0.9999911
0.9999718
0.9999134
0.9997385
0.9994839
0.9995273
0.9998259
0.9999816
0.9999996
1
1
1
1
1
0.9999999
1
1
1
1
1
0.9999999
0.9999994
0.9999987
0.9999991
0.9999998
1
1
1
1
1
1
0.9999997
0.9999995
0.9999996
0.9999999
1
1
1
1
1
1
1
1
1
1
0.9999997
0.9999901
0.9997107
0.9967605
0.9970448
0.9990625
0.9999096
0.999998
0.9999973
0.9999514
0.9989008
0.9743877
0.9115531
0.910751
0.9593425
0.9942702
0.9996276
0.9990921
0.997001
0.9965573
0.9972068
0.9963903
0.9883748
0.9875433
0.9909802
0.9934928
0.9918491
0.973788
0.9518081
0.9587862
0.9802715
0.9967613
0.9998458
0.9999782
0.9999862
0.9999921
0.9999984
0.9999978
0.9999788
0.9995898
0.9992036
0.999324
0.9997985
0.999978
0.9999806
0.9999609
0.9999279
0.9999392
0.9999822
0.9999987
1
1
1
1
1
1
1
1
1
1
1
1
1
1
1
1
1
1
1
1
1
0.9999999
1
1
1
1
1
1
1
1
1
1
1
1
1
1
1
0.9999999
0.9999993
0.9999916
0.9999499
0.9999435
0.9999704
0.9999927
1
1
1
1
1
1
1
1
1
1
1
1
1
1
1
1
1
1
1
1
1
1
1
1
1
1
1
1
1
1
1
1
1
1
1
1
1
1
1
1
1
1
1
1
1
1
1
1
1
1
1
1
1
1
1
1
1
1
1
1
1
1
1
1
1
1
1
1
1
1
1
1
1
1
1
1
1
1
1
1
1
1
1
1
1
1
1
1
1
1
1
1
1
1
1
1
1
1
1
1
1
1
1
1
1
1
1
0.9999999
0.9999999
0.9999998
0.9999998
0.9999998
0.9999999
0.9999999
0.9999999
0.9999999
0.9999996
0.9999986
0.999997
0.9999955
0.9999944
0.9999938
0.9999939
0.9999955
0.9999981
0.9999986
0.9999982
0.9999964
0.9999922
0.9999854
0.9999761
0.9999678
0.9999659
0.9999685
0.9999802
0.9999923
0.9999944
0.9999938
0.9999905
0.9999817
0.9999619
0.9999167
0.9998435
0.9998416
0.9999058
0.9999708
0.9999784
0.9999639
0.9998579
0.9993417
0.9976868
0.9966006
0.9975072
0.999156
0.9999067
0.99999
0.9999903
0.9999889
0.9999827
0.9999634
0.9999176
0.9998462
0.9998132
0.9998527
0.9999621
0.9999979
0.9999996
0.9999995
0.9999989
0.9999971
0.9999939
0.9999933
0.9999965
0.9999997
0.9999998
0.9999908
0.9997308
0.9908576
0.9504229
0.9777777
0.9728091
0.8966683
0.8304949
0.9390718
0.9552
0.6235604
0.09524654
0.01802982
0.01807308
0.01880684
0.04367349
0.2098296
0.7302221
0.9734101
0.9993468
0.999997
1
1
0.9999998
0.9999995
0.9999995
0.9999995
0.9999994
0.9999995
0.9999995
0.9999971
0.9999087
0.9983533
0.9849079
0.9878427
0.995847
0.9959595
0.995969
0.9760319
0.84059
0.5357939
0.2096463
0.119102
0.132269
0.175328
0.3989509
0.804135
0.9724313
0.9898442
0.9864681
0.9879522
0.996197
0.999647
0.9999935
1
1
1
1
1
1
1
0.9999999
0.9999994
0.9999972
0.9999957
0.9999979
0.9999997
1
1
0.9999998
0.9999998
0.9999999
1
1
1
1
1
1
1
1
0.9999999
0.9999997
0.9999997
0.9999999
1
1
1
1
1
1
1
1
1
1
1
1
1
0.9999999
0.9999999
1
1
1
1
0.9999999
1
1
1
1
1
1
1
1
1
1
1
0.9999999
0.9999999
1
1
1
1
1
1
1
1
1
1
1
0.9999999
0.9999993
0.9999988
0.9999989
0.9999992
0.9999996
0.9999999
1
1
1
1
1
1
1
1
1
1
1
1
1
1
1
1
1
1
1
1
1
1
1
1
1
0.9999999
0.9999993
0.9999979
0.9999984
0.9999994
0.9999999
1
1
0.9999999
0.9999986
0.9999926
0.9999801
0.9999785
0.9999849
0.9999961
0.9999997
1
1
1
1
1
0.9999997
0.9999966
0.9999763
0.9998951
0.999677
0.9992684
0.999091
0.9994334
0.9998874
0.9999905
0.9999545
0.9996513
0.998258
0.9951715
0.9941638
0.9960307
0.9990673
0.999945
0.9999994
1
1
0.9999999
0.9999999
0.9999999
0.9999999
0.9999999
0.9999999
0.9999999
0.9999999
0.9999997
0.9999987
0.9999938
0.9999913
0.9999958
0.9999993
1
1
1
1
1
1
1
0.9999996
0.9999996
0.9999998
1
1
1
1
0.9999999
0.9999999
0.9999998
0.9999998
0.9999998
0.9999997
0.9999986
0.9999792
0.9996776
0.9966497
0.9942089
0.9971728
0.9995523
0.9999834
0.9999985
0.9999947
0.9999234
0.9987815
0.9886448
0.9707824
0.9741685
0.9886991
0.9985175
0.9993451
0.9962709
0.967582
0.9334323
0.9475315
0.98326
0.9881698
0.9528558
0.7196377
0.6870291
0.7004183
0.6871634
0.6868563
0.7495947
0.9244632
0.9932197
0.9998505
0.9999931
0.9999953
0.9999959
0.9999984
0.999998
0.999987
0.9999252
0.999825
0.99965
0.9997035
0.9997004
0.9994779
0.9992623
0.9995456
0.999913
0.9999957
1
1
1
0.9999999
0.9999998
0.9999997
0.9999998
0.9999999
1
1
1
1
1
1
1
1
1
1
1
1
1
1
1
0.9999999
1
1
1
1
1
1
1
1
1
1
1
1
1
1
1
0.9999999
0.9999995
0.9999985
0.9999985
0.9999991
0.9999925
1
1
1
1
0.9999999
1
1
1
1
1
0.9999999
0.9999999
1
1
1
1
1
1
0.9999999
0.9999998
0.9999999
1
1
1
1
1
0.9999999
1
1
1
1
0.9999999
1
1
1
1
1
1
1
1
1
1
1
1
1
1
1
1
1
1
1
1
1
1
1
1
1
1
1
1
1
1
1
1
1
1
1
1
1
1
1
1
1
1
1
1
1
1
1
1
1
1
1
1
1
0.9999999
0.9999998
0.9999999
0.9999999
1
1
1
1
1
1
1
1
1
1
1
1
1
1
1
1
1
1
1
1
1
0.9999999
0.9999998
0.9999998
0.9999997
0.9999997
0.9999997
0.9999997
0.9999991
0.9999959
0.9999848
0.9999563
0.9998961
0.9998129
0.9997842
0.999792
0.999831
0.9999026
0.9999535
0.9999574
0.999933
0.9997857
0.9993163
0.998442
0.9977028
0.9976097
0.9979054
0.9988176
0.9995847
0.9997595
0.9997497
0.9996278
0.9990874
0.9975446
0.99499
0.9937491
0.9940675
0.9959407
0.9985613
0.9995719
0.9996005
0.9994984
0.9990212
0.9976489
0.9944375
0.9908791
0.9910821
0.9947725
0.9986223
0.9992968
0.9991136
0.9968284
0.9813571
0.9418874
0.9317407
0.957169
0.9901305
0.9985049
0.9990992
0.9991451
0.9991452
0.9989965
0.9980238
0.9941065
0.9885086
0.9902588
0.9971637
0.9997955
0.9999904
0.9999898
0.9999724
0.9998591
0.9993913
0.9992357
0.9996707
0.9999627
0.9999967
0.9999993
0.9999984
0.999858
0.9937426
0.9704424
0.9776861
0.9777946
0.9116012
0.4637374
0.2393214
0.5586994
0.9335972
0.9015458
0.3308859
0.02721006
0.01812376
0.0181333
0.01813419
0.02100953
0.1470507
0.7123353
0.9756578
0.9995618
0.9999981
0.9999996
0.9999988
0.999998
0.9999975
0.9999948
0.9999887
0.9999948
0.9999956
0.9999544
0.997538
0.9893546
0.9937083
0.9959513
0.9959513
0.9959513
0.9914984
0.9518732
0.5012632
0.07246188
0.006671946
0.006349361
0.006456905
0.01045367
0.03438509
0.1045648
0.2571577
0.6238553
0.9122787
0.9856633
0.998368
0.9999382
0.9999995
1
1
1
1
1
0.9999998
0.9999983
0.9999869
0.9999587
0.9999685
0.9999922
0.9999993
1
1
1
0.9999999
1
1
1
1
1
1
1
1
1
1
1
0.9999999
0.9999998
0.9999999
1
1
1
1
1
1
0.9999999
0.9999999
0.9999999
1
1
1
1
1
1
1
1
1
1
1
0.9999999
1
1
1
1
1
1
1
1
1
1
1
1
1
1
1
1
1
1
1
1
1
1
1
1
0.9999995
0.9999928
0.9999843
0.9999852
0.9999889
0.999994
0.9999978
0.9999995
0.9999999
1
1
1
1
1
1
1
1
1
1
1
1
1
1
1
1
1
1
1
1
1
1
1
0.9999993
0.999996
0.9999963
0.9999986
0.9999998
1
1
0.9999996
0.9999933
0.9999335
0.9998372
0.9998792
0.9999624
0.9999967
0.9999999
1
1
1
1
1
0.9999991
0.9999815
0.9996963
0.9973402
0.9913212
0.9908578
0.9946387
0.9989581
0.9999495
0.9999854
0.9998242
0.9974195
0.9773562
0.9565922
0.9721546
0.9933686
0.9995999
0.9999944
0.9999965
0.9999918
0.9999713
0.9998948
0.9997591
0.9997937
0.9999375
0.9999946
0.9999998
0.9999997
0.9999985
0.9999911
0.9999642
0.999962
0.9999855
0.9999984
1
1
1
1
1
1
1
1
0.9999999
0.9999998
0.9999999
1
1
1
0.9999997
0.999998
0.9999944
0.9999931
0.9999939
0.9999937
0.9999901
0.9999672
0.9997102
0.9964067
0.9902341
0.9912031
0.995037
0.9984384
0.9996123
0.9997483
0.9998239
0.9993785
0.9986097
0.9989646
0.9994282
0.9988276
0.9872465
0.9779996
0.9871206
0.9885939
0.9365773
0.8275519
0.8274561
0.8666809
0.9682317
0.991919
0.9888432
0.9810721
0.9138867
0.697652
0.6868563
0.6868563
0.8265446
0.976934
0.999323
0.9999852
0.9999958
0.9999981
0.9999984
0.999998
0.9999977
0.9999964
0.999966
0.9996179
0.9974973
0.9933613
0.9939254
0.9975017
0.9997008
0.9999905
0.9999999
1
1
1
0.9999998
0.9999981
0.9999974
0.9999986
0.9999998
1
1
1
1
1
1
1
1
1
1
1
1
1
1
1
1
1
1
1
1
1
1
1
1
1
1
1
1
1
1
1
1
0.9999999
0.9999995
0.9999997
0.9999997
0.9999986
1
1
1
1
1
1
1
1
1
1
0.9999996
0.9999999
1
1
1
1
1
1
1
1
1
1
1
1
1
1
1
1
1
0.9999999
0.9999998
0.9999999
1
1
1
1
1
1
1
1
1
1
1
1
0.9999999
1
1
1
1
1
1
1
1
1
1
1
1
1
1
1
1
1
1
1
1
1
1
1
1
1
1
1
1
1
1
1
1
1
1
1
1
1
1
1
1
1
1
1
1
1
1
1
1
1
1
1
1
1
0.9999999
0.9999997
0.9999997
0.9999997
0.9999999
1
1
1
1
1
1
1
1
1
1
1
1
1
1
1
1
0.9999999
0.9999994
0.9999944
0.9999707
0.9999069
0.9998296
0.9997903
0.9997647
0.9997513
0.9997638
0.9998039
0.9998011
0.9995783
0.9984183
0.995079
0.9894055
0.9825425
0.977103
0.9768456
0.9800956
0.9884478
0.9947159
0.9960765
0.9961268
0.993803
0.9767816
0.9239508
0.879356
0.8838317
0.9249413
0.967417
0.9792585
0.9842704
0.9876999
0.9867235
0.9767157
0.9322201
0.8296141
0.796508
0.8324689
0.9262812
0.9836465
0.9900041
0.9890549
0.9871382
0.9781093
0.9299805
0.8299662
0.8304239
0.9204095
0.9862755
0.9834765
0.9648981
0.9512872
0.912232
0.604803
0.4164739
0.6749397
0.9489315
0.9658906
0.9274066
0.9139465
0.9276449
0.9348402
0.9119707
0.8416301
0.8379823
0.9148853
0.9876719
0.9994902
0.9997773
0.9997502
0.999432
0.9973551
0.9931045
0.994931
0.9987645
0.9998677
0.9999032
0.9998675
0.9999208
0.9999066
0.9986723
0.9704241
0.971324
0.9777521
0.9725243
0.6776538
0.1208518
0.01374495
0.08063249
0.7307413
0.9511164
0.6881951
0.09876984
0.01813276
0.01813067
0.01813313
0.01809184
0.02150525
0.2604787
0.8348495
0.9917904
0.9999268
0.9999976
0.9999944
0.9999853
0.9999672
0.9999405
0.9999588
0.9999938
0.9999971
0.9999688
0.9985128
0.9895704
0.995152
0.9959513
0.9959513
0.9956768
0.9881198
0.9511862
0.6606445
0.1044626
0.006472485
0.006351698
0.006354048
0.006353981
0.006353509
0.007496698
0.01770252
0.06627095
0.252338
0.7315459
0.9664132
0.998433
0.9999749
0.9999998
0.9999999
0.9999997
0.9999984
0.9999934
0.999971
0.9998626
0.9997759
0.9998878
0.9999806
0.9999987
1
1
1
1
1
1
1
0.9999998
0.9999997
0.9999998
1
1
1
1
1
0.9999999
0.9999998
0.9999999
1
1
1
1
1
0.9999997
0.9999991
0.9999993
0.9999998
1
1
1
1
1
1
1
1
1
1
1
0.9999999
0.9999999
1
1
1
1
1
1
1
1
1
1
0.9999999
0.9999999
1
1
1
1
1
1
0.9999997
0.999999
0.9999985
0.9999987
0.9999991
0.9999996
0.9999996
0.999996
0.9999402
0.9998433
0.9998481
0.9998802
0.9999267
0.9999673
0.9999908
0.9999988
1
1
1
1
1
1
1
1
1
1
1
1
1
1
1
1
1
1
1
1
1
1
0.9999994
0.9999943
0.999993
0.9999968
0.9999996
1
1
0.9999992
0.9999846
0.999797
0.9996382
0.9996991
0.9999041
0.9999919
0.9999999
0.9999999
0.9999997
0.9999992
0.999999
0.9999993
0.9999965
0.999928
0.9986974
0.9841613
0.9499379
0.9642761
0.9902688
0.9992734
0.9999867
0.9999609
0.9993267
0.9876134
0.9326367
0.9257553
0.9380947
0.9818716
0.9985832
0.9998904
0.9995461
0.9972176
0.9932067
0.9946817
0.9984817
0.9998793
0.9999966
0.9999983
0.9999967
0.9999848
0.9999171
0.9997834
0.9998341
0.9999562
0.9999967
0.9999999
1
1
1
1
1
1
1
1
1
1
1
1
1
1
0.999999
0.9999799
0.9999012
0.9998784
0.9999266
0.9999601
0.9998174
0.9980442
0.9933482
0.9914128
0.9914994
0.9914994
0.9604082
0.9369767
0.9369767
0.9723743
0.9964954
0.9999061
0.9999905
0.9999905
0.9999782
0.9994042
0.9788358
0.9038868
0.9122763
0.966197
0.9946731
0.9993627
0.9995184
0.9994843
0.9995749
0.9996526
0.9995691
0.997435
0.9835367
0.9617151
0.9369374
0.7131953
0.7680998
0.8971762
0.9791335
0.9985573
0.9999733
0.9999971
0.999998
0.999998
0.9999979
0.9999953
0.9998963
0.9977475
0.9799666
0.9737593
0.983547
0.9969516
0.9998636
0.9999989
1
1
1
1
0.9999995
0.9999961
0.9999953
0.9999961
0.9999989
0.9999999
0.9999999
0.9999998
0.9999998
0.9999999
1
1
1
1
1
1
1
1
1
1
1
1
1
1
1
1
1
1
1
1
1
1
1
1
1
1
1
1
0.9999994
0.9999991
0.9999996
0.9999996
1
1
1
1
1
1
1
0.9999999
1
1
1
1
1
1
1
1
1
1
1
0.9999999
0.9999996
0.9999998
1
1
1
1
1
1
1
1
1
1
1
1
1
1
1
1
1
0.9999999
0.9999998
0.9999999
1
1
1
1
1
1
1
1
1
0.9999999
0.9999999
1
1
1
1
1
1
1
1
1
1
1
1
1
1
1
1
1
1
1
1
1
1
1
1
1
1
1
1
1
1
1
1
1
1
1
1
1
1
1
1
1
1
1
1
1
1
1
1
1
1
1
1
1
1
1
1
1
1
0.9999999
0.9999997
0.9999997
0.9999997
0.9999999
1
1
1
1
1
1
1
1
0.9999999
0.9999999
0.9999999
0.9999998
0.9999997
0.9999992
0.9999972
0.9999909
0.9999553
0.9996316
0.9974918
0.9900287
0.9819309
0.9801901
0.9796977
0.9784289
0.978254
0.980292
0.9844399
0.9823247
0.956032
0.8774433
0.7895871
0.7292128
0.6627219
0.638134
0.6770692
0.8120536
0.8945691
0.887214
0.8822099
0.8865444
0.7809094
0.3190996
0.1082557
0.1915932
0.5679647
0.7219286
0.6894717
0.6993098
0.7941283
0.8044084
0.5395557
0.1362841
0.04212888
0.0417778
0.1053806
0.4755995
0.8320544
0.9016284
0.8952371
0.6983409
0.2432505
0.07941592
0.0870075
0.4020286
0.8649949
0.9249306
0.7758579
0.2684863
0.04348304
0.03651423
0.03651423
0.07786653
0.592597
0.8535241
0.6957764
0.2527027
0.06762713
0.07796948
0.1144532
0.1106097
0.1084919
0.354999
0.8403252
0.9876027
0.9917117
0.9753666
0.9121748
0.8882697
0.916091
0.9740912
0.9970553
0.9987041
0.9973726
0.9947691
0.997006
0.9995883
0.9997767
0.9972962
0.9619616
0.9777521
0.9777521
0.921884
0.3654689
0.02760403
0.001369948
0.006673027
0.2609896
0.91455
0.9096278
0.2967188
0.02346233
0.01811686
0.01809355
0.01809246
0.01809113
0.0607105
0.5745768
0.9574224
0.999209
0.999987
0.9999017
0.9994425
0.9995023
0.9997968
0.9999735
0.9999989
0.9999979
0.9999671
0.9990029
0.9894559
0.9908019
0.9959099
0.9959511
0.9959509
0.9959509
0.9938933
0.9495452
0.3874814
0.02140925
0.006354048
0.00635403
0.006353555
0.006350732
0.006345011
0.006341634
0.006364814
0.01975744
0.1098373
0.5216958
0.916322
0.9950172
0.9999037
0.9999985
0.9999935
0.9999015
0.9990023
0.9984667
0.9989557
0.9997363
0.9999702
0.9999985
1
1
1
1
1
1
0.9999999
0.9999993
0.9999987
0.9999993
0.9999999
1
1
1
0.9999998
0.9999992
0.9999994
0.9999998
1
1
1
1
0.9999999
0.9999993
0.9999975
0.9999979
0.9999994
0.9999999
1
1
1
1
0.9999999
0.9999996
0.999999
0.9999991
0.9999997
1
1
0.9999999
0.9999999
1
1
1
1
1
1
1
0.9999999
0.9999997
0.9999996
0.9999998
1
1
1
1
1
1
0.9999998
0.9999966
0.999967
0.9998533
0.9997718
0.9997878
0.9998556
0.9999573
0.9999909
0.9999624
0.9995186
0.9984409
0.9982863
0.9984697
0.9990204
0.9997021
0.9999756
0.9999997
1
1
1
1
1
1
1
1
1
1
0.9999999
0.9999999
0.9999999
1
1
1
1
1
1
1
1
0.9999994
0.9999919
0.999988
0.9999947
0.9999993
1
1
0.999999
0.999976
0.9997349
0.9996382
0.9996382
0.9998323
0.9999786
0.9999963
0.9999902
0.9999578
0.9999012
0.9999038
0.9999699
0.9999661
0.999648
0.9933983
0.947115
0.9334234
0.9384982
0.9795166
0.9982045
0.9999524
0.9998164
0.9972249
0.9630848
0.9257553
0.9257553
0.9257553
0.9518915
0.991763
0.9993715
0.9951718
0.9763803
0.9801991
0.9932282
0.9992283
0.9999782
0.999998
0.9999929
0.9999093
0.9993855
0.9989406
0.9993342
0.9998596
0.9999925
0.9999998
0.9999999
0.9999996
0.9999996
0.9999999
1
1
1
1
1
1
1
1
1
1
1
0.9999989
0.99997
0.999522
0.9987041
0.9989829
0.9997492
0.999673
0.9963769
0.9525879
0.92589
0.948989
0.9899506
0.9730561
0.9423718
0.9678501
0.9933023
0.9996211
0.9999899
0.9999905
0.9999905
0.9999841
0.9999391
0.9998025
0.9993804
0.9982443
0.9963975
0.9965812
0.9988886
0.9992324
0.9975743
0.9947444
0.9951881
0.9973943
0.9994606