/*--------------------------------*- C++ -*----------------------------------*\
| =========                 |                                                 |
| \\      /  F ield         | foam-extend: Open Source CFD                    |
|  \\    /   O peration     | Version:     3.1                                |
|   \\  /    A nd           | Web:         http://www.extend-project.de       |
|    \\/     M anipulation  |                                                 |
\*---------------------------------------------------------------------------*/
FoamFile
{
    version     2.0;
    format      ascii;
    class       surfaceScalarField;
    location    "13";
    object      phi;
}
// * * * * * * * * * * * * * * * * * * * * * * * * * * * * * * * * * * * * * //

dimensions      [0 3 -1 0 0 0 0];

internalField   nonuniform List<scalar> 
275122
(
-0.0003081589
0.0003114739
-2.319028e-07
-3.083085e-06
-0.0002730067
0.0002600427
1.063625e-06
1.190033e-05
-0.0002686835
0.0002752579
-2.871675e-07
-6.287229e-06
-0.0002980106
0.0003060158
-3.217543e-07
-7.683439e-06
-0.0003268907
0.0003299123
-3.391571e-07
-2.682467e-06
-0.0003320651
0.0003324143
-3.615062e-07
1.231182e-08
-0.0003329814
0.000333119
-3.213216e-07
1.836289e-07
-0.0003338334
0.0003341994
-2.962138e-07
-6.980666e-08
-0.0003357426
0.0003364258
-2.733734e-07
-4.098702e-07
-0.0003389543
0.000339983
-2.495783e-07
-7.791029e-07
-0.0003437146
0.000345203
-2.246761e-07
-1.263701e-06
-0.0003504287
0.0003524274
-1.979383e-07
-1.800693e-06
-0.0003590838
0.0003614965
-1.73575e-07
-2.239115e-06
-0.0003693752
0.0003720877
-1.533597e-07
-2.559067e-06
-0.0003804726
0.0003831895
-1.358189e-07
-2.581055e-06
-0.0003911924
0.0003936827
-1.197787e-07
-2.370516e-06
-0.000400708
0.0004027522
-1.03467e-07
-1.940737e-06
-0.0004074409
0.0004084142
-8.901836e-08
-8.842002e-07
-0.0004082472
0.0004074508
-1.410729e-07
9.375248e-07
-0.0004048796
0.0004055376
-5.899626e-07
-6.805559e-08
-0.0004478071
0.0004638792
-1.343112e-06
-1.472896e-05
-0.0004590417
0.0004538775
-4.281268e-08
5.20704e-06
-0.000438838
0.0004337676
7.010023e-08
5.000289e-06
-0.0004512514
0.0004583603
1.046992e-06
-8.155968e-06
-0.0004136669
0.0003965784
1.204359e-06
1.588412e-05
-0.0003515459
0.0003373403
-8.478876e-08
1.429038e-05
-0.0003042387
0.0002946463
-4.046152e-07
9.996966e-06
-0.0002729049
0.0002655055
-4.958188e-07
7.895187e-06
-0.0002405337
0.0002233325
-6.084928e-07
1.780978e-05
-0.0001500755
0.0001546741
4.533765e-09
-4.603139e-06
-0.0002547385
0.0002676518
-6.821887e-08
-1.284514e-05
-0.0003043187
0.0003164814
7.623049e-09
-1.217033e-05
-0.0003535147
0.0003660123
8.221323e-09
-1.250588e-05
-0.0004039675
0.0004166689
9.00514e-09
-1.271042e-05
-0.0004554874
0.0004685836
9.210673e-09
-1.310545e-05
-0.0005084151
0.0005217893
1.053077e-08
-1.338473e-05
-0.0005623558
0.0005759653
5.969381e-09
-1.361541e-05
-0.0006170636
0.0006308404
7.426861e-09
-1.378425e-05
-0.0006722792
0.0006861586
8.774298e-09
-1.388816e-05
-0.000727329
0.0007424895
2.19519e-07
-1.537996e-05
1.210741e-05
-0.0005040537
0.0005059657
6.752704e-10
-1.402013e-05
1.234549e-05
-0.000511596
0.0005133409
-7.824647e-10
-1.408962e-05
1.264492e-05
-0.0005182693
0.0005198117
-1.466468e-09
-1.418588e-05
1.277714e-05
-0.0005241945
0.0005256549
-1.163113e-09
-1.423635e-05
1.328375e-05
-0.0005292511
0.0005303838
-1.690393e-09
-1.441474e-05
1.356984e-05
-0.000533413
0.0005343475
-1.482107e-09
-1.450279e-05
1.377953e-05
-0.0005368514
0.0005376342
-1.15918e-09
-1.456117e-05
1.392445e-05
-0.0005398623
0.0005405614
-1.564225e-09
-1.462189e-05
1.439387e-05
-0.0005423827
0.0005420201
-7.414506e-10
-1.403047e-05
1.232083e-05
-0.002208847
0.002218282
-1.789487e-10
-5.899711e-05
1.252177e-05
1.227203e-05
1.244755e-05
1.327164e-05
-0.002223761
0.002227762
-1.480113e-10
-5.801394e-05
1.375707e-05
1.325325e-05
1.373089e-05
1.33483e-05
-0.002230976
0.002233167
-1.686158e-10
-5.590809e-05
1.354036e-05
1.331747e-05
1.351089e-05
1.317105e-05
-0.002235092
0.00223683
-1.652092e-10
-5.455985e-05
1.329043e-05
1.311976e-05
1.32402e-05
1.303808e-05
-0.002238222
0.002238383
-1.261431e-10
-5.233262e-05
1.30913e-05
1.299128e-05
1.305076e-05
1.279524e-05
-0.00223798
0.002236341
-7.697095e-11
-4.941158e-05
1.27664e-05
1.275498e-05
1.273423e-05
1.20938e-05
-0.002234948
0.002232758
-5.681585e-12
-4.630897e-05
1.219788e-05
1.205984e-05
1.214751e-05
1.191467e-05
-0.002229501
0.002225409
4.255863e-11
-4.333567e-05
1.182307e-05
1.189042e-05
1.180027e-05
1.130643e-05
-0.002221428
0.002216295
9.224221e-11
-4.000646e-05
1.128722e-05
1.128193e-05
1.126381e-05
1.003716e-05
-0.002208883
0.002205455
1.099643e-10
-3.753951e-05
1.046158e-05
1.001607e-05
1.045234e-05
1.050848e-05
-0.002200449
0.002192618
1.087669e-10
-3.397463e-05
1.039724e-05
1.050598e-05
1.039456e-05
9.816706e-06
-0.002184552
0.002176181
8.486411e-11
-3.047243e-05
9.610324e-06
9.811331e-06
9.605043e-06
9.192791e-06
-0.00216765
0.002158616
4.753799e-11
-2.739277e-05
9.026539e-06
9.186806e-06
9.02123e-06
8.666229e-06
-0.002149192
0.002139252
2.753084e-12
-2.443768e-05
8.528192e-06
8.659024e-06
8.524373e-06
8.194718e-06
-0.002128965
0.002118265
-3.193303e-11
-2.18223e-05
8.076388e-06
8.181181e-06
8.070101e-06
7.853456e-06
-0.002107287
0.00209587
-5.427753e-11
-1.973464e-05
7.75554e-06
7.811259e-06
7.731473e-06
7.797419e-06
-0.002084252
0.002072301
-6.361093e-11
-1.882287e-05
7.741819e-06
7.626351e-06
7.608396e-06
8.609041e-06
-0.002060043
0.002046598
-6.132954e-11
-1.976412e-05
8.735934e-06
7.877125e-06
7.986676e-06
1.246862e-05
-0.002029819
0.002003965
-5.042251e-11
-2.011498e-05
1.332786e-05
1.039137e-05
9.780956e-06
1.448568e-06
-0.001973737
0.001979449
-2.677099e-11
-7.160551e-06
2.087789e-06
-0.001980166
0.001973645
4.812361e-13
4.433284e-06
2.104382e-05
-0.001960851
0.001946702
1.085403e-11
-6.894826e-06
1.991987e-05
-0.001934798
0.001924359
5.294142e-12
-9.481049e-06
1.317978e-05
-0.001914323
0.001908106
7.916453e-12
-6.963548e-06
7.365808e-06
-0.001905339
0.001904528
-4.50648e-11
-6.555371e-06
1.06621e-05
-0.001904012
0.001905111
-3.092751e-11
-1.176101e-05
1.621037e-05
-0.001907615
0.001912596
-5.907482e-12
-2.119154e-05
2.349236e-05
-0.00191897
0.001928529
3.871591e-11
-3.305178e-05
3.262188e-05
-0.001939714
0.001954804
8.946533e-11
-4.771208e-05
4.337796e-05
-0.00197188
0.001993417
1.162405e-10
-6.491467e-05
5.59578e-05
-0.002017334
0.002046303
1.09663e-10
-8.492695e-05
6.926592e-05
-0.002077841
0.002114123
8.133076e-11
-0.0001055474
7.978536e-05
-0.002152606
0.002195613
3.970555e-11
-0.0001227922
8.635607e-05
-0.002241115
0.00229062
-6.555504e-12
-0.000135861
8.866843e-05
-0.002342049
0.002395649
-4.84248e-11
-0.0001422684
8.449992e-05
-0.002449803
0.002503263
-7.833188e-11
-0.0001379599
7.132318e-05
-0.002555447
0.002604032
-8.877414e-11
-0.0001199086
5.13424e-05
-0.002649048
0.002686726
-8.939604e-11
-8.902065e-05
3.17557e-05
-0.002718945
0.00274141
-8.843531e-11
-5.422122e-05
1.004873e-05
-0.002755059
0.002760523
-7.173388e-11
-1.551256e-05
-3.299297e-05
-0.002765228
0.00276641
-6.716039e-11
3.18113e-05
-5.571683e-05
-0.002757682
0.002742076
-5.41447e-11
7.132274e-05
-6.366129e-05
-0.002710241
0.002670777
-4.741288e-11
0.0001031252
-0.0001246403
-0.002636517
0.002606195
-6.909219e-11
0.0001549624
-0.0001582523
-0.002573198
0.002535222
-6.504742e-11
0.0001962282
-0.0001627485
-0.002484615
0.002434746
-4.357871e-11
0.0002126177
-0.0001641802
-0.002374701
0.002323373
8.602014e-12
0.0002155084
-0.0001573801
-0.002258299
0.002204782
9.781695e-11
0.0002108968
-3.167939e-05
-0.002162802
0.002094143
1.970031e-10
0.0001876807
-2.795538e-05
-3.180932e-05
-2.757776e-05
-2.087861e-05
-0.002026067
0.001969523
1.837854e-10
0.0001384519
-2.039018e-05
-2.058077e-05
-2.005839e-05
-1.576436e-05
-0.001917834
0.001870095
1.49915e-10
0.0001084591
-1.482126e-05
-1.552039e-05
-1.461401e-05
-1.06239e-05
-0.001825844
0.001787615
8.503167e-11
7.905601e-05
-9.912765e-06
-1.048891e-05
-9.801483e-06
-6.595995e-06
-0.001753912
0.00172619
2.246407e-11
5.267197e-05
-5.978591e-06
-6.488764e-06
-5.886246e-06
-3.194716e-06
-0.001702494
0.001684583
-1.955744e-11
2.947926e-05
-2.709663e-06
-3.074849e-06
-2.58971e-06
-1.829036e-07
-0.001670354
0.001661421
-4.225507e-11
8.852048e-06
1.847645e-07
-1.44189e-07
2.228581e-07
2.532276e-06
-0.001655901
0.001655274
-5.048571e-11
-1.033843e-05
2.952606e-06
2.531065e-06
2.950344e-06
5.197898e-06
-0.001657462
0.001664246
-4.701754e-11
-2.834845e-05
5.584083e-06
5.189974e-06
5.592284e-06
7.578818e-06
-0.001673635
0.001687487
-4.025843e-11
-4.488641e-05
7.908577e-06
7.605439e-06
7.940861e-06
9.702658e-06
-0.00170391
0.001724533
-3.870697e-11
-6.007599e-05
9.99156e-06
9.734111e-06
1.002427e-05
1.159492e-05
-0.001747586
0.001774432
-4.208811e-11
-7.378521e-05
1.184758e-05
1.162202e-05
1.187424e-05
1.330908e-05
-0.00180375
0.001836234
-4.693793e-11
-8.622167e-05
1.353854e-05
1.33306e-05
1.35596e-05
1.472672e-05
-0.001871186
0.001908247
-5.732236e-11
-9.628199e-05
1.486646e-05
1.474414e-05
1.488332e-05
1.536073e-05
-0.001947195
0.001987148
-6.971693e-11
-0.0001014284
1.536331e-05
1.537492e-05
1.53768e-05
1.515013e-05
-0.002028355
0.002069356
-8.283817e-11
-0.0001013588
1.501734e-05
1.516211e-05
1.502857e-05
1.406825e-05
-0.0021108
0.002150655
-9.404675e-11
-9.560555e-05
1.379757e-05
1.40784e-05
1.380695e-05
1.209288e-05
-0.002189911
0.002226148
-1.011548e-10
-8.382824e-05
1.169351e-05
1.210209e-05
1.170201e-05
9.405719e-06
-0.002260586
0.002290667
-1.016212e-10
-6.672395e-05
8.907518e-06
9.41492e-06
8.915006e-06
5.914601e-06
-0.002318256
0.002341186
-9.370392e-11
-4.524289e-05
5.235156e-06
5.922008e-06
5.240597e-06
2.035265e-06
-0.002361479
0.002376694
-8.127082e-11
-2.224001e-05
1.470762e-06
2.042721e-06
1.476212e-06
-1.526968e-06
-0.002388618
0.002395223
-6.391646e-11
6.279303e-07
-2.097151e-06
-1.518384e-06
-2.090221e-06
-5.04643e-06
-0.002398776
0.002397445
-4.469733e-11
2.268707e-05
-5.641572e-06
-5.035874e-06
-5.63223e-06
-8.506178e-06
-0.002393071
0.002384275
-2.48163e-11
4.398182e-05
-9.099643e-06
-8.492089e-06
-9.087635e-06
-1.188389e-05
-0.002372533
0.002356818
-4.461382e-12
6.440344e-05
-1.24804e-05
-1.18612e-05
-1.246331e-05
-1.526825e-05
0.002316081
2.493186e-11
8.436517e-05
-1.58864e-05
-1.521877e-05
-1.585204e-05
-0.002338221
-1.883373e-05
-0.00229107
0.002262929
5.858148e-11
0.0001045878
-1.950922e-05
-1.870086e-05
-1.940306e-05
-2.285676e-05
-0.002231934
0.002198244
1.060246e-10
0.0001259592
-2.366144e-05
-2.246952e-05
-2.328173e-05
-2.768e-05
-0.002161943
0.002123591
1.749454e-10
0.0001490008
-2.874692e-05
-2.665602e-05
-2.756573e-05
-3.329641e-05
-0.002083682
0.002042633
2.528743e-10
0.0001725238
-3.457633e-05
-3.1355e-05
-3.224754e-05
-3.747031e-05
-0.002000465
0.001955725
2.845476e-10
0.0001917069
-3.78521e-05
-3.557613e-05
-3.606895e-05
-3.46021e-05
-0.00190769
0.001854036
2.566734e-10
0.0001907351
-3.279334e-05
-3.527219e-05
-3.441383e-05
-2.61406e-05
-0.00179415
0.001727871
2.412794e-10
0.0001711436
-2.454882e-05
-2.799894e-05
-2.617632e-05
-1.873082e-05
-0.001657403
0.001584117
2.197772e-10
0.0001481474
-1.769206e-05
-1.985301e-05
-1.858614e-05
-1.305409e-05
-0.001510587
0.001438071
1.697107e-10
0.0001245011
-1.239078e-05
-1.364485e-05
-1.289622e-05
-9.099922e-06
-0.001368861
0.001303986
8.979101e-11
0.0001012417
-8.737491e-06
-9.46099e-06
-9.068028e-06
-6.910892e-06
-0.001244881
0.001191841
-1.203838e-11
8.076984e-05
-6.751e-06
-7.129989e-06
-6.938316e-06
-5.907098e-06
-0.00114521
0.001104606
-1.235355e-10
6.43553e-05
-5.849096e-06
-6.028543e-06
-5.966215e-06
-5.27397e-06
-0.001069457
0.001039068
-2.145855e-10
5.150614e-05
-5.205311e-06
-5.356929e-06
-5.280566e-06
-4.550197e-06
-0.001012572
0.0009895531
-2.686076e-10
4.107619e-05
-4.440775e-06
-4.591307e-06
-4.475086e-06
-3.739579e-06
-0.0009692303
0.000951586
-2.827063e-10
3.23974e-05
-3.622824e-06
-3.755313e-06
-3.635144e-06
-2.973609e-06
-0.0009358968
0.0009223585
-2.634845e-10
2.523457e-05
-2.870713e-06
-2.977958e-06
-2.873742e-06
-2.353647e-06
-0.0009102473
0.0008998629
-2.275521e-10
1.964249e-05
-2.275194e-06
-2.353883e-06
-2.275127e-06
-1.889294e-06
-0.0008905588
0.0008826092
-1.845473e-10
1.538511e-05
-1.829109e-06
-1.888516e-06
-1.82837e-06
-1.537467e-06
-0.000875472
0.0008693861
-1.398818e-10
1.214474e-05
-1.492739e-06
-1.536544e-06
-1.491958e-06
-1.285447e-06
-0.0008639033
0.0008592593
-9.843406e-11
9.719888e-06
-1.2532e-06
-1.284579e-06
-1.25256e-06
-1.099674e-06
-0.0008550525
0.0008515559
-6.541338e-11
7.840644e-06
-1.073072e-06
-1.098838e-06
-1.072409e-06
-9.619583e-07
-0.0008483859
0.000845829
-3.866908e-11
6.368804e-06
-9.451081e-07
-9.606002e-07
-9.442107e-07
-8.554991e-07
-0.0008435157
0.0008416694
-2.131999e-11
5.219779e-06
-8.334345e-07
-8.544363e-07
-8.300571e-07
-6.829072e-07
-0.000839737
0.0008379251
-2.871393e-13
4.201113e-06
-5.089895e-07
-6.889447e-07
-5.084045e-07
-7.317558e-07
-0.0008366988
0.0008355822
1.158817e-11
4.159395e-06
-8.181027e-07
-7.07837e-07
-7.850713e-07
-9.527647e-07
-0.00083484
0.0008343104
2.029603e-11
4.292213e-06
-9.501148e-07
-9.229088e-07
-9.367702e-07
-9.635006e-07
-0.0008337836
0.0008333372
2.915345e-11
4.282389e-06
-9.580064e-07
-9.597798e-07
-9.54736e-07
-1.002824e-06
-0.0008329445
0.0008326196
3.733082e-11
4.343709e-06
-1.008387e-06
-1.000816e-06
-1.006782e-06
-1.025715e-06
-0.0008322676
0.0008319023
4.406374e-11
4.457748e-06
-1.022165e-06
-1.024061e-06
-1.020534e-06
-1.032155e-06
-0.0008314925
0.0008310444
4.842357e-11
4.567166e-06
-1.029253e-06
-1.030287e-06
-1.027332e-06
-1.029816e-06
-0.0008305367
0.0008299585
5.120728e-11
4.682396e-06
-1.024209e-06
-1.027901e-06
-1.02233e-06
-1.014045e-06
-0.0008293133
0.0008285815
5.220633e-11
4.772056e-06
-1.007475e-06
-1.012643e-06
-1.006199e-06
-9.875485e-07
-0.0008277809
0.0008268833
5.199235e-11
4.829338e-06
-9.789291e-07
-9.868884e-07
-9.784388e-07
-9.503641e-07
-0.0008259211
0.0008248616
5.173209e-11
4.842473e-06
-9.413388e-07
-9.501541e-07
-9.41243e-07
-9.054011e-07
-0.0008237463
0.0008225431
5.159006e-11
4.805423e-06
-8.96153e-07
-9.05073e-07
-8.95627e-07
-8.496765e-07
-0.0008213026
0.000819977
5.089319e-11
4.711089e-06
-8.403593e-07
-8.531573e-07
-8.423858e-07
-7.966973e-07
-0.0008186182
0.0008172063
4.827075e-11
4.576388e-06
-7.887047e-07
-7.933865e-07
-7.857297e-07
-7.45784e-07
-0.0008157975
0.0008143668
4.344436e-11
4.389128e-06
-7.354682e-07
-7.436633e-07
-7.33514e-07
-6.928758e-07
-0.0008129565
0.0008115415
3.604932e-11
4.15854e-06
-6.808745e-07
-6.908975e-07
-6.789072e-07
-6.410952e-07
-0.0008101681
0.00080882
2.623563e-11
3.888795e-06
-6.310399e-07
-6.393075e-07
-6.292215e-07
-5.936389e-07
-0.000807527
0.0008062842
1.46581e-11
3.597657e-06
-5.852648e-07
-5.921983e-07
-5.837917e-07
-5.436433e-07
-0.0008050914
0.0008039649
4.299172e-12
3.291996e-06
-5.404201e-07
-5.423092e-07
-5.39133e-07
-5.118255e-07
-0.0008029078
0.0008019418
-3.357482e-12
3.002815e-06
-5.073666e-07
-5.11072e-07
-5.066208e-07
-4.820021e-07
-0.000801052
0.0008002535
-1.027947e-11
2.717468e-06
-4.780077e-07
-4.814779e-07
-4.774942e-07
-4.582545e-07
-0.0007995332
0.000798916
-1.5538e-11
2.444559e-06
-4.557787e-07
-4.578774e-07
-4.554182e-07
-4.400873e-07
-0.0007983787
0.0007979501
-1.745345e-11
2.184352e-06
-4.380557e-07
-4.398245e-07
-4.378182e-07
-4.233549e-07
-0.0007976006
0.0007973664
-1.676384e-11
1.923349e-06
-4.213607e-07
-4.232038e-07
-4.212017e-07
-4.05479e-07
-0.0007972105
0.0007971872
-1.531755e-11
1.641393e-06
-4.036438e-07
-4.053669e-07
-4.035147e-07
-3.867498e-07
-0.0007972443
0.000797429
-1.496721e-11
1.357305e-06
-3.843989e-07
-3.866485e-07
-3.842519e-07
-3.656835e-07
0.0007981356
-1.311417e-11
1.030335e-06
-0.0007977083
-3.632018e-07
-3.655802e-07
-3.631509e-07
-3.385129e-07
-0.0007986611
0.0007993423
-1.094494e-11
6.668354e-07
-3.354743e-07
-3.385101e-07
-3.355099e-07
-3.069797e-07
-0.0008001315
0.0008010858
-8.672983e-12
2.675758e-07
-3.038826e-07
-3.070499e-07
-3.039029e-07
-2.735518e-07
-0.0008021485
0.0008034117
-5.877116e-12
-1.783392e-07
-2.688619e-07
-2.735724e-07
-2.688815e-07
-2.363006e-07
-0.0008047955
0.0008063783
-2.74491e-12
-6.454098e-07
-2.323978e-07
-2.362972e-07
-2.32397e-07
-1.997735e-07
-0.0008080941
0.0008100185
-2.552454e-14
-1.132973e-06
-1.959557e-07
-1.997554e-07
-1.95941e-07
-1.637427e-07
-0.0008120784
0.0008143546
1.888825e-12
-1.628386e-06
-1.601548e-07
-1.637443e-07
-1.601873e-07
-1.304114e-07
-0.000816769
0.0008193982
3.353937e-12
-2.113398e-06
-1.275117e-07
-1.304092e-07
-1.275191e-07
-1.040008e-07
-0.0008221616
0.0008251337
4.387713e-12
-2.560392e-06
-1.019093e-07
-1.039801e-07
-1.018869e-07
-8.618085e-08
-0.0008282377
0.0008315473
4.991548e-12
-2.967553e-06
-8.492022e-08
-8.610428e-08
-8.489596e-08
-7.892901e-08
-0.0008349909
0.0008386262
5.073142e-12
-3.32056e-06
-7.862745e-08
-7.870672e-08
-7.848324e-08
-9.293051e-08
-0.0008423787
0.0008462749
5.119204e-12
-3.519694e-06
-9.585289e-08
-9.23765e-08
-9.534825e-08
-1.463806e-07
-0.0008502496
0.0008543166
3.942294e-12
-3.469974e-06
-1.538196e-07
-1.448509e-07
-1.52024e-07
-2.363643e-07
-0.0008584301
0.0008625992
3.554036e-12
-3.207385e-06
-2.488985e-07
-2.321305e-07
-2.443261e-07
-3.795812e-07
-0.0008668112
0.0008710591
1.232056e-12
-2.703353e-06
-3.958816e-07
-3.761477e-07
-3.929264e-07
-5.670327e-07
-0.0008753117
0.0008794896
-4.751952e-12
-1.922284e-06
-6.198492e-07
-5.125163e-07
-5.562199e-07
-1.177964e-06
-0.0008836001
0.0008877629
-5.247248e-12
7.411015e-07
-1.315411e-06
-1.136108e-06
-1.274398e-06
-1.805791e-06
-0.0008920742
0.0008962378
-1.938942e-11
3.126619e-06
-1.833488e-06
-1.80319e-06
-1.84775e-06
-1.479852e-06
-0.0008998784
0.0009027532
-2.751115e-11
2.971924e-06
-1.361234e-06
-1.555714e-06
-1.449938e-06
-1.009924e-06
-0.0009049874
0.0009067372
-2.329317e-11
2.313122e-06
-9.523726e-07
-1.083139e-06
-1.017444e-06
-8.580198e-07
-0.0009082095
0.0009094378
-5.968771e-12
2.287807e-06
-8.491334e-07
-9.114905e-07
-8.974625e-07
-9.224552e-07
-0.0009104939
0.0009113694
2.29826e-11
2.924397e-06
-9.475237e-07
-9.537327e-07
-9.762025e-07
-1.096546e-06
-0.0009119973
0.0009123198
7.137337e-11
4.157153e-06
-1.130193e-06
-1.111528e-06
-1.141411e-06
-1.230099e-06
-0.0009123152
0.0009119122
1.359201e-10
5.379318e-06
-1.253881e-06
-1.236492e-06
-1.255989e-06
-8.989408e-07
-0.0009108794
0.0009077158
2.075093e-10
6.444424e-06
-7.347749e-07
-9.078704e-07
-7.393938e-07
-8.656943e-07
-0.0002233922
0.0002223421
-4.651664e-09
1.920536e-06
-1.401257e-06
-0.0002190253
0.0002180379
-3.445934e-09
2.392082e-06
-1.500307e-06
-0.0002153829
0.0002145744
-2.07964e-09
2.310812e-06
-1.49767e-06
-0.0002123544
0.0002116602
-9.319061e-10
2.192807e-06
-1.365352e-06
-0.0002097323
0.0002091443
-3.40218e-10
1.95372e-06
-1.218072e-06
-0.0002075438
0.0002070624
-2.225719e-10
1.699743e-06
-1.091692e-06
-0.0002057481
0.0002053536
-3.000363e-10
1.486535e-06
-9.914742e-07
-0.0002042745
0.0002039544
-1.519477e-10
1.311667e-06
-9.464358e-07
-0.0002030896
0.0002028368
-3.650441e-11
1.199287e-06
-9.390978e-07
-0.0002021565
0.0002019559
-1.520888e-10
1.139834e-06
-9.733341e-07
-0.0002013998
0.0002012296
-2.698224e-10
1.143808e-06
-1.062603e-06
-0.000200722
0.0002005444
-2.455303e-10
1.240446e-06
-1.200634e-06
-0.0001999332
0.0001996863
-1.853956e-10
1.447709e-06
-1.375766e-06
-0.0001987749
0.0001983949
-1.970803e-10
1.755922e-06
-1.567377e-06
-0.0001970115
0.0001964505
-2.098181e-10
2.128661e-06
-1.730143e-06
-0.0001944832
0.0001937178
-1.339039e-10
2.495672e-06
-1.82642e-06
-0.0001911422
0.0001901816
-9.916358e-11
2.787192e-06
-1.890342e-06
-0.0001870643
0.0001859397
-1.970621e-10
3.015083e-06
-1.966757e-06
-0.0001823753
0.000181114
-3.398769e-10
3.22838e-06
-2.052533e-06
-0.0001771652
0.0001757838
-4.314496e-10
3.434408e-06
-2.126121e-06
-0.0001715
0.0001700173
-4.62009e-10
3.609262e-06
-2.170426e-06
-0.0001654663
0.0001639097
-4.644586e-10
3.727458e-06
-2.176345e-06
-0.0001591851
0.0001575899
-4.476333e-10
3.771992e-06
-2.139386e-06
-0.0001528047
0.0001512111
-4.20755e-10
3.733457e-06
-2.059389e-06
-0.0001464903
0.0001449412
-3.828948e-10
3.608853e-06
-1.938659e-06
-0.0001404139
0.0001389523
-3.401587e-10
3.400552e-06
-1.781802e-06
-0.0001347444
0.0001334115
-3.02123e-10
3.115025e-06
-1.594886e-06
-0.000129641
0.0001284739
-2.532619e-10
2.762258e-06
-1.385481e-06
-0.000125245
0.0001242761
-1.971849e-10
2.354627e-06
-1.159992e-06
-0.0001216774
0.0001209335
-1.006724e-10
1.903969e-06
-9.249714e-07
-0.0001190415
0.0001185467
-3.687206e-11
1.419807e-06
-6.844852e-07
-0.0001174263
0.0001172009
3.116242e-11
9.098983e-07
-4.594348e-07
-0.0001169121
0.0001169805
1.070124e-10
3.909552e-07
-2.283387e-07
-0.0001175969
0.000117974
1.95288e-10
-1.489506e-07
3.559386e-08
-0.0001195669
0.0001202954
2.772379e-10
-7.643668e-07
7.855906e-07
-0.0001229145
0.0001238424
3.546423e-10
-1.713855e-06
1.554426e-06
-0.0001266392
0.0001277595
4.120147e-10
-2.675111e-06
1.777629e-06
-0.0001315487
0.000132955
4.610652e-10
-3.184364e-06
2.03221e-06
-0.0001374939
0.000139126
4.940808e-10
-3.664748e-06
2.25212e-06
-0.0001442915
0.0001461117
5.209098e-10
-4.072924e-06
2.448383e-06
-0.0001517828
0.0001537495
5.404442e-10
-4.415658e-06
2.61741e-06
-0.0001598037
0.0001618771
5.556637e-10
-4.691383e-06
2.755293e-06
-0.000168198
0.0001703401
5.634877e-10
-4.897972e-06
2.864973e-06
-0.0001768194
0.000178997
5.559368e-10
-5.043107e-06
2.951766e-06
-0.0001855454
0.0001877331
5.581335e-10
-5.140073e-06
3.020092e-06
-0.0001942834
0.0001964616
5.535608e-10
-5.198802e-06
3.072254e-06
-0.0002029577
0.0002051084
5.342142e-10
-5.223546e-06
3.1137e-06
-0.0002115037
0.000213615
5.215609e-10
-5.225605e-06
3.150166e-06
-0.0002198833
0.0002219498
5.077874e-10
-5.217166e-06
3.180892e-06
-0.0002280783
0.0002300958
4.880644e-10
-5.198855e-06
3.199197e-06
-0.0002360706
0.0002380325
4.704085e-10
-5.16157e-06
3.190783e-06
-0.0002438211
0.0002457106
4.518924e-10
-5.080704e-06
3.153835e-06
-0.0002512548
0.0002530533
4.270677e-10
-4.952789e-06
3.101284e-06
-0.0002583103
0.0002600099
4.022806e-10
-4.801256e-06
3.044938e-06
-0.0002649699
0.0002665718
3.818711e-10
-4.647225e-06
2.990197e-06
-0.000271246
0.0002727557
3.588184e-10
-4.500263e-06
2.937698e-06
-0.0002771622
0.0002785859
3.348481e-10
-4.361722e-06
2.885995e-06
-0.0002827419
0.0002840846
3.186148e-10
-4.228933e-06
2.832368e-06
-0.0002880022
0.0002892663
3.048741e-10
-4.096792e-06
2.773107e-06
-0.0002929496
0.0002941351
2.841863e-10
-3.95897e-06
2.706184e-06
-0.0002975805
0.0002986856
2.592141e-10
-3.811552e-06
2.632417e-06
-0.0003018873
0.0003029104
2.373589e-10
-3.655758e-06
2.555052e-06
-0.0003058672
0.0003068096
2.217367e-10
-3.497694e-06
2.477832e-06
-0.0003095299
0.0003103965
2.060932e-10
-3.344698e-06
2.400546e-06
-0.0003128976
0.0003136942
1.93774e-10
-3.197278e-06
2.316224e-06
-0.0003159901
0.0003167185
1.753114e-10
-3.044775e-06
2.214528e-06
-0.0003188074
0.0003194635
1.612046e-10
-2.870802e-06
2.086596e-06
-0.0003213234
0.0003218999
1.628756e-10
-2.663269e-06
1.941219e-06
-0.0003234965
0.0003239802
2.053045e-10
-2.425138e-06
1.768551e-06
-0.0003253293
0.0003257033
3.712257e-10
-2.14295e-06
1.897778e-06
-0.0003249299
0.001319764
-5.245057e-13
-8.03445e-06
1.469261e-07
1.897334e-06
1.320439e-07
-0.0003249334
-0.0003329693
-0.0003329707
7.023092e-07
-0.001325745
0.001328314
-2.069674e-12
-6.252021e-06
1.15699e-06
6.838563e-07
1.140097e-06
7.586194e-07
-0.001330033
0.001331456
-2.756581e-12
-4.578639e-06
8.332482e-07
7.439204e-07
8.192788e-07
6.497897e-07
-0.001332932
0.001333857
-3.093501e-12
-3.605663e-06
7.038528e-07
6.36491e-07
6.90652e-07
5.574182e-07
-0.001334364
0.001334205
-3.30297e-12
-2.145152e-06
6.076794e-07
5.441629e-07
5.950591e-07
4.288007e-07
-0.001333694
0.001332812
-3.939588e-12
-8.140384e-07
4.313592e-07
4.164771e-07
4.191886e-07
3.037524e-07
-0.001331748
0.001330344
-4.29721e-12
2.173033e-07
3.016634e-07
2.920195e-07
2.898799e-07
2.107422e-07
-0.001328671
0.001326658
-4.281861e-12
1.205706e-06
2.042331e-07
1.992882e-07
1.932368e-07
1.448065e-07
-0.001324414
0.001321877
-5.209501e-12
1.9841e-06
1.423785e-07
1.338999e-07
1.31679e-07
1.251101e-07
-0.001319118
0.001316097
-6.325237e-12
2.534964e-06
1.283801e-07
1.147471e-07
1.180199e-07
1.454787e-07
-0.001312872
0.001309423
-6.558113e-12
2.870587e-06
1.534774e-07
1.357122e-07
1.438716e-07
2.017074e-07
-0.001305797
0.001302
-6.774534e-12
2.984079e-06
2.137011e-07
1.926401e-07
2.048797e-07
2.862753e-07
-0.001298069
0.001294029
-7.326186e-12
2.881941e-06
3.007046e-07
2.78175e-07
2.928897e-07
3.894832e-07
-0.001289906
0.001285738
-7.748715e-12
2.592836e-06
4.050463e-07
3.824176e-07
3.982349e-07
4.995799e-07
-0.001281537
0.001277356
-8.210899e-12
2.164839e-06
5.146403e-07
4.934821e-07
5.087704e-07
6.111153e-07
-0.001273189
0.001269093
-7.540178e-12
1.63261e-06
6.255608e-07
6.058906e-07
6.204318e-07
7.149304e-07
-0.001265055
0.001261131
-5.923154e-12
1.044389e-06
7.294582e-07
7.10312e-07
7.250319e-07
8.159456e-07
-0.001257281
0.001253596
-5.648654e-12
4.134338e-07
8.239195e-07
8.117159e-07
8.195065e-07
8.981358e-07
-0.001250077
0.001246697
-6.199295e-12
-2.376929e-07
9.130886e-07
8.957464e-07
9.10649e-07
1.021205e-06
-0.001243409
0.001240288
-4.769581e-12
-9.821185e-07
1.033639e-06
1.018325e-06
1.030661e-06
1.1274e-06
-0.001237304
0.001234526
-5.028087e-12
-1.749761e-06
1.139214e-06
1.124612e-06
1.136496e-06
1.230163e-06
-0.001231902
0.001229501
-6.728786e-12
-2.537691e-06
1.241824e-06
1.227695e-06
1.239438e-06
1.332849e-06
-0.001227261
0.00122527
-8.866398e-12
-3.358818e-06
1.344494e-06
1.330658e-06
1.34239e-06
1.430318e-06
-0.001223444
0.001221858
-1.011915e-11
-4.152432e-06
1.441148e-06
1.428358e-06
1.43928e-06
1.521812e-06
-0.00122043
0.001219239
-1.091749e-11
-4.91329e-06
1.532367e-06
1.519964e-06
1.530514e-06
1.608771e-06
-0.001218202
0.001217395
-1.049964e-11
-5.644503e-06
1.618895e-06
1.606983e-06
1.617103e-06
1.6882e-06
-0.001216728
0.001216273
-9.619573e-12
-6.312824e-06
1.697419e-06
1.686574e-06
1.695868e-06
1.761042e-06
-0.001215944
0.001215815
-1.150101e-11
-6.930099e-06
1.769715e-06
1.759619e-06
1.768364e-06
1.827833e-06
-0.001215804
0.001215976
-1.200067e-11
-7.497124e-06
1.835888e-06
1.826558e-06
1.83468e-06
1.883249e-06
-0.001216257
0.001216716
-8.393202e-12
-8.002945e-06
1.889917e-06
1.882089e-06
1.888675e-06
1.929381e-06
-0.001217279
0.001218009
-5.564011e-12
-8.455307e-06
1.934106e-06
1.928313e-06
1.933053e-06
1.969219e-06
-0.001218836
0.001219813
-7.885603e-12
-8.861645e-06
1.974018e-06
1.968194e-06
1.973004e-06
2.007649e-06
-0.001220874
0.001222067
-9.89646e-12
-9.23183e-06
2.01257e-06
2.00663e-06
2.011555e-06
2.044526e-06
-0.001223332
0.001224715
-9.167311e-12
-9.568451e-06
2.049281e-06
2.043508e-06
2.048265e-06
2.079081e-06
-0.001226159
0.001227708
-6.847765e-12
-9.87274e-06
2.083617e-06
2.078113e-06
2.082671e-06
2.110915e-06
-0.00122931
0.001231006
-5.285386e-12
-1.014635e-05
2.115119e-06
2.109993e-06
2.114218e-06
2.139778e-06
-0.001232748
0.001234575
-6.09493e-12
-1.039174e-05
2.143672e-06
2.1389e-06
2.142792e-06
2.165502e-06
-0.001236443
0.001238386
-5.805488e-12
-1.06107e-05
2.169096e-06
2.164679e-06
2.168277e-06
2.187642e-06
-0.001240366
0.001242412
-1.952321e-12
-1.080159e-05
2.190852e-06
2.186897e-06
2.190122e-06
2.205239e-06
-0.001244492
0.001246625
1.309888e-12
-1.09587e-05
2.208067e-06
2.204521e-06
2.207404e-06
2.216971e-06
-0.001248788
0.001250991
1.214925e-12
-1.107432e-05
2.219619e-06
2.21623e-06
2.218837e-06
2.221139e-06
-0.001253217
0.001255465
-4.367426e-13
-1.11378e-05
2.224392e-06
2.220361e-06
2.223547e-06
2.215275e-06
-0.001257725
0.001259982
-1.885306e-12
-1.112551e-05
2.219595e-06
2.214499e-06
2.21884e-06
2.191716e-06
-0.001262225
0.001264435
-7.788536e-13
-1.097711e-05
2.19282e-06
2.19101e-06
2.192134e-06
2.114917e-06
-0.001266611
0.001268792
-1.901784e-13
-1.060388e-05
2.097231e-06
2.114245e-06
2.096582e-06
1.938861e-06
-0.001271044
0.001273386
9.778711e-13
-9.987249e-06
1.884188e-06
1.938213e-06
1.883493e-06
1.738647e-06
-0.001275753
0.001278052
2.039411e-12
-9.209667e-06
1.717015e-06
1.738078e-06
1.716462e-06
1.717114e-06
-0.001280253
0.001282385
2.644978e-12
-9.022716e-06
1.728692e-06
1.716579e-06
1.72819e-06
1.760658e-06
-0.001284465
0.001286564
2.794371e-12
-9.168529e-06
1.774685e-06
1.760084e-06
1.774154e-06
1.824508e-06
-0.001288642
0.001290796
2.38606e-12
-9.498542e-06
1.848163e-06
1.823905e-06
1.847671e-06
1.923701e-06
-0.001292941
0.00129523
3.520221e-12
-1.007131e-05
1.968e-06
1.923011e-06
1.967527e-06
2.043728e-06
-0.001297523
0.001300073
2.532845e-11
-1.087415e-05
2.119066e-06
2.042949e-06
2.118813e-06
2.166747e-06
-0.001302773
0.001305816
-5.946659e-11
-1.183545e-05
2.230671e-06
2.165372e-06
2.229518e-06
2.152208e-06
-0.001308513
0.001312656
1.934304e-11
-1.268585e-05
2.121597e-06
2.149651e-06
2.119586e-06
2.374276e-06
-0.001318133
0.001321326
5.290083e-12
-1.284691e-05
2.448078e-06
2.379617e-06
2.451462e-06
2.459295e-06
-0.001324256
0.001327925
-2.234867e-12
-1.32011e-05
2.299669e-06
2.466146e-06
2.306739e-06
2.3365e-06
-0.00133199
0.001336087
-2.748161e-12
-1.333137e-05
2.274034e-06
2.343541e-06
2.280421e-06
2.285598e-06
-0.001340123
0.001344133
-3.334373e-12
-1.306604e-05
2.2365e-06
2.291408e-06
2.24194e-06
2.213696e-06
-0.001348113
0.001352041
-4.150058e-12
-1.273131e-05
2.182884e-06
2.218576e-06
2.187454e-06
2.155128e-06
-0.001355949
0.001359827
-3.736688e-12
-1.246781e-05
2.135994e-06
2.159219e-06
2.139838e-06
2.086938e-06
-0.001363734
0.00136766
-2.784815e-12
-1.224737e-05
2.069992e-06
2.090301e-06
2.073184e-06
1.951383e-06
-0.001371665
0.001375675
-2.24273e-12
-1.175582e-05
1.918704e-06
1.95438e-06
1.921508e-06
1.666973e-06
-0.001379748
0.001383686
-1.82702e-12
-1.049214e-05
1.607782e-06
1.669639e-06
1.61013e-06
1.121285e-06
-0.001387569
0.001391115
-2.597399e-12
-7.820108e-06
1.013619e-06
1.123485e-06
1.015691e-06
2.707509e-07
-0.001394471
0.001397154
-3.350902e-12
-3.496671e-06
1.346007e-07
2.724046e-07
1.360566e-07
-1.265086e-06
-0.001399442
0.00140124
-8.435255e-12
4.197822e-06
-1.735866e-06
-1.262722e-06
-1.732862e-06
-4.531626e-06
-0.001403766
0.001406538
-1.455692e-11
1.672522e-05
-5.21614e-06
-4.531331e-06
-5.217965e-06
-7.343817e-06
-0.001409403
0.001410737
-7.842006e-12