/*--------------------------------*- C++ -*----------------------------------*\
| =========                 |                                                 |
| \\      /  F ield         | foam-extend: Open Source CFD                    |
|  \\    /   O peration     | Version:     3.1                                |
|   \\  /    A nd           | Web:         http://www.extend-project.de       |
|    \\/     M anipulation  |                                                 |
\*---------------------------------------------------------------------------*/
FoamFile
{
    version     2.0;
    format      ascii;
    class       volScalarField;
    location    "16.5";
    object      alpha1;
}
// * * * * * * * * * * * * * * * * * * * * * * * * * * * * * * * * * * * * * //

dimensions      [0 0 0 0 0 0 0];

internalField   nonuniform List<scalar> 
119952
(
1
1
1
1
1
1
1
1
1
1
1
1
1
1
1
1
1
1
1
1
1
1
1
1
1
1
1
1
1
1
1
1
1
1
0.9999999
1
0.9999999
1
1
1
1
1
1
1
1
1
0.9999999
1
0.9999998
0.9999999
1
1
0.9999998
0.9999999
1
0.9999999
0.9999999
1
0.9999999
0.9999999
1
1
1
1
1
1
1
1
1
1
1
1
1
1
1
1
1
1
1
1
1
1
1
1
0.9999999
1
1
1
1
1
1
0.9999999
1
1
1
1
1
0.9999999
1
1
0.9999999
1
1
1
1
1
1
1
0.9999999
1
1
1
1
1
1
1
1
1
1
1
1
1
1
1
1
1
1
1
1
1
1
1
1
1
1
1
1
1
1
1
1
1
1
1
1
1
1
1
1
1
1
0.9999999
1
1
1
0.9999998
0.9999999
1
1
1
1
1
1
0.9999999
0.9999998
1
1
1
1
1
1
1
1
1
0.9999998
0.9999999
1
1
1
1
1
1
1
1
1
1
1
1
1
1
1
1
1
1
1
1
1
1
1
1
1
1
1
1
1
1
1
1
1
1
1
1
1
1
1
1
1
1
1
1
1
1
1
1
1
1
1
1
1
1
1
1
1
1
1
1
1
1
1
1
1
1
1
1
1
1
1
1
1
1
1
1
1
1
1
1
1
0.9999998
1
1
0.9999999
0.9999999
0.9999998
1
1
1
1
1
1
1
1
1
1
1
1
1
1
1
1
1
1
1
1
1
1
1
1
1
1
1
1
1
1
1
1
1
1
1
1
1
1
1
1
1
1
1
1
1
1
1
1
1
1
1
1
1
1
1
1
1
1
1
1
1
1
1
1
1
1
1
1
1
1
1
1
1
1
1
1
1
1
1
1
1
1
1
1
1
1
1
1
1
1
1
1
1
1
1
1
1
1
1
1
1
1
1
1
1
1
1
1
1
1
1
1
1
1
1
1
1
1
1
1
1
1
1
1
1
1
1
1
1
1
1
1
1
1
1
1
1
1
1
1
1
1
1
1
1
1
1
1
1
1
1
1
1
1
1
1
1
1
1
1
1
1
1
1
1
1
1
0.9999999
1
1
1
1
0.9999999
1
1
1
0.9999999
1
1
1
1
1
1
1
1
1
1
1
1
1
1
1
1
1
1
1
1
1
1
1
1
1
1
1
1
1
1
1
1
0.9999999
0.9999999
1
1
1
1
1
1
1
1
1
1
1
1
1
1
1
1
1
1
1
1
1
1
1
1
1
1
1
1
1
1
1
1
1
1
1
1
1
1
1
1
1
1
1
1
1
1
1
0.9999999
0.9999999
1
1
1
1
1
1
1
1
1
1
1
1
1
1
1
1
1
1
1
1
1
1
1
1
1
1
1
1
1
1
1
1
1
1
1
1
1
1
1
1
0.9999999
1
1
1
1
1
1
1
1
1
1
1
1
0.9999999
0.9999999
1
1
1
1
1
1
1
1
1
1
1
1
1
1
0.9999999
0.9999999
0.9999999
1
1
1
1
1
1
1
1
1
1
1
1
1
1
1
1
1
1
1
1
1
1
1
1
1
1
1
1
1
1
1
1
1
1
1
1
1
1
1
1
1
1
1
1
1
1
1
1
1
1
1
1
1
1
1
1
1
1
1
1
1
1
1
1
1
1
1
1
1
1
1
1
1
1
1
1
0.9999998
1
1
1
1
1
1
1
1
1
0.9999999
1
1
1
1
0.9999999
0.9999999
0.9999999
1
1
1
1
1
1
1
1
1
1
1
1
1
1
1
1
1
1
1
1
0.9999998
0.9999998
1
1
1
1
1
1
1
1
1
1
1
1
1
1
1
1
1
1
1
1
1
1
1
1
1
1
1
1
1
1
1
1
1
1
1
1
1
1
1
1
1
1
1
1
1
1
1
1
1
1
1
1
1
1
1
1
1
1
1
1
1
1
1
1
1
1
1
1
1
1
1
1
1
1
1
1
1
1
1
1
1
1
1
1
1
1
1
1
1
1
1
1
1
1
1
1
1
1
0.9999999
0.9999999
1
1
1
1
1
1
1
1
1
1
1
1
1
1
1
1
1
1
1
1
1
1
1
1
1
1
1
1
1
1
1
1
1
1
1
1
1
1
1
1
1
1
1
1
1
1
1
1
1
1
1
1
1
1
1
1
1
1
1
1
1
1
1
1
1
1
1
1
1
1
1
1
0.9999999
0.9999999
0.9999999
1
1
1
1
1
1
1
1
1
1
0.9999999
0.9999999
0.9999999
1
1
1
1
1
1
1
0.9999999
1
1
1
1
1
1
1
1
1
1
1
1
1
1
1
1
1
1
1
1
1
1
1
1
1
1
1
1
1
1
1
1
1
1
1
1
1
1
1
1
1
1
1
1
1
1
1
1
1
1
1
1
1
1
1
1
1
1
1
1
1
1
1
1
1
1
1
1
1
1
1
1
1
1
1
1
1
1
1
1
1
1
1
1
1
1
1
1
1
1
1
1
1
1
1
1
1
1
1
1
1
1
1
1
1
1
1
1
1
1
1
1
1
1
1
1
1
1
1
1
1
1
1
1
1
1
1
1
1
1
1
1
1
1
1
1
1
1
1
1
1
1
1
1
1
1
1
0.9999999
1
1
1
1
1
1
1
1
1
1
1
1
1
1
1
1
1
1
1
1
1
1
1
1
1
1
1
0.9999999
0.9999995
0.9999983
0.9999957
0.9999953
0.9999977
0.9999996
1
1
1
1
1
1
1
1
1
1
1
1
1
1
1
1
1
1
1
1
1
1
1
1
1
1
1
1
1
1
1
1
1
0.9999999
0.9999996
0.9999996
0.9999998
1
1
1
1
1
1
1
1
1
1
1
1
1
1
1
1
1
1
1
1
1
1
1
1
1
1
1
1
1
1
0.9999999
0.9999999
1
1
1
1
0.9999999
0.9999999
0.9999999
1
1
1
1
1
1
1
1
1
1
1
1
1
1
1
1
1
1
1
1
1
1
1
1
1
1
1
1
1
1
1
1
1
1
1
1
1
1
1
1
1
1
1
1
1
1
1
1
1
1
1
1
1
1
1
1
1
1
1
1
1
1
1
1
1
1
1
1
1
1
1
1
1
1
1
1
1
1
1
1
1
1
1
1
1
1
1
1
1
1
1
1
1
1
1
0.9999999
0.9999999
0.9999999
1
1
1
1
1
1
1
1
1
1
1
1
1
1
1
1
1
1
1
1
1
1
1
1
1
1
1
1
1
1
1
1
1
1
1
1
1
1
1
1
1
1
1
1
1
1
1
1
1
1
1
1
1
1
1
1
1
1
1
1
1
1
1
1
1
1
1
1
1
1
1
1
1
1
1
1
1
1
1
1
1
1
1
1
0.9999999
0.9999999
0.9999999
1
1
1
1
1
1
1
1
1
1
1
1
1
1
1
1
1
1
1
1
1
1
1
1
1
1
1
1
1
1
1
1
1
1
1
1
1
1
1
1
1
1
1
1
1
1
1
1
1
1
1
1
1
1
1
1
1
1
1
1
1
1
1
1
1
1
1
1
1
1
1
1
1
1
1
1
1
1
1
1
1
1
1
1
1
1
1
1
1
1
1
1
1
1
1
1
1
1
1
1
0.9999999
0.9999999
0.9999999
1
1
1
1
1
1
1
1
1
1
1
1
1
1
1
1
1
1
1
1
1
1
1
1
1
1
1
1
1
1
1
1
1
1
1
1
1
1
1
1
1
1
1
1
1
1
1
1
1
1
1
1
1
1
1
1
1
1
1
1
1
1
1
1
1
1
1
1
1
1
1
1
1
1
1
1
1
1
1
1
1
1
1
1
1
1
1
1
1
1
0.9999998
0.9999985
0.9999909
0.999964
0.9999427
0.9999613
0.9999909
0.9999994
1
1
1
1
1
1
1
1
1
1
1
1
1
1
1
1
1
1
1
1
1
1
1
1
1
1
1
1
1
1
1
1
1
0.9999999
0.9999992
0.9999987
0.9999993
0.9999999
1
1
1
1
1
1
1
1
1
1
1
1
1
1
1
1
0.9999997
0.9999991
0.9999991
0.9999996
0.9999999
1
1
1
1
1
1
1
1
1
0.9999999
0.9999999
1
1
1
1
1
1
1
0.9999999
0.9999999
0.9999999
1
1
1
1
1
1
1
1
1
1
1
1
1
1
1
1
1
1
1
1
1
1
1
1
1
1
1
1
1
1
1
1
1
1
1
1
1
1
1
1
1
1
1
1
1
1
1
1
1
1
1
1
1
1
1
1
1
1
1
1
1
1
1
1
1
1
1
1
1
1
1
1
1
1
1
1
1
1
1
1
1
1
1
1
1
1
1
1
1
1
1
0.9999999
1
1
1
1
1
1
1
1
1
1
1
1
1
0.9999999
1
1
1
1
1
1
1
1
1
1
1
1
1
1
1
1
1
1
1
1
1
1
1
1
1
1
1
1
1
1
1
1
1
1
1
1
1
1
1
1
1
1
1
1
1
1
1
1
1
1
1
1
1
1
1
1
1
1
1
1
1
1
1
1
1
1
1
1
1
1
1
1
1
1
1
1
1
1
1
1
1
1
1
1
1
1
1
1
1
1
1
1
1
1
1
1
1
1
1
1
1
1
1
1
1
1
1
1
1
1
1
1
1
1
1
1
1
1
1
1
1
1
1
1
1
1
1
1
1
1
1
1
1
1
1
1
1
1
1
1
1
1
1
1
1
1
1
1
1
1
1
1
1
1
1
1
1
1
1
1
1
1
1
1
1
1
1
1
1
1
1
1
1
1
1
0.9999999
0.9999999
0.9999997
0.9999996
0.9999997
0.9999999
1
1
1
0.9999999
0.9999997
0.9999991
0.9999989
0.9999994
0.9999999
1
1
1
1
1
0.9999999
0.9999999
0.9999999
1
1
1
1
1
1
1
1
1
1
1
1
1
1
1
1
1
1
1
1
1
1
1
0.9999999
1
1
1
1
1
1
1
1
1
1
1
1
0.9999999
0.9999996
0.9999996
0.9999997
0.9999999
1
1
1
1
1
1
1
1
1
1
1
1
1
1
1
1
1
1
1
1
1
1
0.9999999
0.9999997
0.9999998
0.9999999
1
1
1
1
1
1
1
1
1
1
1
1
1
1
1
0.9999992
0.9999858
0.9998532
0.9996824
0.9998073
0.9999589
0.9999978
1
1
1
1
0.9999998
0.9999995
0.9999995
0.9999997
0.9999998
0.9999998
0.9999997
0.9999993
0.999998
0.9999937
0.9999821
0.9999788
0.9999887
0.9999982
0.9999999
1
1
1
1
1
1
1
1
1
1
1
1
1
1
1
0.9999998
0.9999986
0.9999983
0.9999988
0.9999997
1
1
1
1
1
1
1
1
1
1
1
1
0.9999999
0.9999996
0.9999977
0.9999917
0.9999921
0.9999973
0.9999997
1
1
1
1
1
1
1
1
1
1
1
1
0.9999999
0.9999999
1
1
1
1
1
1
1
1
1
1
1
1
1
1
1
1
1
1
1
1
1
0.9999999
0.9999998
0.9999999
1
1
1
1
1
1
1
1
1
1
1
1
1
1
1
1
1
1
1
1
1
1
1
1
1
1
1
1
1
1
1
1
1
1
1
1
1
1
1
1
1
1
1
1
1
1
1
1
1
1
1
1
1
1
1
1
1
1
1
1
1
1
1
1
0.9999999
0.9999999
0.9999999
1
1
1
1
1
1
0.9999998
0.9999998
0.9999999
1
1
1
1
1
1
1
0.9999999
0.9999999
0.9999999
0.9999999
1
1
1
1
1
1
0.9999999
1
1
0.9999999
1
1
1
1
1
1
1
1
1
1
1
1
1
1
1
1
1
1
1
1
1
1
1
1
1
1
1
1
1
1
1
1
1
1
1
1
1
1
1
1
1
1
1
1
1
1
1
1
1
1
1
1
1
1
1
1
1
1
1
1
1
1
1
1
1
1
1
1
1
1
1
1
1
1
1
1
1
1
1
1
1
1
1
1
1
1
1
1
1
1
1
1
1
1
1
1
1
1
1
1
1
1
1
1
1
1
1
1
1
1
1
1
1
1
1
1
1
1
1
1
1
1
1
1
1
1
1
1
1
1
1
0.9999998
0.9999989
0.999997
0.9999972
0.9999982
0.999999
0.9999994
0.9999997
0.9999999
0.9999999
1
1
1
1
1
1
1
1
1
1
1
1
1
1
1
1
1
0.9999999
0.9999999
1
1
1
1
0.9999996
0.9999986
0.9999972
0.9999958
0.9999941
0.9999925
0.9999922
0.9999922
0.9999929
0.9999963
0.999999
0.999999
0.9999979
0.9999899
0.9999449
0.9998348
0.999855
0.9999544
0.9999959
0.9999999
1
1
0.9999998
0.9999991
0.9999952
0.9999909
0.999994
0.9999982
0.9999986
0.9999982
0.9999964
0.9999922
0.9999828
0.9999727
0.9999791
0.9999945
0.9999996
1
1
1
1
1
1
0.9999999
0.9999998
0.9999995
0.9999995
0.9999998
1
1
1
1
1
1
1
1
1
1
0.9999999
0.9999997
0.9999997
0.9999999
1
1
1
0.9999999
0.9999999
0.9999999
1
1
1
0.9999996
0.9999969
0.9999849
0.9999745
0.9999777
0.9999898
0.9999983
0.9999999
1
1
1
1
1
1
1
1
1
1
1
1
1
1
1
1
1
1
0.9999999
0.9999992
0.9999958
0.9999931
0.9999956
0.999999
0.9999999
1
1
1
1
1
1
1
1
1
1
0.9999998
0.9999992
0.9999987
0.9999988
0.9999993
0.9999996
0.9999975
0.999946
0.99958
0.9995266
0.9997243
0.9999505
0.9999972
0.9999981
0.9999948
0.9999731
0.9999252
0.9999238
0.9999443
0.9999838
0.9999845
0.9999693
0.999918
0.9997331
0.9990439
0.9980278
0.9984633
0.9995854
0.9999702
0.9999962
0.9999961
0.9999946
0.9999866
0.9999736
0.9999796
0.9999944
0.9999996
1
1
1
1
1
1
1
0.9999999
0.9999994
0.9999991
0.9999996
0.9999997
0.9999997
0.9999997
0.9999997
0.9999996
0.9999992
0.9999982
0.9999959
0.9999903
0.999976
0.9999563
0.9999562
0.9999781
0.9999964
0.9999983
0.9999974
0.9999924
0.9999743
0.9999566
0.9999705
0.9999925
0.9999993
0.9999999
1
1
1
1
1
1
1
1
1
1
1
1
1
0.9999999
0.9999999
1
1
1
1
1
1
1
1
1
1
1
1
1
1
1
1
1
0.9999999
0.9999996
0.9999991
0.9999993
0.9999997
1
1
1
1
1
1
1
1
1
1
1
1
1
1
1
1
1
1
1
1
1
1
1
1
1
1
1
1
1
1
1
1
1
1
1
1
1
1
1
1
1
1
1
1
1
1
1
1
1
1
1
1
1
1
1
1
1
1
1
1
1
1
1
0.9999997
0.9999992
0.9999993
0.9999997
1
1
1
1
1
0.9999999
0.9999995
0.9999991
0.9999994
0.9999999
1
1
1
1
1
0.9999999
0.9999994
0.9999991
0.9999995
0.9999999
0.9999994
1
1
1
1
1
1
1
1
1
1
1
1
1
1
1
1
1
1
1
1
1
1
1
1
1
1
1
1
1
1
1
1
1
1
1
1
1
1
1
1
1
1
1
1
1
1
1
1
1
1
1
1
1
1
1
1
1
1
1
1
1
1
1
1
1
1
1
1
1
1
1
1
1
1
1
1
1
1
1
1
1
1
1
1
1
1
1
1
1
1
1
1
1
1
1
1
1
1
1
1
1
1
1
0.9999999
0.9999999
0.9999999
0.9999999
0.9999999
0.9999999
0.9999999
0.9999998
0.9999998
0.9999998
0.9999999
0.9999999
0.9999998
0.9999995
0.9999988
0.9999984
0.9999985
0.9999991
0.9999996
0.9999997
0.9999996
0.9999993
0.9999991
0.9999992
0.9999994
0.9999995
0.9999995
0.9999995
0.9999994
0.9999994
0.9999995
0.9999997
0.9999998
0.9999998
0.9999998
0.9999998
0.9999997
0.9999997
0.9999997
0.9999996
0.9999989
0.9999951
0.9999735
0.9998908
0.9997763
0.9998255
0.9999201
0.999966
0.9999658
0.9999656
0.9999688
0.9999756
0.9999831
0.9999893
0.9999941
0.9999976
0.9999989
0.999999
0.9999989
0.9999981
0.9999955
0.9999935
0.9999964
0.9999994
1
1
0.9999999
0.9999992
0.9999969
0.9999946
0.9999948
0.9999975
0.9999995
0.9999999
1
0.9999999
0.999999
0.9999876
0.9999392
0.9998117
0.9995284
0.9991309
0.9990882
0.999503
0.999923
0.9999901
0.9999838
0.9999198
0.9994325
0.9978837
0.9980759
0.999352
0.9999292
0.9999977
0.9999999
0.9999999
0.9999995
0.9999964
0.9999712
0.9999424
0.9999512
0.9999834
0.9999933
0.9999891
0.9999663
0.9998465
0.9992384
0.998489
0.9990712
0.9998041
0.9999889
0.9999998
0.9999999
0.9999999
0.9999998
0.999999
0.9999943
0.9999698
0.9998948
0.9998914
0.9999587
0.9999954
0.9999999
1
1
1
1
1
1
1
1
1
0.9999998
0.9999988
0.9999986
0.9999992
0.9999999
1
1
0.9999998
0.9999994
0.9999995
0.9999998
0.9999999
0.9999999
0.9999989
0.9999878
0.9999047
0.9996778
0.9995826
0.9997347
0.9999326
0.9999938
0.9999998
1
1
0.9999999
0.9999999
0.9999999
0.9999999
0.9999998
0.9999996
0.9999989
0.999997
0.9999963
0.9999977
0.9999996
1
1
0.9999999
0.9999997
0.9999984
0.9999893
0.9999446
0.9999234
0.9999505
0.9999898
0.9999993
1
1
1
1
1
1
1
1
1
1
1
1
0.9999993
0.9999896
0.9999531
0.9999441
0.9999563
0.9999803
0.9999845
0.999939
0.999525
0.9996818
0.9999163
0.9999473
0.9999152
0.9996616
0.9986918
0.9973514
0.9975907
0.9991148
0.9998965
0.9999861
0.9999344
0.9994142
0.9942611
0.9733984
0.9746384
0.990371
0.9989631
0.9999583
0.9999692
0.999902
0.9994982
0.9990181
0.9993968
0.999874
0.9999931
0.9999999
1
0.9999999
0.9999999
0.9999999
1
1
1
0.9999992
0.9999974
0.9999976
0.9999989
0.9999997
0.9999997
0.9999997
0.9999997
0.9999996
0.9999986
0.9999882
0.9999285
0.999627
0.9988509
0.9987581
0.9993312
0.9998539
0.9999707
0.9999767
0.9999664
0.9998082
0.9996302
0.9997403
0.9998884
0.9999675
0.9999943
0.9999995
1
1
1
1
1
1
1
0.9999999
0.9999999
0.9999999
1
1
1
1
1
1
1
1
1
1
1
1
1
1
1
1
0.9999999
0.9999999
0.9999998
0.9999996
0.9999989
0.9999952
0.9999845
0.9999831
0.9999909
0.9999985
0.9999999
1
1
1
1
1
1
1
1
0.9999999
0.9999996
0.999999
0.9999992
0.9999997
1
1
1
1
1
1
1
1
1
1
1
1
1
1
1
1
1
1
1
1
1
1
1
1
1
1
1
1
1
1
1
1
1
1
1
1
1
1
1
1
1
1
1
1
1
1
1
1
1
1
0.9999998
0.999998
0.999997
0.9999986
0.9999998
1
1
1
1
1
0.9999996
0.9999971
0.9999973
0.9999991
0.9999999
1
1
1
0.9999999
0.9999994
0.9999973
0.999996
0.9999976
0.9999997
0.9999998
0.9999972
1
1
1
1
1
1
1
1
1
1
1
1
1
1
1
1
1
1
1
1
1
1
1
1
1
1
1
1
1
1
1
1
1
1
1
1
1
1
1
1
1
1
1
1
1
1
1
1
1
1
1
1
1
1
1
1
1
1
1
1
1
1
1
1
1
1
1
1
1
1
1
1
1
1
1
1
1
1
1
1
1
1
1
0.9999999
0.9999998
0.9999996
0.9999993
0.9999991
0.999999
0.9999989
0.9999985
0.9999975
0.999995
0.9999917
0.9999898
0.999989
0.9999886
0.9999883
0.9999879
0.9999853
0.9999781
0.9999653
0.9999477
0.9999377
0.9999416
0.9999523
0.9999544
0.9999461
0.9999108
0.9998562
0.9998522
0.9998914
0.9999367
0.9999422
0.9999308
0.9998638
0.9996728
0.9995036
0.999544
0.9997206
0.9998853
0.9999021
0.9998725
0.9997547
0.9996789
0.9997054
0.9997932
0.9998467
0.9998398
0.9997918
0.9997319
0.999728
0.9997632
0.9998643
0.9999375
0.9999468
0.9999449
0.999937
0.9999269
0.9999255
0.9999312
0.9999426
0.9999407
0.9998779
0.9993863
0.9971908
0.9958759
0.9971823
0.9992506
0.9997956
0.99975
0.99957
0.999166
0.9989906
0.9990443
0.9992431
0.9995867
0.9998574
0.9999009
0.9998592
0.9995042
0.9987497
0.9990712
0.9997402
0.9999801
0.9999996
0.9999997
0.9999995
0.9999973
0.9999813
0.9999018
0.9998783
0.9999217
0.9999851
0.9999976
0.9999963
0.999995
0.9999956
0.9999981
0.9999972
0.9999551
0.9992977
0.9951172
0.98717
0.9887308
0.9962512
0.9996627
0.9998544
0.9996349
0.9974674
0.9880126
0.9868923
0.9938878
0.9991236
0.9999543
0.999999
0.9999993
0.9999986
0.9999896
0.9998973
0.999804
0.999828
0.9999381
0.9999838
0.9999792
0.9999402
0.9995741
0.9962053
0.9900824
0.9914888
0.9968488
0.9996221
0.9999889
0.9999991
0.9999989
0.9999967
0.9999816
0.9998736
0.9991589
0.9975966
0.9981171
0.9994188
0.9999384
0.9999965
0.9999998
1
1
1
1
1
1
1
1
0.9999998
0.9999984
0.9999948
0.9999959
0.9999988
0.9999999
0.9999998
0.9999995
0.9999979
0.9999959
0.9999975
0.9999995
0.9999996
0.9999986
0.9999835
0.999818
0.9990896
0.9973347
0.9973211
0.9989071
0.9998341
0.9999911
0.9999974
0.999997
0.9999956
0.9999924
0.9999841
0.9999579
0.9998463
0.9992626
0.9977696
0.9978296
0.9991633
0.9998897
0.9999964
0.9999993
0.9999993
0.999999
0.9999966
0.9999794
0.9998627
0.9994213
0.9993523
0.9996563
0.999942
0.9999952
0.9999997
1
1
1
1
1
1
1
1
1
1
1
0.9999998
0.9999996
0.9999988
0.9999867
0.9998552
0.9996645
0.9996097
0.9994343
0.9988427
0.9986629
0.999061
0.9996688
0.9996765
0.999123
0.9957763
0.9814193
0.9732175
0.9846094
0.996799
0.9998397
0.9999832
0.999971
0.9996007
0.991176
0.9557639
0.9528705
0.9572699
0.9862757
0.9988454
0.9999318
0.9992069
0.9961293
0.9959387
0.9978811
0.9996723
0.9999862
0.9999999
1
1
0.9999999
0.9999999
0.9999999
1
1
1
0.9999999
0.9999999
0.9999995
0.9999984
0.9999974
0.9999958
0.999992
0.9999852
0.999981
0.9999802
0.9999315
0.9989872
0.9948772
0.9938531
0.9967226
0.9988852
0.9978391
0.9974412
0.9981109
0.9995439
0.9997619
0.9995753
0.9992847
0.9995266
0.9998864
0.9999921
0.9999999
1
1
1
0.9999999
0.9999998
0.9999999
1
1
1
1
1
1
1
1
1
1
1
1
1
0.9999999
0.9999998
0.9999998
0.9999998
0.9999994
0.999997
0.9999915
0.999986
0.999977
0.99993
0.9997291
0.9996653
0.9997586
0.9999422
0.9999956
0.9999997
1
1
1
1
1
1
1
0.9999999
0.9999993
0.9999964
0.9999884
0.9999891
0.9999963
0.9999996
1
1
1
1
1
1
1
1
1
1
1
1
1
1
1
1
1
1
1
1
1
1
1
1
1
1
1
1
1
1
1
1
1
1
1
1
1
1
1
1
1
1
1
1
1
1
1
1
1
1
1
0.9999992
0.9999966
0.9999965
0.9999979
0.9999996
1
1
1
1
0.9999999
0.9999984
0.9999965
0.9999966
0.9999986
0.9999998
1
0.9999999
0.9999993
0.9999966
0.9999887
0.9999846
0.9999886
0.9999967
0.9999998
0.9999998
0.9999853
1
1
0.9999999
1
1
0.9999999
1
1
0.9999999
1
1
1
1
1
1
1
1
1
1
1
1
1
1
1
1
1
1
1
1
1
1
1
1
1
1
1
1
1
1
1
1
1
1
1
1
1
1
1
1
1
1
1
1
1
1
1
1
1
1
1
1
1
1
1
1
1
1
1
1
1
1
1
1
1
1
1
1
1
1
1
1
1
1
1
1
1
1
1
1
1
1
0.9999999
0.9999994
0.9999978
0.9999934
0.9999854
0.9999754
0.9999672
0.9999624
0.9999573
0.9999416
0.9998794
0.9996953
0.9994362
0.9993742
0.9994147
0.999526
0.9995334
0.9993562
0.9985912
0.9970948
0.9963583
0.9964973
0.9974279
0.9985522
0.9986063
0.9979164
0.995261
0.9918079
0.991463
0.99321
0.9966675
0.997261
0.9960419
0.9907506
0.9848554
0.9852333
0.9899696
0.9962014
0.9975987
0.99695
0.9931987
0.9813964
0.9738136
0.9767605
0.9888531
0.9968937
0.9967266
0.9937015
0.9852142
0.9802134
0.9830509
0.9930416
0.9961562
0.9951324
0.9899294
0.9803913
0.9809788
0.9914943
0.998195
0.9986124
0.9983718
0.9973118
0.995715
0.9957712
0.9972946
0.9987106
0.9988047
0.9987893
0.9987571
0.9977055
0.987645
0.9723917
0.9841149
0.9967765
0.9986358
0.9969976
0.9889101
0.977207
0.9756431
0.9773083
0.9833966
0.9916105
0.9965571
0.9966256
0.9909792
0.9839966
0.9892187
0.9973182
0.9997708
0.9999869
0.9999973
0.9999966
0.9999852
0.9998703
0.9992847
0.9991255
0.9994283
0.9998886
0.9999863
0.9999882
0.9999737
0.9999191
0.9998416
0.9998361
0.9998862
0.9999619
0.9998955
0.9976161
0.9590412
0.9505019
0.9805865
0.9976605
0.9980571
0.9890494
0.9329828
0.9231939
0.9621482
0.994206
0.9995765
0.9999864
0.9999961
0.9999933
0.9999422
0.9996302
0.999543
0.999678
0.9999232
0.9999937
0.999997
0.9999887
0.9997785
0.9961106
0.9739952
0.9714009
0.9859409
0.9978928
0.9998919
0.9999888
0.9999881
0.9999768
0.9998938
0.9992265
0.9934908
0.9838979
0.9871607
0.9956617
0.9994262
0.9999536
0.9999982
1
1
1
1
1
1
1
0.9999999
0.9999996
0.9999965
0.9999793
0.9999733
0.9999861
0.999998
0.9999997
0.9999995
0.999997
0.9999884
0.9999878
0.9999938
0.9999987
0.9999982
0.9999858
0.999819
0.9986881
0.9941761
0.9890188
0.9924363
0.9975623
0.9997293
0.999969
0.9999587
0.9999077
0.999741
0.9993085
0.9980551
0.991224
0.9623855
0.9523999
0.9674517
0.9928931
0.9994758
0.9999615
0.9999944
0.9999959
0.9999917
0.9999621
0.9997677
0.9983979
0.9947775
0.9952709
0.9982879
0.9997516
0.9999758
0.9999982
1
1
1
1
1
1
0.9999999
1
1
1
1
0.9999999
0.9999975
0.9999731
0.9999106
0.9999118
0.9999343
0.9998356
0.9988905
0.9944294
0.9806518
0.9739917
0.9849195
0.9969043
0.9977041
0.9950681
0.974266
0.8883838
0.9021999
0.9679949
0.996258
0.9998796
0.9999832
0.9999832
0.9999655
0.9995347
0.9922861
0.9666021
0.9720236
0.9896619
0.9986651
0.9999538
0.9999818
0.9998535
0.9989681
0.9980303
0.9986967
0.999689
0.9999811
0.9999998
1
1
1
1
1
1
1
1
0.9999999
0.9999996
0.9999982
0.9999921
0.9999599
0.9996042
0.9925951
0.9819222
0.9834239
0.9934685
0.9991339
0.999401
0.9988373
0.9938596
0.9927399
0.9949842
0.9988587
0.9996813
0.9996771
0.9995202
0.9983687
0.9968
0.9981402
0.9996088
0.9999762
0.9999996
1
0.9999999
0.9999995
0.9999988
0.9999991
0.9999998
1
1
1
1
1
1
1
1
1
0.9999999
0.9999992
0.9999947
0.9999738
0.9999314
0.999913
0.9999193
0.9999644
0.9999944
0.9999946
0.9999849
0.9999065
0.9992369
0.9974583
0.9980084
0.9994027
0.9999329
0.9999916
0.9999978
0.9999997
1
1
1
1
0.9999999
0.9999998
0.9999992
0.9999966
0.9999846
0.9999356
0.9999038
0.9999505
0.9999915
0.9999996
1
1
1
1
1
0.9999999
0.9999997
0.9999998
0.9999999
1
1
1
1
1
1
1
1
1
1
1
1
1
1
1
1
1
1
1
1
1
1
1
1
1
1
1
1
0.9999999
0.9999999
1
1
1
1
1
1
1
1
1
1
0.9999999
1
1
0.9999997
0.9999978
0.9999966
0.9999982
0.9999991
0.9999996
0.9999999
1
1
1
0.9999979
0.9999974
0.999999
0.9999998
1
0.9999999
0.9999995
0.9999936
0.9999627
0.9999225
0.9999271
0.9999637
0.9999945
0.9999999
0.9999996
0.9999412
1
1
1
1
0.9999999
1
1
1
0.9999999
0.9999999
1
1
1
0.9999999
1
1
1
1
1
1
1
1
0.9999999
0.9999999
0.9999999
1
1
1
1
1
1
1
1
1
1
1
1
1
1
1
1
1
1
1
1
1
1
1
1
1
1
1
1
1
1
1
1
1
1
1
1
1
1
1
1
1
1
1
1
1
1
1
1
1
1
1
1
1
1
1
1
1
1
1
1
1
1
1
1
1
1
1
1
1
1
1
1
1
0.9999998
0.9999992
0.9999973
0.9999926
0.9999826
0.9999617
0.9999099
0.9997516
0.9992678
0.9981076
0.9961541
0.9942198
0.9933605
0.9934247
0.9936264
0.9932305
0.9889756
0.9731832
0.9540711
0.952327
0.9582347
0.9730081
0.9806642
0.9764945
0.9459053
0.8717764
0.8372782
0.8564239
0.9274764
0.9769434
0.975094
0.9486937
0.8484229
0.7435486
0.7711736
0.8985721
0.9731842
0.969757
0.9285904
0.7460572
0.6663298
0.7767197
0.9335571
0.9580956
0.9617248
0.951337
0.7926302
0.5377354
0.6310888
0.8803398
0.9690647
0.9709748
0.9457307
0.771682
0.669416
0.8036764
0.9568683
0.9786255
0.9638098
0.8384415
0.7170331
0.8255505
0.9603391
0.9827635
0.9785722
0.953928
0.9235136
0.9338448
0.9695198
0.9872554
0.9908506
0.992403
0.9915333
0.9876006
0.9812908
0.9562402
0.9251259
0.9598453
0.9921125
0.9919351
0.9714173
0.8926735
0.6609821
0.5269311
0.6098233
0.8242311
0.8862376
0.7663302
0.518765
0.6057888
0.8832858
0.9893571
0.99896
0.999821
0.9999722
0.9999745
0.9999555
0.9996644
0.9976072
0.9968323
0.9978504
0.9995328
0.9999677
0.9999824
0.9999784
0.9999353
0.9996819
0.9986198
0.9962487
0.9954304
0.9963541
0.9986349
0.9995149
0.9981074
0.9735946
0.9410955
0.9684748
0.9707322
0.8708351
0.8140217
0.8723131
0.9682272
0.9960025
0.9997987
0.9999729
0.9999566
0.9996219
0.9991801
0.999274
0.9997174
0.9999582
0.9999961
0.999998
0.999998
0.9999963
0.9999142
0.9970864
0.9582622
0.9534677
0.9826343
0.9980891
0.9999182
0.9999291
0.9998436
0.9992896
0.9950527
0.95997
0.9301284
0.9492265
0.9862824
0.9980469
0.9996928
0.9999791
0.999997
0.9999985
0.999998
0.9999919
0.9999763
0.9999811
0.9999948
0.9999993
0.999999
0.9999948
0.9999586
0.9998681
0.9998973
0.9999713
0.9999966
0.9999964
0.999978
0.9999623
0.999968
0.9999896
0.9999988
0.9999986
0.9999915
0.9998822
0.9987637
0.9932256
0.9755491
0.974088
0.9863652
0.9975208
0.9998362
0.9999397
0.9999113
0.9993727
0.9962117
0.9871395
0.9352541
0.6657088
0.6789605
0.8929041
0.9872778
0.9983326
0.9996685
0.9999743
0.9999921
0.9999871
0.999895
0.9990336
0.9916183
0.9670405
0.9676554
0.9885231
0.9985966
0.9998892
0.9999953
0.9999999
1
1
1
1
0.9999998
0.9999998
0.9999999
0.9999999
0.9999999
0.9999999
0.9999997
0.9999992
0.9999973
0.9999847
0.9997999
0.9991109
0.9989293
0.9990726
0.9990545
0.9928577
0.9281139
0.9080264
0.9382386
0.9885584
0.9894657
0.9658676
0.8581523
0.8357302
0.8418992
0.9373077
0.992269
0.9997596
0.999917
0.9997488
0.9989625
0.9982309
0.9985807
0.9991205
0.9993193
0.9994657
0.9997024
0.9999183
0.9999907
0.9999938
0.9999865
0.9999447
0.9998578
0.9998315
0.9998752
0.9999659
0.9999977
1
1
1
1
1
1
0.9999998
0.999999
0.9999941
0.9999566
0.9994155
0.9894585
0.9767837
0.978825
0.9916795
0.9981272
0.9982373
0.9982373
0.9972475
0.9897065
0.9869297
0.9885864
0.9959209
0.9994865
0.9998024
0.9997176
0.9987829
0.9928172
0.9896574
0.9945682
0.9990368
0.9999573
0.9999995
0.9999999
0.9999995
0.9999959
0.9999938
0.9999969
0.9999995
1
1
1
1
1
1
1
1
0.9999997
0.9999977
0.9999857
0.9999214
0.9996051
0.9979793
0.9973344
0.9986067
0.9997658
0.999983
0.9999785
0.9999311
0.999611
0.997378
0.9929049
0.9955309
0.9989717
0.9999253
0.9999988
1
1
1
1
1
0.9999998
0.9999985
0.9999926
0.9999706
0.9998854
0.9995624
0.9991104
0.999348
0.9998369
0.9999879
0.9999997
1
1
0.9999999
0.9999993
0.9999979
0.999998
0.9999992
0.9999999
1
1
1
1
1
1
1
1
1
1
1
1
1
1
1
1
1
1
1
1
1
1
1
1
0.9999999
0.9999999
1
1
1
0.9999999
0.9999998
0.9999999
1
1
1
1
1
1
1
0.9999999
0.9999996
0.9999988
0.999999
0.9999997
1
1
0.9999998
0.9999987
0.9999934
0.9999925
0.9999966
0.9999995
1
0.9999999
0.9999997
0.9999987
0.999996
0.9999951
0.9999966
0.9999993
0.9999996
0.9999978
0.9999765
0.9998411
0.9996179
0.9996995
0.9999123
0.9999929
0.9999997
0.9999974
0.9998008
1
1
1
1
1
1
1
0.9999999
1
1
1
1
0.9999999
1
1
1
1
1
1
1
1
1
1
1
1
1
1
1
1
1
1
1
1
1
1
1
1
1
1
1
0.9999999
0.9999999
1
1
1
1
1
1
1
1
1
1
1
1
1
1
1
1
1
1
1
1
1
1
1
1
1
1
1
1
1
1
1
1
1
1
1
1
1
1
1
1
1
1
1
1
1
1
1
1
1
1
1
1
1
1
1
1
1
1
1
1
1
1
1
1
1
1
0.9999997
0.9999974
0.9999811
0.9999008
0.9996144
0.9989116
0.9977427
0.9961267
0.9938087
0.9897412
0.9811488
0.9611253
0.9213318
0.867658
0.8330011
0.8333748
0.8426228
0.8532422
0.8513218
0.8054941
0.6346265
0.4796119
0.4816218
0.5497355
0.6882748
0.7824891
0.7634592
0.5020641
0.141678
0.07686855
0.1588763
0.5847785
0.8307668
0.7427244
0.3252078
0.05212361
0.03551926
0.1106715
0.6130525
0.7726227
0.4990851
0.1080643
0.02656718
0.05118001
0.377832
0.650814
0.4874386
0.1631079
0.04526053
0.02660871
0.0423229
0.3039185
0.5513033
0.4111574
0.13762
0.0417284
0.04215507
0.2510496
0.707454
0.6230272
0.2448949
0.06505158
0.0656379
0.361479
0.8040027
0.7196381
0.3088949
0.1291629
0.1763767
0.5601414
0.8506575
0.8726006
0.8829902
0.9173456
0.9637211
0.968586
0.9546555
0.8155117
0.7871114
0.8774785
0.9720541
0.9526858
0.8670479
0.5269769
0.1297024
0.02599907
0.02471412
0.02671457
0.05895902
0.1101821
0.08722119
0.07404399
0.3705881
0.8744138
0.9904026
0.9979482
0.9996132
0.999869
0.999258
0.9945091
0.9932338
0.995575
0.9990744
0.9999247
0.999954
0.9999316
0.9998011
0.9993604
0.9979301
0.9926729
0.9765679
0.9612083
0.965243
0.9783885
0.9841426
0.9851731
0.9858289
0.9831465
0.9371629
0.6079498
0.5125687
0.7288338
0.9446639
0.9876813
0.9985164
0.9998265
0.9997423
0.9986914
0.9983843
0.9990149
0.9998045
0.999943
0.9999429
0.9999372
0.9999187
0.9998826
0.9998384
0.9997614
0.999526
0.9981037
0.9838133
0.9447035
0.9551815
0.9771318
0.994316
0.9984616
0.991972
0.8463572
0.7553526
0.8324599
0.9622747
0.9948244
0.998813
0.9997197
0.9999465
0.999936
0.9993738
0.9968476
0.9974902
0.999233
0.9999273
0.9999925
0.9999932
0.9999891
0.9999437
0.9996537
0.9994785
0.9997101
0.9999467
0.9999821
0.9999488
0.9999406
0.9999647
0.9999932
0.9999992
0.999999
0.9999953
0.9999372
0.9991813
0.9937496
0.9641322
0.9468078
0.9558674
0.9858674
0.9985692
0.9999223
0.9999397
0.9999397
0.99972
0.9965153
0.9612789
0.6715125
0.5860647
0.5860647
0.7233814
0.9498587
0.998084
0.9999665
0.9999709
0.999971
0.9999664
0.9999075
0.99844
0.9593374
0.8911377
0.9011415
0.9645064
0.9959256
0.9998963
0.9999995
1
1
0.9999999
0.9999994
0.9999995
0.9999998
0.9999999
0.9999999
0.9999999
0.9999993
0.9999948
0.9999607
0.9997071
0.9983076
0.997048
0.9983275
0.9991085
0.9972676
0.9686007
0.9481029
0.9569442
0.987342
0.9985954
0.9994778
0.999478
0.9958371
0.887493
0.7452603
0.7839177
0.9289026
0.9927399
0.9996228
0.9996981
0.9991266
0.9950521
0.9824414
0.975184
0.9865891
0.9974318
0.9998614
0.9999792
0.9999792
0.9999792
0.9999791
0.9999789
0.9999718
0.9999356
0.999933
0.9999669
0.9999891
0.9999952
0.9999961
0.9999959
0.9999897
0.999936
0.9998455
0.999862
0.999946
0.9999911
0.9999807
0.9998651
0.9987325
0.9892466
0.9761215
0.986416
0.9963039
0.9994995
0.9998907
0.9996507
0.9949667
0.979653
0.9788952
0.9789038
0.9908508
0.998552
0.9999088
0.9999397
0.9997616
0.9960654
0.9660421
0.9651009
0.9876218
0.9986907
0.9999636
0.9999998
0.9999999
0.9999994
0.9999928
0.9999888
0.9999906
0.9999971
0.9999998
1
1
1
1
1
0.9999999
0.9999997
0.9999982
0.9999903
0.9999385
0.9993882
0.9940945
0.990401
0.9913683
0.9968664
0.9996532
0.9999185
0.9998493
0.9992001
0.9935793
0.9753308
0.9733485
0.985438
0.9975349
0.9998805
0.9999989
1
1
1
1
1
0.9999999
0.9999991
0.9999853
0.999793
0.9977633
0.9910538
0.9916225
0.9966011
0.999587
0.9999863
0.9999995
0.9999994
0.9999978
0.9999891
0.9999862
0.9999911
0.9999981
0.9999998
0.9999999
1
1
1
1
0.9999999
0.9999999
1
1
1
1
1
1
1
1
1
1
1
1
1
1
1
1
1
0.9999997
0.9999992
0.9999993
0.9999997
1
1
1
1
1
1
1
0.9999999
0.9999998
0.9999999
1
1
1
0.9999993
0.9999969
0.9999968
0.9999985
0.9999998
0.9999999
0.9999996
0.999996
0.9999779
0.9999775
0.9999914
0.999999
0.9999998
0.9999996
0.9999976
0.9999846
0.9999471
0.999931
0.9999609
0.9999924
0.9999992
0.9999979
0.9999806
0.9998096
0.9989236
0.9988061
0.9995289
0.9999437
0.9999978
0.9999956
0.9999542
0.9991959
1
1
1
1
1
1
1
1
1
1
0.9999999
1
1
1
1
1
1
1
1
1
1
1
1
1
1
1
1
1
1
1
1
1
1
1
1
1
1
1
1
1
1
1
1
1
1
1
1
1
1
1
0.9999999
0.9999999
1
1
1
1
1
1
1
1
1
1
1
1
1
1
1
1
1
1
1
1
1
1
1
1
1
1
1
1
1
1
1
1
1
1
1
1
1
1
1
1
1
1
1
1
1
1
1
1
1
1
1
1
1
1
1
1
1
1
1
1
1
1
1
1
1
0.9999996
0.9999973
0.9999823
0.9998939
0.9994186
0.9973457
0.9904385
0.972831
0.9425659
0.9092774
0.8788554
0.8425996
0.7862339
0.7034532
0.5715256
0.3850122
0.2308784
0.2141176
0.2307181
0.2691671
0.26896
0.2057742
0.09383769
0.04305447
0.04358512
0.05662732
0.07048594
0.06917292
0.05644517
0.03343711
0.02598476
0.02884346
0.03288013
0.03050283
0.02661371
0.02291816
0.01806029
0.01729207
0.01691169
0.0418047
0.05045125
0.04884525
0.0501806
0.04458205
0.03171973
0.02649774
0.02644091
0.02638634
0.02245151
0.01598275
0.01528261
0.01522569
0.01951701
0.0386344
0.04196998
0.03797152
0.03834702
0.0495898
0.05453401
0.045697
0.03542213
0.03572978
0.0403687
0.07242787
0.1388754
0.1507062
0.07624872
0.04210448
0.0417938
0.06773606
0.2974267
0.3276402
0.2713469
0.1686809
0.1530062
0.3542387
0.8274752
0.857456
0.4374188
0.4087763
0.7621465
0.9695888
0.9707271
0.8536966
0.3631619
0.05267344
0.02471412
0.02471412
0.02471412
0.02471412
0.02471412
0.02471412
0.02471412
0.02471412
0.05536145
0.1793073
0.4633725
0.8365641
0.9811673
0.9992586
0.9998555
0.9989308
0.994871
0.9958573
0.9987989
0.9997092
0.9995469
0.9992061
0.9986705
0.9958364
0.9838017
0.9381427
0.8492029
0.8406188
0.8674896
0.9129532
0.914053
0.7819805
0.4984755
0.4480979
0.3721752
0.1652411
0.1964338
0.6297782
0.9454804
0.9977537
0.9998281
0.9998217
0.9988962
0.9979649
0.9989745
0.9996758
0.9996781
0.99968
0.9994665
0.9983099
0.995799
0.9916218
0.9840696
0.9772988
0.973514
0.9658118
0.9459801
0.935794
0.9263403
0.7931606
0.4785885
0.4706617
0.75926
0.9486019
0.9486309
0.9112815
0.9340345
0.9606611
0.9483438
0.9479016
0.975521
0.9950247
0.9996692
0.9982504
0.9961802
0.9965185
0.9987868
0.9998923
0.9999683
0.9999088
0.9993953
0.997873
0.9981847
0.9994203
0.9998972
0.9999302
0.9999445
0.999963
0.9999835
0.9999972
0.9999991
0.9999979
0.9999717
0.9996407
0.996296
0.9671612
0.8862368
0.8947739
0.9591008
0.9937046
0.9995707
0.9998349
0.9998869
0.9998736
0.9996489
0.9985061
0.9809435
0.7868153
0.7642354
0.8848613
0.9774507
0.9974211
0.9995048
0.999687
0.9996183
0.9986286
0.9889626
0.9419499
0.937468
0.9764805
0.9690887
0.9372965
0.9494429
0.9821196
0.9980763
0.9999559
0.9999997
0.9999999
0.999999
0.9999989
0.9999995
0.9999999
0.9999999
0.9999999
0.9999999
0.9999993
0.9999778
0.9994499
0.9896519
0.9622088
0.9751832
0.9946894
0.9974841
0.9912331
0.9634622
0.9611585
0.9755028
0.9943971
0.9994249
0.9995687
0.9995687
0.9988295
0.9952445
0.9949027
0.9953653
0.9968372
0.9987528
0.9996678
0.9994282
0.9976189
0.9862076
0.8973757
0.8829419
0.9529579
0.9947388
0.999829
0.9999406
0.9999124
0.9998286
0.9996052
0.9987854
0.9973021
0.9977032
0.9992446
0.9999211
0.9999854
0.999984
0.999961