/*--------------------------------*- C++ -*----------------------------------*\
| =========                 |                                                 |
| \\      /  F ield         | foam-extend: Open Source CFD                    |
|  \\    /   O peration     | Version:     3.1                                |
|   \\  /    A nd           | Web:         http://www.extend-project.de       |
|    \\/     M anipulation  |                                                 |
\*---------------------------------------------------------------------------*/
FoamFile
{
    version     2.0;
    format      ascii;
    class       volScalarField;
    location    "16.5";
    object      pd;
}
// * * * * * * * * * * * * * * * * * * * * * * * * * * * * * * * * * * * * * //

dimensions      [1 -1 -2 0 0 0 0];

internalField   nonuniform List<scalar> 
119952
(
6195.921
5039.211
4878.039
5047.198
5205.329
5092.614
5062.242
5038.199
5028.723
5024.178
5025.002
5031.706
5040.231
5048.789
5056.659
5063.119
5067.624
5068.194
5058.447
5002.982
5248.829
5097.425
5059.359
5372.54
5341.201
5396.18
5433.89
5540.373
5877.996
7157.87
3184.342
3161.248
3176.715
3192.122
3208.509
3224.724
3248.393
3273.737
3302.287
3306.537
3337.127
3386.079
3422.803
3464.431
3509.853
3560.156
3613.993
3670.894
3731.687
3846.961
3880.962
3939.79
4009.251
4080.459
4151.67
4222.327
4292.164
4358.613
4427.145
4476.128
4527.897
4580.844
4628.79
4671.89
4712.55
4752.326
4798.668
4884.39
5048.591
4952.812
4948.269
5030.618
5066.783
5069.347
5047.054
5037.212
5033.555
5033.18
5036.144
5042.305
5049.475
5056.399
5062.438
5067.024
5069.859
5071.082
5071.092
5075.775
5095.497
5118.214
5131.501
5206.422
5321.026
5358.18
5386.771
5424.174
5403.422
5223.437
5212.017
5278.336
5317.065
5355.836
5383.054
5400.46
5415.271
5435.407
5456.905
5477.429
5494.216
5506.965
5516.199
5523.179
5528.994
5534.442
5540.079
5546.272
5553.309
5561.382
5570.571
5581.445
5593.138
5606.403
5621.483
5638.423
5657.143
5677.72
5700.102
5724.371
5750.488
5778.385
5807.927
5838.818
5870.386
5901.309
5929.795
5954.929
5979.422
6007.652
6040.457
6075.448
6110.32
6144.019
6176.257
6207.077
6236.693
6265.506
6294.737
6325.602
6354.754
6380.756
6405.807
6429.774
6452.317
6473.239
6492.367
6509.562
6524.727
6537.688
6548.708
6557.434
6563.902
6568.079
6569.949
6569.363
6566.459
6561.411
6554.402
6545.704
6535.673
6524.789
6513.731
6503.027
6493.37
6486.009
6481.262
6479.556
6481.339
6486.596
6494.743
6504.019
6507.4
6500.878
6499.871
6512.715
6532.076
6551.288
6568.969
6584.671
6598.31
6610.102
6620.793
6631.18
6641.8
6652.815
6664.124
6675.219
6688.151
6706.685
6715.446
6726.955
6737.83
6748.522
6758.576
6768.107
6776.958
6785.013
6792.147
6798.267
6803.197
6806.775
6808.847
6809.302
6807.998
6804.97
6800.255
6793.955
6786.235
6777.265
6767.376
6756.865
6746.046
6735.216
6724.555
6714.204
6704.539
6695.271
6686.786
6678.622
6670.606
6662.296
6652.639
6638.889
6625.653
6643.199
6658.243
6670.047
6680.666
6690.882
6700.961
6710.865
6720.621
6730.195
6739.529
6748.584
6757.323
6765.693
6773.593
6781.177
6788.432
6795.369
6801.994
6808.31
6814.348
6820.096
6825.588
6830.794
6835.697
6840.322
6844.667
6848.803
6852.726
6856.63
6860.526
6864.423
6868.322
6872.136
6876.906
6915.565
6896.264
6886.838
6891.32
6893.361
6895.334
6898.252
6901.624
6904.924
6908.1
6911.068
6913.768
6916.418
6918.994
6921.427
6923.747
6925.935
6927.971
6929.861
6931.573
6933.099
6934.448
6935.634
6936.627
6937.491
6938.234
6938.894
6939.477
6939.981
6940.459
6940.994
6941.535
6941.99
6942.518
6943.145
6943.829
6944.521
6945.148
6945.952
6945.953
6943.848
6942.456
6944.477
6947.901
6950.978
6953.093
6953.402
6952.787
6951.753
6950.441
6948.795
6946.8
6944.209
6941.684
6935.137
6933.041
6932.62
6929.609
6927.621
6926.276
6925.062
6923.875
6922.666
6921.368
6919.991
6918.613
6917.29
6916.054
6914.892
6913.904
6913.113
6912.403
6911.765
6911.176
6910.612
6910.053
6909.479
6908.874
6908.236
6907.558
6906.84
6906.079
6905.277
6904.432
6903.546
6902.618
6901.648
6900.637
6899.585
6898.492
6897.361
6896.19
6894.983
6893.741
6892.466
6891.16
6889.823
6888.459
6887.069
6885.653
6884.212
6882.746
6881.256
6879.74
6878.196
6876.625
6875.024
6873.391
6871.724
6870.022
6868.282
6866.503
6864.683
6862.819
6860.912
6858.959
6856.96
6854.913
6852.815
6850.663
6848.454
6846.181
6843.835
6841.404
6838.873
6836.222
6833.425
6830.444
6827.232
6823.717
6819.804
6815.338
6810.103
6803.701
6795.503
6784.905
6774.849
6784.068
6849.581
4497.002
4368.935
4227.34
4095.498
3975.17
3865.098
3764.85
3675.036
3597.504
3495.214
3438.907
3382.767
3330.287
3285.473
3245.499
3212.346
3184.325
3156.808
3137.651
3142.289
3115.989
3097.937
3089.163
3083.197
3080.171
3079.634
3080.295
3084.225
3093.386
3085.188
3091.163
3099.187
3106.154
3113.909
3122.901
3132.668
3144.64
3166.442
3160.072
3167.265
3185.599
3203.567
3223.192
3245.075
3269.445
3295.713
3322.374
3352.264
3391.612
3431.186
3472.408
3517.233
3566.335
3619.643
3676.761
3738.902
3816.302
3889.185
3958.32
4028.609
4101.356
4174.829
4247.277
4317.453
4384.419
4446.13
4503.842
4556.896
4603.684
4645.176
4683.704
4721.434
4761.64
4806.995
4857.279
4903.822
4930.753
4945.955
4969.341
4995.232
5012.408
5019.925
5024.607
5030.692
5038.967
5048.647
5058.577
5067.575
5074.9
5080.367
5084.063
5086.467
5088.881
5092.664
5099.958
5113.835
5135.822
5168.332
5211.159
5260.608
5299.903
5322.407
5328.261
5315.012
5288.356
5275.344
5292.581
5324.878
5358.233
5386.012
5408.676
5429.356
5451.992
5473.782
5493.359
5509.649
5522.327
5531.729
5538.53
5543.545
5547.525
5551.139
5555.003
5559.519
5565.584
5572.819
5582.138
5592.967
5605.762
5620.531
5637.096
5655.635
5675.808
5697.863
5721.864
5747.646
5775.11
5804.062
5834.168
5864.887
5895.492
5925.439
5954.939
5985.13
6017.392
6051.876
6087.522
6123.133
6157.92
6191.431
6223.584
6254.568
6284.635
6314.005
6342.679
6370.373
6396.198
6420.36
6443.147
6463.98
6483.326
6500.902
6516.51
6530.055
6541.525
6550.876
6558.04
6562.951
6565.573
6565.863
6563.846
6559.533
6553.095
6544.763
6534.853
6523.773
6512.052
6500.299
6489.306
6479.912
6472.75
6468.589
6467.637
6469.705
6474.75
6481.796
6488.886
6496.477
6501.732
6507.858
6521.255
6539.071
6556.511
6573.567
6589.397
6603.893
6617.035
6629.195
6640.768
6652.117
6663.712
6675.404
6688.218
6699.012
6712.823
6722.273
6730.04
6740.332
6750.113
6759.595
6768.624
6776.909
6784.4
6791.04
6796.652
6801.059
6804.099
6805.627
6805.535
6803.768
6800.334
6795.297
6788.764
6780.897
6771.93
6762.094
6751.693
6741.025
6730.322
6719.883
6709.843
6700.371
6691.501
6683.162
6675.344
6667.712
6660.358
6653.171
6647.179
6645.461
6651.314
6662.284
6672.761
6683.008
6693.411
6703.804
6714.069
6724.165
6734.037
6743.584
6752.737
6761.467
6769.734
6777.461
6784.665
6791.833
6798.441
6804.704
6810.633
6816.258
6821.589
6826.642
6831.465
6835.986
6840.331
6844.45
6848.359
6852.201
6856.001
6859.812
6863.67
6867.568
6871.685
6877.82
6886.865
6893.475
6894.991
6894.705
6895.018
6896.903
6900.222
6904.182
6907.985
6911.289
6914.183
6916.918
6919.6
6922.192
6924.663
6926.668
6928.577
6930.327
6931.939
6933.305
6934.502
6935.543
6936.434
6937.162
6937.743
6938.188
6938.62
6939.026
6939.187
6939.342
6939.599
6939.869
6940.126
6940.436
6940.812
6941.221
6941.77
6942.3
6942.411
6942.715
6942.493
6942.437
6943.899
6946.098
6947.953
6949.357
6950.044
6950.023
6949.471
6948.58
6947.347
6945.757
6943.855
6941.826
6940.149
6937.366
6933.777
6931.09
6929.846
6929.039
6927.849
6926.319
6924.708
6923.125
6921.508
6919.888
6918.356
6916.98
6915.873
6914.676
6913.719
6912.902
6912.172
6911.492
6910.838
6910.194
6909.533
6908.845
6908.123
6907.361
6906.56
6905.717
6904.834
6903.911
6902.949
6901.947
6900.907
6899.827
6898.708
6897.551
6896.357
6895.127
6893.863
6892.566
6891.238
6889.882
6888.5
6887.093
6885.663
6884.211
6882.737
6881.242
6879.726
6878.186
6876.623
6875.035
6873.419
6871.775
6870.099
6868.389
6866.643
6864.859
6863.036
6861.172
6859.265
6857.315
6855.321
6853.281
6851.194
6849.055
6846.861
6844.605
6842.279
6839.872
6837.371
6834.758
6832.014
6829.106
6826.004
6822.648
6818.989
6814.931
6810.465
6805.628
6800.98
6797.752
6798.287
6804.167
6815.732
3762.938
3846.971
3953.675
4077.086
4216.231
4370.869
4539.692
4721.44
4913.737
5112.603
5319.792
5533.09
5745.53
5953.866
6154.528
6343.184
6515.638
6665.215
6784.278
6884.042
6940.903
6964.41
6953.265
6908.872
6833.241
6728.94
6599.652
6449.598
6286.502
6103.7
5916.282
5721.581
5525.653
5331.308
5141.089
4957.064
4781.47
4616.545
4450.725
4302.966
4164.633
4037.315
3920.905
3814.529
3717.858
3630.483
3552.766
3481.399
3415.026
3359.642
3310.338
3266.777
3229.046
3196.713
3169.906
3155.11
3113.786
3097.876
3090.564
3085.025
3079.55
3075.113
3072.752
3072.732
3074.992
3078.269
3082.235
3088.484
3094.62
3100.069
3106.057
3113.475
3122.457
3132.695
3143.213
3153.566
3165.188
3176.894
3189.732
3205.842
3224.538
3245.441
3268.562
3294.191
3323.06
3355.76
3391.245
3429.395
3470.923
3516.549
3566.151
3619.927
3677.349
3740.279
3810.673
3881.843
3952.48
4025.649
4102.059
4179.712
4256.13
4329.476
4398.593
4462.43
4519.888
4570.24
4613.634
4651.271
4684.667
4716.134
4747.392
4779.571
4813.123
4849.096
4879.234
4898.663
4921.227
4948.539
4974.668
4995.246
5011.552
5027.111
5043.149
5058.902
5073.141
5084.864
5093.57
5099.29
5102.464
5103.866
5104.702
5106.263
5111.553
5121.643
5138.56
5161.657
5191.681
5226.166
5256.228
5276.761
5287.859
5289.503
5282.856
5281.688
5297.397
5325.891
5357.346
5386.066
5411.583
5435.973
5460.656
5484.231
5505.234
5522.716
5536.409
5546.458
5553.272
5557.458
5559.836
5561.097
5562.152
5563.85
5567.08
5572.136
5579.104
5589.276
5601.304
5615.352
5631.231
5648.709
5667.933
5689.18
5712.264
5737.19
5763.879
5792.197
5821.92
5852.668
5883.996
5915.573
5947.427
5980.166
6014.607
6050.866
6088.208
6125.667
6162.507
6198.221
6232.574
6265.439
6296.884
6326.991
6355.738
6383.153
6408.819
6432.541
6454.495
6474.711
6493.103
6509.469
6523.794
6536.063
6546.24
6554.291
6560.175
6563.854
6565.263
6564.337
6561.055
6555.45
6547.696
6538.017
6526.727
6514.283
6501.262
6488.351
6476.373
6466.222
6458.658
6454.191
6453.087
6455.344
6460.598
6468.1
6476.974
6486.478
6495.696
6506.625
6521.494
6538.688
6556.12
6573.4
6589.986
6605.571
6620.114
6633.594
6646.299
6658.395
6670.287
6681.581
6692.301
6701.484
6711.509
6724.974
6737.579
6747.969
6757.012
6765.977
6775.1
6782.304
6789.243
6795.318
6800.286
6803.968
6806.201
6806.836
6805.783
6803.017
6798.525
6792.481
6785.027
6776.328
6766.598
6756.098
6745.152
6734.089
6723.206
6712.753
6702.876
6693.632
6685.016
6677.049
6669.598
6663.27
6657.767
6653.612
6651.616
6652.827
6657.649
6665.841
6675.576
6685.85
6696.335
6706.918
6717.524
6728.046
6738.348
6748.326
6757.868
6766.901
6775.397
6783.328
6790.698
6797.581
6803.957
6809.861
6815.492
6820.523
6825.362
6829.774
6834.019
6838.012
6841.806
6845.44
6848.942
6852.394
6855.804
6859.27
6862.815
6866.529
6870.404
6874.759
6877.169
6879.65
6883.021
6886.801
6890.745
6894.956
6899.521
6904.195
6908.577
6912.44
6915.835
6918.962
6921.923
6924.665
6927.126
6929.256
6931.191
6932.918
6934.346
6935.577
6936.511
6937.271
6937.843
6938.301
6938.623
6938.802
6938.864
6938.921
6938.858
6938.746
6938.634
6938.517
6938.444
6938.479
6938.631
6938.857
6939.15
6939.529
6939.971
6940.399
6940.581
6940.947
6941.937
6943.439
6944.816
6945.924
6946.641
6946.863
6946.663
6946.111
6945.336
6944.285
6942.963
6941.303
6939.226
6936.953
6935.019
6933.623
6932.606
6931.548
6930.181
6928.579
6926.934
6925.318
6923.681
6922.004
6920.379
6918.891
6917.554
6916.318
6915.256
6914.327
6913.486
6912.702
6911.942
6911.206
6910.43
6909.638
6908.821
6907.973
6907.087
6906.159
6905.192
6904.186
6903.145
6902.066
6900.952
6899.8
6898.613
6897.39
6896.132
6894.84
6893.516
6892.162
6890.78
6889.372
6887.94
6886.486
6885.012
6883.519
6882.008
6880.479
6878.93
6877.363
6875.775
6874.164
6872.529
6870.867
6869.177
6867.455
6865.699
6863.907
6862.078
6860.21
6858.303
6856.356
6854.368
6852.339
6850.267
6848.148
6845.978
6843.752
6841.464
6839.104
6836.663
6834.132
6831.494
6828.736
6825.83
6822.758
6819.5
6816.069
6812.554
6809.171
6806.322
6804.583
6804.474
6807.03
6812.451
3546.523
3521.41
3504.654
3489.373
3481.212
3486.728
3505.165
3540.177
3590.103
3624.566
3647.071
3689.708
3754.572
3839.212
3942.141
4061.617
4196.225
4344.248
4505.81
4679.335
4863.776
5057.488
5257.59
5461.538
5665.841
5866.347
6060.747
6242.69
6408.506
6554.352
6678.3
6791.839
6849.569
6869.276
6850.573
6798.588
6716.138
6605.99
6471.795
6317.925
6149.001
5968.397
5779.699
5586.648
5392.924
5201.492
5014.838
4834.819
4663.172
4500.664
4348.023
4206.271
4075.007
3954.252
3844.064
3743.972
3653.251
3571.168
3497.002
3430.363
3371.097
3318.777
3273.171
3233.753
3199.569
3169.768
3143.655
3121.488
3101.952
3088.984
3081.793
3075.889
3070.352
3066.07
3063.958
3064.516
3067.567
3072.379
3078.351
3084.511
3089.723
3095.015
3101.389
3109.009
3118.096
3128.452
3138.288
3148.654
3159.438
3170.615
3183.539
3198.821
3216.536
3236.513
3258.717
3283.661
3311.832
3343.249
3377.893
3415.732
3456.855
3501.596
3550.582
3604.111
3662.992
3726.782
3794.932
3867.226
3943.099
4022.54
4105.142
4188.23
4270.044
4348.339
4421.416
4487.502
4544.93
4593.093
4632.43
4664.016
4689.229
4710.282
4729.368
4748.62
4769.914
4794.396
4819.361
4842.593
4868.525
4899.109
4931.767
4962.954
4991.669
5018.6
5043.983
5067.078
5086.779
5102.242
5113.137
5119.654
5122.403
5122.345
5120.796
5119.355
5120.104
5124.726
5134.721
5150.208
5171.241
5195.937
5219.608
5239.49
5254.799
5264.891
5271.992
5281.943
5300.376
5327.025
5357.403
5387.384
5415.793
5443.327
5470.42
5496.028
5518.822
5537.861
5552.585
5562.809
5568.846
5571.359
5571.32
5569.812
5567.982
5566.885
5567.468
5570.337
5575.847
5584.283
5595.28
5608.556
5623.715
5640.447
5658.741
5678.696
5700.482
5724.212
5749.847
5777.406
5806.84
5837.833
5869.96
5902.934
5936.763
5971.769
6008.321
6046.38
6085.429
6124.789
6163.833
6202.022
6238.94
6274.281
6307.912
6339.755
6369.752
6397.892
6423.983
6447.889
6469.69
6489.408
6506.932
6522.274
6535.387
6546.33
6555.101
6561.707
6566.098
6568.288
6568.228
6565.866
6561.164
6554.107
6544.769
6533.353
6520.23
6505.866
6490.875
6476.04
6462.281
6450.547
6441.726
6436.528
6435.332
6438.061
6444.212
6453.026
6463.783
6475.959
6489.003
6503.28
6519.44
6536.922
6554.751
6572.431
6589.53
6605.768
6621.068
6635.511
6649.178
6662.248
6674.696
6686.67
6698.042
6709.14
6720.915
6732.948
6744.063
6753.872
6762.88
6771.477
6779.074
6787.426
6794.293
6800.019
6804.549
6807.735
6809.434
6809.463
6807.732
6804.252
6799.049
6792.248
6784.039
6774.661
6764.289
6753.147
6741.576
6729.995
6718.754
6708.056
6698.057
6688.837
6680.374
6672.678
6665.798
6659.956
6655.33
6652.36
6651.524
6653.318
6658.036
6665.664
6675.246
6685.726
6696.569
6707.608
6718.743
6729.833
6740.7
6751.186
6761.18
6770.614
6779.416
6787.552
6795.025
6801.849
6808.039
6813.658
6818.847
6823.616
6827.995
6832.212
6836.108
6839.54
6842.842
6845.997
6849.031
6852.008
6855.029
6858.139
6861.415
6864.822
6868.304
6871.596
6875.46
6879.765
6884.133
6888.445
6892.708
6897.056
6901.594
6906.227
6910.716
6914.859
6918.606
6922.021
6925.147
6927.978
6930.475
6932.604
6934.429
6935.977
6937.221
6938.206
6938.977
6939.496
6939.812
6939.998
6940.034
6939.889
6939.648
6939.326
6938.901
6938.408
6937.88
6937.34
6936.914
6936.631
6936.483
6936.484
6936.702
6937.05
6937.494
6937.949
6938.35
6938.874
6939.705
6940.734
6941.71
6942.507
6943.044
6943.251
6943.15
6942.769
6942.187
6941.397
6940.411
6939.199
6937.834
6936.563
6935.498
6934.488
6933.484
6932.355
6931.133
6929.811
6928.387
6926.909
6925.41
6923.886
6922.395
6920.977
6919.633
6918.378
6917.253
6916.237
6915.298
6914.417
6913.577
6912.727
6911.881
6910.988
6910.072
6909.114
6908.129
6907.106
6906.051
6904.958
6903.831
6902.67
6901.476
6900.248
6898.987
6897.692
6896.366
6895.008
6893.62
6892.205
6890.765
6889.301
6887.817
6886.315
6884.796
6883.261
6881.711
6880.146
6878.566
6876.969
6875.355
6873.721
6872.065
6870.386
6868.68
6866.944
6865.175
6863.372
6861.532
6859.655
6857.742
6855.792
6853.807
6851.785
6849.726
6847.628
6845.485
6843.292
6841.045
6838.738
6836.364
6833.918
6831.397
6828.804
6826.134
6823.381
6820.569
6817.723
6814.968
6812.422
6810.392
6809.026
6808.819
6809.765
6812.631
3981.04
3941.195
3903.342
3863.089
3820.774
3775.986
3734.532
3694.151
3655.488
3619.077
3584.733
3553.988
3526.836
3504.701
3488.498
3478.811
3479.839
3491.269
3511.963
3538.896
3569.658
3609.999
3665.278
3735.63
3823.134
3927.685
4048.28
4183.983
4333.751
4496.451
4670.748
4854.962
5047.712
5245.98
5447.186
5648.702
5846.864
6039.428
6220.695
6384.769
6526.026
6639.062
6716.23
6767.562
6784.857
6765.305
6711.661
6627.259
6515.42
6379.953
6225.048
6055.245
5874.502
5686.547
5495.028
5303.272
5114.274
4930.34
4753.14
4584.404
4425.013
4274.899
4135.118
4006.91
3890.409
3785.04
3689.793
3603.548
3525.344
3454.629
3391.127
3334.757
3285.679
3243.552
3207.392
3175.82
3147.846
3122.854
3101.581
3085.027
3074.012
3067.6
3063.381
3059.512
3056.2
3054.701
3056.03
3060.799
3067.159
3073.817
3081.091
3085.9
3090.633
3096.894
3104.268
3112.884
3123.747
3132.782
3141.486
3151.196
3162.339
3175.287
3189.559
3205.804
3224.31
3245.004
3268.539
3295.668
3326.396
3360.358
3397.151
3436.92
3480.209
3527.812
3580.374
3638.461
3701.694
3770.779
3846.431
3928.255
4014.992
4104.968
4196.948
4287.221
4373.104
4452.376
4522.854
4582.034
4628.404
4662.119
4684.416
4697.293
4703.844
4707.614
4711.82
4719.082
4731.995
4751.16
4774.764
4804.007
4840.144
4881.519
4924.947
4967.683
5007.865
5044.421
5076.438
5102.912
5123.1
5136.724
5144.043
5145.863
5143.42
5138.13
5131.682
5126.169
5123.716
5126.294
5134.529
5148.393
5166.692
5186.595
5206.1
5224.231
5240.801
5256.86
5274.799
5297.302
5325.155
5356.471
5388.657
5420.329
5451.293
5481.475
5509.959
5535.29
5556.213
5571.991
5582.325
5587.414
5587.887
5584.7
5579.25
5573.26
5568.246
5565.442
5565.712
5569.437
5576.564
5586.775
5599.547
5614.148
5630.103
5647.245
5665.652
5685.911
5708.167
5732.346
5758.908
5788.136
5819.666
5852.913
5887.497
5923.326
5960.516
5999.211
6039.324
6080.507
6122.24
6163.94
6205.065
6245.044
6283.387
6319.755
6353.927
6385.768
6415.2
6442.127
6466.465
6488.264
6507.569
6524.414
6538.853
6550.829
6560.358
6567.505
6572.393
6575.099
6575.622
6573.873
6569.811
6563.358
6554.475
6543.16
6529.557
6514.078
6497.21
6479.575
6462.023
6445.627
6431.584
6421.067
6414.974
6413.74
6417.288
6424.979
6435.867
6449.162
6464.201
6480.329
6497.389
6515.463
6534.151
6552.861
6571.307
6589.272
6606.529
6622.876
6638.322
6652.973
6666.882
6680.004
6692.514
6704.615
6716.61
6728.435
6739.818
6750.716
6761.002
6770.564
6779.39
6787.47
6795.119
6801.778
6807.287
6811.545
6814.367
6815.496
6814.834
6812.381
6808.156
6802.209
6794.612
6785.524
6775.175
6763.771
6751.47
6738.759
6726.512
6714.734
6703.513
6693.232
6683.982
6675.638
6668.155
6661.616
6656.195
6652.104
6649.686
6649.338
6651.412
6656.275
6664.043
6673.974
6684.945
6696.325
6707.926
6719.626
6731.255
6742.634
6753.64
6764.104
6773.918
6783.013
6791.349
6798.919
6805.737
6811.846
6817.318
6822.252
6826.726
6830.82
6834.612
6837.982
6841.177
6844.043
6846.702
6849.249
6851.776
6854.408
6857.201
6860.183
6863.298
6866.614
6870.179
6874.194
6878.514
6882.96
6887.517
6892.203
6897.04
6902.015
6907.021
6911.884
6916.441
6920.6
6924.369
6927.772
6930.809
6933.459
6935.696
6937.533
6938.999
6940.13
6940.945
6941.474
6941.742
6941.834
6941.749
6941.659
6941.093
6940.519
6939.832
6939.003
6938.074
6937.098
6936.137
6935.297
6934.651
6934.21
6934.031
6934.128
6934.496
6934.991
6935.539
6936.089
6936.681
6937.374
6938.116
6938.793
6939.33
6939.683
6939.827
6939.785
6939.584
6939.243
6938.773
6938.219
6937.587
6936.915
6936.237
6935.498
6934.622
6933.697
6932.772
6931.85
6930.859
6929.76
6928.588
6927.391
6926.093
6924.762
6923.44
6922.156
6920.935
6919.798
6918.727
6917.711
6916.737
6915.783
6914.818
6913.844
6912.857
6911.828
6910.758
6909.657
6908.502
6907.329
6906.126
6904.895
6903.632
6902.339
6901.016
6899.663
6898.28
6896.868
6895.43
6893.965
6892.477
6890.967
6889.439
6887.894
6886.336
6884.765
6883.182
6881.589
6879.985
6878.368
6876.739
6875.094
6873.434
6871.755
6870.055
6868.33
6866.577
6864.792
6862.975
6861.121
6859.231
6857.304
6855.345
6853.356
6851.337
6849.286
6847.205
6845.085
6842.922
6840.719
6838.469
6836.172
6833.831
6831.449
6829.032
6826.593
6824.144
6821.717
6819.339
6817.109
6815.09
6813.482
6812.356
6812.053
6812.38
6814.07
4394.612
4346.005
4301.457
4259.277
4220.227
4176.555
4138.562
4100.756
4062.775
4023.997
3985.342
3946.531
3906.304
3866.077
3823.978
3776.7
3735.472
3695.401
3656.693
3619.708
3584.973
3553.134
3524.708
3500.71
3481.689
3468.691
3462.134
3465.388
3477.288
3497.532
3526.84
3567.746
3621.921
3692.436
3779.365
3882.357
4000.974
4134.383
4281.653
4441.83
4613.434
4794.15
4981.621
5174.027
5369.886
5567.132
5762.47
5951.575
6128.925
6288.609
6425.312
6535.076
6612.761
6658.022
6668.757
6643.977
6585.379
6496.255
6380.444
6242.027
6085.263
5914.578
5734.152
5547.831
5359.125
5171.278
4987.28
4809.057
4638.148
4475.279
4320.901
4175.901
4041.469
3919.165
3809.202
3710.625
3621.993
3541.82
3468.831
3402.424
3342.678
3290.153
3245.363
3207.824
3176.022
3147.906
3122.095
3098.386
3078.168
3063.282
3054.854
3051.082
3049.806
3047.733
3044.596
3043.314
3045.713
3052.849
3061.729
3068.786
3077.016
3082.089
3085.541
3091.491
3099.235
3106.341
3115.886
3125.32
3132.837
3141.484
3151.911
3164.44
3177.091
3191.84
3208.703
3227.068
3248.578
3274.822
3305.178
3338.491
3373.805
3411.263
3452.13
3497.53
3547.915
3604.303
3666.892
3737.17
3816.756
3905.477
4001.515
4102.446
4205.664
4307.548
4404.407
4493.299
4570.623
4632.584
4677.263
4704.695
4715.991
4713.544
4701.775
4686.124
4671.161
4660.34
4659.771
4671.661
4695.096
4727.518
4769.773
4821.83
4880.715
4940.658
4996.569
5046.25
5088.819
5123.442
5149.357
5166.222
5174.316
5174.492
5168.239
5157.381
5143.834
5129.997
5118.811
5113.156
5114.104
5122.067
5135.894
5153.564
5173.598
5194.279
5215.734
5238.025
5262.062
5289.285
5320.361
5354.402
5389.41
5424.281
5458.89
5492.932
5525.247
5554.045
5577.54
5594.646
5604.894
5608.287
5605.75
5598.518
5588.092
5576.746
5566.778
5559.943
5557.273
5559.155
5565.348
5575.342
5588.187
5602.593
5617.94
5633.927
5650.322
5668.338
5689.118
5711.305
5736.615
5765.797
5798.216
5832.912
5869.289
5907.134
5946.461
5987.398
6029.925
6073.751
6118.391
6163.232
6207.666
6251.025
6292.655
6332.047
6368.852
6402.871
6433.973
6462.113
6487.258
6509.408
6528.588
6544.839
6558.236
6568.888
6576.884
6582.35
6585.503
6586.539
6585.452
6582.107
6576.411
6568.156
6557.234
6543.69
6527.665
6509.473
6489.571
6468.571
6447.413
6427.4
6410.064
6397.031
6389.462
6387.929
6392.639
6402.623
6416.258
6432.6
6450.949
6470.435
6490.466
6510.752
6531.003
6550.886
6570.292
6589.208
6607.463
6624.804
6641.077
6656.39
6670.896
6684.722
6697.966
6710.644
6722.905
6734.871
6746.488
6757.743
6768.464
6778.444
6787.645
6796.116
6803.891
6810.692
6816.361
6820.364
6822.858
6823.639
6822.523
6819.42
6814.37
6807.399
6798.685
6788.672
6777.391
6764.719
6750.753
6736.845
6723.461
6710.738
6698.628
6687.923
6678.68
6670.459
6663.092
6656.811
6651.697
6647.906
6645.637
6645.212
6646.959
6651.429
6658.945
6668.679
6681.423
6695.363
6708.339
6720.816
6733.144
6745.148
6756.643
6767.493
6777.62
6786.931
6795.377
6802.965
6809.713
6815.672
6820.936
6825.618
6829.817
6833.642
6837.142
6840.265
6843.026
6845.401
6847.564
6849.551
6851.56
6853.755
6856.208
6858.977
6861.837
6865.06
6868.637
6872.627
6876.964
6881.58
6886.479
6891.652
6897.04
6902.536
6907.983
6913.208
6918.08
6922.571
6926.639
6930.269
6933.484
6936.277
6938.631
6940.559
6942.024
6943.061
6943.704
6943.994
6943.998
6943.793
6943.384
6942.71
6942.183
6941.371
6940.334
6939.107
6937.735
6936.286
6934.838
6933.554
6932.554
6931.799
6931.424
6931.48
6931.898
6932.513
6933.205
6933.884
6934.528
6935.14
6935.694
6936.148
6936.474
6936.66
6936.708
6936.64
6936.493
6936.336
6936.187
6936.047
6935.899
6935.722
6935.49
6935.189
6934.793
6934.286
6933.688
6933.048
6932.32
6931.457
6930.455
6929.381
6928.259
6927.117
6925.959
6924.801
6923.671
6922.614
6921.549
6920.494
6919.45
6918.402
6917.34
6916.259
6915.148
6913.996
6912.81
6911.57
6910.301
6908.994
6907.637
6906.274
6904.891
6903.481
6902.041
6900.576
6899.086
6897.571
6896.035
6894.478
6892.903
6891.312
6889.708
6888.094
6886.473
6884.844
6883.211
6881.571
6879.925
6878.271
6876.607
6874.932
6873.244
6871.542
6869.821
6868.077
6866.305
6864.501
6862.663
6860.787
6858.877
6856.933
6854.959
6852.964
6850.948
6848.91
6846.851
6844.767
6842.649
6840.492
6838.294
6836.065
6833.817
6831.565
6829.321
6827.101
6824.93
6822.829
6820.809
6818.95
6817.29
6815.949
6814.985
6814.598
6814.654
6815.68
4626.908
4606.326
4557.088
4497.531
4439.187
4387.419
4340.084
4296.654
4256.663
4216.707
4172.886
4135.513
4098.44
4061.044
4023.051
3984.463
3945.189
3904.983
3864.033
3823.123
3782.977
3742.145
3701.906
3662.62
3624.656
3588.421
3554.124
3522.025
3493.3
3469.122
3450.576
3439.384
3436.496
3442.905
3459.819
3487.916
3528.627
3583.553
3653.676
3739.532
3840.992
3957.698
4088.88
4233.592
4390.572
4557.457
4732.226
4913.619
5100.851
5293.227
5486.883
5677.8
5861.239
6031.615
6183.167
6310.532
6409.427
6476.192
6509.092
6508.046
6473.44
6406.808
6311.055
6190.159
6048.186
5889.615
5718.678
5539.533
5356.371
5172.611
4991.47
4814.95
4644.455
4481.872
4327.247
4180.62
4043.932
3918.478
3805.486
3705.358
3616.63
3536.956
3464.661
3398.379
3337.289
3281.858
3233.598
3193.884
3162.428
3137.146
3114.478
3091.845
3068.73
3048.214
3034.1
3029.12
3032.87
3033.182
3033.06
3029.044
3027.796
3032.346
3043.949
3057.893
3064.866
3071.303
3076.13
3079.058
3084.436
3094.794
3100.902
3104.918
3111.704
3121.502
3131.132
3141.119
3153.468
3161.518
3173.564
3189.055
3204.612
3223.747
3249.698
3279.869
3312.098
3345.566
3380.711
3418.184
3460.389
3507.371
3561.187
3620.884
3690.88
3774.363
3871.38
3979.493
4095.155
4214.236
4331.601
4442.944
4545.009
4632.347
4698.879
4742.217
4762.69
4760.826
4739.306
4704.668
4664.695
4627.017
4593.341
4577.387
4581.387
4603.593
4640.402
4690.363
4753.778
4829.969
4910.555
4985.424
5050.502
5105.161
5148.993
5181.286
5201.527
5210.113
5208.238
5197.467
5179.517
5156.466
5131.528
5109.313
5094.177
5087.224
5090.333
5101.214
5117.604
5138.904
5163.172
5189.156
5216.838
5246.162
5277.421
5311.712
5349.081
5388.061
5427.437
5466.921
5505.886
5543.157
5576.072
5601.953
5618.073
5628.616
5632.355
5626.768
5613.637
5596.072
5577.419
5561.12
5549.606
5543.883
5544.135
5549.961
5560.64
5574.671
5589.547
5604.593
5619.296
5632.271
5645.904
5665.589
5686.474
5710.107
5739.427
5773.16
5809.562
5847.755
5887.529
5928.926
5972.132
6017.144
6063.954
6112.057
6160.623
6208.932
6256.189
6301.572
6344.414
6384.199
6420.68
6453.736
6483.285
6509.356
6532.013
6551.293
6567.236
6579.824
6589.136
6595.482
6599.169
6600.553
6599.906
6597.348
6592.688
6585.606
6575.773
6562.967
6547.187
6528.493
6507.023
6483.069
6457.729
6432.213
6407.749
6386.023
6369.553
6359.939
6357.761
6364.053
6377.291
6394.449
6414.436
6436.668
6459.933
6483.249
6506.055
6528.135
6549.417
6569.988
6590.027
6609.413
6627.632
6644.48
6660.166
6674.898
6688.748
6702.083
6715.18
6727.927
6740.328
6752.391
6764.038
6775.165
6785.685
6795.53
6804.675
6813.047
6820.372
6826.209
6830.542
6833.019
6833.605
6832.091
6828.443
6822.629
6814.633
6804.453
6793.124
6781.216
6767.236
6751.62
6736.261
6721.09
6706.557
6692.892
6681.169
6670.449
6660.234
6653.509
6650.05
6646.479
6642.935
6640.562
6638.932
6631.1
6598.705
6610.7
6651.972
6680.614
6695.404
6708.647
6721.802
6734.28
6746.286
6759.208
6771.454
6782.138
6791.617
6800.092
6807.602
6814.146
6819.794
6824.674
6828.945
6832.757
6836.247
6839.474
6842.349
6844.762
6846.693
6848.305
6849.753
6851.174
6852.912
6855.022
6857.376
6860.136
6862.72
6864.932
6868.949
6874.552
6880.325
6885.721
6891.353
6897.325
6903.128
6908.76
6914.605
6920.091
6924.957
6929.241
6933.038
6936.392
6939.285
6941.688
6943.583
6944.958
6945.834
6946.248
6946.265
6945.975
6945.475
6944.84
6944.099
6943.29
6942.243
6940.887
6939.244
6937.392
6935.41
6933.387
6931.632
6930.378
6929.247
6928.616
6928.68
6929.255
6930.095
6930.997
6931.843
6932.579
6933.172
6933.611
6933.9
6934.041
6934.08
6934.043
6933.955
6933.853
6933.808
6933.848
6933.964
6934.14
6934.335
6934.487
6934.542
6934.488
6934.407
6934.25
6933.992
6933.588
6933.069
6932.414
6931.616
6930.718
6929.776
6928.795
6927.771
6926.694
6925.618
6924.548
6923.473
6922.38
6921.265
6920.121
6918.939
6917.714
6916.453
6915.15
6913.79
6912.394
6910.944
6909.453
6907.927
6906.396
6904.849
6903.278
6901.684
6900.069
6898.437
6896.788
6895.124
6893.45
6891.766
6890.078
6888.388
6886.698
6885.009
6883.321
6881.634
6879.946
6878.254
6876.557
6874.855
6873.142
6871.421
6869.683
6867.923
6866.133
6864.309
6862.448
6860.548
6858.611
6856.641
6854.643
6852.634
6850.618
6848.595
6846.562
6844.516
6842.452
6840.351
6838.206
6836.029
6833.849
6831.693
6829.588
6827.558
6825.635
6823.81
6822.081
6820.531
6819.14
6817.975
6817.1
6816.627
6816.506
6817.069
4608.465
4573.887
4504.722
4454.809
4406.685
4362.303
4321.065
4282.247
4245.04
4209.056
4174.175
4138.602
4102.661
4066.018
4028.684
3990.422
3951.184
3910.915
3869.582
3827.666
3786.514
3745.514
3704.863
3664.864
3625.207
3585.905
3547.909
3512.079
3479.391
3451.576
3430.248
3416.375
3410.946
3414.98
3429.779
3456.367
3496.269
3550.377
3619.433
3703.844
3803.516
3918.149
4046.75
4188.16
4339.469
4499.355
4667.707
4844.468
5027.584
5214.738
5402.153
5585.31
5759.133
5918.084
6056.555
6169.447
6252.737
6303.705
6321.269
6305.926
6259.032
6182.695
6079.617
5953.738
5808.879
5649.509
5479.841
5303.837
5125.172
4947.394
4774.276
4607.107
4446.742
4294.484
4150.19
4014.373
3888.713
3773.59
3670.482
3581.426
3505.3
3437.728
3375.463
3317.146
3262.299
3211.569
3167.86
3133.784
3108.952
3091.054
3074.511
3056.613
3035.303
3014.914
3001.876
2999.423
3012.805
3018.219