/*--------------------------------*- C++ -*----------------------------------*\
| =========                 |                                                 |
| \\      /  F ield         | foam-extend: Open Source CFD                    |
|  \\    /   O peration     | Version:     3.1                                |
|   \\  /    A nd           | Web:         http://www.extend-project.de       |
|    \\/     M anipulation  |                                                 |
\*---------------------------------------------------------------------------*/
FoamFile
{
    version     2.0;
    format      ascii;
    class       volVectorField;
    location    "38";
    object      HU;
}
// * * * * * * * * * * * * * * * * * * * * * * * * * * * * * * * * * * * * * //

dimensions      [0 2 -1 0 0 0 0];

internalField   nonuniform List<vector> 
2539
(
(0.624831 0 0)
(0.624657 0 0)
(0.624663 0 0)
(0.624663 0 0)
(0.624662 0 0)
(0.624662 0 0)
(0.624661 0 0)
(0.624661 0 0)
(0.62466 0 0)
(0.62466 0 0)
(0.62466 0 0)
(0.624659 0 0)
(0.624659 0 0)
(0.624658 0 0)
(0.624658 0 0)
(0.624657 0 0)
(0.624657 0 0)
(0.624656 0 0)
(0.624656 0 0)
(0.624655 0 0)
(0.624655 0 0)
(0.624654 0 0)
(0.624654 0 0)
(0.624654 0 0)
(0.624653 0 0)
(0.624653 0 0)
(0.624652 0 0)
(0.624652 0 0)
(0.624651 0 0)
(0.624651 0 0)
(0.62465 0 0)
(0.62465 0 0)
(0.624649 0 0)
(0.624649 0 0)
(0.624648 0 0)
(0.624648 0 0)
(0.624647 0 0)
(0.624647 0 0)
(0.624646 0 0)
(0.624646 0 0)
(0.624645 0 0)
(0.624645 0 0)
(0.624644 0 0)
(0.624644 0 0)
(0.624643 0 0)
(0.624643 0 0)
(0.624642 0 0)
(0.624642 0 0)
(0.624641 0 0)
(0.624641 0 0)
(0.62464 0 0)
(0.62464 0 0)
(0.624639 0 0)
(0.624639 0 0)
(0.624638 0 0)
(0.624637 0 0)
(0.624637 0 0)
(0.624636 0 0)
(0.624636 0 0)
(0.624635 0 0)
(0.624635 0 0)
(0.624634 0 0)
(0.624634 0 0)
(0.624633 0 0)
(0.624633 0 0)
(0.624632 0 0)
(0.624632 0 0)
(0.624631 0 0)
(0.62463 0 0)
(0.62463 0 0)
(0.624629 0 0)
(0.624629 0 0)
(0.624628 0 0)
(0.624628 0 0)
(0.624627 0 0)
(0.624626 0 0)
(0.624626 0 0)
(0.624625 0 0)
(0.624625 0 0)
(0.624624 0 0)
(0.624624 0 0)
(0.624623 0 0)
(0.624622 0 0)
(0.624622 0 0)
(0.624621 0 0)
(0.624621 0 0)
(0.62462 0 0)
(0.624619 0 0)
(0.624619 0 0)
(0.624618 0 0)
(0.624618 0 0)
(0.624617 0 0)
(0.624616 0 0)
(0.624616 0 0)
(0.624615 0 0)
(0.624614 0 0)
(0.624614 0 0)
(0.624613 0 0)
(0.624613 0 0)
(0.624612 0 0)
(0.624611 0 0)
(0.624611 0 0)
(0.62461 0 0)
(0.624609 0 0)
(0.624609 0 0)
(0.624608 0 0)
(0.624607 0 0)
(0.624607 0 0)
(0.624606 0 0)
(0.624605 0 0)
(0.624605 0 0)
(0.624604 0 0)
(0.624603 0 0)
(0.624603 0 0)
(0.624602 0 0)
(0.624601 0 0)
(0.624601 0 0)
(0.6246 0 0)
(0.624599 0 0)
(0.624599 0 0)
(0.624598 0 0)
(0.624597 0 0)
(0.624597 0 0)
(0.624596 0 0)
(0.624595 0 0)
(0.624595 0 0)
(0.624594 0 0)
(0.624593 0 0)
(0.624592 0 0)
(0.624592 0 0)
(0.624591 0 0)
(0.62459 0 0)
(0.624589 0 0)
(0.624589 0 0)
(0.624588 0 0)
(0.624587 0 0)
(0.624587 0 0)
(0.624586 0 0)
(0.624585 0 0)
(0.624584 0 0)
(0.624583 0 0)
(0.624583 0 0)
(0.624582 0 0)
(0.624581 0 0)
(0.62458 0 0)
(0.62458 0 0)
(0.624579 0 0)
(0.624578 0 0)
(0.624577 0 0)
(0.624576 0 0)
(0.624576 0 0)
(0.624575 0 0)
(0.624574 0 0)
(0.624573 0 0)
(0.624572 0 0)
(0.624572 0 0)
(0.624571 0 0)
(0.62457 0 0)
(0.624569 0 0)
(0.624568 0 0)
(0.624567 0 0)
(0.624567 0 0)
(0.624566 0 0)
(0.624565 0 0)
(0.624564 0 0)
(0.624563 0 0)
(0.624562 0 0)
(0.624561 0 0)
(0.624561 0 0)
(0.62456 0 0)
(0.624559 0 0)
(0.624558 0 0)
(0.624557 0 0)
(0.624556 0 0)
(0.624555 0 0)
(0.624554 0 0)
(0.624553 0 0)
(0.624552 0 0)
(0.624552 0 0)
(0.624551 0 0)
(0.62455 0 0)
(0.624549 0 0)
(0.624548 0 0)
(0.624547 0 0)
(0.624336 0 0)
(0.624423 0 0)
(0.624843 0 0)
(0.624865 0 0)
(0.624866 0 0)
(0.624866 0 0)
(0.624866 0 0)
(0.624866 0 0)
(0.624866 0 0)
(0.624866 0 0)
(0.624866 0 0)
(0.624866 0 0)
(0.624866 0 0)
(0.624866 0 0)
(0.624866 0 0)
(0.624865 0 0)
(0.624865 0 0)
(0.624865 0 0)
(0.624865 0 0)
(0.624865 0 0)
(0.624865 0 0)
(0.624865 0 0)
(0.624865 0 0)
(0.624865 0 0)
(0.624865 0 0)
(0.624865 0 0)
(0.624864 0 0)
(0.624864 0 0)
(0.624864 0 0)
(0.624864 0 0)
(0.624864 0 0)
(0.624864 0 0)
(0.624864 0 0)
(0.624864 0 0)
(0.624864 0 0)
(0.624864 0 0)
(0.624864 0 0)
(0.624863 0 0)
(0.624863 0 0)
(0.624863 0 0)
(0.624863 0 0)
(0.624863 0 0)
(0.624863 0 0)
(0.624863 0 0)
(0.624863 0 0)
(0.624863 0 0)
(0.624863 0 0)
(0.624863 0 0)
(0.624862 0 0)
(0.624862 0 0)
(0.624862 0 0)
(0.624862 0 0)
(0.624862 0 0)
(0.624862 0 0)
(0.624862 0 0)
(0.624862 0 0)
(0.624862 0 0)
(0.624862 0 0)
(0.624862 0 0)
(0.624861 0 0)
(0.624861 0 0)
(0.624861 0 0)
(0.624861 0 0)
(0.624861 0 0)
(0.624861 0 0)
(0.624861 0 0)
(0.624861 0 0)
(0.624861 0 0)
(0.624861 0 0)
(0.624861 0 0)
(0.62486 0 0)
(0.62486 0 0)
(0.62486 0 0)
(0.62486 0 0)
(0.62486 0 0)
(0.62486 0 0)
(0.62486 0 0)
(0.62486 0 0)
(0.62486 0 0)
(0.62486 0 0)
(0.624859 0 0)
(0.624859 0 0)
(0.624859 0 0)
(0.624859 0 0)
(0.624859 0 0)
(0.624859 0 0)
(0.624859 0 0)
(0.624859 0 0)
(0.624859 0 0)
(0.624859 0 0)
(0.624858 0 0)
(0.624858 0 0)
(0.624858 0 0)
(0.624858 0 0)
(0.624858 0 0)
(0.624858 0 0)
(0.624858 0 0)
(0.624858 0 0)
(0.624858 0 0)
(0.624858 0 0)
(0.624857 0 0)
(0.624857 0 0)
(0.624857 0 0)
(0.624857 0 0)
(0.624857 0 0)
(0.624857 0 0)
(0.624857 0 0)
(0.624857 0 0)
(0.624857 0 0)
(0.624857 0 0)
(0.624856 0 0)
(0.624856 0 0)
(0.624856 0 0)
(0.624856 0 0)
(0.624856 0 0)
(0.624856 0 0)
(0.624856 0 0)
(0.624856 0 0)
(0.624856 0 0)
(0.624855 0 0)
(0.624855 0 0)
(0.624855 0 0)
(0.624855 0 0)
(0.624855 0 0)
(0.624855 0 0)
(0.624855 0 0)
(0.624855 0 0)
(0.624855 0 0)
(0.624855 0 0)
(0.624854 0 0)
(0.624854 0 0)
(0.624854 0 0)
(0.624854 0 0)
(0.624854 0 0)
(0.624854 0 0)
(0.624854 0 0)
(0.624854 0 0)
(0.624854 0 0)
(0.624853 0 0)
(0.624853 0 0)
(0.624853 0 0)
(0.624853 0 0)
(0.624853 0 0)
(0.624853 0 0)
(0.624853 0 0)
(0.624853 0 0)
(0.624853 0 0)
(0.624852 0 0)
(0.624852 0 0)
(0.624852 0 0)
(0.624852 0 0)
(0.624852 0 0)
(0.624852 0 0)
(0.624852 0 0)
(0.624852 0 0)
(0.624852 0 0)
(0.624851 0 0)
(0.624851 0 0)
(0.624851 0 0)
(0.624851 0 0)
(0.624851 0 0)
(0.624851 0 0)
(0.624851 0 0)
(0.624851 0 0)
(0.624851 0 0)
(0.62485 0 0)
(0.62485 0 0)
(0.62485 0 0)
(0.62485 0 0)
(0.62485 0 0)
(0.62485 0 0)
(0.62485 0 0)
(0.62485 0 0)
(0.624849 0 0)
(0.624849 0 0)
(0.624849 0 0)
(0.624849 0 0)
(0.624849 0 0)
(0.624849 0 0)
(0.624849 0 0)
(0.624849 0 0)
(0.624848 0 0)
(0.624848 0 0)
(0.624848 0 0)
(0.624848 0 0)
(0.624848 0 0)
(0.624848 0 0)
(0.624848 0 0)
(0.624848 0 0)
(0.624848 0 0)
(0.624847 0 0)
(0.624847 0 0)
(0.624847 0 0)
(0.624847 0 0)
(0.624847 0 0)
(0.624847 0 0)
(0.624847 0 0)
(0.624846 0 0)
(0.624853 0 0)
(0.624722 0 0)
(0.627348 0 0)
(0.597419 0 0)
(0.604911 0 0)
(0.612976 0 0)
(0.617567 0 0)
(0.619828 0 0)
(0.621022 0 0)
(0.621702 0 0)
(0.622118 0 0)
(0.622393 0 0)
(0.622588 0 0)
(0.622734 0 0)
(0.622848 0 0)
(0.622942 0 0)
(0.623021 0 0)
(0.623089 0 0)
(0.623148 0 0)
(0.623201 0 0)
(0.623248 0 0)
(0.62329 0 0)
(0.623328 0 0)
(0.623364 0 0)
(0.623396 0 0)
(0.623426 0 0)
(0.623453 0 0)
(0.623479 0 0)
(0.623503 0 0)
(0.623525 0 0)
(0.623546 0 0)
(0.623565 0 0)
(0.623584 0 0)
(0.623601 0 0)
(0.623618 0 0)
(0.623633 0 0)
(0.623648 0 0)
(0.623662 0 0)
(0.623675 0 0)
(0.623688 0 0)
(0.6237 0 0)
(0.623711 0 0)
(0.623722 0 0)
(0.623732 0 0)
(0.623742 0 0)
(0.623751 0 0)
(0.62376 0 0)
(0.623769 0 0)
(0.623777 0 0)
(0.623785 0 0)
(0.623792 0 0)
(0.623799 0 0)
(0.623806 0 0)
(0.623812 0 0)
(0.623818 0 0)
(0.623824 0 0)
(0.62383 0 0)
(0.623835 0 0)
(0.62384 0 0)
(0.623844 0 0)
(0.623849 0 0)
(0.623853 0 0)
(0.623857 0 0)
(0.62386 0 0)
(0.623863 0 0)
(0.623866 0 0)
(0.623869 0 0)
(0.623871 0 0)
(0.623873 0 0)
(0.623874 0 0)
(0.623875 0 0)
(0.623876 0 0)
(0.623877 0 0)
(0.623877 0 0)
(0.623876 0 0)
(0.623875 0 0)
(0.623873 0 0)
(0.623871 0 0)
(0.623868 0 0)
(0.623865 0 0)
(0.62386 0 0)
(0.623855 0 0)
(0.623848 0 0)
(0.62384 0 0)
(0.62383 0 0)
(0.623819 0 0)
(0.623805 0 0)
(0.623788 0 0)
(0.623768 0 0)
(0.623744 0 0)
(0.623715 0 0)
(0.623678 0 0)
(0.623633 0 0)
(0.623577 0 0)
(0.623507 0 0)
(0.623419 0 0)
(0.623309 0 0)
(0.623174 0 0)
(0.623009 0 0)
(0.622812 0 0)
(0.622587 0 0)
(0.622346 0 0)
(0.622116 0 0)
(0.621714 0 0)
(0.62196 0 0)
(0.622167 0 0)
(0.622343 0 0)
(0.622495 0 0)
(0.622628 0 0)
(0.622745 0 0)
(0.622848 0 0)
(0.622941 0 0)
(0.623024 0 0)
(0.623099 0 0)
(0.623168 0 0)
(0.62323 0 0)
(0.623288 0 0)
(0.623341 0 0)
(0.62339 0 0)
(0.623435 0 0)
(0.623478 0 0)
(0.623517 0 0)
(0.623554 0 0)
(0.623589 0 0)
(0.623622 0 0)
(0.623653 0 0)
(0.623682 0 0)
(0.623709 0 0)
(0.623735 0 0)
(0.62376 0 0)
(0.623784 0 0)
(0.623806 0 0)
(0.623828 0 0)
(0.623848 0 0)
(0.623868 0 0)
(0.623887 0 0)
(0.623905 0 0)
(0.623922 0 0)
(0.623939 0 0)
(0.623955 0 0)
(0.62397 0 0)
(0.623985 0 0)
(0.623999 0 0)
(0.624013 0 0)
(0.624026 0 0)
(0.624039 0 0)
(0.624052 0 0)
(0.624064 0 0)
(0.624076 0 0)
(0.624087 0 0)
(0.624098 0 0)
(0.624109 0 0)
(0.624119 0 0)
(0.624129 0 0)
(0.624139 0 0)
(0.624148 0 0)
(0.624158 0 0)
(0.624167 0 0)
(0.624175 0 0)
(0.624184 0 0)
(0.624192 0 0)
(0.6242 0 0)
(0.624208 0 0)
(0.624216 0 0)
(0.624224 0 0)
(0.624231 0 0)
(0.624238 0 0)
(0.624245 0 0)
(0.624252 0 0)
(0.624259 0 0)
(0.624265 0 0)
(0.624272 0 0)
(0.624278 0 0)
(0.624284 0 0)
(0.62429 0 0)
(0.624296 0 0)
(0.624302 0 0)
(0.624308 0 0)
(0.624313 0 0)
(0.624319 0 0)
(0.624324 0 0)
(0.62433 0 0)
(0.624335 0 0)
(0.62434 0 0)
(0.624345 0 0)
(0.62435 0 0)
(0.624355 0 0)
(0.624359 0 0)
(0.624364 0 0)
(0.624369 0 0)
(0.624373 0 0)
(0.624377 0 0)
(0.624382 0 0)
(0.624386 0 0)
(0.624391 0 0)
(0.624395 0 0)
(0.624398 0 0)
(0.6244 0 0)
(0.624399 0 0)
(0.6244 0 0)
(0.624418 0 0)
(0.624472 0 0)
(0.624567 0 0)
(0.624624 0 0)
(0.624625 0 0)
(0.624627 0 0)
(0.624629 0 0)
(0.62463 0 0)
(0.624632 0 0)
(0.624633 0 0)
(0.624635 0 0)
(0.624636 0 0)
(0.624638 0 0)
(0.624639 0 0)
(0.624641 0 0)
(0.624642 0 0)
(0.624644 0 0)
(0.624645 0 0)
(0.624647 0 0)
(0.624648 0 0)
(0.624649 0 0)
(0.624651 0 0)
(0.624652 0 0)
(0.624653 0 0)
(0.624655 0 0)
(0.624656 0 0)
(0.624657 0 0)
(0.624659 0 0)
(0.62466 0 0)
(0.624661 0 0)
(0.624663 0 0)
(0.624664 0 0)
(0.624665 0 0)
(0.624666 0 0)
(0.624668 0 0)
(0.624669 0 0)
(0.62467 0 0)
(0.624671 0 0)
(0.624672 0 0)
(0.624674 0 0)
(0.624675 0 0)
(0.624676 0 0)
(0.624677 0 0)
(0.624678 0 0)
(0.624679 0 0)
(0.624681 0 0)
(0.624682 0 0)
(0.624683 0 0)
(0.624684 0 0)
(0.624685 0 0)
(0.624686 0 0)
(0.624687 0 0)
(0.624688 0 0)
(0.624689 0 0)
(0.62469 0 0)
(0.624691 0 0)
(0.624693 0 0)
(0.624694 0 0)
(0.624695 0 0)
(0.624696 0 0)
(0.624697 0 0)
(0.624698 0 0)
(0.624699 0 0)
(0.6247 0 0)
(0.624701 0 0)
(0.624702 0 0)
(0.624703 0 0)
(0.624703 0 0)
(0.624704 0 0)
(0.624705 0 0)
(0.624706 0 0)
(0.624707 0 0)
(0.624708 0 0)
(0.624709 0 0)
(0.62471 0 0)
(0.624711 0 0)
(0.624712 0 0)
(0.624713 0 0)
(0.624714 0 0)
(0.624715 0 0)
(0.624715 0 0)
(0.624716 0 0)
(0.624717 0 0)
(0.624718 0 0)
(0.624719 0 0)
(0.62472 0 0)
(0.624721 0 0)
(0.624721 0 0)
(0.624722 0 0)
(0.624723 0 0)
(0.624724 0 0)
(0.624725 0 0)
(0.624726 0 0)
(0.624726 0 0)
(0.624727 0 0)
(0.624728 0 0)
(0.624729 0 0)
(0.62473 0 0)
(0.62473 0 0)
(0.624731 0 0)
(0.624732 0 0)
(0.624733 0 0)
(0.624734 0 0)
(0.624734 0 0)
(0.624735 0 0)
(0.624736 0 0)
(0.624737 0 0)
(0.624737 0 0)
(0.624738 0 0)
(0.624739 0 0)
(0.624739 0 0)
(0.62474 0 0)
(0.624741 0 0)
(0.624742 0 0)
(0.624742 0 0)
(0.624743 0 0)
(0.624744 0 0)
(0.624745 0 0)
(0.624745 0 0)
(0.624746 0 0)
(0.624747 0 0)
(0.624747 0 0)
(0.624748 0 0)
(0.624749 0 0)
(0.624749 0 0)
(0.62475 0 0)
(0.624751 0 0)
(0.624751 0 0)
(0.624752 0 0)
(0.624753 0 0)
(0.624753 0 0)
(0.624754 0 0)
(0.624755 0 0)
(0.624755 0 0)
(0.624756 0 0)
(0.624757 0 0)
(0.624757 0 0)
(0.624758 0 0)
(0.624758 0 0)
(0.624759 0 0)
(0.62476 0 0)
(0.62476 0 0)
(0.624761 0 0)
(0.624762 0 0)
(0.624762 0 0)
(0.624763 0 0)
(0.624763 0 0)
(0.624764 0 0)
(0.624765 0 0)
(0.624765 0 0)
(0.624766 0 0)
(0.624766 0 0)
(0.624767 0 0)
(0.624767 0 0)
(0.624768 0 0)
(0.624769 0 0)
(0.624769 0 0)
(0.62477 0 0)
(0.62477 0 0)
(0.624771 0 0)
(0.624771 0 0)
(0.624772 0 0)
(0.624773 0 0)
(0.624773 0 0)
(0.624774 0 0)
(0.624774 0 0)
(0.624775 0 0)
(0.624775 0 0)
(0.624776 0 0)
(0.624776 0 0)
(0.624777 0 0)
(0.624777 0 0)
(0.624778 0 0)
(0.624779 0 0)
(0.624779 0 0)
(0.62478 0 0)
(0.62478 0 0)
(0.624781 0 0)
(0.624781 0 0)
(0.624782 0 0)
(0.624782 0 0)
(0.624783 0 0)
(0.624783 0 0)
(0.624784 0 0)
(0.624784 0 0)
(0.624785 0 0)
(0.624785 0 0)
(0.624786 0 0)
(0.624786 0 0)
(0.624787 0 0)
(0.624787 0 0)
(0.624788 0 0)
(0.624788 0 0)
(0.624789 0 0)
(0.624789 0 0)
(0.62479 0 0)
(0.62479 0 0)
(0.624791 0 0)
(0.624791 0 0)
(0.624791 0 0)
(0.624792 0 0)
(0.624792 0 0)
(0.624793 0 0)
(0.624793 0 0)
(0.624794 0 0)
(0.624794 0 0)
(0.624795 0 0)
(0.624795 0 0)
(0.624796 0 0)
(0.624796 0 0)
(0.624797 0 0)
(0.624797 0 0)
(0.624797 0 0)
(0.624798 0 0)
(0.624798 0 0)
(0.624799 0 0)
(0.624799 0 0)
(0.6248 0 0)
(0.6248 0 0)
(0.6248 0 0)
(0.624801 0 0)
(0.624801 0 0)
(0.624802 0 0)
(0.624802 0 0)
(0.624803 0 0)
(0.624803 0 0)
(0.624803 0 0)
(0.624804 0 0)
(0.624804 0 0)
(0.624805 0 0)
(0.624805 0 0)
(0.624806 0 0)
(0.624806 0 0)
(0.624806 0 0)
(0.624807 0 0)
(0.624807 0 0)
(0.624808 0 0)
(0.624808 0 0)
(0.624808 0 0)
(0.624809 0 0)
(0.624809 0 0)
(0.62481 0 0)
(0.62481 0 0)
(0.62481 0 0)
(0.624811 0 0)
(0.624811 0 0)
(0.624812 0 0)
(0.624812 0 0)
(0.624812 0 0)
(0.624813 0 0)
(0.624813 0 0)
(0.624813 0 0)
(0.624814 0 0)
(0.624814 0 0)
(0.624815 0 0)
(0.624815 0 0)
(0.624815 0 0)
(0.624816 0 0)
(0.624816 0 0)
(0.624816 0 0)
(0.624817 0 0)
(0.624817 0 0)
(0.624818 0 0)
(0.624818 0 0)
(0.624818 0 0)
(0.624819 0 0)
(0.624819 0 0)
(0.624819 0 0)
(0.62482 0 0)
(0.62482 0 0)
(0.62482 0 0)
(0.624821 0 0)
(0.624821 0 0)
(0.624821 0 0)
(0.624822 0 0)
(0.624822 0 0)
(0.624822 0 0)
(0.624823 0 0)
(0.624823 0 0)
(0.624824 0 0)
(0.624824 0 0)
(0.624824 0 0)
(0.624825 0 0)
(0.624825 0 0)
(0.624825 0 0)
(0.624826 0 0)
(0.624826 0 0)
(0.624826 0 0)
(0.624827 0 0)
(0.624827 0 0)
(0.624827 0 0)
(0.624828 0 0)
(0.624828 0 0)
(0.624828 0 0)
(0.624829 0 0)
(0.624829 0 0)
(0.624829 0 0)
(0.62483 0 0)
(0.62483 0 0)
(0.62483 0 0)
(0.62483 0 0)
(0.624831 0 0)
(0.624831 0 0)
(0.624831 0 0)
(0.624832 0 0)
(0.624832 0 0)
(0.624832 0 0)
(0.624833 0 0)
(0.624833 0 0)
(0.624833 0 0)
(0.624834 0 0)
(0.624834 0 0)
(0.624834 0 0)
(0.624835 0 0)
(0.624835 0 0)
(0.624835 0 0)
(0.624835 0 0)
(0.624836 0 0)
(0.624836 0 0)
(0.624836 0 0)
(0.624837 0 0)
(0.624837 0 0)
(0.624837 0 0)
(0.624838 0 0)
(0.624838 0 0)
(0.624838 0 0)
(0.624838 0 0)
(0.624839 0 0)
(0.624839 0 0)
(0.624839 0 0)
(0.62484 0 0)
(0.62484 0 0)
(0.62484 0 0)
(0.62484 0 0)
(0.624841 0 0)
(0.624841 0 0)
(0.624841 0 0)
(0.624842 0 0)
(0.624842 0 0)
(0.624842 0 0)
(0.624842 0 0)
(0.624843 0 0)
(0.624843 0 0)
(0.624843 0 0)
(0.624844 0 0)
(0.624844 0 0)
(0.624844 0 0)
(0.624844 0 0)
(0.624845 0 0)
(0.624848 0 0)
(0.624851 0 0)
(0.624846 0 0)
(0.624817 0 0)
(0.624795 0 0)
(0.624795 0 0)
(0.624796 0 0)
(0.624796 0 0)
(0.624796 0 0)
(0.624797 0 0)
(0.624797 0 0)
(0.624798 0 0)
(0.624798 0 0)
(0.624799 0 0)
(0.624799 0 0)
(0.624799 0 0)
(0.6248 0 0)
(0.6248 0 0)
(0.624801 0 0)
(0.624801 0 0)
(0.624802 0 0)
(0.624802 0 0)
(0.624802 0 0)
(0.624803 0 0)
(0.624803 0 0)
(0.624804 0 0)
(0.624804 0 0)
(0.624804 0 0)
(0.624805 0 0)
(0.624805 0 0)
(0.624806 0 0)
(0.624806 0 0)
(0.624806 0 0)
(0.624807 0 0)
(0.624807 0 0)
(0.624808 0 0)
(0.624808 0 0)
(0.624808 0 0)
(0.624809 0 0)
(0.624809 0 0)
(0.62481 0 0)
(0.62481 0 0)
(0.62481 0 0)
(0.624811 0 0)
(0.624811 0 0)
(0.624811 0 0)
(0.624812 0 0)
(0.624812 0 0)
(0.624813 0 0)
(0.624813 0 0)
(0.624813 0 0)
(0.624814 0 0)
(0.624814 0 0)
(0.624814 0 0)
(0.624815 0 0)
(0.624815 0 0)
(0.624816 0 0)
(0.624816 0 0)
(0.624816 0 0)
(0.624817 0 0)
(0.624817 0 0)
(0.624817 0 0)
(0.624818 0 0)
(0.624818 0 0)
(0.624818 0 0)
(0.624819 0 0)
(0.624819 0 0)
(0.624819 0 0)
(0.62482 0 0)
(0.62482 0 0)
(0.624821 0 0)
(0.624821 0 0)
(0.624821 0 0)
(0.624822 0 0)
(0.624822 0 0)
(0.624822 0 0)
(0.624823 0 0)
(0.624823 0 0)
(0.624823 0 0)
(0.624824 0 0)
(0.624824 0 0)
(0.624824 0 0)
(0.624825 0 0)
(0.624825 0 0)
(0.624825 0 0)
(0.624826 0 0)
(0.624826 0 0)
(0.624826 0 0)
(0.624827 0 0)
(0.624827 0 0)
(0.624827 0 0)
(0.624828 0 0)
(0.624828 0 0)
(0.624828 0 0)
(0.624829 0 0)
(0.624829 0 0)
(0.624829 0 0)
(0.624829 0 0)
(0.62483 0 0)
(0.62483 0 0)
(0.62483 0 0)
(0.624831 0 0)
(0.624831 0 0)
(0.624831 0 0)
(0.624832 0 0)
(0.624832 0 0)
(0.624832 0 0)
(0.624833 0 0)
(0.624833 0 0)
(0.624833 0 0)
(0.624834 0 0)
(0.624834 0 0)
(0.624834 0 0)
(0.624834 0 0)
(0.624835 0 0)
(0.624835 0 0)
(0.624835 0 0)
(0.624836 0 0)
(0.624836 0 0)
(0.624836 0 0)
(0.624837 0 0)
(0.624837 0 0)
(0.624837 0 0)
(0.624837 0 0)
(0.624838 0 0)
(0.624838 0 0)
(0.624838 0 0)
(0.624839 0 0)
(0.624839 0 0)
(0.624839 0 0)
(0.624839 0 0)
(0.62484 0 0)
(0.62484 0 0)
(0.62484 0 0)
(0.624841 0 0)
(0.624841 0 0)
(0.624841 0 0)
(0.624841 0 0)
(0.624842 0 0)
(0.624842 0 0)
(0.624842 0 0)
(0.624843 0 0)
(0.624843 0 0)
(0.624843 0 0)
(0.624843 0 0)
(0.624844 0 0)
(0.624844 0 0)
(0.624844 0 0)
(0.624844 0 0)
(0.624845 0 0)
(0.624845 0 0)
(0.624845 0 0)
(0.624846 0 0)
(0.624846 0 0)
(0.624846 0 0)
(0.624846 0 0)
(0.624847 0 0)
(0.624847 0 0)
(0.624847 0 0)
(0.624847 0 0)
(0.624848 0 0)
(0.624848 0 0)
(0.624848 0 0)
(0.624848 0 0)
(0.624849 0 0)
(0.624849 0 0)
(0.624849 0 0)
(0.624849 0 0)
(0.62485 0 0)
(0.62485 0 0)
(0.62485 0 0)
(0.624851 0 0)
(0.624851 0 0)
(0.624851 0 0)
(0.624851 0 0)
(0.624852 0 0)
(0.624853 0 0)
(0.624855 0 0)
(0.624851 0 0)
(0.624835 0 0)
(0.624814 0 0)
(0.624849 0 0)
(0.625037 0 0)
(0.625283 0 0)
(0.62509 0 0)
(0.62495 0 0)
(0.624964 0 0)
(0.624967 0 0)
(0.624968 0 0)
(0.624977 0 0)
(0.624994 0 0)
(0.625008 0 0)
(0.625011 0 0)
(0.625012 0 0)
(0.62502 0 0)
(0.625034 0 0)
(0.625046 0 0)
(0.625051 0 0)
(0.625061 0 0)
(0.625069 0 0)
(0.625078 0 0)
(0.625091 0 0)
(0.625096 0 0)
(0.625105 0 0)
(0.62511 0 0)
(0.625116 0 0)
(0.625128 0 0)
(0.62514 0 0)
(0.625151 0 0)
(0.62516 0 0)
(0.625166 0 0)
(0.625172 0 0)
(0.625184 0 0)
(0.625196 0 0)
(0.625206 0 0)
(0.625213 0 0)
(0.625218 0 0)
(0.625227 0 0)
(0.625235 0 0)
(0.625243 0 0)
(0.625257 0 0)
(0.625268 0 0)
(0.625271 0 0)
(0.625283 0 0)
(0.625299 0 0)
(0.625307 0 0)
(0.625313 0 0)
(0.625323 0 0)
(0.625331 0 0)
(0.625338 0 0)
(0.62535 0 0)
(0.62536 0 0)
(0.625367 0 0)
(0.625374 0 0)
(0.625388 0 0)
(0.625401 0 0)
(0.625413 0 0)
(0.625421 0 0)
(0.625428 0 0)
(0.625438 0 0)
(0.625446 0 0)
(0.625454 0 0)
(0.625469 0 0)
(0.625483 0 0)
(0.625496 0 0)
(0.625504 0 0)
(0.625509 0 0)
(0.625517 0 0)
(0.625526 0 0)
(0.625541 0 0)
(0.625556 0 0)
(0.625569 0 0)
(0.625579 0 0)
(0.625588 0 0)
(0.625601 0 0)
(0.625612 0 0)
(0.62562 0 0)
(0.625633 0 0)
(0.625642 0 0)
(0.625653 0 0)
(0.625671 0 0)
(0.62569 0 0)
(0.625706 0 0)
(0.625716 0 0)
(0.62572 0 0)
(0.625724 0 0)
(0.625729 0 0)
(0.625734 0 0)
(0.625754 0 0)
(0.625806 0 0)
(0.625876 0 0)
(0.625929 0 0)
(0.625901 0 0)
(0.625737 0 0)
(0.625455 0 0)
(0.625243 0 0)
(0.625458 0 0)
(0.626428 0 0)
(0.628058 0 0)
(0.629375 0 0)
(0.628526 0 0)
(0.623682 0 0)
(0.614987 0 0)
(0.607111 0 0)
(0.610868 0 0)
(0.624858 0 0)
(0.624858 0 0)
(0.624859 0 0)
(0.624859 0 0)
(0.624859 0 0)
(0.624859 0 0)
(0.624859 0 0)
(0.62486 0 0)
(0.62486 0 0)
(0.62486 0 0)
(0.62486 0 0)
(0.624861 0 0)
(0.624861 0 0)
(0.624861 0 0)
(0.624861 0 0)
(0.624862 0 0)
(0.624862 0 0)
(0.624862 0 0)
(0.624862 0 0)
(0.624862 0 0)
(0.624863 0 0)
(0.624863 0 0)
(0.624863 0 0)
(0.624863 0 0)
(0.624864 0 0)
(0.624864 0 0)
(0.624864 0 0)
(0.624864 0 0)
(0.624864 0 0)
(0.624865 0 0)
(0.624865 0 0)
(0.624865 0 0)
(0.624865 0 0)
(0.624865 0 0)
(0.624866 0 0)
(0.624866 0 0)
(0.624866 0 0)
(0.624866 0 0)
(0.624867 0 0)
(0.624867 0 0)
(0.624867 0 0)
(0.624867 0 0)
(0.624867 0 0)
(0.624868 0 0)
(0.624868 0 0)
(0.624868 0 0)
(0.624868 0 0)
(0.624868 0 0)
(0.624869 0 0)
(0.624869 0 0)
(0.624869 0 0)
(0.624869 0 0)
(0.624869 0 0)
(0.62487 0 0)
(0.62487 0 0)
(0.62487 0 0)
(0.62487 0 0)
(0.62487 0 0)
(0.624871 0 0)
(0.624871 0 0)
(0.624871 0 0)
(0.624871 0 0)
(0.624871 0 0)
(0.624872 0 0)
(0.624872 0 0)
(0.624872 0 0)
(0.624872 0 0)
(0.624872 0 0)
(0.624873 0 0)
(0.624873 0 0)
(0.624873 0 0)
(0.624873 0 0)
(0.624873 0 0)
(0.624874 0 0)
(0.624874 0 0)
(0.624874 0 0)
(0.624874 0 0)
(0.624874 0 0)
(0.624875 0 0)
(0.624875 0 0)
(0.624875 0 0)
(0.624876 0 0)
(0.624876 0 0)
(0.624875 0 0)
(0.624869 0 0)
(0.624864 0 0)
(0.624883 0 0)
(0.624955 0 0)
(0.625007 0 0)
(0.625007 0 0)
(0.625007 0 0)
(0.625007 0 0)
(0.625007 0 0)
(0.625007 0 0)
(0.625007 0 0)
(0.625007 0 0)
(0.625007 0 0)
(0.625007 0 0)
(0.625007 0 0)
(0.625007 0 0)
(0.625007 0 0)
(0.625007 0 0)
(0.625007 0 0)
(0.625007 0 0)
(0.625007 0 0)
(0.625007 0 0)
(0.625007 0 0)
(0.625007 0 0)
(0.625007 0 0)
(0.625007 0 0)
(0.625007 0 0)
(0.625007 0 0)
(0.625007 0 0)
(0.625007 0 0)
(0.625007 0 0)
(0.625007 0 0)
(0.625007 0 0)
(0.625007 0 0)
(0.625007 0 0)
(0.625007 0 0)
(0.625007 0 0)
(0.625007 0 0)
(0.625007 0 0)
(0.625007 0 0)
(0.625007 0 0)
(0.625007 0 0)
(0.625007 0 0)
(0.625007 0 0)
(0.625007 0 0)
(0.625007 0 0)
(0.625007 0 0)
(0.625007 0 0)
(0.625007 0 0)
(0.625007 0 0)
(0.625007 0 0)
(0.625007 0 0)
(0.625007 0 0)
(0.625007 0 0)
(0.625007 0 0)
(0.625007 0 0)
(0.625007 0 0)
(0.625007 0 0)
(0.625007 0 0)
(0.625007 0 0)
(0.625007 0 0)
(0.625007 0 0)
(0.625007 0 0)
(0.625007 0 0)
(0.625007 0 0)
(0.625007 0 0)
(0.625007 0 0)
(0.625007 0 0)
(0.625007 0 0)
(0.625007 0 0)
(0.625007 0 0)
(0.625007 0 0)
(0.625007 0 0)
(0.625007 0 0)
(0.625007 0 0)
(0.625007 0 0)
(0.625007 0 0)
(0.625007 0 0)
(0.625007 0 0)
(0.625007 0 0)
(0.625007 0 0)
(0.625007 0 0)
(0.625007 0 0)
(0.625007 0 0)
(0.625007 0 0)
(0.625007 0 0)
(0.625007 0 0)
(0.625007 0 0)
(0.625007 0 0)
(0.625007 0 0)
(0.625007 0 0)
(0.625007 0 0)
(0.625007 0 0)
(0.625007 0 0)
(0.625007 0 0)
(0.625007 0 0)
(0.625007 0 0)
(0.625007 0 0)
(0.625007 0 0)
(0.625007 0 0)
(0.625007 0 0)
(0.625007 0 0)
(0.625007 0 0)
(0.625007 0 0)
(0.625007 0 0)
(0.625007 0 0)
(0.625007 0 0)
(0.625007 0 0)
(0.625007 0 0)
(0.625007 0 0)
(0.625007 0 0)
(0.625007 0 0)
(0.625007 0 0)
(0.625007 0 0)
(0.625007 0 0)
(0.625007 0 0)
(0.625007 0 0)
(0.625007 0 0)
(0.625007 0 0)
(0.625007 0 0)
(0.625007 0 0)
(0.625007 0 0)
(0.625007 0 0)
(0.625007 0 0)
(0.625007 0 0)
(0.625007 0 0)
(0.625007 0 0)
(0.625007 0 0)
(0.625007 0 0)
(0.625007 0 0)
(0.625007 0 0)
(0.625007 0 0)
(0.625007 0 0)
(0.625007 0 0)
(0.625007 0 0)
(0.625007 0 0)
(0.625007 0 0)
(0.625007 0 0)
(0.625007 0 0)
(0.625007 0 0)
(0.625007 0 0)
(0.625007 0 0)
(0.625007 0 0)
(0.625007 0 0)
(0.625007 0 0)
(0.625007 0 0)
(0.625007 0 0)
(0.625007 0 0)
(0.625007 0 0)
(0.625007 0 0)
(0.625007 0 0)
(0.625007 0 0)
(0.625007 0 0)
(0.625007 0 0)
(0.625007 0 0)
(0.625007 0 0)
(0.625007 0 0)
(0.625007 0 0)
(0.625007 0 0)
(0.625007 0 0)
(0.625007 0 0)
(0.625007 0 0)
(0.625007 0 0)
(0.625007 0 0)
(0.625007 0 0)
(0.625007 0 0)
(0.625007 0 0)
(0.625007 0 0)
(0.625007 0 0)
(0.625007 0 0)
(0.625007 0 0)
(0.625007 0 0)
(0.625007 0 0)
(0.625007 0 0)
(0.625007 0 0)
(0.625007 0 0)
(0.625007 0 0)
(0.625007 0 0)
(0.625007 0 0)
(0.625007 0 0)
(0.625007 0 0)
(0.625006 0 0)
(0.625006 0 0)
(0.625006 0 0)
(0.625006 0 0)
(0.625006 0 0)
(0.625006 0 0)
(0.625006 0 0)
(0.625006 0 0)
(0.625006 0 0)
(0.625006 0 0)
(0.625006 0 0)
(0.625006 0 0)
(0.625006 0 0)
(0.625006 0 0)
(0.625006 0 0)
(0.625006 0 0)
(0.625006 0 0)
(0.625006 0 0)
(0.625006 0 0)
(0.625006 0 0)
(0.625006 0 0)
(0.625006 0 0)
(0.625006 0 0)
(0.625006 0 0)
(0.625006 0 0)
(0.625006 0 0)
(0.625006 0 0)
(0.625006 0 0)
(0.625006 0 0)
(0.625006 0 0)
(0.625006 0 0)
(0.625006 0 0)
(0.625006 0 0)
(0.625006 0 0)
(0.625006 0 0)
(0.625006 0 0)
(0.625006 0 0)
(0.625006 0 0)
(0.625006 0 0)
(0.625008 0 0)
(0.625012 0 0)
(0.625015 0 0)
(0.624994 0 0)
(0.624935 0 0)
(0.6249 0 0)
(0.625125 0 0)
(0.625836 0 0)
(0.626344 0 0)
(0.62387 0 0)
(0.615369 0 0)
(0.608244 0 0)
(0.63609 0 0)
(0.731532 0 0)
(0.821755 0 0)
(0.753387 0 0)
(0.634192 0 0)
(0.615179 0 0)
(0.614847 0 0)
(0.614842 0 0)
(0.61484 0 0)
(0.614838 0 0)
(0.614835 0 0)
(0.614833 0 0)
(0.61483 0 0)
(0.614828 0 0)
(0.614825 0 0)
(0.614823 0 0)
(0.614821 0 0)
(0.614818 0 0)
(0.614816 0 0)
(0.614813 0 0)
(0.614811 0 0)
(0.614808 0 0)
(0.614806 0 0)
(0.614804 0 0)
(0.614801 0 0)
(0.614799 0 0)
(0.614796 0 0)
(0.614794 0 0)
(0.614791 0 0)
(0.614789 0 0)
(0.614787 0 0)
(0.614784 0 0)
(0.614782 0 0)
(0.614779 0 0)
(0.614777 0 0)
(0.614774 0 0)
(0.614772 0 0)
(0.61477 0 0)
(0.614767 0 0)
(0.614765 0 0)
(0.614762 0 0)
(0.61476 0 0)
(0.614758 0 0)
(0.614755 0 0)
(0.614753 0 0)
(0.61475 0 0)
(0.614748 0 0)
(0.614746 0 0)
(0.614743 0 0)
(0.614741 0 0)
(0.614739 0 0)
(0.614736 0 0)
(0.614734 0 0)
(0.614731 0 0)
(0.614729 0 0)
(0.614727 0 0)
(0.614724 0 0)
(0.614722 0 0)
(0.61472 0 0)
(0.614717 0 0)
(0.614715 0 0)
(0.614713 0 0)
(0.61471 0 0)
(0.614708 0 0)
(0.614706 0 0)
(0.614703 0 0)
(0.614701 0 0)
(0.614699 0 0)
(0.614696 0 0)
(0.614694 0 0)
(0.614692 0 0)
(0.614691 0 0)
(0.614681 0 0)
(0.614608 0 0)
(0.614545 0 0)
(0.614544 0 0)
(0.614541 0 0)
(0.614539 0 0)
(0.614537 0 0)
(0.614535 0 0)
(0.614533 0 0)
(0.61453 0 0)
(0.614528 0 0)
(0.614526 0 0)
(0.614524 0 0)
(0.614522 0 0)
(0.614519 0 0)
(0.614517 0 0)
(0.614515 0 0)
(0.614513 0 0)
(0.614511 0 0)
(0.614509 0 0)
(0.614506 0 0)
(0.614504 0 0)
(0.614502 0 0)
(0.6145 0 0)
(0.614498 0 0)
(0.614495 0 0)
(0.614493 0 0)
(0.614491 0 0)
(0.614489 0 0)
(0.614487 0 0)
(0.614485 0 0)
(0.614482 0 0)
(0.61448 0 0)
(0.614478 0 0)
(0.614476 0 0)
(0.614474 0 0)
(0.614472 0 0)
(0.614469 0 0)
(0.614467 0 0)
(0.614465 0 0)
(0.614463 0 0)
(0.614461 0 0)
(0.614458 0 0)
(0.614456 0 0)
(0.614454 0 0)
(0.614452 0 0)
(0.61445 0 0)
(0.614447 0 0)
(0.614445 0 0)
(0.614443 0 0)
(0.614441 0 0)
(0.614439 0 0)
(0.614436 0 0)
(0.614434 0 0)
(0.614432 0 0)
(0.61443 0 0)
(0.614427 0 0)
(0.614425 0 0)
(0.614423 0 0)
(0.614421 0 0)
(0.614419 0 0)
(0.614416 0 0)
(0.614414 0 0)
(0.614412 0 0)
(0.61441 0 0)
(0.614407 0 0)
(0.614405 0 0)
(0.614403 0 0)
(0.6144 0 0)
(0.614398 0 0)
(0.614396 0 0)
(0.614394 0 0)
(0.614391 0 0)
(0.614389 0 0)
(0.614387 0 0)
(0.614384 0 0)
(0.614382 0 0)
(0.61438 0 0)
(0.614377 0 0)
(0.614375 0 0)
(0.614373 0 0)
(0.61437 0 0)
(0.614368 0 0)
(0.614366 0 0)
(0.614363 0 0)
(0.614361 0 0)
(0.614358 0 0)
(0.614356 0 0)
(0.614354 0 0)
(0.614351 0 0)
(0.614349 0 0)
(0.614346 0 0)
(0.614344 0 0)
(0.614342 0 0)
(0.614339 0 0)
(0.614337 0 0)
(0.614334 0 0)
(0.614332 0 0)
(0.614329 0 0)
(0.614327 0 0)
(0.614325 0 0)
(0.614322 0 0)
(0.61432 0 0)
(0.614317 0 0)
(0.614315 0 0)
(0.614312 0 0)
(0.61431 0 0)
(0.614307 0 0)
(0.614305 0 0)
(0.614302 0 0)
(0.614299 0 0)
(0.614297 0 0)
(0.614294 0 0)
(0.614292 0 0)
(0.614289 0 0)
(0.614287 0 0)
(0.614284 0 0)
(0.614282 0 0)
(0.614279 0 0)
(0.614276 0 0)
(0.614274 0 0)
(0.614271 0 0)
(0.614268 0 0)
(0.614266 0 0)
(0.614263 0 0)
(0.614261 0 0)
(0.614258 0 0)
(0.614255 0 0)
(0.614253 0 0)
(0.61425 0 0)
(0.614247 0 0)
(0.614245 0 0)
(0.614242 0 0)
(0.614239 0 0)
(0.614236 0 0)
(0.614234 0 0)
(0.614231 0 0)
(0.614228 0 0)
(0.614225 0 0)
(0.614223 0 0)
(0.61422 0 0)
(0.614217 0 0)
(0.614214 0 0)
(0.614212 0 0)
(0.614209 0 0)
(0.614206 0 0)
(0.614203 0 0)
(0.6142 0 0)
(0.614197 0 0)
(0.614195 0 0)
(0.614192 0 0)
(0.614189 0 0)
(0.614186 0 0)
(0.614183 0 0)
(0.61418 0 0)
(0.614177 0 0)
(0.614174 0 0)
(0.614171 0 0)
(0.614168 0 0)
(0.614165 0 0)
(0.614162 0 0)
(0.614159 0 0)
(0.614156 0 0)
(0.614153 0 0)
(0.61415 0 0)
(0.614147 0 0)
(0.614144 0 0)
(0.614141 0 0)
(0.614138 0 0)
(0.614135 0 0)
(0.614132 0 0)
(0.614129 0 0)
(0.614126 0 0)
(0.614123 0 0)
(0.614119 0 0)
(0.614116 0 0)
(0.614113 0 0)
(0.61411 0 0)
(0.614107 0 0)
(0.614103 0 0)
(0.6141 0 0)
(0.614097 0 0)
(0.614094 0 0)
(0.61409 0 0)
(0.614087 0 0)
(0.614084 0 0)
(0.61408 0 0)
(0.614077 0 0)
(0.614074 0 0)
(0.61407 0 0)
(0.614067 0 0)
(0.614064 0 0)
(0.61406 0 0)
(0.614057 0 0)
(0.614053 0 0)
(0.61405 0 0)
(0.614046 0 0)
(0.614043 0 0)
(0.614039 0 0)
(0.614036 0 0)
(0.614032 0 0)
(0.614029 0 0)
(0.614025 0 0)
(0.614022 0 0)
(0.614018 0 0)
(0.614015 0 0)
(0.614011 0 0)
(0.614007 0 0)
(0.614004 0 0)
(0.614 0 0)
(0.613997 0 0)
(0.613993 0 0)
(0.613989 0 0)
(0.613986 0 0)
(0.613982 0 0)
(0.613978 0 0)
(0.613974 0 0)
(0.613971 0 0)
(0.613967 0 0)
(0.613963 0 0)
(0.613959 0 0)
(0.613956 0 0)
(0.613952 0 0)
(0.613948 0 0)
(0.613944 0 0)
(0.61394 0 0)
(0.613937 0 0)
(0.613933 0 0)
(0.613929 0 0)
(0.613925 0 0)
(0.613921 0 0)
(0.613917 0 0)
(0.613913 0 0)
(0.613909 0 0)
(0.613906 0 0)
(0.613902 0 0)
(0.613898 0 0)
(0.613894 0 0)
(0.61389 0 0)
(0.613886 0 0)
(0.613882 0 0)
(0.613878 0 0)
(0.613874 0 0)
(0.61387 0 0)
(0.613866 0 0)
(0.613862 0 0)
(0.613858 0 0)
(0.613854 0 0)
(0.613851 0 0)
(0.613847 0 0)
(0.613843 0 0)
(0.613839 0 0)
(0.613835 0 0)
(0.613831 0 0)
(0.613827 0 0)
(0.613823 0 0)
(0.613819 0 0)
(0.613815 0 0)
(0.613811 0 0)
(0.613807 0 0)
(0.613803 0 0)
(0.613799 0 0)
(0.613795 0 0)
(0.613791 0 0)
(0.613787 0 0)
(0.613783 0 0)
(0.613779 0 0)
(0.613775 0 0)
(0.613772 0 0)
(0.613768 0 0)
(0.613764 0 0)
(0.61376 0 0)
(0.613756 0 0)
(0.613752 0 0)
(0.613748 0 0)
(0.613744 0 0)
(0.61374 0 0)
(0.613736 0 0)
(0.613733 0 0)
(0.613729 0 0)
(0.613725 0 0)
(0.613721 0 0)
(0.613717 0 0)
(0.613713 0 0)
(0.61371 0 0)
(0.613706 0 0)
(0.613702 0 0)
(0.613698 0 0)
(0.613694 0 0)
(0.613691 0 0)
(0.613687 0 0)
(0.613683 0 0)
(0.613679 0 0)
(0.613675 0 0)
(0.613672 0 0)
(0.613668 0 0)
(0.613664 0 0)
(0.613661 0 0)
(0.613657 0 0)
(0.613653 0 0)
(0.613649 0 0)
(0.613646 0 0)
(0.613642 0 0)
(0.613638 0 0)
(0.613635 0 0)
(0.613631 0 0)
(0.613628 0 0)
(0.613624 0 0)
(0.61362 0 0)
(0.613617 0 0)
(0.613613 0 0)
(0.61361 0 0)
(0.613606 0 0)
(0.613602 0 0)
(0.613599 0 0)
(0.613595 0 0)
(0.613592 0 0)
(0.613588 0 0)
(0.613585 0 0)
(0.613581 0 0)
(0.613578 0 0)
(0.613574 0 0)
(0.613571 0 0)
(0.613567 0 0)
(0.613564 0 0)
(0.61356 0 0)
(0.613557 0 0)
(0.613553 0 0)
(0.61355 0 0)
(0.613546 0 0)
(0.613543 0 0)
(0.613539 0 0)
(0.613536 0 0)
(0.613532 0 0)
(0.613529 0 0)
(0.613526 0 0)
(0.613522 0 0)
(0.613519 0 0)
(0.613515 0 0)
(0.613512 0 0)
(0.613508 0 0)
(0.613505 0 0)
(0.613502 0 0)
(0.613498 0 0)
(0.613495 0 0)
(0.613491 0 0)
(0.613488 0 0)
(0.613485 0 0)
(0.613481 0 0)
(0.613478 0 0)
(0.613474 0 0)