/*--------------------------------*- C++ -*----------------------------------*\
| =========                 |                                                 |
| \\      /  F ield         | foam-extend: Open Source CFD                    |
|  \\    /   O peration     | Version:     3.1                                |
|   \\  /    A nd           | Web:         http://www.extend-project.de       |
|    \\/     M anipulation  |                                                 |
\*---------------------------------------------------------------------------*/
FoamFile
{
    version     2.0;
    format      ascii;
    class       volScalarField;
    location    "7.5";
    object      k;
}
// * * * * * * * * * * * * * * * * * * * * * * * * * * * * * * * * * * * * * //

dimensions      [0 2 -2 0 0 0 0];

internalField   nonuniform List<scalar> 
119952
(
0.02229028
0.01821177
0.01509487
0.01213533
0.01046631
0.01124613
0.01306001
0.01444929
0.01519442
0.01520585
0.01471038
0.01406943
0.01339361
0.01275338
0.01220344
0.01175091
0.01137511
0.01105033
0.01075724
0.01050932
0.01147478
0.01081402
0.01049802
0.01135501
0.01067762
0.01026553
0.009921244
0.009635737
0.009172884
0.01448168
0.07205005
0.06981115
0.06800736
0.0669289
0.06642409
0.06625872
0.06617872
0.06607997
0.06582104
0.06540605
0.06182265
0.06123549
0.06202789
0.06334215
0.06474441
0.06602101
0.0670894
0.06793591
0.06857829
0.07456142
0.07496262
0.07506462
0.07490059
0.07456526
0.07413249
0.07364768
0.07313551
0.07260187
0.0721569
0.07177041
0.07110399
0.07034926
0.06955885
0.06876075
0.06796777
0.06719323
0.06645612
0.06574978
0.06623391
0.06545187
0.06443569
0.06347443
0.06261267
0.06290556
0.06500446
0.06806912
0.07143866
0.07446684
0.07649379
0.07706253
0.07621314
0.07438337
0.07210699
0.06977628
0.06755714
0.06543918
0.06330515
0.06112702
0.05907202
0.05704571
0.05496225
0.05317764
0.05183473
0.05037799
0.04893113
0.04761401
0.04611087
0.04385933
0.04215348
0.04077088
0.03955416
0.03844281
0.03742064
0.03648143
0.03561846
0.03482385
0.03409109
0.03341412
0.03278717
0.03220472
0.03166183
0.03115437
0.03067906
0.03023336
0.02981521
0.02942293
0.02905538
0.02871179
0.02839116
0.0280925
0.02781521
0.02755863
0.02732195
0.02710437
0.02690502
0.02672288
0.02655669
0.02640505
0.02626659
0.02613994
0.0260238
0.02591691
0.02581809
0.02572628
0.02564052
0.02556
0.02548406
0.0254122
0.02534373
0.02527801
0.02521458
0.02515306
0.02509311
0.02503451
0.02497693
0.02491937
0.02487114
0.02484826
0.02482728
0.02478958
0.02473056
0.0246538
0.02456429
0.02446683
0.02436548
0.0242635
0.02416285
0.02406487
0.02397038
0.02387986
0.02379352
0.02371145
0.02363365
0.02356007
0.02349064
0.02342526
0.02336381
0.02330619
0.02325228
0.02320193
0.02315502
0.02311139
0.02307085
0.02303323
0.02299829
0.02296581
0.02293551
0.02290711
0.02288031
0.02285478
0.0228302
0.02280622
0.02278251
0.02275873
0.02273453
0.02270959
0.02268355
0.02265602
0.02262665
0.02259522
0.02256161
0.0225257
0.02248719
0.02244604
0.0224015
0.02235361
0.0223041
0.02191121
0.02108269
0.02052544
0.02012337
0.01980178
0.01952461
0.01927531
0.01904632
0.01883383
0.01863557
0.01844992
0.01827551
0.01811114
0.01795575
0.01780845
0.01766849
0.0175353
0.01740829
0.01728685
0.01717032
0.01705856
0.01695149
0.01684905
0.01675123
0.0166581
0.01656982
0.01648661
0.01640884
0.0163378
0.01627263
0.01621171
0.01615647
0.01610897
0.01606896
0.0160378
0.01598166
0.01611398
0.01629185
0.01646543
0.01661662
0.01674296
0.01684419
0.01692099
0.01697492
0.0170092
0.01702638
0.0170286
0.01701775
0.01699549
0.0169633
0.01692241
0.01687392
0.01681886
0.01675811
0.01669248
0.01662278
0.01654974
0.01647388
0.01639572
0.01631659
0.01623674
0.01615602
0.01607506
0.01599446
0.01591459
0.01583582
0.01575869
0.01568301
0.01560866
0.01553806
0.01576018
0.01578524
0.01575105
0.01565403
0.0155386
0.01541913
0.01530767
0.01520954
0.01512652
0.01505816
0.01500304
0.01495975
0.01492646
0.01490041
0.01487993
0.01486342
0.01484931
0.01483621
0.014823
0.01480885
0.01479312
0.01477538
0.01475535
0.01473288
0.01470793
0.01468052
0.01465072
0.01461868
0.01458455
0.01454853
0.01451082
0.01447162
0.01443116
0.01438966
0.01434734
0.01430441
0.01426108
0.01421758
0.0141741
0.01413086
0.01408809
0.01404603
0.01400506
0.01396593
0.01393039
0.01389926
0.01386612
0.0138315
0.01379913
0.01376874
0.01374016
0.01371425
0.01369187
0.01368475
0.01372113
0.01367126
0.01362403
0.01357692
0.01352839
0.01347882
0.01342882
0.01337977
0.01333316
0.01329019
0.01325174
0.01321853
0.01319095
0.01316905
0.0131527
0.01314163
0.01313546
0.01313378
0.01313611
0.01314198
0.01315089
0.01316237
0.01317598
0.0131913
0.01320793
0.01322554
0.01324381
0.01326246
0.01328124
0.01329993
0.01331837
0.01333637
0.01335382
0.0133706
0.01338661
0.01340177
0.01341601
0.0134293
0.01344158
0.01345284
0.01346305
0.01347222
0.01348033
0.01348741
0.01349348
0.01349857
0.01350272
0.01350598
0.01350838
0.01350999
0.01351085
0.01351102
0.01351056
0.01350951
0.01350794
0.0135059
0.01350344
0.01350063
0.01349751
0.01349414
0.01349058
0.01348687
0.01348305
0.01347918
0.01347527
0.01347139
0.01346754
0.01346376
0.01346005
0.01345645
0.01345294
0.01344953
0.01344617
0.01344288
0.01343952
0.01343608
0.01343224
0.0134278
0.01342193
0.01341339
0.01339806
0.01336706
0.01329509
0.01317412
0.01333142
0.1081832
0.1010804
0.1037808
0.1094718
0.1153897
0.1206263
0.1249847
0.128506
0.1313599
0.1320072
0.1371139
0.143997
0.1507072
0.1563734
0.1607198
0.1637668
0.1656724
0.1666559
0.1867117
0.1840092
0.1811086
0.1779005
0.1746444
0.1715107
0.1686101
0.1660032
0.1637224
0.1617326
0.1603321
0.1590182
0.1577341
0.1566729
0.1558335
0.1552443
0.1548731
0.1546762
0.1545893
0.1546603
0.1546735
0.154348
0.1537789
0.1529896
0.1519628
0.1506694
0.1491011
0.147256
0.1451358
0.1427387
0.1400633
0.1372546
0.1343882
0.1315433
0.1287603
0.126019
0.1233199
0.1206817
0.1271762
0.1245084
0.122012
0.1196774
0.117478
0.1154064
0.113453
0.1116022
0.1098283
0.1081203
0.1064949
0.1049406
0.1034559
0.1020433
0.1007164
0.09947405
0.09830971
0.09721313
0.09620246
0.09501402
0.09338094
0.09148819
0.08932735
0.08692373
0.08456116
0.08255471
0.08112256
0.0804228
0.08049271
0.081235
0.08238534
0.08368102
0.08497027
0.08612342
0.08703507
0.08760386
0.08772968
0.08732945
0.08637529
0.08491319
0.08301812
0.08085263
0.07861138
0.07632928
0.07404757
0.07183306
0.06969313
0.06753264
0.06534411
0.06339096
0.06163371
0.06001739
0.05852066
0.05713088
0.05583703
0.05462993
0.05350217
0.05244744
0.05145999
0.05053432
0.04966513
0.0488474
0.0480766
0.04734889
0.04666107
0.04601058
0.04539526
0.04481237
0.04426078
0.04374233
0.04325571
0.04279989
0.04237412
0.04197763
0.04160963
0.04126926
0.04095553
0.04066713
0.04040262
0.04016055
0.03993944
0.03973775
0.03955392
0.03938636
0.03923349
0.03909379
0.03896584
0.03884831
0.03873994
0.03863962
0.03854635
0.03845922
0.03837736
0.03829995
0.03822627
0.03815566
0.03808894
0.03802954
0.03797486
0.03792163
0.03787042
0.03782113
0.03777316
0.03772579
0.03767831
0.03763007
0.03758053
0.03753002
0.03747899
0.03742771
0.03737642
0.03732537
0.0372748
0.03722495
0.03717603
0.03712824
0.03708177
0.0370368
0.03699347
0.03695192
0.03691226
0.03687458
0.03683893
0.03680532
0.03677374
0.0367441
0.03671629
0.03669013
0.0366654
0.03664182
0.03661907
0.0365968
0.0365746
0.03655206
0.0365287
0.03650408
0.03647769
0.03644906
0.03641764
0.03638303
0.03634484
0.03630302
0.03625675
0.03620622
0.03614951
0.03608848
0.03601878
0.03595736
0.03503823
0.03422594
0.03378367
0.03351343
0.03332078
0.03316091
0.03301267
0.03286605
0.03271632
0.03256138
0.03240039
0.03223314
0.03205971
0.03188034
0.03169528
0.03150483
0.03130924
0.03110875
0.03090355
0.03069357
0.03047852
0.03025855
0.0300338
0.02980437
0.02957036
0.02933187
0.02908905
0.02884207
0.02859125
0.02833684
0.028079
0.02781779
0.02755335
0.02728564
0.02701286
0.02673673
0.0264772
0.02623536
0.02600022
0.02576812
0.0255376
0.02530782
0.02507839
0.02484914
0.02461999
0.02439098
0.02416224
0.02393394
0.02370632
0.0234796
0.02325407
0.02303002
0.02280773
0.0225875
0.02236963
0.02215437
0.02194201
0.0217328
0.02152694
0.02132461
0.02112611
0.02093156
0.0207411
0.02055484
0.0203729
0.02019533
0.02002222
0.01985363
0.01968989
0.01953189
0.0202304
0.02007285
0.01993773
0.01980877
0.01967998
0.01955077
0.01942154
0.01929247
0.01916373
0.01903558
0.01890815
0.01878144
0.01865584
0.01853182
0.01840951
0.01828876
0.01816948
0.01805163
0.01793517
0.01782005
0.01770624
0.01759366
0.01748226
0.01737201
0.01726286
0.01715479
0.01704776
0.01694179
0.01683689
0.01673308
0.01663042
0.01652896
0.01642877
0.01632996
0.01623262
0.01613686
0.01604281
0.01595061
0.01586038
0.01577231
0.01568656
0.0156034
0.01552311
0.01544608
0.01537226
0.01530115
0.01523169
0.01516405
0.01509895
0.0150371
0.01497838
0.01492311
0.01487168
0.01483044
0.01479474
0.01475234
0.01470745
0.01466538
0.01462746
0.01459365
0.01456363
0.01453707
0.01451362
0.01449296
0.01447482
0.01445894
0.01444513
0.01443323
0.01442308
0.01441453
0.01440743
0.01440166
0.01439709
0.01439358
0.01439102
0.01438929
0.01438827
0.01438785
0.01438792
0.01438837
0.01438911
0.01439002
0.01439104
0.01439206
0.01439302
0.01439385
0.0143945
0.0143949
0.01439502
0.01439483
0.0143943
0.01439343
0.01439219
0.01439059
0.01438864
0.01438635
0.01438374
0.01438083
0.01437766
0.01437424
0.01437063
0.01436685
0.01436297
0.014359
0.01435501
0.01435104
0.01434712
0.0143433
0.01433962
0.01433613
0.01433285
0.01432983
0.01432709
0.01432467
0.0143226
0.01432089
0.01431958
0.01431867
0.01431819
0.01431813
0.01431852
0.01431933
0.01432061
0.01432227
0.01432441
0.01432685
0.01432977
0.01433283
0.01433634
0.01433964
0.01434321
0.01434576
0.01434778
0.01434646
0.01434177
0.01433055
0.01432376
0.01434383
0.01439335
0.07021065
0.07385171
0.07835041
0.08346044
0.08923233
0.09578418
0.1033142
0.1121384
0.1227457
0.1350336
0.1952531
0.2139178
0.232878
0.251158
0.2680215
0.2824411
0.2969659
0.3139309
0.3409305
0.406714
0.4177461
0.4265171
0.4335972
0.4390302
0.443266
0.446393
0.4484502
0.4492785
0.4491094
0.4477242
0.445932
0.4432127
0.4394105
0.4346856
0.4293254
0.4236083
0.4177547
0.4121461
0.4048301
0.3982619
0.3923533
0.3869588
0.3819652
0.3772279
0.3726096
0.3679887
0.3632737
0.3584019
0.3532428
0.3477509
0.3419398
0.3358318
0.3294783
0.3229368
0.3162632
0.3095082
0.3184718
0.3115313
0.304567
0.2976483
0.2907933
0.2840381
0.2774332
0.2710294
0.2648878
0.2590443
0.2535426
0.2484642
0.2438292
0.2396459
0.2359118
0.2325995
0.2296736
0.2270907
0.2247639
0.2225998
0.2205391
0.2185481
0.2165539
0.2144865
0.2122971
0.2099506
0.2074183
0.2046755
0.2017517
0.1987525
0.1956194
0.1922648
0.1886917
0.1849363
0.1810289
0.1770231
0.1729384
0.1688501
0.1646494
0.1605263
0.1565204
0.1526595
0.1489645
0.1454496
0.1421173
0.1389655
0.1359851
0.1331757
0.1305283
0.1280323
0.1256825
0.1234708
0.1213947
0.1194371
0.1175876
0.1158128
0.1140836
0.1122658
0.1102493
0.1080176
0.1055528
0.1028749
0.100099
0.09735486
0.09475378
0.09240431
0.09039338
0.0887597
0.08749297
0.08656928
0.0859787
0.08572155
0.08577916
0.08608762
0.0865202
0.08685682
0.08700522
0.08689195
0.08646848
0.08572479
0.08468729
0.08339137
0.08188321
0.08021767
0.07844866
0.07659972
0.07473455
0.07293318
0.07123003
0.06962856
0.06812345
0.06670869
0.06537625
0.06412315
0.06294733
0.06184483
0.06081065
0.05983911
0.05892462
0.05806178
0.05724539
0.05647063
0.05573335
0.0550301
0.05435805
0.05371503
0.05309903
0.05250703
0.05194007
0.05139918
0.05088647
0.05040294
0.04994829
0.0495222
0.04912433
0.04875417
0.048411
0.04809398
0.0478021
0.04753418
0.0472889
0.04706475
0.0468601
0.0466733
0.04650273
0.04634679
0.04620398
0.04607284
0.04595204
0.04584031
0.04573653
0.04563964
0.0455488
0.04546343
0.04538343
0.04530951
0.0452412
0.04517682
0.04511543
0.04505654
0.04499991
0.04494526
0.04489229
0.04484075
0.04479029
0.04474055
0.04469128
0.04464235
0.04459363
0.04454504
0.04449651
0.044448
0.04439949
0.04435098
0.0443025
0.0442541
0.04420587
0.04415789
0.04411028
0.04406314
0.04401657
0.04397067
0.04392552
0.04388115
0.04383759
0.04379479
0.04375268
0.04371113
0.04366996
0.04362894
0.0435878
0.04354622
0.04350383
0.04346026
0.04341509
0.04336786
0.04331813
0.04326539
0.04320915
0.04314886
0.04308415
0.04301424
0.04293913
0.04285718
0.04277009
0.0426683
0.04252571
0.04241117
0.04230428
0.04219382
0.04207592
0.04194937
0.04181382
0.04166926
0.04151577
0.04135345
0.04118244
0.04100289
0.04081499
0.04061895
0.04041498
0.04020334
0.03998427
0.039758
0.03952473
0.03928471
0.03903816
0.03878525
0.0385261
0.03826085
0.03798961
0.03771248
0.03742953
0.03714084
0.03684644
0.03654623
0.03623991
0.03592695
0.03560664
0.03527847
0.0349435
0.03460674
0.03427406
0.03394539
0.03361824
0.0332914
0.03296404
0.03263555
0.03230567
0.03197434
0.03164169
0.03130795
0.03097343
0.03063852
0.0303036
0.02996911
0.02963547
0.02930313
0.02897256
0.02864418
0.02831843
0.02799575
0.02767653
0.02736117
0.02705003
0.02674344
0.02644174
0.02614521
0.02585409
0.02556864
0.02528902
0.02501548
0.02474803
0.02448704
0.02423126
0.02398272
0.02375376
0.02352652
0.02329702
0.02306845
0.02284539
0.02262947
0.02242056
0.02221801
0.02202126
0.02182986
0.02164342
0.02146155
0.02128401
0.02111056
0.02094091
0.02077477
0.02061184
0.0204519
0.02029471
0.02014008
0.01998784
0.01983781
0.01968989
0.01954393
0.01939987
0.01925761
0.01911712
0.01897836
0.01884133
0.01870603
0.01857251
0.01844081
0.018311
0.01818316
0.01805741
0.01793385
0.01781261
0.01769383
0.01757767
0.01746428
0.01735385
0.01724658
0.01714268
0.01704227
0.0169454
0.01685187
0.0167615
0.01667411
0.01659009
0.01650959
0.01643302
0.01636011
0.01629111
0.01622509
0.01616278
0.01610469
0.01605165
0.01600357
0.01595964
0.01591923
0.01588209
0.01584826
0.01581776
0.01579055
0.01576655
0.01574561
0.01572757
0.01571229
0.01569959
0.01568929
0.0156812
0.01567513
0.01567089
0.01566828
0.0156671
0.01566716
0.01566827
0.01567025
0.01567292
0.01567613
0.01567972
0.01568353
0.01568744
0.01569133
0.01569509
0.01569862
0.01570184
0.01570468
0.01570709
0.01570902
0.01571044
0.01571134
0.01571169
0.01571151
0.01571081
0.0157096
0.01570791
0.01570578
0.01570325
0.01570038
0.01569721
0.0156938
0.01569021
0.0156865
0.01568274
0.01567899
0.01567531
0.01567176
0.0156684
0.01566529
0.01566248
0.01566002
0.01565796
0.01565635
0.0156552
0.01565457
0.01565447
0.01565494
0.01565598
0.01565762
0.01565984
0.01566269
0.01566611
0.01567016
0.01567475
0.01567997
0.01568564
0.01569193
0.01569852
0.01570564
0.01571273
0.01572008
0.01572675
0.01573323
0.0157385
0.01574449
0.01575236
0.01576782
0.01579174
0.06368693
0.06873537
0.07325493
0.1056068
0.1383698
0.1773369
0.2027906
0.2275035
0.2497604
0.2698927
0.2870472
0.301318
0.3148998
0.3283028
0.3416026
0.3548796
0.3681996
0.3812842
0.3939653
0.406439
0.4187148
0.4306731
0.4423442
0.4537797
0.4650886
0.4761391
0.4869574
0.4976416
0.507925
0.5177266
0.5270902
0.5487951
0.5541946
0.5586251
0.5623837
0.5654229
0.567652
0.5690363
0.5694398
0.568776
0.5668954
0.5634452
0.5578848
0.5511033
0.5436627
0.5359462
0.5282069
0.5206082
0.5132676
0.5062454
0.4995499
0.4932337
0.4872469
0.4815328
0.4760188
0.4706152
0.465229
0.4597749
0.4541722
0.4483412
0.4422215
0.4357819
0.429001
0.4218832
0.4144438
0.4067289
0.3987756
0.3906747
0.3822447
0.3737692
0.3652974
0.3568672
0.3485402
0.3403325
0.3322453
0.3243031
0.3165583
0.3090933
0.3020324
0.2954294
0.2893268
0.2837546
0.2787267
0.2742262
0.2702232
0.2666697
0.2634667
0.2605248
0.2577766
0.2551441
0.2525458
0.2499174
0.2472147
0.2444045
0.2414697
0.2384362
0.2353166
0.2319489
0.2283017
0.2243875
0.2202289
0.2158601
0.2113183
0.2066624
0.2019236
0.1971719
0.1924304
0.1876996
0.1830232
0.1784566
0.1740345
0.1697753
0.1656868
0.1617719
0.1580313
0.1544658
0.1510735
0.1478511
0.1447962
0.1419036
0.1391682
0.1365775
0.134118
0.1317635
0.1294794
0.1272027
0.1248597
0.1224014
0.1198036
0.1170667
0.1142244
0.1113217
0.1084066
0.105534
0.10275
0.1000786
0.09753598
0.09514946
0.09296199
0.09102824
0.08940029
0.08811001
0.08715416
0.08649002
0.08605454
0.08576837
0.08553598
0.0852558
0.08481505
0.08419354
0.08338294
0.08239148
0.08124042
0.0799618
0.07859222
0.07718321
0.07578282
0.074419
0.07310403
0.07184454
0.07064564
0.06951036
0.06843949
0.06743188
0.066485
0.06559446
0.06475623
0.06396632
0.06321998
0.0625121
0.06183767
0.06119202
0.06057104
0.05997138
0.05939056
0.05882692
0.05827992
0.05774973
0.05723588
0.05673914
0.05626151
0.05580445
0.05537024
0.05496049
0.05457581
0.05421656
0.05388281
0.0535742
0.05329007
0.05302947
0.05279116
0.05257372
0.05237565
0.05219539
0.05203132
0.05188182
0.05174534
0.05162041
0.05150565
0.05139986
0.05130197
0.05121121
0.051127
0.0510492
0.05097757
0.05091097
0.05084826
0.05078879
0.05073223
0.05067827
0.0506266
0.05057685
0.05052862
0.05048154
0.05043523
0.05038937
0.05034363
0.05029771
0.05025135
0.05020429
0.05015632
0.05010729
0.05005705
0.05000554
0.04995271
0.0498986
0.04984326
0.04978678
0.0497293
0.04967096
0.04961191
0.04955229
0.04949223
0.04943183
0.04937116
0.04931023
0.04924902
0.04918743
0.04912534
0.04906253
0.04899877
0.04893374
0.04886711
0.04879847
0.04872742
0.04865347
0.04857614
0.04849488
0.04840923
0.04831856
0.04822259
0.04812058
0.04801306
0.0478987
0.0477772
0.04764874
0.04751268
0.04736919
0.04721861
0.04706073
0.04689519
0.04672169
0.04654004
0.04635016
0.04615203
0.04594566
0.04573114
0.04550858
0.04527814
0.04504
0.04479438
0.04454148
0.04428151
0.0440147
0.04374127
0.04346143
0.04317536
0.0428832
0.04258511
0.04228116
0.04197143
0.04165594
0.04133463
0.04100737
0.04067384
0.04033363
0.03998636
0.03963203
0.03927166
0.03890786
0.03854401
0.0381815
0.03781964
0.03745745
0.03709418
0.03672935
0.0363627
0.03599413
0.03562366
0.03525143
0.0348777
0.03450277
0.03412697
0.03375071
0.0333744
0.03299849
0.03262344
0.03224973
0.03187782
0.03150819
0.03114131
0.03077765
0.03041763
0.03006168
0.02971021
0.02936359
0.02902218
0.02868628
0.02835626
0.02803226
0.02771474
0.02740352
0.02709918
0.02680081
0.02650919
0.02622386
0.02594608
0.02567639
0.02541428
0.02515899
0.02491005
0.02466725
0.02443046
0.02419953
0.02397431
0.0237547
0.0235404
0.02333111
0.02312661
0.0229267
0.02273112
0.02253961
0.02235188
0.02216771
0.02198685
0.0218091
0.02163425
0.02146215
0.02129264
0.0211256
0.02096093
0.02079856
0.02063843
0.02048053
0.02032485
0.02017141
0.02002028
0.0198715
0.01972518
0.0195814
0.0194403
0.01930201
0.01916669
0.01903448
0.01890556
0.0187801
0.01865825
0.01854013
0.01842581
0.01831532
0.01820862
0.01810564
0.01800651
0.0179114
0.01782052
0.01773393
0.01765172
0.01757416
0.01750165
0.01743379
0.01737004
0.01731033
0.01725488
0.01720386
0.01715734
0.01711527
0.0170776
0.0170442
0.01701493
0.0169896
0.01696805
0.01695006
0.01693546
0.01692404
0.01691558
0.01690986
0.01690667
0.01690576
0.01690691
0.01690989
0.01691448
0.01692044
0.01692757
0.01693565
0.01694447
0.01695387
0.01696364
0.01697364
0.0169837
0.01699369
0.01700349
0.017013
0.01702211
0.01703075
0.01703886
0.01704639
0.0170533
0.01705957
0.01706518
0.01707015
0.01707448
0.01707818
0.01708131
0.01708388
0.01708596
0.01708759
0.01708883
0.01708974
0.01709039
0.01709084
0.01709117
0.01709144
0.01709173
0.0170921
0.01709261
0.01709335
0.01709435
0.01709569
0.01709741
0.01709955
0.01710217
0.01710528
0.01710893
0.01711313
0.0171179
0.01712326
0.01712921
0.01713577
0.01714292
0.01715067
0.01715898
0.01716788
0.01717726
0.01718716
0.0171974
0.01720805
0.01721887
0.01723004
0.01724161
0.017254
0.01726827
0.01728496
0.0173053
0.03808199
0.04087814
0.0435066
0.05456192
0.07022925
0.09572192
0.1137468
0.1324564
0.1520545
0.1714404
0.1909191
0.2117521
0.2333425
0.2548078
0.276715
0.3010983
0.3379217
0.3530905
0.3682536
0.3833857
0.3987766
0.413496
0.4268362
0.4388659
0.4496145
0.4592245
0.4681113
0.4763626
0.484032
0.4911755
0.4978883
0.5040794
0.5094115
0.5142158
0.5185154
0.5223113
0.5256312
0.528506
0.5311901
0.5341199
0.5380048
0.5416292
0.543227
0.5460497
0.5494887
0.553197
0.5569821
0.5606098
0.5638284
0.5663385
0.5679231
0.5683488
0.5669648
0.5642346
0.5606774
0.5566289
0.5523049
0.5478463
0.5433574
0.5389304
0.5346276
0.5304764
0.5265169
0.522735
0.5190748
0.5154519
0.5117655
0.507917
0.5038089
0.4993501
0.4944539
0.4890584
0.4831349
0.476679
0.4697018
0.4622335
0.4543254
0.4460605
0.4375275
0.4288112
0.4199751
0.4111382
0.4023091
0.3934261
0.3845096
0.3756283
0.3668509
0.3582447
0.3498639
0.3417549
0.3340539
0.3269411
0.3204614
0.3146249
0.3094115
0.3047851
0.3006894
0.2970069
0.2936353
0.2904983
0.2874922
0.2845221
0.2815247
0.2784586
0.2753031
0.2720875
0.2687862
0.2652386
0.2614037
0.2572607
0.2528155
0.2480898
0.2431206
0.2379534
0.2326467
0.2272514
0.2218255
0.2164102
0.2110382
0.2057508
0.2005895
0.1955811
0.1907389
0.1860679
0.1815701
0.1772459
0.1730945
0.1691079
0.1652875
0.1616357
0.1581522
0.1548352
0.1516781
0.1486718
0.1457993
0.1430359
0.1403444
0.1376775
0.134994
0.1322648
0.1294737
0.1266185
0.1237039
0.1207378
0.1177325
0.1146978
0.1116398
0.108569
0.1055066
0.1024905
0.09957556
0.09682545
0.09430167
0.09205274
0.09010623
0.08846511
0.08710941
0.0859983
0.08507362
0.08426696
0.08351414
0.08275764
0.08195278
0.08107206
0.08010653
0.07906489
0.07797337
0.07686436
0.0757631
0.0746844
0.07363742
0.07262948
0.07166652
0.07075225
0.06988841
0.06907536
0.06831245
0.06759808
0.06692961
0.06630346
0.06571514
0.06515963
0.06463166
0.06412596
0.06363759
0.06316215
0.06269627
0.06223843
0.0617879
0.06134444
0.06090828
0.06048065
0.06006286
0.0596556
0.05926118
0.05888255
0.05852218
0.05818285
0.05786593
0.0575718
0.05730044
0.05705159
0.05682462
0.0566186
0.05643228
0.05626421
0.05611283
0.05597653
0.05585372
0.05574288
0.05564261
0.05555167
0.05546905
0.05539392
0.05532573
0.0552639
0.05520756
0.05515575
0.0551078
0.05506322
0.05502163
0.05498258
0.05494565
0.0549104
0.05487636
0.05484308
0.05481007
0.05477685
0.05474295
0.05470791
0.05467131
0.05463273
0.05459181
0.05454825
0.0545018
0.0544523
0.05439964
0.05434379
0.05428482
0.05422281
0.05415793
0.05409037
0.05402037
0.05394815
0.05387394
0.05379797
0.0537204
0.05364139
0.05356102
0.05347932
0.05339625
0.05331173
0.0532256
0.05313762
0.05304752
0.05295496
0.05285954
0.05276083
0.05265835
0.05255166
0.05244025
0.05232377
0.05220181
0.05207446
0.05194138
0.05180204
0.05165521
0.05150056
0.05133809
0.05116775
0.0509893
0.05080253
0.05060727
0.05040346
0.0501911
0.04997021
0.04974088
0.04950322
0.04925737
0.04900352
0.0487419
0.04847274
0.0481963
0.04791283
0.04762261
0.04732589
0.04702295
0.04671401
0.04639929
0.04607896
0.04575314
0.04542194
0.04508537
0.04474341
0.04439595
0.04404279
0.04368371
0.0433186
0.04294765
0.04257159
0.04219196
0.04181085
0.04142963
0.04104835
0.04066639
0.04028318
0.03989832
0.03951153
0.03912266
0.03873163
0.03833848
0.03794335
0.03754641
0.03714793
0.03674821
0.0363476
0.03594648
0.03554528
0.03514444
0.03474441
0.03434568
0.03394874
0.03355405
0.03316211
0.03277339
0.03238834
0.03200741
0.03163104
0.03125962
0.03089356
0.03053317
0.03017884
0.02983075
0.02948919
0.02915422
0.02882637
0.02850572
0.02819182
0.02788452
0.02758421
0.02729126
0.02700585
0.02672793
0.02645733
0.02619382
0.02593714
0.02568707
0.0254433
0.02520556
0.02497361
0.02474719
0.02452602
0.02430979
0.02409823
0.02389105
0.02368797
0.02348876
0.02329317
0.02310099
0.02291202
0.0227261
0.02254308
0.02236284
0.0221853
0.02201039
0.02183808
0.02166836
0.02150125
0.02133679
0.02117504
0.0210161
0.02086007
0.02070707
0.02055724
0.02041074
0.02026772
0.02012832
0.01999271
0.019861
0.0197333
0.01960968
0.0194902
0.01937487
0.01926378
0.01915709
0.01905499
0.01895763
0.01886517
0.01877776
0.01869541
0.0186179
0.01854517
0.01847735
0.01841458
0.0183569
0.01830425
0.01825656
0.01821377
0.0181758
0.01814254
0.01811386
0.01808963
0.01806967
0.0180538
0.01804182
0.01803352
0.01802867
0.01802703
0.01802836
0.01803242
0.01803894
0.01804767
0.01805837
0.01807078
0.01808465
0.01809976
0.01811586
0.01813275
0.01815021
0.01816807
0.01818613
0.01820424
0.01822224
0.01824002
0.01825744
0.0182744
0.01829083
0.01830665
0.01832181
0.01833625
0.01834996
0.01836291
0.01837511
0.01838657
0.01839729
0.01840732
0.01841669
0.01842543
0.0184336
0.01844125
0.01844844
0.01845523
0.0184617
0.01846791
0.01847395
0.01847987
0.01848576
0.0184917
0.01849774
0.01850396
0.0185104
0.01851713
0.01852418
0.0185316
0.01853943
0.01854769
0.01855642
0.01856563
0.01857533
0.01858554
0.01859628
0.01860752
0.0186193
0.01863156
0.01864434
0.01865757
0.0186713
0.01868549
0.01870025
0.0187157
0.01873204
0.01874985
0.01876879
0.01878901
0.01579426
0.01843712
0.02032199
0.02902305
0.03914518
0.05220818
0.06328299
0.07576596
0.08914703
0.103232
0.1184735
0.1360519
0.1548265
0.1752861
0.1991952
0.2345438
0.2514257
0.2685578
0.2853217
0.3017282
0.3177342
0.3332613
0.3481246
0.3623631
0.3758736
0.3885124
0.4003394
0.4127535
0.4251167
0.4375406
0.4499788
0.4618007
0.4724047
0.4813702
0.4889376
0.4952755
0.5004902
0.5046126
0.5076855
0.5096263
0.5107954
0.511289
0.5111426
0.5104079
0.5090885
0.5072488
0.5052758
0.5032139
0.5013699
0.5004099
0.5004474
0.5016232
0.5037087
0.5070968
0.5116117
0.5170813
0.5232467
0.5297841
0.5362986
0.5424237
0.5478368
0.5516565
0.554566
0.5567066
0.5582242
0.5591959
0.5596768
0.5597088
0.5593595
0.5587133
0.55783
0.5567674
0.5555849
0.5542992
0.5528749
0.5512303
0.5492669
0.5468758
0.5439418
0.5403628
0.5360539
0.5309741
0.5251318
0.5185626
0.511308
0.5034223
0.4949911
0.486143
0.4770275
0.4677957
0.4586544
0.4494686
0.4401833
0.4308238
0.4214406
0.4121019
0.4028832
0.3938618
0.3851118
0.3767004
0.3686777
0.3610815
0.3541375
0.3479073
0.3423736
0.3374943
0.33319
0.3293205
0.3257661
0.3224317
0.3191964
0.3159621
0.312668
0.3092804
0.3058153
0.3022831
0.298512
0.2944394
0.2900242
0.2852511
0.28013
0.2746897
0.2689758
0.2630447
0.2569622
0.2507928
0.2446004
0.2384424
0.2323756
0.2264425
0.2206697
0.2150734
0.2096604
0.2044318
0.199386
0.1945204
0.1898345
0.1853241
0.1809872
0.1768246
0.1728366
0.1690218
0.1653769
0.1618961
0.1585695
0.155382
0.1523113
0.1493267
0.1463965
0.1434939
0.140596
0.1376847
0.1347436
0.1317579
0.1287154
0.1256051
0.1224173
0.1191496
0.115811
0.1124255
0.1090335
0.1056861
0.1024403
0.09935202
0.09646968
0.09382703
0.09144316
0.08932308
0.0874558
0.08581601
0.08436759
0.08306733
0.08187025
0.08073775
0.0796403
0.07856301
0.07750388
0.07646891
0.07546617
0.07450153
0.07357818
0.07269803
0.07186234
0.07107179
0.07032651
0.06962638
0.0689712
0.06836059
0.06779363
0.06726852
0.06678253
0.06633194
0.06591222
0.06551823
0.0651445
0.06478559
0.06443641
0.06409261
0.0637508
0.06340853
0.06306376
0.06271706
0.06237051
0.06202649
0.06168759
0.06135658
0.06103612
0.06072791
0.06043443
0.0601575
0.05989872
0.05965989
0.05944178
0.05924445
0.05906735
0.05890953
0.05876976
0.05864659
0.05853848
0.05844386
0.05836124
0.05828922
0.05822657
0.05817226
0.0581254
0.0580852
0.05805081
0.05802142
0.0579963
0.05797492
0.0579568
0.05794147
0.05792846
0.05791729
0.05790743
0.05789836
0.05788948
0.05788016
0.05786978
0.05785771
0.05784329
0.05782592
0.05780501
0.05778003
0.05775052
0.05771612
0.05767654
0.05763162
0.05758126
0.05752549
0.05746442
0.05739825
0.05732722
0.05725164
0.05717185
0.05708819
0.057001
0.05691059
0.05681725
0.05672121
0.05662263
0.05652161
0.05641818
0.05631231
0.05620386
0.05609265
0.05597841
0.05586085
0.05573959
0.05561427
0.05548448
0.05534987
0.0552101
0.05506495
0.05491406
0.05475694
0.05459298
0.05442174
0.05424291
0.05405616
0.05386125
0.05365792
0.05344603
0.05322549
0.05299627
0.05275839
0.05251193
0.052257
0.05199379
0.0517225
0.05144338
0.05115672
0.05086281
0.05056197
0.05025451
0.04994079
0.04962111
0.04929577
0.04896507
0.04862922
0.04828844
0.04794287
0.0475926
0.04723765
0.04687802
0.04651361
0.04614438
0.04577034
0.04539176
0.04500923
0.04462374
0.04423656
0.04384867
0.04346027
0.04307107
0.04268066
0.04228869
0.04189486
0.04149895
0.0411008
0.04070034
0.04029757
0.03989256
0.03948545
0.03907642
0.03866573
0.03825367
0.03784058
0.03742683
0.03701284
0.03659906
0.03618593
0.03577395
0.03536361
0.0349554
0.03454981
0.03414735
0.03374851
0.03335375
0.03296352
0.03257826
0.03219837
0.0318242
0.03145607
0.0310943
0.03073914
0.03039066
0.03004888
0.02971408
0.02938661
0.02906674
0.02875455
0.02845007
0.02815326
0.027864
0.02758215
0.02730754
0.02703997
0.02677921
0.02652502
0.02627714
0.02603531
0.02579922
0.02556856
0.02534304
0.02512236
0.02490623
0.02469439
0.02448657
0.02428254
0.0240821
0.02388505
0.02369123
0.02350052
0.02331281
0.02312804
0.02294615
0.02276713
0.022591
0.02241779
0.02224758
0.02208045
0.0219165
0.02175586
0.02159866
0.02144506
0.02129518
0.02114919
0.02100722
0.02086939
0.02073581
0.02060653
0.02048165
0.02036131
0.02024567
0.02013489
0.02002913
0.01992854
0.01983318
0.01974311
0.01965833
0.01957892
0.01950495
0.01943648
0.01937353
0.01931609
0.01926412
0.01921758
0.01917641
0.01914053
0.01910983
0.01908419
0.01906346
0.01904745
0.01903597
0.01902882
0.01902577
0.01902658
0.019031
0.01903877
0.01904962
0.01906327
0.01907945
0.01909789
0.01911831
0.01914045
0.01916404
0.01918884
0.01921461
0.01924111
0.01926815
0.0192955
0.019323
0.01935047
0.01937775
0.0194047
0.01943121
0.01945716
0.01948246
0.01950703
0.01953082
0.01955379
0.0195759
0.01959714
0.01961751
0.019637
0.01965563
0.01967342
0.0196904
0.0197066
0.01972207
0.01973685
0.019751
0.01976459
0.01977768
0.01979036
0.01980272
0.01981483
0.01982677
0.01983862
0.01985045
0.01986231
0.01987427
0.01988638
0.01989868
0.01991121
0.01992402
0.01993713
0.01995058
0.01996438
0.01997857
0.01999314
0.02000814
0.02002354
0.02003939
0.02005567
0.02007242
0.02008968
0.02010751
0.02012602
0.02014534
0.02016576
0.02018684
0.02020764
0.004096403
0.01507685
0.02140978
0.02886533
0.03761621
0.04802272
0.06019097
0.07392324
0.08938008
0.1079578
0.1354158
0.1508731
0.1671294
0.1836389
0.2003117
0.2169586
0.2334491
0.2496096
0.2652166
0.2801672
0.2945286
0.310454
0.3259492
0.3408867
0.3552915
0.3691788
0.3824622
0.3949441
0.4067684
0.4179095
0.4283536
0.4382365
0.4478712
0.4569291
0.4656635
0.4739747
0.4814362
0.4876552
0.4927496
0.4966939
0.4994727
0.5010536
0.5013052