/*--------------------------------*- C++ -*----------------------------------*\
| =========                 |                                                 |
| \\      /  F ield         | foam-extend: Open Source CFD                    |
|  \\    /   O peration     | Version:     3.1                                |
|   \\  /    A nd           | Web:         http://www.extend-project.de       |
|    \\/     M anipulation  |                                                 |
\*---------------------------------------------------------------------------*/
FoamFile
{
    version     2.0;
    format      ascii;
    class       volScalarField;
    location    "7.5";
    object      nut;
}
// * * * * * * * * * * * * * * * * * * * * * * * * * * * * * * * * * * * * * //

dimensions      [0 2 -1 0 0 0 0];

internalField   nonuniform List<scalar> 
119952
(
3.711736e-05
2.27241e-05
2.096435e-05
2.094831e-05
2.214386e-05
2.589527e-05
3.070984e-05
3.364437e-05
3.486416e-05
3.444671e-05
3.288833e-05
3.103739e-05
2.921127e-05
2.758429e-05
2.622797e-05
2.508981e-05
2.40678e-05
2.307167e-05
2.201671e-05
2.086908e-05
2.784785e-05
2.56589e-05
2.450637e-05
3.335254e-05
3.149951e-05
3.033932e-05
2.938214e-05
2.882139e-05
2.804039e-05
2.470953e-05
2.89919e-05
3.166816e-05
3.587473e-05
4.011138e-05
4.452388e-05
4.908002e-05
5.380696e-05
5.855268e-05
6.327798e-05
7.159959e-05
0.0003035884
0.0003411017
0.0003804412
0.0004194095
0.000456841
0.0004923395
0.0005260456
0.0005583286
0.000589071
0.0007936313
0.0008207455
0.0008478303
0.0008750754
0.0009032368
0.0009332323
0.000965681
0.001000883
0.001038704
0.001079818
0.001122805
0.001164545
0.001206587
0.001248635
0.001289845
0.001329051
0.001364884
0.001395781
0.001420222
0.001326752
0.001367725
0.001294148
0.001193336
0.001087688
0.001016774
0.0009545322
0.0009025765
0.000901034
0.0009306128
0.0009777745
0.001035762
0.001097114
0.001158895
0.001221845
0.00128652
0.001352342
0.001419619
0.001464832
0.001496502
0.001524745
0.001546167
0.001563641
0.001581122
0.001599936
0.00161236
0.001618775
0.001617242
0.001585089
0.001512097
0.001481313
0.001464399
0.001452673
0.001443197
0.001435342
0.00142884
0.001423417
0.001418811
0.001414814
0.001411244
0.001407943
0.001404762
0.001401577
0.001398303
0.001394888
0.001391313
0.001387573
0.00138367
0.001379627
0.001375487
0.001371275
0.001367019
0.001362772
0.001358568
0.001354429
0.001350378
0.001346427
0.001342572
0.001338789
0.001335044
0.001331306
0.001327538
0.001323706
0.001319774
0.001315708
0.001311479
0.001307063
0.001302444
0.001297613
0.001292566
0.001287279
0.001281734
0.001275922
0.001269843
0.001263501
0.001256921
0.001250158
0.00124346
0.001237956
0.001226506
0.001211263
0.001195447
0.001179937
0.001165166
0.001151276
0.001138273
0.001126106
0.001114699
0.001103962
0.001093813
0.001084169
0.001074959
0.001066117
0.001057592
0.001049339
0.001041325
0.001033519
0.001025896
0.001018434
0.001011116
0.001003925
0.0009968441
0.0009898592
0.0009829563
0.0009761199
0.0009693338
0.0009625835
0.0009558524
0.00094912
0.0009423681
0.0009355761
0.0009287228
0.0009217875
0.0009147483
0.0009075832
0.0009002713
0.0008927907
0.0008851196
0.000877235
0.000869117
0.0008607547
0.0008521137
0.0008431851
0.0008339681
0.000824458
0.0008146708
0.0008046167
0.0007946323
0.000787297
0.0006928923
0.0005791805
0.000522642
0.0004898439
0.0004680461
0.0004518552
0.0004387659
0.0004275253
0.0004174624
0.0004081939
0.0003994858
0.0003911914
0.0003832089
0.00037547
0.0003679266
0.0003605459
0.0003533073
0.0003461921
0.0003391806
0.0003322589
0.000325422
0.0003186635
0.0003119813
0.0003053749
0.0002988458
0.0002923987
0.000286041
0.0002797807
0.0002736549
0.0002676843
0.0002618198
0.0002560266
0.00025043
0.0002451041
0.000240387
0.0002392791
0.0002447864
0.0002505564
0.0002560733
0.0002611776
0.0002658808
0.0002702066
0.000274186
0.0002778519
0.000281252
0.0002844294
0.0002874191
0.0002902485
0.0002929392
0.0002955109
0.0002979805
0.0003003627
0.0003026714
0.0003049189
0.0003071147
0.000309268
0.0003113896
0.0003134855
0.0003155591
0.000317624
0.0003196882
0.0003217446
0.0003237989
0.0003258575
0.0003279232
0.0003299972
0.0003320824
0.0003341778
0.0003362815
0.0003383924
0.0004292324
0.000428595
0.000441002
0.0004461594
0.0004508368
0.0004551456
0.0004593874
0.0004635569
0.0004676259
0.000471573
0.0004753868
0.0004790759
0.0004826347
0.0004860613
0.0004893758
0.0004925858
0.0004956929
0.0004986994
0.0005016098
0.0005044295
0.0005071638
0.0005098191
0.0005124016
0.0005149177
0.000517374
0.0005197761
0.0005221303
0.0005244426
0.0005267193
0.0005289662
0.0005311892
0.0005333939
0.0005355861
0.0005377709
0.0005399537
0.0005421393
0.0005443322
0.0005465365
0.0005487557
0.0005509927
0.0005532493
0.0005555251
0.0005578166
0.0005601154
0.0005624136
0.0005646646
0.0005666204
0.0005684101
0.0005702132
0.000572018
0.0005738195
0.0005756309
0.0005774626
0.0005797505
0.0005822013
0.0005829183
0.0005838211
0.0005848722
0.0005860926
0.0005874799
0.0005890147
0.0005906843
0.0005924753
0.0005943739
0.0005963638
0.0005984333
0.00060057
0.000602758
0.0006049825
0.0006072295
0.000609487
0.0006117443
0.000613992
0.000616222
0.0006184274
0.000620602
0.0006227408
0.0006248401
0.0006268971
0.0006289098
0.000630877
0.0006327982
0.000634674
0.0006365053
0.0006382941
0.0006400431
0.0006417551
0.000643434
0.0006450832
0.0006467069
0.0006483093
0.0006498951
0.0006514693
0.000653037
0.0006546032
0.0006561725
0.0006577493
0.0006593379
0.0006609427
0.000662568
0.0006642179
0.0006658964
0.0006676071
0.0006693532
0.0006711377
0.0006729631
0.0006748316
0.0006767449
0.0006787046
0.0006807119
0.0006827676
0.0006848728
0.0006870281
0.0006892341
0.0006914912
0.0006937997
0.0006961601
0.0006985726
0.0007010376
0.0007035561
0.0007061287
0.0007087573
0.0007114436
0.0007141909
0.0007170025
0.0007198845
0.0007228428
0.0007258889
0.0007290333
0.0007322975
0.0007357019
0.0007392891
0.0007431068
0.0007472583
0.0007518916
0.0007573365
0.0007640311
0.000773654
0.0005996475
4.976266e-05
5.326647e-05
6.092629e-05
7.040072e-05
8.034161e-05
9.015657e-05
9.963271e-05
0.0001087102
0.0001186451
0.0004398621
0.0005710727
0.0007085639
0.0008417278
0.0009641581
0.001073283
0.001169077
0.001252828
0.001326758
0.001892558
0.001952752
0.002012539
0.002068674
0.002122124
0.002174284
0.002226729
0.002280907
0.002338134
0.002398825
0.002465766
0.002536159
0.00261139
0.002693705
0.002782722
0.002877663
0.002976994
0.003078761
0.003180477
0.003263079
0.003324544
0.003382605
0.003436191
0.003482907
0.003520272
0.00354597
0.003558386
0.003556087
0.003538851
0.003507543
0.003463031
0.003410369
0.003353742
0.003298687
0.003247248
0.003198435
0.003151982
0.003106451
0.003644804
0.003605164
0.003569503
0.003537763
0.003510014
0.003486805
0.003468296
0.003454203
0.003443849
0.003437252
0.003435522
0.003439108
0.003448152
0.003462514
0.003481856
0.003504487
0.003526992
0.003545226
0.003554069
0.00353583
0.003480737
0.003391426
0.003261845
0.003099743
0.002925062
0.00275508
0.002603186
0.002477968
0.002380178
0.002305285
0.002208442
0.002061325
0.001961785
0.001902658
0.001875493
0.001875116
0.001896907
0.001936134
0.001986952
0.002044166
0.002111977
0.002178942
0.002223677
0.002274876
0.002340216
0.002399896
0.002457832
0.002585327
0.002629384
0.002649594
0.002668888
0.002686894
0.002703787
0.002719821
0.002735169
0.00275003
0.002764607
0.002779056
0.002793472
0.002807892
0.002822304
0.002836669
0.002850936
0.002865061
0.002879007
0.002892746
0.002906258
0.002919428
0.002932279
0.002945091
0.002957869
0.002970632
0.002983419
0.002996276
0.003009242
0.003022347
0.0030356
0.003048993
0.003062506
0.003076113
0.003089776
0.003103455
0.003117097
0.003130648
0.003144051
0.003157252
0.003170199
0.003182844
0.003195146
0.003207071
0.003218588
0.003229675
0.003240312
0.003250487
0.003260201
0.003269469
0.003278384
0.003287127
0.003295374
0.003302835
0.003309463
0.00331525
0.003320216
0.003324404
0.003327869
0.003330647
0.003332709
0.003334161
0.003335176
0.003335871
0.003336337
0.003336649
0.003336865
0.003337036
0.0033372
0.003337389
0.00333763
0.003337945
0.00333835
0.003338861
0.003339485
0.003340231
0.003341098
0.003342085
0.003343183
0.003344378
0.003345652
0.003346978
0.003348324
0.003349654
0.003350926
0.003352093
0.003353103
0.003353904
0.00335444
0.003354652
0.003354481
0.003353869
0.003352753
0.003351069
0.003348793
0.003345959
0.003342517
0.003338488
0.003333759
0.003328518
0.003322721
0.003321522
0.003123668
0.002947785
0.002851338
0.002793417
0.002754817
0.002726092
0.002702464
0.00268146
0.002661778
0.002642722
0.002623914
0.002605141
0.00258628
0.002567253
0.002548009
0.002528512
0.002508731
0.002488629
0.002468159
0.002447175
0.002425594
0.002403424
0.002380665
0.002357317
0.002333384
0.002308878
0.002283827
0.002258278
0.002232314
0.002205985
0.002179375
0.002152657
0.002126206
0.002100689
0.002076601
0.00205441
0.002035019
0.002017491
0.002000864
0.001984749
0.001968915
0.001953227
0.00193761
0.001922035
0.001906506
0.001891045
0.001875682
0.001860449
0.001845384
0.001830526
0.001815916
0.001801597
0.001787612
0.001773998
0.001760793
0.001748029
0.001735734
0.00172393
0.001712632
0.001701855
0.001691612
0.001681902
0.001672724
0.00166407
0.001655928
0.00164828
0.001641107
0.001634384
0.001628056
0.001621804
0.001910101
0.001909655
0.001909158
0.001908138
0.001906562
0.001904537
0.001902168
0.001899527
0.001896673
0.001893662
0.001890542
0.001887308
0.001883979
0.001880604
0.001877201
0.00187376
0.001870274
0.001866739
0.001863156
0.001859528
0.001855858
0.001852152
0.001848418
0.001844665
0.001840904
0.001837147
0.001833409
0.001829704
0.001826049
0.001822462
0.001818958
0.001815559
0.001812281
0.001809143
0.001806164
0.001803361
0.001800751
0.001798351
0.001796172
0.001794229
0.001792527
0.001791077
0.001789878
0.001788936
0.001788222
0.001787679
0.001787237
0.001786955
0.001786911
0.00178716
0.001787678
0.001788492
0.001789642
0.001791576
0.001793673
0.001795402
0.001797153
0.001799209
0.001801607
0.001804337
0.001807379
0.00181071
0.001814295
0.001818098
0.001822086
0.001826225
0.001830483
0.001834828
0.001839228
0.001843649
0.00184806
0.001852429
0.001856725
0.001860918
0.00186498
0.001868885
0.001872609
0.00187613
0.001879431
0.001882494
0.001885309
0.001887867
0.00189016
0.001892188
0.001893952
0.001895456
0.001896709
0.001897721
0.001898506
0.00189908
0.001899461
0.001899671
0.001899731
0.001899666
0.001899499
0.001899256
0.001898962
0.001898644
0.001898326
0.001898034
0.001897793
0.001897625
0.001897553
0.001897598
0.001897779
0.001898115
0.001898621
0.001899311
0.001900199
0.001901295
0.001902609
0.001904147
0.001905915
0.00190792
0.001910163
0.001912646
0.001915372
0.001918339
0.00192155
0.001925
0.001928694
0.001932628
0.001936809
0.001941231
0.001945914
0.001950849
0.001956072
0.001961572
0.001967419
0.001973595
0.001980235
0.001987316
0.001995086
0.002003497
0.002012926
0.002023278
0.002035996
0.002052574
0.002072371
3.201489e-05
3.827944e-05
4.778137e-05
5.895473e-05
7.21976e-05
8.802385e-05
0.0001073472
0.0001312858
0.0001617195
0.0002149318
0.001001848
0.001187476
0.001392168
0.001604316
0.0018034
0.001944617
0.002083367
0.00224439
0.002565199
0.004616403
0.004850605
0.005008641
0.005152923
0.005283928
0.005408301
0.005526552
0.005639567
0.00574669
0.005864529
0.006057086
0.006270177
0.006448707
0.006581616
0.006677112
0.006746639
0.00679953
0.00684238
0.006885083
0.006778202
0.006762139
0.006792122
0.006845318
0.006908009
0.006971431
0.007029954
0.007079883
0.007118785
0.007144691
0.007156646
0.007156031
0.007144007
0.007121305
0.00708868
0.007046952
0.006997069
0.006938706
0.007771138
0.007700943
0.007624914
0.007546971
0.007470056
0.00739714
0.007331012
0.007274019
0.007228376
0.007195273
0.007175693
0.007171019
0.007181199
0.00720559
0.007242958
0.007291214
0.00734808
0.007410657
0.007474864
0.007537009
0.007593921
0.007643008
0.007680931
0.007704823
0.007712408
0.007701874
0.007672013
0.007622508
0.00755643
0.007481468
0.007395428
0.007292395
0.007174385
0.007045637
0.006909964
0.006771467
0.006632813
0.006499296
0.006339953
0.006190765
0.006054459
0.005930353
0.005817787
0.005716302
0.005625251
0.005544206
0.005472611
0.005410534
0.005357641
0.005313348
0.005277127
0.005247958
0.005224911
0.005205962
0.005189116
0.005170366
0.005145879
0.005105464
0.005041119
0.004950898
0.004830642
0.004680054
0.004505619
0.004315233
0.004117293
0.00391945
0.003726735
0.003542783
0.003371811
0.00321831
0.003086905
0.002981515
0.002903654
0.002852112
0.002822892
0.002718551
0.002631073
0.002581369
0.00256075
0.002562046
0.002580198
0.002611476
0.002658535
0.002722508
0.002798398
0.002890863
0.002991523
0.003069078
0.003121167
0.003166451
0.003213987
0.00326223
0.003301359
0.003331179
0.003360107
0.003388408
0.003416279
0.003443836
0.00347116
0.003498302
0.003525277
0.003552074
0.003578667
0.003605025
0.003631113
0.003656896
0.00368232
0.003707183
0.003731609
0.003755716
0.00377972
0.003803756
0.003827846
0.003852017
0.003876298
0.003900715
0.003925285
0.003950017
0.003974909
0.003999944
0.004025096
0.004050325
0.004075582
0.004100815
0.004125969
0.004150991
0.004175828
0.004200429
0.00422475
0.004248749
0.004272392
0.00429565
0.004318505
0.004340956
0.004363022
0.004384754
0.004406115
0.004427019
0.004447415
0.004467278
0.004486597
0.00450536
0.004523561
0.004541195
0.004558255
0.004574747
0.004590693
0.004606123
0.004621069
0.004635563
0.004649634
0.004663313
0.004676627
0.004689603
0.004702266
0.00471464
0.004726748
0.004738612
0.004750254
0.004761691
0.00477294
0.004784013
0.00479492
0.004805664
0.004816248
0.004826665
0.004836903
0.004846946
0.004856773
0.004866356
0.004875664
0.004884662
0.004893312
0.004901572
0.0049094
0.004916752
0.004923584
0.004929852
0.004935512
0.004940523
0.004944845
0.004948433
0.004951263
0.004953274
0.004954505
0.004954167
0.004940392
0.004937365
0.004938335
0.00493998
0.004940811
0.004940207
0.004937956
0.00493403
0.004928477
0.004921374
0.004912802
0.004902838
0.004891552
0.004879004
0.004865248
0.004850326
0.004834275
0.004817119
0.004798873
0.004779547
0.004759141
0.004737646
0.004715058
0.004691371
0.004666584
0.004640703
0.004613738
0.004585708
0.004556638
0.004526558
0.004495509
0.004463552
0.004430786
0.004397379
0.004363632
0.004330042
0.004296934
0.004264114
0.004231296
0.00419835
0.004165188
0.004131765
0.004098075
0.004064141
0.004030012
0.003995749
0.003961428
0.003927129
0.003892939
0.003858948
0.003825245
0.003791922
0.003759065
0.003726759
0.003695084
0.003664113
0.003633913
0.003604544
0.003576058
0.003548497
0.003521897
0.003496284
0.003471673
0.003448073
0.003425482
0.003403892
0.003383279
0.003363632
0.003344863
0.00332821
0.003303888
0.003281185
0.003259715
0.003239567
0.003220844
0.003203464
0.003187261
0.003172067
0.003157737
0.003144155
0.003131223
0.003118851
0.003106967
0.003095516
0.003084441
0.003073686
0.003063201
0.003052943
0.00304288
0.003032983
0.003023232
0.003013614
0.003004119
0.002994743
0.002985487
0.002976356
0.00296736
0.00295851
0.002949823
0.002941318
0.002933016
0.00292494
0.002917114
0.002909566
0.00290232
0.002895404
0.002888844
0.002882665
0.002876892
0.002871546
0.002866648
0.002862214
0.002858259
0.002854786
0.002851791
0.00284925
0.002847149
0.002845498
0.002844354
0.00284375
0.002843717
0.002844247
0.002845355
0.002846964
0.002849044
0.002851704
0.002855027
0.002858989
0.002863506
0.002868513
0.002873982
0.002879901
0.002886253
0.002893011
0.002900138
0.002907593
0.002915329
0.002923299
0.002931452
0.002939736
0.002948099
0.002956487
0.002964847
0.002973126
0.002981273
0.002989239
0.002996978
0.003004445
0.003011601
0.003018411
0.003024843
0.003030871
0.003036474
0.003041634
0.003046342
0.003050591
0.003054382
0.003057719
0.003060611
0.003063074
0.003065125
0.003066788
0.003068088
0.003069057
0.003069725
0.003070129
0.003070306
0.003070294
0.003070132
0.00306986
0.00306952
0.00306915
0.003068789
0.003068477
0.003068247
0.003068137
0.003068177
0.003068398
0.003068829
0.003069494
0.003070416
0.003071616
0.00307311
0.003074916
0.003077044
0.003079505
0.003082307
0.003085458
0.003088959
0.003092819
0.003097037
0.003101621
0.003106571
0.003111899
0.003117609
0.00312372
0.003130243
0.003137213
0.003144656
0.003152635
0.003161202
0.003170463
0.003180517
0.003191523
0.003203661
0.003217178
0.003232603
0.003250148
0.003269117
4.304457e-05
6.71964e-05
0.0001625383
0.0005401701
0.0009220858
0.001635635
0.002196658
0.002871987
0.00362262
0.004210798
0.004613293
0.004922718
0.005233161
0.005539519
0.005849985
0.006159667
0.006468813
0.006763854
0.007036463
0.007297661
0.007544752
0.007765629
0.007944871
0.00809516
0.008232773
0.008357372
0.00847266
0.008581932
0.008341914
0.008136655
0.008221017
0.007684437
0.007637512
0.007655776
0.007722689
0.007842834
0.008024238
0.008256511
0.008559794
0.008923349
0.009386369
0.009975486
0.01
0.01
0.01
0.01
0.01
0.01
0.01
0.01
0.01
0.01
0.01
0.01
0.01
0.01
0.01
0.01
0.01
0.01
0.01
0.01
0.01
0.01
0.01
0.01
0.01
0.01
0.01
0.01
0.01
0.01
0.01
0.01
0.01
0.01
0.01
0.009982223
0.009913283
0.009862413
0.009829703
0.009814654
0.009816099
0.009831904
0.009859667
0.009896128
0.009936773
0.009978171
0.01
0.01
0.01
0.01
0.01
0.01
0.01
0.009964228
0.009896539
0.009805766
0.009692718
0.009560683
0.009413181
0.009254273
0.00908781
0.008918144
0.008747804
0.008580053
0.00841382
0.008249968
0.008090676
0.007938021
0.007793029
0.007656216
0.007527809
0.007408041
0.007297152
0.007195447
0.007103009
0.007019689
0.006945192
0.00687887
0.006819888
0.00676683
0.006718071
0.006670992
0.006622384
0.006567013
0.006499272
0.006415121
0.006310941
0.006184403
0.006035382
0.005864909
0.005675037
0.005468577
0.00524832
0.00501753
0.004781088
0.00454586
0.004320211
0.004112471
0.003929218
0.003774484
0.003649466
0.003552886
0.003481454
0.00343213
0.003401547
0.003385905
0.003296334
0.003235939
0.003213397
0.0032222
0.003258007
0.003309457
0.003377029
0.003443168
0.003494165
0.003537418
0.003582912
0.003631563
0.003680216
0.00372706
0.003772033
0.003815795
0.003858659
0.003897736
0.003932835
0.003967656
0.004002258
0.004036665
0.004070876
0.004104874
0.004138628
0.004172108
0.004205292
0.004238171
0.004270776
0.004303144
0.004335207
0.004366973
0.004398547
0.004429995
0.004461482
0.004493106
0.004524895
0.004556875
0.004589079
0.004621523
0.004654207
0.004687118
0.00472023
0.00475351
0.004786918
0.004820406
0.004853923
0.004887418
0.004920836
0.00495413
0.004987255
0.005020172
0.005052853
0.005085279
0.005117444
0.00514936
0.005181024
0.005212395
0.005243433
0.005274123
0.00530446
0.005334441
0.005364057
0.0053933
0.005422156
0.005450615
0.005478666
0.005506302
0.005533516
0.0055603
0.00558665
0.005612562
0.005638031
0.005663054
0.00568763
0.005711759
0.005735443
0.005758689
0.005781502
0.005803892
0.005825868
0.00584744
0.005868618
0.005889408
0.005909819
0.005929853
0.00594951
0.005968787
0.005987674
0.006006161
0.006024229
0.006041857
0.00605902
0.006075689
0.006091831
0.006107409
0.006122387
0.006136722
0.006150372
0.006163293
0.006175443
0.006186779
0.006197267
0.006206862
0.006215561
0.006223173
0.006228803
0.006233487
0.006237534
0.006240994
0.0062438
0.006245822
0.006246925
0.006246998
0.006245956
0.006243736
0.006240295
0.006235602
0.006229639
0.006222397
0.00621387
0.00620406
0.006192968
0.006180596
0.006166946
0.006152018
0.006135812
0.006118324
0.00609955
0.006079483
0.006058119
0.006035455
0.006011489
0.005986225
0.005959667
0.005931823
0.005902705
0.005872336
0.005840762
0.005808074
0.005774439
0.005740112
0.005705318
0.005670084
0.005634302
0.005597881
0.00556077
0.005522953
0.005484445
0.005445284
0.00540553
0.005365259
0.00532456
0.005283535
0.005242289
0.005200934
0.005159587
0.005118363
0.00507738
0.00503675
0.004996585
0.004956991
0.004918068
0.004879908
0.004842596
0.004806206
0.004770804
0.004736445
0.004703175
0.004671024
0.004640021
0.00461017
0.004581487
0.004553942
0.004527543
0.004502263
0.004477507
0.004453348
0.004429973
0.004407465
0.004385808
0.004364953
0.00434486
0.004325496
0.004306827
0.004288811
0.00427141
0.004254585
0.004238285
0.004222459
0.004207065
0.00419206
0.004177402
0.004163049
0.004148967
0.004135126
0.004121501
0.004108075
0.004094836
0.004081777
0.004068898
0.004056203
0.004043702
0.004031408
0.004019341
0.004007524
0.003995984
0.00398475
0.003973856
0.003963334
0.003953223
0.003943558
0.003934377
0.003925718
0.003917617
0.003910109
0.003903228
0.003897003
0.003891459
0.003886616
0.003882489
0.003879084
0.00387641
0.003874477
0.003873319
0.003872972
0.003873468
0.003874819
0.003877031
0.003880124
0.003884129
0.00388901
0.003894711
0.003901229
0.003908574
0.003916748
0.003925734
0.003935507
0.003946029
0.003957258
0.003969139
0.003981617
0.003994627
0.004008105
0.004021982
0.004036187
0.004050647
0.004065288
0.004080033
0.004094805
0.00410953
0.004124135
0.004138546
0.004152695
0.004166518
0.004179954
0.004192948
0.00420545
0.004217417
0.00422881
0.004239599
0.004249759
0.004259275
0.004268134
0.004276335
0.00428388
0.004290778
0.004297045
0.004302701
0.004307774
0.004312294
0.004316297
0.004319824
0.004322918
0.004325625
0.004327992
0.004330071
0.00433191
0.00433356
0.004335074
0.004336499
0.004337887
0.004339284
0.004340736
0.004342287
0.004343978
0.004345849
0.004347934
0.004350266
0.004352875
0.004355787
0.004359023
0.004362603
0.004366545
0.004370862
0.004375568
0.004380673
0.00438619
0.004392129
0.004398504
0.004405328
0.004412624
0.004420411
0.004428726
0.004437606
0.004447109
0.004457301
0.004468271
0.004480137
0.004493008
0.004507103
0.004522484
0.004539589
0.00455806
0.004577593
2.723295e-05
4.246491e-05
6.202086e-05
0.0002864872
0.0004623701
0.0007598344
0.00107461
0.001362517
0.001724822
0.002078684
0.002461285
0.002956605
0.00353325
0.004174739
0.004884886
0.005774291
0.007338098
0.007917142
0.008452006
0.008910964
0.009295031
0.009605603
0.00985989
0.01
0.01
0.01
0.01
0.01
0.01
0.01
0.01
0.01
0.009681085
0.009333079
0.008982386
0.008622442
0.008276715
0.007955549
0.007660827
0.007398024
0.00712243
0.006918077
0.006943792
0.006959146
0.007021995
0.007158267
0.007363561
0.007647489
0.008013301
0.008493252
0.009097423
0.009812607
0.01
0.01
0.01
0.01
0.01
0.01
0.01
0.01
0.01
0.01
0.01
0.01
0.01
0.01
0.01
0.01
0.01
0.01
0.01
0.01
0.01
0.01
0.01
0.01
0.01
0.01
0.01
0.01
0.01
0.01
0.01
0.01
0.01
0.01
0.01
0.01
0.01
0.01
0.01
0.01
0.01
0.01
0.01
0.01
0.01
0.01
0.01
0.01
0.01
0.01
0.01
0.01
0.01
0.01
0.01
0.01
0.01
0.01
0.01
0.01
0.01
0.01
0.01
0.01
0.01
0.01
0.009928292
0.009755343
0.009588458
0.009428171
0.009274696
0.009128154
0.008988756
0.008856808
0.008732602
0.008615923
0.008507065
0.008406238
0.008313326
0.008227954
0.008149358
0.008076497
0.008007771
0.007941032
0.00787327
0.007800817
0.007720121
0.007627861
0.007521063
0.007397304
0.007254546
0.007091256
0.006906497
0.006699827
0.006471804
0.006224823
0.005963584
0.005695083
0.005427773
0.005170237
0.004930118
0.004713202
0.004522989
0.004360666
0.004226044
0.004117916
0.004034177
0.003972345
0.003929613
0.003903173
0.003889765
0.003886913
0.003891592
0.00390324
0.003921113
0.003944368
0.003972076
0.004003251
0.004037007
0.004072633
0.004109574
0.004147388
0.004185731
0.004224349
0.004263073
0.004301785
0.004340407
0.004378886
0.004417181
0.004455257
0.004493079
0.004530611
0.004567823
0.004604694
0.004638769
0.004672219
0.004706747
0.004742249
0.004779343
0.004818572
0.004857067
0.004892599
0.00492799
0.004963358
0.004998814
0.005034568
0.005070667
0.005107091
0.005143834
0.005180906
0.005218305
0.005256014
0.005294004
0.005332232
0.005370652
0.005409215
0.005447868
0.005486562
0.005525255
0.00556391
0.005602499
0.005641004
0.005679416
0.005717727
0.005755911
0.005793941
0.005831803
0.005869491
0.005907001
0.005944328
0.005981464
0.006018398
0.00605512
0.006091613
0.006127859
0.006163836
0.006199524
0.006234898
0.006269934
0.006304605
0.006338887
0.006372755
0.006406185
0.006439158
0.006471657
0.006503667
0.006535179
0.006566184
0.006596678
0.006626658
0.006656125
0.006685078
0.006713518
0.006741443
0.006768851
0.006795739
0.006822098
0.006847918
0.006873184
0.006897878
0.006921979
0.00694546
0.006968293
0.006990445
0.007011881
0.007032563
0.007052451
0.007071507
0.007089692
0.007106974
0.007123317
0.007138711
0.007153102
0.007166359
0.007178428
0.007189333
0.00719911
0.007207777
0.007215326
0.007221736
0.007226985
0.00723105
0.007233907
0.007235537
0.007235919
0.007235036
0.007232876
0.007229426
0.007224678
0.007218625
0.00721126
0.007202577
0.007192569
0.007181233
0.00716856
0.007154542
0.007139171
0.007122435
0.007104325
0.00708483
0.007063938
0.007041642
0.007017931
0.0069928
0.006966252
0.006938307
0.006909015
0.00687847
0.006846813
0.006814198
0.006780697
0.006746282
0.006710895
0.006674497
0.006637075
0.00659864
0.006559223
0.006518873
0.006477658
0.006435659
0.006392973
0.006349704
0.006305966
0.006261879
0.00621757
0.006173167
0.006128798
0.006084593
0.006040678
0.005997177
0.005954207
0.005911879
0.005870296
0.005829554
0.005789734
0.005750911
0.005713147
0.005676494
0.005640987
0.005606659
0.005573521
0.00554158
0.005510825
0.005481229
0.005452745
0.005425306
0.005398866
0.005373422
0.005348966
0.005325467
0.005302876
0.005281136
0.005260186
0.005239966
0.005220422
0.005201493
0.005183126
0.005165271
0.00514788
0.005130905
0.005114302
0.005098032
0.00508206
0.00506636
0.005050908
0.005035689
0.005020694
0.005005919
0.004991367
0.004977047
0.004962975
0.00494917
0.00493566
0.004922474
0.004909648
0.004897222
0.004885236
0.004873736
0.004862768
0.004852381
0.004842623
0.004833543
0.004825188
0.004817605
0.004810836
0.004804922
0.004799899
0.004795799
0.004792649
0.004790473
0.004789294
0.004789145
0.004790065
0.004792091
0.004795251
0.004799568
0.004805062
0.004811736
0.004819564
0.004828537
0.004838665
0.004849957
0.004862399
0.004875967
0.004890626
0.004906339
0.004923061
0.00494074
0.004959317
0.004978724
0.004998889
0.005019732
0.00504117
0.005063114
0.005085472
0.00510815
0.005131053
0.005154082
0.005177142
0.005200136
0.005222971
0.005245557
0.005267808
0.005289641
0.005310982
0.00533176
0.005351914
0.005371386
0.00539013
0.005408104
0.005425278
0.005441626
0.005457133
0.00547179
0.005485597
0.005498561
0.005510696
0.005522022
0.005532569
0.005542369
0.005551463
0.005559894
0.00556771
0.005574962
0.005581701
0.005587983
0.005593863
0.005599399
0.005604649
0.005609668
0.005614515
0.005619246
0.005623915
0.005628577
0.005633281
0.005638077
0.005643008
0.005648113
0.005653431
0.005658993
0.005664828
0.005670962
0.00567742
0.005684224
0.005691394
0.00569895
0.005706915
0.00571531
0.005724161
0.005733498
0.005743359
0.005753786
0.005764834
0.00577657
0.005789073
0.005802445
0.005816778
0.005832237
0.005848849
0.005866922
0.005886014
0.005905565
2.595726e-05
3.899934e-05
8.038871e-05
0.0002309834
0.0003628453
0.0005606342
0.0007200782
0.000903518
0.001122251
0.00133956
0.001597461
0.001932778
0.002317239
0.002777402
0.003375646
0.004474289
0.004985907
0.005524189
0.006075091
0.006633253
0.007199042
0.00775813
0.008290337
0.008787544
0.00923947
0.009641673
0.01
0.01
0.01
0.01
0.01
0.01
0.01
0.01
0.01
0.01
0.01
0.01
0.01
0.009763606
0.009474216
0.009179775
0.00886527
0.008548345
0.008231741
0.007903916
0.007586352
0.007286775
0.007015623
0.006779044
0.006599526
0.006466024
0.006428428
0.00646147
0.006607245
0.006862674
0.007229709
0.007721734
0.00837088
0.009145478
0.01
0.01
0.01
0.01
0.01
0.01
0.01
0.01
0.01
0.01
0.01
0.01
0.01
0.01
0.01
0.01
0.01
0.01
0.01
0.01
0.01
0.01
0.01
0.01
0.01
0.01
0.01
0.01
0.01
0.01
0.01
0.01
0.01
0.01
0.01
0.01
0.01
0.01
0.01
0.01
0.01
0.01
0.01
0.01
0.01
0.01
0.01
0.01
0.01
0.01
0.01
0.01
0.01
0.01
0.01
0.01
0.01
0.01
0.01
0.01
0.01
0.01
0.01
0.01
0.01
0.01
0.01
0.01
0.01
0.01
0.01
0.01
0.01
0.01
0.01
0.01
0.01
0.009904207
0.009779855
0.009662883
0.00955336
0.009451144
0.009355843
0.00926684
0.009183194
0.009103578
0.009026169
0.008948476
0.008867753
0.008781285
0.008686237
0.008579704
0.0084587
0.008320313
0.008161873
0.007981087
0.007776424
0.00754777
0.007296909
0.007027793
0.006746312
0.006459602
0.006175277
0.005900618
0.005641907
0.005403787
0.00518961
0.005001484
0.004840199
0.004705476
0.004596107
0.004510195
0.004444963
0.00439775
0.00436528
0.004345916
0.004337982
0.004339864
0.004350074
0.004367205
0.004389963
0.004417212
0.004447981
0.004481446
0.004516918
0.004553839
0.004591763
0.004630348
0.004669328
0.004708496
0.004747693
0.004786798
0.004825718
0.004864384
0.00490275
0.004940789
0.004978495
0.005015869
0.005052921
0.00508965
0.005121727
0.005149747
0.00518021
0.005212885
0.005248021
0.005285572
0.005325665
0.005368126
0.005411976
0.005454933
0.005492434
0.005530385
0.0055688
0.00560768
0.00564701
0.005686761
0.005726894
0.005767363
0.005808118
0.00584911
0.005890293
0.005931626
0.005973076
0.006014617
0.00605623
0.006097898
0.006139603
0.006181325
0.006223049
0.006264769
0.006306481
0.006348179
0.006389859
0.006431512
0.006473126
0.006514688
0.006556178
0.006597572
0.006638843
0.00667996
0.006720889
0.006761595
0.00680204
0.006842185
0.006881992
0.006921426
0.006960451
0.006999036
0.007037153
0.007074779
0.007111892
0.007148477
0.007184521
0.007220012
0.007254942
0.007289303
0.00732309
0.007356293
0.007388905
0.007420916
0.007452311
0.007483077
0.007513193
0.007542638
0.007571386
0.007599409
0.007626676
0.007653153
0.007678803
0.007703592
0.007727482
0.007750442
0.00777244
0.00779345
0.007813437
0.007832348
0.007850131
0.007866749
0.007882179
0.007896401
0.007909397
0.00792115
0.007931646
0.007940874
0.007948825
0.00795549
0.007960861
0.007964932
0.007967699
0.007969157
0.007969305
0.007968139
0.007965656
0.007961856
0.007956733
0.007950285
0.007942507
0.007933391
0.007922928
0.007911106
0.007897914
0.007883334
0.007867351
0.007849947
0.007831104
0.007810805
0.007789041
0.007765817
0.007741156
0.007715112
0.007687767
0.007659214
0.007629511
0.00759866
0.00756663
0.007533391
0.007498929
0.007463246
0.007426359
0.007388301
0.007349121
0.007308886
0.007267673
0.007225574
0.00718269
0.007139135
0.007095027
0.007050491
0.007005659
0.006960663
0.006915638
0.006870716
0.006826031
0.006781708