/*--------------------------------*- C++ -*----------------------------------*\
| =========                 |                                                 |
| \\      /  F ield         | foam-extend: Open Source CFD                    |
|  \\    /   O peration     | Version:     3.1                                |
|   \\  /    A nd           | Web:         http://www.extend-project.de       |
|    \\/     M anipulation  |                                                 |
\*---------------------------------------------------------------------------*/
FoamFile
{
    version     2.0;
    format      ascii;
    class       volScalarField;
    location    "7.5";
    object      pd;
}
// * * * * * * * * * * * * * * * * * * * * * * * * * * * * * * * * * * * * * //

dimensions      [1 -1 -2 0 0 0 0];

internalField   nonuniform List<scalar> 
119952
(
8227.421
8013.81
7992.066
8027.354
8049.867
8027.179
8037.072
8056.534
8074.977
8092.484
8110.62
8128.803
8145.654
8160.381
8173.42
8185.698
8198.071
8210.96
8223.901
8233.877
8271.154
8273.362
8283.467
8325.009
8334.018
8349.216
8362.166
8379.28
8411.871
9107.725
5797.341
5796.723
5835.258
5874.029
5916.428
5963.907
6017.612
6073.586
6134.579
6178.377
6255.089
6327.342
6398.365
6470.007
6541.632
6612.969
6683.136
6751.658
6820.327
6929.235
6967.878
7018.839
7077.77
7134.126
7189.885
7245.86
7301.49
7356.63
7410.683
7459.472
7513.081
7566.585
7618.458
7669.789
7721.221
7772.595
7825.198
7887.867
7965.646
7971.336
7989.673
8021.4
8036.014
8038.547
8048.639
8064.51
8080.453
8097.931
8116.831
8134.843
8150.962
8165.083
8177.653
8189.583
8201.726
8214.587
8228.453
8243.513
8260.734
8277.117
8292.226
8313.775
8334.815
8348.52
8361.558
8372.719
8377.173
8367.964
8375.244
8386.167
8396.312
8406.22
8415.626
8424.645
8433.328
8441.701
8449.786
8457.595
8465.141
8472.434
8479.481
8486.288
8492.859
8499.196
8505.301
8511.174
8516.82
8522.235
8527.421
8532.377
8537.101
8541.603
8545.882
8549.942
8553.788
8557.427
8560.865
8564.11
8567.167
8570.046
8572.753
8575.295
8577.681
8579.916
8582.005
8583.955
8585.768
8587.45
8588.998
8590.419
8591.714
8592.881
8593.919
8594.82
8595.577
8596.214
8597.005
8597.865
8598.611
8598.944
8599.164
8599.29
8599.32
8599.262
8599.122
8598.905
8598.612
8598.252
8597.83
8597.352
8596.825
8596.254
8595.644
8595.002
8594.335
8593.648
8592.947
8592.239
8591.529
8590.824
8590.129
8589.451
8588.794
8588.165
8587.569
8587.011
8586.497
8586.03
8585.617
8585.259
8584.961
8584.727
8584.558
8584.457
8584.426
8584.465
8584.573
8584.758
8585.055
8585.39
8585.763
8586.183
8586.648
8587.134
8587.598
8588.072
8589.51
8592.457
8592.229
8593.094
8594.111
8595.145
8596.21
8597.305
8598.423
8599.561
8600.715
8601.884
8603.062
8604.248
8605.439
8606.629
8607.816
8608.995
8610.165
8611.322
8612.462
8613.572
8614.653
8615.697
8616.699
8617.651
8618.541
8619.359
8620.084
8620.7
8621.155
8621.491
8621.467
8621.074
8620.094
8617.454
8613.724
8620.349
8625.008
8628.743
8631.962
8634.874
8637.561
8640.083
8642.482
8644.781
8646.992
8649.131
8651.208
8653.233
8655.214
8657.156
8659.064
8660.944
8662.799
8664.636
8666.456
8668.265
8670.067
8671.865
8673.661
8675.466
8677.275
8679.095
8680.931
8682.79
8684.68
8686.6
8688.553
8690.516
8692.426
8706.288
8702.469
8697.973
8700.393
8702.473
8704.048
8705.968
8708.097
8710.267
8712.491
8714.776
8717.12
8719.544
8722.034
8724.583
8727.176
8729.814
8732.495
8735.22
8737.986
8740.794
8743.642
8746.531
8749.459
8752.427
8755.433
8758.476
8761.557
8764.673
8767.826
8771.015
8774.238
8777.496
8780.789
8784.116
8787.478
8790.876
8794.312
8797.788
8801.309
8804.882
8808.52
8812.245
8816.087
8820.003
8823.686
8826.763
8829.53
8832.466
8835.559
8838.717
8841.935
8845.054
8847.332
8846.451
8852.338
8856.252
8859.179
8862.286
8865.38
8868.409
8871.424
8874.433
8877.43
8880.411
8883.368
8886.292
8889.183
8892.036
8894.848
8897.613
8900.329
8902.991
8905.596
8908.143
8910.628
8913.049
8915.404
8917.691
8919.909
8922.054
8924.126
8926.124
8928.045
8929.888
8931.653
8933.338
8934.942
8936.464
8937.905
8939.262
8940.537
8941.728
8942.836
8943.86
8944.801
8945.658
8946.433
8947.125
8947.734
8948.262
8948.709
8949.075
8949.361
8949.567
8949.693
8949.741
8949.71
8949.602
8949.415
8949.149
8948.806
8948.384
8947.882
8947.299
8946.634
8945.885
8945.049
8944.122
8943.101
8941.979
8940.75
8939.405
8937.933
8936.32
8934.549
8932.596
8930.432
8928.019
8925.302
8922.209
8918.64
8914.449
8909.373
8902.995
8894.991
8887.249
8891.626
8930.109
6995.35
6868.29
6709.676
6559.665
6413.659
6271.383
6133.875
6001.593
5878.48
5743.523
5638.305
5539.489
5450.913
5375.695
5314.007
5266.174
5232.015
5207.856
5217.433
5231.005
5224.102
5242.795
5270.881
5303.829
5340.853
5380.122
5420.337
5461.411
5498.501
5527.223
5563.931
5596.723
5627.521
5656.874
5684.969
5712.834
5742.315
5780.085
5797.783
5829.025
5869.808
5914.419
5962.948
6014.93
6073.107
6135.017
6199.049
6266.082
6339.174
6411.542
6482.956
6554.24
6625.232
6695.154
6763.943
6831.268
6919.848
6986.402
7040.954
7094.803
7150.549
7207.338
7263.905
7319.483
7374.034
7427.568
7479.742
7531.238
7582.261
7633.001
7683.582
7733.832
7783.849
7833.715
7882.529
7926.165
7957.915
7981.261
8001.926
8018.836
8033.373
8049.271
8066.654
8084.055
8101.687
8120.354
8138.866
8155.73
8170.76
8184.537
8197.823
8211.306
8225.567
8240.606
8256.045
8271.807
8287.782
8303.857
8320.38
8336.418
8350.076
8360.831
8368.815
8373.973
8377.552
8383.254
8391.657
8401.157
8410.582
8419.608
8428.303
8436.733
8444.906
8452.818
8460.469
8467.867
8475.019
8481.932
8488.612
8495.06
8501.28
8507.274
8513.042
8518.583
8523.902
8528.983
8533.841
8538.474
8542.881
8547.067
8551.038
8554.797
8558.35
8561.703
8564.865
8567.843
8570.644
8573.276
8575.747
8578.064
8580.234
8582.261
8584.151
8585.907
8587.534
8589.034
8590.409
8591.662
8592.794
8593.806
8594.707
8595.513
8596.257
8596.977
8597.63
8598.132
8598.476
8598.687
8598.793
8598.806
8598.732
8598.573
8598.332
8598.037
8597.669
8597.238
8596.751
8596.214
8595.633
8595.014
8594.364
8593.688
8592.993
8592.285
8591.569
8590.853
8590.141
8589.439
8588.754
8588.091
8587.456
8586.854
8586.29
8585.77
8585.298
8584.878
8584.515
8584.212
8583.971
8583.797
8583.69
8583.653
8583.685
8583.787
8583.956
8584.163
8584.501
8584.898
8585.344
8585.853
8586.411
8587.067
8587.793
8588.669
8591.153
8590.985
8591.934
8593.015
8594.066
8595.142
8596.237
8597.354
8598.492
8599.65
8600.823
8602.008
8603.202
8604.401
8605.601
8606.799
8607.99
8609.173
8610.34
8611.476
8612.594
8613.684
8614.74
8615.755
8616.721
8617.628
8618.464
8619.215
8619.861
8620.379
8620.734
8620.87
8620.732
8620.288
8619.713
8620.041
8622.59
8626.19
8629.359
8632.329
8635.118
8637.739
8640.229
8642.612
8644.902
8647.113
8649.257
8651.342
8653.378
8655.37
8657.324
8659.244
8661.137
8663.005
8664.853
8666.685
8668.505
8670.315
8672.12
8673.926
8675.735
8677.55
8679.374
8681.213
8683.072
8684.955
8686.867
8688.816
8690.862
8693.674
8698.195
8700.993
8701.392
8701.569
8702.685
8704.48
8706.532
8708.649
8710.808
8713.026
8715.312
8717.674
8720.105
8722.595
8725.135
8727.722
8730.357
8733.038
8735.764
8738.534
8741.346
8744.201
8747.096
8750.031
8753.007
8756.021
8759.073
8762.162
8765.288
8768.45
8771.647
8774.88
8778.147
8781.447
8784.782
8788.152
8791.556
8794.995
8798.472
8801.989
8805.548
8809.149
8812.783
8816.422
8820.008
8823.467
8826.728
8829.827
8832.896
8836.015
8839.165
8842.312
8845.378
8848.174
8850.482
8852.988
8856.19
8859.691
8863.078
8866.249
8869.285
8872.278
8875.268
8878.252
8881.214
8884.145
8887.042
8889.905
8892.731
8895.516
8898.256
8900.946
8903.584
8906.167
8908.692
8911.156
8913.557
8915.892
8918.16
8920.359
8922.486
8924.54
8926.52
8928.424
8930.25
8931.997
8933.665
8935.252
8936.758
8938.182
8939.524
8940.782
8941.958
8943.05
8944.058
8944.984
8945.826
8946.585
8947.261
8947.856
8948.368
8948.8
8949.15
8949.421
8949.611
8949.723
8949.755
8949.709
8949.585
8949.383
8949.102
8948.743
8948.306
8947.789
8947.192
8946.513
8945.75
8944.9
8943.961
8942.928
8941.797
8940.56
8939.21
8937.735
8936.127
8934.364
8932.434
8930.303
8927.952
8925.327
8922.404
8919.104
8915.442
8911.437
8907.499
8904.355
8903.383
8905.131
8910.248
3978.332
4069.921
4192.625
4333.606
4492.524
4668.582
4862.024
5073.486
5302.406
5544.537
5803.753
6078.692
6362.874
6655.388
6951.694
7243.595
7527.361
7795.244
8039.342
8272.892
8448.621
8586.606
8685.407
8743.319
8761.595
8742.814
8690.627
8609.089
8506.633
8380.097
8238.429
8082.589
7920.043
7754.276
7587.883
7422.671
7260.311
7102.51
6936.336
6783.467
6633.086
6485.317
6341.765
6201.886
6066.737
5937.574
5816.06
5702.086
5593.484
5498.83
5415.546
5344.329
5286.519
5242.519
5212.579
5198.149
5186.525
5194.71
5212.569
5239.674
5273.356
5311.328
5351.947
5393.844
5435.844
5476.66
5515.561
5552.392
5585.55
5615.778
5643.778
5670.078
5695.281
5720.346
5745.752
5772.806
5802.655
5835.518
5872.399
5914.585
5962.349
6015.571
6073.642
6136.339
6203.146
6273.234
6344.875
6418.293
6491.674
6565.016
6637.207
6708.256
6777.719
6846.921
6917.171
6980.08
7037.088
7093.478
7150.929
7208.596
7265.477
7321.048
7375.302
7428.384
7480.601
7532.191
7583.02
7633.063
7682.231
7730.513
7777.682
7823.507
7866.843
7906.827
7940.155
7965.618
7987.208
8007.095
8025.4
8043.352
8061.685
8080.312
8099.586
8119.215
8138.093
8155.841
8172.47
8187.94
8202.59
8216.889
8231.192
8245.901
8261.176
8276.835
8292.604
8308.234
8323.575
8338.169
8350.992
8361.524
8370.016
8376.816
8382.213
8388.066
8395.738
8404.621
8413.653
8422.378
8430.798
8438.994
8446.984
8454.747
8462.27
8469.557
8476.607
8483.424
8490.014
8496.377
8502.517
8508.434
8514.127
8519.598
8524.849
8529.891
8534.703
8539.285
8543.641
8547.777
8551.7
8555.412
8558.918
8562.225
8565.342
8568.274
8571.031
8573.621
8576.052
8578.331
8580.464
8582.456
8584.313
8586.039
8587.639
8589.115
8590.47
8591.707
8592.829
8593.839
8594.745
8595.557
8596.286
8596.942
8597.539
8598.019
8598.349
8598.548
8598.643
8598.648
8598.567
8598.404
8598.16
8597.844
8597.459
8597.013
8596.511
8595.959
8595.364
8594.731
8594.067
8593.377
8592.668
8591.944
8591.214
8590.482
8589.753
8589.035
8588.333
8587.652
8586.999
8586.377
8585.794
8585.254
8584.761
8584.32
8583.936
8583.612
8583.351
8583.156
8583.03
8582.974
8582.989
8583.075
8583.232
8583.453
8583.754
8584.12
8584.555
8585.058
8585.642
8586.303
8587.103
8588.027
8589.344
8590.5
8591.413
8592.313
8593.311
8594.378
8595.475
8596.593
8597.733
8598.891
8600.065
8601.25
8602.443
8603.641
8604.839
8606.035
8607.224
8608.401
8609.565
8610.71
8611.835
8612.931
8613.996
8615.021
8616
8616.926
8617.79
8618.581
8619.287
8619.896
8620.397
8620.792
8621.112
8621.464
8622.08
8623.293
8625.3
8627.879
8630.599
8633.255
8635.808
8638.272
8640.659
8642.972
8645.217
8647.399
8649.525
8651.601
8653.633
8655.626
8657.584
8659.511
8661.412
8663.29
8665.148
8666.991
8668.822
8670.644
8672.461
8674.276
8676.093
8677.916
8679.747
8681.591
8683.449
8685.328
8687.222
8689.14
8691.042
8692.961
8694.491
8695.49
8696.956
8699.024
8701.35
8703.685
8705.972
8708.236
8710.51
8712.817
8715.173
8717.574
8720.019
8722.502
8725.027
8727.603
8730.229
8732.902
8735.621
8738.384
8741.19
8744.039
8746.929
8749.861
8752.833
8755.845
8758.895
8761.983
8765.109
8768.27
8771.467
8774.7
8777.966
8781.266
8784.6
8787.967
8791.366
8794.799
8798.264
8801.762
8805.289
8808.838
8812.396
8815.94
8819.445
8822.88
8826.209
8829.423
8832.569
8835.712
8838.87
8842.02
8845.153
8848.351
8851.78
8855.121
8858.153
8861.004
8863.835
8866.699
8869.594
8872.508
8875.436
8878.368
8881.292
8884.196
8887.072
8889.916
8892.724
8895.493
8898.219
8900.898
8903.526
8906.1
8908.618
8911.075
8913.471
8915.802
8918.067
8920.263
8922.389
8924.442
8926.422
8928.326
8930.153
8931.902
8933.572
8935.162
8936.671
8938.098
8939.443
8940.706
8941.886
8942.983
8943.996
8944.926
8945.774
8946.538
8947.22
8947.82
8948.338
8948.775
8949.131
8949.406
8949.602
8949.719
8949.757
8949.716
8949.597
8949.4
8949.125
8948.773
8948.342
8947.832
8947.242
8946.572
8945.819
8944.981
8944.057
8943.041
8941.93
8940.719
8939.4
8937.966
8936.407
8934.711
8932.864
8930.85
8928.649
8926.246
8923.626
8920.805
8917.836
8914.867
8912.144
8909.996
8908.754
8908.928
8910.83
3550.743
3522.094
3512.065
3507.951
3515.776
3547.026
3594.518
3666.455
3756.467
3812.69
3839.836
3888.388
3963.528
4062.249
4182.786
4320.912
4475.923
4647.972
4835.405
5038.754
5259.114
5495.258
5745.965
6009.569
6284.661
6568.294
6854.433
7139.872
7418.833
7683.884
7928.89
8193.988
8370.133
8502.925
8592.956
8641.984
8651.15
8623.371
8562.735
8475.001
8366.012
8238.34
8094.283
7940.567
7782.448
7622.443
7462.349
7303.581
7147.038
6993.097
6841.788
6693.497
6547.603
6403.95
6263.022
6125.512
5992.376
5864.72
5743.697
5630.541
5526.579
5433.318
5352.107
5283.996
5229.57
5189.391
5163.424
5152.287
5155.913
5170.775
5193.197
5223.418
5260.907
5303.485
5348.783
5394.957
5440.658
5485.633
5525.466
5562.36
5595.866
5625.894
5652.687
5676.8
5698.844
5719.949
5741.298
5764.862
5791.68
5821.631
5856.165
5896.897
5943.941
5996.89
6055.376
6119.067
6186.8
6257.939
6331.543
6406.685
6482.207
6557.387
6631.598
6704.376
6775.902
6845.395
6912.073
6975.291
7035.502
7094.195
7152.304
7209.706
7266.046
7321.153
7375.054
7427.849
7479.693
7530.62
7580.518
7629.336
7677.007
7723.469
7768.45
7811.623
7852.281
7889.683
7922.298
7949.606
7973.367
7995.136
8015.516
8035.305
8055.073
8074.913
8094.832
8114.618
8133.918
8152.494
8170.124
8186.783
8202.779
8218.435
8233.857
8249.395
8265.287
8281.259
8296.945
8312.089
8326.597
8340.272
8352.609
8363.26
8372.247
8379.866
8386.505
8393.138
8400.617
8408.904
8417.451
8425.849
8434.001
8441.958
8449.745
8457.336
8464.71
8471.859
8478.787
8485.496
8491.987
8498.261
8504.317
8510.157
8515.781
8521.189
8526.38
8531.352
8536.095
8540.614
8544.916
8549.001
8552.868
8556.525
8559.974
8563.222
8566.281
8569.158
8571.86
8574.399
8576.785
8579.02
8581.111
8583.065
8584.886
8586.58
8588.15
8589.6
8590.932
8592.15
8593.256
8594.254
8595.149
8595.947
8596.655
8597.279
8597.821
8598.253
8598.558
8598.745
8598.828
8598.818
8598.72
8598.537
8598.274
8597.938
8597.534
8597.069
8596.548
8595.977
8595.362
8594.71
8594.026
8593.315
8592.586
8591.842
8591.09
8590.337
8589.587
8588.847
8588.122
8587.419
8586.742
8586.098
8585.491
8584.926
8584.41
8583.945
8583.537
8583.189
8582.904
8582.686
8582.537
8582.459
8582.453
8582.519
8582.657
8582.868
8583.154
8583.514
8583.947
8584.456
8585.047
8585.727
8586.516
8587.427
8588.409
8589.294
8590.199
8591.184
8592.235
8593.323
8594.429
8595.552
8596.693
8597.851
8599.023
8600.208
8601.4
8602.598
8603.797
8604.995
8606.188
8607.372
8608.544
8609.699
8610.834
8611.945
8613.028
8614.077
8615.086
8616.051
8616.965
8617.821
8618.617
8619.349
8620.025
8620.664
8621.315
8622.063
8623.031
8624.363
8626.179
8628.427
8630.877
8633.339
8635.754
8638.122
8640.443
8642.714
8644.934
8647.103
8649.226
8651.305
8653.346
8655.351
8657.324
8659.268
8661.186
8663.083
8664.959
8666.82
8668.668
8670.507
8672.339
8674.168
8675.997
8677.83
8679.667
8681.514
8683.372
8685.243
8687.125
8689.018
8690.914
8692.79
8694.769
8696.898
8698.901
8700.716
8702.51
8704.408
8706.424
8708.53
8710.704
8712.94
8715.238
8717.593
8720
8722.455
8724.959
8727.517
8730.126
8732.784
8735.49
8738.242
8741.039
8743.881
8746.765
8749.692
8752.661
8755.67
8758.718
8761.805
8764.93
8768.091
8771.288
8774.521
8777.787
8781.087
8784.419
8787.783
8791.178
8794.603
8798.055
8801.533
8805.031
8808.541
8812.053
8815.552
8819.022
8822.441
8825.788
8829.056
8832.268
8835.46
8838.655
8841.853
8845.064
8848.294
8851.491
8854.52
8857.437
8860.368
8863.361
8866.387
8869.408
8872.408
8875.388
8878.351
8881.293
8884.209
8887.095
8889.948
8892.763
8895.537
8898.265
8900.945
8903.573
8906.146
8908.662
8911.119
8913.513
8915.843
8918.107
8920.302
8922.427
8924.48
8926.459
8928.363
8930.19
8931.94
8933.611
8935.202
8936.712
8938.141
8939.489
8940.753
8941.935
8943.035
8944.051
8944.984
8945.835
8946.602
8947.287
8947.89
8948.412
8948.852
8949.212
8949.491
8949.691
8949.812
8949.854
8949.818
8949.704
8949.513
8949.244
8948.897
8948.474
8947.972
8947.392
8946.733
8945.993
8945.172
8944.266
8943.273
8942.19
8941.013
8939.737
8938.355
8936.862
8935.25
8933.511
8931.636
8929.62
8927.463
8925.177
8922.795
8920.387
8918.056
8915.965
8914.255
8913.173
8912.857
8913.504
4402.302
4304.643
4213.682
4122.633
4029.703
3934.901
3853.273
3775.121
3707.06
3646.575
3595.678
3554.425
3523.585
3504.259
3496.827
3502.386
3527.754
3565.919
3615.121
3669.431
3722.164
3780.692
3852.769
3940.633
4044.834
4167.407
4307.062
4463.087
4635.103
4822.303
5024.762
5243.213
5476.879
5725.125
5987.352
6261.237
6543.618
6830.424
7115.808
7393.337
7657.345
7894.783
8096.009
8268.486
8400.615
8489.783
8537.348
8545.09
8516.508
8455.603
8368.497
8259.2
8129.994
7986.829
7837.264
7684.813
7531.127
7377.626
7225.482
7075.424
6927.666
6781.675
6637.512
6495.067
6353.971
6214.47
6077.37
5943.859
5815.16
5692.688
5577.992
5472.541
5378.062
5296.053
5227.455
5173.008
5133.518
5109.855
5102.116
5109.046
5128.019
5156.331
5193.045
5237.088
5286.203
5337.703
5389.427
5439.686
5486.618
5532.291
5572.666
5607.907
5638.203
5663.705
5685.072
5703.152
5719.475
5735.067
5752.895
5775.319
5801.944
5833.437
5871.716
5917.04
5968.956
6027.063
6090.832
6159.77
6232.687
6308.545
6386.091
6464.122
6541.745
6618.275
6693.091
6765.908
6836.017
6903.409
6968.279
7030.616
7090.829
7149.539
7207.059
7263.412
7318.544
7372.433
7425.125
7476.672
7527.039
7576.154
7623.982
7670.447
7715.433
7758.695
7799.93
7838.666
7874.387
7906.527
7934.907
7960.223
7983.479
8005.425
8026.658
8047.534
8068.161
8088.615
8108.886
8128.773
8148.049
8166.586
8184.419
8201.711
8218.601
8235.209
8251.75
8268.239
8284.472
8300.223
8315.215
8329.411
8342.789
8355.023
8365.857
8375.282
8383.549
8391.043
8398.297
8405.814
8413.755
8421.919
8430.034
8437.968
8445.719
8453.298
8460.697
8467.894
8474.879
8481.657
8488.232
8494.6
8500.759
8506.709
8512.449
8517.979
8523.296
8528.399
8533.286
8537.954
8542.404
8546.64
8550.661
8554.457
8558.037
8561.417
8564.602
8567.595
8570.404
8573.037
8575.512
8577.84
8580.022
8582.061
8583.965
8585.741
8587.394
8588.926
8590.343
8591.645
8592.837
8593.919
8594.895
8595.769
8596.544
8597.225
8597.814
8598.307
8598.697
8598.973
8599.138
8599.2
8599.167
8599.044
8598.837
8598.551
8598.191
8597.763
8597.273
8596.728
8596.132
8595.493
8594.815
8594.106
8593.371
8592.616
8591.847
8591.07
8590.291
8589.516
8588.751
8588
8587.271
8586.568
8585.898
8585.265
8584.675
8584.133
8583.643
8583.21
8582.838
8582.53
8582.29
8582.119
8582.02
8581.994
8582.043
8582.166
8582.364
8582.64
8582.991
8583.419
8583.925
8584.513
8585.184
8585.94
8586.772
8587.646
8588.552
8589.51
8590.517
8591.561
8592.635
8593.733
8594.853
8595.992
8597.151
8598.325
8599.511
8600.706
8601.908
8603.112
8604.315
8605.514
8606.706
8607.888
8609.055
8610.205
8611.334
8612.438
8613.515
8614.558
8615.566
8616.535
8617.463
8618.351
8619.204
8620.034
8620.865
8621.739
8622.715
8623.871
8625.293
8627.041
8629.09
8631.317
8633.603
8635.89
8638.161
8640.408
8642.623
8644.803
8646.944
8649.047
8651.115
8653.149
8655.151
8657.125
8659.072
8660.995
8662.898
8664.782
8666.65
8668.507
8670.353
8672.192
8674.027
8675.86
8677.696
8679.534
8681.38
8683.233
8685.095
8686.969
8688.85
8690.742
8692.643
8694.569
8696.443
8698.25
8700.078
8702.009
8704.048
8706.164
8708.331
8710.543
8712.801
8715.108
8717.464
8719.869
8722.322
8724.824
8727.376
8729.978
8732.628
8735.327
8738.072
8740.863
8743.7
8746.58
8749.504
8752.47
8755.477
8758.524
8761.611
8764.735
8767.897
8771.095
8774.328
8777.596
8780.895
8784.227
8787.589
8790.979
8794.397
8797.838
8801.3
8804.778
8808.263
8811.749
8815.223
8818.673
8822.083
8825.441
8828.746
8832.01
8835.251
8838.484
8841.712
8844.931
8848.122
8851.258
8854.337
8857.397
8860.455
8863.511
8866.554
8869.577
8872.577
8875.557
8878.519
8881.459
8884.375
8887.26
8890.112
8892.924
8895.694
8898.42
8901.096
8903.721
8906.292
8908.806
8911.26
8913.652
8915.981
8918.243
8920.437
8922.561
8924.613
8926.591
8928.495
8930.322
8932.072
8933.743
8935.334
8936.845
8938.275
8939.623
8940.889
8942.072
8943.173
8944.19
8945.125
8945.977
8946.746
8947.433
8948.039
8948.562
8949.005
8949.367
8949.649
8949.852
8949.976
8950.022
8949.989
8949.88
8949.694
8949.43
8949.091
8948.675
8948.182
8947.613
8946.967
8946.242
8945.439
8944.555
8943.589
8942.539
8941.402
8940.174
8938.854
8937.436
8935.917
8934.295
8932.569
8930.743
8928.825
8926.837
8924.817
8922.822
8920.935
8919.255
8917.897
8916.993
8916.6
8916.807
5477.413
5358.423
5245.983
5129.693
5025.398
4910.377
4808.64
4707.286
4605.341
4504.704
4406.431
4310.361
4215.059
4122.231
4029.707
3925.945
3843.036
3766.777
3697.462
3636.106
3583.905
3541.911
3509.915
3487.976
3477.463
3479.494
3492.056
3520.594
3559.702
3606.566
3660.377
3724.109
3800.012
3890.315
3996.034
4117.517
4254.972
4407.906
4575.037
4756.255
4952.45
5163.849
5390.831
5633.299
5889.544
6157.634
6434.247
6715.603
6996.997
7270.371
7529.843
7766.194
7969.613
8137.745
8265.591
8350.963
8394.842
8399.906
8370.163
8310.176
8223.5
8113.659
7986.876
7849.886
7707.875
7563.456
7418.229
7273.52
7130.251
6988.794
6849.004
6710.194
6572.059
6433.86
6295.267
6156.642
6018.991
5883.775
5752.483
5626.938
5509.251
5401.17
5304.488
5220.771
5151.11
5096.331
5057.47
5035.676
5031.275
5043.141
5068.901
5105.835
5151.69
5204.668
5262.573
5322.717
5382.621
5440.36
5494.464
5544.323
5588.305
5625.786
5656.313
5679.914
5697.445
5710.008
5719.431
5727.469
5737.903
5753.756
5775.288
5802.775
5837.791
5880.867
5931.463
5989.201
6053.662
6124.146
6199.502
6278.263
6358.845
6439.915
6520.413
6599.499
6676.493
6750.996
6822.718
6891.71
6958.08
7021.88
7083.376
7143.049
7201.265
7258.145
7313.681
7367.824
7420.568
7471.942
7521.935
7570.498
7617.586
7663.113
7706.954
7748.908
7788.742
7826.159
7860.885
7892.723
7921.629
7947.955
7972.361
7995.478
8017.774
8039.537
8060.924
8082.049
8102.926
8123.416
8143.394
8162.806
8181.663
8200.028
8217.974
8235.57
8252.878
8269.866
8286.423
8302.394
8317.614
8332.026
8345.507
8357.851
8368.937
8378.801
8387.645
8395.768
8403.523
8411.238
8419.087
8427.031
8434.923
8442.658
8450.211
8457.59
8464.791
8471.803
8478.616
8485.231
8491.648
8497.865
8503.882
8509.699
8515.313
8520.725
8525.93
8530.926
8535.711
8540.286
8544.646
8548.789
8552.718
8556.431
8559.93
8563.226
8566.326
8569.238
8571.971
8574.542
8576.951
8579.205
8581.315
8583.284
8585.127
8586.847
8588.446
8589.932
8591.306
8592.571
8593.727
8594.777
8595.723
8596.567
8597.312
8597.959
8598.508
8598.959
8599.307
8599.548
8599.683
8599.717
8599.655
8599.504
8599.268
8598.953
8598.564
8598.108
8597.59
8597.016
8596.392
8595.725
8595.019
8594.282
8593.52
8592.737
8591.941
8591.136
8590.33
8589.527
8588.734
8587.955
8587.199
8586.468
8585.771
8585.111
8584.494
8583.925
8583.41
8582.951
8582.554
8582.223
8581.959
8581.767
8581.648
8581.604
8581.636
8581.744
8581.93
8582.195
8582.537
8582.958
8583.457
8584.036
8584.693
8585.426
8586.229
8587.092
8588.008
8588.965
8589.961
8590.992
8592.056
8593.15
8594.269
8595.411
8596.571
8597.747
8598.937
8600.136
8601.342
8602.551
8603.761
8604.968
8606.17
8607.362
8608.543
8609.709
8610.858
8611.987
8613.092
8614.172
8615.225
8616.249
8617.247
8618.221
8619.18
8620.139
8621.119
8622.153
8623.286
8624.569
8626.051
8627.762
8629.684
8631.757
8633.906
8636.084
8638.267
8640.442
8642.6
8644.734
8646.84
8648.916
8650.964
8652.983
8654.975
8656.942
8658.885
8660.807
8662.709
8664.594
8666.465
8668.324
8670.173
8672.015
8673.852
8675.688
8677.524
8679.363
8681.207
8683.057
8684.913
8686.781
8688.658
8690.544
8692.433
8694.32
8696.201
8698.09
8700.018
8701.996
8704.035
8706.128
8708.273
8710.466
8712.709
8715.001
8717.344
8719.738
8722.182
8724.675
8727.218
8729.81
8732.452
8735.143
8737.881
8740.667
8743.498
8746.375
8749.295
8752.259
8755.264
8758.311
8761.397
8764.523
8767.686
8770.885
8774.119
8777.387
8780.688
8784.02
8787.38
8790.768
8794.181
8797.615
8801.067
8804.532
8808.003
8811.473
8814.933
8818.374
8821.787
8825.162
8828.495
8831.797
8835.077
8838.341
8841.589
8844.818
8848.019
8851.19
8854.338
8857.461
8860.56
8863.635
8866.69
8869.727
8872.744
8875.741
8878.717
8881.668
8884.591
8887.483
8890.338
8893.153
8895.926
8898.653
8901.331
8903.957
8906.529
8909.043
8911.498
8913.891
8916.22
8918.483
8920.677
8922.801
8924.853
8926.832
8928.736
8930.563
8932.313
8933.984
8935.576
8937.087
8938.516
8939.864
8941.13
8942.313
8943.414
8944.432
8945.367
8946.219
8946.988
8947.676
8948.281
8948.805
8949.249
8949.612
8949.895
8950.099
8950.225
8950.273
8950.244
8950.138
8949.955
8949.697
8949.364
8948.955
8948.472
8947.913
8947.28
8946.572
8945.789
8944.929
8943.993
8942.978
8941.884
8940.71
8939.454
8938.116
8936.695
8935.193
8933.614
8931.967
8930.267
8928.536
8926.812
8925.141
8923.59
8922.228
8921.143
8920.398
8920.038
8920.116
5914.25
5891.156
5813.569
5701.038
5577.958
5457.737
5340.518
5229.34
5123.508
5017.35
4894.893
4792.838
4692.789
4592.974
4493.429
4394.823
4297.616
4201.615
4107.39
4016.399
3930.336
3846.845
3768.521
3696.346
3631.092
3573.957
3526.363
3489.145
3462.941
3448.253
3445.101
3453.934
3475.991
3509.735
3553.785
3608.038
3673.866
3752.161
3843.796
3949.395
4069.394
4204.188
4353.125
4514.909
4690.346
4880.854
5086.398
5307.159
5542.854
5792.172
6054.394
6324.562
6599.74
6874.19
7140.78
7391.845
7619.083
7814.48
7973.358
8092.509
8170.942
8209.669
8212.225
8181.332
8120.269
8033.982
7927.744
7808.668
7681.333
7549.284
7415.011
7280.506
7146.995
7015.18
6884.79
6755.358
6625.321
6494.148
6360.359
6223.829
6085.12
5945.695
5807.471
5672.131
5541.961
5419.985
5308.627
5209.351
5123.352
5051.456
4994.747
4955.707
4936.801
4937.797
4957.681
4993.586
5041.681
5099.138
5163.975
5233.733
5305.349
5375.981
5443.415
5505.954
5562.387
5611.341
5651.585
5682.41
5703.414
5715.726
5720.696
5720.085
5718.826
5719.681
5725.557
5739.634
5762.586
5794.25
5835.087
5884.541
5942.232
6007.683
6080.32
6159.031
6241.839
6326.591
6411.687
6495.888
6578.215
6657.958
6734.73
6808.382
6878.937
6946.552
7011.451
7073.939
7134.42
7193.226
7250.52
7306.343
7360.692
7413.552
7464.929
7514.803
7563.119
7609.81
7654.781
7697.907
7739.028
7777.975
7814.575
7848.694
7880.289
7909.427
7936.382
7961.616
7985.616
8008.765
8031.32
8053.433
8075.225
8096.735
8117.876
8138.577
8158.803
8178.56
8197.869
8216.74
8235.191
8253.234
8270.82
8287.809
8304.205
8319.867
8334.622
8348.358
8360.99
8372.474
8382.857
8392.286
8400.984
8409.201
8417.174
8425.056
8432.88
8440.597
8448.148
8455.514
8462.696
8469.695
8476.506
8483.124
8489.546
8495.776
8501.812
8507.657
8513.31
8518.771
8524.037
8529.107
8533.977
8538.644
8543.102
8547.348
8551.378
8555.192
8558.8
8562.205
8565.41
8568.422
8571.247
8573.895
8576.374
8578.688
8580.846
8582.866
8584.767
8586.541
8588.196
8589.73
8591.157
8592.478
8593.692
8594.803
8595.812
8596.718
8597.523
8598.228
8598.834
8599.34
8599.746
8600.05
8600.251
8600.348
8600.346
8600.25
8600.064
8599.795
8599.446
8599.024
8598.535
8597.985
8597.379
8596.724
8596.026
8595.291
8594.524
8593.731
8592.919
8592.094
8591.261
8590.426
8589.594
8588.772
8587.966
8587.18
8586.422
8585.696
8585.009
8584.365
8583.769
8583.228
8582.744
8582.323
8581.967
8581.681
8581.468
8581.329
8581.267
8581.282
8581.376
8581.549
8581.802
8582.134
8582.546
8583.037
8583.605
8584.251
8584.97
8585.757
8586.608
8587.511
8588.457
8589.443
8590.469
8591.53
8592.623
8593.742
8594.885
8596.047
8597.227
8598.42
8599.624
8600.836
8602.052
8603.269
8604.486
8605.698
8606.904
8608.101
8609.285
8610.456
8611.611
8612.748
8613.865
8614.964
8616.043
8617.107
8618.161
8619.213
8620.277
8621.374
8622.528
8623.772
8625.139
8626.659
8628.345
8630.189
8632.157
8634.203
8636.29
8638.394
8640.501
8642.603
8644.69
8646.758
8648.804
8650.828
8652.828
8654.805
8656.761
8658.695
8660.611
8662.509
8664.392
8666.261
8668.119
8669.968
8671.811
8673.649
8675.485
8677.321
8679.159
8681.002
8682.851
8684.705
8686.568
8688.438
8690.317
8692.204
8694.101
8696.012
8697.941
8699.895
8701.883
8703.922
8706.005
8708.141
8710.328
8712.563
8714.848
8717.185
8719.572
8722.009
8724.494
8727.028
8729.613
8732.248
8734.932
8737.664
8740.445
8743.272
8746.145
8749.062
8752.024
8755.029
8758.075
8761.162
8764.288
8767.453
8770.654
8773.89
8777.161
8780.463
8783.796
8787.157
8790.545
8793.955
8797.386
8800.833
8804.291
8807.756
8811.219
8814.675
8818.114
8821.532
8824.926
8828.289
8831.623
8834.936
8838.23
8841.504
8844.758
8847.99
8851.199
8854.383
8857.539
8860.666
8863.769
8866.852
8869.916
8872.958
8875.978
8878.972
8881.938
8884.873
8887.774
8890.638
8893.461
8896.24
8898.972
8901.655
8904.285
8906.861
8909.379
8911.837
8914.232
8916.563
8918.828
8921.024
8923.15
8925.204
8927.183
8929.088
8930.916
8932.666
8934.338
8935.929
8937.44
8938.869
8940.216
8941.481
8942.664
8943.763
8944.78
8945.714
8946.565
8947.333
8948.019
8948.623
8949.146
8949.588
8949.951
8950.233
8950.438
8950.564
8950.612
8950.584
8950.481
8950.302
8950.048
8949.719
8949.317
8948.842
8948.294
8947.674
8946.983
8946.22
8945.385
8944.479
8943.501
8942.452
8941.332
8940.142
8938.883
8937.559
8936.173
8934.733
8933.251
8931.743
8930.232
8928.753
8927.344
8926.057
8924.946
8924.067
8923.467
8923.168
8923.239
5902.291
5846.504
5716.294
5610.306
5501.51
5394.984
5290.947
5189.324
5089.405
4990.943
4894.771
4797.037
4698.729
4599.965
4501.155
4402.385
4304.263
4207.172
4111.434
4018.16
3929.527
3843.611
3761.121
3684.313
3614.678
3553.376
3501.513
3460.725
3432.028
3415.329
3410.539
3417.753
3437.142
3468.171
3510.583
3564.508
3630.551
3709.112
3800.505
3904.942
4022.674
4153.876
4297.936
4454.574
4624.726
4809.153
5008.111
5222.645
5451.229
5693.673
5948.08
6210.798
6477.658
6742.748
6998.95
7238.203
7452.8
7635.689
7782.617
7891.112
7961.588
7994.759
7992.171
7957.676
7895.775
7813.294
7714.824
7605.039
7487.755
7366.566
7243.749
7121.632
7001.038
6882.475
6764.519
6647.113
6527.931
6406.641
6279.773
6146.38
6007.384
5865.694
5723.542
5582.742
5446.606
5318.938
5202.284
5098.716
5010.01
4935.54
4874.359
4830.8
4813.684
4822.859
4854.884
4903.936