/*--------------------------------*- C++ -*----------------------------------*\
| =========                 |                                                 |
| \\      /  F ield         | foam-extend: Open Source CFD                    |
|  \\    /   O peration     | Version:     3.1                                |
|   \\  /    A nd           | Web:         http://www.extend-project.de       |
|    \\/     M anipulation  |                                                 |
\*---------------------------------------------------------------------------*/
FoamFile
{
    version     2.0;
    format      ascii;
    class       surfaceScalarField;
    location    "7.5";
    object      phi;
}
// * * * * * * * * * * * * * * * * * * * * * * * * * * * * * * * * * * * * * //

dimensions      [0 3 -1 0 0 0 0];

internalField   nonuniform List<scalar> 
275122
(
-0.0001598455
0.0001597182
-9.400712e-08
2.212781e-07
-0.000136456
0.0001268824
5.302868e-07
9.043264e-06
-0.0001240983
0.0001242468
-1.769614e-07
2.844278e-08
-0.0001227532
0.0001221347
-1.684778e-07
7.869588e-07
-0.0001163565
0.0001128037
3.823535e-08
3.514488e-06
-0.0001012273
9.894403e-05
-3.93133e-08
2.322619e-06
-9.599291e-05
9.573373e-05
-5.721867e-08
3.163982e-07
-9.570437e-05
9.577055e-05
-5.082945e-08
-1.534915e-08
-9.557595e-05
9.536015e-05
-4.536296e-08
2.611644e-07
-9.439671e-05
9.398532e-05
-3.773422e-08
4.491259e-07
-9.255392e-05
9.203809e-05
-2.785824e-08
5.43685e-07
-9.03354e-05
8.972257e-05
-2.453294e-08
6.373683e-07
-8.775554e-05
8.7049e-05
-1.843074e-08
7.249646e-07
-8.478937e-05
8.399903e-05
-1.440269e-08
8.047464e-07
-8.156341e-05
8.074704e-05
-1.135494e-08
8.277281e-07
-7.831319e-05
7.752668e-05
-8.928242e-09
7.954361e-07
-7.523866e-05
7.451795e-05
-6.841431e-09
7.275513e-07
-7.246342e-05
7.184022e-05
-5.500321e-09
6.287007e-07
-7.016644e-05
6.97032e-05
-2.152789e-08
4.847678e-07
-6.874696e-05
6.88102e-05
-1.028549e-07
3.96145e-08
-7.578304e-05
7.820538e-05
-2.350489e-07
-2.187293e-06
-7.931796e-05
7.953194e-05
-7.961688e-08
-1.343672e-07
-7.995412e-05
8.040366e-05
-2.966221e-08
-4.198703e-07
-8.834246e-05
9.121116e-05
1.179388e-07
-2.986639e-06
-9.186744e-05
9.201344e-05
1.36639e-07
-2.826444e-07
-9.286406e-05
9.299337e-05
4.49145e-08
-1.742233e-07
-9.309591e-05
9.300373e-05
1.398226e-08
7.819069e-08
-9.233849e-05
9.167218e-05
1.110586e-08
6.55202e-07
-8.655871e-05
8.114804e-05
1.029241e-08
5.400381e-06
-0.0001585538
0.000162699
7.043185e-09
-4.152269e-06
-0.000218709
0.0002298132
-5.817829e-08
-1.104606e-05
-0.000261391
0.0002718488
6.431126e-09
-1.046424e-05
-0.0003036652
0.0003143742
7.065321e-09
-1.071607e-05
-0.0003467892
0.0003576864
7.467128e-09
-1.090466e-05
-0.0003906591
0.000401681
7.380324e-09
-1.102924e-05
-0.0004348198
0.0004458468
6.707658e-09
-1.103371e-05
-0.0004784639
0.0004892879
5.836412e-09
-1.082989e-05
-0.0005215928
0.0005321754
6.270045e-09
-1.058886e-05
-0.0005633552
0.0005735527
5.272263e-09
-1.020273e-05
-0.0006030223
0.0006137274
1.827719e-07
-1.088787e-05
9.046551e-06
-0.0004142154
0.0004144162
5.767328e-10
-9.247933e-06
8.526382e-06
-0.0004142851
0.0004140985
-2.290423e-09
-8.33749e-06
8.222373e-06
-0.0004130239
0.0004124922
-1.93507e-09
-7.688744e-06
7.911931e-06
-0.0004104043
0.0004095624
-1.234104e-09
-7.06884e-06
7.58115e-06
-0.0004066486
0.000405547
-8.355378e-10
-6.478644e-06
7.246449e-06
-0.0004019236
0.0004006174
-5.682081e-10
-5.939657e-06
6.913716e-06
-0.0003964853
0.0003950379
-7.199689e-10
-5.465598e-06
6.601827e-06
-0.0003905671
0.0003890388
-7.478097e-10
-5.072739e-06
6.602858e-06
-0.0003837469
0.0003810536
-6.360062e-10
-3.908876e-06
4.69104e-06
-0.001556026
0.001544914
-3.426617e-11
-9.224655e-06
5.490364e-06
4.680704e-06
5.474128e-06
5.175301e-06
-0.001532094
0.001518859
-4.672461e-11
-7.902459e-06
5.402839e-06
5.167961e-06
5.391149e-06
5.055215e-06
-0.00150634
0.00149414
-5.705744e-11
-8.11928e-06
5.116052e-06
5.043659e-06
5.104396e-06
5.016341e-06
-0.00148228
0.001470304
-4.109522e-11
-8.188013e-06
5.081835e-06
5.000007e-06
5.066449e-06
5.052872e-06
-0.001458361
0.001446414
2.558578e-11
-8.333181e-06
5.101936e-06
5.03772e-06
5.088007e-06
5.102995e-06
-0.001434626
0.001422963
7.348334e-11
-8.796029e-06
5.137019e-06
5.092546e-06
5.126331e-06
5.196461e-06
-0.00141155
0.00140026
5.537528e-11
-9.553607e-06
5.233472e-06
5.18789e-06
5.225523e-06
5.300335e-06
-0.00138926
0.001378363
1.316626e-11
-1.038313e-05
5.347402e-06
5.292409e-06
5.340529e-06
5.350106e-06
-0.001367835
0.001357014
-9.829618e-12
-1.085933e-05
5.497312e-06
5.343298e-06
5.489943e-06
4.806777e-06
-0.001346448
0.001338822
-4.100702e-12
-1.257707e-05
5.29776e-06
4.801555e-06
5.297088e-06
5.571248e-06
-0.001329413
0.001319285
8.86778e-12
-1.201562e-05
5.500024e-06
5.571957e-06
5.500405e-06
5.420678e-06
-0.001309755
0.001300666
1.621019e-11
-1.240941e-05
5.328305e-06
5.421437e-06
5.328857e-06
5.299184e-06
-0.001291824
0.001283162
1.573433e-11
-1.240692e-05
5.23487e-06
5.29944e-06
5.2353e-06
5.128459e-06
-0.001274651
0.00126631
1.131092e-11
-1.203134e-05
5.058509e-06
5.127331e-06
5.058478e-06
4.877412e-06
-0.001258132
0.001249892
5.49687e-12
-1.111571e-05
4.804843e-06
4.870831e-06
4.8026e-06
4.519057e-06
-0.001241774
0.001233608
-1.087684e-12
-9.686183e-06
4.42886e-06
4.49388e-06
4.410729e-06
4.113243e-06
-0.001225457
0.00121724
-5.412738e-12
-7.83169e-06
4.011831e-06
4.006437e-06
3.917384e-06
3.817883e-06
-0.001208847
0.001199947
-5.314482e-12
-5.38319e-06
3.74371e-06
3.40653e-06
3.314613e-06
4.51182e-06
-0.001188939
0.00117436
-9.012362e-13
-1.307096e-06
4.793596e-06
3.471612e-06
3.109842e-06
-1.362642e-05
-0.001157285
0.001157565
1.112785e-11
1.334573e-05
-2.132511e-05
-0.001157439
0.001149102
3.188628e-11
2.966186e-05
-2.542663e-05
-0.001138761
0.001129858
5.931552e-11
3.432938e-05
-3.675084e-05
-0.00112199
0.001114004
8.489612e-11
4.473729e-05
-4.578983e-05
-0.00110594
0.001097417
9.027001e-11
5.431285e-05
-4.332992e-05
-0.001087392
0.001074414
7.39036e-11
5.630777e-05
-3.623948e-05
-0.001058705
0.001040648
4.573967e-11
5.429637e-05
-3.103272e-05
-0.001020874
0.0009998788
2.041745e-11
5.202832e-05
-2.565286e-05
-0.0009781126
0.0009556965
3.393955e-11
4.806894e-05
-1.950116e-05
-0.0009327647
0.0009097033
9.823795e-11
4.256246e-05
-1.564227e-05
-0.0008868688
0.0008645874
1.719508e-10
3.79235e-05
-1.421399e-05
-0.0008431137
0.0008226912
1.956302e-10
3.463633e-05
-1.410311e-05
-0.0008034122
0.0007853426
1.469557e-10
3.217258e-05
-1.416899e-05
-0.0007683927
0.0007525379
6.004883e-11
3.002372e-05
-1.370229e-05
-0.0007376935
0.0007238857
-1.986299e-11
2.751014e-05
-1.246156e-05
-0.0007110181
0.0006991977
-7.160275e-11
2.428206e-05
-1.065596e-05
-0.0006882595
0.0006783759
-9.165837e-11
2.053966e-05
-8.541008e-06
-0.0006693111
0.0006612782
-8.874961e-11
1.657398e-05
-6.304183e-06
-0.0006539165
0.0006474773
-7.50971e-11
1.274348e-05
-3.997813e-06
-0.0006413992
0.000636034
-5.875478e-11
9.363114e-06
-1.553942e-06
-0.0006300427
0.0006250194
-4.369314e-11
6.577311e-06
-1.643564e-06
-0.0006209849
0.0006171925
-3.020953e-11
5.435949e-06
9.720316e-07
-0.0006133867
0.0006090615
-1.753409e-11
3.353149e-06
4.744412e-06
-0.0006025459
0.0005969869
-6.744667e-12
8.145787e-07
8.315805e-07
-0.0005924804
0.0005888984
1.271915e-12
2.750437e-06
-1.540033e-06
-0.0005853734
0.000582
7.515311e-12
4.913435e-06
-3.663113e-06
-0.0005787759
0.0005756799
1.257903e-11
6.759119e-06
-7.779413e-06
-0.0005729023
0.0005707059
1.529109e-11
9.975823e-06
-1.883325e-05
-0.0005698891
0.0005732358
1.631914e-11
1.548653e-05
-3.389379e-06
-0.0005773548
0.0005758165
1.758486e-11
1.364423e-05
-2.634373e-06
-3.415448e-06
-2.666762e-06
-1.709426e-06
-0.0005739751
0.0005724538
1.761146e-11
8.168057e-06
-1.580722e-06
-1.742146e-06
-1.614553e-06
-1.146151e-06
-0.000570705
0.0005689377
1.62298e-11
6.248562e-06
-1.063732e-06
-1.177087e-06
-1.094237e-06
-8.939062e-07
-0.0005672354
0.0005657249
1.403656e-11
5.082942e-06
-8.680834e-07
-9.184661e-07
-8.919933e-07
-7.694434e-07
-0.0005643369
0.0005631077
1.177929e-11
4.306427e-06
-7.504619e-07
-7.885392e-07
-7.687999e-07
-6.722285e-07
-0.0005619707
0.0005609696
9.875852e-12
3.689915e-06
-6.578004e-07
-6.870794e-07
-6.71713e-07
-5.952881e-07
-0.0005600433
0.0005592349
8.349423e-12
3.18744e-06
-5.833435e-07
-6.064153e-07
-5.940756e-07
-5.346886e-07
-0.0005584889
0.0005578456
7.052397e-12
2.780501e-06
-5.253828e-07
-5.433321e-07
-5.337569e-07
-4.846009e-07
-0.0005572554
0.000556759
5.94273e-12
2.43285e-06
-4.769859e-07
-4.913749e-07
-4.834953e-07
-4.411085e-07
-0.0005563117
0.0005559514
5.090939e-12
2.122193e-06
-4.345669e-07
-4.464803e-07
-4.397161e-07
-4.027434e-07
-0.0005556376
0.000555407
4.552657e-12
1.838231e-06
-3.969323e-07
-4.069269e-07
-4.010095e-07
-3.676967e-07
-0.0005552201
0.0005551116
4.270774e-12
1.575278e-06
-3.624318e-07
-3.710139e-07
-3.656578e-07
-3.36283e-07
-0.0005550446
0.0005550515
4.135728e-12
1.334275e-06
-3.317681e-07
-3.388733e-07
-3.342777e-07
-3.085551e-07
-0.0005550973
0.0005552121
4.037109e-12
1.115724e-06
-3.047364e-07
-3.105968e-07
-3.067076e-07
-2.843491e-07
-0.0005553628
0.0005555781
3.940181e-12
9.189848e-07
-2.811663e-07
-2.859716e-07
-2.827296e-07
-2.634325e-07
-0.0005558258
0.0005561342
3.844627e-12
7.42636e-07
-2.608038e-07
-2.647353e-07
-2.620566e-07
-2.454833e-07
-0.0005564702
0.0005568665
3.75564e-12
5.832839e-07
-2.432775e-07
-2.465464e-07
-2.44302e-07
-2.301272e-07
-0.0005572882
0.0005577612
3.649959e-12
4.458907e-07
-2.284638e-07
-2.310047e-07
-2.293065e-07
-2.17629e-07
-0.0005582606
0.0005588045
3.486706e-12
3.256643e-07
-2.164696e-07
-2.183606e-07
-2.171724e-07
-2.074441e-07
-0.0005593743
0.0005599856
3.310273e-12
2.180344e-07
-2.06622e-07
-2.080674e-07
-2.072216e-07
-1.997344e-07
-0.0005606204
0.0005612915
3.170957e-12
1.280915e-07
-1.993668e-07
-2.002769e-07
-1.998888e-07
-1.946424e-07
-0.0005619837
0.0005627077
2.972791e-12
5.560277e-08
-1.946717e-07
-1.951268e-07
-1.951381e-07
-1.91718e-07
-0.0005634498
0.0005642222
2.691233e-12
-3.950281e-09
-1.920414e-07
-1.921637e-07
-1.924705e-07
-1.91069e-07
-0.0005650093
0.0005658203
2.425576e-12
-4.454202e-08
-1.917778e-07
-1.914814e-07
-1.921725e-07
-1.917765e-07
-0.0005666461
0.0005674937
2.175129e-12
-7.790946e-08
-1.926862e-07
-1.921525e-07
-1.930353e-07
-1.936465e-07
0.0005692341
1.876623e-12
-1.026056e-07
-1.947093e-07
-1.939893e-07
-1.950438e-07
-0.0005683541
-1.963459e-07
-0.0005701254
0.0005710346
1.681667e-12
-1.204485e-07
-1.975869e-07
-1.967563e-07
-1.979825e-07
-1.997038e-07
-0.000571954
0.0005728898
1.555394e-12
-1.335405e-07
-2.009812e-07
-2.001384e-07
-2.014035e-07
-2.036267e-07
-0.000573835
0.0005747954
1.45597e-12
-1.423556e-07
-2.049993e-07
-2.039965e-07
-2.05374e-07
-2.082011e-07
-0.0005757645
0.0005767472
1.369027e-12
-1.463709e-07
-2.096548e-07
-2.085525e-07
-2.100132e-07
-2.134156e-07
-0.0005777379
0.0005787411
1.285422e-12
-1.45742e-07
-2.149394e-07
-2.137565e-07
-2.152874e-07
-2.191741e-07
-0.0005797514
0.0005807731
1.205745e-12
-1.41221e-07
-2.207498e-07
-2.195056e-07
-2.210875e-07
-2.25366e-07
-0.0005818015
0.0005828404
1.127983e-12
-1.335694e-07
-2.269792e-07
-2.256882e-07
-2.273067e-07
-2.31914e-07
-0.0005838855
0.0005849403
1.077122e-12
-1.232772e-07
-2.335561e-07
-2.322268e-07
-2.338731e-07
-2.387706e-07
-0.0005860009
0.0005870705
1.036019e-12
-1.105749e-07
-2.404355e-07
-2.390736e-07
-2.407432e-07
-2.459228e-07
-0.0005881454
0.0005892284
9.713353e-13
-9.539887e-08
-2.476118e-07
-2.462176e-07
-2.479097e-07
-2.533855e-07
-0.0005903163
0.0005914113
9.848905e-13
-7.754206e-08
-2.550988e-07
-2.536707e-07
-2.553858e-07
-2.611431e-07
-0.0005925106
0.0005936162
7.382567e-13
-5.694061e-08
-2.628775e-07
-2.614198e-07
-2.631562e-07
-2.691731e-07
-0.0005947254
0.0005958399
7.901727e-13
-3.377967e-08
-2.709275e-07
-2.694403e-07
-2.711945e-07
-2.77371e-07
-0.0005969578
0.0005980806
6.80426e-13
-9.229956e-09
-2.791553e-07
-2.77628e-07
-2.794135e-07
-2.860737e-07
-0.0005992062
0.0006003341
7.607841e-13
2.059593e-08
-2.879645e-07
-2.863094e-07
-2.881874e-07
-2.950891e-07
-0.000601464
0.0006025962
5.876551e-13
5.227283e-08
-2.969481e-07
-2.952841e-07
-2.971656e-07
-3.041955e-07
-0.0006037298
0.0006048649
7.013929e-13
8.604025e-08
-3.061041e-07
-3.044601e-07
-3.063855e-07
-3.134485e-07
-0.0006060008
0.0006071374
7.387792e-13
1.21488e-07
-3.152782e-07
-3.137581e-07
-3.155735e-07
-3.226896e-07
-0.000608274
0.0006094112
8.358926e-13
1.575752e-07
-3.244821e-07
-3.229212e-07
-3.247111e-07
-3.314073e-07
-0.0006105481
0.0006116855
5.5152e-13
1.919476e-07
-3.330508e-07
-3.316396e-07
-3.332795e-07
-3.381834e-07
-0.0006128226
0.0006139635
3.738392e-13
2.141861e-07
-3.391118e-07
-3.383924e-07
-3.393351e-07
-3.396327e-07
-0.000615103
0.0006162505
6.14074e-13
2.120696e-07
-3.399024e-07
-3.399179e-07
-3.401403e-07
-3.187839e-07
-0.0006173879
0.0006185073
-4.770224e-14
1.325347e-07
-3.06715e-07
-3.193179e-07
-3.071218e-07
-2.47583e-07
-0.0006195113
0.0006204929
-1.53662e-12
-1.476488e-07
-1.678908e-07
-2.485748e-07
-1.699692e-07
-2.646139e-07
-0.0006215408
0.0006224238
-8.181645e-13
2.064962e-07
-2.834036e-07
-2.613131e-07
-2.802238e-07
-3.401742e-07
-0.0006234396
0.0006244805
-3.072816e-13
3.298475e-07
-3.464984e-07
-3.387711e-07
-3.453345e-07
-3.63262e-07
-0.0006254963
0.0006265013
-1.008175e-12
4.540325e-07
-3.671141e-07
-3.623255e-07
-3.66348e-07
-3.853655e-07
-0.0006275086
0.0006285082
-3.475613e-13
5.454136e-07
-3.878028e-07
-3.846651e-07
-3.871622e-07
-4.036657e-07
-0.0006295052
0.000630492
6.552599e-13
6.302704e-07
-4.054226e-07
-4.030975e-07
-4.048971e-07
-4.205341e-07
-0.0006314751
0.0006324477
6.289577e-13
7.120838e-07
-4.222904e-07
-4.200632e-07
-4.218606e-07
-4.362605e-07
-0.0006334162
0.0006343739
1.7722e-12
7.902176e-07
-4.380172e-07
-4.359064e-07
-4.376802e-07
-4.507215e-07
-0.0006353271
0.0006362702
8.454956e-13
8.625573e-07
-4.524155e-07
-4.504204e-07
-4.521239e-07
-4.641079e-07
-0.0006372083
0.0006381359
-2.527378e-13
9.317888e-07
-4.658453e-07
-4.638385e-07
-4.65557e-07
-4.772312e-07
-0.0006390566
0.000639966
5.113574e-14
1.002336e-06
-4.788068e-07
-4.76991e-07
-4.7862e-07
-4.891555e-07
-0.0006408693
0.0006417621
1.129477e-12
1.06668e-06
-4.906887e-07
-4.890188e-07
-4.90591e-07
-5.001434e-07
-0.0006426491
0.0006435259
8.774575e-14
1.126389e-06
-5.01521e-07
-5.000842e-07
-5.014395e-07
-5.103178e-07
-0.0006443974
0.0006452594
-7.347539e-13
1.181602e-06
-5.115797e-07
-5.102245e-07
-5.115005e-07
-5.197161e-07
-0.0006461165
0.000646965
1.751594e-13
1.23259e-06
-5.208888e-07
-5.196382e-07
-5.208157e-07
-5.284511e-07
-0.000647809
0.0006486453
2.150851e-12
1.279516e-06
-5.295309e-07
-5.283745e-07
-5.294494e-07
-5.365241e-07
-0.0006494777
0.0006503033
2.076569e-12
1.32237e-06
-5.374876e-07
-5.364721e-07
-5.374528e-07
-5.439787e-07
-0.0006511255
0.0006519419
1.961498e-12
1.361173e-06
-5.448675e-07
-5.439314e-07
-5.448106e-07
-5.508069e-07
-0.0006527556
0.0006535645
1.402214e-12
1.395845e-06
-5.516089e-07
-5.507662e-07
-5.515638e-07
-5.570711e-07
-0.0006543714
0.0006551746
1.540353e-12
1.4265e-06
-5.577939e-07
-5.570489e-07
-5.577662e-07
-5.627784e-07
-0.0006559763
0.0006567756
2.22703e-12
1.453104e-06
-5.634184e-07
-5.627519e-07
-5.633905e-07
-5.679474e-07
-0.0006575741
0.0006583713
1.169981e-12
1.475661e-06
-5.684911e-07
-5.679177e-07
-5.684687e-07
-5.72608e-07
-0.0006591685
0.0006599656
1.238841e-12
1.494211e-06
-5.730724e-07
-5.725758e-07
-5.730542e-07
-5.767349e-07
-0.0006607635
0.0006615625
1.722467e-12
1.508779e-06
-5.771413e-07
-5.767307e-07
-5.771291e-07
-5.804518e-07
-0.000662363
0.0006631659
2.65737e-12
1.519525e-06
-5.807908e-07
-5.804313e-07
-5.807435e-07
-5.836926e-07
-0.0006639712
0.0006647802
2.719997e-12
1.526306e-06
-5.840207e-07
-5.836403e-07
-5.839248e-07
-5.865496e-07
0.0006664095
1.560643e-12
1.529313e-06
-0.0006655924
-5.867286e-07
-5.8646e-07
-5.866944e-07
-5.889308e-07
-0.0006672307
0.0006680582
2.388706e-12
1.528687e-06
-5.891556e-07
-5.889152e-07
-5.891885e-07
-5.909334e-07
-0.0006688906
0.0006697304
1.75895e-12
1.524222e-06
-5.910167e-07
-5.909955e-07
-5.910427e-07
-5.925901e-07
-0.0006705758
0.0006714301
1.582533e-12
1.516229e-06
-5.926322e-07
-5.925898e-07
-5.92638e-07
-5.940232e-07
-0.0006722909
0.0006731616
3.358894e-12
1.505347e-06
-5.940491e-07
-5.940014e-07
-5.940259e-07
-5.952125e-07
-0.0006740397
0.0006749289
1.505821e-12
1.491514e-06
-5.951893e-07
-5.951711e-07
-5.951385e-07
-5.961836e-07
-0.0006758263
0.0006767358
1.987326e-12
1.475039e-06
-5.961156e-07
-5.961565e-07
-5.961013e-07
-5.970159e-07
-0.0006776542
0.0006785857
4.790597e-12
1.456312e-06
-5.969398e-07
-5.969941e-07
-5.969039e-07
-5.977199e-07
-0.0006795269
0.0006804819
4.348069e-12
1.435606e-06
-5.9765e-07
-5.977031e-07
-5.976116e-07
-5.984169e-07
-0.0006814473
0.0006824274
3.66666e-12
1.413328e-06
-5.983303e-07
-5.98394e-07
-5.982972e-07
-5.990963e-07
-0.0006834183
0.0006844246
4.311107e-12
1.389851e-06
-5.990043e-07
-5.990704e-07
-5.989763e-07
-5.998144e-07
-0.0006854422
0.0006864757
3.574978e-12
1.365481e-06
-5.996881e-07
-5.997737e-07
-5.996544e-07
-6.006159e-07
-0.000687521
0.0006885826
2.536675e-12
1.340548e-06
-6.004956e-07
-6.005678e-07
-6.004648e-07
-6.015061e-07
-0.0006896564
0.0006907468
3.077398e-12
1.315451e-06
-6.014351e-07
-6.014977e-07
-6.013996e-07
-6.028326e-07
-0.0006918499
0.0006929716
8.28463e-13
1.290175e-06
-6.031918e-07
-6.027927e-07
-6.031168e-07
-6.006699e-07
-0.0006941058
0.0006952533
-1.729977e-13
1.26277e-06
-6.044273e-07
-6.007486e-07
-6.044584e-07
-6.020492e-07
-0.0006964104
0.0006975899
7.6018e-12
1.233997e-06
-6.047727e-07
-6.018462e-07
-6.04801e-07
-6.058769e-07
-0.0006987804
0.0006999919
6.697405e-12
1.213225e-06
-6.065559e-07
-6.058048e-07
-6.065381e-07
-6.088319e-07
-0.0007012134
0.0007024569
9.973755e-12
1.189705e-06
-6.077371e-07
-6.08917e-07
-6.077429e-07
-6.094289e-07
-0.0007037101
0.000704986
2.106524e-13
1.161031e-06
-6.089916e-07
-6.094848e-07
-6.089417e-07
-6.088085e-07
-0.0007062677
0.0007075795
1.229026e-12
1.12421e-06
-6.093306e-07
-6.087522e-07
-6.092073e-07
-6.054173e-07
-0.000708896
0.0007102562
2.691329e-12
1.066652e-06
-6.080868e-07
-6.054436e-07
-6.078763e-07
-5.978442e-07
-0.0007116112
0.000713056
5.491993e-12
9.564319e-07
-6.028814e-07
-5.979544e-07
-6.026075e-07
-5.663626e-07
-0.0007144904
0.0007160099
5.827585e-12
7.324157e-07
-5.595137e-07
-5.667965e-07
-5.592252e-07
-2.688751e-07
-0.0007169833
0.0007175057
5.424422e-12
3.466587e-07
-1.64345e-07
-2.699575e-07
-1.658885e-07
-8.386147e-08
-0.0001783197
0.0001781224
-7.739921e-12
2.812004e-07
-3.744774e-07
-0.0001775739
0.000177515
-6.293962e-12
4.333898e-07
-4.878388e-07
-0.0001775972
0.000177687
1.47564e-11
3.979772e-07
-5.466172e-07
-0.0001780562
0.0001782019
1.947599e-11
4.009443e-07
-5.818291e-07
-0.0001786818
0.0001788505
2.317954e-11
4.130735e-07
-6.065476e-07
-0.0001793725
0.0001795495
2.366245e-11
4.295164e-07
-6.250927e-07
-0.0001800862
0.0001802661
2.476777e-11
4.451861e-07
-6.404329e-07
-0.0001808073
0.0001809878
3.091236e-11
4.598835e-07
-6.538948e-07
-0.0001815293
0.0001817095
4.18212e-11
4.736583e-07
-6.662503e-07
-0.0001822494
0.0001824288
5.282612e-11
4.868159e-07
-6.779206e-07
-0.0001829658
0.0001831443
6.434954e-11
4.994244e-07
-6.890413e-07
-0.0001836781
0.0001838552
8.671753e-11
5.118014e-07
-6.999446e-07
-0.0001843849
0.0001845606
1.229343e-10
5.241482e-07
-7.107723e-07
-0.0001850857
0.0001852597
1.682171e-10
5.365474e-07
-7.214797e-07
-0.0001857795
0.0001859517
2.233104e-10
5.490537e-07
-7.320892e-07
-0.0001864657
0.0001866359
2.754533e-10
5.616865e-07
-7.425882e-07
-0.0001871434
0.0001873113
3.017052e-10
5.743952e-07
-7.530333e-07
-0.0001878118
0.0001879772
2.586942e-10
5.873385e-07
-7.6355e-07
-0.00018847
0.0001886326
1.359248e-10
6.007453e-07
-7.73874e-07
-0.0001891169
0.0001892767
-7.085944e-12
6.140364e-07
-7.841367e-07
-0.0001897525
0.0001899093
-9.113485e-11
6.274493e-07
-7.946139e-07
-0.0001903753
0.0001905287
-1.278751e-10
6.413717e-07
-8.050017e-07
-0.0001909839
0.0001911336
-1.459774e-10
6.554944e-07
-8.152842e-07
-0.0001915773
0.000191723
-1.530795e-10
6.697494e-07
-8.253728e-07
-0.0001921544
0.0001922959
-1.354639e-10
6.839933e-07
-8.351596e-07
-0.0001927147
0.0001928518
-9.63029e-11
6.981583e-07
-8.44509e-07
-0.0001932574
0.0001933902
-4.969446e-11
7.116715e-07
-8.529805e-07
-0.0001937833
0.000193912
-5.546999e-12
7.243013e-07
-8.575508e-07
-0.0001942958
0.00019442
1.886802e-11
7.33277e-07
-8.677537e-07
-0.0001947937
0.0001949205
4.845183e-11
7.409021e-07
-8.697225e-07
-0.0001952785
0.0001954008
1.221024e-10
7.473402e-07
-8.699477e-07
-0.0001957644
0.0001958882
6.429278e-11
7.460573e-07
-8.582453e-07
-0.0001962686
0.0001963962
6.980078e-11
7.306075e-07
-8.493026e-07
-0.0001967996
0.000196962
7.200295e-11
6.867861e-07
-7.668915e-07
-0.0001975006
0.0001977417
5.271917e-11
5.257046e-07
2.330464e-07
-0.0001985266
0.0001984727
6.848045e-11
-1.792485e-07
7.932666e-07
-0.0001984185
0.0001984479
3.886951e-11
-8.227327e-07
8.491591e-07
-0.0001985475
0.000198603
3.943723e-11
-9.046913e-07
8.97814e-07
-0.000198781
0.0001988416
3.978896e-11
-9.584144e-07
9.166088e-07
-0.0001990339
0.0001990991
3.8301e-11
-9.818862e-07
9.307298e-07
-0.0001992943
0.0001993591
3.011158e-11
-9.955448e-07
9.392305e-07
-0.0001995512
0.0001996141
2.949014e-11
-1.002135e-06
9.448453e-07
-0.0001997986
0.0001998579
3.19462e-11
-1.004208e-06
9.471444e-07
-0.0002000301
0.0002000853
3.058408e-11
-1.002399e-06
9.465679e-07
-0.0002002458
0.0002002973
1.937958e-11
-9.980102e-07
9.454616e-07
-0.0002004459
0.0002004933
8.799666e-12
-9.928436e-07
9.442962e-07
-0.0002006294
0.0002006726
8.003143e-12
-9.874322e-07
9.431858e-07
-0.0002007956
0.0002008342
4.83523e-12
-9.81839e-07
9.418068e-07
-0.0002009437
0.0002009778
3.062401e-12
-9.759615e-07
9.403048e-07
-0.0002010739
0.0002011036
4.11651e-13
-9.700401e-07
9.387654e-07
-0.0002011864
0.0002012119
-3.591558e-12
-9.642108e-07
9.372013e-07
-0.0002012821
0.0002013034
-4.139451e-12
-9.585234e-07
9.355675e-07
-0.0002013616
0.0002013791
-7.168259e-12
-9.53066e-07
9.34185e-07
-0.000201426
0.0002014399
-1.044697e-11
-9.480754e-07
9.327179e-07
-0.0002014764
0.0002014871
-8.814709e-12
-9.433873e-07
9.313332e-07
-0.0002015141
0.0002015219
-8.932169e-12
-9.391611e-07
9.305586e-07
-0.0002015404
0.0002015455
-1.256056e-11
-9.356046e-07
9.298552e-07
-0.0002015568
0.0002015594
-1.27237e-11
-9.325101e-07
9.285007e-07
-0.0002015644
0.0002015647
-1.274295e-11
-9.288187e-07
9.2856e-07
-0.0002015636
0.0002015628
-1.355959e-11
-9.276674e-07
9.289212e-07
-0.0002015577
0.0002015554
-6.132168e-12
-9.266725e-07
9.282367e-07
-0.0002015471
0.0002015439
-1.01852e-11
-9.250713e-07
9.282242e-07
-0.0002015328
0.000201529
-1.531604e-11
-9.243876e-07
9.283615e-07
-0.000201516
0.0002015119
-1.591859e-11
-9.241718e-07
9.287237e-07
-0.0002014974
0.0002014929
-1.231692e-11
-9.242237e-07
9.282517e-07
-0.0002014775
0.000201473
6.511778e-12
-9.237613e-07
9.286011e-07
-0.0002014593
0.0002014541
6.473081e-11
-9.23524e-07
9.296662e-07
-0.0002014392
0.0002014342
7.233743e-11
-9.246772e-07
9.295754e-07
-0.0002014217
0.0002014188
9.21587e-11
-9.267651e-07
9.24284e-07
-0.0002014221
0.0002013989
1.656712e-10
-9.01226e-07
1.085661e-06
-0.0001995483
0.0008215088
-1.864365e-11
-3.748919e-06
-5.428132e-08
1.08967e-06
-6.753771e-08
-0.0001995526
-0.0002103553
-0.0002103572
5.088208e-07
-0.0008243525
0.0008246462
-8.9954e-12
-2.969685e-06
8.453987e-07
4.919885e-07
8.297432e-07
6.72386e-07
-0.0008247413
0.0008249877
-4.456755e-12
-3.002457e-06
7.183997e-07
6.59286e-07
7.060074e-07
7.201628e-07
-0.0008256117
0.0008261347
-2.620721e-12
-3.468971e-06
7.641712e-07
7.086985e-07
7.529203e-07
7.804366e-07
-0.0008265532
0.0008267849
-2.41217e-12
-3.404994e-06
8.166786e-07
7.699032e-07
8.062806e-07
8.070074e-07
-0.0008269758
0.0008271302
-3.72515e-13
-3.400933e-06
8.260386e-07
7.971497e-07
8.163981e-07
8.175598e-07
-0.0008273277
0.000827531
1.715947e-12
-3.47732e-06
8.289412e-07
8.07927e-07
8.196169e-07
8.356e-07
-0.0008277594
0.0008279783
2.923735e-12
-3.562332e-06
8.454858e-07
8.256901e-07
8.365689e-07
8.561659e-07
-0.0008282073
0.0008284276
4.340669e-12
-3.64144e-06
8.634369e-07
8.466713e-07
8.548048e-07
8.738736e-07
-0.0008286556
0.0008288799
6.152563e-12
-3.714717e-06
8.794854e-07
8.655957e-07
8.714832e-07
8.892826e-07
-0.0008291168
0.0008293478
6.783924e-12
-3.77732e-06
8.906752e-07
8.824884e-07
8.838367e-07
9.068131e-07
-0.0008295747
0.0008298073
6.417514e-12
-3.854862e-06
9.1091e-07
8.999974e-07
9.044899e-07
9.191503e-07
-0.0008300444
0.0008302736
6.567307e-12
-3.901108e-06
9.227008e-07
9.131741e-07
9.168688e-07
9.326037e-07
-0.0008305006
0.0008307268
6.829473e-12
-3.952011e-06
9.354186e-07
9.274044e-07
9.30362e-07
9.445592e-07
-0.0008309543
0.0008311833
7.550896e-12
-4.002911e-06
9.46907e-07
9.400221e-07
9.42488e-07
9.559157e-07
-0.0008314137
0.0008316472
8.310971e-12
-4.053387e-06
9.579889e-07
9.518959e-07
9.540906e-07
9.659021e-07
-0.000831883
0.0008321222
8.123335e-12
-4.099549e-06
9.677975e-07
9.623112e-07
9.642842e-07
9.747941e-07
-0.000832364
0.0008326097
7.694119e-12
-4.141898e-06
9.764779e-07
9.715703e-07
9.733224e-07
9.827519e-07
-0.0008328581
0.0008331108
8.086626e-12
-4.181118e-06
9.842979e-07
9.798771e-07
9.814872e-07
9.899124e-07
-0.0008333664
0.0008336266
8.889423e-12
-4.217511e-06
9.913366e-07
9.873096e-07
9.887923e-07
9.963382e-07
-0.0008338898
0.0008341578
9.148818e-12
-4.25138e-06
9.976774e-07
9.939825e-07
9.953656e-07
1.002214e-06
-0.0008344291
0.0008347052
9.308444e-12
-4.283285e-06
1.003494e-06
1.000088e-06
1.001422e-06
1.007684e-06
-0.0008349846
0.0008352688
9.698897e-12
-4.313636e-06
1.008918e-06
1.005782e-06
1.007076e-06
1.012834e-06
-0.0008355563
0.0008358485
1.000907e-11
-4.342623e-06
1.014039e-06
1.011122e-06
1.012383e-06
1.017713e-06
-0.0008361442
0.0008364446
1.049173e-11
-4.370322e-06
1.018874e-06
1.016096e-06
1.017254e-06
1.022291e-06
-0.0008367484
0.0008370568
1.11011e-11
-4.396734e-06
1.023446e-06
1.020733e-06
1.021895e-06
1.026712e-06
-0.0008373685
0.0008376847
1.161118e-11
-4.422415e-06
1.02782e-06
1.025284e-06
1.026445e-06
1.031011e-06
-0.0008380041
0.0008383278
1.199765e-11
-4.447396e-06
1.032131e-06
1.02973e-06
1.030887e-06
1.03529e-06
-0.0008386546
0.0008389854
1.23201e-11
-4.4719e-06
1.036411e-06
1.034115e-06
1.035267e-06
1.039516e-06
-0.0008393193
0.0008396571
1.251053e-11
-4.495865e-06
1.040638e-06
1.038422e-06
1.039564e-06
1.043714e-06
-0.0008399978
0.0008403421
1.258562e-11
-4.519348e-06
1.044836e-06
1.042688e-06
1.043833e-06
1.047898e-06
-0.0008406893
0.0008410397
1.270845e-11
-4.542437e-06
1.049028e-06
1.046952e-06
1.048109e-06
1.052065e-06
-0.0008413931
0.0008417493
1.287536e-11
-4.565073e-06
1.053202e-06
1.051181e-06
1.052336e-06
1.056206e-06
-0.0008421084
0.0008424701
1.301729e-11
-4.587163e-06
1.057352e-06
1.055366e-06
1.056528e-06
1.060306e-06
-0.0008428346
0.0008432012
1.321536e-11
-4.60864e-06
1.061465e-06
1.059525e-06
1.060711e-06
1.064333e-06
-0.0008435705
0.0008439416
1.341022e-11
-4.629281e-06
1.065507e-06
1.063603e-06
1.064798e-06
1.068228e-06
-0.0008443154
0.0008446901
1.36244e-11
-4.648706e-06
1.069429e-06
1.067531e-06
1.068744e-06
1.071904e-06
-0.0008450677
0.0008454453
1.384904e-11
-4.666386e-06
1.07314e-06
1.071252e-06
1.072514e-06
1.075248e-06
-0.0008458258
0.0008462049
1.402096e-11
-4.681538e-06
1.076542e-06
1.074662e-06
1.075992e-06
1.078029e-06
-0.0008465869
0.0008469657
1.418008e-11
-4.692698e-06
1.079423e-06
1.077496e-06
1.078918e-06
1.079831e-06
-0.0008473474
0.0008477235
1.429549e-11
-4.697318e-06
1.081362e-06
1.079281e-06
1.080796e-06
1.079797e-06
-0.0008481015
0.0008484701
1.428379e-11
-4.690152e-06
1.081549e-06
1.079211e-06
1.080959e-06
1.076344e-06
-0.0008488371
0.0008491889
1.429603e-11
-4.659842e-06
1.078201e-06
1.075795e-06
1.077684e-06
1.064107e-06
-0.0008495297
0.0008498523
1.424332e-11
-4.578599e-06
1.06437e-06
1.063622e-06
1.063912e-06
1.021297e-06
-0.0008501662
0.0008505062
1.414748e-11
-4.40415e-06
1.011232e-06
1.020834e-06
1.010786e-06
9.191074e-07
-0.0008509081
0.0008514069
1.399959e-11
-4.103876e-06
8.838752e-07
9.18667e-07
8.834116e-07
7.935363e-07
-0.000851952
0.0008525116
1.376388e-11
-3.708385e-06
7.812584e-07
7.931418e-07
7.808796e-07
7.734772e-07
-0.0008530457
0.0008535593
1.365842e-11
-3.615845e-06
7.780168e-07
7.731325e-07
7.776841e-07
7.726366e-07
-0.0008540686
0.0008545794
1.340542e-11
-3.603292e-06
7.739542e-07
7.722886e-07
7.736097e-07
7.659796e-07
-0.0008550881
0.0008555918
1.300092e-11
-3.571908e-06
7.684563e-07
7.656431e-07
7.681303e-07
7.625058e-07
-0.000856085
0.0008565685
1.183351e-11
-3.543042e-06
7.675949e-07
7.62186e-07
7.672891e-07
7.51375e-07
-0.0008570395
0.0008575125
8.891694e-12
-3.488593e-06
7.567681e-07
7.510357e-07
7.564347e-07
7.189123e-07
-0.0008579906
0.0008585473
-5.591399e-12
-3.410291e-06
7.083483e-07
7.18534e-07
7.078994e-07
5.399396e-07
-0.0008595085
0.0008610809
-3.714067e-12
-3.883522e-06
6.161304e-07
5.391715e-07
6.159276e-07
8.620607e-07
-0.0008621831
0.0008616053
2.571399e-11
-2.618557e-06
7.328101e-07
8.653634e-07
7.360923e-07
7.336552e-07
-0.0008614681
0.0008619618
1.613271e-11
-3.287984e-06
6.589473e-07
7.383561e-07
6.633158e-07
7.098136e-07
-0.0008624131
0.000862936
1.104004e-11
-3.288957e-06
6.693948e-07
7.137456e-07
6.730413e-07
6.850886e-07
-0.0008634116
0.000864003
9.233624e-12
-3.282737e-06
6.574266e-07
6.883596e-07
6.60516e-07
6.810078e-07
-0.0008645991
0.0008652552
8.75315e-12
-3.355126e-06
6.657038e-07
6.838551e-07
6.684267e-07
6.93631e-07
-0.0008658996
0.0008665644
8.336265e-12
-3.43062e-06
6.866411e-07
6.963696e-07
6.891523e-07
7.080886e-07
-0.0008672201
0.0008678974
7.898831e-12
-3.506325e-06
7.04271e-07
7.102591e-07
7.063519e-07
7.214486e-07
-0.000868571
0.0008692617
8.207563e-12
-3.577309e-06
7.200444e-07
7.233032e-07
7.218363e-07
7.345188e-07
-0.000869948
0.0008706485
9.073605e-12
-3.64166e-06
7.344411e-07
7.361189e-07
7.360258e-07
7.470518e-07
-0.000871347
0.0008720572
9.764467e-12
-3.702582e-06
7.479288e-07
7.483039e-07
7.491635e-07
7.58037e-07
-0.0008727646
0.0008734841
9.819529e-12
-3.757494e-06
7.594431e-07
7.595796e-07
7.609183e-07
7.691236e-07
-0.0008742028
0.0008749322
9.271288e-12
-3.812304e-06
7.711781e-07
7.70275e-07