/*--------------------------------*- C++ -*----------------------------------*\
| =========                 |                                                 |
| \\      /  F ield         | foam-extend: Open Source CFD                    |
|  \\    /   O peration     | Version:     3.1                                |
|   \\  /    A nd           | Web:         http://www.extend-project.de       |
|    \\/     M anipulation  |                                                 |
\*---------------------------------------------------------------------------*/
FoamFile
{
    version     2.0;
    format      ascii;
    class       volScalarField;
    location    "6";
    object      omega;
}
// * * * * * * * * * * * * * * * * * * * * * * * * * * * * * * * * * * * * * //

dimensions      [0 0 -1 0 0 0 0];

internalField   nonuniform List<scalar> 
119952
(
185.1987
225.3715
208.0698
179.073
158.3753
157.0457
158.2931
161.0929
165.0569
169.9199
175.4492
181.4532
187.6901
194.0121
200.3497
206.3795
211.6849
216.5548
221.3801
226.7708
193.8106
191.109
191.7125
164.3188
159.577
157.1492
155.1569
153.5594
150.1667
193.288
543.3966
456.3234
384.648
331.9095
292.0822
261.1984
236.4693
216.2106
199.2298
180.792
155.4135
137.6759
125.2237
115.8501
108.3393
102.022
96.54893
91.71232
87.4762
69.00824
67.04862
65.08848
63.16525
61.36358
59.70435
58.19074
56.8287
55.61698
54.59223
53.75567
52.96622
52.26396
51.63305
51.03931
50.44792
49.83321
49.17156
48.37279
48.40747
48.36931
47.82489
47.51578
47.41741
47.49211
47.51353
47.47866
47.38016
47.20929
46.96001
46.62995
46.21617
45.71848
45.13829
44.47237
43.72084
42.88565
41.96133
40.94032
39.85263
38.81818
37.6692
36.58706
35.71811
34.85258
34.04422
33.44023
33.26817
33.31227
32.76778
32.11919
31.44397
30.78358
30.14494
29.5345
28.95389
28.40428
27.8856
27.39771
26.94032
26.51278
26.11411
25.74319
25.39867
25.07938
24.78418
24.51193
24.2615
24.03178
23.82164
23.63005
23.45594
23.2983
23.1562
23.02875
22.91508
22.81443
22.72619
22.64971
22.58432
22.52978
22.48586
22.45234
22.429
22.41559
22.4119
22.41771
22.43283
22.45712
22.49043
22.53267
22.58377
22.64352
22.71186
22.78834
22.87162
22.95521
23.02422
23.16761
23.38163
23.60946
23.83368
24.04717
24.24894
24.43987
24.62187
24.79712
24.96771
25.1355
25.30209
25.46885
25.6369
25.80718
25.98042
26.15724
26.3381
26.52343
26.71349
26.90863
27.10949
27.31585
27.52774
27.74554
27.96963
28.19928
28.43495
28.67826
28.93013
29.18944
29.45645
29.73161
30.0153
30.30787
30.6097
30.92115
31.24262
31.57455
31.91728
32.27127
32.63692
33.01467
33.40502
33.8085
34.2255
34.65494
35.09333
35.5326
35.89842
38.01192
41.90354
44.9644
47.32758
49.14087
50.56982
51.7408
52.74072
53.6296
54.44839
55.22743
55.98189
56.72321
57.46668
58.21879
58.98513
59.76973
60.57596
61.40652
62.2637
63.14953
64.06592
65.01453
65.99702
67.0152
68.07057
69.16471
70.29874
71.47374
72.69048
73.94885
75.24676
76.57529
77.88861
79.12727
79.17634
78.00502
76.93393
75.9261
74.95853
74.01924
73.10184
72.20064
71.31216
70.43462
69.56723
68.70974
67.86227
67.0252
66.1991
65.38452
64.58203
63.79208
63.01507
62.25129
61.50095
60.76417
60.04104
59.33158
58.63577
57.95351
57.28482
56.62966
55.98789
55.35939
54.74399
54.14126
53.55227
52.97937
52.42187
41.12999
40.78253
40.34041
39.76431
39.15932
38.55178
37.95222
37.37958
36.84443
36.35083
35.89873
35.48682
35.11253
34.77187
34.46102
34.17621
33.91392
33.67097
33.44455
33.23223
33.03193
32.84191
32.66071
32.48714
32.32021
32.15912
32.00319
31.85185
31.70462
31.56107
31.42085
31.28361
31.14906
31.01689
30.88681
30.75853
30.63178
30.50631
30.38187
30.25829
30.13547
30.01352
29.89301
29.77564
29.66541
29.56616
29.47651
29.38949
29.30327
29.21774
29.13242
29.04814
28.96525
28.88652
28.89673
28.80658
28.72783
28.64314
28.54038
28.42032
28.28435
28.13517
27.97636
27.81135
27.64317
27.47441
27.30709
27.14266
26.9822
26.82636
26.67548
26.52968
26.38889
26.25291
26.12146
25.99413
25.8705
25.75016
25.63271
25.51779
25.40506
25.29425
25.18508
25.07732
24.9708
24.86532
24.76076
24.65698
24.55387
24.45135
24.34935
24.24782
24.14672
24.04603
23.94572
23.84577
23.74616
23.64687
23.54789
23.4492
23.35081
23.25272
23.15493
23.05745
22.96027
22.86341
22.76685
22.6706
22.57466
22.47901
22.38366
22.28859
22.1938
22.09927
22.00497
21.91087
21.81695
21.72317
21.62946
21.53578
21.44205
21.34818
21.25406
21.15955
21.06447
20.9686
20.87167
20.77337
20.6732
20.5705
20.46428
20.35309
20.23443
20.10388
19.95168
19.75658
19.47215
19.05238
18.93049
557.3948
460.8763
411.1102
375.3321
345.21
318.8712
295.6814
275.2336
256.3884
213.6959
169.3681
142.9311
126.0068
114.3857
105.8707
99.26045
93.87332
89.3136
70.06011
66.92716
63.92111
61.09578
58.50718
56.17204
54.07934
52.20321
50.51442
48.97297
47.62058
46.35132
45.10667
43.89075
42.70875
41.56527
40.46403
39.40722
38.39497
37.62673
37.03746
36.36862
35.66658
34.94741
34.22279
33.50361
32.7998
32.11895
31.46528
30.83583
30.23943
29.68103
29.15746
28.66633
28.20717
27.77946
27.384
27.03535
24.02265
23.77064
23.5503
23.36024
23.19576
23.05354
22.92972
22.81633
22.71159
22.61702
22.53626
22.46648
22.40587
22.36232
22.33996
22.33566
22.34728
22.38032
22.44238
22.56539
22.70393
22.82198
22.96854
23.14417
23.32984
23.51256
23.69161
23.86727
24.03874
24.20542
24.36701
24.52197
24.66803
24.80241
24.92105
25.01819
25.0875
25.12264
25.11975
25.07829
24.99911
24.87731
24.73686
24.59625
24.43647
24.25108
24.04344
23.78201
23.43438
23.05953
22.67863
22.28676
21.8868
21.48227
21.07718
20.67476
20.27744
19.88709
19.50532
19.13347
18.77255
18.42325
18.08602
17.76114
17.44875
17.14887
16.86142
16.58628
16.32322
16.072
15.83232
15.60381
15.3861
15.17875
14.98125
14.79291
14.61327
14.44247
14.28062
14.12729
13.98204
13.84449
13.7143
13.59115
13.47472
13.36471
13.26081
13.16274
13.07019
12.98286
12.90046
12.8227
12.74927
12.67988
12.6142
12.55192
12.49283
12.43708
12.38493
12.33636
12.29119
12.24941
12.21078
12.175
12.14182
12.11103
12.08237
12.05563
12.0306
12.00708
11.98493
11.96401
11.94418
11.92536
11.90747
11.89044
11.87423
11.85888
11.84465
11.83209
11.82101
11.81118
11.80243
11.79464
11.78772
11.78162
11.77632
11.77181
11.76805
11.76502
11.76269
11.76104
11.76007
11.75976
11.76011
11.76111
11.76273
11.76496
11.76764
11.77053
11.77358
11.77692
11.78043
11.78414
11.78753
11.79021
11.79079
11.77694
12.10278
12.49436
12.77975
12.98802
13.14154
13.256
13.34272
13.40972
13.46265
13.50544
13.54086
13.57083
13.59677
13.61964
13.6401
13.65868
13.67573
13.69154
13.70632
13.72024
13.73344
13.74602
13.75808
13.76973
13.78087
13.79163
13.80198
13.81182
13.821
13.8292
13.83587
13.83996
13.83937
13.8295
13.79899
13.74652
13.68466
13.62039
13.55405
13.48574
13.41608
13.3456
13.27468
13.20362
13.13268
13.06207
12.99197
12.92253
12.85385
12.78601
12.71907
12.65307
12.58805
12.52401
12.46095
12.39888
12.33778
12.27765
12.21846
12.16021
12.10287
12.04644
11.9909
11.93625
11.88249
11.82963
11.7777
11.72677
11.677
11.63039
10.06572
9.996564
9.938536
9.887384
9.840312
9.795993
9.753953
9.713872
9.675398
9.638245
9.602237
9.567289
9.533351
9.500404
9.46846
9.437553
9.407726
9.379033
9.351532
9.325281
9.300339
9.276759
9.254588
9.233868
9.214631
9.196899
9.180686
9.165996
9.152824
9.141155
9.130963
9.122214
9.114865
9.108862
9.104146
9.10065
9.098302
9.097029
9.096757
9.097421
9.098979
9.101423
9.104793
9.109136
9.114465
9.120635
9.127273
9.133946
9.140495
9.146847
9.152967
9.158596
9.163743
9.170131
9.177657
9.181843
9.182938
9.182624
9.181451
9.179378
9.176324
9.172251
9.167128
9.160923
9.15361
9.145181
9.135655
9.125063
9.113452
9.100881
9.087416
9.073132
9.058111
9.042435
9.026187
9.009446
8.992287
8.974779
8.956988
8.938971
8.920781
8.902463
8.88406
8.865606
8.847131
8.828662
8.810218
8.791816
8.773466
8.755179
8.736961
8.718815
8.700743
8.682746
8.66482
8.646963
8.629167
8.611427
8.593737
8.576089
8.558477
8.540895
8.523337
8.505797
8.488268
8.470746
8.453223
8.435693
8.41815
8.400587
8.382998
8.365374
8.347708
8.32999
8.31221
8.294355
8.276412
8.258363
8.240193
8.221873
8.203383
8.184678
8.165733
8.146479
8.126877
8.106822
8.086248
8.064989
8.042913
8.019728
7.995141
7.968578
7.93932
7.906178
7.867751
7.823025
7.772451
7.722738
7.677135
644.5378
558.7696
489.0694
437.5611
398.1007
367.0639
341.9147
321.1826
303.631
281.7535
188.2211
172.1495
158.991
147.7823
138.0047
129.0797
120.5855
111.7211
97.70718
71.04146
69.42023
68.46578
67.71205
66.89804
65.9485
64.90035
63.71299
62.21512
59.54336
56.65191
55.06518
53.82471
52.66667
51.52731
50.40671
49.3044
48.23014
47.19492
46.8431
45.93312
44.83852
43.71328
42.62615
41.60071
40.64113
39.74339
38.90235
38.11788
37.37005
36.64663
35.94146
35.2521
34.58058
33.93005
33.30306
32.70767
29.96394
29.47776
29.01859
28.58165
28.1625
27.75743
27.36384
26.97985
26.6039
26.23386
25.86874
25.50956
25.15482
24.80291
24.45191
24.10196
23.75291
23.40498
23.05811
22.71261
22.37101
22.03415
21.70195
21.37549
21.05568
20.7434
20.43951
20.14469
19.85993
19.58687
19.32543
19.07565
18.83819
18.61373
18.40251
18.205
18.02003
17.84064
17.71355
17.59652
17.48401
17.37545
17.27202
17.17511
17.08724
17.01612
16.96262
16.92446
16.89943
16.88557
16.88191
16.88867
16.90475
16.9308
16.96608
17.01287
17.07035
17.14317
17.23213
17.32362
17.41924
17.52323
17.63536
17.74957
17.863
17.97545
18.08734
18.19913
18.3113
18.42403
18.53728
18.65066
18.76308
18.87283
18.97768
19.07478
19.16089
19.23547
19.29991
19.35324
19.3944
19.42963
19.45656
19.4666
19.45106
19.4081
19.32192
19.19453
19.03944
18.86341
18.66825
18.45575
18.22841
17.98918
17.74087
17.48599
17.22674
16.96517
16.70304
16.44188
16.18294
15.92727
15.67572
15.42897
15.18755
14.95189
14.7223
14.49902
14.2822
14.07196
13.86837
13.6715
13.48145
13.29851
13.12273
12.95355
12.79086
12.63456
12.48452
12.34063
12.20275
12.07072
11.94436
11.8235
11.70795
11.59748
11.4919
11.39097
11.29448
11.20218
11.11385
11.02925
10.94813
10.87029
10.79556
10.72387
10.65517
10.5893
10.52597
10.46498
10.40614
10.34939
10.29451
10.24146
10.19012
10.14036
10.09208
10.04516
9.999496
9.955005
9.911595
9.869188
9.827717
9.787124
9.747366
9.708426
9.67032
9.633068
9.596554
9.560804
9.525795
9.491497
9.457885
9.424939
9.392679
9.360994
9.329923
9.299478
9.269573
9.240242
9.211481
9.183266
9.155598
9.128452
9.101848
9.075773
9.050358
9.025688
9.001789
8.978375
8.955569
8.932911
8.910782
8.888227
8.866121
8.843013
8.838585
8.824093
8.80329
8.778571
8.751728
8.723827
8.695512
8.66715
8.638932
8.610942
8.583184
8.555589
8.528141
8.500811
8.473551
8.446315
8.419054
8.391722
8.364271
8.33666
8.308852
8.280809
8.252556
8.223905
8.194913
8.16552
8.135564
8.104944
8.073543
8.041184
8.007588
7.972313
7.935025
7.896135
7.855412
7.813174
7.770289
7.727197
7.683866
7.640322
7.596634
7.55286
7.509052
7.465264
7.421553
7.377969
7.33456
7.291373
7.248451
7.205836
7.163564
7.121672
7.080188
7.039141
6.998555
6.958452
6.91885
6.879768
6.841218
6.803216
6.765768
6.728891
6.692584
6.656868
6.621736
6.587225
6.553321
6.520097
6.487438
6.453284
6.441083
6.427446
6.411993
6.394615
6.376019
6.356808
6.337333
6.317754
6.298156
6.278605
6.259168
6.239914
6.220903
6.20219
6.183823
6.165851
6.148316
6.131263
6.114734
6.098768
6.083406
6.068684
6.054639
6.041301
6.028701
6.016865
6.005815
5.995571
5.986146
5.977552
5.969793
5.962871
5.956779
5.95151
5.947048
5.943379
5.940478
5.938326
5.936895
5.936165
5.936113
5.936727
5.937988
5.93988
5.942361
5.945371
5.948781
5.952457
5.956264
5.960148
5.96401
5.967778
5.971351
5.974601
5.977575
5.980434
5.983136
5.985653
5.987744
5.98927
5.990199
5.990542
5.990312
5.989522
5.98819
5.986337
5.983983
5.981155
5.977879
5.974182
5.970092
5.965639
5.960853
5.955764
5.950402
5.944798
5.938979
5.932974
5.926809
5.920505
5.914086
5.907571
5.900976
5.894317
5.887608
5.88086
5.874082
5.867282
5.860467
5.853643
5.846813
5.83998
5.833148
5.826316
5.819484
5.812651
5.805815
5.798974
5.792124
5.785262
5.778386
5.771493
5.764578
5.75764
5.750674
5.743676
5.736644
5.729572
5.722458
5.715296
5.708083
5.700814
5.693482
5.686084
5.67861
5.671057
5.663413
5.655672
5.647819
5.639845
5.631728
5.62346
5.615002
5.606347
5.597434
5.588254
5.578708
5.568786
5.558317
5.54728
5.535374
5.522556
5.508317
5.492644
5.474892
5.455407
5.433691
5.411396
5.389666
373.0989
263.957
390.642
171.6021
133.9501
99.67371
85.60159
74.24111
64.86878
60.57272
58.83112
57.82936
56.64258
55.36877
54.16087
53.05136
52.02179
51.06658
50.19136
49.4143
48.75523
48.2509
48.00747
47.9629
48.00976
48.13215
48.29757
48.4733
48.6242
48.70927
48.69902
48.08376
48.28515
48.35182
48.28688
48.09748
47.76298
47.19479
46.54748
45.82661
45.05814
44.19922
43.283
42.33553
41.37391
40.41211
39.46164
38.52814
37.61647
36.73179
35.87833
35.05791
34.26588
33.50071
32.7634
32.05451
31.37305
30.71974
30.09495
29.4974
28.92533
28.37796
27.85428
27.35327
26.87449
26.41669
25.98004
25.5571
25.17807
24.8117
24.45951
24.12009
23.79176
23.47336
23.16386
22.86213
22.56682
22.27667
21.99076
21.70827
21.427
21.14638
20.86597
20.58547
20.30475
20.0239
19.74305
19.46271
19.18346
18.9057
18.63029
18.35831
18.09083
17.82882
17.57322
17.32483
17.08458
16.85312
16.63096
16.41855
16.21637
16.02469
15.84356
15.67215
15.50911
15.35483
15.21086
15.07627
14.95329
14.8425
14.74357
14.65616
14.58007
14.51517
14.46091
14.41672
14.3821
14.35664
14.33992
14.33159
14.33111
14.33826
14.35274
14.37461
14.40363
14.44018
14.48382
14.53163
14.58246
14.63679
14.69455
14.75411
14.81411
14.87412
14.93435
14.99521
15.05714
15.12064
15.18617
15.25412
15.32468
15.39782
15.47317
15.55021
15.62819
15.70678
15.78573
15.86468
15.94248
16.01941
16.09296
16.15908
16.21267
16.25044
16.26584
16.25625
16.22488
16.1751
16.10789
16.0235
15.92266
15.80683
15.67775
15.53719
15.38686
15.22841
15.06344
14.89341
14.71963
14.54326
14.3653
14.1866
14.00789
13.82977
13.65274
13.47723
13.3036
13.13216
12.9632
12.797
12.63384
12.47404
12.31794
12.16595
12.01788
11.87351
11.73301
11.59648
11.46399
11.33561
11.21137
11.09129
10.97533
10.86345
10.75558
10.65163
10.55149
10.45502
10.36209
10.27255
10.18625
10.10303
10.02275
9.945309
9.870603
9.798477
9.728703
9.661072
9.595428
9.531649
9.469613
9.409197
9.35033
9.292774
9.236507
9.181437
9.127472
9.074531
9.022544
8.971445
8.921213
8.871705
8.822948
8.774908
8.727557
8.680868
8.634824
8.589411
8.544621
8.500444
8.456871
8.413899
8.371522
8.329735
8.288533
8.247914
8.207877
8.168418
8.129536
8.091225
8.053485
8.016305
7.979689
7.943622
7.908117
7.873156
7.838774
7.804908
7.77159
7.738702
7.706325
7.674291
7.642799
7.611714
7.582008
7.552928
7.52389
7.49476
7.465515
7.436155
7.406708
7.377078
7.347323
7.317446
7.287457
7.257406
7.227267
7.197012
7.166652
7.136054
7.105259
7.074241
7.042973
7.01143
6.979634
6.94744
6.914899
6.881993
6.848745
6.815002
6.780915
6.746463
6.711586
6.676209
6.640296
6.603574
6.566028
6.527599
6.48832
6.448371
6.408087
6.367741
6.327482
6.287132
6.246799
6.206501
6.166255
6.12609
6.0861
6.046141
6.006355
5.966776
5.927502
5.888379
5.849545
5.811027
5.772849
5.735029
5.697588
5.660543
5.623912
5.587711
5.551955
5.516656
5.481829
5.447481
5.413629
5.380267
5.347423
5.315083
5.283358
5.252056
5.221387
5.191149
5.162119
5.134044
5.106898
5.080641
5.055193
5.030462
5.006372
4.982872
4.959932
4.937537
4.91568
4.894362
4.873588
4.853365
4.833701
4.814605
4.796088
4.778161
4.760835
4.744122
4.728035
4.712585
4.697784
4.683643
4.67017
4.657376
4.645266
4.63385
4.62313
4.61311
4.603791
4.595172
4.587247
4.58001
4.573453
4.567566
4.562336
4.557749
4.55379
4.550444
4.547694
4.545522
4.543908
4.542828
4.54225
4.542134
4.542418
4.54303
4.5439
4.544974
4.546203
4.54755
4.548984
4.550513
4.552108
4.55366
4.555018
4.556151
4.557072
4.557788
4.558294
4.558579
4.558634
4.558451
4.558029
4.557369
4.556475
4.555354
4.554015
4.55247
4.550732
4.548814
4.546731
4.544498
4.54213
4.539644
4.537053
4.534374
4.53162
4.528805
4.52594
4.523035
4.520101
4.517146
4.514176
4.511197
4.508215
4.505232
4.502253
4.499279
4.496312
4.493352
4.490401
4.487457
4.484519
4.481585
4.478654
4.475721
4.472784
4.469841
4.466888
4.463921
4.460939
4.457936
4.454911
4.451859
4.448776
4.44566
4.442506
4.439311
4.43607
4.43278
4.429435
4.426032
4.422565
4.419029
4.415418
4.411724
4.40794
4.404057
4.400064
4.395949
4.391696
4.38729
4.382704
4.377919
4.372892
4.367593
4.361957
4.355934
4.349421
4.342348
4.334569
4.326023
4.31656
4.306216
4.294883
4.282983
4.27102
351.8603
232.6374
172.9581
157.0489
126.6956
107.2856
91.83889
85.7163
78.95252
74.85939
71.21263
66.47662
61.81778
57.44338
53.43642
49.13545
43.22089
41.72859
40.63732
40.00868
39.77262
39.76346
39.83307
39.93633
40.07335
40.24644
40.45646
40.70335
40.98688
41.30732
41.66775
42.07142
42.49718
42.93039
43.36707
43.80398
44.23652
44.66057
45.07202
45.4657
45.82711
46.04317
45.93567
45.98462
45.91576
45.70987
45.31069
44.79401
44.14233
43.38494
42.54766
41.64717
40.68991
39.68917
38.66647
37.64101
36.62753
35.63759
34.67703
33.75046
32.86124
32.00958
31.19694
30.42307
29.68669
28.98417
28.31328
27.67424
27.0684
26.49451
25.95075
25.43524
24.94657
24.4835
24.0448
23.62945
23.23618
22.86392
22.51054
22.1751
21.85755
21.55671
21.27051
20.99676
20.73384
20.48021
20.23452
19.99469
19.75942
19.52719
19.29651
19.06614
18.83513
18.60282
18.36876
18.13273
17.8944
17.65417
17.4128
17.171
16.9296
16.68951
16.45173
16.21721
15.98684
15.76147
15.54191
15.32884
15.12287
14.9245
14.7341
14.55189
14.37805
14.21272
14.05658
13.911
13.77556
13.65007
13.53439
13.42826
13.33139
13.24363
13.16479
13.09461
13.03271
12.97871
12.9323
12.89323
12.86123
12.83599
12.81723
12.80467
12.79805
12.79713
12.80167
12.81138
12.82588
12.84448
12.86615
12.89009
12.91596
12.94336
12.97162
13.00009
13.02849
13.05686
13.08547
13.11466
13.14489
13.17667
13.21054
13.24706
13.28669
13.32982
13.37673
13.42764
13.48266
13.54177
13.60484
13.67129
13.74044
13.81064
13.8795
13.94384
14.00082
14.04703
14.08026
14.10026
14.10755
14.10214
14.08371
14.05212
14.00773
13.95127
13.88366
13.8059
13.71909
13.62434
13.52276
13.41541
13.30327
13.1872
13.06798
12.94624
12.82254
12.69734
12.57101
12.44386
12.31617
12.18818
12.06013
11.93226
11.8048
11.67803
11.55225
11.42783
11.30516
11.18406
11.06448
10.94667
10.83085
10.71722
10.60597
10.49725
10.39119
10.28788
10.18737
10.08972
9.994924
9.902969
9.813819
9.727422
9.643713
9.562622
9.484073
9.407983
9.334238
9.262686
9.193173
9.125559
9.059719
8.99553
8.932872
8.87163
8.811741
8.752965
8.695296
8.63864
8.582914
8.528083
8.47397
8.42059
8.367894
8.31584
8.264388
8.21351
8.163183
8.113392
8.064124
8.015373
7.967137
7.919416
7.872212
7.825529
7.779372
7.733748
7.688662
7.644122
7.600132
7.5567
7.513829
7.471524
7.429785
7.388616
7.348012
7.307978
7.268504
7.229598
7.191241
7.153437
7.116157
7.079417
7.043185
7.007499
6.972327
6.937696
6.903614
6.870046
6.836916
6.804154
6.771704
6.739513
6.707536
6.675733
6.644068
6.612508
6.581023
6.549578
6.518139
6.486675
6.455152
6.423535
6.391792
6.359893
6.327807
6.295505
6.262959
6.230145
6.197036
6.163611
6.129847
6.095719
6.061205
6.026275
5.990896
5.955026
5.918625
5.881664
5.844139
5.806091
5.767625
5.728911
5.690114
5.651315
5.612521
5.573724
5.534934
5.496171
5.457458
5.418815
5.380269
5.341846
5.303572
5.265476
5.227583
5.189983
5.152534
5.115366
5.078502
5.041961
5.00576
4.969914
4.934441
4.899356
4.864672
4.830405
4.796629
4.763204
4.730232
4.69773
4.665698
4.634151
4.603083
4.572511
4.542403
4.512793
4.483721
4.455219
4.427285
4.399906
4.373085
4.346833
4.321162
4.296076
4.271578
4.247667
4.224345
4.201615
4.17948
4.157944
4.137012
4.116689
4.096979
4.07789
4.059426
4.041594
4.0244
4.007848
3.991944
3.976691
3.962093
3.948153
3.934872
3.922252
3.910293
3.898993
3.888348
3.878352
3.869001
3.860285
3.852196
3.844725
3.837859
3.831588
3.825897
3.820773
3.816198
3.812154
3.80862
3.805569
3.802971
3.800785
3.798969
3.797477
3.796271
3.795317
3.794585
3.794044
3.793656
3.79338
3.793182
3.793031
3.792902
3.792772
3.792615
3.792406
3.792127
3.791765
3.791311
3.790759
3.790107
3.789354
3.7885
3.78755
3.786506
3.785375
3.784163
3.782877
3.781526
3.780117
3.77866
3.777163
3.775634
3.774081
3.772513
3.770935
3.769355
3.767778
3.766208
3.76465
3.763106
3.76158
3.760073
3.758587
3.757123
3.75568
3.754259
3.752859
3.751478
3.750116
3.748769
3.747436
3.746113
3.744798
3.743488
3.742179
3.740869
3.739554
3.738231
3.736897
3.735548
3.734181
3.732792
3.731378
3.729935
3.728459
3.726948
3.725396
3.7238
3.722155
3.720457
3.718702
3.716883
3.714994
3.713029
3.710979
3.708837
3.70659
3.704228
3.701734
3.699092
3.696279
3.693271
3.690036
3.686539
3.682733
3.678574
3.674006
3.66899
3.66347
3.657454
3.650896
3.643965
3.63697
184.1331
134.975
209.1895
102.4159
87.64212
75.41891
71.48815
68.65756
65.61109
64.27498
62.56765
60.1893
57.91437
55.48461
52.64218
47.55695
46.19111
44.90648
43.66976
42.49239
41.33642
40.25719
39.31434
38.53809
37.94411
37.5254
37.18288
36.84918
36.7085
36.77464
37.01744
37.36621
37.75718
38.16212
38.57331
38.9891
39.40469
39.80941
40.20233
40.59188
40.96628
41.31763
41.64566
41.95408
42.24515
42.52061
42.7796
43.01878
43.22977
43.40173
43.5208
43.56355
43.4999
43.44678
43.15999
42.74502
42.18105
41.47708
40.65801
39.74069
38.74806
37.70254
36.62549
35.53455
34.44728
33.37932
32.34295
31.3468
30.39597
29.49348
28.64047
27.83664
27.08046
26.37015
25.70244
25.07751
24.49335
23.94708
23.43468
22.95286
22.49967
22.07329
21.6721
21.29467
20.93968
20.6059
20.29213
19.9971
19.71968
19.45855
19.21263
18.98077
18.76139
18.55299
18.35359
18.16186
17.97626
17.79518
17.61704
17.44029
17.26348
17.0853
16.90357
16.71695
16.52591
16.33094
16.13292
15.93237
15.72968
15.52541
15.32029
15.11517
14.91101
14.70875
14.50932
14.31359
14.12238
13.93645
13.75655
13.58339
13.41757
13.25957
13.10975
12.96841
12.83575
12.71192
12.59679
12.49024
12.39211
12.30205
12.21969
12.14473
12.07691
12.01595
11.96154
11.91336
11.87115
11.83463
11.80356
11.77767
11.75675
11.74056
11.72886
11.72139
11.71788
11.718
11.7213
11.72726
11.73526
11.74472
11.75518
11.76624
11.77748
11.78853
11.79915
11.80934
11.81924
11.82912
11.83933
11.85034
11.86266
11.87689
11.8936
11.91339
11.93677
11.96427
11.99623
12.03288
12.0743
12.12024
12.17018
12.22311
12.27766
12.33194
12.38412
12.43205
12.47399
12.50889
12.53614
12.55518
12.56539
12.56626
12.55756
12.53936
12.51197
12.47588
12.43168
12.38008
12.32187
12.25783
12.18874
12.11531
12.03821
11.95799
11.87513
11.79002
11.70297
11.6142
11.52389
11.43218
11.33918
11.24498
11.14971
11.05347
10.95644
10.8588
10.76077
10.66272
10.56491
10.46708
10.36928
10.2718
10.17489
10.0788
9.983793
9.890069
9.797825
9.707227
9.618415
9.5315
9.446569
9.363683
9.28288
9.20418
9.127582
9.053064
8.98058
8.910053
8.84139
8.774493
8.709263
8.6456
8.583399
8.522555
8.462967
8.404583
8.347166
8.29071
8.235129
8.180339
8.126266
8.072843
8.020014
7.96773
7.915951
7.864642
7.813778
7.76334
7.713315
7.663696
7.614482
7.565675
7.517281
7.469309
7.421769
7.374672
7.328031
7.28186
7.236171
7.190978
7.146292
7.102124
7.058483
7.015379
6.972818
6.930804
6.889341
6.848434
6.808082
6.768286
6.729044
6.690359
6.652227
6.614653
6.577635
6.541171
6.505262
6.469888
6.435011
6.400596
6.366613
6.333034
6.299828
6.266961
6.234398
6.202106
6.170048
6.138187
6.106484
6.074902
6.043402
6.011945
5.980492
5.949005
5.917446
5.885779
5.853967
5.821975
5.78977
5.757319
5.72459
5.691551
5.658173
5.624425
5.590277
5.555701
5.520678
5.485198
5.449271
5.412935
5.376258
5.33934
5.302277
5.265129
5.227914
5.190637
5.153308
5.115945
5.078567
5.041195
5.00385
4.966555
4.929334
4.892213
4.855217
4.818372
4.781704
4.745231
4.708979
4.67297
4.637225
4.601766
4.566611
4.531778
4.497286
4.463213
4.429416
4.396008
4.363003
4.330413
4.298243
4.266501
4.235193
4.204325
4.173899
4.143929
4.114424
4.085382
4.056796
4.028672
4.001028
3.973883
3.947251
3.921141
3.89556
3.870515
3.846013
3.822063
3.798672
3.775847
3.753595
3.731924
3.71084
3.690349
3.670458
3.651173
3.632499
3.614442
3.597004
3.58019
3.564002
3.548442
3.533512
3.519213
3.505544
3.492503
3.480086
3.468289
3.457105
3.446528
3.43655
3.427164
3.418359
3.410128
3.402458
3.395338
3.388755
3.382693
3.377136
3.372061
3.367447
3.363264
3.359483
3.356071
3.352997
3.350233
3.347752
3.345525
3.343522
3.341719
3.340091
3.338611
3.337252
3.335991
3.334805
3.333678
3.332592
3.331535
3.330495
3.329463
3.328431
3.327393
3.326346
3.325287
3.324214
3.323128
3.322029
3.320921
3.319805
3.318685
3.317566
3.31645
3.315342
3.314246
3.313166
3.312105
3.311067
3.310054
3.309069
3.308114
3.307189
3.306297
3.305437
3.304611
3.303816
3.303055
3.302324
3.301624
3.300952
3.300306
3.299685
3.299085
3.298505
3.297941
3.297391
3.296851
3.296319
3.295792
3.295266
3.294738
3.294206
3.293666
3.293115
3.29255
3.291967
3.291363
3.290736
3.290081
3.289395
3.288674
3.287915
3.287113
3.286264
3.285363
3.284404
3.283382
3.282289
3.281118
3.27986
3.278504
3.277038
3.275447
3.273715
3.271822
3.269747
3.267464
3.264947
3.262169
3.259107
3.255734
3.252054
3.248042
3.243785
3.239509
74.16138
57.49465
56.01342
53.17468
51.96703
50.47327
49.24849
48.1421
47.15049
45.66992
42.4924
42.12143
41.76175
41.41116
41.03378
40.62394
40.22599
39.87604
39.58535
39.33167
38.94794
38.31293
37.70469
37.12278
36.58318
36.08989
35.66637
35.33108
35.09025
34.93779
34.86456
34.86241
34.94964
35.14729
35.45982
35.86262
36.31167
36.76815
37.21152
37.63032
38.0188
38.37064
38.68391
38.97795
39.24573
39.48738
39.70829
39.91576
40.1178
40.31877
40.52008
40.72105
40.91463
41.08264
41.20016
41.24501
41.16049
40.969
40.66536
40.19749
39.57322
38.80637
37.90998
36.91109
35.83762
34.71698
33.5736
32.43011
31.30468
30.21201
29.16364
28.1677
27.22895
26.34947
25.52911
24.7661
24.05802
23.40107
22.79299
22.23202
21.71414
21.23566
20.79172
20.37755
19.99068
19.62903
19.29073
18.97413
18.67776
18.40034
18.14067
17.89763
17.6701
17.45702
17.25724
17.06956
16.89282
16.72575
16.56725
16.41545
16.2693
16.1275
15.98872
15.85166
15.71495
15.57626
15.43309
15.28664
15.13762
14.98531
14.82929
14.66944
14.50589
14.33899
14.16928
13.99748
13.82445
13.65111
13.47846
13.30751
13.13922
12.97452
12.81425
12.65922
12.51012
12.36754
12.23198
12.10382
11.98333
11.87066
11.76579
11.66862
11.57896
11.49654
11.42103
11.35203
11.28921
11.23227
11.18089
11.13478
11.09364
11.0572
11.02522
10.99746
10.97371
10.95375
10.93738
10.92435
10.91443
10.90734
10.90277
10.90035
10.89966
10.90023
10.90162
10.90342
10.90525
10.90682
10.90783
10.9081
10.9076
10.90641
10.90471
10.90279
10.90105
10.89994
10.9
10.90179
10.90591
10.91293
10.92343
10.93784
10.9565
10.97962
11.00717
11.03886
11.07414
11.11223
11.15202
11.19243
11.23197
11.26935
11.30349
11.33353
11.35871
11.37829
11.3916
11.39815
11.39767
11.3901
11.37554
11.35426
11.32666
11.29325
11.25457
11.21124
11.16385
11.11296
11.05909
11.00269
10.94412
10.88368
10.82157
10.75793
10.69286
10.62639
10.55852
10.48925
10.41858
10.34651
10.27305
10.19829
10.12233
10.04534
9.967697
9.889375
9.81004
9.729897
9.649184
9.568159
9.48708
9.406198
9.325752
9.245965
9.167041
9.089162
9.012485
8.937147
8.863258
8.790902
8.720138
8.650998
8.583482
8.517568
8.453218
8.39038
8.328992
8.26898
8.210263
8.152758
8.096428
8.041034
7.986578
7.932971
7.880128
7.827966
7.776409
7.72539
7.674852
7.624743
7.575022
7.525655
7.476614
7.427883
7.379448
7.331306
7.283455
7.235902
7.188654
7.141724
7.095126
7.048875
7.002988
6.957484
6.91238
6.867693
6.823441
6.779638
6.736299
6.693439
6.651068
6.609197
6.567837
6.526997
6.486683
6.446902
6.407661
6.368966
6.330824
6.29324
6.256216
6.219747
6.183821
6.148419
6.113521
6.079112
6.045173
6.011683
5.978619
5.945955
5.913662
5.88171
5.850067
5.818699
5.78757
5.756642
5.725878
5.695236
5.664677
5.634161
5.603644
5.573087
5.54245
5.511691
5.480771
5.449652
5.418296
5.386668
5.354733
5.32246
5.289824
5.256806
5.223397
5.189605
5.155454
5.120987
5.086262
5.051334
5.016245
4.981016
4.945656
4.910177
4.874591
4.838915
4.803168
4.767368
4.731536
4.695695
4.659867
4.624078
4.58835
4.552709
4.517179
4.481783
4.446546
4.411489
4.376636
4.342005
4.30762
4.2735
4.239729
4.20616
4.172911
4.140001
4.10744
4.075239
4.043408
4.011956
3.980893
3.950229
3.919972
3.890128
3.860697
3.831684
3.8031
3.77496
3.747276
3.72006
3.69332
3.667065
3.641302
3.61604
3.591289
3.567057
3.543352
3.520183
3.497556
3.475479
3.45396
3.433004
3.412618
3.392807
3.373577
3.354933
3.336877
3.319411
3.302539
3.286263
3.270585
3.255507
3.241027
3.227144
3.21385
3.20114
3.189006
3.177443
3.166443
3.156001
3.146109
3.136759
3.127941
3.119646
3.111863
3.10458
3.097783
3.091455
3.085581
3.080141
3.075113
3.070464
3.066166
3.062192
3.058522
3.055131
3.051999
3.049104
3.046421
3.043929
3.041608
3.039441
3.037411
3.035502
3.0337
3.031993
3.03037
3.028821
3.027337
3.025912
3.02454
3.023217
3.021938
3.020702
3.019507
3.018351
3.017235
3.016158
3.015121
3.014124
3.01317
3.012257
3.011387
3.010561
3.00978
3.009042
3.008349
3.007701
3.007096
3.006535
3.006017
3.00554
3.005102
3.004704
3.004342
3.004015
3.00372
3.003456
3.003219
3.003008
3.002819
3.002649
3.002497
3.002358
3.002231
3.002112
3.001998
3.001888
3.001777
3.001663
3.001543
3.001415
3.001275
3.001121
3.000949
3.000756
3.00054
3.000297
3.000024
2.999716
2.999369
2.99898
2.998544
2.998054
2.997505
2.99689
2.996201
2.995429
2.994564
2.993594
2.992507
2.991288
2.989922
2.988393
2.986684
2.984783
2.982676
2.980361
2.977826
2.975123
2.97242
101.6574
44.91618
37.85484
36.4583
35.72351
35.3439
35.26736
35.34154
35.53174
35.80326
35.98023
35.93157
35.87708
35.79993
35.7083
35.59538
35.47384
35.34564
35.19821
35.00844
34.75238
34.45542
34.17627
33.92317
33.70573
33.52874
33.40294
33.33683
33.32955
33.37558
33.47285
33.62033
33.82411
34.08706
34.40762
34.76604
35.13235
35.47932
35.79116
36.05754
36.27303
36.46636
36.66412
36.85414
37.04136
37.23213
37.43238
37.6506
37.89183
38.15238
38.41602
38.67371
38.91102
39.09071
39.1688
39.13573
38.96191
38.63421
38.1258
37.44236
36.59638
35.61421
34.52788
33.3724
32.18113
30.98347
29.80238
28.65748
27.56286
26.52833
25.56014
24.66125
23.83189
23.07021
22.37259
21.73471
21.15118
20.61887
20.13365
19.69064
19.28299
18.90617
18.55708
18.2329
17.93132
17.65042
17.38851
17.14411
16.91591
16.7027
16.50334
16.31671
16.14166
15.97701
15.82156
15.67409
15.53341