/*--------------------------------*- C++ -*----------------------------------*\
| =========                 |                                                 |
| \\      /  F ield         | foam-extend: Open Source CFD                    |
|  \\    /   O peration     | Version:     3.1                                |
|   \\  /    A nd           | Web:         http://www.extend-project.de       |
|    \\/     M anipulation  |                                                 |
\*---------------------------------------------------------------------------*/
FoamFile
{
    version     2.0;
    format      ascii;
    class       volScalarField;
    location    "11";
    object      alpha1;
}
// * * * * * * * * * * * * * * * * * * * * * * * * * * * * * * * * * * * * * //

dimensions      [0 0 0 0 0 0 0];

internalField   nonuniform List<scalar> 
119952
(
0.9999801
0.9999927
0.9999963
0.9999955
0.9999926
0.9999042
0.9997198
0.9987652
0.9996412
0.9974353
0.9928604
0.9993865
0.9999962
0.9999971
0.9999999
0.9999998
0.9985089
0.9985995
0.9998046
0.9999925
0.9999954
0.9999992
0.9999998
1
1
0.9999968
1
0.9999998
1
1
0.9999994
0.999999
0.9999988
0.9999984
1
0.9997798
0.9997692
0.999965
0.9999977
0.9993699
0.9999807
0.9998774
0.9997305
0.9970122
0.9989635
0.9997853
0.9966785
0.9999961
0.9315489
0.9317618
0.9731085
0.9985881
0.9943645
0.9959226
0.9993857
0.975051
0.9713422
0.9910307
0.9995403
0.9984768
0.9978563
0.9673207
0.9673206
0.9927536
0.9987199
0.9801765
0.9741021
0.9741021
0.992783
0.9990167
0.9818908
0.9775194
0.9775177
0.9931845
0.9973324
0.9992113
0.9995936
0.9994504
0.999425
0.9982632
0.9940111
0.9838897
0.9841805
0.9925531
0.997968
0.9996985
0.99942
0.9881187
0.9983114
0.9997651
0.9967565
0.9982304
0.9997684
0.999666
0.99999
0.9999977
0.9999997
1
0.9999954
0.9999719
0.9999677
0.999147
0.9992982
0.9995152
0.9994101
0.9998958
0.9986521
0.9999808
0.9999999
0.9999997
0.9999969
0.9915448
0.895652
0.998201
0.9999436
0.9996117
0.9272615
0.8865399
0.8869505
0.9954987
0.999457
0.9998387
0.9999461
0.9999791
0.9999966
0.9999954
0.9998693
0.999613
0.9979753
0.9909243
0.9830422
0.9851199
0.9968389
0.9989739
0.9995177
0.9999292
0.9999841
0.999829
0.9969509
0.9932924
0.9960768
0.9971555
0.9998547
0.9999999
0.9999997
0.9999997
0.9999785
0.9998892
1
1
1
0.9999933
0.9993662
0.9986925
0.9997721
0.999998
0.9999896
0.9987258
0.9979139
0.9998435
0.9999957
0.9999689
0.9996427
0.9910383
0.9477558
0.9660546
0.9989235
0.999906
0.9999884
0.9999992
1
1
0.9999972
0.9999526
0.9997787
0.9995326
0.9990819
0.9987455
0.9986429
0.9989693
0.9999905
0.9999907
0.9999873
0.9999721
0.999951
0.9999844
0.9999245
0.9999876
0.9999911
0.9999901
0.9999972
0.9999998
1
1
1
1
1
1
1
1
1
1
1
1
1
0.9999997
1
0.9999995
1
0.9999992
1
0.9999997
0.9999986
0.9999991
0.9999999
1
1
1
1
1
1
1
1
1
1
1
1
1
1
1
1
1
1
1
1
1
1
1
1
1
1
1
1
1
1
1
1
1
0.9999999
1
1
1
1
1
1
1
1
1
1
1
1
1
1
1
1
1
1
1
1
1
1
1
1
1
1
1
1
1
1
1
1
1
1
1
1
1
1
1
1
1
1
1
1
1
1
1
1
1
1
1
1
1
1
1
1
1
1
1
1
1
1
1
1
1
1
1
1
1
1
1
1
1
1
1
1
1
1
1
1
1
1
1
1
1
1
1
1
1
1
1
1
1
1
1
1
1
1
1
1
1
1
1
1
1
1
1
1
1
1
1
1
1
1
1
1
1
1
1
1
1
1
1
1
1
1
1
1
1
1
1
1
1
1
1
1
1
1
1
1
1
1
1
1
1
1
1
1
1
1
1
1
1
1
1
1
1
1
1
1
1
1
0.9999999
0.9999999
1
1
1
0.9999985
1
0.9999993
0.9999039
0.9999892
0.9999977
0.998946
0.9998578
0.9997977
0.9999159
0.9994632
0.9973227
0.9997433
0.9999815
0.9999865
0.9999901
0.9996957
0.9982945
0.9982945
0.9991826
0.9990327
0.9992348
0.999059
0.9978171
0.9999242
0.9998708
0.9999961
0.9999216
0.9999675
0.9999996
0.9999983
0.9999869
0.9999938
0.9999735
0.9993537
0.9988746
0.9998376
0.9982231
0.9997324
0.9989838
0.9588222
0.9945025
0.9990723
0.9976758
0.9992601
0.9951666
0.9903736
0.9908129
0.9954292
0.9992487
0.9996379
0.9992973
0.9988964
0.9984634
0.9978555
0.9976142
0.9980499
0.9989769
0.9991514
0.9983369
0.9976636
0.9973234
0.9965715
0.9953043
0.9951634
0.9949799
0.9889887
0.9800231
0.9802303
0.991032
0.9962892
0.9970319
0.9978202
0.9991518
0.9998684
0.9999875
0.9999876
0.9999849
0.9998541
0.9982704
0.9867619
0.975871
0.978014
0.9892573
0.9963331
0.9994043
0.9993911
0.9966417
0.9979098
0.9985258
0.999028
0.9995091
0.9998352
0.9999816
0.9999965
0.999983
0.9999829
0.9999958
0.9999941
0.9999434
0.9995728
0.9960773
0.9989268
0.998358
0.9997438
0.9999995
0.9999758
0.99805
0.9801837
0.9599949
0.9805539
0.9988168
0.9998012
0.9974693
0.9858186
0.9636017
0.9190779
0.9057518
0.9858707
0.9990166
0.9999077
0.9999813
0.999808
0.9976451
0.9892656
0.9830256
0.9830256
0.9830256
0.9830256
0.9830221
0.9899399
0.9965959
0.9983475
0.9990132
0.9987863
0.9962013
0.9879076
0.9722127
0.9694761
0.9792133
0.9941846
0.9997762
0.9998252
0.9995152
0.9994946
0.9993768
0.9993212
0.9995924
0.9994929
0.9992736
0.9995065
0.9999207
0.9999833
0.9999786
0.999812
0.9994084
0.9992421
0.9994274
0.9995633
0.9969688
0.9773732
0.9387762
0.9320183
0.987695
0.9993352
0.9999078
0.9999739
0.9999838
0.9999762
0.9998833
0.9995637
0.9988165
0.9976844
0.9966549
0.9960069
0.9961924
0.9957808
0.9889453
0.9723892
0.9762016
0.9704547
0.9591194
0.9615189
0.985602
0.9985304
0.9999402
0.9999845
0.999989
0.9999948
0.9999993
1
1
1
1
1
0.9999993
0.9999965
0.9999971
0.9999991
0.9999967
0.9999967
0.9999973
0.9999973
0.9999972
0.9999981
0.9999986
0.9999984
0.9999979
0.999998
0.9999963
0.9999982
0.9999926
0.9999982
1
1
1
0.9999999
0.9999996
0.9999988
0.9999989
0.9999987
0.9999869
0.9999227
0.9999668
0.9999944
0.9999998
1
1
1
1
1
1
1
1
1
1
1
1
1
1
0.9999998
0.9999942
0.9999991
0.9999998
0.9999972
0.9999991
0.9999995
0.9999982
0.9999852
0.9999118
0.999885
0.9999103
0.9999737
0.9999938
0.9999999
1
1
1
1
1
1
1
1
1
1
1
1
1
1
1
0.9999999
0.9999999
0.9999999
1
1
1
1
1
1
1
1
1
1
1
1
1
1
1
1
1
1
1
1
1
1
1
1
1
1
1
1
1
1
1
1
1
1
1
1
1
1
1
1
1
1
1
1
1
1
1
1
1
1
1
1
1
1
1
1
1
1
1
1
1
1
1
1
1
1
1
1
1
1
1
1
1
1
1
1
1
1
1
1
1
1
1
1
1
1
1
1
1
1
1
1
1
1
1
1
1
1
1
1
1
1
1
1
1
1
1
1
1
1
1
1
1
1
1
1
1
1
1
1
1
1
1
1
1
1
1
1
1
1
1
0.9999999
0.9999999
0.9999996
0.9999998
1
1
1
1
1
1
1
0.9999998
0.9999999
1
1
0.9999999
1
1
0.9999999
0.9999999
0.9999999
0.9999999
0.9999999
0.9999996
0.9999995
0.9999998
0.9999988
0.9999999
0.9999997
0.9999998
1
1
1
1
0.9999998
0.9999887
0.9999692
0.9999421
0.9999883
0.9999981
0.9999993
0.9999996
0.9999955
0.9999658
0.9999786
0.9999993
0.9999859
0.9991977
0.9997007
0.9999717
0.9992551
0.99909
0.9999348
0.9999785
0.9993948
0.9919834
0.988212
0.998167
0.9997942
0.9999763
0.9999907
0.9999887
0.999984
0.9999839
0.9999838
0.9999483
0.9996316
0.9988517
0.9984189
0.9992231
0.9991926
0.9997853
0.9999631
0.9999916
0.9999878
0.999984
0.9999974
0.9999997
0.9999998
0.9999998
0.9999915
0.9997925
0.999109
0.9991206
0.9997463
0.9978151
0.9825997
0.9521814
0.9221214
0.9125865
0.9501578
0.9950386
0.9996326
0.9998321
0.9997428
0.9990394
0.9977655
0.9972777
0.9983967
0.9998568
0.9999808
0.999985
0.9999777
0.9999713
0.9999704
0.999974
0.9999787
0.9999798
0.9999762
0.9999505
0.9999144
0.9998727
0.9997939
0.9995049
0.9988277
0.9979197
0.9968432
0.9913428
0.9889279
0.9912029
0.9964658
0.9994288
0.9999718
0.9999875
0.9999875
0.9999875
0.9999849
0.9999727
0.9997339
0.9911977
0.9686146
0.9759463
0.9926931
0.9985236
0.9977291
0.998781
0.9992725
0.9992065
0.9981064
0.9983085
0.9992082
0.9998709
0.9999845
0.9999969
0.9999969
0.999994
0.9999447
0.9995538
0.9950483
0.9988976
0.9990868
0.9997516
0.9999994
0.9999814
0.9993364
0.9969585
0.9949802
0.993869
0.9980587
0.9996294
0.9970807
0.9884201
0.9780072
0.986884
0.9939307
0.9981197
0.999666
0.9999048
0.9999612
0.9996932
0.9979585
0.9909587
0.9830269
0.9830256
0.9831794
0.9905501
0.9955236
0.9966279
0.9968487
0.9964346
0.9984571
0.9974743
0.9944698
0.993025
0.9878209
0.9699079
0.9534352
0.9665958
0.9918217
0.9968051
0.9967745
0.9963969
0.995859
0.9948396
0.9975747
0.9984707
0.9976233
0.996855
0.9980115
0.9997545
0.9998768
0.9998536
0.9989216
0.9958144
0.9934649
0.995904
0.9980202
0.9949589
0.9750782
0.9503579
0.9518721
0.9878636
0.9981588
0.9990187
0.9985912
0.9980223
0.9984242
0.9984322
0.9984415
0.9993447
0.9994992
0.9995443
0.9995871
0.9994173
0.9984508
0.9890076
0.9023353
0.8519563
0.8519563
0.8872098
0.9716942
0.9975042
0.9998297
0.9999525
0.9999618
0.9999799
0.9999963
0.9999999
1
1
0.9999999
0.9999997
0.9999987
0.9999992
0.9999996
0.9999996
0.9999998
1
1
0.9999996
0.9999952
0.9999936
0.9999956
0.9999984
0.9999981
0.9999955
0.9999885
0.9999874
0.9999874
0.9999874
0.9999897
0.9999906
0.999991
0.9999934
0.9999963
0.9999984
0.9999996
0.9999997
0.9999991
0.9999977
0.9999891
0.9999059
0.9997615
0.9997614
0.9997833
0.9998841
0.9999606
0.9999948
0.9999998
1
1
1
1
1
1
1
0.9999999
0.9999996
0.9999994
0.9999995
0.9999989
0.9999972
0.9999981
0.9999979
0.9999972
0.999996
0.9999885
0.9999262
0.9993204
0.9983567
0.9983563
0.9988331
0.9994277
0.9997312
0.9999114
0.9999823
0.9999975
0.9999998
1
1
1
1
0.9999999
0.9999999
1
1
1
0.9999999
0.9999996
0.9999984
0.9999978
0.9999986
0.9999996
0.9999999
1
1
1
1
1
1
1
1
1
1
1
1
1
1
1
1
1
1
1
1
1
1
1
1
1
1
1
1
1
1
1
1
1
1
1
1
1
1
1
1
1
1
1
1
1
1
1
1
1
1
1
1
1
1
1
1
1
1
1
1
1
1
1
1
1
1
1
1
1
1
1
1
1
1
1
1
1
1
1
1
1
1
1
1
1
1
1
1
1
1
1
1
1
1
1
1
1
1
1
1
1
1
1
1
1
1
1
1
1
1
1
1
1
1
1
1
1
1
1
1
1
1
1
1
1
1
1
1
0.9999997
1
1
0.9999999
1
1
1
1
1
0.9999999
0.9999996
0.9999998
0.9999999
1
0.9999999
0.9999999
1
0.9999999
0.9999999
0.9999999
0.9999999
0.9999998
0.9999998
1
0.9999999
0.9999997
1
1
1
0.9999999
0.9999994
0.9999992
0.9999992
0.9999997
0.9999999
1
0.9999999
0.9999999
0.9999998
0.9999985
0.9999985
0.9999994
0.9999999
1
0.9999995
0.9999696
0.9997176
0.9992759
0.9992118
0.9995591
0.9998055
0.9998632
0.9997939
0.9995841
0.9992354
0.9996419
0.9998893
0.9998295
0.999819
0.9999766
0.9999823
0.9999399
0.9996586
0.995884
0.9895313
0.9884279
0.9892573
0.9967398
0.9997185
0.9999443
0.9999442
0.9999378
0.9999401
0.9998937
0.999838
0.9998444
0.9998205
0.9998149
0.9998412
0.9998789
0.9998982
0.9999255
0.9999522
0.9999792
0.999942
0.9998355
0.9998676
0.9999557
0.999995
0.999998
0.9999942
0.9999853
0.9996814
0.9979306
0.9972544
0.9990032
0.9984271
0.9951935
0.9904147
0.9693807
0.944779
0.9464425
0.9874439
0.9984265
0.9997901
0.9999677
0.9999818
0.9999797
0.9999761
0.9999739
0.9999722
0.9999851
0.9999911
0.9999937
0.9999971
0.9999982
0.9999984
0.9999984
0.9999984
0.9999983
0.9999975
0.9999951
0.9999901
0.9999861
0.9999683
0.9999069
0.9998312
0.9995398
0.9957158
0.9869897
0.9884308
0.9952845
0.9992066
0.9999561
0.9999875
0.9999875
0.9999875
0.9999852
0.9999382
0.9999654
0.9997857
0.9977114
0.9934418
0.9853029
0.9909551
0.9956417
0.998649
0.9992725
0.9992725
0.9978171
0.9931587
0.9965404
0.9992963
0.9999143
0.9999905
0.9999969
0.9999945
0.9999465
0.9995781
0.9968748
0.9991537
0.9996802
0.9998539
0.9999987
0.9999975
0.9999404
0.99965
0.9990074
0.9985657
0.9990083
0.9997417
0.9981894
0.9909327
0.9822316
0.9892851
0.9989763
0.9998863
0.9999427
0.9999428
0.9999428
0.9996798
0.9985958
0.9956313
0.9914095
0.9892599
0.9944076
0.9972879
0.9973582
0.9968484
0.9971088
0.9983516
0.9990812
0.9990462
0.9980018
0.997249
0.9953769
0.9921496
0.9880333
0.9681177
0.928115
0.9092872
0.920893
0.9620652
0.9463262
0.9663183
0.9890693
0.996714
0.9989744
0.9987081
0.9956129
0.9921395
0.9971175
0.9993268
0.9994065
0.9962133
0.9890615
0.9879927
0.9888917
0.9957873
0.9963393
0.9886295
0.9818375
0.9818978
0.9864684
0.9921446
0.9951149
0.997368
0.9980644
0.998469
0.9991355
0.9997354
0.9998289
0.9998559
0.9998947
0.9999129
0.9996872
0.9957716
0.9648226
0.8952841
0.9184529
0.9731088
0.995527
0.9990751
0.9995496
0.9996054
0.9997421
0.9999285
0.9999935
0.9999998
1
1
0.9999999
0.9999997
0.999999
0.9999994
0.9999998
1
1
1
1
1
0.9999999
0.9999997
0.9999995
0.9999986
0.999998
0.9999984
0.9999995
0.9999998
0.9999998
0.9999998
0.9999993
0.999994
0.9999701
0.9999643
0.9999643
0.9999643
0.9999746
0.9999903
0.9999985
0.9999998
0.9999998
0.9999993
0.999999
0.9999961
0.999937
0.9992997
0.9991106
0.9995615
0.9999299
0.9999974
1
1
1
1
1
1
1
1
0.9999999
0.9999992
0.9999969
0.9999969
0.9999986
0.9999997
0.9999999
0.9999998
0.9999993
0.9999961
0.9999752
0.9997999
0.998657
0.9978591
0.9978591
0.9978591
0.9986626
0.9995393
0.9998933
0.9999903
0.9999998
1
1
0.9999997
0.9999985
0.9999958
0.9999958
0.9999982
0.9999995
0.9999999
0.9999998
0.9999986
0.9999887
0.9999718
0.9999712
0.9999786
0.9999913
0.9999986
0.9999999
1
1
1
1
1
1
1
1
1
1
1
1
1
1
1
1
1
1
1
1
1
1
1
1
1
1
1
1
1
1
1
1
1
1
1
1
1
1
1
1
1
1
1
1
1
1
1
1
1
1
1
1
1
1
1
1
1
1
1
1
1
1
1
1
1
1
1
1
1
1
1
1
1
1
1
1
1
1
1
1
1
1
1
1
1
1
1
1
1
1
1
1
1
1
1
1
1
1
1
1
1
1
1
1
1
1
1
1
1
1
1
1
1
1
1
1
1
1
1
1
1
1
1
1
1
1
1
0.9999999
0.9999999
1
0.9999999
1
0.9999999
1
1
0.9999999
1
1
0.9999998
0.9999997
0.9999997
0.9999999
1
1
1
0.9999999
0.9999999
1
1
1
1
1
1
1
1
1
1
1
1
1
1
1
1
1
1
1
1
1
1
1
1
0.9999999
0.9999988
0.9999987
0.9999995
0.9999996
0.9999989
0.9999987
0.9999992
0.9999999
0.9999998
0.9999859
0.9998532
0.9995408
0.9991969
0.9991808
0.9994291
0.9994185
0.9992433
0.9995943
0.9986159
0.9963756
0.9968326
0.9991483
0.9997829
0.9999695
0.9999824
0.9999824
0.9997244
0.9913021
0.9636018
0.9612721
0.9836703
0.9978125
0.9994615
0.9993172
0.9988512
0.9987437
0.9985618
0.9986093
0.9977205
0.9964498
0.996349
0.9978002
0.9996483
0.9999169
0.999968
0.999968
0.9999616
0.9999609
0.9998849
0.999779
0.9994409
0.9996928
0.9998573
0.9999199
0.9999569
0.9999747
0.9996096
0.9969666
0.9946304
0.9977232
0.9992356
0.9994959
0.9992207
0.9964509
0.9917338
0.989868
0.993849
0.9982545
0.9995553
0.9998717
0.9999416
0.9999677
0.9999805
0.9999827
0.9999629
0.9999032
0.9998567
0.9998426
0.9998991
0.9999581
0.9999863
0.9999973
0.9999989
0.9999989
0.9999989
0.9999982
0.999988
0.9999512
0.9999082
0.9999053
0.9999288
0.9999204
0.999602
0.9983761
0.998381
0.9990223
0.999732
0.9999679
0.9999875
0.9999839
0.9999868
0.9999556
0.9990103
0.9987137
0.9994706
0.999913
0.9996918
0.9977765
0.9812385
0.9837065
0.9933002
0.9988937
0.9992725
0.99893
0.9976415
0.9947155
0.9931809
0.9955972
0.9987192
0.999861
0.9999921
0.9999585
0.9997439
0.9990746
0.9994319
0.9999086
0.9999464
0.9999795
0.9999774
0.9999876
0.9999474
0.9997204
0.9995276
0.9996427
0.9999008
0.999583
0.9976932
0.9958285
0.9960891
0.9989496
0.9998352
0.9999426
0.9999427
0.9999428
0.9997068
0.9985852
0.9975733
0.9981107
0.9989793
0.9990601
0.9989852
0.9983012
0.9952504
0.9940515
0.9976798
0.9987807
0.9993699
0.9996353
0.9998351
0.9996919
0.9977558
0.9905985
0.9902463
0.9961967
0.9877608
0.970485
0.9052201
0.9013685
0.9013685
0.9278464
0.9845314
0.9994794
0.999715
0.9956176
0.9898692
0.9898692
0.9923028
0.9953814
0.9980643
0.9975416
0.9909048
0.9878527
0.9878527
0.9882895
0.994364
0.9960618
0.9945459
0.9910095
0.9905215
0.9966349
0.9990944
0.9996556
0.9998908
0.9999072
0.9998269
0.9998244
0.9997934
0.999892
0.9999648
0.9999699
0.9999729
0.9999767
0.999979
0.9999854
0.9999907
0.999991
0.9999779
0.9996002
0.9991733
0.9994841
0.9998761
0.9999876
0.9999963
0.999998
0.9999991
0.9999997
0.9999997
0.9999996
0.9999995
0.9999998
0.9999999
1
1
1
0.9999999
0.9999999
0.9999999
0.9999998
0.999999
0.9999935
0.9999809
0.9999813
0.9999894
0.9999974
0.9999998
1
1
1
0.9999998
0.9999977
0.9999659
0.9998969
0.9998964
0.9999432
0.9999867
0.999999
1
1
0.9999997
0.999989
0.9997204
0.9984906
0.9984224
0.9992756
0.9998759
0.999991
0.9999998
1
1
1
0.9999999
0.9999999
0.9999999
0.9999999
0.9999998
0.9999997
0.9999998
0.9999999
0.9999999
1
1
1
0.9999998
0.9999989
0.9999944
0.9999726
0.9998265
0.9989207
0.997861
0.9978591
0.9981168
0.9993746
0.9999314
0.9999978
0.9999999
0.9999999
0.9999997
0.9999982
0.9999886
0.9999571
0.9999455
0.9999602
0.9999853
0.9999981
0.9999987
0.9999933
0.9999291
0.9996903
0.9996473
0.999789
0.9999488
0.9999964
0.9999999
1
1
1
1
1
1
1
1
1
1
1
1
1
1
1
1
1
1
1
1
1
1
1
1
1
1
1
1
1
1
1
1
1
1
1
1
1
1
1
1
1
1
1
1
1
1
1
1
1
1
1
1
1
1
1
1
1
1
1
1
1
1
1
1
1
1
1
1
1
1
1
1
1
1
1
1
1
1
1
1
1
1
1
1
1
1
1
1
1
1
1
1
1
1
1
1
1
1
1
1
1
1
1
1
1
1
1
1
1
1
1
1
1
1
1
1
1
1
1
1
1
1
1
1
1
1
1
1
1
1
1
1
1
1
1
1
1
1
1
0.9999999
0.9999999
1
1
1
1
1
1
0.9999999
0.9999999
0.9999999
0.9999999
0.9999999
1
1
1
1
1
1
1
1
1
1
1
1
1
0.9999999
0.9999998
0.9999999
0.9999999
1
1
0.9999999
0.9999999
0.9999999
0.9999999
1
1
1
1
1
1
0.9999998
0.9999995
0.9999997
0.9999998
0.9999993
0.9999987
0.9999989
0.9999998
0.9999998
0.9999976
0.9999731
0.9999272
0.9999091
0.9999528
0.9998162
0.9991693
0.9986066
0.9990398
0.9995033
0.9967182
0.985192
0.9792575
0.9954804
0.9997136
0.9999705
0.9999824
0.9997608
0.9884713
0.9034503
0.7908391
0.8902325
0.9923589
0.9972586
0.9973115
0.9941673
0.9885293
0.9879363
0.9947033
0.9944625
0.9806229
0.9719759
0.9765048
0.9916588
0.9963969
0.9993211
0.9996064
0.9994786
0.9996166
0.9997076
0.9996996
0.9996319
0.9991568
0.9991516
0.9993359
0.9999046
0.9999845
0.9996556
0.9960804
0.9906125
0.9937706
0.9982194
0.9993628
0.9994528
0.9993878
0.9983449
0.9971879
0.9970618
0.997859
0.998825
0.9991905
0.9994698
0.9997057
0.9998775
0.9999718
0.9999717
0.9999378
0.9998142
0.9995983
0.9995863
0.9996753
0.9998172
0.9999457
0.9999934
0.9999988
0.9999967
0.9999838
0.9999109
0.9996011
0.9985825
0.9970789
0.9966876
0.9986293
0.9997339
0.9998166
0.9998719
0.9999418
0.9999755
0.9999835
0.9999167
0.9993069
0.9993555
0.9996626
0.9980915
0.9856127
0.9883049
0.9954675
0.9993961
0.9996379
0.9959762
0.9660236
0.9715403
0.9908923
0.9986836
0.9993096
0.9993108
0.998181
0.9928031
0.9924406
0.9952386
0.9991363
0.9999595
0.9999439
0.9998192
0.9998091
0.9997404
0.9999683
0.9999641
0.9998279
0.9997891
0.9999674
0.9999928
0.999957
0.9999076
0.9999149
0.9999613
0.9999587
0.999872
0.9997923
0.9997933
0.9998592
0.9999064
0.9999424
0.9999426
0.9999427
0.9999045
0.999849
0.9998623
0.9998586
0.9998002
0.9995814
0.998928
0.9981395
0.9979012
0.9979768
0.9995475
0.9994967
0.9995215
0.9996932
0.9998699
0.9999622
0.9999604
0.9993209
0.9880528
0.985818
0.9954033
0.9940916
0.9825618
0.9455739
0.9013685
0.9239753
0.9793539
0.998275
0.9999654
0.9996213
0.9929602
0.9898692
0.9898692
0.9951557
0.9965228
0.9955547
0.9983791
0.99811
0.9969373
0.9959343
0.9961011
0.99611
0.9954638
0.9972696
0.9990365
0.9995107
0.9998099
0.9999507
0.9999843
0.9999857
0.9999693
0.9997182
0.9995708
0.9997329
0.9999266
0.9999843
0.9999888
0.9999904
0.9999938
0.9999969
0.9999984
0.9999984
0.9999984
0.9999984
0.9999984
0.9999984
0.9999923
0.9998863
0.9998166
0.9998706
0.9999462
0.9999877
0.9999984
0.9999997
0.9999999
0.9999999
0.9999999
0.9999999
0.9999998
0.9999994
0.9999977
0.9999936
0.9999918
0.9999939
0.9999975
0.9999975
0.9999856
0.999905
0.9998832
0.9999304
0.9999826
0.9999987
1
1
1
1
0.9999995
0.9999929
0.9999074
0.9998291
0.999842
0.9999335
0.999986
0.9999988
0.9999999
0.999999
0.9999688
0.9998649
0.9998442
0.9996688
0.9979624
0.9974481
0.9984327
0.9996911
0.9999833
0.9999979
0.9999975
0.9999965
0.9999954
0.999995
0.9999954
0.9999975
0.9999996
1
1
1
1
1
1
1
0.9999998
0.9999992
0.9999964
0.9999793
0.9998503
0.9993116
0.9991412
0.9994818
0.9998752
0.9999825
0.9999966
0.9999995
0.9999998
0.9999992
0.9999944
0.9999485
0.999723
0.9996405
0.9997672
0.9999364
0.9999943
0.9999941
0.9999366
0.9993737
0.9991241
0.9992431
0.999729
0.9999687
0.9999991
1
1
1
1
1
1
1
1
1
1
1
1
1
1
1
1
1
1
1
1
1
1
1
1
1
1
1
1
1
1
1
1
1
1
1
1
1
1
1
1
1
1
1
1
1
1
1
1
1
1
1
1
1
1
1
1
1
1
1
1
1
1
1
1
1
1
1
1
1
1
1
1
1
1
1
1
1
1
1
1
1
1
1
1
1
1
1
1
1
1
1
1
1
1
1
1
1
1
1
1
1
1
1
1
1
1
1
1
1
1
1
1
1
1
1
1
1
1
1
1
1
1
1
1
1
1
1
1
1
1
1
1
1
1
1
1
1
1
1
1
1
1
1
0.9999999
0.9999998
0.9999999
1
1
1
1
1
1
1
1
1
1
1
1
1
1
1
1
1
1
1
1
1
1
1
1
1
0.9999999
0.9999995
0.9999995
0.9999996
0.9999998
1
1
0.9999999
0.9999997
0.9999997
0.9999998
1
1
1
1
1
1
1
1
0.9999998
0.999999
0.9999989
0.9999995
0.9999997
0.999999
0.9999982
0.9999977
0.9999988
1
0.9999997
0.9999858
0.9997516
0.9985599
0.9974245
0.9992464
0.9923449
0.9681806
0.9464582
0.9895159
0.999362
0.9999019
0.9998751
0.9924651
0.9074853
0.7618956
0.7618956
0.8507922
0.9640749
0.9928543
0.9948231
0.9796599
0.9753576
0.9908946
0.9959292
0.9725077
0.9493416
0.9493416
0.9532191
0.9654186
0.9891176
0.9964271
0.9977573
0.9989391
0.9995981
0.9996992
0.9996985
0.9992487
0.9990319
0.9994913
0.9999595
0.9999845
0.9998048
0.9961586
0.9791388
0.9581635
0.9647738
0.9942997
0.9975332
0.9973381
0.9951999
0.9906957
0.9874611
0.9885101
0.993125
0.9965672
0.9983816
0.9993464
0.9997662
0.999931
0.999971
0.9999711
0.9999711
0.9999517
0.9998006
0.9994472
0.9995739
0.9998203
0.999958
0.999993
0.9999891
0.999968
0.9998907
0.9994985
0.9970546
0.9843125
0.9756828
0.9846538
0.9960608
0.9995372
0.9999584
0.9999864
0.9999864
0.9999752
0.9991664
0.9912559
0.9909588
0.9969729
0.9968483
0.9671034
0.9040135
0.9365132
0.9819107
0.9985259
0.9986669
0.9845378
0.9621914
0.9666166
0.987996
0.9980752
0.9994924
0.9994396
0.997911
0.9928496
0.9939034
0.998247
0.999841
0.9997689
0.9996476
0.9998969
0.9999357
0.9999906
0.999974
0.9997777
0.9997054
0.9998703
0.9999943
0.9999947
0.9999944
0.9999874
0.9999542
0.9999167
0.9998402
0.9997641
0.9997232
0.9997292
0.9998056
0.9998903
0.999927
0.9999228
0.999852
0.9998577
0.9998847
0.9999142
0.9999387
0.9997429
0.9983309
0.9966807
0.9985722
0.9994156
0.9998752
0.999967
0.9999688
0.9999056
0.9998419
0.9999406
0.9999851
0.9999832
0.9999588
0.9994051
0.9880837
0.9777265
0.9906656
0.9862937
0.9698881
0.9735443
0.9876567
0.9974795
0.9998055
0.9999661
0.9988532
0.992554
0.9906533
0.9965526
0.9989873
0.9987353
0.9996985
0.9999545
0.9999248
0.9998544
0.9996725
0.9995708
0.999823
0.9999747
0.9999939
0.9999965
0.9999979
0.9999984
0.9999984
0.9999984
0.9999949
0.9999718
0.999845
0.999741
0.9996717
0.9997557
0.9998766
0.9999445
0.9999789
0.9999951
0.9999984
0.9999984
0.9999984
0.9999984
0.9999984
0.9999984
0.9999977
0.9999666
0.9995416
0.9992332
0.9994527
0.9997793
0.9999555
0.9999963
0.9999999
0.9999999
0.9999999
0.9999999
0.9999996
0.9999966
0.9999743
0.9998929
0.9998354
0.9998697
0.9999424
0.9999906
0.9999913
0.9999394
0.9997797
0.9997729
0.9998629
0.9999722
0.9999984
1
1
1
1
0.9999998
0.9999981
0.999995
0.9999858
0.999883
0.9997671
0.9998101
0.9999245
0.9999885
0.999999
0.9999989
0.9999973
0.9999555
0.9996538
0.9989756
0.9990809
0.9996807
0.9999299
0.9997206
0.9979506
0.997104
0.9975698
0.9991582
0.9998957
0.9999952
0.9999999
1
1
1
1
1
1
1
1
1
0.9999999
0.9999997
0.9999992
0.9999981
0.9999958
0.9999884
0.9999582
0.9999551
0.9999803
0.9999972
0.9999999
0.9999998
0.9999985
0.9999779
0.9996929
0.9993217
0.9993217
0.9995881
0.9998645
0.9999776
0.999972
0.9998541
0.9992943
0.9991431
0.9994346
0.9998741
0.9999911
0.9999998
1
1
1
1
1
1
1
1
1
1
1
1
1
1
1
1
1
1
1
1
1
1
1
1
1
1
1
1
1
1
1
1
1
1
1
1
1
1
1
1
1
1
1
1
1
1
1
1
1
1
1
1
1
1
1
1
1
1
1
1
1
1
1
1
1
1
1
1
1
1
1
1
1
1
1
1
1
1
1
1
1
1
1
1
1
1
1
1
1
1
1
1
1
1
1
1
1
1
1
1
1
1
1
1
1
1
1
1
1
1
1
1
1
1
1
1
1
1
1
1
1
1
1
1
1
1
1
0.9999999
0.9999998
0.9999998
0.9999998
0.9999999
1
1
1
1
1
1
1
1
1
0.9999999
0.9999999
0.9999999
1
1
1
1
1
1
1
1
1
1
1
1
1
1
1
1
1
1
1
1
1
0.9999999
0.9999999
1
1
1
1
1
0.9999998
0.9999991
0.9999992
0.9999995
0.9999998
0.9999999
0.9999999
0.9999998
0.9999994
0.9999995
0.9999998
1
1
1
1
1
1
1
0.9999998
0.9999994
0.9999997
0.9999998
0.9999996
0.9999993
0.9999994
0.9999998
1
1
1
0.9999997
0.9999786
0.9983553
0.9965036
0.9989732
0.9877716
0.9541262
0.9161868
0.9688812
0.9948072
0.9993266
0.9987689
0.9698473
0.8436422
0.7618956
0.7618956
0.9541857
0.9935961
0.9954781
0.9876798
0.9908525
0.9981587
0.9984678
0.9945828
0.9872582
0.9619479
0.9268647
0.9247021
0.9421968
0.9737629
0.9937137
0.997073
0.9970931
0.99806
0.999526
0.9997186
0.999544
0.9998986
0.999975
0.9999845
0.9998543
0.9953185
0.9657936
0.9354906
0.9354906
0.9394481
0.957743
0.9720429
0.9410361
0.9354906
0.9394345
0.9534206
0.9721197
0.987244
0.9953795
0.9985851
0.9994359
0.9994632
0.9996387
0.9998438
0.9999601
0.9999565
0.9997666
0.9993001
0.999316
0.9995915
0.999862
0.9999745
0.9999888
0.9999768
0.9999509
0.9998051
0.9979051
0.9714004
0.9611323
0.9611177
0.9809865
0.9966572
0.9998474
0.9999864
0.9999864
0.9997962
0.9943892
0.9706437
0.9699308
0.9900889
0.9953324
0.9791387
0.6840671
0.6518361
0.8540743
0.9817116
0.9985515
0.9966332
0.9742348
0.9628691
0.9677494
0.9909571
0.9992889
0.9995693
0.9995273
0.9983195
0.9947726
0.9972014
0.9993038
0.999097
0.9993004
0.999841
0.9999852
0.9999973
0.9999913
0.9998889
0.9997821
0.9998621
0.9999812
0.9999866
0.9999823
0.999953
0.9997883
0.9993524
0.998949
0.9987671
0.9983637
0.997947
0.9978798
0.9990405
0.9996051
0.9997793
0.9994092
0.9987995
0.9981962
0.9983474
0.9990112
0.9996283
0.9995288
0.9979041
0.9981473
0.9993471
0.9998097
0.9999685
0.9999688
0.9999688
0.9999688
0.9999355
0.9999293
0.9999221
0.9999327
0.9999376
0.9994098
0.9955373
0.9712306
0.976292
0.9903227
0.997638
0.9988325
0.9994755
0.9999025
0.9999851
0.9999333
0.9980912
0.9962125
0.9974863
0.9993398
0.9998896
0.999987
0.9999994
0.9999997
0.9999996
0.9999985
0.9999982
0.9999996
0.9999999
0.9999999
0.9999999
0.9999999
0.9999995
0.9999972
0.9999966
0.9999972
0.9999956
0.9999851
0.9998997
0.999404
0.9986446
0.9987535
0.9994355
0.9998866
0.9999854
0.9999975
0.9999984
0.9999984
0.9999984
0.9999984
0.9999984
0.9999984
0.9999885
0.9997805
0.9978276
0.9972559
0.9982539
0.9994643
0.9999351
0.9999976
0.9999999
0.9999999
0.9999999
0.9999997
0.9999956
0.9999311
0.9996734
0.9996526
0.9996526
0.9996713
0.999861
0.9999797
0.9999937
0.9999699
0.9998422
0.9998174
0.99989
0.9999778
0.999995
0.9999894
0.999985
0.9999868
0.9999931
0.9999987
0.9999997
0.9999989
0.9999908
0.9999635
0.9997761
0.9996859
0.9997536
0.9999155
0.9999897
0.9999994
0.9999986
0.9999886
0.9999445
0.9999187
0.9999491
0.9999589
0.9999009
0.9997399
0.9992995
0.9981948
0.998103
0.9982395
0.9993614
0.9999253
0.9999972
1
1
1
1
1
1
1
1
1
1
1
0.9999997
0.9999976
0.9999967
0.9999976
0.999999
0.9999997
0.9999999
1
1
0.9999997
0.9999964
0.9999697
0.99975
0.9993428
0.9993158
0.9994014
0.9997954
0.9999789
0.999989
0.9999561
0.9998155
0.999749
0.9998476
0.9999663
0.9999968
0.9999999
1
1
1
1
1
1
1
1
1
1
1
1
1
1
1
1
1
1
1
1
1
1
1
1
1
1
1
1
1
1
1
1
1
1
1
1
1
1
1
1
1
1
1
1
1
1
1
1
1
1
1
1
1
1
1
1
1
1
1
1
1
1
1
1
1
1
1
1
1
1
1
1
1
1
1
1
1
1
1
1
1
1
1
1
1
1
1
1
1
1
1
1
1
1
1
1
1
1
1
1
1
1
1
1
1
1
1
1
1
1
1
1
1
1
1
1
1
1
1
1
1
1
1
1
1
1
1
1
1
1
1
1
1
1
1
1
1
1
1
1
1
0.9999999
0.9999999
0.9999998
0.9999999
0.9999999
0.9999999
1
1
1
1
1
1
1
0.9999999
0.9999999
0.9999999
0.9999999
0.9999999
1
1
1
1
1
1
1
1
1
1
1
1
1
1
1
1
1
1
1
1
1
1
0.9999999
0.9999997
0.9999996
0.9999997
0.9999998
0.9999998
0.9999998
0.9999997
0.9999995
0.9999991
0.9999981
0.999996
0.9999947
0.9999952
0.9999968
0.9999986
0.9999992
0.9999993
0.9999993
0.9999993
0.9999993
0.9999996
0.9999998
1
1
1
0.9999999
0.9999998
0.9999999
0.9999999
0.9999998
0.9999996
0.9999997
0.9999999
1
1
1
0.999998
0.9997169
0.9967897
0.9944827
0.9979587
0.986778
0.9418042
0.876297
0.8897011
0.9791924
0.9977062
0.9966333
0.9610648
0.8832609
0.8851506
0.9747829
0.9979254
0.9996799
0.9998725
0.9999416
0.9998571
0.9997328
0.9996848
0.9996781
0.9993007
0.9957493
0.9663382
0.8992773
0.8970133
0.9572769
0.9894832
0.9896712
0.9886875
0.9989785
0.9997707
0.999781
0.9996948
0.9997428
0.9998219
0.9998268
0.9970286
0.9790639
0.9469087
0.9354906
0.9480227
0.9701458
0.9825818
0.9832279
0.9887483
0.9913553
0.9869973
0.982795
0.9884004
0.9953589
0.9979809
0.9985794
0.9969125
0.9962073
0.9969488
0.998749
0.9997419
0.9997861
0.9987842
0.9965941
0.9976929
0.9993116
0.9999192
0.9999845
0.9999843
0.9999841
0.9999493
0.9986476
0.9791438
0.9611331
0.9611323
0.9663902
0.9914274
0.9995755
0.9999864
0.9999439
0.9974261
0.9755948
0.9634848
0.9634848
0.9866423
0.9951488
0.9900304
0.7098557
0.2859604
0.4680309
0.8788423
0.9929889
0.9983329
0.9932548
0.9711487
0.9729896
0.9911621
0.9989993
0.9993976
0.999558
0.9997796
0.9989225
0.9958787
0.9971682
0.998031
0.9988228
0.9996273
0.9999496
0.999996
0.9999973
0.9999814
0.9999473
0.9999461
0.9998905
0.9998064
0.9996478
0.9989779
0.9964982
0.9941227
0.9856818
0.9857768
0.9843163
0.9832969
0.9887367
0.9958596
0.9987585
0.9996363
0.999417
0.9983709
0.9954572
0.9939699
0.9950437
0.9976263
0.9996657
0.9998089
0.9997944
0.9997215
0.9997983
0.9999393
0.9999688
0.9999684
0.9998933
0.9997167
0.999476
0.9986902
0.9973808
0.9977344
0.9991891
0.9987339
0.9952847
0.9942353
0.9808638
0.9633656
0.9745818
0.9940253
0.9996148
0.9999778
0.9999908
0.9999085
0.9996954
0.9993329
0.9995043
0.9998458
0.9999821
0.9999992
0.9999999
1
1
0.9999999
0.9999993
0.9999961
0.999993
0.9999936
0.9999952
0.9999922
0.9999633
0.9998962
0.9998963
0.9999404
0.9999773
0.9999591
0.9997453
0.998109
0.9963196
0.996924
0.9986858
0.999772
0.9999856
0.9999984
0.9999984
0.9999979
0.9999981
0.9999984
0.9999984
0.9999949
0.99992
0.998571
0.9918647
0.9928217
0.9966663
0.9992533
0.9999288
0.9999977
0.9999999
0.9999999
0.9999999
0.9999986
0.9999872
0.9998947
0.9996665
0.9996526
0.9996526
0.9997
0.9999073
0.9999922
0.9999996
0.9999996
0.9999996
0.9999997
0.9999997
0.9999965
0.9999213
0.9995775
0.9995984
0.9998268
0.9999656
0.9999978
0.9999998
0.9999998
0.9999981
0.9999829
0.9998512
0.9996118
0.9996351
0.9998443
0.9999772
0.9999956
0.999995
0.999995
0.9999958
0.9999977
0.9999972
0.999996
0.9999934
0.9999715
0.9998999
0.9998167
0.9995257
0.999407
0.9996126
0.9999082
0.9999926
0.9999995
0.9999999
1
1
1
1
1
1
1
1
0.9999998
0.9999983
0.9999967
0.9999974
0.9999991
0.9999997
0.9999999
1
1
1
0.9999999
0.999999
0.9999909
0.9999008
0.9994409
0.9993961
0.9997105
0.9999552
0.9999978
0.9999993
0.9999985
0.9999936
0.9999723
0.9999641
0.9999807
0.9999966
0.9999998
1
1
1
1
1
1
1
1
1
1
1
1
1
1
1
1
1
1
1
1
1
1
1
1
1
1
1
1
1
1
1
1
1
1
1
1
1
1
1
1
1
1
1
1
1
1
1
1
1
1
1
1
1
1
1
1
1
1
1
1
1
1
1
1
1
1
1
1
1
1
1
1
1
1
1
1
1
1
1
1
1
1
1
1
1
1
1
1
1
1
1
1
1
1
1
1
1
1
1
1
1
1
1
1
1
1
1
1
1
1
1
1
1
1
1
1
1
1
1
1
1
1
1
1
1
1
1
1
1
1
1
1
1
1
1
1
1
1
1
1
1
1
1
1
1
1
1
1
1
1
1
1
1
1
1
1
1
1
1
1
1
1
1
1
1
0.9999999
0.9999998
0.9999997
0.9999999
1
1
1
1
1
1
1
1
1
1
1
1
1
1
1
1
1
1
1
1
1
1
1
1
1
0.9999999
0.9999992
0.9999964
0.9999854
0.9999481
0.9998802
0.9998369
0.9998156
0.9998194
0.9998592
0.9999287
0.9999319
0.9998398
0.9997094
0.9997098
0.9997474
0.9998238
0.9999163
0.9999727
0.9999854
0.9999876
0.9999899
0.9999932
0.9999967
0.9999989
0.9999996
0.9999997
0.9999998
0.9999999
1
0.9999999
0.9999997
0.9999997
0.9999999
1
1
0.9999999
0.9999847
0.9991195
0.9971393
0.9951809
0.996495
0.9872999