/*--------------------------------*- C++ -*----------------------------------*\
| =========                 |                                                 |
| \\      /  F ield         | foam-extend: Open Source CFD                    |
|  \\    /   O peration     | Version:     3.1                                |
|   \\  /    A nd           | Web:         http://www.extend-project.de       |
|    \\/     M anipulation  |                                                 |
\*---------------------------------------------------------------------------*/
FoamFile
{
    version     2.0;
    format      ascii;
    class       volScalarField;
    location    "11";
    object      pd;
}
// * * * * * * * * * * * * * * * * * * * * * * * * * * * * * * * * * * * * * //

dimensions      [1 -1 -2 0 0 0 0];

internalField   nonuniform List<scalar> 
119952
(
6998.335
6708.885
7151.477
7179.612
7349.554
7413.687
7547.865
7674.315
7799.295
7923.703
8009.599
8097.662
8182.074
8240.933
8294.506
8387.566
8335.347
8349.261
8339.714
8306.099
8319.609
8265.726
8216.653
8205.744
8155.138
8123.344
8121.615
8108.114
8123.028
7847.838
5826.997
5759.667
5778.57
5739.011
5692.203
5652.532
5633.793
5617.454
5554.837
5497.241
5572.569
5540.075
5533.285
5526.412
5528.616
5515.157
5495.267
5493.722
5632.626
5628.653
5631.449
5682.029
5755.498
5829.036
5908.897
6010.726
6027.061
6106.119
6156.785
6245.229
6314.147
6342.163
6374.981
6422.324
6466.579
6487.431
6569.367
6696.772
6846.842
6936.967
7043.526
7165.526
7296.789
7422.889
7551.561
7676.766
7794.726
7907.746
8012.026
8104.679
8182.341
8241.977
8286.783
8320.203
8334.437
8343.445
8321.065
8298.624
8285.395
8253.42
8214.316
8183.776
8150.936
8124.162
8108.839
8101.701
8084.542
8049.435
8034.828
8026.838
8020.613
8027.112
8050.084
8060.407
8058.205
8040.233
8005.623
7950.148
7856.404
7723.027
7566.06
7400.472
7226.428
7099.818
6922.492
6750.26
6570.687
6427.136
6330.973
6277.85
6216.356
6171.453
6164.633
6178.866
6228.336
6297.908
6390.323
6503.425
6635.897
6790.298
6962.64
7135.15
7309.972
7488.117
7655.475
7803.154
7931.494
8027.926
8105.242
8149.87
8160.976
8162.528
8143.744
8111.597
8060.047
8015.959
7974.4
7927.556
7872.462
7822.202
7774.738
7735.448
7701.078
7667.75
7634.418
7598.937
7561.788
7525.233
7490.459
7458.731
7429.672
7402.876
7369.211
7328.324
7280.803
7271.191
7273.148
7258.119
7245.183
7233.943
7225.664
7219.977
7218.405
7221.42
7244.662
7278.418
7305.344
7320.74
7347.565
7364.534
7375.097
7377.524
7376.989
7377.276
7386.499
7398.396
7423.681
7445.832
7477.188
7478.123
7486.875
7486.609
7476.875
7468.238
7457.383
7452.661
7433.209
7425.791
7387.302
7351.032
7312.046
7285.101
7265.226
7260.939
7260.301
7264.397
7267.9
7273.862
7278.187
7277.92
7280.202
7279.882
7279.721
7288.277
7290.628
7291.884
7296.401
7295.551
7299.204
7293.298
7293.487
7292.866
7293.553
7295.569
7296.494
7297.529
7297.993
7297.549
7297.181
7296.825
7297.163
7298.069
7296.481
7303.713
7310.579
7311.195
7315.651
7315.358
7315.77
7319.538
7323.827
7327.944
7334.156
7339.936
7345.046
7351.198
7357.231
7367.79
7378.788
7388.976
7395.78
7404.944
7416.055
7427.686
7436.272
7451.459
7463.3
7470.781
7484.376
7495.083
7505.768
7516.34
7528.898
7543.036
7550.539
7566.356
7580.2
7600.855
7609.242
7623.451
7645.157
7665.815
7684.824
7701.243
7705.835
7718.646
7733.932
7747.048
7754.332
7764.726
7775.188
7786.059
7797.517
7809.576
7817.544
7826.422
7835.315
7843.274
7852.319
7862.202
7867.871
7863.003
7847.512
7824.217
7809.738
7816.2
7840.438
7869.946
7897.571
7922.737
7943.897
7953.267
7961.779
7972.047
7981.889
7991.125
7998.711
8003.857
8012.006
8019.004
8026.151
8030.266
8034.721
8038.429
8043.941
8048.214
8052.641
8055.925
8057.35
8054.629
8048.399
8029.941
8033.467
8018.015
8014.689
8017.832
8015.701
8030.283
8036.098
8042.06
8044.332
8047.008
8044.881
8042.306
8040.931
8028.629
8005.295
7971.918
7939.329
7924.4
7930.495
7947.576
7963.388
7975.844
7981.045
7979.124
7975.761
7972.704
7967.516
7961.628
7955.036
7945.491
7929.836
7898.755
7884.883
7892.537
7900.057
7910.115
7911.065
7909.184
7907.096
7903.859
7900.927
7898.852
7898.042
7891.542
7884.881
7881.833
7877.895
7873.015
7863.285
7845.992
7837.239
7843.736
7856.855
7868.985
7880.332
7885.129
7884.85
7890.147
7880.592
7883.907
7881.687
7879.108
7877.79
7877.135
7876.458
7875.875
7875.682
7871.8
7866.083
7854.046
7849.36
7857.89
7871.511
7883.848
7888.097
7890.659
7893.808
7895.853
7897.338
7899.513
7899.428
7887.859
7866.43
7852.06
5873.099
5813.4
5815.647
5742.599
5713.952
5689.985
5668.181
5652.587
5671.599
5654.858
5627.713
5607.925
5574.936
5553.522
5525.377
5495.896
5469.396
5485.789
5484.28
5461.11
5418.209
5404.12
5402.256
5413.157
5440.087
5472.582
5528.824
5606.06
5650.216
5695.762
5722.946
5742.48
5764.446
5788.541
5814.955
5832.318
5826.187
5821.205
5796.867
5753.14
5710.638
5661.842
5636.629
5621.135
5600.886
5564.733
5544.427
5539.127
5523.652
5501.462
5470.103
5486.703
5463.344
5440.431
5445.273
5476.381
5530.824
5591.925
5676.267
5765.923
5855.084
5936.86
6006.942
6068.707
6133.882
6200.985
6259.872
6309.37
6349.604
6385.901
6424.177
6476.254
6538.468
6606.279
6688.406
6790.209
6905.52
7026.753
7154.212
7285.446
7412.798
7532.538
7649.95
7763.441
7871.032
7976.878
8075.262
8159.142
8225.907
8273.514
8299.794
8302.707
8291.166
8284.329
8274.873
8257.743
8222.985
8178.902
8143.642
8118.587
8102.16
8088.389
8074.125
8057.139
8039.488
8026.701
8023.455
8026.035
8033.833
8049.005
8058.167
8049.933
8037.648
8004.721
7933.932
7818.534
7662.801
7485.216
7296.069
7112.711
6947.456
6803.862
6656.738
6525.442
6399.151
6276.047
6161.338
6090.307
6104.959
6108.379
6137.783
6193.23
6269.891
6369.083
6485.564
6620.767
6776.282
6946.005
7124.852
7305.217
7485.758
7656.125
7804.136
7931.36
8033.188
8104.328
8143.924
8153.154
8150.306
8135.512
8109.989
8071.51
8025.82
7971.705
7908.507
7845.347
7791.525
7748.116
7714.62
7688.813
7659.108
7626.898
7590.361
7552.639
7515.098
7479.98
7449.15
7420.52
7389.566
7357.518
7314.176
7264.046
7240.456
7256.83
7249.665
7236.781
7224.7
7215.686
7210.118
7210.157
7218.521
7241.617
7270.923
7296.169
7318.677
7342.312
7361.566
7370.269
7364.546
7365.432
7363.754
7366.19
7381.742
7418.976
7449.589
7468.419
7479.084
7483.653
7482.348
7478.926
7463.382
7463.303
7458.516
7423.848
7401.336
7361.931
7318.202
7286.784
7266.855
7253.489
7250.875
7256.094
7265.172
7272.651
7278.725
7279.378
7279.118
7279.341
7280.435
7284.91
7289.479
7293.02
7295.834
7293.796
7294.878
7295.121
7291.66
7289.377
7292.097
7295.379
7296.603
7296.052
7296.876
7297.255
7295.992
7295.564
7294.863
7294.601
7296.115
7298.827
7304.69
7311.035
7314.185
7312.57
7313.597
7315.849
7319.437
7324.124
7328.558
7334.327
7340.257
7345.541
7351.534
7358.757
7367.364
7376.584
7387.368
7391.944
7405.092
7417.045
7429.103
7440.661
7452.721
7463.907
7473.725
7484.721
7495.95
7507.147
7518.675
7530.995
7544.039
7557.957
7570.101
7584.695
7600.6
7615.186
7631.403
7650.28
7669.213
7686.431
7701.104
7713.487
7724.612
7735.687
7746.208
7756.241
7766.713
7777.708
7789.211
7800.743
7811.707
7821.668
7829.747
7837.025
7845.671
7855.076
7867.551
7872.888
7863.293
7840.245
7811.662
7799.313
7814.516
7843.137
7873.082
7901.476
7926.9
7944.033
7954.064
7964.111
7973.756
7983.017
7991.568
7999.135
8006.067
8012.828
8019.342
8025.351
8030.808
8035.33
8039.173
8043.712
8048.222
8051.601
8053.692
8054.527
8053.07
8046.899
8038.998
8028.309
8016.822
8011.548
8016.531
8025.519
8034.029
8040.227
8043.457
8045.562
8046.669
8044.368
8042.965
8039.483
8024.707
7997.035
7959.389
7928.122
7921.542
7932.22
7953.339
7968.592
7973.897
7974.009
7969.572
7966.245
7964.168
7962.158
7960.201
7952.179
7941.02
7927.796
7912.712
7894.249
7892.815
7898.206
7902.504
7905.963
7907.217
7904.411
7900.564
7897.181
7894.881
7891.624
7888.703
7884.012
7880.711
7876.678
7870.841
7862.882
7848.227
7843.804
7849.367
7856.352
7866.934
7879.431
7883.123
7883.097
7882.586
7882.053
7881.428
7880.304
7878.76
7877.426
7876.307
7875.59
7874.55
7873.451
7871.657
7866.986
7857.52
7854.917
7863.52
7873.119
7880.244
7885.494
7889.011
7891.151
7892.601
7892.824
7891.608
7889.032
7884.384
7878.079
7875.1
4579.768
4706.704
4808.504
4881.319
5074.076
5131.533
5290.392
5365.961
5457.164
5428.958
5639.779
5660.747
5665.568
5713.008
5697.865
5694.451
5706.912
5709.385
5690.009
5686.779
5693.304
5701.055
5713.493
5733.649
5753.35
5791.638
5820.033
5866.659
5912.087
5943.68
5974.666
6002.354
6024.432
6030.297
6018.231
5984.964
5934.121
5890.354
5850.699
5807.002
5779.269
5745.877
5716.373
5687.016
5662.31
5634.186
5653.567
5663.215
5640.305
5605.453
5576.048
5546.804
5516.229
5483.432
5454.098
5436.694
5421.002
5407.214
5390.217
5365.186
5362.897
5377.43
5402.907
5448.024
5507.487
5571.988
5635.294
5684.681
5715.716
5743.415
5771.402
5796.793
5822.24
5837.272
5829.534
5799.721
5775.368
5732.567
5670.9
5630.546
5625.025
5616.008
5586.738
5543.326
5512.123
5506.695
5482.281
5426.029
5371.141
5316.465
5283.12
5298.363
5352.714
5410.854
5485.81
5566.359
5650.519
5737.657
5827.576
5920.281
6016.288
6100.411
6176.85
6240.248
6288.896
6328.652
6360.046
6390
6421.706
6462.445
6510.333
6566.014
6640.612
6736.168
6854.465
6989.556
7124.206
7253.889
7371.282
7480.239
7584.322
7687.956
7791.995
7898.09
7998.932
8085.062
8155.905
8210.801
8254.206
8274.392
8263.431
8227.833
8211.883
8193.732
8162.241
8135.146
8115.39
8090.61
8073.163
8062.546
8052.877
8041.084
8026.155
8016.731
8015.248
8019.48
8030.96
8041.55
8044.23
8033.066
8018.49
7974.568
7879.825
7735.184
7561.194
7383.379
7207.94
7035.483
6868.395
6720.141
6581.256
6451.354
6328.112
6218.998
6143.591
6088.268
6057.447
6056.543
6083.709
6137.753
6213.698
6309.447
6423.977
6556.809
6712.283
6883.933
7069.659
7256.955
7439.447
7611.801
7767.09
7905.038
8016.469
8096.352
8148.691
8169.737
8157.31
8129.379
8107.99
8092.089
8042.715
7975.237
7902.616
7821.025
7765.466
7739.781
7713.753
7688.024
7659.008
7630.117
7595.329
7545.891
7511.254
7469.975
7436.022
7409.387
7383.123
7356.607
7326.18
7285.846
7242.55
7223.432
7234.922
7227.358
7215.584
7205.171
7200.661
7203.199
7211.571
7227.666
7259.282
7287.964
7308.794
7330.681
7350.71
7364.807
7365.289
7300.042
7267.215
7278.202
7318.151
7403.382
7445.639
7462.985
7471.589
7475.204
7471.998
7480.503
7494.05
7492.386
7467.099
7425.262
7376.118
7318.764
7278.973
7268.631
7256.784
7242.042
7243.469
7253.888
7265.631
7273.659
7277.373
7278.33
7277.161
7277.373
7280.105
7284.594
7288.961
7292.522
7294.586
7295.292
7295.541
7295.54
7292.89
7291.825
7294.021
7296.045
7296.651
7295.91
7295.319
7294.896
7294.334
7294.162
7294.277
7295.074
7296.611
7300.046
7301.873
7308.138
7313.846
7313.128
7314.219
7317.383
7321.217
7325.416
7329.582
7334.53
7340.514
7345.52
7351.426
7358.473
7366.415
7375.47
7385.186
7395.76
7407.533
7419.633
7431.597
7442.84
7453.262
7464.073
7475.087
7486.433
7497.926
7509.653
7521.545
7534.062
7546.972
7560.273
7573.89
7588.156
7602.695
7616.835
7631.09
7646.064
7661.351
7676.438
7691.201
7705.513
7719.271
7732.616
7745.276
7757.363
7768.411
7778.971
7789.569
7800.857
7812.298
7822.731
7832.478
7840.055
7846.732
7854.75
7865.124
7869.382
7861.418
7841.807
7817.558
7802.428
7810.356
7839.099
7870.009
7896.739
7918.323
7936.718
7950.044
7960.004
7969.426
7978.635
7987.566
7995.963
8003.71
8011.115
8018.179
8024.576
8030.517
8035.949
8040.923
8045.483
8048.919
8051.214
8052.25
8052.98
8051.62
8046.91
8039.572
8032.242
8025.929
8018.812
8021.953
8028.788
8035.2
8040.365
8043.924
8046.702
8047.84
8046.186
8040.443
8031.35
8016.563
7997.103
7976.303
7964.907
7956.769
7956.313
7965.533
7972.215
7975.527
7974.761
7968.906
7967.11
7966.171
7960.405
7953.937
7946.294
7936.042
7924.33
7911.41
7904.276
7905.04
7906.735
7909.275
7908.221
7906.36
7904.148
7900.733
7897.112
7893.295
7889.659
7886.171
7882.659
7878.622
7874.673
7869.753
7862.05
7855.726
7853.855
7859.654
7865.989
7871.179
7876.979
7879.199
7879.71
7879.864
7879.875
7879.345
7878.426
7877.371
7876.349
7875.501
7874.669
7873.674
7872.761
7870.767
7865.666
7862.504
7863.053
7869.048
7875.59
7880.541
7884.448
7887.106
7888.512
7888.994
7888.847
7887.877
7885.334
7881.586
7876.588
7872.04
3798.051
3698.082
3430.89
3816.044
3802.883
3909.279
3931.185
4005.722
4093.848
4138.031
4199.463
4284.466
4374.018
4516.936
4685.657
4862.912
5002.582
5110.623
5234.51
5356.494
5464.37
5593.072
5626.298
5651.59
5682.402
5696.902
5693.491
5690.105
5698.074
5693.923
5692.189
5676.585
5687.412
5694.795
5703.564
5723.425
5748.064
5776.432
5824.589
5877.343
5920.531
5956.863
5993.818
6030.81
6059.385
6065.375
6042.524
6002.138
5927.351
5852.503
5791.144
5750.307
5724.707
5711.264
5701.576
5686.023
5661.286
5644.326
5653.607
5655.884
5639.479
5611.415
5580.616
5547.062
5507.02
5462.315
5417.777
5391.476
5374.06
5347.367
5314.597
5289.118
5276.197
5283.325
5315.812
5374.114
5447.813
5524.553
5596.406
5660.356
5713.784
5759.893
5797.686
5825.946
5849.103
5859.73
5843.443
5811.43
5777.176
5740.539
5704.129
5676.111
5656.398
5634.212
5596.128
5543.603
5490.045
5465.618
5425.253
5360.993
5313.392
5264.708
5220.445
5216.723
5281.931
5349.914
5431.594
5528.339
5631.587
5736.47
5840.264
5936.83
6026.338
6106.159
6177.663
6243.745
6298.634
6338.841
6367.796
6394.083
6419.919
6446.672
6482.784
6525.234
6583.096
6673.64
6788.569
6929.338
7073.85
7211.808
7332.571
7428.957
7520.814
7614.025
7705.306
7801.177
7901.583
7988.417
8056.534
8107.091
8144.637
8166.918
8158.723
8128.44
8103.595
8081.853
8073.479
8063.284
8051.171
8043.644
8046.267
8037.19
8022.351
8014.768
8004.373
7998.849
8001.151
8007.47
8018.676
8029.873
8029.5
8011.136
7980.636
7916.657
7798.002
7628.195
7444.112
7268.256
7102.844
6943.896
6787.996
6639.036
6499.614
6368.013
6243.153
6136.099
6065.296
6019.064
5991.563
5992.365
6019.106
6069.836
6143.936
6236.101
6348.434
6481.333
6635.087
6812.766
7000.206
7186.437
7372.358
7551.584
7718.407
7868.311
7993.295
8087.81
8149.812
8183.037
8189.355
8171.368
8118.033
8031.765
7959.004
7904.316
7866.514
7760.777
7715.408
7698.357
7679.203
7676.544
7657.753
7626.883
7582.485
7547.499
7504.94
7464.431
7440.002
7409.32
7374.888
7345.799
7325.393
7300.625
7268.213
7237.79
7216.746
7202.944
7195.278
7187.356
7186.41
7193.903
7203.471
7221.402
7251.144
7278.988
7302.219
7322.718
7343.01
7361.851
7375.174
7371.787
7309.029
7352.983
7412.571
7433.856
7446.671
7458.916
7471.332
7481.924
7493.491
7501.998
7509.289
7469.02
7422.845
7409.032
7359.897
7302.128
7273.45
7260.834
7254.058
7250.459
7247.938
7251.667
7260.42
7268.475
7273.417
7275.217
7275.312
7276.432
7279.517
7283.551
7287.492
7290.683
7292.449
7292.595
7292.538
7291.516
7287.264
7290.86
7296.582
7295.649
7294.568
7293.671
7292.999
7293.108
7293.575
7293.725
7294.006
7295.287
7297.729
7301.357
7303.402
7305.874
7307.956
7309.713
7311.918
7315.532
7319.923
7324.416
7327.98
7332.03
7336.97
7342.551
7348.762
7355.755
7363.402
7371.955
7382.272
7393.722
7406.032
7418.589
7430.957
7442.818
7453.998
7463.702
7473.612
7484.402
7495.392
7507.645
7520.277
7533.13
7546.09
7559.454
7573.131
7587.384
7601.751
7616.049
7630.848
7646.39
7662.613
7678.526
7693.871
7707.924
7721.19
7733.57
7745.499
7757.224
7767.457
7777.251
7787.845
7798.601
7809.973
7821.116
7831.059
7839.44
7847.138
7854.162
7860.379
7862.982
7859.027
7847.787
7835.207
7829.373
7839.04
7859.443
7883.392
7903.483
7920.17
7935.02
7947.903
7958.78
7968.634
7977.959
7986.829
7995.3
8003.123
8010.549
8017.508
8023.547
8029.002
8033.824
8038.351
8042.573
8045.808
8048.122
8049.079
8049.225
8047.883
8048.004
8044.736
8039.157
8033.283
8026.013
8026.848
8031.085
8037.124
8042.169
8044.325
8044.523
8043.994
8040.475
8035.349
8028.82
8020.318
8008.223
7993.354
7982.955
7975.872
7967.879
7964.957
7963.612
7964.205
7967.502
7968.793
7967.298
7964.486
7958.509
7950.531
7944.586
7935.768
7925.921
7917.86
7912.084
7909.941
7908.393
7905.691
7901.637
7899.158
7898.172
7895.678
7893.139
7890.378
7887.433
7884.231
7880.741
7877.1
7873.527
7870.403
7866.538
7862.116
7860.715
7862.442
7866.488
7869.156
7871.438
7873.193
7875.128
7876.975
7877.752
7877.617
7877.03
7876.326
7875.741
7875.128
7874.316
7873.482
7872.618
7871.262
7869.373
7867.431
7867.635
7870.717
7874.885
7878.364
7881.339
7883.746
7885.313
7886.09
7886.163
7885.504
7884.124
7882.106
7880.075
7878.729
4162.435
4177.417
4201.09
4117.228
4094.743
4035.347
4019.99
3983.056
3933.021
3888.284
3799.913
3754.596
3719.544
3689.281
3735.41
3756.624
3847.285
3908.099
3981.628
4032.98
4073.766
4149.289
4248.023
4371.027
4512.171
4677.261
4875.486
5007.801
5099.999
5236.222
5371.805
5481.249
5564.813
5600.657
5628.392
5652.754
5658.144
5658.417
5660.932
5666.492
5671.429
5667.984
5660.481
5650.704
5653.834
5665.964
5685.455
5706.963
5731.638
5771.689
5848.458
5942.801
5979.65
5997.288
6036.522
6096.532
6105.037
6074.1
6029.476
5929.84
5818.736
5739.499
5704.598
5692.491
5690.831
5698.245
5701.585
5695.263
5686.268
5681.038
5672.972
5651.424
5622.984
5589.041
5549.778
5507.243
5447.909
5356.319
5315.053
5302.918
5267.914
5219.101
5189.039
5179.13
5179.579
5205.977
5265.679
5348.332
5438.13
5528.2
5620.743
5707.948
5777.192
5830.01
5867.702
5891.774
5894.979
5868.868
5822.937
5780.859
5747.201
5722.894
5703.076
5681.223
5646.149
5596.07
5530.757
5463.239
5415.9
5352.932
5276.095
5218.044
5196.152
5191.541
5197.22
5234.243
5304.416
5394.013
5501.483
5618.355
5736.547
5853.412
5958.623
6049.054
6130.664
6198.01
6260.768
6320.314
6356.849
6383.202
6400.069
6419.914
6434.678
6453.468
6485.514
6531.053
6610.442
6721.872
6858.722
7010.668
7158.772
7289.935
7394.688
7477.245
7553.117
7626.458
7699.133
7789.64
7869.752
7929.576
7972.075
7996.099
7994.165
7972.298
7951.858
7947.775
7951.91
7931.31
7947.824
7976.249
7989.875
7995.891
7995.479
7993.027
7981.108
7969.079
7969.734
7980.082
7989.767
8002.922
8018.18
8018.62
7993.882
7941.979
7847.582
7702.523
7519.404
7333.591
7163.961
7007.689
6856.361
6701.432
6548.631
6405.035
6274.136
6156.615
6061.253
5991.539
5946.972
5925.788
5929.704
5958.356
6008.83
6079.737
6170.494
6279.969
6412.398
6565.444
6733.32
6916.355
7105.174
7290.631
7474.298
7652.526
7813.911
7956.872
8068.718
8145.532
8184.561
8190.732
8169.47
8145.713
8113.076
8043.551
7951.504
7786.694
7701.922
7628.688
7623.166
7685.731
7686.134
7661.067
7627.853
7578.847
7532.983
7489.386
7465.914
7430.047
7414.777
7372.237
7336.189
7309.125
7281.886
7261.983
7239.925
7218.587
7189.739
7174.579
7174.226
7171.011
7179.987
7193.585
7219.792
7238.543
7257.516
7288.141
7316.192
7335.296
7355.704
7378.738
7410.113
7425.099
7441.856
7440.845
7433.775
7438.067
7449.008
7455.365
7460.74
7480.557
7487.118
7478.007
7452.687
7421.888
7403.358
7367.506
7324.546
7284.611
7256.635
7247.387
7248.326
7252.924
7261.562
7270.083
7272.725
7273.697
7274.366
7275.114
7276.75
7279.285
7282.662
7286.005
7288.894
7291.34
7294.165
7296.253
7295.693
7293.865
7292.983
7292.246
7291.83
7292.173
7291.349
7290.895
7291.228
7291.718
7292.008
7292.601
7294.006
7296.827
7298.465
7301.749
7302.892
7304.125
7307.64
7311.418
7315.06
7318.863
7322.991
7326.695
7329.693
7333.463
7338.977
7345.624
7353.281
7361.176
7370.148
7380.929
7393.021
7405.623
7418.201
7430.476
7442.302
7453.533
7464.375
7474.945
7484.503
7494.003
7505.227
7517.208
7531.204
7544.746
7558.014
7571.748
7585.792
7600.447
7615.219
7630.271
7645.317
7660.584
7675.442
7690.304
7704.116
7717.495
7729.895
7742.777
7754.812
7765.217
7774.58
7785.244
7797.431
7806.952
7816.485
7826.729
7836.6
7843.389
7848.936
7853.836
7857.582
7858.018
7853.922
7848.387
7846.596
7852.738
7867.391
7885.016
7902.212
7917.776
7931.603
7944.063
7955.303
7965.613
7975.228
7984.315
7992.929
8001.005
8008.649
8015.846
8022.379
8028.314
8033.67
8038.507
8042.754
8045.736
8048.225
8049.354
8049.781
8049.455
8050.345
8046.774
8041.278
8038.457
8034.719
8034.317
8035.986
8038.396
8042.659
8046.172
8046.808
8044.921
8041.114
8035.605
8029.386
8021.488
8011.091
8000.485
7989.49
7981.309
7973.153
7969.266
7970.258
7971.724
7972.927
7973.796
7968.383
7962.652
7957.104
7947.474
7940.689
7934.744
7927.181
7920.054
7914.264
7910.786
7907.289
7903.691
7899.891
7896.486
7894.39
7892.779
7890.496
7888.137
7885.421
7882.258
7879.171
7875.963
7872.703
7869.42
7865.935
7862.541
7861.983
7863.36
7865.61
7867.54
7869.621
7871.547
7874.515
7876.898
7877.474
7876.696
7875.874
7875.296
7874.921
7874.36
7873.774
7873.183
7872.837
7872.124
7870.517
7869.215
7870.113
7872.845
7876.095
7878.726
7881.027
7883.055
7884.425
7884.917
7884.836
7884.276
7883.509
7882.272
7880.616
7879.302
3857.787
3863.351
3912.344
3908.308
3947.669
4015.193
4070.824
4118.234
4160.378
4191.892
4195.736
4191.411
4170.211
4136.35
4093.641
4026.619
4021.497
3945.059
3864.475
3750.675
3663.557
3605.222
3576.757
3574.062
3649.25
3782.778
3803.134
3819.32
3970.297
4053.298
4082.276
4144.222
4243.778
4354.513
4490.975
4652.446
4834.272
4963.476
5073.876
5191.265
5316.198
5422.091
5495.013
5527.174
5542.423
5561.201
5563.961
5557.619
5562.39
5573.173
5570.98
5567.776
5568.586
5570.926
5571.24
5577.689
5596.247
5621.462
5656.049
5715.26
5787.762
5855.277
5940.597
6030.702
6079.713
6114.375
6137.244
6111.813
6064.736
5917.223
5747.24
5630.805
5574.655
5596.698
5649.142
5693.066
5721.72
5732.374
5725.402
5691.815
5662.136
5661.306
5637.114
5601.514
5559.122
5513.979
5439.315
5233.911
4994.268
5084.41
5158.624
5094.383
5053.821
5027.363
5019.089
5048.144
5129.207
5228.968
5322.823
5426.95
5557.233
5697.818
5800.946
5874.589
5917.988
5935.755
5926.595
5888.068
5817.301
5767.029
5741.733
5730.688
5715.778
5687.038
5637.276
5576.552
5501.779
5414.376
5341.884
5263.815
5175.68
5116.686
5104.798
5118.67
5140.67
5184.932
5262.115
5363.901
5482.548
5610.81
5740.149
5867.087
5978.198
6077.577
6161.009
6230.867
6291.834
6346.283
6383.676
6405.102
6418.307
6426.206
6429.288
6431.907
6443.982
6479.329
6548.92
6654.197
6786.516
6937.45
7095.183
7235.63
7345.666
7421.533
7489.088
7551.423
7603.84
7673.216
7735.052
7778.497
7803.683
7803.484
7747.936
7726.898
7694.26
7709.261
7749.942
7787.613
7777.784
7830.352
7892.323
7915.31
7929.993
7941.949
7941.931
7932.039
7933.272
7947.826
7965.983
7981.384
8001.207
8000.474
7969.423
7901.084
7782.695
7613.405
7421.246
7236.493
7071.318
6918.978
6769.288
6612.45
6455.76
6309.371
6181.583
6075.925
5992.152
5930.748
5891.724
5875.488
5882.417
5912.548
5963.961
6032.285
6120.287
6225.678
6348.238
6489.424
6650.154
6825.627
7014.814
7207.656
7397.251
7579.718
7746.392
7898.94
8024.731
8117.524
8168.376
8178.986
8163.454
8113.668
8068.025
8038.733
7975.064
7895.887
7772.844
7635.574
7623.015
7678.841
7689.167
7670.152
7640.949
7593.461
7527.338
7480.761
7456.902
7412.415
7389.766
7371.72
7332.057
7305.437
7275.873
7246.824
7217.957
7202.831
7185.356
7172.872
7164.029
7163.005
7175.421
7189.473
7208.947
7223.761
7239.14
7264.759
7297.926
7327.087
7342.768
7366.974
7386.009
7409.459
7425.412
7431.212
7429.213
7434.495
7444.951
7450.63
7453.93
7459.428
7457.169
7449.78
7434.722
7416.937
7407.143
7389.405
7350.586
7305.379
7277.991
7260.543
7251.762
7253.772
7254.486
7260.114
7267.841
7273.958
7274.967
7274.742
7275.715
7278.063
7280.882
7284.187
7287.159
7289.359
7290.763
7292.472
7295.048
7297.269
7291.857
7286.192
7285.025
7283.839
7281.924
7284.394
7289.86
7291.519
7289.386
7285.359
7289.608
7299.117
7301.96
7301.857
7300.913
7298.694
7296.331
7301.149
7312.773
7320.758
7323.21
7324.703
7326.549
7330.11
7335.72
7342.789
7350.728
7359.201
7368.782
7379.804
7391.849
7404.541
7417.303
7429.609
7441.442
7452.693
7463.452
7474.095
7484.888
7495.437
7505.76
7517.155
7529.745
7543.078
7556.271
7569.938
7584.046
7598.769
7613.693
7628.732
7643.717
7658.412
7673.311
7688.255
7702.954
7717.003
7730.22
7743.196
7754.614
7764.997
7775.002
7786.724
7798.406
7808.617
7816.439
7824.775
7835.284
7844.796
7847.555
7850.992
7855.553
7858.614
7858.616
7857.373
7858.465
7865.309
7877.21
7891.635
7906.365
7920.33
7933.033
7944.635
7955.354
7965.41
7975.059
7984.133
7992.585
8000.67
8008.333
8015.501
8022.095
8028.104
8033.51
8038.077
8042.203
8045.284
8047.933
8049.942
8050.868
8050.733
8051.329
8049.41
8045.87
8043.748
8041.373
8040.888
8041.695
8042.32
8044.32
8046.357
8045.938
8043.046
8038.279
8033.388
8028.2
8022.296
8014.199
8004.767
7995.815
7989.572
7983.76
7981.015
7980.796
7978.466
7976.118
7973.047
7966.826
7960.449
7953.745
7945.375
7938.67
7933.254
7926.934
7920.619
7914.752
7910.13
7906.046
7902.218
7898.405
7894.424
7891.771
7890.25
7887.008
7883.94
7881.77
7879.484
7876.905
7874.388
7871.668
7868.934
7866.811
7865.464
7864.218
7864.12
7865.82
7868.133
7869.377
7870.461
7871.812
7872.926
7873.62
7874.251
7874.501
7874.466
7874.278
7873.833
7873.388
7872.908
7872.716
7872.298
7871.763
7871.638
7872.102
7873.676
7875.524
7877.345
7879.122
7880.835
7881.995
7882.526
7882.621
7882.547
7882.086
7881.325
7880.503
7880.038
3935.16
3930.636
3909.948
3889.219
3862.558
3851.944
3850.824
3866.811
3902.835
3952.629
4028.395
4087.263
4137.14
4179.201
4205.012
4212.504
4203.388
4207.414
4164.276
4078.691
4013.747
3989.169
3920.342
3783.467
3635.428
3536.702
3491.127
3481.235
3496.936
3528.791
3602.844
3706.713
3793.019
3916.225
4023.019
4057.407
4124.185
4221.13
4339.923
4462.917
4605.594
4771.391
4907.541
5018.81
5125.835
5238.537
5336.637
5399.262
5426.839
5430.832
5424.033
5415.356
5413.603
5421.537
5438.929
5446.23
5449.053
5447.669
5442.871
5433.717
5435.981
5451.172
5481.905
5536.454
5614.619
5702.11
5781.535
5889.666
6009.988
6089.884
6170.853
6212.082
6167.3
6094.37
5882.295
5621.12
5459.875
5454.055
5547.345
5626.455
5700.208
5750.753
5770.159
5766.79
5731.181
5661.601
5591.546
5637.168
5616.21
5574.175
5526.952
5451.77
5221.497
4865.982
4775.603
4822.128
4931.031
4919.953
4885.498
4846.402
4863.631
4967.557
5095.561
5204.518
5317.074
5477.435
5641.438
5792.797
5926.01
5987.464
6003.409
5984.281
5928.318
5845.504
5773.911
5739.966
5730.02
5707.472
5666.022
5604.948
5532.867
5452.194
5334.386
5203.788
5117.844
5075.72
5022.461
5013.046
5031.583
5062.937
5116.601
5207.745
5331.091
5469.54
5613.915
5756.116
5891.045
6008.621
6108.702
6194.213
6264.63
6323.907
6374.235
6409.289
6427.772
6434.845
6433.316
6426.718
6420.079
6422.844
6454.566
6526.679
6631.858
6741.611
6868.91
7031.673
7182.012
7292.182
7368.351
7422.325
7469.315
7524.641
7573.384
7599.504
7625.713
7635.781
7596.214
7475.059
7298.232
7290.508
7406.239
7524.936
7601.336
7642.799
7664.664
7721.37
7789.793
7841.832
7875.748
7894.6
7899.939
7898.424
7914.346
7938.526
7955.119
7975.938
7972.716
7933.35
7850.939
7721.073
7539.77
7342.278
7156.4
6989.116
6835.584
6684.39
6526.892
6370.638
6227.929
6107.328
6010.803
5936.809
5883.764
5851.007
5838.437
5847.088
5876.275
5927.166
5996.454
6082.388
6184.89
6302.749
6435.606
6584.671
6750.842
6929.571
7124.47
7318.422
7501.052
7672.417
7828.905
7964.213
8071.304
8135.072
8142.669
8125.801
8100.299
8062.87
7989.338
7920.525
7893.818
7832.775
7737.859
7687.664
7684.867
7682.068
7658.588
7623.795
7585.618
7522.867
7472.374
7436.918
7401.959
7387.925
7356.407
7323.119
7296.77
7268.429
7238.691
7208.038
7190.094
7169.965
7154.91
7157.677
7163.958
7172.349
7179.811
7192.701
7208.351
7225.049
7244.582
7270.629
7300.516
7320.637
7349.268
7372.48
7391.273
7408.696
7423.057
7428.733
7434.596
7441.986
7446.057
7446.545
7443.401
7441.854
7433.31
7412.223
7396.894
7388.169
7375.522
7347.788
7313.736
7290.545
7276.26
7267.829
7263.825
7257.992
7256.528
7262.456
7270.049
7275.946
7276.818
7276.09
7276.85
7278.457
7280.889
7284.194
7287.379
7289.892
7290.501
7290.212
7289.405
7287.596
7287.352
7287.614
7286.934
7282.065
7280.468
7286.638
7291.994
7289.169
7284.816
7285.158
7291.039
7297.883
7300.42
7300.131
7303.081
7307.931
7309.595
7310.783
7315.557
7319.177
7317.963
7319.33
7324.629
7333.682
7342.198
7350.288
7359.299
7369.102
7379.969
7391.767
7404.077
7416.455
7428.589
7440.476
7451.852
7462.582
7473.096
7483.665
7494.428
7505.599
7517.242
7529.182
7541.669
7554.522
7568.054
7582.284
7597.078
7612.165
7627.219
7642.47
7657.083
7671.426
7685.666
7700.393
7714.686
7728.644
7742.053
7754.845
7765.634
7775.953
7787.574
7799.257
7810.196
7819.168
7825.655
7832.709
7841.067
7845.368
7850.862
7856.653
7860.303
7862.665
7864.319
7867.213
7873.564
7883.587
7895.474
7907.961
7920.408
7932.104
7942.916
7953.277
7963.273
7972.887
7982.101
7990.846
7999.128
8006.994
8014.296
8021.077
8027.308
8032.972
8037.99
8042.368
8046.147
8049.162
8051.727
8053.615
8055.288
8056.801
8054.722
8050.692
8048.571
8047.698
8047.005
8047.976
8048.93
8049.212
8048.368
8046.037
8042.992
8039.809
8035.459
8029.638
8023.219
8016.155
8008.507
8001.007
7994.984
7989.813
7986.357
7983.282
7979.264
7975.386
7970.74
7964.914
7958.651
7952.114
7944.961
7938.314
7932.093
7925.791
7919.628
7913.905
7908.972
7904.581
7900.523
7896.766
7893.508
7891.646
7888.855
7884.388
7880.558
7878.175
7876.251
7874.228
7872.096
7869.94
7867.899
7866.124
7864.466
7863.573
7864.122
7865.753
7867.354
7868.599
7869.652
7869.985
7870.11
7870.828
7872.053
7872.841
7873.135
7873.111
7873.161
7873.108
7873.399
7873.275
7872.534
7872.225
7872.538
7873.165
7874.179
7875.886
7877.964
7879.502
7880.709
7881.522
7881.906
7882.11
7882.075
7881.989
7881.716
7881.246
7880.741
3933.944
3924.445
3887.258
3854.586
3823.887
3813.348
3824.438
3853.2
3895.89
3951.719
4020.51
4094.754
4157.508
4208.316
4238.474
4260.756
4264.227
4242.727
4185.994
4118.893
4031.14
3940.771
3816.071
3658.641
3519.611
3426.031
3395.643
3394.261
3421.235
3459.226
3520.106
3621.296
3824.035
3892.349
3960.629
4040.963
4117.941
4207.525
4318.819
4434.743
4558.034
4690.687
4817.453
4926.397
5028.556
5129.76
5215.876
5268.86
5276.867
5255.767
5220.332
5190.74
5188.367
5203.443
5220.333
5230.3
5228.001
5230.288
5226.122
5222.215
5222.018
5232.346
5267.397
5338.164
5431.735
5555.556
5707.409
5838.247
5962.558
6091.085
6203.783
6223.035
6094.44
5924.106
5772.175
5579.191
5473.238
5477.868
5547.212
5638.492
5727.62
5783.253
5800.923
5788.07
5768.401
5717.144
5617.142
5501.129
5571.426
5585.01
5545.522
5480.377
5341.241
4977.784
4693.223
4559.343
4828.831