/*--------------------------------*- C++ -*----------------------------------*\
| =========                 |                                                 |
| \\      /  F ield         | foam-extend: Open Source CFD                    |
|  \\    /   O peration     | Version:     3.1                                |
|   \\  /    A nd           | Web:         http://www.extend-project.de       |
|    \\/     M anipulation  |                                                 |
\*---------------------------------------------------------------------------*/
FoamFile
{
    version     2.0;
    format      ascii;
    class       surfaceScalarField;
    location    "11";
    object      phi;
}
// * * * * * * * * * * * * * * * * * * * * * * * * * * * * * * * * * * * * * //

dimensions      [0 3 -1 0 0 0 0];

internalField   nonuniform List<scalar> 
275122
(
0.0001096624
-0.0001216859
1.590051e-07
1.186457e-05
0.0001225172
-0.0001162295
-9.658731e-07
-5.321827e-06
0.0001166156
-0.000116267
-1.176624e-08
-3.36748e-07
0.0001220828
-0.0001234319
-1.235868e-08
1.361477e-06
0.0001227463
-0.0001185697
2.189492e-07
-4.395517e-06
0.0001077282
-0.0001042736
5.434437e-08
-3.508999e-06
9.00105e-05
-8.529783e-05
1.690965e-07
-4.881791e-06
7.11053e-05
-6.602004e-05
1.915295e-07
-5.276724e-06
4.983709e-05
-4.510591e-05
8.35506e-08
-4.814751e-06
2.941618e-05
-2.442092e-05
1.324346e-07
-5.127442e-06
9.510296e-06
-5.724968e-06
2.622979e-07
-4.047217e-06
-7.235374e-06
1.101753e-05
2.089527e-07
-3.991129e-06
-2.274945e-05
2.666944e-05
1.439583e-07
-4.063943e-06
-3.809765e-05
4.141768e-05
8.103035e-08
-3.401061e-06
-5.274374e-05
5.632356e-05
3.124371e-08
-3.611062e-06
-6.453734e-05
6.795359e-05
1.561502e-07
-3.572398e-06
-7.619005e-05
7.709229e-05
3.185408e-07
-1.220448e-06
-7.768272e-05
7.82761e-05
1.654571e-07
-7.582559e-07
-7.700583e-05
7.739736e-05
1.423702e-07
-5.338905e-07
-7.404597e-05
7.508558e-05
3.581741e-09
-1.043196e-06
-7.246691e-05
7.351565e-05
-1.36549e-07
-9.12186e-07
-6.951161e-05
6.786238e-05
1.133235e-07
1.535902e-06
-6.014962e-05
5.844195e-05
2.060494e-08
1.687065e-06
-5.700682e-05
5.617507e-05
1.888942e-07
6.42851e-07
-5.083559e-05
4.895102e-05
6.825617e-08
1.816307e-06
-4.453677e-05
4.286394e-05
2.804389e-08
1.644794e-06
-3.894125e-05
3.779175e-05
1.245515e-07
1.024951e-06
-3.093245e-05
2.766424e-05
1.435164e-07
3.124695e-06
-1.554285e-05
1.185639e-05
1.41763e-07
3.544701e-06
-9.084896e-06
9.665896e-06
-8.312057e-08
-4.9788e-07
6.596632e-06
-8.321762e-06
-2.228246e-07
1.947954e-06
1.782236e-05
-2.375726e-05
-2.174645e-07
6.152359e-06
3.444998e-05
-3.639544e-05
-3.794299e-08
1.983401e-06
4.749234e-05
-5.150042e-05
6.409958e-08
3.943984e-06
6.101578e-05
-6.334443e-05
-2.189367e-07
2.547584e-06
6.753246e-05
-6.735821e-05
-3.358143e-07
1.616382e-07
6.313405e-05
-6.130378e-05
-1.164038e-07
-1.713857e-06
5.549116e-05
-5.247301e-05
4.088426e-08
-3.059044e-06
3.854799e-05
-3.679701e-05
2.073217e-07
-1.958297e-06
4.11104e-05
-4.956222e-05
2.206518e-07
8.231395e-06
-4.516147e-06
4.300007e-05
-4.739437e-05
6.831217e-07
8.227326e-06
-2.014822e-06
5.654225e-05
-5.943118e-05
3.934644e-07
4.510293e-06
-3.888457e-06
6.474883e-05
-6.799718e-05
-1.777123e-08
7.154578e-06
-5.75358e-06
7.89793e-05
-8.342549e-05
-5.950707e-08
1.025927e-05
-8.279398e-06
9.697467e-05
-0.0001006185
-7.213178e-08
1.199537e-05
-8.600491e-06
0.0001158554
-0.0001227458
-5.25163e-08
1.554342e-05
-7.886088e-06
0.0001397403
-0.0001438954
2.541993e-07
1.178694e-05
-8.017859e-06
0.0001552386
-0.000164188
2.540896e-07
1.671313e-05
-1.834893e-05
0.0001779976
-0.0001831186
-5.456612e-07
2.401552e-05
-9.181737e-06
0.000742759
-0.0007857705
-2.801598e-06
8.212679e-05
-7.711227e-06
-1.185045e-05
-7.570315e-06
-7.018063e-06
0.0008160617
-0.0008332996
-4.396526e-07
4.464612e-05
-7.374676e-06
-6.397891e-06
-6.177975e-06
-6.49278e-06
0.0008423051
-0.0008412185
2.463564e-07
2.581817e-05
-6.452651e-06
-7.150817e-06
-7.054907e-06
-6.051297e-06
0.0008331756
-0.0008228237
1.022411e-06
1.448222e-05
-6.089017e-06
-7.046887e-06
-6.669343e-06
-2.302212e-06
0.0008173621
-0.0008131795
1.632352e-06
3.081383e-06
-2.126989e-06
-2.194008e-06
-2.273177e-06
3.14205e-07
0.0008136666
-0.000817661
1.568776e-06
1.287354e-06
7.132391e-07
1.975219e-07
-8.667476e-08
5.339522e-07
0.0008232124
-0.0008324275
1.978117e-06
-3.298887e-06
4.332925e-06
8.565246e-07
4.812407e-06
-1.140502e-06
0.0008393796
-0.0008506235
1.375267e-06
1.456111e-05
-1.285343e-06
-1.348528e-06
-9.181263e-07
-8.778711e-06
0.0008549173
-0.0008435044
1.078133e-06
2.764786e-05
-1.162017e-05
-8.992541e-06
-1.074751e-05
1.368455e-05
0.0008349317
-0.000860794
7.592548e-07
1.010202e-05
-2.871403e-06
1.302438e-05
-8.83655e-06
-3.908297e-06
0.0008375928
-0.0008274691
6.400747e-07
4.156856e-06
-3.989799e-06
-3.59348e-06
-3.429048e-06
-3.773088e-06
0.0008200927
-0.0008107096
-1.57447e-07
2.992072e-06
-3.439035e-06
-1.986419e-06
-3.019166e-06
-1.89497e-06
0.0008051095
-0.0008031937
-6.586034e-07
2.454618e-06
4.266369e-07
-1.245572e-06
-9.979611e-07
4.537514e-07
0.0008049527
-0.0008021376
-7.45326e-07
-5.470255e-06
1.123553e-07
1.5379e-06
1.296498e-06
1.824707e-06
0.0007970123
-0.000789255
-3.077401e-07
-1.413223e-05
1.622342e-06
1.682818e-06
1.552842e-06
3.109665e-06
0.0007797112
-0.0007703846
-4.024679e-07
-2.113174e-05
3.56189e-06
2.852235e-06
2.683848e-06
1.915601e-06
0.0007660263
-0.0007626957
-9.356233e-07
-7.297405e-06
2.479082e-06
4.226872e-07
8.504795e-08
-5.779858e-06
0.0007590379
-0.0007344033
-6.145602e-07
1.326951e-05
-1.657336e-05
-6.588516e-06
-8.347788e-06
-1.29633e-05
0.0006957187
-0.0006699692
-8.314649e-07
1.686211e-05
-9.905595e-06
-1.025463e-05
-8.656616e-06
-4.128812e-05
0.0006294372
-0.0005713133
-3.805933e-08
-1.679767e-05
3.220597e-05
0.0005561625
-0.0005462897
8.234062e-07
-4.290212e-05
2.185584e-05
0.0005227286
-0.0004874749
-6.029426e-07
-5.650665e-05
4.885123e-05
0.0004672219
-0.0004376628
-8.095729e-08
-7.832932e-05
3.906852e-05
0.0003974392
-0.0003649964
-8.996054e-08
-7.142138e-05
6.602881e-05
0.0003360822
-0.0002993823
6.963451e-07
-0.0001034251
8.254232e-05
0.0002658592
-0.0002307512
9.495926e-09
-0.0001176598
8.465063e-05
0.0001952804
-0.0001554711
-9.828057e-07
-0.0001234771
8.499986e-05
0.0001161709
-6.896442e-05
-9.918286e-07
-0.0001312145
7.619239e-05
2.585762e-05
2.549939e-05
8.865741e-07
-0.000128436
7.72852e-05
-6.325386e-05
0.0001176089
9.583718e-07
-0.0001325986
8.436511e-05
-0.0001592402
0.0002037542
5.696264e-07
-0.0001294488
7.872223e-05
-0.0002477926
0.0002932138
1.527239e-07
-0.0001242961
7.453683e-05
-0.0003367849
0.0003771358
1.264184e-07
-0.0001150141
6.412962e-05
-0.0004212908
0.0004556393
-2.862669e-07
-9.81919e-05
3.703773e-05
-0.0004865943
0.0005205497
-2.45838e-07
-7.074735e-05
2.863057e-05
-0.0005428579
0.0005560289
2.516597e-07
-4.205324e-05
7.509891e-07
-0.0005590665
0.0005576204
1.345523e-06
-6.503718e-07
-9.507416e-06
-0.0005391947
0.0005132383
2.121804e-06
3.334206e-05
-1.797825e-05
-0.0004853227
0.0004537315
2.176012e-06
4.739348e-05
-3.895694e-05
-0.0004302734
0.0004117051
1.404744e-06
5.612049e-05
-4.579585e-05
-0.0003926947
0.0003761016
1.541513e-06
6.084746e-05
-4.145119e-05
-0.0003432638
0.0003159249
6.729994e-07
6.811711e-05
-4.248471e-05
-0.0002899518
0.0002763143
1.664565e-06
5.445769e-05
-1.848695e-05
-0.0002649942
0.0002455009
1.676912e-06
3.630339e-05
-1.200732e-05
-0.0002310711
0.0002168599
1.53765e-06
2.468092e-05
-1.489431e-05
-0.0002005199
0.000190319
-2.83429e-08
2.512349e-05
-3.051651e-05
-0.0001835442
0.0001800111
5.262215e-08
3.399706e-05
-6.983828e-05
-0.0001807597
0.0001833293
3.968215e-07
6.687187e-05
-1.625745e-05
-0.0001792073
0.000157907
5.273827e-07
7.677618e-05
-1.714166e-05
-8.750621e-06
-1.385358e-05
-4.099587e-06
-0.0001289559
8.707613e-05
1.731591e-07
5.737297e-05
-3.229664e-06
-3.985858e-06
-4.351211e-06
-4.284742e-06
-4.763992e-05
1.372569e-05
1.498909e-06
4.71483e-05
-2.993308e-06
-3.706139e-06
-3.748788e-06
-1.163232e-06
9.114592e-06
-2.840086e-05
-2.411328e-06
2.480257e-05
-4.174992e-07
-8.724078e-07
-6.518333e-07
1.173649e-06
3.528391e-05
-2.551986e-05
-2.366153e-07
-1.921471e-05
2.919578e-06
1.513347e-06
4.080709e-06
1.52888e-06
1.475774e-05
-3.571463e-06
-7.299067e-07
-2.30723e-05
2.174237e-06
4.333763e-06
4.579048e-06
-2.97166e-06
8.258473e-06
-1.935202e-05
-2.221391e-07
2.610299e-05
-5.124407e-06
-2.94047e-06
-3.750764e-06
-6.644631e-06
3.595698e-05
-6.031344e-05
-1.102447e-06
5.746946e-05
-5.155209e-06
-1.046e-05
-9.75071e-06
-7.262895e-06
9.364995e-05
-0.0001191288
-7.02584e-07
7.51542e-05
-1.199373e-05
-1.524744e-05
-1.446865e-05
-1.674583e-05
0.0001412994
-0.0001601407
-7.262022e-07
8.199516e-05
-1.740582e-05
-1.20132e-05
-1.626282e-05
-1.680212e-05
0.0001774131
-0.0002055753
-7.661189e-07
8.925798e-05
-1.556495e-05
-1.518405e-05
-1.27786e-05
-1.020446e-05
0.000239315
-0.0002954597
-6.303094e-07
0.0001029213
-1.163296e-05
-1.383778e-05
-1.04711e-05
-1.542682e-05
0.0003427655
-0.0003935355
-2.25523e-08
0.0001100548
-1.183866e-05
-1.676739e-05
-1.522944e-05
-1.19024e-05
0.000448716
-0.0005005053
2.804017e-07
0.00011484
-1.388765e-05
-2.12585e-05
-1.628258e-05
-1.534607e-05
0.00055736
-0.000603743
2.375906e-07
0.0001081163
-1.697402e-05
-1.430893e-05
-1.534184e-05
-2.555041e-05
0.0006586696
-0.0007149442
3.612046e-07
0.0001441255
-2.486827e-05
-1.875834e-05
-1.903502e-05
-1.611165e-05
0.0007744161
-0.0008347331
2.082122e-07
0.0001307034
-1.77281e-05
-2.050187e-05
-1.625303e-05
-1.242145e-05
0.0008716405
-0.0009059537
-4.110574e-07
8.35215e-05
-1.221228e-05
-1.092267e-05
-1.324081e-05
-7.574996e-06
0.000934048
-0.0009644751
-7.427194e-07
6.501171e-05
-9.814149e-06
-7.359402e-06
-9.093305e-06
-9.481107e-06
0.0009822644
-0.001005252
-1.273789e-06
6.077498e-05
-9.336882e-06
-7.643047e-06
-1.005257e-05
-7.951124e-06
0.001031041
-0.001066158
-7.772845e-07
7.40416e-05
-9.234033e-06
-8.995438e-06
-1.19673e-05
-8.670184e-06
0.001092275
-0.001123029
-4.803701e-07
6.848103e-05
-7.84459e-06
-1.122389e-05
-9.507579e-06
-1.009266e-05
0.001147679
-0.001178525
3.04136e-07
6.42782e-05
-7.476168e-06
-8.120149e-06
-8.047162e-06
-7.648861e-06
0.001197549
-0.001215181
7.034703e-07
4.348007e-05
-6.580334e-06
-5.820842e-06
-6.501409e-06
-5.299087e-06
0.001226782
-0.0012358
5.728177e-07
2.424991e-05
-4.102361e-06
-2.654366e-06
-3.749195e-06
-1.813983e-06
-0.001240498
3.605221e-07
5.174259e-06
-1.152758e-06
-7.05637e-07
-8.204796e-07
0.001239456
1.248981e-06
0.001236215
-0.001231288
2.014667e-07
-1.360037e-05
2.025835e-06
2.46881e-06
2.727603e-06
3.66862e-06
0.001222501
-0.001211515
1.762433e-07
-2.850903e-05
4.078251e-06
4.783905e-06
4.815941e-06
4.779055e-06
0.001198402
-0.001185508
9.429421e-08
-3.603648e-05
5.650463e-06
6.409665e-06
6.209056e-06
5.905041e-06
0.001169688
-0.001151501
1.637761e-07
-4.742649e-05
7.259513e-06
7.585087e-06
8.326182e-06
6.957895e-06
0.001131059
-0.001113389
3.083567e-07
-5.34067e-05
7.678923e-06
1.043673e-05
1.03548e-05
7.286357e-06
0.001092134
-0.001069338
3.978222e-07
-6.302035e-05
7.683999e-06
1.288774e-05
1.196901e-05
9.358577e-06
0.001043777
-0.001020018
4.827602e-07
-6.715706e-05
7.695166e-06
1.31645e-05
1.269756e-05
1.096279e-05
0.0009906988
-0.0009581264
4.446e-07
-7.893637e-05
8.532672e-06
1.375221e-05
1.267166e-05
9.682026e-06
0.00092006
-0.0008809545
3.006148e-07
-8.346583e-05
1.110426e-05
1.228286e-05
1.099058e-05
1.43104e-05
0.0008508251
-0.0008131941
3.557405e-07
-0.0001010772
1.48615e-05
1.687218e-05
1.704639e-05
1.4493e-05
0.0007803131
-0.0007374855
5.338263e-07
-0.0001083579
1.39308e-05
1.929022e-05
1.728246e-05
1.535876e-05
0.0006924032
-0.0006444072
3.251906e-07
-0.0001078369
1.184262e-05
1.76038e-05
1.471051e-05
1.897569e-05
0.000602679
-0.0005620113
3.164887e-07
-0.0001154573
1.515708e-05
1.960067e-05
2.073968e-05
7.930628e-06
0.0005180132
-0.000465128
3.809227e-07
-0.0001103094
9.485315e-06
1.994695e-05
1.968041e-05
1.598475e-05
0.0004289385
-0.0003822921
3.619102e-07
-0.0001172672
1.447092e-05
1.972092e-05
2.008222e-05
6.354872e-06
0.0003373824
-0.0002833642
1.01094e-06
-9.93258e-05
6.815553e-06
1.72771e-05
1.384908e-05
1.310938e-05
0.0002425749
-0.0002059252
2.563945e-07
-0.0001029452
2.245098e-05
1.030881e-05
2.016996e-05
1.522338e-05
0.000180744
-0.0001496629
-1.751852e-07
-8.782722e-05
1.25049e-05
1.519983e-05
1.39932e-05
3.673403e-06
0.0001195511
-8.473696e-05
1.850143e-07
-6.771755e-05
4.133895e-06
1.347973e-05
1.14314e-05
1.054288e-05
6.600172e-05
-3.984305e-05
2.512031e-07
-6.228424e-05
1.042946e-05
6.371982e-06
8.530042e-06
2.943175e-06
1.768335e-05
1.110272e-06
3.763742e-07
-4.757725e-05
8.290008e-06
1.135938e-05
5.814697e-06
8.674819e-06
-7.983244e-06
1.103171e-05
1.449048e-06
-3.460787e-05
7.813877e-06
7.832503e-06
5.789154e-06
-3.849291e-06
-1.724252e-05
1.57398e-05
1.374742e-06
1.66767e-05
-5.236703e-06
-4.404706e-06
-3.058017e-06
-1.207328e-05
-1.03564e-07
-1.164538e-05
1.056045e-06
5.889405e-05
-1.314441e-05
-1.032434e-05
-1.265913e-05
-3.62942e-06
2.165664e-05
-5.199172e-05
-3.27917e-07
5.071742e-05
-5.892838e-06
-4.093361e-06
-6.4388e-06
-7.452421e-06
6.474425e-05
-8.977562e-05
7.394412e-07
5.465198e-05
-7.817086e-06
-7.967444e-06
-7.123098e-06
-3.79265e-06
0.0001083828
-0.0001179775
2.907335e-07
2.476622e-05
-3.484559e-06
-4.167923e-06
-4.017107e-06
-1.739489e-06
0.000125539
-0.0001272628
2.128418e-08
7.850198e-06
-1.193826e-06
-1.848502e-06
-1.365898e-06
1.779689e-07
0.0001292503
-0.0001273678
2.291515e-08
-2.901779e-06
2.967273e-07
2.082449e-07
3.134301e-07
8.140747e-07
0.0001236001
-0.0001182188
-5.767624e-08
-8.610055e-06
8.606276e-07
7.866736e-07
8.250293e-07
1.023724e-06
0.0001141216
-0.0001091892
3.397035e-08
-9.040827e-06
1.023636e-06
1.01507e-06
1.012046e-06
1.01703e-06
0.0001067203
-0.0001044615
5.320931e-08
-5.871468e-06
8.523998e-07
8.75378e-07
8.146879e-07
5.500904e-07
0.0001019721
-0.0001018338
7.361429e-08
-2.274342e-06
4.761428e-07
5.94078e-07
4.421219e-07
1.806621e-07
0.0001019498
-0.0001023536
2.275049e-07
-3.811211e-07
1.247221e-07
1.550143e-07
9.697884e-08
-1.248011e-08
0.0001028749
-0.0001035164
2.140638e-07
4.272257e-07
2.33115e-08
-7.725419e-09
-2.865768e-09
1.536083e-07
0.0001032406
-0.0001023222
3.241511e-07
-1.932434e-06
3.108534e-07
1.093484e-07
1.161505e-07
8.202025e-07
0.0001014044
-9.98634e-05
2.216211e-07
-4.504794e-06
7.728725e-07
4.417652e-07
7.073681e-07
1.595638e-06
9.89476e-05
-9.721118e-05
1.990486e-07
-1.007152e-05
1.832438e-06
2.024764e-06
2.683208e-06
2.934953e-06
9.457848e-05
-8.329978e-05
4.107294e-07
-2.340507e-05
2.983912e-06
2.878847e-06
2.917935e-06
2.54935e-06
6.913997e-05
-5.683246e-05
3.557568e-07
-2.319424e-05
2.630689e-06
2.565582e-06
2.785356e-06
6.068315e-07
4.335986e-05
-3.537169e-05
9.317779e-07
-1.026985e-05
1.101188e-07
5.273147e-07
1.056463e-07
-3.350985e-06
2.166215e-05
-2.66682e-05
7.12699e-07
1.930082e-05
-4.133673e-06
-3.293484e-06
-4.229327e-06
-4.800769e-06
4.64578e-05
-7.792182e-05
1.780316e-07
5.041447e-05
-4.767276e-06
-4.80949e-06
-4.750945e-06
-3.141342e-06
0.0001107644
-0.0001340621
1.546254e-08
3.598924e-05
-2.837371e-06
-3.400939e-06
-3.327385e-06
-2.809444e-06
0.0001497994
-0.000165135
5.913696e-07
2.597982e-05
-2.855586e-06
-2.777132e-06
-2.793469e-06
-2.484038e-06
0.0001722892
-0.000179479
9.777898e-08
1.690829e-05
-2.468335e-06
-2.455622e-06
-2.408274e-06
-2.491854e-06
0.0001885326
-0.0002006663
-2.546473e-09
2.200023e-05
-2.49805e-06
-2.436799e-06
-2.437341e-06
-2.464385e-06
0.0002148427
-0.0002288838
-3.741175e-07
2.456609e-05
-2.453637e-06
-2.756723e-06
-2.476113e-06
-2.359142e-06
0.000247308
-0.0002617296
-1.550118e-07
2.493843e-05
-2.990026e-06
-2.704274e-06
-2.308329e-06
-2.331072e-06
-0.0002984103
-2.259937e-07
2.441748e-05
0.0002836239
-2.238553e-06
-2.474506e-06
-2.361014e-06
-1.209345e-06
0.0003082841
-0.0003043175
-8.09021e-07
7.315384e-07
-7.307748e-07
-1.216957e-06
-7.319682e-07
1.802233e-06
0.0002907032
-0.0002676445
-6.45675e-07
-3.046515e-05
2.210926e-06
1.815822e-06
2.223163e-06
3.938033e-06
0.000242082
-0.000213418
-2.828915e-07
-4.467276e-05
4.173e-06
3.979871e-06
4.200674e-06
4.221158e-06
0.0001918482
-0.0001795687
-2.650486e-07
-2.833236e-05
4.325287e-06
4.503319e-06
3.268136e-06
5.018775e-06
0.0001660136
-0.0001364256
-7.013701e-07
-4.612046e-05
3.626031e-06
4.992473e-06
3.596587e-06
3.972074e-06
0.0001105022
-9.312226e-05
-5.735433e-07
-3.279775e-05
4.029612e-06
3.964645e-06
4.024981e-06
3.573741e-06
7.700766e-05
-7.224006e-05
-4.19045e-07
-1.83555e-05
3.442786e-06
3.559704e-06
3.430713e-06
2.580522e-06
6.127361e-05
-6.441676e-05
-4.02553e-07
-6.019049e-06
2.189131e-06
2.548603e-06
2.246494e-06
1.212896e-06
6.265726e-05
-6.762114e-05
-4.511015e-07
1.14374e-06
9.459035e-07
1.191401e-06
9.21039e-07
4.005842e-07
7.370305e-05
-7.984222e-05
2.980436e-07
4.516971e-06
3.661585e-07
3.075563e-07
2.498599e-07
5.739183e-07
8.49559e-05
-8.937866e-05
1.210644e-06
7.460977e-07
6.430425e-07
6.075619e-07
6.414993e-07
5.533856e-07
7.85988e-05
-6.642685e-05
1.331181e-06
-1.559153e-05
5.292226e-07
5.304291e-07
4.753648e-07
7.098625e-07
6.157986e-05
-6.586895e-05
3.26838e-07
5.429131e-07
8.986107e-07
7.512213e-07
1.059648e-06
2.857258e-06
6.765866e-05
-4.315049e-05
-2.310499e-06
-3.431817e-05
3.094009e-06
2.899476e-06
3.269762e-06
2.311168e-06
2.261078e-05
-7.881267e-06
3.844752e-07
-2.545994e-05
2.62889e-06
2.740391e-06
2.665503e-06
5.978342e-06
-2.187324e-05
5.183265e-05
1.633543e-06
-5.550146e-05
6.084245e-06
5.870732e-06
5.975185e-06
4.056282e-06
-6.403324e-05
8.699786e-05
5.999294e-07
-4.046405e-05
4.465752e-06
4.293192e-06
4.084268e-06
4.605758e-06
-0.0001094739
0.0001286236
3.569966e-07
-3.958091e-05
6.276498e-06
4.404302e-06
4.787628e-06
3.358743e-06
-0.0001505811
0.000161412
1.184763e-06
-2.696191e-05
4.316718e-06
4.241185e-06
3.029581e-06
2.382539e-06
-0.0001760116
0.0001901049
1.733158e-06
-2.54009e-05
3.272302e-06
2.089921e-06
1.829663e-06
1.433732e-06
-0.0002077339
0.0002260976
1.26232e-06
-2.630003e-05
2.398935e-06
1.620092e-06
1.221267e-06
-7.517183e-07
-0.0002307368
0.0002210087
-1.190721e-06
1.386066e-05
-5.120056e-07
-5.077271e-07
-1.170378e-06
-3.708959e-06
-0.0002008628
0.0001808805
-7.09024e-07
3.586272e-05
-3.707625e-06
-3.571811e-06
-4.183044e-06
-9.619946e-06
-0.0001596333
0.0001142809
-1.036373e-06
8.521968e-05
-9.478998e-06
-9.475049e-06
-1.02569e-05
-5.047242e-06
-1.794134e-05
1.131296e-05
4.020209e-08
1.163542e-05
-3.595572e-06
6.622091e-07
-6.048387e-06
4.709696e-08
8.934652e-06
-5.363261e-06
1.466841e-05
-1.53812e-05
2.260706e-08
6.053443e-06
-3.573877e-06
2.466953e-05
-2.533692e-05
-1.802548e-08
4.2593e-06
-1.779714e-06
3.357049e-05
-3.457511e-05
-1.14301e-08
2.795773e-06
-5.809188e-07
3.642518e-05
-3.726554e-05
-1.372576e-08
1.435e-06
2.402017e-07
3.803446e-05
-3.774278e-05
1.386601e-07
-6.705375e-07
1.659062e-06
3.677343e-05
-3.695002e-05
1.466137e-07
-1.62909e-06
1.823458e-06
3.262795e-05
-3.189293e-05
1.24026e-07
-2.68251e-06
1.442968e-06
2.82578e-05
-2.682447e-05
9.694245e-08
-2.97324e-06
1.500985e-06
2.551283e-05
-2.528945e-05
6.196724e-08
-1.78633e-06
9.610459e-07
2.274694e-05
-2.20483e-05
3.487249e-08
-1.694559e-06
7.981216e-07
1.963576e-05
-1.897121e-05
2.11842e-08
-1.483863e-06
4.407488e-07
1.841082e-05
-1.764732e-05
1.573182e-08
-1.219983e-06
5.480904e-07
1.600738e-05
-1.56475e-05
-6.163767e-08
-8.463353e-07
6.018021e-07
1.479733e-05
-1.420567e-05
-7.739974e-08
-1.116061e-06
1.477415e-06
1.308891e-05
-1.241006e-05
-5.756571e-08
-2.0987e-06
1.153741e-06
8.357369e-06
-7.247051e-06
-4.524906e-09
-2.259534e-06
1.838146e-07
5.727147e-06
-3.986608e-06
5.403822e-09
-1.929757e-06
7.969808e-08
3.822629e-06
-3.937497e-06
1.038845e-07
-6.871493e-08
-1.127448e-07
4.094639e-06
-4.221092e-06
9.451731e-08
1.446803e-07
-4.027674e-08
5.085014e-06
-5.023652e-06
4.785812e-08
-6.894316e-08
-4.530134e-07
5.57722e-06
-6.399865e-06
-2.930618e-08
1.304964e-06
-6.456463e-07
8.039011e-06
-8.174781e-06
-2.338208e-08
8.047983e-07
-3.969669e-08
9.6673e-06
-9.658836e-06
-7.124835e-08
1.024813e-07
2.028701e-07
9.139176e-06
-8.777676e-06
-1.40539e-07
-4.238314e-07
4.387805e-08
8.244529e-06
-7.547208e-06
-1.2134e-07
-6.198589e-07
1.343217e-07
6.81052e-06
-6.795991e-06
-1.393355e-07
-9.514873e-09
1.921686e-07
6.258565e-06
-6.109515e-06
1.143937e-08
-3.526577e-07
2.520933e-07
5.680617e-06
-5.507354e-06
6.442107e-08
-4.897777e-07
-8.963138e-08
5.524418e-06
-5.710405e-06
6.24782e-08
2.131408e-07
-2.478617e-07
6.362594e-06
-6.774067e-06
7.590498e-08
5.834299e-07
-4.655044e-07
8.523146e-06
-8.676229e-06
7.352442e-08
5.450625e-07
-2.977995e-07
1.04663e-05
-1.156335e-05
7.809145e-08
1.316758e-06
-1.644409e-07
1.266416e-05
-1.34949e-05
7.589558e-08
9.192868e-07
-3.713087e-07
1.468698e-05
-1.491836e-05
1.79922e-08
5.847037e-07
2.703052e-07
1.522567e-05
-1.487178e-05
3.103335e-08
-6.552234e-07
7.411776e-07
1.278238e-05
-1.196303e-05
4.729321e-08
-1.607814e-06
3.192792e-07
1.025914e-05
-1.055166e-05
2.748786e-08
-5.424784e-08
-2.1704e-07
9.125993e-06
-9.545605e-06
7.102537e-08
5.656265e-07
-7.807582e-07
1.141524e-05
-1.147257e-05
1.594201e-09
8.365031e-07
-6.995577e-07
1.391956e-05
-1.390819e-05
-3.019797e-08
7.18389e-07
-3.258809e-07
1.524272e-05
-1.525201e-05
-2.117476e-08
3.563511e-07
-1.20148e-07
1.551751e-05
-1.554479e-05
-4.638664e-09
1.520623e-07
-1.114551e-07
1.559607e-05
-1.564206e-05
4.165089e-09
1.532793e-07
1.184486e-07
1.544987e-05
-1.510175e-05
2.413694e-09
-4.689797e-07
3.371078e-07
1.438279e-05
-1.421419e-05
-2.686442e-08
-4.78839e-07
5.590957e-08
1.326566e-05
-1.321991e-05
-3.717362e-08
-6.448391e-08
-5.292769e-08
1.280681e-05
-1.278862e-05
-5.232529e-08
8.705907e-08
8.883152e-08
1.242723e-05
-1.22054e-05
-4.500309e-08
-2.656552e-07
5.28386e-07
1.180551e-05
-1.111066e-05
2.653021e-08
-1.249765e-06
-6.30614e-08
8.784993e-06
-7.667015e-06
2.024124e-08
-1.075157e-06
1.517851e-07
7.782686e-06
-7.144976e-06
1.218233e-07
-9.113186e-07
-1.074085e-07
7.950023e-06
-8.010808e-06
-9.018434e-09
1.772114e-07
-2.329435e-07
8.523799e-06
-8.599428e-06
-1.671446e-08
3.252871e-07
-9.915884e-08
8.868463e-06
-8.922689e-06
-1.215546e-08
1.655401e-07
-2.170706e-09
8.803518e-06
-8.509321e-06
-2.160426e-08
-2.704213e-07
3.395029e-08
8.286642e-06
-8.271125e-06
-2.488445e-08
-2.458357e-08
3.221962e-07
7.627002e-06
-7.617934e-06
3.064169e-08
-3.619056e-07
2.062142e-07
6.983721e-06
-6.788416e-06
1.380983e-08
-4.153295e-07
-1.770782e-07
6.672226e-06
-6.745996e-06
4.133447e-10
2.504341e-07
-2.338666e-07
7.061163e-06
-7.022874e-06
1.556946e-08
1.800087e-07
-7.945629e-08
7.48382e-06
-7.789227e-06
-9.340499e-09
3.94204e-07
-4.782613e-07
7.805179e-06
-7.847496e-06
-2.063975e-08
5.41218e-07
-4.005978e-07
9.030501e-06
-9.160873e-06
-2.676514e-08
5.577342e-07
2.949344e-09
9.417402e-06
-9.439253e-06
-1.561707e-08
3.451928e-08
5.806969e-07
8.967532e-06
-8.819057e-06
-1.31838e-08
-7.159883e-07
7.256794e-07
5.79827e-06
-5.803896e-06
-1.640927e-07
-5.559609e-07
8.75955e-08
5.398904e-06
-5.78129e-06
2.484606e-08
2.699444e-07
-4.428857e-07
6.870744e-06
-6.621511e-06
-1.511218e-07
3.447747e-07
-3.088746e-06
8.865652e-06
-2.940875e-05
-6.566982e-07
3.270329e-06
-1.264005e-06
-3.257301e-06
-1.202413e-06
8.381781e-06
8.328166e-06
1.003198e-05
-2.585435e-06
3.276081e-05
-3.206638e-05
-5.636662e-07
9.944247e-06
-2.544736e-06
-2.633895e-06
-2.310951e-06
-6.637466e-07
2.641058e-05
-1.473793e-05
-4.705621e-07
-9.783681e-06
-2.578781e-07
-4.284695e-07
-6.831355e-08
1.067139e-06
1.863703e-06
1.169336e-05
-7.204441e-07
-1.783156e-05
1.2079e-06
1.176024e-06
1.543875e-06
1.814761e-06
-2.264855e-05
3.217285e-05
-3.770355e-07
-1.692403e-05
1.946834e-06
1.883251e-06
2.131911e-06
2.556866e-06
-3.755035e-05
4.051317e-05
2.982302e-07
-1.333027e-05
2.615484e-06
2.359398e-06
2.537474e-06
2.867881e-06
-3.979036e-05
3.946166e-05
9.759882e-07
-1.172786e-05
2.917082e-06
2.701045e-06
2.594567e-06
1.336531e-06
-3.480744e-05
3.102765e-05
8.966918e-07
-1.067367e-06
1.010102e-06
8.789471e-07
7.248834e-07
7.223459e-07
-3.450726e-05
4.143101e-05
-9.214712e-07
-9.08673e-06
7.703789e-07
7.968836e-07
7.948471e-07
8.938611e-07
-4.852389e-05
5.331282e-05
-1.117306e-07
-9.100576e-06
1.321024e-06
1.052993e-06
1.155497e-06
1.214429e-06
-5.755509e-05
5.569062e-05
1.662846e-06
-4.219493e-06
1.180109e-06
1.117633e-06
9.089479e-07
4.39833e-07
-5.495606e-05
5.539595e-05
1.064609e-06
-3.245544e-06
4.896495e-07
5.63814e-07
2.477504e-07
9.406286e-08
-5.40729e-05
5.362088e-05
1.098844e-06
-1.022262e-06
1.798142e-07
5.643948e-08
4.512002e-08
1.389661e-07
-5.326798e-05
5.415949e-05
9.987012e-07
-2.450454e-06
1.811461e-07
1.153086e-07
1.248229e-07
3.519562e-07
-5.494204e-05
5.695359e-05
3.699381e-08
-3.564743e-06
4.018499e-07
3.58039e-07
4.043552e-07
7.658255e-07
-5.977583e-05
6.389552e-05
-7.741225e-07
-6.53727e-06
8.107298e-07
7.847776e-07
8.303674e-07
1.106307e-06
-6.773309e-05
7.105559e-05
-7.759324e-07
-6.916659e-06
9.808054e-07
1.1595e-06
1.123478e-06
6.592684e-07
-7.133918e-05
7.140231e-05
-4.844938e-07
-2.286225e-06
5.026297e-07
8.043708e-07
7.413181e-07
4.337444e-07
-7.300348e-05
7.510913e-05
-5.256114e-07
-3.594471e-06
4.197533e-07
6.054471e-07
5.554962e-07
4.379413e-07
-7.579108e-05
7.717849e-05
-2.705191e-07
-2.819593e-06
3.774698e-07
4.287349e-07
4.585498e-07
2.377298e-07
-7.809403e-05
7.887729e-05
-8.178709e-08
-1.741301e-06
2.282279e-07
2.897938e-07
2.840815e-07
3.000738e-07
-8.243888e-05
8.994885e-05
4.16949e-07
-9.243306e-06
3.323776e-07
3.287682e-07
3.551669e-07
3.567896e-07
-0.0001021219
0.000113342
-8.064077e-07
-1.167734e-05
1.881011e-07
4.306995e-07
2.88067e-07
-7.18177e-07
-0.0001222808
0.0001204281
-1.078926e-06
6.089653e-06
-9.543255e-07
-6.593857e-07
-8.260816e-07
-1.923935e-06
-9.961452e-05
8.448067e-05
-2.335206e-07
2.495022e-05
-2.417613e-06
-2.591966e-06
-2.64934e-06
-4.530878e-06
-5.6263e-05
3.661854e-05
-2.230665e-07
3.937856e-05
-5.46964e-06
-4.654839e-06
-4.855687e-06
-6.094446e-06
-2.524817e-06
-2.716449e-05
5.286694e-07
5.370483e-05
-6.07974e-06
-6.253709e-06
-6.116295e-06
-4.976917e-06
4.744111e-05
-4.968179e-05
4.894575e-07
1.979956e-05
-4.112326e-06
-4.924653e-06
-4.034437e-06
-1.555377e-07
4.628752e-05
-3.397402e-05
4.128143e-08
-1.271156e-05
2.995376e-07
-1.052319e-07
3.180139e-07
2.407735e-06
1.75045e-05
2.72213e-07
-8.42064e-07
-2.712214e-05
2.677631e-06
2.370179e-06
2.731948e-06
3.848979e-06
-1.869166e-05
3.569783e-05
-8.471146e-08
-3.24544e-05
4.003776e-06
3.765923e-06
3.914255e-06
4.676737e-06
-5.413819e-05
6.856677e-05
5.938976e-07
-3.362499e-05
4.780125e-06
4.516737e-06
4.628919e-06
5.648147e-06
-8.230489e-05
9.727655e-05
1.116613e-06
-3.831554e-05
5.412847e-06
5.547704e-06
5.618566e-06
6.341682e-06
-0.000105381
0.0001106858
1.50434e-07
-2.989221e-05
6.269607e-06
7.134663e-06
4.691054e-06
3.54458e-06
-0.0001158325
0.0001195826
-2.162203e-07
-1.949517e-05
3.710282e-06
4.681112e-06
4.025336e-06
1.911178e-06
-0.0001283814
0.0001347138
-1.504849e-07
-1.349106e-05
1.745977e-06
1.900432e-06
1.751556e-06
1.409453e-06
-0.000142335
0.0001496123
-3.822678e-07
-1.262155e-05
1.428689e-06
1.435461e-06
1.452828e-06
1.519167e-06
-0.0001569353
0.0001633598
-3.770674e-07
-1.219875e-05
1.552153e-06
1.525578e-06
1.554428e-06
1.701432e-06
-0.0001701713
0.0001756532
-4.481859e-07
-1.183401e-05
1.713284e-06
1.671527e-06
1.714035e-06
1.441784e-06
-0.0001813856
0.0001838281
-2.64123e-07
-9.202101e-06
2.148582e-06
1.798328e-06
1.635077e-06
1.2878e-06
-0.0001877693
0.0001929873
-3.377935e-07
-9.886828e-06
1.186799e-06
1.237156e-06
1.294908e-06
1.169056e-06
-0.0001987784
0.0002036311
-3.256394e-07
-9.311783e-06
1.185047e-06
1.222903e-06
1.207701e-06
1.206808e-06
-0.000207913
0.0002111416
-1.720821e-07
-7.790581e-06
1.194737e-06
1.169687e-06
1.162838e-06
1.332291e-06
-0.0002135291
0.0002149771
-6.784397e-08
-6.530009e-06
1.331119e-06
1.247254e-06
1.239187e-06
1.458747e-06
-0.0002152827
0.0002146972
-1.506868e-07
-3.585999e-06
1.027459e-06
9.356479e-07
9.003507e-07
6.810166e-07
-0.0002148263
0.0002132943
-8.029084e-08
-1.320607e-06
8.090287e-07
6.68568e-07
7.743146e-07
2.255597e-07
-0.0002129769
0.0002140172
-1.819688e-07
-1.798665e-06
2.039162e-07
2.867567e-07
2.241302e-07
8.662276e-08
-0.000214838
0.0002150178
-2.168537e-07
-2.991929e-07
7.568633e-08
9.147775e-08
8.252369e-08
-1.2798e-07
-0.000215115
0.0002155336
-2.746474e-07
5.210489e-07
-2.365592e-07
-1.020825e-07
-1.984324e-07
-4.718022e-07
-0.0002156547
0.0002147548
-1.912835e-07
3.198628e-06
-5.608339e-07
-4.62657e-07
-6.120826e-07
-1.220591e-06
-0.0002122702
0.0002110025
-5.197671e-10
6.137107e-06
-1.421973e-06
-9.770257e-07
-1.24926e-06
-2.873819e-06
-0.0002111379
0.0002126313
1.279314e-07
1.005652e-05
-3.428891e-06
-2.372434e-06
-3.002676e-06
-6.121054e-06
-0.0002181438
0.0002243627
2.686381e-07
1.903343e-05
-6.814228e-06
-5.836884e-06
-6.748796e-06
-3.704573e-06
-0.0002215108
0.0001985476
1.60492e-07
3.326081e-05
-5.629274e-07
-4.249199e-06
-1.941377e-06
-2.985501e-06
-0.0002042515
0.0001838022
-1.789988e-06
2.179046e-05
1.411447e-06
1.176633e-06
8.46298e-07
-1.610851e-07
-0.0001624724
0.0001420174
-9.168426e-07
2.821084e-05
-8.006009e-07
-1.669954e-06
-4.207369e-06
-5.422126e-06
-0.0001307794
0.0001213573
3.110149e-07
2.744519e-05
-4.869507e-06
-6.044863e-06
-1.997604e-06
9.1512e-07
-0.0001100859
0.0001027944
1.928191e-06
5.752188e-06
1.035504e-06
-3.430675e-07
-1.996439e-06
1.422096e-06
-0.0001022818
9.767454e-05
3.704427e-06
-1.386493e-06
2.481332e-06
-1.617706e-06
3.61852e-09
3.533882e-06
-9.648213e-05
9.585162e-05
1.761477e-06
-1.569247e-05
1.511701e-06
5.151475e-06
4.364454e-06
1.461839e-06
-9.882011e-05
0.0001050687
9.366158e-07
-1.103381e-05
1.599917e-06
-3.26063e-07
1.112942e-06
1.592791e-06
-0.0001100955
0.0001152764
1.102252e-06
-1.221758e-05
2.046802e-06
5.448616e-07
1.750006e-06
4.367488e-07
-0.0001181747
0.0001241155
-2.620346e-07
-9.910358e-06
1.108446e-06
6.311703e-07
2.055256e-06
7.349099e-07
-0.0001262193
0.000132585
-8.563679e-07
-1.208334e-05
1.354248e-06
1.558622e-06
2.926175e-06
2.067576e-06
-0.0001331747
0.0001356319
1.975226e-07
-9.805193e-06
1.635805e-06
2.018912e-06
1.428241e-06
1.967545e-07
-0.0001416891
0.0001456645
9.751725e-08
-4.424243e-06
7.087094e-07
-1.603866e-06
1.049673e-06