/*--------------------------------*- C++ -*----------------------------------*\
| =========                 |                                                 |
| \\      /  F ield         | foam-extend: Open Source CFD                    |
|  \\    /   O peration     | Version:     3.1                                |
|   \\  /    A nd           | Web:         http://www.extend-project.de       |
|    \\/     M anipulation  |                                                 |
\*---------------------------------------------------------------------------*/
FoamFile
{
    version     2.0;
    format      ascii;
    class       volScalarField;
    location    "8";
    object      pd;
}
// * * * * * * * * * * * * * * * * * * * * * * * * * * * * * * * * * * * * * //

dimensions      [1 -1 -2 0 0 0 0];

internalField   nonuniform List<scalar> 
119952
(
7086.774
7080.943
7042.634
7016.355
6993.362
6979.533
6947.06
6918.39
6894.118
6880.094
6861.835
6846.89
6839.824
6831.941
6834.031
6798.567
6815.408
6779.339
6772.134
6746.267
6728.097
6704.46
6666.054
6653.709
6635.493
6600.501
6546.62
6545.842
6552.992
8384.59
6171.453
6075.007
5960.973
5907.905
5659.458
5601.291
5473.307
5387.227
5116.283
4953.862
5242.118
5204.017
5232.894
5254.972
5293.523
5334.372
5383.743
5453.053
5702.077
5802.185
5852.127
5942.732
6052.11
6184.461
6291.832
6450.259
6556.337
6676.053
6776.991
6877.403
6958.01
7019.784
7064.37
7096.273
7115.825
7125.999
7122.925
7108.473
7089.848
7066.605
7047.608
7026.432
6998.894
6968.9
6940.021
6917.319
6895.447
6876.572
6859.384
6847.024
6836.488
6826.852
6820.948
6811.91
6803.172
6783.142
6769.526
6748.646
6726.924
6704.87
6680.014
6646.393
6614.317
6578.783
6564.276
6533.548
6551.541
6521.952
6475.724
6432.347
6375.735
6333.211
6299.415
6279.274
6268.585
6273.765
6298.716
6349.789
6419.301
6518.666
6645.453
6769.581
6896.275
7049.624
7195.547
7320.607
7432.483
7519.377
7568.015
7600.722
7622.683
7627.414
7620.212
7603.503
7583.521
7563.429
7543.798
7524.271
7507.709
7495.353
7485.709
7479.349
7474.681
7472.504
7467.503
7466.77
7468.56
7466.846
7467.002
7467.371
7475.418
7474.589
7461.362
7437.86
7402.559
7356.599
7306.26
7257.006
7226.879
7216.755
7216.484
7223.172
7236.449
7252.597
7266.847
7275.602
7275.149
7275.767
7273.157
7271.476
7266.579
7258.472
7249.88
7239.677
7228.045
7219.089
7215.579
7209.606
7208.299
7207.712
7208.463
7209.795
7213.89
7221.306
7232.096
7247.527
7267.899
7276.964
7302.786
7325.958
7349.368
7370.226
7392.033
7407.758
7427.655
7443.43
7455.03
7466.437
7474.737
7483.365
7491.608
7497.217
7501.012
7506.792
7511.584
7516.486
7519.852
7513.649
7474.656
7479.273
7481.502
7496.809
7475.714
7513.412
7515.861
7516.297
7518.972
7522.549
7525.487
7529.03
7534.561
7541.453
7539.416
7544.556
7546.392
7536.646
7590.329
7570.29
7572.378
7573.187
7599.163
7588.111
7590.895
7596.268
7600.797
7606.297
7611.553
7617.277
7623.132
7629.997
7635.542
7640.773
7646.205
7653.289
7657.818
7661.623
7670.415
7672.288
7679.785
7694.4
7708.696
7723.401
7738.917
7748.829
7758.963
7770.4
7776.089
7781.22
7783.736
7813.737
7800.164
7803.325
7811.845
7820.465
7827.031
7835.099
7851.261
7852.459
7882.043
7893.301
7905.863
7916.113
7925.507
7935.159
7939.228
7963.51
7953.269
7926.593
7946.207
7946.585
7951.162
7958.327
7971.506
7993.952
8008.418
8028.803
8049.137
8066.106
8071.079
8080.747
8088.153
8094.509
8099.068
8100.306
8100.471
8123.569
8165.21
8181.323
8203.864
8219.826
8229.315
8235.993
8242.629
8250.93
8259.678
8267.146
8272.08
8276.397
8280.738
8284.918
8290.599
8296.748
8303.484
8309.986
8321.251
8340.578
8362.132
8378.546
8395.264
8406.803
8414.846
8419.413
8425.088
8430.14
8436.109
8441.063
8444.179
8445.08
8443.602
8439.686
8436.055
8439.489
8456.132
8476.652
8495.707
8509.499
8512.247
8520.013
8521.952
8523.876
8524.843
8523.142
8515.213
8507.818
8499.812
8491.673
8484.22
8482.081
8482.91
8491.193
8500.179
8508.883
8518.472
8525.506
8527.406
8523.417
8525.16
8525.665
8523.323
8522.14
8520.252
8516.765
8511.695
8507.335
8502.912
8496.853
8486.458
8458.878
8423.553
8430.95
8498.444
8519.096
8530.019
8526.63
8523.785
8516.73
8508.694
8501.094
8493
8488.644
8491.742
8486.524
8473.827
8476.407
8473.151
8468.497
8463.389
8459.429
8456.485
8461.522
8440.084
8447.172
8442.813
8437.043
8433.598
8429.838
8426.554
8423.41
8421.408
8418.09
8416.611
8419.68
8422.664
8424.151
8426.07
8427.162
8428.2
8429.528
8430.932
8432.572
8434.737
8437.522
8438.708
8428.603
8403.893
8387.205
6652.152
6564.435
6640.208
6573.416
6525.237
6473.465
6428.012
6393.42
6385.446
6347.712
6133.41
5955.061
5807.549
5645.783
5509.797
5398.996
5316.854
5311.732
5446.816
5425.855
5436.194
5470.208
5507.33
5533.935
5603.353
5659.801
5723.522
5793.342
5865.924
5916.98
5976.953
6025.243
6083.694
6099.981
6135.752
6155.976
6162.194
6142.914
6096.052
5973.469
5850.819
5683.038
5540.462
5406.775
5281.846
5234.831
5216.924
5186.671
5187.595
5205.972
5241.139
5288.95
5344.067
5401.613
5488.781
5640.685
5729.961
5826.955
5938.534
6059.079
6178.755
6311.99
6442.35
6564.384
6689.663
6798.14
6891.502
6974.469
7036.034
7081.601
7111.665
7128.696
7135.023
7131.218
7117.073
7096.538
7072.45
7046.51
7020.932
6992.639
6961.397
6932.671
6907.684
6883.417
6863.024
6847.185
6836.526
6829.845
6823.45
6816.726
6805.351
6791.755
6774.577
6755.317
6733.769
6710.585
6689.719
6672.677
6657.1
6636.053
6610.947
6581.917
6549.251
6512.044
6472.088
6427.466
6381.898
6337.946
6297.524
6264.253
6242.827
6233.684
6241.614
6273.009
6324.31
6391.771
6490.445
6616.454
6753.049
6897.112
7052.164
7199.437
7329.216
7439.947
7526.7
7584.835
7614.459
7622.295
7618.395
7607.431
7588.809
7566.432
7544.205
7522.926
7504.827
7490.186
7479.542
7473.935
7471.513
7466.136
7462.275
7461.407
7460.358
7461.871
7459.308
7463.02
7478.015
7477.968
7472.981
7449.483
7409.73
7360.572
7312.594
7269.483
7230.75
7209.875
7207.062
7213.938
7226.296
7241.418
7256.78
7269.925
7279.463
7280.98
7279.654
7275.785
7271.591
7267.235
7259.467
7248.472
7236.675
7225.241
7216.296
7211.229
7207.728
7204.997
7203.558
7204.445
7206.914
7211.843
7221.314
7234.581
7250.931
7268.231
7286.833
7307.819
7330.575
7353.668
7375.823
7396.718
7415.985
7433.424
7448
7460.433
7470.841
7479.455
7486.219
7492.366
7497.509
7501.358
7502.706
7510.989
7515.063
7505.73
7501.345
7487.596
7484.108
7488.433
7496.04
7502.887
7510.956
7514.847
7516.686
7519.673
7523.247
7526.776
7530.601
7535.102
7539.405
7545.365
7549.77
7556.067
7565.164
7559.802
7565.912
7570.057
7574.113
7580.666
7587.077
7591.197
7596.075
7600.999
7606.245
7611.952
7617.829
7623.567
7629.069
7634.812
7640.324
7646.233
7651.663
7654.648
7660.576
7666.647
7673.411
7683.897
7698.526
7714.746
7728.523
7739.957
7751.159
7761.093
7769.444
7776.073
7781.832
7785.499
7795.413
7791.331
7800.904
7808.18
7815.381
7825.921
7840.03
7855.63
7868.64
7882.417
7894.948
7906.233
7916.364
7926.435
7936.028
7944.057
7949.661
7949.099
7925.853
7940.327
7948.747
7953.691
7963.542
7979.975
8001.459
8021.442
8038.185
8052.088
8062.921
8071.303
8079.497
8087.156
8093.588
8098.987
8105.127
8117.088
8141.218
8172.229
8194.3
8208.109
8220.285
8229.745
8236.017
8241.872
8248.965
8256.824
8263.935
8270.027
8275.242
8280.72
8286.071
8290.656
8299.203
8308.416
8316.231
8328.41
8347.48
8367.852
8384.408
8397.048
8406.75
8414.361
8420.589
8425.951
8431.379
8437.194
8441.716
8444.196
8445.282
8444.32
8440.469
8440.02
8448.682
8463.351
8480.39
8497.675
8508.686
8514.694
8518.547
8521.591
8523.732
8523.525
8519.798
8512.584
8504.103
8495.922
8489.088
8484.955
8484.921
8488.239
8493.532
8502.796
8514.876
8524.291
8528.501
8526.69
8521.816
8520.358
8521.65
8522.675
8521.826
8518.944
8515.232
8509.887
8505.159
8500.853
8494.141
8485.242
8470.943
8461.086
8465.704
8489.921
8509.91
8515.125
8514.188
8511.561
8507.772
8502.758
8497.196
8491.746
8487.16
8483.557
8480.976
8477.629
8473.311
8468.441
8465.37
8462.678
8459.217
8455.342
8451.409
8447.334
8443.398
8439.643
8435.733
8431.777
8427.923
8424.512
8421.964
8420.742
8419.871
8420.012
8421.038
8422.534
8423.811
8424.831
8425.751
8426.614
8427.638
8428.811
8429.914
8430.239
8429.425
8426.036
8419.899
8411.038
8405.524
4947.283
5101.212
5193.684
5238.754
5392.004
5402.568
5443.659
5439.067
5394.383
5250.091
5468.87
5396.107
5361.157
5310.341
5249.748
5209.092
5186.42
5175.666
5218.843
5238.915
5289.072
5371.398
5488.336
5624.204
5767.055
5931.964
6071.223
6223.953
6374.24
6469.965
6579.164
6657.567
6712.916
6747.005
6766.212
6775.981
6772.065
6734.55
6699.47
6677.525
6642.58
6592.664
6538.916
6475.938
6410.85
6364.621
6310.348
6185.998
6043.636
5892.405
5739.005
5593
5461.204
5347.762
5272.565
5280.853
5275.883
5306.59
5358.57
5423.817
5459.318
5513.092
5575.444
5639.473
5726.743
5813.118
5896.757
5968.199
6018.544
6056.348
6091.026
6123.376
6161.524
6195.21
6179.008
6103.3
5990.195
5842.445
5678.664
5521.924
5383.772
5274.547
5194.074
5142.514
5121.561
5121.87
5139.485
5174.389
5221.631
5279.738
5349
5429.113
5509.116
5578.268
5667.546
5773.266
5890.546
6014.216
6141.84
6272.299
6409.911
6546.978
6674.065
6793.386
6891.067
6980.753
7051.073
7100.773
7126.119
7137.527
7140.472
7138.769
7127.008
7104.944
7078.112
7050.982
7021.762
6990.235
6958.798
6929.413
6901.73
6876.965
6855.469
6838.425
6826.563
6820.546
6818.494
6812.231
6801.276
6785.349
6766.392
6746.134
6725.577
6703.427
6685.113
6674.534
6671.268
6652.276
6620.235
6586.168
6549.773
6507.668
6460.607
6410.384
6362.38
6317.207
6274.901
6238.037
6212.921
6198.051
6197.475
6221.22
6267.252
6332.149
6427.244
6554.012
6694.556
6847.617
7011.742
7167.226
7302.217
7416.572
7507.394
7572.102
7608.366
7624.031
7624.403
7612.596
7592.344
7562.167
7526.576
7502.29
7481.168
7466.785
7459.748
7456.055
7455.307
7456.541
7455.789
7455.907
7456.677
7455.877
7453.649
7458.358
7465.747
7478.998
7481.367
7447.609
7398.518
7346.104
7296.649
7253.483
7222.17
7201.833
7196.017
7203.68
7222.991
7244.291
7261.915
7273.502
7281.508
7283.686
7282.677
7280.472
7277.142
7271.966
7262.118
7248.701
7234.554
7221.36
7211.837
7206.788
7204.255
7202.082
7199.977
7198.995
7200.13
7203.632
7209.339
7219.267
7240.722
7264.701
7284.863
7306.054
7327.922
7349.92
7371.268
7391.992
7411.35
7429.96
7446.603
7459.227
7468.858
7477.511
7484.623
7489.273
7490.632
7494.033
7506.101
7516.061
7513.506
7503.245
7496.858
7493.462
7495.862
7501.252
7502.926
7504.86
7508.453
7512.908
7517.269
7521.332
7525.155
7528.834
7532.465
7536.357
7540.672
7545.225
7549.974
7554.796
7559.338
7563.908
7568.183
7571.863
7575.687
7580.479
7586.468
7591.793
7596.764
7601.773
7607.129
7612.67
7618.325
7624.34
7630.16
7635.73
7641.158
7646.342
7651.495
7657.617
7664.187
7670.945
7679.88
7691.67
7704.303
7717.135
7729.459
7740.744
7751.309
7760.446
7768.378
7774.793
7780.069
7785.506
7790.887
7796.872
7803.541
7811.306
7820.351
7831.141
7844.08
7857.818
7870.854
7882.801
7894.095
7904.792
7914.46
7923.283
7931.056
7937.77
7943.357
7948.538
7953.733
7958.157
7962.299
7966.661
7973.593
7984.204
7999.17
8015.958
8031.478
8045.857
8059.789
8072.085
8082.564
8092.153
8099.473
8106.119
8112.694
8122.057
8138.366
8158.204
8177.286
8192.649
8206.945
8220.321
8232.142
8242.198
8251.822
8261.359
8268.854
8274.74
8280.712
8286.817
8292.266
8297.916
8304.349
8311.511
8320.034
8330.264
8345.385
8362.426
8377.963
8391.684
8402.703
8410.921
8418.239
8425.107
8431.42
8436.809
8441.312
8444.722
8447.013
8448.277
8448.008
8451.524
8457.33
8469.168
8481.649
8494.757
8505.647
8512.941
8517.979
8521.126
8523.082
8522.47
8519.02
8512.802
8505.806
8499.348
8495.368
8494.303
8496.337
8500.357
8506.005
8511.184
8514.766
8518.737
8524.252
8523.989
8520.616
8521.03
8522.425
8521.01
8519.111
8517.583
8513.765
8509.251
8506.653
8500.529
8493.952
8487.977
8479.199
8472.64
8479.136
8496.332
8509.34
8513.86
8512.896
8510.209
8506.619
8502.375
8497.594
8492.721
8488.049
8483.722
8479.243
8474.805
8470.995
8467.835
8463.849
8459.111
8454.506
8450.539
8447.164
8444.229
8441.367
8438.181
8434.587
8430.933
8427.722
8425.016
8422.684
8420.568
8419.664
8419.739
8420.355
8421.256
8422.124
8422.947
8423.676
8424.315
8424.965
8425.519
8425.692
8425.435
8424.325
8422.144
8418.898
8414.177
8409.97
3974.125
3868.159
3620.923
3964.32
3937.345
4030.214
4038.104
4138.65
4273.499
4385.814
4526.128
4661.456
4793.071
4954.103
5094.615
5221.065
5325.498
5394.396
5439.048
5452.769
5448.82
5451.599
5447.178
5420.108
5358.319
5282.408
5228.439
5190.923
5179.847
5176.777
5200.299
5218.985
5280.661
5369.511
5492.771
5628.214
5775.44
5937.835
6105.599
6267.647
6416.354
6534.52
6638.117
6716.154
6754.381
6772.986
6783.807
6790.982
6779.858
6749.467
6717.005
6688.9
6655.189
6608.53
6550.208
6469.831
6377.623
6284.657
6179.7
6053.347
5914.883
5767.315
5615.511
5467.297
5332.428
5226.562
5155.81
5122.238
5134.042
5171.212
5228.423
5300.244
5373.906
5444.305
5525.268
5614.192
5717.914
5821.258
5916.442
5993.167
6037.018
6061.209
6088.938
6121.718
6160.523
6201.186
6173.706
6057.503
5895.653
5722.898
5552.464
5399.555
5272.732
5173.975
5107.067
5068.53
5055.38
5062.682
5086.831
5126.469
5179.861
5243.439
5310.534
5380.642
5457.639
5542.963
5635.07
5735.068
5850.026
5967.949
6095.864
6239.648
6372.258
6508.949
6643.922
6764.717
6875.501
6974.957
7054.577
7111.702
7148.764
7166.692
7169.205
7158.925
7137.146
7112.778
7086.385
7055.128
7022.793
6989.287
6955.117
6921.521
6890.165
6863.096
6839.769
6821.513
6810.074
6805.071
6805.552
6803.133
6792.97
6775.767
6755.955
6735.477
6716.6
6698.837
6686.557
6681.876
6681.094
6666
6628.501
6586.727
6545.776
6503.624
6454.734
6401.556
6350.25
6301.677
6255.676
6215.439
6185.237
6167.638
6161.987
6178.198
6216.599
6272.325
6358.41
6477.885
6620.38
6785.827
6956.241
7121.175
7262.579
7384.693
7483.735
7546.157
7584.882
7605.514
7609.551
7599.134
7579.015
7553.906
7526.805
7500.654
7477.718
7446.23
7424.56
7419.615
7433.605
7441.833
7446.436
7449.044
7447.792
7445.881
7444.947
7448.162
7452.191
7450.464
7448.108
7429.455
7386.933
7336.391
7282.491
7231.384
7192.277
7172.946
7177.182
7194.538
7220.704
7248.99
7269.24
7277.182
7271.945
7275.392
7277.838
7275.355
7281.008
7281.679
7268.201
7249.842
7231.581
7216.997
7208.793
7204.76
7202.08
7199.123
7195.891
7193.35
7193.862
7197.4
7207.623
7221.533
7243.703
7261.438
7281.421
7304.159
7326.812
7348.673
7369.372
7389.724
7409.081
7427.392
7445.879
7461.19
7471.473
7477.47
7486.002
7496.144
7506.415
7511.981
7518.545
7508.791
7493.95
7491.54
7486.051
7479.152
7484.235
7492.765
7502.714
7509.678
7511.875
7513.614
7516.064
7519.32
7523.011
7526.926
7530.966
7535.036
7539.083
7543.219
7547.33
7551.48
7555.389
7558.909
7562.42
7566.489
7569.554
7577.016
7585.892
7590.715
7595.175
7600.283
7605.769
7611.673
7617.673
7623.786
7629.894
7635.878
7641.956
7648.362
7654.91
7660.592
7665.775
7673.083
7681.935
7691.839
7703.039
7714.979
7726.488
7737.22
7747.063
7756.444
7764.901
7772.34
7778.957
7785.254
7791.617
7798.096
7805.194
7813.385
7822.682
7833.045
7844.476
7856.437
7868.407
7880.115
7891.068
7901.263
7910.747
7919.504
7927.52
7934.713
7940.805
7945.502
7949.035
7952.663
7958.096
7966.016
7976.465
7989.468
8004.209
8019.469
8033.98
8046.916
8058.497
8069.298
8079.447
8088.978
8098.394
8107.535
8117.33
8128.952
8143.709
8162.895
8182.113
8198.603
8210.575
8220.685
8230.15
8239.507
8248.092
8256.121
8263.602
8270.706
8277.824
8284.825
8291.359
8298.273
8305.91
8315.177
8326.208
8338.363
8351.765
8365.871
8379.597
8391.636
8401.258
8409.435
8416.587
8423.544
8429.819
8435.413
8440.523
8444.438
8448.013
8451.695
8455.869
8459.467
8464.888
8474.467
8483.401
8492.744
8502.049
8509.155
8514.607
8518.161
8519.775
8519.541
8517.35
8513.974
8510.548
8507.886
8506.275
8505.924
8507.44
8511.02
8516.232
8517.518
8515.389
8515.308
8518.819
8522.817
8525.218
8525.337
8524.766
8522.86
8519.471
8517.556
8514.23
8509.585
8506.802
8501.336
8495.604
8491.581
8487.431
8485.423
8489.22
8495.723
8501.223
8504.68
8505.043
8503.329
8500.421
8496.753
8492.591
8488.21
8483.919
8479.932
8476.23
8472.797
8469.472
8466.426
8462.696
8457.681
8453.321
8449.869
8446.87
8443.919
8440.681
8437.221
8433.827
8430.581
8427.577
8424.928
8422.657
8420.961
8420.152
8419.909
8420.056
8420.423
8420.74
8421.117
8421.569
8421.988
8422.383
8422.616
8422.52
8422.174
8421.344
8419.931
8417.932
8415.426
8413.535
4151.648
4163.412
4181.705
4171.833
4191.489
4200.797
4175.108
4118.526
4087.276
4059.559
3968.596
3936.011
3904.45
3860.548
3884.29
3873.898
3925.802
3994.095
4085.485
4194.139
4330.489
4492.824
4659.508
4834.114
4992.812
5128.276
5253.909
5348.067
5418.397
5473.819
5483.386
5472.109
5446.214
5427.924
5397.613
5334.58
5257.309
5204.092
5168.009
5144.749
5129.745
5126.024
5136.471
5187.856
5272.935
5395.328
5547.04
5717.144
5894.955
6076.789
6256.126
6418.413
6563.688
6676.953
6749.758
6783.22
6808.011
6818.028
6807.882
6789.366
6765.767
6738.484
6712.2
6683.639
6652.281
6594.274
6509.353
6397.228
6266.744
6126.743
5982.563
5833.183
5679.166
5523.021
5367.852
5220.716
5099.494
5014.901
4982.226
4993.477
5034.83
5100.262
5176.136
5261.547
5361.155
5468.748
5582.183
5702.775
5820.694
5927.885
6012.666
6053.934
6069.874
6081.115
6104.188
6139.892
6186.292
6141.382
5988.178
5802.457
5609.676
5436.399
5287.841
5169.071
5079.57
5022.023
4992.795
4990.377
5011.147
5047.062
5095.614
5152.999
5220.429
5291.958
5362.4
5434.75
5513.296
5598.627
5693.754
5805.822
5919.156
6048.261
6193.79
6328.164
6466.292
6608.026
6735.897
6856.565
6961.597
7047.55
7109.757
7150.716
7173.314
7179.132
7168.871
7143.927
7111.6
7078.782
7047.441
7016.849
6986.197
6952.442
6916.77
6881.124
6847.773
6818.686
6797.48
6785.943
6783.07
6785.16
6785.824
6780.532
6770.164
6751.589
6733.043
6716.738
6702.934
6693.569
6686.02
6677.435
6658.043
6624.875
6585.527
6545.057
6503.472
6455.612
6401.581
6347.484
6295.295
6246.239
6203.204
6168.466
6146.156
6132.999
6139.773
6168.603
6218.019
6294.088
6405.008
6549.533
6718.556
6897.817
7067.572
7217.478
7345.188
7445.377
7508.089
7551.194
7575.904
7583.681
7574.968
7553.507
7526.681
7499.681
7475.184
7455.063
7440.015
7428.931
7417.866
7411.773
7418.219
7429.119
7433.002
7435.322
7436.114
7434.109
7433.919
7433.47
7431.582
7427.83
7410.17
7377.99
7339.123
7282.604
7229.331
7194.39
7167.463
7158.975
7193.605
7243.947
7271.912
7284.061
7287.16
7283.62
7278.507
7279.615
7284.914
7285.363
7281.16
7266.904
7249.325
7231.406
7217.573
7209.47
7204.534
7199.994
7194.39
7187.57
7181.918
7178.004
7178.16
7189.734
7216.533
7237.711
7245.928
7268.672
7299.468
7324.384
7346.408
7365.956
7386.425
7405.615
7426.923
7443.803
7451.764
7465.064
7477.961
7485.962
7491.647
7504.04
7509.188
7506.147
7501.631
7496.221
7495.727
7494.382
7493.393
7491.227
7490.814
7495.268
7500.774
7506.587
7512.92
7518.54
7521.887
7524.792
7527.924
7531.363
7535.104
7539.183
7543.498
7547.821
7552.165
7556.776
7561.507
7566.034
7570.192
7574.896
7579.192
7583.098
7587.984
7593.506
7599.052
7604.97
7611.109
7617.595
7623.489
7629.121
7635.18
7641.655
7648.23
7655.739
7661.155
7665.737
7673.358
7682.322
7692.33
7703.906
7715.863
7727.078
7736.732
7745.554
7753.936
7762.062
7769.706
7776.851
7783.755
7790.703
7797.888
7805.506
7813.904
7823.283
7833.553
7844.511
7855.739
7866.943
7877.843
7888.328
7898.212
7907.497
7916.253
7924.428
7932.022
7939.079
7945.702
7952.062
7958.975
7967.091
7976.218
7985.96
7996.293
8007.569
8020.283
8033.331
8045.941
8057.874
8069.168
8080.486
8091.629
8102.17
8112.735
8124.3
8135.254
8148.524
8163.094
8177.071
8190.693
8203.581
8215.524
8226.515
8236.363
8245.687
8255.002
8264.01
8272.303
8280.199
8288.087
8295.858
8303.782
8312.164
8321.016
8330.677
8341.272
8353.089
8365.162
8376.611
8387.598
8397.849
8406.696
8414.954
8422.289
8429.074
8435.353
8440.937
8445.945
8450.704
8455.122
8460.361
8465.391
8470.959
8478.784
8485.725
8492.791
8500.899
8507.02
8511.707
8515.907
8518.609
8519.293
8518.503
8517.106
8515.611
8514.213
8513.082
8512.506
8512.271
8513.44
8516.72
8517.436
8516.597
8518.865
8522.197
8525.04
8526.79
8525.9
8524.214
8523.032
8519.492
8516.815
8514.885
8511.703
8509.385
8504.772
8499.75
8496.242
8493.323
8491.454
8492.276
8495.337
8498.589
8500.844
8502.243
8502.162
8499.973
8496.411
8492.231
8487.901
8483.61
8479.56
8475.744
8472.125
8468.526
8464.6
8460.051
8455.522
8451.747
8448.572
8445.493
8442.233
8438.842
8435.587
8432.54
8429.624
8426.817
8424.249
8422.167
8420.615
8419.537
8418.965
8418.786
8418.836
8418.968
8419.157
8419.438
8419.668
8419.87
8419.962
8419.778
8419.391
8418.789
8417.928
8416.904
8415.663
8414.801
4287.468
4300.659
4395.966
4259.063
4245.748
4236.724
4200.012
4175.697
4164.134
4164.1
4158.035
4156.901
4161.94
4181.699
4209.528
4243.907
4200.097
4115.939
4069.418
3981.727
3903.427
3847.753
3804.109
3771.715
3796.999
3859.201
3841.794
3868.199
4029.935
4160.681
4303.338
4475.063
4652.169
4832.368
5004.9
5155.552
5270.384
5346.253
5416.829
5464.826
5477.733
5464.817
5438.071
5409.624
5372.76
5310.908
5236.224
5172.477
5122.214
5086.032
5066.52
5059.739
5077.802
5130.472
5216.759
5333.727
5482.756
5649.706
5835.718
6027.294
6215.243
6384.915
6553.505
6689.416
6761.38
6791.093
6807.119
6827.535
6868.201
6854.748
6784.232
6742.211
6729.661
6708.98
6680.689
6627.12
6528.579
6390.78
6236.519
6079.106
5914.77
5753.819
5588.297
5417.086
5249.363
5094.505
4964.018
4867.411
4817.5
4827.031
4881.743
4959.513
5047.071
5141.711
5250.248
5376.217
5512.786
5653.86
5792.524
5912.312
5998.896
6038.469
6042.651
6038.142
6057.162
6093.972
6122.729
6065.531
5895.051
5702.667
5503.674
5328.448
5184.55
5071.883
4988.561
4936.923
4916.114
4922.289
4948.114
4997.809
5059.808
5126.29
5199.963
5276.464
5349.147
5420.865
5495.706
5576.293
5669.163
5772.977
5884.001
6006.495
6140.859
6282.594
6424.55
6566.123
6700.42
6824.108
6933.48
7024.005
7089.779
7130.561
7151.666
7156.926
7147.573
7128.912
7106.905
7078.13
7038.626
7003.764
6974.794
6940.505
6900.401
6859.455
6821.797
6789.643
6766.088
6754.71
6756.747
6763.344
6769.927
6770.268
6759.748
6745.653
6734.576
6720.088
6706.173
6696.307
6685.886
6675.313
6658.158
6628.778
6590.076
6547.863
6504.538
6457.821
6405.684
6351.239
6297.484
6248.341
6204.506
6167.266
6139.932
6125.509
6128.043
6151.851
6195.268
6261.318
6359.222
6493.773
6660.598
6840.706
7010.606
7160.056
7283.321
7380.22
7449.302
7495.042
7519.993
7527.35
7521.13
7506.036
7485.073
7461.141
7439.08
7422.674
7411.83
7405.039
7402.839
7405.055
7408.814
7409.331
7412.594
7416.791
7416.865
7417.634
7419.08
7418.071
7417.549
7410.48
7397.225
7376.21
7340.026
7298.205
7269.21
7246.369
7215.23
7190.931
7202.155
7255.696
7305.003
7314.221
7313.839
7312.714
7296.493
7287.165
7290.026
7275.933
7264.194
7254.927
7244.188
7230.292
7217.5
7209.559
7202.609
7197.473
7191.386
7181.495
7173.203
7172.995
7185.996
7195.538
7211.132
7226.798
7236.974
7258.031
7288.288
7318.161
7340.751
7362.072
7380.839
7404.021
7433.621
7446.514
7448.717
7463.23
7478.498
7484.549
7487.393
7492.716
7495.304
7494.314
7494.393
7494.887
7498.37
7503.306
7502.381
7496.612
7493.987
7493.74
7495.725
7501.561
7506.994
7511.787
7518.054
7523.67
7527.576
7530.714
7533.61
7536.86
7540.634
7544.685
7548.772
7553.055
7557.797
7562.716
7567.671
7572.531
7575.886
7578.954
7583.74
7589.154
7594.398
7600.998
7608.617
7615.515
7620.79
7625.383
7633.513
7642.527
7648.811
7654.598
7660.85
7667.152
7674.038
7682.236
7692.906
7704.824
7715.742
7725.371
7734.292
7742.798
7751.148
7759.348
7767.348
7775.051
7782.457
7789.901
7797.649
7805.739
7814.356
7823.679
7833.629
7843.985
7854.586
7865.233
7875.73
7885.882
7895.544
7904.736
7913.495
7921.972
7930.128
7937.883
7945.359
7952.622
7959.945
7967.521
7975.664
7984.825
7995.68
8007.8
8020.49
8033.344
8045.932
8057.813
8069.163
8080.296
8091.175
8101.959
8112.923
8124.416
8136.316
8148.604
8162.8
8177.014
8190.605
8203.293
8214.831
8225.46
8235.419
8245.009
8254.303
8263.262
8271.799
8279.992
8288.155
8296.297
8304.545
8313.222
8322.446
8332.555
8343.759
8355.337
8366.707
8377.763
8388.474
8398.404
8407.183
8414.93
8422.268
8429.313
8435.813
8441.723
8447.078
8452.137
8457.366
8463.041
8468.941
8474.706
8481.747
8488.202
8493.697
8500.188
8506.114
8510.294
8514.231
8516.323
8517.342
8518.045
8518.459
8518.048
8517.058
8516.393
8516.525
8516.875
8517.941
8519.851
8520.751
8521.31
8523.351
8525.16
8526.392
8526.99
8526.148
8524.63
8522.972
8519.949
8517.21
8515.593
8513.168
8510.878
8507.105
8503.145
8499.998
8497.512
8495.924
8495.869
8497.807
8499.356
8498.92
8497.864
8496.837
8495.313
8492.7
8489.023
8484.835
8480.468
8476.249
8472.304
8468.821
8465.477
8461.776
8457.705
8453.678
8449.909
8446.105
8442.773
8439.666
8436.709
8433.887
8431.182
8428.532
8425.867
8423.405
8421.369
8419.76
8418.727
8418.105
8417.678
8417.389
8417.185
8417.217
8417.341
8417.48
8417.518
8417.454
8417.241
8416.881
8416.476
8415.97
8415.317
8414.65
8414.415
4326.163
4329.416
4334.757
4344.242
4334.902
4321.711
4297.745
4268.046
4249.756
4240.792
4218.01
4195.315
4183.304
4155.346
4123.398
4094.784
4110.277
4142.254
4184.32
4221.646
4234.681
4233.083
4169.957
4056.08
3931.758
3845.405
3789.32
3744.355
3706.141
3670.85
3675.664
3725.452
3797.819
3934.351
4082.006
4236.905
4439.514
4628.469
4825.996
5012.029
5172.186
5297.197
5374.074
5432.26
5466.313
5478.424
5463.697
5429.506
5383.672
5331.829
5272.065
5204.947
5137.745
5076.727
5030.916
5005.526
4998.672
5014.336
5061.008
5140.541
5255.309
5398.722
5563.992
5743.834
5938.767
6136.462
6321.2
6475.566
6594.23
6693.588
6763.865
6799.184
6818.939
6840.164
6808.283
6780.728
6775.622
6742.4
6725.379
6692.834
6629.114
6511.92
6362.912
6197.305
6022.927
5843.751
5666.424
5485.305
5301.988
5128.251
4967.184
4833.986
4738.65
4692.777
4702.823
4754.032
4831.388
4920.328
5019.067
5135.507
5274.117
5430.174
5593.825
5747.963
5882.985
5981.098
6033.926
6035.608
6013.972
6011.179
6052.375
6060.193
5983.1
5816.115
5618.738
5420.537
5241.9
5095.689
4979.285
4896.45
4850.232
4837.767
4856.956
4897.922
4956.63
5028.719
5103.687
5183.134
5263.184
5339.012
5411.227
5484.273
5563.972
5653.062
5751.557
5858.712
5975.103
6103.58
6239.938
6379.905
6520.498
6655.984
6779.725
6888.989
6980.207
7048.87
7094.347
7117.574
7120.812
7109.054
7086.885
7060.989
7032.268
7000.684
6976.366
6956.02
6920.213
6877.216
6834.953
6793.437
6753.348
6724.953
6715.446
6722.864
6737.08
6748.597
6751.838
6747.043
6739.246
6728.8
6718.29
6710.218
6702.783
6693.078
6682.123
6664.091
6634.742
6596.754
6554.479
6512.731
6469.14
6420.488
6369.073
6317.289
6268.419
6225.47
6189.305
6160.934
6143.585
6143.224
6164.926
6204.871
6263.192
6348.884
6471.831
6629.145
6800.925
6964.306
7103.723
7218.021
7309.278
7374.419
7416.537
7439.187
7445.693
7440.425
7428.528
7414.618
7401.864
7391.697
7383.824
7378.401
7376.368
7377.341
7382.6
7389.389
7394.628
7396.996
7397.807
7398.949
7399.997
7399.779
7398.112
7398.093
7390.312
7382.48
7366.375
7343.417
7312.993
7279.123
7252.838
7244.836
7239.561
7232.196
7253.589
7290.108
7311.218
7306.223
7294.72
7278.846
7279.941
7279.259
7263.174
7258.464
7251.684
7243.251
7231.329
7219
7210.924
7202.618
7193.458
7182.274
7173.624
7171.731
7175.39
7183.568
7190.911
7202.361
7217.802
7232.741
7251.697
7275.687
7303.24
7328.042
7357.685
7385.188
7406.678
7428.686
7444.016
7452.494
7463.702
7474.978
7481.179
7484.285
7485.763
7489.671
7492.918
7491.795
7492.557
7493.646
7497.112
7499.181
7497.189
7496.052
7497.06
7498.479
7500.999
7503.139
7506.431
7511.903
7519.44
7526.815
7531.47
7534.098
7536.372
7539.479
7543.688
7548.606
7553.291
7557.692
7561.908
7565.989
7570.296
7574.884
7579.735
7584.695
7589.682
7594.371
7600.414
7609.753
7616.986
7621.523
7625.776
7631.618
7639.535
7648.184
7655.273
7661.385
7668.478
7676.729
7684.973
7693.908
7704.827
7715.478
7724.64
7732.785
7740.777
7748.915
7757.337
7765.619
7773.514
7781.261
7789.113
7797.163
7805.419
7814.046
7823.209
7832.894
7842.968
7853.293
7863.692
7873.932
7883.82
7893.306
7902.456
7911.388
7920.12
7928.688
7936.943
7944.965
7952.931
7961.08
7969.726
7979.175
7989.477
8000.416
8011.663
8023.202
8034.912
8046.535
8057.891
8069.227
8080.472
8091.711
8102.77
8113.985
8125.248
8136.698
8148.621
8161.948
8175.432
8189.073
8201.472
8212.79
8223.455
8233.679
8243.573
8253.134
8262.542
8271.747
8280.745
8289.656
8298.6
8307.602
8316.924
8326.628
8336.548
8346.686
8357.181
8367.816
8378.206
8388.188
8397.712
8406.614
8414.751
8422.435
8429.658
8436.594
8442.985
8448.832
8454.464
8459.893
8465.664
8471.717
8477.796
8484.299
8490.288
8495.448
8500.78
8506.664
8511.244
8514.343
8515.604
8516.608
8517.857
8519.218
8519.431
8519.236
8519.325
8520.276
8521.269
8522.31
8523.569
8524.541
8525.309
8526.359
8527.337
8527.88
8527.903
8527.196
8525.892
8524.181
8521.84
8519.361
8517.215
8514.732
8512.216
8509.107
8505.874
8503.038
8500.733
8499.149
8498.586
8499.537
8499.784
8497.584
8494.864
8493.084
8491.725
8489.469
8486.419
8482.761
8478.782
8474.954
8471.85
8468.581
8464.56
8460.531
8456.565
8452.88
8449.167
8444.854
8440.791
8437.565
8434.774
8432.068
8429.466
8426.909
8424.446
8422.276
8420.442
8418.808
8417.618
8416.773
8416.125
8415.653
8415.361
8415.339
8415.432
8415.394
8415.226
8414.982
8414.763
8414.565
8414.382
8414.162
8413.834
8413.47
8413.372
4314.575
4319.336
4327.412
4337.035
4327.584
4304.877
4267.492
4230.769
4211.173
4217.585
4235.966
4236.227
4221.601
4179.729
4149.607
4127.769
4098.164
4116.767
4164.961
4217.324
4244.941
4217.895
4135.377
4020.958
3908.913
3810.682
3742.17
3686.047
3636.672
3588.5
3565.81
3610.111
3751.183
3831.114
3957.232
4160.036
4384.977
4602.069
4803.633
4997.725
5163.196
5289.833
5374.989
5428.695
5445.889
5442.753
5415.487
5367.649
5317.375
5261.818
5200.56
5136.803
5072.614
5007.966
4962.025
4932.174
4927.894
4946.712
4992.731
5068.359
5182.066
5321.095
5485.193
5657.523
5836.25
6025.061
6224.291
6356.532
6436.42
6545.243
6648.961
6698.965
6696.039
6683.637
6681.168
6691.83
6680.329
6691.617
6715.49
6668.621
6586.064
6473.253
6323.766
6151.394
5964.145
5767.75
5569.045
5371.653
5178.98
4999.755
4830.676
4692.079
4600.332
4561.444
4579.094
4637.854
4714.938
4798.3
4893.382
5008.224
5156.545
5329.957
5514.154