/*--------------------------------*- C++ -*----------------------------------*\
| =========                 |                                                 |
| \\      /  F ield         | foam-extend: Open Source CFD                    |
|  \\    /   O peration     | Version:     3.1                                |
|   \\  /    A nd           | Web:         http://www.extend-project.de       |
|    \\/     M anipulation  |                                                 |
\*---------------------------------------------------------------------------*/
FoamFile
{
    version     2.0;
    format      ascii;
    class       volScalarField;
    location    "18.5";
    object      nut;
}
// * * * * * * * * * * * * * * * * * * * * * * * * * * * * * * * * * * * * * //

dimensions      [0 2 -1 0 0 0 0];

internalField   nonuniform List<scalar> 
119952
(
4.400219e-05
2.946551e-05
3.036042e-05
3.388246e-05
3.627627e-05
3.438603e-05
3.305332e-05
3.195402e-05
3.097862e-05
3.006342e-05
2.916773e-05
2.827991e-05
2.742719e-05
2.663899e-05
2.593137e-05
2.530291e-05
2.473361e-05
2.41997e-05
2.365826e-05
2.307516e-05
2.945369e-05
2.776871e-05
2.708734e-05
3.505735e-05
3.366168e-05
3.290879e-05
3.236113e-05
3.219594e-05
3.196905e-05
1.998641e-05
2.888407e-05
3.166944e-05
3.604686e-05
4.042989e-05
4.504267e-05
4.985459e-05
5.481626e-05
5.975179e-05
6.454739e-05
7.318012e-05
0.0003209335
0.0003581949
0.0003987151
0.0004400327
0.0004797785
0.0005164283
0.0005496281
0.000579809
0.0006071726
0.0008166519
0.0008345156
0.0008532354
0.0008745672
0.0009009465
0.0009356266
0.0009803682
0.001036123
0.001103159
0.001181228
0.001271093
0.001368911
0.001476024
0.001592091
0.001715671
0.00184484
0.001977575
0.002111519
0.002248477
0.002364265
0.002419622
0.002467237
0.0025055
0.002519416
0.002501408
0.002447401
0.002367529
0.002271568
0.002166669
0.002059482
0.001956547
0.001863417
0.001783819
0.001719483
0.001670439
0.001635514
0.001612886
0.001600944
0.001599207
0.001611445
0.001621843
0.001638098
0.001659766
0.001685713
0.001697924
0.001698218
0.001681597
0.001619382
0.001503107
0.001463263
0.001440183
0.001428327
0.001421641
0.001417655
0.001415564
0.001414713
0.001414665
0.001415084
0.001415643
0.001415995
0.0014158
0.001414747
0.001412601
0.001409217
0.001404553
0.001398649
0.001391584
0.001383433
0.001374255
0.001364096
0.001353004
0.001341044
0.001328299
0.001314862
0.001300818
0.00128623
0.001271139
0.001255552
0.001239433
0.001222696
0.001205216
0.001186888
0.001167733
0.00114799
0.001128155
0.001108929
0.001091083
0.001075306
0.001062091
0.001051694
0.001044143
0.001039298
0.001036908
0.001036677
0.001038304
0.001041547
0.001046381
0.001053382
0.001060514
0.001066934
0.001073311
0.001079548
0.001085493
0.001091009
0.001095861
0.001099642
0.001101918
0.001102134
0.001099665
0.001093914
0.001084126
0.00106917
0.001048313
0.001021189
0.0009880958
0.0009502817
0.0009100074
0.0008703473
0.0008346071
0.0008053233
0.0007833347
0.0007676273
0.0007560822
0.000746529
0.0007374551
0.0007281569
0.0007185295
0.0007087585
0.0006990746
0.0006896262
0.0006804503
0.0006715097
0.0006627692
0.0006542435
0.0006459858
0.0006380572
0.0006305186
0.000623371
0.0006164933
0.0006096601
0.0006026271
0.0005952272
0.0005874341
0.0005793182
0.0005709012
0.0005620544
0.0005526904
0.0005438894
0.0004411773
0.0004380314
0.0004303839
0.0004131816
0.0003940134
0.0003786928
0.0003658155
0.000354438
0.0003441096
0.0003345902
0.0003257728
0.0003176181
0.000310086
0.0003031498
0.0002967766
0.0002909188
0.0002855237
0.0002805402
0.0002759272
0.0002716623
0.0002677332
0.0002641258
0.0002607934
0.0002576602
0.0002546551
0.0002517128
0.0002487743
0.0002457878
0.000242709
0.0002395381
0.000236302
0.0002330215
0.0002297873
0.0002265882
0.0002237376
0.0002236894
0.0002292641
0.0002333397
0.0002379405
0.000243074
0.0002486582
0.0002545144
0.0002605646
0.000266676
0.0002726686
0.0002783528
0.0002836397
0.0002878775
0.0002917845
0.0002954308
0.0002988687
0.0003021291
0.0003052301
0.0003081791
0.0003109731
0.0003136022
0.0003160539
0.000318318
0.0003203962
0.000322318
0.0003241411
0.0003259306
0.0003277507
0.0003296627
0.0003317177
0.0003339493
0.0003363752
0.0003389937
0.0003418025
0.0003448641
0.0004356756
0.0004430382
0.0004501636
0.0004571413
0.0004638712
0.0004702894
0.0004765904
0.0004828224
0.0004888735
0.0004946444
0.0005000622
0.0005050801
0.0005096944
0.0005139622
0.0005180109
0.0005219482
0.0005258695
0.0005298112
0.000533747
0.0005375924
0.0005412497
0.0005446537
0.0005478159
0.0005508372
0.0005538825
0.000557124
0.0005606802
0.0005645816
0.0005687738
0.0005731554
0.0005776359
0.000582097
0.0005864381
0.0005906016
0.0005945884
0.0005984673
0.0006023564
0.0006063803
0.0006106284
0.0006151434
0.0006199445
0.0006250656
0.0006305719
0.0006365291
0.0006429426
0.000649659
0.0006562865
0.0006627953
0.000669127
0.0006750883
0.0006805824
0.0006856276
0.0006902561
0.0006949055
0.0006991873
0.000701481
0.0007036272
0.0007056582
0.0007077467
0.0007098928
0.0007120481
0.0007141301
0.0007160534
0.0007177381
0.0007191293
0.0007201996
0.0007209387
0.0007213353
0.0007213591
0.0007209595
0.0007200726
0.0007186325
0.0007165773
0.0007138662
0.000710455
0.0007063153
0.000701464
0.0006959989
0.0006901186
0.0006841156
0.0006783159
0.0006729722
0.0006682407
0.0006641892
0.0006608082
0.000658026
0.0006557262
0.0006537616
0.0006519659
0.0006501657
0.0006481922
0.0006458986
0.0006431889
0.000640062
0.0006364502
0.0006320993
0.0006266652
0.0006198815
0.0006119484
0.0006030587
0.0005934289
0.0005834028
0.0005733945
0.0005638236
0.0005550616
0.0005473944
0.0005410206
0.0005360754
0.000532657
0.0005308423
0.0005306917
0.0005322412
0.0005354965
0.0005404298
0.000546977
0.0005550238
0.0005643496
0.0005745732
0.0005851549
0.0005955237
0.000605246
0.0006139837
0.0006214535
0.0006274929
0.0006323702
0.0006364375
0.0006400021
0.0006433611
0.0006468696
0.0006508124
0.0006551533
0.0006599177
0.0006651141
0.0006707267
0.0006768121
0.0006835849
0.0006914918
0.0007022462
0.0005642148
4.033117e-05
4.429328e-05
4.975358e-05
5.623466e-05
6.341545e-05
7.104289e-05
7.89186e-05
8.685589e-05
9.554652e-05
0.0003823688
0.0004695323
0.0005624989
0.0006554752
0.0007460304
0.0008329454
0.0009148949
0.0009911753
0.001062068
0.001520367
0.001590287
0.001666559
0.001744561
0.001825077
0.001907266
0.001990155
0.00207359
0.002158365
0.002245468
0.00233595
0.002428529
0.00252289
0.00262099
0.002724439
0.002833601
0.002948172
0.003067729
0.003191853
0.00330303
0.003400371
0.003504255
0.003613716
0.003723986
0.003823308
0.003896824
0.003933046
0.003929887
0.003896292
0.003847396
0.003794515
0.003743288
0.003692054
0.0036379
0.00358316
0.003527391
0.003470066
0.003408254
0.003957524
0.003891478
0.003828665
0.003772391
0.003723855
0.00368368
0.00365739
0.00365328
0.003682097
0.003744548
0.003839898
0.003966401
0.004120526
0.00429717
0.004490592
0.004695082
0.004904784
0.005113914
0.005316881
0.005502069
0.00565909
0.005787924
0.005882823
0.005937324
0.00595087
0.005925029
0.005863383
0.005769792
0.005649722
0.005510198
0.005359351
0.005205572
0.005056496
0.004918175
0.004794656
0.004688015
0.004598814
0.004526667
0.004470745
0.004429435
0.00439909
0.004380904
0.004372189
0.004359569
0.004339882
0.004314356
0.004278924
0.004231907
0.004189154
0.004163247
0.004143909
0.004130103
0.004120496
0.00411417
0.004110786
0.004110045
0.004111674
0.004115348
0.004120616
0.004126894
0.004133502
0.004139714
0.004144824
0.004148199
0.004149291
0.004147647
0.004142912
0.004134852
0.004123356
0.004108437
0.004090206
0.004068867
0.004044696
0.004018036
0.00398928
0.003958855
0.003927192
0.003894668
0.003861522
0.003827808
0.003793407
0.00375815
0.003721978
0.003685109
0.003648126
0.003611966
0.003577808
0.003546928
0.00352055
0.003499743
0.003485356
0.003477985
0.00347798
0.003485461
0.003500353
0.003522374
0.003551057
0.003585678
0.003625037
0.003667564
0.003712555
0.00375937
0.003807186
0.003855057
0.003901778
0.003945859
0.003985548
0.004018979
0.004044087
0.004058712
0.004060633
0.004047788
0.004018585
0.003972395
0.003910097
0.003834326
0.003749353
0.003660532
0.003573215
0.003491532
0.003417662
0.003351879
0.003293234
0.003240313
0.003191733
0.003146351
0.00310334
0.003062185
0.003022612
0.002984493
0.002947828
0.002912772
0.002879652
0.002848936
0.002821182
0.002797022
0.002777035
0.002761491
0.00275021
0.002742639
0.002738063
0.002735912
0.002735842
0.002737595
0.002740698
0.002744372
0.002747705
0.002752787
0.002620283
0.002472466
0.002371135
0.002296529
0.002237412
0.002187517
0.002143257
0.002102693
0.002064956
0.002029762
0.001997095
0.001966983
0.00193938
0.001914143
0.001891049
0.001869849
0.001850298
0.001832219
0.001815576
0.001800529
0.001787438
0.001776784
0.001769053
0.001764621
0.001763738
0.001766429
0.001772522
0.001781643
0.001793264
0.001806771
0.001821504
0.001836812
0.001852201
0.001867554
0.00188352
0.001901918
0.001920712
0.001938477
0.001954474
0.001968789
0.001981866
0.001994144
0.002005763
0.002016531
0.002026044
0.002033804
0.002039327
0.002042317
0.002042747
0.002040782
0.002036639
0.002030504
0.002022516
0.002012763
0.002001292
0.001988132
0.001973303
0.001956857
0.001939018
0.001920319
0.001901592
0.001883624
0.001867198
0.001852625
0.001840052
0.001829695
0.001821801
0.001816771
0.001814641
0.001815226
0.00219512
0.002207622
0.002221164
0.002235533
0.002250496
0.002265611
0.002280399
0.002294462
0.002307444
0.002319
0.002328845
0.002336829
0.002343022
0.002347742
0.002351452
0.002354582
0.002357385
0.002359872
0.002361847
0.002363016
0.002363124
0.002362095
0.002360125
0.002357669
0.002355322
0.002353629
0.002352929
0.00235331
0.002354653
0.002356708
0.002359171
0.002361729
0.002364142
0.002366331
0.002368431
0.002370737
0.002373578
0.002377197
0.002381712
0.002387186
0.00239374
0.002401609
0.002411077
0.002422317
0.002435249
0.002449473
0.002464352
0.002479241
0.00249355
0.002506848
0.002518948
0.002529867
0.002539579
0.002548
0.002554823
0.002560216
0.002564426
0.002567718
0.002570193
0.002571909
0.002572775
0.002572631
0.00257133
0.002568797
0.002565037
0.002560109
0.002554079
0.002546976
0.002538772
0.002529388
0.002518704
0.002506574
0.002492828
0.002477262
0.002459685
0.002439989
0.002418264
0.002394891
0.002370648
0.002345993
0.002321057
0.002296561
0.002273103
0.002251097
0.002230754
0.002212084
0.002194911
0.002178908
0.002163624
0.00214852
0.002132998
0.002116448
0.002098285
0.002078001
0.002055182
0.002029486
0.002000606
0.001968244
0.001932128
0.001892047
0.001847925
0.001799879
0.001748256
0.001693635
0.001636784
0.0015786
0.001520057
0.001462166
0.001405965
0.001352499
0.001302788
0.00125777
0.001218265
0.001184927
0.001158205
0.001138274
0.001124978
0.001117816
0.001116021
0.001118684
0.001124898
0.001133865
0.001144977
0.00115782
0.001172169
0.00118788
0.00120488
0.001223071
0.001242337
0.001262497
0.001283272
0.001304191
0.001325193
0.001346664
0.001368823
0.00139189
0.001416093
0.001443666
0.001473126
5.73755e-05
7.96437e-05
0.0001179156
0.0001787571
0.0002228014
0.000258618
0.0002965346
0.0003362317
0.000378184
0.0004390735
0.001352858
0.001595879
0.001728645
0.001856825
0.001980741
0.002099738
0.002214087
0.002323968
0.002429313
0.00352954
0.003783958
0.00400512
0.004186202
0.004326679
0.004432544
0.00451226
0.00457349
0.004621979
0.004660251
0.004694535
0.004734051
0.004781738
0.004838712
0.004903295
0.004970784
0.00503481
0.005091353
0.005146043
0.005128622
0.005140265
0.005172342
0.005215704
0.005263759
0.005314097
0.005365882
0.005416614
0.005460762
0.00549195
0.005503911
0.005499229
0.0054866
0.005474852
0.005467507
0.005462458
0.005456789
0.005449825
0.006259822
0.006265694
0.006280048
0.006302706
0.006331295
0.006362989
0.006396454
0.006432636
0.006474434
0.006524267
0.006582068
0.006647081
0.006719356
0.006799804
0.006888407
0.006983999
0.00708673
0.007198928
0.007322385
0.007455378
0.007595894
0.007741956
0.007886759
0.008014523
0.00810464
0.008140842
0.008118857
0.008049021
0.007951802
0.007850736
0.007753957
0.007655481
0.007550065
0.007435941
0.007312805
0.007182665
0.00704795
0.006913176
0.00674541
0.006581957
0.006428682
0.006290107
0.006172164
0.006080748
0.006019546
0.005986437
0.005974248
0.005993766
0.006055233
0.00615743
0.006295954
0.006463932
0.006653879
0.006858741
0.007071647
0.007285485
0.007492782
0.007684309
0.007850983
0.007986492
0.008086287
0.008148564
0.008174549
0.008165179
0.00811737
0.008034039
0.007919735
0.007780952
0.007625587
0.007462048
0.007298298
0.007141045
0.006995243
0.006863928
0.00674841
0.006648688
0.006564191
0.006493676
0.006434307
0.006385704
0.006345994
0.006308856
0.006270129
0.006231215
0.006190407
0.006150463
0.006116683
0.006094586
0.006081297
0.006073787
0.006071074
0.006072291
0.006076922
0.006084616
0.006095004
0.00610766
0.006122044
0.00613747
0.00615311
0.006168055
0.006181384
0.006192209
0.006199687
0.00620306
0.006201724
0.006195291
0.00618359
0.00616663
0.006144563
0.006117662
0.006086319
0.006051043
0.00601247
0.005971371
0.005928592
0.005884917
0.005840896
0.005796757
0.005752453
0.00570785
0.005662949
0.005618061
0.005573882
0.005531438
0.005491963
0.005456766
0.005427127
0.005404222
0.005389064
0.005382464
0.005385007
0.005397018
0.005418514
0.005449122
0.00548811
0.00553439
0.005586591
0.005643195
0.005703206
0.005765877
0.005830252
0.005895063
0.005958622
0.006018834
0.006073321
0.006119594
0.006155137
0.00617745
0.006184098
0.006172874
0.00614227
0.006092188
0.006024335
0.00594214
0.005850305
0.005754029
0.005658006
0.005565737
0.005479092
0.005398694
0.005324242
0.005255041
0.005190237
0.005128945
0.005070415
0.005014109
0.004959622
0.004906619
0.004854913
0.00480455
0.004755874
0.004709539
0.004666511
0.004628058
0.004595321
0.004568859
0.004548533
0.004533773
0.004524092
0.004519472
0.004520209
0.004526332
0.00453717
0.004551158
0.00456594
0.004578282
0.004574877
0.004573582
0.004569657
0.004560416
0.004544669
0.004522353
0.004494181
0.004461406
0.004425554
0.004388192
0.004350729
0.004314299
0.004279706
0.004247436
0.004217701
0.004190527
0.004165844
0.004143597
0.004123858
0.004106894
0.004093155
0.004083182
0.00407751
0.004076613
0.004080786
0.004090136
0.004104539
0.00412365
0.004146915
0.004173604
0.004202878
0.004233884
0.004265896
0.004298394
0.004331035
0.004363345
0.004393963
0.004421148
0.004444982
0.004465758
0.004483658
0.004498741
0.00451101
0.004520486
0.004527237
0.004530887
0.004531022
0.004527518
0.004520453
0.004509961
0.004496121
0.004478921
0.004458262
0.004434024
0.004406152
0.004374649
0.00433964
0.00430168
0.004262081
0.004221655
0.004180604
0.004140162
0.004101602
0.004066051
0.004034416
0.004007324
0.003985102
0.003967828
0.003955368
0.003948583
0.003935599
0.003927281
0.003923073
0.003922447
0.003925261
0.003930323
0.003936687
0.003943547
0.003950193
0.003955997
0.003960476
0.003963404
0.003964913
0.003965467
0.003965668
0.003965703
0.003965264
0.003964079
0.003961919
0.003958652
0.003954194
0.00394872
0.003942546
0.003936075
0.003929705
0.003923729
0.003918301
0.003913461
0.003909164
0.003905317
0.003901806
0.003898536
0.003895471
0.003892717
0.003890505
0.003889066
0.003888581
0.003889173
0.003890972
0.003894171
0.003899037
0.003905838
0.003914741
0.003925746
0.003938686
0.003953282
0.003969126
0.003985196
0.004000558
0.004014692
0.004027452
0.004038857
0.004048824
0.004057166
0.004063815
0.004068789
0.00407226
0.004074471
0.00407565
0.004075773
0.004074597
0.004071846
0.004067339
0.00406103
0.004052986
0.004043325
0.004032146
0.004019478
0.004005268
0.003989395
0.003971688
0.003951942
0.003929903
0.003905273
0.003877762
0.003847213
0.003813732
0.003777777
0.003740073
0.003701101
0.003661966
0.00362372
0.003587221
0.003553059
0.00352153
0.003492642
0.003466147
0.00344159
0.00341836
0.00339573
0.003372911
0.003349122
0.003323666
0.003295959
0.00326553
0.003231981
0.003194904
0.003153814
0.003108163
0.003057412
0.003001091
0.002938876
0.002870658
0.002796573
0.002716992
0.002632485
0.002543786
0.002451771
0.002357476
0.002262092
0.002166947
0.002073477
0.001983222
0.001897788
0.001818756
0.001747515
0.001685091
0.001632032
0.00158841
0.001553893
0.001527865
0.001509561
0.001498176
0.001492953
0.001493211
0.00149837
0.001507901
0.001521377
0.001538352
0.001558505
0.00158139
0.001606805
0.001634218
0.001663266
0.001692959
0.00172422
0.001756895
0.001792106
0.001827973
4.728913e-05
8.165022e-05
0.0001723466
0.0006160136
0.001083838
0.002055354
0.002752826
0.003592051
0.004501219
0.005233776
0.005729175
0.006097235
0.006389676
0.00656263
0.006711682
0.006832366
0.006938977
0.006710733
0.006470314
0.00633048
0.006306365
0.006305028
0.006323521
0.00648027
0.006689605
0.006961195
0.007292717
0.007690563
0.008156394
0.008756576
0.009229489
0.01
0.01
0.01
0.01
0.01
0.01
0.01
0.01
0.01
0.01
0.01
0.01
0.01
0.01
0.01
0.01
0.01
0.01
0.01
0.01
0.01
0.01
0.01
0.00999935
0.009986316
0.009971554
0.009953173
0.009926504
0.009885896
0.009829164
0.009760934
0.009689282
0.009619637
0.009552025
0.009484486
0.009416187
0.009352981
0.009277636
0.00921437
0.009165195
0.009129798
0.009105268
0.009087933
0.009075835
0.009070074
0.009073889
0.009089491
0.009116098
0.00915194
0.00919728
0.009252945
0.009317439
0.009388806
0.009468542
0.009561412
0.009669993
0.009791678
0.009924433
0.01
0.01
0.01
0.01
0.01
0.01
0.01
0.01
0.01
0.009929973
0.009808485
0.009678901
0.009541936
0.009399483
0.009254062
0.009106056
0.008955686
0.008799356
0.008638792
0.008478617
0.00832509
0.008186842
0.008072582
0.007989112
0.007940412
0.007927582
0.007947647
0.00800081
0.008096371
0.008228596
0.008388625
0.00856795
0.008760675
0.008960778
0.009161418
0.009355021
0.009532839
0.009685824
0.009807284
0.009895216
0.009951604
0.009979053
0.009973847
0.009931946
0.009855509
0.009748694
0.009617691
0.009469864
0.009312826
0.009153686
0.008998476
0.008851811
0.008716697
0.008594497
0.008484905
0.00838732
0.008301108
0.008225208
0.008159002
0.008101369
0.008049696
0.008001895
0.00795809
0.007918533
0.007884542
0.007858316
0.007841718
0.007833249
0.007830734
0.007832912
0.007839007
0.007848478
0.007860883
0.007875793
0.007892727
0.007911078
0.007930078
0.007948822
0.007966346
0.007981692
0.007993894
0.008001972
0.00800505
0.008002515
0.007994082
0.007979704
0.007959474
0.007933577
0.007902305
0.007866072
0.007825445
0.007781203
0.007734361
0.00768606
0.007637292
0.007588654
0.007540302
0.00749213
0.007444061
0.007396281
0.007349334
0.007304084
0.007261579
0.007222909
0.007189139
0.007161313
0.007140439
0.007127463
0.00712323
0.007128439
0.007143531
0.007168515
0.00720283
0.007245382
0.007294726
0.007349376
0.00740811
0.0074702
0.0075351
0.007601962
0.007669378
0.007735296
0.007797184
0.007852298
0.0078979
0.007931575
0.007951049
0.007954074
0.007938659
0.007903864
0.007850692
0.007781996
0.00770169
0.007614191
0.007523513
0.007432673
0.007343792
0.007258257
0.007176696
0.007099224
0.007025762
0.006956053
0.006889662
0.006826132
0.006765052
0.006705941
0.006648239
0.006591432
0.006535227
0.006479728
0.006425659
0.006374455
0.006327956
0.00628752
0.006253531
0.006225557
0.006203016
0.006186048
0.006175854
0.006173745
0.006179971
0.006193359
0.006211512
0.00623119
0.006248732
0.006260092
0.006263221
0.006257287
0.006242445
0.006219315
0.00618889
0.006152586
0.006112025
0.006069019
0.006025262
0.00598223
0.005941103
0.00590272
0.005867581
0.005835917
0.005807717
0.005782877
0.005761285
0.005742975
0.005728187
0.00571731
0.005710787
0.005709011
0.005712286
0.005720781
0.005734526
0.005753329
0.005776829
0.005804458
0.005835465
0.005868946
0.005904098
0.005940116
0.005976327
0.006011996
0.006046195
0.006077669
0.006105473
0.006129629
0.006150768
0.006169245
0.006184931
0.006197392
0.006206136
0.006210621
0.006210864
0.006207083
0.006199459
0.006188208
0.006173462
0.006155046
0.006132716
0.006106114
0.006074855
0.006038707
0.005997583
0.005951594
0.005901492
0.005848224
0.005792628
0.005736576
0.005681903
0.005630272
0.005583012
0.005541084
0.005505086
0.005475318
0.005451821
0.005434491
0.005423067
0.005416038
0.005412577
0.005412184
0.005414183
0.005417419
0.005421812
0.005426832
0.005431749
0.005435961
0.005438955
0.005440391
0.005440259
0.005439056
0.005437221
0.005434735
0.005431826
0.00542875
0.005425191
0.005420563
0.00541425
0.00540598
0.005395776
0.005384212
0.00537225
0.005360901
0.005350859
0.005342329
0.005335115
0.005328801
0.005322906
0.005316968
0.005310627
0.00530378
0.005296697
0.00528999
0.005284342
0.005280163
0.005277511
0.005276309
0.005276642
0.00527893
0.005283799
0.005291711
0.005302603
0.005315787
0.005330147
0.005344527
0.005358691
0.005372106
0.005384259
0.005395124
0.00540478
0.005413074
0.00541971
0.005424591
0.005427866
0.005429808
0.005430625
0.005430395
0.005428876
0.005425619
0.005420269
0.005412681
0.005402911
0.005391133
0.005377536
0.005362233
0.00534522
0.005326381
0.005305517
0.005282385
0.005256704
0.005228139
0.005196296
0.005160818
0.005121543
0.005078665
0.005032832
0.004984985
0.004936191
0.004887785
0.004840925
0.004796483
0.004755017
0.004716764
0.004681654
0.00464936
0.004619357
0.004590978
0.004563456
0.004535976
0.004507757
0.00447813
0.004446556
0.004412618
0.004375969
0.004336184
0.004292673
0.004244732
0.004191647
0.004132735
0.004067419
0.003995303
0.003916201
0.003830117
0.003737218
0.003637796
0.003532247
0.003421092
0.003304995
0.003184799
0.003061574
0.002936654
0.002811661
0.002688472
0.002569107
0.00245556
0.002349608
0.002252693
0.002165857
0.002089735
0.002024561
0.00197024
0.001926425
0.001892597
0.001868109
0.001852236
0.001844215
0.001843262
0.001848642
0.00185963
0.001875637
0.001896026
0.001920351
0.001947984
0.001978297
0.002010571
0.002045483
0.002082153
2.517037e-05
4.173435e-05
6.480425e-05
0.0002844262
0.0004734108
0.0008382764
0.001193946
0.001521782
0.001931005
0.002324644
0.002743334
0.003271996
0.00388664
0.004556709
0.005265023
0.006102669
0.007660282
0.008192826
0.00864578
0.008947399
0.00909098
0.009149442
0.009136088
0.0084052
0.007692292
0.007092515
0.006588393
0.00620251
0.005934728
0.005771109
0.005706582
0.005708853
0.005793955
0.00595918
0.006228554
0.006598326
0.007084494
0.007726728
0.008506007
0.009420378
0.01
0.01
0.01
0.01
0.01
0.01
0.01
0.01
0.01
0.01
0.01
0.01
0.01
0.01
0.01
0.01
0.01
0.01
0.01
0.01
0.01
0.01
0.01
0.01
0.01
0.01
0.01
0.01
0.01
0.01
0.01
0.01
0.01
0.01
0.01
0.01
0.01
0.01
0.01
0.01
0.01
0.01
0.01
0.01
0.01
0.01
0.01
0.01
0.01
0.01
0.01
0.01
0.01
0.01
0.01
0.01
0.01
0.01
0.01
0.01000001
0.01000001
0.01000002
0.01000004
0.01000011
0.01000011
0.01000005
0.01000002
0.01000002
0.01000003
0.01000011
0.01000047
0.01000113
0.01000088
0.01000023
0.01000002
0.01
0.01
0.01
0.01
0.01000001
0.009914024
0.009776566
0.009661906
0.00957727
0.009527919
0.009517009
0.009545425
0.009610307
0.009709476
0.009840645
0.009994169
0.01
0.01
0.01
0.01
0.01
0.01000001
0.01000002
0.01000004
0.01000004
0.01000002
0.01
0.01
0.01
0.01
0.01
0.01
0.01
0.01
0.01
0.01
0.01
0.01
0.01000001
0.00995637
0.009858933
0.009770806
0.00969174
0.009621702
0.009560265
0.009506292
0.009458788
0.009417844
0.009384039
0.009357985
0.009340206
0.009330634
0.009327848
0.00933005
0.009335986
0.009344871
0.009356161
0.009369448
0.009384376
0.009400514
0.009417258
0.009433822
0.009449332
0.009462958
0.009473924
0.009481353
0.009484238
0.009481733
0.009473476
0.009459566
0.009440268
0.009415796
0.00938632
0.009352071
0.009313401
0.009270843
0.009225207
0.009177679
0.009129608
0.009081998
0.00903517
0.008988895
0.008942853
0.008897029
0.00885189
0.008808229
0.008766986
0.008729195
0.008695621
0.008666886
0.008643653
0.008626695
0.008616853
0.008615017
0.008622054
0.008638547
0.008664412
0.00869869
0.008739736
0.008785694
0.008835053
0.008887254
0.008942345
0.009000382
0.009060734
0.009121807
0.009181189
0.009235974
0.009283179
0.009320148
0.009344741
0.00935527
0.009349886
0.009326905
0.009286108
0.009229949
0.0091626
0.009088322
0.009010676
0.008931911
0.008852733
0.008773922
0.008696619
0.008621665
0.008549489
0.008480429
0.008414701
0.008352306
0.008293076
0.008236615
0.008182174
0.008128757
0.008075326
0.008021003
0.007965507
0.007909778
0.007856077
0.007806897
0.00776351
0.00772562
0.007692141
0.007662394
0.007637473
0.007620509
0.007614145
0.007618447
0.007631269
0.007649162
0.007668034
0.00768378
0.007692912
0.00769318
0.007683966
0.007665828
0.007639765
0.007607002
0.00756909
0.007527783
0.007484807
0.007441725
0.007399879
0.007360357
0.007323938
0.00729108
0.007261982
0.007236658
0.007214974
0.007196814
0.007182216
0.007171407
0.007164694
0.007162321
0.007164435
0.007171124
0.007182407
0.007198178
0.007218236
0.007242244
0.007269672
0.007299796
0.007331794
0.007364897
0.007398462
0.007431892
0.007464354
0.00749462
0.007521353
0.007543917
0.007562855
0.00757914
0.007593149
0.00760457
0.007612938
0.007617972
0.007619529
0.00761752
0.007611873
0.007602539
0.007589345
0.007572005
0.007550487
0.007524779
0.007494327
0.007458416
0.007416561
0.007368487
0.007314257
0.007254811
0.007191454
0.007126305
0.007061664
0.006999675
0.006941993
0.006889804
0.006843799
0.006804331
0.006771523
0.006745311
0.006725409
0.006711298
0.006702243
0.006697509
0.006696299
0.006697656
0.006700464
0.006703324
0.006705806
0.006707677
0.006708527
0.006707968
0.006705758
0.006701984
0.006696636
0.006690396
0.006684404
0.006679159
0.006674345
0.006669119
0.006662556
0.006653948
0.006642978
0.00662985
0.006615346
0.00660065
0.006586925
0.006574848
0.006564468
0.006555411
0.006547125
0.006539053
0.006530678
0.006521592
0.006511713
0.006501528
0.006492008
0.006484055
0.006477952
0.006473397
0.006470059
0.006468101
0.006468288
0.006471638
0.006478753
0.006489328
0.006502229
0.006516001
0.006529319
0.006541204
0.006551598
0.006560552
0.006568361
0.00657526
0.006581067
0.006585392
0.006588125
0.006589426
0.006589562
0.00658873
0.006586892
0.006583593
0.006578188
0.006570282
0.006559822
0.006547013
0.006532161
0.006515522
0.006497187
0.006477078
0.006454979
0.006430601
0.006403622
0.006373691
0.006340391
0.006303255
0.00626189
0.006216179
0.006166477
0.006113725
0.006059277
0.006004633
0.005951256
0.005900239
0.005852287
0.00580776
0.00576672
0.005728948
0.00569401
0.005661322
0.005630212
0.005599943
0.005569755
0.005538952
0.005506968
0.00547338
0.005437882
0.005400228
0.005360018
0.005316563
0.005269027
0.005216618
0.005158598
0.005094304
0.005023271
0.004945236
0.004860089
0.004767819
0.004668456
0.004562027
0.004448581
0.004328247
0.004201267
0.004068051
0.00392927
0.003785942
0.003639468
0.003491609
0.003344398
0.003200024
0.003060681
0.002928411
0.002804981
0.002691793
0.002589858
0.00249979
0.002421883
0.002356099
0.002302142
0.002259459
0.002227377
0.002205075
0.002191723
0.002186439
0.002188416
0.00219684
0.002211025
0.002230246
0.00225391
0.002280962
0.002310122
2.293167e-05
3.56442e-05
7.204936e-05
0.0002217787
0.0003599946
0.0005814707
0.0007493306
0.0009405489
0.001164897
0.001383103
0.001637071
0.001965733
0.00233687
0.00277112
0.00332351
0.004401045
0.00489989
0.005424001
0.005962053
0.006508119
0.007064831
0.00761978
0.008151551
0.008642053
0.00907644
0.009439515
0.009736229
0.009960308
0.01
0.00993516
0.009406272
0.008705773
0.007985918
0.007303973
0.006694681
0.006182243
0.005770036
0.005478573
0.005292537
0.005211086
0.005239092
0.005365601
0.005612729
0.005968168
0.006484925
0.007186922
0.008116943
0.009279003
0.01
0.01
0.01
0.01
0.01
0.01
0.01
0.01
0.01
0.01
0.01
0.01
0.01
0.01
0.01
0.01
0.01
0.01
0.01
0.01000001
0.01000001
0.01000001
0.01
0.01
0.01000001
0.01000002
0.01000002
0.01000002
0.01000002
0.01000002
0.01000003
0.01000009
0.01000018
0.01000017
0.01000011
0.01000004
0.01000002
0.01000003
0.01000005
0.01000007
0.01000008
0.01000007
0.01000003
0.01000001
0.01000001
0.01000001
0.01000002
0.01000003
0.01000003
0.01000003
0.01000003
0.01000003
0.01000003
0.01000004
0.01000005
0.01000006
0.01000006
0.01000008
0.0100001
0.01000016
0.01000023
0.01000031
0.01000053
0.01000145
0.01000326
0.01000294
0.0100013
0.01000055
0.01000066
0.01000118
0.01000535
0.010019
0.01001592
0.01000432
0.01000037
0.01000002
0.01000002
0.01000005
0.01000036
0.01000183
0.01000212
0.01000104
0.01000013
0.01
0.01
0.01
0.01
0.01
0.01
0.01
0.01
0.01
0.01
0.01
0.01
0.01
0.01000001
0.01000004
0.0100001
0.01000014
0.01000016
0.01000015
0.01000014
0.01000011
0.01000009
0.01000009
0.01000013
0.01000018
0.01000011
0.01000003
0.01000002
0.01000002
0.01000006
0.01000015
0.01000013
0.01000005
0.01000001
0.01
0.01
0.01
0.01
0.01
0.01
0.01000001
0.01000014
0.01000022
0.01000015
0.01000004
0.01
0.01
0.01
0.01
0.01
0.01
0.01
0.01
0.01
0.01
0.01000001
0.01
0.01
0.01
0.01
0.01
0.01
0.01000002
0.01000005
0.01000004
0.01000002
0.01
0.01
0.01
0.01
0.01
0.01
0.01
0.01000001
0.01000016
0.01000032
0.01000028
0.0100001
0.01000001
0.009994327
0.009958839
0.009927357
0.009899998
0.009876748
0.009857882
0.009844038
0.009836066
0.009835
0.009841986
0.009857792
0.009882141
0.00991349
0.009949595
0.009988454
0.01000001
0.01000009
0.0100004
0.01000042
0.01000021
0.01000003
0.01
0.01000001
0.01000007
0.01000011
0.01000009
0.01000006
0.01000003
0.01000006
0.01000079
0.01000169
0.01000149
0.01000053
0.01000006
0.01000004
0.00996219
0.009895519
0.009829704
0.009765695
0.009703945
0.009644893
0.009589049
0.009536834
0.009488355
0.009443044
0.009399568
0.0093562
0.009311173
0.009262929
0.009210835
0.009156307
0.009102871
0.009053989
0.009010567
0.008971057
0.008933489
0.008897202
0.008864414
0.008840712
0.008830256
0.008832353
0.008843369
0.008858502
0.008872761
0.008881972
0.008883377
0.00887583
0.008859766
0.00883652
0.008807454
0.008773857
0.00873718
0.008698917
0.008660385
0.008622684
0.008586751
0.008553396
0.008523224
0.008496577
0.008473587
0.008454213
0.008438289
0.00842567
0.008416393
0.008410663
0.008408665
0.008410377
0.008415629
0.008424305
0.008436352
0.008451669
0.008470121
0.008491511
0.008515436
0.008541264
0.00856828
0.008595875
0.008623636
0.008651181
0.008677708
0.008701762
0.008721754
0.008737054
0.0087486
0.008757816
0.008765129
0.008770106
0.008772387
0.008772007
0.008769119
0.008763765
0.008755837
0.00874511
0.008731246
0.008713767
0.008692022
0.008665147
0.008632856