/*--------------------------------*- C++ -*----------------------------------*\
| =========                 |                                                 |
| \\      /  F ield         | foam-extend: Open Source CFD                    |
|  \\    /   O peration     | Version:     3.1                                |
|   \\  /    A nd           | Web:         http://www.extend-project.de       |
|    \\/     M anipulation  |                                                 |
\*---------------------------------------------------------------------------*/
FoamFile
{
    version     2.0;
    format      ascii;
    class       volScalarField;
    location    "18.5";
    object      p;
}
// * * * * * * * * * * * * * * * * * * * * * * * * * * * * * * * * * * * * * //

dimensions      [1 -1 -2 0 0 0 0];

internalField   nonuniform List<scalar> 
119952
(
5578.129
4856.445
4756.008
4875.696
5012.127
4928.577
4915.224
4912.563
4913.865
4919.696
4926.524
4934.58
4943.521
4953.513
4964.765
4977.15
4990.257
5002.874
5010.05
4992.215
5156.454
5091.121
5086.053
5289.453
5285.154
5330.84
5362.66
5430.004
5595.81
5746.768
3445.756
3402.05
3385.971
3360.544
3330.769
3301.418
3274.846
3255.668
3248.129
3225.288
3239.497
3273.05
3316.957
3372.536
3436.552
3506.821
3580.44
3654.609
3727.573
3819.999
3855.532
3901.536
3955.655
4003.328
4048.642
4091.469
4131.689
4169.661
4207.799
4235.965
4266.535
4296.893
4324.35
4350.269
4375.356
4399.901
4428.412
4481.22
4586.569
4527.474
4530.37
4587.478
4623.197
4630.406
4627.077
4630.449
4636.824
4644.682
4653.909
4664.19
4675.314
4687.313
4700.197
4713.901
4728.203
4742.859
4758.345
4777.355
4807.195
4840.007
4862.85
4926.439
5006.337
5040.356
5068.633
5096.218
5090.818
5006.253
5011.34
5053.242
5078.758
5103.088
5125.356
5144.821
5162.511
5178.711
5193.604
5207.369
5220.139
5232.028
5243.143
5253.573
5263.401
5272.702
5281.551
5290.025
5298.2
5306.146
5313.913
5321.538
5329.038
5336.421
5343.685
5350.823
5357.821
5364.659
5371.308
5377.729
5383.877
5389.712
5395.201
5400.328
5405.087
5409.488
5413.548
5417.289
5420.732
5423.909
5426.836
5429.535
5432.026
5434.319
5436.412
5438.278
5439.854
5441.244
5443.453
5446.887
5450.172
5450.895
5451.382
5452.034
5452.456
5452.67
5452.543
5452.148
5451.51
5450.647
5449.653
5448.75
5448.008
5447.479
5447.322
5447.636
5448.466
5449.784
5451.498
5453.508
5455.767
5458.3
5461.129
5464.207
5467.421
5470.653
5473.814
5476.844
5479.715
5482.414
5484.939
5487.305
5489.542
5491.698
5493.839
5496.057
5498.435
5501.034
5503.89
5507.01
5510.382
5513.989
5517.809
5521.811
5525.932
5530.053
5533.951
5537.355
5539.919
5578.934
5582.339
5585.442
5587.89
5589.938
5591.838
5593.673
5595.135
5596.414
5597.41
5598.133
5598.581
5598.743
5598.611
5598.182
5597.452
5596.417
5595.078
5593.442
5591.519
5589.324
5586.88
5584.218
5581.341
5578.287
5575.073
5571.699
5568.179
5564.491
5560.61
5556.481
5551.988
5546.884
5540.653
5532.448
5522.419
5528.569
5531.956
5533.655
5534.62
5535.274
5535.773
5536.205
5536.628
5537.058
5537.49
5537.917
5538.322
5538.692
5539.029
5539.355
5539.654
5539.931
5540.2
5540.477
5540.786
5541.155
5541.608
5542.172
5542.871
5543.725
5544.731
5545.877
5547.133
5548.463
5549.826
5551.184
5552.5
5553.708
5554.431
5540.623
5533.524
5525.4
5526.123
5526.188
5525.319
5524.682
5524.102
5523.344
5522.461
5521.507
5520.484
5519.38
5518.233
5516.989
5515.735
5514.418
5513.048
5511.621
5510.129
5508.571
5506.963
5505.314
5503.641
5501.957
5500.274
5498.596
5496.922
5495.246
5493.557
5491.845
5490.118
5488.375
5486.627
5484.886
5483.168
5481.483
5479.843
5478.258
5476.74
5475.306
5473.984
5472.811
5471.831
5471.004
5469.953
5468.196
5466.092
5464.254
5462.645
5461.139
5459.754
5458.385
5455.731
5449.682
5451.928
5451.859
5450.64
5449.713
5448.779
5447.854
5446.974
5446.192
5445.479
5444.834
5444.257
5443.747
5443.302
5442.917
5442.596
5442.34
5442.138
5442.004
5441.933
5441.927
5441.996
5442.148
5442.389
5442.727
5443.163
5443.71
5444.339
5445.041
5445.797
5446.584
5447.378
5448.156
5448.896
5449.583
5450.199
5450.735
5451.18
5451.53
5451.782
5451.934
5451.989
5451.946
5451.808
5451.566
5451.213
5450.753
5450.178
5449.486
5448.675
5447.742
5446.687
5445.509
5444.207
5442.777
5441.217
5439.525
5437.699
5435.738
5433.641
5431.409
5429.052
5426.591
5424.055
5421.472
5418.86
5416.213
5413.525
5410.778
5407.91
5404.947
5401.868
5398.665
5395.335
5391.875
5388.276
5384.504
5380.515
5376.206
5371.483
5366.103
5359.893
5353.761
5354.545
5375.021
2555.261
2572.453
2578.662
2582.526
2584.325
2584.026
2585.243
2591.714
2597.929
2559.811
2587.651
2599.857
2612.586
2627.566
2645.291
2666.322
2690.785
2719.419
2746.871
2784.934
2803.055
2839.821
2879.657
2919.708
2959.617
2999.755
3038.666
3075.627
3110.663
3130.537
3156.174
3175.982
3189.026
3196.344
3198.081
3193.658
3184.73
3172.502
3137.564
3103.678
3071.476
3037.482
3003.011
2971.691
2948.268
2937.467
2939.74
2957.533
2994.893
3043.649
3101.875
3167.978
3239.752
3315.212
3391.196
3465.22
3502.175
3571.444
3625.23
3674.43
3723.503
3769.834
3813.429
3852.621
3888.127
3921.449
3952.705
3980.962
4006.453
4030.203
4053.434
4077.293
4103.399
4132.605
4166.172
4197.887
4215.837
4229.443
4250.589
4273.8
4291.59
4303.305
4312.052
4321.64
4332.626
4344.529
4357.115
4370.397
4384.417
4399.199
4414.776
4431.289
4449.144
4469.126
4492.364
4519.798
4551.68
4588.233
4630.196
4674.331
4710.676
4735.982
4750.624
4752.311
4745.721
4751.444
4769.454
4791.044
4812.332
4831.806
4849.409
4865.604
4880.665
4894.678
4907.694
4919.794
4931.08
4941.654
4951.603
4961.002
4969.916
4978.417
4986.591
4994.523
5002.29
5009.94
5017.495
5024.963
5032.34
5039.618
5046.787
5053.831
5060.728
5067.437
5073.901
5080.055
5085.853
5091.276
5096.33
5101.037
5105.417
5109.483
5113.239
5116.687
5119.837
5122.711
5125.337
5127.747
5129.968
5132.023
5133.943
5135.778
5137.597
5139.481
5141.441
5143.243
5144.606
5145.569
5146.223
5146.6
5146.676
5146.431
5145.79
5144.879
5143.706
5142.48
5141.278
5140.27
5139.588
5139.391
5139.841
5141.009
5142.84
5145.196
5147.898
5150.775
5153.738
5156.773
5159.864
5162.974
5166.066
5169.094
5172
5174.744
5177.304
5179.668
5181.852
5183.906
5185.896
5187.925
5190.123
5192.544
5195.249
5198.241
5201.482
5204.964
5208.69
5212.669
5216.883
5221.263
5225.679
5230.032
5234.393
5239.014
5303.388
5307.305
5309.946
5312.421
5314.727
5316.713
5318.495
5320.031
5321.317
5322.338
5323.082
5323.538
5323.7
5323.56
5323.109
5322.342
5321.269
5319.887
5318.204
5316.231
5313.986
5311.492
5308.767
5305.831
5302.705
5299.41
5295.959
5292.36
5288.609
5284.685
5280.545
5276.132
5271.351
5266.171
5261.069
5257.208
5256.864
5258.244
5259.019
5259.572
5260.053
5260.456
5260.831
5261.205
5261.587
5261.979
5262.373
5262.761
5263.133
5263.477
5263.791
5264.071
5264.321
5264.555
5264.798
5265.079
5265.43
5265.883
5266.477
5267.247
5268.198
5269.323
5270.593
5271.968
5273.399
5274.836
5276.23
5277.561
5278.854
5280.273
5224.201
5226.309
5224.182
5221.468
5219.916
5219.247
5218.696
5217.922
5216.985
5216.002
5214.988
5213.922
5212.81
5211.658
5210.475
5209.232
5207.931
5206.554
5205.091
5203.546
5201.939
5200.307
5198.656
5197.001
5195.347
5193.695
5192.037
5190.364
5188.668
5186.944
5185.19
5183.409
5181.623
5179.849
5178.102
5176.393
5174.723
5173.094
5171.512
5169.991
5168.55
5167.203
5165.945
5164.737
5163.504
5162.143
5160.569
5158.832
5157.108
5155.487
5153.973
5152.501
5150.936
5148.991
5146.38
5144.713
5144.18
5143.775
5142.977
5142.02
5141.126
5140.279
5139.475
5138.739
5138.073
5137.476
5136.948
5136.488
5136.094
5135.764
5135.496
5135.293
5135.152
5135.079
5135.084
5135.174
5135.362
5135.661
5136.087
5136.641
5137.283
5138.022
5138.826
5139.664
5140.51
5141.337
5142.122
5142.848
5143.499
5144.067
5144.545
5144.929
5145.218
5145.412
5145.511
5145.511
5145.409
5145.206
5144.898
5144.48
5143.953
5143.319
5142.577
5141.729
5140.773
5139.707
5138.53
5137.238
5135.827
5134.295
5132.641
5130.865
5128.965
5126.943
5124.803
5122.552
5120.2
5117.764
5115.257
5112.688
5110.055
5107.341
5104.537
5101.629
5098.609
5095.468
5092.219
5088.857
5085.385
5081.789
5078.049
5074.17
5070.123
5066.005
5062.016
5058.553
5056.169
5055.142
5055.204
3677.351
3912.307
4157.001
4398.427
4629.932
4844.361
5026.405
5168.998
5263.466
5294.453
5251.663
5173.101
5046.066
4877.222
4676.627
4454.971
4222.584
3988.24
3764.576
3471.887
3277.207
3094.202
2930.011
2786.611
2663.73
2560.789
2476.813
2410.777
2364.565
2321.132
2290.716
2272.936
2263.212
2260.621
2264.18
2271.714
2281.851
2296.556
2302.505
2297.916
2300.368
2300.273
2298.076
2294.817
2292.613
2293.191
2298.732
2304.672
2312.684
2327.135
2341.82
2356.978
2374.166
2394.608
2419.297
2449.23
2429.446
2467.703
2505.173
2545.228
2586.155
2627.302
2668.114
2708.306
2747.769
2785.211
2818.957
2847.959
2870.938
2887.547
2897.909
2902.422
2901.615
2895.079
2881.232
2858.619
2828.029
2792.214
2752.595
2710.323
2667.319
2627.799
2597.56
2583.091
2589.235
2616.811
2661.4
2717.664
2783.152
2856.784
2936.148
3018.466
3100.745
3181.515
3260.275
3327.769
3385.574
3439.334
3491.236
3539.996
3584.56
3624.566
3660.512
3693.071
3721.599
3747.289
3770.244
3791.275
3811.72
3832.638
3854.688
3878.166
3902.879
3927.985
3948.8
3964.995
3983.872
4006.362
4026.884
4042.634
4055.734
4068.271
4081.308
4094.889
4108.999
4123.705
4139.065
4155.132
4171.998
4189.888
4209.15
4230.277
4253.873
4280.747
4311.372
4344.441
4379.668
4416.193
4449.395
4474.579
4492.602
4503.755
4511.869
4522.079
4537.958
4557.632
4577.224
4595.216
4611.639
4626.869
4641.136
4654.49
4666.942
4678.545
4689.384
4699.555
4709.138
4718.194
4726.782
4734.972
4742.86
4750.555
4758.147
4765.686
4773.182
4780.631
4788.018
4795.332
4802.562
4809.699
4816.719
4823.571
4830.173
4836.437
4842.305
4847.764
4852.842
4857.578
4862.002
4866.122
4869.926
4873.4
4876.544
4879.384
4881.962
4884.324
4886.517
4888.582
4890.54
4892.403
4894.168
4895.86
4897.515
4899.102
4900.421
4901.379
4902.063
4902.471
4902.52
4902.141
4901.296
4900.067
4898.563
4897.008
4895.501
4894.156
4893.178
4892.788
4893.237
4894.623
4896.842
4899.676
4902.876
4906.183
4909.444
4912.651
4915.813
4918.904
4921.944
4924.925
4927.781
4930.462
4932.934
4935.167
4937.174
4939.024
4940.806
4942.63
4944.688
4947.103
4949.856
4952.933
4956.261
4959.823
4963.667
4967.819
4972.287
4977.021
4981.829
4986.513
4990.902
4994.835
4998.272
5001.792
5004.841
5007.369
5009.566
5011.527
5013.258
5014.755
5016.011
5017.017
5017.755
5018.21
5018.369
5018.221
5017.75
5016.957
5015.829
5014.371
5012.596
5010.523
5008.174
5005.571
5002.734
4999.682
4996.441
4993.038
4989.497
4985.832
4982.052
4978.16
4974.155
4970.06
4965.947
4961.999
4958.537
4956.003
4954.664
4954.256
4954.235
4954.303
4954.427
4954.622
4954.874
4955.159
4955.485
4955.851
4956.235
4956.62
4956.996
4957.321
4957.604
4957.836
4958.019
4958.17
4958.321
4958.527
4958.818
4959.241
4959.845
4960.709
4961.794
4963.102
4964.586
4966.172
4967.788
4969.369
4970.856
4972.193
4973.247
4973.77
4973.206
4972.475
4972.371
4972.772
4973.292
4973.42
4973.134
4972.571
4971.817
4970.939
4969.975
4968.946
4967.882
4966.788
4965.684
4964.467
4963.194
4961.835
4960.37
4958.804
4957.159
4955.515
4953.842
4952.177
4950.521
4948.875
4947.235
4945.582
4943.894
4942.158
4940.375
4938.557
4936.737
4934.929
4933.148
4931.415
4929.728
4928.08
4926.47
4924.91
4923.421
4922.011
4920.672
4919.368
4918.038
4916.609
4915.066
4913.389
4911.687
4910.044
4908.49
4907.013
4905.67
4904.604
4903.778
4902.748
4901.375
4899.885
4898.463
4897.211
4896.119
4895.135
4894.237
4893.428
4892.707
4892.07
4891.511
4891.026
4890.61
4890.259
4889.97
4889.742
4889.579
4889.491
4889.486
4889.578
4889.783
4890.119
4890.603
4891.226
4891.971
4892.815
4893.723
4894.653
4895.571
4896.45
4897.266
4898.003
4898.648
4899.196
4899.647
4900.003
4900.262
4900.427
4900.497
4900.464
4900.327
4900.087
4899.739
4899.276
4898.706
4898.033
4897.257
4896.386
4895.421
4894.357
4893.193
4891.923
4890.54
4889.04
4887.423
4885.692
4883.844
4881.885
4879.813
4877.632
4875.35
4872.982
4870.536
4868.021
4865.437
4862.776
4860.03
4857.181
4854.221
4851.148
4847.963
4844.675
4841.282
4837.795
4834.213
4830.595
4826.955
4823.4
4819.976
4816.934
4814.345
4812.387
4810.723
2140.501
2175.164
2217.217
2253.403
2314.485
2369.124
2465.544
2581.31
2719.787
2854.226
2998.108
3173.707
3369.707
3581.581
3804.581
4028.818
4243.201
4438.732
4605.251
4731.863
4811.569
4843.142
4820.743
4738.193
4606.002
4433.039
4229.431
4006.276
3774.242
3545.127
3332.889
2969.026
2795.717
2641.182
2495.074
2365.788
2256.908
2167.684
2096.571
2042.023
2001.455
1972.463
1952.428
1939.632
1934.518
1937.965
1947.811
1959.588
1973.233
1985.352
1995.886
2002.362
2002.469
1997.232
1988.935
1980.438
1975.38
1975.318
1980.236
1989.661
2002.152
2015.953
2030.536
2045.912
2062.574
2082.575
2106.923
2138.826
2179.732
2221.852
2261.397
2301.723
2343.625
2385.993
2428.098
2470.307
2512.795
2553.756
2589.923
2619.405
2642.737
2660.06
2670.634
2674.728
2673.566
2667.042
2653.134
2628.801
2593.404
2551.033
2504.278
2453.826
2399.745
2347.749
2306.023
2282.762
2285.322
2315.414
2367.482
2432.44
2505.386
2586.407
2673.615
2763.956
2854.08
2940.047
3019.009
3089.629
3152.807
3210.747
3264.703
3314.31
3359.05
3398.788
3433.694
3464.212
3492.019
3515.624
3535.792
3553.293
3569.81
3586.742
3604.404
3622.81
3642.222
3662.744
3682.451
3700.674
3720.411
3742.838
3765.228
3784.819
3801.487
3816.364
3830.725
3845.148
3859.997
3875.386
3891.395
3908.11
3925.637
3944.183
3964.013
3985.454
4008.999
4035.156
4064.089
4095.219
4127.888
4161.03
4192.133
4218.627
4240.46
4258.363
4273.639
4288.322
4304.947
4323.261
4341.337
4358.125
4373.596
4388.027
4401.595
4414.34
4426.264
4437.399
4447.817
4457.607
4466.838
4475.558
4483.806
4491.649
4499.203
4506.612
4513.998
4521.41
4528.843
4536.272
4543.668
4551.008
4558.289
4565.507
4572.649
4579.666
4586.445
4592.857
4598.817
4604.313
4609.402
4614.145
4618.591
4622.741
4626.558
4630.008
4633.078
4635.806
4638.26
4640.512
4642.63
4644.663
4646.625
4648.499
4650.248
4651.855
4653.355
4654.762
4656.012
4657.077
4657.938
4658.493
4658.596
4658.147
4657.098
4655.602
4653.786
4651.799
4649.81
4647.991
4646.649
4645.924
4646.229
4647.74
4650.29
4653.578
4657.279
4661.027
4664.581
4667.966
4671.219
4674.324
4677.435
4680.541
4683.516
4686.247
4688.683
4690.788
4692.58
4694.14
4695.598
4697.127
4698.921
4701.196
4703.946
4707.1
4710.526
4714.158
4718.101
4722.367
4727.086
4732.274
4737.597
4742.67
4747.273
4751.332
4754.926
4758.263
4761.15
4763.553
4765.677
4767.63
4769.358
4770.852
4772.128
4773.174
4773.967
4774.483
4774.701
4774.609
4774.181
4773.41
4772.29
4770.821
4769.011
4766.884
4764.463
4761.771
4758.833
4755.673
4752.324
4748.825
4745.209
4741.502
4737.726
4733.901
4730.053
4726.231
4722.522
4719.049
4715.977
4713.499
4711.801
4710.838
4710.308
4709.979
4709.843
4709.906
4710.124
4710.401
4710.705
4711.048
4711.436
4711.844
4712.268
4712.547
4712.79
4712.966
4713.068
4713.118
4713.124
4713.213
4713.437
4713.83
4714.351
4715.226
4716.427
4717.909
4719.596
4721.392
4723.198
4724.926
4726.503
4727.879
4729.022
4730.019
4731.054
4731.987
4732.339
4732.011
4731.139
4730.263
4729.398
4728.502
4727.518
4726.472
4725.385
4724.275
4723.18
4722.014
4720.815
4719.649
4718.401
4717.047
4715.568
4713.98
4712.325
4710.605
4708.91
4707.233
4705.569
4703.932
4702.316
4700.681
4698.995
4697.24
4695.415
4693.553
4691.676
4689.823
4688.017
4686.255
4684.546
4682.878
4681.237
4679.633
4678.093
4676.632
4675.24
4673.887
4672.521
4671.075
4669.498
4667.846
4666.159
4664.507
4662.927
4661.444
4660.094
4658.804
4657.436
4655.993
4654.645
4653.48
4652.408
4651.41
4650.473
4649.566
4648.698
4647.894
4647.169
4646.527
4645.966
4645.479
4645.059
4644.7
4644.397
4644.15
4643.968
4643.866
4643.848
4643.928
4644.132
4644.485
4645
4645.687
4646.523
4647.475
4648.495
4649.531
4650.539
4651.49
4652.359
4653.129
4653.788
4654.335
4654.775
4655.114
4655.351
4655.492
4655.542
4655.475
4655.303
4655.034
4654.655
4654.149
4653.535
4652.824
4652.007
4651.101
4650.113
4649.043
4647.887
4646.638
4645.277
4643.792
4642.177
4640.432
4638.571
4636.603
4634.532
4632.364
4630.11
4627.79
4625.408
4622.97
4620.469
4617.898
4615.255
4612.51
4609.657
4606.7
4603.632
4600.473
4597.223
4593.913
4590.553
4587.199
4583.86
4580.628
4577.551
4574.796
4572.339
4570.058
4567.07
2042.45
2023.902
2009.002
1972.444
1946.864
1894.069
1877.216
1864.442
1857.134
1855.746
1861.038
1872.098
1893.589
1924.761
1966.033
2021.4
2043.542
2134.589
2237.476
2353.925
2490.163
2646.181
2825.197
3023.276
3236.91
3459.362
3683.711
3897.28
4085.046
4239.528
4351.216
4414.324
4424.864
4380.951
4282.055
4133.451
3945.155
3729.353
3498.501
3263.473
3032.179
2809.026
2597.762
2420.467
2271.981
2140.386
2025.514
1928.295
1848.52
1786.321
1741.296
1710.965
1690.134
1675.111
1665.471
1664.057
1673.993
1692.638
1710.104
1727.211
1743.12
1757.636
1769.054
1769.663
1756.816
1740.996
1725.38
1716.771
1715.771
1721.016
1731.101
1744.922
1761.065
1776.706
1790.46
1803.867
1821.002
1844.358
1876.562
1918.839
1965.138
2010.288
2054.758
2099.518
2143.382
2185.723
2229.389
2277.202
2325.261
2365.574
2396.577
2420.762
2439.184
2450.803
2455.066
2453.922
2448.287
2435.077
2408.003
2365.805
2316.928
2261.108
2202.066
2133.922
2062.991
2001.068
1958.894
1956.176
1988.405
2052.414
2130.341
2213.892
2304.175
2399.149
2498.707
2598.305
2692.084
2776.524
2851.863
2919.432
2980.57
3036.225
3086.618
3131.605
3171.218
3205.936
3236.406
3262.825
3285.05
3302.383
3315.804
3327.801
3340.296
3353.274
3366.581
3381.335
3398.37
3416.912
3435.774
3456.329
3480.294
3505.9
3529.754
3549.461
3566.003
3580.978
3595.35
3610.285
3625.826
3641.998
3658.891
3676.592
3695.32
3715.337
3736.865
3760.177
3785.6
3813.397
3843.433
3875.054
3907.082
3937.926
3966.095
3991.184
4013.478
4033.425
4051.913
4070.073
4088.062
4105.221
4121.095
4135.744
4149.427
4162.317
4174.459
4185.84
4196.481
4206.452
4215.841
4224.713
4233.089
4240.976
4248.421
4255.564
4262.621
4269.778
4277.091
4284.505
4291.955
4299.389
4306.778
4314.13
4321.452
4328.751
4335.986
4343.009
4349.638
4355.742
4361.3
4366.39
4371.09
4375.505
4379.656
4383.46
4386.846
4389.782
4392.32
4394.565
4396.632
4398.625
4400.604
4402.562
4404.452
4406.197
4407.723
4409.081
4410.356
4411.574
4412.785
4413.901
4414.713
4414.982
4414.582
4413.488
4411.762
4409.457
4406.777
4404.174
4401.762
4399.857
4398.601
4398.641
4400.272
4403.143
4406.953
4411.292
4415.525
4419.323
4422.979
4426.58
4429.994
4433.214
4436.321
4439.354
4442.187
4444.656
4446.656
4448.203
4449.408
4450.444
4451.551
4452.992
4455.011
4457.727
4460.986
4464.528
4468.192
4472.258
4476.552
4481.413
4487.137
4493.204
4498.983
4504.123
4508.412
4511.972
4515.025
4517.639
4519.891
4522.006
4523.914
4525.573
4527.036
4528.319
4529.399
4530.238
4530.803
4531.072
4531.04
4530.68
4529.951
4528.826
4527.316
4525.444
4523.235
4520.71
4517.892
4514.813
4511.502
4508.006
4504.381
4500.673
4496.911
4493.137
4489.38
4485.668
4482.045
4478.583
4475.367
4472.5
4470.094
4468.23
4466.89
4465.9
4465.149
4464.804
4464.876
4465.098
4465.349
4465.645
4466.007
4466.429
4466.877
4467.263
4467.672
4467.941
4468.082
4468.112
4468.062
4467.954
4467.857
4467.857
4468.015
4468.571
4469.469
4470.762
4472.411
4474.318
4476.351
4478.38
4480.298
4482.027
4483.53
4484.797
4485.81
4486.495
4486.759
4486.611
4486.217
4485.755
4485.225
4484.596
4483.755
4482.762
4481.711
4480.595
4479.456
4478.289
4477.166
4476.012
4474.854
4473.657
4472.36
4470.902
4469.288
4467.571
4465.8
4464.036
4462.291
4460.561
4458.903
4457.333
4455.754
4454.109
4452.37
4450.54
4448.648
4446.726
4444.812
4442.927
4441.09
4439.331
4437.644
4435.977
4434.312
4432.692
4431.15
4429.694
4428.316
4426.959
4425.526
4423.956
4422.285
4420.589
4418.896
4417.248
4415.703
4414.363
4413.109
4411.811
4410.532
4409.317
4408.174
4407.055
4406.034
4405.083
4404.146
4403.239
4402.397
4401.639
4400.975
4400.402
4399.911
4399.486
4399.119
4398.802
4398.54
4398.344
4398.219
4398.174
4398.231
4398.422
4398.779
4399.323
4400.069
4401.003
4402.084
4403.244
4404.409
4405.528
4406.57
4407.509
4408.326
4409.012
4409.566
4410.002
4410.327
4410.541
4410.656
4410.715
4410.612
4410.396
4410.103
4409.709
4409.154
4408.49
4407.735
4406.866
4405.938
4404.961
4403.922
4402.767
4401.5
4400.125
4398.627
4397.004
4395.261
4393.399
4391.428
4389.36
4387.211
4384.993
4382.7
4380.348
4377.956
4375.513
4373.003
4370.424
4367.77
4365.032
4362.207
4359.287
4356.3
4353.23
4350.122
4346.979
4343.868
4340.79
4337.856
4335.051
4332.521
4330.093
4327.629
4324.121
2208.534
2164.662
2120.892
2064.013
2024.527
1950.153
1913.65
1878.836
1845.642
1813.301
1782.401
1752.758
1724.564
1698.232
1673.151
1588.795
1571.775
1558.808
1550.762
1548.224
1551.96
1562.778
1581.85
1609.96
1647.892
1698.057
1757.197
1836.117
1929.602
2038.645
2166.904
2316.931
2488.411
2679.814
2891.899
3109.941
3327.381
3531.964
3710.183
3852.656
3950.652
3999.31
3995.352
3938.04
3827.893
3670.371
3475.609
3255.656
3019.186
2779.967
2549.999
2337.226
2148.985
1990.99
1859.549
1746.872
1651.064
1571.395
1506.438
1457.064
1424.428
1406.062
1395.145
1388.925
1384.476
1388.862
1405.993
1436.594
1458.28
1480.788
1506.667
1525.014
1541.456
1546.27
1523.141
1493.343
1464.595
1448.221
1447.129
1457.088
1471.627
1487.188
1502.54
1517.653
1531.242
1540.457
1551.651
1569.235
1598.908
1647.887
1704.601
1758.059
1806.734
1853.108
1898.1
1939.811
1984.042
2038.885
2098.838
2145.883
2179.683
2205.054
2223.985
2235.702
2239.731
2240.905
2240.086
2228.495
2195.191
2140.336
2085.324
2024.84
1960.146
1873.237
1774.554
1686.087
1610.618
1585.782
1622.686
1729.436
1826.035
1911.217
2013.048
2117.109
2227.436
2337.735
2443.023
2537.181
2617.214
2686.72
2749.666
2806.933
2858.223
2903.412
2942.846
2977.338
3007.747
3034.074
3055.124
3069.504
3077.792
3084.448
3092.66
3101.368
3109.174
3118.584
3132.492
3151.116
3170.75
3192.457
3219.289
3249.977
3278.982
3301.047
3318.41
3333.783
3347.086
3361.198
3376.014
3391.631
3408.072
3425.289
3443.487
3463.072
3484.207
3506.984
3531.717
3558.828
3588.415
3620.108
3652.687
3684.757
3715.106
3743.196
3769.01
3792.657
3814.268
3834.094
3852.294
3868.861
3883.889
3897.677
3910.579
3922.799
3934.358
3945.202
3955.33
3964.832
3973.821
3982.353
3990.41
3997.944
4004.957
4011.615
4018.241
4025.129
4032.365
4039.829
4047.372
4054.909
4062.392
4069.842
4077.261
4084.726
4092.28
4099.759
4106.785
4113.034
4118.542
4123.565
4128.186
4132.553
4136.71
4140.508
4143.82
4146.556
4148.832
4150.825
4152.675
4154.446
4156.267
4158.175
4160.092
4161.856
4163.314
4164.607
4165.895
4167.259
4168.625
4169.926
4171.038
4171.617
4171.425
4170.382
4168.352
4165.281
4161.578
4158.399
4155.714
4153.48
4151.806
4150.934
4151.955
4154.778
4159.107
4164.595
4170.176
4174.938
4178.72
4182.096
4185.488
4188.781
4191.981
4195.164
4198.232
4200.884
4202.891
4204.223
4205.012
4205.496
4206.005
4206.866
4208.437
4211.108
4214.634
4218.449
4222.087
4226.17
4230.231
4235.075
4242.131
4249.688
4256.142
4261.476
4265.795
4269.237
4272.033
4274.422
4276.649
4278.684
4280.45
4281.987
4283.408
4284.71
4285.835
4286.727
4287.345
4287.675
4287.73
4287.435
4286.72
4285.573
4284.003
4282.04
4279.71
4277.035
4274.051
4270.795
4267.29
4263.592
4259.799
4255.969
4252.129
4248.339
4244.633
4241.024
4237.537
4234.234
4231.178
4228.445
4226.097
4224.141
4222.535
4221.135
4219.951
4219.639
4219.785
4219.922
4220.088
4220.4
4220.85
4221.392
4221.969
4222.489
4222.898
4223.146
4223.246
4223.211
4223.045
4222.823
4222.533
4222.233
4222.205
4222.625
4223.494
4224.868
4226.711
4228.891
4231.228
4233.547
4235.708
4237.617
4239.248
4240.602
4241.654
4242.366
4242.719
4242.777
4242.589
4242.147
4241.439
4240.495
4239.381
4238.235
4237.167
4235.984
4234.793
4233.611
4232.413
4231.195
4230.03
4228.909
4227.717
4226.299
4224.649
4222.861
4221.012
4219.166
4217.344
4215.568
4213.959
4212.395
4210.805
4209.203
4207.489
4205.645
4203.711
4201.727
4199.738
4197.752
4195.791
4193.97
4192.3
4190.647
4188.91
4187.175
4185.491
4183.939
4182.56
4181.283
4179.927
4178.385
4176.712
4174.993
4173.244
4171.569
4170.121
4168.829
4167.57
4166.261
4164.97
4163.721
4162.551
4161.464
4160.495
4159.579
4158.633
4157.696
4156.817
4156.022
4155.337
4154.762
4154.278
4153.863
4153.502
4153.188
4152.923
4152.716
4152.562
4152.48
4152.505
4152.672
4153.015
4153.562
4154.35
4155.384
4156.617
4157.956
4159.289
4160.547
4161.695
4162.712
4163.585
4164.306
4164.871
4165.32
4165.662
4165.886
4165.995
4165.982
4165.837
4165.584
4165.293
4164.893
4164.269
4163.586
4162.858
4162.085
4161.17
4160.127
4159.012
4157.817
4156.531
4155.151
4153.663
4152.049
4150.304
4148.427
4146.426
4144.319
4142.126
4139.866
4137.572
4135.258
4132.923
4130.56
4128.154
4125.669
4123.102
4120.47
4117.771
4114.98
4112.127
4109.229
4106.317
4103.384
4100.507
4097.673
4094.986
4092.4
4090.054
4087.722
4085.303
4081.784
2285.268
2214.921
2141.295
2062.608
1990.661
1930.198
1876.592
1828.875
1786.298
1745.168
1640.171
1604.467
1570.301
1537.394
1505.497
1474.802
1445.352
1416.99
1389.874
1365.849
1344.297
1326.221
1311.648
1301.422
1296.134
1296.353
1302.642
1316.283
1338.803
1371.803
1416.31
1473.179
1544.398
1629.313
1730.779
1852.053
1996.692
2163.931
2350.07
2552.822
2761.51
2966.51
3155.313
3314.299
3433.694
3506.008
3528.438
3499.583
3421.803
3297.457
3132.107
2929.913
2705.101
2464.63
2225.028
2002.769
1806.871
1642
1507.967
1402.599
1317.271
1245.115
1183.017
1131.951
1099.965
1089.885
1091.092
1087.572
1085.462
1085.366
1103.059
1134.88
1188.745
1212.106
1221.487
1272.227
1310.156
1339.634
1344.085
1296.232
1238.956
1198.934
1175.223
1169.003
1188.577
1211.297
1237.293
1256.879
1260.439
1258.955
1268.889
1274.746
1290.319
1318.8
1378.358
1442.075
1502.347
1561.62
1612.889
1652.965
1686.699
1734.624
1802.967
1872.407
1927.085
1962.339
1989.389
2011.472
2026.007
2026.187
2026.561
2038.324
2042.794
2004.382
1920.859
1855.836
1817.13
1750.211
1629.834
1499.438
1369.268
1288.481
1266.404
1339.28
1446.369
1535.148
1617.425
1720.126
1829.757
1953.395
2088.683
2208.345
2304.705
2385.408
2456.382
2520.251
2578.459
2630.318
2675.222
2713.762
2747.501
2777.968
2805.175
2826.465
2838.382
2839.541
2838.823
2842.967
2848.041
2850.412
2854.355
2863.985
2885.317
2905.803
2931.91
2962.473
3000.408
3037.207
3062.866
3078.132
3089.588
3101.541
3114.936
3128.701
3142.893
3157.682
3173.284
3190.227
3208.85
3229.012
3250.593
3274.198
3300.831
3330.518
3363.411
3398.006
3432.136
3464.722
3495.609
3524.724
3551.808
3576.325
3597.853
3616.431
3632.426
3646.451
3659.207
3671.275
3682.856
3693.883
3704.211
3713.821
3722.838
3731.454
3739.712
3747.569
3754.83
3761.307
3767.265
3773.306
3779.891
3787.112
3794.741
3802.499
3810.221
3817.822
3825.467
3833.166
3840.89
3848.692
3856.624
3864.149
3870.563
3875.898
3880.829
3885.252
3889.505
3893.697
3897.518
3900.907
3903.62
3905.584
3907.109
3908.513
3909.885
3911.449
3913.268
3915.296
3917.268
3918.921
3920.196
3921.297
3922.545
3924.014
3925.644
3927.286
3928.274
3928.382
3927.483
3925.49
3922.449
3918.834
3914.863
3910.819
3907.173
3904.351
3902.221
3902.126
3904.77
3911.967
3920.268
3926.526
3930.742
3934.021
3936.952
3940.095
3943.558
3947.203
3950.924
3954.463
3957.418
3959.504
3960.622
3960.947
3960.778
3960.482
3960.41
3961.193
3963.782
3967.807
3972.414
3976.745
3980.888
3984.972
3990.765
3998.384
4006.543
4013.473
4019.044
4023.431
4026.808
4029.412
4031.751
4033.818
4035.513
4037.144
4038.605
4039.99
4041.33
4042.528
4043.491
4044.164
4044.581
4044.696
4044.412
4043.69
4042.521
4040.898
4038.83
4036.344
4033.469
4030.262
4026.787
4023.043
4019.092
4015.086
4011.091
4007.11
4003.286
3999.634
3996.117
3992.722
3989.508
3986.524
3983.863
3981.608
3979.702
3978.046
3976.547
3975.374
3974.762
3974.494
3974.479
3974.598
3974.94
3975.503
3976.204
3976.941
3977.591
3978.073
3978.4
3978.545
3978.454
3978.141
3977.693
3977.162
3976.618
3976.33
3976.499
3977.265
3978.717
3980.793
3983.317
3986.043
3988.73
3991.194
3993.328
3995.123
3996.579
3997.694
3998.483
3998.897
3998.93
3998.638
3998.043
3997.195
3996.18
3995.024
3993.678
3992.531
3991.401
3990.178
3988.974
3987.682
3986.302
3985.083
3984.107
3983.162
3981.841
3980.146
3978.267
3976.321
3974.388
3972.563
3970.893
3969.357
3967.827
3966.212
3964.478
3962.656
3960.757
3958.776
3956.726
3954.644
3952.512
3950.337
3948.447
3946.866
3945.304
3943.46
3941.599
3939.657
3937.853
3936.481
3935.455
3934.322
3932.826
3931.156
3929.482
3927.902
3926.449
3925.052
3923.566
3922.072
3920.669
3919.329
3918.026
3916.923
3915.966
3915.006
3914.085
3913.103
3912.114
3911.172
3910.317
3909.601
3909.033
3908.576
3908.191
3907.852
3907.552
3907.294
3907.07
3906.889
3906.777
3906.768
3906.899
3907.206
3907.713
3908.509
3909.649
3911.099
3912.66
3914.175
3915.586
3916.857
3917.972
3918.92
3919.706
3920.337
3920.822
3921.165
3921.375
3921.46
3921.373
3921.153
3920.82
3920.594
3920.349
3919.933
3919.3
3918.47
3917.583
3916.578
3915.435
3914.205
3912.96
3911.687
3910.339
3908.872
3907.266
3905.513
3903.613
3901.577
3899.431
3897.202
3894.921
3892.612
3890.286
3887.944
3885.586
3883.205
3880.805
3878.378
3875.897
3873.372
3870.751
3868.017
3865.271
3862.529
3859.775
3857.084
3854.445
3851.963
3849.573
3847.405
3845.246
3843.037
3839.926
2000.923
1919.421
1765.819
1704.227
1646.866
1595.605
1549.337
1506.986
1467.559
1430.603
1395.718
1361.469
1328.154
1295.592
1263.845
1232.89
1202.827
1173.763
1145.999
1120.39
1097.705
1078.393
1062.411
1049.938
1041.289
1037.598
1040.034
1049.769
1068.26
1097.4
1138.619
1191.231
1255.813
1334.6
1431.749
1548.473
1687.149
1846.932
2024.423
2214.789
2408.577
2594.473
2759.469
2890.045
2976.585
3013.343
3000.156
2940.613
2837.783
2695.089
2516.633
2299.272
2068.573
1829.256
1598.863
1386.874
1206.153
1068.092
966.973
894.3895
847.84
815.7201
777.7519
733.9193
715.8595
739.199
781.8096
799.8005
781.1387
753.9328
778.3994
851.4085
997.0158
1026.727
974.0361
973.8752
1057.218
1204.548
1217.219
1100.749
951.3348
887.1636
905.2717
951.8954
978.5124
963.7385
952.6937
1008.832
1041.087
1072.297
1079.675
999.0549
945.3257
968.4618
1094.259
1194.442
1248.099