/*--------------------------------*- C++ -*----------------------------------*\
| =========                 |                                                 |
| \\      /  F ield         | foam-extend: Open Source CFD                    |
|  \\    /   O peration     | Version:     3.1                                |
|   \\  /    A nd           | Web:         http://www.extend-project.de       |
|    \\/     M anipulation  |                                                 |
\*---------------------------------------------------------------------------*/
FoamFile
{
    version     2.0;
    format      ascii;
    class       volScalarField;
    location    "18.5";
    object      pd;
}
// * * * * * * * * * * * * * * * * * * * * * * * * * * * * * * * * * * * * * //

dimensions      [1 -1 -2 0 0 0 0];

internalField   nonuniform List<scalar> 
119952
(
5608.823
4893.859
4792.802
4909.222
5042.839
4959.929
4947.189
4945.141
4947.056
4953.5
4960.941
4969.611
4979.165
4989.769
5001.635
5014.633
5028.353
5041.583
5049.372
5032.15
5191.743
5126.671
5121.861
5320.115
5315.816
5361.502
5393.322
5460.666
5626.505
5777.462
3736.242
3688.995
3669.649
3640.954
3607.912
3575.289
3545.454
3523.009
3512.203
3487.213
3515.403
3548.956
3592.864
3648.442
3712.458
3782.727
3856.346
3930.515
4003.479
4126.561
4162.094
4208.098
4262.217
4309.891
4355.204
4398.032
4438.251
4476.224
4514.362
4542.528
4573.098
4603.456
4630.912
4656.832
4681.918
4706.464
4734.974
4787.782
4893.131
4834.037
4836.933
4894.04
4929.759
4936.969
4933.639
4937.012
4943.386
4951.244
4960.472
4970.753
4981.877
4993.876
5006.76
5020.464
5034.765
5049.421
5064.907
5083.918
5113.757
5146.569
5169.412
5233.001
5312.9
5346.918
5375.195
5402.78
5397.381
5312.816
5317.902
5359.804
5385.321
5409.65
5431.918
5451.384
5469.074
5485.274
5500.166
5513.931
5526.701
5538.591
5549.705
5560.136
5569.964
5579.265
5588.114
5596.587
5604.762
5612.708
5620.476
5628.1
5635.6
5642.983
5650.248
5657.386
5664.383
5671.222
5677.871
5684.291
5690.44
5696.274
5701.764
5706.89
5711.65
5716.051
5720.111
5723.851
5727.295
5730.471
5733.398
5736.098
5738.589
5740.882
5742.975
5744.84
5746.416
5747.806
5750.016
5753.45
5756.735
5757.457
5757.945
5758.597
5759.018
5759.233
5759.105
5758.71
5758.072
5757.21
5756.216
5755.312
5754.571
5754.041
5753.884
5754.199
5755.029
5756.346
5758.061
5760.07
5762.329
5764.862
5767.692
5770.77
5773.983
5777.216
5780.376
5783.407
5786.278
5788.977
5791.501
5793.867
5796.105
5798.26
5800.402
5802.619
5804.997
5807.596
5810.452
5813.572
5816.944
5820.551
5824.372
5828.374
5832.494
5836.615
5840.514
5843.918
5846.481
5854.841
5858.245
5861.348
5863.797
5865.844
5867.744
5869.579
5871.041
5872.32
5873.316
5874.04
5874.487
5874.649
5874.517
5874.088
5873.358
5872.323
5870.985
5869.348
5867.425
5865.23
5862.787
5860.124
5857.247
5854.193
5850.979
5847.605
5844.085
5840.397
5836.516
5832.388
5827.894
5822.791
5816.559
5808.354
5798.325
5804.475
5807.863
5809.561
5810.526
5811.18
5811.68
5812.112
5812.534
5812.964
5813.396
5813.823
5814.228
5814.599
5814.936
5815.261
5815.56
5815.838
5816.106
5816.383
5816.693
5817.061
5817.514
5818.078
5818.778
5819.631
5820.637
5821.784
5823.04
5824.369
5825.732
5827.09
5828.407
5829.614
5830.338
5847.185
5840.087
5831.963
5832.686
5832.751
5831.881
5831.244
5830.665
5829.907
5829.023
5828.07
5827.046
5825.943
5824.796
5823.552
5822.297
5820.98
5819.611
5818.184
5816.691
5815.134
5813.526
5811.877
5810.203
5808.52
5806.837
5805.159
5803.485
5801.808
5800.119
5798.408
5796.681
5794.938
5793.189
5791.449
5789.73
5788.046
5786.406
5784.821
5783.302
5781.869
5780.546
5779.373
5778.394
5777.566
5776.515
5774.758
5772.655
5770.817
5769.207
5767.701
5766.317
5764.948
5762.294
5756.245
5758.49
5758.421
5757.202
5756.275
5755.341
5754.417
5753.536
5752.754
5752.041
5751.396
5750.819
5750.31
5749.864
5749.48
5749.159
5748.902
5748.701
5748.566
5748.496
5748.49
5748.559
5748.71
5748.952
5749.289
5749.726
5750.272
5750.902
5751.604
5752.36
5753.147
5753.941
5754.718
5755.459
5756.145
5756.762
5757.297
5757.743
5758.093
5758.344
5758.497
5758.551
5758.508
5758.371
5758.128
5757.775
5757.315
5756.741
5756.049
5755.237
5754.304
5753.25
5752.072
5750.769
5749.339
5747.779
5746.087
5744.262
5742.301
5740.203
5737.971
5735.611
5733.153
5730.617
5728.034
5725.406
5722.769
5720.087
5717.341
5714.473
5711.509
5708.43
5705.227
5701.885
5698.425
5694.837
5691.065
5687.076
5682.769
5678.046
5672.665
5666.456
5660.324
5661.107
5681.584
3089.103
3103.014
3105.956
3106.553
3105.084
3101.518
3099.468
3102.671
3105.782
3080.967
3108.807
3121.013
3133.742
3148.722
3166.447
3187.478
3211.942
3240.576
3298.684
3336.746
3354.867
3391.633
3431.469
3471.521
3511.43
3551.568
3590.478
3627.439
3662.475
3682.35
3707.986
3727.794
3740.839
3748.157
3749.893
3745.471
3736.543
3724.314
3689.377
3655.491
3623.288
3589.295
3554.823
3523.503
3500.08
3489.28
3491.552
3509.346
3546.706
3595.462
3653.687
3719.79
3791.565
3867.024
3943.009
4017.033
4115.3
4184.569
4238.355
4287.555
4336.628
4382.958
4426.554
4465.746
4501.252
4534.574
4565.83
4594.087
4619.578
4643.328
4666.559
4690.418
4716.524
4745.73
4779.297
4811.012
4828.962
4842.568
4863.714
4886.925
4904.715
4916.429
4925.177
4934.765
4945.751
4957.654
4970.24
4983.522
4997.542
5012.324
5027.901
5044.414
5062.269
5082.251
5105.489
5132.923
5164.805
5201.358
5243.321
5287.456
5323.801
5349.107
5363.749
5365.436
5358.846
5364.569
5382.579
5404.169
5425.457
5444.931
5462.534
5478.729
5493.79
5507.803
5520.819
5532.919
5544.205
5554.779
5564.728
5574.127
5583.041
5591.542
5599.716
5607.648
5615.415
5623.065
5630.62
5638.088
5645.465
5652.743
5659.912
5666.956
5673.853
5680.562
5687.025
5693.18
5698.978
5704.401
5709.455
5714.162
5718.542
5722.608
5726.364
5729.812
5732.962
5735.835
5738.462
5740.872
5743.093
5745.148
5747.068
5748.903
5750.722
5752.606
5754.566
5756.368
5757.731
5758.694
5759.348
5759.725
5759.801
5759.556
5758.915
5758.004
5756.831
5755.605
5754.403
5753.395
5752.712
5752.506
5752.912
5754.073
5755.927
5758.314
5761.022
5763.9
5766.863
5769.898
5772.989
5776.099
5779.191
5782.219
5785.125
5787.869
5790.429
5792.793
5794.977
5797.031
5799.021
5801.05
5803.248
5805.669
5808.374
5811.366
5814.607
5818.089
5821.815
5825.794
5830.008
5834.388
5838.804
5843.157
5847.518
5852.139
5855.2
5859.117
5861.758
5864.234
5866.54
5868.525
5870.307
5871.844
5873.13
5874.151
5874.894
5875.351
5875.513
5875.372
5874.922
5874.154
5873.082
5871.7
5870.016
5868.043
5865.799
5863.304
5860.579
5857.644
5854.518
5851.223
5847.772
5844.173
5840.422
5836.497
5832.358
5827.945
5823.163
5817.983
5812.882
5809.02
5808.676
5810.056
5810.831
5811.384
5811.866
5812.269
5812.643
5813.017
5813.4
5813.791
5814.185
5814.573
5814.945
5815.29
5815.603
5815.884
5816.134
5816.368
5816.61
5816.892
5817.242
5817.695
5818.268
5819.038
5820.01
5821.135
5822.406
5823.781
5825.212
5826.649
5828.042
5829.374
5830.666
5832.086
5837.325
5839.433
5837.306
5834.593
5833.041
5832.372
5831.821
5831.047
5830.11
5829.127
5828.113
5827.047
5825.935
5824.783
5823.6
5822.357
5821.055
5819.679
5818.216
5816.671
5815.064
5813.432
5811.781
5810.126
5808.472
5806.819
5805.159
5803.485
5801.79
5800.068
5798.315
5796.534
5794.748
5792.974
5791.227
5789.518
5787.848
5786.219
5784.637
5783.115
5781.674
5780.326
5779.068
5777.86
5776.628
5775.268
5773.694
5771.956
5770.224
5768.603
5767.094
5765.626
5764.061
5762.116
5759.505
5757.837
5757.301
5756.895
5756.1
5755.145
5754.251
5753.404
5752.6
5751.864
5751.198
5750.601
5750.073
5749.613
5749.219
5748.889
5748.621
5748.418
5748.277
5748.204
5748.209
5748.299
5748.487
5748.785
5749.21
5749.763
5750.406
5751.146
5751.95
5752.789
5753.635
5754.462
5755.247
5755.973
5756.624
5757.192
5757.67
5758.054
5758.343
5758.537
5758.633
5758.631
5758.529
5758.328
5758.023
5757.605
5757.078
5756.444
5755.702
5754.854
5753.898
5752.832
5751.655
5750.363
5748.952
5747.42
5745.766
5743.99
5742.09
5740.068
5737.928
5735.676
5733.325
5730.889
5728.381
5725.808
5723.176
5720.465
5717.66
5714.746
5711.721
5708.587
5705.343
5701.982
5698.51
5694.913
5691.163
5687.235
5683.18
5679.084
5675.131
5671.677
5669.294
5668.267
5668.329
4458.336
4689.751
4931.178
5169.337
5397.575
5608.732
5787.513
5926.838
6018.039
6046.877
6018.069
5939.507
5812.472
5643.628
5443.033
5221.377
4988.99
4754.646
4530.982
4268.949
4074.269
3891.264
3727.074
3583.674
3460.793
3357.852
3273.876
3207.839
3161.627
3118.195
3087.778
3069.999
3060.274
3057.684
3061.242
3068.776
3078.913
3093.618
3099.567
3094.978
3097.431
3097.336
3095.139
3091.879
3089.676
3090.253
3095.795
3101.735
3109.746
3124.198
3138.882
3154.041
3171.229
3191.671
3216.359
3246.293
3287.821
3326.078
3363.548
3403.603
3444.53
3485.677
3526.489
3566.681
3606.144
3643.586
3677.332
3706.334
3729.313
3745.922
3756.284
3760.797
3759.99
3753.454
3739.607
3716.994
3686.404
3650.589
3610.97
3568.698
3525.694
3486.174
3455.935
3441.466
3447.61
3475.186
3519.775
3576.039
3641.527
3715.159
3794.523
3876.841
3959.12
4039.89
4118.65
4186.144
4243.949
4297.709
4349.611
4398.371
4442.935
4482.941
4518.887
4551.446
4579.974
4605.664
4628.619
4649.65
4670.095
4691.013
4713.063
4736.541
4761.254
4786.36
4807.175
4823.369
4842.244
4864.732
4885.255
4901.008
4914.109
4926.646
4939.683
4953.264
4967.374
4982.08
4997.44
5013.507
5030.373
5048.263
5067.525
5088.652
5112.248
5139.122
5169.747
5202.816
5238.043
5274.568
5307.77
5332.954
5350.977
5362.13
5370.244
5380.454
5396.333
5416.007
5435.599
5453.591
5470.014
5485.244
5499.511
5512.865
5525.317
5536.92
5547.759
5557.93
5567.513
5576.569
5585.157
5593.347
5601.235
5608.93
5616.522
5624.061
5631.557
5639.006
5646.393
5653.706
5660.936
5668.072
5675.091
5681.944
5688.547
5694.812
5700.68
5706.139
5711.217
5715.953
5720.377
5724.497
5728.3
5731.772
5734.916
5737.758
5740.337
5742.699
5744.892
5746.957
5748.915
5750.778
5752.543
5754.235
5755.89
5757.477
5758.796
5759.754
5760.438
5760.846
5760.895
5760.516
5759.671
5758.439
5756.921
5755.243
5753.491
5752.142
5751.368
5751.132
5751.608
5752.993
5755.211
5758.047
5761.25
5764.558
5767.819
5771.026
5774.188
5777.279
5780.319
5783.3
5786.156
5788.837
5791.307
5793.531
5795.519
5797.368
5799.167
5801.002
5803.062
5805.478
5808.231
5811.307
5814.636
5818.198
5822.042
5826.194
5830.662
5835.396
5840.204
5844.888
5849.277
5853.21
5856.647
5860.167
5863.215
5865.742
5867.939
5869.9
5871.632
5873.129
5874.385
5875.39
5876.13
5876.585
5876.744
5876.596
5876.125
5875.332
5874.204
5872.746
5870.971
5868.898
5866.549
5863.946
5861.108
5858.056
5854.815
5851.413
5847.871
5844.207
5840.427
5836.535
5832.53
5828.435
5824.322
5820.374
5816.912
5814.378
5813.039
5812.631
5812.61
5812.678
5812.802
5812.997
5813.249
5813.533
5813.86
5814.225
5814.604
5814.893
5815.181
5815.524
5815.917
5816.205
5816.393
5816.545
5816.696
5816.901
5817.193
5817.616
5818.214
5819.039
5820.136
5821.466
5822.96
5824.547
5826.163
5827.744
5829.231
5830.568
5831.622
5832.145
5831.581
5830.849
5830.742
5831.143
5831.663
5831.793
5831.509
5830.946
5830.191
5829.313
5828.35
5827.321
5826.256
5825.149
5824.036
5822.821
5821.561
5820.209
5818.745
5817.179
5815.534
5813.89
5812.217
5810.552
5808.896
5807.25
5805.609
5803.953
5802.264
5800.531
5798.749
5796.931
5795.11
5793.302
5791.52
5789.787
5788.1
5786.454
5784.845
5783.284
5781.787
5780.354
5779.024
5777.737
5776.412
5774.984
5773.44
5771.75
5770.04
5768.4
5766.858
5765.387
5764.045
5762.979
5762.152
5761.123
5759.75
5758.26
5756.838
5755.586
5754.493
5753.508
5752.611
5751.802
5751.082
5750.445
5749.882
5749.396
5748.98
5748.63
5748.344
5748.116
5747.954
5747.865
5747.861
5747.953
5748.153
5748.475
5748.959
5749.588
5750.343
5751.19
5752.098
5753.028
5753.946
5754.824
5755.637
5756.369
5757.015
5757.568
5758.022
5758.378
5758.637
5758.801
5758.872
5758.838
5758.701
5758.462
5758.114
5757.651
5757.081
5756.407
5755.631
5754.759
5753.794
5752.731
5751.567
5750.298
5748.915
5747.415
5745.798
5744.067
5742.219
5740.26
5738.188
5736.007
5733.725
5731.357
5728.911
5726.396
5723.809
5721.142
5718.399
5715.554
5712.592
5709.517
5706.335
5703.05
5699.657
5696.17
5692.586
5688.945
5685.262
5681.734
5678.342
5675.309
5672.72
5670.762
5669.098
3157.706
3180.814
3219.393
3265.059
3326.141
3411.436
3507.857
3623.623
3762.099
3896.539
4040.42
4216.02
4412.02
4623.894
4846.894
5071.13
5285.513
5481.045
5647.564
5774.176
5853.881
5885.455
5863.056
5780.506
5648.314
5475.352
5271.743
5048.589
4816.555
4587.439
4375.201
4072.651
3899.342
3744.807
3598.699
3469.413
3360.533
3271.309
3200.196
3145.648
3105.08
3076.088
3056.053
3043.257
3038.143
3041.59
3051.436
3063.213
3076.858
3088.977
3099.511
3105.987
3106.094
3100.857
3092.56
3084.063
3079.005
3078.943
3083.861
3093.286
3105.777
3119.578
3134.161
3149.537
3166.199
3186.2
3210.548
3242.451
3283.357
3325.477
3365.022
3405.348
3447.25
3489.618
3531.723
3573.932
3616.42
3657.381
3693.548
3723.03
3746.362
3763.685
3774.259
3778.353
3777.191
3770.667
3756.759
3732.426
3697.029
3654.658
3607.902
3557.45
3503.367
3451.371
3409.646
3386.386
3388.947
3419.038
3471.104
3536.058
3608.994
3689.998
3777.182
3867.522
3957.682
4043.67
4122.634
4193.254
4256.432
4314.372
4368.328
4417.935
4462.675
4502.413
4537.319
4567.837
4595.644
4619.249
4639.417
4656.918
4673.435
4690.367
4708.029
4726.435
4745.847
4766.367
4786.065
4804.259
4823.977
4846.417
4868.838
4888.442
4905.112
4919.989
4934.35
4948.773
4963.622
4979.011
4995.019
5011.734
5029.262
5047.808
5067.638
5089.079
5112.624
5138.779
5167.712
5198.843
5231.513
5264.655
5295.758
5322.252
5344.085
5361.988
5377.264
5391.947
5408.572
5426.885
5444.961
5461.749
5477.22
5491.652
5505.22
5517.965
5529.889
5541.024
5551.442
5561.232
5570.463
5579.183
5587.431
5595.274
5602.828
5610.237
5617.622
5625.035
5632.468
5639.895
5647.275
5654.603
5661.888
5669.123
5676.273
5683.291
5690.07
5696.482
5702.442
5707.938
5713.026
5717.761
5722.178
5726.32
5730.152
5733.626
5736.702
5739.431
5741.885
5744.137
5746.255
5748.288
5750.25
5752.124
5753.873
5755.48
5756.98
5758.386
5759.635
5760.701
5761.563
5762.118
5762.221
5761.764
5760.659
5758.646
5755.589
5754.134
5753.104
5751.586
5750.271
5749.549
5749.854
5751.364
5753.915
5757.203
5760.904
5764.652
5768.206
5771.591
5774.844
5777.947
5781.052
5784.111
5786.693
5789.151
5791.698
5794.219
5796.187
5797.763
5799.222
5800.75
5802.544
5804.814
5807.543
5810.692
5814.127
5817.778
5821.725
5825.992
5830.711
5835.899
5841.222
5846.295
5850.898
5854.956
5858.55
5861.886
5864.77
5867.162
5869.246
5871.092
5872.818
5874.414
5875.746
5876.799
5877.592
5878.108
5878.326
5878.234
5877.805
5877.033
5875.913
5874.445
5872.633
5870.463
5867.974
5865.291
5862.417
5859.293
5855.949
5852.45
5848.834
5845.127
5841.351
5837.526
5833.678
5829.856
5826.146
5822.674
5819.602
5817.124
5815.426
5814.463
5813.933
5813.603
5813.465
5813.511
5813.5
5813.22
5813.512
5814.266
5814.995
5815.45
5815.873
5816.151
5816.398
5816.586
5816.69
5816.725
5816.687
5816.775
5817.02
5817.443
5817.969
5818.842
5820.037
5821.524
5823.219
5825.017
5826.823
5828.551
5830.128
5831.504
5832.647
5833.644
5834.678
5835.609
5835.963
5835.635
5834.763
5833.887
5833.018
5832.068
5831.043
5830.006
5828.976
5827.896
5826.805
5825.639
5824.439
5823.271
5822.023
5820.67
5819.193
5817.605
5815.95
5814.23
5812.535
5810.857
5809.189
5807.5
5805.861
5804.243
5802.603
5800.861
5799.035
5797.17
5795.277
5793.379
5791.558
5789.818
5788.151
5786.501
5784.862
5783.258
5781.714
5780.22
5778.815
5777.467
5776.13
5774.699
5773.123
5771.471
5769.784
5768.132
5766.552
5765.068
5763.716
5762.422
5761.051
5759.61
5758.262
5757.097
5756.02
5754.993
5754.021
5753.143
5752.312
5751.519
5750.794
5750.152
5749.591
5749.104
5748.684
5748.325
5748.021
5747.767
5747.551
5747.415
5747.428
5747.543
5747.757
5748.11
5748.625
5749.312
5750.148
5751.099
5752.12
5753.156
5754.164
5755.115
5755.984
5756.753
5757.41
5757.956
5758.396
5758.736
5758.975
5759.116
5759.167
5759.099
5758.927
5758.659
5758.28
5757.773
5757.148
5756.417
5755.602
5754.709
5753.73
5752.659
5751.497
5750.188
5748.759
5747.29
5745.754
5744.051
5742.196
5740.228
5738.157
5735.989
5733.735
5731.415
5729.033
5726.593
5724.08
5721.506
5718.872
5716.134
5713.282
5710.324
5707.256
5704.097
5700.847
5697.538
5694.177
5690.82
5687.456
5684.218
5681.161
5678.419
5675.964
5673.683
5670.695
3310.795
3280.529
3254.605
3229.351
3203.77
3181.632
3164.778
3152.004
3144.696
3143.308
3148.601
3159.66
3181.151
3212.324
3253.595
3308.962
3392.417
3483.464
3586.351
3702.8
3839.038
3995.056
4174.072
4372.151
4585.785
4808.237
5032.586
5246.155
5433.921
5588.403
5700.091
5763.199
5773.739
5729.826
5630.93
5482.326
5294.03
5078.228
4847.376
4612.348
4381.054
4157.901
3946.637
3769.342
3620.856
3489.261
3374.389
3277.17
3197.395
3135.196
3090.171
3059.84
3039.009
3023.986
3014.346
3012.932
3022.868
3041.513
3058.979
3076.086
3091.995
3106.511
3117.929
3118.538
3105.691
3089.871
3074.255
3065.645
3064.646
3069.89
3079.973
3093.793
3109.936
3125.578
3139.334
3152.741
3169.877
3193.233
3225.436
3267.712
3314.012
3359.163
3403.632
3448.393
3492.257
3534.597
3578.263
3626.077
3674.135
3714.448
3745.451
3769.635
3788.057
3799.675
3803.937
3802.791
3797.154
3783.938
3756.841
3714.61
3665.714
3609.851
3550.609
3481.863
3410.977
3349.509
3307.591
3304.879
3337.01
3400.425
3475.443
3553.605
3645.928
3746.115
3847.448
3947.171
4040.95
4125.387
4200.71
4268.217
4329.256
4384.953
4435.454
4480.477
4520.093
4554.811
4585.281
4611.7
4633.925
4651.257
4664.678
4676.676
4689.17
4702.148
4715.453
4730.198
4747.194
4765.587
4784.303
4804.907
4829.016
4854.736
4878.619
4898.328
4914.869
4929.844
4944.214
4959.143
4974.681
4990.856
5007.754
5025.457
5044.182
5064.161
5085.646
5108.976
5134.451
5162.27
5192.308
5223.929
5255.957
5286.801
5314.969
5340.056
5362.334
5382.195
5400.653
5418.861
5436.92
5454.095
5469.97
5484.619
5498.302
5511.192
5523.333
5534.715
5545.356
5555.326
5564.715
5573.583
5581.958
5589.846
5597.294
5604.438
5611.494
5618.648
5625.883
5633.155
5640.619
5648.174
5655.639
5663.004
5670.327
5677.626
5684.861
5691.883
5698.505
5704.561
5709.829
5714.765
5719.576
5724.272
5728.521
5732.334
5735.721
5738.657
5741.194
5743.44
5745.506
5747.495
5749.44
5751.322
5753.216
5755.025
5756.591
5757.955
5759.23
5760.447
5761.659
5762.775
5763.587
5763.848
5763.213
5759.34
5756.092
5754.535
5754.483
5752.95
5750.635
5748.731
5747.475
5747.515
5749.146
5752.016
5755.821
5760.146
5764.358
5768.133
5771.704
5774.019
5773.006
5775.968
5781.898
5787.648
5791.017
5793.516
5795.523
5797.073
5798.277
5799.296
5800.266
5801.658
5803.72
5806.555
5809.857
5813.402
5817.066
5821.133
5825.426
5830.284
5835.989
5841.934
5846.93
5850.932
5855.636
5860.299
5863.837
5866.338
5867.484
5868.577
5871.591
5874.238
5875.901
5877.194
5878.274
5879.113
5879.678
5879.943
5879.856
5879.021
5878.07
5877.124
5876.04
5874.307
5872.097
5869.524
5866.707
5863.665
5860.375
5856.881
5853.256
5849.548
5845.786
5842.012
5838.255
5834.543
5830.92
5827.458
5824.242
5821.375
5818.969
5817.105
5815.764
5814.766
5813.933
5812.906
5811.771
5812.751
5813.951
5814.498
5814.877
5815.281
5815.386
5815.437
5815.894
5816.566
5816.928
5816.983
5816.932
5816.823
5816.727
5816.722
5816.755
5817.185
5818.094
5819.533
5821.272
5823.192
5825.226
5827.255
5829.173
5830.902
5832.405
5833.672
5834.685
5835.37
5835.634
5835.482
5835.02
5834.278
5833.725
5833.242
5832.588
5831.633
5830.58
5829.461
5828.325
5827.163
5826.041
5824.887
5823.729
5822.532
5821.235
5819.777
5818.163
5816.446
5814.674
5812.906
5811.15
5809.404
5807.742
5806.176
5804.61
5802.969
5801.196
5799.091
5797.126
5795.204
5793.29
5791.406
5789.644
5788.121
5786.488
5784.757
5783.094
5781.527
5780.019
5778.569
5777.19
5775.834
5774.401
5772.831
5771.16
5769.463
5767.766
5766.1
5764.477
5762.892
5761.53
5760.451
5759.371
5758.178
5756.963
5755.526
5754.493
5753.781
5752.999
5752.113
5751.272
5750.514
5749.85
5749.277
5748.786
5748.361
5747.993
5747.663
5747.263
5746.901
5746.916
5747.015
5747.104
5747.297
5747.654
5748.198
5748.944
5749.878
5750.959
5752.119
5753.284
5754.403
5755.445
5756.384
5757.191
5757.832
5758.382
5758.84
5759.192
5759.409
5759.517
5759.488
5759.33
5759.137
5758.934
5758.579
5758.027
5757.363
5756.604
5755.728
5754.759
5753.446
5751.808
5750.683
5749.953
5748.927
5747.491
5745.868
5744.129
5742.273
5740.303
5738.235
5736.086
5733.868
5731.575
5729.22
5726.802
5724.331
5721.835
5719.288
5716.644
5713.907
5711.082
5708.162
5705.175
5702.105
5698.997
5695.853
5692.742
5689.659
5686.701
5683.903
5681.389
5678.968
5676.504
5672.996
3716.169
3660.748
3613.53
3566.169
3526.683
3482.965
3446.462
3411.649
3378.454
3346.113
3315.213
3285.57
3257.376
3231.044
3205.964
3182.92
3165.9
3152.933
3144.887
3142.349
3146.085
3156.903
3175.975
3204.085
3242.017
3292.182
3351.322
3430.242
3523.727
3632.769
3761.029
3911.056
4082.536
4273.939
4486.024
4704.066
4921.506
5126.089
5304.308
5446.781
5544.777
5593.435
5589.477
5532.165
5422.018
5264.496
5069.734
4849.781
4613.311
4374.092
4144.124
3931.351
3743.11
3585.115
3453.674
3340.997
3245.188
3165.518
3100.559
3051.182
3018.547
3000.18
2989.264
2983.044
2978.59
2982.965
3000.079
3030.661
3052.336
3074.85
3100.747
3119.098
3135.519
3140.243
3117.034
3087.268
3058.57
3042.185
3040.944
3050.34
3064.04
3079.64
3095.579
3111.404
3125.168
3134.335
3145.319
3162.666
3192.293
3241.363
3298.403
3352.068
3400.754
3447.105
3492.025
3533.677
3577.907
3632.763
3692.716
3739.743
3773.5
3798.806
3817.645
3829.277
3833.235
3834.301
3833.221
3821.118
3787.092
3731.454
3674.349
3605.182
3523.496
3439.578
3356.309
3274.957
3198.463
3168.638
3166.939
3159.651
3280.498
3464.849
3603.623
3711.019
3821.353
3931.343
4033.658
4113.869
4191.186
4270.951
4342.511
4401.014
4452.342
4497.531
4536.965
4571.452
4601.851
4628.178
4649.241
4663.619
4671.896
4678.542
4686.755
4695.456
4703.186
4712.3
4725.701
4743.874
4763.383
4785.134
4812.097
4843.015
4872.247
4894.311
4911.31
4926.224
4940.157
4955.009
4969.979
4985.566
5001.621
5018.001
5036.396
5056.733
5078.266
5101.103
5125.84
5152.952
5182.539
5214.231
5246.799
5278.752
5307.917
5335.228
5361.654
5386.422
5408.36
5428.214
5446.415
5462.983
5478.013
5491.801
5504.704
5516.923
5528.481
5539.297
5549.398
5558.921
5567.938
5576.472
5584.528
5592.061
5599.058
5605.55
5611.918
5618.851
5626.326
5633.921
5641.484
5649.028
5656.515
5663.964
5671.383
5678.839
5686.292
5692.3
5697.853
5704.49
5711.716
5717.569
5722.296
5726.675
5730.834
5734.632
5737.944
5740.673
5742.908
5744.477
5745.316
5747.156
5749.795
5752.209
5754.199
5755.963
5757.419
5758.663
5759.158
5757.519
5758.721
5762.058
5764.847
5765.714
5765.423
5763.854
5761.396
5758.511
5755.168
5752.25
5749.309
5740.05
5729.821
5730.88
5740.999
5748.31
5752.884
5757.992
5758.777
5752.556
5756.693
5769.122
5778.245
5782.598
5785.988
5789.258
5792.336
5794.979
5796.644
5797.49
5798.314
5799.262
5800.074
5800.98
5802.552
5805.226
5808.757
5812.572
5816.207
5820.268
5824.198
5828.012
5827.77
5829.546
5838.899
5852.188
5859.629
5863.28
5866.045
5867.341
5865.355
5869.437
5873.77
5876.055
5877.533
5878.835
5879.96
5880.85
5881.426
5881.294
5880.934
5880.783
5880.522
5879.633
5878.121
5876.164
5873.833
5871.138
5868.101
5864.887
5861.41
5857.717
5853.924
5850.094
5846.254
5842.464
5838.758
5835.149
5831.662
5828.359
5825.303
5822.57
5820.222
5818.263
5816.619
5814.877
5811.557
5808.022
5810.034
5813.155
5814.159
5814.522
5814.972
5815.508
5816.017
5816.351
5816.773
5817.178
5817.313
5817.238
5816.748
5816.385
5816.145
5816.178
5816.308
5816.734
5817.587
5818.956
5820.817
5823.013
5825.353
5827.672
5829.832
5831.741
5833.37
5834.701
5835.378
5835.614
5836.039
5836.583
5836.665
5836.239
5835.507
5834.548
5833.467
5832.353
5831.291
5830.108
5828.916
5827.736
5826.538
5825.32
5824.155
5823.034
5821.842
5820.424
5818.774
5816.985
5815.136
5813.267
5811.19
5807.595
5804.002
5803.664
5803.988
5803.208
5801.6
5799.756
5797.816
5795.83
5793.842
5791.861
5789.905
5788.075
5786.304
5784.618
5782.882
5781.155
5779.565
5778.059
5776.685
5775.408
5774.052
5772.509
5770.835
5769.094
5767.158
5763.979
5758.983
5758.889
5760.561
5760.294
5759.075
5757.775
5756.249
5754.542
5753.719
5753.383
5752.725
5751.821
5750.942
5750.147
5749.462
5748.887
5748.403
5747.988
5747.619
5747.156
5746.586
5746.378
5746.359
5746.533
5746.626
5746.797
5747.14
5747.687
5748.475
5749.509
5750.741
5752.064
5753.224
5754.338
5755.529
5756.738
5757.691
5758.412
5758.973
5759.385
5759.523
5759.64
5759.8
5760.002
5759.944
5759.691
5759.4
5759
5758.372
5757.655
5756.457
5752.908
5751.306
5751.328
5752.428
5751.875
5750.647
5749.274
5747.785
5746.166
5744.422
5742.549
5740.55
5738.444
5736.251
5733.991
5731.696
5729.377
5726.996
5724.618
5722.223
5719.778
5717.226
5714.595
5711.896
5709.104
5706.251
5703.35
5700.43
5697.496
5694.627
5691.796
5689.109
5686.518
5684.171
5681.843
5679.427
5675.909
4033.516
3992.984
3919.358
3840.671
3768.723
3708.26
3654.654
3606.938
3564.36
3523.23
3479.546
3443.842
3409.676
3376.769
3344.872
3314.177
3284.726
3256.365
3229.249
3205.224
3183.672
3165.596
3151.023
3140.797
3135.509
3135.728
3142.017
3155.658
3178.178
3211.178
3255.685
3312.554
3383.773
3468.688
3570.154
3691.428
3836.067
4003.306
4189.445
4392.197
4600.885
4805.885
4994.688
5153.674
5273.069
5345.383
5367.813
5338.958
5261.178
5136.832
4971.482
4769.288
4544.476
4304.004
4064.401
3842.133
3646.213
3481.308
3347.226
3241.802
3156.411
3084.123
3021.597
2969.379
2936.301
2926.187
2927.765
2924.993
2923.064
2922.613
2938.43
2965.921
3016.319
3040.139
3053.464
3107.128
3144.423
3167.985
3162.21
3116.234
3067.209
3030.287
3001.628
2966.153
2947.297
2971.522
3032.194
3086.683
3093.945
3089.51
3084.204
3055.694
3074.51
3138.059
3214.959
3279.35
3338.997
3395.506
3439.397
3476.176
3513.212
3565.351
3633.862
3701.755
3752.773
3784.281
3811.07
3834.979
3853.742
3853.731
3847.989
3843.217
3843.269
3806.904
3709.376
3540.357
3308.785
3307.501
3386.368
3326.579
3179.148
2988.975
2204.327
2004.33
2689.785
3294.871
3453.537
3558.167
3666.95
3773.88
3787.176
3874.296
4055.272
4211.557
4294.85
4359.451
4417.676
4469.339
4513.094
4551.374
4585.858
4617.161
4644.533
4665.826
4677.739
4678.859
4677.98
4681.906
4686.753
4688.362
4688.907
4688.258
4704.543
4727.913
4755.384
4782.768
4817.094
4849.837
4874.143
4899.077
4925.136
4940.115
4951.984
4954.948
4967.312
4988.162
5011.013
5029.45
5048.199
5068.381
5089.963
5113.564
5140.173
5169.693
5201.154
5230.746
5264.973
5301.364
5334.357
5363.952
5391.151
5415.686
5437.197
5455.326
5470.608
5484.879
5498.27
5510.62
5522.229
5533.251
5543.547
5553.131
5562.154
5570.785
5579.01
5586.009
5592.17
5598.891
5605.895
5612.536
5619.243
5626.477
5634.105
5641.864
5649.582
5657.159
5664.535
5669.182
5674.065
5682.874
5694.218
5703.153
5709.721
5715.156
5720.177
5724.621
5728.874
5733.057
5736.812
5739.593
5738.656
5739.239
5742.3
5746.817
5749.128
5750.787
5752.606
5754.623
5756.142
5752.938
5751.954
5754.723
5760.197
5763.066
5764.809
5766.45
5767.438
5767.542
5766.643
5764.392
5751.685
5720.236
5715.463
5730.229
5743.168
5742.571
5740.244
5739.509
5738.133
5716.571
5706.693
5727.453
5760.238
5772.223
5776.143
5779.378
5782.781
5784.908
5787.306
5791.132
5795.799
5798.762
5799.958
5800.266
5800.084
5799.81
5799.773
5800.561
5803.149
5807.171
5811.765
5816.017
5818.435
5798.538
5769.183
5797.905
5836.875
5852.006
5858.306
5862.712
5866.086
5868.064
5864.627
5866.103
5871.279
5875.869
5877.939
5879.365
5880.705
5881.902
5882.84
5883.13
5882.383
5883.105
5883.558
5883.046
5881.894
5880.271
5878.203
5875.689
5872.751
5869.546
5866.121
5862.412
5858.466
5854.461
5850.466
5846.485
5842.661
5839.009
5835.491
5832.096
5828.882
5825.898
5823.238
5820.982
5819.064
5817.117
5810.134
5790.062
5796.232
5809.047
5813.495
5813.966
5814.312
5814.875
5815.576
5816.311
5816.949
5817.323
5816.76
5816.044
5816.121
5816.874
5816.989
5816.524
5815.98
5815.692
5815.86
5816.623
5818.071
5820.15
5822.681
5825.412
5828.099
5830.54
5832.201
5833.21
5834.708
5836.502
5837.743
5838.235
5838.268
5837.976
5837.381
5836.532
5835.509
5834.334
5832.998
5831.889
5830.774
5829.551
5828.347
5827.053
5825.668
5824.442
5823.463
5822.518
5821.201
5819.516
5817.639
5815.685
5813.607
5809.57
5802.531
5800.938
5799.408
5797.792
5800.521
5801.639
5800.122
5798.149
5796.098
5794.016
5791.884
5789.703
5787.804
5786.224
5784.665
5782.824
5780.964
5779.024
5777.22
5775.848
5774.822
5773.691
5772.198
5770.517
5768.604
5762.237
5753.134
5752.145
5757.672
5760.699
5759.997
5758.602
5756.771
5753.104
5750.857
5751.655
5752.856
5752.446
5751.489
5750.547
5749.691
5748.976
5748.408
5747.951
5747.566
5747.22
5746.815
5746.223
5746.113
5746.165
5746.143
5746.143
5746.274
5746.579
5747.081
5747.838
5748.734
5749.628
5751.369
5753.356
5754.936
5756.221
5757.336
5758.28
5758.844
5758.277
5758.584
5759.464
5760.53
5760.81
5760.724
5760.505
5760.169
5759.902
5758.835
5752.463
5750.273
5751.321
5755.239
5755.528
5754.308
5753.125
5752.174
5751.045
5749.713
5748.247
5746.64
5744.887
5742.985
5740.937
5738.779
5736.554
5734.288
5731.987
5729.657
5727.297
5724.916
5722.549
5720.171
5717.752
5715.272
5712.747
5710.124
5707.372
5704.581
5701.846
5699.128
5696.457
5693.82
5691.338
5688.948
5686.78
5684.62
5682.409
5679.298
3993.576
3942.733
3850.444
3788.852
3731.491
3680.23
3633.962
3591.611
3552.184
3515.228
3480.343
3446.094
3412.779
3380.217
3348.47
3317.515
3287.452
3258.388
3230.624
3205.015
3182.33
3163.018
3147.036
3134.563
3125.914
3122.223
3124.659
3134.394
3152.885
3182.025
3223.244
3275.856
3340.438
3419.225
3516.374
3633.098
3771.774
3931.557
4109.048
4299.414
4493.202
4679.098
4844.094
4974.67
5061.21
5097.968
5084.781
5025.238
4922.408
4779.713
4601.257
4383.894
4153.169
3913.693
3682.54
3468.111
3282.547
3138.501
3031.731
2953.947
2903.318
2865.542
2807.336
2704.579
2629.115
2651.766
2724.343
2803.869
2804.778
2764.103
2714.577
2613.732
2731.337
2886.106
2981.99
2984.938
3000.029
2936.359
2950.373
3012.913
2916.34
2840.042
2699.066
2193.518
2280.58
2734.339
2967.664
3045.722
3024.622
2575.832
2421.956
2675.028
2959.178
3029.078
3150.805