/*--------------------------------*- C++ -*----------------------------------*\
| =========                 |                                                 |
| \\      /  F ield         | foam-extend: Open Source CFD                    |
|  \\    /   O peration     | Version:     3.1                                |
|   \\  /    A nd           | Web:         http://www.extend-project.de       |
|    \\/     M anipulation  |                                                 |
\*---------------------------------------------------------------------------*/
FoamFile
{
    version     2.0;
    format      ascii;
    class       volScalarField;
    location    "9";
    object      omega;
}
// * * * * * * * * * * * * * * * * * * * * * * * * * * * * * * * * * * * * * //

dimensions      [0 0 -1 0 0 0 0];

internalField   nonuniform List<scalar> 
119952
(
404.2075
519.7513
502.1763
445.8474
406.2297
413.7531
423.4063
433.4382
443.2314
452.3014
460.2806
466.9044
472.0479
475.661
477.5435
477.4039
475.1036
470.7391
465.0016
460.4013
377.0944
364.0876
360.5425
312.001
302.0555
296.911
293.5603
290.3098
283.7969
178.4661
758.0764
625.3243
526.5594
457.3291
406.199
366.718
334.8244
308.2752
285.5979
260.3163
217.568
188.2401
168.2315
153.6899
142.4431
133.2529
125.4019
118.4559
112.1782
88.77387
84.70407
80.5483
76.41421
72.36536
68.47554
64.80565
61.38588
58.22199
55.34364
52.78664
50.40787
48.2302
46.26705
44.52752
43.01168
41.70039
40.53365
39.43368
39.50128
39.9523
39.87939
39.86345
40.03024
40.31949
40.66345
41.11168
41.82869
42.92451
44.33198
46.02257
47.95587
50.09721
52.42847
54.95112
57.67137
60.56858
63.53393
66.3802
68.69207
70.75282
71.8614
71.73062
71.52195
71.18794
70.32266
69.28611
68.54921
67.85585
65.30118
62.33851
59.21213
56.13454
53.22014
50.50869
48.01989
45.77599
43.7852
42.0469
40.55433
39.29647
38.25952
37.42908
36.79142
36.33313
36.04378
35.91561
35.9536
36.20844
36.73541
37.51027
38.57282
39.99203
41.87355
44.38919
47.90919
53.25917
62.56717
80.85688
108.3074
138.4409
160.7222
166.3133
158.4499
135.038
111.1715
92.30947
78.4631
68.83084
62.02008
56.76611
52.29892
48.28405
44.6555
41.45402
38.70539
36.38125
34.50189
33.56608
33.05571
32.65428
32.42621
32.30541
32.21793
32.12272
32.00255
31.84972
31.66327
31.4465
31.20266
30.93741
30.66018
30.38306
30.12264
29.89353
29.70806
29.57131
29.4457
29.32243
29.20088
29.08208
28.96697
28.85622
28.75057
28.65084
28.55786
28.47239
28.39513
28.32682
28.26833
28.22096
28.18567
28.16228
28.15157
28.15444
28.17271
28.21097
28.2755
28.36012
28.46238
28.58051
28.71352
28.86129
29.02409
29.20228
29.39566
29.60225
29.86529
35.39945
41.95
44.53379
45.71337
46.47007
47.06053
47.5607
48.02822
48.4942
48.97448
49.47652
49.99129
50.52663
51.09102
51.68368
52.30295
52.94799
53.61754
54.31411
55.03936
55.79406
56.57898
57.39457
58.24066
59.11764
60.02848
60.97802
61.95947
62.96188
64.01648
65.10996
66.24022
67.40113
68.55188
69.63836
69.6176
68.57258
67.70623
66.93975
66.22949
65.5481
64.88236
64.22325
63.5649
62.90447
62.24108
61.57483
60.90618
60.23621
59.56641
58.89844
58.23397
57.57452
56.92141
56.27609
55.63946
55.01278
54.39712
53.79316
53.20144
52.62225
52.05582
51.50234
50.9615
50.43302
49.91673
49.41244
48.92011
48.43739
47.96463
38.9478
38.44304
37.84082
37.15877
36.49552
35.87456
35.29674
34.76797
34.28961
33.85863
33.46949
33.11562
32.79026
32.4872
32.20104
31.92733
31.6625
31.40372
31.14886
30.89641
30.64536
30.39522
30.14587
29.89737
29.64814
29.3976
29.1464
28.89531
28.64513
28.39666
28.1506
27.90764
27.66837
27.43329
27.20279
26.97716
26.75662
26.54135
26.33143
26.12695
25.92805
25.73493
25.54807
25.36882
25.20052
25.04681
24.90381
24.76651
24.63525
24.50964
24.3892
24.27467
24.16749
24.07375
24.0412
23.92777
23.80311
23.66844
23.52372
23.37163
23.21538
23.05876
22.90526
22.75753
22.61747
22.48627
22.36441
22.25188
22.14829
22.05298
21.96514
21.88389
21.80831
21.73752
21.6707
21.6071
21.54607
21.48704
21.42953
21.37313
21.31751
21.26243
21.20765
21.15303
21.09843
21.0438
20.98908
20.93426
20.87932
20.82425
20.76907
20.71379
20.65843
20.603
20.54752
20.492
20.43644
20.38087
20.32529
20.26973
20.21419
20.15869
20.10327
20.04793
19.9927
19.93758
19.8826
19.82776
19.77309
19.71857
19.66423
19.61006
19.55608
19.5023
19.44869
19.39524
19.34194
19.28876
19.23569
19.18267
19.12966
19.07659
19.02338
18.96991
18.91604
18.86159
18.80633
18.74995
18.69209
18.63223
18.56949
18.50274
18.42993
18.34724
18.24637
18.10918
17.89443
17.55614
17.50492
638.3766
576.7298
538.3206
497.4851
459.2536
425.3846
395.7649
369.8219
346.0577
277.9511
209.6297
175.1072
156.0781
144.455
136.4172
130.1826
124.916
120.1983
95.4006
90.5613
86.00237
81.8717
78.25355
75.13278
72.44399
70.11086
68.06269
66.22874
64.62837
63.07816
61.50554
59.93694
58.40243
56.92934
55.53426
54.22482
53.0003
52.1839
51.63004
50.93307
50.16141
49.36376
48.56945
47.7997
47.06892
46.38663
45.75589
45.16782
44.6181
44.1044
43.61296
43.12927
42.63815
42.12341
41.57409
40.99072
37.03237
36.34103
35.60237
34.81423
33.97986
33.10763
32.21147
31.31218
30.43273
29.59602
28.8238
28.13397
27.54019
27.04949
26.6628
26.37379
26.17284
26.04524
25.99064
25.99087
26.00089
25.99455
26.00146
26.01741
26.02773
26.0313
26.03897
26.07306
26.17269
26.34549
26.59589
26.9255
27.33316
27.81865
28.38516
29.03759
29.77698
30.59376
31.45985
32.33564
33.18469
33.93925
34.57229
35.09844
35.48165
35.69297
35.72577
35.54945
35.09161
34.37667
33.50051
32.49027
31.39055
30.25681
29.14597
28.06216
27.02306
26.05091
25.16172
24.36569
23.66775
23.06822
22.56371
22.14785
21.81241
21.54909
21.35067
21.21251
21.13495
21.13206
21.21778
21.40915
21.73202
22.22758
22.97001
24.07226
25.76229
28.53028
33.01664
39.4813
47.87734
56.83351
65.04482
72.65656
79.03923
83.99274
86.97889
87.79405
86.79718
84.0375
79.5256
73.7385
67.46324
61.33087
55.64752
50.50867
45.91309
41.8456
38.2967
35.24661
32.66158
30.49909
28.71432
27.2513
26.04955
25.05054
24.20402
23.47067
22.82386
22.24671
21.72907
21.26561
20.85384
20.4926
20.18155
19.92182
19.70125
19.49815
19.30125
19.10451
18.90462
18.69998
18.49017
18.27558
18.05713
17.8361
17.61405
17.3927
17.17378
16.95898
16.74973
16.54716
16.35224
16.1657
15.98796
15.81916
15.65918
15.50791
15.36531
15.23117
15.10508
14.9866
14.87516
14.77032
14.6713
14.5781
14.4885
14.3942
14.8011
15.10409
15.23413
15.28943
15.30988
15.31298
15.30686
15.29555
15.28127
15.26546
15.24934
15.23387
15.21961
15.20683
15.19583
15.18728
15.18208
15.18028
15.18145
15.18522
15.19136
15.19982
15.21079
15.2255
15.24525
15.26854
15.29444
15.32244
15.35242
15.3841
15.41686
15.44962
15.48023
15.50409
15.5138
15.50949
15.49806
15.48611
15.47346
15.46051
15.44767
15.43512
15.42285
15.41071
15.39841
15.3856
15.37191
15.35697
15.34042
15.32199
15.30147
15.2787
15.25362
15.22629
15.1968
15.16534
15.13216
15.09758
15.06193
15.02554
14.98874
14.95187
14.91524
14.87911
14.84372
14.80925
14.77583
14.74364
14.71347
14.68901
13.23214
13.17983
13.14168
13.10958
13.07932
13.04962
13.01975
12.9889
12.95643
12.92188
12.88492
12.84532
12.8029
12.75757
12.70931
12.65818
12.60427
12.54773
12.48873
12.42749
12.36424
12.29923
12.23274
12.16504
12.0964
12.02709
11.95736
11.88743
11.81753
11.74785
11.67858
11.60989
11.54192
11.47482
11.40871
11.34371
11.27991
11.2174
11.15628
11.0966
11.03848
10.98203
10.9274
10.87481
10.82434
10.77584
10.72888
10.6832
10.63891
10.59608
10.55469
10.51475
10.4763
10.44103
10.40874
10.374
10.33805
10.30274
10.26853
10.2353
10.20283
10.17094
10.1395
10.10841
10.07759
10.04699
10.01661
9.986426
9.956459
9.926724
9.897246
9.868048
9.839158
9.8106
9.782396
9.754565
9.727122
9.700078
9.673443
9.647222
9.621415
9.596021
9.571035
9.546449
9.522254
9.498438
9.474985
9.451878
9.429099
9.406627
9.384439
9.36251
9.340814
9.319324
9.298011
9.276848
9.255803
9.23485
9.213961
9.193114
9.172287
9.151459
9.130617
9.109743
9.088829
9.067865
9.046843
9.02576
9.004613
8.9834
8.962124
8.940785
8.919386
8.897928
8.876414
8.854843
8.833219
8.811534
8.789789
8.767967
8.746064
8.724047
8.701905
8.679577
8.657041
8.63419
8.610987
8.587242
8.562881
8.537553
8.511059
8.482686
8.451864
8.417043
8.376943
8.32982
8.277429
8.228282
8.185356
572.047
502.7194
446.1437
404.5601
372.939
348.3934
328.8716
313.2529
300.5666
283.2069
181.3832
169.2539
159.4211
151.1645
144.0536
137.739
131.5919
123.8364
107.7558
76.07044
74.41373
73.33733
72.46557
71.87389
71.37785
70.88898
70.39835
69.70113
66.25485
63.62124
63.19411
62.87915
62.55345
62.20439
61.82369
61.40534
60.94771
60.44115
60.49358
59.41922
58.24894
57.21982
56.3324
55.54499
54.82121
54.13601
53.47461
52.83385
52.16428
51.45097
50.69874
49.92956
49.16413
48.41653
47.69334
46.9992
43.93014
43.33729
42.77312
42.22615
41.6896
41.16007
40.63676
40.1199
39.61084
39.10978
38.61583
38.13078
37.65529
37.18786
36.7284
36.2776
35.83661
35.40715
34.99097
34.58934
34.20493
33.8415
33.49951
33.17839
32.8777
32.59672
32.33461
32.0899
31.86079
31.64618
31.44142
31.23455
31.02147
30.80088
30.57166
30.32765
30.05537
29.74074
29.4449
29.09814
28.7049
28.26234
27.76295
27.21689
26.63998
26.05152
25.47265
24.92634
24.43533
24.02037
23.69969
23.48648
23.3846
23.38955
23.48718
23.65507
23.86023
24.07621
24.25746
24.38021
24.45303
24.4837
24.47023
24.41182
24.31508
24.19601
24.0871
24.0097
23.96885
23.96698
24.00699
24.09364
24.23399
24.43607
24.70624
25.04526
25.4445
25.88565
26.3453
26.79407
27.19729
27.53346
27.78747
27.93583
27.9601
27.85737
27.61366
27.21858
26.69712
26.07625
25.37883
24.63212
23.86873
23.12575
22.41046
21.73879
21.12403
20.57594
20.10036
19.69914
19.37021
19.10814
18.90524
18.75313
18.6442
18.57246
18.53476
18.53369
18.58261
18.68964
18.86716
19.13292
19.51859
20.06848
20.86916
22.10207
23.98628
26.72008
30.44275
34.88435
39.67062
44.64265
49.41589
53.81857
57.72645
60.96804
63.47217
65.1586
65.83957
65.43128
64.03116
61.83389
59.06454
55.94663
52.68139
49.41742
46.25182
43.22922
40.35666
37.64371
35.11905
32.81277
30.7611
28.97661
27.45406
26.16698
25.08304
24.16936
23.39734
22.7429
22.18574
21.70939
21.30048
20.94916
20.65164
20.38467
20.12605
19.8639
19.59192
19.30765
19.01075
18.70229
18.38409
18.05854
17.72855
17.39656
17.06578
16.73908
16.41876
16.10719
15.80613
15.51691
15.24038
14.97695
14.72673
14.48974
14.2659
14.05486
13.85609
13.66894
13.49259
13.3262
13.16879
13.01947
12.87671
12.74044
12.62486
12.50032
12.37824
12.26094
12.1492
12.0429
11.9416
11.84477
11.75194
11.66274
11.57685
11.49406
11.41419
11.33712
11.26276
11.19109
11.12207
11.05568
10.99191
10.93074
10.87215
10.81614
10.76275
10.71195
10.6638
10.61829
10.57539
10.53506
10.4972
10.4617
10.42837
10.39689
10.36684
10.33771
10.30915
10.28159
10.25607
10.23287
10.21174
10.19248
10.17491
10.1588
10.14388
10.1299
10.11658
10.10361
10.09072
10.0776
10.06401
10.0497
10.03447
10.01816
10.00069
9.982017
9.962151
9.941174
9.919216
9.896457
9.87311
9.84942
9.825647
9.802067
9.778948
9.756552
9.735113
9.714832
9.695886
9.678334
9.661928
9.643863
9.651738
9.657629
9.660591
9.661083
9.660186
9.658571
9.656259
9.652963
9.648412
9.642386
9.63467
9.62503
9.613223
9.59904
9.582313
9.56292
9.540774
9.515834
9.488102
9.457627
9.424499
9.388848
9.350831
9.310631
9.268454
9.224517
9.17905
9.132284
9.084453
9.035786
8.986507
8.93683
8.886955
8.837071
8.787348
8.737946
8.689005
8.640655
8.593011
8.546179
8.500263
8.455359
8.41156
8.368935
8.327513
8.287249
8.248036
8.209764
8.172441
8.136078
8.100704
8.066253
8.032681
7.999759
7.967685
7.936451
7.90629
7.877156
7.848784
7.820957
7.793592
7.766672
7.740195
7.714146
7.688505
7.663253
7.638371
7.613843
7.589651
7.565779
7.542212
7.518936
7.495941
7.473215
7.450751
7.428543
7.406586
7.384877
7.363413
7.342194
7.321218
7.300484
7.279992
7.25974
7.239726
7.219947
7.200398
7.181073
7.161962
7.143055
7.124341
7.105804
7.087428
7.069195
7.051086
7.03308
7.015157
6.997295
6.979476
6.96168
6.94389
6.926091
6.908269
6.890411
6.872508
6.854552
6.836538
6.81846
6.800318
6.782112
6.763841
6.74551
6.727121
6.708679
6.690186
6.67165
6.65307
6.634454
6.615796
6.597102
6.578357
6.559565
6.540695
6.521747
6.502663
6.483438
6.463969
6.444243
6.424075
6.403426
6.381957
6.359576
6.335683
6.310184
6.282333
6.252621
6.220823
6.189227
6.159855
326.5639
235.2189
340.4453
153.0349
120.153
89.36863
77.47986
67.72593
59.60515
55.8255
54.31145
53.53597
52.72618
51.8658
51.02477
50.24637
49.50713
48.78984
48.09062
47.42018
46.8023
46.28951
46.03844
45.97792
45.99183
46.06011
46.16397
46.26744
46.34241
46.35671
46.2219
44.87122
45.3433
45.80759
46.26813
46.73148
47.20159
47.67584
48.13981
48.5973
48.87306
49.12325
49.36329
49.54773
49.65921
49.69067
49.64196
49.51603
49.31703
49.05463
48.74287
48.37828
47.96033
47.49774
47.00132
46.47839
45.9353
45.37644
44.80451
44.22499
43.63885
43.04889
42.45884
41.87146
41.29017
40.71715
40.15692
39.60178
39.09167
38.58751
38.09326
37.60841
37.13255
36.66595
36.20878
35.76089
35.32189
34.89146
34.46921
34.05514
33.64895
33.25046
32.86018
32.47918
32.10864
31.74971
31.40359
31.07167
30.75533
30.45596
30.17453
29.91142
29.66635
29.43857
29.2269
29.02965
28.84439
28.6652
28.48622
28.31321
28.14338
27.97024
27.7866
27.58448
27.3564
27.09514
26.79723
26.45634
26.07158
25.64976
25.20364
24.72886
24.23604
23.74217
23.26837
22.83936
22.48184
22.22248
22.08574
22.09031
22.24473
22.54204
22.95473
23.43662
23.928
24.36919
24.71539
24.94489
25.06853
25.10498
25.06151
24.93754
24.7381
24.48049
24.19776
23.91817
23.65182
23.40629
23.18888
23.0087
22.87655
22.80275
22.79432
22.85263
22.97293
23.14359
23.34743
23.56371
23.76871
23.94078
24.06211
24.11706
24.09409
23.98784
23.79369
23.5094
23.14072
22.69878
22.19713
21.65284
21.08694
20.52555
19.9873
19.48535
19.03286
18.64002
18.31351
18.05588
17.86522
17.73561
17.65821
17.62273
17.61931
17.63949
17.67688
17.72843
17.80085
17.89806
18.02324
18.182
18.38663
18.65343
19.0168
19.54845
20.33285
21.47705
23.09108
25.18624
27.70642
30.59084
33.70062
36.89626
40.05295
43.02513
45.69079
47.99342
49.85251
51.1849
51.94175
52.09685
51.66367
50.71176
49.33894
47.66907
45.83283
43.94562
42.08506
40.28601
38.55528
36.88325
35.25914
33.68133
32.16418
30.74175
29.43821
28.27176
27.2496
26.3675
25.60944
24.96186
24.40364
23.90829
23.45969
23.05541
22.67027
22.28726
21.8964
21.49266
21.07438
20.64208
20.19747
19.74304
19.28189
18.81754
18.35378
17.89443
17.44321
17.00346
16.57799
16.16901
15.77814
15.40632
15.05408
14.72165
14.4091
14.11592
13.84108
13.58348
13.34197
13.11534
12.90224
12.70163
12.51244
12.33449
12.16797
12.00939
11.85772
11.71275
11.57415
11.44141
11.31405
11.19146
11.07328
10.95912
10.84867
10.74163
10.63778
10.53697
10.4391
10.34399
10.25163
10.162
10.0751
9.990943
9.909572
9.830929
9.755089
9.682084
9.61198
9.544702
9.4803
9.418759
9.360041
9.304078
9.250781
9.199964
9.15148
9.105179
9.061026
9.019216
8.980138
8.943972
8.910601
8.879796
8.851324
8.824943
8.800396
8.777411
8.755692
8.734973
8.714946
8.695327
8.67583
8.656226
8.636277
8.615797
8.59464
8.57271
8.549962
8.5264
8.502085
8.477123
8.451666
8.4259
8.400046
8.374344
8.349051
8.324417
8.30069
8.278089
8.256809
8.23701
8.218869
8.20219
8.187933
8.175609
8.165428
8.157311
8.150898
8.145761
8.141561
8.137998
8.134778
8.131604
8.128179
8.124198
8.119357
8.113366
8.105962
8.096908
8.085996
8.073052
8.05794
8.04057
8.020892
7.998895
7.974609
7.948093
7.919441
7.88877
7.856219
7.821946
7.786123
7.748931
7.710557
7.671195
7.631033
7.59026
7.549054
7.507588
7.466022
7.424505
7.383176
7.342161
7.301577
7.261527
7.222098
7.18336
7.145361
7.108118
7.071614
7.035816
7.00072
6.966345
6.932708
6.899801
6.867609
6.836166
6.805586
6.77574
6.746457
6.717679
6.689427
6.661722
6.634569
6.60796
6.581878
6.5563
6.531199
6.506547
6.48232
6.458496
6.435054
6.411974
6.389238
6.366829
6.344734
6.322937
6.301428
6.280197
6.259234
6.238534
6.21809
6.197899
6.177956
6.15826
6.138808
6.119597
6.100625
6.081889
6.063382
6.0451
6.027033
6.009172
5.991506
5.974019
5.956697
5.939523
5.922477
5.905539
5.888691
5.871912
5.855183
5.838486
5.821802
5.805117
5.788416
5.771687
5.754919
5.738104
5.721235
5.704307
5.687318
5.670268
5.653155
5.635984
5.618757
5.601478
5.584153
5.566787
5.549385
5.531952
5.514491
5.497007
5.479495
5.461957
5.444379
5.426758
5.409064
5.391285
5.373363
5.355276
5.336919
5.318249
5.299093
5.279383
5.258876
5.237541
5.215153
5.191886
5.167697
5.14331
5.119987
290.5046
195.0644
146.9086
132.4566
107.7797
90.96734
78.44677
73.5472
68.0537
64.80802
61.96223
58.18634
54.37752
50.7639
47.43437
43.77192
38.25179
36.9258
35.92051
35.31167
35.04534
34.98865
35.0144
35.07764
35.17357
35.30198
35.4642
35.66107
35.89591
36.17337
36.50974
36.90996
37.35492
37.83286
38.33565
38.8595
39.40062
39.95975
40.53735
41.1339
41.74997
42.34753
42.86679
43.47673
44.11119
44.76385
45.40685
46.05164
46.69164
47.27684
47.81082
48.24673
48.55589
48.74428
48.82148
48.79366
48.66601
48.44702
48.14554
47.77339
47.33846
46.85275
46.32737
45.7679
45.18025
44.57008
43.9416
43.30037
42.64936
41.99355
41.3357
40.68305
40.04273
39.4201
38.81717
38.23509
37.67433
37.13495
36.61464
36.11197
35.62851
35.16451
34.71699
34.28354
33.86286
33.45393
33.05562
32.66678
32.28664
31.91458
31.54992
31.1921
30.84102
30.49723
30.1619
29.83643
29.52217
29.22053
28.93312
28.66158
28.40744
28.17193
27.95531
27.75689
27.57541
27.40932
27.25638
27.11083
26.96963
26.835
26.70359
26.57169
26.43409
26.28404
26.11394
25.91617
25.68342
25.41039
25.09389
24.73368
24.33391
23.90427
23.45902
23.0055
22.56364
22.15959
21.8252
21.5969
21.51373
21.61101
21.91169
22.41947
23.11113
23.93051
24.79409
25.60445
26.27245
26.74675
27.02384
27.13792
27.12336
26.99475
26.75612
26.41504
25.9894
25.51371
25.02222
24.53302
24.05878
23.60943
23.19638
22.83367
22.53489
22.30883
22.15706
22.07415
22.04843
22.06405
22.10275
22.14606
22.17625
22.17811
22.14014
22.05448
21.91609
21.7221
21.47155
21.16579
20.8091
20.40927
19.97778
19.52972
19.08406
18.66172
18.27704
17.9435
17.67232
17.47128
17.34316
17.28513
17.28928
17.34378
17.43521
17.55039
17.67701
17.8043
17.92445
18.04128
18.15445
18.26072
18.35974
18.45515
18.55126
18.66405
18.82509
19.07453
19.47657
20.10596
21.01439
22.22443
23.73863
25.53
27.54464
29.70581
31.91853
34.09739
36.17753
38.08629
39.73746
41.06165
42.01487
42.57429
42.74443
42.54301
42.00316
41.18967
40.18507
39.0809
37.95987
36.88112
35.87471
34.94423
34.07591
33.24965
32.45817
31.68595
30.93524
30.2133
29.52905
28.88921
28.29619
27.74459
27.22048
26.69955
26.17297
25.64889
25.12405
24.59415
24.05565
23.50659
22.94675
22.3769
21.79848
21.2137
20.62551
20.03747
19.45358
18.87804
18.31495
17.768
17.24033
16.73447
16.25229
15.79501
15.36336
14.95757
14.57736
14.2219
13.89003
13.58043
13.29159
13.02189
12.76998
12.53472
12.31507
12.10951
11.91594
11.73323
11.56055
11.39693
11.24141
11.0931
10.95121
10.81501
10.68386
10.55719
10.43453
10.31549
10.19976
10.08711
9.97736
9.870401
9.766161
9.664611
9.56575
9.469598
9.376191
9.285567
9.197775
9.112862
9.030868
8.951816
8.875726
8.802598
8.732417
8.665149
8.600746
8.539159
8.480353
8.424346
8.371236
8.321194
8.274322
8.230552
8.18971
8.151588
8.115962
8.082591
8.051213
8.02155
7.993316
7.966219
7.939975
7.914308
7.888957
7.863685
7.83829
7.812594
7.786462
7.759804
7.732574
7.704775
7.676459
7.64772
7.618697
7.589565
7.560533
7.531821
7.50367
7.476322
7.450005
7.424941
7.401327
7.379326
7.359036
7.34056
7.324009
7.309389
7.296592
7.285497
7.276043
7.268139
7.261614
7.256241
7.251766
7.247917
7.244413
7.240968
7.237291
7.233101
7.228127
7.222119
7.214849
7.206117
7.195757
7.183636
7.169656
7.153753
7.135898
7.11609
7.094358
7.070755
7.045357
7.018259
6.989574
6.959434
6.927978
6.895357
6.861727
6.827247
6.792077
6.756372
6.720283
6.683954
6.647518
6.6111
6.574812
6.538754
6.503009
6.467648
6.432716
6.398241
6.364236
6.330723
6.297732
6.265293
6.233428
6.202158
6.171506
6.141473
6.111984
6.082988
6.054491
6.02651
5.999048
5.972087
5.945609
5.919599
5.894042
5.868924
5.844227
5.819935
5.796032
5.7725
5.749325
5.726493
5.703989
5.6818
5.659917
5.638328
5.617025
5.596001
5.575251
5.554769
5.534553
5.514601
5.49491
5.475482
5.456313
5.437404
5.418752
5.400353
5.382202
5.364293
5.346617
5.329161
5.311914
5.294858
5.277977
5.261253
5.244665
5.228193
5.211817
5.195516
5.179271
5.163063
5.146876
5.130694
5.114502
5.09829
5.082046
5.065762
5.049431
5.03305
5.016616
5.000127
4.983585
4.966992
4.950351
4.933666
4.916943
4.900188
4.883405
4.866601
4.849778
4.83294
4.816087
4.799214
4.782318
4.765383
4.748398
4.731331
4.714158
4.696822
4.679286
4.661463
4.643309
4.624716
4.60567
4.586086
4.566038
4.545535
4.524848
4.505115
142.6497
106.4168
163.455
81.88032
70.44576
60.87245
58.06115
56.08818
53.89722
53.09863
52.01343
50.33574
48.7169
46.95505
44.82522
40.59984
39.58848
38.6234
37.67618
36.75508
35.82218
34.92087
34.10769
33.41429
32.86093
32.45167
32.1153
31.75632
31.55338
31.52464
31.64786
31.87081
32.14384
32.44613
32.77144
33.11801
33.48554
33.87451
34.29091
34.74794
35.2337
35.74293
36.27338
36.82415
37.39311
37.97812
38.57656
39.18788
39.81015
40.43884
41.06955
41.69403
42.32739
43.03317
43.75505
44.51508
45.20669
45.83552
46.37868
46.81803
47.14504
47.34111
47.38999
47.29764
47.08015
46.7526
46.33035
45.82873
45.26156
44.64401
43.98691
43.30224
42.60023
41.88771
41.17183
40.45586
39.74647
39.0479
38.37196
37.72479
37.10608
36.51915
35.96415
35.43849
34.94108
34.47064
34.02548
33.60333
33.20196
32.81893
32.45276
32.10179
31.76358
31.43585
31.11703
30.80577
30.50079
30.20093
29.90552
29.61415
29.3264
29.04185
28.76037
28.48261
28.20999
27.94421
27.68689
27.43964
27.20419
26.98246
26.77653
26.58783
26.41628
26.26073
26.11967
25.99163
25.87424
25.76441
25.66425
25.57073
25.4809
25.39127
25.29679
25.19033
25.06339
24.90734
24.71472
24.48039
24.20167
23.87876
23.51586
23.12233
22.71496
22.31465
21.94694
21.6487
21.46533
21.44999
21.65773
22.13212
22.8882
23.90306
25.11139
26.40678
27.66122
28.74201
29.54233
30.02057
30.21235
30.19493
30.03011
29.74281
29.33877
28.8234
28.21114
27.53306
26.82512
26.11542
25.42502
24.76515
24.14435
23.57556
23.07425
22.65181
22.3116
22.04872
21.85185
21.70578
21.59341
21.49802
21.40417
21.29907
21.17343
21.02107
20.83821
20.62258
20.37306
20.08959
19.77401
19.43107
19.06906
18.69996
18.33991
18.0095
17.72568
17.50331
17.35533
17.29043
17.31103
17.41204
17.58111
17.80092
18.05213
18.316
18.57493
18.81241
19.01506
19.18553
19.32006
19.41047
19.45282
19.44741
19.39762
19.31491
19.21924
19.13896
19.12053
19.21817
19.47874
19.93459
20.60645
21.50133
22.61231
23.91671
25.37234
26.92368
28.51401
30.08318
31.56602
32.90262
34.04195
34.9426
35.57471
35.92943
36.00802
35.83143
35.43533
34.86857
34.19179
33.46859
32.75573
32.09354
31.50318
30.98874
30.54574
30.15432
29.79744
29.46228
29.14007
28.82604
28.51801
28.21226
27.90245
27.57754
27.21778
26.80391
26.34573
25.85307
25.3324
24.78839
24.22504
23.64549
23.05189
22.44626
21.83108
21.20934
20.58463
19.96108
19.3431
18.73502
18.14091
17.56459
17.00941
16.47805
15.97256
15.4943
15.04393
14.62149
14.22655
13.85827
13.51544
13.19654
12.90004
12.6244
12.36805
12.12925
11.90614
11.69731
11.50163
11.31777
11.14437
10.98022
10.82423
10.67538
10.53275
10.39555
10.26307
10.13473
10.01007
9.888717
9.770405
9.654932
9.542161
9.432012
9.324449
9.219467
9.117084
9.017337
8.920269
8.825929
8.734367
8.645627
8.559749
8.476766
8.396703
8.319578
8.245407
8.17421
8.106017
8.040883
7.97889
7.920137
7.864676
7.812467
7.763389
7.717274
7.673925
7.633118
7.594603
7.558112
7.523363
7.490071
7.457953
7.426737
7.396163
7.36599
7.336001
7.306008
7.275855
7.245422
7.214628
7.183437
7.151856
7.119936
7.087768
7.055494
7.023261
6.991273
6.95974
6.928886
6.898934
6.870101
6.842592
6.816586
6.792232
6.769652
6.748916
6.730036
6.71302
6.697871
6.684571
6.673059
6.663215
6.654874
6.64785
6.641937
6.636912
6.632536
6.628562
6.624738
6.62081
6.616535
6.611675
6.60601
6.599341
6.591492
6.582317
6.571696
6.559542
6.545792
6.530412
6.513385
6.494714
6.474425
6.452569
6.429216
6.404451
6.378372
6.351088
6.322725
6.293407
6.263268
6.232438
6.20105
6.16923
6.137097
6.104766
6.072339
6.03991
6.007559
5.975352
5.943342
5.911573
5.880087
5.848929
5.818139
5.787753
5.757799
5.72829
5.699228
5.670604
5.642418
5.614673
5.587374
5.560515
5.534087
5.50808
5.482484
5.45729
5.432488
5.408066
5.384011
5.360309
5.336947
5.313914
5.291196
5.268784
5.246665
5.224832
5.203277
5.181991
5.160971
5.140212
5.119712
5.09947
5.079486
5.059763
5.040301
5.021103
5.002171
4.983505
4.965105
4.946969
4.929092
4.911468
4.894087
4.876938
4.860006
4.843276
4.826728
4.810344
4.794103
4.777985
4.761969
4.746034
4.730162
4.714335
4.698535
4.682746
4.666957
4.651153
4.635326
4.619467
4.60357
4.58763
4.571643
4.55561
4.539531
4.523407
4.507242
4.49104
4.474806
4.458547
4.442266
4.42597
4.409661
4.393343
4.377015
4.360674
4.344314
4.327926
4.311491
4.294993
4.2784
4.261684
4.244801
4.227723
4.2104
4.192821
4.174958
4.156842
4.138503
4.120057
4.102621
55.95769
42.55958
43.53349
41.5963
40.71682
39.64572
38.84306
38.18348
37.6535
36.74749
34.38853
34.30446
34.225
34.146
34.03123
33.86963
33.69591
33.54186
33.41942
33.31634
33.10319
32.65163
32.20125
31.75305
31.31952
30.90435
30.5282
30.21165
29.9667
29.79071
29.67929
29.62538
29.63803
29.74791
29.95982
30.25714
30.61054
30.99244
31.38813
31.79033
32.19571
32.60317
33.01941
33.45706
33.91222
34.38658
34.88401
35.40658
35.95513
36.52845
37.12207
37.73285
38.3618
39.01037
39.66167
40.3122
40.9796
41.68802
42.41152
43.12304
43.77363
44.32001
44.7421
45.02008
45.1437
45.11472
44.93727
44.61925
44.17449
43.62271
42.98309
42.27714
41.52289
40.73822
39.93882
39.13596
38.34266
37.56758
36.82063
36.1067
35.43885
34.82169
34.25324
33.73378
33.26219
32.83446
32.44269
32.08171
31.74793
31.43833
31.15006
30.88023
30.62588
30.38426
30.15275
29.92915
29.71137
29.49743
29.28566
29.07498
28.86448
28.65336
28.44109
28.22759
28.01315
27.7979
27.58183
27.36512
27.14888
26.93498
26.72522
26.52097
26.32354
26.13476
25.95649
25.79025
25.63641
25.4934
25.35868
25.23026
25.10778
24.99391
24.89283
24.80214
24.71969
24.64377
24.57223
24.50107
24.42334
24.32979
24.21078
24.05825
23.86695
23.63451
23.36188
23.05439
22.72297
22.38622
22.07543
21.83567
21.719
21.79181
22.1283
22.79402
23.83256
25.21509
26.8448
28.58276
30.26798
31.75306
32.88576
33.58122
33.84832
33.77564
33.48771
33.07884
32.58584
32.00891
31.34236
30.58839
29.76182
28.89246
28.01851
27.1685
26.35137
25.56768
24.8291
24.15317
23.55411
23.03853
22.60455
22.24351
21.94231
21.68581
21.4589
21.24777
21.04101
20.83026
20.61014
20.37769
20.13101
19.86885
19.59066
19.29732
18.99212
18.68167
18.37674
18.09324
17.85388
17.67937
17.58857
17.59829
17.71924
17.95048
18.27888
18.68305
19.13455
19.60333
20.06266
20.48909
20.86144
21.16208
21.39228
21.54218
21.59814
21.55524
21.41709
21.19291
20.89868
20.55767
20.19914
19.8613
19.5868
19.41627
19.38284
19.50923
19.80803
20.28491
20.93958
21.76192
22.72748
23.80031
24.93602
26.08498
27.19757
28.22718
29.1325
29.88123
30.45075
30.82559
30.99745
30.9731
30.77196
30.42572
29.9764
29.47081
28.95323
28.45929
28.01251
27.62418
27.29472
27.01548
26.77547
26.56217
26.36407
26.17169
25.97734
25.77466
25.55958
25.33152
25.08695
24.80158
24.48064
24.12892
23.75008
23.34751
22.92428
22.48192
22.02079
21.54104
21.04309
20.52801
19.99792
19.45603
18.90628
18.3532
17.80184
17.25731
16.72449
16.20777
15.71088
15.23656
14.78663
14.3622
13.96381
13.59135
13.24406
12.92085
12.62044
12.34143
12.08227
11.84123
11.61664
11.40701
11.21093
11.02688
10.85344
10.68931
10.53331
10.38437
10.24152
10.10394
9.970911
9.84187
9.716365
9.594041
9.47463
9.357939
9.243839
9.132254
9.023145
8.916501
8.81233
8.710654
8.611504
8.514915
8.420925
8.329573
8.240901
8.154953
8.071774
7.991417
7.913944
7.839426
7.767949
7.699606
7.634484
7.572638
7.514057
7.458668
7.406349
7.356937
7.310231
7.265999
7.223986
7.183921
7.145524
7.108521
7.072645
7.037644
7.00328
6.969338
6.935625
6.901976
6.868256
6.834364
6.800236
6.765849
6.731217
6.696397
6.661494
6.626609
6.591915
6.557592
6.523835
6.490848
6.458834
6.427987
6.398489
6.3705
6.344149
6.319526
6.2967
6.275726
6.256633
6.239415
6.224033
6.210424
6.198484
6.188078
6.179055
6.171245
6.164463
6.158508
6.153173
6.148242
6.143497
6.138721
6.1337
6.128232
6.122126
6.11521
6.107337
6.098399
6.088298
6.076941
6.06426
6.050217
6.034803
6.018033
5.999925
5.980473
5.959736
5.937792
5.914724
5.890622
5.865581
5.839703
5.813094
5.785859
5.758103
5.729925
5.701423
5.672685
5.643792
5.614817
5.585826
5.556876
5.528022
5.499316
5.470806
5.442534
5.414535
5.386833
5.359448
5.332396
5.305686
5.279325
5.253317
5.227666
5.20237
5.177427
5.152834
5.128585
5.104672
5.081087
5.05782
5.034861
5.012199
4.989825
4.967726
4.945895
4.924323
4.903
4.881921
4.86108
4.840472
4.820095
4.79995
4.780036
4.760356
4.740916
4.721718
4.70277
4.684077
4.665642
4.647469
4.62956
4.611913
4.594525
4.57739
4.560499
4.543839
4.527396
4.511154
4.495094
4.479197
4.463442
4.447809
4.432279
4.41683
4.401446
4.386107
4.370798
4.355505
4.340213
4.324912
4.309592
4.294244
4.278861
4.26344
4.247977
4.232471
4.216923
4.201334
4.185707
4.170047
4.15436
4.138648
4.12292
4.107178
4.091426
4.075666
4.059899
4.044123
4.02833
4.012514
3.996661
3.980755
3.964779
3.948709
3.932528
3.916213
3.899758
3.883157
3.866421
3.84959
3.832718
3.816902
84.93764
34.13399
29.68994
28.66133
28.08945
27.86255
27.90432
28.09664
28.39344
28.76238
29.07256
29.20801
29.33033
29.42795
29.501
29.54437
29.56717
29.57212
29.54968
29.48108
29.34381
29.15106
28.95765
28.76966
28.59503
28.44161
28.32012
28.24043
28.20853
28.221
28.27792
28.38106
28.53893
28.75929
29.04136
29.37147
29.72916
30.09556
30.45999
30.81704
31.1651
31.51906
31.89762
32.29931
32.72788
33.18773
33.68271
34.21607
34.78883
35.40127
36.03723
36.68663
37.3538
38.06422
38.76856
39.47087
40.17974
40.88804
41.54985
42.11612
42.548
42.82014
42.91963
42.8436
42.59729
42.19372
41.65033
40.98759
40.23
39.40353
38.53344
37.64551
36.75992
35.89661
35.06997
34.2933
33.57589
32.93216
32.36719
31.87704
31.45851
31.10673
30.81382
30.56702
30.35786
30.17963
30.02593
29.89152
29.77233
29.66509
29.56681
29.47431
29.38447
29.29438
29.20131
29.1032
28.9982
28.88508
28.76334
28.63301
28.4942