/*--------------------------------*- C++ -*----------------------------------*\
| =========                 |                                                 |
| \\      /  F ield         | foam-extend: Open Source CFD                    |
|  \\    /   O peration     | Version:     3.1                                |
|   \\  /    A nd           | Web:         http://www.extend-project.de       |
|    \\/     M anipulation  |                                                 |
\*---------------------------------------------------------------------------*/
FoamFile
{
    version     2.0;
    format      ascii;
    class       volScalarField;
    location    "9";
    object      p;
}
// * * * * * * * * * * * * * * * * * * * * * * * * * * * * * * * * * * * * * //

dimensions      [1 -1 -2 0 0 0 0];

internalField   nonuniform List<scalar> 
119952
(
7588.246
5982.359
5666.913
5759.047
5899.512
5586.403
5445.494
5317.807
5226.025
5159.578
5119.762
5099.25
5098.486
5113.916
5142.573
5180.357
5223.115
5266.258
5299.459
5270.675
5559.696
5499.328
5509.079
5823.075
5861.447
5951.855
6016.126
6112.064
6323.15
8737.794
4951.422
4909.242
4910.477
4907.631
4909.245
4914.355
4923.376
4938.815
4959.667
4962.116
4985.957
5025.116
5067.144
5115.041
5168.557
5226.871
5288.856
5353.617
5419.828
5497.413
5543.318
5597.121
5659.006
5717.813
5775.069
5828.658
5877.268
5920.633
5961.648
5982.505
5995.839
6003.176
5995.735
5973.854
5936.507
5883.046
5821.515
5801.961
5854.196
5587.308
5427.673
5410.06
5345.497
5227.541
5092.409
4987.321
4908.999
4853.227
4820.997
4809.234
4815.029
4835.698
4868.108
4909.008
4955.004
5003.289
5053.608
5111.301
5180.743
5264.962
5333.873
5445.173
5594.3
5675.94
5723.024
5766.561
5754.344
5632.534
5646.651
5701.629
5739.154
5771.613
5800.491
5823.969
5841.991
5855.554
5865.015
5870.531
5872.358
5870.877
5866.679
5860.555
5853.238
5845.889
5840.112
5837.691
5840.534
5850.838
5870.96
5903.272
5949.564
6011.404
6090.992
6189.732
6308.21
6447.129
6589.963
6686.192
6671.349
6628.524
6575.961
6580.747
6642.898
6651.61
6677.522
6709.432
6731.472
6757.949
6793.752
6832.194
6867.876
6900.596
6933.272
6967.998
7005.008
7043.317
7082.377
7121.518
7160.081
7197.109
7231.946
7264.154
7293.46
7319.882
7343.563
7364.729
7383.697
7400.852
7416.652
7431.626
7446.356
7461.437
7477.414
7494.758
7513.809
7534.917
7558.07
7583.277
7610.404
7639.211
7669.392
7700.588
7732.418
7764.502
7796.476
7828.007
7858.81
7888.648
7917.338
7944.752
7970.818
7995.486
8018.741
8040.616
8061.155
8080.418
8098.474
8115.35
8131.181
8146.024
8159.931
8172.957
8185.153
8196.552
8207.189
8217.104
8226.882
8267.59
8274.507
8282.46
8289.727
8296.389
8302.364
8307.805
8312.728
8317.148
8321.082
8324.552
8327.568
8330.153
8332.336
8334.142
8335.603
8336.717
8337.529
8338.074
8338.372
8338.447
8338.322
8338.019
8337.556
8336.955
8336.224
8335.372
8334.389
8333.344
8332.094
8330.713
8329.087
8327.07
8324.502
8320.37
8315.107
8320.771
8324.572
8327.486
8329.962
8332.179
8334.241
8336.21
8338.119
8339.991
8341.837
8343.668
8345.489
8347.31
8349.134
8350.968
8352.815
8354.68
8356.566
8358.482
8360.43
8362.416
8364.442
8366.513
8368.632
8370.804
8373.029
8375.311
8377.65
8380.048
8382.51
8385.042
8387.642
8390.237
8392.837
8377.216
8373.588
8369.596
8372.663
8375.175
8377.235
8379.633
8382.137
8384.594
8387.027
8389.434
8391.815
8394.157
8396.442
8398.664
8400.814
8402.89
8404.883
8406.793
8408.616
8410.353
8412.001
8413.562
8415.034
8416.414
8417.708
8418.914
8420.033
8421.07
8422.025
8422.903
8423.704
8424.433
8425.092
8425.684
8426.212
8426.68
8427.092
8427.453
8427.77
8428.054
8428.318
8428.59
8428.904
8429.228
8429.236
8428.517
8427.423
8426.455
8425.567
8424.679
8423.81
8422.828
8420.978
8415.815
8417.256
8416.834
8415.462
8414.173
8412.823
8411.412
8409.976
8408.521
8407.045
8405.545
8404.015
8402.457
8400.874
8399.263
8397.623
8395.954
8394.257
8392.531
8390.78
8389.003
8387.202
8385.379
8383.536
8381.674
8379.795
8377.9
8375.991
8374.069
8372.136
8370.192
8368.239
8366.277
8364.309
8362.333
8360.35
8358.362
8356.369
8354.369
8352.365
8350.355
8348.34
8346.319
8344.292
8342.259
8340.22
8338.175
8336.123
8334.063
8331.995
8329.919
8327.833
8325.738
8323.631
8321.513
8319.381
8317.236
8315.074
8312.895
8310.695
8308.474
8306.227
8303.951
8301.643
8299.297
8296.908
8294.468
8291.971
8289.405
8286.759
8284.018
8281.163
8278.17
8275.012
8271.652
8268.028
8264.054
8259.646
8254.64
8248.749
8241.585
8232.757
8224.159
8228.63
8270.506
7281.572
7200.703
7099.688
6989.509
6871.961
6749.239
6623.379
6495.845
6367.164
6213.31
6089.015
5966.441
5846.949
5733.941
5626.881
5526.283
5432.144
5343.636
5220.321
5160.491
5087.239
5023.086
4969.356
4921.792
4880.512
4845.041
4814.475
4790.146
4770.767
4743.184
4727.35
4713.524
4701.215
4690.46
4680.479
4671.247
4664.052
4662.07
4641.65
4631.073
4628.522
4627.525
4629.575
4636.146
4648.14
4665.832
4687.803
4716.775
4756.067
4799.509
4848.023
4902.314
4961.966
5025.247
5091.052
5160.936
5188.773
5260.974
5318.901
5378.854
5439.884
5497.776
5550.299
5597.158
5637.564
5669.47
5692.138
5703.311
5701.666
5685.735
5654.915
5609.708
5552.271
5485.839
5410.173
5316.779
5200.297
5069.445
4955.906
4854.217
4752.246
4652.705
4567.246
4503.076
4461.442
4442.23
4442.523
4459.611
4490.18
4531.259
4580.356
4635.477
4695.491
4760.408
4830.756
4908.416
4992.93
5080.975
5173.818
5264.139
5337.528
5387.774
5415.042
5421.472
5416.687
5420.13
5441.403
5470.678
5499.4
5523.282
5541.254
5554.001
5563.032
5568.279
5569.571
5567.134
5561.437
5553.113
5542.939
5531.926
5521.254
5512.529
5507.671
5508.751
5518.121
5538.028
5570.154
5616.309
5677.259
5753.368
5844.556
5944.158
6048.577
6142.52
6206.756
6229.056
6241.298
6254.072
6250.921
6294.081
6347.563
6367.345
6397.734
6441.348
6488.571
6530.225
6560.554
6584.934
6610.221
6639.376
6672.555
6708.942
6747.503
6786.903
6826.397
6865.227
6902.448
6937.305
6969.455
6998.628
7024.775
7047.997
7068.554
7086.789
7103.071
7117.895
7131.883
7145.682
7159.922
7175.182
7191.947
7210.57
7231.302
7254.172
7279.18
7306.165
7334.868
7364.955
7396.054
7427.771
7459.719
7491.528
7522.867
7553.45
7583.048
7611.483
7638.633
7664.426
7688.823
7711.822
7733.451
7753.757
7772.801
7790.652
7807.389
7823.09
7837.807
7851.603
7864.544
7876.675
7888.052
7898.665
7908.551
7917.21
7988.705
7994.262
8002.703
8010.127
8016.879
8023.028
8028.614
8033.672
8038.224
8042.287
8045.879
8049.019
8051.73
8054.033
8055.952
8057.507
8058.732
8059.653
8060.292
8060.677
8060.833
8060.785
8060.557
8060.178
8059.61
8058.928
8058.127
8057.21
8056.184
8055.029
8053.721
8052.226
8050.494
8048.526
8046.536
8045.552
8047.071
8049.748
8052.089
8054.309
8056.413
8058.418
8060.362
8062.265
8064.14
8065.996
8067.841
8069.682
8071.522
8073.366
8075.22
8077.085
8078.969
8080.875
8082.806
8084.767
8086.765
8088.801
8090.881
8093.008
8095.186
8097.416
8099.701
8102.043
8104.442
8106.9
8109.419
8111.999
8114.776
8118.726
8061.862
8065.351
8066.501
8067.234
8068.867
8071.208
8073.772
8076.288
8078.727
8081.141
8083.555
8085.949
8088.294
8090.574
8092.782
8094.92
8096.982
8098.962
8100.856
8102.662
8104.379
8106.007
8107.546
8108.994
8110.354
8111.624
8112.806
8113.902
8114.914
8115.845
8116.698
8117.474
8118.177
8118.81
8119.375
8119.876
8120.315
8120.697
8121.025
8121.305
8121.542
8121.739
8121.889
8121.967
8121.912
8121.645
8121.091
8120.305
8119.434
8118.553
8117.646
8116.689
8115.614
8114.25
8112.365
8110.613
8109.452
8108.505
8107.397
8106.073
8104.632
8103.156
8101.667
8100.159
8098.622
8097.058
8095.467
8093.852
8092.212
8090.545
8088.851
8087.131
8085.386
8083.616
8081.823
8080.008
8078.172
8076.317
8074.444
8072.555
8070.651
8068.735
8066.806
8064.866
8062.916
8060.958
8058.992
8057.019
8055.04
8053.055
8051.064
8049.068
8047.067
8045.061
8043.05
8041.033
8039.011
8036.984
8034.951
8032.912
8030.866
8028.813
8026.753
8024.685
8022.609
8020.523
8018.427
8016.321
8014.202
8012.071
8009.925
8007.764
8005.584
8003.385
8001.164
7998.917
7996.643
7994.336
7991.992
7989.605
7987.17
7984.678
7982.121
7979.486
7976.762
7973.928
7970.972
7967.859
7964.569
7961.046
7957.263
7953.144
7948.704
7943.963
7939.353
7935.678
7934.464
7936.421
7942.132
3535.04
3539.885
3560.901
3594.272
3639.564
3695.195
3763.532
3843.828
3935.696
4040.25
4137.914
4262.996
4397.223
4541.028
4693.494
4853.228
5018.783
5189.594
5362.873
5530.697
5709.495
5886.979
6061.894
6230.678
6392.227
6544.198
6683.918
6808.515
6921.4
7010.267
7079.875
7129.759
7159.487
7168.711
7157.703
7127.229
7078.547
7013.068
6925.226
6834.742
6730.251
6616.802
6496.558
6371.878
6244.697
6116.834
5990.299
5865.738
5742.396
5624.303
5509.247
5399.552
5295.772
5198.433
5108.665
5030.789
4855.5
4786.806
4729.036
4674.675
4624.587
4580.514
4542.765
4510.664
4483.456
4460.118
4440.176
4423.787
4409.508
4396.653
4385.319
4375.329
4366.179
4357.409
4348.508
4339.27
4330.373
4321.95
4315.006
4310.962
4310.939
4315.804
4326.395
4343.458
4367.652
4399.269
4437.945
4483.847
4536.608
4595.285
4658.404
4725.565
4795.728
4869.082
4944.882
5014.153
5082.704
5149.25
5213.231
5273.715
5328.619
5376.909
5417.63
5449.51
5470.75
5478.955
5473.117
5452.101
5414.847
5361.364
5291.271
5204.904
5103.378
4992.747
4871.18
4732.18
4598.386
4484.762
4385.13
4294.104
4216.601
4160.116
4127.078
4116.378
4125.297
4150.783
4189.76
4239.356
4297.118
4361.227
4430.628
4504.615
4582.947
4665.414
4751.735
4839.193
4924.072
5005.405
5077.156
5131.623
5168.564
5192.999
5207.105
5217.906
5236.17
5261.907
5287.369
5307.516
5321.856
5331.282
5336.572
5337.848
5335.053
5328.332
5318.122
5305.055
5289.954
5273.862
5257.992
5243.906
5233.638
5229.432
5233.705
5248.795
5276.174
5317.002
5371.883
5440.134
5519.72
5606.044
5692.912
5775.063
5844.899
5888.723
5915.873
5939.447
5969.482
6021.355
6070.211
6114.857
6166.951
6211.243
6242.207
6273.582
6309.177
6344.573
6378.118
6409.368
6440.948
6475.644
6513.116
6551.902
6590.928
6629.321
6666.298
6701.048
6733.021
6762.018
6787.921
6810.722
6830.621
6847.984
6863.308
6877.135
6890.084
6902.821
6916.01
6930.261
6946.086
6963.882
6983.945
7006.282
7030.908
7057.64
7086.186
7116.189
7147.258
7178.988
7210.975
7242.833
7274.217
7304.834
7334.446
7362.876
7390.001
7415.748
7440.083
7463.009
7484.558
7504.779
7523.738
7541.519
7558.219
7573.921
7588.653
7602.463
7615.435
7627.62
7639.081
7649.83
7660.039
7669.815
7680.047
7688.454
7695.894
7702.904
7709.495
7715.56
7721.08
7726.081
7730.585
7734.607
7738.163
7741.271
7743.951
7746.225
7748.117
7749.651
7750.856
7751.757
7752.38
7752.751
7752.896
7752.839
7752.603
7752.21
7751.675
7751.016
7750.247
7749.378
7748.415
7747.362
7746.223
7745.016
7743.794
7742.685
7741.946
7741.936
7742.873
7744.514
7746.399
7748.304
7750.183
7752.047
7753.906
7755.761
7757.612
7759.461
7761.31
7763.162
7765.019
7766.885
7768.761
7770.652
7772.561
7774.491
7776.447
7778.433
7780.454
7782.513
7784.614
7786.762
7788.958
7791.206
7793.507
7795.863
7798.273
7800.735
7803.241
7805.784
7808.369
7811.251
7813.513
7814.875
7816.938
7819.668
7822.568
7825.376
7828.109
7830.767
7833.353
7835.881
7838.366
7840.806
7843.187
7845.498
7847.733
7849.892
7851.972
7853.968
7855.876
7857.694
7859.421
7861.056
7862.6
7864.052
7865.413
7866.683
7867.864
7868.958
7869.966
7870.892
7871.737
7872.505
7873.198
7873.818
7874.37
7874.854
7875.274
7875.634
7875.934
7876.179
7876.366
7876.494
7876.548
7876.51
7876.351
7876.041
7875.547
7874.861
7874.047
7873.171
7872.256
7871.272
7870.21
7869.11
7868.19
7867.156
7865.814
7864.288
7862.723
7861.164
7859.614
7858.069
7856.523
7854.969
7853.397
7851.803
7850.187
7848.547
7846.885
7845.198
7843.487
7841.752
7839.992
7838.21
7836.405
7834.58
7832.735
7830.871
7828.991
7827.095
7825.185
7823.263
7821.328
7819.384
7817.43
7815.468
7813.498
7811.522
7809.54
7807.553
7805.56
7803.563
7801.56
7799.554
7797.542
7795.526
7793.504
7791.478
7789.446
7787.408
7785.364
7783.313
7781.255
7779.189
7777.116
7775.033
7772.941
7770.838
7768.724
7766.597
7764.456
7762.3
7760.128
7757.936
7755.724
7753.487
7751.224
7748.931
7746.603
7744.236
7741.825
7739.362
7736.839
7734.248
7731.578
7728.816
7725.947
7722.955
7719.82
7716.525
7713.059
7709.435
7705.724
7702.079
7698.789
7696.217
7694.765
7694.979
7697.172
3579.253
3545.734
3509.437
3460.651
3425.37
3365.361
3347.074
3343.039
3352.053
3337.733
3303.983
3278.745
3270.209
3275.069
3292.457
3321.578
3362
3413.579
3476.392
3551.045
3637.271
3734.731
3843.116
3962.957
4093.179
4233.667
4382.276
4538.408
4700.913
4867.496
5039.808
5192.583
5372.454
5548.977
5720.505
5885.813
6043.768
6192.479
6329.44
6453.373
6560.876
6647.57
6714.071
6760.61
6786.553
6791.751
6776.692
6742.298
6689.852
6621.308
6538.64
6443.737
6337.934
6223.29
6102.37
5977.443
5850.495
5723.388
5597.616
5474.189
5354.085
5238.281
5126.964
5020.642
4920.104
4825.814
4737.835
4655.612
4577.385
4509.672
4452.107
4399.446
4351.587
4309.786
4274.231
4244.279
4219.068
4198.077
4180.794
4166.104
4153.466
4142.658
4133.215
4124.604
4116.203
4107.434
4098.029
4088.13
4077.438
4066.273
4056.335
4049.111
4045.745
4047.427
4055.299
4070.409
4093.344
4124.468
4163.839
4211.081
4265.769
4327.19
4394.416
4466.478
4542.757
4620.812
4699.124
4776.475
4852.318
4925.113
4995.037
5060.086
5119.111
5170.865
5214.036
5247.288
5268.564
5275.199
5265.939
5239.29
5193.672
5128.009
5041.24
4934.341
4810.535
4674.038
4527.966
4374.568
4228.212
4103.266
3999.169
3911.473
3841.08
3792.217
3767.043
3764.747
3782.827
3817.81
3866.787
3926.945
3995.573
4070.293
4149.537
4232.415
4318.278
4406.346
4495.826
4584.72
4670.335
4751.018
4822.973
4882.393
4928.63
4963.797
4989.979
5011.398
5033.592
5057.697
5080.109
5097.652
5109.567
5116.127
5117.831
5114.931
5107.497
5095.701
5079.947
5060.804
5039.108
5016.012
4992.868
4971.213
4953.089
4940.952
4937.313
4944.454
4964.238
4997.903
5045.4
5105.323
5176.124
5254.519
5335.247
5414.482
5484.663
5537.767
5582.69
5629.935
5680.496
5735.557
5792.335
5848.256
5900.117
5942.876
5981.513
6024.687
6069.582
6108.871
6142.323
6174.175
6208.201
6245.013
6282.543
6319.949
6357.486
6394.945
6431.505
6466.23
6498.329
6527.243
6552.731
6574.826
6593.798
6610.085
6624.276
6636.993
6648.854
6660.544
6672.765
6686.163
6701.274
6718.522
6738.179
6760.138
6784.559
6811.219
6839.796
6869.911
6901.148
6933.087
6965.3
6997.378
7028.954
7059.721
7089.43
7117.898
7145.004
7170.678
7194.894
7217.662
7239.024
7259.038
7277.779
7295.337
7311.805
7327.266
7341.798
7355.475
7368.363
7380.505
7391.957
7402.774
7413.087
7422.931
7432.242
7440.345
7447.848
7455.022
7461.741
7467.906
7473.518
7478.609
7483.201
7487.31
7490.952
7494.143
7496.904
7499.254
7501.219
7502.822
7504.09
7505.049
7505.727
7506.15
7506.344
7506.334
7506.143
7505.795
7505.308
7504.702
7503.994
7503.199
7502.331
7501.407
7500.449
7499.498
7498.618
7497.915
7497.531
7497.631
7498.35
7499.626
7501.214
7502.905
7504.633
7506.393
7508.183
7509.996
7511.825
7513.667
7515.52
7517.384
7519.26
7521.148
7523.049
7524.966
7526.901
7528.858
7530.839
7532.848
7534.889
7536.967
7539.084
7541.245
7543.451
7545.707
7548.014
7550.373
7552.782
7555.241
7557.743
7560.295
7562.859
7565.468
7567.994
7570.617
7573.288
7575.836
7578.25
7580.71
7583.258
7585.832
7588.381
7590.892
7593.366
7595.801
7598.186
7600.508
7602.758
7604.931
7607.024
7609.032
7610.952
7612.782
7614.521
7616.167
7617.72
7619.18
7620.547
7621.822
7623.007
7624.102
7625.111
7626.035
7626.877
7627.639
7628.324
7628.934
7629.473
7629.942
7630.343
7630.679
7630.951
7631.158
7631.299
7631.367
7631.354
7631.248
7631.032
7630.688
7630.194
7629.548
7628.779
7627.93
7627.024
7626.061
7625.053
7624.012
7622.925
7621.64
7620.192
7618.709
7617.25
7615.798
7614.326
7612.824
7611.297
7609.747
7608.176
7606.581
7604.961
7603.314
7601.642
7599.945
7598.222
7596.475
7594.704
7592.91
7591.095
7589.259
7587.404
7585.531
7583.642
7581.738
7579.82
7577.89
7575.949
7573.999
7572.039
7570.072
7568.098
7566.118
7564.132
7562.142
7560.146
7558.147
7556.143
7554.135
7552.123
7550.106
7548.085
7546.059
7544.027
7541.991
7539.948
7537.9
7535.844
7533.782
7531.711
7529.632
7527.544
7525.446
7523.338
7521.217
7519.083
7516.936
7514.772
7512.591
7510.391
7508.169
7505.922
7503.648
7501.343
7499.003
7496.624
7494.199
7491.724
7489.191
7486.593
7483.921
7481.167
7478.322
7475.382
7472.346
7469.233
7466.076
7462.965
7460.004
7457.4
7455.286
7453.981
7453.584
7454.402
3860.558
3829.458
3797.69
3741.204
3693.394
3610.922
3561.065
3510.99
3460.817
3410.733
3361.417
3314.996
3269.214
3225.42
3185.646
3148.754
3051.876
3027.549
3009.803
2994.39
2976.47
2959.391
2948.387
2946.595
2955.106
2974.254
3004.363
3045.623
3098.237
3160.957
3235.007
3321.632
3419.923
3529.753
3650.683
3782.028
3923.197
4073.46
4231.398
4395.391
4564.003
4736.421
4903.113
5077.74
5251.369
5421.439
5585.579
5742.231
5889.856
6026.387
6149.755
6256.678
6344.068
6411.22
6457.705
6483.157
6487.581
6471.549
6436.102
6382.65
6312.872
6228.764
6132.686
6026.527
5912.049
5791.49
5667.062
5540.87
5414.563
5289.125
5166.121
5047.067
4932.258
4822.152
4717.594
4619.074
4526.827
4440.678
4361.06
4288.437
4224.281
4168.082
4118.006
4073.495
4034.862
4002.13
3974.845
3952.365
3934.134
3919.448
3907.484
3897.698
3889.567
3882.418
3875.523
3868.117
3859.51
3849.318
3837.424
3823.8
3809.127
3794.764
3782.206
3773.075
3769.172
3772.167
3783.346
3803.574
3833.265
3872.446
3920.883
3978.193
4043.625
4116.218
4194.68
4277.76
4363.425
4450.45
4537.52
4622.899
4705.123
4783.288
4856.211
4922.222
4980.092
5027.97
5064.419
5087.498
5093.597
5081.159
5047.409
4990.382
4908.877
4802.026
4670.208
4516.587
4346.184
4166.997
3988.938
3826.048
3690.7
3582.001
3495.373
3430.425
3389.345
3373.724
3382.139
3411.92
3459.75
3522.043
3595.345
3676.862
3763.734
3853.949
3946.617
4041.067
4136.411
4231.573
4325.044
4414.766
4498.669
4574.374
4639.976
4694.702
4739.327
4775.668
4806.154
4833.298
4858.083
4879.358
4895.425
4905.415
4909.316
4907.453
4900.097
4887.318
4869.355
4846.676
4819.844
4789.682
4757.275
4723.93
4691.469
4662.26
4638.962
4624.303
4620.883
4631.034
4656.091
4696.057
4749.498
4814.948
4889.838
4969.513
5049.036
5122.996
5189.022
5252.137
5315.851
5378.501
5442.013
5505.964
5566.17
5621.625
5673.43
5724.273
5775.643
5824.22
5866.655
5905.189
5943.041
5980.607
6017.738
6054.547
6091.481
6128.728
6165.293
6200.31
6233.317
6263.882
6291.708
6316.574
6338.371
6357.169
6373.28
6387.135
6399.28
6410.399
6421.266
6432.647
6445.238
6459.603
6476.147
6495.063
6516.797
6541.003
6567.55
6596.119
6626.297
6657.644
6689.729
6722.108
6754.342
6786.047
6816.901
6846.648
6875.1
6902.135
6927.69
6951.741
6974.309
6995.444
7015.217
7033.705
7050.997
7067.171
7082.314
7096.556
7110
7122.693
7134.678
7146.001
7156.7
7166.824
7176.359
7185.269
7193.492
7201.204
7208.49
7215.264
7221.461
7227.108
7232.238
7236.871
7241.021
7244.702
7247.93
7250.724
7253.104
7255.095
7256.721
7258.008
7258.984
7259.676
7260.112
7260.32
7260.324
7260.15
7259.822
7259.362
7258.791
7258.129
7257.396
7256.613
7255.802
7254.996
7254.235
7253.578
7253.104
7252.907
7253.087
7253.715
7254.764
7256.101
7257.595
7259.18
7260.833
7262.543
7264.298
7266.087
7267.903
7269.742
7271.601
7273.478
7275.373
7277.285
7279.217
7281.169
7283.144
7285.144
7287.173
7289.233
7291.329
7293.463
7295.64
7297.862
7300.131
7302.449
7304.818
7307.235
7309.701
7312.21
7314.761
7317.33
7319.932
7322.561
7325.17
7327.681
7330.159
7332.68
7335.273
7337.914
7340.554
7343.16
7345.722
7348.241
7350.713
7353.13
7355.482
7357.76
7359.96
7362.078
7364.111
7366.054
7367.906
7369.664
7371.328
7372.897
7374.371
7375.75
7377.035
7378.227
7379.328
7380.34
7381.266
7382.107
7382.866
7383.546
7384.149
7384.677
7385.132
7385.515
7385.829
7386.073
7386.246
7386.346
7386.368
7386.305
7386.15
7385.89
7385.514
7385.011
7384.381
7383.641
7382.815
7381.921
7380.966
7379.952
7378.865
7377.684
7376.396
7375.041
7373.652
7372.238
7370.794
7369.314
7367.8
7366.257
7364.691
7363.102
7361.488
7359.848
7358.182
7356.491
7354.775
7353.034
7351.27
7349.483
7347.674
7345.844
7343.994
7342.126
7340.242
7338.341
7336.427
7334.499
7332.56
7330.611
7328.652
7326.686
7324.712
7322.732
7320.747
7318.756
7316.762
7314.763
7312.76
7310.754
7308.744
7306.731
7304.713
7302.692
7300.666
7298.636
7296.6
7294.56
7292.513
7290.461
7288.401
7286.335
7284.261
7282.178
7280.086
7277.984
7275.871
7273.747
7271.609
7269.457
7267.289
7265.104
7262.9
7260.673
7258.423
7256.146
7253.839
7251.499
7249.121
7246.702
7244.237
7241.722
7239.153
7236.526
7233.842
7231.104
7228.324
7225.53
7222.761
7220.091
7217.603
7215.43
7213.674
7212.522
7212.008
7212.319
4020.834
3989.702
3953.22
3902.747
3865.793
3794.207
3757.11
3719.254
3679.908
3639.696
3598.752
3556.761
3513.363
3468.511
3420.374
3303.131
3253.327
3203.663
3153.66
3103.668
3054.009
3005.556
2958.608
2913.381
2870.631
2832.191
2798.757
2769.327
2744.064
2721.74
2701.992
2686.821
2678.191
2677.649
2686.205
2704.394
2732.61
2771.414
2821.207
2882.973
2956.053
3040.685
3137.051
3245.091
3364.41
3494.366
3634.141
3782.814
3939.153
4101.867
4269.65
4440.295
4610.594
4783.401
4954.535
5122.307
5284.86
5440.32
5586.256
5720.939
5842.294
5947.16
6032.714
6097.523
6141.056
6163.245
6164.343
6145.076
6106.566
6050.343
5978.216
5892.201
5794.598
5687.476
5572.961
5453.053
5329.685
5205.218
5081.258
4958.74
4838.588
4721.52
4608.399
4500.492
4398.761
4303.355
4214.319
4131.734
4056.117
3987.727
3926.676
3872.895
3825.867
3785.047
3750.203
3721.129
3697.448
3678.637
3664.131
3653.257
3645.254
3639.346
3634.774
3630.76
3626.436
3620.801
3612.624
3601.285
3586.831
3569.373
3549.541
3528.481
3507.933
3490.274
3478.248
3474.32
3480.062
3496.863
3524.585
3563.562
3613.629
3674.323
3744.867
3824.184
3910.836
4003.294
4099.759
4198.484
4297.605
4395.181
4489.498
4579.18
4662.758
4738.417
4805.376
4860.973
4902.647
4927.386
4933.067
4917.213
4875.229
4804.4
4703.4
4571.241
4407.718
4216.104
4004.083
3784.503
3573.755
3390.199
3246.736
3136.722
3051.044
2989.339
2954.707
2949.903
2972.421
3017.783
3081.125
3159.579
3249.817
3347.164
3447.715
3549.597
3652.436
3755.706
3858.821
3960.978
4060.927
4156.885
4246.885
4329.12
4402.288
4465.718
4519.644
4565.152
4603.565
4636.09
4663.429
4685.342
4700.969
4709.555
4711.031
4705.52
4693.365
4674.718
4649.792
4618.982
4582.833
4542.144
4497.838
4451.155
4404.282
4360.103
4321.838
4292.973
4276.738
4275.643
4291.157
4323.621
4372.046
4434.764
4508.885
4590.114
4674.377
4758.332
4839.516
4918.44
4995.876
5071.399
5145.644
5217.454
5284.899
5348.579
5409.409
5467.334
5522.428
5574.084
5621.83
5666.985
5710.481
5751.664
5790.997
5829.566
5867.336
5903.965
5939.132
5972.509
6003.811
6032.864
6059.438
6083.281
6104.331
6122.651
6138.474
6152.168
6164.211
6175.216
6185.887
6196.952
6209.109
6222.957
6238.947
6257.404
6278.501
6302.186
6328.296
6356.54
6386.464
6417.594
6449.494
6481.718
6513.81
6545.364
6576.05
6605.602
6633.827
6660.609
6685.886
6709.641
6731.895
6752.705
6772.148
6790.311
6807.294
6823.196
6838.114
6852.145
6865.376
6877.877
6889.698
6900.873
6911.418
6921.343
6930.675
6939.471
6947.715
6955.404
6962.594
6969.295
6975.471
6981.12
6986.261
6990.911
6995.079
6998.778
7002.022
7004.829
7007.219
7009.217
7010.847
7012.136
7013.112
7013.804
7014.241
7014.45
7014.459
7014.293
7013.979
7013.54
7012.999
7012.378
7011.701
7010.991
7010.276
7009.589
7008.97
7008.469
7008.147
7008.068
7008.295
7008.864
7009.761
7010.917
7012.253
7013.711
7015.263
7016.891
7018.582
7020.323
7022.103
7023.918
7025.762
7027.631
7029.525
7031.443
7033.384
7035.349
7037.34
7039.359
7041.408
7043.49
7045.608
7047.764
7049.963
7052.206
7054.495
7056.833
7059.219
7061.653
7064.134
7066.657
7069.218
7071.807
7074.425
7077.055
7079.657
7082.227
7084.816
7087.444
7090.098
7092.762
7095.418
7098.044
7100.633
7103.179
7105.677
7108.12
7110.497
7112.803
7115.03
7117.175
7119.233
7121.202
7123.077
7124.858
7126.542
7128.133
7129.624
7131.019
7132.318
7133.522
7134.632
7135.651
7136.581
7137.422
7138.179
7138.856
7139.454
7139.973
7140.416
7140.784
7141.078
7141.297
7141.44
7141.506
7141.49
7141.388
7141.194
7140.898
7140.496
7139.981
7139.356
7138.629
7137.814
7136.923
7135.963
7134.931
7133.822
7132.638
7131.386
7130.073
7128.704
7127.289
7125.833
7124.342
7122.817
7121.264
7119.684
7118.078
7116.446
7114.788
7113.104
7111.394
7109.659
7107.9
7106.118
7104.314
7102.489
7100.643
7098.779
7096.897
7094.998
7093.085
7091.159
7089.22
7087.27
7085.311
7083.343
7081.368
7079.387
7077.4
7075.408
7073.412
7071.413
7069.409
7067.403
7065.394
7063.382
7061.366
7059.348
7057.326
7055.3
7053.27
7051.236
7049.198
7047.154
7045.104
7043.049
7040.987
7038.918
7036.841
7034.756
7032.663
7030.559
7028.445
7026.319
7024.181
7022.029
7019.861
7017.677
7015.475
7013.253
7011.008
7008.739
7006.443
7004.118
7001.762
6999.372
6996.947
6994.486
6991.992
6989.468
6986.926
6984.381
6981.862
6979.41
6977.082
6974.949
6973.099
6971.617
6970.605
6970.1
6970.224
3927.651
3893.007
3869.255
3830.218
3786.151
3743.39
3701.811
3662.635
3625.439
3587.796
3483.408
3446.288
3409.113
3370.874
3331.264
3290.332
3248.033
3204.065
3158.443
3111.792
3065.204
3016.321
2966.691
2916.428
2866.011
2815.618
2765.654
2716.718
2668.936
2622.458
2578.74
2539.764
2505.226
2474.907
2448.666
2427.226
2412.11
2404.24
2404.462
2413.473
2431.824
2459.933
2498.196
2547.057
2607.053
2678.414
2761.312
2855.904
2962.142
3079.703
3207.992
3346.166
3493.194
3647.787
3808.647
3974.155
4142.397
4311.38
4480.604
4648.119
4812.448
4972.321
5125.527
5269.025
5400.323
5517.178
5617.048
5697.618
5757.299
5795.489
5812.227
5807.999
5783.735
5740.695
5680.573
5605.231
5516.888
5417.731
5309.826
5195.803
5077.63
4957.064
4835.746
4714.869
4596.16
4480.297
4367.546
4259.192
4156.376
4059.592
3968.89
3884.369
3806.281
3735.013
3670.774
3613.661
3563.75
3520.881
3484.631
3454.554
3430.246
3411.308
3397.303
3387.749
3381.988
3379.163
3378.273
3378.397
3378.661
3377.92
3375.159
3368.046
3355.579
3337.905
3315.249
3288.175
3257.679
3225.989
3196.599
3173.605
3160.582
3159.702
3171.453
3196.779
3235.647
3287.747
3352.603
3429.474
3517.22
3614.299
3718.973
3829.197
3942.665
4057.003
4169.947
4279.469
4383.729
4480.695
4567.485
4647.808
4713.045
4761.22
4789.865
4795.99
4775.982
4724.654
4638.093
4514.365
4351.847
4149.087
3910.333
3647.201
3380.146
3135.666
2934.796
2783.504
2669.226
2582.24
2523.52
2495.822
2501.624
2540.129
2605.507
2688.222
2783.75
2894.518
3011.72
3127.816
3241.583
3354.33
3466.131
3577.061
3686.765
3794.125
3897.488
3995.05
4085.264
4167.039
4239.689
4303.036
4357.51
4403.762
4442.398
4473.824
4497.925
4514.172
4522.077
4521.589
4512.773
4495.725
4470.742
4438.132
4398.024
4350.751
4297.056
4237.882
4174.609
4109.705
4046.615
3989.372
3942.561
3910.519
3896.37
3901.711
3926.839
3970.871
4032.261
4108.435
4195.561
4289.634
4386.857
4483.837
4579.232
4672.49
4762.767
4849.3
4931.231
5007.993
5079.823
5146.926
5209.5
5268.577
5324.781
5377.959
5428.186
5475.63
5520.274
5562.899
5604.105
5643.406
5680.388
5715.268
5748.043
5778.455
5806.374
5831.745
5854.508
5874.679
5892.389
5907.872
5921.455
5933.558
5944.71
5955.52
5966.627
5978.684
5992.275
6007.856
6025.901
6046.543
6069.612
6094.948
6122.394
6151.549
6181.975
6213.243
6244.865
6276.359
6307.344
6337.491
6366.527
6394.249
6420.537
6445.333
6468.62
6490.421
6510.787
6529.796
6547.547
6564.149
6579.71
6594.325
6608.079
6621.058
6633.338
6644.978
6655.997
6666.392
6676.183
6685.432
6694.169
6702.369
6709.988
6717.027
6723.575
6729.67
6735.29
6740.424
6745.075
6749.248
6752.953
6756.202
6759.011
6761.401
6763.397
6765.023
6766.307
6767.278
6767.966
6768.399
6768.608
6768.621
6768.464
6768.165
6767.747
6767.236
6766.656
6766.031
6765.388
6764.754
6764.164
6763.652
6763.263
6763.042
6763.037
6763.286
6763.81
6764.605
6765.632
6766.841
6768.189
6769.647
6771.196
6772.821
6774.509
6776.249
6778.033
6779.855
6781.711
6783.599
6785.518
6787.465
6789.442
6791.449
6793.488
6795.56
6797.667
6799.811
6801.995
6804.222
6806.492
6808.809
6811.174
6813.586
6816.045
6818.549
6821.094
6823.678
6826.292
6828.93
6831.58
6834.229
6836.882
6839.549
6842.23
6844.918
6847.604
6850.289
6852.94
6855.555
6858.132
6860.659
6863.13
6865.537
6867.872
6870.129
6872.303
6874.39
6876.386
6878.289
6880.097
6881.807
6883.424
6884.934
6886.347
6887.662
6888.881
6890.006
6891.038
6891.979
6892.826
6893.584
6894.259
6894.852
6895.364
6895.796
6896.151
6896.427
6896.624
6896.742
6896.779
6896.732
6896.597
6896.37
6896.047
6895.622
6895.094
6894.465
6893.74
6892.926
6892.033
6891.065
6890.024
6888.911
6887.731
6886.486
6885.176
6883.806
6882.386
6880.925
6879.427
6877.895
6876.331
6874.737
6873.115
6871.464
6869.787
6868.083
6866.354
6864.599
6862.821
6861.02
6859.197
6857.354
6855.491
6853.61
6851.712
6849.799
6847.871
6845.931
6843.979
6842.018
6840.047
6838.069
6836.084
6834.094
6832.099
6830.1
6828.097
6826.092
6824.084
6822.073
6820.06
6818.045
6816.027
6814.007
6811.984
6809.958
6807.929
6805.896
6803.859
6801.818
6799.772
6797.721
6795.664
6793.601
6791.531
6789.454
6787.369
6785.276
6783.174
6781.062
6778.939
6776.804
6774.657
6772.497
6770.321
6768.13
6765.921
6763.693
6761.446
6759.178
6756.888
6754.577
6752.245
6749.895
6747.531
6745.162
6742.8
6740.464
6738.183
6735.992
6733.94
6732.081
6730.484
6729.206
6728.316
6727.84
6727.886
3682.868
3633.755
3527.691
3489.932
3451.316
3413.699
3377.33
3342.017
3307.341
3273.086
3239.303
3204.196
3168.052
3130.631
3091.85
3051.467
3009.407
2965.515
2919.653
2872.281
2824.661
2775.835
2725.955
2675.3
2624.161
2572.519
2520.342
2468.143
2416.913
2367.281
2320.082
2276.888
2238.759
2205.76
2178.05
2156.234
2141.187
2133.568
2134.001
2143.023
2161.081
2188.634
2226.167
2274.022
2332.628
2402.39
2483.618
2576.481
2680.933
2796.678
2923.123
3059.406
3204.519
3357.015
3515.468
3677.726
3841.774
4006.461
4171.215
4335.186
4496.537
4652.849
4801.577
4939.907
5065.22
5175.106
5267.349
5340.05
5391.828
5422.202
5431.314
5419.929
5389.143
5340.508
5275.855
5197.04
5106.664
5006.881
4899.876
4787.568
4671.51
4554.28
4437.131
4320.791
4207.26
4097.587
3991.99
3890.887
3794.768
3703.983
3618.738
3539.291
3466.065
3399.502
3339.898
3287.473