/*--------------------------------*- C++ -*----------------------------------*\
| =========                 |                                                 |
| \\      /  F ield         | foam-extend: Open Source CFD                    |
|  \\    /   O peration     | Version:     3.1                                |
|   \\  /    A nd           | Web:         http://www.extend-project.de       |
|    \\/     M anipulation  |                                                 |
\*---------------------------------------------------------------------------*/
FoamFile
{
    version     2.0;
    format      ascii;
    class       volScalarField;
    location    "9";
    object      pd;
}
// * * * * * * * * * * * * * * * * * * * * * * * * * * * * * * * * * * * * * //

dimensions      [1 -1 -2 0 0 0 0];

internalField   nonuniform List<scalar> 
119952
(
7618.94
6019.774
5703.707
5792.574
5930.225
5617.755
5477.459
5350.385
5259.216
5193.382
5154.179
5134.28
5134.13
5150.173
5179.442
5217.839
5261.211
5304.967
5338.781
5310.61
5594.985
5534.878
5544.887
5853.737
5892.109
5982.517
6046.788
6142.726
6353.844
8768.489
5241.908
5196.187
5194.154
5188.041
5186.388
5188.226
5193.984
5206.156
5223.741
5224.04
5261.864
5301.022
5343.05
5390.947
5444.463
5502.778
5564.763
5629.523
5695.735
5803.976
5849.88
5903.683
5965.569
6024.375
6081.631
6135.22
6183.831
6227.195
6268.211
6289.068
6302.401
6309.738
6302.297
6280.415
6243.069
6189.608
6128.078
6108.524
6160.757
5893.869
5734.234
5716.617
5652.053
5534.099
5398.968
5293.882
5215.56
5159.788
5127.558
5115.796
5121.591
5142.258
5174.667
5215.57
5261.566
5309.851
5360.169
5417.863
5487.305
5571.525
5640.435
5751.735
5900.863
5982.502
6029.586
6073.124
6060.906
5939.097
5953.214
6008.192
6045.716
6078.175
6107.053
6130.531
6148.554
6162.116
6171.577
6177.093
6178.92
6177.439
6173.24
6167.117
6159.8
6152.451
6146.674
6144.254
6147.097
6157.401
6177.523
6209.834
6256.125
6317.961
6397.553
6496.294
6614.772
6753.691
6896.526
6992.754
6977.912
6935.087
6882.523
6887.31
6949.46
6958.173
6984.085
7015.995
7038.035
7064.512
7100.314
7138.756
7174.439
7207.159
7239.834
7274.561
7311.571
7349.879
7388.939
7428.081
7466.643
7503.671
7538.508
7570.716
7600.023
7626.445
7650.125
7671.292
7690.259
7707.415
7723.214
7738.189
7752.919
7767.999
7783.977
7801.321
7820.371
7841.48
7864.632
7889.839
7916.966
7945.774
7975.954
8007.15
8038.981
8071.065
8103.038
8134.57
8165.373
8195.211
8223.901
8251.314
8277.38
8302.048
8325.303
8347.178
8367.718
8386.981
8405.037
8421.912
8437.744
8452.587
8466.494
8479.52
8491.715
8503.115
8513.752
8523.667
8533.445
8543.496
8550.413
8558.367
8565.634
8572.296
8578.27
8583.712
8588.634
8593.054
8596.988
8600.459
8603.474
8606.059
8608.242
8610.048
8611.509
8612.623
8613.435
8613.98
8614.279
8614.353
8614.229
8613.926
8613.462
8612.861
8612.13
8611.278
8610.296
8609.25
8608
8606.62
8604.993
8602.976
8600.408
8596.276
8591.013
8596.677
8600.478
8603.392
8605.868
8608.085
8610.147
8612.116
8614.025
8615.897
8617.743
8619.573
8621.395
8623.216
8625.04
8626.873
8628.721
8630.586
8632.471
8634.388
8636.336
8638.322
8640.347
8642.418
8644.539
8646.71
8648.935
8651.216
8653.555
8655.954
8658.416
8660.947
8663.547
8666.144
8668.743
8683.778
8680.151
8676.158
8679.226
8681.736
8683.797
8686.195
8688.7
8691.156
8693.589
8695.996
8698.378
8700.719
8703.004
8705.226
8707.377
8709.452
8711.446
8713.355
8715.179
8716.915
8718.564
8720.124
8721.596
8722.976
8724.27
8725.477
8726.596
8727.632
8728.587
8729.465
8730.267
8730.996
8731.655
8732.246
8732.774
8733.243
8733.654
8734.015
8734.333
8734.616
8734.88
8735.153
8735.466
8735.79
8735.798
8735.079
8733.985
8733.018
8732.129
8731.241
8730.372
8729.39
8727.54
8722.377
8723.818
8723.397
8722.024
8720.736
8719.385
8717.974
8716.538
8715.083
8713.607
8712.107
8710.577
8709.019
8707.436
8705.825
8704.186
8702.517
8700.819
8699.094
8697.342
8695.565
8693.764
8691.942
8690.099
8688.236
8686.357
8684.463
8682.553
8680.631
8678.698
8676.754
8674.801
8672.84
8670.871
8668.895
8666.913
8664.925
8662.931
8660.931
8658.927
8656.917
8654.902
8652.881
8650.854
8648.822
8646.782
8644.737
8642.685
8640.625
8638.558
8636.481
8634.396
8632.3
8630.194
8628.075
8625.944
8623.798
8621.637
8619.457
8617.258
8615.036
8612.789
8610.513
8608.205
8605.859
8603.47
8601.031
8598.533
8595.968
8593.322
8590.58
8587.725
8584.732
8581.574
8578.214
8574.591
8570.617
8566.209
8561.202
8555.311
8548.147
8539.32
8530.721
8535.192
8577.068
7815.414
7731.263
7626.982
7513.536
7392.72
7266.731
7137.604
7006.802
6875.017
6734.466
6610.171
6487.597
6368.105
6255.097
6148.037
6047.439
5953.3
5864.792
5772.133
5712.304
5639.052
5574.898
5521.169
5473.604
5432.324
5396.854
5366.287
5341.958
5322.579
5294.996
5279.162
5265.336
5253.028
5242.272
5232.291
5223.059
5215.864
5213.882
5193.461
5182.884
5180.334
5179.337
5181.387
5187.957
5199.952
5217.644
5239.615
5268.586
5307.879
5351.321
5399.834
5454.125
5513.778
5577.059
5642.863
5712.747
5801.897
5874.099
5932.025
5991.978
6053.006
6110.899
6163.422
6210.281
6250.688
6282.594
6305.262
6316.434
6314.785
6298.85
6268.031
6222.827
6165.393
6098.96
6023.289
5929.88
5813.374
5682.495
5568.94
5467.257
5365.303
5265.78
5180.335
5116.171
5074.538
5055.326
5055.618
5072.704
5103.272
5144.353
5193.455
5248.58
5308.599
5373.519
5443.869
5521.53
5606.046
5694.095
5786.939
5877.262
5950.651
6000.896
6028.164
6034.595
6029.811
6033.255
6054.527
6083.803
6112.524
6136.405
6154.377
6167.125
6176.157
6181.404
6182.696
6180.259
6174.561
6166.234
6156.058
6145.046
6134.377
6125.653
6120.795
6121.876
6131.245
6151.152
6183.278
6229.433
6290.383
6366.493
6457.68
6557.278
6661.693
6755.638
6819.877
6842.178
6854.422
6867.195
6864.043
6907.204
6960.686
6980.469
7010.858
7054.472
7101.696
7143.35
7173.679
7198.059
7223.346
7252.501
7285.68
7322.067
7360.628
7400.028
7439.522
7478.352
7515.573
7550.43
7582.58
7611.753
7637.9
7661.122
7681.679
7699.914
7716.196
7731.02
7745.008
7758.807
7773.047
7788.307
7805.072
7823.695
7844.427
7867.297
7892.305
7919.29
7947.993
7978.08
8009.178
8040.896
8072.844
8104.653
8135.992
8166.575
8196.173
8224.608
8251.758
8277.551
8301.948
8324.947
8346.576
8366.882
8385.926
8403.777
8420.514
8436.215
8450.932
8464.728
8477.669
8489.8
8501.177
8511.79
8521.676
8530.335
8540.517
8546.074
8554.516
8561.94
8568.692
8574.841
8580.426
8585.485
8590.036
8594.099
8597.691
8600.831
8603.543
8605.846
8607.764
8609.32
8610.545
8611.466
8612.104
8612.489
8612.646
8612.598
8612.369
8611.99
8611.422
8610.741
8609.94
8609.022
8607.997
8606.842
8605.534
8604.038
8602.307
8600.339
8598.349
8597.364
8598.883
8601.56
8603.901
8606.122
8608.225
8610.231
8612.174
8614.077
8615.952
8617.808
8619.654
8621.494
8623.334
8625.179
8627.032
8628.898
8630.781
8632.687
8634.618
8636.58
8638.577
8640.614
8642.694
8644.82
8646.998
8649.228
8651.513
8653.855
8656.255
8658.712
8661.231
8663.81
8666.589
8670.538
8674.987
8678.476
8679.626
8680.359
8681.992
8684.333
8686.897
8689.413
8691.852
8694.266
8696.68
8699.074
8701.419
8703.698
8705.907
8708.045
8710.107
8712.086
8713.98
8715.787
8717.504
8719.132
8720.671
8722.119
8723.479
8724.749
8725.931
8727.026
8728.038
8728.97
8729.822
8730.599
8731.302
8731.935
8732.5
8733
8733.44
8733.822
8734.15
8734.43
8734.667
8734.864
8735.014
8735.092
8735.037
8734.77
8734.216
8733.43
8732.559
8731.678
8730.771
8729.814
8728.739
8727.375
8725.489
8723.738
8722.577
8721.63
8720.522
8719.198
8717.757
8716.28
8714.792
8713.284
8711.747
8710.183
8708.592
8706.977
8705.336
8703.669
8701.976
8700.256
8698.511
8696.741
8694.948
8693.133
8691.297
8689.442
8687.569
8685.68
8683.776
8681.859
8679.93
8677.991
8676.041
8674.083
8672.117
8670.144
8668.165
8666.18
8664.189
8662.193
8660.192
8658.186
8656.175
8654.158
8652.136
8650.109
8648.076
8646.037
8643.991
8641.938
8639.878
8637.81
8635.734
8633.648
8631.552
8629.446
8627.327
8625.196
8623.05
8620.888
8618.709
8616.51
8614.289
8612.042
8609.768
8607.461
8605.117
8602.73
8600.295
8597.803
8595.246
8592.61
8589.887
8587.053
8584.097
8580.984
8577.694
8574.171
8570.388
8566.269
8561.829
8557.088
8552.478
8548.803
8547.589
8549.546
8555.257
4316.026
4317.33
4335.078
4365.182
4407.207
4459.566
4524.64
4601.668
4690.27
4792.675
4904.32
5029.402
5163.629
5307.434
5459.9
5619.634
5785.189
5956
6129.279
6327.759
6506.557
6684.041
6858.956
7027.74
7189.289
7341.26
7480.98
7605.578
7718.462
7807.329
7876.938
7926.821
7956.549
7965.774
7954.766
7924.292
7875.61
7810.13
7722.288
7631.804
7527.314
7413.864
7293.621
7168.941
7041.759
6913.896
6787.361
6662.801
6539.458
6421.365
6306.309
6196.614
6092.834
5995.495
5905.726
5827.85
5713.873
5645.179
5587.409
5533.047
5482.959
5438.886
5401.137
5369.036
5341.827
5318.49
5298.547
5282.158
5267.88
5255.024
5243.69
5233.698
5224.549
5215.779
5206.879
5197.64
5188.742
5180.318
5173.375
5169.331
5169.308
5174.172
5184.763
5201.827
5226.022
5257.638
5296.313
5342.215
5394.978
5453.656
5516.774
5583.932
5654.096
5727.452
5803.253
5872.525
5941.077
6007.623
6071.603
6132.079
6186.98
6235.274
6275.998
6307.882
6329.121
6337.32
6331.468
6310.437
6273.185
6219.716
6149.634
6063.266
5961.718
5851.015
5729.303
5590.119
5456.207
5342.604
5243.088
5152.201
5074.807
5018.374
4985.31
4974.581
4983.491
5008.978
5047.962
5097.574
5155.355
5219.481
5288.893
5362.885
5441.231
5523.728
5610.079
5697.554
5782.44
5863.771
5935.518
5989.986
6026.932
6051.371
6065.478
6076.28
6094.545
6120.281
6145.741
6165.886
6180.226
6189.654
6194.945
6196.222
6193.427
6186.705
6176.492
6163.416
6148.309
6132.227
6116.362
6102.279
6092.011
6087.804
6092.076
6107.166
6134.545
6175.374
6230.255
6298.508
6378.094
6464.416
6551.272
6633.413
6703.256
6747.088
6774.244
6797.82
6827.853
6879.718
6928.573
6973.223
7025.319
7069.614
7100.579
7131.955
7167.551
7202.947
7236.493
7267.742
7299.322
7334.019
7371.491
7410.277
7449.303
7487.696
7524.673
7559.423
7591.396
7620.393
7646.296
7669.097
7688.996
7706.359
7721.683
7735.51
7748.459
7761.195
7774.385
7788.636
7804.46
7822.257
7842.32
7864.657
7889.283
7916.015
7944.561
7974.564
8005.633
8037.363
8069.349
8101.207
8132.592
8163.209
8192.821
8221.251
8248.376
8274.123
8298.458
8321.384
8342.933
8363.154
8382.113
8399.893
8416.594
8432.296
8447.028
8460.838
8473.81
8485.995
8497.456
8508.205
8518.414
8528.19
8538.422
8546.829
8554.269
8561.279
8567.87
8573.935
8579.455
8584.456
8588.96
8592.982
8596.538
8599.646
8602.326
8604.6
8606.492
8608.026
8609.231
8610.132
8610.755
8611.126
8611.271
8611.214
8610.978
8610.584
8610.05
8609.391
8608.622
8607.753
8606.79
8605.737
8604.598
8603.391
8602.169
8601.06
8600.321
8600.311
8601.248
8602.889
8604.774
8606.679
8608.558
8610.422
8612.281
8614.136
8615.987
8617.836
8619.685
8621.537
8623.394
8625.26
8627.136
8629.027
8630.936
8632.866
8634.822
8636.808
8638.829
8640.888
8642.989
8645.137
8647.333
8649.581
8651.882
8654.238
8656.648
8659.11
8661.616
8664.159
8666.744
8669.626
8671.888
8673.25
8675.313
8678.043
8680.943
8683.751
8686.483
8689.142
8691.728
8694.255
8696.74
8699.181
8701.562
8703.873
8706.108
8708.267
8710.347
8712.343
8714.251
8716.069
8717.796
8719.431
8720.975
8722.427
8723.788
8725.058
8726.239
8727.333
8728.341
8729.267
8730.112
8730.88
8731.573
8732.193
8732.744
8733.229
8733.649
8734.009
8734.309
8734.553
8734.741
8734.869
8734.923
8734.885
8734.726
8734.416
8733.921
8733.236
8732.422
8731.546
8730.63
8729.647
8728.585
8727.485
8726.565
8725.531
8724.189
8722.663
8721.097
8719.539
8717.989
8716.444
8714.898
8713.344
8711.772
8710.178
8708.562
8706.922
8705.259
8703.573
8701.862
8700.126
8698.367
8696.585
8694.78
8692.955
8691.11
8689.246
8687.366
8685.47
8683.56
8681.638
8679.703
8677.759
8675.805
8673.843
8671.873
8669.897
8667.915
8665.928
8663.935
8661.938
8659.935
8657.929
8655.917
8653.901
8651.879
8649.852
8647.82
8645.783
8643.738
8641.688
8639.63
8637.564
8635.49
8633.408
8631.315
8629.213
8627.098
8624.972
8622.831
8620.675
8618.503
8616.311
8614.098
8611.862
8609.599
8607.306
8604.978
8602.611
8600.2
8597.737
8595.214
8592.623
8589.953
8587.191
8584.322
8581.329
8578.195
8574.899
8571.434
8567.81
8564.099
8560.454
8557.164
8554.592
8553.14
8553.354
8555.547
4596.458
4551.384
4511.614
4472.307
4437.026
4407.673
4389.387
4385.351
4394.365
4380.045
4346.296
4321.058
4312.521
4317.381
4334.769
4363.891
4404.312
4455.891
4518.705
4593.358
4679.584
4777.043
4885.429
5005.269
5135.492
5275.979
5424.588
5580.72
5743.225
5909.808
6082.12
6296.208
6476.079
6652.602
6824.129
6989.438
7147.393
7296.104
7433.065
7556.998
7664.501
7751.195
7817.696
7864.235
7890.178
7895.375
7880.317
7845.923
7793.477
7724.932
7642.264
7547.361
7441.558
7326.914
7205.994
7081.067
6954.118
6827.011
6701.239
6577.811
6457.707
6341.902
6230.585
6124.262
6023.724
5929.434
5841.453
5759.23
5681.001
5613.288
5555.723
5503.061
5455.2
5413.398
5377.843
5347.892
5322.681
5301.687
5284.401
5269.71
5257.075
5246.27
5236.825
5228.208
5219.803
5211.036
5201.634
5191.739
5181.044
5169.871
5159.931
5152.712
5149.348
5151.027
5158.894
5174.005
5196.946
5228.075
5267.443
5314.676
5369.364
5430.792
5498.026
5570.092
5646.367
5724.408
5802.721
5880.079
5955.929
6028.73
6098.657
6163.701
6222.705
6274.448
6317.631
6350.899
6372.176
6378.791
6369.48
6342.774
6297.158
6231.537
6144.815
6037.921
5914.041
5777.248
5630.451
5476.012
5328.893
5203.989
5100.539
5013.648
4943.923
4895.491
4870.301
4867.707
4885.594
4920.569
4969.588
5029.762
5098.367
5173.057
5252.376
5335.482
5421.596
5509.827
5599.391
5688.317
5773.932
5854.601
5926.555
5985.994
6032.244
6067.415
6093.597
6115.017
6137.213
6161.32
6183.727
6201.262
6213.176
6219.743
6221.453
6218.555
6211.121
6199.32
6183.55
6164.378
6142.7
6119.621
6096.487
6074.831
6056.704
6044.563
6040.919
6048.055
6067.835
6101.5
6149.001
6208.93
6279.736
6358.129
6438.839
6518.049
6588.239
6641.363
6686.301
6733.554
6784.116
6839.169
6895.925
6951.844
7003.715
7046.483
7085.127
7128.305
7173.203
7212.494
7245.947
7277.799
7311.825
7348.637
7386.168
7423.574
7461.111
7498.57
7535.13
7569.855
7601.954
7630.868
7656.356
7678.451
7697.423
7713.71
7727.901
7740.618
7752.479
7764.169
7776.39
7789.788
7804.899
7822.147
7841.804
7863.763
7888.184
7914.844
7943.421
7973.536
8004.773
8036.712
8068.925
8101.002
8132.578
8163.345
8193.054
8221.523
8248.629
8274.303
8298.519
8321.287
8342.649
8362.663
8381.404
8398.962
8415.429
8430.889
8445.422
8459.1
8471.988
8484.13
8495.582
8506.399
8516.712
8526.554
8535.865
8543.969
8551.473
8558.646
8565.365
8571.53
8577.143
8582.234
8586.826
8590.935
8594.577
8597.768
8600.528
8602.879
8604.844
8606.447
8607.715
8608.674
8609.352
8609.775
8609.968
8609.958
8609.768
8609.419
8608.932
8608.327
8607.619
8606.823
8605.955
8605.031
8604.074
8603.123
8602.243
8601.54
8601.156
8601.256
8601.974
8603.251
8604.838
8606.53
8608.258
8610.018
8611.808
8613.621
8615.45
8617.292
8619.145
8621.009
8622.885
8624.773
8626.674
8628.591
8630.526
8632.483
8634.464
8636.473
8638.514
8640.592
8642.709
8644.869
8647.076
8649.332
8651.639
8653.997
8656.407
8658.866
8661.368
8663.92
8666.484
8669.093
8671.619
8674.241
8676.912
8679.461
8681.875
8684.335
8686.883
8689.457
8692.006
8694.516
8696.99
8699.425
8701.81
8704.133
8706.383
8708.556
8710.649
8712.657
8714.577
8716.407
8718.146
8719.792
8721.344
8722.804
8724.172
8725.447
8726.632
8727.727
8728.736
8729.66
8730.501
8731.264
8731.949
8732.559
8733.098
8733.567
8733.968
8734.304
8734.576
8734.783
8734.924
8734.992
8734.979
8734.873
8734.657
8734.313
8733.819
8733.172
8732.404
8731.554
8730.649
8729.686
8728.678
8727.637
8726.55
8725.265
8723.817
8722.334
8720.875
8719.423
8717.95
8716.449
8714.922
8713.372
8711.801
8710.206
8708.586
8706.939
8705.267
8703.57
8701.847
8700.1
8698.329
8696.535
8694.72
8692.884
8691.029
8689.156
8687.267
8685.363
8683.445
8681.515
8679.574
8677.624
8675.664
8673.697
8671.723
8669.743
8667.757
8665.767
8663.771
8661.772
8659.768
8657.76
8655.748
8653.731
8651.71
8649.683
8647.652
8645.616
8643.573
8641.525
8639.469
8637.406
8635.336
8633.257
8631.169
8629.071
8626.962
8624.842
8622.708
8620.561
8618.397
8616.216
8614.016
8611.794
8609.547
8607.273
8604.968
8602.628
8600.249
8597.824
8595.349
8592.816
8590.218
8587.546
8584.792
8581.947
8579.007
8575.971
8572.858
8569.701
8566.59
8563.629
8561.025
8558.911
8557.605
8557.209
8558.027
5128.904
5086.085
5043.293
4998.11
4950.3
4898.485
4848.628
4798.552
4748.38
4698.295
4648.979
4602.559
4556.776
4512.982
4473.208
4436.317
4400.751
4376.424
4358.678
4343.265
4325.345
4308.266
4297.262
4295.47
4303.981
4323.129
4353.238
4394.498
4447.112
4509.832
4583.882
4670.507
4768.798
4878.628
4999.558
5130.903
5272.072
5422.335
5580.273
5744.266
5912.878
6085.296
6251.988
6426.615
6600.244
6770.314
6934.454
7091.106
7238.731
7375.262
7498.629
7605.553
7692.943
7760.095
7806.58
7832.032
7836.456
7820.424
7784.976
7731.524
7661.746
7577.638
7481.559
7375.4
7260.921
7140.361
7015.932
6889.739
6763.431
6637.991
6514.986
6395.931
6281.119
6171.011
6066.451
5967.929
5875.681
5789.53
5709.908
5637.28
5573.121
5516.922
5466.847
5422.33
5383.686
5350.948
5323.668
5301.198
5282.968
5268.264
5256.28
5246.493
5238.377
5231.246
5224.35
5216.913
5208.281
5198.096
5186.224
5172.618
5157.931
5143.531
5130.967
5121.857
5117.976
5120.961
5132.108
5152.337
5182.053
5221.263
5269.704
5326.978
5392.394
5465.01
5543.5
5626.605
5712.265
5799.245
5886.305
5971.706
6053.957
6132.143
6205.062
6271.033
6328.852
6376.759
6413.259
6436.343
6442.395
6429.797
6395.827
6338.735
6257.332
6150.65
6018.928
5865.116
5693.729
5511.423
5328.175
5161.231
5026.055
4920.778
4838.239
4776.362
4737.018
4721.935
4729.566
4758.326
4805.378
4866.93
4939.416
5020.632
5108.365
5200.111
5294.075
5389.287
5485.007
5580.336
5673.807
5763.468
5847.376
5923.158
5988.811
6043.557
6088.177
6124.512
6155.003
6182.159
6206.949
6228.213
6244.259
6254.258
6258.176
6256.322
6248.969
6236.186
6218.202
6195.458
6168.632
6138.518
6106.135
6072.792
6040.317
6011.088
5987.767
5973.083
5969.636
5979.76
6004.803
6044.776
6098.239
6163.714
6238.61
6318.263
6397.763
6471.744
6537.812
6600.963
6664.702
6727.366
6790.873
6854.788
6914.946
6970.412
7022.243
7073.108
7124.494
7173.082
7215.523
7254.061
7291.914
7329.48
7366.61
7403.42
7440.354
7477.602
7514.168
7549.185
7582.192
7612.756
7640.582
7665.449
7687.246
7706.044
7722.155
7736.01
7748.155
7759.274
7770.141
7781.522
7794.113
7808.478
7825.022
7843.938
7865.672
7889.878
7916.425
7944.994
7975.172
8006.519
8038.604
8070.983
8103.217
8134.921
8165.775
8195.523
8223.975
8251.01
8276.565
8300.616
8323.184
8344.319
8364.092
8382.58
8399.872
8416.046
8431.187
8445.429
8458.873
8471.567
8483.553
8494.876
8505.575
8515.698
8525.233
8534.141
8542.364
8550.076
8557.362
8564.137
8570.335
8575.982
8581.112
8585.745
8589.895
8593.576
8596.804
8599.598
8601.979
8603.97
8605.596
8606.883
8607.859
8608.551
8608.987
8609.194
8609.197
8609.022
8608.695
8608.236
8607.665
8607.004
8606.271
8605.487
8604.677
8603.87
8603.109
8602.453
8601.979
8601.782
8601.962
8602.59
8603.638
8604.975
8606.469
8608.054
8609.707
8611.417
8613.172
8614.962
8616.778
8618.617
8620.476
8622.353
8624.247
8626.159
8628.091
8630.044
8632.019
8634.019
8636.048
8638.108
8640.204
8642.338
8644.515
8646.736
8649.004
8651.323
8653.692
8656.11
8658.576
8661.085
8663.635
8666.205
8668.807
8671.436
8674.045
8676.556
8679.033
8681.554
8684.148
8686.789
8689.429
8692.035
8694.597
8697.115
8699.588
8702.005
8704.357
8706.635
8708.835
8710.953
8712.986
8714.929
8716.781
8718.539
8720.202
8721.772
8723.246
8724.625
8725.91
8727.102
8728.203
8729.215
8730.141
8730.982
8731.74
8732.42
8733.023
8733.551
8734.007
8734.39
8734.704
8734.948
8735.121
8735.22
8735.243
8735.18
8735.025
8734.765
8734.389
8733.885
8733.256
8732.516
8731.689
8730.795
8729.84
8728.827
8727.74
8726.559
8725.271
8723.916
8722.527
8721.113
8719.669
8718.189
8716.675
8715.132
8713.566
8711.976
8710.363
8708.723
8707.057
8705.366
8703.65
8701.909
8700.145
8698.357
8696.548
8694.719
8692.869
8691.001
8689.117
8687.216
8685.302
8683.374
8681.435
8679.486
8677.527
8675.561
8673.587
8671.607
8669.622
8667.631
8665.636
8663.638
8661.635
8659.629
8657.619
8655.606
8653.588
8651.567
8649.541
8647.511
8645.475
8643.435
8641.388
8639.336
8637.276
8635.21
8633.136
8631.053
8628.961
8626.859
8624.746
8622.622
8620.484
8618.332
8616.164
8613.979
8611.775
8609.548
8607.298
8605.021
8602.714
8600.374
8597.996
8595.577
8593.112
8590.597
8588.028
8585.401
8582.717
8579.979
8577.199
8574.405
8571.636
8568.966
8566.478
8564.305
8562.549
8561.397
8560.883
8561.194
5528.469
5485.788
5445.857
5404.903
5367.949
5327.02
5289.922
5252.066
5212.72
5172.509
5131.564
5089.574
5046.175
5001.324
4953.186
4897.256
4847.452
4797.788
4747.785
4697.793
4648.134
4599.681
4552.733
4507.506
4464.756
4426.316
4392.882
4363.452
4338.189
4315.865
4296.117
4280.946
4272.316
4271.774
4280.33
4298.519
4326.735
4365.539
4415.332
4477.098
4550.178
4634.81
4731.176
4839.216
4958.535
5088.491
5228.266
5376.939
5533.278
5695.992
5863.775
6034.42
6204.719
6377.526
6548.66
6716.432
6878.985
7034.444
7180.381
7315.064
7436.419
7541.285
7626.839
7691.647
7735.18
7757.369
7758.467
7739.2
7700.689
7644.465
7572.337
7486.321
7388.716
7281.593
7167.076
7047.165
6923.794
6799.323
6675.359
6552.836
6432.679
6315.605
6202.475
6094.56
5992.819
5897.404
5808.363
5725.776
5650.151
5581.743
5520.671
5466.883
5419.864
5379.046
5344.168
5315.046
5291.349
5272.57
5258.113
5247.239
5239.153
5233.162
5228.596
5224.651
5220.404
5214.754
5206.45
5195.018
5180.6
5163.239
5143.48
5122.349
5101.661
5083.989
5072.055
5068.229
5073.944
5090.607
5118.321
5157.388
5207.557
5268.287
5338.739
5418.001
5504.716
5597.265
5693.805
5792.5
5891.499
5989.065
6083.463
6173.224
6256.794
6332.353
6399.217
6454.892
6496.676
6521.456
6527.063
6510.889
6468.138
6396.661
6295.683
6164.079
6001.21
5809.309
5594.92
5364.779
5130.319
4927.49
4787.974
4696.998
4628.325
4576.146
4546.017
4542.822
4563.458
4604.82
4663.025
4735.92
4823.087
4922.902
5029.447
5136.968
5243.339
5348.417
5452.36
5554.852
5654.532
5750.455
5840.651
5923.105
5996.342
6059.769
6113.661
6159.157
6197.618
6230.186
6257.524
6279.398
6295
6303.631
6305.135
6299.638
6287.484
6268.825
6243.804
6212.913
6176.827
6136.217
6091.944
6045.247
5998.329
5954.065
5915.678
5886.669
5870.282
5869.048
5884.471
5916.931
5965.428
6028.244
6102.443
6183.717
6268.029
6352.072
6433.364
6512.387
6589.901
6665.478
6739.732
6811.49
6878.829
6942.462
7003.332
7061.324
7116.478
7168.173
7215.939
7261.103
7304.602
7345.782
7385.113
7423.683
7461.456
7498.086
7533.255
7566.633
7597.936
7626.989
7653.563
7677.406
7698.455
7716.774
7732.598
7746.292
7758.336
7769.341
7780.012
7791.077
7803.234
7817.082
7833.072
7851.529
7872.626
7896.311
7922.421
7950.665
7980.589
8011.719
8043.619
8075.843
8107.934
8139.488
8170.174
8199.727
8227.952
8254.733
8280.011
8303.766
8326.02
8346.83
8366.272
8384.435
8401.418
8417.321
8432.239
8446.269
8459.499
8472
8483.821
8494.997
8505.542
8515.467
8524.799
8533.595
8541.837
8549.527
8556.718
8563.419
8569.595
8575.241
8580.382
8585.031
8589.199
8592.899
8596.144
8598.952
8601.343
8603.341
8604.971
8606.261
8607.237
8607.929
8608.366
8608.574
8608.582
8608.415
8608.1
8607.661
8607.122
8606.502
8605.825
8605.116
8604.401
8603.714
8603.095
8602.594
8602.272
8602.193
8602.42
8602.989
8603.886
8605.042
8606.376
8607.831
8609.383
8611.013
8612.705
8614.446
8616.228
8618.043
8619.887
8621.756
8623.65
8625.567
8627.508
8629.473
8631.465
8633.484
8635.533
8637.615
8639.732
8641.889
8644.088
8646.331
8648.619
8650.956
8653.342
8655.776
8658.258
8660.781
8663.343
8665.932
8668.55
8671.18
8673.782
8676.352
8678.941
8681.568
8684.223
8686.887
8689.543
8692.169
8694.757
8697.304
8699.802
8702.244
8704.622
8706.927
8709.155
8711.3
8713.358
8715.327
8717.202
8718.982
8720.667
8722.257
8723.749
8725.144
8726.443
8727.646
8728.757
8729.776
8730.705
8731.547
8732.304
8732.981
8733.579
8734.098
8734.541
8734.909
8735.203
8735.422
8735.565
8735.63
8735.615
8735.513
8735.318
8735.023
8734.62
8734.106
8733.481
8732.754
8731.939
8731.048
8730.087
8729.055
8727.947
8726.762
8725.511
8724.198
8722.829
8721.414
8719.958
8718.466
8716.942
8715.389
8713.809
8712.203
8710.571
8708.913
8707.229
8705.519
8703.784
8702.025
8700.243
8698.439
8696.614
8694.768
8692.904
8691.022
8689.123
8687.21
8685.284
8683.345
8681.395
8679.436
8677.468
8675.493
8673.512
8671.525
8669.533
8667.537
8665.537
8663.534
8661.528
8659.519
8657.507
8655.491
8653.473
8651.451
8649.425
8647.395
8645.361
8643.322
8641.279
8639.229
8637.174
8635.112
8633.043
8630.966
8628.881
8626.787
8624.684
8622.57
8620.444
8618.306
8616.154
8613.986
8611.802
8609.6
8607.378
8605.133
8602.864
8600.568
8598.243
8595.887
8593.497
8591.072
8588.611
8586.117
8583.593
8581.05
8578.506
8575.987
8573.535
8571.207
8569.073
8567.224
8565.742
8564.73
8564.225
8564.349
5675.9
5671.069
5647.318
5608.281
5564.214
5521.452
5479.873
5440.698
5403.502
5365.859
5322.783
5285.663
5248.488
5210.249
5170.639
5129.707
5087.408
5043.44
4997.818
4951.167
4904.579
4855.696
4806.066
4755.803
4705.386
4654.993
4605.029
4556.093
4508.311
4461.833
4418.115
4379.139
4344.601
4314.282
4288.041
4266.601
4251.485
4243.615
4243.837
4252.848
4271.199
4299.308
4337.571
4386.432
4446.428
4517.789
4600.687
4695.279
4801.517
4919.078
5047.367
5185.541
5332.569
5487.162
5648.022
5813.53
5981.772
6150.755
6319.979
6487.494
6651.823
6811.696
6964.902
7108.4
7239.698
7356.553
7456.422
7536.992
7596.673
7634.862
7651.599
7647.37
7623.106
7580.064
7519.939
7444.594
7356.248
7257.086
7149.174
7035.143
6916.961
6796.384
6675.054
6554.163
6435.438
6319.556
6206.784
6098.405
5995.56
5898.74
5807.999
5723.449
5645.351
5574.075
5509.796
5452.604
5402.629
5359.773
5323.576
5293.464
5268.985
5249.877
5235.891
5226.513
5220.916
5217.983
5216.746
5216.643
5217.034
5216.597
5214.042
5206.718
5193.785
5175.914
5153.501
5126.813
5096.432
5064.367
5034.563
5011.629
4998.974
4998.45
5010.088
5034.967
5073.83
5126.227
5191.382
5268.344
5355.852
5452.871
5557.76
5668.228
5781.813
5895.957
6008.697
6118.398
6222.888
6319.811
6406.29
6486.434
6551.89
6600.309
6629.105
6635.147
6614.645
6561.443
6471.671
6346.298
6185.347
5985.584
5747.386
5479.825
5188.179
4859.571
4555.564
4470.446
4434.235
4389.293
4349.219
4329.597
4338.575
4374.151
4422.873
4478.18
4554.745
4660.677
4793.098
4933.191
5064.235
5186.141
5302.224
5415.032
5525.521
5633.224
5736.684
5834.262
5924.417
6006.097
6078.609
6141.926
6196.599
6243.015
6281.712
6313.092
6337.09
6353.397
6361.384
6360.935
6352.135
6335.084
6310.079
6277.337
6237.175
6189.969
6136.372
6077.211
6013.887
5948.847
5885.481
5827.782
5780.335
5747.531
5732.633
5737.436
5762.413
5806.693
5868.56
5945.255
6032.835
6127.289
6224.866
6322.203
6417.944
6511.494
6601.966
6688.539
6770.358
6846.889
6918.485
6985.669
7048.526
7107.79
7164.087
7217.306
7267.55
7314.995
7359.631
7402.249
7443.456
7482.762
7519.751
7554.636
7587.415
7617.829
7645.748
7671.119
7693.882
7714.053
7731.762
7747.242
7760.826
7772.931
7784.084
7794.895
7806.002
7818.059
7831.65
7847.231
7865.276
7885.918
7908.987
7934.323
7961.769
7990.924
8021.35
8052.618
8084.24
8115.733
8146.717
8176.865
8205.901
8233.624
8259.912
8284.707
8307.995
8329.795
8350.161
8369.17
8386.921
8403.523
8419.085
8433.7
8447.454
8460.433
8472.713
8484.353
8495.371
8505.764
8515.554
8524.803
8533.542
8541.743
8549.362
8556.401
8562.949
8569.044
8574.664
8579.798
8584.447
8588.616
8592.319
8595.568
8598.378
8600.77
8602.767
8604.395
8605.681
8606.653
8607.34
8607.774
8607.983
8607.995
8607.838
8607.537
8607.12
8606.61
8606.031
8605.406
8604.763
8604.129
8603.538
8603.027
8602.638
8602.417
8602.412
8602.661
8603.185
8603.979
8605.006
8606.215
8607.559
8609.01
8610.561
8612.19
8613.881
8615.623
8617.407
8619.229
8621.086
8622.974
8624.892
8626.84
8628.817
8630.824
8632.863
8634.934
8637.04
8639.184
8641.369
8643.595
8645.866
8648.183
8650.548
8652.96
8655.419
8657.924
8660.469
8663.052
8665.666
8668.303
8670.953
8673.602
8676.256
8678.924
8681.604
8684.293
8686.978
8689.664
8692.315
8694.93
8697.506
8700.034
8702.505
8704.912
8707.247
8709.503
8711.677
8713.764
8715.76
8717.664
8719.472
8721.182
8722.799
8724.308
8725.721
8727.037
8728.256
8729.381
8730.413
8731.354
8732.201
8732.959
8733.634
8734.226
8734.738
8735.17
8735.525
8735.801
8735.999
8736.117
8736.154
8736.107
8735.972
8735.745
8735.421
8734.996
8734.468
8733.84
8733.115
8732.301
8731.408
8730.44
8729.399
8728.286
8727.106
8725.86
8724.55
8723.181
8721.761
8720.299
8718.801
8717.27
8715.705
8714.111
8712.489
8710.839
8709.162
8707.458
8705.729
8703.974
8702.196
8700.395
8698.572
8696.728
8694.866
8692.985
8691.087
8689.174
8687.246
8685.306
8683.354
8681.393
8679.422
8677.444
8675.459
8673.469
8671.474
8669.475
8667.472
8665.467
8663.459
8661.448
8659.435
8657.42
8655.402
8653.382
8651.359
8649.333
8647.304
8645.271
8643.234
8641.193
8639.147
8637.096
8635.039
8632.976
8630.906
8628.829
8626.744
8624.651
8622.549
8620.437
8618.314
8616.179
8614.032
8611.872
8609.696
8607.505
8605.296
8603.068
8600.821
8598.553
8596.263
8593.952
8591.62
8589.27
8586.906
8584.537
8582.175
8579.839
8577.558
8575.367
8573.315
8571.456
8569.858
8568.581
8567.691
8567.215
8567.261
5675.521
5657.068
5612.316
5574.557
5535.941
5498.324
5461.955
5426.642
5391.966
5357.711
5323.928
5288.821
5252.677
5215.256
5176.475
5136.092
5094.032
5050.14
5004.278
4956.906
4909.286
4860.46
4810.58
4759.925
4708.786
4657.144
4604.967
4552.768
4501.538
4451.906
4404.707
4361.513
4323.384
4290.385
4262.675
4240.859
4225.812
4218.193
4218.626
4227.648
4245.706
4273.259
4310.792
4358.647
4417.253
4487.015
4568.243
4661.106
4765.558
4881.303
5007.748
5144.031
5289.144
5441.64
5600.093
5762.351
5926.399
6091.086
6255.84
6419.811
6581.162
6737.473
6886.202
7024.531
7149.844
7259.73
7351.972
7424.673
7476.449
7506.822
7515.932
7504.544
7473.754
7425.114
7360.453
7281.629
7191.241
7091.442
6984.416
6872.083
6755.993
6638.726
6521.534
6405.146
6291.561
6181.827
6076.161
5974.978
5878.768
5787.87
5702.492
5622.92
5549.623
5483.043
5423.373