/*--------------------------------*- C++ -*----------------------------------*\
| =========                 |                                                 |
| \\      /  F ield         | foam-extend: Open Source CFD                    |
|  \\    /   O peration     | Version:     3.1                                |
|   \\  /    A nd           | Web:         http://www.extend-project.de       |
|    \\/     M anipulation  |                                                 |
\*---------------------------------------------------------------------------*/
FoamFile
{
    version     2.0;
    format      ascii;
    class       volScalarField;
    location    "2.5";
    object      nut;
}
// * * * * * * * * * * * * * * * * * * * * * * * * * * * * * * * * * * * * * //

dimensions      [0 2 -1 0 0 0 0];

internalField   nonuniform List<scalar> 
119952
(
2.508673e-05
1.716975e-05
1.781953e-05
1.976574e-05
2.109819e-05
2.019898e-05
1.962714e-05
1.921863e-05
1.889709e-05
1.861016e-05
1.834166e-05
1.807759e-05
1.780982e-05
1.753272e-05
1.724492e-05
1.694552e-05
1.663335e-05
1.630913e-05
1.595854e-05
1.557429e-05
1.921078e-05
1.833339e-05
1.798819e-05
2.283666e-05
2.223469e-05
2.200257e-05
2.185905e-05
2.19183e-05
2.189873e-05
2.788629e-05
1.46354e-05
1.652187e-05
1.883008e-05
2.100311e-05
2.320481e-05
2.548036e-05
2.787472e-05
3.034563e-05
3.28723e-05
3.734797e-05
0.0001578379
0.0001801004
0.0002059445
0.000233961
0.0002632254
0.0002931505
0.0003233655
0.0003536922
0.000383855
0.0005603532
0.0005919203
0.0006238862
0.000656493
0.0006899786
0.0007246903
0.0007607016
0.0007980085
0.0008365002
0.0008763665
0.0009176085
0.00095853
0.001000411
0.001043578
0.001088175
0.001134301
0.001182147
0.001232162
0.001286667
0.001330116
0.00134267
0.001361342
0.001385649
0.001406818
0.001422075
0.001431578
0.001439175
0.001446301
0.001453423
0.001460762
0.001468336
0.001476091
0.001483957
0.001491872
0.001499822
0.001507933
0.001516719
0.001527437
0.001543449
0.00156444
0.001585399
0.001609394
0.001642849
0.001674923
0.001695611
0.001702358
0.001687994
0.001611561
0.001462617
0.001421852
0.001404944
0.001400444
0.001400724
0.001403123
0.001406436
0.001409949
0.00141335
0.001416483
0.001419278
0.001421715
0.001423779
0.001425454
0.00142673
0.001427609
0.001428099
0.001428207
0.00142794
0.001427307
0.001426323
0.001425005
0.001423371
0.001421431
0.0014192
0.001416691
0.001413924
0.001410912
0.001407672
0.001404214
0.001400554
0.00139671
0.0013927
0.001388543
0.001384256
0.001379852
0.001375339
0.001370727
0.001366018
0.001361216
0.001356319
0.001351328
0.001346239
0.001341052
0.001335768
0.001330386
0.001324913
0.001319377
0.001313951
0.001309549
0.00130026
0.001287376
0.00127352
0.001259125
0.001244681
0.001230487
0.001216622
0.001203361
0.001190843
0.00117907
0.001168016
0.001157654
0.001147949
0.001138833
0.001130208
0.001122019
0.001114267
0.00110693
0.001099952
0.001093267
0.001086822
0.001080576
0.001074495
0.00106855
0.001062718
0.001056976
0.001051304
0.001045683
0.001040097
0.001034527
0.001028954
0.00102336
0.001017728
0.00101204
0.00100628
0.001000431
0.0009944779
0.0009884066
0.0009822032
0.0009758551
0.0009693507
0.0009626777
0.0009558267
0.0009487881
0.0009415562
0.0009341217
0.0009264856
0.0009186645
0.0009108988
0.0009045586
0.0007642339
0.00061368
0.0005503662
0.0005176045
0.0004968372
0.0004817699
0.000469828
0.0004597897
0.0004509972
0.0004430695
0.00043577
0.0004289511
0.0004224986
0.0004163271
0.0004103689
0.0004045756
0.0003989128
0.0003933546
0.0003878803
0.0003824744
0.0003771243
0.0003718204
0.0003665558
0.0003613251
0.0003561245
0.0003509512
0.0003458036
0.0003406853
0.000335595
0.0003305456
0.0003255476
0.0003206051
0.0003158012
0.0003113209
0.0003075123
0.0003096926
0.0003211929
0.0003322498
0.0003423488
0.0003515507
0.0003600075
0.0003678666
0.0003752595
0.0003822957
0.0003890612
0.0003956177
0.0004020129
0.0004082865
0.0004144661
0.0004205719
0.0004266192
0.0004326194
0.0004385812
0.0004445116
0.0004504157
0.0004562981
0.0004621622
0.0004680112
0.0004738477
0.0004796739
0.000485494
0.0004913067
0.0004971101
0.0005029087
0.0005087031
0.0005144936
0.0005202807
0.000526066
0.000531852
0.000537718
0.0007585438
0.0007856818
0.0008139876
0.0008428607
0.0008715782
0.000899645
0.0009265953
0.0009520883
0.0009759308
0.0009980615
0.001018533
0.001037465
0.001055012
0.001071343
0.001086618
0.001100988
0.001114581
0.001127509
0.001139865
0.001151729
0.001163166
0.001174231
0.00118497
0.001195421
0.001205618
0.001215585
0.001225347
0.001234921
0.001244327
0.001253577
0.001262684
0.001271659
0.001280512
0.001289251
0.001297883
0.001306414
0.00131485
0.001323193
0.001331446
0.001339609
0.001347675
0.00135563
0.001363446
0.001371054
0.001378301
0.001384842
0.001390407
0.001395537
0.001400472
0.001405261
0.001409957
0.001414584
0.001419125
0.001424125
0.00142689
0.001431073
0.001439116
0.001450655
0.001464908
0.001480986
0.00149805
0.001515375
0.001532413
0.001548783
0.001564252
0.001578714
0.001592157
0.001604629
0.001616216
0.001627017
0.001637133
0.001646661
0.001655688
0.001664286
0.001672521
0.001680444
0.001688101
0.001695526
0.00170275
0.001709798
0.00171669
0.001723444
0.001730073
0.001736591
0.001743008
0.001749334
0.001755577
0.001761744
0.00176784
0.001773873
0.001779847
0.001785767
0.001791636
0.001797458
0.001803237
0.001808975
0.001814676
0.001820341
0.001825972
0.001831572
0.001837142
0.001842684
0.001848198
0.001853686
0.001859149
0.001864588
0.001870003
0.001875395
0.001880765
0.001886115
0.001891446
0.001896758
0.001902054
0.001907335
0.001912603
0.001917863
0.001923115
0.001928366
0.001933619
0.00193888
0.001944155
0.001949454
0.001954786
0.001960164
0.001965603
0.001971123
0.001976751
0.001982519
0.001988477
0.00199469
0.002001258
0.002008329
0.002016134
0.002025101
0.002036066
0.002050862
0.002073527
0.002114382
0.002121926
2.106827e-05
2.318816e-05
2.577744e-05
2.872776e-05
3.193365e-05
3.529355e-05
3.870547e-05
4.210309e-05
4.588584e-05
0.0001792185
0.0002151064
0.0002549145
0.0002959812
0.0003365552
0.0003758666
0.000413615
0.0004498852
0.0004847947
0.0007033409
0.0007384664
0.0007749342
0.0008116512
0.0008489123
0.0008871455
0.0009265704
0.0009672304
0.001009154
0.001052285
0.001096862
0.00114179
0.001187901
0.001236315
0.001287254
0.001340837
0.001397092
0.001455826
0.001516721
0.001570445
0.001615543
0.001663614
0.001715133
0.00176947
0.001825806
0.001883398
0.001941505
0.001999374
0.002056289
0.002111843
0.002165158
0.00221626
0.002264932
0.00231119
0.002355161
0.002396989
0.00243684
0.002474546
0.003025293
0.003061737
0.003096112
0.003129332
0.00316195
0.0031945
0.003227382
0.003261027
0.003295645
0.003331529
0.003368994
0.003408103
0.00344887
0.003491318
0.003535502
0.003581223
0.003628594
0.003677212
0.003727292
0.003772783
0.00381278
0.003852213
0.00389005
0.003923591
0.003953495
0.003978657
0.004000507
0.004019826
0.004037311
0.004053506
0.0040688
0.004083505
0.004097901
0.004112262
0.004126924
0.004142352
0.004159312
0.004178909
0.004202593
0.004229882
0.004259237
0.004290636
0.004323449
0.004351366
0.004367663
0.004372337
0.004360356
0.004330151
0.004299602
0.00428134
0.004267203
0.00425668
0.004248572
0.00424213
0.004236941
0.004232742
0.004229387
0.004226758
0.004224756
0.004223292
0.004222291
0.004221686
0.004221421
0.004221447
0.004221719
0.004222199
0.004222851
0.004223647
0.004224561
0.004225571
0.004226656
0.004227796
0.004228971
0.004230164
0.004231358
0.004232538
0.00423369
0.004234801
0.004235865
0.004236876
0.004237836
0.004238747
0.00423961
0.004240431
0.004241211
0.004241951
0.004242652
0.004243312
0.004243932
0.00424451
0.004245046
0.004245543
0.004246009
0.004246459
0.004246932
0.004247505
0.004248313
0.004249466
0.004250528
0.004250803
0.004250213
0.004248652
0.004246045
0.004242345
0.004237598
0.00423193
0.00422549
0.004218441
0.004210952
0.004203185
0.004195283
0.004187362
0.004179528
0.004171885
0.004164524
0.004157513
0.004150887
0.00414466
0.004138831
0.004133393
0.004128337
0.004123646
0.004119301
0.004115282
0.004111564
0.004108123
0.004104928
0.004101948
0.004099147
0.004096486
0.00409393
0.004091436
0.004088965
0.004086477
0.004083932
0.004081295
0.004078531
0.00407561
0.004072505
0.004069191
0.00406565
0.004061867
0.004057832
0.004053548
0.004049044
0.004044432
0.004040293
0.004041428
0.003715095
0.003478241
0.003371254
0.003315264
0.00328023
0.003254146
0.003232189
0.003212436
0.003194138
0.003177018
0.003160979
0.003145975
0.003131953
0.003118839
0.003106545
0.003094977
0.003084047
0.003073667
0.003063759
0.003054251
0.003045078
0.003036186
0.003027523
0.003019059
0.003010764
0.003002624
0.002994629
0.002986784
0.002979112
0.002971661
0.002964526
0.002957887
0.002952106
0.002947957
0.002947188
0.002953038
0.002963378
0.002976462
0.002991187
0.00300685
0.003022948
0.003039123
0.003055125
0.003070794
0.00308603
0.003100783
0.003115037
0.003128797
0.003142083
0.003154922
0.003167346
0.003179388
0.00319108
0.003202454
0.003213539
0.00322436
0.003234944
0.00324531
0.003255481
0.003265472
0.003275299
0.003284976
0.003294513
0.003303919
0.0033132
0.003322359
0.003331396
0.003340304
0.003349053
0.00335668
0.003994604
0.00402361
0.004045767
0.00406425
0.004081083
0.004097481
0.004114108
0.004131268
0.004149029
0.004167318
0.004185996
0.004204899
0.004223866
0.004242753
0.004261442
0.004279839
0.004297876
0.004315509
0.004332708
0.004349463
0.00436577
0.004381637
0.004397075
0.0044121
0.004426728
0.004440977
0.004454867
0.004468414
0.004481637
0.004494553
0.004507177
0.004519524
0.004531608
0.004543443
0.004555041
0.004566411
0.004577562
0.0045885
0.004599226
0.004609735
0.004620016
0.00463004
0.004639764
0.004649112
0.004657974
0.004666212
0.00467385
0.004681063
0.00468797
0.004694627
0.00470108
0.004707328
0.004713419
0.004719326
0.004724659
0.0047298
0.004735187
0.004741134
0.004747885
0.004755592
0.004764307
0.004774003
0.004784589
0.004795933
0.004807875
0.004820248
0.00483289
0.004845655
0.004858415
0.004871066
0.004883526
0.004895733
0.004907645
0.004919234
0.004930486
0.004941397
0.00495197
0.004962214
0.004972143
0.004981772
0.004991119
0.005000203
0.005009043
0.005017657
0.005026062
0.005034277
0.005042318
0.0050502
0.005057936
0.00506554
0.005073024
0.005080399
0.005087673
0.005094856
0.005101957
0.005108981
0.005115935
0.005122825
0.005129655
0.005136431
0.005143156
0.005149834
0.005156468
0.005163062
0.005169619
0.00517614
0.005182629
0.005189086
0.005195513
0.005201913
0.005208286
0.005214635
0.005220964
0.005227277
0.005233578
0.005239872
0.005246169
0.005252474
0.005258801
0.005265159
0.005271566
0.00527804
0.005284602
0.005291281
0.005298112
0.005305136
0.005312411
0.005320009
0.005328028
0.005336599
0.00534591
0.005356228
0.005367947
0.005381643
0.005398185
0.005418712
0.005445119
0.005477245
0.005505037
6.02738e-05
8.760414e-05
0.0001250094
0.0001467568
0.0001688106
0.0001907602
0.000212763
0.0002344247
0.0002559413
0.0002868775
0.0007213388
0.0009381754
0.001029422
0.001089109
0.001138989
0.0011844
0.001226693
0.001266482
0.001303987
0.001857739
0.001960947
0.002053481
0.002133198
0.00219911
0.002251974
0.002293649
0.002326264
0.002351676
0.002371118
0.002386753
0.002403003
0.00242146
0.002441609
0.002462084
0.002481765
0.002499899
0.002516098
0.002532308
0.00251216
0.002500286
0.002495792
0.002496773
0.002501532
0.002509
0.002518408
0.002529176
0.002540905
0.002553583
0.002566254
0.002579665
0.002593992
0.002609293
0.002625769
0.002643533
0.002662651
0.002682616
0.003154699
0.003178192
0.00320229
0.003227519
0.003254056
0.003282255
0.003312552
0.003345307
0.003380963
0.003419757
0.003462125
0.003508567
0.003559215
0.003614277
0.003673864
0.003738021
0.003806654
0.003879614
0.003956556
0.004036684
0.004119349
0.004204027
0.004289881
0.004376037
0.004461656
0.004545911
0.004628039
0.004707235
0.004782797
0.004854202
0.004920892
0.004982455
0.005038719
0.005089676
0.005135445
0.005176295
0.005212728
0.00524714
0.005258043
0.005269303
0.005280964
0.005293249
0.005306443
0.005320855
0.005336754
0.005354423
0.00537407
0.005395944
0.005420221
0.005446926
0.005476105
0.005507759
0.005541843
0.005578151
0.00561653
0.005656399
0.005697161
0.005736448
0.005773753
0.005810417
0.005846602
0.005882827
0.005915128
0.005943374
0.005968871
0.005992359
0.006014298
0.00603505
0.006054915
0.006074158
0.006093034
0.006111821
0.00613086
0.006150575
0.006171559
0.006194473
0.006220128
0.00624838
0.006278327
0.006310326
0.006341771
0.006367059
0.006383282
0.006390376
0.006386947
0.006373851
0.006360439
0.006353094
0.006350045
0.00634907
0.006349286
0.006350144
0.006351323
0.006352595
0.006353836
0.006354997
0.006356067
0.006357056
0.006357989
0.006358893
0.006359799
0.00636074
0.006361743
0.006362833
0.006364035
0.006365369
0.006366854
0.006368506
0.006370335
0.00637235
0.006374555
0.00637695
0.006379534
0.006382301
0.006385246
0.00638836
0.006391638
0.006395074
0.006398664
0.006402403
0.006406288
0.006410314
0.006414473
0.00641876
0.006423163
0.006427674
0.006432284
0.006436982
0.006441762
0.006446621
0.006451562
0.006456596
0.006461748
0.006467059
0.00647259
0.006478378
0.006484266
0.006489946
0.006495327
0.006500346
0.006504883
0.006508837
0.006512136
0.006514727
0.006516597
0.006517753
0.006518229
0.006518083
0.006517382
0.006516205
0.006514641
0.006512792
0.006510761
0.006508654
0.006506549
0.006504515
0.006502607
0.006500874
0.006499361
0.006498094
0.006497096
0.006496384
0.006495963
0.00649583
0.00649598
0.006496399
0.006497057
0.006497926
0.006498975
0.00650016
0.006501436
0.006502759
0.006504081
0.00650536
0.006506552
0.00650762
0.006508529
0.006509248
0.006509754
0.006510028
0.00651006
0.006509844
0.006509394
0.006508705
0.006507762
0.006505783
0.006489203
0.006495529
0.006506829
0.006516693
0.006523319
0.00652658
0.006526863
0.006524684
0.006520519
0.006514802
0.006507907
0.006500152
0.006491795
0.006483042
0.006474057
0.006464966
0.006455867
0.00644683
0.006437905
0.006429124
0.006420506
0.006412074
0.006403832
0.006395802
0.006387992
0.006380416
0.006373099
0.006366079
0.006359416
0.006353209
0.006347616
0.006342921
0.006339573
0.006338295
0.006340074
0.006345392
0.006352585
0.006361864
0.006372649
0.006384484
0.006397029
0.006410033
0.006423312
0.006436726
0.006450165
0.006463562
0.006476846
0.006489968
0.006502892
0.006515592
0.006528053
0.006540262
0.006552217
0.006563916
0.006575365
0.006586571
0.006597542
0.006608291
0.006618828
0.006629165
0.006639312
0.006649281
0.006659081
0.00666872
0.006678201
0.006687524
0.006696679
0.006705702
0.006714861
0.006726694
0.006705452
0.00669343
0.006687376
0.006685443
0.006686506
0.006689882
0.00669515
0.006702037
0.006710342
0.006719889
0.006730519
0.006742077
0.006754416
0.006767392
0.006780875
0.006794743
0.006808886
0.006823209
0.006837629
0.006852076
0.006866492
0.006880828
0.006895045
0.006909114
0.006923009
0.006936711
0.006950208
0.00696349
0.006976551
0.006989386
0.007001995
0.007014379
0.007026539
0.007038479
0.007050201
0.00706171
0.007073008
0.007084095
0.007094969
0.007105623
0.007116043
0.007126204
0.007136073
0.007145598
0.007154718
0.007163375
0.007171576
0.007179399
0.007186916
0.007194175
0.007201208
0.007208029
0.007214661
0.00722108
0.00722718
0.007233072
0.007238925
0.007244867
0.007251023
0.007257508
0.007264413
0.007271799
0.007279697
0.007288111
0.007297022
0.007306388
0.007316152
0.007326247
0.007336602
0.007347145
0.007357806
0.00736852
0.00737923
0.007389885
0.007400443
0.007410871
0.007421141
0.007431236
0.007441141
0.007450851
0.007460361
0.007469675
0.007478794
0.007487728
0.007496483
0.00750507
0.007513498
0.007521778
0.007529921
0.007537936
0.007545833
0.00755362
0.007561306
0.007568898
0.007576402
0.007583824
0.007591167
0.007598436
0.007605631
0.007612756
0.007619811
0.007626794
0.007633706
0.007640543
0.007647312
0.007654043
0.007660744
0.007667418
0.007674065
0.007680688
0.007687288
0.007693867
0.00770043
0.007706981
0.007713525
0.007720069
0.007726622
0.007733194
0.007739799
0.007746451
0.00775317
0.00775998
0.007766907
0.007773985
0.007781259
0.007788778
0.00779661
0.007804839
0.007813574
0.007822958
0.007833184
0.007844505
0.007857266
0.007871916
0.007889021
0.007909226
0.007933132
0.007960052
0.007984486
4.596581e-05
7.953903e-05
0.0001698243
0.0006242921
0.001105067
0.002130126
0.002798541
0.003534247
0.004213912
0.004600864
0.00479942
0.004958844
0.005081645
0.005100032
0.00505934
0.004933869
0.004878804
0.00487297
0.004908469
0.004980636
0.005101567
0.00509078
0.005094564
0.005108706
0.00512177
0.005129312
0.005131061
0.005126997
0.005117395
0.005102687
0.005082687
0.005427778
0.005418944
0.005405096
0.005388912
0.005371448
0.005353093
0.005333995
0.005314279
0.005293972
0.005272877
0.005251049
0.005228799
0.005206175
0.005183386
0.005160635
0.005138086
0.005115869
0.00509414
0.005072779
0.005051286
0.005030033
0.005009253
0.004988999
0.004969441
0.004950809
0.004933316
0.004917106
0.004902302
0.004889195
0.004877885
0.004868366
0.004860775
0.004855273
0.004851938
0.00485097
0.004852317
0.004857473
0.004853963
0.004854604
0.004859395
0.004868281
0.004881223
0.004898293
0.004919663
0.004945557
0.00497618
0.005011816
0.00505283
0.005099491
0.005152003
0.005210663
0.005275597
0.005346853
0.005424343
0.005507843
0.005596961
0.005691134
0.00578969
0.005891847
0.005996711
0.00610326
0.006210385
0.00631694
0.006421795
0.006523821
0.006621944
0.006715173
0.006802574
0.006883414
0.006957283
0.007024014
0.007083616
0.007136255
0.007182269
0.007222132
0.007254804
0.007281549
0.007303535
0.007321919
0.007337796
0.007352134
0.007365777
0.00737947
0.007393851
0.007409466
0.007426749
0.007446016
0.007467501
0.007491337
0.007517561
0.007546067
0.00757667
0.007608933
0.007642358
0.007675964
0.007709346
0.007743693
0.007779456
0.007813259
0.007843917
0.007871976
0.007898204
0.007923129
0.007947067
0.007970243
0.007992849
0.008015062
0.008037053
0.008059006
0.00808114
0.008103714
0.008127043
0.008151514
0.008177549
0.008205106
0.008233655
0.008262727
0.008290862
0.008315166
0.008333591
0.008345549
0.008351064
0.008350876
0.008349622
0.008350361
0.008353741
0.008358758
0.008364694
0.008371121
0.008377741
0.008384319
0.008390688
0.008396749
0.008402455
0.008407791
0.008412768
0.008417412
0.008421762
0.008425861
0.008429758
0.008433502
0.008437144
0.008440732
0.008444316
0.008447939
0.008451644
0.008455469
0.008459445
0.008463601
0.008467962
0.008472547
0.008477373
0.008482452
0.008487797
0.008493417
0.008499319
0.008505509
0.008511989
0.00851876
0.008525818
0.008533155
0.008540761
0.008548624
0.008556731
0.008565068
0.008573621
0.008582382
0.008591343
0.008600504
0.008609873
0.008619463
0.008629293
0.008639361
0.008649597
0.008659871
0.008670112
0.008680273
0.00869029
0.008700081
0.008709585
0.008718712
0.008727401
0.008735611
0.008743287
0.008750403
0.008756948
0.008762925
0.008768355
0.008773291
0.008777791
0.008781932
0.008785772
0.008789382
0.008792828
0.008796176
0.008799487
0.008802818
0.00880622
0.008809736
0.008813401
0.00881724
0.008821262
0.008825487
0.0088299
0.008834489
0.008839231
0.008844095
0.008849044
0.008854038
0.008859034
0.008863988
0.008868858
0.008873604
0.00887819
0.008882583
0.008886758
0.008890694
0.008894376
0.008897794
0.00890094
0.008903818
0.008906395
0.008908369
0.008908293
0.008909749
0.008912966
0.008917189
0.008921576
0.008925488
0.00892853
0.0089305
0.008931301
0.008930947
0.00892951
0.008927097
0.008923831
0.008919827
0.008915218
0.008910135
0.008904671
0.008898917
0.008892954
0.008886842
0.008880649
0.008874443
0.008868249
0.00886212
0.008856099
0.00885025
0.008844615
0.008839262
0.00883428
0.008829787
0.008825979
0.008823143
0.008821649
0.008822009
0.008824778
0.008830128
0.008836828
0.008844515
0.008853288
0.008862832
0.008872909
0.008883365
0.008894088
0.008904985
0.008916001
0.008927104
0.008938229
0.008949323
0.008960361
0.008971334
0.008982204
0.008992952
0.009003563
0.009014027
0.009024334
0.009034483
0.009044472
0.009054303
0.009063979
0.009073503
0.009082878
0.009092102
0.009101207
0.009110183
0.009119029
0.00912773
0.009136292
0.009144739
0.009153068
0.009161083
0.009164391
0.009165592
0.009166121
0.009166748
0.009167866
0.009169674
0.00917227
0.009175704
0.009179992
0.009185128
0.009191087
0.009197832
0.009205313
0.009213473
0.009222248
0.009231571
0.009241374
0.009251589
0.009262149
0.009272994
0.009284066
0.00929531
0.009306678
0.009318127
0.009329618
0.009341117
0.009352595
0.009364025
0.009375386
0.009386661
0.009397834
0.009408894
0.009419831
0.009430637
0.009441308
0.009451836
0.009462219
0.009472449
0.009482519
0.009492418
0.00950213
0.009511634
0.009520901
0.009529895
0.00953858
0.009546927
0.009554938
0.009562652
0.009570116
0.009577363
0.00958442
0.009591299
0.009598012
0.009604554
0.009610898
0.009617085
0.009623187
0.009629272
0.009635398
0.009641623
0.009647998
0.009654567
0.009661365
0.009668418
0.009675742
0.00968334
0.009691207
0.009699327
0.009707679
0.009716232
0.009724954
0.009733809
0.009742761
0.009751775
0.009760819
0.009769863
0.009778881
0.009787851
0.009796756
0.009805582
0.009814321
0.009822966
0.009831515
0.009839967
0.009848325
0.009856593
0.009864776
0.00987288
0.009880912
0.009888878
0.009896787
0.009904644
0.009912456
0.00992023
0.009927971
0.009935684
0.009943373
0.009951042
0.009958695
0.009966334
0.009973961
0.009981578
0.009989186
0.009996785
0.01
0.01
0.01
0.01
0.01
0.01
0.01
0.01
0.01
0.01
0.01
0.01
0.01
0.01
0.01
0.01
0.01
0.01
0.01
0.01
0.01
0.01
0.01
0.01
0.01
0.01
0.01
0.01
0.01
0.01
0.01
0.01
0.01
0.01
0.01
2.595814e-05
4.36225e-05
6.838828e-05
0.0002955631
0.0004935084
0.0008903239
0.00127077
0.00161906
0.002052773
0.002461236
0.002882014
0.00339526
0.003963043
0.004532764
0.005067123
0.005618624
0.006521345
0.006677894
0.006695033
0.006439576
0.006089178
0.005633286
0.005239034
0.004957671
0.00473083
0.004573274
0.004481518
0.004437575
0.004432906
0.004461768
0.004520374
0.004603333
0.004704384
0.004826823
0.004969544
0.005124957
0.00528663
0.005453765
0.005620018
0.005796065
0.005947176
0.006154094
0.006269596
0.006272623
0.006274157
0.006273595
0.006271193
0.006267341
0.006262303
0.006256253
0.006249312
0.006241549
0.006233037
0.00622383
0.006213981
0.006203603
0.006192812
0.006181708
0.006170384
0.006158929
0.006147409
0.006135844
0.006124306
0.006112954
0.006101946
0.006091419
0.006081502
0.006072324
0.006064012
0.006056704
0.006050567
0.006045722
0.00604229
0.00604043
0.006040295
0.006042025
0.006045757
0.006051626
0.006059827
0.00606992
0.00608205
0.006096492
0.006113753
0.006134291
0.006158416
0.006186575
0.006219164
0.00625654
0.006299196
0.006347587
0.006402153
0.006463328
0.006531493
0.006606932
0.006689805
0.006780137
0.006877798
0.006982488
0.007093721
0.007210836
0.007333038
0.007459387
0.007588753
0.007719862
0.007851453
0.007982284
0.008111071
0.008236476
0.008357113
0.008471507
0.008578015
0.008676108
0.008765714
0.008846716
0.008919083
0.008982948
0.009038603
0.009086386
0.009126891
0.009160898
0.009189343
0.009213231
0.009233569
0.009251327
0.009267423
0.009282695
0.009297888
0.009313642
0.009330482
0.009348811
0.009368922
0.009390992
0.009415058
0.009441073
0.009468886
0.009498242
0.009529164
0.009562015
0.009595056
0.009627046
0.009657675
0.009686671
0.009714236
0.009740794
0.009766701
0.00979219
0.00981742
0.009842518
0.009867598
0.009892769
0.009918146
0.009943867
0.009970092
0.009997009
0.01
0.01
0.01
0.01
0.01
0.01
0.01
0.01
0.01
0.01
0.01
0.01
0.01
0.01
0.01
0.01
0.01
0.01
0.01
0.01
0.01
0.01
0.01
0.01
0.01
0.01
0.01
0.01
0.01
0.01
0.01
0.01
0.01
0.01
0.01
0.01
0.01
0.01
0.01
0.01
0.01
0.01
0.01
0.01
0.01
0.01
0.01
0.01
0.01
0.01
0.01
0.01
0.01
0.01
0.01
0.01
0.01
0.01
0.01
0.01
0.01
0.01
0.01
0.01
0.01
0.01
0.01
0.01
0.01
0.01
0.01
0.01
0.01
0.01
0.01
0.01
0.01
0.01
0.01
0.01
0.01
0.01
0.01
0.01
0.01
0.01
0.01
0.01
0.01
0.01
0.01
0.01
0.01
0.01
0.01
0.01
0.01
0.01
0.01
0.01
0.01
0.01
0.01
0.01
0.01
0.01
0.01
0.01
0.01
0.01
0.01
0.01
0.01
0.01
0.01
0.01
0.01
0.01
0.01
0.01
0.01
0.01
0.01
0.01
0.01
0.01
0.01
0.01
0.01
0.01
0.01
0.01
0.01
0.01
0.01
0.01
0.01
0.01
0.01
0.01
0.01
0.01
0.01
0.01
0.01
0.01
0.01
0.01
0.01
0.01
0.01
0.01
0.01
0.01
0.01
0.01
0.01
0.01
0.01
0.01
0.01
0.01
0.01
0.01
0.01
0.01
0.01
0.01
0.01
0.01
0.01
0.01
0.01
0.01
0.01
0.01
0.01
0.01
0.01
0.01
0.01
0.01
0.01
0.01
0.01
0.01
0.01
0.01
0.01
0.01
0.01
0.01
0.01
0.01
0.01
0.01
0.01
0.01
0.01
0.01
0.01
0.01
0.01
0.01
0.01
0.01
0.01
0.01
0.01
0.01
0.01
0.01
0.01
0.01
0.01
0.01
0.01
0.01
0.01
0.01
0.01
0.01
0.01
0.01
0.01
0.01
0.01
0.01
0.01
0.01
0.01
0.01
0.01
0.01
0.01
0.01
0.01
0.01
0.01
0.01
0.01
0.01
0.01
0.01
0.01
0.01
0.01
0.01
0.01
0.01
0.01
0.01
0.01
0.01
0.01
0.01
0.01
0.01
0.01
0.01
0.01
0.01
0.01
0.01
0.01
0.01
0.01
0.01
0.01
0.01
0.01
0.01
0.01
0.01
0.01
0.01
0.01
0.01
0.01
0.01
0.01
0.01
0.01
0.01
0.01
0.01
0.01
0.01
0.01
0.01
0.01
0.01
0.01
0.01
0.01
0.01
0.01
0.01
0.01
0.01
0.01
0.01
0.01
0.01
0.01
0.01
0.01
0.01
0.01
0.01
0.01
0.01
0.01
0.01
0.01
0.01
0.01
0.01
0.01
0.01
2.434665e-05
3.884752e-05
7.641632e-05
0.0002417402
0.0003968208
0.0006494726
0.0008326448
0.001038851
0.001278213
0.001507391
0.00177033
0.002110457
0.002489296
0.002922883
0.003459654
0.004514268
0.004956486
0.005395486
0.005814189
0.006200706
0.006554062
0.006862626
0.007108149
0.007279349
0.00702514
0.00676442
0.006766898
0.006345363
0.006002477
0.005677809
0.00532897
0.00495601
0.004646917
0.004413992
0.004236813
0.004116493
0.004039742
0.004005291
0.004011253
0.004053196
0.004126979
0.004228958
0.004354269
0.004496704
0.004655269
0.004828984
0.005009305
0.005202906
0.005405298
0.005614155
0.00582861
0.006056544
0.006309041
0.006496191
0.006533502
0.006565731
0.006593733
0.006618343
0.006640196
0.006659739
0.006677308
0.006693161
0.006707478
0.006720408
0.006732108
0.006742728
0.006752397
0.006761228
0.00676932
0.006776771
0.006783697
0.006790187
0.006796344
0.006802355
0.00680841
0.006814655
0.006821206
0.006828174
0.00683567
0.006843802
0.00685268
0.006862424
0.006873151
0.00688498
0.006898034
0.006912446
0.006928355
0.006945922
0.006965306
0.006986625
0.007010031
0.007035712
0.007064124
0.007095638
0.007130552
0.007169324
0.007212395
0.007260263
0.007313459
0.007372538
0.007438071
0.007510613
0.007590668
0.007678662
0.007774911
0.007879596
0.007992736
0.008114159
0.00824348
0.008380152
0.008523515
0.008672682
0.008826423
0.008982976
0.009141
0.009299653
0.009457748
0.009613909
0.009766688
0.009914659
0.01
0.01
0.01
0.01
0.01
0.01
0.01
0.01
0.01
0.01
0.01
0.01
0.01
0.01
0.01
0.01
0.01
0.01
0.01
0.01
0.01
0.01
0.01
0.01
0.01
0.01
0.01
0.01
0.01
0.01
0.01
0.01
0.01
0.01
0.01
0.01
0.01
0.01
0.01
0.01
0.01
0.01
0.01
0.01
0.01
0.01
0.01
0.01
0.01
0.01
0.01
0.01
0.01
0.01
0.01
0.01
0.01
0.01
0.01
0.01
0.01
0.01
0.01
0.01
0.01
0.01
0.01
0.01
0.01
0.01
0.01
0.01
0.01
0.01
0.01
0.01
0.01
0.01
0.01
0.01
0.01
0.01
0.01
0.01
0.01
0.01
0.01
0.01
0.01
0.01
0.01
0.01
0.01
0.01
0.01
0.01
0.01
0.01
0.01
0.01
0.01
0.01
0.01
0.01
0.01
0.01
0.01
0.01
0.01
0.01
0.01
0.01
0.01
0.01
0.01
0.01
0.01
0.01
0.01
0.01
0.01
0.01
0.01
0.01
0.01
0.01
0.01
0.01
0.01
0.01
0.01
0.01
0.01
0.01
0.01
0.01
0.01
0.01
0.01
0.01
0.01
0.01
0.01
0.01
0.01
0.01
0.01
0.01
0.01
0.01
0.01
0.01
0.01
0.01
0.01
0.01
0.01
0.01
0.01
0.01
0.01
0.01
0.01
0.01
0.01
0.01
0.01
0.01
0.01
0.01
0.01
0.01
0.01
0.01
0.01
0.01
0.01
0.01
0.01
0.01
0.01
0.01
0.01
0.01
0.01
0.01
0.01
0.01
0.01
0.01
0.01
0.01
0.01
0.01
0.01
0.01
0.01
0.01
0.01
0.01
0.01
0.01
0.01
0.01
0.01
0.01
0.01
0.01
0.01
0.01
0.01
0.01
0.01
0.01
0.01
0.01
0.01
0.01
0.01
0.01
0.01
0.01
0.01
0.01
0.01
0.01
0.01
0.01
0.01
0.01
0.01
0.01
0.01
0.01
0.01
0.01
0.01
0.01
0.01
0.01
0.01
0.01
0.01
0.01
0.01
0.01
0.01
0.01
0.01
0.01
0.01
0.01
0.01
0.01
0.01
0.01
0.01
0.01
0.01
0.01
0.01
0.01
0.01
0.01
0.01
0.01
0.01
0.01
0.01
0.01
0.01
0.01
0.01
0.01
0.01
0.01
0.01
0.01
0.01
0.01
0.01
0.01
0.01
0.01
0.01
0.01
0.01
0.01
0.01
0.01
0.01
0.01
0.01
0.01
0.01
0.01
0.01
0.01
0.01
0.01
0.01
0.01
0.01
0.01
0.01
0.01
0.01
0.01
0.01
0.01
0.01
0.01
0.01
0.01
0.01
0.01
0.01
0.01
0.01
0.01
0.01
0.01
0.01
0.01
0.01
0.01
0.01
0.01
0.01
0.01
0.01
0.01
0.01
0.01
0.01
0.01
0.01
0.01
0.01
0.01
0.01
0.01
0.01
0.01
0.01
0.01
0.01
0.01
0.01
0.01
0.01
0.01
0.01
0.01
0.01
0.01
0.01
0.01
0.01
0.01
0.01
0.01
0.01
0.01
3.641269e-05
0.000234757
0.0003863079
0.0005600509
0.0007350538
0.0009402455
0.001172409
0.001424789
0.001704161
0.002064064
0.002754201
0.003075627
0.00342056
0.003778422
0.004152632
0.004541263
0.004934243
0.005319784
0.005685587
0.006020587
0.006339228
0.006706478
0.007045513
0.007341355
0.007530733
0.007526483
0.007463398
0.007355865
0.007186372
0.006894944
0.006557758
0.00628583
0.005881333
0.005508526
0.005162577
0.004826516
0.004515939
0.004258618
0.004053052
0.003897986
0.00379667
0.003745843
0.00374204
0.003782005
0.003862044
0.003978794
0.004128601
0.004308678
0.004511571
0.00473934
0.004987845
0.00525599
0.005535244
0.00581934
0.00610018
0.00639072
0.00646529
0.006527605
0.006586478
0.006641926
0.00669409
0.006743112
0.00678923
0.006832695
0.006873722
0.006912494
0.006949177
0.006983916
0.007016853
0.007048141
0.007077931
0.007106365
0.007133589
0.007159771
0.007185081
0.007209751
0.007234383
0.007258986
0.007283577
0.007308176
0.007332793
0.007357438
0.007382133
0.007406914
0.007431832
0.007456953
0.007482363
0.007508156
0.007534436
0.007561324
0.007588956
0.007617488
0.007647088
0.00767794
0.00771025
0.007744255
0.007780358
0.00781921
0.007861035
0.007906144
0.007954934
0.008007871
0.008065514
0.008128499
0.008197483
0.008273134
0.008356111
0.008447039
0.00854647
0.008654858
0.008772574
0.008899848
0.009036676
0.009182694
0.009337249
0.009500292
0.009671448
0.009849985
0.01
0.01
0.01
0.01
0.01
0.01
0.01
0.01
0.01
0.01
0.01
0.01
0.01
0.01
0.01
0.01
0.01
0.01
0.01
0.01
0.01
0.01
0.01
0.01
0.01
0.01
0.01
0.01
0.01
0.01
0.01
0.01
0.01
0.01
0.01
0.01
0.01
0.01
0.01
0.01
0.01
0.01
0.01
0.01
0.01
0.01
0.01
0.01
0.01
0.01
0.01
0.01
0.01
0.01
0.01
0.01
0.01
0.01
0.01
0.01
0.01
0.01
0.01
0.01
0.01
0.01
0.01
0.01
0.01
0.01
0.01
0.01
0.01
0.01
0.01
0.01
0.01
0.01
0.01
0.01
0.01
0.01
0.01
0.01
0.01
0.01
0.01
0.01
0.01
0.01
0.01
0.01
0.01
0.01
0.01
0.01
0.01