/*--------------------------------*- C++ -*----------------------------------*\
| =========                 |                                                 |
| \\      /  F ield         | foam-extend: Open Source CFD                    |
|  \\    /   O peration     | Version:     3.1                                |
|   \\  /    A nd           | Web:         http://www.extend-project.de       |
|    \\/     M anipulation  |                                                 |
\*---------------------------------------------------------------------------*/
FoamFile
{
    version     2.0;
    format      ascii;
    class       surfaceScalarField;
    location    "2.5";
    object      phi;
}
// * * * * * * * * * * * * * * * * * * * * * * * * * * * * * * * * * * * * * //

dimensions      [0 3 -1 0 0 0 0];

internalField   nonuniform List<scalar> 
275122
(
-0.0001574246
0.0001594446
-8.172184e-08
-1.938281e-06
-0.000140996
0.0001345185
5.336839e-07
5.943774e-06
-0.0001398746
0.0001435908
-1.474768e-07
-3.568679e-06
-0.0001560912
0.0001603953
-1.62888e-07
-4.141203e-06
-0.000171145
0.0001724736
-1.750872e-07
-1.153604e-06
-0.0001724422
0.0001721538
-1.506588e-07
4.390379e-07
-0.000170616
0.0001700119
-1.349953e-07
7.390921e-07
-0.0001679739
0.0001672062
-1.276841e-07
8.95438e-07
-0.0001648637
0.0001640661
-1.147665e-07
9.123487e-07
-0.0001616258
0.000160795
-1.033506e-07
9.341744e-07
-0.0001582588
0.0001573998
-9.267838e-08
9.517129e-07
-0.0001547908
0.0001539111
-8.251327e-08
9.621978e-07
-0.0001512457
0.0001503462
-7.060273e-08
9.701117e-07
-0.0001476423
0.0001467378
-7.049272e-08
9.750501e-07
-0.0001439996
0.0001430791
-5.672982e-08
9.772534e-07
-0.0001403114
0.0001393855
-4.874976e-08
9.746504e-07
-0.0001366081
0.0001356853
-4.26467e-08
9.654284e-07
-0.0001329638
0.0001320688
-3.773411e-08
9.327763e-07
-0.0001295653
0.000128833
-5.694664e-08
7.892301e-07
-0.0001272832
0.0001274646
-1.905947e-07
9.231471e-09
-0.0001411554
0.000146754
-4.847498e-07
-5.113883e-06
-0.0001483389
0.000148464
-1.152879e-07
-9.830141e-09
-0.0001495839
0.0001505339
-5.174545e-08
-8.981961e-07
-0.0001668745
0.0001731036
1.442333e-07
-6.373307e-06
-0.0001742552
0.0001742625
2.378955e-07
-2.452128e-07
-0.0001757451
0.0001760618
-1.72968e-08
-2.994271e-07
-0.0001760241
0.0001757262
-3.052926e-08
3.283682e-07
-0.0001741426
0.0001727318
-1.940656e-08
1.430272e-06
-0.0001629283
0.0001525168
-1.627035e-08
1.042776e-05
-0.0001312317
0.0001348482
3.13626e-09
-3.619668e-06
-0.0001066991
0.0001120841
-2.822122e-08
-5.356812e-06
-0.0001275783
0.0001327872
3.475267e-09
-5.212364e-06
-0.0001487808
0.0001541735
3.895304e-09
-5.396567e-06
-0.0001707097
0.0001763855
4.181319e-09
-5.680025e-06
-0.0001937084
0.0001995786
3.939288e-09
-5.874094e-06
-0.0002174167
0.0002234497
3.715094e-09
-6.036653e-06
-0.000241719
0.0002478823
3.340575e-09
-6.166578e-06
-0.00026648
0.0002727539
3.222824e-09
-6.277179e-06
-0.0002915328
0.0002978185
3.212269e-09
-6.288981e-06
-0.0003165378
0.0003233643
9.498207e-08
-6.921496e-06
5.316269e-06
-0.0002197194
0.0002207028
6.338679e-12
-6.299628e-06
5.427743e-06
-0.0002234973
0.0002243503
-4.717226e-10
-6.280257e-06
5.570614e-06
-0.0002267012
0.0002274154
-7.049391e-10
-6.284074e-06
5.733633e-06
-0.00022926
0.0002298153
-7.328711e-10
-6.28818e-06
5.881128e-06
-0.0002312181
0.0002316393
-7.468989e-10
-6.301606e-06
5.978243e-06
-0.0002327345
0.0002330613
-5.584543e-10
-6.304483e-06
6.037095e-06
-0.000233909
0.0002341619
-4.589135e-10
-6.289542e-06
6.066214e-06
-0.0002348654
0.0002350776
-4.092925e-10
-6.277955e-06
6.246399e-06
-0.000235597
0.0002354719
-1.633161e-10
-6.121134e-06
5.411624e-06
-0.000954134
0.00095704
-6.110204e-11
-2.490586e-05
5.605971e-06
5.396783e-06
5.585508e-06
5.823144e-06
-0.0009585738
0.000959536
-4.889544e-11
-2.461331e-05
6.014306e-06
5.812618e-06
6.001124e-06
5.905084e-06
-0.0009602526
0.0009608189
-4.658378e-11
-2.433733e-05
5.99102e-06
5.893946e-06
5.981013e-06
5.915075e-06
-0.0009614299
0.0009618328
-4.51222e-11
-2.413968e-05
5.963406e-06
5.904884e-06
5.953553e-06
5.921307e-06
-0.0009620482
0.0009621085
-3.779658e-11
-2.38434e-05
5.97936e-06
5.91199e-06
5.970544e-06
5.948809e-06
-0.0009620458
0.0009618631
-3.433548e-11
-2.364025e-05
5.971587e-06
5.93963e-06
5.96288e-06
5.928466e-06
-0.0009616449
0.0009612738
-3.615592e-11
-2.333903e-05
5.935372e-06
5.919712e-06
5.926666e-06
5.901238e-06
-0.0009608899
0.0009603383
-4.759161e-11
-2.300444e-05
5.883783e-06
5.894115e-06
5.876966e-06
5.879384e-06
-0.0009597423
0.0009590503
-4.354191e-11
-2.263575e-05
5.792648e-06
5.871357e-06
5.78434e-06
5.522302e-06
-0.0009581336
0.0009583324
-3.780994e-11
-2.255381e-05
5.660984e-06
5.51248e-06
5.659302e-06
5.974183e-06
-0.0009578898
0.0009564726
-3.986531e-11
-2.22096e-05
5.84041e-06
5.972416e-06
5.839806e-06
5.745021e-06
-0.0009553649
0.0009542583
-4.054986e-11
-2.176873e-05
5.691123e-06
5.746753e-06
5.692497e-06
5.69365e-06
-0.0009531645
0.0009520336
-4.515136e-11
-2.157197e-05
5.656816e-06
5.694648e-06
5.657806e-06
5.652196e-06
-0.0009508946
0.000949711
-4.05758e-11
-2.137195e-05
5.62465e-06
5.652932e-06
5.625828e-06
5.620233e-06
-0.0009485165
0.0009472809
-4.702468e-11
-2.120254e-05
5.601535e-06
5.61683e-06
5.599626e-06
5.611464e-06
-0.0009460369
0.0009447319
-5.553301e-11
-2.109396e-05
5.599027e-06
5.598629e-06
5.589885e-06
5.686023e-06
-0.0009434369
0.0009420612
-4.669258e-11
-2.124837e-05
5.695987e-06
5.617566e-06
5.624523e-06
6.142897e-06
-0.0009405672
0.000938255
-2.895965e-11
-2.184183e-05
6.284628e-06
5.823417e-06
5.903099e-06
7.833084e-06
-0.000934509
0.0009267484
-2.878326e-11
-2.232407e-05
8.456055e-06
6.958283e-06
6.837284e-06
7.721962e-06
-0.0009168614
0.0009242584
-2.345207e-11
-1.511892e-05
7.01272e-06
-0.0009290605
0.0009292521
-3.264044e-11
-7.204343e-06
1.426676e-05
-0.0009259758
0.0009228613
-2.806313e-11
-1.115216e-05
1.193979e-05
-0.0009204625
0.0009181025
-2.957387e-11
-9.579717e-06
5.376444e-06
-0.0009159195
0.0009152919
-3.259586e-11
-4.748822e-06
2.390524e-07
-0.0009157095
0.0009157663
-3.513588e-11
-2.957766e-07
-1.889578e-06
-0.0009158266
0.0009157926
-3.661768e-11
1.923596e-06
-2.808741e-06
-0.0009156667
0.0009154045
-3.813596e-11
3.070931e-06
-3.44922e-06
-0.0009150755
0.0009146535
-3.931948e-11
3.87126e-06
-3.866556e-06
-0.0009141736
0.0009136165
-3.951564e-11
4.42365e-06
-4.146376e-06
-0.0009130229
0.0009123751
-4.047089e-11
4.79429e-06
-4.34144e-06
-0.0009117045
0.0009109949
-4.953463e-11
5.051071e-06
-4.473756e-06
-0.0009102705
0.0009095204
-5.188343e-11
5.223969e-06
-4.554189e-06
-0.0009087608
0.0009079907
-4.182649e-11
5.324336e-06
-4.582157e-06
-0.0009072183
0.0009064498
-4.944032e-11
5.350723e-06
-4.545877e-06
-0.0009056897
0.0009049529
-6.0137e-11
5.282723e-06
-4.401358e-06
-0.0009042338
0.0009035719
-7.972621e-11
5.063366e-06
-3.971083e-06
-0.0009029318
0.0009023456
-1.123284e-10
4.557426e-06
-3.007353e-06
-0.000901764
0.0009012005
-9.955175e-11
3.570965e-06
-5.979163e-07
-0.0009005466
0.0008993295
-6.676293e-11
1.815075e-06
2.688868e-06
-0.0008964953
0.0008943955
-4.91625e-11
-5.889749e-07
7.943021e-07
-0.0008940642
0.0008937595
-4.013904e-11
-4.895136e-07
5.836162e-06
-0.0008930317
0.0008907794
-3.615575e-11
-3.583803e-06
1.380124e-05
-0.0008838096
0.0008772433
-3.350586e-11
-7.234826e-06
3.342048e-06
-0.0008732786
0.0008718896
-3.331089e-11
-1.953011e-06
-1.885213e-06
-0.0008701048
0.0008681661
-3.476933e-11
3.823885e-06
-6.511322e-06
-0.0008660784
0.0008640946
-3.550997e-11
8.495108e-06
-1.452827e-05
-0.0008624362
0.0008616688
-3.617322e-11
1.529566e-05
-3.511502e-05
-0.0008621903
0.0008722316
-3.729221e-11
2.507374e-05
-7.102592e-06
-0.0008841147
0.0008838265
-3.874822e-11
2.467674e-05
-5.076547e-06
-7.112723e-06
-5.096638e-06
-3.071628e-06
-0.0008812489
0.0008802001
-3.686593e-11
1.333232e-05
-3.048392e-06
-3.091281e-06
-3.072258e-06
-2.297866e-06
-0.0008789753
0.000877173
-3.562236e-11
1.074541e-05
-2.141866e-06
-2.330093e-06
-2.17326e-06
-1.767384e-06
-0.0008751742
0.0008733338
-3.393657e-11
8.877574e-06
-1.721476e-06
-1.797613e-06
-1.750727e-06
-1.585992e-06
-0.0008716581
0.0008701082
-3.20137e-11
7.907946e-06
-1.565367e-06
-1.61409e-06
-1.592554e-06
-1.474985e-06
-0.0008686078
0.0008671728
-3.022945e-11
7.35055e-06
-1.457837e-06
-1.500396e-06
-1.482302e-06
-1.407712e-06
-0.000865776
0.0008644391
-2.889454e-11
6.995176e-06
-1.399328e-06
-1.430193e-06
-1.421029e-06
-1.371531e-06
-0.0008631322
0.0008618676
-2.789382e-11
6.778585e-06
-1.366084e-06
-1.391227e-06
-1.385118e-06
-1.347754e-06
-0.0008606243
0.0008594139
-2.706687e-11
6.627689e-06
-1.344008e-06
-1.364909e-06
-1.360608e-06
-1.332218e-06
-0.0008582226
0.0008570582
-2.645824e-11
6.517812e-06
-1.32975e-06
-1.347172e-06
-1.344255e-06
-1.321722e-06
-0.0008559098
0.000854783
-2.606736e-11
6.43586e-06
-1.319895e-06
-1.334804e-06
-1.332611e-06
-1.314191e-06
-0.0008536691
0.0008525724
-2.579562e-11
6.373016e-06
-1.312794e-06
-1.325522e-06
-1.323781e-06
-1.308697e-06
-0.0008514861
0.0008504138
-2.556942e-11
6.324077e-06
-1.307654e-06
-1.318369e-06
-1.317013e-06
-1.304844e-06
-0.0008493503
0.0008482985
-2.540154e-11
6.285857e-06
-1.30408e-06
-1.31307e-06
-1.312056e-06
-1.302176e-06
-0.0008472542
0.0008462199
-2.543826e-11
6.255658e-06
-1.301593e-06
-1.309152e-06
-1.308352e-06
-1.300261e-06
-0.0008451919
0.0008441722
-2.562319e-11
6.231393e-06
-1.299794e-06
-1.306118e-06
-1.305468e-06
-1.298819e-06
-0.0008431578
0.0008421502
-2.562658e-11
6.21176e-06
-1.298441e-06
-1.303701e-06
-1.303168e-06
-1.297746e-06
-0.000841147
0.0008401493
-2.545118e-11
6.196031e-06
-1.297449e-06
-1.301781e-06
-1.301355e-06
-1.297011e-06
-0.0008391552
0.0008381656
-2.526592e-11
6.183815e-06
-1.296793e-06
-1.300314e-06
-1.299992e-06
-1.296594e-06
-0.0008371788
0.0008361954
-2.515725e-11
6.174804e-06
-1.29645e-06
-1.299273e-06
-1.299045e-06
-1.296428e-06
-0.0008352142
0.0008342354
-2.510532e-11
6.168561e-06
-1.296335e-06
-1.298574e-06
-1.298415e-06
-1.296396e-06
-0.0008332582
0.0008322824
-2.512876e-11
6.164659e-06
-1.29634e-06
-1.298092e-06
-1.297986e-06
-1.296492e-06
-0.0008313074
0.000830333
-2.522417e-11
6.163002e-06
-1.296491e-06
-1.297811e-06
-1.297776e-06
-1.296804e-06
-0.000829359
0.0008283847
-2.525375e-11
6.16368e-06
-1.296872e-06
-1.297805e-06
-1.297851e-06
-1.297364e-06
-0.0008274102
0.0008264348
-2.506002e-11
6.166648e-06
-1.297497e-06
-1.298084e-06
-1.298199e-06
-1.298118e-06
0.0008244807
-2.437705e-11
6.171725e-06
-1.298287e-06
-1.298591e-06
-1.298761e-06
-0.0008254587
-1.298929e-06
-0.0008235016
0.0008225199
-2.447593e-11
6.178615e-06
-1.299118e-06
-1.299299e-06
-1.299517e-06
-1.299817e-06
-0.0008215365
0.0008205496
-2.477293e-11
6.187259e-06
-1.300019e-06
-1.300114e-06
-1.300339e-06
-1.300803e-06
-0.0008195604
0.000818567
-2.518519e-11
6.197549e-06
-1.30108e-06
-1.300967e-06
-1.301251e-06
-1.302019e-06
-0.0008175709
0.00081657
-2.578842e-11
6.209828e-06
-1.30235e-06
-1.302081e-06
-1.302434e-06
-1.303364e-06
-0.000815566
0.0008145565
-2.652148e-11
6.223776e-06
-1.303724e-06
-1.303357e-06
-1.303743e-06
-1.304772e-06
-0.0008135434
0.0008125241
-2.736958e-11
6.23907e-06
-1.305154e-06
-1.304704e-06
-1.305114e-06
-1.306185e-06
-0.0008115009
0.0008104708
-2.832675e-11
6.255417e-06
-1.306576e-06
-1.306067e-06
-1.306491e-06
-1.30755e-06
-0.0008094365
0.0008083947
-2.937658e-11
6.272518e-06
-1.307943e-06
-1.307397e-06
-1.307826e-06
-1.308839e-06
-0.0008073483
0.000806294
-3.053045e-11
6.29014e-06
-1.30923e-06
-1.308661e-06
-1.309092e-06
-1.310035e-06
-0.0008052347
0.0008041673
-3.177897e-11
6.308094e-06
-1.310422e-06
-1.30984e-06
-1.31027e-06
-1.311128e-06
-0.0008030946
0.0008020133
-3.310412e-11
6.326231e-06
-1.311511e-06
-1.310923e-06
-1.311351e-06
-1.312111e-06
-0.0008009266
0.000799831
-3.448938e-11
6.344421e-06
-1.312488e-06
-1.311901e-06
-1.312324e-06
-1.312974e-06
-0.0007987299
0.0007976197
-3.5887e-11
6.362532e-06
-1.313343e-06
-1.312761e-06
-1.313178e-06
-1.31371e-06
-0.0007965037
0.0007953785
-3.725332e-11
6.380426e-06
-1.31407e-06
-1.31349e-06
-1.3139e-06
-1.314315e-06
-0.0007942475
0.0007931071
-3.861011e-11
6.397927e-06
-1.314674e-06
-1.314072e-06
-1.31447e-06
-1.314758e-06
-0.0007919609
0.0007908054
-3.996289e-11
6.41478e-06
-1.315092e-06
-1.31449e-06
-1.31487e-06
-1.314869e-06
-0.000789644
0.0007884734
-4.129071e-11
6.430426e-06
-1.315167e-06
-1.314704e-06
-1.315089e-06
-1.314643e-06
-0.000787297
0.0007861117
-4.260395e-11
6.444227e-06
-1.314849e-06
-1.314547e-06
-1.314811e-06
-1.313873e-06
-0.0007849205
0.0007837212
-4.382076e-11
6.454877e-06
-1.314022e-06
-1.313715e-06
-1.313896e-06
-1.312372e-06
-0.0007825164
0.0007813049
-4.495905e-11
6.460708e-06
-1.31236e-06
-1.3122e-06
-1.312245e-06
-1.309412e-06
-0.0007800886
0.000778869
-4.590374e-11
6.456641e-06
-1.309208e-06
-1.309259e-06
-1.309098e-06
-1.302849e-06
-0.0007776478
0.0007764297
-4.645987e-11
6.427791e-06
-1.302086e-06
-1.302699e-06
-1.301981e-06
-1.279548e-06
-0.0007752072
0.0007739734
-4.685768e-11
6.339884e-06
-1.273446e-06
-1.279582e-06
-1.273443e-06
-1.19518e-06
-0.0007726823
0.000771172
-5.342714e-11
6.161323e-06
-1.12973e-06
-1.194943e-06
-1.13104e-06
-1.064622e-06
-0.0007699566
0.000768216
-5.069546e-11
6.04145e-06
-1.086905e-06
-1.063407e-06
-1.085776e-06
-1.217826e-06
-0.0007668018
0.0007654368
-5.092188e-11
6.23339e-06
-1.218309e-06
-1.215791e-06
-1.21638e-06
-1.196812e-06
-0.0007640191
0.0007625259
-5.257228e-11
6.262312e-06
-1.189555e-06
-1.194956e-06
-1.187736e-06
-1.212002e-06
-0.0007610672
0.0007596138
-5.458015e-11
6.300147e-06
-1.212786e-06
-1.210346e-06
-1.211584e-06
-1.215615e-06
-0.0007581571
0.0007567033
-5.649118e-11
6.313487e-06
-1.215415e-06
-1.214366e-06
-1.214236e-06
-1.220682e-06
-0.0007552562
0.000753814
-5.84681e-11
6.32481e-06
-1.221647e-06
-1.21949e-06
-1.220681e-06
-1.229464e-06
-0.0007523804
0.0007509532
-6.030125e-11
6.345552e-06
-1.229931e-06
-1.229048e-06
-1.229841e-06
-1.235317e-06
-0.0007495324
0.0007481139
-6.151121e-11
6.360529e-06
-1.235503e-06
-1.235468e-06
-1.235674e-06
-1.239006e-06
-0.0007466982
0.0007452836
-6.238396e-11
6.370506e-06
-1.239068e-06
-1.23882e-06
-1.23891e-06
-1.241665e-06
-0.0007438702
0.0007424576
-6.313586e-11
6.379034e-06
-1.241737e-06
-1.241416e-06
-1.241564e-06
-1.243956e-06
-0.0007410466
0.0007396363
-6.340532e-11
6.385016e-06
-1.243503e-06
-1.243775e-06
-1.243414e-06
-1.245098e-06
-0.0007382265
0.0007368168
-6.265426e-11
6.388177e-06
-1.244225e-06
-1.244952e-06
-1.244146e-06
-1.244984e-06
-0.0007354071
0.0007339969
-6.128074e-11
6.387498e-06
-1.243796e-06
-1.244787e-06
-1.243651e-06
-1.243661e-06
-0.0007325857
0.0007311735
-5.974317e-11
6.383831e-06
-1.242324e-06
-1.24344e-06
-1.242165e-06
-1.24219e-06
-0.0007297603
0.0007283465
-5.810492e-11
6.379776e-06
-1.240893e-06
-1.242038e-06
-1.240811e-06
-1.240562e-06
-0.0007269321
0.0007255173
-5.649798e-11
6.374259e-06
-1.239145e-06
-1.240511e-06
-1.239163e-06
-1.237787e-06
-0.0007241015
0.0007226852
-5.502048e-11
6.364206e-06
-1.236136e-06
-1.237744e-06
-1.236134e-06
-1.233792e-06
-0.0007212677
0.0007198498
-5.368594e-11
6.349267e-06
-1.231956e-06
-1.233687e-06
-1.231891e-06
-1.22905e-06
-0.000718431
0.0007170124
-5.247151e-11
6.330702e-06
-1.227094e-06
-1.228911e-06
-1.227009e-06
-1.22383e-06
-0.0007155933
0.000714175
-5.135024e-11
6.309343e-06
-1.221782e-06
-1.223684e-06
-1.221686e-06
-1.218204e-06
-0.0007127565
0.0007113394
-5.03785e-11
6.285454e-06
-1.216075e-06
-1.218046e-06
-1.215965e-06
-1.212171e-06
-0.0007099225
0.0007085075
-4.951426e-11
6.259097e-06
-1.209979e-06
-1.212021e-06
-1.209885e-06
-1.205723e-06
-0.000707093
0.000705681
-4.865367e-11
6.230192e-06
-1.203454e-06
-1.205598e-06
-1.203384e-06
-1.19889e-06
-0.0007042698
0.0007028618
-4.77421e-11
6.198694e-06
-1.196548e-06
-1.19876e-06
-1.196462e-06
-1.191691e-06
-0.0007014551
0.0007000523
-4.679981e-11
6.164582e-06
-1.18929e-06
-1.191531e-06
-1.189166e-06
-1.184156e-06
0.0006972546
-4.541573e-11
6.127952e-06
-0.0006986512
-1.181647e-06
-1.183995e-06
-1.181549e-06
-1.176183e-06
-0.0006958603
0.0006944714
-4.585588e-11
6.088497e-06
-1.173608e-06
-1.176119e-06
-1.173624e-06
-1.167859e-06
-0.0006930852
0.0006917049
-4.699589e-11
6.046419e-06
-1.165162e-06
-1.167844e-06
-1.165196e-06
-1.159203e-06
-0.0006903277
0.0006889574
-4.847923e-11
6.001594e-06
-1.156451e-06
-1.159144e-06
-1.156432e-06
-1.150367e-06
-0.0006875909
0.0006862319
-5.003867e-11
5.954705e-06
-1.147547e-06
-1.150284e-06
-1.147511e-06
-1.141289e-06
-0.0006848773
0.0006835309
-5.122635e-11
5.905617e-06
-1.138386e-06
-1.141205e-06
-1.138347e-06
-1.132046e-06
-0.0006821894
0.0006808569
-5.200042e-11
5.854641e-06
-1.129066e-06
-1.131975e-06
-1.129049e-06
-1.122628e-06
-0.0006795297
0.0006782123
-5.241404e-11
5.801846e-06
-1.119581e-06
-1.122566e-06
-1.119552e-06
-1.113115e-06
-0.0006769006
0.0006755992
-5.246844e-11
5.747555e-06
-1.110006e-06
-1.113038e-06
-1.10996e-06
-1.103505e-06
-0.000674304
0.0006730197
-5.22357e-11
5.69194e-06
-1.100359e-06
-1.103428e-06
-1.100322e-06
-1.093841e-06
-0.0006717421
0.0006704758
-5.183656e-11
5.635231e-06
-1.090677e-06
-1.093772e-06
-1.090634e-06
-1.084135e-06
-0.0006692166
0.0006679691
-5.132687e-11
5.577524e-06
-1.080959e-06
-1.084041e-06
-1.080895e-06
-1.074446e-06
-0.000666729
0.0006655012
-5.069115e-11
5.519137e-06
-1.071275e-06
-1.074345e-06
-1.071213e-06
-1.064735e-06
-0.0006642811
0.0006630735
-4.990243e-11
5.460079e-06
-1.06157e-06
-1.064653e-06
-1.061518e-06
-1.055072e-06
-0.000661874
0.0006606873
-4.89782e-11
5.400546e-06
-1.051949e-06
-1.054968e-06
-1.051866e-06
-1.045423e-06
-0.0006595089
0.0006583438
-4.801892e-11
5.340518e-06
-1.042387e-06
-1.04528e-06
-1.042255e-06
-1.035855e-06
-0.0006571873
0.0006560443
-4.705159e-11
5.280199e-06
-1.032884e-06
-1.035696e-06
-1.032766e-06
-1.026134e-06
-0.0006549102
0.0006537901
-4.597098e-11
5.219058e-06
-1.023363e-06
-1.026085e-06
-1.023361e-06
-1.016373e-06
-0.0006526792
0.0006515825
-4.46628e-11
5.157108e-06
-1.013789e-06
-1.016379e-06
-1.013798e-06
-1.006356e-06
-0.0006504951
0.000649423
-4.312248e-11
5.093198e-06
-1.004209e-06
-1.006305e-06
-1.004149e-06
-9.959278e-07
-0.0006483603
0.0006473147
-4.084589e-11
5.026654e-06
-9.9465e-07
-9.958619e-07
-9.945475e-07
-9.840943e-07
-0.0006462787
0.0006452654
-3.627491e-11
4.950516e-06
-9.846394e-07
-9.841975e-07
-9.842556e-07
-9.700759e-07
-0.0006442618
0.0006432947
-2.592187e-11
4.850344e-06
-9.71524e-07
-9.712693e-07
-9.703704e-07
-9.451122e-07
-0.0006423239
0.0006413889
-7.896866e-12
4.686791e-06
-9.281143e-07
-9.473183e-07
-9.312979e-07
-7.385551e-07
-0.0006403694
0.0006388879
2.731407e-11
4.262133e-06
-6.265658e-07
-7.71999e-07
-6.435961e-07
-5.160755e-07
-0.0001587351
0.0001582374
-2.824521e-10
1.013981e-06
-6.969457e-07
-0.000157143
0.0001568829
3.43771e-10
9.567337e-07
-8.076582e-07
-0.0001563407
0.0001561969
2.902193e-10
9.51125e-07
-8.318901e-07
-0.000155816
0.000155701
6.638846e-12
9.468735e-07
-8.472503e-07
-0.000155378
0.0001552758
-1.92884e-11
9.494527e-07
-8.549542e-07
-0.0001549792
0.000154883
-5.801288e-11
9.511204e-07
-8.576069e-07
-0.0001546
0.0001545072
-5.108414e-11
9.50432e-07
-8.581957e-07
-0.0001542329
0.0001541429
-3.215716e-11
9.48211e-07
-8.573374e-07
-0.0001538766
0.0001537891
-2.072337e-11
9.447953e-07
-8.553561e-07
-0.0001535302
0.000153445
-1.742071e-11
9.405104e-07
-8.52371e-07
-0.0001531927
0.0001531098
-2.448873e-11
9.353512e-07
-8.486093e-07
-0.0001528641
0.0001527833
-2.656595e-11
9.294117e-07
-8.442505e-07
-0.0001525441
0.0001524655
-1.850589e-11
9.228427e-07
-8.396012e-07
-0.000152233
0.0001521567
-1.362925e-11
9.159134e-07
-8.347631e-07
-0.0001519311
0.0001518571
-1.005837e-11
9.08763e-07
-8.298479e-07
-0.0001516385
0.0001515668
-8.818785e-12
9.014948e-07
-8.248665e-07
-0.0001513553
0.000151286
-6.793279e-12
8.941311e-07
-8.198541e-07
-0.0001510817
0.0001510148
-4.336632e-12
8.86712e-07
-8.148527e-07
-0.0001508178
0.0001507534
-3.822325e-12
8.792745e-07
-8.098572e-07
-0.0001505637
0.0001505018
-3.070626e-12
8.71825e-07
-8.049335e-07
-0.0001503197
0.0001502602
-7.014934e-13
8.643928e-07
-8.001513e-07
-0.0001500857
0.0001500289
3.453012e-13
8.569776e-07
-7.954062e-07
-0.0001498621
0.000149808
4.659288e-13
8.495474e-07
-7.905541e-07
-0.0001496493
0.0001495978
3.095574e-12
8.420618e-07
-7.857706e-07
-0.0001494474
0.0001493986
8.339752e-12
8.345182e-07
-7.812058e-07
-0.0001492571
0.0001492114
1.083827e-11
8.268665e-07
-7.761909e-07
-0.0001490789
0.0001490363
3.824135e-12
8.187784e-07
-7.710896e-07
-0.0001489142
0.0001488751
-1.370743e-13
8.102283e-07
-7.665172e-07
-0.0001487637
0.0001487293
4.882621e-12
8.009389e-07
-7.599078e-07
-0.0001486309
0.0001486006
7.843022e-12
7.901885e-07
-7.51305e-07
-0.0001485198
0.000148494
1.041587e-11
7.770937e-07
-7.461511e-07
-0.0001484343
0.0001484201
1.10807e-11
7.603066e-07
-7.350671e-07
-0.0001483884
0.0001483912
1.482468e-11
7.322599e-07
-6.973192e-07
-0.0001484142
0.0001484317
1.781929e-11
6.797932e-07
-6.372869e-07
-0.000148566
0.0001486593
1.627358e-11
5.439627e-07
1.509557e-07
-0.0001489921
0.0001488943
2.364687e-11
-5.324836e-08
5.897257e-07
-0.0001485263
0.0001484431
8.448724e-12
-5.064778e-07
6.552331e-07
-0.0001482209
0.0001481641
6.593646e-12
-5.984548e-07
6.791092e-07
-0.0001480167
0.0001479783
3.187694e-12
-6.407072e-07
6.963849e-07
-0.0001478798
0.0001478521
-2.717565e-13
-6.686326e-07
7.082082e-07
-0.0001477807
0.0001477611
-5.703687e-12
-6.886289e-07
7.16457e-07
-0.0001477128
0.0001477001
-6.658154e-12
-7.037185e-07
7.226676e-07
-0.0001476705
0.0001476635
-5.339288e-12
-7.157126e-07
7.276429e-07
-0.0001476502
0.0001476483
-5.111161e-12
-7.257169e-07
7.317512e-07
-0.000147649
0.0001476514
-9.245361e-12
-7.341426e-07
7.352014e-07
-0.0001476642
0.0001476704
-1.15875e-11
-7.413866e-07
7.383513e-07
-0.0001476938
0.0001477032
-9.701616e-12
-7.478184e-07
7.412639e-07
-0.0001477359
0.0001477483
-8.720933e-12
-7.53639e-07
7.440549e-07
-0.0001477892
0.0001478042
-6.58043e-12
-7.590138e-07
7.467276e-07
-0.0001478525
0.0001478698
-6.742349e-12
-7.640061e-07
7.493206e-07
-0.0001479246
0.000147944
-5.923844e-12
-7.687026e-07
7.518782e-07
-0.0001480049
0.0001480262
-3.920621e-12
-7.73165e-07
7.543894e-07
-0.0001480925
0.0001481156
-3.633554e-12
-7.774271e-07
7.568784e-07
-0.0001481869
0.0001482116
-3.687526e-12
-7.815291e-07
7.593499e-07
-0.0001482875
0.0001483137
-1.866644e-12
-7.854915e-07
7.618012e-07
-0.0001483939
0.0001484214
-1.05169e-12
-7.893351e-07
7.642495e-07
-0.0001485057
0.0001485345
-1.650277e-12
-7.930787e-07
7.666785e-07
-0.0001486224
0.0001486525
-2.567084e-13
-7.967267e-07
7.691059e-07
-0.0001487438
0.000148775
2.416774e-12
-8.003034e-07
7.715677e-07
-0.0001488696
0.0001489019
2.850537e-12
-8.038221e-07
7.739624e-07
-0.0001489994
0.0001490327
5.60963e-13
-8.072425e-07
7.762613e-07
-0.0001491331
0.0001491673
-9.926829e-13
-8.105237e-07
7.785602e-07
-0.0001492703
0.0001493054
-2.07822e-13
-8.137095e-07
7.80779e-07
-0.0001494108
0.0001494468
7.940975e-13
-8.167761e-07
7.829692e-07
-0.0001495542
0.000149591
2.086719e-12
-8.197344e-07
7.851029e-07
-0.0001497003
0.0001497377
2.186121e-12
-8.225608e-07
7.87515e-07
-0.0001498485
0.0001498864
3.033164e-12
-8.254066e-07
7.898458e-07
-0.0001499975
0.0001500355
-7.148238e-12
-8.27893e-07
7.920145e-07
-0.0001501529
0.0001501928
5.142177e-11
-8.319617e-07
8.398426e-07
-0.0001503165
0.0001503371
1.303277e-10
-8.605197e-07
8.123747e-07
-0.0001497154
0.0006065112
4.425159e-12
-3.28232e-06
3.837815e-08
8.127042e-07
3.250585e-08
-0.0001497178
-0.0001527451
-0.0001527465
4.401053e-07
-0.0006086376
0.0006095003
7.789652e-12
-3.035329e-06
6.52098e-07
4.339042e-07
6.46587e-07
5.82585e-07
-0.0006102065
0.0006108675
8.84695e-12
-3.091149e-06
6.371557e-07
5.77727e-07
6.326965e-07
6.431457e-07
-0.0006115057
0.0006120275
9.519005e-12
-3.151954e-06
6.758229e-07
6.391573e-07
6.720545e-07
6.807192e-07
-0.000612507
0.0006129441
1.00962e-11
-3.184064e-06
6.962174e-07
6.771997e-07
6.928554e-07
7.066268e-07
-0.0006133773
0.000613789
1.098123e-11
-3.248409e-06
7.146795e-07
7.036078e-07
7.118538e-07
7.259897e-07
-0.0006141916
0.0006145906
1.189753e-11
-3.307643e-06
7.30641e-07
7.235841e-07
7.283463e-07
7.506176e-07
-0.0006149724
0.0006153329
1.258334e-11
-3.367451e-06
7.548344e-07
7.485606e-07
7.529584e-07
7.698242e-07
-0.0006156834
0.0006160232
1.299687e-11
-3.420289e-06
7.719305e-07
7.682557e-07
7.704221e-07
7.855111e-07
-0.0006163548
0.0006166794
1.318112e-11
-3.467731e-06
7.873155e-07
7.842244e-07
7.860549e-07
7.981539e-07
-0.0006169991
0.0006173157
1.328014e-11
-3.510242e-06
7.996533e-07
7.971363e-07
7.98694e-07
8.083404e-07
-0.0006176298
0.0006179431
1.341882e-11
-3.547983e-06
8.097731e-07
8.075343e-07
8.09004e-07
8.16664e-07
-0.0006182556
0.000618569
1.35656e-11
-3.581473e-06
8.180033e-07
8.160169e-07
8.17391e-07
8.234544e-07
-0.0006188829
0.0006191987
1.382235e-11
-3.611096e-06
8.247186e-07
8.229193e-07
8.241991e-07
8.290974e-07
-0.0006195158
0.0006198354
1.403591e-11
-3.637474e-06
8.302714e-07
8.286357e-07
8.298335e-07
8.338722e-07
-0.0006201568
0.000620481
1.408345e-11
-3.661165e-06
8.349729e-07
8.334949e-07
8.346157e-07
8.379908e-07
-0.0006208072
0.0006211363
1.404026e-11
-3.682545e-06
8.390226e-07
8.376681e-07
8.387082e-07
8.416272e-07
-0.0006214675
0.0006218016
1.401099e-11
-3.701985e-06
8.425911e-07
8.413275e-07
8.423038e-07
8.448911e-07
-0.0006221377
0.0006224766
1.408589e-11
-3.719825e-06
8.458052e-07
8.446382e-07
8.4557e-07
8.478758e-07
-0.0006228174
0.0006231609
1.416936e-11
-3.736276e-06
8.487403e-07
8.476578e-07
8.485324e-07
8.506531e-07
-0.0006235061
0.0006238538
1.399635e-11
-3.751552e-06
8.514789e-07
8.50442e-07
8.512704e-07
8.53267e-07
-0.000624203
0.0006245546
1.370542e-11
-3.765867e-06
8.540592e-07
8.530781e-07
8.538839e-07
8.557643e-07
-0.0006249075
0.0006252626
1.375686e-11
-3.779355e-06
8.565206e-07
8.556138e-07
8.563871e-07
8.581728e-07
-0.0006256189
0.000625977
1.385752e-11
-3.792095e-06
8.589038e-07
8.580462e-07
8.588134e-07
8.604885e-07
-0.0006263362
0.0006266972
1.36029e-11
-3.80399e-06
8.611727e-07
8.60343e-07
8.61015e-07
8.626508e-07
-0.0006270591
0.0006274226
1.323814e-11
-3.815136e-06
8.633523e-07
8.624692e-07
8.631503e-07
8.647596e-07
-0.0006277869
0.0006281526
1.322429e-11
-3.825687e-06
8.653927e-07
8.645857e-07
8.65241e-07
8.667813e-07
-0.000628519
0.0006288865
1.316879e-11
-3.835654e-06
8.674129e-07
8.666413e-07
8.672858e-07
8.6878e-07
-0.0006292545
0.0006296235
1.306995e-11
-3.845095e-06
8.693864e-07
8.686562e-07
8.692751e-07
8.706966e-07
-0.0006299928
0.000630363
1.286556e-11
-3.853888e-06
8.712852e-07
8.705746e-07
8.711661e-07
8.725443e-07
-0.0006307334
0.0006311044
1.260182e-11
-3.862056e-06
8.731091e-07
8.724149e-07
8.729893e-07
8.743267e-07
-0.0006314755
0.0006318469
1.246458e-11
-3.869631e-06
8.74874e-07
8.742113e-07
8.7477e-07
8.760208e-07
-0.0006322183
0.0006325899
1.238336e-11
-3.876483e-06
8.765475e-07
8.759081e-07
8.764386e-07
8.776219e-07
-0.0006329612
0.0006333325
1.235789e-11
-3.882552e-06
8.781248e-07
8.774969e-07
8.780058e-07
8.791143e-07
-0.0006337035
0.000634074
1.227933e-11
-3.887782e-06
8.795996e-07
8.789992e-07
8.794969e-07
8.804793e-07
-0.0006344441
0.0006348134
1.193947e-11
-3.891986e-06
8.80939e-07
8.803698e-07
8.808366e-07
8.81671e-07
-0.0006351821
0.0006355496
1.15894e-11
-3.894879e-06
8.821048e-07
8.815504e-07
8.819859e-07
8.826398e-07
-0.0006359163
0.0006362812
1.130828e-11
-3.896143e-06
8.830447e-07
8.825249e-07
8.829416e-07
8.833079e-07
-0.000636645
0.0006370063
1.115641e-11
-3.895158e-06
8.836703e-07
8.832151e-07
8.835928e-07
8.835164e-07
-0.000637366
0.0006377222
1.109737e-11
-3.89081e-06
8.838267e-07
8.834235e-07
8.837647e-07
8.829603e-07
-0.0006380762
0.0006384252
1.099702e-11
-3.881056e-06
8.831788e-07
8.828472e-07
8.830556e-07
8.809857e-07
-0.0006387709
0.000639109
1.091052e-11
-3.862065e-06
8.811295e-07
8.808429e-07
8.809688e-07
8.76304e-07
-0.0006394418
0.0006397624
1.07552e-11
-3.825425e-06
8.762463e-07
8.761583e-07
8.761188e-07
8.644767e-07
-0.0006400737
0.0006403677
1.082361e-11
-3.749485e-06
8.633872e-07
8.643601e-07
8.632822e-07
8.282455e-07
-0.000640655
0.0006409491
1.085723e-11
-3.588945e-06
8.192427e-07
8.281496e-07
8.191496e-07
7.337655e-07
-0.0006412897
0.0006417052
1.070527e-11
-3.287652e-06
7.024339e-07
7.336611e-07
7.022985e-07
6.323906e-07
-0.000642186
0.0006426735
1.054595e-11
-3.006701e-06
6.273257e-07
6.322631e-07
6.272158e-07
6.194509e-07
-0.0006431401
0.0006435879
1.048369e-11
-2.928244e-06
6.209024e-07
6.19342e-07
6.207976e-07
6.12225e-07
-0.0006440287
0.0006444608
1.047719e-11
-2.879973e-06
6.118372e-07
6.121128e-07
6.117307e-07
6.063767e-07
-0.000644887
0.0006453045
1.049649e-11
-2.843562e-06
6.067352e-07
6.062709e-07
6.066381e-07
6.031898e-07
-0.0006457173
0.0006461223
1.141742e-11
-2.819053e-06
6.039134e-07
6.030911e-07
6.038213e-07
5.987892e-07
-0.0006465249
0.00064692
1.239859e-11
-2.79429e-06
6.008601e-07
5.987075e-07
6.008041e-07
5.916641e-07
-0.0006473183
0.0006477015
8.282029e-13
-2.756363e-06
5.948692e-07
5.916668e-07
5.949679e-07
5.303802e-07
-0.0006482152
0.000648986
3.66695e-12
-2.909436e-06
5.384068e-07
5.306245e-07
5.391869e-07
5.51285e-07
-0.0006496245
0.0006496221
5.73651e-12
-2.119276e-06
5.08747e-07
5.523288e-07
5.093378e-07
5.157518e-07
-0.0006497058
0.0006501351
6.610432e-12
-2.375664e-06
4.550849e-07
5.181429e-07
4.574015e-07
4.790704e-07
-0.0006506158
0.0006511334
6.855817e-12
-2.398878e-06
4.598713e-07
4.809012e-07
4.61448e-07
4.820406e-07
-0.0006516473
0.0006521714
6.828304e-12
-2.442498e-06
4.75984e-07
4.832993e-07
4.771061e-07
4.957893e-07
-0.0006526783
0.000653175
6.771463e-12
-2.482333e-06
4.962074e-07
4.966602e-07
4.969998e-07
5.125124e-07
-0.0006536532
0.0006541199
6.780458e-12
-2.522758e-06
5.149155e-07
5.131055e-07
5.154686e-07
5.278116e-07
-0.0006545719
0.0006550154
6.773956e-12
-2.560757e-06
5.304032e-07
5.282015e-07
5.307886e-07
5.4157e-07
-0.0006554479
0.0006558702
6.795163e-12
-2.594753e-06
5.443892e-07
5.418321e-07
5.44635e-07
5.551971e-07
-0.0006562812
0.0006566838
6.746806e-12
-2.628819e-06
5.577027e-07
5.553803e-07
5.578853e-07
5.666995e-07
-0.000657078
0.0006574655
6.601435e-12
-2.658972e-06
5.688612e-07
5.668322e-07
5.689947e-07
5.763376e-07
-0.0006578465
0.0006582224