/*--------------------------------*- C++ -*----------------------------------*\
| =========                 |                                                 |
| \\      /  F ield         | foam-extend: Open Source CFD                    |
|  \\    /   O peration     | Version:     3.1                                |
|   \\  /    A nd           | Web:         http://www.extend-project.de       |
|    \\/     M anipulation  |                                                 |
\*---------------------------------------------------------------------------*/
FoamFile
{
    version     2.0;
    format      ascii;
    class       volScalarField;
    location    "13";
    object      alpha1;
}
// * * * * * * * * * * * * * * * * * * * * * * * * * * * * * * * * * * * * * //

dimensions      [0 0 0 0 0 0 0];

internalField   nonuniform List<scalar> 
119952
(
1
1
1
1
1
1
0.9999999
1
1
0.9999999
1
0.9999999
1
1
1
1
0.9999999
1
0.9999999
1
0.9999999
1
0.9999999
1
0.9999999
1
1
1
1
0.9999993
1
1
1
1
1
1
1
1
1
1
1
1
1
1
1
1
0.9999999
1
1
0.9999999
0.9999999
1
1
0.9999998
1
1
1
0.9999999
0.9999999
1
1
0.9999999
1
1
1
1
1
1
1
1
1
1
1
1
1
1
0.9999999
0.9999999
1
0.9999999
0.9999999
1
1
0.9999999
0.9999999
1
1
1
1
1
1
1
1
0.9999999
1
1
1
1
1
1
1
0.9999999
1
1
1
1
1
1
1
1
1
1
1
1
1
1
1
1
1
1
1
1
1
1
1
0.9999999
1
1
0.9999999
1
1
0.9999998
1
1
0.9999999
1
1
1
1
1
1
1
1
1
1
1
1
1
1
1
1
1
1
1
1
1
1
1
1
1
1
1
1
1
1
1
1
1
1
1
1
1
1
1
1
1
1
1
1
1
1
1
1
1
1
1
1
1
1
1
1
1
1
1
1
1
1
1
1
1
1
1
1
1
1
1
1
1
1
1
1
1
1
1
1
1
1
1
1
1
1
1
1
1
1
1
1
1
1
1
1
1
1
1
1
1
1
1
1
1
1
1
1
1
1
1
1
1
1
1
1
1
1
1
1
1
1
1
0.9999998
1
0.9999998
1
0.9999999
0.9999999
1
1
1
1
0.9999999
0.9999999
1
0.9999999
1
1
0.9999999
0.9999999
1
1
0.9999999
1
1
1
1
1
1
1
1
1
1
1
1
1
1
1
1
1
1
1
1
1
1
1
1
1
1
1
1
1
1
1
1
1
1
1
1
1
1
1
1
1
1
1
1
1
1
1
1
1
1
1
1
1
1
1
1
1
1
1
1
1
1
1
1
1
1
1
1
1
1
1
1
1
1
1
1
1
1
1
1
1
1
1
1
1
1
1
1
1
1
1
1
1
1
1
1
1
1
1
1
0.9999992
0.9999986
0.9999999
1
1
1
0.9999999
0.9999983
0.9999996
1
1
1
0.9999988
0.9999993
1
1
1
1
0.9999999
0.9999987
0.9999999
1
1
1
1
0.9999983
0.9999979
1
1
1
1
1
1
1
1
1
1
1
1
1
1
1
1
1
0.9999999
1
1
1
1
0.9999999
0.9999999
1
1
0.9999999
0.9999999
1
1
1
0.9999999
1
1
1
1
0.9999999
1
1
1
1
1
1
1
1
1
1
1
1
1
1
1
1
1
1
1
1
1
1
1
1
1
1
1
1
1
0.9999999
0.9999999
1
1
1
1
1
1
1
1
1
1
1
1
1
1
1
1
1
1
1
1
1
1
1
1
1
1
0.9999999
1
1
1
1
1
1
1
1
1
1
1
1
1
1
0.9999999
0.9999999
1
1
1
1
1
1
1
1
1
1
1
1
1
1
1
1
1
1
1
1
1
1
1
1
1
1
1
1
1
1
0.9999999
0.9999999
0.9999999
0.9999999
1
1
1
1
1
1
1
1
1
1
0.9999999
0.9999999
0.9999999
1
1
1
1
1
1
1
1
1
1
1
1
1
1
1
1
1
1
1
1
1
1
1
1
1
1
1
1
1
1
1
1
1
1
1
1
1
1
1
1
1
1
1
1
1
1
1
1
1
1
1
1
1
1
1
1
1
1
1
1
1
1
1
1
1
1
1
1
1
1
0.9999999
0.9999999
0.9999999
0.9999999
1
1
1
1
1
1
1
1
1
0.9999998
0.9999998
1
1
1
1
1
1
1
1
1
1
1
1
1
1
1
1
1
1
1
1
1
1
1
1
1
1
1
1
1
1
1
1
1
1
0.9999999
0.9999999
0.9999999
1
1
1
1
1
1
1
1
1
1
1
1
1
1
1
1
1
1
1
1
1
1
1
1
1
1
1
1
1
1
1
1
1
1
1
1
1
1
1
1
1
1
1
1
1
1
1
1
1
1
1
1
1
1
1
1
1
1
1
1
1
1
1
1
1
1
1
1
0.9999998
0.9999998
0.9999998
0.9999998
0.9999998
0.9999999
1
1
1
1
1
1
1
1
1
1
1
1
1
1
1
1
1
1
1
1
1
1
1
1
1
1
1
1
1
1
1
1
1
1
1
1
1
1
1
1
1
1
1
1
1
1
1
1
1
1
1
1
1
1
1
1
1
1
0.9999999
1
1
1
1
1
1
1
1
1
1
1
1
1
1
1
1
1
1
1
1
1
1
1
1
1
1
1
1
1
1
1
1
1
1
1
1
1
1
1
1
1
1
1
1
1
1
1
1
1
1
1
1
1
1
1
1
1
0.9999999
0.9999999
1
1
1
1
1
1
1
1
1
1
1
1
1
1
1
1
1
1
1
1
1
1
1
1
0.9999999
0.9999999
0.9999999
1
1
1
1
1
1
1
1
1
1
1
1
1
1
1
1
1
1
1
0.9999999
0.9999999
0.9999999
1
1
1
1
1
1
1
1
1
0.9999999
0.9999999
0.9999999
1
1
1
1
1
1
1
1
1
1
1
1
1
1
1
1
1
1
1
1
1
1
1
1
1
1
1
1
1
1
1
1
1
1
0.9999999
0.9999997
0.9999995
0.9999995
0.9999999
1
1
1
1
1
1
0.9999999
0.9999998
0.9999998
0.9999999
1
1
1
1
1
1
1
1
1
1
1
1
0.9999999
0.9999999
1
1
0.9999999
0.9999999
1
1
1
1
1
1
1
1
0.9999999
0.9999999
0.9999999
1
1
1
1
1
1
1
1
1
1
1
1
1
1
1
1
1
1
1
1
1
1
1
1
1
1
1
1
1
1
1
1
1
1
1
1
1
1
1
1
1
1
1
1
1
1
1
1
1
1
1
1
1
1
1
1
1
1
1
1
1
1
1
1
0.9999999
0.9999999
0.9999999
1
1
1
1
1
1
1
1
1
0.9999999
0.9999999
1
1
0.9999999
0.9999997
0.9999996
0.9999997
0.9999999
1
1
1
1
1
1
1
1
1
1
1
1
1
1
1
1
0.9999999
0.9999999
1
1
1
1
1
1
1
1
1
1
1
1
1
1
1
0.9999999
0.9999998
0.9999997
0.9999997
0.9999997
0.9999997
0.9999999
0.9999998
0.9999978
0.9999928
0.9999942
0.9999981
0.9999998
1
1
1
1
1
1
1
1
1
1
1
1
1
1
1
1
1
1
1
1
1
1
1
1
1
1
1
1
1
1
1
1
1
1
1
1
1
1
1
1
1
1
1
1
1
1
1
1
1
1
1
1
1
1
1
1
1
1
1
1
0.9999998
0.9999993
0.9999995
0.9999998
1
1
1
1
1
1
1
0.9999999
0.9999998
0.9999999
0.9999999
1
1
1
1
1
1
1
1
1
1
1
1
1
1
1
1
1
1
1
1
1
1
1
1
1
1
1
1
1
1
1
1
1
1
1
1
1
1
1
1
1
1
1
1
1
1
1
1
1
0.9999999
1
1
1
1
1
1
1
1
1
1
1
1
1
1
1
1
1
1
1
1
1
1
1
1
1
1
1
1
1
1
1
1
1
1
1
1
1
1
1
1
1
1
1
1
1
1
1
1
1
1
1
1
1
1
1
1
1
1
1
1
1
1
1
1
1
1
1
0.9999999
0.9999999
0.9999999
0.9999999
1
1
1
1
1
1
1
1
1
1
1
1
1
1
1
1
1
1
1
1
1
1
1
0.9999999
0.9999999
0.9999999
1
1
1
1
1
1
1
1
1
1
1
1
1
1
1
1
1
1
0.9999999
0.9999999
0.9999999
1
1
1
1
1
1
1
1
0.9999999
0.9999999
0.9999999
1
1
1
1
1
1
1
1
1
1
1
1
1
1
0.9999999
0.9999999
0.9999998
0.9999997
0.9999997
0.9999998
0.9999999
0.9999999
0.9999997
0.9999993
0.9999987
0.9999979
0.9999974
0.9999975
0.9999987
0.9999994
0.9999992
0.9999982
0.999993
0.9999717
0.9999471
0.9999651
0.9999926
0.9999996
1
1
1
0.9999999
0.9999995
0.9999977
0.9999928
0.999993
0.9999976
0.9999998
1
1
1
1
1
0.9999999
0.9999997
0.9999996
0.9999998
1
1
1
1
1
1
1
1
0.9999999
0.9999999
0.9999999
1
1
1
1
1
1
1
1
1
1
0.9999999
0.9999999
1
1
1
1
1
1
1
1
1
1
1
1
1
1
1
1
1
1
1
1
1
1
1
1
1
0.9999999
0.9999999
1
1
1
1
1
1
1
1
1
1
1
1
1
1
1
1
1
1
0.9999999
0.9999998
0.9999999
1
1
1
1
1
1
1
1
1
1
1
1
1
1
0.9999999
0.9999999
0.9999999
0.9999999
1
1
1
1
0.9999998
0.9999995
0.9999988
0.9999981
0.9999984
0.9999994
0.9999999
1
1
1
1
1
1
1
1
1
1
1
1
1
1
1
1
1
1
1
1
0.9999999
0.9999998
0.9999998
0.9999999
1
1
1
1
1
1
1
1
1
0.9999999
0.9999998
0.9999998
0.9999999
0.9999999
0.9999998
0.9999974
0.9999836
0.9999356
0.9998351
0.9998021
0.9998687
0.9999712
0.9999979
0.9999944
0.9999848
0.9999864
0.9999951
0.9999995
1
1
0.9999999
0.9999999
1
1
1
1
1
1
1
1
1
1
1
1
1
1
1
1
1
1
1
1
1
1
1
1
1
1
1
1
1
1
1
1
1
1
1
1
1
1
1
1
1
1
1
1
1
1
1
1
1
1
1
1
1
1
1
1
0.9999999
0.9999991
0.9999986
0.9999992
0.9999998
1
1
1
1
1
1
1
1
0.9999997
0.9999992
0.9999994
0.9999997
0.9999999
1
1
1
1
1
1
1
1
1
1
1
1
1
1
1
1
1
1
1
1
1
1
1
1
1
1
1
1
1
1
1
1
1
1
1
1
1
1
1
1
1
1
1
1
1
1
1
1
1
1
1
1
1
1
1
1
1
1
1
1
1
1
1
1
1
1
1
1
1
1
1
1
1
1
1
1
1
1
1
1
1
1
1
1
1
1
1
1
1
1
1
1
1
1
1
1
1
1
1
1
1
1
1
1
1
1
0.9999999
0.9999999
0.9999999
1
1
1
1
1
1
1
1
1
1
1
1
1
1
1
1
1
1
0.9999999
0.9999999
0.9999999
1
1
1
1
1
1
1
1
1
1
1
1
1
1
1
1
1
1
1
1
1
1
1
0.9999999
0.9999999
0.9999999
1
1
1
1
1
1
1
1
1
1
1
1
1
1
1
1
1
1
1
1
1
1
1
1
1
1
1
1
1
0.9999999
0.9999999
1
1
1
1
1
1
1
1
1
1
0.9999999
0.9999996
0.9999992
0.9999983
0.9999953
0.9999869
0.9999709
0.9999725
0.9999861
0.9999966
0.9999958
0.9999902
0.9999689
0.9998808
0.9996728
0.9996919
0.9998949
0.9999901
0.9999979
0.9999929
0.9999531
0.9996948
0.9991227
0.9992961
0.999806
0.999985
0.9999996
0.9999999
0.9999999
0.9999996
0.9999977
0.9999857
0.9999287
0.9998961
0.9999488
0.9999922
0.9999997
1
1
1
0.9999999
0.9999992
0.9999957
0.9999922
0.9999956
0.9999992
1
1
1
1
1
1
1
1
1
1
1
1
1
1
1
1
1
1
1
1
1
1
1
1
1
1
1
1
1
1
1
1
1
1
1
1
1
1
1
1
1
1
1
1
1
1
1
1
1
0.9999999
0.9999999
0.9999999
1
1
1
1
1
0.9999999
0.9999999
1
1
1
1
1
1
1
1
1
1
0.9999998
0.9999998
0.9999998
1
1
1
1
1
1
1
1
1
1
1
0.9999999
0.9999999
0.9999999
1
1
1
1
1
0.9999998
0.9999987
0.9999955
0.9999867
0.9999811
0.999987
0.9999962
0.9999997
1
1
1
1
1
1
1
1
1
1
1
1
1
1
1
1
1
1
1
1
1
1
0.9999999
0.9999998
0.9999999
1
1
1
1
1
0.9999999
0.9999996
0.9999986
0.999995
0.9999846
0.9999573
0.9999246
0.9999404
0.9999836
0.9999989
0.9999995
0.9999931
0.9998462
0.9983263
0.9978138
0.9989275
0.9998204
0.9999919
0.9999991
0.9999973
0.9999862
0.9999884
0.9999964
0.9999997
1
1
1
1
1
1
1
1
1
1
1
1
1
1
1
1
1
1
1
1
1
1
1
1
1
1
1
1
1
1
1
1
1
1
1
1
1
1
1
1
1
1
1
1
1
1
1
1
1
1
1
1
1
1
1
1
1
1
1
1
0.9999999
0.999999
0.999998
0.9999981
0.9999992
0.9999999
1
1
1
1
1
1
1
0.9999999
0.9999989
0.9999957
0.9999955
0.9999974
0.9999995
1
1
1
1
1
1
1
1
1
1
1
1
1
1
1
1
1
1
1
1
1
1
1
1
1
1
1
1
1
1
1
1
1
1
1
1
1
1
1
1
1
1
1
1
1
1
0.9999999
1
1
0.9999999
0.9999999
1
1
0.9999999
1
1
1
1
1
1
1
1
1
1
1
1
1
1
1
1
1
1
1
1
1
1
1
1
1
1
1
1
1
1
1
1
1
1
1
1
1
1
1
1
1
1
1
1
1
1
1
1
1
1
0.9999999
0.9999998
0.9999999
0.9999999
1
1
1
1
1
1
1
1
1
0.9999999
0.9999999
1
1
1
1
1
1
1
1
1
1
1
1
1
1
1
1
1
1
1
0.9999999
1
1
1
1
1
1
1
1
1
1
1
1
1
1
1
1
1
1
1
1
1
1
1
1
0.9999999
0.9999999
1
1
1
1
1
1
0.9999999
0.9999997
0.9999992
0.9999993
0.9999997
1
1
1
1
1
1
1
1
1
1
1
1
0.9999999
0.9999998
0.9999995
0.9999991
0.9999994
0.9999999
1
1
1
1
1
1
1
1
1
0.9999998
0.9999991
0.9999982
0.9999977
0.9999957
0.9999828
0.9998893
0.9995589
0.9992256
0.9993496
0.9997529
0.9999699
0.9999897
0.9999503
0.9995648
0.9972032
0.9965751
0.9980694
0.9996936
0.9999851
0.9999948
0.9999779
0.9996656
0.9968623
0.9955684
0.997087
0.9994066
0.9999669
0.9999994
0.9999998
0.9999991
0.9999941
0.9999615
0.9997504
0.9992473
0.9994237
0.9998431
0.999986
0.9999996
1
0.9999999
0.9999997
0.9999975
0.9999814
0.9999388
0.9999506
0.9999853
0.9999986
0.9999999
1
0.9999999
0.9999998
0.9999993
0.9999994
0.9999998
1
1
1
1
1
1
1
1
1
1
1
1
1
1
1
1
1
1
1
1
1
1
1
1
1
1
1
1
1
1
1
1
1
1
1
1
1
1
0.9999999
0.9999999
0.9999999
1
1
1
1
1
0.9999999
0.9999999
1
1
1
0.9999999
0.9999999
0.9999999
1
1
1
1
1
1
1
1
1
0.9999998
0.9999998
0.9999999
1
1
1
1
1
1
1
1
1
1
1
1
1
1
1
1
0.9999998
0.999999
0.9999939
0.9999772
0.9999192
0.9998963
0.9999164
0.9999754
0.9999978
0.9999999
1
1
1
1
1
1
1
1
1
1
1
1
0.9999999
0.9999997
0.9999985
0.9999976
0.999998
0.999999
0.9999998
1
1
1
1
1
1
1
1
1
1
1
0.9999995
0.9999923
0.999946
0.9997401
0.9990088
0.9978937
0.998299
0.9995075
0.9999601
0.9999992
0.9999997
0.9999996
0.9999946
0.9998691
0.9981793
0.9970984
0.997206
0.9988709
0.9998599
0.9999959
0.9999994
0.9999979
0.999997
0.999998
0.9999995
1
1
1
1
1
1
1
1
1
1
1
1
1
1
1
1
1
1
1
1
1
1
1
1
1
1
1
1
1
1
1
1
1
1
1
1
1
1
1
1
1
1
1
1
1
1
1
1
1
1
1
1
1
1
1
1
1
1
1
1
1
0.9999999
0.9999989
0.999998
0.9999983
0.9999994
0.9999999
1
1
1
1
1
1
1
0.9999994
0.9999915
0.9999798
0.9999879
0.999997
0.9999998
1
1
1
1
0.9999999
0.9999999
0.9999999
1
1
1
1
1
1
1
1
1
1
1
1
1
1
1
1
1
1
1
1
1
1
1
1
1
1
1
1
1
1
1
1
1
1
1
1
1
1
1
1
1
1
1
1
1
1
1
1
1
1
1
1
1
1
1
1
1
1
1
1
1
1
1
1
1
1
1
1
1
1
1
1
1
1
1
1
1
1
1
1
1
1
1
1
1
1
1
1
1
1
1
1
1
1
1
1
1
1
1
1
1
1
0.9999999
0.9999998
0.9999998
0.9999999
1
1
1
1
1
1
1
1
1
1
1
1
1
1
1
1
1
1
1
1
1
1
1
1
1
1
1
1
1
1
1
1
1
1
1
1
1
1
1
1
1
1
1
1
1
1
1
1
1
1
1
1
1
1
1
1
1
1
1
1
0.9999998
0.9999981
0.9999895
0.9999834
0.9999875
0.9999963
0.9999997
1
0.9999997
0.9999982
0.9999929
0.9999827
0.9999807
0.9999822
0.9999871
0.9999936
0.9999948
0.9999939
0.9999869
0.9999601
0.9999353
0.9999586
0.999992
0.9999997
1
1
1
1
1
1
1
1
0.9999999
0.9999984
0.9999876
0.9999633
0.999966
0.9999769
0.9999584
0.9996205
0.9974515
0.9937393
0.9949919
0.9984104
0.999841
0.9999899
0.9999656
0.9991892
0.991492
0.9913365
0.9969936
0.9996752
0.9999854
0.9999907
0.9999544
0.9991392
0.9946514
0.9937278
0.9961555
0.999132
0.999935
0.9999987
0.9999994
0.9999952
0.999949
0.999493
0.9969683
0.9958162
0.9980602
0.9997074
0.9999847
0.9999997
0.9999999
0.9999997
0.9999971
0.9999598
0.9997365
0.9996982
0.9998533
0.9999784
0.9999984
0.9999991
0.9999986
0.9999935
0.9999885
0.9999922
0.9999981
0.9999998
1
1
1
1
1
1
1
1
0.9999999
0.9999999
1
1
1
1
1
1
1
1
1
1
1
1
1
1
1
1
1
1
1
1
1
1
1
1
1
1
1
0.9999999
0.9999998
0.9999999
1
1
1
1
1
1
1
1
0.9999999
1
1
1
1
1
1
1
1
1
1
1
1
1
1
1
1
1
0.9999999
1
1
1
1
1
1
1
1
0.9999999
0.9999999
1
1
1
1
0.9999999
0.9999987
0.999988
0.9999312
0.9996882
0.9995137
0.999667
0.999905
0.9999912
0.999999
0.9999993
0.9999994
0.9999996
0.9999997
0.9999998
0.9999997
0.9999998
0.9999999
1
1
1
0.9999999
0.999999
0.9999932
0.999968
0.999917
0.9999017
0.9999332
0.9999816
0.9999977
0.9999985
0.9999982
0.9999977
0.9999976
0.9999977
0.9999981
0.9999984
0.9999984
0.9999982
0.999998
0.9999981
0.999999
0.9999979
0.9999631
0.9992355
0.9901862
0.9819111
0.9905371
0.9983862
0.9999359
0.9999994
0.9999997
0.9999997
0.9999997
0.9999982
0.9999734
0.999736
0.9985405
0.9982823
0.9991671
0.9998788
0.9999961
0.9999999
1
0.9999999
0.9999998
0.9999998
1
1
1
1
1
1
0.9999999
0.9999999
0.9999999
1
1
1
1
1
1
1
1
1
1
0.9999999
1
1
1
1
1
1
1
1
1
1
1
1
1
1
1
1
1
1
1
1
1
1
1
1
1
1
1
1
1
1
1
1
1
1
1
1
1
1
1
1
1
1
1
0.9999996
0.9999989
0.9999992
0.9999998
0.9999999
1
1
1
1
1
1
0.9999994
0.9999904
0.9999786
0.9999786
0.9999854
0.9999969
0.9999998
1
1
1
0.9999999
0.9999995
0.9999992
0.9999993
0.9999996
0.9999999
1
1
1
1
1
1
1
1
0.9999999
0.9999999
0.9999999
1
1
1
1
1
1
1
1
1
1
1
1
1
1
1
1
1
1
1
1
1
1
1
1
1
1
1
1
1
1
1
1
1
1
1
1
1
1
1
1
1
1
1
1
1
1
1
1
1
1
1
1
1
1
1
1
1
1
1
1
1
1
1
1
1
1
1
1
1
1
1
1
1
1
1
1
1
1
1
1
1
1
1
1
1
1
1
1
1
1
0.9999999
0.9999999
1
1
1
1
1
1
1
1
1
1
1
1
1
1
1
1
1
1
1
1
1
1
1
1
1
1
1
1
1
1
1
1
1
1
1
1
1
1
1
1
1
1
1
1
0.9999999
0.9999998
0.9999996
0.9999994
0.9999994
0.9999994
0.9999996
0.9999998
1
1
1
1
1
1
0.9999994
0.9999929
0.9999587
0.9998593
0.9998311
0.9999093
0.9999823
0.999999
0.9999999
0.9999999
0.9999975
0.9999569
0.9996906
0.9989887
0.998704
0.999058
0.9997566
0.9999322
0.9998101
0.9991063
0.9987172
0.9990817
0.9997323
0.9999796
0.9999995
1
1
1
0.9999999
0.9999998
0.9999995
0.999999
0.9999985
0.9999975
0.9999892
0.9999256
0.9997472
0.9997376
0.9998629
0.9998599
0.9994018
0.9959215
0.986065
0.9861688
0.9941838
0.9990768
0.9999387
0.9999272
0.9996752
0.9970224
0.9881753
0.9907281
0.9969974
0.999668
0.9999814
0.999963
0.9991985
0.9931349
0.9943742
0.9978049
0.999553
0.9999695
0.9999987
0.9999989
0.9999926
0.99988
0.9979873
0.9886747
0.9877776
0.9940617
0.9990897
0.9999617
0.9999994
0.9999994
0.9999973
0.999982
0.9998629
0.9994456
0.9995191
0.9998364
0.9999746
0.9999878
0.9999835
0.9999355
0.9999142
0.9999507
0.9999901
0.9999987
0.9999998
1
1
1
1
1
1
0.9999999
0.9999996
0.9999996
0.9999999
1
1
1
1
1
0.9999999
0.9999999
1
1
1
1
1
1
1
1
1
1
1
1
1
1
1
1
1
1
1
1
1
0.9999999
0.9999998
0.9999999
1
1
1
1
1
1
1
1
1
1
1
1
1
1
1
1
1
1
1
1
1
1
1
1
1
1
1
1
1
1
1
1
0.9999997
0.9999986
0.9999978
0.9999982
0.9999993
0.9999998
0.9999998
0.9999994
0.9999975
0.9999891
0.9999531
0.9997453
0.9987651
0.9987168
0.9994296
0.9999063
0.9999553
0.9999529
0.9999592
0.9999804
0.9999938
0.9999939
0.9999876
0.9999796
0.999983
0.9999927
0.9999987
0.9999991
0.9999984
0.9999915
0.999951
0.999814
0.999438
0.9986192
0.998818
0.9996027
0.9999433
0.9999536
0.99995
0.9999517
0.9999408
0.9998855
0.99985
0.9998517
0.9998459
0.9997901
0.9996324
0.9995016
0.9995299
0.9996872
0.9999298
0.9999727
0.9998414
0.9967487
0.9811101
0.9792414
0.9868105
0.9976289
0.9999023
0.9999992
0.9999997
0.9999997
0.9999997
0.9999996
0.9999969
0.999975
0.9998825
0.9998218
0.9998582
0.9999381
0.9999839
0.9999978
0.9999998
0.9999999
0.9999999
0.9999999
0.9999999
0.9999998
0.9999993
0.9999969
0.9999925
0.9999943
0.9999985
0.9999999
1
1
1
1
1
1
1
1
1
0.9999998
0.9999995
0.9999996
0.9999999
1
1
1
1
1
1
1
1
1
1
1
1
1
1
1
1
1
1
1
1
1
1
1
1
1
1
1
1
1
1
1
1
1
1
1
1
1
1
1
1
1
1
1
1
1
0.9999999
0.9999995
0.9999995
0.9999996
0.9999997
0.9999999
1
1
0.9999999
0.9999988
0.9999872
0.9999786
0.9999819
0.9999943
0.9999995
1
1
1
0.9999999
0.999999
0.9999959
0.9999962
0.9999984
0.9999998
1
1
1
1
1
1
0.9999999
0.9999996
0.9999994
0.9999995
0.9999999
1
1
1
1
1
1
1
1
1
1
1
1
1
1
1
1
1
1
1
1
1
1
0.9999999
1
1
1
1
1
0.9999999
1
0.9999999
1
1
0.9999999
1
1
1
1
1
1
1
1
1
1
1
1
1
1
1
1
1
1
1
1
1
1
1
1
1
1
1
1
1
1
1
1
1
1
1
1
1
1
1
1
1
1
1
1
1
1
1
1
1
1
1
1
1
1
1
1
1
1
1
1
1
1
1
1
1
1
1
1
1
1
1
1
1
1
1
1
1
1
1
1
1
1
1
1
1
1
1
0.9999999
0.9999998
0.9999993
0.999998
0.9999969
0.999997
0.9999976
0.9999982
0.9999983
0.9999976
0.9999952
0.9999916
0.9999898
0.99999
0.9999922
0.9999962
0.9999984
0.9999985
0.9999984
0.9999981
0.9999975
0.9999971
0.9999973
0.9999972
0.9999963
0.9999925
0.9999858
0.9999796
0.9999778
0.9999794
0.9999816
0.99998
0.9999649
0.9999075
0.999771
0.9995476
0.9994081
0.9995625
0.999894
0.9999936
0.9999982
0.9999979
0.9999976
0.9999976
0.9999972
0.9999859
0.9998555
0.9993041
0.998567
0.9988726
0.9996473
0.9999622
0.9999984
0.9999994
0.9999992
0.9999987
0.9999888
0.9997628
0.9967491
0.9899261
0.9931687
0.9984109
0.999891
0.9996896
0.9968381
0.9950599
0.9950599
0.9969711
0.9994762
0.999981
0.9999998
0.9999997
0.9999984
0.9999928
0.9999823
0.9999802
0.9999807
0.9999789
0.9999696
0.9999346
0.9997412
0.9989184
0.9987327
0.9992183
0.9995064
0.9988197
0.9946999
0.9856007
0.9856007
0.9918326
0.9983518
0.9985523
0.9975648
0.9934234
0.9822299
0.9766525
0.9773246
0.9806929
0.9874505
0.9944614
0.9980943
0.9982236
0.9930405
0.991225
0.995382
0.9993241
0.9999734
0.9999981
0.999997
0.9999826
0.9997753
0.9964718
0.9869689
0.9866598
0.9901282
0.997541
0.9998505
0.9999979
0.9999988
0.9999832
0.9998017
0.9987576
0.9981545
0.9987319
0.9996935
0.999923
0.9998447
0.9993915
0.9994092
0.9997422
0.9999565
0.9999939
0.9999993
1
1
1
0.9999999
0.9999997
0.9999976
0.9999877
0.9999845
0.9999925
0.9999989
0.9999999
0.9999999
0.9999999
0.9999998
0.999999
0.9999986
0.9999992
0.9999998
1
1
1
1
1
1
1
1
1
1
1
1
1
1
0.9999999
0.9999998
0.9999997
0.9999998
1
1
1
1
1
1
1
1
1
1
1
1
1
0.9999999
0.9999998
0.9999997
0.9999998
0.9999999
1
0.9999998
0.9999996
0.9999997
0.9999999
1
1
1
1
1
1
1
1
1
1
1
1
1
0.9999999
0.999999
0.9999938
0.9999785
0.9999695
0.999983
0.9999967
0.9999992
0.999998
0.9999861
0.9999017
0.9996884
0.9994736
0.998777
0.998616
0.998616
0.9988381
0.9992152
0.9991828
0.9992865
0.9996898
0.9999359
0.9999383
0.9998511
0.9996086
0.9995502
0.9997162
0.999932
0.9999908
0.9999847
0.999937
0.9996316
0.9985292
0.9961822
0.9952576
0.9952716
0.9959505
0.9986945
0.9996844
0.9992624
0.9982289
0.9982036
0.9990537
0.9997438
0.9991419
0.9988546
0.9990491
0.9988498
0.9895957
0.975174
0.9752742
0.9885493
0.9981225
0.999855
0.9998703
0.9998398
0.9996892
0.9994385
0.9990784
0.9989357
0.9991258
0.9997188
0.9999771
0.9999995
0.9999997
0.9999997
0.9999997
0.9999993
0.9999936
0.9999679
0.9998968
0.999723
0.9990523
0.9975111
0.9977707
0.9993155
0.9999472
0.999998
0.9999968
0.9999875
0.9999391
0.999858
0.9999018
0.9999758
0.9999979
0.9999999
1
1
1
1
1
1
1
1
0.9999998
0.9999987
0.9999973
0.9999984
0.9999997
1
1
1
1
1
1
1
1
1
1
1
1
1
1
1
1
1
1
1
1
1
1
1
1
1
1
1
1
1
1
1
1
1
1
1
1
1
1
1
1
1
1
1
1
1
1
1
0.9999996
0.9999974
0.9999949
0.9999955
0.9999978
0.9999996
1
1
0.9999999
0.9999985
0.9999912
0.9999899
0.9999953
0.9999993
1
1
1
1
0.999999
0.9999918
0.9999903
0.9999957
0.9999993
1
1
1
1
1
1
0.9999998
0.9999987
0.999998
0.9999988
0.9999998
1
1
1
1
1
1
1
1
1
1
1
1
1
1
1
1
1
1
1
1
1
1
1
1
1
1
1
1
0.9999999
1
1
0.9999999
1
1
1
1
0.9999998
0.9999999
1
1
1
1
1
1
1
1
1
0.9999999
1
1
1
1
1
1
1
1
1
1
1
1
1
1
1
1
1
1
1
1
1
1
1
1
1
1
1
1
1
1
1
1
1
1
1
1
1
1
1
1
1
1
1
1
1
1
1
1
1
1
1
1
1
1
1
1
1
1
1
1
1
1
1
1
1
1
1
1
1
1
1
1
1
1
1
1
1
1
0.9999999
0.9999995
0.999998
0.9999922
0.9999765
0.999959
0.9999557
0.9999595
0.9999575
0.9999112
0.9996561
0.9990048
0.9986996
0.9988105
0.9992365
0.9995576
0.9995446
0.9992439
0.9982274
0.9971074
0.9969874
0.9973868
0.9985919
0.9995658
0.9996655
0.9996218
0.9994708
0.9992964
0.9992773
0.9994027
0.9995989
0.9996047
0.999444
0.9985705
0.997046
0.9969175
0.9974228
0.9984612
0.9987808
0.9985918
0.997094
0.9879306
0.9707793
0.9794188
0.9951595
0.9996824
0.9999261
0.9999114
0.9998136
0.9995196
0.9994266
0.999653
0.9997177
0.9991826
0.9957271
0.9941559
0.9955172
0.9987073
0.9998412
0.9999891
0.999996
0.9999927
0.9999778
0.9999407
0.9998328
0.9986465
0.9865402
0.9832697
0.992442
0.9987407
0.9997515
0.9997521
0.9993599
0.9971258
0.9971524
0.9986937
0.9998051
0.9999934
0.9999966
0.9999801
0.9999045
0.9998809
0.9999203
0.9999095
0.9998131
0.99977
0.9997504
0.9996013
0.9989487
0.9974566
0.9962947
0.9958707
0.9964575
0.9917115
0.9890988
0.9923533
0.9972235
0.9967147
0.9914399
0.9589358
0.8929963
0.7955366
0.605064
0.5227081
0.5643484
0.6740128
0.7744021
0.8463301
0.9095475
0.9568191
0.9786837
0.992895
0.9985903
0.9998451
0.9999935
0.9999967
0.9999651
0.999438
0.9939312
0.9899625
0.9910774
0.9955259
0.9988534
0.9998673
0.9999646
0.9999652
0.9999653
0.9998716
0.9979502
0.9940206
0.9939831
0.9965208
0.9994114
0.9998977
0.9991809
0.9986829
0.9988856
0.9996622
0.9999736
0.9999996
0.9999999
0.9999998
0.9999994
0.9999954
0.9999585
0.9997846
0.9997693
0.9999089
0.9999881
0.9999982
0.9999988
0.9999984
0.9999917
0.9999772
0.9999835
0.9999949
0.9999994
0.9999999
1
1
1
1
1
1
1
1
1
1
1
1
1
1
0.9999997
0.9999986
0.9999986
0.9999995
0.9999999
1
1
1
1
1
1
1
1
1
1
1
0.9999998
0.9999988
0.9999956
0.999993
0.9999946
0.9999985
0.9999999
1
0.9999999
0.9999995
0.9999995
0.9999996
0.9999999
1
1
1
1
1
1
0.9999999
0.9999997
0.9999995
0.9999995
0.9999993
0.999998
0.999988
0.9999422
0.9998113
0.9998344
0.9999438
0.9999931
0.9999971
0.9999895
0.9999164
0.9993509
0.9961824
0.9933082
0.9958138
0.9990181
0.9996726
0.9995375
0.9984886
0.9955793
0.9963978
0.9988299
0.9996085
0.9993058
0.9978187
0.9950024
0.9956487
0.9985082
0.9998277
0.999979
0.9999478
0.9994895
0.9956461
0.9782744
0.9576545
0.9735292
0.9941932
0.9995893
0.9997391
0.9997094
0.9988099
0.9928185
0.9908914
0.9930236
0.9982488
0.999735
0.9994865
0.9958335
0.9672715
0.9638301
0.9862843
0.9984489
0.9995641
0.9995397
0.9985608
0.995847
0.9956249
0.9969886
0.9993714
0.9999658
0.9999984
0.999998
0.9999954
0.9999953
0.9999971
0.9999993
0.9999997
0.9999997
0.9999997
0.9999972
0.9999425
0.9991954
0.9913207
0.9648116
0.9658127
0.9864678
0.9983882
0.9998954
0.999923
0.9998783
0.9995775
0.9987821
0.9989046
0.999648
0.9999599
0.9999976
0.9999999
1
1
1
1
1
1
0.9999999
0.9999991
0.9999933
0.9999826
0.999985
0.9999952
0.9999995
1
1
1
1
1
1
1
1
1
1
1
1
1
0.9999999
0.9999999
1
1
1
1
1
1
1
1
1
1
1
1
1
1
1
1
1
1
1
1
1
1
1
1
1
1
1
1
1
1
1
1
1
0.9999996
0.9999944
0.9999739
0.9999747
0.9999893
0.9999986
1
1
1
1
0.9999997
0.9999988
0.999998
0.9999988
0.9999998
1
1
1
0.9999998
0.9999977
0.9999897
0.999989
0.9999915
0.9999975
0.9999998
1
1
1
1
0.9999997
0.999997
0.9999953
0.9999973
0.9999995
1
1
1
1
1
1
1
1
1
1
1
1
1
1
1
1
1
1
1
1
1
1
1
1
1
0.9999999
1
0.9999999
0.9999998
1
1
1
1
0.9999998
1
1
0.9999999
0.9999999
1
1
1
1
1
1
1
1
0.9999999
0.9999998
0.9999999
1
1
1
1
1
1
1
1
1
1
1
0.9999999
0.9999999
1
0.9999999
1
1
1
1
1
1
1
1
1
1
1
1
1
1
1
1
1
1
1
1
1
1
1
1
1
1
1
1
1
1
1
1
1
1
1
1
1
1
1
1
1
1
1
1
1
1
1
1
1
1
1
1
1
1
1
1
1
1
1
1
1
1
1
1
1
1
1
1
1
0.9999999
0.9999995
0.9999975
0.9999909
0.9999762
0.9999507
0.9999074
0.9998088
0.9994814
0.9982561
0.9951411
0.9931678
0.9935148
0.9951456
0.9955697
0.9925937
0.9734832
0.9372621
0.9334122
0.947389
0.9730812
0.9854638
0.9826405
0.9602294
0.8983388
0.8639348
0.8824106
0.9484575
0.9918595
0.9938892
0.9908596
0.9775112
0.9549943
0.961437
0.9875559
0.9952395
0.9942985
0.9919054
0.9859047
0.9645395
0.9364942
0.9420566
0.9688618
0.9882431
0.987207
0.961403
0.8115134
0.7859693
0.9143278
0.9906645
0.9986701
0.9987076
0.9972715
0.984757
0.9780925
0.9883865
0.9983835
0.9988217
0.9931791
0.986467
0.988098
0.99484
0.9978213
0.9988591
0.9995403
0.9998974
0.9999329
0.9998807
0.999459
0.9975437
0.9925664
0.9847467
0.9765551
0.9760352
0.9793639
0.9856164
0.9917686
0.9955963
0.9970673
0.9985911
0.9996432
0.9999244
0.999972
0.9999678
0.9998948
0.9996728
0.9995671
0.9996612
0.9997634
0.9997161
0.9995572
0.9981613
0.9960063
0.9969657
0.9983094
0.9973122
0.9890067
0.9833562
0.9866949
0.996447
0.9980457
0.9980503
0.9940701
0.9548163
0.8377862
0.5055399
0.1414057
0.02500174
0.01928928
0.02061041
0.03511481
0.08057085
0.1401315
0.179181
0.2864969
0.636597
0.9224302
0.9928282
0.9997063
0.9999881
0.9999953
0.9999806
0.9997777
0.9977515
0.9953235
0.9965563
0.9987265
0.9998087
0.999915
0.9998287
0.9984531
0.9918388
0.9929585
0.9980359
0.9985223
0.9956727
0.9954669
0.9980629
0.9997343
0.9999236
0.9995105
0.99893
0.99933
0.9998377
0.9999898
0.9999998
0.9999995
0.9999966
0.9999749
0.9998254
0.9993551
0.999359
0.9997254
0.9999368
0.9999724
0.9999528
0.9997973
0.9997824
0.9999045
0.9999821
0.9999968
0.9999993
0.9999999
1
1
1
1
1
1
1
0.9999999
0.9999999
1
1
1
1
0.9999997
0.9999978
0.9999963
0.9999967
0.9999987
0.9999998
1
0.9999999
0.9999999
0.9999999
1
1
0.9999999
0.9999998
0.9999997
0.9999997
0.9999998
0.9999998
0.9999982
0.9999816
0.9999512
0.9999674
0.9999916
0.9999994
1
1
1
1
1
1
1
1
1
1
0.9999998
0.9999987
0.9999949
0.9999887
0.9999878
0.9999892
0.9999883
0.9999756
0.9998896
0.9994795
0.9993478
0.9995438
0.9998963
0.9999927
0.9999953
0.9999769
0.9996803
0.9966393
0.9811011
0.9779364
0.9909653
0.9989118
0.9996147
0.9991895
0.9935059
0.988386
0.9912229
0.9973779
0.9976476
0.9945078
0.9799872
0.9730948
0.9829056
0.9960653
0.9997676
0.9999742
0.9999652
0.9996738
0.9942536
0.9263801
0.8661617
0.9105151
0.9821051
0.9991676
0.9997391
0.9996488
0.9964838
0.9882822
0.9936466
0.9986405
0.9996731
0.9996741
0.9995862
0.9944843
0.9572896
0.947103
0.9594487
0.990269
0.9981832
0.9937319
0.9885469
0.989146
0.9954271
0.9993209
0.9999705
0.9999964
0.9999962
0.9999936
0.999977
0.9999632
0.9999788
0.9999954
0.9999996
0.9999997
0.9999997
0.999999
0.9999773
0.9994558
0.987184
0.9166283
0.9033699
0.9369028
0.9881698
0.9994126
0.999483
0.9967254
0.9891956
0.989261
0.9950995
0.999285
0.9999565
0.9999989
1
1
0.9999999
0.9999997
0.9999989
0.9999983
0.9999985
0.9999991
0.999998
0.9999724
0.9999353
0.9999463
0.9999824
0.9999982
0.9999999
0.9999999
0.9999999
0.9999999
0.9999999
0.9999999
1
1
0.9999999
0.9999998
0.9999996
0.9999996
0.9999998
1
1
1
0.9999999
0.9999998
0.9999998
0.9999999
0.9999999
1
1
1
1
1
1
1
1
1
1
1
1
1
1
1
1
1
1
1
1
0.9999999
0.9999999
1
1
1
1
1
1
0.9999997
0.9999921
0.9999526
0.9999475
0.9999668
0.9999925
0.9999995
1
1
1
1
0.9999999
0.9999999
0.9999999
0.9999999
0.9999997
0.9999984
0.9999971
0.9999975
0.999998
0.9999969
0.99999
0.999989
0.999989
0.9999894
0.9999961
0.9999996
1
1
0.9999995
0.9999946
0.99999
0.9999943
0.9999989
0.9999999
1
1
1
1
1
1
1
1
1
1
1
1
1
1
1
1
1
1
1
1
1
1
1
1
1
1
1
1
1
1
1
1
1
1
1
1
1
0.9999997
0.9999998
0.9999999
1
1
1
0.9999999
0.9999999
1
1
1
1
1
1
1
1
1
1
1
1
1
1
1
1
1
1
1
1
1
1
1
1
1
0.9999998
0.9999997
0.9999998
1
1
1
1
1
1
1
1
1
1
1
1
1
1
1
1
1
1
1
1
1
1
1
1
1
1
1
1
1
1
1
1
1
1
1
1
1
1
1
1
1
1
1
1
1
1
1
1
1
1
1
1
1
0.9999999
0.9999998
0.9999998
0.9999999
1
1
1
1
1
1
1
1
1
1
1
1
0.9999996
0.999996
0.9999691
0.9998173
0.9992036
0.9976347
0.9951819
0.9923741
0.988991
0.9841031
0.9723237
0.9327938
0.8553904
0.8362711
0.8622087
0.901224
0.8970584
0.8462968
0.6284459
0.4390153
0.4848811
0.6397861
0.7782007
0.8379559
0.7942952
0.4229527
0.151938
0.1488716
0.4546501
0.8819327
0.9625498
0.9030335
0.4958902
0.4219748
0.728876
0.9577559
0.9694183
0.922498
0.8574177
0.8337702
0.8351195
0.828082
0.828082
0.8581534
0.9269199
0.9372264
0.7428912
0.3981702
0.4093242
0.6892093
0.9300729
0.9726923
0.9648325
0.8989961
0.825346
0.8909392
0.9798836
0.9949615
0.9913632
0.9773777
0.9814291
0.991194
0.9899147
0.9869487
0.9928241
0.9982475
0.9996358
0.999364
0.9976193
0.9916634
0.9741023
0.929116
0.8463602
0.759038
0.6885602
0.5739814
0.4982614
0.5341999
0.7021126
0.8957499
0.9779681
0.9968553
0.9997299
0.9999179
0.9997564
0.9994566
0.9988342
0.9970238
0.997204
0.9990793
0.999533
0.9987991
0.9933957
0.9926945
0.9971736
0.9981807
0.9949252
0.9726839
0.9739787
0.9902984
0.9979752
0.998043
0.998044
0.9920728
0.9167842
0.4866541
0.08071251
0.01923824
0.0192364
0.01925414
0.01927047
0.01936126
0.02013771
0.01964905
0.0196074
0.0196074
0.02306889
0.1032574
0.6318734
0.962726
0.999143
0.9999881
0.9999933
0.9999466
0.9996618
0.9994278
0.9995518
0.9998067
0.9998697
0.9998109
0.9991153
0.9919504
0.9832629
0.9894557
0.9973444
0.9987763
0.9984338
0.9965175
0.9979529
0.9993453
0.999926
0.9999586
0.9998984
0.9998214
0.9998711
0.9999628
0.9999976
0.9999992
0.9999919
0.9998992
0.9994585
0.9984705
0.9983238
0.9990045
0.9993428
0.9974021
0.9969229
0.998247
0.9996313
0.9999393
0.9999841
0.9999971
0.9999998
1
1
1
1
1
1
1
0.9999999
0.9999999
0.9999999
1
1
0.9999999
0.9999995
0.9999948
0.9999903
0.9999913
0.9999967
0.9999996
1
1
0.9999999
0.9999997
0.9999997
0.9999998
0.9999999
0.9999999
0.9999994
0.9999944
0.9999847
0.999985
0.9999925
0.9999955
0.9999849
0.9999422
0.9999397
0.9999403
0.9999766
0.9999974
0.9999999
1
1
0.9999999
0.9999999
0.9999999
0.9999999
0.9999999
0.9999998
0.9999992
0.999995
0.9999465
0.9998958
0.9999153
0.9999713
0.9999598
0.9998363
0.9990461
0.997665
0.9982976
0.9994474
0.9999371
0.9999926
0.9999928
0.9999755
0.9996834
0.9950662
0.9590139
0.943599
0.9719924
0.996177
0.9996319
0.9993692
0.9926407
0.9843521
0.9882466
0.9926761
0.9899736
0.9693055
0.902953
0.9175831
0.9714349
0.9961184
0.9998402
0.9999674
0.9999676
0.9998848
0.9981236
0.9632196
0.8670976
0.8661617
0.9051893
0.9802476
0.9990039
0.9996581
0.998346
0.9885405
0.9858262
0.9943359
0.9993166
0.9996741
0.9996741
0.9992935
0.9885736
0.9495176
0.947103
0.9576835
0.9763324
0.9791529
0.9883782
0.9978381
0.9998851
0.9999891
0.9999881
0.9999794
0.9999396
0.9998031
0.9997736
0.9998105
0.9999448
0.9999955
0.9999997
0.9999997
0.9999997
0.9999997
0.9999982
0.9999692
0.9994184
0.9885945
0.914805
0.9227793
0.9729127
0.9970814
0.9990153
0.9938792
0.9661718
0.9599754
0.9746077
0.9951342
0.9997516
0.9999975
1
1
1
0.9999995
0.9999931
0.9999494
0.9998712
0.9998756
0.9999377
0.9999883
0.9999867
0.9999654
0.9999742
0.9999913
0.9999943
0.9999922
0.9999863
0.9999893
0.9999972
0.9999996
0.9999995
0.9999993
0.9999985
0.9999958
0.9999928
0.999995
0.9999989
0.9999999
1
1
1
0.9999999
0.9999995
0.999999
0.9999989
0.9999991
0.9999997
1
1
1
1
1
1
1
1
1
1
1
1
1
1
1
1
1
1
0.9999999
0.9999998
0.9999999
1
1
1
1
1
1
0.9999997
0.999995
0.999958
0.9999475
0.9999475
0.9999666
0.9999939
0.9999998
1
0.9999999
0.9999995
0.9999987
0.9999986
0.9999991
0.9999998
0.9999996
0.9999965
0.9999717
0.999963
0.9999816
0.9999971
0.9999994
0.9999989
0.9999972
0.999997
0.9999983
0.9999997
1
1
0.9999994
0.9999915
0.9999801
0.9999879
0.9999974
0.9999999
1
1
1
1
1
1
1
1
1
0.9999999
0.9999998
0.9999998
0.9999999
1
1
1
1
1
1
1
1
1
1
1
1
1
1
0.9999999
0.9999999
1
1
1
0.9999998
0.9999998
1
1
1
1
1
1
1
1
1
1
1
1
1
1
1
0.9999999
0.9999999
1
1
1
1
1
1