/*--------------------------------*- C++ -*----------------------------------*\
| =========                 |                                                 |
| \\      /  F ield         | foam-extend: Open Source CFD                    |
|  \\    /   O peration     | Version:     3.1                                |
|   \\  /    A nd           | Web:         http://www.extend-project.de       |
|    \\/     M anipulation  |                                                 |
\*---------------------------------------------------------------------------*/
FoamFile
{
    version     2.0;
    format      ascii;
    class       volScalarField;
    location    "13";
    object      k;
}
// * * * * * * * * * * * * * * * * * * * * * * * * * * * * * * * * * * * * * //

dimensions      [0 2 -2 0 0 0 0];

internalField   nonuniform List<scalar> 
119952
(
0.05118522
0.04623779
0.04393765
0.04218041
0.04058215
0.03916095
0.03870746
0.03887653
0.03950774
0.04050803
0.04180746
0.04330908
0.0449445
0.04666147
0.0484424
0.05030117
0.05225718
0.05432798
0.0565482
0.05919481
0.06326489
0.0640464
0.06611298
0.06947229
0.06889352
0.06912515
0.06913946
0.06884517
0.06718873
0.01381117
0.08017806
0.07532798
0.07261186
0.07133367
0.07094765
0.07102524
0.07128838
0.07158982
0.07184506
0.07217264
0.07052174
0.07256445
0.07605541
0.0800497
0.08396488
0.08763131
0.09097431
0.0940103
0.09676214
0.1095033
0.1117174
0.1136488
0.1152621
0.1167828
0.1182906
0.119759
0.121123
0.1222981
0.1231842
0.1240107
0.1241264
0.1237076
0.1228905
0.1217512
0.1203709
0.1188173
0.117159
0.1156159
0.1159996
0.1140221
0.1119937
0.1106785
0.1096473
0.1084959
0.1073033
0.1063091
0.1055992
0.1052377
0.1052409
0.1055768
0.1062336
0.107207
0.1085005
0.1101246
0.1120825
0.114352
0.1168559
0.1194534
0.1221897
0.125059
0.127323
0.1295267
0.1322775
0.1342114
0.1352179
0.1357505
0.1360571
0.1331227
0.1303255
0.1277627
0.1252173
0.122632
0.1199228
0.117074
0.1140765
0.1109443
0.1077041
0.1043972
0.1010858
0.09786279
0.09485301
0.09220379
0.09006148
0.08851076
0.08751095
0.08688727
0.08639413
0.0858006
0.08494784
0.08376917
0.08229354
0.08061595
0.0788257
0.07699208
0.07519878
0.07346754
0.07178646
0.07000657
0.06702654
0.06386279
0.06378877
0.06614256
0.06968927
0.07329413
0.07610809
0.07753781
0.07752229
0.07652014
0.07500648
0.07320843
0.0713685
0.06962809
0.06796057
0.06626633
0.06445825
0.06253272
0.06056849
0.05865676
0.0568299
0.0551398
0.05359511
0.05219871
0.05094389
0.04981762
0.04880436
0.0478886
0.04705631
0.04629561
0.04559684
0.04495239
0.04435625
0.04380368
0.04329076
0.04281409
0.04237052
0.04195702
0.04157024
0.04120575
0.04085569
0.04051083
0.04016968
0.03982883
0.03948463
0.03913366
0.03877296
0.03840018
0.03801364
0.0376125
0.03719739
0.03677171
0.03634327
0.03591376
0.03548108
0.03505075
0.03462729
0.03421442
0.03381792
0.03344103
0.03308548
0.03275194
0.03244059
0.032152
0.03188625
0.03164399
0.03142526
0.03123048
0.0310684
0.03094338
0.03066254
0.03030881
0.02996094
0.02964655
0.02937519
0.02914233
0.02894271
0.02877312
0.02863057
0.02851153
0.02841266
0.02833125
0.02826535
0.02821333
0.02817381
0.02814586
0.02812935
0.02812423
0.02813079
0.0281491
0.02817892
0.02821969
0.02827067
0.02833144
0.02840201
0.02848269
0.02857437
0.02867808
0.02879507
0.02892647
0.0290733
0.02923612
0.02941371
0.02959571
0.02966306
0.02996231
0.03033101
0.03066026
0.03095458
0.03121336
0.03143898
0.03163209
0.03179737
0.03193888
0.03205892
0.03216115
0.03224918
0.03232515
0.03239094
0.03244834
0.03249819
0.03254047
0.03257496
0.03260168
0.03262137
0.03263591
0.03264843
0.0326627
0.0326788
0.03268394
0.0326878
0.03269842
0.03271915
0.03275052
0.03279274
0.032848
0.03293355
0.03306357
0.03324827
0.03317796
0.03352365
0.03388138
0.03420548
0.03460011
0.03516958
0.03597507
0.03701921
0.03817663
0.03932028
0.04033165
0.04102922
0.04111791
0.04104546
0.04174183
0.04303284
0.04382769
0.04340381
0.04201033
0.04013358
0.03796986
0.03564794
0.03337185
0.03113358
0.02892959
0.02682855
0.02493529
0.02330257
0.02198019
0.020951
0.02013823
0.01947423
0.0189299
0.01850019
0.01818267
0.01797168
0.01785867
0.01784321
0.01792551
0.01810285
0.01837295
0.01873479
0.01918783
0.01972308
0.02033235
0.02100183
0.02171055
0.02246578
0.02326179
0.02409429
0.02495991
0.02585505
0.02677406
0.02773736
0.02869032
0.02951285
0.03037314
0.03130588
0.03230129
0.03336765
0.03451014
0.03568893
0.03686375
0.03800929
0.03911237
0.04016686
0.04116953
0.04211734
0.04300601
0.04382949
0.04458019
0.04524959
0.04582865
0.04630795
0.04667816
0.0469315
0.04706322
0.0470711
0.04695409
0.04671222
0.0463474
0.04586415
0.04526992
0.04457454
0.04378875
0.04292188
0.04198013
0.04096743
0.03988884
0.03875354
0.03757502
0.03636934
0.035153
0.03394138
0.03274799
0.03158418
0.03045922
0.02938035
0.02835282
0.02738021
0.02646454
0.02560594
0.02480369
0.02405652
0.02336253
0.0227193
0.02212404
0.02157373
0.02106525
0.02059545
0.02016112
0.01975905
0.0193862
0.01903949
0.01871618
0.01841415
0.01813185
0.01786805
0.01762146
0.01739079
0.01717491
0.01697279
0.01678351
0.01660626
0.01644025
0.01628455
0.01613855
0.0160017
0.01587321
0.01575241
0.01563854
0.01553105
0.01542872
0.01533003
0.01523123
0.01512326
0.0149858
0.01482319
0.01498039
0.09475192
0.08899334
0.09335923
0.1001726
0.1066227
0.1120036
0.1163206
0.1197569
0.122597
0.1253341
0.1343206
0.1443119
0.1536652
0.1614997
0.1676918
0.1724274
0.175963
0.1785418
0.2029402
0.2023968
0.2017607
0.2007931
0.1997833
0.1989197
0.1982811
0.1978804
0.1976951
0.1976414
0.1979648
0.198206
0.1982825
0.1983644
0.1985441
0.1988191
0.1991342
0.1994127
0.199565
0.1996978
0.1994887
0.1986729
0.1974583
0.1959128
0.1940468
0.1918763
0.1894955
0.1869872
0.184458
0.1819481
0.1795333
0.1773258
0.1753677
0.1736895
0.1723437
0.1713684
0.1707767
0.1705612
0.1830622
0.1832617
0.1836752
0.1842519
0.1849002
0.1855342
0.1860671
0.1864283
0.1865496
0.1863459
0.1857963
0.1849026
0.1836443
0.1820313
0.1801289
0.1780409
0.1759086
0.1737643
0.1716768
0.1692335
0.1663291
0.1635074
0.160766
0.1579981
0.1552238
0.152587
0.1501973
0.1481286
0.1464886
0.1453652
0.1447923
0.1448046
0.1454374
0.1467189
0.148657
0.1512214
0.1543318
0.1578469
0.1615851
0.1653629
0.1689158
0.172051
0.174885
0.1772592
0.1788565
0.1796599
0.1795795
0.1784595
0.1765194
0.174439
0.1722705
0.1699948
0.1675737
0.1649817
0.1622042
0.1592269
0.156039
0.1526352
0.1490191
0.1452074
0.1412382
0.1371787
0.1331237
0.1291785
0.1254328
0.1219429
0.1187283
0.1157807
0.1130783
0.1105886
0.1082754
0.1061134
0.1040646
0.1020944
0.1002014
0.09833347
0.09643594
0.09445277
0.09212546
0.08930734
0.08641033
0.08392059
0.08194724
0.08059979
0.08002244
0.08030476
0.08141796
0.08311521
0.08515195
0.0873363
0.08946235
0.09132463
0.09272576
0.09349513
0.09352441
0.09280675
0.09143702
0.08955583
0.0872799
0.08478217
0.08222833
0.07973645
0.07740692
0.07529474
0.07339485
0.0716897
0.07015804
0.06877843
0.06753073
0.06639704
0.06536218
0.06441367
0.06354143
0.06273728
0.06199448
0.06130728
0.06067057
0.06007943
0.05952882
0.05901343
0.05852773
0.05806594
0.05762185
0.05718898
0.05676085
0.05633117
0.05589411
0.05544442
0.05497754
0.05448981
0.05397868
0.05344335
0.05288459
0.05230408
0.05170461
0.05108914
0.05046116
0.04982717
0.04919597
0.04857548
0.04797213
0.04739286
0.04684147
0.04632363
0.04583965
0.04539464
0.04498424
0.04462871
0.04382228
0.04285062
0.04216902
0.04168061
0.04132707
0.04107004
0.04088464
0.04075432
0.04066798
0.04061726
0.04059525
0.04059586
0.04061367
0.04064383
0.04068202
0.04072466
0.04076905
0.04081335
0.04085623
0.04089663
0.04093302
0.04096298
0.04098345
0.0409914
0.04098439
0.04096114
0.04092132
0.04086542
0.04079448
0.04070968
0.0406119
0.04050141
0.04037741
0.04023729
0.04007596
0.03989055
0.03969686
0.03949933
0.03928913
0.03906634
0.03883756
0.03861064
0.03839343
0.03819226
0.03801159
0.03785414
0.03772119
0.03761295
0.03752892
0.03746814
0.03742954
0.03741241
0.03741694
0.03744492
0.03750002
0.03758736
0.03771235
0.03787934
0.03809067
0.03834565
0.03863941
0.03896307
0.03930527
0.03965337
0.03999408
0.04031523
0.04060681
0.04085944
0.04106287
0.04120538
0.04429829
0.04421593
0.04403083
0.04372318
0.04329075
0.04275072
0.04213723
0.0414926
0.04086596
0.0403068
0.039839
0.03946154
0.03916319
0.03897074
0.03895187
0.03919943
0.03972705
0.04050084
0.04148187
0.04257378
0.04365971
0.04468159
0.04560931
0.04629703
0.04647478
0.04593892
0.04471826
0.04303407
0.04114025
0.03920534
0.03735068
0.03570401
0.0343006
0.03311494
0.03211164
0.03129049
0.03065602
0.03020952
0.02994987
0.02987519
0.02998299
0.03026845
0.03072383
0.03133942
0.03210325
0.03299909
0.03401009
0.03512151
0.03631702
0.03757946
0.03889308
0.04024187
0.04161282
0.04299825
0.04437043
0.04570798
0.04701429
0.04829332
0.04954283
0.05076091
0.05194868
0.05311868
0.05426103
0.05536726
0.056432
0.05745146
0.05842236
0.05934099
0.06020227
0.06099913
0.06172257
0.0623626
0.06290881
0.06335005
0.06367444
0.06387212
0.0639372
0.06386553
0.06365379
0.06329961
0.06280228
0.06216353
0.06138813
0.06048429
0.05946296
0.05833554
0.05711141
0.05579872
0.05440681
0.05294751
0.05143575
0.04988828
0.04832186
0.04675211
0.04519296
0.04365647
0.04215284
0.04069057
0.03927662
0.03791653
0.0366144
0.03537295
0.03419379
0.03307752
0.03202394
0.03103218
0.03010085
0.02922823
0.02841245
0.02765158
0.02694195
0.02627914
0.02565944
0.02507973
0.02453709
0.02402879
0.02355218
0.02310487
0.02268485
0.02229028
0.02191947
0.02157085
0.02124307
0.02093499
0.02064587
0.02037429
0.02011909
0.01987893
0.0196528
0.01943929
0.01923757
0.01904582
0.01886301
0.01868602
0.01851322
0.0183422
0.0181853
0.01807644
0.01801016
0.05086027
0.0550748
0.06000249
0.06537698
0.07125488
0.07776192
0.08512804
0.093777
0.1044788
0.117584
0.1742901
0.1900954
0.2061362
0.2216787
0.2362284
0.2489201
0.2618193
0.276354
0.2999778
0.3639879
0.3753783
0.3843494
0.3917921
0.3978028
0.4026781
0.4064815
0.4092493
0.4109741
0.4119818
0.412298
0.4131536
0.413924
0.4141178
0.4136081
0.4124646
0.4108111
0.4087748
0.4067368
0.4025414
0.3985928
0.3947947
0.3910539
0.387315
0.383519
0.3796311
0.3756395
0.3715678
0.3674592
0.3631821
0.3587456
0.3541805
0.3495022
0.3447581
0.3400085
0.3352991
0.3306596
0.3439654
0.3393644
0.3346913
0.3300333
0.3253999
0.3208258
0.3163662
0.3120737
0.3080181
0.3042454
0.3007685
0.2976493
0.2949073
0.2925102
0.2904129
0.2885466
0.2868249
0.2851647
0.28349
0.2816959
0.2797246
0.2775744
0.2751898
0.2725015
0.2694632
0.2660623
0.2623302
0.2583314
0.2541641
0.2499463
0.2457634
0.2417026
0.2378676
0.2343584
0.2312665
0.2286523
0.2265647
0.2250039
0.2238191
0.2230717
0.222695
0.2225895
0.222653
0.2227892
0.2229029
0.222899
0.2226857
0.2221839
0.2213484
0.2201459
0.2185699
0.2166664
0.2145721
0.212282
0.2097382
0.2069694
0.204021
0.2007623
0.1972344
0.1936248
0.1900271
0.1864628
0.1829887
0.1797054
0.1767053
0.1740691
0.1718855
0.1702883
0.1693581
0.1691736
0.1698092
0.1713237
0.1737341
0.1769911
0.1809896
0.1855334
0.1903488
0.1951317
0.1995764
0.2033977
0.206482
0.2087457
0.2100283
0.2102753
0.2094999
0.207793
0.2054121
0.2028242
0.2001582
0.1974134
0.1945916
0.1916796
0.1886591
0.1855062
0.1821982
0.1787183
0.1750565
0.1712029
0.1671639
0.1629844
0.1587241
0.1544483
0.1502152
0.1460683
0.1420367
0.1381437
0.13441
0.1308498
0.1274776
0.1242987
0.1212956
0.1184589
0.1157682
0.1131603
0.1106093
0.1080546
0.1053253
0.1024027
0.09947004
0.09665693
0.09399612
0.09153859
0.08938804
0.08765103
0.08640289
0.08568661
0.08552924
0.08593846
0.08688193
0.08826606
0.08992441
0.09161918
0.09305231
0.09404155
0.09447719
0.09431326
0.09356376
0.09228546
0.09061653
0.08871444
0.08670143
0.08466986
0.08271345
0.08088926
0.07921123
0.07767725
0.07627838
0.07500241
0.07383618
0.07276717
0.07178445
0.07087894
0.07004319
0.06927104
0.06855723
0.06789699
0.06728563
0.06671831
0.06618985
0.06569447
0.06522583
0.06477704
0.06434082
0.06390973
0.06347649
0.06303414
0.06257646
0.06209814
0.06159526
0.0610652
0.06050686
0.05992068
0.05930877
0.05867436
0.05802219
0.05735753
0.05668702
0.05601755
0.05535673
0.05471126
0.05408819
0.05349232
0.05293042
0.05240477
0.05192366
0.05148121
0.05105606
0.05069665
0.05040096
0.05016506
0.04998608
0.04986179
0.04978982
0.04976733
0.04979093
0.04985648
0.04995906
0.05009299
0.05025208
0.05043009
0.05062124
0.05082073
0.05102503
0.05123174
0.05143889
0.05164398
0.05184334
0.05203241
0.05220677
0.05236305
0.05249944
0.05261546
0.0527117
0.05278935
0.05284972
0.05289355
0.05292043
0.05292829
0.05291293
0.05286814
0.05278667
0.05266377
0.05250069
0.05230285
0.05207836
0.05183846
0.0515948
0.05135735
0.05113361
0.05092876
0.0507461
0.05058751
0.0504539
0.05034564
0.05026281
0.05020569
0.05017542
0.0501749
0.05020947
0.05028673
0.05041528
0.05060299
0.05085559
0.05117527
0.05155922
0.05199899
0.0524817
0.05299259
0.05351543
0.0540331
0.05453014
0.05499425
0.05541242
0.05576855
0.05604604
0.05623954
0.05628967
0.05619419
0.05593103
0.05548938
0.0548705
0.05407929
0.05312384
0.05201926
0.050782
0.04942612
0.04797738
0.04647705
0.04497305
0.04351881
0.04219331
0.04109053
0.04028417
0.03982857
0.03975327
0.04003164
0.04060833
0.04144121
0.04248363
0.04372213
0.0450828
0.04645295
0.04770898
0.04872423
0.04937537
0.04955464
0.0492091
0.04836599
0.047131
0.04564249
0.04404553
0.04253242
0.0412069
0.04009728
0.03921139
0.03856972
0.03818022
0.03804049
0.03814307
0.03847704
0.03902853
0.03977956
0.04070926
0.04179595
0.04301705
0.04434895
0.04576815
0.04725124
0.04877645
0.05032364
0.05186576
0.05338385
0.05486959
0.05631377
0.05770595
0.05903799
0.06030475
0.0615075
0.06264993
0.06372905
0.06474433
0.0656961
0.06658481
0.06741043
0.06817154
0.06886441
0.06948315
0.07002136
0.07047175
0.07082539
0.07107026
0.07119344
0.07119217
0.0710639
0.07080524
0.07041301
0.06988512
0.06922113
0.06842272
0.06749455
0.066445
0.06528477
0.06402221
0.06266188
0.06121478
0.05969425
0.05811575
0.05649578
0.05485038
0.05319435
0.05154093
0.04990174
0.04828693
0.04670527
0.04516427
0.04367028
0.0422284
0.04084256
0.03951563
0.0382495
0.03704521
0.03590304
0.03482261
0.03380303
0.032843
0.03194067
0.03109286
0.03029668
0.02954922
0.02884762
0.028189
0.02757061
0.02698981
0.02644411
0.02593117
0.02544878
0.02499486
0.02456745
0.02416466
0.02378462
0.02342532
0.0230857
0.0227649
0.02246251
0.02217696
0.02190736
0.02165168
0.02140944
0.02117781
0.02095744
0.02074479
0.02054508
0.0203555
0.02019073
0.02005071
0.03815661
0.043278
0.04787598
0.07381938
0.1000997
0.1327989
0.1547634
0.1768004
0.1976447
0.2171253
0.234219
0.2490769
0.2635805
0.2784092
0.2934362
0.3087053
0.324221
0.3396741
0.3547788
0.3696455
0.3841815
0.3982225
0.4117342
0.4248116
0.4374998
0.4497433
0.4614009
0.4724919
0.4828712
0.4926582
0.5021341
0.5342674
0.5385301
0.5413073
0.5428604
0.5433481
0.5429055
0.541659
0.5397058
0.5372177
0.5344242
0.5313814
0.5282086
0.5250013
0.5218333
0.5187173
0.5156524
0.5126245
0.5095821
0.5064168
0.5026864
0.4984806
0.4937875
0.488701
0.4833445
0.4778245
0.4722193
0.4665955
0.4610134
0.4555102
0.4500896
0.4447129
0.439315
0.4338487
0.4283057
0.422703
0.4170766
0.4114174
0.4055023
0.3996534
0.3938352
0.388011
0.3821701
0.3763468
0.3706109
0.3650404
0.3597088
0.354685
0.3500362
0.3458207
0.3420707
0.3387911
0.3359467
0.3334536
0.3311997
0.3290702
0.3269602
0.3247768
0.3224503
0.3199308
0.3171695
0.3141056
0.3106738
0.3068288
0.3025687
0.297945
0.293046
0.2879851
0.2828879
0.2778875
0.2731222
0.268723
0.2648121
0.2614789
0.258785
0.2567339
0.2552888
0.2543933
0.2539609
0.2538704
0.2539912
0.254194
0.254351
0.2543383
0.2540473
0.2533918
0.2523159
0.2508011
0.2488834
0.2466902
0.244202
0.2413746
0.2382447
0.2348382
0.2311825
0.2272753
0.2231466
0.2189054
0.214666
0.2105056
0.2064973
0.2027345
0.1993165
0.1963383
0.1938987
0.1921736
0.1912837
0.1913506
0.1924931
0.1948052
0.1983199
0.2029767
0.208606
0.2149001
0.2214431
0.2277737
0.2334536
0.2381027
0.241475
0.24347
0.2440624
0.2433352
0.2414758
0.2387599
0.235515
0.2320575
0.22858
0.2251129
0.2216465
0.2181693
0.21466
0.2110884
0.2074222
0.2036341
0.1997075
0.1956364
0.1914239
0.1870892
0.182665
0.1781878
0.1736911
0.1691958
0.1647077
0.1602615
0.1558912
0.1516282
0.1475041
0.1435398
0.1397391
0.1361063
0.1326306
0.129277
0.1260216
0.122825
0.1196089
0.1163547
0.1131302
0.1099877
0.1069328
0.1039782
0.1011652
0.09854445
0.09616977
0.09410071
0.0923978
0.09111347
0.09028594
0.08992968
0.09002116
0.09048479
0.09119046
0.09197416
0.09265893
0.093085
0.09313935
0.09277423
0.09201083
0.09092092
0.08959739
0.08813065
0.08659476
0.08505058
0.08355843
0.08215151
0.08084045
0.07962612
0.07850431
0.07746825
0.0765106
0.07562458
0.07480454
0.0740459
0.07334489
0.07269817
0.0721024
0.07155394
0.0710486
0.07058137
0.07014636
0.06973675
0.06934499
0.06896299
0.06858248
0.06819534
0.06779395
0.06737156
0.06692268
0.06644332
0.06593122
0.06538585
0.06480852
0.06420211
0.0635712
0.0629215
0.0622598
0.06159353
0.0609309
0.06028002
0.059649
0.05904491
0.05847528
0.05794623
0.05746511
0.05703646
0.05666533
0.05635538
0.05610929
0.05592911
0.05581607
0.05577013
0.05578979
0.05587215
0.05601299
0.05620674
0.05644659
0.05672462
0.05703222
0.05736089
0.05770328
0.05805372
0.0584087
0.05876597
0.05912321
0.05947669
0.05982088
0.06014945
0.06045713
0.06074098
0.06100046
0.06123642
0.06145067
0.06164548
0.06182255
0.06198192
0.06212119
0.06223493
0.06231467
0.06234943
0.06232781
0.06224179
0.0620922
0.06189002
0.06165309
0.0614012
0.06115084
0.06091299
0.0606939
0.06049691
0.0603237
0.060175
0.06005104
0.05995193
0.05987788
0.05982993
0.05981121
0.05982855
0.05989295
0.06001806
0.06021724
0.0605006
0.06087332
0.06133415
0.06187401
0.06247614
0.06311963
0.06378421
0.06444949
0.06509502
0.06570516
0.06627016
0.06677593
0.06720149
0.06752478
0.06772126
0.06776418
0.06763476
0.06731484
0.06679488
0.06607197
0.0651461
0.06402186
0.06270678
0.06120362
0.05951349
0.05764961
0.05564061
0.0535285
0.05136819
0.04923285
0.04720632
0.04537276
0.04381344
0.0425857
0.04170962
0.04118635
0.04101582
0.04119114
0.04169744
0.04252918
0.04366934
0.04505053
0.04663934
0.0483843
0.05020448
0.05196575
0.05347242
0.05450684
0.05489877
0.05460843
0.05373186
0.05246384
0.05100366
0.04953415
0.04823571
0.04719244
0.04642572
0.04594715
0.04576457
0.04587062
0.04624817
0.04687505
0.04772603
0.04877423
0.04999091
0.05134598
0.05280898
0.05434978
0.05593983
0.05755007
0.05915337
0.06072808
0.0622565
0.06372337
0.06511605
0.06642442
0.06764118
0.06876637
0.06979963
0.07074256
0.07159827
0.07237067
0.07306341
0.07367906
0.07421745
0.07467496
0.07505101
0.07534443
0.07555105
0.07566258
0.07566335
0.07555183
0.07532707
0.07498805
0.07453392
0.07396418
0.07327867
0.07247761
0.07156231
0.07053673
0.06940873
0.06818685
0.06687152
0.06546843
0.06398833
0.06244662
0.06085884
0.05923944
0.05760145
0.05595656
0.05431535
0.05268733
0.05108111
0.04950441
0.04796405
0.04646594
0.04501505
0.04361538
0.04227008
0.04098142
0.03975086
0.03857914
0.0374663
0.03641178
0.03541434
0.03447204
0.03358287
0.03274456
0.0319547
0.03121076
0.03051022
0.02985057
0.02922935
0.0286442
0.02809283
0.02757306
0.02708284
0.02662022
0.02618336
0.02577048
0.02537995
0.0250099
0.02465881
0.0243262
0.02401129
0.02371267
0.02342917
0.02315951
0.02290288
0.02265874
0.02242707
0.02220894
0.02200628
0.0218345
0.01854235
0.02073948
0.02287762
0.03059995
0.04091544
0.05839122
0.07081856
0.08409114
0.09844371
0.1130818
0.1282934
0.1450676
0.1630523
0.18155
0.2009034
0.222707
0.2562478
0.2721701
0.2884022
0.3048047
0.3216568
0.3383134
0.3543407
0.3698401
0.384985
0.3998577
0.4143364
0.4286734
0.442822
0.4567394
0.4703391
0.4834894
0.4960568
0.507962
0.5190864
0.5292601
0.5385409
0.5467538
0.5539903
0.5601912
0.5653217
0.5683471
0.5670782
0.5652932
0.5627581
0.5593812
0.5552945
0.550688
0.54577
0.5407269
0.5357528
0.5310311
0.5266828
0.522773
0.5193392
0.5163983
0.5139152
0.5118306
0.5100458
0.508462
0.5069414
0.5052841
0.5030545
0.5002864
0.4971497
0.4937919
0.4903201
0.4867869
0.4832246
0.4796817
0.4762077
0.4728063
0.4694069
0.465893
0.4621572
0.4581593
0.4539045
0.4494588
0.4448421
0.4400793
0.4351728
0.4300707
0.4247143
0.4190965
0.4132873
0.4074081
0.4015791
0.3959064
0.3905016
0.3854748
0.3809114
0.376877
0.373408
0.3704688
0.3679454
0.3656863
0.3635467
0.3614034
0.3591549
0.3567224
0.3540616
0.3511473
0.3479405
0.3443829
0.3404488
0.3360367
0.3311231
0.3257787
0.3201206
0.3143001
0.308564
0.3031426
0.2981994
0.293885
0.2903179
0.2875691
0.2856484
0.2845039
0.2840366
0.2841045
0.2845351
0.2851429
0.2857429
0.2861568
0.2862242
0.2858178
0.2848508
0.2832864
0.2811514
0.2785714
0.2756688
0.2723595
0.2686853
0.2646958
0.2604393
0.2559718
0.2513279
0.2465496
0.2417223
0.2369513
0.2323294
0.2279459
0.2239026
0.2203088
0.2172753
0.2149248
0.2134848
0.2131418
0.2140676
0.2164295
0.220353
0.2258828
0.2329336
0.2412056
0.2501953
0.2592519
0.2676942
0.2749161
0.2804257
0.2839004
0.285268
0.2846818
0.2824448
0.278959
0.2747266
0.2701176
0.2654011
0.2607641
0.2562592
0.2518728
0.2475772
0.2433373
0.2391103
0.2348494
0.230512
0.2260677
0.2215102
0.2168426
0.2120618
0.2071798
0.2022212
0.1972171
0.1921994
0.1871868
0.1822047
0.177283
0.1724502
0.1677349
0.163151
0.1587026
0.1544063
0.1502639
0.1462608
0.1423844
0.1386105
0.1348955
0.1312282
0.1276374
0.1241384
0.1207241
0.117393
0.1141586
0.1110413
0.1080685
0.1052745
0.102698
0.1003803
0.09836416
0.09668784
0.09537682
0.09443195
0.09382005
0.09347285
0.09329303
0.09316711
0.09298212
0.09264575
0.09210398
0.09134532
0.09039316
0.08929296
0.08809739
0.0868546
0.08560273
0.08438039
0.08321975
0.0821297
0.08111161
0.08016352
0.07928195
0.07846319
0.07770408
0.07700222
0.07635579
0.07576317
0.07522256
0.07473161
0.07428714
0.07388487
0.07351927
0.07318356
0.07286988
0.07256955
0.07227343
0.07197237
0.07165766
0.07132142
0.070957
0.0705594
0.07012544
0.06965397
0.06914582
0.0686038
0.06803257
0.06743829
0.06682829
0.06621082
0.06559498
0.06499013
0.06440553
0.0638501
0.06333275
0.06286199
0.06244614
0.06209253
0.06180757
0.06159613
0.06146191
0.06140727
0.06143312
0.06153872
0.06172165
0.0619777
0.06230079
0.06268297
0.06311455
0.06358433
0.06408055
0.06459256
0.06511239
0.06563523
0.0661591
0.06668318
0.06720521
0.06771995
0.0682192
0.06869448
0.06914034
0.06955577
0.0699429
0.07030425
0.07064199
0.07096055
0.07126178
0.07154377
0.07180012
0.07201987
0.07218808
0.07228734
0.07230099
0.07221885
0.07204465
0.07179956
0.07151626
0.07122639
0.07095064
0.07069776
0.0704698
0.07026691
0.07008898
0.06993572
0.06980682
0.06970209
0.06962162
0.06956686
0.06954336
0.06956362
0.06964725
0.06981691
0.07009183
0.07048324
0.07099323
0.07161422
0.07232751
0.07310475
0.07391504
0.07473103
0.07552765
0.07628171
0.07697994
0.07761832
0.07818221
0.07864375
0.07897656
0.07914922
0.07914198
0.07893758
0.07852132
0.07788363
0.0770161
0.07592109
0.07461284
0.07310444
0.07139826
0.06949018
0.06738506
0.06510406
0.06268294
0.06016893
0.05761732
0.05508804
0.05264649
0.05036147
0.04829165
0.04647917
0.04495692
0.04375344
0.04289047
0.04238081
0.04222455
0.0424053
0.04290722
0.04374402
0.04495344
0.04655385
0.04845755
0.05060389
0.05288921
0.05515066
0.05716697
0.05869034
0.05951982
0.05958877
0.05900256
0.05797921
0.05676515
0.05554644
0.05448113
0.05368202
0.05318922
0.05300396
0.05312216
0.05353031
0.05420382
0.05511222
0.05622209
0.05749809
0.05890394
0.06040327
0.06195947
0.0635372
0.06510557
0.06663833
0.06811263
0.06950851
0.07080859
0.07199774
0.07306909
0.07402176
0.07485672
0.0755772
0.07619019
0.07670251
0.07711996
0.0774462
0.07767781
0.07781831
0.07787336
0.07784555
0.07773533
0.07754227
0.07726427
0.07690117
0.07645424
0.07592495
0.07531416
0.07462168
0.07384612
0.07298528
0.0720377
0.0710047
0.06989113
0.06870363
0.06743892
0.06609868
0.06469437
0.06323883
0.06174377
0.06021978
0.05867674
0.05712387
0.05556992
0.05402311
0.05249121
0.05098141
0.04950026
0.04805363
0.04664662
0.04528356
0.04396798
0.04270261
0.0414894
0.04032954
0.03922353
0.03817098
0.0371711
0.03622287
0.03532487
0.03447534
0.03367231
0.03291365
0.03219716
0.03152062
0.03088182
0.03027856
0.02970875
0.02917033
0.02866138
0.02818004
0.02772456
0.02729332
0.0268847
0.0264971
0.02612865
0.02577844
0.02544601
0.02513021
0.02483016
0.02454479
0.02427389
0.02401652
0.02377387
0.02354582
0.02335124
0.007445853
0.008757394
0.00976603
0.01457351
0.02017935
0.02758639
0.03381459
0.04093255
0.04871402
0.05708625
0.06633826
0.07728623
0.08937238
0.1029274
0.1191992
0.1442511
0.1577783
0.1720631
0.1866353
0.2014447
0.2164139
0.2314289
0.2463359
0.2610308
0.2753811
0.2892721
0.3029198
0.317816
0.3330106
0.3485645
0.3645904
0.3806399
0.3963038
0.411488
0.4260809
0.440041
0.4535991
0.4668131
0.4796656
0.4920813
0.5039389
0.5150853
0.5253375
0.534571
0.5427534
0.5495775
0.5551558
0.5586644
0.5602841
0.5601597
0.5583401
0.554718
0.5491571
0.5424679
0.5348725
0.5266941
0.5182848
0.509963
0.5020039
0.4946435
0.4880786
0.4824627
0.4779095
0.4744519
0.4720817
0.4707299
0.4703012
0.4706392
0.4716158
0.4730874
0.4748025
0.4760919
0.4770332
0.4777117
0.4782135
0.4786199
0.4789618
0.4792098
0.4793344
0.479364
0.4793537
0.4792841
0.4790301
0.478409
0.4772653
0.475537
0.4732526
0.4705128
0.46743
0.4640706
0.4604185
0.4563913
0.4519013
0.4469289
0.4415701
0.4360012
0.4303948
0.4248935
0.4196413
0.4147766
0.4104068
0.4066279
0.4034966
0.4009486
0.3988005
0.3968404
0.3948941
0.3928311
0.390549
0.3879805
0.3851119
0.3819748
0.3786238
0.375021
0.3709192
0.3662308
0.3609872
0.3553148
0.34939
0.3433965
0.3374554
0.3318573
0.3269418
0.322902
0.3198826
0.3179517
0.3170795
0.3171414
0.3179444
0.3192501
0.3207967
0.3223222
0.3235741
0.3243172
0.3243562
0.323556
0.3218499
0.3192511
0.3158776
0.3120266
0.3076967
0.302956
0.2978829
0.2925604
0.2870664
0.2814726
0.2758411
0.2702332
0.2647279
0.2594199
0.2544059
0.2497853
0.2456673
0.2421704
0.239428
0.2375997
0.2369584
0.2378146
0.2404034
0.2449438
0.2515801
0.2603107
0.2709073
0.2828376
0.2952757
0.3072516
0.3178718
0.3264393
0.3324378
0.3355761
0.3358809
0.3336689
0.329448
0.3238496
0.3176221
0.3111708
0.3047932
0.2986981
0.292951
0.2875036
0.2822733
0.277189
0.2721909
0.2672184
0.2622097
0.2571077
0.2518648
0.2464503
0.2408521
0.2350809
0.2291767
0.2231987
0.217215
0.2112956
0.2054717
0.1997668
0.1941985
0.1887838
0.1835339
0.17845
0.1735382
0.1687982
0.1642219
0.1598013
0.1555182
0.1513388
0.1472523
0.1432697
0.1393914
0.1356086
0.1319173
0.1283202
0.1248231
0.1214358
0.1181722
0.1150499
0.1120905
0.1093195
0.1067659
0.1044595
0.1024255
0.1006762
0.09920406
0.09797917
0.09694896
0.09604366
0.09518811
0.09431665
0.09338479
0.09237349
0.09128652
0.09014348
0.08897183
0.08779811
0.08664251
0.08552401
0.08447224
0.08349068
0.08257692
0.08172816
0.08094192
0.08021632
0.07955023
0.07894304
0.07839419
0.07790275
0.07746699
0.07708409
0.07674979
0.0764583
0.07620235
0.07597329
0.07576148
0.07555674
0.07534886
0.07512813
0.07488575
0.07461425
0.07430786
0.07396287
0.07357783
0.07315365
0.07269347
0.07220245
0.07168742
0.07115652
0.07061894
0.07008474
0.06956443
0.06906852
0.0686074
0.06819144
0.06783072
0.06753479
0.06731231
0.06717074
0.06711603
0.06715223
0.06728118
0.06750235
0.06781349
0.06821048
0.06868693
0.06923396
0.06984029
0.07049266
0.07117634
0.07187562
0.07257648
0.07327427
0.07396811
0.07466027
0.07535263
0.0760428
0.07672229
0.07737822
0.07799942
0.07858185
0.079129
0.07964781
0.08014475
0.08062459
0.08109018
0.08153973
0.08196553
0.08235368
0.08268492
0.08293614
0.0830823
0.08310024
0.08297688
0.08272214
0.0823758
0.081995
0.08162779
0.08129594
0.08099957
0.08073285
0.0804931
0.08028015
0.08009379
0.07993345
0.07979839
0.07968769
0.07960232
0.07955045
0.07955296
0.07964321
0.07985792
0.08022378
0.08075027
0.08143176
0.08224971
0.08317151
0.0841538
0.08515332
0.08613477
0.08706749
0.08792431
0.08869461
0.08938252
0.08997364
0.09043116
0.09072194
0.09081532
0.0906942
0.09034367
0.08975119
0.08890982
0.08781997
0.08649398
0.08495783
0.08323786
0.08134118
0.07925044
0.07696258
0.0744915
0.07186662
0.06913025
0.06632759
0.06350312
0.06070749
0.05799116
0.05539746
0.05296332
0.05072703
0.04872893
0.04700343
0.04557333
0.04444703
0.04362587
0.04312262
0.04296636
0.04319049
0.04381902
0.04485979
0.04632527
0.04822153
0.05047953
0.05298631
0.05563412
0.05824756
0.06059276
0.06240657
0.06349133
0.06379835
0.06345596
0.06270486
0.06179812
0.06093405
0.06022996
0.05977652
0.05962034
0.05976439
0.06019
0.06087535
0.06178979
0.06289482
0.0641481
0.06550616
0.06692631
0.06836924
0.06979955
0.0711854
0.07249834
0.07371295
0.07480515
0.07576087
0.07657665
0.07725021
0.07777963
0.07817313
0.07843902
0.07858581
0.07862196
0.07855584
0.07839583
0.0781513
0.07783252
0.07744991
0.0770132
0.07653078
0.07600937
0.07545412
0.07486779
0.07425016
0.07359827
0.07290674
0.07216797
0.07137358
0.07051696
0.06959517
0.06860832
0.06755162
0.06642168
0.06522638
0.06397428
0.06267345
0.06133189
0.0599576
0.05855862
0.05714292
0.05571833
0.05429255
0.05287298
0.05146666
0.05008013
0.04871938
0.04738978
0.04609599
0.04484191
0.04363068
0.04246463
0.04134536
0.04027339
0.03924922
0.03827289
0.03734386
0.03646116
0.03562346
0.03482919
0.03407663
0.03336392
0.03268914
0.03205035
0.03144562
0.03087305
0.03033079
0.02981708
0.02933024
0.02886867
0.02843083
0.02801525
0.02762049
0.02724486
0.02688724
0.02654727
0.02622419
0.02591699
0.02562533
0.02534829
0.02508642
0.0248398
0.0246292
0.001766192
0.00682455
0.01022165
0.0142111
0.01874603
0.02402667
0.03015095
0.0369966
0.04475966
0.05418928
0.0684419
0.07718575
0.08672119
0.09682477
0.1075254
0.1187633
0.1304826
0.1425793
0.1548908
0.1672958
0.1797739
0.1938537
0.2081978
0.2226255
0.2370329
0.251322
0.2654269
0.2792704
0.2928907
0.3062798
0.3194143
0.3326213
0.3462785
0.3602018
0.3744474
0.38886
0.4031073
0.4168507
0.4298779
0.44226
0.4542265
0.4658924
0.4772823
0.4883229
0.4989237
0.5089348
0.5181628
0.5262597
0.5330987
0.5386587
0.5415216
0.5423304
0.5408876
0.5372411
0.531513
0.5238838
0.5146424
0.5041497
0.4929116
0.4813601
0.4699187
0.458973
0.4488718
0.4398966
0.4322896
0.4262247
0.4218341
0.4191941
0.4183043
0.4191046
0.4214555
0.4251853
0.4299929
0.4352671
0.4407495
0.4464406