/*--------------------------------*- C++ -*----------------------------------*\
| =========                 |                                                 |
| \\      /  F ield         | foam-extend: Open Source CFD                    |
|  \\    /   O peration     | Version:     3.1                                |
|   \\  /    A nd           | Web:         http://www.extend-project.de       |
|    \\/     M anipulation  |                                                 |
\*---------------------------------------------------------------------------*/
FoamFile
{
    version     2.0;
    format      ascii;
    class       volScalarField;
    location    "13";
    object      nut;
}
// * * * * * * * * * * * * * * * * * * * * * * * * * * * * * * * * * * * * * //

dimensions      [0 2 -1 0 0 0 0];

internalField   nonuniform List<scalar> 
119952
(
4.805943e-05
3.144643e-05
3.178265e-05
3.518958e-05
3.746657e-05
3.541264e-05
3.423331e-05
3.357157e-05
3.320076e-05
3.300316e-05
3.290436e-05
3.282069e-05
3.269512e-05
3.249237e-05
3.222059e-05
3.189994e-05
3.155051e-05
3.118352e-05
3.07901e-05
3.039371e-05
3.881891e-05
3.736654e-05
3.707995e-05
4.815978e-05
4.717876e-05
4.688089e-05
4.651789e-05
4.661006e-05
4.674565e-05
2.424134e-05
3.229477e-05
3.427184e-05
3.850364e-05
4.308376e-05
4.803433e-05
5.325596e-05
5.874137e-05
6.43312e-05
6.998862e-05
7.97326e-05
0.0003351274
0.0003977478
0.000466417
0.000538676
0.0006120334
0.0006865507
0.000761997
0.0008383539
0.0009153524
0.001321341
0.001415475
0.00151232
0.001610016
0.001708071
0.00180507
0.001898835
0.001986861
0.002066718
0.002135527
0.002194188
0.002236924
0.002266305
0.002284238
0.002292432
0.002293173
0.002289389
0.00228488
0.002285395
0.002279201
0.002230946
0.002213682
0.002210479
0.002214931
0.002215902
0.002224648
0.002245667
0.002279437
0.002324773
0.002383014
0.002453803
0.002536483
0.002630165
0.002733897
0.002846697
0.002967348
0.003094191
0.003224898
0.003356617
0.003489416
0.003615697
0.00372675
0.003833585
0.003924332
0.00396851
0.003968727
0.003897128
0.003673741
0.003232063
0.003048199
0.002906013
0.00278684
0.002675791
0.002565802
0.002454697
0.002340777
0.002223749
0.002103628
0.001980996
0.001857382
0.001735954
0.001621851
0.001521842
0.001442259
0.001385928
0.001351052
0.001332583
0.001324572
0.001321818
0.001320496
0.001318369
0.00131451
0.001308267
0.00129845
0.001283464
0.001261451
0.001229081
0.00118041
0.001102805
0.0009815134
0.0008687521
0.000822825
0.0007469412
0.0007330632
0.0007629458
0.0008165475
0.0008844569
0.0009591434
0.001034657
0.001110842
0.00117039
0.001222108
0.001273646
0.001322998
0.001366928
0.001402492
0.001429051
0.00144802
0.001454814
0.001452921
0.001448349
0.001442594
0.001436473
0.001430511
0.001424737
0.00141899
0.001413067
0.001406784
0.001400004
0.001392639
0.001384648
0.001376026
0.001366791
0.001356974
0.001346608
0.001335727
0.001324352
0.001312483
0.001300041
0.001286668
0.00127149
0.0012547
0.001236513
0.001217005
0.001196215
0.001174184
0.001150973
0.001126672
0.001101409
0.001075394
0.001048959
0.001022721
0.0009969933
0.000971832
0.0009472033
0.0009233083
0.0009004878
0.0008789904
0.0008589748
0.0008404733
0.0008234588
0.0008078732
0.0007936493
0.0007806914
0.000768936
0.0007583258
0.0007489794
0.0007422436
0.0006323996
0.0006238307
0.00057577
0.0005436428
0.000520852
0.0005038589
0.0004904526
0.0004793289
0.0004696908
0.0004610207
0.0004529536
0.0004452443
0.0004377379
0.0004303473
0.0004230248
0.0004157498
0.0004085239
0.00040136
0.0003942817
0.0003873037
0.0003804261
0.0003736386
0.0003669286
0.0003602811
0.0003537122
0.0003472285
0.0003408452
0.0003345816
0.0003284514
0.0003224644
0.0003166268
0.000310947
0.0003054511
0.0003002245
0.0002955548
0.0002947248
0.000298764
0.0003006464
0.0003041144
0.0003077164
0.0003114239
0.0003154158
0.0003197883
0.000324384
0.0003292104
0.0003342777
0.0003395626
0.0003449951
0.000350602
0.0003563636
0.0003622565
0.0003683054
0.0003745565
0.0003810719
0.000387931
0.0003952318
0.0004030628
0.0004114656
0.0004204405
0.0004290952
0.0004352137
0.0004412689
0.000447202
0.000452915
0.0004582777
0.0004631493
0.0004673219
0.0004707025
0.0004733159
0.0004749302
0.0005938679
0.000591482
0.0005861654
0.0005748638
0.0005571156
0.0005368766
0.0005060491
0.0004813666
0.0004657724
0.0004566931
0.0004498625
0.0004366061
0.0004278723
0.0004164447
0.0003965104
0.0004044958
0.0004404523
0.0004920999
0.0005451691
0.0005919454
0.0006324259
0.0006616705
0.0006865187
0.000707027
0.0007214061
0.0007301028
0.0007349273
0.0007377517
0.0007426806
0.000750974
0.0007600841
0.0007674407
0.0007730014
0.0007781116
0.000783727
0.0007902054
0.0007974539
0.000805848
0.0008157971
0.0008276475
0.0008417616
0.0008585612
0.0008784698
0.0009010909
0.0009259721
0.0009517874
0.0009778261
0.00100578
0.001035558
0.001067258
0.00110117
0.001137426
0.001175866
0.001216245
0.001255477
0.001296069
0.001345369
0.001403863
0.00146741
0.001535176
0.001606885
0.001678971
0.001748856
0.001815441
0.001878499
0.001938186
0.001994721
0.002048237
0.002098716
0.002145995
0.002189802
0.002229796
0.002265584
0.002296728
0.002322785
0.002343409
0.002358411
0.002367693
0.002371169
0.002368769
0.0023605
0.002346495
0.002327032
0.002302486
0.002273218
0.002239416
0.002201009
0.002157779
0.002109637
0.00205683
0.001999956
0.001939854
0.001877468
0.001813752
0.001749616
0.001685896
0.00162335
0.00156266
0.001504413
0.001449078
0.001396959
0.001348233
0.001302998
0.001261283
0.001223046
0.001188186
0.001156552
0.00112796
0.001102204
0.001079064
0.001058316
0.001039741
0.001023127
0.001008258
0.0009949329
0.0009829714
0.0009722221
0.0009625582
0.0009538619
0.0009460339
0.0009389909
0.0009326616
0.0009269844
0.000921907
0.0009173815
0.0009133651
0.0009098308
0.0009067477
0.0009040873
0.0009018392
0.0009000025
0.0008986043
0.0008976855
0.000897345
0.0008977664
0.0008993454
0.0009028768
0.000910896
0.000723109
5.030343e-05
5.402139e-05
6.300075e-05
7.394282e-05
8.514667e-05
9.600557e-05
0.0001063809
0.0001162991
0.00012716
0.0004353285
0.000588307
0.0007473869
0.0008993106
0.001036199
0.001156638
0.001262479
0.00135641
0.001441315
0.002063853
0.002158135
0.002255881
0.002351989
0.002446359
0.002539638
0.002632403
0.002724953
0.002817564
0.002910087
0.003003244
0.003096605
0.003191808
0.00329017
0.003391454
0.003493682
0.003594184
0.003690185
0.003779148
0.003838529
0.003869649
0.003897768
0.003922661
0.003942628
0.00395644
0.003964262
0.003968089
0.003970557
0.003974869
0.003983604
0.003998841
0.004023636
0.00405985
0.004108915
0.004172026
0.004249407
0.004340258
0.004442138
0.005325341
0.005441175
0.005557863
0.005673702
0.005785715
0.005890762
0.005985432
0.006066722
0.006131672
0.006177406
0.006202643
0.00620704
0.00619085
0.006155782
0.006105865
0.006048282
0.005990992
0.005934846
0.005880703
0.005811012
0.005734363
0.005672634
0.005619516
0.005571981
0.005532897
0.005507894
0.00549968
0.005509108
0.005538362
0.005591242
0.005668264
0.005769648
0.00589539
0.006045098
0.006217536
0.006410095
0.006618541
0.006836772
0.00705741
0.007272575
0.007471851
0.007647857
0.007799365
0.00791654
0.00799057
0.008020012
0.007988445
0.007893739
0.007763343
0.007626849
0.007475125
0.007311457
0.007134766
0.006944187
0.006739797
0.006521637
0.006289968
0.006045344
0.005789059
0.005523717
0.005253943
0.004986632
0.004729991
0.004491392
0.004275465
0.0040838
0.003915882
0.003770317
0.00364559
0.003540037
0.003451794
0.003378547
0.003316674
0.003262027
0.003210198
0.003154376
0.003087746
0.003002083
0.002884925
0.002740157
0.002590402
0.002448602
0.002317349
0.002201513
0.00210761
0.002039186
0.001996922
0.001939344
0.00186394
0.001831172
0.00183641
0.001874312
0.001940377
0.002030851
0.002143061
0.002274572
0.002419186
0.002564521
0.002673458
0.002746026
0.002810937
0.002869027
0.002922762
0.002974229
0.003023493
0.003070574
0.003115471
0.003158186
0.003198728
0.003237121
0.003273406
0.003307645
0.003339911
0.003370277
0.003398811
0.003425557
0.00345053
0.003473698
0.003494969
0.003514192
0.003531136
0.003545554
0.003557161
0.003565651
0.003570721
0.003572085
0.003569494
0.003562747
0.003551704
0.003536296
0.003516508
0.00349244
0.003464394
0.003432834
0.003398292
0.003361287
0.003322207
0.003281842
0.003241703
0.00320305
0.003166889
0.003134123
0.003105283
0.003080988
0.003061329
0.003046718
0.003036292
0.003033584
0.002911807
0.00278138
0.00269963
0.00264882
0.00261837
0.002601578
0.002594081
0.00259302
0.002596466
0.002603021
0.002611611
0.002621377
0.002631634
0.002641833
0.002651548
0.002660468
0.00266839
0.002675174
0.002680733
0.002685005
0.002687885
0.002689208
0.00268878
0.002686443
0.002682125
0.00267586
0.002667762
0.002658004
0.002646783
0.002634278
0.002620627
0.002605923
0.002590253
0.002573792
0.002556982
0.002540495
0.002525094
0.002509805
0.002493919
0.002477669
0.002461696
0.002446716
0.002433349
0.002422027
0.00241297
0.002406223
0.002401697
0.002399216
0.002398553
0.002399462
0.00240173
0.002405215
0.002409914
0.00241602
0.002423934
0.002434186
0.002447287
0.002463593
0.002483203
0.00250586
0.002530868
0.002557146
0.002583395
0.002608177
0.002630012
0.002647588
0.002659839
0.002665722
0.002663822
0.002652088
0.003138689
0.003084596
0.003002436
0.002889974
0.002749615
0.002588796
0.002416201
0.00223766
0.002058275
0.001882171
0.001712729
0.001552908
0.001408476
0.001283142
0.0011836
0.001112735
0.001041896
0.0009521732
0.0008924895
0.0008652542
0.0008694114
0.0008943115
0.0009264404
0.0009623902
0.001009033
0.001074375
0.00116137
0.001268564
0.001399237
0.001554056
0.001636252
0.001716026
0.001794684
0.001869799
0.001939255
0.002002925
0.002061431
0.002115657
0.002166728
0.00221601
0.002265018
0.00231524
0.002368078
0.002424796
0.002486357
0.002553314
0.00262617
0.002705297
0.002790718
0.002882242
0.002979566
0.003082158
0.00318945
0.003300456
0.003413404
0.003528041
0.003644366
0.003762198
0.003880771
0.003999162
0.004116569
0.004234674
0.004351963
0.004466885
0.004578301
0.004685387
0.004787551
0.004884346
0.004975382
0.005060272
0.005138628
0.005210074
0.005274228
0.005330652
0.005378868
0.005418562
0.005449678
0.005472182
0.005485964
0.005490861
0.005486718
0.005473442
0.00545104
0.005419612
0.005379266
0.005329955
0.005271374
0.005203201
0.005125437
0.005038505
0.004943243
0.004840781
0.004732391
0.004619395
0.004503103
0.004384785
0.004265652
0.004146843
0.004029406
0.003914285
0.003802301
0.003694151
0.003590407
0.003491519
0.003397816
0.003309519
0.003226758
0.0031496
0.003078085
0.00301226
0.002951718
0.002895829
0.002844168
0.002796437
0.002752322
0.002711497
0.002673619
0.002638412
0.002605683
0.002575253
0.002546962
0.002520665
0.002496253
0.002473683
0.002452993
0.002434012
0.002416598
0.002400622
0.002385995
0.002372624
0.002360477
0.002349496
0.002339732
0.002331158
0.002323926
0.002318134
0.002315044
0.002316781
0.002322302
3.048349e-05
3.739078e-05
4.780467e-05
6.020773e-05
7.507732e-05
9.304193e-05
0.0001152449
0.0001432611
0.0001799901
0.0002452044
0.0009841893
0.001148367
0.001327207
0.00151252
0.001691564
0.00182699
0.001963065
0.002110041
0.002393334
0.004436369
0.004677809
0.004826652
0.004958682
0.00507544
0.005181653
0.005278448
0.005366732
0.005448635
0.005548143
0.005738108
0.005943423
0.0061092
0.006232584
0.0063251
0.006397272
0.006456204
0.006506509
0.006556387
0.006472352
0.006473153
0.006513038
0.006569212
0.006629067
0.006685871
0.006736442
0.006779663
0.006815598
0.006844455
0.00686628
0.006883645
0.006898086
0.00691019
0.006920414
0.006929136
0.006936398
0.006940622
0.007794516
0.007798388
0.007796096
0.007791361
0.007786406
0.007783388
0.007784174
0.007790285
0.007803231
0.007823817
0.007851982
0.007888056
0.007931454
0.007980568
0.008033254
0.008086925
0.00813873
0.008186047
0.008226564
0.008257398
0.008276625
0.008283763
0.008277718
0.008257689
0.008224066
0.008178653
0.00812467
0.008066066
0.008007209
0.007952413
0.007905126
0.007868275
0.007844834
0.007837257
0.007847285
0.007875316
0.007921256
0.007985126
0.008045397
0.008117749
0.008198247
0.008282714
0.008367056
0.008447326
0.008519593
0.008580116
0.008625412
0.0086526
0.008659956
0.008646579
0.008613052
0.008562517
0.008503103
0.008433483
0.008349328
0.008254839
0.008155607
0.00804914
0.007940929
0.007842619
0.007757435
0.007685257
0.007628028
0.007589195
0.007570679
0.007572752
0.007594533
0.007640793
0.007713982
0.007816001
0.007948173
0.008110792
0.008302078
0.008517552
0.008751453
0.008995263
0.00923854
0.009470497
0.009680913
0.009861223
0.01
0.01
0.01
0.01
0.01
0.01
0.01
0.009917505
0.009793554
0.009654262
0.009501129
0.009333495
0.009150281
0.008950523
0.008733568
0.008499234
0.008247943
0.007980432
0.007699056
0.007409151
0.007117258
0.006829927
0.006552615
0.006289238
0.006042401
0.005814116
0.005605935
0.005418701
0.005252797
0.005107301
0.004979396
0.004865951
0.004762184
0.004660812
0.004556206
0.004440722
0.004303842
0.0041475
0.003982512
0.003813413
0.003641317
0.003469722
0.003304385
0.00315113
0.003015383
0.002901853
0.00281391
0.002753832
0.002722644
0.002719629
0.002742211
0.002785982
0.002799671
0.002827807
0.002900038
0.003006503
0.003138351
0.003257634
0.003343753
0.003427586
0.003508257
0.003585148
0.00366007
0.00373456
0.003808133
0.003880355
0.003950886
0.004019498
0.004086055
0.004150505
0.004212865
0.0042732
0.004331615
0.004388155
0.004442896
0.004495851
0.004546977
0.004596166
0.00464313
0.004687629
0.004729293
0.00476769
0.004802349
0.004832791
0.004858548
0.004879147
0.004894254
0.004903607
0.004907028
0.004904537
0.004896289
0.004882605
0.004863966
0.004840984
0.004814421
0.004785169
0.004754277
0.004722833
0.004691943
0.004662627
0.004635822
0.004612309
0.004592818
0.004577816
0.004567809
0.004562471
0.004551334
0.004551801
0.004561514
0.0045788
0.004602468
0.004631618
0.004665511
0.004703493
0.004744945
0.004789239
0.004835715
0.004883688
0.004932465
0.004981387
0.005029881
0.005077493
0.005123903
0.005168897
0.00521229
0.005253835
0.005293174
0.005329889
0.005363594
0.005394041
0.005421139
0.005444941
0.005465602
0.005483337
0.005498357
0.00551081
0.005520723
0.005527978
0.005532282
0.005533213
0.0055303
0.005523262
0.005512087
0.005496942
0.005478499
0.00545799
0.005436773
0.005416031
0.005396659
0.005379243
0.005364108
0.005351374
0.00534101
0.005332881
0.005326803
0.005322583
0.005320122
0.005319532
0.005321248
0.005326034
0.005334846
0.005348607
0.005368011
0.005393358
0.005424326
0.00545986
0.005498307
0.005537779
0.005576244
0.005611565
0.005641836
0.005665701
0.005681835
0.005688462
0.005683244
0.005664884
0.005603239
0.005514286
0.005392379
0.005234891
0.005041999
0.004815065
0.004556661
0.004270983
0.003962582
0.00363641
0.003300565
0.002966771
0.002648758
0.002358705
0.002107679
0.00190156
0.001741401
0.001624416
0.001543454
0.001490057
0.001458524
0.001444482
0.001357006
0.00128615
0.001238251
0.001213655
0.001213502
0.00124069
0.001297421
0.001385577
0.001508474
0.001670002
0.001873113
0.002106787
0.002238713
0.00234613
0.002453912
0.002560763
0.002665477
0.002768086
0.002868891
0.002968439
0.00306766
0.003167799
0.003270219
0.003376164
0.003486716
0.003602766
0.00372486
0.003853165
0.003987522
0.004127394
0.004272034
0.004420425
0.004570809
0.004721955
0.004872919
0.005022441
0.005169061
0.005311273
0.0054475
0.005577101
0.005700995
0.005818942
0.005930793
0.006036465
0.006135946
0.006229263
0.006316451
0.006397497
0.006472372
0.006541108
0.00660369
0.006659944
0.006709416
0.006751596
0.006787102
0.006816298
0.006839174
0.006855497
0.006864911
0.006867007
0.006861373
0.006847614
0.006825302
0.006793765
0.006751784
0.006697882
0.006632075
0.006554866
0.006467129
0.006369986
0.006264684
0.006152514
0.006034768
0.005912726
0.005787634
0.005660701
0.005533085
0.005405876
0.005280081
0.00515661
0.005036268
0.004919749
0.00480763
0.004700374
0.004598333
0.004501754
0.004410782
0.00432538
0.004245309
0.004170473
0.0041007
0.00403576
0.00397539
0.003919305
0.003867217
0.003818848
0.003773929
0.003732204
0.003693428
0.00365736
0.003623745
0.003592259
0.003562494
0.003534439
0.003508205
0.003483941
0.003461517
0.003440853
0.003421812
0.00340437
0.003388399
0.003373996
0.003361065
0.003350063
0.003341035
0.003334898
0.003331593
3.780424e-05
6.144178e-05
0.0001359835
0.000462446
0.0007995977
0.001444165
0.001941077
0.002546813
0.003245587
0.003823867
0.00425245
0.004598842
0.004940685
0.005284958
0.005640104
0.006000288
0.006366015
0.006722328
0.007057831
0.007386698
0.007707084
0.008004399
0.008245409
0.008443819
0.008623932
0.008785505
0.008925485
0.009044164
0.009139516
0.009221731
0.009322934
0.009621842
0.009349718
0.009100832
0.008893727
0.008727365
0.008602955
0.008520067
0.008484996
0.008485756
0.008503638
0.008560703
0.008651721
0.008773583
0.008915467
0.009081043
0.009268315
0.00947306
0.009707945
0.009989232
0.01
0.01
0.01
0.01
0.01
0.01
0.01
0.01
0.01
0.01
0.01
0.01
0.01
0.01
0.01
0.01
0.01
0.01
0.01
0.01
0.01
0.01
0.01
0.01
0.01
0.01
0.01
0.01
0.01
0.01
0.01
0.01
0.01
0.01
0.01
0.01
0.01
0.01
0.01
0.01
0.01
0.01
0.01
0.01
0.01
0.01
0.01
0.01
0.01
0.009974079
0.009925901
0.00989351
0.009879236
0.009884109
0.009908065
0.009949498
0.01
0.01
0.01
0.01
0.01
0.01
0.01
0.01
0.01
0.01
0.01
0.01
0.01
0.01
0.01
0.01
0.01
0.01
0.009915343
0.009792258
0.009670015
0.009555214
0.009453026
0.009366255
0.00929715
0.009248144
0.009221076
0.009216721
0.009234415
0.009278825
0.009353081
0.009459878
0.009601245
0.009777664
0.009986955
0.01
0.01
0.01
0.01
0.01
0.01
0.01
0.01
0.01
0.01
0.01
0.01
0.01
0.01
0.01
0.01
0.01
0.01
0.01
0.01
0.01
0.01
0.01
0.01
0.009950526
0.009699289
0.009434788
0.009160604
0.008880951
0.0086001
0.008321656
0.008048271
0.00778418
0.007533176
0.007298314
0.00708192
0.006884844
0.006706177
0.00654407
0.006394868
0.006253089
0.006113547
0.005969871
0.005815021
0.005647854
0.005471806
0.00528837
0.005097423
0.00490023
0.004699705
0.004499547
0.004304317
0.00411933
0.003950088
0.00380182
0.003678969
0.003584704
0.003520562
0.003486175
0.003479446
0.003496979
0.003534738
0.003588431
0.003653949
0.003727921
0.003807861
0.003892025
0.003979044
0.004067611
0.004155823
0.004242645
0.004330027
0.004418015
0.004505846
0.004592817
0.004678437
0.004762407
0.004844615
0.004925017
0.00500375
0.005080812
0.005156431
0.005230705
0.005303668
0.005375263
0.005445326
0.005513577
0.005579616
0.005642942
0.005702971
0.005759067
0.005810583
0.005856871
0.005897363
0.005931583
0.005959187
0.00597999
0.005993991
0.006001377
0.006002532
0.005998022
0.005988593
0.005975132
0.005958657
0.005940269
0.005921128
0.005902381
0.005885128
0.005870385
0.005859128
0.005852196
0.005850372
0.005854171
0.00586349
0.005879067
0.005901292
0.005930368
0.005966286
0.006008855
0.006057714
0.006112326
0.00617205
0.006236101
0.006303574
0.00637349
0.006444834
0.006516648
0.006588131
0.006658673
0.006727905
0.006795582
0.006861456
0.006925148
0.006986125
0.007043813
0.007097744
0.0071477
0.007193691
0.007235879
0.007274493
0.007309818
0.007342085
0.007371365
0.0073975
0.00742009
0.007438434
0.007451639
0.007458774
0.007459162
0.007452763
0.007440336
0.007423388
0.007403853
0.00738349
0.007363595
0.007344974
0.007328069
0.007313082
0.007300074
0.007288958
0.007279596
0.007271816
0.007265515
0.007260706
0.00725778
0.007257592
0.007261382
0.007270499
0.007286073
0.007308788
0.007338704
0.007375044
0.007416141
0.007459738
0.007503567
0.007545475
0.007583208
0.007614943
0.007639657
0.007656188
0.007662695
0.007656394
0.007632641
0.007585408
0.007510873
0.007404639
0.007263248
0.007084238
0.00686559
0.006606341
0.006306907
0.005968172
0.005592231
0.005184826
0.004756198
0.004320574
0.003894833
0.003496536
0.003139729
0.002832972
0.002578923
0.002373565
0.002210003
0.002082573
0.001986459
0.001916254
0.001866721
0.001834852
0.001816904
0.001701638
0.001607282
0.001537125
0.001497996
0.001500003
0.001544977
0.001629147
0.001753079
0.001921698
0.002142167
0.002410772
0.002702088
0.0028392
0.002975963
0.003117445
0.00326216
0.003409096
0.003557942
0.003708551
0.003860983
0.004015563
0.004172775
0.004333101
0.00449683
0.004663964
0.00483415
0.005006696
0.005180593
0.005354399
0.005526561
0.005695555
0.005859798
0.006017651
0.006167484
0.006307729
0.00643711
0.006556185
0.00666564
0.006766144
0.006858409
0.006943178
0.007021172
0.00709303
0.007159239
0.007220113
0.007276408
0.007328866
0.007377897
0.007423487
0.007346394
0.007229286
0.00713556
0.007066921
0.007025052
0.007010747
0.007024521
0.007068638
0.007148726
0.007272372
0.007438422
0.007617867
0.007636034
0.007594888
0.007540376
0.007473515
0.007395473
0.007307461
0.007210707
0.007106442
0.006995893
0.006880284
0.006760823
0.006638695
0.006515048
0.006390973
0.006267492
0.006145544
0.006025974
0.005909521
0.005796811
0.005688353
0.00558453
0.005485592
0.005391604
0.005302626
0.005218735
0.005139902
0.005066022
0.004996931
0.004932425
0.004872275
0.004816238
0.004764061
0.004715492
0.004670283
0.00462819
0.004588972
0.004552393
0.004518222
0.00448624
0.004456095
0.004427495
0.004400689
0.004375768
0.004352641
0.004331236
0.004311494
0.004293383
0.004276945
0.004262202
0.004249375
0.004238548
0.004231362
2.105179e-05
3.410073e-05
5.153639e-05
0.0002229957
0.0003663547
0.0006245941
0.0008809606
0.001117381
0.001415878
0.001708594
0.002026477
0.002439804
0.002931055
0.003490658
0.00412436
0.004938634
0.006498175
0.007138471
0.007760188
0.008319557
0.008813625
0.009240025
0.009615312
0.009953587
0.01
0.01
0.01
0.01
0.01
0.01
0.01
0.01
0.01
0.01
0.01
0.01
0.01
0.01
0.01
0.009822014
0.00926948
0.008743664
0.008566851
0.008316138
0.008061738
0.007847711
0.007677236
0.007552594
0.007470335
0.007432433
0.007432593
0.007465081
0.007532056
0.007634634
0.007773614
0.007940116
0.008141216
0.008373946
0.008653896
0.0089853
0.00937525
0.009840662
0.01
0.01
0.01
0.01
0.01
0.01
0.01
0.01
0.01
0.01
0.01
0.01
0.01
0.01
0.01
0.01
0.01
0.01
0.01
0.01
0.01
0.01
0.01
0.01
0.01
0.01
0.01
0.01
0.01
0.01
0.01
0.01
0.01
0.01
0.01
0.01
0.01
0.01
0.01
0.01
0.01
0.01
0.01
0.01
0.01
0.01
0.01
0.01
0.01
0.01
0.01
0.01
0.01
0.01
0.01
0.01
0.01
0.01
0.01
0.01
0.01
0.01
0.01
0.01
0.01
0.01
0.01
0.01
0.01
0.01
0.01
0.01
0.01
0.01
0.01
0.01
0.01
0.01
0.01
0.01
0.01
0.01
0.01
0.01
0.01
0.01
0.01
0.01
0.01
0.01
0.01
0.01
0.01
0.01
0.01
0.01
0.01
0.01
0.01
0.01
0.01
0.01
0.01
0.01000001
0.01000002
0.01000005
0.01000005
0.01000002
0.01
0.01
0.01
0.01000001
0.01000005
0.01000015
0.01000012
0.01000003
0.01
0.01
0.01
0.01
0.01
0.009753865
0.009488791
0.009230913
0.008983857
0.00875057
0.008532388
0.008329193
0.008140665
0.007964757
0.007797833
0.007635835
0.007473975
0.007307164
0.007133079
0.006951996
0.006763768
0.006567591
0.006363411
0.006152086
0.005935061
0.005714595
0.005493904
0.005277062
0.00506891
0.004874796
0.004700142
0.004549897
0.004427829
0.004336013
0.00427476
0.004242755
0.004237315
0.004254821
0.004291356
0.004343287
0.004407525
0.0044815
0.004563023
0.004650053
0.004740456
0.00483147
0.004923104
0.005016672
0.005111095
0.005205422
0.005299002
0.005391476
0.005482523
0.005572276
0.005660873
0.005748511
0.005835381
0.005921618
0.006007259
0.006092209
0.006176229
0.006258927
0.006339769
0.006418105
0.006493193
0.006564249
0.006630492
0.006691185
0.006745685
0.006793485
0.006834244
0.006867822
0.006894288
0.006913925
0.006927233
0.006934907
0.006937812
0.006936955
0.006933458
0.006928527
0.006923387
0.006919242
0.006917264
0.006918589
0.006924284
0.006935321
0.006952525
0.006976526
0.007007796
0.00704663
0.007093158
0.007147316
0.007208841
0.007277276
0.00735197
0.007432079
0.007516579
0.007604291
0.007693928
0.007784181
0.007873906
0.007962269
0.008048772
0.008133214
0.008215517
0.008295504
0.008372759
0.008446636
0.008516478
0.008581888
0.008642844
0.008699572
0.008752298
0.008801181
0.008846692
0.008889075
0.008928266
0.008963857
0.008995094
0.009020927
0.009040118
0.009051454
0.009054131
0.009048282
0.009035305
0.009017601
0.00899775
0.008977691
0.008958476
0.008940549
0.008924088
0.008909151
0.008895706
0.008883654
0.008872865
0.008863178
0.008854506
0.008847008
0.008841437
0.00883909
0.008841693
0.008850878
0.008867743
0.008892672
0.00892525
0.008964123
0.009007043
0.009051297
0.009094491
0.009134589
0.00916942
0.009197578
0.00921863
0.009231751
0.009234946
0.009225594
0.009199434
0.009153437
0.009084424
0.008988982
0.008863692
0.008704766
0.008509124
0.008274887
0.008000725
0.007685348
0.007328139
0.006930894
0.006498859
0.006041172
0.005571008
0.005104025
0.004655548
0.004238958
0.003863712
0.003533239
0.003246492
0.003001201
0.002794326
0.002621729
0.002479124
0.002363075
0.002271475
0.002203956
0.002161399
0.002144875
0.002153687
0.002042412
0.001905943
0.001815513
0.001781886
0.00180449
0.001876068
0.001996438
0.002171298
0.002408289
0.002706645
0.003041363
0.0033388
0.003504805
0.003679621
0.003861906
0.00404964
0.004241326
0.004435857
0.004632298
0.004829879
0.005027932
0.005225737
0.005422419
0.005616894
0.005807807
0.00599362
0.006172763
0.006343665
0.00650476
0.006654535
0.006791588
0.006914704
0.007024182
0.007121203
0.007206955
0.007282716
0.007349988
0.007410183
0.007464544
0.007514042
0.007495064
0.007384393
0.007261798
0.007134152
0.007010792
0.006903178
0.006821078
0.006769551
0.00675072
0.006764553
0.006810234
0.006886339
0.006991966
0.007128988
0.007301332
0.007511467
0.007756593
0.008016987
0.008179927
0.008152647
0.008111621
0.008057995
0.007992901
0.007917474
0.007832862
0.007740233
0.007640773
0.007535678
0.007426141
0.007313341
0.007198423
0.007082481
0.006966542
0.006851555
0.006738373
0.006627742
0.006520292
0.006416528
0.006316821
0.006221341
0.006130298
0.006043888
0.0059622
0.005885232
0.005812916
0.005745129
0.005681707
0.005622461
0.005567179
0.005515644
0.00546763
0.005422914
0.005381274
0.005342496
0.005306372
0.005272698
0.00524126
0.005211818
0.00518396
0.005157679
0.005133186
0.005110411
0.005089317
0.005069837
0.005052007
0.005035749
0.005021266
0.005008534
0.004999718
1.883985e-05
2.899609e-05
5.690763e-05
0.0001717334
0.000276677
0.0004396177
0.0005658709
0.0007099649
0.0008809316
0.001049415
0.001247364
0.001504261
0.001798985
0.00215091
0.002609526
0.003492816
0.00391524
0.004371861
0.00485438
0.005361631
0.005898846
0.006457564
0.007022359
0.007579523
0.008113407
0.00861095
0.009091243
0.009617264
0.01
0.01
0.01
0.01
0.01
0.01
0.01
0.01
0.01
0.01
0.01
0.01
0.01
0.01
0.01
0.01
0.01
0.01
0.01
0.009600453
0.009130227
0.008668919
0.008228124
0.007830275
0.007503364
0.007201841
0.006970846
0.006797012
0.006670035
0.006588935
0.006550606
0.006557463
0.006604893
0.006694847
0.006823816
0.006997987
0.007220404
0.007494769
0.007833439
0.00825129
0.008736394
0.009278401
0.009909451
0.01
0.01
0.01
0.01
0.01
0.01
0.01
0.01
0.01
0.01
0.01
0.01
0.01
0.01
0.01
0.01
0.01
0.01
0.01
0.01
0.01
0.01
0.01
0.01
0.01
0.01
0.01
0.01
0.01
0.01
0.01
0.01
0.01
0.01
0.01
0.01
0.01
0.01
0.01
0.01
0.01
0.01
0.01
0.01
0.01
0.01
0.01
0.01
0.01
0.01
0.01
0.01
0.01
0.01
0.01
0.01
0.01
0.01
0.01
0.01
0.01
0.01
0.01
0.01
0.01
0.01
0.01
0.01
0.01
0.01
0.01
0.01
0.01
0.01
0.01
0.01
0.01
0.01
0.01
0.01
0.01
0.01
0.01
0.01
0.01
0.01
0.01
0.01
0.01
0.01
0.01
0.01
0.01
0.01
0.01
0.01000002
0.01000007
0.01000013
0.01000011
0.01000004
0.01
0.01
0.01000001
0.01000007
0.01000046
0.01000057
0.01000032
0.01000005
0.01
0.01
0.01
0.01000006
0.01000052
0.01000074
0.01000048
0.0100001
0.01000001
0.01
0.01
0.01
0.01
0.01000001
0.01000004
0.01000012
0.0100001
0.01000003
0.01
0.009965313
0.009757399
0.009561892
0.009377508
0.009201795
0.00903176
0.008863833
0.008693851
0.008519347
0.00833963
0.008154004
0.007961584
0.007761839
0.007554554
0.0073397
0.007117618
0.006889226
0.006656237
0.006421415
0.006188723
0.005963268
0.005751
0.005558074
0.005390027
0.005251105
0.005143781
0.005068531
0.005023955
0.005007293
0.005015066
0.005043638
0.005089542
0.005149618
0.005220997
0.005301017
0.00538703
0.005476023
0.005565828
0.005658257
0.005752401
0.005847137
0.005941747
0.006035859
0.006129374
0.006222386
0.006315102
0.006407752
0.006500531
0.006593531
0.006686709
0.00677985
0.006872565
0.006964298
0.007054345
0.007141892
0.007226065
0.007305984
0.007380809
0.007449794
0.007512328
0.007567978
0.007616518
0.007657946
0.007692496
0.007720628
0.00774301
0.007760492
0.007774077
0.00778489
0.007794152
0.007803125
0.007813074
0.007825255
0.0078409
0.007861184
0.00788718
0.007919818
0.007959847
0.008007799
0.008063953
0.008128311
0.008200592
0.008280313
0.008366795
0.008459137
0.008556214
0.008656712
0.008759179
0.008862077
0.008963808
0.009062971
0.0091592
0.009252442
0.00934291
0.009430818
0.009516097
0.009598262
0.009676526
0.009750208
0.009819104
0.009883509
0.009943941
0.01
0.01000001
0.01000002
0.01000001
0.01
0.01
0.01
0.01
0.01
0.01
0.01
0.01
0.01
0.01
0.01
0.01
0.01
0.01
0.01
0.01
0.01
0.01
0.01
0.01
0.01
0.01
0.01
0.01
0.01
0.01
0.01
0.01
0.01
0.01
0.01
0.01
0.01
0.01
0.01
0.01000001
0.01000004
0.01000016
0.01000035
0.01000028
0.01000008
0.01000001
0.01
0.01
0.01
0.009939812
0.0097656
0.009558973
0.009318588
0.009042577
0.008728067
0.008374586
0.007983913
0.007560421
0.007111836
0.006648522
0.006182253
0.005725636
0.005289551
0.004880967
0.004503514
0.004159346
0.003849439
0.003573102
0.003328696
0.003114493
0.002929529
0.002774265
0.002650098
0.00255824
0.002498734
0.002470103
0.002469975
0.002495765
0.002473306
0.002278622
0.002138501
0.002067702
0.002066192
0.002128594
0.002254184
0.00244664
0.00270886
0.003035183
0.003400384
0.003768295
0.004057132
0.004260128
0.004471334
0.004688211
0.004908086
0.005128773
0.005348322
0.00556489
0.005776698
0.005981998
0.006179058
0.006366211
0.006541881
0.006704577
0.006852933
0.006985741
0.007101982
0.00720221
0.007287929
0.007360567
0.007349263
0.007301589
0.007234885
0.007149
0.007046731
0.006933795
0.006818729
0.006709803
0.006614475
0.006538938
0.006488891
0.006466808
0.00647646
0.006518359
0.006591663
0.006695975
0.006829835
0.006990475
0.007178589
0.007400368
0.007661804
0.007963903
0.008281004
0.008525957
0.008525489
0.008510697
0.008482427
0.008441558
0.008389032
0.008325862
0.008253126
0.008171958
0.00808353
0.007989041
0.007889698
0.007786692
0.007681181
0.007574273
0.007467007
0.007360335