/*--------------------------------*- C++ -*----------------------------------*\
| =========                 |                                                 |
| \\      /  F ield         | foam-extend: Open Source CFD                    |
|  \\    /   O peration     | Version:     3.1                                |
|   \\  /    A nd           | Web:         http://www.extend-project.de       |
|    \\/     M anipulation  |                                                 |
\*---------------------------------------------------------------------------*/
FoamFile
{
    version     2.0;
    format      ascii;
    class       volScalarField;
    location    "13";
    object      omega;
}
// * * * * * * * * * * * * * * * * * * * * * * * * * * * * * * * * * * * * * //

dimensions      [0 0 -1 0 0 0 0];

internalField   nonuniform List<scalar> 
119952
(
321.9968
400.3387
373.5113
322.926
288.171
288.6312
293.0084
299.9722
309.0481
319.9655
332.5134
346.3623
361.2932
377.152
393.9364
411.7689
430.8008
451.1859
473.1598
497.9852
424.154
431.2652
442.7628
376.0313
374.4251
375.0068
374.9987
374.1613
369.1987
167.4924
741.4048
611.6469
514.639
446.2671
395.5497
356.1918
324.3413
297.9192
275.4864
250.9259
210.4326
182.4384
163.0631
148.6045
137.19
127.64
119.3893
112.1368
105.7103
82.87285
78.9257
75.14862
71.59068
68.37118
65.5324
63.06974
60.96199
59.17506
57.6833
56.51779
55.48977
54.58561
53.79934
53.11007
52.49097
51.89914
51.27578
50.58904
50.89485
51.10932
50.59159
50.06995
49.50371
48.96243
48.23383
47.33966
46.32687
45.26797
44.16296
43.02581
41.88225
40.76054
39.6871
38.68505
37.77193
36.95699
36.23553
35.58745
35.01723
34.58779
34.16461
33.78736
33.70701
33.81908
34.07085
34.83348
37.03504
41.18815
42.75493
43.96496
44.93164
45.8302
46.73892
47.69385
48.73447
49.89067
51.19921
52.69935
54.42381
56.37408
58.48443
60.58699
62.44475
63.86387
64.77245
65.20215
65.2242
64.91104
64.33026
63.53999
62.60396
61.6204
60.70755
59.98772
59.61291
59.77438
60.81483
63.48045
68.28897
73.51096
77.5241
81.08733
83.79957
84.71268
83.5659
80.63705
76.50196
71.81647
67.0689
62.55045
58.39789
54.66834
51.36861
48.47828
45.95981
43.75822
41.82848
40.31907
39.11423
38.0708
37.15191
36.3381
35.61237
34.96617
34.39373
33.88983
33.44956
33.06821
32.74132
32.46484
32.23504
32.04856
31.90244
31.79401
31.72094
31.68116
31.67298
31.69573
31.75309
31.86091
32.01537
32.2106
32.4441
32.71458
33.0212
33.36322
33.73977
34.14944
34.58954
35.05545
35.53586
36.02207
36.50948
37.00446
37.50349
37.99543
38.47359
38.93133
39.3653
39.77363
40.15554
40.51159
40.8436
41.15296
41.44031
41.69738
41.85741
44.44002
49.15202
52.64048
55.11145
56.91933
58.30043
59.41927
60.38174
61.25971
62.10259
62.9458
63.81363
64.72194
65.68032
66.69426
67.76627
68.89647
70.0851
71.3303
72.63238
73.99361
75.41758
76.90786
78.46837
80.09743
81.79631
83.56488
85.40331
87.31302
89.29688
91.35825
93.4992
95.71454
97.97238
100.1361
100.6466
99.48088
98.4998
97.55117
96.64109
95.73911
94.82321
93.87559
92.89531
91.88661
90.85363
89.80542
88.75066
87.69597
86.64774
85.60955
84.58075
83.55772
82.53419
81.50191
80.45369
79.38733
78.30791
77.22711
76.15744
75.09861
74.07682
73.1178
72.24126
71.46434
70.80382
70.28988
69.96681
69.85519
70.00665
55.86757
56.67738
57.80173
59.50188
62.10579
65.50776
69.13272
72.53257
75.68716
78.51863
81.08017
83.86523
87.1399
90.29422
92.66434
91.82309
87.55636
80.85316
73.31862
66.14937
59.70348
53.87567
48.61027
44.0345
40.10168
36.74627
33.92893
31.58593
29.59575
27.89844
26.49474
25.37555
24.48883
23.77575
23.20026
22.74304
22.39461
22.14215
21.973
21.87266
21.82679
21.82114
21.84233
21.888
21.95784
22.06568
22.20287
22.33668
22.46304
22.57589
22.66672
22.7312
22.76965
22.80573
22.85212
22.77104
22.57607
22.29981
22.01246
21.73539
21.47642
21.25644
21.07878
20.93667
20.82107
20.72395
20.63924
20.56273
20.49158
20.42385
20.35809
20.29316
20.22818
20.16257
20.09577
20.02702
19.95548
19.88057
19.80209
19.72004
19.63457
19.54581
19.45393
19.35931
19.26289
19.16655
19.07313
18.98593
18.90792
18.8414
18.78792
18.74849
18.72362
18.71335
18.71725
18.73436
18.76318
18.8015
18.84642
18.89492
18.94439
18.99222
19.03586
19.07306
19.10192
19.121
19.1293
19.12631
19.11193
19.0864
19.05019
19.00382
18.94799
18.88355
18.8115
18.73315
18.6499
18.56309
18.47381
18.38284
18.29081
18.19823
18.10549
18.01294
17.92085
17.82918
17.73797
17.64736
17.55717
17.46699
17.37611
17.28352
17.18722
17.08377
16.9657
16.81585
16.59783
16.2732
16.21674
747.5371
613.5557
544.5857
497.7171
459.4142
426.0079
396.3735
370.0038
345.4414
287.9069
228.3172
193.0886
170.87
155.8578
144.9821
136.5785
129.7269
123.8742
98.33072
93.78321
89.43767
85.37162
81.66555
78.32601
75.32321
72.61791
70.16527
67.91599
65.91698
64.00751
62.12231
60.29002
58.54247
56.90819
55.40456
54.03867
52.80687
52.02456
51.55214
50.97095
50.33785
49.6909
49.0458
48.40151
47.75485
47.09344
46.40606
45.67423
44.89633
44.07104
43.1956
42.27136
41.30936
40.32759
39.34713
38.39619
34.37568
33.68053
33.04782
32.47473
31.95807
31.49579
31.08666
30.72966
30.42394
30.16572
29.95438
29.78918
29.66382
29.57078
29.50097
29.43661
29.36218
29.27866
29.19324
29.12289
29.00567
28.82389
28.60852
28.35582
28.0547
27.70333
27.31019
26.88794
26.44981
25.99874
25.54438
25.09766
24.66968
24.27072
23.9093
23.59113
23.3181
23.08793
22.8958
22.73787
22.60696
22.49663
22.42298
22.39099
22.38344
22.40145
22.47991
22.60773
22.73755
22.87169
23.04583
23.25047
23.48693
23.75824
24.06662
24.41517
24.80759
25.24838
25.74151
26.28798
26.88232
27.50929
28.1446
28.76134
29.33781
29.86015
30.31969
30.70848
31.01783
31.23939
31.36786
31.40799
31.3762
31.29785
31.21347
31.17367
31.23182
31.46241
31.93339
32.59205
33.35788
34.27286
35.36249
36.61109
37.96833
39.38078
40.77173
42.03218
43.04443
43.70155
43.92384
43.66867
42.93499
41.76199
40.22605
38.43005
36.49488
34.5381
32.64683
30.8745
29.253
27.79216
26.48417
25.31572
24.27485
23.34733
22.51924
21.77783
21.11175
20.51114
19.96763
19.47418
19.02489
18.61487
18.24005
17.89703
17.58297
17.29552
17.03272
16.79289
16.57476
16.37711
16.19883
16.03886
15.89619
15.76983
15.65883
15.56227
15.4792
15.40873
15.35008
15.30259
15.26518
15.23641
15.21488
15.19928
15.18905
15.18268
15.17596
15.16538
15.14803
15.12157
15.08444
15.03532
14.97377
14.89952
14.81552
14.71155
15.04986
15.40624
15.6203
15.73554
15.78351
15.78659
15.76074
15.71693
15.66282
15.60389
15.54414
15.48646
15.43287
15.38471
15.34274
15.30733
15.27852
15.25634
15.24069
15.23149
15.22871
15.23236
15.24239
15.25861
15.28057
15.30766
15.33919
15.37447
15.41285
15.45383
15.49702
15.54206
15.58821
15.63347
15.67315
15.70189
15.72095
15.738
15.75397
15.76738
15.77675
15.7806
15.77802
15.76872
15.75303
15.73177
15.70606
15.67718
15.64648
15.61522
15.58441
15.5547
15.52626
15.4986
15.47072
15.44145
15.40986
15.37565
15.33933
15.30239
15.26726
15.23693
15.21458
15.20348
15.2068
15.22715
15.26664
15.32772
15.41502
15.53696
14.11363
14.33443
14.66504
15.12926
15.7443
16.51375
17.43946
18.54285
19.85447
21.41505
23.26054
25.41138
27.80536
30.37134
32.90966
35.22799
37.21292
38.77657
39.92122
40.68274
41.02659
40.92305
40.41776
39.50817
38.0805
36.04725
33.49873
30.67398
27.83538
25.18288
22.82697
20.80622
19.11234
17.71043
16.55875
15.6224
14.87123
14.27902
13.82263
13.48152
13.23742
13.07357
12.97416
12.92456
12.91176
12.92402
12.95045
12.9825
13.0135
13.03827
13.05327
13.05639
13.04702
13.02797
12.99888
12.95562
12.90054
12.83646
12.76623
12.69289
12.61941
12.54375
12.46817
12.39505
12.32597
12.26184
12.20297
12.14922
12.10003
12.05452
12.01149
11.96962
11.92759
11.88411
11.83789
11.78765
11.73229
11.67094
11.60303
11.52817
11.44624
11.3573
11.26173
11.16026
11.0541
10.94485
10.83425
10.72392
10.61506
10.50858
10.40526
10.30583
10.21088
10.12083
10.03596
9.956354
9.881921
9.81242
9.747494
9.686706
9.629538
9.575396
9.523652
9.473675
9.424859
9.376643
9.328512
9.279984
9.230559
9.179677
9.127549
9.074824
9.021773
8.968457
8.915051
8.861817
8.8091
8.757112
8.705914
8.655567
8.606124
8.557603
8.509982
8.463082
8.416605
8.370662
8.32538
8.280741
8.23673
8.19316
8.149866
8.106343
8.062039
8.015767
7.966355
7.912485
7.855275
7.802393
7.755305
590.6377
523.0449
467.8448
427.253
396.4473
372.7658
354.5033
341.057
332.2952
320.3565
177.09
165.5355
155.3158
146.5625
139.6509
136.246
133.3728
130.9709
125.3389
82.04635
80.24661
79.63064
79.01135
78.37799
77.71228
77.00776
76.25671
75.42697
74.25579
71.8526
69.51443
67.7542
66.44399
65.39155
64.47507
63.63044
62.82552
62.03673
62.194
61.57629
60.61606
59.52828
58.42678
57.3626
56.35485
55.40681
54.51727
53.68714
52.89358
52.11564
51.34475
50.5778
49.81756
49.06939
48.33908
47.6412
44.12915
43.51726
42.93063
42.35888
41.79077
41.2193
40.64224
40.05934
39.47315
38.88708
38.30479
37.73418
37.182
36.6528
36.15135
35.68064
35.24197
34.83546
34.46032
34.11437
33.79694
33.50825
33.24465
32.99973
32.76521
32.53131
32.2881
32.02694
31.74191
31.43025
31.08912
30.71863
30.32155
29.90312
29.4709
29.03405
28.60211
28.17788
27.81952
27.47951
27.16373
26.87398
26.61067
26.37393
26.16356
25.97856
25.8174
25.67828
25.55999
25.46046
25.37659
25.30405
25.23457
25.17134
25.12037
25.0725
25.01605
24.94208
24.83769
24.68879
24.49613
24.2624
23.989
23.67911
23.34074
22.98624
22.63279
22.28673
21.9547
21.64453
21.36456
21.12294
20.92658
20.77958
20.68109
20.62568
20.60378
20.60417
20.61545
20.62602
20.63275
20.63456
20.62329
20.59508
20.55449
20.5201
20.4824
20.45113
20.43775
20.44831
20.48089
20.53675
20.61784
20.72573
20.86183
21.02757
21.22427
21.45283
21.71226
21.99771
22.3013
22.61347
22.92446
23.22512
23.50667
23.76004
23.97637
24.14782
24.26853
24.33746
24.3595
24.34445
24.30989
24.27911
24.27662
24.33267
24.47239
24.69023
24.9767
25.34657
25.81377
26.38211
27.05134
27.81574
28.65404
29.52824
30.39515
31.20686
31.91087
32.45519
32.79267
32.88577
32.71014
32.258
31.54532
30.61312
29.51961
28.32898
27.10025
25.88249
24.71354
23.61684
22.59887
21.65965
20.80054
20.01808
19.30665
18.65965
18.07028
17.53212
17.03934
16.58685
16.17023
15.78591
15.43075
15.10215
14.79788
14.51608
14.25544
14.01443
13.79188
13.58667
13.39778
13.22419
13.06491
12.91909
12.7857
12.66377
12.55246
12.45076
12.3577
12.27228
12.1935
12.12034
12.05175
11.98652
11.92337
11.861
11.79825
11.734
11.66744
11.59773
11.52461
11.44755
11.3673
11.28362
11.21782
11.13771
11.04917
10.95594
10.86071
10.76552
10.67189
10.58093
10.49347
10.41011
10.33127
10.25721
10.18803
10.1237
10.0641
10.00902
9.958235
9.911542
9.86877
9.829769
9.794376
9.762382
9.733543
9.707575
9.684209
9.663184
9.644261
9.62723
9.61191
9.598144
9.585779
9.57462
9.564394
9.554691
9.544992
9.534902
9.524647
9.514899
9.505954
9.497719
9.489969
9.482468
9.475049
9.467644
9.460307
9.453181
9.446511
9.440607
9.435831
9.43258
9.431253
9.432201
9.435658
9.441685
9.450184
9.460967
9.473822
9.488573
9.505186
9.523868
9.545065
9.569285
9.597039
9.628882
9.665318
9.706522
9.752556
9.8038
9.861628
9.927747
10.04592
10.19066
10.37224
10.59991
10.88269
11.23127
11.6585
12.17969
12.81538
13.59201
14.53611
15.66587
16.97892
18.4503
20.01885
21.60886
23.13319
24.5187
25.75605
26.86584
27.84207
28.6808
29.41481
30.06707
30.59832
30.92416
30.95573
30.6121
29.84298
28.6423
27.06478
25.23009
23.29697
21.4132
19.67449
18.12875
16.79233
15.65833
14.71083
13.93371
13.30835
12.81498
12.43393
12.1463
11.93453
11.78247
11.67553
11.60107
11.54864
11.50975
11.47784
11.4482
11.41762
11.38435
11.34717
11.30546
11.26011
11.21243
11.16372
11.1156
11.07017
11.02858
10.9893
10.952
10.91664
10.88321
10.8516
10.82157
10.7927
10.76427
10.73534
10.70482
10.67157
10.63453
10.59262
10.54468
10.48933
10.42559
10.35289
10.27103
10.18005
10.08025
9.972163
9.856652
9.7351
9.609512
9.482266
9.355477
9.230109
9.10686
8.98633
8.869058
8.75549
8.645954
8.540664
8.439719
8.343121
8.250791
8.162584
8.078298
7.99768
7.920428
7.846212
7.774685
7.705503
7.638335
7.572876
7.508858
7.446071
7.384477
7.324053
7.264567
7.205898
7.148001
7.090877
7.034567
6.979128
6.92463
6.871134
6.8187
6.767387
6.717265
6.668422
6.621077
6.575539
6.531646
6.489044
6.447443
6.406718
6.366841
6.327548
6.28881
6.250093
6.21146
6.172087
6.132745
6.092573
6.054376
6.018356
340.0409
247.5642
352.0721
159.6281
125.1875
91.95552
79.73067
69.42024
60.89646
56.78159
55.07861
54.16078
53.34896
52.67954
52.02673
51.44841
50.92998
50.52924
50.2674
50.04205
49.84784
49.75045
49.93497
50.31036
50.7309
51.19151
51.69477
52.24274
52.83335
53.42361
53.86009
52.67339
53.19286
53.64147
53.98901
54.22572
54.34811
54.35694
54.25263
54.04709
53.75694
53.37653
52.91927
52.4054
51.85437
51.27683
50.68032
50.06968
49.44599
48.81016
48.16916
47.53121
46.89388
46.25807
45.62753
45.00628
44.39751
43.80411
43.22911
42.67489
42.14224
41.62943
41.13246
40.64732
40.17126
39.70303
39.24207
38.7791
38.37172
37.96117
37.54654
37.12469
36.69263
36.24939
35.7964
35.33633
34.87246
34.40881
33.95069
33.50415
33.07528
32.66955
32.2913
31.94201
31.62063
31.32473
31.05136
30.79746
30.56045
30.33825
30.12847
29.92695
29.72682
29.51953
29.29709
29.05405
28.78852
28.50027
28.19034
27.86097
27.51611
27.16155
26.80491
26.45448
26.11862
25.8037
25.51641
25.25917
25.0327
24.83522
24.6636
24.51421
24.38307
24.26598
24.15908
24.05922
23.9641
23.8724
23.78369
23.69747
23.61829
23.54626
23.47627
23.40192
23.31563
23.2097
23.07614
22.90952
22.70871
22.4749
22.21082
21.92164
21.61532
21.3024
20.9974
20.71098
20.45141
20.2276
20.04877
19.92349
19.8579
19.8538
19.90771
20.00901
20.14075
20.28253
20.41416
20.51739
20.57968
20.5957
20.5638
20.48684
20.37375
20.24332
20.10872
19.98026
19.86629
19.76969
19.69036
19.62863
19.58526
19.56088
19.55588
19.57068
19.6057
19.66091
19.73587
19.82972
19.94028
20.06404
20.1964
20.33199
20.46498
20.5881
20.69396
20.77578
20.82827
20.84867
20.83738
20.79842
20.74017
20.67409
20.6135
20.57414
20.56895
20.60158
20.67512
20.79803
20.97781
21.21904
21.52586
21.90097
22.34263
22.84369
23.39132
23.96575
24.5411
25.08706
25.57011
25.95532
26.20833
26.30103
26.21381
25.94031
25.49005
24.88632
24.16339
23.36083
22.51732
21.66644
20.83697
20.04659
19.29744
18.59466
17.94123
17.3371
16.78003
16.26662
15.79292
15.35519
14.9497
14.57364
14.22396
13.89835
13.59482
13.31171
13.04763
12.80138
12.5719
12.35822
12.15945
11.97468
11.80303
11.64365
11.49564
11.35811
11.23017
11.11094
10.99955
10.89514
10.79686
10.70388
10.61538
10.53056
10.44863
10.36881
10.29042
10.21283
10.13555
10.0581
9.980202
9.901621
9.822472
9.742875
9.664096
9.585769
9.507967
9.430967
9.355245
9.281324
9.209711
9.140899
9.075264
9.013123
8.954696
8.900088
8.849293
8.802208
8.758672
8.718512
8.681558
8.647673
8.616716
8.588507
8.562813
8.539331
8.517794
8.497976
8.479717
8.462887
8.447417
8.433244
8.420299
8.408473
8.397592
8.387355
8.377392
8.36721
8.356308
8.34434
8.331434
8.318176
8.305249
8.293141
8.282105
8.27218
8.263324
8.255505
8.248738
8.243068
8.238632
8.235612
8.23424
8.234782
8.237657
8.243368
8.252454
8.265377
8.282407
8.303595
8.328784
8.357627
8.389646
8.424346
8.461373
8.500518
8.541476
8.584101
8.628452
8.674494
8.721825
8.769954
8.819398
8.872586
8.933493
9.004913
9.090901
9.196282
9.326617
9.488783
9.69097
9.942557
10.255
10.64217
11.11891
11.69855
12.38921
13.18881
14.08047
15.03515
16.01595
16.98905
17.94166
18.8731
19.77667
20.64771
21.49566
22.33727
23.17854
24.00596
24.78024
25.44471
25.9489
26.2534
26.31767
26.08871
25.52046
24.59564
23.35309
21.89135
20.34586
18.83866
17.44652
16.20843
15.13818
14.23159
13.47781
12.86265
12.36888
11.97834
11.67334
11.43748
11.2562
11.11692
11.00909
10.92415
10.85542
10.79796
10.74818
10.70347
10.66236
10.62434
10.58941
10.55796
10.53064
10.508
10.48878
10.47156
10.45537
10.43949
10.42328
10.40616
10.38753
10.36667
10.34263
10.31429
10.2805
10.24019
10.19232
10.13555
10.06864
9.990917
9.902301
9.803136
9.694089
9.576056
9.450072
9.317354
9.17949
9.038655
8.897334
8.757364
8.620064
8.486093
8.355722
8.229202
8.106706
7.988321
7.874062
7.763891
7.657727
7.555458
7.456948
7.362041
7.270559
7.182306
7.097074
7.014647
6.934813
6.857368
6.782128
6.708943
6.637711
6.568423
6.500937
6.43506
6.370659
6.307651
6.245986
6.185643
6.126617
6.068918
6.01256
5.95756
5.903937
5.851713
5.800911
5.75156
5.703678
5.657287
5.612515
5.569473
5.527815
5.487331
5.44788
5.40935
5.371573
5.33446
5.297879
5.261851
5.226402
5.191939
5.160158
302.0428
203.5413
153.9422
137.2222
111.6826
93.48668
80.38788
75.25735
69.5284
66.18414
63.30857
59.45869
55.62922
52.01026
48.71142
45.09486
39.43381
38.12723
37.16433
36.63713
36.4954
36.61391
36.85171
37.15647
37.51987
37.95243
38.47813
39.0624
39.69049
40.3591
41.06616
41.8099
42.58872
43.40124
44.24552
45.11618
46.02151
46.97716
47.94879
48.94563
50.10832
51.07063
51.66532
52.13156
52.48504
52.69739
52.76252
52.68468
52.476
52.14988
51.72624
51.22673
50.66826
50.06342
49.42417
48.76268
48.08593
47.39991
46.7071
46.01202
45.31734
44.62965
43.96115
43.31732
42.6991
42.10825
41.54601
41.01155
40.5034
40.02172
39.56788
39.14173
38.7392
38.3529
37.97478
37.59986
37.2256
36.85342
36.48256
36.11651
35.75323
35.38717
35.01146
34.62128
34.21621
33.79951
33.37541
32.94848
32.52422
32.10962
31.71157
31.33693
30.99221
30.68077
30.40118
30.14872
29.91777
29.7031
29.50001
29.30472
29.11513
28.93025
28.74737
28.56
28.35878
28.13603
27.88846
27.61642
27.32302
27.01247
26.68894
26.35825
26.02827
25.70827
25.40787
25.13582
24.89851
24.69891
24.53663
24.40848
24.30858
24.22935
24.16249
24.09968
24.03325
23.95715
23.86744
23.76268
23.6444
23.51838
23.39332
23.26996
23.14698
23.02211
22.89186
22.75163
22.59612
22.42031
22.22141
21.99911
21.7547
21.49132
21.21442
20.93151
20.65207
20.38915
20.15796
19.9691
19.83404
19.76447
19.77048
19.85822
20.02724
20.2674
20.55737
20.86683
21.16247
21.41374
21.59531
21.68985
21.69249
21.60958
21.45511
21.24908
21.02064
20.79016
20.56883
20.36432
20.17853
20.01053
19.85932
19.72425
19.60471
19.49996
19.40946
19.33309
19.27093
19.22303
19.18943
19.16972
19.16282
19.16659
19.17757
19.19103
19.2021
19.20536
19.19557
19.16845
19.12138
19.05377
18.96728
18.86611
18.7566
18.64687
18.54576
18.46072
18.39713
18.35982
18.35344
18.38179
18.44813
18.55608
18.70938
18.91097
19.16206
19.4612
19.80314
20.17811
20.57126
20.96241
21.32692
21.6374
21.86622
21.98878
21.9873
21.85336
21.58892
21.20605
20.72486
20.17029
19.56882
18.94546
18.32199
17.71774
17.13967
16.58864
16.06891
15.58214
15.12804
14.70506
14.31151
13.94477
13.60253
13.28271
12.98342
12.70304
12.44022
12.19379
11.96278
11.74631
11.54357
11.3538
11.17625
11.01016
10.85476
10.70926
10.57289
10.44486
10.32439
10.21072
10.10314
10.00095
9.903492
9.810164
9.720397
9.633663
9.549466
9.467379
9.387044
9.308176
9.230542
9.153998
9.078483
9.004074
8.930932
8.859362
8.789658
8.72217
8.657254
8.595271
8.536562
8.481422
8.43008
8.382687
8.339296
8.299859
8.264223
8.23215
8.20337
8.177618
8.154688
8.134435
8.116736
8.101402
8.088128
8.076493
8.066067
8.056542
8.047788
8.039809
8.032662
8.026422
8.021139
8.016783
8.013176
8.009958
8.006573
8.002291
7.996283
7.987776
7.976343
7.962247
7.946556
7.930741
7.916022
7.902994
7.891717
7.882043
7.873848
7.867078
7.86174
7.857894
7.855647
7.855153
7.856663
7.860665
7.867909
7.879459
7.896328
7.919195
7.948273
7.983341
8.023778
8.068555
8.116399
8.166238
8.217175
8.268314
8.319142
8.369588
8.419723
8.468839
8.515886
8.560594
8.603705
8.646149
8.689333
8.735285
8.786816
8.847578
8.922316
9.01678
9.137226
9.290179
9.482651
9.72242
10.01777
10.37596
10.80037
11.2886
11.83277
12.41968
13.03448
13.66781
14.31673
14.97965
15.65796
16.35961
17.09507
17.86848
18.66862
19.46827
20.23876
20.95853
21.61589
22.20407
22.70964
23.1023
23.3348
23.3431
23.0633
22.45894
21.54549
20.39738
19.12616
17.84527
16.63665
15.5447
14.58901
13.77279
13.08856
12.52489
12.06764
11.70128
11.41068
11.18195
11.00287
10.86304
10.75386
10.66831
10.60081
10.54723
10.5047
10.4712
10.44529
10.42592
10.41227
10.4025
10.39456
10.38673
10.37761
10.36603
10.35096
10.3315
10.30686
10.27605
10.23775
10.19068
10.13373
10.06584
9.986129
9.894251
9.79047
9.675601
9.550885
9.417821
9.278024
9.133086
8.984515
8.833825
8.682666
8.532847
8.386242
8.24444
8.107634
7.975517
7.847962
7.724826
7.605934
7.491098
7.380123
7.272813
7.168979
7.068437
6.971015
6.876543
6.784859
6.695806
6.609238
6.525015
6.443011
6.36312
6.285258
6.209378
6.135491
6.063506
5.993306
5.924806
5.857941
5.79267
5.728965
5.666811
5.606197
5.547121
5.489579
5.433569
5.379089
5.326132
5.274695
5.224768
5.176347
5.129435
5.084041
5.040288
4.998069
4.957159
4.917455
4.878879
4.841338
4.804801
4.769205
4.734636
4.701139
4.670512
150.1884
111.2485
171.612
84.86122
72.93468
62.75087
59.75672
57.65434
55.2983
54.39817
53.18278
51.37821
49.67934
47.85296
45.6785
41.29937
40.2985
39.35695
38.44678
37.57154
36.68749
35.83842
35.07879
34.43895
33.94148
33.59352
33.31995
33.0464
32.94781
33.05147
33.34208
33.76959
34.27633
34.83588
35.45291
36.12887
36.84694
37.59974
38.38478
39.20053
40.0452
40.9161
41.8074
42.72755
43.69535
44.69354
45.70885
46.8054
47.84757
48.76891
49.57574
50.20527
50.60678
50.82464
50.84048
50.66489
50.32139
49.83544
49.23402
48.54307
47.78987
46.99877
46.19265
45.38617
44.59169
43.81681
43.06895
42.35001
41.67326
41.04875
40.47241
39.94609
39.46369
39.01919
38.60992
38.23504
37.89272
37.57852
37.28797
37.0201
36.77657
36.55601
36.35128
36.15091
35.94347
35.72204
35.48489
35.23506
34.9772
34.71429
34.44465
34.16223
33.85961
33.53218
33.18185
32.81574
32.44182
32.06701
31.69911
31.34684
31.01822
30.72135
30.46295
30.24294
30.05335
29.88322
29.72281
29.56456
29.40242
29.23242
29.05379
28.86867
28.6803
28.48714
28.27897
28.0463
27.78511
27.49704
27.18722
26.86223
26.53015
26.20454
25.8998
25.62741
25.39847
25.22144
25.09986
25.03118
25.00771
25.01783
25.04755
25.08224
25.10753
25.11007
25.07893
25.00675
24.89023
24.73075
24.53606
24.32583
24.10692
23.88262
23.65568
23.42786
23.19948
22.96935
22.73503
22.49371
22.24362
21.98471
21.71845
21.44811
21.17895
20.91806
20.67476
20.46198
20.29942
20.20347
20.1886
20.26905
20.45575
20.75244
21.15125
21.62817
22.143
22.64666
23.09336
23.44759
23.6837
23.78769
23.75931
23.61047
23.36253
23.04673
22.70905
22.37438
22.05513
21.75942
21.48852
21.23842
21.00428
20.78302
20.57317
20.37395
20.18492
20.00583
19.83638
19.67645
19.52614
19.38575
19.25608
19.13756
19.0294
18.9293
18.83395
18.73914
18.64047
18.53409
18.41727
18.28868
18.14894
18.00033
17.84673
17.69326
17.54525
17.40757
17.28446
17.17938
17.09485
17.03287
16.99563
16.98581
17.00657
17.0613
17.15319
17.28453
17.45573
17.66431
17.90392
18.1637
18.42824
18.67823
18.89204
19.04808
19.12762
19.11714
19.00989
18.80666
18.51536
18.14967
17.72685
17.26557
16.78392
16.29805
15.82216
15.36591
14.92902
14.51406
14.12262
13.7549
13.41017
13.0872
12.78452
12.50068
12.23427
11.98406
11.74894
11.52796
11.32028
11.12515
10.94186
10.76972
10.60804
10.45614
10.31331
10.17885
10.05206
9.93224
9.81872
9.710851
9.608036
9.509741
9.415487
9.324856
9.237484
9.153051
9.071282
8.991964
8.914945
8.84012
8.767433
8.696889
8.628563
8.562603
8.499224
8.438697
8.381333
8.327458
8.277387
8.231399
8.189725
8.152521
8.119851
8.091659
8.067762
8.047862
8.031564
8.018424
8.008023
8.000074
7.994442
7.991115
7.990042
7.990965
7.993352
7.996488
7.999769
8.002955
8.006165
8.009683
8.013777
8.018649
8.024433
8.031035
8.038052
8.04475
8.050099
8.052861
8.051707
8.045432
8.033403
8.016224
7.996008
7.975614
7.957237
7.941622
7.928454
7.917227
7.907693
7.899795
7.893524
7.888898
7.88595
7.884724
7.885386
7.88852
7.895346
7.907682
7.927371
7.9556
7.992616
8.037916
8.090381
8.148248
8.209372
8.271786
8.333852
8.39441
8.452392
8.507688
8.560731
8.610723
8.655948
8.695534
8.729232
8.757377
8.780639
8.800094
8.817439
8.835175
8.857006
8.887757
8.932454
8.995353
9.079953
9.190016
9.330199
9.505638
9.720451
9.976291
10.27184
10.60275
10.96334
11.34969
11.76044
12.19591
12.65871
13.15479
13.69104
14.27103
14.89177
15.5438
16.21312
16.8829
17.53649
18.1611
18.75536
19.32134
19.86027
20.36159
20.79138
21.09574
21.20589
21.05228
20.59911
19.8647
18.92017
17.86403
16.79077
15.77103
14.84545
14.03163
13.3339
12.7478
12.26343
11.86938
11.55312
11.30208
11.10463
10.95055
10.83115
10.73939
10.66965
10.61743
10.57917
10.55191
10.533
10.51911
10.50733
10.49514
10.48026
10.46061
10.43446
10.40035
10.35698
10.30313
10.23768
10.15986
10.0693
9.966085
9.850746
9.724249
9.587948
9.443564
9.292991
9.138117
8.980736
8.822449
8.664563
8.508186
8.354487
8.204862
8.060839
7.923054
7.790953
7.664047
7.541978
7.424394
7.310961
7.201369
7.095326
6.992561
6.892822
6.795878
6.701522
6.609567
6.519847
6.432219
6.346557
6.262757
6.180735
6.100426
6.021785
5.944791
5.8695
5.795889
5.723917
5.653556
5.584785
5.51759
5.451966
5.387909
5.325421
5.264501
5.205149
5.14736
5.091128
5.036445
4.983299
4.931678
4.881567
4.832952
4.785822
4.740179
4.696087
4.65355
4.612376
4.572514
4.533897
4.496505
4.460287
4.425279
4.391499
4.360825
60.90152
45.03463
44.19539
42.2484
41.4726
40.44308
39.62877
38.92187
38.32498
37.32928
34.79322
34.67989
34.5733
34.47135
34.34306
34.17754
34.01091
33.87377
33.77688
33.70777
33.53254
33.1282
32.72811
32.33925
31.96898
31.62025
31.31411
31.07041
30.89609
30.79428
30.76147
30.78877
30.89233
31.1032
31.43307
31.87507
32.40109
32.98008
33.61171
34.29828
35.02778
35.79774
36.60665
37.44834
38.32395
39.23623
40.18808
41.15086
42.15033
43.24039
44.33554
45.37274
46.31307
47.10618
47.70907
48.09137
48.24003
48.15714
47.85965
47.36412
46.70029
45.90198
45.00606
44.04718
43.05892
42.07049
41.10849
40.19554
39.34788
38.57848
37.89674
37.31949
36.84019
36.45414
36.15636
35.93339
35.76399
35.63629
35.54196
35.47757
35.44351
35.4362
35.44701
35.46927
35.50407
35.55403
35.61349
35.66477
35.68626
35.66386
35.59421
35.48167
35.33547
35.16554
34.9763
34.76517
34.52404
34.24594
33.9322
33.59424
33.24733
32.90457
32.57643
32.27309
32.00405
31.77731
31.60104
31.47642
31.38993
31.31887
31.24345
31.15156
31.03539
30.88981
30.71303
30.50783
30.28831
30.05825
29.80969
29.5375
29.23752
28.91047
28.56267
28.20413
27.84587
27.49896
27.17462
26.90841
26.72078
26.62156
26.61221
26.6828
26.81371
26.98192
27.16308
27.33444
27.476
27.56985
27.60051
27.55719
27.43437
27.23184
26.95568
26.62326
26.26357
25.8801
25.48295
25.08178
24.68486
24.29853
23.92661
23.57002
23.22804
22.89953
22.58414
22.28287
21.99844
21.73563
21.50152
21.3059
21.16217
21.09209
21.12214
21.26964
21.54953
21.96961
22.52575
23.19557
23.93168
24.66807
25.33995
25.90387
26.34062
26.64377
26.8178
26.86064
26.76354
26.52961
26.18959
25.80458
25.40294
25.00151
24.61315
24.24073
23.87598
23.50794
23.13219
22.75272
22.37875
22.01906
21.67764
21.35274
21.04095
20.74003
20.44877
20.16839
19.90189
19.65191
19.41943
19.20311
18.9993
18.80334
18.61098
18.41908
18.22559
18.02979
17.83232
17.63523
17.4416
17.2546
17.07689
16.91074
16.75799
16.61979
16.49707
16.39113
16.30379
16.2375
16.19522
16.18021
16.19561
16.24376
16.32531
16.43838
16.57772
16.73437
16.89563
17.0459
17.16817
17.24596
17.26531
17.21642
17.09486
16.90189
16.64398
16.33165
15.9779
15.59658
15.20095
14.80274
14.41198
14.03721
13.67828
13.33693
13.01416
12.71008
12.42418
12.15565
11.9035
11.66674
11.4444
11.23558
11.03945
10.85525
10.68224
10.51972
10.36699
10.22336
10.08812
9.960593
9.840089
9.725944
9.617518
9.514208
9.415467
9.320822
9.229873
9.142297
9.057849
8.976345
8.897661
8.821722
8.748506
8.678037
8.610378
8.545633
8.483955
8.425546
8.370652
8.319555
8.27256
8.229979
8.192103
8.159173
8.131341
8.108693
8.091235
8.078824
8.071151
8.06775
8.068035
8.071364
8.077115
8.084799
8.094248
8.105604
8.119192
8.135114
8.152961
8.171763
8.190295
8.207767
8.224218
8.240281
8.25667
8.27388
8.292204
8.311635
8.331743
8.351583
8.369777
8.384676
8.3945
8.397403
8.391598
8.376021
8.351697
8.322539
8.293845
8.269227
8.249105
8.23207
8.217029
8.203827
8.192644
8.183529
8.176418
8.171189
8.167655
8.165782
8.166232
8.170922
8.182937
8.205451
8.240244
8.287178
8.34497
8.411678
8.484503
8.560175
8.635749
8.70909
8.778644
8.842812
8.901456
8.955427
9.003892
9.04472
9.0764
9.09839
9.110773
9.113861
9.10823
9.094956
9.076119
9.055253
9.037425
9.028009
9.030629
9.046434
9.076043
9.121515
9.186619
9.275501
9.390939
9.533718
9.702735
9.895778
10.111
10.34784
10.60727
10.8922
11.20716
11.55718
11.9461
12.37529
12.84238
13.34039
13.85892
14.38785
14.92141
15.45774
15.99618
16.53487
17.07287
17.60915
18.13811
18.64223
19.081
19.39633
19.52052
19.39272
18.99354
18.35638
17.55406
16.6733
15.78909
14.95438
14.20053
13.54076
12.97678
12.50423
12.11473
11.79784
11.54317
11.3407
11.18123
11.05671
10.96021
10.88579
10.82855
10.78395
10.74663
10.71199
10.67613
10.63568
10.58773
10.52994
10.46057
10.37846
10.28296
10.174
10.05209
9.918315
9.774248
9.621641
9.462273
9.297993
9.130756
8.962467
8.794806
8.629201
8.466853
8.308686
8.155413
8.007715
7.86645
7.731921
7.603523
7.480572
7.362753
7.249659
7.140875
7.036018
6.934734
6.836693
6.741586
6.649125
6.559042
6.471096
6.385071
6.300779
6.218059
6.136781
6.056842
5.978165
5.900696
5.824405
5.749283
5.675429
5.602864
5.531608
5.461678
5.393095
5.325881
5.26006
5.195653
5.132683
5.071169
5.011123
4.952556
4.89547
4.839867
4.785741
4.733086
4.681893
4.632152
4.583853
4.536989
4.491562
4.44762
4.405201
4.364162
4.324462
4.286083
4.248987
4.213184
4.178724
4.14758
83.84686
35.10526
29.7619
28.68105
28.11717
27.89045
27.91969
28.09883
28.38964
28.75972
29.06712
29.18939
29.30658
29.40545
29.4883
29.54964
29.59848
29.63737
29.65532
29.63233
29.54561
29.40907
29.27612
29.1551
29.05169
28.973
28.92588
28.91976
28.95502
29.03126
29.14903
29.31321
29.53395
29.82061
30.18028
30.61122
31.10084
31.66009
32.30041
33.00645
33.77502
34.60712
35.50205
36.42678
37.38623
38.39311
39.4774
40.53766
41.61738
42.68807
43.67576
44.51713
45.15572
45.5565
45.69974
45.58152
45.21748
44.63493
43.84338
42.88553
41.81107
40.66809
39.50517
38.36292
37.27842
36.27957
35.39282
34.63802
34.04122
33.61415
33.35226
33.24438
33.27442
33.41408
33.63458
33.90999
34.21878
34.54967
34.8966
35.27176
35.68286
36.12077
36.56623
37.01186
37.46686
37.93332
38.38831
38.78523
39.07908
39.25056
39.30662
39.27145
39.1767
39.04487
38.87318
38.64745
38.34633
37.96617