/*--------------------------------*- C++ -*----------------------------------*\
| =========                 |                                                 |
| \\      /  F ield         | foam-extend: Open Source CFD                    |
|  \\    /   O peration     | Version:     3.1                                |
|   \\  /    A nd           | Web:         http://www.extend-project.de       |
|    \\/     M anipulation  |                                                 |
\*---------------------------------------------------------------------------*/
FoamFile
{
    version     2.0;
    format      ascii;
    class       volScalarField;
    location    "13";
    object      k;
}
// * * * * * * * * * * * * * * * * * * * * * * * * * * * * * * * * * * * * * //

dimensions      [0 2 -2 0 0 0 0];

internalField   nonuniform List<scalar> 
119952
(
0.0718382
0.06745242
0.0661779
0.0647613
0.06322987
0.06176666
0.06120252
0.06107721
0.06115895
0.06131988
0.06148798
0.06161749
0.06165501
0.06156922
0.06133963
0.06095529
0.0604135
0.05972044
0.05892729
0.05831855
0.06012101
0.05690959
0.05524803
0.05697095
0.05291233
0.05017178
0.04787253
0.04579633
0.04295588
0.02253677
0.09681426
0.0926996
0.08998274
0.08863809
0.08832785
0.08873041
0.08954073
0.09054934
0.09160661
0.09271512
0.08934173
0.09048807
0.09375766
0.09780724
0.1019486
0.1058008
0.1092484
0.112292
0.1149139
0.1276697
0.1290284
0.129929
0.130396
0.1306522
0.1308487
0.1310649
0.1313245
0.1315953
0.1318321
0.1323942
0.1326018
0.1325696
0.1324338
0.1322467
0.1320389
0.1318212
0.1315479
0.1314011
0.133705
0.1333592
0.1323221
0.1320918
0.1320162
0.1316962
0.1309963
0.1300786
0.1291167
0.1281295
0.1271209
0.126099
0.1250678
0.1240336
0.122996
0.1219495
0.1208813
0.1197714
0.1185946
0.1173535
0.1163427
0.1153389
0.1141312
0.113572
0.1138028
0.1136493
0.1132732
0.1130972
0.112506
0.1097568
0.1075391
0.1055468
0.1037747
0.1022313
0.1008379
0.09956415
0.09836835
0.09721026
0.09606697
0.0949295
0.09379878
0.09268265
0.09159334
0.0905451
0.08955226
0.08862681
0.08777663
0.08700497
0.08631014
0.08568613
0.08512685
0.08463767
0.0842453
0.08398151
0.08383911
0.08373391
0.08353247
0.08315865
0.08261947
0.08195162
0.08118352
0.08033206
0.07941008
0.07843026
0.07740497
0.07634341
0.07525219
0.07414033
0.07301977
0.07190052
0.07078826
0.06969051
0.06861336
0.06756249
0.06654268
0.06555911
0.06462807
0.06374787
0.06293621
0.06219857
0.06146657
0.06071684
0.05994446
0.05916367
0.05838859
0.05763078
0.05689908
0.05620038
0.05553848
0.05491663
0.05433941
0.05381199
0.05334123
0.05293603
0.05260746
0.05236879
0.05223544
0.05222478
0.0523556
0.05264741
0.05311997
0.05379298
0.05468613
0.05581843
0.05720656
0.05885884
0.06076972
0.0629145
0.0652444
0.06768826
0.07016025
0.07256824
0.07481586
0.07680085
0.07840133
0.07952681
0.08011829
0.08009829
0.07932273
0.07784451
0.07561145
0.07198255
0.0655602
0.06182655
0.06634121
0.07298525
0.07623122
0.07198015
0.06302928
0.05430264
0.04375698
0.03767278
0.03347615
0.02998484
0.02711456
0.02506561
0.02384501
0.02336357
0.02360446
0.02457369
0.02618279
0.02825405
0.03062769
0.03320536
0.03592953
0.03876054
0.04166291
0.04459834
0.04752551
0.05040973
0.05302744
0.05525933
0.05706195
0.0583472
0.05904909
0.05916806
0.05879016
0.05803095
0.05696291
0.05560838
0.0539947
0.05222103
0.05038552
0.04855625
0.04674814
0.04528764
0.04384985
0.04238864
0.04096586
0.03962561
0.03838815
0.03726369
0.03626178
0.03537782
0.03458841
0.0338839
0.03325537
0.03269102
0.03217897
0.03170955
0.03127494
0.03086694
0.03047699
0.03009761
0.02972363
0.02935229
0.02898279
0.02861607
0.02825359
0.02789784
0.02755142
0.0272171
0.02689744
0.02659483
0.0263114
0.02604873
0.02580689
0.02558729
0.02539222
0.02653585
0.02650661
0.0264019
0.02623293
0.0260581
0.02590446
0.02579447
0.02573943
0.02574249
0.02580013
0.02590735
0.02605763
0.02624355
0.02645623
0.02668853
0.02693454
0.02718932
0.0274488
0.02770958
0.02796875
0.02822377
0.02847236
0.02871245
0.02894215
0.02915968
0.02936342
0.02955192
0.029724
0.02987871
0.03001535
0.03013346
0.03023276
0.03031314
0.03037458
0.03041712
0.0304408
0.03044566
0.03043171
0.03039889
0.03034714
0.03027646
0.03018728
0.03007983
0.02995534
0.02981705
0.0296716
0.02950112
0.02932322
0.02914419
0.02897882
0.02883052
0.02869353
0.02853929
0.02831423
0.0283656
0.02879825
0.02962212
0.03059196
0.03149015
0.03223229
0.03284247
0.03335745
0.03375979
0.03400427
0.03404933
0.03386276
0.03343043
0.0327549
0.03183421
0.03069576
0.02939022
0.02797562
0.02653173
0.02514173
0.02387105
0.02275653
0.0218114
0.02104289
0.02045337
0.02003944
0.01979194
0.01970292
0.01976632
0.01997536
0.02032207
0.02079709
0.02138883
0.02208356
0.02287257
0.02374646
0.0246946
0.02570468
0.02676372
0.027859
0.02897872
0.0301124
0.0312514
0.03238899
0.03351857
0.0346354
0.03573706
0.03682337
0.03789609
0.03895833
0.04001463
0.04107018
0.04213029
0.04319977
0.04428289
0.0453824
0.04650038
0.0476384
0.04881135
0.05001189
0.05121637
0.05241346
0.05359446
0.05474997
0.05586925
0.0569404
0.05795063
0.05888679
0.05973565
0.06048386
0.06111771
0.06162346
0.06198808
0.06220014
0.0622508
0.0621346
0.06185013
0.06140052
0.0607936
0.06004138
0.0591581
0.05815169
0.05699642
0.05569959
0.05482208
0.08577311
0.0857326
0.09573868
0.1054699
0.1131505
0.1191188
0.1238952
0.1278393
0.1313299
0.1363318
0.1499693
0.1635115
0.1751071
0.1844966
0.1918085
0.1974074
0.2016615
0.2049208
0.2323204
0.2323854
0.2322886
0.2318284
0.2312413
0.2306997
0.2302295
0.2297956
0.2293645
0.2287915
0.2283391
0.2276293
0.2265033
0.2251826
0.2238033
0.2224385
0.2211155
0.2198358
0.2185706
0.217483
0.2163471
0.2148747
0.2132643
0.2116302
0.2100073
0.2084251
0.2069029
0.2054454
0.2040676
0.2027547
0.2014122
0.2001078
0.1988294
0.1975691
0.1963462
0.1951803
0.1940869
0.1930884
0.2031395
0.2019795
0.2008459
0.199749
0.1986612
0.1975596
0.1964388
0.1952985
0.194133
0.1929103
0.191642
0.1903576
0.1890365
0.1876801
0.1863083
0.1849427
0.183621
0.1824308
0.1815423
0.1806832
0.1794404
0.1782216
0.1772342
0.1763025
0.1752846
0.1742139
0.1731271
0.1719976
0.1708109
0.1695922
0.1683391
0.1670535
0.16574
0.1643989
0.1630241
0.1616
0.1601141
0.1585688
0.1570004
0.1554663
0.1539269
0.1524609
0.1513043
0.1502221
0.1489305
0.1474457
0.1457503
0.1435882
0.1411691
0.1390983
0.1372963
0.1356083
0.1339948
0.1324413
0.1309448
0.1295031
0.1281097
0.1267569
0.1254377
0.1241464
0.1228786
0.1216324
0.1204078
0.1192073
0.1180349
0.1168955
0.1157934
0.114732
0.1137139
0.1127434
0.1118313
0.1109963
0.1102608
0.1096389
0.109127
0.108706
0.1083514
0.1080389
0.1077459
0.1074498
0.1071285
0.106761
0.1063294
0.1058201
0.1052239
0.1045367
0.1037602
0.1029013
0.1019707
0.1009817
0.09994828
0.09888472
0.09780381
0.09671746
0.09563144
0.09454481
0.09347636
0.09245282
0.09147024
0.09051105
0.08957162
0.08864836
0.087736
0.08682951
0.085925
0.08502036
0.08411552
0.08321234
0.08231497
0.08143046
0.08056852
0.0797416
0.07896518
0.07825788
0.07764178
0.07714258
0.07678966
0.07661591
0.07665734
0.07695249
0.0775417
0.07846542
0.07976133
0.08145916
0.0835731
0.08609304
0.08897742
0.09215141
0.09551369
0.0989504
0.102346
0.1055815
0.1085316
0.1110725
0.1131031
0.1145582
0.1154175
0.115713
0.1154612
0.1145037
0.1124544
0.1088972
0.1043322
0.09953072
0.09541063
0.0929755
0.09289319
0.09420122
0.09436889
0.0926913
0.08639204
0.07710047
0.06799994
0.06094959
0.05636472
0.05411995
0.05385865
0.05512984
0.05746971
0.06044641
0.06371524
0.06707578
0.07047658
0.07396236
0.07760977
0.08148449
0.08561677
0.08998618
0.09450292
0.09900603
0.1033006
0.1071591
0.1103402
0.1126172
0.1138047
0.113891
0.1131157
0.1116633
0.1096432
0.1071427
0.1042549
0.1010795
0.09766582
0.09394354
0.09005637
0.08615035
0.08228525
0.0785302
0.07493833
0.07154249
0.06835823
0.06538848
0.06262965
0.06007364
0.05770949
0.05552665
0.05351635
0.05167287
0.04999745
0.04848528
0.04712449
0.04590322
0.04480894
0.04382932
0.04295243
0.04216679
0.04146164
0.0408269
0.04025341
0.03973296
0.03925832
0.03882302
0.03842139
0.03804798
0.03769764
0.03736813
0.03706496
0.03679578
0.03848482
0.03827533
0.03812929
0.03801703
0.03792664
0.03785663
0.03780823
0.03778158
0.03777656
0.0377933
0.03783182
0.03789185
0.03797279
0.03807371
0.03819334
0.03833009
0.03848208
0.03864714
0.03882283
0.03900642
0.03919501
0.03938548
0.03957462
0.03975916
0.03993586
0.0401016
0.04025356
0.04038927
0.04050671
0.0406043
0.04068085
0.04073552
0.04076771
0.04077699
0.040763
0.04072538
0.04066377
0.04057769
0.04046665
0.04033019
0.04016807
0.03998019
0.03976656
0.03952714
0.03926222
0.0389711
0.0386519
0.03830557
0.03793534
0.03754744
0.03713956
0.03669723
0.03620029
0.03565897
0.03512509
0.03466121
0.03430026
0.03403481
0.03384767
0.03374178
0.03374642
0.03390202
0.03424598
0.034801
0.03556267
0.03647867
0.03744968
0.03839809
0.03921532
0.03977007
0.03993993
0.03965749
0.03893886
0.03787068
0.03657281
0.03516042
0.03374805
0.03244857
0.03132677
0.03041786
0.02974933
0.02933655
0.0291857
0.02929594
0.02966117
0.03027078
0.03110979
0.03215908
0.03339587
0.03479446
0.03632694
0.03796397
0.03967579
0.04143316
0.04320842
0.04497651
0.04671581
0.04840863
0.05004135
0.05160461
0.05309333
0.05450653
0.05584698
0.05712072
0.05833643
0.05950469
0.06063713
0.06174559
0.06284114
0.06393343
0.06503062
0.06613956
0.06726538
0.06842153
0.06960469
0.07080314
0.0720078
0.07320883
0.07439433
0.07555016
0.07666034
0.07770835
0.07867764
0.07955095
0.08031
0.08093569
0.0814089
0.0817118
0.08182894
0.08174844
0.08146232
0.08096736
0.08026182
0.07934884
0.07821805
0.07688157
0.07531939
0.07376279
0.07239997
0.0505818
0.05461782
0.05931103
0.06446026
0.07012589
0.07637503
0.08335492
0.09127083
0.1003984
0.1104472
0.1596041
0.1752288
0.1909437
0.2066266
0.2226756
0.238958
0.255744
0.2739872
0.3024057
0.3568272
0.368284
0.3788549
0.3885236
0.3973005
0.4051346
0.4122653
0.4183761
0.4234646
0.4290224
0.4348018
0.4395726
0.4424823
0.4439032
0.4441983
0.443617
0.4423085
0.4403917
0.4382878
0.4331429
0.4288655
0.4250127
0.4213444
0.4177046
0.4139881
0.4101389
0.4061234
0.401962
0.3977253
0.3932537
0.388688
0.3840158
0.379291
0.3745609
0.3698529
0.365174
0.3604828
0.3706309
0.3661216
0.3615009
0.3568768
0.3522872
0.3477261
0.3432
0.3387149
0.3342983
0.3299547
0.3256567
0.321444
0.3173482
0.3133491
0.3094448
0.3056415
0.3019419
0.2983522
0.2948743
0.2914594
0.2880843
0.2847842
0.2815451
0.2783488
0.2751988
0.2721098
0.2691007
0.2661791
0.2633323
0.2605548
0.2578299
0.2551267
0.2524414
0.249798
0.2472375
0.2448037
0.2425108
0.240321
0.2381729
0.236153
0.2342418
0.2324014
0.2305998
0.2288237
0.2270783
0.2253695
0.2236877
0.2220149
0.2203359
0.2186228
0.2168539
0.2150335
0.2131975
0.2113874
0.2096598
0.2080428
0.2065617
0.2051479
0.2036849
0.2021959
0.2007897
0.1994859
0.1982556
0.1970815
0.1959499
0.1948285
0.1936784
0.1924743
0.191229
0.1899414
0.1886215
0.1872781
0.18591
0.1845043
0.1830432
0.1815134
0.1799177
0.1782749
0.176586
0.1748888
0.1732489
0.1715851
0.1698062
0.1678527
0.1657242
0.1633545
0.1608851
0.1585266
0.1563213
0.1542357
0.1522408
0.1503194
0.1484658
0.1466783
0.1449539
0.143288
0.141675
0.1401094
0.1385855
0.1370987
0.1356449
0.1342207
0.1328235
0.1314508
0.1300997
0.128767
0.12745
0.1261485
0.1248673
0.1236175
0.1224147
0.1212745
0.1202078
0.1192211
0.1183179
0.1174993
0.1167629
0.1161029
0.1155092
0.1149685
0.114465
0.1139823
0.1135041
0.1130157
0.1125053
0.1119645
0.1113883
0.110775
0.1101257
0.1094435
0.1087333
0.108001
0.1072516
0.1064903
0.1057162
0.1049296
0.1041426
0.1033629
0.1025867
0.1018091
0.1010238
0.1002237
0.09940169
0.09855163
0.09766907
0.09675185
0.09580081
0.09482033
0.09381868
0.09280834
0.09180623
0.09083395
0.08991814
0.08909077
0.08838957
0.08785789
0.08754434
0.08750207
0.08778744
0.08845792
0.08956825
0.09116415
0.09327293
0.09589227
0.09898077
0.1024547
0.1061981
0.1100851
0.1139987
0.1178254
0.1214367
0.124697
0.1274773
0.1297051
0.131376
0.1325172
0.1331759
0.1333315
0.1327962
0.1311712
0.1282668
0.1241694
0.1190883
0.1135401
0.1084843
0.1055613
0.1052006
0.1060951
0.1059934
0.1031237
0.09788458
0.09172996
0.08624033
0.08245
0.08061499
0.08052184
0.0817112
0.08368144
0.08602991
0.0885242
0.09111985
0.09391727
0.09705869
0.1006631
0.1047878
0.1094092
0.1144332
0.1196734
0.1248849
0.1297852
0.1340736
0.1374574
0.139672
0.1406807
0.1406021
0.1395416
0.1376236
0.1349705
0.1317006
0.1279399
0.1238371
0.1195021
0.1149618
0.1103084
0.105669
0.1011404
0.09678749
0.09265071
0.08875256
0.08510145
0.08169542
0.07852507
0.0755775
0.07283861
0.07029479
0.06793412
0.06574825
0.0637328
0.06187507
0.06016412
0.05859039
0.05714515
0.05582018
0.05460753
0.05349937
0.05248807
0.05156592
0.05072559
0.0499595
0.04926099
0.04862259
0.04803927
0.04750305
0.04701247
0.04655222
0.04613151
0.04578174
0.04545093
0.04512199
0.0448122
0.04453835
0.04430625
0.04411601
0.04396346
0.04384636
0.04376316
0.04371235
0.0436923
0.04370128
0.04373749
0.04379899
0.04388372
0.04398948
0.04411386
0.04425422
0.04440769
0.04457116
0.04474131
0.0449146
0.04508736
0.04525583
0.04541633
0.04556544
0.04570016
0.04581806
0.04591726
0.04599639
0.04605451
0.04609096
0.04610525
0.04609694
0.04606553
0.04601041
0.04593084
0.04582598
0.04569498
0.04553711
0.04535182
0.04513874
0.04489748
0.04462763
0.04432889
0.04400092
0.04364364
0.04325641
0.04284243
0.04240171
0.0419289
0.04141473
0.04086813
0.04031519
0.0397787
0.0392698
0.03878775
0.03832367
0.03787282
0.03744127
0.03704602
0.03671275
0.03647477
0.03637175
0.03644428
0.03672721
0.03723959
0.03796609
0.03883194
0.03969129
0.04044176
0.04099037
0.04125664
0.04118942
0.04078638
0.04010045
0.03922215
0.03824968
0.03728152
0.03643333
0.03578063
0.03537524
0.03525068
0.03542327
0.03589688
0.0366654
0.03771392
0.03901957
0.04055253
0.04227742
0.04415505
0.04614423
0.04820371
0.05029389
0.05237838
0.05442532
0.05640815
0.05830602
0.06010382
0.06179199
0.06336628
0.06482747
0.06618101
0.0674364
0.06860645
0.06970639
0.07075272
0.07176181
0.07274852
0.07372572
0.07470442
0.07569405
0.07670298
0.07774752
0.07882385
0.07992696
0.08104927
0.08217988
0.08330435
0.08440502
0.08546287
0.08646235
0.08738598
0.08821444
0.08892654
0.08949999
0.08991273
0.09014428
0.09017717
0.0899973
0.08959536
0.08896308
0.08810077
0.08699634
0.08568034
0.08412296
0.08255923
0.08105197
0.03605342
0.04076094
0.044958
0.06878882
0.09332496
0.1238834
0.1448674
0.1660729
0.1864159
0.2054546
0.2220163
0.2364226
0.2505408
0.2650869
0.2797504
0.2946762
0.3099034
0.3254321
0.3411636
0.356975
0.3723766
0.3871646
0.4014959
0.4155002
0.4292634
0.4427821
0.4559951
0.4688587
0.4813197
0.4933936
0.5061224
0.5421104
0.5491438
0.5560101
0.5618526
0.5667008
0.5700588
0.5721364
0.5729699
0.5727425
0.571942
0.5702513
0.5677711
0.5645655
0.5606869
0.5562097
0.551226
0.545829
0.5401098
0.5341352
0.5279339
0.5216143
0.5151754
0.5086598
0.5021088
0.4955331
0.488857
0.4821258
0.475409
0.468745
0.4621454
0.4556107
0.4491118
0.442626
0.4361528
0.4296812
0.4232655
0.4168711
0.4100509
0.4034949
0.3972231
0.3912022
0.3853995
0.3797864
0.3743381
0.3690331
0.3638545
0.3587928
0.3538425
0.3490138
0.3443113
0.3397341
0.3352891
0.330988
0.3268396
0.3228457
0.3189968
0.3152692
0.311632
0.3080547
0.3045111
0.3009902
0.2975011
0.2940685
0.2907249
0.287495
0.2843839
0.2813686
0.2784032
0.2754391
0.2724578
0.2694788
0.2665653
0.2637793
0.2611766
0.2587528
0.2565112
0.2544365
0.2524905
0.2506184
0.2487777
0.2469569
0.2451704
0.2434372
0.2417613
0.2401217
0.2384733
0.2367615
0.23495
0.2330407
0.2310785
0.229128
0.2272508
0.2254692
0.2237814
0.2221639
0.2205556
0.218936
0.2173647
0.2159108
0.2145975
0.2134146
0.2123437
0.2113423
0.2103551
0.209327
0.208241
0.2071097
0.2059544
0.204797
0.2036448
0.2024862
0.2012933
0.2000296
0.198661
0.1971693
0.1955504
0.1938063
0.1919627
0.1900271
0.1879777
0.1857815
0.1834441
0.1809734
0.1784207
0.1758832
0.1734323
0.171081
0.168812
0.1666099
0.1644697
0.1623918
0.1603769
0.158424
0.1565308
0.1546945
0.152912
0.1511806
0.1494977
0.14786
0.1462639
0.1447038
0.1431723
0.1416597
0.1401558
0.1386511
0.1371405
0.1356244
0.1341094
0.132606
0.1311267
0.1296847
0.1282942
0.1269685
0.1257192
0.1245538
0.1234755
0.1224828
0.1215701
0.1207289
0.119949
0.1192196
0.1185305
0.1178731
0.1172402
0.1166265
0.1160279
0.1154418
0.1148665
0.1143014
0.1137465
0.1132026
0.1126701
0.1121477
0.1116295
0.1111068
0.110579
0.1100459
0.109499
0.1089276
0.1083196
0.1076628
0.1069464
0.1061617
0.1053033
0.1043697
0.1033649
0.1022984
0.1011861
0.1000503
0.09892069
0.09783459
0.09683742
0.09598297
0.09533295
0.09495609
0.09492665
0.09532181
0.09621708
0.09767842
0.09975073
0.1024431
0.1057151
0.1094762
0.1135967
0.117936
0.1223822
0.126836
0.131173
0.1352373
0.1388607
0.1419449
0.1444713
0.146467
0.1480164
0.1491758
0.1497632
0.1495198
0.1481089
0.1453644
0.14116
0.1355289
0.1288668
0.1223949
0.1175388
0.1153643
0.1153521
0.1151535
0.113006
0.108821
0.1037686
0.09920173
0.09597435
0.0943724
0.09419901
0.09505645
0.09654566
0.09835947
0.100355
0.1025991
0.1052469
0.1084487
0.1122958
0.1167855
0.1218222
0.1272593
0.132865
0.1383478
0.1433839
0.1476474
0.150804
0.1527302
0.1534386
0.1530103
0.1515603
0.1492144
0.1460979
0.1423317
0.1380503
0.1334224
0.1285995
0.123654
0.1187045
0.1138491
0.1091551
0.1046643
0.1004083
0.09640438
0.09265588
0.0891567
0.08589529
0.08285777
0.08002916
0.07739489
0.07493959
0.07265465
0.0705294
0.06855409
0.06671987
0.06501861
0.06344276
0.06198511
0.06063883
0.05939727
0.05825402
0.05720272
0.05623718
0.0553512
0.05453891
0.05379431
0.05311208
0.05248656
0.05191257
0.051387
0.05090478
0.05045782
0.05005024
0.0496823
0.04935068
0.04905096
0.04878037
0.04854427
0.04834608
0.04818501
0.04805986
0.04796947
0.04791262
0.04788797
0.04789407
0.0479292
0.04799144
0.04807852
0.0481879
0.04831668
0.04846163
0.04861922
0.04878558
0.04895656
0.04912782
0.04929499
0.04945392
0.04960101
0.04973337
0.04984886
0.04994598
0.05002374
0.05008152
0.05011883
0.05013518
0.05012989
0.05010206
0.05005053
0.04997394
0.04987084
0.04973992
0.04958012
0.04939054
0.04917034
0.04891885
0.04863584
0.04832105
0.04797433
0.0475962
0.04718948
0.04675677
0.0462975
0.04580972
0.04530013
0.0447836
0.04427181
0.04376766
0.0432656
0.04275598
0.04223003
0.04168255
0.04111281
0.04052543
0.03993359
0.0393634
0.03885482
0.03845801
0.03822513
0.03819909
0.0384012
0.03882605
0.03944628
0.04020178
0.04097506
0.04167171
0.04221722
0.04254337
0.04260925
0.04242182
0.04204144
0.04155815
0.04106147
0.04065961
0.04044805
0.04048951
0.04082605
0.04147779
0.04244729
0.04372252
0.04527912
0.04708222
0.04908886
0.05125074
0.05351712
0.05583761
0.05816466
0.06045566
0.06267443
0.06479196
0.06678647
0.06864304
0.07035322
0.07191471
0.073331
0.07461072
0.07576684
0.07681587
0.07777686
0.0786699
0.07951466
0.08032991
0.08113249
0.08193688
0.08275318
0.08360112
0.08449121
0.08542342
0.08639367
0.08739349
0.08841025
0.08942745
0.09042621
0.09138901
0.09229773
0.09313386
0.09387654
0.09450261
0.09498781
0.0953082
0.09544194
0.09537028
0.09507921
0.09455677
0.09380049
0.09279958
0.09158499
0.09012513
0.0886318
0.08710688
0.01700328
0.01901898
0.02097802
0.02800396
0.03746518
0.0534932
0.06503084
0.07746252
0.09103359
0.1050126
0.1196532
0.1359465
0.1535998
0.1719295
0.1913125
0.2133823
0.2473107
0.2636098
0.2803007
0.297163
0.3143071
0.3311137
0.3472154
0.362764
0.377971
0.3929563
0.4079883
0.4231823
0.438239
0.4530374
0.4677193
0.4822241
0.496498
0.5104868
0.5240131
0.5369214
0.5491418
0.5606275
0.5713476
0.5812992
0.5903528
0.5970426
0.599543
0.6029729
0.6058048
0.6074657
0.6073792
0.6058871
0.6031328
0.5992486
0.594479
0.5890783
0.5829996
0.5763072
0.5691341
0.5616126
0.5538607
0.5459843
0.5380789
0.530232
0.522508
0.5149435
0.5075817
0.500419
0.4934357
0.4866022
0.4798905
0.47327
0.466739
0.4603306
0.454083
0.4480351
0.4420436
0.4361179
0.4302501
0.4244124
0.4185742
0.4127386
0.4069009
0.4010591
0.395333
0.3898233
0.3845489
0.3794993
0.3746516
0.3699702
0.3654145
0.3609493
0.356557
0.3522337
0.3479824
0.3438121
0.3397376
0.335778
0.3319543
0.328284
0.3247759
0.3214256
0.3182105
0.3150835
0.3119881
0.308881
0.3057407
0.3025747
0.2994202
0.2963346
0.2933702
0.2905491
0.2878463
0.2851949
0.2825123
0.2797439
0.2769023
0.2740774
0.2713822
0.2688985
0.2666549
0.2646487
0.262859
0.2612387
0.2597115
0.258206
0.2566969
0.2552067
0.2537723
0.2524114
0.2510993
0.2497701
0.2483396
0.2467449
0.2449781
0.2430956
0.241193
0.2393548
0.2376098
0.2359434
0.2343261
0.2327183
0.2311057
0.2295376
0.2280966
0.2268307
0.2257528
0.2248441
0.2240436
0.2232666
0.2224414
0.2215342
0.2205767
0.2196075
0.2186648
0.2177664
0.2169037
0.2160405
0.2151159
0.2140577
0.2128044
0.2113191
0.209592
0.2076489
0.2055419
0.2033057
0.2009547
0.1985057
0.195973
0.1933768
0.1907664
0.1881954
0.1856856
0.1832339
0.180834
0.1784853
0.176191
0.173954
0.1717759
0.1696568
0.1675963
0.1655946
0.1636521
0.1617694
0.1599469
0.1581832
0.156474
0.154811
0.1531808
0.1515666
0.1499507
0.1483171
0.1466549
0.1449602
0.143236
0.1414911
0.1397396
0.1379992
0.1362893
0.134629
0.1330341
0.1315162
0.1300821
0.1287338
0.1274695
0.1262848
0.1251741
0.1241318
0.1231532
0.1222351
0.1213749
0.1205713
0.119823
0.1191292
0.1184887
0.1179003
0.1173625
0.1168732
0.1164295
0.1160267
0.1156576
0.1153113
0.1149733
0.1146338
0.1142813
0.1138986
0.1134671
0.1129682
0.1123848
0.1117027
0.1109125
0.1100103
0.1089994
0.1078908
0.1067048
0.1054712
0.1042299
0.1030325
0.101942
0.1010327
0.1003895
0.1001058
0.1002805
0.1010124
0.1023901
0.1044782
0.1073001
0.1108204
0.1149391
0.1195152
0.1243979
0.1294871
0.1347006
0.1399209
0.1449401
0.1495324
0.1535735
0.1570643
0.1600532
0.162599
0.1647063
0.1662012
0.1667776
0.1662035
0.1642693
0.1608319
0.1557696
0.1490913
0.1414032
0.1339281
0.1281565
0.1252581
0.1245572
0.1238536
0.1215754
0.1176738
0.1131705
0.1092145
0.1064708
0.105067
0.1047813
0.1052651
0.1062101
0.1074151
0.1088775
0.1107693
0.1132764
0.1165383
0.1205976
0.1253823
0.1307627
0.1365157
0.1423387
0.1478837
0.1527956
0.1567122
0.159438
0.1609362
0.1612345
0.1604084
0.158561
0.155812
0.1522872
0.1481227
0.1434801
0.1385279
0.1334306
0.128313
0.1232716
0.1183782
0.1136768
0.1092014
0.1049749
0.101006
0.09728976
0.09381569
0.09057286
0.0875474
0.08472376
0.08208584
0.07962097
0.07731821
0.0751676
0.07316013
0.07128742
0.06954168
0.06791557
0.06640222
0.06499518
0.06368841
0.06247595
0.06135243
0.06031239
0.05935072
0.05846236
0.05764254
0.05688661
0.05618991
0.05554823
0.05495871
0.05441812
0.05392216
0.05346681
0.05304959
0.05266931
0.05232534
0.05201646
0.05174493
0.05151429
0.05132345
0.05117143
0.0510574
0.05098047
0.05093957
0.05093341
0.05096037
0.05101851
0.05110543
0.05121834
0.05135397
0.05150863
0.05167817
0.05185801
0.0520432
0.05222861
0.05240933
0.05258107
0.05274049
0.05288519
0.05301357
0.0531247
0.053218
0.05329302
0.05334914
0.0533854
0.05340043
0.05339246
0.05335939
0.053299
0.0532092
0.05308828
0.05293488
0.05274792
0.0525266
0.05227054
0.05197973
0.05165491
0.05129848
0.05091373
0.0505043
0.05007343
0.04962451
0.04916396
0.04869991
0.04823714
0.04777453
0.0473059
0.04682237
0.0463141
0.0457713
0.0451849
0.04454783
0.0438581
0.04312389
0.0423675
0.04162578
0.04094585
0.04037737
0.03996389
0.0397379
0.03971986
0.03991558
0.04031356
0.04088962
0.04159489
0.04232576
0.04300009
0.04355642
0.04394898
0.04416832
0.04425292
0.04427757
0.04432387
0.04447744
0.04483126
0.04544557
0.04635732
0.04758008
0.0491074
0.05091575
0.05296786
0.05521623
0.05760686
0.06008292
0.06258832
0.06507088
0.06748478
0.06979222
0.07196377
0.07397812
0.07582208
0.07748989
0.07898261
0.08030704
0.08147458
0.08250035
0.08340226
0.08419985
0.08491329
0.08556833
0.0861896
0.08679759
0.08740793
0.08803833
0.08870836
0.08942178
0.09017848
0.09097424
0.09180066
0.09264538
0.09349258
0.09432344
0.09512217
0.09587399
0.09656121
0.09716259
0.09765415
0.09801034
0.09820635
0.09821998
0.09803384
0.0976331
0.0970125
0.09615987
0.09510219
0.09380289
0.09245072
0.09101199
0.006794103
0.007997963
0.008917262
0.01329624
0.01840071
0.02513734
0.03081329
0.03732657
0.04445764
0.05216902
0.06074888
0.07095777
0.08232321
0.09519033
0.110776
0.1348965
0.1481262
0.1622317
0.1767513
0.1916369
0.2068072
0.2221154
0.2374134
0.2525584
0.2674188
0.28189
0.2961038
0.3118116
0.3279154
0.3444278
0.361322
0.3781956
0.3946719
0.4107022
0.4263593
0.4417428
0.4568272
0.4712845
0.4853245
0.4990345
0.5124184
0.525441
0.5380335
0.5500851
0.5614551
0.5719813
0.5815694
0.5901386
0.5975391
0.6037406
0.6086905
0.6116089
0.6121132
0.6111313
0.608622
0.6045606
0.598963
0.591973
0.5837972
0.5746617
0.5648001
0.5544688
0.5438635
0.5331388
0.522435
0.5118771
0.5015667
0.4915869
0.4820124
0.4729056
0.4643218
0.4562917
0.4488198
0.4418711
0.4353723
0.4292263
0.4233514
0.4176785
0.4122714
0.4071558
0.402346
0.3977157
0.3932552
0.3890097
0.3849381
0.3809496
0.3769541
0.3728984
0.3687839
0.3646581
0.3606116
0.3567397
0.353098
0.3496972
0.34651
0.3434809
0.340542
0.3376332
0.3347178
0.3317833
0.3288344
0.3258888
0.3229731
0.3201211
0.3173693
0.3147504
0.3122848
0.3099738
0.3077909
0.3056761
0.3035537
0.3013587
0.2990537
0.2966419
0.2941739
0.2917399
0.2894358
0.2873112
0.2853357
0.2834183
0.2814409
0.2793056
0.2770111
0.2746858
0.2725035
0.2705841
0.2689729
0.2676674
0.2666353
0.2658024
0.2650502
0.2642687
0.2634255
0.2625619
0.2617338
0.2609623
0.2602085
0.2593825
0.2583714
0.2570922
0.2555421
0.2538101
0.2520396
0.2503422
0.2487413
0.2472085
0.2457089
0.2442115
0.2427122
0.2412749
0.2400019
0.2389627
0.2381592
0.2375396
0.2370042
0.2364258
0.2357081
0.2348329
0.2338877
0.2329425
0.2320508
0.2312402
0.2305056
0.229806
0.2290586
0.2281517
0.2269808
0.2254766
0.2236284
0.2214885
0.2191435
0.2166778
0.2141462
0.2115747
0.2089689
0.2063283
0.2036668
0.2010141
0.1983904
0.195803
0.1932548
0.1907497
0.1882916
0.1858845
0.1835307
0.1812315
0.1789883
0.1768034
0.1746803
0.1726236
0.1706382
0.1687274
0.166891
0.1651225
0.1634076
0.1617255
0.1600509
0.1583581
0.1566251
0.154837
0.1529881
0.151082
0.1491307
0.1471529
0.1451713
0.1432095
0.1412887
0.1394264
0.1376345
0.13592
0.1342851
0.1327291
0.1312496
0.1298438
0.1285103
0.1272489
0.126061
0.1249489
0.1239154
0.1229633
0.1220946
0.1213105
0.1206111
0.1199954
0.1194611
0.1190041
0.1186179
0.1182934
0.1180184
0.1177769
0.1175482
0.1173126
0.117048
0.1167295
0.1163325
0.1158343
0.1152161
0.1144651
0.113576
0.1125528
0.1114103
0.1101753
0.1088881
0.1076036
0.1063923
0.1053405
0.104549
0.1041315
0.10421
0.1049083
0.1063393
0.1085887
0.1116928
0.1156256
0.1202895
0.1255388
0.1312059
0.1371703
0.1433615
0.1496442
0.1557568
0.161407
0.1664585
0.1709844
0.1750771
0.1786999
0.1816732
0.1837556
0.1846555
0.1841785
0.1822837
0.1789056
0.1740133
0.1675744
0.1597722
0.1512207
0.1431035
0.1369563
0.133802
0.1324875
0.1310554
0.1283464
0.1244924
0.1204154
0.1169836
0.1145991
0.113242
0.1126747
0.1126227
0.1128791
0.1134304
0.1144259
0.116067
0.1185311
0.1219075
0.1261625
0.1311858
0.1367668
0.1426022
0.1483329
0.1535923
0.1580243
0.161396
0.1636349
0.1646981
0.1646015
0.1634069
0.1612128
0.1581422
0.1543362
0.1499351
0.1451166
0.1400748
0.1349561
0.1298688
0.124895
0.1200977
0.115517
0.1111777
0.1070929
0.1032617
0.09967394
0.09631853
0.09318285
0.09025102
0.08750641
0.08493469
0.0825256
0.08026942
0.07815692
0.07617948
0.07432892
0.07259749
0.07097795
0.06946359
0.06804809
0.06672573
0.06549107
0.06433912
0.06326521
0.062265
0.06133437
0.06046952
0.05966664
0.05892246
0.05823413
0.05759805
0.0570106
0.05646925
0.05597245
0.05551909
0.05510801
0.05473749
0.05440591
0.05411401
0.05386587
0.05366132
0.0535
0.05338143
0.05330488
0.05326933
0.05327341
0.05331533
0.05339281
0.05350307
0.05364274
0.05380792
0.0539941
0.0541962
0.05440859
0.05462538
0.05484085
0.05505006
0.05524921
0.05543568
0.05560776
0.05576461
0.05590584
0.056031
0.05613924
0.05622909
0.05629846
0.05634469
0.05636467
0.05635521
0.05631333
0.05623667
0.05612353
0.05597285
0.05578411
0.05555737
0.05529355
0.05499492
0.05466621
0.05431108
0.05393465
0.05354254
0.05314042
0.05273407
0.05232777
0.05192206
0.05151324
0.05109449
0.05065699
0.05019033
0.04968324
0.04912427
0.04850258
0.04780989
0.0470442
0.04621433
0.04534207
0.04445963
0.04360412
0.04281284
0.04212164
0.04156503
0.04117503
0.04097913
0.04099783
0.04123719
0.0416822
0.04230228
0.04303906
0.04379641
0.04452418
0.04518686
0.04577618
0.0463191
0.04687314
0.04750453
0.04827716
0.04926293
0.050507
0.05203162
0.05383581
0.05589832
0.05818195
0.0606379
0.06321006
0.06583926
0.06846731
0.07104066
0.07351289
0.0758462
0.07801166
0.07999101
0.08177532
0.08336295
0.08475842
0.08597087
0.08701256
0.08789768
0.0886414
0.08926351
0.08979468
0.09026399
0.09069588
0.0911116
0.09152772
0.09196291
0.09242551
0.09292084
0.09345102
0.09401447
0.09460522
0.09521251
0.09582254
0.09642364
0.09700595
0.09755666
0.09805865
0.09849038
0.09882621
0.09903941
0.09910541
0.09900452
0.09871963
0.09824278
0.0975583
0.09668783
0.09558651
0.09442674
0.09313843
0.001565735
0.006078204
0.009159061
0.01280236
0.01695909
0.02180636
0.02742955
0.03372414
0.04086765
0.04955534
0.06268275
0.07078948
0.07967496
0.08914592
0.09923913
0.1099143
0.1211335
0.1328139
0.1448072
0.1569997
0.169365
0.1834473
0.197934
0.2126486
0.2274959
0.2423669
0.25714
0.2717575
0.286165
0.3004282
0.3146014
0.3288149
0.3436947
0.3590239
0.3748717
0.3910682
0.407179
0.4228621
0.4379619
0.452406
0.4661618
0.4791092
0.4915305
0.5035965
0.5153861
0.5268795
0.5380207
0.5487417
0.5589298
0.5683877
0.5767956
0.5840565
0.5901277
0.5945938
0.5973327
0.5979038
0.5960102
0.5918676
0.5858125
0.5779285
0.5683643
0.5572957
0.5450243
0.5318826
0.5181992
0.5042887
0.4904373
0.4768878
0.4638203
0.4513545
0.4395668
0.4284973
0.4181696
0.4086047
0.3998329
0.3918973
0.3848265
0.3786149
0.3731915
0.3684322
0.3641797
0.3602813
0.356615
0.3529345
0.3493418
0.3460159
0.3430477
0.3404918
0.338327
0.3364295
0.3346236
0.3327502
0.3307167
0.3285152
0.3262101
0.3239125
0.3217424
0.3197855
0.3180687
0.3165605
0.3151859
0.3138517
0.3124782
0.3110172
0.3094527
0.3077932
0.3060644
0.3043054
0.3025667
0.3009019
0.2993579
0.2979625
0.2967158
0.2955812
0.294489
0.293345
0.2920664
0.2906115
0.2889938
0.2872843