/*--------------------------------*- C++ -*----------------------------------*\
| =========                 |                                                 |
| \\      /  F ield         | foam-extend: Open Source CFD                    |
|  \\    /   O peration     | Version:     3.1                                |
|   \\  /    A nd           | Web:         http://www.extend-project.de       |
|    \\/     M anipulation  |                                                 |
\*---------------------------------------------------------------------------*/
FoamFile
{
    version     2.0;
    format      ascii;
    class       volScalarField;
    location    "13";
    object      p;
}
// * * * * * * * * * * * * * * * * * * * * * * * * * * * * * * * * * * * * * //

dimensions      [1 -1 -2 0 0 0 0];

internalField   nonuniform List<scalar> 
119952
(
6199.904
4870.926
4694.225
4903.039
5123.657
4969.598
4931.37
4900.518
4881.351
4865.142
4850.135
4835.112
4822.602
4810.846
4801.057
4793.66
4788.676
4784.81
4772.154
4709.142
5004.507
4880.317
4845.312
5218.255
5238.773
5310.498
5377.189
5488.624
5725.581
8119.152
3347.124
3309.815
3327.755
3340.769
3358.235
3375.736
3397.958
3421.33
3447.939
3451.902
3457.888
3499.941
3526.34
3556.172
3585.751
3617.201
3649.691
3681.609
3714.886
3743.038
3767.589
3780.915
3809.148
3840.969
3872.785
3906.307
3941.407
3976.863
4016.808
4043.807
4079.174
4120.844
4160.903
4201.132
4242.825
4286.486
4339.449
4442.282
4620.563
4526.878
4509.777
4609.014
4664.462
4660.868
4632.881
4615.448
4600.951
4586.133
4572.149
4559.153
4546.902
4536.4
4527.855
4522.04
4519.103
4519.124
4523.82
4539.697
4581.249
4637.816
4677.117
4791.68
4945.958
5017.112
5066.467
5116.838
5108.517
4993.003
5034.469
5126.14
5203.142
5280.859
5357.675
5432.476
5506.229
5579.106
5651.185
5722.46
5792.834
5862.199
5930.434
5997.413
6062.995
6127.031
6189.387
6249.928
6308.551
6365.175
6419.777
6472.459
6523.523
6573.408
6622.436
6670.581
6717.624
6763.406
6808.057
6851.758
6894.635
6936.763
6978.197
7018.974
7059.127
7098.678
7137.632
7175.995
7213.767
7250.946
7287.524
7323.518
7358.897
7393.659
7427.777
7461.227
7493.934
7525.95
7557.83
7589.486
7619.874
7648.916
7677.146
7704.543
7731.089
7756.784
7781.628
7805.639
7828.851
7851.27
7872.929
7893.883
7914.178
7933.865
7952.997
7971.627
7989.801
8007.563
8024.944
8041.965
8058.63
8074.921
8090.801
8106.205
8121.018
8135.058
8148.191
8160.127
8170.565
8179.179
8185.687
8189.929
8191.898
8191.669
8189.39
8185.898
8182.088
8179.327
8179.856
8186.394
8200.38
8224.633
8240.371
8210.549
8231.676
8251.519
8285.852
8285.535
8270.88
8303.598
8294.437
8297.918
8303.71
8305.352
8300.498
8288.822
8270.078
8244.514
8212.577
8175.148
8133.506
8089.261
8044.299
8000.715
7960.629
7926.012
7898.577
7879.707
7870.476
7871.567
7882.4
7902.002
7929.45
7962.733
7999.228
8036.253
8071.241
8102.538
8129.262
8150.8
8166.9
8177.229
8181.35
8178.214
8165.952
8168.119
8163.678
8156.122
8145.692
8133.64
8120.55
8106.904
8093.057
8079.112
8065.42
8052.086
8039.166
8026.706
8014.724
8003.228
7992.217
7981.677
7971.585
7961.928
7952.658
7943.763
7935.207
7926.974
7919.041
7911.385
7903.983
7896.822
7889.885
7883.164
7876.647
7870.336
7864.208
7858.201
7852.084
7833.377
7818.534
7803.956
7798.778
7793.173
7787.351
7782.117
7777.11
7772.221
7767.49
7762.901
7758.437
7754.058
7749.761
7745.535
7741.371
7737.261
7733.196
7729.166
7725.164
7721.181
7717.212
7713.25
7709.291
7705.331
7701.367
7697.4
7693.431
7689.465
7685.508
7681.568
7677.655
7673.78
7669.958
7666.205
7662.541
7658.988
7655.575
7652.333
7649.305
7646.538
7644.094
7642.049
7640.523
7639.584
7638.463
7636.163
7633.93
7632.433
7631.574
7631.48
7631.98
7632.071
7631.055
7626.291
7618.418
7619.32
7620.917
7623.877
7626.198
7627.301
7627.899
7628.119
7627.619
7626.223
7623.827
7620.714
7617.554
7615.067
7613.563
7612.857
7612.418
7611.715
7610.597
7609.02
7607.216
7605.375
7603.585
7601.928
7600.409
7598.931
7597.401
7595.759
7593.919
7591.761
7589.166
7586.009
7582.218
7577.698
7572.4
7566.289
7559.337
7551.54
7542.911
7533.484
7523.311
7512.475
7501.045
7489.122
7476.817
7464.251
7451.553
7438.863
7426.321
7414.081
7402.301
7391.143
7380.774
7371.341
7362.986
7355.857
7350.057
7345.71
7342.895
7341.753
7342.332
7344.675
7348.805
7354.711
7362.348
7371.635
7382.45
7394.64
7408.029
7422.416
7437.576
7453.262
7469.212
7485.153
7500.807
7515.898
7530.14
7543.225
7554.771
7564.235
7570.978
7575.811
7590.659
7647.379
6184.719
6052.569
5895.336
5738.422
5579.995
5421.825
5265.209
5110.942
4959.766
4785.476
4643.455
4508.863
4376.618
4253.87
4138.313
4030.174
3929.915
3833.662
3697.628
3637.359
3554.829
3477.027
3413.396
3355.884
3304.387
3258.943
3218.356
3184.072
3157.48
3119.289
3096.093
3077.821
3062.266
3051.251
3043.875
3040.309
3042.245
3054.025
3045.033
3047.64
3061.258
3076.188
3092.263
3110.248
3130.273
3152.448
3176.482
3197.967
3227.192
3258.132
3287.515
3317.259
3347.919
3379.09
3411.236
3450.265
3409.885
3441.627
3476.194
3508.786
3539.715
3570.881
3603.811
3638.586
3674.285
3710.018
3748.398
3787.048
3825.016
3863.328
3903.83
3948.112
3998.389
4056.403
4119.297
4177.727
4212.797
4230.923
4260.612
4289.367
4303.363
4302.315
4292.641
4279.93
4267.099
4253.385
4239.977
4227.077
4215.725
4207.111
4202.353
4202.502
4208.949
4223.697
4249.388
4288.303
4340.602
4405.3
4483.173
4566.999
4638.852
4690.877
4725.193
4743.872
4758.106
4791.44
4851.079
4923.371
4999.261
5074.597
5148.466
5221.373
5293.722
5365.506
5436.513
5506.541
5575.466
5643.206
5709.675
5774.767
5838.369
5900.366
5960.659
6019.169
6075.85
6130.714
6183.863
6235.492
6285.835
6335.039
6383.106
6429.958
6475.6
6520.128
6563.66
6606.298
6648.118
6689.179
6729.528
6769.201
6808.226
6846.62
6884.4
6921.577
6958.168
6994.174
7029.601
7064.444
7098.697
7132.349
7165.398
7197.79
7229.672
7260.983
7291.661
7321.382
7350.175
7378.099
7405.185
7431.429
7456.821
7481.363
7505.067
7527.949
7550.034
7571.361
7591.968
7611.9
7631.206
7649.933
7668.128
7685.836
7703.089
7719.912
7736.315
7752.286
7767.792
7782.77
7797.132
7810.745
7823.444
7835.031
7845.237
7853.759
7860.301
7864.627
7866.689
7866.614
7864.656
7861.293
7857.208
7853.467
7851.321
7851.777
7856.081
7866.47
7875.55
7888.623
7893.553
7910.232
7930.068
7955.687
7968.351
7960.833
8030.01
8039.322
8039.804
8038.742
8036.85
8030.318
8017.985
7998.757
7972.598
7940.004
7901.868
7859.441
7814.323
7768.437
7723.915
7682.829
7647.051
7618.194
7597.572
7586.112
7584.757
7593.09
7610.251
7635.162
7666.066
7700.765
7736.746
7770.718
7801.416
7827.988
7849.896
7866.61
7877.801
7883.513
7884.499
7882.036
7879.325
7875.134
7867.878
7858.594
7847.737
7835.831
7823.287
7810.415
7797.452
7784.611
7772.023
7759.772
7747.908
7736.459
7725.426
7714.847
7704.677
7694.903
7685.5
7676.457
7667.747
7659.351
7651.244
7643.408
7635.822
7628.471
7621.339
7614.417
7607.69
7601.157
7594.778
7588.654
7582.828
7578.117
7515.493
7510.534
7501.164
7492.136
7485.475
7479.961
7474.781
7469.69
7464.72
7459.902
7455.221
7450.656
7446.188
7441.799
7437.475
7433.211
7428.995
7424.821
7420.681
7416.566
7412.471
7408.389
7404.317
7400.251
7396.189
7392.131
7388.078
7384.034
7380.002
7375.991
7372.009
7368.064
7364.169
7360.336
7356.582
7352.927
7349.392
7346.004
7342.795
7339.801
7337.058
7334.604
7332.467
7330.61
7328.958
7327.355
7325.676
7324.076
7322.84
7321.966
7321.562
7321.157
7320.279
7319.494
7317.823
7315.566
7313.474
7314.16
7316.104
7317.531
7318.559
7319.328
7319.771
7319.518
7318.256
7316.304
7314.117
7312.172
7310.938
7310.494
7310.207
7309.315
7307.695
7305.618
7303.46
7301.332
7299.289
7297.384
7295.74
7294.265
7292.794
7291.326
7289.793
7288.069
7286.031
7283.539
7280.473
7276.737
7272.252
7266.96
7260.82
7253.814
7245.938
7237.209
7227.666
7217.362
7206.374
7194.786
7182.701
7170.233
7157.501
7144.634
7131.769
7119.048
7106.624
7094.655
7083.304
7072.735
7063.1
7054.54
7047.181
7041.137
7036.525
7033.458
7032.027
7032.298
7034.317
7038.111
7043.674
7050.969
7059.914
7070.374
7082.198
7095.222
7109.259
7124.093
7139.485
7155.177
7170.908
7186.412
7201.438
7215.74
7229.134
7241.424
7252.836
7263.624
7276.315
7291.315
7314.152
3119.688
3142.943
3184.384
3240.588
3310.319
3395.808
3496.178
3611.321
3740.745
3883.317
4019.714
4184.404
4357.045
4537.061
4722.734
4911.906
5102.109
5289.286
5476.37
5645.918
5817.236
5978.417
6128.242
6263.771
6381.668
6479.926
6556.836
6610.454
6648.272
6655.067
6638.111
6599.463
6539.715
6460.221
6362.917
6249.987
6124.082
5988.062
5833.055
5684.299
5528.225
5369.614
5209.828
5050.485
4893.041
4738.712
4589.126
4444.471
4303.297
4171.462
4044.524
3924.786
3812.49
3707.492
3610.526
3526.092
3339.142
3259.718
3192.44
3128.621
3068.28
3013.164
2964.245
2921.26
2883.553
2850.017
2820.337
2795.548
2774.233
2755.787
2740.967
2730.412
2724.176
2722.062
2723.49
2727.685
2734.99
2744.454
2755.676
2769.02
2784.65
2802.457
2822.371
2844.392
2868.667
2895.681
2924.337
2954.311
2985.239
3016.708
3048.28
3079.524
3109.741
3139.425
3168.844
3199.29
3229.605
3258.686
3287.926
3318.826
3352.001
3387.111
3423.508
3460.805
3498.398
3535.719
3573.552
3612.323
3652.911
3696.347
3742.834
3792.068
3843.075
3895.048
3936.647
3964.539
3990.119
4016.625
4035.15
4040.708
4035.599
4025.4
4012.525
3998.785
3983.713
3968.728
3955.449
3945.452
3940.183
3940.949
3948.9
3965.219
3991.131
4027.993
4076.8
4134.616
4198.842
4268.77
4335.777
4391.401
4436.009
4475.317
4511.277
4552.043
4609.024
4679.77
4755.281
4830.583
4904.532
4977.52
5049.964
5121.852
5192.937
5262.996
5331.911
5399.622
5466.071
5531.183
5594.872
5657.05
5717.637
5776.572
5833.813
5889.356
5943.252
5995.612
6046.578
6096.263
6144.702
6191.872
6237.787
6282.532
6326.219
6368.947
6410.791
6451.818
6492.08
6531.621
6570.475
6608.667
6646.216
6683.142
6719.459
6755.177
6790.304
6824.841
6858.785
6892.123
6924.851
6956.982
6988.52
7019.51
7049.823
7079.268
7107.852
7135.563
7162.449
7188.513
7213.742
7238.132
7261.687
7284.422
7306.359
7327.525
7347.955
7367.69
7386.774
7405.253
7423.169
7440.561
7457.457
7473.877
7489.824
7505.278
7520.195
7534.502
7548.093
7560.833
7572.55
7583.036
7592.026
7599.214
7604.315
7607.021
7607.353
7605.63
7602.212
7597.541
7592.239
7587.208
7583.637
7582.344
7583.404
7587.851
7596.632
7607.79
7616.031
7629.945
7650.482
7672.902
7690.929
7700.259
7707.948
7726.346
7743.961
7746.258
7741.309
7732.257
7716.654
7693.421
7663.077
7626.51
7584.826
7539.276
7491.408
7443.294
7397.22
7355.181
7318.858
7289.842
7269.497
7259.004
7257.916
7267.223
7285.866
7312.549
7345.444
7382.435
7420.105
7455.141
7486.93
7514.773
7537.374
7554.198
7565.191
7570.764
7571.77
7569.585
7565.401
7559.319
7551.294
7541.645
7530.78
7519.077
7506.871
7494.441
7482
7469.713
7457.688
7445.995
7434.686
7423.792
7413.296
7403.215
7393.508
7384.179
7375.204
7366.559
7358.221
7350.169
7342.379
7334.833
7327.509
7320.396
7313.471
7306.734
7300.154
7293.75
7287.456
7281.338
7275.274
7269.596
7263.74
7256.384
7249.327
7244.183
7239.347
7234.236
7229.551
7224.682
7219.795
7214.988
7210.267
7205.631
7201.07
7196.576
7192.142
7187.761
7183.424
7179.125
7174.855
7170.61
7166.383
7162.171
7157.97
7153.778
7149.596
7145.423
7141.263
7137.119
7132.998
7128.906
7124.85
7120.84
7116.885
7112.997
7109.191
7105.485
7101.899
7098.459
7095.191
7092.127
7089.292
7086.71
7084.391
7082.327
7080.477
7078.797
7077.231
7075.774
7074.521
7073.557
7072.864
7072.288
7071.708
7070.846
7069.33
7067.985
7067.408
7067.804
7068.815
7069.648
7070.252
7070.803
7071.277
7071.366
7070.844
7069.756
7068.349
7066.875
7065.519
7064.465
7063.852
7063.483
7063.139
7062.51
7061.049
7058.787
7056.336
7054.041
7051.972
7050.21
7048.7
7047.354
7045.947
7044.31
7042.386
7040.031
7037.129
7033.57
7029.263
7024.141
7018.157
7011.284
7003.518
6994.872
6985.382
6975.101
6964.103
6952.475
6940.32
6927.753
6914.89
6901.856
6888.781
6875.806
6863.082
6850.767
6839.026
6828.027
6817.929
6808.871
6800.97
6794.343
6789.124
6785.424
6783.331
6782.902
6784.21
6787.295
6792.165
6798.795
6807.134
6817.041
6828.348
6840.91
6854.562
6869.095
6884.273
6899.844
6915.548
6931.131
6946.357
6961.02
6975.007
6988.221
7000.986
7013.239
7026.741
7039.486
7060.171
3072.398
3046.654
3016.467
2972.851
2943.363
2888.629
2875.627
2876.594
2890.7
2884.069
2860.883
2849.255
2855.853
2877.457
2914.401
2965.217
3029.906
3109.086
3202.28
3309.731
3431.157
3565.347
3712.231
3870.113
4037.479
4212.668
4393.705
4578.454
4764.648
4949.622
5133.812
5290.483
5465.936
5624.961
5770.641
5901.399
6013.586
6106.388
6178.777
6230.37
6260.965
6266.643
6247.342
6204.947
6141.171
6057.711
5956.617
5840.265
5711.265
5572.341
5425.905
5274.514
5119.313
4961.828
4803.701
4646.342
4490.938
4338.784
4191.16
4049.097
3913.297
3784.1
3661.583
3546.145
3437.872
3336.49
3241.428
3151.819
3065.012
2987.159
2919.462
2856.118
2796.666
2742.816
2695.282
2653.697
2617.171
2585.232
2557.636
2533.363
2512.097
2494.293
2480.238
2470.209
2464.344
2462.541
2464.681
2470.684
2479.252
2489.144
2500.883
2514.808
2530.737
2548.532
2568.325
2590.547
2615.559
2643.149
2672.96
2704.698
2737.706
2771.027
2803.633
2835.161
2865.553
2895.129
2923.805
2951.687
2979.141
3006.75
3035.575
3066.663
3100.282
3135.96
3172.944
3210.352
3247.541
3284.611
3321.894
3359.659
3398.419
3438.808
3481.003
3525.324
3571.71
3618.906
3661.597
3696.443
3726.503
3753.736
3774.745
3784.391
3782.87
3774.636
3761.407
3744.563
3725.633
3706.715
3689.828
3676.815
3669.315
3668.605
3675.506
3690.697
3714.959
3749.061
3792.997
3845.29
3904.029
3967.482
4031.019
4090.021
4143.557
4194.012
4243.144
4295.707
4357.535
4428.423
4503.531
4579.034
4653.634
4727.38
4800.482
4872.889
4944.392
5014.807
5084.036
5152.038
5218.778
5284.204
5348.255
5410.865
5471.969
5531.512
5589.449
5645.76
5700.461
5753.611
5805.294
5855.586
5904.526
5952.133
5998.452
6043.572
6087.596
6130.618
6172.718
6213.963
6254.405
6294.087
6333.039
6371.286
6408.847
6445.742
6481.986
6517.594
6552.574
6586.933
6620.674
6653.793
6686.291
6718.164
6749.406
6780.003
6809.902
6839.104
6867.455
6894.889
6921.531
6947.368
6972.396
6996.604
7019.993
7042.571
7064.357
7085.374
7105.655
7125.237
7144.16
7162.466
7180.195
7197.383
7214.055
7230.225
7245.89
7261.022
7275.566
7289.437
7302.521
7314.668
7325.697
7335.384
7343.449
7349.495
7353.269
7354.452
7353.053
7349.476
7344.21
7337.73
7330.514
7323.261
7317.079
7312.748
7310.08
7309.975
7315.36
7325.356
7335.999
7348.97
7365.79
7384.126
7402.06
7416.697
7436.789
7463.47
7485.226
7498.178
7502.002
7495.088
7478.43
7453.064
7420.143
7380.939
7336.724
7288.833
7238.737
7188.423
7140.33
7096.371
7057.921
7026.666
7004.12
6991.42
6988.95
6997.043
7015.084
7041.882
7075.601
7113.924
7153.226
7189.995
7223.791
7253.628
7278.119
7296.724
7309.459
7316.742
7319.181
7317.512
7312.751
7305.927
7297.526
7287.883
7277.279
7266.001
7254.284
7242.369
7230.47
7218.733
7207.237
7196.052
7185.231
7174.799
7164.752
7155.065
7145.758
7136.807
7128.187
7119.875
7111.847
7104.081
7096.556
7089.251
7082.148
7075.229
7068.479
7061.884
7055.436
7049.115
7042.931
7036.837
7030.914
7024.835
7019.045
7013.669
7008.149
7002.428
6996.74
6991.45
6985.873
6980.703
6975.612
6970.659
6965.82
6961.077
6956.418
6951.828
6947.297
6942.817
6938.378
6933.973
6929.594
6925.236
6920.893
6916.562
6912.24
6907.928
6903.625
6899.335
6895.062
6890.809
6886.585
6882.396
6878.25
6874.154
6870.114
6866.141
6862.248
6858.449
6854.764
6851.215
6847.827
6844.625
6841.634
6838.875
6836.36
6834.094
6832.06
6830.237
6828.597
6827.133
6825.889
6824.88
6824.121
6823.476
6822.833
6822.064
6821.141
6820.421
6820.049
6820.054
6820.367
6820.732
6821.057
6821.352
6821.557
6821.488
6821.005
6820.148
6819.115
6818.144
6817.45
6817.089
6817.049
6817.078
6816.711
6815.874
6814.808
6813.685
6812.497
6810.918
6808.893
6806.874
6805.058
6803.431
6801.93
6800.426
6798.666
6796.406
6793.594
6790.121
6785.9
6780.855
6774.931
6768.096
6760.341
6751.681
6742.147
6731.795
6720.698
6708.948
6696.651
6683.922
6670.877
6657.635
6644.32
6631.072
6618.04
6605.387
6593.28
6581.898
6571.413
6561.961
6553.63
6546.532
6540.818
6536.625
6534.019
6533.059
6533.844
6536.434
6540.847
6547.07
6555.041
6564.645
6575.746
6588.2
6601.842
6616.457
6631.796
6647.598
6663.596
6679.528
6695.164
6710.31
6724.87
6738.757
6752.236
6765.11
6778.872
6791.285
6810.852
3271.52
3248.276
3224.144
3175.025
3135.27
3060.31
3018.688
2976.196
2933.826
2891.523
2849.746
2810.012
2770.796
2733.484
2699.509
2668.228
2578.24
2558.946
2546.533
2537.275
2526.915
2519.416
2520.13
2532.154
2557.077
2595.385
2647.344
2712.291
2791.185
2885.194
2993.592
3115.909
3251.393
3399.349
3558.884
3728.23
3905.344
4088.112
4274.272
4461.37
4646.474
4827.165
4994.52
5164.312
5321.513
5465.677
5594.933
5707.173
5800.491
5872.834
5923.402
5952.332
5957.736
5938.669
5896.113
5831.752
5747.428
5645.308
5527.901
5397.987
5258.312
5111.28
4959.7
4805.411
4649.412
4492.91
4336.787
4182.292
4031.071
3884.179
3742.996
3608.386
3480.558
3360.08
3247.286
3141.841
3043.226
2950.485
2863.425
2782.092
2707.707
2640.238
2578.06
2520.774
2469.103
2423.489
2383.636
2348.836
2318.504
2291.983
2268.562
2248.134
2230.934
2217.21
2207.329
2201.676
2200.478
2203.747
2210.962
2220.784
2232.184
2245.108
2259.508
2275.287
2292.557
2311.832
2334.001
2359.665
2388.624
2420.545
2455.047
2490.838
2526.324
2560.464
2592.771
2623.174
2651.912
2679.046
2704.679
2729.524
2754.866
2782.127
2812.662
2846.742
2883.36
2921.101
2958.656
2995.601
3032.051
3067.928
3103.554
3139.593
3176.667
3215.113
3255.796
3299.435
3345.17
3390.026
3431.118
3467.572
3498.1
3522.642
3536.419
3537.424
3529.015
3512.973
3490.765
3465.434
3440.124
3417.429
3399.451
3387.963
3384.104
3388.282
3400.733
3421.992
3452.649
3492.705
3541.323
3596.935
3657.645
3720.727
3783.467
3844.468
3904.344
3964.667
4027.736
4095.81
4169.034
4245.233
4322.022
4398.175
4473.409
4547.724
4621.067
4693.315
4764.358
4834.148
4902.669
4969.911
5035.853
5100.461
5163.688
5225.482
5285.789
5344.557
5401.748
5457.35
5511.378
5563.872
5614.88
5664.447
5712.619
5759.46
5805.061
5849.522
5892.942
5935.403
5976.975
6017.711
6057.651
6096.821
6135.244
6172.937
6209.915
6246.194
6281.784
6316.697
6350.94
6384.518
6417.43
6449.676
6481.251
6512.149
6542.359
6571.853
6600.597
6628.54
6655.758
6682.143
6707.683
6732.447
6756.416
6779.6
6802.002
6823.635
6844.521
6864.687
6884.167
6902.997
6921.212
6938.849
6955.938
6972.5
6988.541
7004.048
7018.985
7033.284
7046.843
7059.531
7071.18
7081.587
7090.491
7097.602
7102.522
7104.838
7104.212
7100.66
7094.707
7087.013
7078.012
7067.954
7057.418
7047.921
7040.889
7035.641
7034.988
7039.176
7047.989
7057.914
7067.25
7078.159
7091.45
7108.045
7127.552
7151.817
7180.402
7205.309
7225.017
7239.058
7240.114
7226.451
7200.944
7166.223
7124.793
7078.428
7028.646
6976.971
6925.144
6875.547
6830.073
6790.082
6757.246
6733.232
6719.322
6716.24
6724.219
6742.806
6770.837
6806.287
6846.493
6888.019
6927.335
6963.663
6995.802
7022.332
7042.688
7056.929
7065.546
7069.232
7068.436
7063.453
7055.695
7046.624
7036.555
7025.646
7014.187
7002.466
6990.703
6979.062
6967.67
6956.555
6945.736
6935.274
6925.199
6915.516
6906.165
6897.19
6888.563
6880.258
6872.25
6864.514
6857.027
6849.768
6842.715
6835.848
6829.15
6822.605
6816.199
6809.921
6803.754
6797.7
6791.723
6785.851
6780.009
6774.385
6768.83
6763.074
6757.311
6751.752
6746.449
6741.245
6736.123
6731.208
6726.264
6721.408
6716.639
6711.938
6707.295
6702.7
6698.145
6693.621
6689.121
6684.639
6680.168
6675.705
6671.247
6666.793
6662.345
6657.905
6653.478
6649.071
6644.69
6640.344
6636.041
6631.786
6627.584
6623.438
6619.357
6615.35
6611.429
6607.611
6603.915
6600.366
6596.99
6593.81
6590.85
6588.127
6585.654
6583.43
6581.45
6579.709
6578.21
6576.981
6575.951
6575.171
6574.54
6573.993
6573.452
6572.866
6572.338
6571.968
6571.791
6571.781
6571.815
6571.793
6571.691
6571.494
6571.158
6570.643
6569.987
6569.302
6568.726
6568.362
6568.24
6568.348
6568.554
6568.625
6568.509
6568.239
6567.612
6566.624
6565.529
6564.492
6563.447
6562.017
6560.292
6558.544
6556.752
6554.822
6552.642
6549.971
6546.58
6542.416
6537.412
6531.511
6524.679
6516.902
6508.192
6498.581
6488.123
6476.891
6464.982
6452.509
6439.592
6426.342
6412.867
6399.282
6385.728
6372.358
6359.337
6346.843
6335.071
6324.225
6314.418
6305.666
6298.068
6291.801
6287.025
6283.879
6282.44
6282.818
6285.066
6289.204
6295.209
6302.998
6312.466
6323.495
6335.933
6349.653
6364.445
6380.035
6396.155
6412.528
6428.883
6444.983
6460.632
6475.731
6490.175
6504.174
6517.461
6531.357
6543.535
6562.182
3374.768
3347.205
3315.24
3270.639
3239.332
3173.002
3141.744
3110.123
3077.535
3044.267
3010.378
2976.06
2939.783
2902.509
2862.262
2754.646
2712.734
2670.719
2628.476
2586.264
2544.24
2503.101
2463.033
2424.235
2387.478
2354.702
2326.073
2301.181
2280.744
2264.126
2251.438
2244.997
2246.928
2258.887
2282.121
2317.807
2366.796
2430.107
2507.602
2599.429
2705.69
2826.091
2959.955
3106.351
3264.113
3431.606
3606.917
3788.006
3972.604
4158.451
4342.844
4522.387
4693.583
4860.017
5016.377
5159.376
5286.712
5397.161
5488.402
5558.302
5605.652
5630.303
5631.786
5609.619
5564.334
5497.349
5410.495
5305.997
5186.451
5054.768
4913.975
4766.707
4615.769
4463.063
4309.318
4155.665
4002.706
3851.452
3703.524
3559.753
3420.798
3287.481
3161.239
3043.521
2934.396
2833.085
2738.694
2650.322
2567.666
2490.525
2418.777
2352.567
2291.858
2236.595
2187.107
2143.709
2106.085
2073.485
2045.165
2020.356
1998.407
1979.03
1962.307
1948.657
1938.786
1933.443
1933.132
1937.976
1947.291
1959.41
1972.664
1986.79
2001.47
2016.854
2033.282
2051.555
2073.24
2099.798
2131.027
2165.934
2204.123
2243.935
2283.155
2320.146
2353.622
2383.421
2410.461
2435.388
2458.3
2479.587
2501.034
2525.015
2554.304
2589.437
2628.255
2668.06
2706.542
2743.31
2778.677
2812.242
2844.817
2877.723
2911.476
2945.898
2982.793
3024.759
3071.803
3121.063
3169.406
3214.179
3252.474
3282.515
3299.852
3302.203
3291.16
3268.703
3237.687
3202.584
3167.906
3137.047
3112.218
3095.208
3086.896
3087
3095.243
3112.194
3138.764
3175.372
3221.414
3275.625
3336.374
3401.63
3469.329
3537.935
3607.112
3677.448
3749.728
3824.618
3902.132
3981.248
4060.553
4139.06
4216.349
4292.312
4366.936
4440.2
4512.096
4582.642
4651.867
4719.791
4786.425
4851.765
4915.781
4978.429
5039.654
5099.392
5157.585
5214.187
5269.178
5322.566
5374.38
5424.667
5473.487
5520.917
5567.052
5612
5655.868
5698.75
5740.72
5781.836
5822.132
5861.632
5900.352
5938.302
5975.491
6011.924
6047.608
6082.549
6116.752
6150.22
6182.953
6214.951
6246.213
6276.739
6306.523
6335.556
6363.826
6391.322
6418.048
6443.996
6469.231
6493.698
6517.359
6540.296
6562.503
6583.982
6604.76
6624.862
6644.313
6663.143
6681.38
6699.054
6716.186
6732.787
6748.853
6764.361
6779.257
6793.456
6806.837
6819.243
6830.475
6840.29
6848.442
6854.551
6858.075
6858.514
6855.436
6848.774
6839.47
6828.624
6816.351
6802.598
6787.924
6774.487
6766.484
6764.592
6767.876
6771.909
6776.213
6780.67
6785.147
6791.263
6800.022
6812.64
6829.991
6852.494
6879.71
6908.516
6934.278
6956.427
6967.131
6959.001
6936.134
6902.198
6860.471
6813.428
6762.962
6710.676
6658.177
6607.438
6560.483
6519.05
6484.844
6459.623
6444.82
6441.4
6449.573
6468.949
6498.254
6535.331
6577.382
6621.021
6662.938
6701.843
6736.321
6764.913
6787.019
6802.733
6812.621
6817.257
6816.832
6811.959
6804.276
6795.155
6784.921
6773.81
6762.18
6750.409
6738.716
6727.213
6715.982
6705.083
6694.56
6684.435
6674.735
6665.424
6656.474
6647.867
6639.599
6631.646
6623.976
6616.565
6609.391
6602.431
6595.666
6589.073
6582.632
6576.329
6570.148
6564.077
6558.103
6552.221
6546.412
6540.686
6535.022
6529.427
6523.857
6518.282
6512.779
6507.415
6502.196
6497.059
6491.973
6486.944
6482.081
6477.205
6472.417
6467.689
6463.005
6458.356
6453.734
6449.13
6444.537
6439.949
6435.361
6430.769
6426.171
6421.568
6416.964
6412.365
6407.778
6403.212
6398.68
6394.194
6389.764
6385.391
6381.071
6376.805
6372.597
6368.453
6364.385
6360.404
6356.529
6352.786
6349.201
6345.802
6342.616
6339.67
6336.98
6334.558
6332.416
6330.56
6328.99
6327.694
6326.744
6326.04
6325.534
6325.154
6324.815
6324.459
6324.107
6323.796
6323.537
6323.306
6323.03
6322.654
6322.191
6321.664
6321.082
6320.443
6319.748
6319.048
6318.498
6318.239
6318.276
6318.532
6318.926
6319.36
6319.786
6320.149
6320.253
6320.1
6319.778
6319.174
6318.357
6317.444
6316.464
6315.249
6313.472
6311.316
6308.914
6306.096
6302.74
6298.677
6293.732
6287.854
6281.015
6273.205
6264.433
6254.73
6244.15
6232.767
6220.682
6208.019
6194.915
6181.464
6167.74
6153.849
6139.949
6126.201
6112.772
6099.851
6087.658
6076.377
6066.067
6056.783
6048.675
6041.898
6036.599
6032.968
6031.135
6031.168
6033.115
6036.998
6042.8
6050.459
6059.862
6070.844
6083.204
6096.934
6111.833
6127.616
6144.014
6160.731
6177.469
6193.982
6210.066
6225.609
6240.483
6254.859
6268.407
6282.333
6294.306
6312.323
3290.861
3252.21
3222.527
3181.15
3137.754
3097.631
3060.039
3025.399
2993.07
2960.644
2863.222
2832.212
2801.234
2769.541
2736.873
2703.185
2668.349
2632.005
2594.158
2555.344
2516.371
2475.261
2433.395
2390.977
2348.426
2305.914
2263.619
2221.873
2180.703
2140.19
2101.785
2067.532
2037.368
2011.442
1990.499
1975.825
1968.939
1970.973
1983.144
2006.524
2041.615
2089.655
2151.261
2226.889
2316.795
2421.09
2539.546
2671.587
2816.263
2972.321
3138.07
3311.583
3490.757
3673.149
3855.882
4036.499
4212.826
4382.12
4544.245
4697.518
4837.866
4961.936
5067.758
5153.342
5217.042
5257.938
5275.831
5270.875
5243.261
5193.501
5122.75
5032.588
4925.228
4803.307
4669.712
4528.01
4380.75
4230.756
4080.628
3930.9
3781.995
3634.841
3489.415
3345.916
3205.858
3070.392
2940.685
2818.792
2706.138
2602.641
2507.258
2418.815
2336.287
2258.914
2186.126
2117.698
2053.938
1995.307
1942.178
1895.093
1854.637
1820.189
1790.561
1764.996
1742.638
1722.606
1704.366
1687.958
1674.087
1663.997
1658.983
1659.855
1667.033
1679.766
1695.425
1710.559
1726.035
1740.846
1755.5
1770.51
1787.043
1807.731
1835.09
1868.791
1907.714
1952.049
1997.87
2042.213
2083.505
2119.135
2148.625
2173.316
2194.111
2211.609
2226.553
2242.432
2262.272
2291.003
2328.875
2371.642
2414.888
2454.497
2491.043
2525.777
2556.45
2585.086
2614.009
2643.616
2672.409
2704.293
2745.244
2796.094
2852.516
2911.092
2968.056
3017.817
3054.965
3075.922
3078.341
3062.016
3029.477
2985.444
2936.411
2888.78
2847.348
2813.984
2790.289
2776.512
2771.144
2773.297
2784.307
2806.042
2839.457
2883.989
2938.676
3001.886
3071.547
3145.624
3222.456
3301.099
3381.208
3462.613
3545.149
3628.519
3712.078
3794.971
3876.498
3956.294
4034.268
4110.464
4184.978
4257.921
4329.403
4399.512
4468.298
4535.805
4602.055
4667.033
4730.704
4793.006
4853.862
4913.185
4970.9
5026.954
5081.327
5134.034
5185.12
5234.658
5282.734
5329.45
5374.926
5419.288
5462.645
5505.085
5546.665
5587.418
5627.364
5666.509
5704.854
5742.392
5779.116
5815.021
5850.103
5884.359
5917.786
5950.384
5982.153
6013.095
6043.214
6072.52
6101.019
6128.725
6155.648
6181.808
6207.229
6231.93
6255.916
6279.262
6301.921
6323.917
6345.247
6365.95
6386.05
6405.563
6424.51
6442.913
6460.794
6478.159
6495.004
6511.308
6527.029
6542.094
6556.391
6569.768
6582.037
6592.98
6602.29
6609.627
6614.562
6616.361
6614.561
6608.534
6597.768
6584.027
6569.354
6553.169
6534.815
6514.992
6496.298
6490.449
6497.749
6504.017
6505.201
6502.089
6499.357
6499.125
6501.869
6507.19
6515.312
6527.493
6545.885
6571.405
6601.489
6631.354
6658.495
6676.483
6677.256
6660.314
6629.663
6589.731
6543.783
6494.232
6442.454
6389.835
6338.354
6290.315
6247.621
6212.16
6185.816
6170.229
6166.475
6174.853
6194.945
6225.368
6263.923
6307.77
6353.21
6397.282
6438.63
6475.301
6505.794
6529.515
6546.532
6557.371
6562.282
6561.741
6557.151
6549.967
6541.053
6530.916
6519.971
6508.586
6497.081
6485.665
6474.445
6463.477
6452.869
6442.696
6432.941
6423.587
6414.619
6406.062
6397.857
6390
6382.462
6375.186
6368.143
6361.321
6354.699
6348.257
6341.967
6335.812
6329.778
6323.848
6318.012
6312.258
6306.577
6300.959
6295.402
6289.892
6284.424
6279.005
6273.634
6268.319
6263.077
6257.915
6252.824
6247.796
6242.836
6237.933
6233.15
6228.381
6223.648
6218.942
6214.253
6209.573
6204.893
6200.208
6195.51
6190.796
6186.061
6181.306
6176.534
6171.753
6166.971
6162.198
6157.445
6152.732
6148.08
6143.505
6139.008
6134.574
6130.19
6125.851
6121.558
6117.321
6113.15
6109.066
6105.095
6101.268
6097.614
6094.165
6090.973
6088.056
6085.429
6083.11
6081.118
6079.466
6078.162
6077.242
6076.667
6076.365
6076.241
6076.185
6076.088
6075.919
6075.682
6075.375
6075.003
6074.481
6073.782
6072.996
6072.139
6071.231
6070.304
6069.354
6068.422
6067.763
6067.593
6067.82
6068.239
6068.746
6069.341
6070.022
6070.813
6071.556
6072.229
6072.769
6072.947
6072.833
6072.453
6071.706
6070.662
6069.286
6067.557
6065.286
6062.334
6058.79
6054.624
6049.704
6043.869
6037.036
6029.2
6020.372
6010.581
5999.877
5988.337
5976.069
5963.225
5949.905
5936.153
5922.097
5907.874
5893.629
5879.52
5865.71
5852.371
5839.683
5827.842
5817.013
5807.304
5798.814
5791.677
5786.049
5782.082
5779.899
5779.588
5781.212
5784.803
5790.357
5797.826
5807.114
5818.068
5830.445
5844.128
5858.979
5874.809
5891.398
5908.401
5925.458
5942.299
5958.711
5974.569
5989.722
6004.307
6017.949
6031.78
6043.517
6060.894
3039.791
2987.535
2878.311
2841.114
2804.391
2769.828
2737.289
2706.347
2676.445
2647.297
2618.837
2589.532
2559.553
2528.632
2496.712
2463.528
2428.953
2392.808
2354.912
2315.555
2275.777
2234.713
2192.574
2149.786
2106.697
2063.394
2019.357
1974.536
1929.905
1886.102
1843.991
1805.553
1772.06
1743.658
1721.159
1705.64
1698.229
1699.896
1711.609
1734.07
1768.603
1815.6
1875.8
1949.802
2037.981
2140.465
2257.03
2387.148
2529.821
2683.849
2847.338
3018.25
3193.857
3371.493
3549.05
3724.724
3896.995
4063.358
4221.445
4369.226
4503.357
4620.602
4718.556
4795.354
4849.724
4881.203
4889.931
4876.553
4841.842
4786.411
4711.347
4617.861
4507.841
4384.219
4249.398
4107.249
3960.917
3812.905
3666.01
3521.684
3379.867
3240.136
3101.518
2963.6
2828.349
2697.863
2573.671
2457.658
2351.464
2255.155
2167.096
2085.776
2010.082
1938.947
1871.478
1807.301
1746.671
1690.275
1639.008
1594.04
1556.993