/*--------------------------------*- C++ -*----------------------------------*\
| =========                 |                                                 |
| \\      /  F ield         | foam-extend: Open Source CFD                    |
|  \\    /   O peration     | Version:     3.1                                |
|   \\  /    A nd           | Web:         http://www.extend-project.de       |
|    \\/     M anipulation  |                                                 |
\*---------------------------------------------------------------------------*/
FoamFile
{
    version     2.0;
    format      ascii;
    class       surfaceScalarField;
    location    "13";
    object      phi;
}
// * * * * * * * * * * * * * * * * * * * * * * * * * * * * * * * * * * * * * //

dimensions      [0 3 -1 0 0 0 0];

internalField   nonuniform List<scalar> 
275122
(
-0.0003597922
0.0003646086
-3.352426e-07
-4.481108e-06
-0.0003213282
0.0003064204
1.235566e-06
1.367224e-05
-0.0003183509
0.0003264595
-3.414119e-07
-7.767146e-06
-0.0003538202
0.0003632694
-4.167052e-07
-9.032499e-06
-0.0003868907
0.0003897026
-4.784042e-07
-2.333484e-06
-0.0003896612
0.0003890747
-4.149705e-07
1.001457e-06
-0.0003857336
0.0003844266
-3.82822e-07
1.689807e-06
-0.0003799499
0.000378299
-3.613231e-07
2.012213e-06
-0.0003730184
0.0003711735
-3.433353e-07
2.188188e-06
-0.000365459
0.000363499
-3.343617e-07
2.294333e-06
-0.0003574143
0.0003553327
-3.027397e-07
2.384352e-06
-0.0003488718
0.0003466514
-2.943026e-07
2.514676e-06
-0.0003398154
0.0003374337
-2.548077e-07
2.636446e-06
-0.0003301913
0.0003276616
-2.08508e-07
2.738228e-06
-0.0003200634
0.0003173926
-1.585244e-07
2.829248e-06
-0.000309446
0.0003066618
-1.276681e-07
2.911849e-06
-0.0002984156
0.0002955418
-1.02672e-07
2.976407e-06
-0.0002870337
0.0002841159
-8.15545e-08
2.999328e-06
-0.0002757015
0.0002730694
-1.152933e-07
2.747362e-06
-0.0002671062
0.0002666072
-4.409343e-07
9.399049e-07
-0.0002915218
0.0003019823
-1.033179e-06
-9.427376e-06
-0.0003012849
0.0002994399
-1.385489e-07
1.983617e-06
-0.0002967691
0.0002969559
-7.301386e-08
-1.137289e-07
-0.0003238109
0.0003337664
3.889174e-07
-1.034442e-05
-0.0003290396
0.0003260209
5.453905e-07
2.473319e-06
-0.0003218087
0.0003200465
-1.53081e-07
1.915334e-06
-0.0003145457
0.0003115679
-1.593526e-07
3.137116e-06
-0.0003028962
0.0002981934
-1.530886e-07
4.855897e-06
-0.0002757872
0.0002565289
-2.309138e-07
1.948915e-05
-0.0001706227
0.0001757502
4.730214e-09
-5.132193e-06
-0.0002534568
0.0002663137
-6.834151e-08
-1.278851e-05
-0.0003030667
0.0003152056
6.508433e-09
-1.214538e-05
-0.0003522231
0.0003647275
7.348611e-09
-1.251177e-05
-0.000402721
0.0004154407
8.171377e-09
-1.272794e-05
-0.0004543365
0.0004674459
8.144923e-09
-1.311757e-05
-0.0005072912
0.0005206698
5.385535e-09
-1.338398e-05
-0.0005611389
0.0005747033
9.265866e-09
-1.357363e-05
-0.0006156377
0.0006293436
1.370773e-08
-1.371956e-05
-0.0006705034
0.0006842706
1.28511e-08
-1.378005e-05
-0.0007251335
0.0007400386
2.212412e-07
-1.51264e-05
1.201772e-05
-0.0005018112
0.0005035039
1.385727e-09
-1.371177e-05
1.217869e-05
-0.0005085782
0.0005101452
1.322866e-10
-1.374576e-05
1.241397e-05
-0.0005145085
0.0005158811
-8.246155e-10
-1.378577e-05
1.270229e-05
-0.0005196442
0.0005207709
-1.191168e-09
-1.382778e-05
1.304504e-05
-0.0005237996
0.0005246919
-1.475415e-09
-1.393583e-05
1.332222e-05
-0.000527122
0.0005278407
-9.466532e-10
-1.403994e-05
1.354109e-05
-0.0005298758
0.0005304997
-1.110445e-09
-1.416389e-05
1.370759e-05
-0.000532304
0.0005328923
-1.369151e-09
-1.429456e-05
1.423047e-05
-0.0005344896
0.0005341369
-6.399532e-10
-1.387716e-05
1.242384e-05
-0.002175652
0.002184079
-8.297111e-11
-5.862974e-05
1.272141e-05
1.23862e-05
1.267121e-05
1.335745e-05
-0.002189922
0.002194745
2.415611e-11
-5.920665e-05
1.386439e-05
1.333051e-05
1.383096e-05
1.369446e-05
-0.002198767
0.002202417
1.222446e-10
-5.889547e-05
1.39555e-05
1.366556e-05
1.392946e-05
1.378623e-05
-0.002206254
0.002209789
1.241519e-10
-5.889186e-05
1.391932e-05
1.375936e-05
1.389235e-05
1.382673e-05
-0.002213436
0.002216521
7.969245e-11
-5.865505e-05
1.398394e-05
1.380034e-05
1.395895e-05
1.38999e-05
-0.002219419
0.002221989
2.760864e-11
-5.832205e-05
1.400187e-05
1.38736e-05
1.39763e-05
1.388867e-05
-0.002224445
0.002226558
5.474849e-11
-5.775134e-05
1.39555e-05
1.386301e-05
1.393103e-05
1.379824e-05
-0.002228746
0.002230658
3.255055e-10
-5.711315e-05
1.382739e-05
1.37711e-05
1.380424e-05
1.375288e-05
-0.002232846
0.002234296
2.345434e-10
-5.654071e-05
1.38152e-05
1.372891e-05
1.379298e-05
1.320403e-05
-0.002233915
0.00223613
1.14796e-10
-5.505719e-05
1.323576e-05
1.317812e-05
1.322423e-05
1.372597e-05
-0.002238378
0.002238773
6.974863e-11
-5.535217e-05
1.376173e-05
1.371782e-05
1.375121e-05
1.351743e-05
-0.00223899
0.002239126
6.187648e-11
-5.391735e-05
1.337848e-05
1.351208e-05
1.337346e-05
1.336485e-05
-0.002239142
0.002238924
7.605563e-11
-5.3042e-05
1.327079e-05
1.335897e-05
1.326545e-05
1.324918e-05
-0.002238604
0.002238145
5.727719e-11
-5.238318e-05
1.31769e-05
1.324292e-05
1.317336e-05
1.318301e-05
-0.002237615
0.002236905
3.409299e-11
-5.190359e-05
1.313202e-05
1.317175e-05
1.312626e-05
1.31813e-05
-0.002236178
0.002235322
2.249771e-11
-5.173583e-05
1.314497e-05
1.314282e-05
1.31226e-05
1.339274e-05
-0.002234565
0.002233631
1.047365e-11
-5.233165e-05
1.341881e-05
1.320648e-05
1.324772e-05
1.455021e-05
-0.002232478
0.00222955
4.297184e-12
-5.41329e-05
1.4844e-05
1.370582e-05
1.396104e-05
1.881503e-05
-0.002222611
0.002207166
1.89488e-11
-5.563218e-05
2.005351e-05
1.635238e-05
1.585657e-05
2.228144e-05
-0.002188248
0.002206886
6.138171e-11
-4.091903e-05
1.669197e-05
-0.002222953
0.002224712
1.810142e-10
-1.845197e-05
3.516549e-05
-0.00221805
0.002213856
5.397396e-10
-3.097205e-05
3.024819e-05
-0.002210921
0.002208495
2.158075e-10
-2.782225e-05
1.659081e-05
-0.002205813
0.002206742
6.628787e-11
-1.751985e-05
3.824997e-06
-0.002210533
0.002214224
2.741322e-11
-7.515704e-06
-1.910212e-07
-0.002217232
0.002220028
2.536518e-11
-2.605487e-06
-2.679856e-06
-0.002222904
0.002225457
2.808723e-11
1.270655e-07
-4.570533e-06
-0.002227841
0.002229967
2.87131e-11
2.444545e-06
-6.379597e-06
-0.00223187
0.002233414
4.381262e-11
4.835598e-06
-8.138746e-06
-0.002234659
0.002235488
6.241902e-11
7.309459e-06
-1.016295e-05
-0.002236058
0.002236174
6.712555e-11
1.004623e-05
-1.224058e-05
-0.002235896
0.002235184
5.060538e-11
1.295225e-05
-1.450142e-05
-0.002234006
0.002232438
4.495082e-11
1.607027e-05
-1.679328e-05
-0.002230268
0.002227764
2.143629e-11
1.929727e-05
-1.911132e-05
-0.002224528
0.002221061
-3.818068e-11
2.257776e-05
-2.133195e-05
-0.002216705
0.002212273
-5.300524e-11
2.576339e-05
-2.308656e-05
-0.002206775
0.002201364
-2.421048e-11
2.849724e-05
-2.33104e-05
-0.002194557
0.002187592
2.005987e-11
3.027511e-05
-2.223029e-05
-0.002178942
0.002170485
6.447234e-11
3.068701e-05
-1.436002e-05
-0.002156846
0.00214226
8.524421e-11
2.894626e-05
-2.35924e-05
-0.002131167
0.002121822
6.972581e-11
3.293745e-05
-1.579535e-05
-0.002109364
0.002093974
3.607673e-11
3.118541e-05
-2.414253e-06
-0.002066567
0.002042267
5.948314e-12
2.671434e-05
-2.122816e-05
-0.002021049
0.002004228
1.141453e-12
3.804925e-05
-3.645968e-05
-0.001988993
0.001971776
5.54195e-12
5.367623e-05
-4.611218e-05
-0.001952643
0.001934486
3.959285e-12
6.426921e-05
-6.283534e-05
-0.001916316
0.001902547
-4.579503e-12
7.660489e-05
-9.194281e-05
-0.001886855
0.001884992
-1.517285e-11
9.380561e-05
-2.016523e-05
-0.001886996
0.001871083
-3.528532e-11
8.815366e-05
-1.608698e-05
-2.009492e-05
-1.589259e-05
-1.278664e-05
-0.001848283
0.001829785
-5.49087e-11
6.909884e-05
-1.285679e-05
-1.245589e-05
-1.250217e-05
-1.151845e-05
-0.001811418
0.001791902
-6.684146e-11
6.434493e-05
-1.118283e-05
-1.122464e-05
-1.090285e-05
-1.024038e-05
-0.001771898
0.001752282
-7.375174e-11
5.979454e-05
-1.007643e-05
-1.000611e-05
-9.856047e-06
-9.620295e-06
-0.001733074
0.001714274
-7.727086e-11
5.675722e-05
-9.534176e-06
-9.436922e-06
-9.365889e-06
-9.101124e-06
-0.001695688
0.00167738
-7.87185e-11
5.427177e-05
-9.00441e-06
-8.970378e-06
-8.887766e-06
-8.619692e-06
-0.001659262
0.001641457
-7.715117e-11
5.19608e-05
-8.540037e-06
-8.533022e-06
-8.463101e-06
-8.219111e-06
-0.001623862
0.001606588
-7.026604e-11
4.991764e-05
-8.155275e-06
-8.163837e-06
-8.104984e-06
-7.881607e-06
-0.001589514
0.001572756
-5.776473e-11
4.81009e-05
-7.827227e-06
-7.842954e-06
-7.791206e-06
-7.59253e-06
-0.001556198
0.00153995
-4.113874e-11
4.647249e-05
-7.546783e-06
-7.564361e-06
-7.520603e-06
-7.349536e-06
-0.0015239
0.001508147
-1.99554e-11
4.503855e-05
-7.311953e-06
-7.329878e-06
-7.293893e-06
-7.15084e-06
-0.001492581
0.001477291
4.7868e-12
4.380907e-05
-7.121407e-06
-7.137754e-06
-7.109409e-06
-6.997814e-06
-0.001462172
0.0014473
2.847276e-11
4.280341e-05
-6.976042e-06
-6.989511e-06
-6.968576e-06
-6.886194e-06
-0.001432572
0.001418057
4.767534e-11
4.202265e-05
-6.871322e-06
-6.881951e-06
-6.867621e-06
-6.810701e-06
-0.001403653
0.001389421
6.167132e-11
4.145352e-05
-6.801396e-06
-6.809562e-06
-6.800213e-06
-6.762985e-06
-0.001375267
0.001361244
7.169312e-11
4.106255e-05
-6.757148e-06
-6.762694e-06
-6.75647e-06
-6.731913e-06
-0.001347262
0.001333371
7.959663e-11
4.080248e-05
-6.727468e-06
-6.728774e-06
-6.723734e-06
-6.703456e-06
-0.001319492
0.00130567
8.628901e-11
4.061203e-05
-6.697805e-06
-6.697701e-06
-6.691338e-06
-6.66391e-06
-0.001291835
0.001278033
9.159769e-11
4.04217e-05
-6.654901e-06
-6.655263e-06
-6.645381e-06
-6.600112e-06
-0.001264202
0.001250394
9.438957e-11
4.015658e-05
-6.585655e-06
-6.588947e-06
-6.573547e-06
-6.497183e-06
-0.001236557
0.001222745
9.486537e-11
3.973465e-05
-6.474362e-06
-6.487358e-06
-6.464399e-06
-6.333725e-06
-0.001208917
0.001195127
9.242336e-11
3.905886e-05
-6.297034e-06
-6.336229e-06
-6.302442e-06
-6.077504e-06
-0.001181334
0.00116759
8.699789e-11
3.800991e-05
-6.018716e-06
-6.11024e-06
-6.060006e-06
-5.702014e-06
-0.001153845
0.001140155
7.935039e-11
3.64913e-05
-5.620097e-06
-5.776244e-06
-5.703022e-06
-5.226315e-06
-0.001126463
0.001112852
6.894249e-11
3.452208e-05
-5.133526e-06
-5.321847e-06
-5.228801e-06
-4.720265e-06
0.00108587
5.762012e-11
3.226786e-05
-4.634658e-06
-4.799037e-06
-4.705188e-06
-0.001099279
-4.260876e-06
-0.001072597
0.001059612
4.931359e-11
2.997734e-05
-4.195736e-06
-4.305716e-06
-4.230732e-06
-3.886506e-06
-0.0010469
0.001034616
4.33057e-11
2.775399e-05
-3.834099e-06
-3.902786e-06
-3.846919e-06
-3.551065e-06
-0.001022684
0.001011233
3.966815e-11
2.556616e-05
-3.500064e-06
-3.557956e-06
-3.505981e-06
-3.218819e-06
-0.001000148
0.000989556
3.845349e-11
2.33701e-05
-3.166724e-06
-3.222445e-06
-3.169875e-06
-2.88775e-06
-0.0009793303
0.0009696096
3.797721e-11
2.11732e-05
-2.836991e-06
-2.88946e-06
-2.838363e-06
-2.570013e-06
-0.0009602622
0.0009514358
3.674893e-11
1.901252e-05
-2.522772e-06
-2.570402e-06
-2.522955e-06
-2.274363e-06
-0.0009429888
0.0009350724
3.477182e-11
1.692683e-05
-2.231382e-06
-2.273917e-06
-2.230806e-06
-2.004072e-06
-0.000927534
0.000920525
3.136796e-11
1.49456e-05
-1.965225e-06
-2.003092e-06
-1.964201e-06
-1.758283e-06
-0.0009138829
0.0009077581
2.664099e-11
1.308493e-05
-1.723081e-06
-1.757029e-06
-1.721836e-06
-1.535106e-06
-0.000901982
0.0008967045
2.218272e-11
1.135192e-05
-1.50348e-06
-1.5337e-06
-1.502089e-06
-1.335603e-06
-0.0008917543
0.0008872801
1.748982e-11
9.758105e-06
-1.307812e-06
-1.334134e-06
-1.306349e-06
-1.161179e-06
-0.0008831104
0.0008793937
1.29949e-11
8.311021e-06
-1.137933e-06
-1.159239e-06
-1.136043e-06
-1.008402e-06
-0.0008759607
0.0008729507
1.037592e-11
6.998197e-06
-9.870147e-07
-1.007039e-06
-9.857862e-07
-8.687018e-07
-0.0008701911
0.0008678281
8.853353e-12
5.801254e-06
-8.519106e-07
-8.672336e-07
-8.504077e-07
-7.492055e-07
-0.000865707
0.0008639483
6.492808e-12
4.71831e-06
-7.309065e-07
-7.490339e-07
-7.304738e-07
-6.373048e-07
-0.0008623958
0.0008611856
4.809835e-12
3.729585e-06
-6.23031e-07
-6.367016e-07
-6.224036e-07
-5.419042e-07
-0.0008601692
0.0008594718
4.20231e-12
2.838555e-06
-5.290246e-07
-5.415254e-07
-5.287177e-07
-4.561802e-07
-0.0008589451
0.0008587181
4.46788e-12
2.028251e-06
-4.446469e-07
-4.559958e-07
-4.444421e-07
-3.801664e-07
-0.0008586437
0.0008588463
4.335106e-12
1.297897e-06
-3.702137e-07
-3.800436e-07
-3.70079e-07
-3.119013e-07
-0.0008591895
0.0008597847
3.708145e-12
6.345587e-07
-3.029637e-07
-3.119084e-07
-3.029502e-07
-2.491602e-07
-0.000860513
0.0008614748
3.386297e-12
1.872593e-08
-2.409822e-07
-2.49277e-07
-2.410605e-07
-1.865151e-07
-0.000862559
0.0008638719
2.982845e-12
-5.886335e-07
-1.753417e-07
-1.86816e-07
-1.755385e-07
-9.960742e-08
-0.0008652799
0.0008668443
2.181843e-12
-1.22719e-06
-6.860479e-08
-1.001027e-07
-6.895696e-08
6.515347e-08
-0.000868349
0.0008699184
1.332534e-12
-2.099287e-06
2.009416e-07
6.477085e-08
1.990315e-07
3.491204e-08
-0.0008717576
0.0008736497
4.830808e-13
-1.933837e-06
-1.908781e-08
4.066901e-08
-1.474184e-08
-3.856952e-08
-0.0008757587
0.0008780094
-3.371583e-14
-2.099708e-06
-3.913095e-08
-3.613975e-08
-3.708136e-08
-3.486227e-08
-0.0008802956
0.0008826781
-5.853514e-13
-2.244102e-06
-3.557817e-08
-3.359503e-08
-3.437686e-08
-3.295558e-08
-0.0008851124
0.0008876214
-1.080365e-12
-2.38476e-06
-3.028107e-08
-3.181475e-08
-2.924866e-08
-2.75634e-08
-0.0008901638
0.0008927678
-1.668768e-12
-2.499801e-06
-2.536047e-08
-2.670177e-08
-2.457565e-08
-2.295992e-08
-0.0008954003
0.0008980832
-1.774782e-12
-2.595581e-06
-2.134493e-08
-2.231661e-08
-2.077037e-08
-1.815459e-08
-0.0009007916
0.0009035435
-2.388549e-12
-2.682733e-06
-1.684425e-08
-1.770059e-08
-1.641458e-08
-1.211433e-08
-0.0009063188
0.0009091347
-2.914958e-12
-2.770707e-06
-1.085461e-08
-1.173581e-08
-1.047863e-08
-1.795783e-09
-0.0009119745
0.0009148511
-2.189485e-12
-2.871063e-06
-1.246271e-09
-1.506485e-09
-9.500764e-10
7.917833e-09
-0.0009177499
0.0009206983
-1.853883e-12
-2.982869e-06
9.144106e-09
8.08927e-09
9.278496e-09
2.240851e-08
-0.0009236735
0.0009267059
-1.940726e-12
-3.126474e-06
2.454043e-08
2.250229e-08
2.459197e-08
4.229263e-08
-0.0009297702
0.0009329051
-2.414545e-12
-3.309972e-06
4.522985e-08
4.230603e-08
4.526945e-08
6.754887e-08
-0.00093608
0.0009393437
-2.706177e-12
-3.541154e-06
7.117164e-08
6.757243e-08
7.118963e-08
9.858101e-08
-0.0009426581
0.000946084
-2.999968e-12
-3.828957e-06
1.028988e-07
9.860405e-08
1.029152e-07
1.360797e-07
-0.0009495734
0.0009532006
-3.492266e-12
-4.181783e-06
1.411908e-07
1.360899e-07
1.411974e-07
1.807906e-07
-0.0009569052
0.000960777
-4.192607e-12
-4.606925e-06
1.868233e-07
1.807554e-07
1.867659e-07
2.334511e-07
-0.000964741
0.0009689045
-4.314133e-12
-5.111138e-06
2.404498e-07
2.333845e-07
2.403914e-07
2.947962e-07
-0.000973176
0.0009776821
-3.481745e-12
-5.701245e-06
3.028516e-07
2.947058e-07
3.027842e-07
3.65543e-07
-0.0009823131
0.0009872169
-2.167162e-12
-6.384157e-06
3.747716e-07
3.654188e-07
3.746559e-07
4.464314e-07
-0.0009922634
0.0009976231
-4.988729e-13
-7.165949e-06
4.56857e-07
4.462771e-07
4.567196e-07
5.378207e-07
-0.001003144
0.001009019
1.869916e-12
-8.049946e-06
5.494651e-07
5.376609e-07
5.493104e-07
6.397647e-07
-0.001015074
0.001021527
4.422975e-12
-9.036445e-06
6.524397e-07
6.395712e-07
6.522468e-07
7.520621e-07
-0.001028176
0.001035266
6.900261e-12
-1.012453e-05
7.655074e-07
7.517852e-07
7.653142e-07
8.74491e-07
-0.001042569
0.00105036
9.58428e-12
-1.131577e-05
8.884466e-07
8.741868e-07
8.884252e-07
1.008269e-06
-0.001058383
0.001066941
1.199229e-11
-1.261776e-05
1.022136e-06
1.007432e-06
1.022015e-06
1.161141e-06
0.00108514
1.465617e-11
-1.40498e-05
-0.001075755
1.174501e-06
1.156525e-06
1.173245e-06
1.318434e-06
-0.001094794
0.001105067
1.75205e-11
-1.559132e-05
1.341343e-06
1.318564e-06
1.339766e-06
1.485109e-06
-0.001115634
0.001126853
2.035133e-11
-1.720465e-05
1.506948e-06
1.488973e-06
1.505186e-06
1.654807e-06
-0.001138382
0.001150556
2.329243e-11
-1.883071e-05
1.673617e-06
1.654661e-06
1.67335e-06
1.807922e-06
-0.001163047
0.001176139
2.452207e-11
-2.035465e-05
1.824022e-06
1.807243e-06
1.823466e-06
1.930315e-06
-0.001189528
0.00120343
2.460559e-11
-2.164507e-05
1.941998e-06
1.929627e-06
1.941397e-06
2.006924e-06
-0.001217586
0.001232131
2.436955e-11
-2.258305e-05
2.012841e-06
2.006248e-06
2.012216e-06
2.029932e-06
-0.001246875
0.001261859
2.342015e-11
-2.310219e-05
2.029519e-06
2.029232e-06
2.028894e-06
1.99076e-06
-0.001276973
0.001292163
2.153111e-11
-2.312727e-05
1.978684e-06
1.990047e-06
1.978022e-06
1.834777e-06
-0.001307422
0.001322605
1.935071e-11
-2.247284e-05
1.81069e-06
1.834221e-06
1.810267e-06
1.58394e-06
-0.00133775
0.001352476
1.735393e-11
-2.100109e-05
1.553602e-06
1.583663e-06
1.553344e-06
1.237558e-06
-0.001366997
0.001380795
1.754648e-11
-1.86581e-05
1.192652e-06
1.237455e-06
1.192494e-06
7.752257e-07
-0.001394226
0.001406613
1.829427e-11
-1.536279e-05
7.123269e-07
7.75602e-07
7.125437e-07
1.97593e-07
-0.001418401
0.001428604
2.838349e-11
-1.084346e-05
1.212521e-07
1.988137e-07
1.229309e-07
-5.865201e-07
-0.001437876
0.00144514
3.139933e-11
-4.776175e-06
-6.697241e-07
-5.756763e-07
-6.558967e-07
-1.517627e-06
-0.001451046
0.001455186
8.894368e-11
2.096881e-06
-1.635351e-06
-1.472034e-06
-1.612044e-06
-2.97191e-06
-0.001457715
0.001457888
9.671009e-11
1.187317e-05
-3.240527e-06
-2.770446e-06
-3.06406e-06
-5.984331e-06
-0.001456947
0.001454302
3.177384e-10
2.640478e-05
-6.483364e-06
-5.330397e-06
-5.962716e-06
-1.665872e-05
-0.001452503
0.001455963
1.547667e-10
6.672044e-05
-1.911033e-05
-1.576921e-05
-1.864264e-05
-1.483722e-05
-0.001454943
0.0014433
-7.488021e-12
6.825087e-05
-1.311094e-05
-1.507721e-05
-1.35822e-05
-1.034533e-05
-0.00142435
0.001396354
-1.345003e-10
7.058465e-05
-9.377764e-06
-1.206902e-05
-1.079603e-05
-5.889487e-06
-0.001357684
0.001307546
4.550523e-11
7.342313e-05
-5.02816e-06
-6.695717e-06
-5.67137e-06
-2.90159e-06
-0.001245643
0.001178991
1.847671e-09
7.894938e-05
-2.956235e-06
-3.21016e-06
-3.231062e-06
-3.695076e-06
-0.001115288
0.001059551
2.205866e-09
7.154357e-05
-4.072853e-06
-3.849201e-06
-4.191234e-06
-3.973755e-06
-0.001013699
0.0009725881
7.064025e-10
5.535888e-05
-3.116317e-06
-4.018669e-06
-3.140444e-06
-2.836953e-06
-0.0002321126
0.0002289335
-3.760055e-09
6.019773e-06
-1.91719e-06
-0.0002203448
0.0002182363
-1.147679e-09
4.026806e-06
-7.975984e-07
-0.0002141149
0.0002134111
-3.960836e-10
1.50185e-06
-5.027748e-07
-0.0002125799
0.0002125368
-1.64284e-10
5.460361e-07
-6.592489e-07
-0.0002125053
0.0002124178
-3.632937e-10
7.471845e-07
-1.245898e-06
-0.0002117605
0.0002113563
-4.740062e-10
1.650619e-06
-1.855768e-06
-0.0002095424
0.0002086986
-3.788954e-10
2.699953e-06
-2.377097e-06
-0.0002055451
0.0002042688
-4.068446e-10
3.653768e-06
-2.794786e-06
-0.0001999145
0.0001982801
-4.153971e-10
4.429582e-06
-3.042474e-06
-0.0001929931
0.0001911048
-3.814812e-10
4.931114e-06
-3.12593e-06
-0.000185228
0.0001832043
-4.379802e-10
5.150053e-06
-3.0936e-06
-0.0001770732
0.000175017
-3.910843e-10
5.150216e-06
-2.982088e-06
-0.0001689148
0.0001669128
-3.623579e-10
4.984399e-06
-2.792565e-06
-0.000161081
0.0001592096
-3.900845e-10
4.664349e-06
-2.527144e-06
-0.0001538645
0.0001521915
-3.704817e-10
4.200484e-06
-2.199809e-06
-0.0001475218
0.0001461045
-3.074796e-10
3.617461e-06
-1.827504e-06
-0.0001422647
0.000141149
-2.155955e-10
2.943413e-06
-1.424974e-06
-0.0001382615
0.0001374837
-1.073037e-10
2.20285e-06
-1.004261e-06
-0.0001356425
0.0001352293
9.833714e-13
1.417433e-06
-6.004044e-07
-0.0001345029
0.0001344815
8.312479e-11
6.217173e-07
-2.150005e-07
-0.0001349731
0.000135359
1.814505e-10
-1.710443e-07
2.141743e-07
-0.0001370663
0.0001378419
2.77921e-10
-9.900708e-07
5.920659e-07
-0.0001406895
0.0001418453
3.516225e-10
-1.748209e-06
8.775944e-07
-0.000145817
0.0001473368
4.456739e-10
-2.397833e-06
1.101691e-06
-0.0001523449
0.0001541803
5.003274e-10
-2.937606e-06
1.246522e-06
-0.0001600516
0.0001621379
5.79102e-10
-3.333379e-06
1.297027e-06
-0.000168653
0.0001709057
5.724894e-10
-3.550276e-06
1.264678e-06
-0.0001778025
0.0001801404
5.767142e-10
-3.603175e-06
1.186843e-06
-0.0001872109
0.0001895825
6.186392e-10
-3.559015e-06
1.083625e-06
-0.0001967126
0.0001990871
6.143392e-10
-3.458719e-06
9.696931e-07
-0.0002061768
0.0002085104
6.117329e-10
-3.303883e-06
7.76555e-07
-0.0002154093
0.0002176687
5.677579e-10
-3.036433e-06
5.521899e-07
-0.000224328
0.0002264816
5.657799e-10
-2.706328e-06
3.51118e-07
-0.000232799
0.0002348448
5.628794e-10
-2.397435e-06
2.117754e-07
-0.0002409069
0.0002429174
5.290901e-10
-2.222843e-06
1.094925e-06
-0.0002490327
0.0002506296
5.348409e-10
-2.69241e-06
2.116159e-06
-0.0002546538
0.000256058
4.532422e-10
-3.520817e-06
2.013027e-06
-0.0002601238
0.0002613838
4.273207e-10
-3.273422e-06
1.920211e-06
-0.0002649682
0.0002660726
3.740074e-10
-3.024932e-06
1.799955e-06
-0.0002691484
0.0002700789
3.20473e-10
-2.73081e-06
1.674131e-06
-0.0002726373
0.0002733979
2.7409e-10
-2.435056e-06
1.547428e-06
-0.0002754563
0.000276055
2.365397e-10
-2.14632e-06
1.420858e-06
-0.0002776412
0.000278087
1.978541e-10
-1.866779e-06
1.278648e-06
-0.0002792405
0.0002795575
1.617794e-10
-1.59582e-06
1.189668e-06
-0.0002803216
0.0002805058
1.084468e-10
-1.373958e-06
1.100994e-06
-0.0002809002
0.0002809711
7.26887e-11
-1.171929e-06
1.019371e-06
-0.000281044
0.0002810148
5.403527e-11
-9.902816e-07
9.504759e-07
-0.0002808027
0.0002806854
3.20302e-11
-8.332469e-07
8.948238e-07
-0.0002802252
0.0002800322
1.437854e-11
-7.018417e-07
8.517354e-07
-0.0002793616
0.0002791052
-4.776575e-12
-5.953433e-07
8.199587e-07
-0.0002782609
0.0002779534
-1.657586e-11
-5.123836e-07
7.983922e-07
-0.0002769712
0.0002766237
-2.682932e-11
-4.508219e-07
7.859349e-07
-0.0002755372
0.0002751609
-3.997722e-11
-4.09501e-07
7.810174e-07
-0.0002740019
0.0002736065
-4.024426e-11
-3.856113e-07
7.826508e-07
-0.0002724019
0.0002719961
-3.356036e-11
-3.768059e-07
7.899866e-07
-0.0002707727
0.0002703643
-2.679766e-11
-3.81516e-07
8.019174e-07
-0.0002691426
0.0002687383
-4.094671e-11
-3.97499e-07
8.176521e-07
-0.0002675364
0.0002671418
-5.502044e-11
-4.229223e-07
8.370921e-07
-0.0002659771
0.0002655972
-6.890171e-11
-4.57069e-07
8.59055e-07
-0.0002644813
0.0002641193
-8.213554e-11
-4.970425e-07
8.830677e-07
-0.0002630616
0.0002627206
-1.033728e-10
-5.419934e-07
9.093907e-07
-0.0002617289
0.0002614108
-1.103884e-10
-5.911728e-07
9.370153e-07
-0.0002604908
0.0002601976
-1.012508e-10
-6.43701e-07
9.662659e-07
-0.0002593536
0.0002590863
-9.471635e-11
-6.989261e-07
9.9649e-07
-0.0002583214
0.0002580809
-8.753216e-11
-7.559407e-07
1.027245e-06
-0.0002573969
0.0002571835
-8.584889e-11
-8.138136e-07
1.058583e-06
-0.000256581
0.0002563949
-7.664214e-11
-8.724095e-07
1.091363e-06
-0.0002558705
0.0002557093
-6.176229e-11
-9.300973e-07
1.125218e-06
-0.0002552645
0.0002551309
-2.932971e-11
-9.916455e-07
1.175639e-06
-0.0002548299
0.0002546848
1.471126e-10
-1.03073e-06
1.399599e-06
-0.0002522262
0.001034328
-1.00179e-11
-3.775749e-06
2.575545e-08
1.40282e-06
1.117586e-08
-0.000252231
-0.0002644659
-0.0002644686
6.939997e-07
-0.001036848
0.001036597
-9.713859e-12
-3.304606e-06
1.101696e-06
6.75562e-07
1.083784e-06
9.444967e-07
-0.001036421
0.001036426
-1.048566e-11
-3.903714e-06
1.019657e-06
9.296503e-07
1.005748e-06
1.044275e-06
-0.001036827
0.001037143
-1.025654e-11
-4.590442e-06
1.105338e-06
1.031635e-06
1.093079e-06
1.135955e-06
-0.001037391
0.001037552
-1.129506e-11
-4.769633e-06
1.180022e-06
1.124515e-06
1.168847e-06
1.19774e-06
-0.001037744
0.001038009
-1.296251e-11
-5.089111e-06
1.224479e-06
1.187239e-06
1.214207e-06
1.253415e-06
-0.001038369
0.001038822
-1.270455e-11
-5.485874e-06
1.272899e-06
1.243168e-06
1.263284e-06
1.305522e-06
-0.001039352
0.00103997
-9.834932e-12
-5.857151e-06
1.322856e-06
1.296724e-06
1.314195e-06
1.363642e-06
-0.001040648
0.001041426
-4.352923e-12
-6.237752e-06
1.37419e-06
1.355769e-06
1.366627e-06
1.421425e-06
-0.001042256
0.001043179
-1.789704e-12
-6.614506e-06
1.431261e-06
1.414662e-06
1.424686e-06
1.477238e-06
-0.001044157
0.001045227
-4.445823e-12
-6.984322e-06
1.485689e-06
1.471424e-06
1.480112e-06
1.530518e-06
-0.001046349
0.00104757
-6.131126e-12
-7.34746e-06
1.537224e-06
1.5257e-06
1.532575e-06
1.579424e-06
-0.001048848
0.00105023
-4.824864e-12
-7.704522e-06
1.586127e-06
1.575107e-06
1.582029e-06
1.62606e-06
-0.001051671
0.001053218
-3.295226e-12
-8.057043e-06
1.632252e-06
1.622429e-06
1.628723e-06
1.671957e-06
-0.001054823
0.001056533
-2.744358e-12
-8.403445e-06
1.677978e-06
1.668764e-06
1.674857e-06
1.71646e-06
-0.001058298
0.001060167
-1.985888e-12
-8.740569e-06
1.722326e-06
1.713654e-06
1.719592e-06
1.759368e-06
-0.001062089
0.001064112
-5.226654e-13
-9.0671e-06
1.765122e-06
1.756867e-06
1.762675e-06
1.800755e-06
-0.001066188
0.00106836
4.557249e-13
-9.382213e-06
1.806434e-06
1.798498e-06
1.804222e-06
1.840561e-06
-0.001070582
0.001072897
7.458586e-13
-9.684368e-06
1.846159e-06
1.838543e-06
1.844196e-06
1.878598e-06
-0.001075259
0.001077709
8.870904e-13
-9.971294e-06
1.884068e-06
1.876778e-06
1.882282e-06
1.914562e-06
-0.001080202
0.001082777
9.1278e-13
-1.024032e-05
1.91989e-06
1.912891e-06
1.918224e-06
1.948152e-06
-0.001085392
0.001088081
8.618178e-13
-1.048884e-05
1.953281e-06
1.946624e-06
1.951789e-06
1.979089e-06
-0.001090806
0.001093597
8.419276e-13
-1.071429e-05
1.983954e-06
1.97773e-06
1.98264e-06
2.007072e-06
-0.00109642
0.001099299
5.768907e-13
-1.091402e-05
2.011617e-06
2.005819e-06
2.010443e-06
2.031715e-06
-0.001102205
0.001105158
6.630181e-14
-1.108556e-05
2.03588e-06
2.030499e-06
2.03463e-06
2.05263e-06
-0.001108132
0.001111143
-5.724826e-13
-1.122677e-05
2.056464e-06
2.051427e-06
2.055203e-06
2.069808e-06
-0.001114171
0.001117224
-8.32828e-13
-1.133702e-05
2.073147e-06
2.068661e-06
2.072043e-06
2.083095e-06
-0.001120288
0.001123368
-7.697193e-13
-1.141578e-05
2.085984e-06
2.08206e-06
2.084973e-06
2.0925e-06
-0.001126453
0.001129544
-5.696428e-13
-1.146337e-05
2.094927e-06
2.091543e-06
2.093976e-06
2.097887e-06
-0.001132635
0.001135721
-3.992214e-13
-1.147977e-05
2.099853e-06
2.09697e-06
2.098925e-06
2.09916e-06
-0.001138803
0.00114187
-2.901439e-13
-1.146476e-05
2.100592e-06
2.098266e-06
2.099707e-06
2.096108e-06
-0.001144928
0.001147961
-4.012692e-14
-1.141774e-05
2.096961e-06
2.095268e-06
2.096141e-06
2.088429e-06
-0.001150981
0.001153966
2.771709e-13
-1.133739e-05
2.08868e-06
2.087623e-06
2.08787e-06
2.075746e-06
-0.001156933
0.001159854
7.791411e-13
-1.122173e-05
2.075359e-06
2.074956e-06
2.074559e-06
2.05757e-06
-0.001162752
0.001165594
1.386219e-12
-1.106783e-05
2.056407e-06
2.056825e-06
2.055663e-06
2.033229e-06
-0.001168407
0.001171152
2.012262e-12
-1.087184e-05
2.031197e-06
2.032515e-06
2.03048e-06
2.002022e-06
-0.001173863
0.001176492
2.691454e-12
-1.062978e-05
1.998995e-06
2.001308e-06
1.998287e-06
1.963077e-06
-0.001179083
0.001181576
3.414107e-12
-1.033636e-05
1.958965e-06
1.962409e-06
1.958291e-06
1.915267e-06
-0.001184024
0.00118636
4.121317e-12
-9.985008e-06
1.910009e-06
1.914667e-06
1.909428e-06
1.857491e-06
-0.001188643
0.001190794
4.874838e-12
-9.566717e-06
1.850835e-06
1.856919e-06
1.850312e-06
1.78767e-06
-0.001192884
0.001194824
5.580344e-12
-9.07345e-06
1.779564e-06
1.787087e-06
1.778932e-06
1.704811e-06
-0.001196694
0.001198392
6.209475e-12
-8.495949e-06
1.695102e-06
1.704205e-06
1.694422e-06
1.600148e-06
-0.001200009
0.001201432
6.534863e-12
-7.798648e-06
1.588164e-06
1.599572e-06
1.587644e-06
1.476674e-06
-0.001202738
0.001203806
6.595291e-12
-6.934188e-06
1.45706e-06
1.476132e-06
1.45651e-06
1.270985e-06
-0.001204766
0.001205525
6.259545e-12
-5.779079e-06
1.239435e-06
1.270606e-06
1.23897e-06
9.596e-07
-0.00120632
0.001207052
5.748292e-12
-4.343417e-06
8.467177e-07
9.592419e-07
8.462686e-07
6.154557e-07
-0.001207701
0.001208076
5.47565e-12
-2.780927e-06
5.878442e-07
6.151007e-07
5.874626e-07
3.908854e-07
-0.001208279
0.001208203
3.652973e-12
-1.441769e-06
3.6836e-07
3.905487e-07
3.679687e-07
1.427746e-07
-0.001207928
0.001207355
3.856666e-12
4.797992e-08
1.199705e-07
1.424467e-07
1.195136e-07
-1.189425e-07
-0.001206518
0.00120534
1.505262e-12
1.677332e-06
-1.299867e-07
-1.192704e-07
-1.306016e-07
-4.091574e-07
-0.001203807
0.001201878
-7.202229e-12
3.590702e-06
-4.211774e-07
-4.093169e-07
-4.215256e-07
-9.095071e-07
-0.001199778
0.001197467
-7.212634e-12
5.995182e-06
-9.351309e-07
-9.068426e-07
-9.332015e-07
-1.777429e-06
-0.001195099
0.001192427
-5.553999e-11
9.828112e-06
-1.808244e-06
-1.76976e-06
-1.801097e-06
-3.201127e-06
-0.001188959
0.001186232
-6.045545e-11
1.536266e-05
-3.121119e-06
-3.195606e-06
-3.117494e-06
-3.737764e-06
-0.001185757
0.001183509
2.249183e-11
1.725285e-05
-3.754151e-06
-3.746444e-06
-3.766469e-06
-3.085869e-06
-0.001180274
0.001176262
7.463345e-11
1.617219e-05
-2.986207e-06
-3.095138e-06
-2.993418e-06
-1.870926e-06
-0.001171602
0.001165914
5.835943e-11
1.285103e-05
-1.710336e-06
-1.871855e-06
-1.709359e-06
-1.075283e-06
-0.001159394
0.001152358
1.39285e-11
1.127193e-05
-1.048541e-06
-1.069843e-06
-1.042332e-06
-1.180753e-06
-0.001145113
0.001137796
-3.104604e-11
1.22254e-05
-1.278857e-06
-1.174611e-06
-1.27342e-06
-1.68253e-06
-0.001130406
0.001122767
-4.553709e-11
1.452311e-05
-1.760072e-06
-1.681294e-06
-1.760227e-06
-1.986402e-06
-0.001114708
0.001106032
-4.909961e-11
1.666173e-05
-2.006778e-06
-1.986676e-06
-2.006168e-06
-2.091871e-06
-0.00109669
0.001086598
-7.281752e-11
1.846643e-05
-2.09579e-06
-2.091108e-06
-2.095154e-06
-2.137773e-06
-0.001075806
0.001064255
-1.290268e-10
2.010678e-05
-2.140069e-06
-2.137486e-06
-2.139936e-06
-2.167913e-06
-0.00105208
0.001039247
-1.826019e-10
2.150213e-05
-2.166479e-06
-2.167785e-06
-2.166099e-06
-2.111794e-06
-0.00102598
0.001012313
-1.770861e-10
2.20771e-05
-2.094383e-06
-2.110507e-06
-2.09281e-06
-1.953773e-06
-0.0009985923
0.0009849864
-6.39672e-11
2.137592e-05
-1.933127e-06
-1.951824e-06
-1.931251e-06
-1.721603e-06
-0.0009718539
0.0009593754
7.978566e-11
1.929396e-05
-1.687843e-06
-1.71984e-06
-1.686309e-06
-1.388243e-06
-0.0009477563
0.0009371078
1.757403e-10
1.609134e-05
-1.334735e-06
-1.386583e-06
-1.33339e-06
-9.74299e-07
-0.000927461
0.0009188624
2.111512e-10