/*--------------------------------*- C++ -*----------------------------------*\
| =========                 |                                                 |
| \\      /  F ield         | foam-extend: Open Source CFD                    |
|  \\    /   O peration     | Version:     3.1                                |
|   \\  /    A nd           | Web:         http://www.extend-project.de       |
|    \\/     M anipulation  |                                                 |
\*---------------------------------------------------------------------------*/
FoamFile
{
    version     2.0;
    format      ascii;
    class       volScalarField;
    location    "15.5";
    object      alpha1;
}
// * * * * * * * * * * * * * * * * * * * * * * * * * * * * * * * * * * * * * //

dimensions      [0 0 0 0 0 0 0];

internalField   nonuniform List<scalar> 
119952
(
1
1
1
1
1
1
1
1
1
1
1
1
1
1
1
1
1
1
1
1
1
1
1
1
1
1
1
1
1
1
1
1
0.9999999
1
0.9999999
1
0.9999999
0.9999999
1
0.9999999
1
1
0.9999999
1
0.9999998
1
1
1
1
1
1
1
1
1
1
1
1
1
1
1
1
1
1
1
1
1
1
1
1
1
1
1
1
1
1
1
1
1
1
1
1
1
1
1
1
0.9999999
0.9999994
0.9999999
1
1
1
1
0.9999999
1
1
0.9999998
1
1
1
1
1
1
1
1
1
1
1
1
1
1
1
1
1
1
1
1
0.9999999
1
1
1
0.9999998
0.9999996
1
1
1
1
1
1
1
1
1
1
1
1
1
1
1
1
1
1
1
1
1
1
1
1
1
1
1
1
1
1
1
1
1
1
1
1
1
1
1
1
1
1
1
1
1
1
1
0.9999997
0.9999998
1
1
1
1
1
1
1
1
1
1
1
1
1
1
1
1
1
1
1
1
1
1
1
1
1
1
1
1
1
1
1
1
1
1
1
1
1
1
1
1
1
1
1
1
1
1
1
1
1
1
1
1
1
1
1
1
1
1
1
1
1
1
1
1.000001
1.000001
1.000001
1.000001
1.000001
1.000001
1
1
1
1
1
1
1
1
0.9999992
1
0.9999954
0.9999913
0.9999982
1
1
0.9999238
1
1
0.9999999
0.9999909
0.9999662
0.9999941
0.9999971
0.9999974
1
0.9999975
0.9999984
0.9999993
0.9999857
0.9999966
0.9999938
0.9999763
0.9999962
0.9999975
0.9999976
0.9999991
0.9999997
0.9999999
1
1
1
1
1
1
1
1
1
1
1
1
1
1
1
1
1
1
1
1
1
1
1
1
1
1
1
1
1
1
1
1
1
1
1
0.9999962
0.9998806
0.9999863
1
1
1
0.9999933
0.9999099
0.9999917
0.9999999
0.9999941
0.999974
0.999988
0.9999998
0.9999998
0.9999999
1
1
1
1
1
1
1
1
0.9999947
0.999933
0.9999902
1
0.9999994
0.9999666
0.9999598
0.9999995
0.9999987
0.9999872
0.9999897
0.9999993
0.9999999
1
1
1
1
1
0.9999995
0.999717
0.9985407
0.9998876
0.9999976
0.9995198
0.9982726
0.9991931
0.9999131
0.9999754
0.9999999
1
1
1
1
1
1
1
1
1
1
1
1
1
0.9999999
0.9999993
0.9999999
0.9999998
0.9999946
0.999612
0.9998617
0.9999988
0.9999999
0.9999638
0.9995504
0.9999295
0.9999833
0.9999931
0.9999999
1
1
1
1
1
0.9999941
0.9997991
0.9999654
1
1
1
1
1
1
1
1
1
1
1
1
1
1
1
1
1
1
1
0.9999998
1
0.9999998
0.9999999
0.9999999
1
1
0.9999999
1
1
0.9999998
1
1
1
0.9999999
1
1
1
1
1
1
1
0.9999999
1
1
1
1
1
1
1
1
1
1
1
1
1
1
1
1
1
1
0.9999999
0.9999994
0.9999984
0.9999973
0.9999971
0.999998
0.9999995
1
1
1
1
1
1
1
1
1
1
1
0.9999998
0.9999992
0.9999981
0.9999982
0.9999993
0.9999999
1
1
1
1
1
1
0.9999998
0.999999
0.999995
0.9999743
0.9999457
0.9999566
0.9999863
0.9999988
1
1
1
1
1
1
1
1
1
0.9999999
0.9999996
0.9999986
0.9999985
0.9999993
0.9999999
1
1
1
0.9999999
0.9999997
0.9999995
0.9999989
0.9999976
0.999997
0.9999982
0.9999994
0.9999994
0.9999987
0.9999929
0.9999452
0.999742
0.9997165
0.9998557
0.9999783
0.999999
0.9999996
0.9999993
0.9999971
0.9999959
0.999997
0.9999993
0.9999998
0.9999997
0.9999985
0.9999924
0.9999881
0.9999913
0.9999977
0.9999998
1
1
1
1
1
1
1
1
1
1
1
1
1
1
1
1
1
1
1
1
1
1
1
1
0.9999999
0.9999988
0.9999947
0.9999943
0.9999967
0.9999994
1
1
1
1
1
1
0.9999997
0.9999932
0.9999711
0.9999703
0.9999855
0.9999978
0.9999999
1
1
1
1
1
1
1
1
1
1
1
1
1
1
1
1
1
1
1
1
1
1
1
1
1
1
0.9999991
0.9999972
0.9999982
1
1
1
1
1
1
1
1
0.9999995
1
1
1
1
1
1
1
1
1
1
1
1
0.9999999
0.9999655
0.9999216
0.9999964
1
1
1
1
0.9999999
0.9999973
0.9999996
1
1
1
1
1
1
1
1
1
1
1
1
1
0.9999987
0.9999994
1
0.9999998
0.9999735
0.9999681
0.9999965
0.9999795
0.999993
1
1
1
1
1
0.999998
0.9999839
0.999976
0.9999821
0.9999948
0.9999978
0.999993
0.9999429
0.9998769
0.9998769
0.9999136
0.9999816
0.9999991
1
1
1
1
1
1
1
0.9999999
0.9999994
0.9999992
0.9999993
0.9999998
1
1
1
1
1
1
1
1
1
1
1
1
1
1
1
1
1
1
1
1
0.9999995
0.9999971
0.9999891
0.9999864
0.9999936
0.999999
1
1
1
1
0.9999993
0.9999912
0.9998933
0.9997937
0.9997937
0.9998452
0.9999644
0.9999981
1
1
1
1
1
1
1
1
1
1
1
1
1
0.9999999
0.9999982
0.9999759
0.9998661
0.9998415
0.9998415
0.9998415
0.9998982
0.9999712
0.9999947
0.9999992
0.9999999
1
1
0.9999999
0.9999976
0.9999567
0.9993587
0.9982742
0.9984439
0.9993446
0.9999099
0.9999971
1
1
1
1
1
1
1
1
1
1
1
1
1
1
1
0.9999998
0.9999977
0.999962
0.9993977
0.9972389
0.9974426
0.9989043
0.9998181
0.9999731
0.999975
0.999975
0.99998
0.9999938
0.9999995
1
1
0.9999999
0.9999998
0.9999997
0.9999996
0.9999979
0.9999769
0.9999017
0.9999023
0.9999671
1
1
1
1
0.9999999
1
1
0.9999999
0.9999999
0.9999999
1
0.9999999
0.9999999
0.9999999
1
1
0.9999999
1
1
1
0.9999999
1
1
0.9999999
1
1
1
1
1
1
1
1
1
1
1
1
1
1
1
1
1
1
1
1
1
1
1
1
1
1
1
1
1
1
1
1
1
1
1
1
1
1
1
1
1
1
1
1
1
1
1
1
1
1
1
1
1
1
1
1
1
1
1
1
0.9999998
0.9999991
0.999997
0.9999972
0.9999986
0.9999995
0.9999994
0.9999989
0.9999959
0.9999866
0.9999777
0.9999581
0.9999515
0.9999669
0.9999877
0.9999978
0.9999998
1
1
1
1
1
1
1
1
0.9999999
0.9999996
0.9999972
0.9999875
0.9999789
0.9999879
0.9999976
0.9999999
1
1
1
1
0.9999998
0.9999989
0.999994
0.9999626
0.9997696
0.9994651
0.9996317
0.9999003
0.9999918
0.9999998
1
1
1
1
1
1
1
1
0.9999999
0.9999994
0.9999942
0.9999891
0.9999939
0.9999987
0.9999994
0.9999992
0.9999976
0.9999882
0.9999365
0.9996382
0.9986568
0.9984813
0.9991123
0.9998496
0.9999931
0.9999976
0.9999944
0.9999541
0.9994311
0.9986058
0.9989295
0.999655
0.9999507
0.9999728
0.9999694
0.9999313
0.9999217
0.9999511
0.9999901
0.9999992
0.9999994
0.9999993
0.9999968
0.9999726
0.9999372
0.999954
0.9999862
0.9999988
1
1
1
1
1
1
1
1
1
1
1
1
1
1
1
0.9999999
0.9999995
0.9999976
0.9999868
0.9999438
0.9999358
0.999965
0.9999948
0.9999998
1
1
0.9999998
0.9999965
0.9999942
0.9999957
0.999999
0.9999995
0.9999994
0.9999971
0.9999687
0.9998855
0.9998825
0.9999448
0.9999908
0.9999988
0.9999976
0.9999944
0.9999944
0.9999974
0.9999997
1
1
1
1
1
1
1
1
1
1
1
1
1
1
1
1
1
0.9999997
0.9999985
0.9999904
0.9999764
0.9999767
0.99999
0.9999985
0.9999999
0.9999999
0.9999996
0.9999994
0.9999994
0.9999991
0.999997
0.999996
0.9999969
0.9999991
0.9999999
0.9999999
0.9999999
0.9999997
0.9999993
0.9999977
0.9999877
0.9999074
0.9998485
0.9998726
0.9999597
0.9999965
0.9999999
0.9999997
0.9999947
0.9999416
0.9999052
0.9999157
0.9999666
0.9999944
0.9999997
1
1
1
0.9999996
0.9999977
0.9999979
0.9999993
0.9999999
1
1
1
1
1
1
1
1
1
1
1
1
1
1
0.9999999
0.9999984
0.9999923
0.9999923
0.9999969
0.9999994
1
1
1
1
1
1
0.9999999
0.9999998
0.9999998
0.9999998
0.9999998
0.9999995
0.9999981
0.9999953
0.9999893
0.9999814
0.9999846
0.9999951
0.9999995
1
1
1
1
1
1
1
0.9999997
0.9999992
0.9999993
0.9999997
1
1
1
1
1
1
1
1
1
1
1
1
1
1
1
1
1
1
1
1
1
1
1
1
1
1
1
1
1
1
0.9999999
0.9999973
0.9999638
0.9998415
0.9998632
0.99995
0.9999942
0.9999998
1
1
1
1
1
1
1
1
1
1
1
1
1
1
0.9999999
0.9999997
0.9999992
0.9999968
0.999974
0.9998544
0.9998273
0.9998273
0.999854
0.999957
0.9999968
1
1
0.9999999
0.9999995
0.999998
0.9999944
0.9999847
0.9999595
0.9999253
0.9999324
0.9999767
0.9999977
0.9999999
1
0.9999998
0.9999996
0.9999996
0.9999997
0.9999999
1
1
1
1
1
1
1
0.9999998
0.9999972
0.9999547
0.9993587
0.9972638
0.9970727
0.9970727
0.9978598
0.9994042
0.9999394
0.9999978
0.9999999
1
1
1
1
1
1
0.9999999
0.9999983
0.9999627
0.9998815
0.9998808
0.999932
0.9999904
1
1
1
1
1
1
1
1
1
1
1
0.9999999
1
1
1
0.9999999
0.9999999
1
0.9999999
0.9999999
1
1
0.9999999
0.9999999
1
1
1
1
1
1
1
1
1
1
1
1
1
1
1
1
1
1
1
1
1
1
1
1
1
1
1
1
1
1
1
1
1
1
1
1
1
1
1
1
1
1
1
1
1
1
1
1
1
1
1
1
1
1
1
1
0.9999998
0.9999995
0.999999
0.9999986
0.9999986
0.9999986
0.9999988
0.9999995
0.9999999
1
1
1
1
1
0.9999996
0.999996
0.9999753
0.9999412
0.9999468
0.9999784
0.9999946
0.9999911
0.9999686
0.9999286
0.9998934
0.9997637
0.9997697
0.9998575
0.9999138
0.9999165
0.9999216
0.9999371
0.999964
0.9999906
0.9999994
1
1
1
1
1
0.9999996
0.9999967
0.9999753
0.9998921
0.9998896
0.999958
0.9999949
0.9999998
1
1
0.9999999
0.9999995
0.9999975
0.9999861
0.9999056
0.9992576
0.9968731
0.9971572
0.9990592
0.9998982
0.9999968
1
1
1
1
1
0.9999999
0.9999996
0.9999993
0.999999
0.9999985
0.9999934
0.999985
0.999985
0.999988
0.9999922
0.9999908
0.9999784
0.9998927
0.9990844
0.9902845
0.981581
0.9839316
0.9943597
0.9993855
0.9999568
0.9999586
0.9999487
0.9998241
0.9984698
0.9972033
0.9979213
0.9993442
0.9997636
0.9997658
0.9994443
0.9992673
0.99945
0.9998513
0.999984
0.9999979
0.9999987
0.9999987
0.999997
0.9999757
0.9998841
0.9998665
0.9999172
0.9999831
0.9999989
1
1
1
1
1
1
1
1
0.9999999
0.9999998
0.9999995
0.9999991
0.999999
0.999999
0.999999
0.999998
0.9999912
0.9999317
0.9995572
0.9994364
0.9996774
0.9999446
0.9999974
0.9999999
1
1
1
0.9999999
0.9999995
0.9999988
0.9999983
0.9999967
0.9999768
0.9998126
0.9997342
0.9997902
0.999938
0.9999908
0.9999982
0.9999997
0.9999999
0.9999999
0.9999998
0.9999997
0.9999997
0.9999998
1
1
1
1
1
1
1
1
1
1
1
1
1
0.9999999
0.9999996
0.9999976
0.9999793
0.9998974
0.9998796
0.9999191
0.9999827
0.9999987
0.9999994
0.9999993
0.9999989
0.9999961
0.9999772
0.9999384
0.9999378
0.999972
0.9999954
0.9999996
0.9999996
0.9999995
0.999999
0.9999963
0.9999778
0.9997817
0.9990357
0.9989627
0.9994166
0.999894
0.9999901
0.9999958
0.9999978
0.9999994
0.9999999
0.9999997
0.9999962
0.9999479
0.9999052
0.9999418
0.999988
0.9999994
0.9999999
0.9999998
0.9999992
0.9999987
0.999999
0.9999997
0.9999999
1
1
1
1
1
1
1
1
1
1
1
1
1
1
1
1
1
1
0.9999997
0.9999996
0.9999994
0.9999979
0.9999972
0.9999972
0.9999972
0.999998
0.9999995
1
1
1
1
1
1
1
1
1
0.9999999
0.9999998
0.9999998
0.9999998
0.9999998
0.9999999
1
1
1
1
1
1
0.9999999
0.9999998
0.9999999
0.9999999
1
1
1
1
1
1
1
1
1
1
1
1
1
1
1
1
1
1
1
1
1
1
1
1
1
1
1
1
1
1
1
0.9999999
0.9999998
0.9999991
0.9999968
0.9999931
0.9999938
0.999998
0.9999998
1
1
1
1
1
1
1
1
1
1
1
1
1
1
1
1
0.9999996
0.999996
0.9999741
0.9999347
0.9999405
0.9999705
0.9999942
0.9999997
1
1
1
1
1
1
1
1
0.9999999
0.9999998
0.9999998
0.9999999
0.9999999
0.9999999
0.9999987
0.9999943
0.9999948
0.9999979
0.9999997
1
1
1
1
1
1
1
0.9999999
0.9999994
0.9999965
0.9999803
0.9998388
0.9985175
0.9970727
0.9970727
0.9970727
0.9988202
0.9998565
0.9999964
1
1
1
1
1
1
1
0.9999997
0.9999946
0.9999421
0.9998991
0.9999472
0.9999927
1
0.9999999
1
0.9999999
1
0.9999999
1
1
0.9999999
1
1
1
1
1
1
1
1
1
1
0.9999999
0.9999999
0.9999999
0.9999999
0.9999999
0.9999999
1
1
1
0.9999999
0.9999999
0.9999999
0.9999999
1
1
1
1
1
1
1
1
1
1
1
1
1
1
1
1
1
1
1
1
1
1
1
1
1
1
1
1
1
1
1
1
1
1
1
1
1
1
1
1
1
1
1
1
1
1
1
1
1
1
1
1
1
1
1
0.9999999
0.9999996
0.9999975
0.9999886
0.9999604
0.9998774
0.9996162
0.9992103
0.9993514
0.9998159
0.9999863
0.9999998
1
1
1
1
0.9999997
0.9999958
0.9999504
0.99974
0.9994753
0.9996275
0.9998973
0.9999848
0.9999753
0.9999086
0.9995888
0.9990756
0.9993649
0.9997259
0.9997059
0.9993296
0.9978451
0.9951572
0.9945773
0.9972672
0.9995565
0.999982
0.9999999
1
1
1
0.9999999
0.9999987
0.9999838
0.9998291
0.9995474
0.9996876
0.9999108
0.9999925
0.9999991
0.999999
0.9999984
0.9999957
0.9999867
0.9999553
0.9997875
0.9982452
0.9903013
0.9884037
0.9919761
0.9981865
0.9998754
0.999998
1
1
1
1
0.9999998
0.999999
0.9999941
0.9999554
0.9998971
0.9999118
0.999962
0.9999871
0.9999875
0.9999875
0.9999871
0.9999624
0.9996458
0.9948922
0.9668867
0.9599117
0.9742497
0.9947749
0.9991954
0.9996435
0.9997938
0.9995844
0.9936591
0.9876981
0.9904886
0.997178
0.9988564
0.9988562
0.9975743
0.996489
0.9971308
0.9990512
0.9998378
0.999954
0.9999869
0.9999972
0.9999974
0.9999952
0.9999642
0.9997679
0.999711
0.9998026
0.9999513
0.999994
0.9999983
0.9999991
0.9999997
1
1
1
1
0.9999998
0.9999993
0.9999968
0.9999855
0.9999259
0.9996453
0.9994444
0.9996768
0.999937
0.9999939
0.9999627
0.9992923
0.998428
0.9985864
0.9994192
0.9998866
0.9999907
0.9999997
1
1
0.9999999
0.9999998
0.9999993
0.9999964
0.9999623
0.9996062
0.9994131
0.9995284
0.9998573
0.9999743
0.9999909
0.9999976
0.9999998
1
1
1
1
1
1
1
1
1
1
0.9999999
0.9999999
1
1
1
1
1
1
0.9999999
0.9999996
0.9999974
0.999983
0.9998799
0.9996671
0.9997146
0.9998938
0.999984
0.9999962
0.9999962
0.9999945
0.9999826
0.9999043
0.9996103
0.9995294
0.9996812
0.9999312
0.9999951
0.9999978
0.9999977
0.9999971
0.9999928
0.9999624
0.9996162
0.9975694
0.9970444
0.9978887
0.999486
0.9999276
0.9999786
0.9999943
0.9999993
0.9999998
0.9999998
0.9999997
0.9999968
0.999975
0.999959
0.9999798
0.9999922
0.9999981
0.9999997
0.9999994
0.9999948
0.9999913
0.9999913
0.9999932
0.9999983
0.9999999
1
1
1
1
1
1
1
1
0.9999999
0.9999994
0.999998
0.999998
0.9999991
0.9999999
1
1
1
1
0.9999999
0.9999991
0.9999961
0.9999956
0.9999979
0.9999996
0.9999996
0.999999
0.9999982
0.9999982
0.9999989
0.9999998
1
1
1
1
1
1
1
1
0.9999998
0.9999998
0.9999998
0.9999999
1
1
1
1
1
1
1
1
0.9999998
0.9999989
0.9999989
0.9999994
0.9999999
1
1
1
1
1
1
1
1
1
1
1
1
1
1
1
1
1
1
1
1
1
1
1
1
1
1
1
1
1
1
1
1
1
1
1
1
1
1
1
1
1
1
1
1
1
1
1
1
1
1
1
1
1
1
1
0.9999999
0.9999997
0.9999992
0.9999985
0.9999984
0.9999992
0.9999999
1
1
1
1
1
1
1
1
1
1
1
1
0.9999999
0.9999982
0.999992
0.9999916
0.9999934
0.9999984
0.9999999
1
1
1
1
1
1
1
1
0.9999998
0.9999971
0.9999555
0.9995693
0.9986066
0.9987319
0.9994174
0.999895
0.9999948
1
1
1
0.9999999
0.9999999
0.9999999
0.9999999
1
0.9999998
0.9999984
0.999995
0.9999942
0.9999962
0.9999958
1
1
1
1
1
1
0.9999999
0.9999999
1
1
1
1
1
1
1
1
1
1
1
1
1
1
1
1
0.9999999
0.9999999
0.9999999
0.9999999
0.9999999
1
1
1
1
1
1
1
1
1
1
1
1
1
1
1
1
1
1
1
1
1
1
1
1
1
1
1
1
1
1
1
1
1
1
1
1
1
0.9999999
0.9999997
0.9999997
0.9999996
0.9999995
0.9999988
0.9999977
0.9999977
0.9999981
0.9999987
0.9999993
0.9999998
0.9999999
0.9999999
0.9999999
0.9999999
0.9999999
0.9999999
0.9999999
0.9999999
1
0.9999999
0.9999999
0.9999997
0.9999995
0.9999994
0.9999993
0.999999
0.9999986
0.9999981
0.9999969
0.9999915
0.9999688
0.9998732
0.9993112
0.9951502
0.9814113
0.9838448
0.9951246
0.9995815
0.9999912
0.9999999
1
1
1
0.9999998
0.9999978
0.9999715
0.9997598
0.998658
0.9977791
0.9986456
0.9996699
0.9999348
0.9999102
0.9997152
0.9987623
0.9982911
0.9988321
0.9989725
0.9981186
0.9927369
0.9667425
0.9331946
0.9567528
0.9889682
0.9991735
0.9999818
0.9999936
0.9999936
0.9999935
0.9999938
0.9999937
0.9999886
0.9999135
0.9993196
0.9990548
0.999357
0.9998517
0.9999678
0.9999685
0.9999544
0.9999118
0.9998599
0.9997533
0.9986298
0.9819526
0.9666565
0.9709908
0.9897796
0.9984062
0.9996886
0.9999498
0.9999969
0.9999992
0.9999991
0.9999987
0.9999985
0.9999983
0.9999908
0.9998863
0.9997989
0.9998508
0.9998977
0.9998951
0.9998664
0.9998546
0.9998705
0.9999173
0.9999039
0.9989688
0.9848984
0.9504015
0.9533133
0.9768367
0.9944093
0.9950596
0.9657848
0.9436595
0.9533736
0.9860586
0.9980064
0.998152
0.9978422
0.9952535
0.9870048
0.9871429
0.9944154
0.9987352
0.9996837
0.9999173
0.9999863
0.9999895
0.9999895
0.9999819
0.9998506
0.9994107
0.9994014
0.9997217
0.9999351
0.9999886
0.9999989
0.9999998
0.9999998
0.9999997
0.9999998
0.9999998
0.9999998
0.9999997
0.999999
0.9999948
0.9999622
0.9995836
0.9968437
0.9956998
0.996705
0.999151
0.9999342
0.9999621
0.9999366
0.9998251
0.9997136
0.9997123
0.9997024
0.9983205
0.9973251
0.9976927
0.9992289
0.9999074
0.9999558
0.9999431
0.9997463
0.9988621
0.9987474
0.9992688
0.9998418
0.9999457
0.9999631
0.9999839
0.9999972
0.9999999
1
1
0.9999999
0.9999997
0.9999986
0.999996
0.9999955
0.9999976
0.9999996
1
1
1
0.9999999
0.9999999
0.9999999
1
1
1
0.9999999
0.9999992
0.9999942
0.9999558
0.9996352
0.9986049
0.9986705
0.9995035
0.9999314
0.9999965
0.999998
0.9999957
0.9999725
0.9997437
0.9982055
0.9974096
0.9987787
0.9998105
0.9999886
0.9999944
0.9999938
0.9999892
0.9999552
0.999574
0.9961111
0.9941388
0.9951676
0.9984536
0.9997217
0.9998935
0.9999549
0.9999887
0.9999989
0.9999998
0.9999998
0.9999998
0.9999997
0.9999971
0.9999634
0.9998986
0.9999447
0.9999886
0.9999993
1
1
0.9999998
0.9999983
0.9999941
0.999995
0.999998
0.9999997
1
1
1
1
1
0.9999997
0.9999986
0.9999921
0.999962
0.9999488
0.9999656
0.9999923
0.9999994
0.9999999
0.9999999
0.9999999
0.9999999
0.9999994
0.9999962
0.9999774
0.9999676
0.9999788
0.9999953
0.9999997
1
1
0.9999999
0.9999998
0.9999997
0.9999994
0.9999991
0.9999991
0.9999993
0.9999997
1
1
1
1
1
0.9999999
0.9999979
0.9999964
0.9999967
0.9999986
0.9999996
0.9999996
0.9999996
0.9999997
0.9999999
1
1
0.9999999
0.9999987
0.9999973
0.9999978
0.9999992
0.9999999
1
1
1
1
1
1
1
1
1
1
1
1
1
1
1
1
1
1
1
1
1
1
1
1
1
1
1
1
1
1
1
1
1
1
1
1
1
1
1
1
1
1
1
1
1
1
1
1
1
1
1
1
1
1
1
1
1
1
1
1
1
1
1
1
1
1
1
1
1
1
1
1
1
1
0.9999996
0.9999959
0.9999916
0.9999945
0.9999987
0.9999999
1
1
1
1
1
1
1
1
0.9999999
0.9999993
0.9999973
0.9999919
0.9999784
0.9999529
0.9999391
0.9999519
0.9999863
0.9999985
0.9999987
0.9999977
0.9999952
0.9999946
0.9999966
0.9999993
0.9999999
0.9999999
0.9999999
0.9999999
0.9999999
0.9999999
0.9999961
1
1
1
1
1
0.9999999
1
1
0.9999999
1
1
1
1
1
1
1
1
1
1
1
1
1
1
1
0.9999999
0.9999999
0.9999999
0.9999999
0.9999999
1
1
1
1
1
1
1
1
1
1
1
1
1
1
1
1
1
1
1
1
1
1
1
1
1
1
1
1
1
1
1
0.9999999
0.9999998
0.9999998
0.9999996
0.9999989
0.9999964
0.9999913
0.9999877
0.9999877
0.999987
0.9999754
0.9999219
0.9998391
0.999817
0.9998089
0.9997257
0.9991989
0.9983818
0.9983983
0.9986177
0.999047
0.9995824
0.9999123
0.9999659
0.999965
0.9999592
0.9999464
0.9999391
0.9999408
0.9999531
0.9999718
0.9999765
0.9999748
0.9999686
0.999936
0.9998356
0.9998274
0.9998509
0.9998592
0.9998469
0.9998099
0.999702
0.9994342
0.9982552
0.9881516
0.9357958
0.9219425
0.9464133
0.9886398
0.9993137
0.9999898
0.9999986
0.9999985
0.999998
0.9999966
0.9999929
0.9999614
0.9997343
0.9987755
0.9958325
0.9954961
0.9973545
0.9994334
0.999318
0.9989078
0.998199
0.9969968
0.9966456
0.9964229
0.9943585
0.9839392
0.9370197
0.7403455
0.735166
0.9010944
0.9874033
0.9984935
0.9990597
0.9992678
0.9993058
0.9992254
0.9991034
0.9994729
0.9997096
0.9992323
0.9970903
0.997473
0.999103
0.9995723
0.9991241
0.9981971
0.9983983
0.9991182
0.9980284
0.9728268
0.949599
0.9525704
0.9806621
0.9950656
0.9975968
0.9991904
0.9998456
0.9999066
0.9999399
0.9999516
0.9999315
0.9996742
0.9991237
0.9992029
0.9996808
0.9999152
0.9999043
0.9998807
0.9998415
0.9996447
0.9992992
0.999327
0.9992744
0.9982056
0.9952682
0.9946966
0.9955223
0.9854493
0.8661441
0.8240219
0.8240219
0.8431801
0.9533675
0.9938108
0.9929459
0.991362
0.9946301
0.998152
0.9972793
0.9858305
0.9777371
0.9820709
0.9938937
0.9990993
0.9999362
0.9999636
0.9999636
0.999962
0.9999026
0.9993728
0.9988516
0.9990658
0.9996563
0.9999125
0.9999759
0.9999946
0.999999
0.9999998
0.9999998
0.9999998
0.9999998
0.9999997
0.9999993
0.9999963
0.9999806
0.9998957
0.9993302
0.9958259
0.9928956
0.9958703
0.9989826
0.9997399
0.9997399
0.9997519
0.9994889
0.9938668
0.9876457
0.9891115
0.9961038
0.9995667
0.9998261
0.9998099
0.9996516
0.9994968
0.99836
0.9948243
0.9945693
0.997245
0.9995036
0.9999105
0.9999623
0.9999903
0.9999989
0.9999999
0.9999999
1
1
0.9999998
0.9999978
0.9999766
0.9999245
0.9999355
0.9999625
0.9999865
0.9999975
0.9999996
0.9999996
0.9999994
0.9999978
0.9999869
0.9999006
0.999382
0.9991455
0.9994323
0.9998856
0.9999869
0.9999653
0.9996318
0.9967188
0.9955075
0.9969236
0.9993215
0.9999571
0.9999976
0.9999982
0.9999976
0.9999638
0.9991791
0.9953047
0.9947605
0.9966222
0.9993457
0.999964
0.9999773
0.9999536
0.9996752
0.9957723
0.9908053
0.9914334
0.9963241
0.999203
0.9998152
0.9999664
0.9999889
0.9999832
0.9999599
0.9999755
0.9999941
0.9999996
0.9999998
0.9999994
0.999991
0.9999094
0.9998516
0.9998791
0.9999605
0.9999961
0.9999999
1
1
1
0.9999998
0.9999996
0.9999997
0.9999998
0.9999999
0.9999999
0.9999998
0.9999992
0.9999962
0.9999786
0.9998681
0.999574
0.9995893
0.9998385
0.9999741
0.9999973
0.9999995
0.9999996
0.9999996
0.999999
0.9999948
0.9999609
0.9998222
0.9998132
0.9999124
0.9999833
0.9999975
0.9999997
1
1
1
1
1
1
1
0.9999999
0.9999997
0.9999991
0.9999991
0.9999992
0.9999997
1
1
1
1
0.9999999
0.9999998
0.9999994
0.9999968
0.9999963
0.9999963
0.9999963
0.999997
0.9999991
0.9999999
1
1
0.9999998
0.9999982
0.9999973
0.9999976
0.9999991
0.9999999
1
1
1
1
1
1
1
1
1
1
1
1
1
1
1
1
1
1
1
1
1
1
1
1
1
1
1
1
1
1
1
1
1
1
1
1
1
1
1
1
1
1
1
1
1
1
1
1
1
1
1
1
1
1
1
1
1
1
1
1
1
1
1
1
1
1
1
1
1
1
1
1
1
1
0.9999998
0.9999994
0.9999988
0.999999
0.9999997
1
1
1
1
1
1
1
1
1
1
1
0.9999999
0.9999997
0.9999993
0.9999968
0.9999906
0.999983
0.99997
0.9999427
0.9999169
0.9999249
0.9999696
0.9999965
0.9999998
0.9999997
0.9999986
0.9999986
0.9999994
0.9999999
0.9999999
0.9999961
1
1
1
0.9999999
0.9999999
0.9999999
1
1
1
1
1
1
1
1
1
1
1
1
1
1
0.9999999
0.9999999
0.9999999
0.9999999
0.9999999
0.9999999
0.9999999
1
1
1
1
1
1
1
1
1
1
1
1
1
1
1
1
1
1
1
1
1
1
1
1
1
1
1
1
1
0.9999998
0.999999
0.9999949
0.9999789
0.9999356
0.9998868
0.9998664
0.9998232
0.999622
0.9989703
0.9982052
0.9981569
0.9982368
0.9980422
0.9963203
0.9908237
0.9853302
0.985368
0.9851467
0.9755247
0.9487571
0.9068521
0.9016544
0.9271968
0.9762989
0.9971654
0.9983813
0.9980876
0.9964401
0.9918174
0.9923678
0.9967002
0.9989627
0.9991312
0.999033
0.9986086
0.9984292
0.9987358
0.9988065
0.9970112
0.9924207
0.9925396
0.9941946
0.9952408
0.9951798
0.9929915
0.9534994
0.8000366
0.7923394
0.9126653
0.9857449
0.997565
0.9996473
0.9998347
0.9997793
0.9988638
0.9978097
0.9984498
0.9996207
0.9996183
0.997247
0.9894552
0.9892887
0.9952378
0.9984124
0.9983211
0.9980077
0.9928333
0.9835325
0.9853309
0.9885309
0.9838339
0.960264
0.8719813
0.5475511
0.4741109
0.4958743
0.7896323
0.8902793
0.892336
0.9124185
0.95565
0.9780262
0.9749695
0.981942
0.9944384
0.9993509
0.9996979
0.9993063
0.9965669
0.995209
0.9957985
0.9978128
0.9975968
0.9792532
0.9614304
0.9624944
0.9843528
0.9953769
0.9940975
0.9945068
0.9978452
0.998845
0.9965974
0.991909
0.9930892
0.9974912
0.9997578
0.9990775
0.9976888
0.9979511
0.9992663
0.9996856
0.9996489
0.9993406
0.9979059
0.9947018
0.9940556
0.9951016
0.9949144
0.9943021
0.9941992
0.9900215
0.9290203
0.7833065
0.8221221
0.9467874
0.9902103
0.9940912
0.9956507
0.9973029
0.9989136
0.9996593
0.9997461
0.9997475
0.9993567
0.9957387
0.9706547
0.9693115
0.9871575
0.9972165
0.9997005
0.99995
0.9999502
0.9999038
0.999467
0.9970341
0.9960864
0.9976019
0.9994751
0.9999102
0.9999858
0.9999981
0.9999992
0.9999994
0.9999997
0.9999998
0.9999996
0.9999941
0.9999612
0.9999132
0.9999046
0.9998742
0.9985323
0.9765673
0.9603324
0.9672347
0.9902871
0.9988838
0.9990136
0.9968001
0.980201
0.9737545
0.9809026
0.99525
0.9987761
0.9987073
0.9989431
0.9996565
0.9998261
0.9996197
0.9968296
0.9858272
0.9842618
0.991096
0.998308
0.9998461
0.9999923
0.9999965
0.9999956
0.9999851
0.9999562
0.9999637
0.9999883
0.9999986
0.9999985
0.9999948
0.9999844
0.9999675
0.9999353
0.9997218
0.9985874
0.9983148
0.9988902
0.9997709
0.999983
0.999976
0.9998597
0.9987875
0.9966897
0.9974085
0.9991515
0.9998967
0.9999313
0.9998577
0.9988093
0.9943902
0.9937884
0.9958169
0.9991088
0.9997019
0.9994693
0.9989557
0.9992959
0.9998883
0.9998825
0.99925
0.9961424
0.9965692
0.9988589
0.9997213
0.9996158
0.9971826
0.987631
0.9867294
0.9918794
0.9980223
0.9995536
0.9999043
0.9999837
0.9999865
0.9999709
0.9998826
0.9998653
0.999911
0.9999806
0.9999987
0.9999998
0.9999996
0.9999938
0.999911
0.9997597
0.9998745
0.9999751
0.9999983
0.9999999
1
1
0.9999999
0.9999999
0.9999997
0.9999994
0.9999993
0.9999992
0.9999988
0.9999956
0.999979
0.9998927
0.9994018
0.9977769
0.9977144
0.9990845
0.9998692
0.9999893
0.9999979
0.9999979
0.9999977
0.9999955
0.9999735
0.9997157
0.9993088
0.9994109
0.9997708
0.9999515
0.9999898
0.9999986
0.9999999
1
1
1
1
1
1
1
1
1
1
0.9999998
0.9999992
0.9999991
0.9999995
0.9999999
1
0.9999999
0.9999998
0.9999998
0.9999999
0.9999999
0.9999999
0.9999996
0.9999974
0.9999963
0.9999963
0.9999965
0.9999986
0.9999998
1
1
0.9999998
0.9999982
0.9999976
0.9999987
0.9999998
1
1
0.9999999
0.9999996
0.9999996
0.9999997
0.9999999
1
1
1
1
1
1
1
1
1
1
1
1
1
1
1
1
1
1
1
1
1
1
1
1
1
1
1
1
1
1
1
1
1
1
1
1
1
1
1
0.9999999
0.9999999
1
1
1
1
1
1
1
1
1
1
1
1
1
1
1
1
1
1
1
1
1
1
1
1
1
1
1
1
1
0.9999999
0.9999999
0.9999999
1
1
1
1
1
1
1
1
1
1
1
0.9999999
0.9999985
0.9999771
0.9998372
0.9994459
0.9989833
0.9989384
0.9991989
0.999753
0.9999801
0.9999997
1
0.9999998
0.9999987
0.9999988
0.9999996
0.9999999
0.9999999
0.9999955
1
1
1
1
1
1
1
1
1
1
1
1
1
1
1
1
1
1
1
0.9999999
1
1
0.9999999
0.9999999
1
1
1
1
1
1
1
1
1
1
1
1
1
0.9999999
0.9999999
0.9999999
0.9999999
0.9999999
0.9999999
1
1
1
1
1
1
1
1
1
1
1
1
1
1
1
1
1
1
1
1
1
1
1
1
1
1
0.9999999
0.9999994
0.9999959
0.9999772
0.9999082
0.9996829
0.998943
0.9967
0.9923482
0.9889923
0.9883366
0.9866091
0.9766348
0.9503177
0.9416684
0.949478
0.9503158
0.9337761
0.8989969
0.82959
0.759325
0.7658879
0.7738798
0.6762332
0.575026
0.575026
0.5885711
0.7883668
0.9509049
0.9621317
0.8970336
0.8411377
0.8894082
0.9656021
0.9911089
0.9905453
0.9705722
0.9680761
0.9826261
0.9900279
0.9891664
0.989502
0.9947692
0.993842
0.9588444
0.8942862
0.9142395
0.9681308
0.9505176
0.7186542
0.6648522
0.7039049
0.9124066
0.991002
0.9968884
0.9963387
0.9806835
0.9594155
0.9705439
0.9920485
0.9989423
0.998992
0.9986375
0.9927575
0.9861727
0.9934348
0.9983206
0.9976464
0.9878401
0.963846
0.9773488
0.9785907
0.9323675
0.9065554
0.9338069
0.9046817
0.4842073
0.1211769
0.2397656
0.6057817
0.616963
0.3972963
0.1267811
0.08383873
0.09758206
0.2083442
0.6449119
0.9406655
0.9949012
0.998518
0.9983907
0.9977823
0.9979197
0.9977212
0.9848106
0.9661076
0.9681297
0.9866736
0.9979118
0.99851
0.9976577
0.9974621
0.9971829
0.9917425
0.9651952
0.9606581
0.9779953
0.9957644
0.9990693
0.9993449
0.9996929
0.9997987
0.9995491
0.999022
0.9993523
0.9996141
0.999576
0.9973909
0.9678004
0.9458969
0.9641334
0.9826238
0.9860272
0.9863317
0.9847873
0.9380213
0.5611849
0.4358505
0.6700195
0.9464634
0.9975457
0.9997716
0.9997716
0.9997716
0.9997716
0.9997716
0.9997716
0.9997613
0.999165
0.9892989
0.934068
0.938734
0.9803145
0.9978046
0.9999136
0.9999524
0.9999348
0.9995782
0.9950304
0.9852452
0.988875
0.9964405
0.9995463
0.9999809
0.9999992
0.9999994
0.9999994
0.9999995
0.9999996
0.9999995
0.9999988
0.9999946
0.9999723
0.9997932
0.9970884
0.9786205
0.9740617
0.982698
0.9949909
0.9974322
0.9980586
0.997727
0.9898179
0.953735
0.9487302
0.9701572
0.9938785
0.9991817
0.9998864
0.9999218
0.9999218
0.9999218
0.9998283
0.9981512
0.9833449
0.9755293
0.9787914
0.9922235
0.998932
0.9999558
0.9999922
0.9999907
0.9999729
0.9998803
0.9998497
0.9999075
0.9999811
0.9999917
0.9999905
0.9999809
0.9999247
0.9994236
0.9954834
0.9936025
0.9950911
0.9986476
0.9998375
0.9999474
0.999944
0.9998774
0.9989568
0.9929879
0.9913294
0.9950817
0.999177
0.9997692
0.9996674
0.9978903
0.9928537
0.992608
0.9961655
0.999161
0.9995199
0.9991867
0.9964397
0.9957735
0.9974004
0.9995027
0.9999607
0.9999787
0.9999469
0.9998813
0.9996789
0.9986144
0.9900295
0.9821488
0.9842608
0.9937466
0.9986525
0.9997541
0.9999502
0.9999547
0.9999137
0.9996167
0.9994991
0.9996127
0.9998922
0.9999863
0.9999954
0.9999959
0.9999959
0.9999949
0.9999873
0.9999413
0.9997338
0.9996763
0.9998489
0.9999779
0.9999992
0.9999995
0.9999952
0.9999652
0.9997846
0.9986016
0.9938097
0.9933758
0.9970407
0.9996571
0.9999786
0.9999019
0.9989182
0.9911528
0.984802
0.9915009
0.9983907
0.9999029
0.9999919
0.999992
0.9999889
0.9999665
0.9998066
0.9990309
0.9987336
0.9990892
0.9997018
0.9998978
0.9999666
0.999995
0.9999997
1
1
1
1
1
1
0.9999999
0.9999999
1
1
1
1
1
0.9999998
0.9999995
0.9999996
0.9999999
1
1
0.9999998
0.9999992
0.9999993
0.9999998
1
1
0.9999999
0.9999989
0.9999965
0.9999963
0.9999976
0.9999996
1
1
1
0.9999999
0.9999994
0.9999991
0.9999995
0.9999999
1
0.9999998
0.999998
0.9999975
0.9999989
0.9999998
1
1
1
1
1
1
1
1
1
1
1
1
1
1
1
1
1
1
1
1
1
1
1
1
1
1
1
1
1
1
1
1
1
1
1
1
1
1
1
0.9999996
0.9999989
0.9999991
0.9999996
0.9999999
1
1
1
1
1
1
0.9999999
0.9999999
0.9999999
1
1
1
1
1
1
1
1
1
1
1
1
1
1
1
1
1
1
1
1
1
1
1
1
1
1
1
1
1
1
1
0.9999999
0.9999978
0.9999582
0.9992962
0.9942457
0.9885678
0.9913755
0.9972026
0.9997424
0.9999954
1
1
1
1
1
1
0.9999999
0.9999999
0.9999968
1
1
1
1
1
1
1
1
1
1
1
1
1
1
1
1
1
1
1
1
1
1
1
1
1
1
1
1
1
1
0.9999999
0.9999998
0.9999998
0.9999999
1
1
1
1
1
1
1
1
1
1
1
1
1
1
1
1
1
0.9999999
0.9999999
0.9999999
0.9999999
0.9999999
1
1
1
1
1
1
1
1
1
1
1
1
1
1
1
1
1
1
1
1
1
1
1
1
0.9999999
0.999998
0.9999723
0.9997955
0.9989987
0.996467
0.9907747
0.9786713
0.9535854
0.8987523
0.8362525
0.8075746
0.7944355
0.7907594
0.7071919
0.5424934
0.5488009
0.6392416
0.6101793
0.4319586
0.4862163
0.4133115
0.2209726
0.2209726
0.2209726
0.5211092
0.8139086
0.7875949
0.3946515
0.1421719
0.1480073
0.1939318
0.5176659
0.8403204
0.7707091
0.6477586
0.6944327
0.9087952
0.9688905
0.9621376
0.9387159
0.8827581
0.8422437
0.86275
0.9415306
0.9820363
0.9674398
0.7006169
0.4676168
0.6255862
0.8398729
0.845302
0.7240381
0.7093607
0.8155789
0.8227459
0.6705632
0.6895003
0.8985639
0.9863046
0.9967048
0.9987552
0.998992
0.9987553
0.9846781
0.9674734
0.9757726
0.9948603
0.9960051
0.9796571
0.8372898
0.7696664
0.9055091
0.9777478
0.9065013
0.5303253
0.4846639
0.5725128
0.3531852
0.0753304
0.05196588
0.04816832
0.04817103
0.04806748
0.04806748
0.04806748
0.04806748
0.04806748
0.1184753
0.5923348
0.94237
0.9926808
0.989898
0.9736866
0.9726278
0.9826457
0.9962804
0.9987921
0.9987921
0.9970233
0.9948555
0.9940915
0.9803542
0.8264274
0.7421076
0.8124591
0.956334
0.9948556
0.998628
0.9992697
0.9994609
0.9994752
0.9995133
0.9996488
0.9996488
0.9996487
0.9984944
0.9894711
0.9780323
0.974517
0.9687163
0.9347567
0.733897
0.569616
0.6254039
0.6232329
0.3708508
0.1855915
0.3151091
0.7483014
0.9667783
0.9988413
0.9997716
0.9997716
0.9997716
0.9997716
0.9997716
0.999734
0.9994208
0.9954658
0.9418113
0.8706539
0.8814498
0.9549272
0.9942572
0.9998266
0.9999524
0.9999126
0.9988441
0.9885131
0.9820244
0.9837327
0.9935347
0.9991384
0.9999736
0.9999991
0.9999991
0.9999982
0.9999969
0.9999969
0.9999981
0.9999981
0.9999808
0.9996704
0.9956429
0.9732263
0.971873
0.988134
0.9971284
0.9990226
0.9992216
0.9992217
0.9975583
0.969887
0.9424632
0.9479586
0.9777821
0.9963823
0.9998136
0.9999218
0.9999218
0.9999218
0.9999218
0.9997521
0.9966121
0.9814001
0.9787211
0.9846855
0.995557
0.9995423
0.9999735
0.9999764
0.9999241