/*--------------------------------*- C++ -*----------------------------------*\
| =========                 |                                                 |
| \\      /  F ield         | foam-extend: Open Source CFD                    |
|  \\    /   O peration     | Version:     3.1                                |
|   \\  /    A nd           | Web:         http://www.extend-project.de       |
|    \\/     M anipulation  |                                                 |
\*---------------------------------------------------------------------------*/
FoamFile
{
    version     2.0;
    format      ascii;
    class       volScalarField;
    location    "15.5";
    object      k;
}
// * * * * * * * * * * * * * * * * * * * * * * * * * * * * * * * * * * * * * //

dimensions      [0 2 -2 0 0 0 0];

internalField   nonuniform List<scalar> 
119952
(
0.04356558
0.04136066
0.0406351
0.03941812
0.03812082
0.03706235
0.03642878
0.03600233
0.03566657
0.03536308
0.03506839
0.03477055
0.03447527
0.03421774
0.03405227
0.03402974
0.03416854
0.03442581
0.03479183
0.03534638
0.03651663
0.03580699
0.03617014
0.03715368
0.03631461
0.03612893
0.03600867
0.03585301
0.03503056
0.009227667
0.05477544
0.05182706
0.04999937
0.04930596
0.04955529
0.05052647
0.05199855
0.0537801
0.05573154
0.05779415
0.05644931
0.05828548
0.06143708
0.06495725
0.068376
0.07147184
0.07416351
0.07646107
0.07837293
0.08856498
0.08893683
0.08900183
0.08873013
0.08813571
0.08714228
0.08577184
0.08414441
0.082435
0.08086377
0.07966215
0.0786648
0.07799116
0.07767074
0.07766984
0.07791921
0.07832649
0.07877956
0.07928646
0.08044249
0.07992163
0.07901881
0.0781435
0.07699574
0.07550754
0.073821
0.07209415
0.07039702
0.06875172
0.06717177
0.06566749
0.06425087
0.06293724
0.06174538
0.0606944
0.05979499
0.05905628
0.05849577
0.05815123
0.05810573
0.0583591
0.05888984
0.06000721
0.06155531
0.06298237
0.06434115
0.06564448
0.06677502
0.06696254
0.06739971
0.06797866
0.06870831
0.06953746
0.07040865
0.0712306
0.07185943
0.07211542
0.07183539
0.07090917
0.06930775
0.06712325
0.06456853
0.06189861
0.05929885
0.05683907
0.05451834
0.05233405
0.05034221
0.04866574
0.04740848
0.04653586
0.04586717
0.04519564
0.04439561
0.04344686
0.04240082
0.04132433
0.04025548
0.03921817
0.03823954
0.03734208
0.03654218
0.03585197
0.03528113
0.03484115
0.03454599
0.03439135
0.03435596
0.03441401
0.03454036
0.0347128
0.03490686
0.03509672
0.03527105
0.0354243
0.03554665
0.03562747
0.03566034
0.03565888
0.03562525
0.03553128
0.03536976
0.0351326
0.03482654
0.03445633
0.03402886
0.03355532
0.03304769
0.03251954
0.03198445
0.03145469
0.03094008
0.03044744
0.02998058
0.02954039
0.02912581
0.02873442
0.02836358
0.02801087
0.02767444
0.02735299
0.02704534
0.02675014
0.02646587
0.02619076
0.02592287
0.02566026
0.02540113
0.02514401
0.0248879
0.02463248
0.02437831
0.02412685
0.02388036
0.02364139
0.02341219
0.02319443
0.02298919
0.0227973
0.02261949
0.02245638
0.02230809
0.0221739
0.0220516
0.02193806
0.02182951
0.02172042
0.02161681
0.02161009
0.02161945
0.02149166
0.02125984
0.02097643
0.02067339
0.02036535
0.02006022
0.01976524
0.01948125
0.0192108
0.01895426
0.01871197
0.01848495
0.01827462
0.01808246
0.01790908
0.01775289
0.01760978
0.01747438
0.01734179
0.01720923
0.01707651
0.01694483
0.01681565
0.01668984
0.01656784
0.01644991
0.01633586
0.01622536
0.01611838
0.01601792
0.01592423
0.01583893
0.01575464
0.01562965
0.01564699
0.01569807
0.01576348
0.01584984
0.01593846
0.0159185
0.01571778
0.01631334
0.01850677
0.01993058
0.02048482
0.02053884
0.02023504
0.01964982
0.01882336
0.0177775
0.01656467
0.01529277
0.01410032
0.01306984
0.01222696
0.01155656
0.01104117
0.01065765
0.01037551
0.01014096
0.009899894
0.009632182
0.009354051
0.009088778
0.00885532
0.008665345
0.008524257
0.008433587
0.009076674
0.009121255
0.009175647
0.009248765
0.009356018
0.009505637
0.009699939
0.009939614
0.01022495
0.0105472
0.01089542
0.01125722
0.01161876
0.01196786
0.01229622
0.01259788
0.0128682
0.01310368
0.01330182
0.01346109
0.01358099
0.01366204
0.01370585
0.01371509
0.01369338
0.01364517
0.01357552
0.01348987
0.01339377
0.01329257
0.01319122
0.01309406
0.01300476
0.01292621
0.0128606
0.01280938
0.01277338
0.01275288
0.01274771
0.01275732
0.01278089
0.0128174
0.0128657
0.01292466
0.01299355
0.01307015
0.01314786
0.01322832
0.01331317
0.01340027
0.01348857
0.01357773
0.01366687
0.01377014
0.01387709
0.01391972
0.01395909
0.0139966
0.01403574
0.01407965
0.01413062
0.01418936
0.01425532
0.0143273
0.01440373
0.01448273
0.01456223
0.0146403
0.01471529
0.01478589
0.01485117
0.0149108
0.01496461
0.01501191
0.01505245
0.01508659
0.01511507
0.01513791
0.0151551
0.01516733
0.01517566
0.01518029
0.01518136
0.01517928
0.01517402
0.01516634
0.0151556
0.01514047
0.01512223
0.01510013
0.01507677
0.01505438
0.01502815
0.01500006
0.01498079
0.01497625
0.01497968
0.01498297
0.01498016
0.01497099
0.01495772
0.01494217
0.01492527
0.01490731
0.01488811
0.01486715
0.01484362
0.01481644
0.01478427
0.01474549
0.01469816
0.01464003
0.01456858
0.01448099
0.01437433
0.01424619
0.01409559
0.01392373
0.01373579
0.01353897
0.01333617
0.01312629
0.01290809
0.01268158
0.01244683
0.01220523
0.01195838
0.01170783
0.01145547
0.0112037
0.01095524
0.01071284
0.0104791
0.01025528
0.01004091
0.009830523
0.009614328
0.009402334
0.009412639
0.1035975
0.09462678
0.09152122
0.09076688
0.09075938
0.09099632
0.09119703
0.0913583
0.09152529
0.09022744
0.091924
0.0959405
0.1006826
0.1054119
0.1098245
0.1138758
0.1176284
0.121163
0.1407781
0.1428101
0.1448691
0.1466444
0.148201
0.1495751
0.1507416
0.1516475
0.1522446
0.1524485
0.1524769
0.1518478
0.1505235
0.1485759
0.1460431
0.1430071
0.1396311
0.136161
0.1328763
0.1302118
0.1280984
0.1265645
0.1257728
0.1257524
0.1265094
0.1279679
0.1300246
0.1325542
0.1354045
0.1384041
0.1413367
0.1440021
0.1462339
0.1479288
0.1490481
0.1496298
0.1497787
0.1496195
0.161677
0.1607487
0.1595043
0.1578223
0.1556511
0.1530449
0.1501384
0.1471003
0.1440885
0.1412176
0.1385897
0.1362865
0.1343445
0.1327616
0.1314919
0.1304438
0.1295071
0.1285595
0.1275074
0.1261767
0.1245426
0.122725
0.1207206
0.1185883
0.116321
0.1139959
0.1116648
0.1093605
0.1071073
0.1049247
0.10283
0.1008419
0.09898324
0.09728252
0.09577616
0.09451101
0.09354499
0.09294226
0.09276105
0.09302215
0.09370449
0.09477448
0.09616129
0.09776941
0.0994692
0.101204
0.1029023
0.1046345
0.1066328
0.1088466
0.1110921
0.1133206
0.1154036
0.1171924
0.1185338
0.1192905
0.1193526
0.1186441
0.1171378
0.1148712
0.1119428
0.1084917
0.1046694
0.1006205
0.09647425
0.0923414
0.08831881
0.08449103
0.0809107
0.0775807
0.07446731
0.07153183
0.06875382
0.06613558
0.06369506
0.06145476
0.05942966
0.05762628
0.05604859
0.05469941
0.05358026
0.05269089
0.05202879
0.0515889
0.05136303
0.05133831
0.05150719
0.05186211
0.05236944
0.05298761
0.0536786
0.05440795
0.05514534
0.05586647
0.05655147
0.05718611
0.05775524
0.05824203
0.05863067
0.05890915
0.05907261
0.05911759
0.05904395
0.05885579
0.05855916
0.05816308
0.05767783
0.05711459
0.05648495
0.0558007
0.05507371
0.05431573
0.05353801
0.05275101
0.05196429
0.05118584
0.05042236
0.0496791
0.04895977
0.0482667
0.04760095
0.04696208
0.04634851
0.04575777
0.04518694
0.04463292
0.04409281
0.04356419
0.04304548
0.0425362
0.04203717
0.04155008
0.0410772
0.04062087
0.04018298
0.03976471
0.03936645
0.03898801
0.03862877
0.03828813
0.03796554
0.03766068
0.03737312
0.03710227
0.03684701
0.03660594
0.03637732
0.03616234
0.03516158
0.03402997
0.03327269
0.03272488
0.03229332
0.03192629
0.03159341
0.03127582
0.03096129
0.03064109
0.03030893
0.02996031
0.02959258
0.02920494
0.02879846
0.02837594
0.02794158
0.0275002
0.02705693
0.02661671
0.02618422
0.02576399
0.02536015
0.02497621
0.02461459
0.02427695
0.02396359
0.02367367
0.02340531
0.0231559
0.02292232
0.02270116
0.02248885
0.02228206
0.02207856
0.02188053
0.02169093
0.02149127
0.02126014
0.0209831
0.02063246
0.02016368
0.01950124
0.01875511
0.01812306
0.01766413
0.01738292
0.01732184
0.01752272
0.01799805
0.01871229
0.0195449
0.02031678
0.02092881
0.02131558
0.02142563
0.02123793
0.02081277
0.02027241
0.01972166
0.01918765
0.01863075
0.01802369
0.01736304
0.01668421
0.01603307
0.01544426
0.01494482
0.01455325
0.0142811
0.01526825
0.01524215
0.01532358
0.01548333
0.01570277
0.01596784
0.01626758
0.01659288
0.01693512
0.01728688
0.01764202
0.01799656
0.01835303
0.0187108
0.01906043
0.01939362
0.01970301
0.01998199
0.02022474
0.0204263
0.0205829
0.0206922
0.02075349
0.02076776
0.0207377
0.02066755
0.02056285
0.02043016
0.02027672
0.02010998
0.01993728
0.01976545
0.01960058
0.01944788
0.01931153
0.01919471
0.01909962
0.01902751
0.01897887
0.01895346
0.01895052
0.01896889
0.01900712
0.01906351
0.01913594
0.01922126
0.01931625
0.01941958
0.0195304
0.01964687
0.01976741
0.01989024
0.02001536
0.02014517
0.02027019
0.02038463
0.02049406
0.02060037
0.02070338
0.02080234
0.02089634
0.02098442
0.02106597
0.02114078
0.02120892
0.02127052
0.02132576
0.02137475
0.02141758
0.02145425
0.02148477
0.02150921
0.02152766
0.02154005
0.02154631
0.02154651
0.02154084
0.02152939
0.02151223
0.02148962
0.02146192
0.02142937
0.02139227
0.02135094
0.02130558
0.02125657
0.02120392
0.02114767
0.02108814
0.02102528
0.02096017
0.02089422
0.02082709
0.02075874
0.02069184
0.02062925
0.02057077
0.02051411
0.02045701
0.02039828
0.02033774
0.02027557
0.02021193
0.02014687
0.02008019
0.02001148
0.01994006
0.01986501
0.01978514
0.01969897
0.01960473
0.01950036
0.0193835
0.01925152
0.01910156
0.01893053
0.01873523
0.01851368
0.01826719
0.01799892
0.01771137
0.01740559
0.017082
0.01674195
0.0163881
0.0160241
0.01565362
0.01527956
0.01490395
0.01452825
0.01415423
0.01378425
0.01342119
0.01306958
0.01273392
0.01242002
0.0121355
0.01190239
0.01171196
0.05860755
0.06512769
0.07280846
0.08113648
0.08984241
0.09954138
0.1103302
0.1214506
0.1350451
0.1603881
0.2656193
0.2854354
0.3044716
0.3221601
0.3385857
0.353513
0.3666964
0.3779766
0.3871127
0.4503243
0.4555733
0.4575883
0.4571967
0.4544153
0.4496126
0.4433905
0.436291
0.4287077
0.4209846
0.4128559
0.404878
0.3973917
0.390589
0.3843388
0.3783041
0.3720967
0.3654435
0.3583638
0.3498924
0.3409954
0.3316461
0.3219965
0.3121847
0.3024894
0.2932052
0.28457
0.2766966
0.2695979
0.2631159
0.257255
0.2519503
0.2471899
0.2430305
0.2395518
0.2368329
0.2348983
0.2504739
0.2496923
0.2490805
0.2484811
0.2477556
0.2467932
0.2455262
0.2439332
0.2420288
0.2398239
0.2373161
0.2344876
0.2312775
0.2276564
0.2236319
0.219267
0.214682
0.2100198
0.2054079
0.2010813
0.1972762
0.1942222
0.1920776
0.1909384
0.1908306
0.1917071
0.1934686
0.195942
0.1988657
0.2019505
0.2049022
0.2074717
0.2094617
0.2107433
0.2113152
0.2113183
0.2109384
0.2103366
0.209334
0.2079873
0.206127
0.2036367
0.2005646
0.1971323
0.1936514
0.1901998
0.1867894
0.1834745
0.1802889
0.1772648
0.174483
0.1720523
0.1699059
0.1679299
0.1660044
0.1640146
0.1618708
0.1594883
0.1568937
0.1541644
0.1513767
0.1484897
0.145524
0.1425652
0.1396709
0.1368722
0.1341903
0.131644
0.1292511
0.1270326
0.1250167
0.1232402
0.1217508
0.1206076
0.1198799
0.1196387
0.1199441
0.1208097
0.1221815
0.123987
0.1260594
0.12822
0.1304019
0.1326344
0.134914
0.1373832
0.1401706
0.1431926
0.1461716
0.1489304
0.1513174
0.1531291
0.1541838
0.1543812
0.1536801
0.1520768
0.1495978
0.1463385
0.1424556
0.1381111
0.1334495
0.1286027
0.1236903
0.1188162
0.1140679
0.1095017
0.1051309
0.1009366
0.09689249
0.09298939
0.08924372
0.08569012
0.08236925
0.07931755
0.07656153
0.07411933
0.07200375
0.07022311
0.06878146
0.06767789
0.0669054
0.06644976
0.06628851
0.06639003
0.06671319
0.0672093
0.06784688
0.06859881
0.06942761
0.070295
0.07117245
0.07203957
0.07287174
0.07363757
0.07431551
0.07488954
0.07534636
0.07567561
0.07587221
0.07593472
0.07586496
0.07567006
0.07536071
0.07494875
0.07444519
0.07385955
0.07320001
0.07247452
0.07169204
0.07086303
0.06999882
0.06911109
0.0682114
0.06731035
0.06641666
0.06553698
0.06467582
0.06383585
0.06301773
0.06222019
0.0614406
0.06067578
0.05992278
0.05917929
0.05844409
0.05771715
0.05700033
0.05629786
0.05561572
0.05496031
0.05433675
0.05374789
0.0531941
0.05267399
0.05218506
0.05172458
0.05128978
0.05087864
0.05048946
0.05012107
0.04977162
0.04943908
0.04912021
0.04881129
0.04850613
0.04819485
0.04780487
0.04745927
0.04713429
0.04681709
0.04650157
0.04618362
0.04585909
0.04552355
0.04517242
0.04480134
0.04440652
0.04398512
0.0435354
0.04305695
0.04255078
0.04201912
0.04146562
0.04089537
0.04031439
0.03972931
0.03914711
0.03857432
0.03801635
0.03747734
0.03696026
0.03646661
0.03599649
0.03554883
0.03512176
0.03471296
0.03431992
0.03394033
0.03357214
0.03321346
0.03286155
0.03251036
0.03214751
0.03175663
0.03132233
0.03082922
0.03026347
0.0296188
0.02891616
0.02817711
0.02739547
0.02656078
0.02567955
0.02477517
0.02388198
0.02304323
0.02230668
0.02171893
0.02132296
0.02115399
0.02122907
0.02153995
0.02203226
0.0225938
0.02316513
0.02368754
0.02409036
0.02429904
0.0242594
0.02396711
0.02346844
0.02283706
0.02213964
0.02143863
0.02079285
0.02025165
0.01985443
0.01957254
0.01940284
0.01934874
0.01940301
0.01954918
0.01976874
0.02004465
0.02036161
0.02070605
0.02106663
0.02143433
0.02180173
0.0221668
0.0225304
0.0228842
0.0232207
0.02353274
0.02381339
0.02405612
0.02425522
0.02440627
0.02450648
0.02455497
0.02455282
0.024503
0.02441015
0.02428037
0.02412091
0.02393975
0.02374506
0.0235448
0.02334639
0.02315645
0.02298058
0.02282335
0.02268819
0.02257749
0.02249263
0.02243412
0.02240175
0.02239467
0.02241157
0.02245067
0.02250973
0.022586
0.02267656
0.02277916
0.02289209
0.02301343
0.02314116
0.02327336
0.02340816
0.02354399
0.02367912
0.02381233
0.02394275
0.02406883
0.0241896
0.02430469
0.02441376
0.02451624
0.02461142
0.02469874
0.02477783
0.02484852
0.02491069
0.02496435
0.0250095
0.0250462
0.02507449
0.02509455
0.02510659
0.02511074
0.02510709
0.02509581
0.02507715
0.0250513
0.02501837
0.02497856
0.02493221
0.02487964
0.0248212
0.02475732
0.02468845
0.02461502
0.02453731
0.02445558
0.02437008
0.02428103
0.02418934
0.02409594
0.02400044
0.02390206
0.02380177
0.02370218
0.02360508
0.02351042
0.02341695
0.02332347
0.02322936
0.02313441
0.02303855
0.02294173
0.02284381
0.02274452
0.02264338
0.02253971
0.02243259
0.02232086
0.02220307
0.0220775
0.02194216
0.02179479
0.02163284
0.02145353
0.02125353
0.02102884
0.02077629
0.02049592
0.02019031
0.01986195
0.01951281
0.01914543
0.01876369
0.01837257
0.01797648
0.01757817
0.01717858
0.01677759
0.01637516
0.01597207
0.01557099
0.01517608
0.01479423
0.0144327
0.01409864
0.01380253
0.01355091
0.04574248
0.05274212
0.05917177
0.09402672
0.1276403
0.169867
0.1967057
0.2232405
0.2479686
0.2715628
0.2933628
0.3127404
0.3304222
0.3478952
0.3651204
0.3821987
0.3994755
0.417055
0.4354603
0.4550594
0.4762115
0.4996037
0.5239339
0.5472284
0.5696118
0.5910519
0.6109899
0.6288297
0.6438939
0.6552982
0.6613336
0.6890603
0.684549
0.6771995
0.6678458
0.6569167
0.6447899
0.6318671
0.618539
0.605132
0.5918737
0.5788756
0.5662478
0.5541279
0.5426438
0.5317041
0.5210211
0.5102899
0.4993512
0.4881425
0.4765887
0.4646401
0.4522739
0.4395452
0.4266198
0.4137458
0.401196
0.3891884
0.3778728
0.3673506
0.3576612
0.3487577
0.3405909
0.3331684
0.3265564
0.320856
0.3161725
0.3125769
0.3096628
0.3074254
0.3055619
0.3038371
0.3020651
0.3001098
0.2978785
0.2953368
0.2925026
0.2894079
0.2860688
0.282453
0.2785258
0.2743194
0.2698206
0.2650412
0.2600423
0.2549506
0.2499647
0.2452261
0.2409666
0.237603
0.235351
0.2343144
0.2345114
0.2358982
0.2383923
0.2418105
0.2457994
0.2499159
0.2537595
0.2570139
0.2594162
0.2608023
0.2612605
0.261113
0.2606408
0.259934
0.2588853
0.2572366
0.2546794
0.2510854
0.2467121
0.2421095
0.2373731
0.2326866
0.228206
0.2240185
0.2201465
0.2165656
0.2132098
0.2099959
0.2069956
0.204066
0.2010741
0.1979368
0.1946043
0.1910603
0.1873734
0.1836932
0.1800247
0.1763531
0.172723
0.1692
0.1658324
0.1626434
0.1596497
0.1568724
0.1543357
0.1520696
0.1501126
0.1485114
0.1473208
0.146605
0.1464364
0.1468891
0.1480198
0.1498268
0.1522147
0.1550101
0.1579945
0.1610002
0.1639999
0.1671003
0.1704179
0.1740427
0.1779094
0.1817102
0.1850874
0.1878733
0.1899073
0.1909516
0.1908441
0.1895963
0.187281
0.1840153
0.1799626
0.1752983
0.1702142
0.1648789
0.1593958
0.1538533
0.1483437
0.1429292
0.1376468
0.132512
0.1275196
0.1226551
0.1179151
0.1133177
0.1089031
0.1047236
0.10083
0.09726299
0.09405417
0.09122628
0.0887938
0.08676517
0.08514372
0.08392753
0.08310718
0.08266185
0.08255622
0.08274062
0.08315614
0.08374455
0.08445502
0.0852428
0.08607756
0.08693807
0.08780309
0.08864756
0.08944724
0.09017819
0.09081572
0.09133925
0.0917358
0.09199709
0.09211772
0.09209604
0.0919376
0.09165645
0.09126959
0.09079201
0.09023334
0.08959839
0.08888908
0.08810771
0.08726046
0.08635782
0.08541254
0.08443827
0.0834484
0.08245495
0.08146732
0.08049194
0.07953241
0.07858963
0.07766184
0.07674499
0.07583395
0.0749242
0.07401299
0.07309957
0.07218525
0.071274
0.07037294
0.06949321
0.06864843
0.06785069
0.06710672
0.06641658
0.06577535
0.06517605
0.06461193
0.06407758
0.06356901
0.06308398
0.06262121
0.06217958
0.06175642
0.06134792
0.06094894
0.06055367
0.06015561
0.05974777
0.05932228
0.05888066
0.05842923
0.05797678
0.05753011
0.05709021
0.05665281
0.05621113
0.05575785
0.05528624
0.05479089
0.05426799
0.05371505
0.05313121
0.05251767
0.05187677
0.05121255
0.05053182
0.04984302
0.04915489
0.04847609
0.04781357
0.04717172
0.04655291
0.04595793
0.04538584
0.04483432
0.04430014
0.04377984
0.04327014
0.04276847
0.04227305
0.04178301
0.04129826
0.04081751
0.04033485
0.03983703
0.03930722
0.03873176
0.03809934
0.0374022
0.03664763
0.03585478
0.03502647
0.03414536
0.03319807
0.03218401
0.03111038
0.02998971
0.0288394
0.02768287
0.02655034
0.02547985
0.02451514
0.02370034
0.0230738
0.02266269
0.02248215
0.02253562
0.0228065
0.02324613
0.02375353
0.02423606
0.02463798
0.02490982
0.02501757
0.02494773
0.02471937
0.02437383
0.02396979
0.02355896
0.02318369
0.02289064
0.02270482
0.02263018
0.02265886
0.02277828
0.02297329
0.02322799
0.02352684
0.02385607
0.02420419
0.02456171
0.02492075
0.02528028
0.02563762
0.02598514
0.02631548
0.02662113
0.02689459
0.02712877
0.02731758
0.02745641
0.02754255
0.02757538
0.02755629
0.02748854
0.02737708
0.02722847
0.02705042
0.02685129
0.02663953
0.02642333
0.02621027
0.02600709
0.02581952
0.02565219
0.0255086
0.02539116
0.02530128
0.02523948
0.02520546
0.0251983
0.02521647
0.02525795
0.02532026
0.02540066
0.02549667
0.02560613
0.02572677
0.02585636
0.0259928
0.026134
0.02627836
0.02642396
0.02656832
0.0267097
0.02684702
0.02697952
0.02710668
0.02722796
0.02734259
0.02744972
0.02754855
0.02763846
0.02771902
0.02778992
0.02785096
0.02790203
0.02794308
0.02797413
0.02799531
0.02800679
0.02800875
0.02800133
0.02798476
0.02795927
0.02792507
0.0278823
0.02783117
0.02777199
0.02770509
0.02763082
0.02754971
0.02746234
0.02736928
0.027271
0.02716787
0.02706023
0.02694851
0.02683338
0.02671518
0.02659347
0.02646767
0.02633853
0.02620828
0.02607897
0.02595138
0.02582509
0.02569938
0.0255737
0.02544777
0.02532147
0.02519472
0.02506746
0.02493956
0.02481072
0.02468051
0.02454828
0.02441317
0.02427407
0.02412963
0.02397823
0.02381793
0.02364648
0.02346119
0.02325863
0.0230342
0.02278305
0.02250249
0.02219295
0.02185636
0.02149546
0.02111433
0.02071879
0.02031561
0.01991031
0.01950562
0.01910148
0.01869621
0.01828783
0.01787548
0.01746037
0.01704624
0.01663992
0.01624937
0.01588262
0.01554858
0.01526707
0.02549291
0.02837267
0.0312116
0.04209559
0.05603342
0.07966729
0.09560107
0.1120715
0.1293219
0.14653
0.1640887
0.1830155
0.2030766
0.2234023
0.2442328
0.2672291
0.3028812
0.3194313
0.3360412
0.3526163
0.3696736
0.386019
0.4013653
0.4158287
0.4296868
0.4429942
0.4553213
0.4674281
0.479827
0.4929479
0.5086305
0.526862
0.547465
0.570432
0.5955821
0.6224703
0.6499373
0.6765341
0.7008407
0.721295
0.7372386
0.7469443
0.7501957
0.7504581
0.7477216
0.7422423
0.7342105
0.7239097
0.7118995
0.6987213
0.6848603
0.6708141
0.6568686
0.6432062
0.6301161
0.6178149
0.6061933
0.5948882
0.5835143
0.571836
0.5597688
0.5472086
0.5340259
0.5202226
0.5059922
0.4916458
0.4775574
0.4638128
0.4505474
0.4378767
0.4259509
0.4149784
0.4049087
0.3956961
0.3873775
0.3800634
0.3739051
0.3690268
0.3653959
0.3627297
0.3606026
0.3586533
0.3566571
0.3544236
0.3518251
0.3488006
0.3453822
0.3416927
0.3378206
0.3338557
0.3296771
0.3251478
0.3201059
0.3145749
0.3087146
0.3027534
0.2969492
0.2915618
0.2868245
0.2829288
0.2799949
0.2785149
0.2785506
0.2800459
0.2829507
0.2872329
0.292668
0.2986761
0.3045453
0.3097998
0.3141211
0.3171794
0.3187585
0.3191702
0.3191192
0.3189666
0.3185871
0.317619
0.3155147
0.311737
0.3062383
0.2997803
0.2928654
0.2859967
0.2794816
0.273475
0.2680278
0.263094
0.2585649
0.254307
0.2501753
0.2460556
0.2418344
0.2373718
0.2326516
0.2277074
0.2226276
0.2175776
0.2126697
0.2079206
0.2033527
0.1989794
0.1948391
0.1909711
0.1874012
0.1841565
0.1812694
0.1787755
0.176718
0.1751471
0.1741125
0.1736618
0.173848
0.1747303
0.1763729
0.1788332
0.1821095
0.1860583
0.1903827
0.1947527
0.1989816
0.2031168
0.207405
0.2120987
0.2171605
0.2221016
0.2261976
0.2290518
0.2306963
0.2311293
0.2301834
0.2277924
0.2241041
0.2193199
0.2137005
0.2075501
0.2011153
0.1946019
0.1881632
0.1818554
0.175691
0.1696833
0.1638271
0.1580995
0.1524944
0.1470132
0.1416572
0.1364399
0.1313946
0.126575
0.1220441
0.1178592
0.1140647
0.1106908
0.1077545
0.105262
0.1032136
0.1016076
0.1004414
0.09970545
0.09937213
0.09938936
0.09968406
0.1001767
0.1007994
0.1015038
0.1022541
0.1030233
0.1037942
0.1045523
0.1052863
0.1059791
0.1066012
0.1071197
0.10751
0.1077637
0.1078783
0.107848
0.10767
0.1073547
0.1069261
0.1064102
0.1058248
0.1051756
0.1044586
0.1036671
0.1027974
0.1018546
0.1008522
0.09980736
0.09873719
0.09765568
0.09657599
0.09550918
0.09446021
0.09342944
0.09241394
0.09140733
0.09040029
0.08938315
0.0883492
0.08729651
0.08622708
0.0851462
0.08406307
0.08299197
0.08195366
0.08097227
0.08006636
0.07924124
0.07848867
0.07779288
0.07713815
0.0765131
0.07591116
0.07532899
0.07476571
0.07422191
0.07369749
0.07318927
0.0726918
0.07219885
0.07170314
0.07119638
0.07067065
0.0701218
0.0695513
0.06896908
0.06839194
0.06783269
0.06729198
0.06676088
0.06622742
0.06568047
0.06511109
0.06451331
0.06388418
0.06322167
0.06252473
0.06179528
0.06103721
0.06025628
0.05946283
0.05866983
0.05788931
0.05713076
0.05639999
0.05569874
0.05502587
0.0543785
0.05375225
0.05314147
0.05254021
0.05194298
0.05134559
0.05074559
0.05014209
0.04953655
0.04893356
0.04833679
0.04774165
0.047133
0.04649175
0.04580235
0.04505468
0.04424777
0.04339426
0.04250883
0.0415896
0.04062018
0.03958631
0.03848239
0.03730917
0.03607128
0.03477676
0.03343686
0.03206658
0.03068707
0.02932585
0.0280159
0.02679461
0.02570116
0.024774
0.02404812
0.02354962
0.0232895
0.02325922
0.02343316
0.02377122
0.0242142
0.02467351
0.02508813
0.02541847
0.02563455
0.0257252
0.02570326
0.02560366
0.02547131
0.0253493
0.02526728
0.02524558
0.02529526
0.02541545
0.0255993
0.02583626
0.0261143
0.02642188
0.02674872
0.02708576
0.02742537
0.02776723
0.02810556
0.02843375
0.0287448
0.02903128
0.02928574
0.02950123
0.02967186
0.02979336
0.02986346
0.0298819
0.02985021
0.02977153
0.0296509
0.02949503
0.02931164
0.02910887
0.02889499
0.02867795
0.02846514
0.02826313
0.0280775
0.02791279
0.02777243
0.02765879
0.02757326
0.02751631
0.02748764
0.02748621
0.02751043
0.02755819
0.02762703
0.02771453
0.02781844
0.02793628
0.02806552
0.02820403
0.02834963
0.02850019
0.02865343
0.02880689
0.02895863
0.0291072
0.02925151
0.02939074
0.02952414
0.02965082
0.02976985
0.02988032
0.02998149
0.03007273
0.03015357
0.03022366
0.03028276
0.0303307
0.03036743
0.03039299
0.03040749
0.03041108
0.03040394
0.03038626
0.03035826
0.03032015
0.03027209
0.0302143
0.03014702
0.03007055
0.02998527
0.02989172
0.02979054
0.02968238
0.02956784
0.0294474
0.0293215
0.0291906
0.02905514
0.02891527
0.02877072
0.02862136
0.02846795
0.02831224
0.02815602
0.0280003
0.02784528
0.02769071
0.02753633
0.02738198
0.02722758
0.02707316
0.02691874
0.02676431
0.02660979
0.02645494
0.02629937
0.02614251
0.02598357
0.0258215
0.025655
0.02548241
0.02530169
0.02511024
0.02490467
0.02468056
0.02443305
0.024158
0.02385311
0.02351834
0.02315585
0.02277054
0.02237013
0.02196366
0.02155832
0.02115708
0.02075906
0.02036103
0.01995916
0.01955077
0.01913558
0.01871619
0.01829873
0.01789151
0.0175041
0.01714668
0.01684642
0.01220893
0.0140879
0.015542
0.02307994
0.03165067
0.04283325
0.05167009
0.06144504
0.07175599
0.08247698
0.09393644
0.1071899
0.1213507
0.1367891
0.1549157
0.1828211
0.1971094
0.211963
0.2269831
0.2421433
0.2574254
0.2727845
0.2880397
0.3030562
0.3176935
0.3316773
0.3447722
0.3583602
0.3714316
0.3840656
0.3961702
0.4080375
0.4191845
0.4291554
0.4379018
0.4455534
0.4520864
0.4581342
0.4648352
0.4726325
0.4835686
0.4990716
0.5200098
0.5465334
0.5778711
0.6126853
0.6489983
0.6846042
0.7174246
0.7447091
0.7667627
0.7838002
0.7959033
0.8036118
0.8071908
0.8066431
0.8019556
0.7936334
0.7826227
0.7698576
0.7562596
0.7425661
0.7290643
0.7159322
0.7035973
0.6922019
0.6813699
0.6705468
0.6592794
0.6473168
0.6344881
0.6205548
0.6054688
0.5895804
0.5735669
0.5579549
0.5426031
0.5277575
0.5136271
0.5003122
0.4877767
0.4759126
0.4648812
0.4548622
0.4460094
0.4385224
0.4326515
0.4285237
0.4258739
0.4240299
0.4222522
0.420189
0.4176652
0.4145491
0.410759
0.406299
0.4014389
0.3966917
0.39215
0.38734
0.3820777
0.376238
0.3697433
0.3627022
0.3554092
0.3482426
0.3415915
0.3358157
0.3312223
0.3280523
0.326438
0.3265476
0.328553
0.3322117
0.337504
0.3445244
0.3528509
0.3613497
0.3690333
0.3756118
0.3809824
0.3847512
0.3866427
0.3873641
0.3882433
0.3894905
0.3902307
0.3894305
0.3862555
0.3801392
0.3715307
0.3616498
0.3515659
0.3419755
0.33316
0.3252532
0.3182238
0.3118717
0.305949
0.300234
0.2945296
0.2886419
0.2823497
0.2756204
0.2685964
0.2614396
0.2543702
0.2476432
0.2412946
0.2353806
0.2298765
0.224745
0.2200102
0.2157266
0.2119375
0.208689
0.2060316
0.2040177
0.202711
0.2021789
0.2024558
0.2035278
0.2053699
0.2079794
0.2113859
0.2156593
0.2208802
0.2269084
0.2332688
0.2394144
0.245091
0.2504414
0.255874
0.261703
0.2676212
0.272566
0.2753606
0.2757404
0.2742115
0.2711512
0.2666735
0.2608936
0.2540473
0.2464328
0.2384053
0.2302985
0.2223406
0.2147023
0.2074467
0.20054
0.193921
0.187532
0.1813185
0.1752379
0.1692841
0.1634684
0.1578043
0.1523136
0.1470312
0.1420229
0.1373676
0.133133
0.1293635
0.1260795
0.1232824
0.1209601
0.119096
0.1176794
0.1167105
0.1161864
0.1160744
0.1162985
0.1167457
0.1173119
0.1179243
0.1185524
0.1191848
0.1198155
0.1204523
0.121104
0.1217579
0.1223748
0.1229062
0.1233072
0.1235488
0.1236302
0.1235597
0.1233336
0.1229485
0.1224207
0.1217871
0.121086
0.1203391
0.1195467
0.118693
0.1177597
0.1167395
0.1156417
0.1144871
0.1132994
0.1121014
0.1109127
0.1097484
0.1086166
0.1075158
0.106439
0.1053775
0.1043186
0.103245
0.10214
0.1009937
0.09980652
0.09858615
0.09734472
0.09609837
0.09486916
0.09369006
0.09259965
0.09162357
0.09076044
0.08998471
0.08926225
0.08856616
0.08788306
0.08720957
0.0865462
0.08589507
0.08525921
0.08463974
0.08403305
0.08343315
0.08283385
0.08222544
0.08159641
0.08093731
0.08024563
0.07952606
0.07879599
0.07808368
0.07740855
0.07676879
0.07614703
0.07552183
0.0748767
0.07420225
0.07349348
0.0727494
0.07196956
0.07115299
0.070302
0.06942249
0.06852318
0.06761892
0.06672809
0.06586665
0.06504442
0.06426447
0.06352417
0.06281765
0.06213747
0.06147506
0.0608212
0.06016696
0.05950468
0.05882928
0.05813895
0.05743443
0.0567208
0.05601088
0.05531631
0.05463365
0.05394202
0.05321481
0.05243222
0.05158549
0.05067868
0.04972851
0.04875196
0.04774958
0.04670481
0.04559883
0.04442136
0.0431716
0.04185441
0.04047625
0.0390431
0.03756243
0.03604478
0.03450552
0.0329654
0.03144998
0.02998847
0.02861389
0.02736217
0.0262691
0.02536587
0.02467564
0.02420962
0.02396743
0.02393616
0.02409064
0.0243958
0.02480575
0.02525859
0.02568275
0.02604681
0.02633237
0.02653878
0.02668172
0.0267873
0.02688329
0.02699164
0.02712433
0.02729042
0.02749382
0.02773231
0.02800031
0.02829078
0.0285961
0.02890836
0.02922209
0.02953584
0.02984519
0.03014491
0.03042893
0.03069053
0.03092283
0.03111932
0.03127455
0.0313847
0.03144786
0.03146381
0.03143353
0.0313598
0.03124762
0.03110328
0.03093385
0.03074686
0.03055001
0.03035072
0.03015596
0.02997193
0.02980395
0.02965637
0.0295325
0.02943467
0.02936424
0.02932169
0.02930672
0.02931833
0.02935496
0.02941462
0.02949514
0.02959425
0.02970957
0.02983868
0.02997919
0.03012872
0.03028494
0.03044546
0.03060792
0.03077017
0.03093045
0.03108729
0.03123953
0.03138615
0.03152611
0.03165839
0.031782
0.03189606
0.03199981
0.03209264
0.03217404
0.03224366
0.03230122
0.03234657
0.03237967
0.03240055
0.03240933
0.03240614
0.03239118
0.03236465
0.03232673
0.0322776
0.03221745
0.03214651
0.03206504
0.0319734
0.03187213
0.03176187
0.0316433
0.03151706
0.03138371
0.03124377
0.03109771
0.03094589
0.03078847
0.03062544
0.03045699
0.03028391
0.0301076
0.02992954
0.02975076
0.02957178
0.02939274
0.02921367
0.02903459
0.0288556
0.02867682
0.02849841
0.02832053
0.02814324
0.02796653
0.02779023
0.027614
0.02743729
0.0272593
0.02707896
0.02689483
0.02670501
0.02650709
0.02629791
0.02607357
0.02582961
0.02556155
0.02526562
0.02493973
0.02458422
0.02420296
0.02380459
0.02340076
0.02300112
0.02260938
0.02222406
0.0218404
0.02145274
0.02105657
0.02065002
0.02023439
0.01981481
0.01939914
0.01899771
0.01862248
0.01830858
0.003160606
0.01215432
0.01803385
0.02478948
0.03214378
0.04035937
0.04953381
0.05933286
0.07004229
0.08264573
0.1014905
0.1121709
0.1234565
0.1350218
0.1469084
0.1590643
0.1714325
0.1839068
0.1963733
0.2087205
0.2209447
0.2345032
0.248172
0.2618184
0.2753984
0.2888611
0.3021796
0.3152395
0.3278778
0.3399179
0.3512917
0.3620075
0.3722638
0.38153
0.3901136
0.3983164
0.4060888
0.4128064
0.4184233
0.42277
0.4258445
0.4275521
0.429034
0.4316336
0.4372617
0.448279
0.4667199
0.4938267
0.5294995
0.5722395
0.619877
0.6693421
0.7173766
0.7616259
0.8010638
0.8345364
0.861274
0.8811818
0.8945432
0.9022471
0.9047962
0.9022367
0.8951261
0.8847323
0.8723015
0.8591379
0.8462073
0.8335575
0.8213789
0.8104112