/*--------------------------------*- C++ -*----------------------------------*\
| =========                 |                                                 |
| \\      /  F ield         | foam-extend: Open Source CFD                    |
|  \\    /   O peration     | Version:     3.1                                |
|   \\  /    A nd           | Web:         http://www.extend-project.de       |
|    \\/     M anipulation  |                                                 |
\*---------------------------------------------------------------------------*/
FoamFile
{
    version     2.0;
    format      ascii;
    class       volScalarField;
    location    "15.5";
    object      nut;
}
// * * * * * * * * * * * * * * * * * * * * * * * * * * * * * * * * * * * * * //

dimensions      [0 2 -1 0 0 0 0];

internalField   nonuniform List<scalar> 
119952
(
4.181565e-05
2.834014e-05
2.923292e-05
3.240396e-05
3.448762e-05
3.280481e-05
3.163429e-05
3.073861e-05
2.998586e-05
2.928933e-05
2.862294e-05
2.79677e-05
2.732123e-05
2.669448e-05
2.610762e-05
2.55769e-05
2.509551e-05
2.464137e-05
2.41667e-05
2.363102e-05
2.95687e-05
2.821296e-05
2.774862e-05
3.545986e-05
3.467693e-05
3.44128e-05
3.425727e-05
3.444835e-05
3.461894e-05
2.023582e-05
2.609239e-05
2.808582e-05
3.1592e-05
3.537779e-05
3.953309e-05
4.415277e-05
4.920819e-05
5.457461e-05
6.017229e-05
6.961824e-05
0.0003066139
0.0003729276
0.0004467902
0.0005237088
0.000600278
0.0006742381
0.0007443525
0.0008102743
0.0008722075
0.001267549
0.001325432
0.001380604
0.001429609
0.001469134
0.001496472
0.001511749
0.001518718
0.001523304
0.001531783
0.00155026
0.001579691
0.001622813
0.001679759
0.001749016
0.001827819
0.001912649
0.001999649
0.002087206
0.002149945
0.002155617
0.002158458
0.002158406
0.002144359
0.002112439
0.002069274
0.002023592
0.0019784
0.001934354
0.001891913
0.001851427
0.001813808
0.001780512
0.001753243
0.00173353
0.001722048
0.001719912
0.001729322
0.001754462
0.001794273
0.001845991
0.001912912
0.002002443
0.00209957
0.002185327
0.002254752
0.0022885
0.002230179
0.002061904
0.002032274
0.002029108
0.002044372
0.002068541
0.002097152
0.002124115
0.002140364
0.002134703
0.00209763
0.002023767
0.001914526
0.001780641
0.001639547
0.001507289
0.001392077
0.001294607
0.001211878
0.001141015
0.001082278
0.001039116
0.001013814
0.001003316
0.001000498
0.0009990081
0.0009961705
0.0009928907
0.0009917128
0.0009944797
0.001001409
0.001012309
0.001027099
0.001045601
0.001067501
0.001092399
0.001119885
0.001149786
0.001182216
0.001216106
0.001249659
0.001281131
0.001309167
0.001332824
0.001350987
0.001362644
0.001368149
0.001368223
0.001363079
0.001353126
0.001339688
0.001320361
0.001295631
0.001267298
0.001236553
0.001203542
0.001169188
0.001133815
0.001098057
0.001062579
0.001028038
0.0009950636
0.0009642067
0.0009358637
0.0009102461
0.0008873924
0.0008671917
0.0008494251
0.0008338011
0.00081997
0.0008076125
0.0007964333
0.0007861919
0.0007766905
0.0007677382
0.0007591349
0.000750677
0.0007421664
0.0007334187
0.0007242715
0.000714594
0.0007043042
0.000693389
0.0006819232
0.0006700752
0.0006580874
0.0006462251
0.0006347114
0.0006236791
0.0006131657
0.0006031486
0.0005936012
0.000584539
0.000576033
0.000568175
0.000561031
0.0005545704
0.0005486662
0.0005431204
0.000537848
0.0005337501
0.0004462104
0.00044558
0.0004320336
0.0004077804
0.0003882502
0.0003723205
0.0003588533
0.0003469676
0.0003363035
0.0003264542
0.0003172266
0.0003084888
0.0003001688
0.000292264
0.0002848164
0.0002779041
0.0002716032
0.0002659345
0.0002608406
0.0002562055
0.0002519058
0.0002478574
0.0002440218
0.0002403845
0.0002369303
0.0002336249
0.0002304128
0.0002272195
0.0002239702
0.0002205848
0.0002170414
0.0002133687
0.0002095094
0.0002055047
0.0002015465
0.0001999327
0.0001980214
0.0001975784
0.0001963575
0.0001939258
0.0001899281
0.0001789707
0.0001524893
0.0001217741
0.0001343936
0.0001597847
0.0001840336
0.0002054494
0.0002239614
0.0002388742
0.0002501957
0.0002584299
0.0002636242
0.0002668099
0.0002688772
0.000267239
0.0002657686
0.0002656198
0.0002670665
0.0002700398
0.0002743725
0.0002788491
0.0002816496
0.0002822644
0.0002812559
0.0002794402
0.0002775412
0.0002761137
0.0002755522
0.0002761387
0.0003632873
0.0003724649
0.0003841534
0.0003980633
0.000414244
0.000432763
0.000453396
0.0004760874
0.000500921
0.0005274804
0.0005551734
0.0005833501
0.0006112359
0.0006381446
0.0006635733
0.0006871311
0.0007085038
0.000727448
0.0007437876
0.0007574153
0.000768293
0.0007764527
0.0007819984
0.0007851048
0.0007860139
0.0007850262
0.0007824913
0.0007787896
0.0007743137
0.0007694472
0.0007645472
0.0007599309
0.0007558668
0.00075257
0.0007502016
0.0007488715
0.0007486427
0.0007495375
0.0007515441
0.0007546238
0.0007587167
0.0007637452
0.0007696137
0.0007762005
0.0007833399
0.0007907465
0.0007980917
0.0008056538
0.0008135456
0.0008216057
0.0008297507
0.0008379191
0.0008460284
0.000854698
0.0008622706
0.0008686238
0.0008761441
0.0008849074
0.0008948922
0.0009058657
0.0009175177
0.000929496
0.0009414938
0.0009532994
0.0009647767
0.0009758346
0.0009864132
0.0009964782
0.001006013
0.001015012
0.001023491
0.001031526
0.001039162
0.001046356
0.001053092
0.00105943
0.001065453
0.001071134
0.001076462
0.001081533
0.00108646
0.001091253
0.001095921
0.001100463
0.00110489
0.001109284
0.001113464
0.001117333
0.001120838
0.001123706
0.001126545
0.001129336
0.001131192
0.001132563
0.001135434
0.001140685
0.001147333
0.001154141
0.001160238
0.00116558
0.001170426
0.001174991
0.001179393
0.00118367
0.001187798
0.001191706
0.001195279
0.00119836
0.00120075
0.001202191
0.001202365
0.001200886
0.001197294
0.001191036
0.001181511
0.001168254
0.00115118
0.001130844
0.001108506
0.001085303
0.001061441
0.001036613
0.001010713
0.0009838709
0.0009562778
0.0009283172
0.0009003742
0.0008727749
0.0008457238
0.0008193901
0.0007940696
0.0007702254
0.000748471
0.0007294874
0.0007138705
0.0007020753
0.0006950557
0.0006950021
0.0005618327
4.254315e-05
4.582501e-05
5.098512e-05
5.714415e-05
6.382224e-05
7.076698e-05
7.785663e-05
8.503884e-05
9.316083e-05
0.0003548625
0.0004395929
0.0005339678
0.0006320728
0.0007303877
0.000826875
0.0009215642
0.001014958
0.001107689
0.001634673
0.001747774
0.001867932
0.00198833
0.002105996
0.002218328
0.002323139
0.002418629
0.002503833
0.002577591
0.002641219
0.002690955
0.002727199
0.002749631
0.002757515
0.002752114
0.002738031
0.002723148
0.002716897
0.002718523
0.002732635
0.002777893
0.002855438
0.002963138
0.003099371
0.00326035
0.003441309
0.003636828
0.003840279
0.004044215
0.004240715
0.004422827
0.004584882
0.004723159
0.004835994
0.004924436
0.004992188
0.005043794
0.005911344
0.005933113
0.005936978
0.005917218
0.005870452
0.005798658
0.005709269
0.005613056
0.005520844
0.005440824
0.005379748
0.005342256
0.005329702
0.00534068
0.005371454
0.005415731
0.00546643
0.005515685
0.005557442
0.005580737
0.005582764
0.005569426
0.005540789
0.005500444
0.005444724
0.005379875
0.005310478
0.005239427
0.005168813
0.005100156
0.005034613
0.004973319
0.004917696
0.004869619
0.004831568
0.004806803
0.004799469
0.004814241
0.004855585
0.004924848
0.005018693
0.005132714
0.005262273
0.005400983
0.00553485
0.005655988
0.005754009
0.005826479
0.005893696
0.005969545
0.006041187
0.006108432
0.006167625
0.006212493
0.006233551
0.006219881
0.006161532
0.006050337
0.005881737
0.005658192
0.005390532
0.005095848
0.004793013
0.004498639
0.004224817
0.003978613
0.003763327
0.003579811
0.003426087
0.003296815
0.003184924
0.003084577
0.00299307
0.002910783
0.002839903
0.002782892
0.002741353
0.002716077
0.002707469
0.00271566
0.002740579
0.002781961
0.002839283
0.002911673
0.002997786
0.003095682
0.003204384
0.003323254
0.003449228
0.003578295
0.003706513
0.003830057
0.003945377
0.004049449
0.004139737
0.00421474
0.004273771
0.004316336
0.004342
0.004350631
0.00434331
0.00432139
0.004286323
0.004239909
0.004183942
0.00412044
0.004051451
0.003979019
0.003905077
0.003831345
0.003759267
0.003689996
0.003624391
0.00356304
0.00350633
0.003454423
0.003407333
0.003364947
0.003327026
0.003293249
0.003263202
0.003236361
0.003212105
0.003189743
0.00316857
0.003147906
0.003127132
0.003105717
0.003083269
0.003059588
0.003034726
0.003008975
0.002982818
0.002956813
0.002931461
0.002907111
0.00288393
0.002861938
0.002841074
0.002821289
0.002802599
0.002785101
0.002768933
0.002754181
0.002740869
0.00272892
0.00271838
0.002712289
0.002568014
0.002413104
0.002313114
0.002244262
0.002193289
0.00215288
0.002118664
0.002087817
0.002058491
0.002029372
0.001999544
0.001968405
0.001935658
0.0019013
0.001865607
0.001829084
0.001792385
0.001756188
0.001721129
0.001687753
0.001656541
0.001627945
0.001602338
0.001579982
0.001561003
0.00154542
0.001533057
0.00152357
0.001516467
0.001511162
0.001507016
0.00150338
0.001499662
0.001495483
0.001490889
0.001486503
0.001482031
0.001473101
0.001455181
0.001423489
0.00136905
0.001281145
0.001158074
0.001042595
0.0009529276
0.0008746809
0.0008026187
0.0007419327
0.0006968046
0.0006683875
0.0006549513
0.0006440071
0.0006137168
0.0006021036
0.0006035601
0.0006171727
0.0006457379
0.0006906576
0.0007513756
0.000825575
0.0009079915
0.0009754944
0.001027219
0.001070075
0.001104045
0.001130713
0.001151876
0.001169705
0.00118645
0.001204353
0.001390243
0.001427487
0.001470286
0.001518096
0.001570818
0.001628366
0.001690437
0.001756354
0.001825083
0.001895374
0.001965737
0.002034974
0.002103699
0.002171953
0.002238087
0.002300747
0.00235887
0.002411636
0.002458419
0.00249877
0.002532403
0.002559189
0.002579165
0.002592524
0.002599624
0.002600974
0.002597225
0.002589153
0.002577624
0.002563563
0.002547904
0.002531559
0.002515382
0.00250014
0.002486492
0.002474981
0.002466022
0.002459908
0.002456814
0.002456812
0.00245988
0.002465916
0.002474752
0.002486159
0.002499844
0.002515437
0.002532633
0.002551289
0.002571247
0.002592243
0.002614047
0.002636407
0.002659245
0.002682564
0.002705407
0.002727625
0.002749636
0.002771632
0.002793714
0.002815886
0.002838058
0.002860087
0.002881856
0.002903294
0.002924351
0.002944982
0.002965144
0.002984789
0.003003869
0.00302234
0.003040174
0.003057352
0.003073845
0.003089614
0.003104638
0.003118921
0.003132469
0.003145283
0.003157393
0.003168879
0.003179819
0.003190276
0.003200326
0.003210026
0.003219394
0.003228408
0.003236993
0.003245075
0.003252611
0.003259611
0.003266136
0.003272179
0.003277855
0.003283791
0.00329098
0.003299903
0.003310224
0.003321233
0.003332366
0.003343364
0.003354155
0.003364734
0.003375092
0.003385183
0.003394905
0.003404089
0.003412491
0.003419786
0.003425554
0.003429277
0.003430329
0.003427963
0.003421317
0.003409445
0.003391399
0.003366336
0.003333749
0.0032939
0.003247966
0.003197098
0.003141852
0.003082365
0.003018719
0.002951251
0.002880595
0.00280752
0.002732685
0.00265651
0.002579264
0.002501261
0.002423147
0.002346023
0.002271488
0.002201709
0.002138755
0.002084529
0.002040809
0.002010415
0.001991128
4.151908e-05
5.397423e-05
7.419182e-05
0.0001011274
0.0001371992
0.000188222
0.0002650347
0.0003129067
0.0003574572
0.0004286709
0.001462979
0.001613451
0.001763755
0.001912335
0.002059604
0.00220394
0.002343588
0.002478536
0.002615181
0.00402262
0.004432939
0.004733282
0.004937183
0.005069885
0.005155156
0.005210889
0.005248883
0.005276642
0.005298317
0.005327217
0.005378518
0.005446197
0.005522896
0.005599566
0.00566713
0.005718086
0.005748346
0.005761912
0.005661112
0.005584473
0.00551658
0.005450034
0.005383146
0.005319844
0.005266248
0.005227345
0.005204649
0.005197114
0.005201588
0.005217316
0.005243828
0.005282265
0.005335096
0.005405029
0.005493959
0.005601157
0.0066119
0.00674451
0.006870398
0.006985748
0.007087194
0.007172059
0.007238905
0.007287924
0.007320463
0.007337543
0.007338991
0.007323473
0.007288584
0.007233523
0.007159426
0.007070911
0.006975832
0.00688299
0.006799765
0.006738055
0.006707768
0.006717163
0.006770518
0.0068685
0.007008456
0.007184829
0.007390323
0.00761527
0.007847433
0.008075078
0.00828735
0.008475702
0.008633992
0.00875862
0.008850004
0.008913278
0.008955694
0.008985582
0.008979968
0.008962628
0.008926916
0.008866227
0.008778871
0.008671104
0.00855626
0.008439449
0.008324484
0.008218408
0.008125846
0.008049624
0.007993844
0.007963257
0.007953038
0.007955821
0.007963728
0.007969187
0.007966102
0.007948667
0.007915469
0.007869245
0.00781488
0.007747924
0.007668555
0.007582787
0.007495416
0.007409444
0.007326894
0.007249263
0.007177684
0.007113196
0.007057173
0.007011632
0.006979445
0.00696431
0.006970604
0.007002855
0.007065137
0.007158764
0.007280308
0.007425068
0.007582424
0.007738881
0.007885893
0.008020746
0.008139502
0.00824517
0.008347373
0.008449404
0.008542479
0.008621208
0.008682418
0.008719353
0.008723192
0.008686156
0.008601699
0.008463665
0.008267315
0.008014142
0.00771339
0.007379716
0.007030511
0.006683168
0.006352443
0.006048647
0.005777327
0.005539281
0.005331076
0.005146484
0.004978835
0.004823415
0.004678664
0.004545856
0.004427878
0.004327901
0.004248594
0.004191961
0.004159415
0.004151852
0.004169737
0.004213107
0.004281525
0.004373956
0.004488571
0.004622539
0.004771832
0.004931311
0.0050977
0.005268118
0.005438478
0.005604354
0.005762042
0.005908602
0.006040831
0.006155135
0.00624965
0.006323549
0.006376509
0.006408615
0.00642069
0.006414116
0.006390442
0.006351643
0.006299881
0.006237611
0.006167275
0.006091244
0.006011704
0.00593058
0.005849531
0.005769976
0.005693092
0.005619826
0.005550938
0.005486999
0.005428342
0.005375091
0.005327158
0.005284276
0.005246009
0.00521171
0.005180581
0.005151731
0.005124261
0.005097334
0.005070213
0.005042344
0.005013326
0.004983072
0.004951887
0.004920315
0.004889095
0.004858937
0.004830361
0.004803625
0.004778721
0.004755452
0.004733527
0.004712688
0.004692808
0.004673887
0.004656024
0.004639252
0.004623559
0.004608618
0.004593962
0.004578364
0.004549557
0.004528597
0.004510785
0.004493378
0.004474917
0.00445465
0.004432101
0.004406875
0.004378591
0.004346891
0.004311488
0.004272224
0.004229114
0.004182371
0.00413242
0.004079857
0.004025436
0.003970043
0.003914644
0.003860241
0.003807862
0.003758482
0.003712904
0.003671701
0.003635292
0.003603845
0.00357727
0.003555238
0.003537227
0.003522562
0.003510472
0.003500163
0.003490849
0.003481766
0.003472115
0.003460725
0.003445192
0.00342181
0.003386433
0.003333911
0.003258425
0.003156522
0.003033965
0.00289858
0.002750347
0.002587299
0.002411207
0.002227452
0.00204308
0.001865448
0.001701018
0.00155498
0.001431588
0.001333817
0.001262285
0.001215474
0.001190363
0.001107154
0.001046229
0.001024721
0.001034138
0.001069272
0.001128381
0.001209433
0.001312042
0.001429471
0.001558807
0.001637411
0.001700691
0.001766381
0.001833459
0.001903002
0.001975798
0.002053236
0.002135964
0.00222401
0.002316938
0.00241391
0.002513697
0.002614751
0.002715343
0.002813695
0.002907943
0.002997426
0.003082982
0.003163918
0.003239675
0.003309798
0.003373896
0.003431635
0.003482742
0.003527018
0.003564357
0.003594774
0.003618409
0.003635547
0.003646618
0.003652201
0.003653013
0.003649887
0.003643732
0.003635498
0.003626139
0.003616578
0.003607672
0.003600188
0.003594781
0.003591982
0.003592191
0.003595679
0.003602595
0.003612972
0.003626746
0.003643757
0.003663766
0.003686465
0.003711535
0.003738709
0.00376773
0.0037983
0.003830124
0.003862909
0.003896379
0.003930265
0.003964228
0.00399813
0.004031874
0.00406535
0.004098513
0.004131335
0.004163745
0.004195639
0.00422691
0.00425748
0.004287297
0.004316326
0.004344543
0.004371926
0.004398458
0.004424123
0.00444891
0.004472813
0.004495822
0.004517925
0.004539108
0.004559369
0.004578715
0.004597156
0.004614714
0.004631437
0.004647388
0.004662635
0.004677259
0.004691334
0.004704905
0.004717983
0.004730541
0.004742556
0.00475402
0.004764948
0.004775414
0.004785528
0.004795457
0.004805545
0.004816317
0.004828187
0.004841197
0.004855071
0.004869451
0.004884064
0.004898746
0.004913395
0.00492792
0.004942216
0.004956131
0.004969454
0.004981898
0.004993088
0.005002554
0.005009713
0.00501387
0.005014205
0.005009785
0.004999592
0.004982586
0.004957795
0.004924457
0.004882221
0.004831311
0.004772348
0.004706043
0.004632858
0.004553165
0.004467568
0.004377032
0.004282721
0.004185544
0.004085918
0.003983881
0.003879399
0.003772777
0.003664932
0.003557691
0.003453682
0.003356417
0.003269045
0.003194261
0.003134491
0.003091866
4.312424e-05
7.250504e-05
0.0001569854
0.0005514907
0.0009620236
0.001787898
0.002396006
0.003133345
0.003959346
0.004644248
0.005158508
0.005580663
0.0059261
0.006201786
0.006455943
0.006677964
0.006880444
0.007062255
0.007241672
0.007426341
0.007634153
0.007798379
0.00765839
0.007604322
0.007616946
0.007710591
0.007892774
0.008161415
0.008527656
0.009058222
0.01
0.01
0.01
0.01
0.01
0.01
0.01
0.01
0.01
0.01
0.01
0.01
0.01
0.01
0.01
0.01
0.01
0.01
0.01
0.01
0.01
0.01
0.01
0.01
0.01
0.01
0.009998096
0.009862739
0.009745357
0.009647359
0.009568314
0.00950652
0.009461481
0.009434645
0.009428734
0.009446725
0.009490773
0.009562148
0.009630881
0.009711341
0.00979386
0.009871617
0.00993929
0.009993148
0.01
0.01
0.01
0.01
0.01
0.009984607
0.009928983
0.009858228
0.009772074
0.009671434
0.009560192
0.009446598
0.009343225
0.009257109
0.009198004
0.009182621
0.009217063
0.009301311
0.009431114
0.009599354
0.00979772
0.01
0.01
0.01000001
0.01000001
0.01
0.01
0.01
0.01000001
0.01000001
0.01000002
0.01000004
0.01000004
0.01000002
0.01000001
0.01000001
0.01000001
0.01000001
0.01000001
0.01
0.01
0.01
0.01
0.01
0.01
0.01
0.009994977
0.009970452
0.009946548
0.00991775
0.009880009
0.009830597
0.0097699
0.009702603
0.009627366
0.009543387
0.009453339
0.009361143
0.009270406
0.009183632
0.009102628
0.009028903
0.008963773
0.0089085
0.008864631
0.008834222
0.008819865
0.008824552
0.008851511
0.008903901
0.008984076
0.009091837
0.009222784
0.009369073
0.009520451
0.009667417
0.009804929
0.009932895
0.01
0.01
0.01
0.01
0.01
0.01
0.01000002
0.01000015
0.01000162
0.01000311
0.0100027
0.01000094
0.009913522
0.009667361
0.009383875
0.009072876
0.008745754
0.008415458
0.008095124
0.007794287
0.007518003
0.007267094
0.007038968
0.006829106
0.006633097
0.006448265
0.006274452
0.006113779
0.005969651
0.005845753
0.00574557
0.005671987
0.00562711
0.005612351
0.00562846
0.005675566
0.005753113
0.00585964
0.005992471
0.006147532
0.006319506
0.006502513
0.006690922
0.006879523
0.007064489
0.007242789
0.00741135
0.007566951
0.007706991
0.007829448
0.007932627
0.008015377
0.008077294
0.008118573
0.008139875
0.00814224
0.00812712
0.008096479
0.008052615
0.00799794
0.007934832
0.007865385
0.007791577
0.007715084
0.007637434
0.00756006
0.007484249
0.007411124
0.007341636
0.007276511
0.007216306
0.0071613
0.007111517
0.007066719
0.007026407
0.006989841
0.006956095
0.00692417
0.006893117
0.006862108
0.006830472
0.006797756
0.006763795
0.006728828
0.006693514
0.006658782
0.006625538
0.006594424
0.006565705
0.006539305
0.006514903
0.006492055
0.006470301
0.006449295
0.006428872
0.006409032
0.006389819
0.006371199
0.006353004
0.006334841
0.006316116
0.006295974
0.006272773
0.006246586
0.006217695
0.00618663
0.006153973
0.006120065
0.006084863
0.006047981
0.006008912
0.005967099
0.005922075
0.00587353
0.005821331
0.005765541
0.005706487
0.00564463
0.005580651
0.005515457
0.00545014
0.005385869
0.005323885
0.005265299
0.005211014
0.005161666
0.005117672
0.005079168
0.005046005
0.005017756
0.004993773
0.004973252
0.004955303
0.004939051
0.00492359
0.004908094
0.004891714
0.004873245
0.004850496
0.00482025
0.004778904
0.004722284
0.004645925
0.004547976
0.004430835
0.004296272
0.004142511
0.003967445
0.003771218
0.003555959
0.003325497
0.003084872
0.002840442
0.002599507
0.002370278
0.002160743
0.001977041
0.001823126
0.0017013
0.001612231
0.001554671
0.001525881
0.001521246
0.001497608
0.001411614
0.001380931
0.001392508
0.001435079
0.001506029
0.001605525
0.001731515
0.001875264
0.002030599
0.002118464
0.002212567
0.002313499
0.002420941
0.002534122
0.002652015
0.002773286
0.002896347
0.003019439
0.00314076
0.003258594
0.003371377
0.003477738
0.003577577
0.003671541
0.00375981
0.003842563
0.003919904
0.003991845
0.004058313
0.004119183
0.004174322
0.004223625
0.004267057
0.004304675
0.00433664
0.004363241
0.004384911
0.004402216
0.004415831
0.004426511
0.004435059
0.004442305
0.004449067
0.004456123
0.00446419
0.004473894
0.004485763
0.004500207
0.004517525
0.004537896
0.004561389
0.00458797
0.004617514
0.004649814
0.004684615
0.004721662
0.004760694
0.004801413
0.004843526
0.004886744
0.004930765
0.004975325
0.005020128
0.005064883
0.005109399
0.005153551
0.005197254
0.005240431
0.005282987
0.005324806
0.005365769
0.005405776
0.00544475
0.00548264
0.005519409
0.005555033
0.005589499
0.005622799
0.005654931
0.005685901
0.005715717
0.005744384
0.005771906
0.005798296
0.00582357
0.005847748
0.005870853
0.005892928
0.005914029
0.005934224
0.005953588
0.005972206
0.005990149
0.006007465
0.006024181
0.006040315
0.006055894
0.006070967
0.006085625
0.00609998
0.006114164
0.00612838
0.006142954
0.006158221
0.006174347
0.006191277
0.006208826
0.006226791
0.006245007
0.00626334
0.006281667
0.006299848
0.00631771
0.006335023
0.006351487
0.006366719
0.006380238
0.006391459
0.00639968
0.006404082
0.006403736
0.006397621
0.006384676
0.006363861
0.006334234
0.006295029
0.006245766
0.006186385
0.006117223
0.006038695
0.005951376
0.005856253
0.005754814
0.005648741
0.005539255
0.005426762
0.005311005
0.005191492
0.005068009
0.004941076
0.004812317
0.004684488
0.004561624
0.00444801
0.004347822
0.004264288
0.004202481
2.433828e-05
3.969537e-05
6.064618e-05
0.0002703322
0.0004475108
0.0007815619
0.001108467
0.001406726
0.001777477
0.002133117
0.002511905
0.00299311
0.003554077
0.0041737
0.004844743
0.00566962
0.007237405
0.00781644
0.008346301
0.008786188
0.009131299
0.00934636
0.009479565
0.009557351
0.009592257
0.009590892
0.009040676
0.00848367
0.007982237
0.007551419
0.007226464
0.006982032
0.006847966
0.006842747
0.006954435
0.007163744
0.00748959
0.007954755
0.008568786
0.009335241
0.01
0.01
0.01
0.01
0.01
0.01
0.01
0.01
0.01
0.01
0.01
0.01
0.01
0.01
0.01
0.01
0.01
0.01
0.01
0.01
0.01
0.01
0.01
0.01
0.01
0.01
0.01
0.01
0.01
0.01
0.01
0.01
0.01
0.01
0.01
0.01
0.01
0.01
0.01
0.01
0.01
0.01
0.01
0.01
0.01
0.01
0.01
0.01
0.01
0.01
0.01
0.01000001
0.01000002
0.01000006
0.01000013
0.01000011
0.01000003
0.01
0.01
0.01
0.01
0.01
0.01
0.01
0.01
0.01000001
0.01000004
0.01000009
0.01000006
0.01000002
0.01
0.01
0.01000002
0.01000007
0.01000015
0.01000011
0.01000005
0.01000005
0.01000011
0.01000036
0.01000081
0.0100009
0.01000045
0.01000007
0.01
0.01
0.01
0.01
0.01
0.01
0.01
0.01
0.01000003
0.01000007
0.01000005
0.01000001
0.01
0.01
0.01
0.01
0.01
0.01
0.01000001
0.01000004
0.01000029
0.01000162
0.01000194
0.01000134
0.0100003
0.01000002
0.01
0.01
0.01
0.01
0.01
0.01
0.01
0.01
0.01000001
0.01000002
0.01000001
0.01000001
0.01
0.01
0.01
0.01
0.01000001
0.01000006
0.01000085
0.01000567
0.01000692
0.01000438
0.01000087
0.01000013
0.01000006
0.01000003
0.01000007
0.01000106
0.01000206
0.009939323
0.009661522
0.009388794
0.00912753
0.008880398
0.00864813
0.008429764
0.008223047
0.008025901
0.007837617
0.007659501
0.007494637
0.007347107
0.007221201
0.007120862
0.007049268
0.007008665
0.007000399
0.007025032
0.00708246
0.007171762
0.007290756
0.007435583
0.007600697
0.007779517
0.007965492
0.008153004
0.008337458
0.008515189
0.008683355
0.008839567
0.008982317
0.009110434
0.009222396
0.009316696
0.009392332
0.009449188
0.009487711
0.009508454
0.009512162
0.009500117
0.009474279
0.00943695
0.00939039
0.009336574
0.00927717
0.009213486
0.009146827
0.009078453
0.009009705
0.008941909
0.008876149
0.008813238
0.008753933
0.008698959
0.00864865
0.008602997
0.008561699
0.008524145
0.008489432
0.008456484
0.008424232
0.00839178
0.008358448
0.008323777
0.008287578
0.008250035
0.008211855
0.008174244
0.008138512
0.008105581
0.008075723
0.008048648
0.008023768
0.008000439
0.007978091
0.007956262
0.007934673
0.00791326
0.007892101
0.007871226
0.007850521
0.007829707
0.007808274
0.00778548
0.007760427
0.007732235
0.007700398
0.007665075
0.007627135
0.007587622
0.007547093
0.007505456
0.007462238
0.007416851
0.007368751
0.007317532
0.007262987
0.007205029
0.007143669
0.007079163
0.007011978
0.006942709
0.006872315
0.006802058
0.006733254
0.006667168
0.006604927
0.006547383
0.006495093
0.006448359
0.006407206
0.006371325
0.006340132
0.00631282
0.006288454
0.006266069
0.00624472
0.006223577
0.006202074
0.006179753
0.006155695
0.006127995
0.006093865
0.006050079
0.005993137
0.005919873
0.005828822
0.005720222
0.00559378
0.005447605
0.005279521
0.00508818
0.004873301
0.004635764
0.004377847
0.004103304
0.003817341
0.003527047
0.00324065
0.002966656
0.002713233
0.002487499
0.002294865
0.002138521
0.002019106
0.00193478
0.001881715
0.001855891
0.001852855
0.001867795
0.001830127
0.001756119
0.001739996
0.001769544
0.001837934
0.001940604
0.00207322
0.002230637
0.002399588
0.002556606
0.002674843
0.002799321
0.002928331
0.003059906
0.003191969
0.003322487
0.003449648
0.003571961
0.00368829
0.003797852
0.003901003
0.003998423
0.004090748
0.004178483
0.004261952
0.00434129
0.004416483
0.004487413
0.004553925
0.004615878
0.004673186
0.004725836
0.004773898
0.004817575
0.004857206
0.004893239
0.004926206
0.004956707
0.004985383
0.005012894
0.005039898
0.005067022
0.005094845
0.005123881
0.005154563
0.005187234
0.005222143
0.005259442
0.00529919
0.005341357
0.005385835
0.005432455
0.005481023
0.005531328
0.005583112
0.005636112
0.005690079
0.005744742
0.005799838
0.005855085
0.005910208
0.005964996
0.006019294
0.006072979
0.006125949
0.006178101
0.006229324
0.0062795
0.006328527
0.006376318
0.006422807
0.006467946
0.0065117
0.006554049
0.006594979
0.00663449
0.006672589
0.006709286
0.006744597
0.006778538
0.006811129
0.006842396
0.006872365
0.006901067
0.006928543
0.006954847
0.006980043
0.007004208
0.007027429
0.007049796
0.007071388
0.007092273
0.007112508
0.007132154
0.007151285
0.007169994
0.007188383
0.007206556
0.007224664
0.007242934
0.007261628
0.007280932
0.007300895
0.007321449
0.007342475
0.007363847
0.007385442
0.007407132
0.007428776
0.007450197
0.007471173
0.007491412
0.007510547
0.00752812
0.007543571
0.007556235
0.007565331
0.007569975
0.007569186
0.007561922
0.007547115
0.007523712
0.007490719
0.007447288
0.007392831
0.007327086
0.007250117
0.007162442
0.007065316
0.006960781
0.006851134
0.006737996
0.006621787
0.006501962
0.006377542
0.006247752
0.006112597
0.005973314
0.005832468
0.005694108
0.0055631
0.005444874
0.005344037
0.005268522
2.323345e-05
3.589499e-05
7.230173e-05
0.0002215712
0.00035878
0.0005781708
0.0007437824
0.0009317499
0.001152217
0.001364804
0.00161178
0.001930409
0.002288458
0.002707103
0.003242182
0.004282345
0.004750806
0.005243404
0.005750533
0.006268827
0.006801975
0.007339994
0.007865321
0.008363338
0.008821032
0.009229138
0.009599326
0.009954499
0.01
0.01
0.01
0.01
0.01
0.009649924
0.009046798
0.008447866
0.007874617
0.007338937
0.006902253
0.006556567
0.006322787
0.006200321
0.006207709
0.006350141
0.006657245
0.007144572
0.007831163
0.008715417
0.009751098
0.01
0.01
0.01
0.01
0.01
0.01
0.01
0.01
0.01
0.01
0.01
0.01
0.01
0.01
0.01
0.01
0.01
0.01
0.01
0.01
0.01
0.01
0.01
0.01
0.01
0.01
0.01
0.01
0.01
0.01
0.01
0.01
0.01
0.01
0.01
0.01
0.01
0.01
0.01
0.01
0.01
0.01
0.01
0.01
0.01
0.01
0.01
0.01
0.01
0.01000001
0.01000002
0.01000011
0.01000081
0.01000314
0.01000272
0.01000081
0.01000007
0.01
0.01
0.01
0.01
0.01
0.01
0.01
0.01
0.01000004
0.01000022
0.01000037
0.01000022
0.01000005
0.01000001
0.01000001
0.01000005
0.01000021
0.01000028
0.01000019
0.01000017
0.01000031
0.01000121
0.0100057
0.01001185
0.01000749
0.01000185
0.01000014
0.01
0.01
0.01
0.01
0.01
0.01
0.01
0.01000001
0.01000011
0.01000016
0.01000011
0.01000002
0.01000001
0.01000001
0.01000001
0.01000001
0.01000002
0.01000004
0.01000023
0.01000304
0.01000571
0.01000495
0.01000171
0.01000026
0.01000005
0.01000001
0.01
0.01
0.01
0.01
0.01
0.01
0.01
0.01000002
0.01000003
0.01000002
0.01000002
0.01000002
0.01000002
0.01000002
0.01000002
0.01000001
0.01000002
0.01000017
0.01000254
0.01000864
0.01000811
0.01000393
0.01000093
0.01000082
0.01000587
0.01000989
0.0100081
0.01000234
0.01000033
0.01000031
0.01000036
0.01000079
0.01000218
0.01000216
0.009909182
0.009711304
0.009520384
0.009335813
0.009157136
0.008984656
0.008820954
0.008670345
0.008537726
0.00842779
0.008344456
0.008290553
0.008267706
0.008276457
0.008316631
0.008387671
0.008488328
0.008615743
0.008764743
0.008927933
0.009098202
0.0092694
0.009437253
0.009598924
0.009752372
0.009896373
0.01000052
0.01000072
0.01000055
0.01000014
0.01000001
0.01000001
0.01000001
0.01000003
0.01000005
0.01000005
0.01000005
0.01000028
0.01000044
0.01000038
0.01000013
0.01000002
0.01000001
0.01000001
0.01000004
0.01000019
0.01000021
0.01000012
0.009980166
0.009929703
0.009883399
0.009841337
0.009803256
0.009768688
0.009736859
0.009706636
0.009676741
0.009646052
0.009613826
0.009579682
0.009543516
0.009505489
0.009466132
0.009426656
0.009388877
0.009354445
0.009324033
0.009297178
0.009272752
0.009249621
0.009227017
0.009204524
0.009181915
0.009159107
0.009136199
0.009113355
0.009090587
0.009067716
0.009044383
0.009019841
0.008993178
0.008963472
0.008930048
0.008892638
0.008851707
0.008808603
0.008764747
0.008720678
0.008675983
0.008629821
0.008581461
0.008530464
0.008476573
0.008419723
0.008359893
0.00829698
0.008231096
0.008162665
0.008092278
0.008020942
0.007950092
0.007881252
0.007815755
0.007754637
0.007698585
0.007647969
0.007602884
0.007563122
0.007528164
0.007497212
0.007469266
0.007443252
0.007418154
0.00739307
0.007367362
0.007340986
0.007314148
0.007286333
0.007255711
0.007219459
0.007174451
0.007117683
0.007046765
0.006960561
0.006858916
0.00674125
0.006605745
0.006449983
0.006271808
0.006069752
0.005843227
0.005592627
0.005319454
0.005026693
0.004718883
0.004402177
0.004083968
0.003772341
0.003475366
0.003200679
0.002954998
0.002743318
0.002568048
0.002429402
0.002324763
0.002251435
0.002206132
0.002185389
0.00218572
0.002203761
0.002235647
0.002162954
0.002134153
0.002166874
0.002247648
0.002364162
0.002506271
0.002666732
0.002836964