/*--------------------------------*- C++ -*----------------------------------*\
| =========                 |                                                 |
| \\      /  F ield         | foam-extend: Open Source CFD                    |
|  \\    /   O peration     | Version:     3.1                                |
|   \\  /    A nd           | Web:         http://www.extend-project.de       |
|    \\/     M anipulation  |                                                 |
\*---------------------------------------------------------------------------*/
FoamFile
{
    version     2.0;
    format      ascii;
    class       volScalarField;
    location    "15.5";
    object      omega;
}
// * * * * * * * * * * * * * * * * * * * * * * * * * * * * * * * * * * * * * //

dimensions      [0 0 -1 0 0 0 0];

internalField   nonuniform List<scalar> 
119952
(
297.2704
378.8766
359.3683
312.2564
279.3125
280.7644
284.1744
288.5387
293.4548
298.7189
304.2565
310.0355
316.1046
322.6575
329.9981
338.4384
348.1407
358.9713
370.971
384.6678
322.1069
322.3708
327.4475
274.9591
271.8549
271.1643
270.7101
270.1175
266.7089
136.9808
612.6584
507.3061
427.1169
371.1651
330.7807
300.6752
277.2721
258.488
242.8967
224.7798
184.1055
156.2917
137.5077
124.0332
113.9072
106.0039
99.63492
94.36443
89.85583
69.87104
67.10026
64.46584
62.06602
59.99162
58.23182
56.73684
55.40489
54.11593
52.79061
51.38631
49.7976
48.05923
46.23921
44.40773
42.62962
40.95184
39.39669
37.98689
37.41607
37.07598
36.60892
36.20427
35.90619
35.74424
35.67483
35.62682
35.58281
35.54247
35.50468
35.46858
35.42319
35.34784
35.21782
35.01203
34.72318
34.3368
33.82584
33.14476
32.38401
31.61397
30.78545
29.967
29.31806
28.82057
28.5358
28.6845
29.94155
32.47608
33.16468
33.50175
33.60851
33.61667
33.57346
33.53425
33.57347
33.78241
34.24598
35.03821
36.201
37.69611
39.38192
41.0662
42.59739
43.90451
44.98666
45.86623
46.51503
46.83379
46.76251
46.38207
45.84433
45.24051
44.56627
43.75794
42.75514
41.55372
40.19883
38.7413
37.23064
35.71351
34.23153
32.81948
31.50423
30.30229
29.22138
28.27991
27.49226
26.86221
26.38347
26.04455
25.83804
25.75633
25.78013
25.89075
26.07821
26.32975
26.61838
27.00691
27.49646
28.03704
28.60352
29.19101
29.78695
30.38973
30.99008
31.57912
32.14635
32.68087
33.17178
33.61033
33.9909
34.31113
34.57203
34.77692
34.93137
35.04326
35.12029
35.17039
35.20061
35.21736
35.22729
35.23767
35.256
35.2896
35.34525
35.42906
35.54624
35.70049
35.89312
36.12208
36.38145
36.66207
36.95362
37.24746
37.53885
37.82735
38.1153
38.40509
38.69629
38.98453
39.26271
39.52348
39.76339
39.98434
40.19277
40.38395
40.49987
42.50288
46.53718
49.74534
52.1355
54.02812
55.5258
56.7512
57.81582
58.77203
59.67529
60.55859
61.44228
62.33816
63.24745
64.16278
65.06727
65.93843
66.75662
67.51166
68.20455
68.84236
69.432
69.97945
70.49053
70.97296
71.4386
71.90504
72.39656
72.93765
73.5561
74.26407
75.07152
76.00723
77.07333
78.16878
78.17457
77.10574
76.34208
75.89986
75.76983
76.45961
80.78787
92.06139
107.221
111.7168
107.0194
98.42033
89.76513
82.19809
75.81722
70.28191
65.23555
60.53389
56.18488
52.29163
48.90695
46.00602
43.50792
41.3424
39.46697
37.81541
36.36719
35.14968
34.12467
33.25816
32.52494
31.90632
31.38325
30.93518
30.54112
24.98484
24.4889
23.88537
23.23441
22.58577
21.965
21.39397
20.87771
20.41229
19.99544
19.62525
19.29753
19.00864
18.75416
18.53031
18.33403
18.1625
18.01322
17.88389
17.7724
17.67683
17.59545
17.5267
17.46912
17.4213
17.3818
17.3491
17.32159
17.2976
17.27548
17.25363
17.23059
17.20509
17.1761
17.14286
17.10491
17.06205
17.01434
16.96202
16.90553
16.84541
16.7823
16.71709
16.65119
16.58738
16.52888
16.47412
16.41937
16.36439
16.30986
16.25617
16.20411
16.15416
16.11112
16.09366
16.02502
15.93241
15.81703
15.68428
15.54276
15.40092
15.26565
15.14117
15.02917
14.9296
14.84137
14.76281
14.69205
14.62734
14.5672
14.5103
14.45509
14.40064
14.34685
14.29357
14.24028
14.18652
14.1326
14.07861
14.02391
13.96798
13.91088
13.85261
13.79354
13.73351
13.67219
13.61122
13.55055
13.4919
13.43778
13.38319
13.33029
13.28523
13.24435
13.19389
13.12918
13.05609
12.98192
12.91128
12.84424
12.77973
12.71684
12.65504
12.59415
12.53421
12.47552
12.41854
12.36393
12.31253
12.26551
12.22437
12.19103
12.16792
12.15832
12.16606
12.19443
12.24447
12.31269
12.39126
12.47483
12.56421
12.66267
12.77128
12.88948
13.01591
13.14769
13.28156
13.41449
13.54516
13.67322
13.79632
13.9087
14.00068
14.05821
14.06546
14.00209
13.83246
13.5285
13.39335
781.4314
632.4425
538.9301
473.4769
423.5757
383.723
350.7575
323.0144
298.3628
254.2602
209.1117
179.6747
159.2895
144.3232
132.8187
123.5679
115.8948
109.3836
86.12003
81.70971
77.55584
73.75255
70.37097
67.42694
64.88705
62.69978
60.80462
59.14378
57.72974
56.42896
55.19344
54.03484
52.96184
51.96262
50.99692
50.00134
48.90737
47.89798
46.87724
45.56135
44.04675
42.43892
40.81777
39.24974
37.78349
36.44775
35.25904
34.22275
33.32851
32.55883
31.8948
31.31988
30.82057
30.38515
30.00262
29.66407
27.35029
27.09349
26.86624
26.6717
26.51433
26.39316
26.29731
26.2068
26.09899
25.95518
25.76137
25.51104
25.20675
24.85856
24.47976
24.08609
23.69135
23.30798
22.94354
22.60932
22.30842
22.03549
21.78762
21.55976
21.36399
21.18931
21.02727
20.87261
20.72184
20.57285
20.42462
20.27659
20.12797
19.97744
19.823
19.66193
19.4907
19.3057
19.10399
18.88833
18.67109
18.46479
18.27372
18.10215
17.97143
17.89324
17.88358
17.95844
18.09269
18.23365
18.38912
18.5515
18.71119
18.86398
19.01545
19.17891
19.3706
19.6095
19.91551
20.30175
20.76656
21.29022
21.83792
22.36688
22.83513
23.20944
23.46828
23.60209
23.61607
23.53202
23.38119
23.19016
22.971
22.72089
22.4286
22.08305
21.67895
21.21674
20.70147
20.14222
19.55071
18.9402
18.32463
17.71796
17.13365
16.58385
16.07397
15.60582
15.18294
14.80806
14.48224
14.20552
13.9772
13.79607
13.66064
13.56812
13.51388
13.4934
13.50315
13.54037
13.60083
13.68023
13.77497
13.88138
13.99617
14.11574
14.23634
14.35394
14.46449
14.56426
14.65012
14.71973
14.77159
14.80506
14.82014
14.81748
14.79819
14.76371
14.71577
14.65626
14.58719
14.51077
14.42933
14.34528
14.26099
14.17861
14.10008
14.0271
13.96099
13.90259
13.85205
13.80872
13.77127
13.73806
13.70749
13.67843
13.65028
13.62294
13.59654
13.57115
13.54655
13.52219
13.4973
13.47126
13.44355
13.41408
13.38198
13.33278
13.69213
14.10215
14.38437
14.58158
14.7237
14.82957
14.91195
14.98016
15.04077
15.09881
15.15792
15.2206
15.28813
15.36051
15.43651
15.51374
15.58904
15.65903
15.72046
15.7705
15.80656
15.82608
15.82697
15.80791
15.76844
15.70897
15.63124
15.53829
15.4341
15.32324
15.2104
15.10008
14.99595
14.89957
14.80898
14.71946
14.63595
14.58914
14.60996
14.74061
15.07064
15.7388
16.83937
17.98889
19.01829
20.19494
21.65775
23.34691
25.14725
26.92756
28.57051
29.96654
30.98599
31.47776
31.34799
30.57202
29.16647
27.26562
25.10469
22.92489
20.89652
19.09877
17.54611
16.226
15.1119
14.17961
13.40791
12.77658
12.26622
11.85791
10.98244
10.6776
10.42218
10.19918
9.996558
9.806051
9.623304
9.447349
9.279098
9.120564
8.974762
8.843631
8.724169
8.614732
8.516395
8.429272
8.35273
8.28566
8.226726
8.174541
8.127816
8.085453
8.046593
8.010632
7.977192
7.946082
7.917238
7.890675
7.866436
7.844545
7.824974
7.807619
7.792288
7.778716
7.766575
7.755499
7.745112
7.735051
7.72499
7.714654
7.703841
7.692432
7.680413
7.667859
7.654855
7.641318
7.626943
7.611673
7.595691
7.5791
7.561995
7.54445
7.526707
7.50967
7.492474
7.473398
7.453374
7.432577
7.410702
7.387494
7.3629
7.336987
7.309861
7.281653
7.252522
7.222632
7.19215
7.161228
7.129998
7.098556
7.066955
7.035243
7.003496
6.971761
6.94004
6.908322
6.876633
6.844979
6.813288
6.781458
6.749416
6.717091
6.684406
6.651328
6.617886
6.584225
6.550497
6.516851
6.483449
6.450242
6.41742
6.385412
6.353877
6.321578
6.28744
6.251472
6.214312
6.176657
6.138884
6.101125
6.063448
6.025905
5.988557
5.951485
5.914802
5.878659
5.843256
5.808847
5.775749
5.744349
5.715117
5.688616
5.66551
5.646525
5.632354
5.623483
5.619869
5.620596
5.624193
5.629766
5.637239
5.646829
5.658692
5.672832
5.689138
5.707562
5.728293
5.751742
5.778374
5.80837
5.841259
5.875579
5.908546
5.936108
5.953894
5.958189
5.946416
5.920366
5.882074
633.9712
568.7488
515.341
475.9659
445.1639
421.7533
403.5866
388.1366
377.7937
374.152
181.5606
176.9099
172.627
168.4643
164.3936
160.4005
156.468
152.4999
148.0252
111.948
102.77
96.67463
92.60274
89.63029
87.2161
85.08922
83.12074
81.24633
79.45628
77.49937
75.27687
72.96682
70.72177
68.63725
66.75408
65.07365
63.57368
62.19529
61.80629
61.06134
60.11807
59.08156
57.99299
56.86058
55.67631
54.43873
53.16336
51.87453
50.58376
49.30791
48.04701
46.79619
45.55317
44.32017
43.10788
41.93746
37.88229
37.02156
36.25416
35.56973
34.9582
34.41036
33.91759
33.47088
33.06195
32.6845
32.33634
32.01864
31.73147
31.4724
31.23602
31.00973
30.77511
30.51287
30.20809
29.84263
29.41012
28.91432
28.3697
27.79914
27.22862
26.68221
26.17865
25.73014
25.3415
25.00911
24.72469
24.47841
24.26012
24.06124
23.87742
23.70826
23.55355
23.40823
23.31121
23.20606
23.0905
22.96768
22.84628
22.73439
22.63271
22.53699
22.43856
22.32482
22.1871
22.0215
21.82717
21.60578
21.36365
21.1078
20.84506
20.5811
20.31995
20.06479
19.82115
19.59075
19.37032
19.1651
18.97671
18.80116
18.63418
18.47267
18.31476
18.15964
18.00736
17.85873
17.71484
17.57654
17.44419
17.31795
17.19792
17.08428
16.9769
16.87578
16.78246
16.69844
16.62521
16.56829
16.53609
16.53642
16.57521
16.66226
16.79218
16.94706
17.11115
17.27488
17.42802
17.56198
17.67516
17.77325
17.86625
17.96819
18.09509
18.26003
18.46861
18.71496
18.98147
19.24278
19.4713
19.64343
19.74406
19.76821
19.7204
19.61274
19.46088
19.27874
19.07462
18.85016
18.60242
18.32702
18.02044
17.6813
17.31103
16.91368
16.4954
16.06365
15.62653
15.19214
14.76829
14.36224
13.98062
13.62909
13.30931
13.0215
12.766
12.54293
12.35195
12.19232
12.0632
11.9636
11.89115
11.84296
11.81624
11.80842
11.81683
11.83869
11.87163
11.91346
11.96224
12.01562
12.071
12.12553
12.17625
12.22048
12.25603
12.28134
12.2954
12.29773
12.28826
12.26724
12.23516
12.19272
12.14077
12.08034
12.01251
11.93854
11.85979
11.77775
11.69394
11.60985
11.52695
11.44649
11.36976
11.29782
11.23122
11.17008
11.11387
11.06166
11.01245
10.96547
10.9203
10.8769
10.83543
10.7961
10.7589
10.72364
10.68972
10.65669
10.6239
10.59131
10.55867
10.52665
10.50759
10.47991
10.44924
10.41913
10.3916
10.36751
10.34703
10.33012
10.31666
10.30652
10.29958
10.2956
10.29421
10.29487
10.29682
10.29916
10.3009
10.30099
10.29835
10.29193
10.2806
10.26327
10.23898
10.20708
10.16707
10.11881
10.06256
9.998999
9.929179
9.854465
9.776442
9.696786
9.617187
9.539257
9.464418
9.39409
9.331123
9.280653
9.249357
9.247163
9.28776
9.383366
9.530814
9.721005
9.960733
10.26583
10.65008
11.12265
11.6892
12.35265
13.11372
13.96734
14.89462
15.85975
16.81797
17.72144
18.50886
19.10996
19.46625
19.54614
19.34228
18.86428
18.13687
17.21321
16.17193
15.09769
14.05665
13.093
12.22612
11.46505
10.82895
10.28509
9.820256
9.423534
9.083959
8.790057
8.532271
8.303811
8.100264
7.918937
7.758367
7.61786
7.497301
7.395277
7.307991
7.232869
7.1676
7.110024
7.058128
7.010102
6.964403
6.919803
6.875426
6.830741
6.78553
6.739838
6.693913
6.648147
6.603019
6.559039
6.516686
6.476361
6.43836
6.40286
6.36992
6.339489
6.311426
6.285524
6.261534
6.239188
6.218225
6.198406
6.179525
6.161407
6.143878
6.126736
6.109751
6.092788
6.075832
6.058876
6.041882
6.024827
6.007671
5.990433
5.973198
5.955867
5.938366
5.920481
5.902042
5.883011
5.863415
5.843269
5.822557
5.801258
5.779361
5.756867
5.73379
5.710149
5.685971
5.661279
5.636098
5.610463
5.584426
5.558025
5.531284
5.50423
5.476898
5.449305
5.421434
5.393263
5.364779
5.335961
5.306784
5.277245
5.247386
5.217277
5.186999
5.156625
5.126205
5.095759
5.065392
5.035168
5.004828
4.97385
4.941904
4.909126
4.875877
4.842447
4.808951
4.775423
4.7419
4.708437
4.675106
4.641993
4.609203
4.576865
4.545132
4.514182
4.484228
4.455516
4.428329
4.402991
4.379861
4.359313
4.34169
4.327232
4.315914
4.307228
4.300343
4.294724
4.290293
4.287192
4.285549
4.285426
4.286853
4.289928
4.294898
4.302136
4.31202
4.32479
4.340347
4.358082
4.376711
4.394175
4.407745
4.414959
4.413741
4.403436
4.382763
372.2905
273.2973
376.9252
170.4956
132.6789
95.00935
82.09735
71.24671
62.62866
58.47293
56.86971
56.04
55.75711
56.09596
56.55569
57.23281
58.05955
59.05408
60.13257
61.2764
62.37909
63.13036
63.45796
64.27982
65.01467
65.55505
65.85618
65.90388
65.69875
65.22976
64.48961
61.31939
60.33914
59.30564
58.24059
57.16065
56.07817
55.00413
53.94904
52.92066
51.92387
50.95798
50.02179
49.11706
48.2522
47.43173
46.6522
45.90632
45.18919
44.49956
43.83987
43.20829
42.59741
41.99594
41.39105
40.77051
40.12724
39.46048
38.77465
38.07784
37.37975
36.68616
35.99763
35.3133
34.63417
33.96479
33.31368
32.68898
32.15311
31.65633
31.19933
30.77886
30.39101
30.03156
29.69679
29.38326
29.08733
28.80632
28.54011
28.28885
28.0518
27.82644
27.61139
27.40454
27.20053
26.98861
26.75358
26.49056
26.19771
25.87529
25.53427
25.19154
24.86572
24.57438
24.3314
24.14263
24.00341
23.90246
23.82605
23.76012
23.6905
23.60669
23.50964
23.41016
23.31621
23.22705
23.13604
23.02778
22.88767
22.71304
22.52048
22.3372
22.17265
22.02299
21.87823
21.72695
21.55982
21.37206
21.16452
20.94253
20.70996
20.46708
20.21547
19.95783
19.69678
19.43526
19.17864
18.93236
18.69927
18.47909
18.27112
18.07472
17.88837
17.71013
17.53886
17.37447
17.21771
17.07016
16.93388
16.81092
16.7033
16.61331
16.54367
16.49716
16.47579
16.47927
16.50421
16.54487
16.59527
16.6539
16.72627
16.82292
16.95302
17.12208
17.32347
17.53685
17.74076
17.92394
18.07492
18.18051
18.23578
18.24754
18.22697
18.18957
18.15325
18.133
18.13901
18.17272
18.22551
18.28223
18.32507
18.33769
18.30896
18.23452
18.11623
17.96064
17.77677
17.57337
17.35659
17.12911
16.89043
16.63823
16.36986
16.08365
15.77964
15.45968
15.12736
14.78752
14.4456
14.10698
13.77666
13.45916
13.15865
12.8788
12.62233
12.3908
12.18454
12.0034
11.84711
11.7151
11.60599
11.51782
11.44838
11.3955
11.35724
11.33168
11.31685
11.3109
11.31245
11.32053
11.33416
11.35192
11.3718
11.39148
11.40836
11.42019
11.42536
11.4229
11.41231
11.39345
11.36646
11.33166
11.28934
11.23985
11.18361
11.12109
11.05285
10.9795
10.9018
10.82068
10.73723
10.65264
10.56812
10.48493
10.40436
10.32768
10.25596
10.18966
10.12849
10.07163
10.01802
9.966816
9.917557
9.870153
9.824738
9.781532
9.740622
9.701867
9.664816
9.628943
9.59372
9.55883
9.524146
9.489836
9.457107
9.426054
9.39725
9.371303
9.348449
9.328366
9.310449
9.294197
9.279193
9.265179
9.251976
9.239417
9.227279
9.215303
9.203153
9.190465
9.176807
9.161856
9.145272
9.126641
9.105397
9.080884
9.052312
9.01897
8.98024
8.935684
8.885111
8.828676
8.766886
8.700572
8.630848
8.558943
8.486289
8.414317
8.344214
8.276794
8.212981
8.154601
8.104737
8.06799
8.050539
8.05801
8.092106
8.152759
8.242673
8.36762
8.534115
8.748802
9.018115
9.348651
9.745973
10.21361
10.74973
11.3457
11.98778
12.65618
13.32081
13.94474
14.49543
14.94644
15.28099
15.49187
15.56605
15.49102
15.2603
14.87768
14.35525
13.72296
13.02308
12.30275
11.60113
10.94364
10.34574
9.814059
9.347676
8.941501
8.589047
8.28378
8.019751
7.791794
7.595637
7.427802
7.285365
7.165795
7.066314
6.982797
6.91129
6.848418
6.79127
6.737382
6.684741
6.631794
6.577454
6.521069
6.462387
6.40148
6.338673
6.274484
6.209584
6.144729
6.080688
6.018179
5.95783
5.900151
5.845517
5.794167
5.746214
5.701654
5.660389
5.622248
5.587014
5.554439
5.524261
5.496215
5.470032
5.445434
5.422144
5.399936
5.378655
5.358166
5.338334
5.319043
5.300191
5.281738
5.263603
5.245593
5.227563
5.209421
5.19111
5.172606
5.153895
5.134946
5.11571
5.096133
5.076168
5.05578
5.034945
5.013644
4.991866
4.969604
4.946857
4.923636
4.899961
4.875849
4.851314
4.826376
4.801053
4.775355
4.749276
4.722809
4.695951
4.668696
4.641036
4.612987
4.584584
4.555879
4.526922
4.497757
4.468412
4.438916
4.409305
4.379552
4.349487
4.318869
4.287601
4.255819
4.223762
4.191603
4.159416
4.127227
4.095064
4.062972
4.031011
3.999258
3.967809
3.936775
3.906286
3.876488
3.847549
3.819655
3.793014
3.767852
3.744413
3.722936
3.70363
3.686628
3.671893
3.65911
3.647759
3.637423
3.627946
3.619384
3.611847
3.605433
3.600254
3.596484
3.594402
3.594338
3.596585
3.601317
3.608484
3.617729
3.628268
3.63887
3.647807
3.653178
3.653007
3.646232
3.63287
353.9782
238.0377
179.8042
155.718
125.2113
101.9334
86.2462
79.66828
72.75587
68.69292
65.32441
61.14559
57.13906
53.5262
50.41193
47.13351
41.84942
40.86659
40.26229
40.13302
40.48423
41.30153
42.34006
43.50879
44.79517
46.18905
47.68393
49.25213
50.86384
52.41517
54.02302
55.51517
56.78579
57.80869
58.5852
59.12349
59.40531
59.42127
59.19428
58.77511
58.25316
57.648
56.97204
56.2571
55.49422
54.68388
53.82332
52.91278
51.9676
51.0043
50.03805
49.08805
48.16508
47.2736
46.42405
45.62921
44.88957
44.19219
43.5197
42.85993
42.20886
41.56352
40.91791
40.26776
39.61318
38.95414
38.28949
37.61846
36.94392
36.27124
35.60704
34.95907
34.33125
33.72331
33.13527
32.57046
32.03546
31.53927
31.08918
30.68803
30.32757
29.99728
29.68803
29.39144
29.1013
28.81463
28.53193
28.25594
27.98716
27.7271
27.47394
27.22591
26.9828
26.74528
26.51499
26.29088
26.06775
25.83869
25.59929
25.35141
25.10764
24.88412
24.69255
24.54471
24.45465
24.43558
24.48726
24.58888
24.71167
24.83373
24.93703
25.00064
25.00934
24.97716
24.94007
24.91603
24.8964
24.8587
24.76897
24.59344
24.32845
24.02113
23.70718
23.40985
23.13578
22.88128
22.63817
22.39676
22.14913
21.89115
21.62201
21.3434
21.05279
20.74763
20.43078
20.10684
19.78269
19.46748
19.16887
18.88882
18.6263
18.37944
18.14748
17.9298
17.72569
17.53528
17.35957
17.20036
17.06046
16.94338
16.8528
16.79255
16.76706
16.78078
16.83746
16.93934
17.08506
17.26576
17.46502
17.66583
17.86042
18.05499
18.26762
18.51675
18.80362
19.10095
19.36576
19.57301
19.72114
19.80562
19.81386
19.74253
19.60346
19.4133
19.19413
18.96976
18.75898
18.57512
18.42282
18.29656
18.18461
18.07296
17.94868
17.8032
17.63323
17.43977
17.22685
16.99995
16.76461
16.52523
16.28419
16.04158
15.7958
15.54459
15.28591
15.01884
14.74396
14.46364
14.18171
13.9025
13.62988
13.36672
13.11512
12.87698
12.65451
12.44987
12.26442
12.09877
11.95324
11.82777
11.72151
11.63271
11.55895
11.4976
11.44657
11.40455
11.37032
11.34233
11.31919
11.30035
11.28593
11.27591
11.26948
11.2649
11.25975
11.25167
11.23858
11.21937
11.19373
11.16175
11.12388
11.08057
11.0323
10.97938
10.92196
10.8601
10.79388
10.72334
10.64857
10.56978
10.48751
10.40262
10.31616
10.22927
10.14326
10.05959
9.979921
9.905781
9.83796
9.776134
9.719089
9.665335
9.613706
9.563613
9.514953
9.467886
9.422658
9.379435
9.338133
9.298332
9.259487
9.221143
9.18297
9.144764
9.106541
9.068763
9.03217
8.997834
8.966924
8.939914
8.916278
8.894979
8.875008
8.855573
8.836109
8.816267
8.795855
8.774658
8.752467
8.729179
8.704706
8.679074
8.652518
8.625306
8.597524
8.56897
8.539078
8.507023
8.471914
8.43292
8.389343
8.340725
8.286928
8.228174
8.165057
8.098472
8.029519
7.959497
7.88987
7.8218
7.755687
7.691423
7.629272
7.570538
7.517713
7.474446
7.444774
7.431325
7.434971
7.456521
7.498087
7.563095
7.655831
7.781087
7.943805
8.148765
8.400239
8.7005
9.049373
9.443597
9.87553
10.33213
10.79541
11.24521
11.66339
12.03729
12.36065
12.62637
12.82951
12.96405
13.0221
12.99075
12.85901
12.62179
12.28468
11.86231
11.38041
10.87136
10.36504
9.883135
9.438155
9.036212
8.679159
8.36604
8.094145
7.859864
7.659298
7.488526
7.343718
7.221284
7.117972
7.02916
6.950746
6.879242
6.811734
6.745862
6.679801
6.61224
6.542348
6.469724
6.39433
6.316387
6.236315
6.154736
6.072428
5.990232
5.908984
5.829473
5.752407
5.678384
5.607877
5.541223
5.478633
5.420193
5.365884
5.3156
5.269162
5.226341
5.186871
5.150457
5.116791
5.085552
5.056452
5.029251
5.00371
4.979589
4.956703
4.934883
4.913964
4.893769
4.874091
4.85476
4.835649
4.816666
4.797746
4.778837
4.759878
4.740798
4.721529
4.702007
4.682179
4.662001
4.64144
4.620466
4.599059
4.577206
4.554902
4.53215
4.508955
4.485324
4.461265
4.436788
4.411895
4.386582
4.360844
4.334677
4.308075
4.281037
4.253578
4.22573
4.197533
4.169022
4.140227
4.11117
4.081868
4.052324
4.022499
3.992299
3.961618
3.930444
3.898883
3.86709
3.835188
3.803247
3.771304
3.739394
3.707561
3.67586
3.644364
3.613158
3.582344
3.552039
3.522371
3.493485
3.465535
3.438693
3.413136
3.389047
3.366599
3.345934
3.327131
3.310157
3.294819
3.280799
3.267761
3.25547
3.243856
3.232955
3.222862
3.213738
3.205844
3.199515
3.195071
3.192738
3.192614
3.194615
3.198438
3.203512
3.208966
3.213626
3.216105
3.214785
3.208564
3.197561
192.0893
141.044
214.9603
104.1649
88.21748
74.08408
69.46937
65.94585
62.27646
60.43139
58.28119
55.52703
53.02727
50.52972
47.7813
42.69182
41.48967
40.4247
39.47165
38.62657
37.84568
37.16413
36.62148
36.23628
36.01546
35.93805
35.91629
35.99983
36.27555
36.81536
37.6801
38.77836
40.04429
41.44324
42.95209
44.54064
46.11157
47.66349
49.25798
50.55127
51.71813
52.77588
53.70514
54.4763
55.05574
55.44142
55.66031
55.7485
55.75214
55.70159
55.602
55.42484
55.15885
54.81426
54.38997
53.87056
53.23927
52.50261
51.69111
50.83927
49.98309
49.15256
48.3577
47.60184
46.90221
46.26596
45.67444
45.0976
44.50895
43.89273
43.23911
42.53603
41.78088
40.98976
40.19548
39.424
38.66928
37.92964
37.20582
36.49882
35.80871
35.14014
34.5026
33.9045
33.3524
32.85608
32.42956
32.08297
31.80926
31.58102
31.36504
31.14504
30.91115
30.65536
30.37305
30.06413
29.74279
29.43576
29.14818
28.86009
28.56238
28.2499
27.9213
27.58419
27.25184
26.93565
26.64224
26.37454
26.13462
25.92712
25.7609
25.6551
25.62285
25.66433
25.79312
26.02748
26.35407
26.71644
27.06161
27.37104
27.63423
27.82425
27.92318
27.97293
28.05835
28.20174
28.34413
28.40631
28.32994
28.06689
27.63669
27.11782
26.57734
26.05965
25.58182
25.14864
24.75388
24.38285
24.02087
23.65755
23.28614
22.9012
22.49258
22.06003
21.61344
21.16348
20.72391
20.30983
19.92546
19.57273
19.24808
18.94715
18.66912
18.41488
18.18535
17.98242
17.80887
17.66849
17.56713
17.51245
17.51136
17.56798
17.68489
17.86291
18.09941
18.38977
18.73313
19.1167
19.50935
19.87762
20.20736
20.51086
20.81994
21.16392
21.53278
21.86618
22.08882
22.17605
22.15038
22.02932
21.81683
21.51989
21.15564
20.74739
20.32379
19.91178
19.53035
19.19173
18.8967
18.63555
18.39499
18.16249
17.92751
17.6844
17.43165
17.17035
16.90311
16.63332
16.3647
16.10062
15.84338
15.5935
15.34963
15.10937
14.87022
14.63043
14.38973
14.14988
13.91453
13.68779
13.47236
13.2689
13.07646
12.89396
12.72189
12.56218
12.41647
12.28579
12.17136
12.07403
11.99272
11.9246
11.86633
11.81465
11.7673
11.72362
11.68328
11.64521
11.60837
11.57294
11.54008
11.51072
11.48456
11.45985
11.43388
11.40393
11.36835
11.3267
11.2795
11.22759
11.17189
11.11332
11.05254
10.9898
10.92492
10.85751
10.78727
10.71378
10.63654
10.55521
10.46995
10.38156
10.29117
10.20009
10.10978
10.02196
9.938844
9.862697
9.794656
9.734032
9.678712
9.626295
9.575112
9.524537
9.474642
9.425725
9.378105
9.332022
9.287441
9.243963
9.201121
9.158595
9.116063
9.073146
9.029684
8.986024
8.94291
8.901786
8.864479
8.831806
8.803076
8.776761
8.751262
8.725403
8.698501
8.670188
8.640356
8.60891
8.57577
8.541026
8.504881
8.467725
8.430297
8.393374
8.357384
8.322218
8.287231
8.251408
8.213638
8.172882
8.128265
8.079154
8.025245
7.966604
7.903707
7.837388
7.768685
7.69893
7.629885
7.562919
7.498099
7.434422
7.371025
7.308186
7.247512
7.191766
7.144326
7.107823
7.083193
7.070332
7.069604
7.082704
7.11258
7.162893
7.237431
7.339683
7.472593
7.638414
7.838285
8.071904
8.336993
8.628866
8.939944
9.259625
9.575668
9.877491
10.15708
10.4138
10.6454
10.84984
11.0235
11.16145
11.2561
11.29811
11.2769
11.18203
11.00824
10.76227
10.45962
10.12041
9.76579
9.414354
9.079746
8.770208
8.490067
8.24076
8.021597
7.830461
7.664309
7.51956
7.393042
7.281712
7.181839
7.090132
7.00378
6.920452
6.838293
6.755891
6.672266
6.586831
6.499345
6.40981
6.318368
6.225363
6.131359
6.037035
5.943118
5.850359
5.759491
5.671199
5.586088
5.504665
5.427326
5.354347
5.28589
5.222009
5.162662
5.107723
5.057
5.010245
4.967173
4.927473
4.890837
4.856964
4.825561
4.796349
4.76906
4.743445
4.719265
4.696288
4.674281
4.653036
4.632373
4.612149
4.592248
4.572573
4.553027
4.533519
4.51396
4.494268
4.474373
4.454216
4.433746
4.412923
4.391713
4.370095
4.348053
4.325579
4.302671
4.279328
4.255555
4.231353
4.206722
4.181659
4.156156
4.130206
4.103804
4.076949
4.049652
4.021937
3.993834
3.965369
3.936565
3.907438
3.877997
3.848238
3.818133
3.787633
3.7567
3.72535
3.693664
3.661748
3.629698
3.597578
3.565437
3.533316
3.501262
3.469331
3.437593
3.406129
3.375035
3.344418
3.314397
3.2851
3.256665
3.229237
3.202965
3.177996
3.154461
3.132467
3.112072
3.093258
3.075916
3.059847
3.044802
3.030539
3.016893
3.003774
2.991179
2.979264
2.968386
2.958991
2.951434
2.945902
2.942417
2.940838
2.940849
2.941952
2.943457
2.944489
2.944006
2.940827
2.934141
2.923947
81.13438
59.61973
56.02775
52.79965
51.19164
49.24077
47.52751
45.96757
44.5345
42.63167
38.86498
38.21046
37.59486
37.02856
36.47923
35.94373
35.46624
35.07128
34.76801
34.53605
34.23274
33.78083
33.37218
33.02691
32.75011
32.54675
32.4245
32.39002
32.44822
32.59411
32.81333
33.10917
33.52157
34.10475
34.89989
35.90548
37.11786
38.52137
40.0353
41.59075
43.2348
44.692
45.97086
47.06658
47.99026
48.81285
49.57381
50.2877
50.9356
51.53129
52.12538
52.78313
53.50306
54.25308
54.93691
55.4847
55.85746
56.04828
56.07428
55.9741
55.7602
55.41514
54.94007
54.37258
53.75546
53.13943
52.56338
52.01979
51.51048
51.07289
50.69075
50.3041
49.86509
49.34739
48.73992
48.02054
47.14684
46.14141
45.10312
44.10858
43.1376
42.21266
41.34842
40.55041
39.81159
39.0999
38.38475
37.66962
36.98628
36.37398
35.85779
35.46587
35.23133
35.10538
34.99238
34.82303
34.58692
34.28874
33.93784
33.53061
33.07148
32.61445
32.20791
31.81506
31.40444
30.97863
30.54095
30.07979
29.59992
29.12643
28.68554
28.29785
27.97843
27.73949
27.5937
27.54992
27.60557
27.76569
28.01247
28.36828
28.86657
29.4672
30.05259
30.55755
31.00826
31.439
31.80327
32.07855
32.40418
32.8829
33.42348
33.84585
33.98983
33.81143
33.30115
32.54297
31.65866
30.77445
29.93973
29.15779
28.44673
27.81151
27.22769
26.66716
26.11194
25.55113
24.96718
24.35034
23.7095
23.06408
22.43865
21.85409
21.32069
20.84343
20.41921
20.03825
19.69325
19.38468
19.11662
18.89244
18.7157
18.5928
18.53535
18.55942
18.68406
18.92509
19.26606
19.67411
20.12118
20.58326
21.05041
21.55264
22.09782
22.64
23.11947
23.51455
23.8469
24.15243
24.47289
24.77938
24.95216
24.90433
24.66577
24.30392
23.85319
23.3308
22.75634
22.15514
21.55793
20.99154
20.47413
20.01334
19.60972
19.25216
18.92322
18.60881
18.30035
17.99244
17.68254
17.37135
17.06108
16.75391
16.45221
16.15902
15.87766
15.61109
15.36053
15.12478
14.9009
14.68544
14.47546
14.2695
14.06887
13.87777
13.70094
13.54027
13.39406
13.25812
13.12761
13.00029
12.87787
12.76336
12.6599
12.57108
12.49901
12.44147
12.39278
12.34761
12.30251
12.25626
12.2096
12.16295
12.11517
12.06517
12.01371
11.96321
11.91582
11.87161
11.82831
11.78268
11.73193
11.67492
11.61209
11.54479
11.47459
11.40294
11.33107
11.25979
11.18922
11.11859
11.04693
10.9736
10.89773
10.81803
10.73343
10.64376
10.54985
10.45316
10.35567
10.25931
10.16588
10.0783
9.999997
9.932643
9.874692
9.822314
9.771604
9.720312
9.668071
9.6155
9.563262
9.511793
9.461376
9.412035
9.363478
9.315401
9.267606
9.219635
9.170766
9.12059
9.069556
9.018582
8.969278
8.924286
8.884961
8.850268
8.817877
8.785247
8.750765
8.713975
8.674974
8.634073
8.591409
8.54693
8.500794
8.453306
8.405005
8.357025
8.310697
8.266849
8.225428
8.185536
8.145813
8.104866
8.061473
8.014628
7.96361
7.908034
7.84789
7.783579
7.715879
7.6458
7.574848
7.505384
7.43923
7.376033
7.313716
7.250304
7.185437
7.120425
7.057735
7.000636
6.951961
6.912515
6.881219
6.857138
6.841027
6.835331
6.843326
6.868171
6.912409
6.977923
7.066092
7.177898
7.313696
7.472765
7.653082
7.85099
8.061183
8.277308
8.49306
8.703664
8.905675
9.09748
9.27909
9.45105
9.61226
9.75934
9.886626
9.985827
10.04827
10.06442
10.02809
9.937342
9.795282
9.610786
9.396582
9.166277
8.931748
8.702156
8.484035
8.281321
8.095695
7.927011
7.773723
7.633381
7.504414
7.385184
7.27384
7.168579
7.067764
6.969975
6.874023
6.778945
6.684025
6.588799
6.493006
6.396519
6.299252
6.201357
6.103129
6.00497
5.907383
5.810932
5.716214
5.623828
5.534338
5.448252
5.366
5.287918
5.214243
5.14511
5.080555
5.020528
4.964899
4.913474
4.866011
4.82224
4.781878
4.744625
4.710171
4.678222
4.648494
4.620705
4.594582
4.569862
4.546298
4.523674
4.501803
4.480523
4.459697
4.439194
4.418897
4.398693
4.378485
4.358182
4.337709
4.317
4.296002
4.274671
4.252972
4.230882
4.208385
4.18547
4.162134
4.138374
4.11419
4.089579
4.064537
4.039055
4.013125
3.986738
3.959892
3.932593
3.904857
3.876705
3.848155
3.819225
3.789928
3.760269
3.730248
3.699847
3.669046
3.637838
3.606248
3.574338
3.542189
3.509874
3.477456
3.444985
3.412509
3.380079
3.347753
3.315598
3.283693
3.25213
3.22101
3.190445
3.160552
3.131457
3.103285
3.076165
3.050216
3.025546
3.002239
2.980344
2.959861
2.940737
2.922861
2.906076
2.890198
2.875027
2.860336
2.845936
2.831898
2.818677
2.806872
2.796911
2.788978
2.783029
2.778846
2.77607
2.774216
2.772668
2.770704
2.767501
2.762189
2.754147
2.743686
107.3115
45.48294
37.04724
35.08686
33.87924
33.08539
32.59223
32.29275
32.14274
32.1072
32.02649
31.73694
31.46231
31.20143
30.95772
30.73138
30.53179
30.36063
30.21012
30.06281
29.90233
29.74304
29.61947
29.54505
29.52114
29.55282
29.63966
29.78052
29.97565
30.22427
30.5325
30.95094
31.55742
32.32462
33.29399
34.47052
35.84391
37.43005
39.05482
40.56602
41.94351
43.10707
44.0336
44.72886
45.29775
45.82758
46.41745
47.1491
48.06369
49.2571
50.74063
52.44752
54.25779
55.99164
57.49893
58.69875
59.60119
60.28285
60.87384
61.39916
61.82115
62.03938
62.04396
61.89154
61.63349
61.37563
61.16005
60.91142
60.64636
60.4716
60.30352
59.97889
59.50182
58.93368
58.28693
57.46583
56.31788
54.97947
53.76515
52.56169
51.38587
50.30245
49.32045
48.42581
47.61404
46.82002
45.91266
44.87852
43.84575
42.94154
42.21368
41.68052
41.31826
41.0926
40.81349
40.38962
39.82998
39.18595
38.52407