/*--------------------------------*- C++ -*----------------------------------*\
| =========                 |                                                 |
| \\      /  F ield         | foam-extend: Open Source CFD                    |
|  \\    /   O peration     | Version:     3.1                                |
|   \\  /    A nd           | Web:         http://www.extend-project.de       |
|    \\/     M anipulation  |                                                 |
\*---------------------------------------------------------------------------*/
FoamFile
{
    version     2.0;
    format      ascii;
    class       volScalarField;
    location    "15.5";
    object      p;
}
// * * * * * * * * * * * * * * * * * * * * * * * * * * * * * * * * * * * * * //

dimensions      [1 -1 -2 0 0 0 0];

internalField   nonuniform List<scalar> 
119952
(
5917.724
5120.904
5003.314
5124.132
5252.8
5161.792
5148.163
5138.486
5139.023
5142.025
5146.782
5152.242
5157.721
5162.847
5167.587
5172.016
5176.335
5178.998
5174.053
5138.051
5318.19
5227.914
5201.679
5438.562
5418.788
5459.857
5489.392
5566.119
5794.483
6051.896
4522.477
4542.38
4561.851
4578.032
4590.944
4599.419
4603.977
4599.061
4590.092
4576.799
4536.393
4519.403
4493.729
4468.237
4443.015
4419.635
4399.683
4383.963
4372.492
4352.442
4350.741
4351.742
4368.279
4389.833
4416.753
4448.642
4482.058
4515.858
4550.563
4571.553
4596.183
4621.243
4641.746
4659.885
4676.741
4692.945
4713.558
4762.17
4854.853
4793.81
4782.054
4836.838
4867.169
4868.07
4860.511
4860.227
4863.879
4869.183
4875.528
4882.401
4889.072
4895.294
4901.087
4906.436
4911.418
4915.92
4920.696
4928.396
4951.587
4974.395
4987.598
5048.144
5132.585
5160.521
5186.982
5214.782
5203.068
5085.942
5079.074
5119.04
5139.789
5159.289
5175.855
5190.119
5203.583
5217.107
5231.094
5245.793
5261.422
5277.877
5294.814
5312.037
5329.522
5347.01
5363.841
5379.237
5392.708
5404.834
5417.003
5430.249
5444.312
5458.105
5470.822
5482.274
5492.717
5502.501
5511.727
5520.343
5528.312
5535.648
5542.367
5548.485
5554.012
5558.956
5563.31
5567.082
5570.322
5573.067
5575.331
5577.18
5578.659
5579.726
5580.405
5580.694
5580.522
5579.964
5580.028
5580.777
5581.608
5580.392
5578.805
5577.823
5576.908
5576.308
5575.942
5575.89
5576.137
5576.692
5577.543
5578.689
5580.134
5581.883
5583.947
5586.333
5589.04
5592.056
5595.358
5598.903
5602.671
5606.637
5610.782
5615.099
5619.587
5624.258
5629.132
5634.23
5639.57
5645.16
5650.998
5657.069
5663.346
5669.781
5676.318
5682.892
5689.436
5695.888
5702.194
5708.307
5714.192
5719.828
5725.2
5730.299
5735.106
5739.591
5743.672
5747.237
5750.075
5788.546
5791.767
5795.069
5798.129
5801.271
5803.979
5806.867
5809.509
5812.13
5814.551
5816.847
5818.971
5820.914
5822.679
5824.268
5825.69
5826.969
5828.13
5829.201
5830.202
5831.14
5832.014
5832.809
5833.513
5834.112
5834.588
5834.926
5835.116
5835.13
5834.933
5834.488
5833.769
5832.603
5830.585
5826.795
5822.842
5830.203
5836.546
5841.599
5846.332
5851.696
5857.746
5861.438
5841.22
5838.475
5848.795
5854.611
5857.375
5858.711
5859.414
5859.952
5860.574
5860.845
5860.266
5858.914
5857.14
5854.977
5852.352
5849.345
5846.366
5843.888
5842.146
5841.09
5840.411
5839.926
5839.488
5838.989
5838.364
5837.542
5836.498
5810.14
5804.073
5800.502
5798.269
5795.438
5792.767
5790.025
5787.257
5784.57
5781.998
5779.663
5777.624
5775.956
5774.645
5773.736
5773.25
5773.186
5773.522
5774.219
5775.229
5776.491
5777.943
5779.52
5781.16
5782.807
5784.412
5785.932
5787.338
5788.606
5789.723
5790.683
5791.487
5792.138
5792.647
5793.023
5793.281
5793.434
5793.496
5793.483
5793.41
5793.294
5793.153
5793.009
5792.89
5792.798
5792.587
5792.032
5791.327
5790.731
5790.197
5789.702
5789.254
5788.808
5788.021
5785.77
5786.419
5786.345
5785.909
5785.502
5785.103
5784.731
5784.382
5784.042
5783.71
5783.377
5783.036
5782.683
5782.316
5781.931
5781.527
5781.102
5780.653
5780.178
5779.679
5779.152
5778.594
5778.005
5777.384
5776.727
5776.03
5775.297
5774.529
5773.723
5772.884
5772.012
5771.085
5770.134
5769.156
5768.093
5767.026
5765.932
5764.692
5763.475
5762.214
5760.825
5759.428
5758.084
5756.787
5755.465
5754.097
5752.686
5751.235
5749.749
5748.232
5746.686
5745.111
5743.508
5741.875
5740.21
5738.51
5736.769
5734.982
5733.139
5731.226
5729.236
5727.144
5724.918
5722.548
5719.998
5717.395
5714.757
5712.064
5709.294
5706.416
5703.453
5700.388
5697.207
5693.901
5690.457
5686.847
5683.031
5678.94
5674.451
5669.402
5663.506
5656.505
5649.513
5650.009
5671.125
3618.849
3619.27
3622.818
3633.138
3652.16
3671.735
3694.252
3717.289
3738.944
3720.298
3748.293
3759.085
3770.219
3778.66
3785.308
3790.734
3794.443
3795.749
3771.01
3779.816
3769.668
3763.034
3764.642
3771.142
3783.082
3801.271
3825.466
3857.917
3893.904
3928.712
3974.117
4020.537
4067.25
4112.974
4156.415
4196.473
4232.727
4267.522
4282.247
4298.039
4313.348
4321.836
4322.915
4319.385
4310.721
4297.532
4280.54
4256.729
4231.518
4205.986
4179.25
4153.297
4129.782
4110.255
4096.158
4088.148
4016.815
4022.479
4035.849
4055.41
4080.967
4112.386
4148.178
4185.86
4223.197
4256.347
4286.398
4311.644
4332.572
4350.386
4366.44
4382.035
4399.279
4420.269
4444.717
4467.687
4478.631
4484.746
4500.262
4519.043
4532.331
4539.649
4545.73
4553.142
4561.77
4570.67
4579.128
4586.827
4593.692
4599.86
4605.63
4611.535
4618.432
4627.623
4640.885
4659.557
4683.966
4714.013
4750.994
4791.573
4823.902
4844.815
4853.352
4850.028
4833.301
4824.959
4835.497
4851.29
4865.958
4878.414
4889.684
4900.883
4912.695
4925.287
4938.752
4953.784
4970.527
4988.65
5007.68
5027.028
5045.952
5063.746
5079.883
5094.483
5108.06
5121.173
5134.245
5147.336
5160.13
5172.271
5183.574
5194.003
5203.674
5212.601
5220.844
5228.338
5235.115
5241.224
5246.7
5251.565
5255.844
5259.591
5262.656
5265.284
5267.427
5269.233
5270.783
5272.008
5272.77
5273.368
5273.755
5273.876
5273.758
5273.546
5273.321
5272.966
5272.259
5271.352
5270.44
5269.685
5269.218
5269.073
5269.26
5269.769
5270.579
5271.67
5273.031
5274.667
5276.591
5278.815
5281.349
5284.18
5287.308
5290.686
5294.302
5298.125
5302.12
5306.268
5310.562
5315.011
5319.639
5324.48
5329.565
5334.917
5340.554
5346.479
5352.679
5359.118
5365.733
5372.441
5379.151
5385.782
5392.265
5398.556
5404.62
5410.439
5415.998
5421.288
5426.298
5431.027
5435.467
5439.692
5443.822
5448.218
5512.572
5516.679
5519.775
5522.82
5525.894
5528.785
5531.603
5534.323
5536.905
5539.337
5541.603
5543.695
5545.611
5547.353
5548.929
5550.354
5551.646
5552.837
5553.943
5554.981
5555.954
5556.859
5557.681
5558.4
5558.998
5559.456
5559.761
5559.897
5559.847
5559.598
5559.133
5558.422
5557.419
5556.136
5554.998
5555.066
5557.723
5561.971
5565.948
5569.694
5573.202
5575.666
5575.549
5570.585
5570.783
5574.93
5578.714
5581.252
5582.967
5584.138
5585.051
5585.67
5585.81
5585.163
5584.033
5582.477
5580.235
5577.411
5574.213
5571.083
5568.516
5566.709
5565.552
5564.785
5564.222
5563.749
5563.229
5562.621
5561.87
5561.274
5500.448
5498.508
5494.927
5491.674
5488.964
5486.331
5483.57
5480.739
5477.961
5475.343
5472.986
5470.823
5469.086
5467.625
5466.625
5466.068
5465.942
5466.224
5466.876
5467.85
5469.088
5470.526
5472.099
5473.746
5475.41
5477.04
5478.594
5480.04
5481.354
5482.521
5483.534
5484.39
5485.094
5485.653
5486.078
5486.38
5486.573
5486.671
5486.688
5486.639
5486.539
5486.399
5486.231
5486.031
5485.781
5485.441
5484.981
5484.447
5483.904
5483.391
5482.905
5482.435
5481.961
5481.381
5480.603
5479.99
5479.635
5479.306
5478.902
5478.477
5478.069
5477.682
5477.311
5476.948
5476.586
5476.218
5475.841
5475.451
5475.044
5474.619
5474.173
5473.706
5473.209
5472.687
5472.139
5471.565
5470.953
5470.31
5469.636
5468.932
5468.181
5467.391
5466.562
5465.693
5464.792
5463.847
5462.87
5461.862
5460.795
5459.709
5458.587
5457.375
5456.156
5454.957
5453.733
5452.341
5450.891
5449.414
5447.979
5446.546
5445.084
5443.591
5442.066
5440.511
5438.927
5437.312
5435.667
5433.989
5432.278
5430.529
5428.737
5426.897
5425.002
5423.044
5421.014
5418.907
5416.713
5414.426
5412.019
5409.444
5406.747
5404.029
5401.317
5398.507
5395.589
5392.557
5389.435
5386.221
5382.894
5379.44
5375.824
5371.998
5367.968
5363.76
5359.404
5355.372
5352.935
5351.784
5351.103
3538.853
3700.216
3879.659
4074.743
4282.383
4498.812
4715.476
4930.817
5135.251
5316.057
5448.515
5571.414
5656.332
5701.189
5703.647
5664.498
5587.396
5477.557
5345.632
5121.538
4957.603
4786.976
4621.331
4464.187
4318.539
4185.506
4065.088
3957.532
3864.26
3771.991
3694.031
3622.422
3558.425
3502.026
3453.57
3413.697
3383.165
3364.312
3348.079
3336.34
3340.297
3353.482
3371.231
3393.359
3416.11
3437.99
3457.999
3472.647
3485.766
3497.856
3505.74
3512.709
3518.182
3522.262
3524.986
3527.773
3458.507
3452.405
3449.172
3447.534
3448.446
3454.278
3466.872
3486.763
3513.861
3547.328
3587.177
3632.032
3679.115
3727.6
3776.626
3824.748
3870.514
3912.638
3950.016
3981.557
4006.05
4023.006
4032.969
4036.219
4032.906
4023.636
4009.317
3990.542
3967.494
3941.036
3912.026
3882.229
3852.935
3825.157
3800.353
3780.427
3766.491
3758.416
3756.59
3762.384
3775.19
3795.578
3823.804
3859.302
3900.106
3942.312
3982.335
4020.015
4051.863
4077.973
4098.779
4114.766
4128.292
4140.766
4153.33
4167.148
4182.617
4200.048
4213.703
4223.572
4236.752
4253.581
4269.171
4281.498
4292.296
4303.411
4314.913
4326.005
4336.023
4344.799
4352.258
4358.569
4364.237
4370.068
4377.121
4386.654
4399.88
4417.864
4440.965
4467.788
4498.134
4530.363
4558.435
4578.735
4592.165
4598.917
4598.719
4598.466
4606.086
4617.536
4628.53
4638.236
4647.289
4656.422
4666.757
4678.843
4691.598
4706.139
4722.973
4741.582
4761.347
4781.523
4801.356
4820.186
4837.645
4853.536
4868.056
4881.689
4894.905
4907.883
4920.53
4932.64
4944.066
4954.686
4964.443
4973.322
4981.397
4988.599
4994.963
5000.579
5005.528
5009.854
5013.579
5016.755
5019.396
5021.529
5023.305
5024.796
5026.014
5026.988
5027.796
5028.501
5028.948
5029.115
5029.064
5028.798
5028.358
5027.773
5026.968
5025.967
5024.988
5024.217
5023.765
5023.681
5023.96
5024.574
5025.482
5026.653
5028.073
5029.747
5031.702
5033.964
5036.547
5039.447
5042.658
5046.141
5049.838
5053.708
5057.717
5061.836
5066.062
5070.418
5074.944
5079.688
5084.696
5090.004
5095.64
5101.617
5107.929
5114.534
5121.352
5128.273
5135.175
5141.958
5148.547
5154.899
5160.994
5166.822
5172.376
5177.654
5182.648
5187.369
5191.819
5196.039
5200.032
5203.777
5207.303
5210.879
5214.251
5217.391
5220.397
5223.344
5226.226
5228.992
5231.601
5234.03
5236.27
5238.316
5240.173
5241.85
5243.358
5244.725
5245.99
5247.156
5248.258
5249.32
5250.335
5251.302
5252.194
5252.972
5253.603
5254.069
5254.354
5254.451
5254.359
5254.085
5253.649
5253.093
5252.505
5252.064
5252.047
5252.804
5254.56
5257.027
5259.666
5262.038
5264.046
5264.949
5265.521
5265.115
5265.672
5267.58
5269.857
5271.753
5273.227
5274.358
5275.257
5275.855
5276.123
5275.927
5275.145
5273.985
5272.415
5270.357
5268.048
5265.815
5263.932
5262.477
5261.2
5259.937
5258.765
5257.858
5257.163
5256.495
5255.679
5254.721
5253.395
5251.424
5249.126
5246.742
5244.299
5241.699
5238.913
5236.034
5233.183
5230.45
5227.91
5225.611
5223.6
5222.119
5220.989
5220.295
5220.037
5220.201
5220.755
5221.652
5222.834
5224.237
5225.797
5227.448
5229.132
5230.797
5232.4
5233.903
5235.28
5236.516
5237.599
5238.528
5239.303
5239.931
5240.421
5240.784
5241.032
5241.178
5241.236
5241.219
5241.138
5241.005
5240.823
5240.595
5240.313
5239.97
5239.551
5239.068
5238.558
5238.057
5237.567
5237.087
5236.604
5236.155
5235.789
5235.333
5234.796
5234.26
5233.755
5233.277
5232.825
5232.398
5231.994
5231.604
5231.217
5230.828
5230.432
5230.024
5229.602
5229.162
5228.702
5228.219
5227.71
5227.175
5226.615
5226.026
5225.404
5224.751
5224.069
5223.356
5222.601
5221.806
5220.972
5220.092
5219.173
5218.214
5217.22
5216.189
5215.117
5214.013
5212.867
5211.676
5210.475
5209.281
5208.041
5206.651
5205.167
5203.666
5202.187
5200.707
5199.205
5197.676
5196.119
5194.531
5192.914
5191.266
5189.586
5187.874
5186.126
5184.34
5182.513
5180.64
5178.716
5176.737
5174.701
5172.613
5170.487
5168.346
5166.144
5163.64
5160.909
5158.15
5155.389
5152.629
5149.787
5146.838
5143.814
5140.727
5137.564
5134.32
5130.984
5127.545
5124.033
5120.519
5117.031
5113.694
5111.391
5109.572
5107.742
2518.972
2538.988
2563.559
2577.634
2612.779
2633.848
2695.021
2770.822
2862.627
2945.227
3027.275
3132.192
3259.838
3406.325
3571.91
3752.254
3944.004
4141.787
4342.636
4541.168
4729.683
4904.095
5051.434
5164.959
5242.409
5279.581
5274.594
5228.786
5145.763
5033.425
4906.808
4619.026
4474.191
4324.999
4170.258
4023.48
3889.885
3769.539
3661.354
3564.374
3477.478
3398.672
3326.414
3260.152
3200.185
3146.919
3101.462
3064.816
3037.139
3018.226
3008.018
3007.328
3016.621
3035.329
3060.529
3088.668
3116.854
3142.58
3164.093
3180.917
3193.183
3201.832
3208.817
3215.444
3221.412
3225.729
3227.139
3224.838
3218.716
3209.404
3199.985
3192.646
3189.212
3192.042
3203.299
3223.146
3251.14
3287.114
3330.153
3378.038
3429.198
3482.335
3535.718
3587.701
3636.981
3682.481
3722.914
3756.957
3783.325
3801.335
3811.259
3813.152
3807.095
3794.286
3776.239
3753.663
3726.488
3695.358
3662.109
3628.854
3596.313
3565.153
3537.235
3515.108
3499.844
3490.6
3487.116
3491.427
3505.03
3528.08
3560.282
3601.183
3648.059
3696.644
3742.637
3783.732
3817.847
3844.45
3863.963
3878.582
3888.93
3897.026
3904.497
3912.812
3923.206
3935.375
3947.314
3959.067
3973.07
3989.772
4007.099
4023.333
4038.619
4053.611
4068.103
4081.657
4093.611
4103.523
4111.224
4117.126
4121.873
4126.371
4131.935
4140.065
4152.187
4169.227
4191.108
4216.659
4244.5
4272.777
4298.686
4320.535
4338.357
4352.158
4361.303
4368.198
4375.265
4382.352
4389.335
4397.173
4405.732
4413.864
4422.022
4432.571
4444.64
4458.995
4475.882
4494.946
4515.519
4536.545
4557.034
4576.388
4594.243
4610.52
4625.465
4639.456
4652.833
4665.815
4678.448
4690.648
4702.28
4713.223
4723.421
4732.608
4740.779
4747.938
4754.14
4759.487
4764.109
4768.108
4771.514
4774.325
4776.561
4778.28
4779.611
4780.707
4781.723
4782.632
4783.443
4784.159
4784.743
4785.032
4784.999
4784.643
4783.979
4783.071
4781.972
4780.774
4779.645
4778.726
4778.147
4778.001
4778.291
4778.952
4779.904
4781.1
4782.52
4784.174
4786.104
4788.353
4790.938
4793.885
4797.181
4800.767
4804.558
4808.496
4812.539
4816.655
4820.833
4825.101
4829.516
4834.149
4839.071
4844.332
4849.972
4856.017
4862.47
4869.29
4876.379
4883.59
4890.766
4897.777
4904.539
4911.015
4917.194
4923.078
4928.665
4933.955
4938.954
4943.666
4948.087
4952.215
4956.06
4959.647
4963.078
4966.477
4969.733
4972.805
4975.795
4978.785
4981.747
4984.599
4987.277
4989.752
4992.013
4994.051
4995.878
4997.524
4998.986
5000.302
5001.519
5002.636
5003.742
5004.869
5005.994
5007.034
5007.969
5008.795
5009.477
5009.98
5010.283
5010.384
5010.292
5010.03
5009.646
5009.212
5008.834
5008.65
5008.814
5009.47
5010.705
5012.421
5014.282
5015.949
5017.357
5018.386
5018.973
5019.105
5019.793
5021.31
5022.98
5024.433
5025.678
5026.733
5027.548
5028.126
5028.475
5028.475
5028.154
5027.588
5026.662
5025.314
5023.649
5021.66
5019.584
5017.821
5016.626
5015.791
5015.238
5014.758
5014.044
5013.057
5011.97
5010.677
5009.187
5007.447
5005.299
5002.813
5000.143
4997.324
4994.356
4991.321
4988.32
4985.439
4982.755
4980.335
4978.247
4976.574
4975.352
4974.568
4974.243
4974.359
4974.882
4975.765
4976.95
4978.368
4979.953
4981.637
4983.358
4985.063
4986.707
4988.251
4989.667
4990.939
4992.058
4993.02
4993.827
4994.485
4995.002
4995.389
4995.658
4995.822
4995.894
4995.884
4995.806
4995.666
4995.472
4995.227
4994.932
4994.583
4994.177
4993.723
4993.245
4992.765
4992.278
4991.802
4991.341
4990.898
4990.458
4989.956
4989.435
4988.941
4988.478
4988.028
4987.592
4987.171
4986.766
4986.368
4985.973
4985.575
4985.169
4984.751
4984.32
4983.87
4983.401
4982.909
4982.393
4981.851
4981.282
4980.685
4980.056
4979.397
4978.707
4977.983
4977.222
4976.423
4975.588
4974.708
4973.783
4972.815
4971.807
4970.762
4969.681
4968.564
4967.408
4966.216
4964.996
4963.751
4962.454
4961.07
4959.617
4958.134
4956.64
4955.133
4953.606
4952.052
4950.47
4948.858
4947.217
4945.545
4943.841
4942.105
4940.335
4938.528
4936.682
4934.794
4932.861
4930.882
4928.856
4926.789
4924.693
4922.594
4920.465
4918.105
4915.525
4912.815
4910.018
4907.175
4904.289
4901.363
4898.42
4895.458
4892.461
4889.426
4886.349
4883.236
4880.111
4877.043
4874.073
4871.279
4869.07
4867.061
4864.628
2488.39
2465.46
2446.257
2406.246
2376.338
2318.821
2297.026
2278.663
2264.837
2255.301
2251.26
2251.024
2258.798
2273.618
2295.454
2326.93
2316.193
2372.247
2437.051
2510.088
2590.09
2684.655
2797.117
2927.242
3074.578
3238.565
3416.843
3606.34
3804.197
4005.082
4204.263
4392.91
4560.758
4699.365
4802.074
4864.889
4885.566
4863.413
4802.189
4706.186
4579.653
4426.876
4255.827
4099.513
3953.043
3810.461
3676.09
3553.783
3444.236
3346.24
3258.493
3180.13
3108.262
3040.425
2977.046
2918.138
2863.805
2816.955
2780.498
2753.736
2735.391
2725.734
2726.591
2740.585
2767.158
2800.958
2837.059
2872.05
2903.252
2928.517
2946.732
2958.478
2965.772
2971.797
2979.009
2986.701
2992.751
2994.895
2991.474
2981.773
2965.97
2947.767
2933.1
2923.732
2922.518
2931.024
2949.459
2977.779
3015.87
3062.74
3115.802
3172.909
3231.691
3290.464
3347.04
3400.461
3450.063
3494.571
3532.536
3562.624
3583.57
3594.82
3595.778
3587.005
3570.485
3548.644
3522.462
3491.168
3454.675
3416.184
3378.97
3342.708
3306.8
3273.623
3248.171
3230.843
3218.333
3210.128
3211.988
3226.132
3252.656
3289.765
3336.903
3392.001
3449.099
3502.249
3548.239
3585.226
3612.523
3630.929
3642.404
3648.683
3651.815
3653.858
3656.3
3661.784
3670.186
3680.141
3692.479
3707.672
3725.715
3745.416
3765.021
3784.454
3804.023
3822.797
3839.243
3852.81
3863.38
3870.991
3875.959
3878.909
3880.83
3883.523
3888.857
3898.799
3914.636
3936.113
3961.755
3989.317
4016.634
4042.419
4066.357
4088.589
4108.801
4125.156
4136.468
4142.857
4146.785
4152.735
4159.394
4165.396
4171.268
4176.402
4183.57
4195.508
4211.007
4228.918
4248.963
4270.339
4292.042
4313.122
4333.079
4351.398
4367.961
4383.077
4397.183
4410.628
4423.64
4436.336
4448.697
4460.591
4471.842
4482.258
4491.609
4499.794
4506.806
4512.736
4517.759
4522.068
4525.796
4528.944
4531.471
4533.407
4534.81
4535.77
4536.553
4537.392
4538.3
4539.171
4540.049
4540.861
4541.341
4541.329
4540.864
4539.966
4538.734
4537.354
4535.909
4534.455
4533.146
4532.273
4531.997
4532.28
4532.976
4533.963
4535.175
4536.566
4538.149
4540.026
4542.257
4544.866
4547.868
4551.254
4554.96
4558.883
4562.928
4567.036
4571.167
4575.299
4579.466
4583.744
4588.238
4593.05
4598.248
4603.891
4610.019
4616.643
4623.731
4631.171
4638.765
4646.299
4653.602
4660.581
4667.21
4673.496
4679.453
4685.081
4690.382
4695.38
4700.075
4704.479
4708.56
4712.309
4715.782
4719.045
4722.158
4725.224
4728.165
4731.089
4734.145
4737.273
4740.269
4743.033
4745.55
4747.842
4749.887
4751.684
4753.281
4754.644
4755.905
4757.146
4758.363
4759.477
4760.538
4761.625
4762.682
4763.659
4764.527
4765.257
4765.802
4766.13
4766.235
4766.134
4765.864
4765.485
4765.071
4764.739
4764.604
4764.765
4765.322
4766.293
4767.57
4768.914
4770.119
4771.134
4771.918
4772.472
4772.952
4773.723
4774.836
4776.024
4777.111
4778.045
4778.838
4779.571
4780.212
4780.7
4780.996
4780.917
4780.4
4779.564
4778.428
4777.134
4775.804
4774.544
4773.431
4772.65
4771.855
4770.987
4770.183
4769.497
4768.787
4767.986
4766.886
4765.315
4763.364
4761.049
4758.423
4755.585
4752.612
4749.551
4746.458
4743.385
4740.404
4737.61
4735.086
4732.906
4731.137
4729.823
4728.963
4728.585
4728.669
4729.179
4730.066
4731.268
4732.714
4734.333
4736.055
4737.814
4739.559
4741.241
4742.82
4744.263
4745.559
4746.699
4747.679
4748.501
4749.171
4749.699
4750.094
4750.37
4750.539
4750.612
4750.602
4750.519
4750.371
4750.167
4749.911
4749.605
4749.252
4748.855
4748.42
4747.958
4747.491
4747.027
4746.56
4746.099
4745.641
4745.176
4744.697
4744.218
4743.754
4743.306
4742.869
4742.441
4742.024
4741.615
4741.213
4740.811
4740.406
4739.993
4739.568
4739.13
4738.674
4738.198
4737.7
4737.178
4736.63
4736.054
4735.451
4734.816
4734.151
4733.454
4732.722
4731.954
4731.149
4730.306
4729.421
4728.491
4727.518
4726.503
4725.451
4724.361
4723.233
4722.066
4720.861
4719.621
4718.343
4717.016
4715.625
4714.181
4712.702
4711.2
4709.677
4708.129
4706.554
4704.951
4703.319
4701.657
4699.964
4698.241
4696.487
4694.699
4692.878
4691.02
4689.123
4687.186
4685.208
4683.188
4681.129
4679.035
4676.917
4674.757
4672.506
4670.094
4667.472
4664.707
4661.804
4658.859
4655.936
4653.074
4650.257
4647.441
4644.622
4641.793
4638.962
4636.148
4633.42
4630.806
4628.404
4626.291
4624.252
4621.752
2716.047
2666.957
2614.842
2552.109
2504.975
2423.061
2380.225
2339.411
2300.482
2262.892
2227.405
2193.502
2161.256
2131.051
2102.345
2012.642
1990.949
1972.627
1958.133
1948.08
1942.873
1943.006
1949.25
1962.17
1981.984
2010.096
2043.756
2090.935
2147.555
2214.288
2292.986
2386.092
2494.617
2618.949
2759.828
2916.893
3089.13
3274.803
3470.839
3667.232
3860.06
4041.305
4201.151
4331.339
4424.136
4474.868
4482.33
4448.579
4375.613
4267.524
4132.14
3980.16
3824.11
3676.014
3538.652
3411.207
3293.274
3186.918
3093.423
3010.766
2937.177
2871.748
2810.393
2749.054
2689.337
2631.539
2574.665
2523.403
2484.364
2457.857
2440.307
2429.489
2428.861
2446.897
2484.955
2531.483
2580.382
2626.636
2665.989
2695.605
2714.921
2725.187
2728.787
2732.321
2740.626
2751.689
2761.75
2766.962
2764.005
2749.912
2724.903
2695.295
2668.372
2649.162
2643.333
2648.786
2665.03
2693.396
2734.927
2787.775
2847.097
2912.255
2980.377
3046.254
3107.147
3164.822
3219.267
3268.878
3311.872
3346.526
3371.202
3384.072
3384.127
3371.724
3350.341
3324.277
3294.461
3258.543
3215.222
3170.062
3128.739
3089.303
3049.377
3009.889
2978.873
2960.146
2944.259
2927.68
2930.817
2949.11
2974.761
3014.247
3068.709
3134.776
3203.664
3266.255
3318.32
3358.107
3385.146
3400.896
3408.122
3409.205
3406.215
3402.75
3399.688
3398.511
3402.718
3411.509
3424.006
3440.011
3460.188
3484.102
3509.603
3534.361
3557.476
3579.028
3597.938
3613.301
3624.723
3632.242
3635.851
3635.986
3633.682
3631.964
3633.081
3639.765
3654.238
3675.981
3703.195
3732.674
3761.14
3788.131
3814.771
3841.479
3868.055
3891.647
3908.277
3914.82
3914.724
3917.514
3920.723
3924.012
3930.569
3935.041
3939.26
3949.339
3963.426
3981.61
4002.753
4025.15
4047.89
4070.082
4090.529
4108.76
4125.229
4140.27
4154.33
4167.806
4180.89
4193.731
4206.348
4218.605
4230.258
4240.984
4250.51
4258.678
4265.472
4271.032
4275.628
4279.565
4283.047
4286.012
4288.299
4289.966
4291.086
4291.667
4292.158
4292.936
4294.093
4295.461
4296.732
4297.732
4298.264
4298.257
4297.654
4296.351
4294.618
4292.906
4291.167
4289.241
4287.432
4286.163
4285.589
4285.69
4286.355
4287.35
4288.602
4290.011
4291.561
4293.33
4295.461
4298.07
4301.163
4304.689
4308.57
4312.688
4316.902
4321.136
4325.331
4329.428
4333.463
4337.553
4341.879
4346.581
4351.691
4357.322
4363.524
4370.322
4377.713
4385.583
4393.667
4401.663
4409.34
4416.588
4423.404
4429.822
4435.874
4441.547
4446.848
4451.9
4456.698
4461.116
4465.097
4468.716
4472.036
4475.06
4477.865
4480.79
4483.623
4486.554
4489.752
4493.003
4496.094
4498.96
4501.536
4503.873
4505.896
4507.657
4509.341
4510.899
4512.225
4513.307
4514.31
4515.24
4516.17
4517.16
4518.235
4519.299
4520.264
4521.07
4521.67
4522.028
4522.132
4522.004
4521.692
4521.255
4520.773
4520.403
4520.253
4520.337
4520.797
4521.624
4522.666
4523.704
4524.572
4525.267
4525.833
4526.308
4526.81
4527.519
4528.443
4529.394
4530.232
4530.943
4531.584
4532.17
4532.657
4532.994
4533.11
4533.054
4532.878
4532.534
4532.056
4531.33
4530.36
4529.328
4528.358
4527.615
4526.952
4526.341
4525.753
4525.146
4524.395
4523.419
4522.232
4520.77
4518.954
4516.768
4514.201
4511.281
4508.16
4504.961
4501.757
4498.595
4495.523
4492.635
4490.019
4487.751
4485.894
4484.489
4483.585
4483.161
4483.215
4483.712
4484.6
4485.815
4487.283
4488.929
4490.68
4492.467
4494.238
4495.951
4497.554
4499.007
4500.315
4501.465
4502.451
4503.278
4503.95
4504.479
4504.873
4505.147
4505.312
4505.38
4505.363
4505.272
4505.116
4504.902
4504.637
4504.326
4503.971
4503.579
4503.156
4502.707
4502.254
4501.81
4501.355
4500.897
4500.441
4499.987
4499.532
4499.079
4498.632
4498.195
4497.766
4497.345
4496.933
4496.527
4496.124
4495.72
4495.312
4494.896
4494.468
4494.025
4493.565
4493.085
4492.583
4492.056
4491.503
4490.923
4490.314
4489.675
4489.004
4488.301
4487.564
4486.79
4485.979
4485.128
4484.236
4483.301
4482.323
4481.304
4480.244
4479.144
4478.005
4476.826
4475.608
4474.349
4473.048
4471.7
4470.3
4468.854
4467.372
4465.861
4464.323
4462.758
4461.166
4459.545
4457.895
4456.215
4454.505
4452.766
4450.996
4449.196
4447.364
4445.499
4443.599
4441.662
4439.687
4437.673
4435.62
4433.528
4431.396
4429.211
4426.95
4424.569
4421.991
4419.247
4416.379
4413.423
4410.488
4407.723
4405.094
4402.473
4399.887
4397.307
4394.72
4392.156
4389.673
4387.288
4385.078
4382.987
4381.205
4378.782
2798.709
2734.863
2663.477
2582.375
2505.319
2438.426
2377.79
2322.832
2273.205
2224.916
2111.766
2069.542
2029.369
1990.83
1953.789
1918.363
1884.558
1852.314
1821.761
1794.127
1769.007
1746.728
1727.292
1711.258
1699.25
1691.539
1688.401
1690.719
1699.46
1715.424
1739.123
1770.957
1812.658
1864.451
1927.793
2003.391
2092.056
2194.655
2312.915
2448.444
2601.748
2768.896
2948.777
3136.717
3324.92
3507.194
3675.662
3820.857
3934.673
4009.376
4041.596
4029.91
3976.301
3885.988
3766.463
3629.616
3483.17
3337.238
3198.644
3073.92
2966.621
2872.034
2789.184
2719.959
2657.75
2600.441
2550.852
2502.758
2449.778
2394.995
2337.133
2275.393
2220.413
2179.857
2151.142
2131.053
2117.951
2114.835
2136.194
2190.353
2255.782
2320.437
2382.294
2435
2472.167
2491.516
2495.892
2489.859
2488.981
2499.569
2516.508
2533.751
2545.629
2545.209
2525.566
2488.356
2442.72
2396.252
2363.35
2352.478
2355.89
2370.779
2397.375
2440.692
2506.536
2583.158
2659.358
2733.608
2804.017
2869.683
2932.27
2991.856
3046.914
3095.418
3135.096
3163.663
3178.333
3176.55
3158.774
3130.809
3099.523
3065.844
3025.364
2974.136
2922.277
2879.156
2838.377
2790.632
2749.107
2713.648
2693.047
2687.514
2679.359
2680.183
2684.823
2701.975
2738.853
2802.772
2883.223
2964.627
3036.779
3095.477
3137.806
3163.169
3174.464
3176.138
3170.69
3160.899
3150.518
3140.899
3133.155
3132.808
3141.08
3155.736
3175.822
3200.452
3227.598
3256.49
3285.322
3312.066
3336.324
3358.181
3376.137
3389.014
3396.51
3398.603
3395.261
3386.766
3377.666
3371.929
3374.202
3387.849
3411.11
3441.702
3475.126
3506.058
3534.486
3563.641
3595.612
3628.599
3657.931
3684.173
3697.757
3700.675
3699.066
3696.045
3692.618
3692.054
3692.507
3695.537
3704.376
3717.163
3735.381
3757.882
3782.618
3806.83
3828.925
3848.372
3865.498
3881.397
3896.117
3910.046
3923.613
3937.02
3950.295
3963.334
3976.031
3988.161
3999.286
4009.013
4017.133
4023.63
4028.703
4032.727
4036.182
4039.433
4042.489
4044.966
4046.715
4047.573
4047.34
4047.395
4048.607
4050.499
4052.181
4053.638
4054.908
4055.409
4055.561
4055.269
4054.259
4052.293
4049.691
4046.807
4043.944
4041.446
4039.605
4038.621
4038.463
4039.359
4040.766
4042.059
4043.111
4044.321
4045.843
4047.773
4050.309
4053.481
4057.194
4061.362
4065.803
4070.28
4074.714
4079.046
4083.152
4087.048
4090.831
4094.847
4099.455
4104.469
4110.063
4116.302
4123.221
4130.916
4139.313
4148.052
4156.74
4164.937
4172.475
4179.465
4186.038
4192.24
4198.031
4203.579
4208.804
4213.6
4217.852
4221.703
4225.234
4228.488
4231.378
4233.977
4236.742
4239.554
4242.509
4245.65
4248.847
4252.041
4255.05
4257.664
4260.254
4262.734
4264.889
4266.505
4267.824
4268.834
4269.509
4270.084
4270.769
4271.611
4272.627
4273.781
4274.96
4276.044
4276.944
4277.609
4278.006
4278.113
4277.952
4277.565
4277.004
4276.363
4275.897
4275.72
4275.648
4275.968
4276.744
4277.739
4278.65
4279.286
4279.746
4280.117
4280.351
4280.685
4281.326
4282.221
4283.122
4283.842
4284.349
4284.786
4285.212
4285.618
4285.958
4286.171
4286.236
4286.112
4285.797
4285.327
4284.858
4284.46
4284.007
4283.319
4282.607
4281.832
4281.108
4280.622
4280.089
4279.471
4278.603
4277.459
4276.068
4274.313
4272.164
4269.669
4266.87
4263.829
4260.612
4257.312
4254.048
4250.906
4247.954
4245.274
4242.942
4241.022
4239.563
4238.594
4238.119
4238.131
4238.595
4239.46
4240.659
4242.118
4243.759
4245.508
4247.297
4249.079
4250.8
4252.409
4253.833
4255.137
4256.285
4257.269
4258.092
4258.761
4259.286
4259.677
4259.946
4260.106
4260.169
4260.146
4260.049
4259.886
4259.666
4259.397
4259.084
4258.732
4258.348
4257.937
4257.508
4257.071
4256.632
4256.187
4255.742
4255.301
4254.862
4254.425
4253.989
4253.559
4253.135
4252.719
4252.309
4251.905
4251.505
4251.105
4250.704
4250.296
4249.879
4249.45
4249.006
4248.544
4248.061
4247.556
4247.026
4246.47
4245.886
4245.273
4244.63
4243.955
4243.247
4242.505
4241.726
4240.909
4240.053
4239.154
4238.214
4237.23
4236.205
4235.137
4234.028
4232.878
4231.687
4230.454
4229.179
4227.86
4226.495
4225.085
4223.631
4222.141
4220.62
4219.069
4217.491
4215.884
4214.246
4212.58
4210.884
4209.16
4207.407
4205.625
4203.816
4201.977
4200.107
4198.206
4196.272
4194.303
4192.297
4190.251
4188.162
4186.024
4183.823
4181.54
4179.14
4176.588
4173.884
4171.02
4167.96
4164.911
4162.28
4159.966
4157.538
4155.194
4152.883
4150.513
4148.143
4145.832
4143.599
4141.518
4139.484
4137.867
4135.524
2522.697
2443.04
2287.649
2221.795
2158.862
2101.2
2048.074
1998.68
1952.196
1908.332
1867.042
1826.465
1787.159
1748.967
1712.059
1676.386
1642.056
1609.195
1577.987
1549.126
1523.391
1500.362
1479.76
1461.805
1446.965
1436.14
1430.055
1429.397
1435.015
1448.095
1469.367
1499.122
1538.483
1587.593
1647.369
1717.992
1800.469
1897.54
2011.243
2141.655
2288.538
2448.649
2619.791
2796.678
2971.655
3137.97
3287.158
3410.576
3500.949
3551.407
3556.511
3516.068
3437.201
3329.82
3201.478
3061.857
2920.125
2788.137
2670.897
2569.265
2484.408
2413.939
2360.59
2321.721
2287.493
2260.401
2239.863
2205.139
2154.932
2105.834
2045.246
1964.236
1900.108
1870.64
1851.391
1824.776
1797.949
1790.341
1833.968
1904.902
1990.433
2071.769
2145.317
2208.237
2254.149
2277.136
2275.684
2251.149
2237.153
2251.795
2279.464
2306.908
2329.121
2335.225
2311.592
2257.159
2187.134
2115.391