/*--------------------------------*- C++ -*----------------------------------*\
| =========                 |                                                 |
| \\      /  F ield         | foam-extend: Open Source CFD                    |
|  \\    /   O peration     | Version:     3.1                                |
|   \\  /    A nd           | Web:         http://www.extend-project.de       |
|    \\/     M anipulation  |                                                 |
\*---------------------------------------------------------------------------*/
FoamFile
{
    version     2.0;
    format      ascii;
    class       volScalarField;
    location    "15.5";
    object      pd;
}
// * * * * * * * * * * * * * * * * * * * * * * * * * * * * * * * * * * * * * //

dimensions      [1 -1 -2 0 0 0 0];

internalField   nonuniform List<scalar> 
119952
(
5948.419
5158.319
5040.108
5157.658
5283.513
5193.143
5180.128
5171.064
5172.214
5175.829
5181.2
5187.273
5193.365
5199.103
5204.457
5209.499
5214.431
5217.707
5213.375
5177.986
5353.479
5263.464
5237.487
5469.224
5449.45
5490.519
5520.054
5596.781
5825.177
6082.591
4812.962
4829.324
4845.528
4858.442
4868.087
4873.29
4874.585
4866.402
4854.166
4838.724
4812.299
4795.309
4769.635
4744.143
4718.921
4695.541
4675.589
4659.869
4648.398
4659.004
4657.304
4658.305
4674.841
4696.395
4723.316
4755.205
4788.621
4822.421
4857.125
4878.115
4902.745
4927.806
4948.309
4966.447
4983.303
4999.508
5020.121
5068.732
5161.416
5100.372
5088.617
5143.401
5173.731
5174.632
5167.074
5166.789
5170.442
5175.746
5182.09
5188.964
5195.635
5201.857
5207.649
5212.998
5217.981
5222.482
5227.259
5234.958
5258.149
5280.958
5294.161
5354.707
5439.147
5467.083
5493.544
5521.344
5509.631
5392.504
5385.636
5425.602
5446.351
5465.851
5482.418
5496.681
5510.146
5523.67
5537.656
5552.356
5567.985
5584.44
5601.377
5618.6
5636.085
5653.573
5670.403
5685.799
5699.271
5711.397
5723.565
5736.812
5750.875
5764.667
5777.385
5788.837
5799.279
5809.064
5818.29
5826.906
5834.875
5842.211
5848.93
5855.048
5860.575
5865.519
5869.873
5873.645
5876.884
5879.63
5881.894
5883.742
5885.221
5886.288
5886.968
5887.257
5887.085
5886.527
5886.59
5887.34
5888.171
5886.954
5885.368
5884.385
5883.471
5882.871
5882.505
5882.452
5882.7
5883.254
5884.106
5885.251
5886.696
5888.446
5890.51
5892.896
5895.602
5898.618
5901.92
5905.466
5909.234
5913.199
5917.345
5921.661
5926.149
5930.821
5935.695
5940.793
5946.132
5951.722
5957.56
5963.632
5969.908
5976.344
5982.881
5989.454
5995.998
6002.451
6008.756
6014.869
6020.755
6026.39
6031.763
6036.861
6041.669
6046.154
6050.235
6053.799
6056.638
6064.452
6067.673
6070.975
6074.036
6077.177
6079.885
6082.774
6085.415
6088.036
6090.457
6092.753
6094.878
6096.821
6098.586
6100.174
6101.597
6102.875
6104.036
6105.107
6106.108
6107.047
6107.92
6108.716
6109.419
6110.018
6110.494
6110.832
6111.022
6111.036
6110.839
6110.394
6109.675
6108.509
6106.492
6102.702
6098.748
6106.109
6112.453
6117.505
6122.238
6127.602
6133.652
6137.344
6117.126
6114.381
6124.701
6130.518
6133.282
6134.617
6135.32
6135.858
6136.48
6136.751
6136.171
6134.818
6133.046
6130.883
6128.258
6125.231
6122.272
6119.794
6118.052
6116.994
6116.308
6115.831
6115.393
6114.894
6114.27
6113.448
6112.404
6116.702
6110.631
6107.064
6104.83
6101.993
6099.329
6096.586
6093.819
6091.132
6088.56
6086.226
6084.186
6082.519
6081.208
6080.298
6079.812
6079.749
6080.085
6080.782
6081.791
6083.053
6084.505
6086.082
6087.723
6089.37
6090.974
6092.495
6093.9
6095.168
6096.285
6097.246
6098.049
6098.701
6099.209
6099.586
6099.843
6099.996
6100.058
6100.046
6099.973
6099.857
6099.715
6099.571
6099.452
6099.36
6099.149
6098.593
6097.852
6097.29
6096.76
6096.264
6095.817
6095.368
6094.556
6092.33
6092.982
6092.905
6092.464
6092.061
6091.666
6091.294
6090.944
6090.604
6090.272
6089.939
6089.598
6089.245
6088.878
6088.494
6088.089
6087.663
6087.195
6086.737
6086.241
6085.714
6085.146
6084.556
6083.946
6083.289
6082.589
6081.857
6081.092
6080.286
6079.446
6078.575
6077.647
6076.696
6075.718
6074.655
6073.502
6072.048
6071.22
6070.037
6068.629
6066.858
6065.744
6064.62
6063.342
6062.028
6060.66
6059.248
6057.797
6056.312
6054.795
6053.248
6051.674
6050.071
6048.438
6046.773
6045.072
6043.332
6041.545
6039.701
6037.789
6035.798
6033.707
6031.479
6028.992
6026.519
6023.957
6021.319
6018.616
6015.719
6012.957
6010.01
6006.949
6003.769
6000.463
5997.02
5993.41
5989.594
5985.503
5981.012
5975.903
5970.058
5963.068
5956.075
5956.572
5977.687
4152.691
4149.831
4150.112
4157.165
4172.919
4189.226
4208.477
4228.246
4246.797
4241.454
4269.449
4280.241
4291.375
4299.816
4306.464
4311.89
4315.599
4316.905
4322.822
4331.628
4321.48
4314.846
4316.454
4322.954
4334.895
4353.083
4377.278
4409.73
4445.716
4480.525
4525.929
4572.35
4619.063
4664.786
4708.227
4748.286
4784.539
4819.335
4834.06
4849.852
4865.161
4873.648
4874.728
4871.197
4862.534
4849.344
4832.352
4808.542
4783.33
4757.799
4731.063
4705.11
4681.594
4662.068
4647.97
4639.96
4629.94
4635.603
4648.973
4668.533
4694.09
4725.51
4761.302
4798.985
4836.322
4869.472
4899.523
4924.769
4945.697
4963.511
4979.565
4995.16
5012.404
5033.394
5057.842
5080.812
5091.755
5097.869
5113.386
5132.168
5145.456
5152.774
5158.855
5166.267
5174.895
5183.795
5192.253
5199.951
5206.814
5212.969
5218.722
5224.633
5231.548
5240.747
5254.01
5272.682
5297.091
5327.138
5364.119
5404.698
5437.027
5457.94
5466.477
5463.153
5446.426
5438.084
5448.621
5464.415
5479.083
5491.539
5502.809
5514.008
5525.82
5538.412
5551.877
5566.909
5583.651
5601.773
5620.804
5640.153
5659.077
5676.871
5693.003
5707.575
5721.027
5734.125
5747.282
5760.447
5773.255
5785.396
5796.699
5807.127
5816.796
5825.725
5833.968
5841.463
5848.24
5854.349
5859.82
5864.683
5868.964
5872.715
5875.781
5878.409
5880.552
5882.358
5883.908
5885.133
5885.895
5886.493
5886.88
5887.001
5886.883
5886.671
5886.446
5886.091
5885.384
5884.477
5883.565
5882.81
5882.343
5882.198
5882.385
5882.894
5883.704
5884.795
5886.156
5887.792
5889.716
5891.937
5894.47
5897.303
5900.433
5903.811
5907.427
5911.25
5915.245
5919.393
5923.687
5928.136
5932.76
5937.587
5942.671
5948.033
5953.678
5959.604
5965.804
5972.243
5978.858
5985.566
5992.276
5998.907
6005.39
6011.681
6017.745
6023.564
6029.123
6034.413
6039.423
6044.152
6048.592
6052.817
6056.947
6061.343
6064.385
6068.491
6071.588
6074.633
6077.707
6080.597
6083.416
6086.136
6088.716
6091.148
6093.414
6095.508
6097.423
6099.165
6100.742
6102.166
6103.459
6104.649
6105.755
6106.793
6107.767
6108.672
6109.494
6110.213
6110.81
6111.269
6111.574
6111.709
6111.659
6111.411
6110.945
6110.235
6109.232
6107.929
6106.768
6106.877
6109.535
6113.784
6117.76
6121.506
6125.014
6127.477
6127.361
6122.397
6122.596
6126.743
6130.526
6133.064
6134.779
6135.951
6136.864
6137.483
6137.622
6136.976
6135.845
6134.289
6132.047
6129.223
6126.026
6122.895
6120.314
6118.504
6117.362
6116.586
6116.03
6115.562
6115.041
6114.433
6113.682
6113.086
6113.571
6111.623
6108.037
6104.788
6102.086
6099.454
6096.691
6093.829
6091.01
6088.393
6086.058
6083.937
6082.21
6080.75
6079.75
6079.193
6079.067
6079.349
6080.001
6080.975
6082.213
6083.65
6085.224
6086.871
6088.535
6090.165
6091.719
6093.165
6094.479
6095.646
6096.659
6097.515
6098.219
6098.778
6099.203
6099.505
6099.698
6099.796
6099.813
6099.764
6099.664
6099.524
6099.356
6099.156
6098.906
6098.565
6098.104
6097.565
6097.021
6096.512
6096.03
6095.56
6095.086
6094.506
6093.728
6093.115
6092.754
6092.366
6091.901
6091.475
6091.1
6090.785
6090.435
6090.073
6089.711
6089.343
6088.966
6088.576
6088.169
6087.744
6087.298
6086.831
6086.334
6085.812
6085.264
6084.69
6084.078
6083.434
6082.746
6081.975
6081.209
6080.419
6079.59
6078.756
6077.899
6076.968
6075.994
6074.987
6073.92
6072.834
6071.712
6070.498
6069.255
6067.689
6065.801
6064.513
6063.615
6062.484
6061.102
6059.671
6058.209
6056.716
6055.191
6053.636
6052.052
6050.437
6048.792
6047.114
6045.403
6043.654
6041.862
6040.022
6038.127
6036.169
6034.139
6032.03
6029.815
6027.182
6023.453
6021.003
6019.201
6017.043
6014.426
6011.616
6008.699
6005.67
6002.556
5999.345
5996.019
5992.565
5988.949
5985.122
5981.093
5976.885
5972.528
5968.483
5966
5964.85
5964.208
4319.838
4477.66
4653.837
4845.653
5050.025
5263.183
5476.584
5688.657
5889.824
6068.481
6214.921
6337.82
6422.739
6467.596
6470.053
6430.905
6353.802
6243.963
6112.038
5918.6
5754.666
5584.039
5418.394
5261.25
5115.601
4982.569
4862.151
4754.594
4661.322
4569.053
4491.093
4419.485
4355.487
4299.089
4250.633
4210.76
4180.228
4161.374
4145.142
4133.403
4137.36
4150.545
4168.293
4190.421
4213.172
4235.053
4255.062
4269.709
4282.828
4294.918
4302.802
4309.772
4315.244
4319.325
4322.049
4324.836
4316.882
4310.78
4307.547
4305.909
4306.821
4312.653
4325.247
4345.138
4372.236
4405.703
4445.552
4490.407
4537.49
4585.975
4635.001
4683.123
4728.889
4771.013
4808.391
4839.932
4864.425
4881.381
4891.344
4894.594
4891.281
4882.011
4867.692
4848.917
4825.869
4799.41
4770.398
4740.602
4711.309
4683.532
4658.727
4638.801
4624.862
4616.779
4614.946
4620.723
4633.523
4653.924
4682.168
4717.676
4758.481
4800.687
4840.71
4878.39
4910.238
4936.348
4957.154
4973.141
4986.667
4999.141
5011.705
5025.521
5040.982
5058.405
5072.068
5081.945
5095.127
5111.956
5127.546
5139.873
5150.671
5161.786
5173.287
5184.374
5194.366
5202.976
5210.174
5216.628
5222.527
5228.436
5235.496
5245.029
5258.255
5276.239
5299.34
5326.163
5356.509
5388.738
5416.81
5437.11
5450.54
5457.287
5457.084
5456.836
5464.46
5475.91
5486.904
5496.609
5505.654
5514.743
5524.822
5536.066
5548.671
5563.753
5581.219
5599.951
5619.72
5639.893
5659.691
5678.073
5694.824
5710.993
5726.135
5740.022
5753.257
5766.232
5778.847
5790.948
5802.399
5813.053
5822.818
5831.697
5839.771
5846.972
5853.315
5858.9
5863.864
5868.217
5871.953
5875.13
5877.771
5879.904
5881.68
5883.171
5884.389
5885.363
5886.171
5886.876
5887.323
5887.49
5887.439
5887.173
5886.733
5886.148
5885.343
5884.342
5883.361
5882.581
5882.092
5882.001
5882.305
5882.944
5883.857
5885.028
5886.448
5888.122
5890.074
5892.334
5894.919
5897.821
5901.033
5904.515
5908.211
5912.057
5915.994
5920.11
5924.39
5928.785
5933.318
5938.061
5943.067
5948.374
5954.012
5959.992
5966.304
5972.909
5979.727
5986.648
5993.55
6000.333
6006.922
6013.274
6019.369
6025.197
6030.751
6036.029
6041.023
6045.744
6050.194
6054.414
6058.407
6062.152
6065.677
6069.246
6072.606
6075.746
6078.764
6081.718
6084.6
6087.367
6089.975
6092.404
6094.645
6096.69
6098.545
6100.222
6101.73
6103.1
6104.365
6105.531
6106.633
6107.695
6108.709
6109.675
6110.558
6111.268
6111.848
6112.335
6112.694
6112.823
6112.733
6112.46
6112.019
6111.418
6110.799
6110.367
6110.394
6111.174
6112.935
6115.402
6118.041
6120.413
6122.42
6123.322
6123.894
6123.489
6124.047
6125.955
6128.232
6130.128
6131.602
6132.733
6133.632
6134.23
6134.498
6134.302
6133.52
6132.36
6130.79
6128.732
6126.423
6124.19
6122.306
6120.846
6119.568
6118.309
6117.14
6116.233
6115.538
6114.87
6114.054
6113.096
6111.77
6109.799
6107.501
6105.116
6102.674
6100.074
6097.287
6094.408
6091.554
6088.816
6086.269
6083.973
6081.971
6080.494
6079.364
6078.67
6078.412
6078.576
6079.13
6080.027
6081.208
6082.612
6084.171
6085.822
6087.507
6089.172
6090.775
6092.278
6093.655
6094.891
6095.974
6096.903
6097.678
6098.306
6098.796
6099.159
6099.407
6099.553
6099.611
6099.594
6099.513
6099.38
6099.198
6098.97
6098.688
6098.345
6097.926
6097.443
6096.933
6096.432
6095.942
6095.462
6094.979
6094.53
6094.164
6093.708
6093.168
6092.604
6091.995
6091.535
6091.158
6090.768
6090.369
6089.979
6089.592
6089.203
6088.807
6088.399
6087.977
6087.537
6087.077
6086.594
6086.085
6085.55
6084.99
6084.401
6083.779
6083.126
6082.444
6081.731
6080.973
6080.159
6079.222
6078.319
6077.399
6076.464
6075.558
6074.562
6073.492
6072.388
6071.242
6070.05
6068.848
6067.651
6066.403
6064.991
6063.478
6061.983
6060.542
6059.08
6057.58
6056.051
6054.494
6052.906
6051.289
6049.641
6047.961
6046.249
6044.501
6042.715
6040.888
6039.015
6037.091
6035.112
6033.076
6030.986
6028.823
6026.171
6022.173
6019.506
6016.775
6014.69
6013.253
6010.952
6008.16
6005.212
6002.189
5999.102
5995.939
5992.695
5989.359
5985.92
5982.407
5978.893
5975.374
5971.967
5969.663
5967.889
5966.109
3536.176
3544.639
3565.735
3589.29
3624.435
3676.161
3737.333
3813.134
3904.939
3987.54
4069.587
4174.504
4302.151
4448.638
4614.222
4794.566
4986.316
5184.099
5384.948
5583.481
5771.996
5946.407
6093.746
6207.272
6284.721
6321.893
6316.907
6271.099
6188.076
6075.737
5949.12
5722.651
5577.816
5428.624
5273.883
5127.105
4993.51
4873.164
4764.979
4667.999
4581.103
4502.297
4430.039
4363.777
4303.81
4250.544
4205.087
4168.441
4140.764
4121.851
4111.643
4110.953
4120.246
4138.954
4164.154
4192.293
4220.479
4246.205
4267.718
4284.542
4296.808
4305.457
4312.442
4319.069
4325.037
4329.354
4330.764
4328.463
4322.341
4313.029
4303.61
4296.271
4292.837
4295.667
4306.924
4326.771
4354.765
4390.739
4433.778
4481.663
4532.823
4585.959
4639.342
4691.325
4740.605
4786.104
4826.538
4860.581
4886.95
4904.96
4914.884
4916.777
4910.72
4897.911
4879.864
4857.283
4830.086
4798.918
4765.676
4732.455
4699.932
4668.769
4640.826
4618.654
4603.351
4593.964
4590.488
4594.895
4608.56
4631.613
4663.821
4704.739
4751.644
4800.258
4846.261
4887.357
4921.472
4948.075
4967.588
4982.207
4992.554
5000.648
5008.095
5016.318
5026.709
5038.954
5050.934
5062.692
5076.695
5093.397
5110.724
5126.958
5142.241
5157.221
5171.624
5184.464
5193.789
5204.014
5213.812
5220.638
5225.495
5229.996
5235.56
5243.69
5255.812
5272.852
5294.733
5320.284
5348.124
5376.4
5402.309
5424.152
5441.965
5455.767
5464.915
5471.814
5478.88
5485.954
5492.842
5499.789
5498.648
5497.185
5507.935
5529.979
5547.588
5562.573
5579.462
5598.514
5618.95
5638.484
5657.576
5677.722
5697.145
5713.884
5728.832
5742.469
5755.651
5768.834
5781.909
5794.255
5805.903
5816.847
5827.044
5836.23
5844.377
5851.435
5857.618
5863.021
5867.715
5871.732
5875.139
5877.95
5880.186
5881.905
5883.236
5884.332
5885.348
5886.257
5887.068
5887.784
5888.367
5888.656
5888.623
5888.267
5887.603
5886.694
5885.588
5884.323
5882.782
5881.73
5881.416
5881.564
5881.914
5882.577
5883.529
5884.725
5886.145
5887.799
5889.729
5891.976
5894.561
5897.506
5900.78
5904.185
5907.89
5911.889
5916.096
5920.269
5924.456
5928.726
5933.141
5937.774
5942.696
5947.957
5953.596
5959.642
5966.095
5972.915
5980.004
5987.215
5994.391
6001.402
6008.164
6014.64
6020.819
6026.703
6032.29
6037.58
6042.579
6047.291
6051.711
6055.837
6059.663
6063.159
6066.57
6070.012
6073.339
6076.429
6079.42
6082.409
6085.37
6088.22
6090.877
6093.309
6095.57
6097.645
6099.498
6101.149
6102.61
6103.927
6105.143
6106.257
6107.343
6108.253
6108.556
6109.515
6110.951
6112.303
6113.091
6113.6
6113.905
6114.008
6113.916
6113.655
6113.267
6112.779
6112.354
6112.211
6112.426
6113.094
6114.329
6116.045
6117.906
6119.572
6120.98
6122.01
6122.598
6122.73
6123.418
6124.935
6126.605
6128.058
6129.303
6130.358
6131.173
6131.751
6132.101
6132.1
6131.779
6131.213
6130.287
6128.939
6127.274
6125.285
6123.209
6121.446
6120.251
6119.415
6118.86
6118.38
6117.666
6116.679
6115.592
6114.301
6112.812
6111.072
6108.924
6106.438
6103.768
6100.949
6097.981
6094.946
6091.945
6089.064
6086.38
6083.96
6081.872
6080.199
6078.977
6078.193
6077.868
6077.984
6078.507
6079.39
6080.575
6081.993
6083.578
6085.261
6086.983
6088.688
6090.332
6091.876
6093.292
6094.564
6095.683
6096.645
6097.452
6098.11
6098.627
6099.014
6099.283
6099.447
6099.519
6099.509
6099.431
6099.291
6099.097
6098.852
6098.557
6098.208
6097.802
6097.348
6096.87
6096.39
6095.903
6095.427
6094.966
6094.523
6094.083
6093.581
6093.06
6092.566
6092.102
6091.649
6091.209
6090.79
6090.388
6089.993
6089.598
6089.2
6088.794
6088.376
6087.945
6087.495
6087.026
6086.534
6086.018
6085.476
6084.907
6084.31
6083.681
6083.022
6082.332
6081.608
6080.846
6080.044
6079.185
6078.261
6077.342
6076.408
6075.425
6074.387
6073.306
6072.189
6071.033
6069.841
6068.621
6067.376
6066.079
6064.695
6063.242
6061.758
6060.265
6058.758
6057.23
6055.677
6054.093
6052.477
6050.836
6049.167
6047.466
6045.73
6043.96
6042.153
6040.307
6038.419
6036.486
6034.507
6032.481
6030.414
6028.314
6026.197
6023.912
6020.095
6015.923
6013.213
6010.416
6009.5
6007.756
6004.984
6002.045
5999.083
5996.086
5993.051
5989.974
5986.861
5983.736
5980.667
5977.692
5974.84
5972.584
5970.628
5968.245
3756.736
3722.087
3691.86
3663.152
3633.244
3606.384
3584.588
3566.225
3552.4
3542.863
3538.823
3538.587
3546.36
3561.181
3583.016
3614.492
3665.068
3721.122
3785.926
3858.963
3938.965
4033.53
4145.992
4276.116
4423.453
4587.44
4765.718
4955.215
5153.072
5353.957
5553.138
5741.785
5909.633
6048.24
6150.949
6213.764
6234.441
6212.288
6151.064
6055.061
5928.528
5775.751
5604.702
5448.388
5301.918
5159.336
5024.965
4902.658
4793.111
4695.115
4607.368
4529.005
4457.137
4389.3
4325.921
4267.013
4212.68
4165.83
4129.373
4102.611
4084.266
4074.609
4075.466
4089.46
4116.033
4149.833
4185.934
4220.925
4252.127
4277.392
4295.607
4307.353
4314.647
4320.672
4327.884
4335.576
4341.626
4343.77
4340.349
4330.648
4314.845
4296.642
4281.975
4272.607
4271.393
4279.899
4298.334
4326.653
4364.744
4411.612
4464.662
4521.731
4580.401
4638.822
4694.851
4748.463
4798.69
4843.428
4881.411
4911.499
4932.445
4943.695
4944.653
4935.88
4919.354
4897.452
4870.986
4839.336
4803.048
4764.921
4727.825
4691.55
4655.552
4621.944
4595.801
4578.862
4566.839
4558.606
4559.96
4572.104
4595.007
4631.334
4682.097
4740.278
4797.949
4851.123
4897.114
4934.101
4961.398
4979.803
4991.277
4997.536
5000.46
5002.123
5004.754
5010.538
5019.051
5029.014
5041.352
5056.545
5074.585
5094.273
5113.836
5133.042
5150.534
5158.605
5172.495
5190.874
5209.812
5219.698
5224.832
5227.784
5229.705
5232.398
5237.732
5247.673
5263.51
5284.98
5310.57
5338.053
5365.39
5391.243
5415.215
5437.447
5457.66
5474.013
5485.293
5491.255
5488.778
5456.998
5454.26
5479.579
5513.104
5524.193
5531.965
5544.105
5559.322
5569.25
5581.264
5606.4
5637.115
5660.457
5680.413
5697.004
5712.106
5728.086
5744.779
5759.284
5772.453
5785.194
5797.568
5809.463
5820.711
5831.084
5840.171
5848.28
5855.415
5861.545
5866.626
5870.941
5874.669
5877.818
5880.346
5882.282
5883.685
5884.645
5885.428
5886.266
5887.171
5888.026
5888.825
5889.258
5889.468
5889.768
5889.654
5888.832
5887.559
5885.275
5882.666
5881.425
5881.239
5880.995
5880.859
5881.155
5881.851
5882.838
5884.05
5885.441
5887.023
5888.896
5891.082
5893.211
5895.953
5899.494
5903.643
5907.723
5911.791
5915.908
5920.042
5924.174
5928.341
5932.619
5937.113
5941.925
5947.123
5952.766
5958.894
5965.518
5972.606
5980.046
5987.64
5995.174
6002.477
6009.456
6016.085
6022.371
6028.328
6033.956
6039.256
6044.251
6048.927
6053.192
6056.987
6060.799
6064.514
6067.898
6071.028
6074.093
6077.032
6079.941
6082.891
6085.623
6088.51
6091.479
6094.333
6096.711
6098.759
6100.556
6102.152
6103.51
6104.729
6105.504
6103.963
6104.37
6106.569
6109.807
6111.46
6112.505
6113.395
6114.132
6114.676
6115.005
6115.11
6115.004
6114.705
6114.305
6113.919
6113.603
6113.476
6113.64
6114.196
6115.161
6116.433
6117.777
6118.985
6120.007
6120.793
6121.347
6121.827
6122.598
6123.711
6124.899
6125.986
6126.92
6127.713
6128.446
6129.086
6129.572
6129.868
6129.791
6129.275
6128.439
6127.303
6126.009
6124.679
6123.419
6122.305
6121.52
6120.724
6119.859
6119.058
6118.372
6117.661
6116.858
6115.759
6114.189
6112.238
6109.924
6107.298
6104.46
6101.487
6098.426
6095.333
6092.26
6089.279
6086.485
6083.961
6081.781
6080.011
6078.698
6077.838
6077.46
6077.544
6078.054
6078.941
6080.143
6081.589
6083.208
6084.928
6086.688
6088.433
6090.116
6091.695
6093.138
6094.434
6095.574
6096.554
6097.376
6098.046
6098.574
6098.969
6099.245
6099.414
6099.487
6099.477
6099.394
6099.246
6099.042
6098.786
6098.48
6098.127
6097.73
6097.295
6096.833
6096.366
6095.902
6095.435
6094.974
6094.516
6094.051
6093.572
6093.093
6092.629
6092.181
6091.744
6091.316
6090.899
6090.49
6090.088
6089.686
6089.28
6088.868
6088.443
6088.005
6087.549
6087.073
6086.575
6086.053
6085.505
6084.929
6084.326
6083.691
6083.026
6082.329
6081.597
6080.829
6080.024
6079.181
6078.296
6077.365
6076.391
6075.376
6074.325
6073.236
6072.108
6070.941
6069.736
6068.496
6067.218
6065.891
6064.5
6063.056
6061.577
6060.075
6058.552
6057.004
6055.429
6053.824
6052.183
6050.52
6048.83
6047.114
6045.362
6043.574
6041.753
6039.895
6037.998
6036.061
6034.083
6032.063
6030.004
6027.91
6025.788
6023.572
6020.8
6017.091
6014.639
6012.797
6010.538
6007.727
6004.811
6001.949
5999.132
5996.316
5993.497
5990.668
5987.837
5985.023
5982.295
5979.678
5977.272
5975.158
5973.122
5970.621
4223.682
4163.043
4107.479
4054.266
4007.131
3955.873
3913.037
3872.224
3833.294
3795.704
3760.217
3726.315
3694.068
3663.864
3635.157
3606.767
3585.074
3566.752
3552.258
3542.205
3536.998
3537.131
3543.375
3556.295
3576.109
3604.221
3637.88
3685.06
3741.679
3808.413
3887.111
3980.217
4088.742
4213.074
4353.953
4511.018
4683.255
4868.928
5064.964
5261.357
5454.185
5635.43
5795.276
5925.464
6018.261
6068.993
6076.455
6042.704
5969.738
5861.649
5726.265
5574.285
5418.235
5270.139
5132.777
5005.332
4887.399
4781.043
4687.548
4604.891
4531.302
4465.873
4404.518
4343.179
4283.462
4225.664
4168.79
4117.528
4078.489
4051.981
4034.432
4023.613
4022.983
4041.019
4079.077
4125.606
4174.506
4220.761
4260.114
4289.73
4309.046
4319.312
4322.912
4326.446
4334.751
4345.814
4355.875
4361.087
4358.13
4344.037
4319.027
4289.419
4262.496
4243.285
4237.456
4242.908
4259.15
4287.508
4329.002
4381.698
4440.125
4498.658
4544.905
4614.657
4693.509
4758.281
4813.378
4863.002
4905.997
4940.651
4965.327
4978.196
4978.248
4965.803
4944.084
4916.265
4885.05
4850.512
4808.821
4764.083
4722.721
4682.974
4641.532
4601.293
4571.138
4552.635
4535.389
4510.24
4471.989
4436.867
4500.027
4590.807
4661.518
4728.872
4797.779
4860.37
4912.434
4952.222
4979.261
4995.002
5002.11
5002.247
4998.835
4995.851
4993.577
4992.584
4996.793
5005.562
5017.991
5033.913
5053.92
5076.045
5074.993
5075.397
5105.413
5156.88
5189.525
5206.93
5218.768
5226.362
5229.975
5230.11
5227.805
5226.086
5227.203
5233.875
5248.182
5269.785
5297.082
5326.636
5355.098
5382.044
5408.664
5435.398
5462.048
5485.619
5500.76
5484.9
5429.878
5437.304
5477.968
5509.235
5516.828
5474.688
5443.679
5469.225
5535.353
5572.561
5593.936
5615.84
5634.458
5643.516
5664.183
5693.993
5717.34
5733.892
5748.323
5761.909
5774.998
5787.84
5800.444
5812.492
5823.445
5834.156
5844.192
5852.7
5859.579
5865.156
5869.752
5873.69
5877.171
5880.136
5882.424
5884.09
5885.21
5885.79
5886.275
5887.001
5887.555
5884.561
5884.01
5886.611
5891.037
5892.277
5891.719
5890.375
5888.464
5886.575
5884.834
5882.892
5878.883
5876.029
5876.04
5878.587
5880.333
5881.404
5882.636
5883.733
5883.874
5885.46
5888.421
5891.943
5895.202
5898.755
5902.669
5906.808
5911.027
5915.261
5919.456
5923.553
5927.587
5931.676
5935.998
5940.698
5945.812
5951.446
5957.649
5964.447
5971.838
5979.708
5987.792
5995.788
6003.465
6010.713
6017.529
6023.947
6029.998
6035.663
6040.902
6045.444
6048.602
6053.124
6058.431
6062.732
6066.156
6069.182
6071.983
6074.871
6077.34
6077.822
6079.753
6085.183
6089.917
6093.067
6095.652
6097.988
6100.003
6101.711
6102.788
6098.832
6097.018
6099.738
6105.973
6108.922
6110.125
6111.214
6112.342
6113.422
6114.389
6115.195
6115.794
6116.152
6116.252
6116.071
6115.655
6115.292
6114.88
6114.527
6114.378
6114.462
6114.922
6115.746
6116.781
6117.821
6118.694
6119.392
6119.958
6120.433
6120.935
6121.644
6122.567
6123.519
6124.355
6125.056
6125.648
6126.214
6126.727
6127.106
6127.234
6127.179
6127.003
6126.659
6126.18
6125.454
6124.479
6123.417
6122.431
6121.706
6121.07
6120.466
6119.878
6119.271
6118.52
6117.544
6116.356
6114.894
6113.077
6110.892
6108.325
6105.405
6102.285
6099.086
6095.882
6092.72
6089.648
6086.76
6084.141
6081.87
6080.014
6078.612
6077.709
6077.286
6077.34
6077.837
6078.725
6079.94
6081.408
6083.054
6084.803
6086.588
6088.36
6090.074
6091.678
6093.132
6094.44
6095.59
6096.576
6097.403
6098.075
6098.604
6098.998
6099.272
6099.437
6099.505
6099.488
6099.397
6099.241
6099.027
6098.762
6098.451
6098.097
6097.704
6097.281
6096.832
6096.379
6095.935
6095.48
6095.022
6094.566
6094.112
6093.657
6093.204
6092.757
6092.32
6091.891
6091.47
6091.058
6090.652
6090.249
6089.845
6089.437
6089.021
6088.593
6088.15
6087.69
6087.21
6086.708
6086.181
6085.628
6085.048
6084.439
6083.8
6083.129
6082.426
6081.689
6080.915
6080.104
6079.253
6078.361
6077.426
6076.448
6075.429
6074.369
6073.269
6072.13
6070.951
6069.733
6068.474
6067.173
6065.825
6064.425
6062.979
6061.497
6059.986
6058.448
6056.883
6055.291
6053.669
6052.013
6050.326
6048.621
6046.889
6045.121
6043.321
6041.489
6039.624
6037.724
6035.787
6033.812
6031.798
6029.745
6027.653
6025.52
6023.332
6021.062
6018.66
6016.041
6013.275
6010.427
6007.526
6004.611
6001.846
5999.215
5996.59
5994.003
5991.426
5988.844
5986.281
5983.797
5981.413
5979.202
5977.112
5975.33
5972.901
4546.958
4512.926
4441.539
4360.438
4283.381
4216.489
4155.853
4100.894
4051.268
4002.978
3951.141
3908.917
3868.744
3830.205
3793.164
3757.738
3723.933
3691.689
3661.136
3633.502
3608.382
3586.103
3566.667
3550.633
3538.624
3530.914
3527.775
3530.094
3538.835
3554.799
3578.498
3610.332
3652.033
3703.826
3767.168
3842.766
3931.431
4034.03
4152.29
4287.819
4441.123
4608.271
4788.152
4976.092
5164.295
5346.569
5515.037
5660.232
5774.048
5848.751
5880.971
5869.285
5815.676
5725.363
5605.838
5468.991
5322.545
5176.613
5038.019
4913.295
4805.996
4711.409
4628.559
4559.333
4497.123
4439.809
4390.211
4342.11
4289.131
4234.346
4176.463
4114.624
4059.493
4018.896
3990.166
3969.924
3955.854
3951.237
3972.626
4027.188
4093.406
4159.045
4221.508
4274.313
4311.478
4330.816
4335.169
4329.122
4328.247
4338.858
4355.832
4373.082
4384.958
4384.526
4364.823
4327.429
4281.778
4235.353
4202.466
4191.572
4194.916
4209.606
4235.71
4276.862
4324.144
4304.579
4355.329
4474.536
4622.521
4707.797
4771.626
4831.228
4886.286
4934.789
4974.465
5003.025
5017.637
5015.437
4995.9
4962.528
4930.624
4900.359
4863.698
4812.258
4759.645
4715.222
4672.235
4623.845
4581.91
4542.658
4502.915
4411.184
4041.705
4033.014
4342.492
4518.208
4575.46
4640.42
4721.253
4802.727
4874.731
4933.205
4976.213
5002.01
5012.428
5010.167
5005.423
4998.626
4989.107
4978.665
4969.217
4969.24
4978.835
4991.489
4965.275
4947.232
4979.837
5060.338
5115.632
5147.026
5174.212
5197.272
5215.34
5228.279
5235.796
5237.852
5234.037
5224.531
5215.576
5210.718
5213.421
5227.048
5250.266
5280.785
5313.848
5344.146
5372.624
5401.683
5431.691
5459.281
5487.562
5515.322
5510.4
5294.134
5215.139
5212.119
5243.888
5445.757
5520.512
5521.953
5527.882
5546.673
5571.361
5592.258
5595.961
5605.304
5635.361
5676.528
5703.218
5720.655
5735.425
5749.354
5762.918
5776.216
5788.517
5800.599
5813.69
5826.904
5838.5
5848.344
5856.498
5863.003
5868.078
5872.102
5875.557
5878.808
5881.863
5884.34
5886.083
5886.912
5886.524
5885.54
5880.313
5876.822
5883.969
5891.144
5893.805
5894.306
5894.48
5893.705
5882.366
5868.971
5869.062
5879.024
5882.523
5880.501
5878.631
5877.356
5876.914
5875.721
5870.632
5871.457
5877.425
5882.784
5885.053
5887.079
5889.667
5892.854
5896.568
5900.737
5905.178
5909.655
5914.089
5918.417
5922.484
5926.284
5930.087
5934.153
5938.805
5943.839
5949.437
5955.676
5962.595
5970.287
5978.664
5987.244
5994.979
6002.742
6010.807
6018.63
6025.389
6031.551
6036.73
6036.926
6039.925
6047.324
6055.981
6060.999
6064.605
6067.86
6070.749
6073.286
6074.609
6070.303
6072.258
6078.819
6087.02
6091.35
6094.383
6096.953
6099.032
6094.342
6087.372
6090.142
6100.446
6106.745
6108.544
6109.397
6110.124
6110.955
6111.928
6113.111
6114.324
6115.418
6116.318
6116.983
6117.364
6117.322
6117.054
6116.718
6116.306
6115.731
6115.272
6115.095
6115.023
6115.343
6116.118
6117.114
6118.025
6118.661
6119.121
6119.492
6119.726
6120.059
6120.694
6121.557
6122.254
6122.434
6122.97
6123.865
6124.54
6124.988
6125.332
6125.545
6125.611
6125.486
6125.163
6124.631
6123.907
6123.491
6123.221
6122.663
6121.978
6121.206
6120.483
6119.997
6119.464
6118.846
6117.978
6116.834
6115.443
6113.688
6111.538
6109.042
6106.244
6103.203
6099.986
6096.687
6093.423
6090.281
6087.329
6084.649
6082.317
6080.396
6078.932
6077.962
6077.488
6077.499
6077.965
6078.833
6080.034
6081.493
6083.134
6084.883
6086.668
6088.449
6090.171
6091.782
6093.208
6094.512
6095.66
6096.644
6097.467
6098.136
6098.661
6099.052
6099.321
6099.481
6099.544
6099.521
6099.424
6099.261
6099.041
6098.772
6098.459
6098.107
6097.723
6097.312
6096.883
6096.446
6096.007
6095.562
6095.117
6094.676
6094.237
6093.8
6093.364
6092.934
6092.51
6092.094
6091.684
6091.28
6090.88
6090.48
6090.079
6089.671
6089.254
6088.825
6088.381
6087.919
6087.436
6086.931
6086.401
6085.845
6085.261
6084.648
6084.005
6083.33
6082.622
6081.88
6081.101
6080.284
6079.428
6078.529
6077.589
6076.605
6075.58
6074.512
6073.403
6072.253
6071.062
6069.829
6068.554
6067.235
6065.87
6064.46
6063.006
6061.516
6059.995
6058.444
6056.866
6055.259
6053.621
6051.954
6050.258
6048.532
6046.78
6045
6043.191
6041.352
6039.482
6037.581
6035.647
6033.678
6031.672
6029.626
6027.537
6025.399
6023.198
6020.914
6018.515
6015.962
6013.253
6010.378
6007.303
6004.231
6001.55
5999.188
5996.776
5994.513
5992.251
5989.888
5987.517
5985.205
5982.972
5980.891
5978.859
5977.242
5974.891
4515.35
4466.352
4372.274
4306.42
4243.486
4185.825
4132.699
4083.305
4036.821
3992.957
3951.667
3911.09
3871.784
3833.592
3796.684
3761.011
3726.681
3693.82
3662.612
3633.751
3608.016
3584.986
3564.385
3546.43
3531.59
3520.764
3514.68
3514.022
3519.64
3532.72
3553.992
3583.747
3623.108
3672.218
3731.994
3802.617
3885.094
3982.165
4095.868
4226.28
4373.163
4533.274
4704.416
4881.303
5056.28
5222.595
5371.783
5495.201
5585.574
5636.032
5641.136
5600.693
5521.826
5414.445
5286.103
5146.482
5004.749
4872.76
4755.511
4653.846
4568.899
4498.329
4444.937
4405.977
4371.331
4342.883
4320.751
4285.926
4235.885
4186.383
4122.209
4029.755
3954.188
3924.799
3905.089
3858.44
3775.88
3681.02
3713.825
3837.941
4025.71
4150.492
4226.571
4288.88
4331.362
4344.724
4344.417
4328.904
4319.618
4334.611
4362.075
4388.636
4410.476
4417.218
4393.732
4335.561
4255.978
4184.483