/*--------------------------------*- C++ -*----------------------------------*\
| =========                 |                                                 |
| \\      /  F ield         | foam-extend: Open Source CFD                    |
|  \\    /   O peration     | Version:     3.1                                |
|   \\  /    A nd           | Web:         http://www.extend-project.de       |
|    \\/     M anipulation  |                                                 |
\*---------------------------------------------------------------------------*/
FoamFile
{
    version     2.0;
    format      ascii;
    class       volScalarField;
    location    "19";
    object      k;
}
// * * * * * * * * * * * * * * * * * * * * * * * * * * * * * * * * * * * * * //

dimensions      [0 2 -2 0 0 0 0];

internalField   nonuniform List<scalar> 
119952
(
0.08034163
0.07681014
0.07596809
0.0742147
0.0722909
0.0707396
0.07006413
0.06980914
0.06973668
0.06976078
0.0698208
0.0698775
0.06990504
0.06988635
0.06980869
0.06966573
0.06945887
0.06920202
0.06896032
0.06905213
0.07132862
0.06863433
0.0678357
0.06994421
0.06630392
0.06399332
0.06206546
0.06026677
0.05742391
0.02869103
0.09554099
0.09386388
0.09177936
0.09032887
0.08960413
0.08950064
0.08983884
0.09043799
0.09116152
0.0919374
0.08724523
0.08703011
0.08914254
0.09224304
0.09558678
0.09875186
0.1015951
0.1040889
0.1062309
0.1154376
0.1166738
0.1175099
0.1179437
0.1181699
0.1183468
0.1185461
0.1188009
0.1191213
0.1194214
0.1201865
0.1207592
0.1211385
0.1214098
0.1215982
0.1217166
0.1217714
0.1217505
0.1218374
0.1242599
0.1243644
0.1237015
0.1237487
0.1238807
0.1236965
0.1230303
0.1221801
0.121318
0.1204895
0.1197127
0.1189865
0.1182982
0.1176257
0.1169517
0.1162681
0.1155757
0.114876
0.1141611
0.1134233
0.1129023
0.1125027
0.111818
0.1114842
0.1120347
0.1122758
0.1122803
0.1125228
0.11267
0.1105214
0.1085895
0.1069453
0.1054441
0.1041656
0.1030411
0.1020567
0.1012009
0.1004471
0.09976867
0.09913977
0.09853704
0.09794138
0.09733738
0.09671323
0.0960623
0.09538723
0.09470391
0.09404322
0.09344751
0.09295958
0.09260537
0.09237731
0.09222793
0.09208006
0.09184201
0.09142655
0.09077083
0.08987421
0.0888813
0.08815956
0.08802855
0.08842984
0.08908983
0.08967911
0.08994321
0.08974558
0.08908534
0.08803533
0.08666598
0.08508413
0.08351233
0.08201794
0.08052783
0.07896335
0.07728187
0.07548795
0.07365935
0.07189162
0.07024881
0.06883096
0.06754016
0.06640373
0.06543997
0.06466737
0.06410985
0.06380109
0.06378186
0.06410395
0.06483131
0.06604856
0.06786292
0.07038766
0.07372175
0.07793497
0.08305161
0.08898626
0.09556903
0.1026038
0.1098701
0.1171237
0.1240158
0.1300109
0.1345918
0.1375293
0.1389493
0.1390503
0.1379965
0.1358057
0.1325376
0.1284558
0.123824
0.1187515
0.1133639
0.1077937
0.1021871
0.09671753
0.09158411
0.08697462
0.08301037
0.07972338
0.07707803
0.07499933
0.07339737
0.07217324
0.07121629
0.070275
0.06906514
0.06733716
0.0659806
0.06692367
0.07026552
0.07337841
0.07591813
0.07740672
0.07674892
0.07325346
0.06802257
0.06337241
0.06058487
0.05921519
0.05809045
0.05660616
0.05502739
0.05371172
0.05283901
0.05238167
0.0521305
0.05183088
0.05135979
0.0506781
0.04979299
0.04880883
0.04775452
0.04663598
0.04545485
0.04425006
0.0430189
0.04172514
0.04063561
0.04002597
0.04001706
0.04042465
0.04101561
0.04182028
0.04275291
0.04395391
0.04484693
0.04506714
0.04468903
0.04389537
0.04286028
0.04172751
0.04060472
0.03953687
0.03854336
0.03764668
0.03684358
0.03608043
0.03534501
0.0346695
0.03405903
0.03351075
0.03302445
0.0325986
0.03223034
0.03191689
0.03165524
0.03144219
0.03127411
0.03114719
0.03105718
0.03099982
0.0309714
0.03096842
0.0309873
0.03102455
0.03107741
0.03114239
0.03122324
0.03208055
0.03230021
0.03246036
0.03250758
0.0325401
0.03257824
0.03262968
0.03269546
0.03276565
0.03283603
0.03290369
0.03296237
0.03300457
0.0330209
0.03300246
0.03294188
0.03283748
0.03268435
0.03248647
0.03225099
0.03198498
0.03169789
0.03139999
0.03110169
0.03081025
0.03052795
0.03025493
0.02999242
0.02974202
0.02950518
0.02928191
0.02907297
0.02888006
0.02870462
0.02854784
0.02841073
0.02829382
0.0281969
0.02811905
0.02805874
0.02801408
0.02798278
0.0279627
0.02795247
0.02795341
0.02796644
0.02797694
0.02798359
0.02799432
0.02800839
0.02802367
0.02804015
0.02805951
0.02809235
0.02823483
0.02819183
0.02813221
0.02806918
0.02799848
0.02791798
0.02782636
0.02772321
0.02760869
0.02748358
0.02734949
0.02720833
0.02706218
0.02691261
0.02676072
0.02660714
0.02645221
0.026295
0.02613635
0.02597726
0.02581851
0.0256608
0.02550492
0.02535187
0.02520302
0.02506015
0.02492541
0.02480138
0.02469073
0.02459599
0.02451952
0.02446299
0.02442718
0.02441211
0.02441675
0.02443912
0.02447686
0.02452695
0.02458651
0.02465359
0.02472746
0.02480819
0.02489583
0.02498955
0.02508727
0.02518623
0.02528392
0.02537872
0.02547055
0.02556078
0.02565096
0.02574289
0.02583673
0.02593027
0.02602069
0.02610414
0.02617695
0.02623603
0.02627864
0.02630201
0.02630382
0.02628401
0.02624455
0.02618693
0.02611391
0.02602866
0.02593369
0.02583098
0.02572079
0.02560261
0.02547627
0.0253424
0.02520213
0.02505724
0.02490962
0.0247616
0.02461535
0.02447306
0.02433573
0.02420334
0.02407176
0.02392882
0.02373719
0.02349946
0.02377508
0.1098376
0.1022024
0.1024184
0.1055896
0.1096619
0.113643
0.1171607
0.120126
0.1225869
0.12263
0.1263927
0.132834
0.1398932
0.1466514
0.1524867
0.1573134
0.1612425
0.1643747
0.1855767
0.1858227
0.1859276
0.1856191
0.1851286
0.1846815
0.1843259
0.1840725
0.183884
0.1835955
0.1835192
0.1833711
0.1828722
0.1822358
0.1815916
0.1809894
0.1804318
0.1798944
0.1793094
0.1788809
0.1785347
0.1778198
0.1769167
0.1759761
0.1750505
0.1741765
0.1733643
0.1725988
0.1718573
0.1711673
0.1704366
0.1697363
0.1691026
0.1685291
0.1680042
0.167502
0.1669914
0.1664773
0.1758268
0.1751232
0.174497
0.1739846
0.173554
0.1731522
0.1727376
0.1722908
0.171832
0.1713744
0.1709462
0.1705931
0.1702966
0.1700035
0.1696672
0.169264
0.1688145
0.1684188
0.1682726
0.1681493
0.1676843
0.1672286
0.1669324
0.1665493
0.1659025
0.1650453
0.1640805
0.1630687
0.1620584
0.1610859
0.1601645
0.1592782
0.1583942
0.1574755
0.1564987
0.1554586
0.1543813
0.1533124
0.1523165
0.1514391
0.1506184
0.1498966
0.1494502
0.1490389
0.1483991
0.1475663
0.146537
0.1450467
0.143251
0.1416692
0.1402725
0.1389125
0.1375697
0.136242
0.1349349
0.1336573
0.1324097
0.131184
0.1299688
0.1287526
0.1275266
0.1262825
0.1250118
0.1237074
0.1223667
0.1209961
0.1196119
0.1182402
0.1169134
0.1156647
0.1145205
0.1134927
0.1125733
0.1117307
0.1109121
0.110054
0.109108
0.1080801
0.107047
0.1061097
0.105338
0.1047636
0.1043939
0.104214
0.104189
0.1042638
0.1043455
0.1043584
0.1042452
0.1039597
0.1034609
0.1027114
0.1016806
0.1003434
0.09870853
0.09682036
0.09473918
0.09258398
0.0904684
0.08845379
0.0865918
0.08493896
0.0835478
0.08247615
0.08179591
0.081598
0.08199683
0.083135
0.08518638
0.0883482
0.09281428
0.09873438
0.1061772
0.1151091
0.1253818
0.1367658
0.1489427
0.1614425
0.1735272
0.1841963
0.1926314
0.1984893
0.2021168
0.2039637
0.2043867
0.2035858
0.2016678
0.1986891
0.194746
0.1901978
0.1853003
0.1800609
0.1745196
0.1687527
0.1628726
0.157023
0.1513605
0.1460427
0.1412139
0.1369786
0.1333847
0.1304208
0.1280083
0.1259721
0.1240819
0.1221204
0.1199301
0.117507
0.1134961
0.1077174
0.1027955
0.09870618
0.09582209
0.09466397
0.09558606
0.09832062
0.1017434
0.1045135
0.1057479
0.1049559
0.1023446
0.09874191
0.09508494
0.09185258
0.08915276
0.08696792
0.08512557
0.08346492
0.08186816
0.08024653
0.07855942
0.07680652
0.07500146
0.07313753
0.07118449
0.06911521
0.06689268
0.06447001
0.06193212
0.05936948
0.05684946
0.05444906
0.05225567
0.050372
0.04890017
0.04788596
0.04732236
0.0471541
0.04728728
0.04760032
0.04797223
0.04830918
0.04854682
0.04864474
0.04858627
0.04837399
0.04801328
0.04750959
0.04689212
0.04621133
0.04550375
0.04480052
0.04412312
0.04348481
0.04289688
0.04236739
0.04190103
0.041499
0.04115963
0.04087915
0.0406524
0.0404733
0.04033463
0.04022756
0.04014125
0.04006421
0.0399847
0.03988992
0.04151222
0.04135535
0.04117586
0.04096101
0.0406972
0.0403825
0.04002346
0.03962695
0.03920004
0.03875157
0.03829234
0.03783597
0.03739752
0.03698325
0.03659575
0.03623655
0.03590617
0.03560374
0.03532718
0.03507355
0.03483915
0.03461971
0.03441008
0.03420523
0.03400369
0.03380651
0.03361656
0.03343885
0.03327698
0.03313118
0.03300184
0.03288966
0.0327955
0.03271981
0.03266249
0.03262271
0.0325989
0.03258882
0.0325895
0.03259744
0.03260866
0.03261939
0.03262615
0.03262684
0.03261948
0.03260324
0.03257705
0.03254285
0.03250311
0.03246045
0.03241442
0.03236639
0.0323142
0.03226429
0.03222058
0.03217058
0.03211251
0.03204799
0.03197595
0.03189295
0.03179512
0.03168025
0.03154805
0.03140007
0.03123899
0.03106782
0.03088935
0.03070614
0.03052058
0.03033518
0.03015292
0.0299773
0.02981203
0.02966084
0.02952673
0.02940927
0.02930812
0.02922368
0.02915692
0.02910939
0.0290833
0.02908251
0.02911041
0.02916745
0.0292532
0.02936613
0.02950365
0.02966217
0.02983715
0.0300234
0.03021547
0.03040856
0.03059918
0.03078536
0.03096616
0.03114065
0.03130693
0.03146206
0.03160289
0.03172654
0.03183125
0.03191733
0.03198644
0.03204031
0.03207943
0.03210258
0.0321059
0.03208281
0.03202638
0.03193074
0.03179187
0.03160823
0.03138124
0.03111545
0.03081952
0.03050578
0.0301869
0.0298729
0.02957141
0.02928922
0.02903094
0.02879762
0.02858845
0.0284019
0.02823664
0.0280914
0.02796576
0.0278589
0.02777143
0.02770247
0.02765335
0.02762216
0.02761007
0.02761359
0.02763301
0.02766422
0.02771889
0.02781868
0.02795764
0.05975841
0.06501495
0.07107982
0.07762513
0.08469939
0.09250009
0.101462
0.1122325
0.1260994
0.1453041
0.2205015
0.2381882
0.2544127
0.2679582
0.2812194
0.2938977
0.3057812
0.3172505
0.3308938
0.4033743
0.4128456
0.4176502
0.420142
0.4210118
0.4206788
0.4194219
0.4173663
0.4144368
0.4109959
0.4064615
0.4019906
0.3977208
0.393582
0.389442
0.3852236
0.3808951
0.3764617
0.3721834
0.3665434
0.3610619
0.3556636
0.3503955
0.3452492
0.3401914
0.3352048
0.3302972
0.3254908
0.320864
0.3163362
0.3118974
0.3075751
0.3033488
0.2992037
0.295135
0.2911433
0.2872315
0.2953948
0.2916449
0.2878894
0.2842324
0.2807147
0.2773476
0.274132
0.2710398
0.268039
0.265074
0.2620783
0.2590893
0.2561774
0.2533892
0.250768
0.2483406
0.2460923
0.2439757
0.2419294
0.239865
0.2377403
0.2355889
0.2334345
0.231312
0.2292741
0.2273628
0.2255938
0.223935
0.2223149
0.2206971
0.2190859
0.217501
0.2159939
0.2146154
0.2133753
0.2122303
0.2111133
0.2099584
0.208754
0.2076058
0.2065861
0.2057289
0.2050169
0.2043829
0.2037547
0.2030924
0.2024058
0.2017431
0.2011734
0.2007393
0.2004216
0.2001495
0.1998433
0.1994494
0.1989853
0.1985077
0.1980908
0.1977386
0.1973877
0.1970444
0.1967237
0.1963269
0.1957319
0.1949068
0.1938973
0.1927849
0.1916593
0.1905934
0.1896194
0.1887189
0.187839
0.1869182
0.1859069
0.1847886
0.1835954
0.1823948
0.1812588
0.1802287
0.1792769
0.1783988
0.1775776
0.1766914
0.1755972
0.1743015
0.1727844
0.1710717
0.1692189
0.1674059
0.1656701
0.1639562
0.1622477
0.1605456
0.158863
0.1572127
0.1555958
0.1540008
0.1524086
0.1508013
0.1491663
0.1474958
0.1457824
0.1440195
0.1422038
0.1403387
0.138436
0.1365144
0.1345979
0.1327126
0.1308829
0.1291261
0.1274491
0.1258451
0.1242939
0.1227664
0.1212351
0.1196918
0.1181556
0.1166556
0.1152113
0.1138345
0.1125377
0.1113349
0.1102392
0.1092592
0.1083936
0.1076318
0.1069547
0.106333
0.1057242
0.1050744
0.1043255
0.103425
0.1023342
0.1010369
0.09954358
0.09787833
0.09609157
0.09427792
0.09251776
0.09088801
0.08947302
0.08836733
0.08768293
0.0875573
0.08815819
0.08968837
0.09238706
0.09652097
0.1023565
0.1101121
0.1199007
0.13172
0.1454631
0.1608124
0.1772398
0.1937665
0.209191
0.2223579
0.2326204
0.2399763
0.2448631
0.2478725
0.2494523
0.2497593
0.2487239
0.2461413
0.2419917
0.2368519
0.2312303
0.2252247
0.218884
0.2123041
0.2056358
0.199066
0.1927884
0.1869533
0.1816901
0.1771049
0.1732639
0.1701628
0.1676883
0.1656192
0.1637208
0.1617907
0.1596222
0.1569779
0.153469
0.1494281
0.1448022
0.1396371
0.1340708
0.1283821
0.123041
0.1186491
0.1156847
0.1141699
0.1135607
0.1130404
0.1119987
0.110277
0.1080533
0.1056036
0.1031404
0.1008025
0.09869731
0.0968298
0.09515783
0.09362099
0.09216451
0.09075242
0.0893543
0.08793035
0.08643628
0.0848333
0.08308599
0.08116794
0.07907074
0.07684713
0.0745279
0.07213629
0.0697096
0.06729549
0.06494583
0.06271139
0.06064674
0.0588082
0.05724248
0.0559757
0.05500844
0.05431562
0.05385044
0.0535521
0.05335496
0.05319721
0.05302723
0.0528066
0.05251203
0.05213516
0.05167689
0.05115258
0.05059869
0.05005269
0.04953721
0.04907041
0.0486657
0.04833126
0.04807042
0.0478827
0.0477648
0.04771074
0.04771212
0.04775624
0.04782936
0.04791307
0.04799582
0.04805919
0.04808203
0.04806252
0.0479889
0.04784899
0.04764167
0.04737247
0.04704608
0.04666513
0.0462336
0.04575838
0.04524823
0.04471324
0.04416487
0.04361107
0.04305815
0.04251223
0.04197902
0.04146388
0.04097152
0.04050569
0.04006903
0.03966297
0.03928797
0.03894375
0.03862926
0.03834281
0.0380822
0.03784512
0.03763276
0.03745129
0.03730838
0.0372051
0.0371386
0.03710585
0.03710339
0.03712715
0.03717244
0.03723396
0.03730596
0.03738242
0.03745739
0.0375255
0.03758254
0.03762607
0.0376556
0.03767231
0.03767851
0.03767731
0.03767216
0.03766546
0.03765825
0.03765062
0.03764362
0.03763837
0.03763737
0.03763967
0.03764156
0.03763737
0.03762013
0.0375832
0.03752153
0.03743279
0.03731756
0.03717867
0.03701994
0.03684503
0.03665706
0.03645897
0.03625409
0.03604665
0.03584195
0.03564638
0.03546729
0.03531193
0.03518091
0.03507665
0.03500199
0.03495935
0.03495054
0.0349766
0.0350374
0.03513053
0.03525332
0.03540488
0.03558467
0.0357932
0.03602579
0.03627633
0.03653817
0.03680444
0.0370689
0.03732693
0.03757598
0.03781519
0.03804427
0.03826192
0.03846489
0.03864878
0.03880949
0.03894448
0.03905368
0.03913951
0.03920538
0.03925351
0.03928333
0.03929077
0.03926776
0.03920446
0.03909249
0.03892541
0.03869926
0.03841334
0.03807104
0.0376806
0.0372556
0.03681323
0.0363699
0.03593755
0.0355249
0.03513954
0.03478578
0.03446383
0.0341734
0.03391423
0.03368622
0.03348935
0.0333237
0.03318933
0.0330862
0.03301403
0.03297195
0.03295871
0.03297214
0.03301142
0.03307371
0.03315978
0.03326783
0.03339946
0.03354491
0.04640232
0.05290627
0.05878081
0.09144737
0.124096
0.1647732
0.1916294
0.218376
0.2434211
0.2669267
0.2877325
0.3058093
0.3233483
0.3410384
0.3587793
0.3761885
0.3930429
0.4096483
0.4259713
0.4418857
0.4573033
0.4718995
0.4852197
0.497097
0.5079047
0.51778
0.526507
0.5337837
0.539177
0.5425784
0.5445508
0.560174
0.5572874
0.5532971
0.5484936
0.5430115
0.5370003
0.5306089
0.5239637
0.5172021
0.5104378
0.5036684
0.496925
0.4901985
0.4834959
0.4768103
0.4701266
0.4634332
0.4566382
0.449686
0.4426895
0.4357815
0.4289637
0.4222067
0.4154565
0.4086663
0.4018226
0.3949634
0.3881505
0.381457
0.3749689
0.3687374
0.3627832
0.357102
0.3516658
0.3464195
0.3413198
0.3362738
0.3310256
0.3258931
0.3209037
0.3160962
0.311522
0.3072335
0.3032617
0.2995896
0.2961361
0.2927818
0.2894253
0.2860398
0.2826616
0.2793817
0.2763186
0.2735649
0.2711341
0.2689413
0.2668679
0.2648043
0.2626764
0.2604503
0.2581363
0.2558017
0.2535557
0.2514972
0.249671
0.2480343
0.2464758
0.2448943
0.2432568
0.2416131
0.2400669
0.2387096
0.2375773
0.2365929
0.2356413
0.2346273
0.2335666
0.2325522
0.2317007
0.231091
0.2307155
0.2304641
0.2301982
0.2298405
0.229409
0.2290016
0.2287432
0.2287129
0.228879
0.2291136
0.2292682
0.2292367
0.2290187
0.2286874
0.2283573
0.2281361
0.2280509
0.2280523
0.2280388
0.2278652
0.2274061
0.2266558
0.2256558
0.2245016
0.2233227
0.2222388
0.22131
0.2205092
0.2197464
0.2189208
0.2179488
0.2167903
0.2154804
0.2141185
0.2128059
0.2115976
0.2104779
0.2093896
0.208257
0.2069808
0.2054633
0.2037025
0.2017643
0.1997067
0.1975882
0.1954767
0.1933835
0.191279
0.1891437
0.1869886
0.184846
0.1827385
0.1806766
0.1786478
0.1766241
0.1745791
0.1724977
0.1703744
0.1682043
0.1659807
0.163698
0.1613558
0.1589611
0.1565279
0.1540758
0.151628
0.1492081
0.1468355
0.1445226
0.1422722
0.1400787
0.1379305
0.1358144
0.1337234
0.1316601
0.129629
0.1276291
0.1256575
0.1237161
0.1218122
0.1199573
0.1181653
0.1164492
0.1148205
0.1132889
0.1118603
0.1105306
0.1092828
0.1080873
0.106906
0.1056978
0.1044273
0.103072
0.101623
0.1000853
0.09848158
0.09689564
0.09542278
0.0941553
0.09320816
0.09272496
0.09288461
0.09390646
0.09605355
0.09962913
0.1049643
0.1123873
0.1221746
0.1345032
0.1494194
0.1668665
0.1864896
0.2073611
0.228027
0.2472024
0.2640241
0.2777194
0.288134
0.295968
0.3021628
0.3073632
0.3113912
0.313394
0.3122039
0.3072795
0.3000657
0.2918493
0.2830166
0.2737787
0.2643884
0.2551825
0.2465058
0.2385851
0.2314956
0.2252848
0.220016
0.2157113
0.2122837
0.2095202
0.2071404
0.2048842
0.2025099
0.199732
0.1962624
0.1919608
0.186869
0.1810683
0.1745889
0.167395
0.1595151
0.1512114
0.1430126
0.1355494
0.129273
0.1242561
0.1202373
0.1168453
0.113811
0.1110241
0.1084811
0.1062159
0.1042552
0.1026206
0.1013344
0.100331
0.09953365
0.09886318
0.09825141
0.09765014
0.09700614
0.09624904
0.09532075
0.09418309
0.09281236
0.09120152
0.08936514
0.08733396
0.08512981
0.08278343
0.08033199
0.07781661
0.0752803
0.07277216
0.07034627
0.06805714
0.0659533
0.06407194
0.06243078
0.06102745
0.05984455
0.05885433
0.05802209
0.05731124
0.05668708
0.05611929
0.05558372
0.0550655
0.05455948
0.05406595
0.05359724
0.05318815
0.05285466
0.05260265
0.0524362
0.0523566
0.05236179
0.05244717
0.05260516
0.05282522
0.05309207
0.05338763
0.0536915
0.05398512
0.0542493
0.05446612
0.05462359
0.05471333
0.05473054
0.05467304
0.05454042
0.05433405
0.05405693
0.05371411
0.05331292
0.05286239
0.05237269
0.05185352
0.05131038
0.05074963
0.05017779
0.04960154
0.04902751
0.04846202
0.04791097
0.0473796
0.04687247
0.04639337
0.04594526
0.04553025
0.04514973
0.04480454
0.04449513
0.04422177
0.04398437
0.04378231
0.04362266
0.04351511
0.0434562
0.04343904
0.04345613
0.04349943
0.04356053
0.04363089
0.04370223
0.04376709
0.04381963
0.04385636
0.04387668
0.0438828
0.04387885
0.04386984
0.04386091
0.04385624
0.04385783
0.04386559
0.04387915
0.04389982
0.04393023
0.04397177
0.04402151
0.04407231
0.04411483
0.0441395
0.04413817
0.04410534
0.04403906
0.04394104
0.04381538
0.04366639
0.04349709
0.04330944
0.04310578
0.04288994
0.04266766
0.04244666
0.04223639
0.04204773
0.0418881
0.0417614
0.04167283
0.0416266
0.04162578
0.04167207
0.04176558
0.04190475
0.04208633
0.0423057
0.04255708
0.04283298
0.04312376
0.04342473
0.04373347
0.04404402
0.04434859
0.04464157
0.04492045
0.04518579
0.04543972
0.04568332
0.04591437
0.04612701
0.04631404
0.04646993
0.04659295
0.04668577
0.04675431
0.04680487
0.04684022
0.04685684
0.04684454
0.04678961
0.0466801
0.04650784
0.04626742
0.0459563
0.04557558
0.04513141
0.04463682
0.04411192
0.04357992
0.04306002
0.04256363
0.04209737
0.0416673
0.04127331
0.04091234
0.04058413
0.04028941
0.0400291
0.03980408
0.03961507
0.0394625
0.0393463
0.03926555
0.03921815
0.03920129
0.03921191
0.03924868
0.03931082
0.03939992
0.03951579
0.03965619
0.03980576
0.02337776
0.02613625
0.02882645
0.03869868
0.05169535
0.07375979
0.08917736
0.1055015
0.1229936
0.1407188
0.1590457
0.1791142
0.2005799
0.2225448
0.2453926
0.2709919
0.3104369
0.3290033
0.3479977
0.3673281
0.3872454
0.4069489
0.4257461
0.4435353
0.4602819
0.4763936
0.4918997
0.5068089
0.5210529
0.5345019
0.5469828
0.5583463
0.5682175
0.5763902
0.5819408
0.5856196
0.5873136
0.586687
0.5839598
0.5794131
0.5738391
0.5670676
0.5575896
0.5486319
0.53989
0.5312443
0.5227386
0.5144263
0.5063451
0.4985599
0.4911436
0.4841737
0.4776739
0.4716273
0.4659535
0.4605318
0.4552148
0.4498817
0.4444585
0.4389616
0.4334652
0.4278576
0.4222533
0.4168178
0.4115601
0.406378
0.4011315
0.3957192
0.3901197
0.3843904
0.3786349
0.3729765
0.3675256
0.362365
0.357523
0.3529748
0.3486383
0.344436
0.3402553
0.3360174
0.3317094
0.3273635
0.3230536
0.318899
0.3150385
0.3115792
0.308539
0.3057993
0.3031695
0.3004758
0.2976327
0.2946782
0.2917689
0.2891082
0.2868552
0.285039
0.2835327
0.2821513
0.2807436
0.2792008
0.2774592
0.2755322
0.273526
0.2716163
0.2699734
0.2686702
0.2676298
0.2666613
0.2655859
0.264354
0.2630682
0.2619158
0.2610602
0.2605385
0.2602121
0.2598692
0.2593789
0.2587733
0.2582244
0.2579487
0.2580867
0.2585889
0.2592293
0.2597606
0.2600749
0.2602502
0.2604947
0.2610376
0.2619986
0.2632734
0.2645668
0.2655796
0.2661478
0.2663105
0.2662552
0.2662287
0.2664449
0.2669782
0.2676996
0.2683328
0.268586
0.2682954
0.2675412
0.266463
0.2652043
0.2639511
0.2628794
0.2620728
0.2614627
0.2608805
0.2601553
0.2591645
0.2578634
0.2563121
0.2546528
0.2530034
0.2514467
0.2499512
0.2484263
0.2467719
0.244884
0.2426873
0.2402008
0.2375513
0.2348086
0.2320424
0.2292699
0.2264801
0.2236434
0.2207412
0.2177957
0.2148636
0.211993
0.2092043
0.2064796
0.2037759
0.201055
0.1983039
0.1955269
0.1927272
0.1898989
0.1870321
0.1841152
0.1811501
0.1781461
0.1751191
0.1720905
0.1690836
0.1661189
0.1632106
0.1603648
0.1575803
0.1548523
0.1521744
0.1495422
0.1469538
0.1444054
0.1418883
0.1393932
0.1369161
0.1344589
0.1320281
0.1296337
0.1272863
0.1249977
0.1227815
0.1206525
0.1186232
0.1167003
0.114883
0.1131614
0.1115166
0.109925
0.1083633
0.1068144
0.1052725
0.1037454
0.1022551
0.1008955
0.09979333
0.09907249
0.09889703
0.09947894
0.1010825
0.1040232
0.1086627
0.1153927
0.1245964
0.1365897
0.1516082
0.1699126
0.1915784
0.2159874
0.2417297
0.267251
0.2914439
0.3136289
0.3331398
0.3498123
0.3644468
0.378337
0.3926594
0.4068715
0.4174664
0.4202538
0.4127387
0.3992313
0.3838883
0.3678407
0.3516045
0.3355936
0.3204812
0.3070047
0.295387
0.2854297
0.2769651
0.2699623
0.2643332
0.2598064
0.2559852
0.2524889
0.2490208
0.2453174
0.241033
0.235737
0.2295062
0.2226118
0.2151921
0.2072368
0.1985492
0.1890361
0.178857
0.1684354
0.1583437
0.1490978
0.1409959
0.134094
0.1282734
0.123364
0.1192431
0.1158471
0.1131345
0.1110564
0.1095398
0.1085273
0.108002
0.1078217
0.1078562
0.1079942
0.1081345
0.1081769
0.1080345
0.1076435
0.1069623
0.1059733
0.1046822
0.1031073
0.1012546
0.09915191
0.09683582
0.09434691
0.09172656
0.08901701
0.08626429
0.08351843
0.08083026
0.0782475
0.07580978
0.07354385
0.07146401
0.06957516
0.06787508
0.06635598
0.06500456
0.06380292
0.06273275
0.06177821
0.06092807
0.06017481
0.05951412
0.05894426
0.05846651
0.05811411
0.05789926
0.05781562
0.05785566
0.05800988
0.058267
0.05861316
0.05903127
0.05949979
0.05999411
0.06048922
0.06096249
0.06139344
0.06176345
0.06205987
0.06227626
0.06240922
0.06245686
0.06241901
0.06229779
0.06209772
0.06182575
0.06149081
0.06110326
0.0606746
0.06021015
0.0597134
0.0591912
0.05865026
0.05809719
0.0575384
0.05697998
0.05642767
0.05588679
0.0553623
0.0548587
0.05438002
0.05392986
0.05351136
0.05312726
0.05277979
0.05247066
0.05220088
0.05197075
0.05177962
0.05162674
0.05152234
0.05146206
0.05143539
0.05143163
0.05143997
0.05144996
0.05145211
0.05143892
0.05140604
0.05135313
0.05128401
0.05120568
0.05112629
0.05105382
0.05099533
0.05095498
0.0509323
0.05092394
0.05092821
0.05094812
0.05098905
0.05105214
0.05113036
0.05121071
0.05127898
0.05132266
0.05133238
0.05130291
0.05123394
0.05112974
0.05099679
0.05083981
0.05065987
0.05045649
0.05023104
0.04998832
0.04973661
0.04948704
0.049253
0.04904916
0.04888412
0.04876563
0.04870013
0.04869228
0.04874475
0.04885799
0.04902991
0.04925588
0.04952903
0.04984096
0.05018241
0.05054369
0.05091492
0.05128577
0.0516437
0.05198098
0.05229632
0.05258747
0.05285633
0.0531095
0.05335421
0.05359321
0.05382173
0.05402895
0.05420323
0.05433696
0.05442956
0.05448768
0.05452277
0.05454575
0.05455947
0.05455437
0.0545105
0.05440769
0.05423421
0.05398479
0.05365694
0.05325024
0.05276759
0.05221786
0.05161891
0.05099833
0.05038748
0.04980966
0.04927333
0.04878071
0.04833447
0.04792859
0.04755625
0.04721773
0.04691451
0.04664775
0.04641834
0.04622682
0.04607331
0.04595686
0.04587489
0.04582289
0.04579564
0.04578975
0.04580553
0.04584693
0.04591923
0.04602534
0.04616361
0.04631074
0.01028461
0.01193113
0.01321241
0.01965985
0.02707885
0.0368502
0.04483215
0.05384504
0.06358916
0.07392996
0.08524723
0.09856675
0.1131332
0.1293712
0.1487789
0.1787027
0.1946103
0.2113257
0.228316
0.2455487
0.2629517
0.2804089
0.2977534
0.3148287
0.3315124
0.3477292
0.3634759
0.3804227
0.3976361
0.4153329
0.4335131
0.4516376
0.4688944
0.4850233
0.5002632
0.514659
0.5281906
0.5407475
0.552137
0.5621501
0.5705163
0.5769039
0.5804934
0.5816401
0.579862
0.5756777
0.569262
0.5608512
0.5508104
0.539584
0.5276212
0.5153705
0.5031161
0.4912988
0.4801301
0.4696843
0.4600007
0.4510704
0.442852
0.4353292
0.4285334
0.4225299
0.4173767
0.4130683
0.4094988
0.406413
0.4035411
0.4006364
0.397538
0.3940758
0.3902348
0.3863296
0.3826467
0.3793731
0.3764937
0.3738099
0.3710515
0.3680041
0.3645781
0.3608142
0.3568384
0.3528135
0.348906
0.3452595
0.3419518
0.3389703
0.3362346
0.3336214
0.3309984
0.3282512
0.3253151
0.3222089
0.3190476
0.3160228
0.3133472
0.3111836
0.309554
0.3082769
0.3070622
0.3056741
0.3040213
0.3021824
0.3003827
0.2989285
0.2980496
0.2977058
0.2976339
0.2975474
0.2972561
0.2966584
0.295723
0.2945195
0.293243
0.2921734
0.2915574
0.2914527
0.2916442
0.2917673
0.2915607
0.2910328
0.2904443
0.2901518
0.2904091
0.2911744
0.2920997
0.2927913
0.2930969
0.2931985
0.2934979
0.2944055
0.2961208
0.2984288
0.3007729
0.3026658
0.3040124
0.3051167
0.306479
0.3085568
0.3115154
0.3149951
0.3182554
0.3206662
0.321994
0.3224413
0.3225078
0.3227865
0.3237307
0.3254272
0.3274724
0.3291964
0.3300556
0.3297988
0.3286609
0.3270934
0.3253865
0.3238366
0.3226769
0.3219772
0.3215523
0.3210671
0.3202486
0.3189443
0.3171547
0.3150385
0.312813
0.3106239
0.308499
0.306328
0.3039738
0.3013408
0.2983533
0.2949699
0.2912635
0.2874104
0.2835066
0.2795771
0.2756006
0.2715458
0.2673779
0.2630859
0.2587089
0.2543272
0.2500257
0.245835
0.2417363
0.2376774
0.2336228
0.2295831
0.2255952
0.2216776
0.2178168
0.2139915
0.2101808
0.2063785
0.2025864
0.198812
0.1950698
0.1913777
0.1877512
0.184199
0.1807204
0.1773068
0.1739565
0.1706677
0.1674394
0.1642706
0.1611565
0.1580853
0.1550444
0.1520271
0.149034
0.1460708
0.143145
0.1402634
0.1374331
0.1346628
0.1319644
0.1293518
0.1268399
0.1244417
0.1221657
0.1200139
0.117982
0.1160624
0.1142477
0.1125363
0.1109378
0.1094768
0.1081921
0.1072183
0.1067324
0.106917
0.1080133
0.1103243
0.1142127
0.1200917
0.1284033
0.1395589
0.1539606
0.1721029
0.1944877
0.2210241
0.250634
0.2815956
0.3126912
0.343664
0.3746623
0.4050514
0.4340629
0.4629332
0.4954055
0.5331029
0.5751496
0.6056423
0.6163788
0.5988843
0.5661534
0.530942
0.4970743
0.4654731
0.4361191
0.4097463
0.3873474
0.3690101
0.3537504
0.3407731
0.3299504
0.3211338
0.3138067
0.3073004
0.3011006
0.2949181
0.2884689
0.2812481
0.2732385
0.2645024
0.2552795
0.2456757
0.2356461
0.2251478
0.2141457
0.2027054
0.1911129
0.1798075
0.1692382
0.1597369
0.1514535
0.1443646
0.138361
0.1333681
0.1293472
0.1262557
0.1240253
0.12255
0.121682
0.1212909
0.1213555
0.1217156
0.1222123
0.1227021
0.1230585
0.1231781
0.122988
0.1224475
0.1215489
0.1203137
0.118738
0.1168253
0.1146182
0.1121653
0.1095158
0.1067145
0.1038029
0.1008239
0.09782354
0.09484775
0.09193766
0.08912671
0.0864423
0.08390479
0.08152725
0.07931759
0.07727958
0.07541328
0.073716
0.07218433
0.07081504
0.06960504
0.06855141
0.06765145
0.06690251
0.06630146
0.06584453
0.06556524
0.06546289
0.0655231
0.06573023
0.06606645
0.06651079
0.06703777
0.06761731
0.06821737
0.06880855
0.06936639
0.06986967
0.07030053
0.07064939
0.07091279
0.07108794
0.07117263
0.07116679
0.07107362
0.0708998
0.07065481
0.07034995
0.06999737
0.06960881
0.06918182
0.06872275
0.06823848
0.06773569
0.06722061
0.06669888
0.06617551
0.06565496
0.06514135
0.06463877
0.06415139
0.06368334
0.06323878
0.06282187
0.06243668
0.0620868
0.06177489
0.06150204
0.06126763
0.06106955
0.06090443
0.06076875
0.06066803
0.06059113
0.06052517
0.06045755
0.06037657
0.06027245
0.06013904
0.05997552
0.05978747
0.0595861
0.05938557
0.05919896
0.05903714
0.05890853
0.05881563
0.05875232
0.05870864
0.05868084
0.0586763
0.05870664
0.05877308
0.05886079
0.05894763
0.05901434
0.05904745
0.05903835
0.05898332
0.05888442
0.05874916
0.05858673
0.05840141
0.05819011
0.05794841
0.05767712
0.0573835
0.05707999
0.05678282
0.05651078
0.05628313
0.05611115
0.05600463
0.05597045
0.05601247
0.05613169
0.05632605
0.05658991
0.05691395
0.05728596
0.05769243
0.05812031
0.05855776
0.0589938
0.05941698
0.05981452
0.06017339
0.06048339
0.06074954
0.06098552
0.06120863
0.06143265
0.06165978
0.06187836
0.06206987
0.06222016
0.0623195
0.06236764
0.0623754
0.06236199
0.06234557
0.06232738
0.06228834
0.06219581
0.06202387
0.06176508
0.06142056
0.06099198
0.06048053
0.05989002
0.05923103
0.05852546
0.05780836
0.0571198
0.05648982
0.055922
0.05541421
0.05496394
0.05455891
0.05419028
0.05385917
0.05356666
0.0533127
0.05309689
0.05291881
0.05277769
0.05267104
0.05259341
0.05253643
0.0524918
0.05245675
0.05243688
0.05244425
0.05249058
0.05258148
0.05271655
0.05286026
0.002565274
0.009937127
0.01476305
0.02034941
0.02654999
0.03361854
0.04165036
0.05043667
0.06024556
0.07203518
0.08981477
0.1004485
0.1119547
0.1240317
0.1367308
0.149987
0.1637269
0.1778271
0.1921103
0.2064368
0.2207906
0.2369937
0.2534168
0.2698846
0.2862841
0.3025549
0.3186058
0.3344251
0.3499098
0.3649909
0.3798248
0.3945635
0.4096013
0.4245883
0.4396003
0.4545869
0.4691348
0.4830303
0.4963457
0.5090396
0.5210411
0.5322092
0.5423109
0.5508584
0.5575801
0.5613892
0.5623173
0.5601811
0.5551975
0.5473841
0.53711
0.5248193
0.5109781
0.4960809
0.4806515
0.4651787
0.4501243
0.4358775
0.4227596
0.4110283
0.4008037
0.3920609
0.3846446
0.3783327
0.3729464
0.368423
0.3648124
0.3622588
0.3608237
0.3603295
0.3603605
0.3602303
0.3595798
0.3582318
0.3562224
0.3538096
0.3514255
0.3494644
0.348135
0.3473641
0.3468442
0.3461838
0.3450809
0.3434151
0.3412433
0.3387374
0.3361119
0.3335833
0.3313407
0.3294926
0.3280275
0.326833
0.3257487
0.3245968
0.323255
0.3216994
0.3200183
0.3184069
0.3171221
0.31643
0.3164947
0.3171795
0.3180495
0.3186469
0.3187522
0.3184428
0.3180248
0.3179414
0.3186506
0.3203462
0.3226748
0.3249912
0.3268125
0.3279317
0.3282972
0.3279914
0.3273256
0.3268089
0.3269743
0.3281478