/*--------------------------------*- C++ -*----------------------------------*\
| =========                 |                                                 |
| \\      /  F ield         | foam-extend: Open Source CFD                    |
|  \\    /   O peration     | Version:     3.1                                |
|   \\  /    A nd           | Web:         http://www.extend-project.de       |
|    \\/     M anipulation  |                                                 |
\*---------------------------------------------------------------------------*/
FoamFile
{
    version     2.0;
    format      ascii;
    class       volScalarField;
    location    "19";
    object      p;
}
// * * * * * * * * * * * * * * * * * * * * * * * * * * * * * * * * * * * * * //

dimensions      [1 -1 -2 0 0 0 0];

internalField   nonuniform List<scalar> 
119952
(
4480.125
2803.995
2573.718
2812.23
3064.864
2863.831
2808.457
2768.895
2754.758
2745.516
2743.774
2749.485
2761.002
2777.145
2797.108
2819.752
2843.693
2865.856
2872.944
2816.592
3196.378
3059.747
3020.708
3501.164
3528.049
3607.899
3692.493
3840.069
4197.302
6819.633
2351.097
2305.878
2307.227
2300.773
2297.684
2292.796
2287.166
2287.022
2290.403
2263.24
2238.178
2255.66
2247.642
2242.468
2238.496
2236.512
2236.108
2236.025
2236.088
2226.618
2223.495
2200.907
2194.294
2195.121
2195.595
2197.407
2200.059
2201.525
2210.677
2207.501
2207.082
2219.165
2232.594
2246.797
2263.331
2282.378
2312.767
2406.647
2591.665
2455.715
2402.829
2504.623
2557.889
2543.898
2504.651
2481.836
2470.766
2466.014
2467.634
2475.64
2489.257
2507.485
2529.457
2554.186
2580.488
2607.512
2636.778
2675.415
2745.324
2822.072
2872.75
3023.013
3225.364
3308.583
3365.243
3420.691
3397.053
3196.053
3203.117
3315.838
3389.877
3462.438
3536.522
3608.528
3680.422
3753.139
3827.046
3902.451
3979.427
4057.87
4137.53
4218.03
4298.896
4379.644
4459.851
4539.242
4617.752
4695.472
4772.516
4848.842
4924.149
4997.861
5069.176
5137.126
5200.603
5258.648
5311.321
5360.908
5410.762
5461.689
5511.797
5559.318
5603.326
5643.805
5681.057
5715.539
5747.669
5778.006
5807.457
5836.596
5865.349
5893.624
5921.375
5948.421
5974.474
5999.419
6024.174
6047.987
6070.008
6090.038
6108.584
6125.588
6140.862
6154.296
6165.653
6174.693
6181.141
6184.624
6184.789
6181.007
6172.589
6158.675
6138.171
6109.64
6071.629
6023.712
5966.373
5900.827
5829.047
5753.16
5675.843
5602.37
5536.011
5476.002
5423.607
5377.263
5335.046
5298.388
5270.685
5254.666
5252.485
5263.392
5285.425
5315.954
5351.974
5390.688
5429.993
5468.45
5505.126
5539.589
5571.65
5601.243
5628.286
5653.53
5676.384
5688.068
5679.494
5749.693
5771.486
5780.38
5792.562
5805.602
5821.864
5832.979
5837.101
5837.045
5837.397
5842.321
5852.063
5863.907
5876.175
5889.167
5903.879
5920.888
5939.877
5960.225
5980.837
6001.098
6019.556
6035.751
6049.622
6061.217
6070.657
6078.076
6083.547
6088.64
6091.589
6092.474
6091.493
6088.247
6081.495
6069.799
6058.669
6076.179
6088.492
6100.821
6110.775
6119.233
6126.593
6133.11
6139.182
6145.057
6150.819
6156.679
6162.58
6168.654
6174.706
6180.697
6186.672
6192.543
6198.274
6203.803
6209.069
6214.034
6218.667
6222.937
6226.816
6230.276
6233.289
6235.841
6237.919
6239.518
6240.637
6241.274
6241.451
6241.454
6240.385
6224.831
6218.88
6202.957
6199.96
6198.514
6193.77
6189.626
6186.287
6182.622
6179.068
6175.631
6172.315
6169.182
6166.239
6163.445
6160.779
6158.161
6155.554
6153.121
6150.799
6148.591
6146.518
6144.608
6142.881
6141.414
6140.215
6139.225
6138.525
6138.059
6137.826
6137.827
6138.065
6138.533
6139.226
6140.145
6141.284
6142.645
6144.234
6146.061
6148.142
6150.497
6153.162
6156.193
6159.67
6163.514
6166.974
6169.147
6170.841
6173.049
6175.643
6178.387
6181.285
6183.859
6185.534
6180.424
6184.315
6189.834
6191.333
6192.169
6193.266
6193.887
6194.136
6194.148
6193.938
6193.554
6193.031
6192.415
6191.743
6191.038
6190.332
6189.642
6188.952
6188.345
6187.732
6187.129
6186.508
6185.839
6185.085
6184.207
6183.165
6181.92
6180.438
6178.684
6176.637
6174.283
6171.618
6168.645
6165.372
6161.813
6157.997
6153.945
6149.7
6145.302
6140.795
6136.226
6131.634
6127.058
6122.533
6118.091
6113.755
6109.53
6105.458
6101.578
6097.929
6094.538
6091.406
6088.514
6085.911
6083.615
6081.609
6079.887
6078.447
6077.297
6076.448
6075.926
6075.747
6075.912
6076.413
6077.261
6078.451
6079.909
6081.577
6083.355
6085.131
6086.798
6088.245
6089.373
6090.058
6090.196
6089.631
6088.207
6085.684
6081.742
6075.841
6067.07
6054.746
6043.116
6057.145
6142.315
3705.889
3578.308
3449.967
3324.779
3212.579
3110.912
3018.655
2936.357
2860.531
2743.67
2694.34
2637.145
2581.07
2534.446
2491.037
2454.41
2422.42
2389.821
2329.874
2327.463
2290.163
2258.09
2235.248
2215.401
2198.493
2184.308
2170.876
2159.573
2153.408
2128.371
2115.239
2105.24
2093.651
2083.354
2074.717
2067.078
2061.889
2064.677
2041.887
2025.636
2020.049
2014.214
2007.299
2000.873
1995.313
1990.91
1987.517
1977.631
1976.502
1974.732
1970.471
1965.995
1962.862
1961.141
1960.954
1968.188
1884.926
1883.913
1886.789
1888.425
1888.359
1888.181
1888.933
1890.501
1892.363
1893.593
1897.792
1905.64
1915.135
1926.559
1941.131
1960.255
1986.671
2023.072
2066.445
2105.404
2119.573
2117.385
2131.737
2150.979
2159.531
2155.442
2145.863
2139.54
2139.627
2146.158
2158.468
2175.777
2197.411
2222.869
2251.666
2283.382
2318.96
2360.674
2411.592
2473.831
2548.762
2636.001
2736.335
2840.95
2926.249
2981.875
3009.191
3005.436
2984.46
3000.063
3051.619
3114.337
3181.614
3250.724
3320.122
3390.033
3461.266
3534.375
3609.558
3686.784
3765.865
3846.455
3928.079
4010.196
4092.279
4173.881
4254.678
4334.481
4413.184
4490.688
4566.809
4641.228
4713.471
4782.935
4848.97
4911.03
4968.879
5023.035
5074.879
5125.829
5176.159
5224.886
5271.066
5314.338
5354.555
5391.844
5426.586
5459.111
5489.937
5519.586
5548.423
5576.504
5603.83
5630.369
5656.104
5681.019
5704.945
5728.285
5750.482
5771.24
5790.303
5807.722
5823.528
5837.559
5849.576
5859.34
5866.561
5870.883
5871.888
5869.066
5861.709
5848.936
5829.868
5803.27
5767.789
5722.266
5666.557
5601.118
5527.433
5448.519
5367.658
5289.567
5219.688
5160.281
5111.741
5070.739
5032.091
4993.671
4957.571
4931.963
4921.466
4926.719
4945.239
4974.512
5012.108
5054.989
5099.945
5144.283
5186.06
5224.173
5258.207
5287.934
5313.595
5334.692
5351.826
5366.828
5381.611
5385.01
5457.994
5480.635
5494.975
5510.083
5527.269
5545.999
5560.971
5568.889
5571.86
5574.583
5580.379
5588.488
5597.508
5607.103
5618.206
5631.233
5646.516
5663.973
5682.802
5702.026
5720.767
5738.117
5753.549
5766.885
5778.127
5787.37
5794.795
5800.687
5805.177
5808.162
5809.592
5809.653
5808.082
5805.095
5802.459
5802.908
5809.693
5820.972
5831.456
5840.547
5848.77
5856.024
5862.421
5868.318
5873.946
5879.463
5884.96
5890.543
5896.166
5901.907
5907.7
5913.358
5918.853
5924.238
5929.357
5934.209
5938.77
5943.015
5946.914
5950.438
5953.56
5956.255
5958.511
5960.31
5961.654
5962.532
5962.985
5963.007
5962.724
5964.612
5895.847
5896.626
5897.022
5893.533
5888.201
5883.575
5880.11
5877.02
5873.763
5870.469
5867.33
5864.344
5861.521
5858.823
5856.28
5853.837
5851.452
5849.086
5846.798
5844.626
5842.555
5840.599
5838.817
5837.123
5835.651
5834.418
5833.4
5832.683
5832.068
5831.741
5831.675
5831.834
5832.225
5832.833
5833.659
5834.703
5835.967
5837.462
5839.195
5841.184
5843.439
5845.974
5848.777
5851.793
5854.889
5857.902
5860.652
5863.171
5865.712
5868.426
5871.233
5874.028
5876.678
5879.109
5880.658
5881.247
5882.168
5883.674
5885.228
5886.355
5886.925
5887.046
5886.896
5886.579
5886.13
5885.58
5884.969
5884.327
5883.684
5883.071
5882.52
5882.037
5881.601
5881.209
5880.843
5880.447
5879.975
5879.38
5878.617
5877.637
5876.394
5874.869
5872.982
5870.78
5868.23
5865.362
5862.176
5858.684
5854.901
5850.873
5846.623
5842.211
5837.682
5833.076
5828.432
5823.783
5819.162
5814.59
5810.097
5805.71
5801.436
5797.351
5793.469
5789.832
5786.539
5783.395
5780.427
5777.825
5775.536
5773.507
5771.783
5770.384
5769.325
5768.646
5768.395
5768.545
5769.009
5769.852
5771.09
5772.595
5774.323
5776.248
5778.166
5780.008
5781.698
5783.124
5784.221
5784.862
5784.994
5784.46
5783.193
5781.031
5777.947
5774.028
5770.028
5767.629
5769.726
5778.109
5793.246
2947.544
3048.261
3173.424
3315.534
3474.432
3649.324
3838.676
4041.049
4253.873
4470.825
4679.545
4906.154
5128.776
5343.075
5545.276
5731.945
5895.576
6029.943
6129.038
6168.543
6197.549
6188.843
6143.445
6063.751
5952.737
5814.553
5653.602
5475.113
5287.849
5084.39
4882.194
4676.938
4474.321
4276.349
4084.718
3900.889
3726.751
3563.934
3400.225
3254.969
3119.814
2997.294
2885.726
2784.463
2692.61
2609.287
2534.609
2464.2
2397.157
2339.912
2287.587
2240.505
2199.21
2163.131
2132.333
2113.139
2000.902
1975.007
1955.596
1936.149
1916.028
1897.094
1880.765
1867.141
1855.432
1843.734
1831.251
1820.047
1808.055
1794.79
1781.888
1770.781
1762.154
1755.332
1748.866
1741.493
1734.28
1726.231
1716.741
1706.983
1698.603
1691.412
1685.128
1680.837
1677.165
1673.872
1670.094
1665.145
1660.376
1655.743
1653.242
1652.324
1650.996
1648.84
1645.54
1643.822
1642.841
1639.927
1637.712
1637.631
1638.793
1640.241
1641.463
1643.02
1645.819
1650.88
1659.422
1670.775
1686.616
1704.965
1726.982
1751.673
1777.836
1806.054
1825.183
1831.827
1840.112
1856.099
1868.716
1872.267
1870.372
1869.137
1872.362
1881.341
1896.227
1916.375
1940.845
1969.413
2001.864
2037.362
2076.574
2121.28
2173.33
2234.718
2306.662
2385.305
2468.444
2553.758
2629.954
2685.428
2720.554
2740.439
2753.522
2776.189
2818.294
2875.716
2939.538
3005.48
3072.273
3139.996
3209.392
3281.12
3355.513
3432.645
3512.317
3594.059
3677.238
3761.177
3845.23
3928.83
4011.513
4092.945
4172.89
4251.157
4327.543
4401.789
4473.558
4542.457
4608.1
4670.203
4728.706
4783.955
4836.776
4888.093
4938.193
4986.598
5032.763
5076.402
5117.367
5155.655
5191.462
5225.053
5256.765
5287.024
5316.165
5344.291
5371.414
5397.533
5422.699
5446.967
5470.377
5492.774
5514.218
5534.225
5552.697
5569.545
5584.675
5597.96
5609.172
5618.041
5624.241
5627.363
5626.904
5622.251
5612.633
5596.94
5574.168
5543.031
5502.311
5450.77
5388.203
5315.88
5235.985
5151.305
5066.072
4986.831
4920.816
4869.479
4830.634
4798.615
4764.876
4725.556
4684.05
4652.625
4641.442
4650.128
4673.85
4709.604
4754.656
4804.944
4856.489
4906.318
4952.264
4993.158
5028.635
5058.211
5081.627
5099.339
5112.775
5125.175
5133.169
5135.517
5144.651
5155.438
5165.817
5178.945
5196.482
5215.641
5233.686
5249.489
5263.378
5277.059
5289.418
5300.193
5309.368
5318.014
5327.324
5338.756
5353.041
5368.97
5386.015
5403.623
5420.603
5436.246
5450.001
5461.642
5471.594
5479.629
5485.556
5489.976
5493.297
5495.494
5496.551
5497.077
5497.13
5497.403
5498.778
5502.291
5508.574
5517.032
5526.357
5535.555
5544.161
5552.066
5559.374
5566.377
5572.908
5579.167
5585.222
5591.115
5596.882
5602.552
5608.05
5613.371
5618.688
5623.356
5627.95
5632.24
5636.281
5640.017
5643.401
5646.403
5649.003
5651.185
5652.935
5654.237
5655.09
5655.489
5655.454
5655.002
5654.19
5652.852
5650.401
5647.738
5644.468
5640.852
5637.433
5634.367
5631.555
5628.809
5626.004
5623.193
5620.505
5617.944
5615.418
5612.993
5610.664
5608.431
5606.247
5604.098
5602.001
5599.966
5597.995
5596.102
5594.319
5592.685
5591.238
5590
5588.979
5588.11
5587.602
5587.233
5587.094
5587.107
5587.371
5587.843
5588.511
5589.376
5590.448
5591.738
5593.265
5595.038
5597.072
5599.362
5601.898
5604.638
5607.541
5610.512
5613.452
5616.287
5619.098
5621.955
5624.88
5627.713
5630.39
5632.639
5634.74
5636.892
5638.721
5640.084
5640.978
5641.468
5641.616
5641.481
5641.141
5640.661
5640.095
5639.48
5638.845
5638.216
5637.628
5637.121
5636.723
5636.435
5636.247
5636.146
5636.046
5635.93
5635.723
5635.37
5634.81
5633.988
5632.866
5631.387
5629.58
5627.353
5624.694
5621.692
5618.309
5614.617
5610.63
5606.398
5601.964
5597.386
5592.711
5587.982
5583.227
5578.473
5573.755
5569.097
5564.51
5559.99
5555.617
5551.441
5547.474
5543.749
5540.33
5537.243
5534.251
5531.466
5529.049
5526.91
5525.098
5523.647
5522.6
5522.015
5521.903
5522.228
5522.983
5524.081
5525.616
5527.486
5529.451
5531.632
5533.753
5535.76
5537.581
5539.142
5540.359
5541.181
5541.514
5541.326
5540.531
5539.179
5537.353
5535.386
5533.814
5533.305
5534.492
5538.398
5545.68
2401.366
2389.376
2379.751
2359.141
2356.058
2338.158
2363.817
2407.337
2466.972
2511.158
2543.594
2597.839
2675.585
2773.884
2891.336
3026.693
3175.693
3339.898
3517.695
3707.618
3908.422
4118.174
4333.397
4549.74
4763.616
4971.311
5166.876
5346.417
5504.644
5637.584
5743.329
5760.109
5789.369
5776.894
5723.549
5636.274
5518.923
5375.043
5209.257
5027.119
4834.341
4634.993
4432.898
4231.343
4033.104
3840.135
3653.658
3474.917
3305.066
3144.638
2994.408
2855.473
2727.808
2611.689
2506.881
2412.348
2326.769
2248.905
2177.499
2111.696
2051.157
1995.59
1945.547
1901.668
1863.825
1831.15
1802.321
1776.127
1749.388
1726.073
1705.477
1684.047
1662.377
1642.777
1626.612
1614.119
1603.688
1593.745
1583.531
1571.864
1558.471
1544.76
1532.215
1520.494
1511.759
1505.563
1499.895
1494.34
1487.856
1479.062
1468.737
1458.021
1448.633
1441.636
1435.65
1432.378
1430.893
1428.124
1423.464
1417.619
1412.561
1408.216
1405.446
1405.565
1405.608
1404.358
1401.236
1396.561
1391.809
1388.858
1387.72
1388.832
1391.075
1392.286
1392.371
1391.907
1391.766
1394.091
1402.553
1415.007
1428.894
1443.626
1460.379
1477.406
1494.555
1512.188
1527.415
1538.441
1549.518
1566.039
1579.174
1586.912
1590.92
1594.045
1599.725
1610.646
1628.17
1651.483
1678.942
1710.886
1747.237
1784.998
1825.617
1871.23
1923.578
1983.689
2051.264
2124.217
2200.24
2276.127
2345.354
2401.842
2444.998
2478.341
2506.092
2536.139
2577.276
2630.333
2690.323
2753.181
2817.274
2882.546
2949.666
3019.494
3092.72
3169.738
3250.376
3333.918
3419.439
3506.041
3592.904
3679.299
3764.588
3848.29
3930.063
4009.644
4086.81
4161.354
4233.065
4301.726
4367.141
4429.199
4487.96
4543.746
4597.15
4648.787
4698.899
4747.272
4793.581
4837.606
4879.213
4918.394
4955.287
4990.081
5023.025
5054.418
5084.475
5113.283
5140.894
5167.366
5192.756
5217.079
5240.302
5262.378
5283.296
5302.807
5320.759
5337.084
5351.722
5364.472
5375.089
5383.287
5388.707
5390.9
5389.356
5383.354
5371.927
5353.626
5327.446
5292.207
5246.482
5188.764
5118.728
5037.684
4948.053
4854.188
4762.772
4681.905
4618.566
4576.913
4553.748
4536.792
4508.168
4461.002
4403.726
4360.232
4346.725
4358.66
4387.207
4429.6
4483.322
4542.664
4602.817
4660.656
4713.022
4758.134
4795.856
4826.298
4849.453
4865.588
4875.783
4882.239
4885.657
4886.231
4888.084
4890.648
4894.364
4905.987
4928.122
4951.265
4972.974
4994.356
5015.274
5035.426
5053.5
5068.507
5080.606
5090.591
5100.137
5110.723
5123.108
5136.793
5152.106
5167.463
5182.031
5195.434
5207.166
5216.942
5225.559
5232.193
5236.996
5240.875
5243.726
5245.58
5246.756
5247.728
5248.864
5250.607
5253.439
5257.843
5264.148
5272.303
5281.592
5291.088
5300.233
5308.836
5316.812
5324.365
5331.553
5338.435
5344.977
5351.244
5357.314
5363.171
5368.684
5373.902
5378.897
5383.545
5387.849
5391.814
5395.394
5398.619
5401.501
5403.993
5406.08
5407.756
5409.005
5409.821
5410.183
5410.116
5409.584
5408.639
5407.145
5405.282
5402.881
5399.845
5396.973
5394.33
5391.561
5388.577
5385.547
5382.618
5379.796
5377.06
5374.427
5371.909
5369.538
5367.291
5365.145
5363.055
5361.011
5359.003
5357.028
5355.098
5353.223
5351.423
5349.724
5348.151
5346.734
5345.5
5344.461
5343.613
5343.008
5342.621
5342.385
5342.366
5342.524
5342.849
5343.355
5344.038
5344.914
5345.997
5347.301
5348.843
5350.64
5352.701
5355.033
5357.621
5360.434
5363.408
5366.474
5369.568
5372.68
5375.81
5378.926
5381.919
5384.719
5387.264
5389.648
5391.817
5393.531
5394.657
5395.306
5395.617
5395.659
5395.455
5395.043
5394.484
5393.853
5393.206
5392.566
5391.954
5391.414
5390.993
5390.726
5390.635
5390.753
5390.879
5391.105
5391.315
5391.434
5391.384
5391.091
5390.49
5389.525
5388.146
5386.325
5384.057
5381.379
5378.25
5374.731
5370.846
5366.617
5362.155
5357.5
5352.71
5347.84
5342.939
5338.037
5333.156
5328.33
5323.569
5318.864
5314.221
5309.695
5305.362
5301.242
5297.408
5293.878
5290.805
5287.848
5284.991
5282.439
5280.189
5278.28
5276.754
5275.657
5275.062
5275.007
5275.461
5276.406
5277.662
5279.565
5282.01
5284.456
5286.935
5289.364
5291.635
5293.691
5295.472
5296.919
5297.993
5298.649
5298.869
5298.649
5298.04
5297.23
5296.368
5295.917
5295.951
5297.11
5299.287
5303.691
2594.182
2563.301
2534.405
2480.933
2436.715
2359.826
2316.991
2275.991
2237.087
2200.817
2167.224
2137.763
2112.727
2093.869
2081.336
2076.349
2023.553
2042.148
2070.563
2106.339
2147.045
2198.608
2265.428
2348.681
2450.706
2569.969
2705.623
2856.626
3021.984
3200.612
3390.923
3591.272
3798.531
4010.08
4223.458
4434.964
4641.688
4836.927
5013.455
5166.074
5290.335
5380.977
5431.686
5452.247
5437.076
5384.102
5296.631
5178.512
5033.563
4866.537
4683.04
4489.103
4289.638
4088.899
3890.401
3696.233
3507.828
3326.079
3151.167
2984.415
2826.854
2678.628
2541.368
2416.764
2305.252
2206.061
2117.274
2037.011
1963.798
1896.442
1833.948
1775.707
1722.022
1673.747
1631.963
1596.72
1566.846
1540.941
1517.713
1495.539
1473.663
1451.557
1429.035
1407.338
1388.652
1373.522
1362.8
1354.93
1346.953
1337.136
1324.745
1310.301
1294.604
1280.313
1270.43
1262.909
1257.663
1253.309
1248.177
1241.584
1232.772
1221.954
1210.186
1199.103
1191.018
1186.809
1185.601
1185.769
1183.862
1178.937
1171.586
1163.332
1159.5
1158.798
1160.434
1162.062
1160.798
1156.005
1148.819
1141.373
1138.459
1139.439
1142.358
1144.929
1145.054
1142.686
1138.759
1134.711
1133.801
1141.335
1156.596
1167.772
1178.346
1190.659
1201.05
1209.473
1217.705
1228.856
1242.438
1257.911
1275.836
1291.287
1301.485
1308.936
1314.027
1320.143
1332.294
1353.626
1381.416
1410.915
1445.272
1487.592
1525.765
1565.243
1610.344
1662.663
1722.068
1787.387
1857.016
1929.508
2001.541
2068.149
2126.45
2175.394
2215.488
2249.385
2283.812
2325.483
2376.047
2433.238
2493.827
2555.733
2618.371
2682.457
2749.531
2821.022
2897.976
2980.236
3066.572
3155.557
3245.97
3336.781
3427.039
3515.877
3602.665
3686.977
3768.494
3846.973
3922.252
3994.227
4062.824
4128.015
4189.842
4248.492
4304.33
4357.873
4409.605
4459.755
4508.247
4554.873
4599.451
4641.868
4682.102
4720.223
4756.354
4790.658
4823.319
4854.494
4884.283
4912.752
4939.946
4965.883
4990.564
5013.97
5036.085
5056.88
5076.23
5093.978
5110.051
5124.357
5136.781
5147.036
5154.8
5159.67
5161.094
5158.566
5151.336
5138.103
5117.746
5089.033
5050.382
5000.092
4935.676
4855.353
4760.259
4654.812
4546.872
4445.723
4363.254
4303.712
4272.124
4272.664
4284.111
4271.552
4207.365
4113.109
4047.48
4033.385
4052.968
4088.667
4141.302
4207.04
4276.083
4344.498
4411.467
4472.285
4523.441
4564.893
4597.146
4620.391
4634.669
4641.087
4642.668
4641.745
4638.238
4633.623
4629.758
4633.355
4647.397
4669.735
4691.097
4712.542
4736.696
4763.278
4790.082
4814.113
4833.883
4849.712
4863.553
4875.685
4887.045
4898.785
4911.125
4924.014
4936.893
4948.309
4959.022
4968.542
4976.612
4983.177
4987.699
4991.041
4993.767
4995.735
4997.123
4998.216
4999.417
5001.042
5003.452
5006.904
5011.75
5018.259
5026.353
5035.497
5045.01
5054.496
5063.763
5072.655
5081.046
5088.948
5096.579
5103.8
5110.589
5117.032
5123.216
5129.096
5134.616
5139.731
5144.378
5148.584
5152.379
5155.659
5158.467
5160.844
5162.829
5164.395
5165.544
5166.269
5166.559
5166.394
5165.782
5164.713
5163.211
5161.259
5159.013
5156.44
5153.529
5150.656
5147.822
5144.831
5141.693
5138.612
5135.713
5132.977
5130.367
5127.897
5125.588
5123.397
5121.334
5119.342
5117.412
5115.524
5113.66
5111.813
5109.989
5108.198
5106.46
5104.802
5103.254
5101.85
5100.618
5099.58
5098.746
5098.133
5097.721
5097.471
5097.39
5097.434
5097.637
5097.97
5098.469
5099.143
5100.008
5101.086
5102.394
5103.96
5105.808
5107.967
5110.446
5113.223
5116.255
5119.482
5122.853
5126.304
5129.788
5133.194
5136.424
5139.412
5142.114
5144.559
5146.713
5148.417
5149.565
5150.22
5150.478
5150.404
5150.042
5149.449
5148.696
5147.897
5147.147
5146.447
5145.792
5145.234
5144.849
5144.687
5144.766
5145.058
5145.578
5146.174
5146.767
5147.259
5147.554
5147.564
5147.213
5146.436
5145.181
5143.421
5141.148
5138.377
5135.105
5131.394
5127.275
5122.839
5118.119
5113.185
5108.128
5103.008
5097.885
5092.805
5087.776
5082.844
5077.989
5073.163
5068.36
5063.616
5059.091
5054.719
5050.712
5047.113
5044.056
5041.104
5038.237
5035.591
5033.237
5031.229
5029.612
5028.444
5027.809
5027.755
5028.257
5029.32
5030.884
5033.193
5036.147
5039.365
5042.231
5045.029
5047.639
5049.995
5052.051
5053.769
5055.132
5056.124
5056.74
5057.008
5056.972
5056.816
5056.647
5056.807
5057.346
5058.671
5060.512
5063.861
2800.222
2759.289
2714.218
2657.622
2616.097
2538.252
2497.39
2456.853
2416.125
2374.962
2333.825
2292.643
2250.225
2207.992
2164.119
2053.909
2011.529
1970.613
1931.496
1894.586
1860.528
1829.976
1803.681
1782.559
1766.994
1758.476
1757.279
1767.35
1787.085
1816.236
1855.398
1907.139
1974.028
2057.845
2158.654
2276.067
2409.384
2557.708
2720.23
2895.774
3081.778
3275.971
3476.771
3682.317
3891.557
4100.159
4303.069
4493.996
4666.268
4813.794
4931.868
5017.259
5066.437
5080.23
5058.714
5001.938
4911.778
4791.344
4644.21
4475.174
4290.043
4095.118
3896.209
3697.511
3503.281
3316.064
3135.951
2963.156
2797.389
2637.741
2484.893
2340.605
2207.581
2088.046
1982.905
1891.469
1810.544
1737.59
1670.974
1608.984
1550.462
1495.059
1443.269
1396.442
1357.195
1325.898
1299.776
1278.685
1260.165
1241.13
1220.126
1197.288
1173.855
1151.162
1131.076
1118.356
1112.05
1107.241
1101.348
1091.829
1078.703
1062.7
1044.48
1027.049
1017.585
1013.805
1010.99
1007.595
1003.066
996.839
987.8139
975.4881
961.0249
947.0772
937.1763
934.6629
938.408
942.4802
941.8186
934.9651
924.3878
913.1608
907.6689
910.1388
916.3847
920.7095
919.2824
911.8182
901.2286
890.3434
884.5926
888.4096
895.7182
899.5968
898.3728
892.5548
884.0175
874.0186
868.3232
876.0364
894.1768
905.3388
912.6486
920.7398
924.6111
923.6679
920.6583
927.1479
943.609
967.2858
985.5523
1000.84
1014.39
1025.392
1031.234
1035.244
1046.169
1072.169
1107.574
1142.505
1178.219
1223.57
1262.472
1298.3
1340.428
1391.93
1451.702
1517.446
1586.527
1658.539
1730.03
1796.14
1856.997
1910.577
1953.928
1988.543
2022.949
2063.783
2112.826
2168.909
2228.445
2288.505
2347.864
2407.271
2469.857
2538.515
2615.501
2700.368
2790.809
2884.604
2980.16
3076.211
3171.534
3265.014
3355.878
3443.631
3527.886
3608.344
3684.865
3757.436
3826.119
3891.029
3952.362
4010.475
4065.867
4119.111
4170.678
4220.823
4269.561
4316.713
4362.063
4405.454
4446.822
4486.198
4523.658
4559.304
4593.267
4625.669
4656.6
4686.115
4714.245
4740.999
4766.373
4790.347
4812.889
4833.951
4853.471
4871.373
4887.519
4901.832
4914.177
4924.364
4932.013
4936.677
4937.931
4935.136
4926.989
4912.31
4890.482
4859.978
4818.352
4762.843
4689.43
4595.04
4481.29
4355.143
4225.109
4102.255
4007.926
3956.75
3951.899
3999.865
4048.239
4081.067
4014.12
3862.509
3709.171
3691.505
3718.909
3760.977
3833.537
3926.415
4011.988
4089.523
4166.035
4234.096
4290.333
4335.594
4370.18
4394.307
4407.187
4408.645
4407.064
4400.516
4393.837
4391.567
4393.348
4400.679
4409.732
4418.94
4433.169
4453.615
4479.369
4508.676
4539.977
4570.988
4599.153
4620.751
4639.839
4654.661
4666.711
4677.633
4688.152
4698.403
4707.916
4717.38
4725.321
4732.056
4737.481
4741.599
4744.459
4746.463
4747.926
4748.974
4749.7
4750.344
4751.378
4753.238
4756.203
4760.312
4765.59
4772.169
4780.027
4788.864
4798.26
4807.864
4817.436
4826.848
4836.144
4845.028
4853.608
4861.853
4869.653
4876.925
4883.681
4890
4895.883
4901.231
4905.984
4910.141
4913.729
4916.734
4919.164
4921.084
4922.524
4923.523
4924.093
4924.246
4923.972
4923.247
4922.071
4920.449
4918.391
4915.935
4913.287
4910.511
4907.357
4904.207
4901.101
4897.984
4894.882
4891.89
4889.072
4886.44
4883.981
4881.697
4879.54
4877.502
4875.567
4873.708
4871.901
4870.118
4868.334
4866.54
4864.738
4862.943
4861.183
4859.494
4857.911
4856.474
4855.219
4854.173
4853.348
4852.746
4852.342
4852.108
4852.017
4852.015
4852.12
4852.281
4852.592
4853.059
4853.704
4854.553
4855.63
4856.966
4858.606
4860.602
4862.991
4865.771
4868.927
4872.377
4876.073
4879.874
4883.793
4887.594
4891.127
4894.299
4897.068
4899.583
4901.919
4903.85
4905.143
4905.795
4905.917
4905.622
4905.004
4904.134
4903.085
4902.034
4901.163
4900.405
4899.675
4899.046
4898.65
4898.569
4898.831
4899.403
4900.264
4901.264
4902.279
4903.183
4903.858
4904.202
4904.131
4903.571
4902.462
4900.764
4898.466
4895.586
4892.164
4888.26
4883.923
4879.217
4874.203
4868.98
4863.599
4858.139
4852.684
4847.314
4842.158
4837.201
4832.331
4827.432
4822.452
4817.347
4812.595
4807.838
4803.531
4799.793
4796.981
4794.187
4791.3
4788.548
4786.087
4783.986
4782.282
4781.026
4780.304
4780.18
4780.624
4781.668
4783.506
4786.31
4790.041
4793.993
4797.44
4800.705
4803.729
4806.444
4808.816
4810.834
4812.501
4813.825
4814.808
4815.479
4815.877
4816.173
4816.487
4817.111
4818.133
4819.766
4821.767
4824.821
2822.837
2768.442
2711.869
2644.777
2579.827
2522.669
2470.738
2423.28
2379.698
2336.441
2227.841
2187.636
2147.849
2107.852
2067.338
2026.306
1984.68
1942.235
1899.216
1856.495
1814.788
1772.749
1731.6
1691.692
1653.526
1617.607
1584.003
1553.347
1527.15
1506.465
1492.345
1486.504
1490.44
1504.954
1530.883
1569.003
1621.02
1688.216
1771.517
1871.073
1986.671
2117.728
2263.324
2422.231
2592.154
2771.24
2958.961
3154.488
3356.593
3561.534
3765.06
3961.74
4145.273
4309.012
4446.78
4553.615
4626.203
4662.553
4663.014
4629.841
4564.946
4469.891
4346.739
4198.026
4027.866
3842.485
3647.715
3450.05
3254.435
3065.471
2887.003
2718.595
2558.492
2404.837
2255.24
2110.677
1974.298
1848.609
1736.017
1639.084
1557.724
1486.873
1423.318
1365.977
1312.11
1259.592
1207.765
1157.294
1110.31
1072.441
1046.635
1026.648
1011.824
999.9013
985.5015
966.0104
942.2942
916.9627
892.2421
870.7613
859.6437
858.8202
859.7497
856.6105
847.5492
833.5874
815.5063
794.1101
772.1589
759.6039
761.4056
763.0425
760.8027
757.0979
752.4598
744.15
729.8779
711.293
692.4914
679.9358
678.2693
689.746
701.6947
704.1952
693.9955
678.635
661.8416
651.1185
657.3244
672.3296
682.4963
682.0335
670.1872
654.4378
637.1571
625.0572
634.8201
649.7559
656.031
653.4864
643.264
629.2136
609.1226
593.6088
607.7855
629.6976
641.303
647.3471
649.9118
646.9693
636.735
619.2384
619.9302
645.3462
676.252
696.9303
709.311
726.6287
738.345
742.3269
742.5172
752.6945
789.0207
831.2433
872.4814
911.3768
951.2402
994.841
1026.891
1064.555
1116.063
1176.746
1242.592
1310.348
1386.649
1465.087
1530.898
1594.5
1653.171
1697.019
1726.131
1757.45
1795.687
1842.102
1898.153
1958.728
2018.399
2073.572
2125.722
2180.539
2243.337
2320.277
2409.487
2505.895
2606
2708.012
2810.609
2912.247
3011.482
3107.454
3199.659
3287.607
3370.853
3449.241
3522.811
3591.74
3656.271
3716.77
3773.785
3828.068
3880.516
3931.717
3981.864
4030.994
4078.889
4125.211
4169.699
4212.235
4252.85
4291.608
4328.584
4363.877
4397.578
4429.758
4460.459
4489.703
4517.492
4543.809
4568.621
4591.885
4613.555
4633.581
4651.914
4668.478
4683.142
4695.771
4706.206
4714.166
4719.276
4720.916
4717.964
4709.589
4695.221
4673.225
4641.403
4596.805
4535.562
4452.107
4341.146
4203.407
4050.069
3890.408
3738.92
3621.3
3558.044
3588.815
3709.455
3914.481
4078.197
3923.061
3710.782
3580.055
3530.015
3521.906
3543.954
3588.272
3655.003
3739.729
3826.214
3924.746
4005.122
4063.415
4108.705
4143.698
4169.69
4183.608
4181.293
4170.434
4157.516
4146.158
4141.791
4146.97
4152.206
4154.667
4157.81
4171.463
4194.739
4224.453
4258.578
4294.97
4331.185
4362.482
4387.792
4412.553
4430.256
4443.959
4455.156
4464.549
4472.829
4480.235
4486.663
4491.922
4496.011
4499.066
4501.179
4502.379
4502.864
4503.115
4503.334
4503.629
4504.068
4505.142
4506.915
4509.783
4514.033
4519.624
4526.353
4534.128
4542.836
4552.267
4562.062
4571.958
4581.804
4591.516
4600.943
4610.038
4618.775
4627.177
4635.236
4642.872
4649.952
4656.447
4662.287
4667.407
4671.749
4675.292
4678.077
4680.148
4681.575
4682.459
4682.888
4682.907
4682.532
4681.746
4680.505
4678.8
4676.64
4673.999
4670.958
4667.948
4664.84
4661.231
4657.754
4654.529
4651.437
4648.401
4645.454
4642.672
4640.099
4637.751
4635.676
4633.562
4631.674
4629.895
4628.177
4626.487
4624.79
4623.059
4621.279
4619.449
4617.584
4615.728
4613.932
4612.24
4610.704
4609.371
4608.273
4607.429
4606.832
4606.453
4606.243
4606.142
4606.097
4606.076
4606.165
4606.322
4606.598
4607.036
4607.67
4608.523
4609.629
4611.052
4612.877
4615.174
4617.997
4621.267
4624.975
4629.139
4633.476
4637.912
4642.21
4646.135
4649.502
4652.23
4654.815
4657.587
4659.991
4661.431
4661.976
4661.892
4661.338
4660.423
4659.199
4657.722
4656.36
4655.478
4654.678
4653.742
4652.917
4652.431
4652.392
4652.829
4653.706
4654.951
4656.406
4657.9
4659.262
4660.347
4661.045
4661.269
4660.937
4659.978
4658.342
4656.011
4653.014
4649.411
4645.279
4640.697
4635.744
4630.471
4624.92
4619.158
4613.297
4607.402
4601.632
4596.262
4591.327
4586.592
4581.75
4576.68
4571.147
4565.883
4560.584
4555.944
4552.255
4549.882
4547.183
4544.205
4541.271
4538.664
4536.471
4534.682
4533.336
4532.51
4532.261
4532.494
4533.241
4535.571
4539.306
4543.88
4548.386
4552.555
4556.408
4559.918
4563.037
4565.751
4568.077
4570.044
4571.682
4573.001
4574.014
4574.749
4575.366
4576.018
4576.991
4578.44
4580.476
4582.901
4586.023
2555.931
2485.787
2346.408
2290.785
2237.503
2188.658
2143.483
2101.126
2060.684
2021.716
1984.035
1945.742
1907.151
1867.915
1828.042
1787.29
1745.623
1703.016
1659.479
1615.588
1572.819
1530.585
1488.929
1447.857
1407.285
1367.752
1330.284
1295.771
1265.564
1241.532
1224.976
1216.782
1218.197
1230.215
1254.031
1290.819
1341.907
1408.176
1490.203
1588.063
1701.579
1829.947
1971.771
2124.54
2286.855
2459.223
2642.038
2832.976
3029.483
3227.665
3422.724
3609.062
3780.505
3930.569
4053.212
4143.603
4198.725
4217.736
4202.168
4155.255
4080.365
3979.679
3854.404
3706.076
3537.459
3354.488
3162.572
2966.045
2772.328
2589.922
2423.255
2269.396
2123.6
1983.141
1846.88
1715.808
1590.106
1471.809
1365.304
1277.971
1210.236
1150.167
1096.712
1049.807
1004.964
960.628
914.8936
866.44
819.7303
783.1173
758.9859
748.6456
745.5026
739.7069
730.6962