/*--------------------------------*- C++ -*----------------------------------*\
| =========                 |                                                 |
| \\      /  F ield         | foam-extend: Open Source CFD                    |
|  \\    /   O peration     | Version:     3.1                                |
|   \\  /    A nd           | Web:         http://www.extend-project.de       |
|    \\/     M anipulation  |                                                 |
\*---------------------------------------------------------------------------*/
FoamFile
{
    version     2.0;
    format      ascii;
    class       volScalarField;
    location    "19";
    object      pd;
}
// * * * * * * * * * * * * * * * * * * * * * * * * * * * * * * * * * * * * * //

dimensions      [1 -1 -2 0 0 0 0];

internalField   nonuniform List<scalar> 
119952
(
4510.82
2841.41
2610.511
2845.757
3095.576
2895.183
2840.422
2801.473
2787.949
2779.32
2778.191
2784.516
2796.645
2813.401
2833.977
2857.235
2881.788
2904.565
2912.266
2856.527
3231.666
3095.297
3056.516
3531.826
3558.711
3638.561
3723.155
3870.731
4227.996
6850.327
2641.583
2592.822
2590.905
2581.183
2574.827
2566.667
2557.774
2554.362
2554.477
2525.164
2514.085
2531.567
2523.548
2518.374
2514.403
2512.418
2512.014
2511.932
2511.994
2533.18
2530.058
2507.47
2500.856
2501.683
2502.158
2503.969
2506.622
2508.087
2517.24
2514.063
2513.644
2525.727
2539.156
2553.359
2569.894
2588.94
2619.329
2713.209
2898.227
2762.277
2709.392
2811.186
2864.451
2850.461
2811.213
2788.399
2777.329
2772.577
2774.196
2782.203
2795.82
2814.047
2836.019
2860.749
2887.05
2914.074
2943.34
2981.978
3051.887
3128.634
3179.313
3329.576
3531.926
3615.146
3671.805
3727.253
3703.616
3502.615
3509.68
3622.4
3696.439
3769
3843.084
3915.091
3986.985
4059.702
4133.608
4209.014
4285.99
4364.432
4444.093
4524.592
4605.458
4686.207
4766.413
4845.805
4924.314
5002.034
5079.078
5155.405
5230.711
5304.424
5375.738
5443.688
5507.165
5565.21
5617.883
5667.47
5717.325
5768.251
5818.359
5865.881
5909.888
5950.367
5987.62
6022.101
6054.232
6084.569
6114.02
6143.158
6171.912
6200.187
6227.938
6254.983
6281.036
6305.982
6330.736
6354.549
6376.571
6396.601
6415.147
6432.15
6447.425
6460.858
6472.215
6481.256
6487.703
6491.187
6491.352
6487.569
6479.151
6465.237
6444.734
6416.202
6378.191
6330.275
6272.936
6207.39
6135.609
6059.722
5982.405
5908.932
5842.574
5782.564
5730.169
5683.825
5641.608
5604.95
5577.247
5561.228
5559.048
5569.954
5591.988
5622.516
5658.536
5697.251
5736.556
5775.012
5811.689
5846.151
5878.213
5907.805
5934.849
5960.093
5982.947
5994.631
5986.056
6025.599
6047.392
6056.286
6068.469
6081.509
6097.771
6108.885
6113.007
6112.951
6113.29
6118.227
6127.969
6139.813
6152.077
6165.073
6179.785
6196.795
6215.783
6236.131
6256.743
6277.004
6295.463
6311.657
6325.528
6337.123
6346.563
6353.982
6359.453
6364.546
6367.495
6368.38
6367.399
6364.153
6357.401
6345.705
6334.576
6352.085
6364.398
6376.728
6386.682
6395.139
6402.499
6409.016
6415.088
6420.964
6426.725
6432.585
6438.486
6444.56
6450.612
6456.603
6462.578
6468.449
6474.181
6479.709
6484.976
6489.94
6494.573
6498.843
6502.722
6506.182
6509.195
6511.747
6513.826
6515.424
6516.543
6517.18
6517.357
6517.36
6516.291
6531.393
6525.442
6509.519
6506.523
6505.076
6500.333
6496.188
6492.849
6489.184
6485.63
6482.193
6478.878
6475.744
6472.801
6470.007
6467.342
6464.723
6462.116
6459.684
6457.361
6455.154
6453.081
6451.17
6449.444
6447.976
6446.778
6445.787
6445.087
6444.622
6444.389
6444.389
6444.628
6445.095
6445.789
6446.707
6447.847
6449.208
6450.797
6452.624
6454.705
6457.06
6459.724
6462.755
6466.233
6470.076
6473.536
6475.709
6477.404
6479.612
6482.206
6484.95
6487.847
6490.421
6492.096
6486.986
6490.877
6496.396
6497.896
6498.731
6499.828
6500.449
6500.698
6500.711
6500.501
6500.116
6499.594
6498.978
6498.306
6497.6
6496.894
6496.205
6495.515
6494.908
6494.295
6493.692
6493.071
6492.401
6491.647
6490.77
6489.728
6488.483
6487.001
6485.247
6483.2
6480.846
6478.181
6475.208
6471.935
6468.375
6464.559
6460.508
6456.263
6451.864
6447.358
6442.788
6438.197
6433.621
6429.096
6424.653
6420.317
6416.092
6412.021
6408.14
6404.491
6401.1
6397.969
6395.077
6392.473
6390.178
6388.172
6386.449
6385.01
6383.859
6383.01
6382.488
6382.31
6382.474
6382.976
6383.823
6385.013
6386.471
6388.139
6389.918
6391.693
6393.361
6394.808
6395.936
6396.621
6396.758
6396.194
6394.77
6392.247
6388.305
6382.404
6373.633
6361.309
6349.679
6363.708
6448.878
4239.731
4108.868
3977.261
3848.805
3733.338
3628.403
3532.88
3447.314
3368.384
3264.826
3215.496
3158.301
3102.226
3055.602
3012.193
2975.566
2943.576
2910.978
2881.687
2879.276
2841.975
2809.903
2787.061
2767.213
2750.306
2736.12
2722.689
2711.385
2705.22
2680.184
2667.051
2657.053
2645.463
2635.166
2626.529
2618.891
2613.701
2616.489
2593.7
2577.449
2571.861
2566.026
2559.112
2552.685
2547.126
2542.723
2539.33
2529.444
2528.314
2526.544
2522.283
2517.807
2514.675
2512.953
2512.766
2520.001
2498.051
2497.038
2499.914
2501.55
2501.484
2501.306
2502.058
2503.626
2505.488
2506.718
2510.917
2518.765
2528.26
2539.684
2554.256
2573.38
2599.796
2636.197
2679.57
2718.529
2732.698
2730.51
2744.862
2764.104
2772.656
2768.567
2758.988
2752.665
2752.752
2759.283
2771.593
2788.902
2810.536
2835.994
2864.791
2896.507
2932.085
2973.799
3024.717
3086.956
3161.887
3249.126
3349.46
3454.075
3539.374
3595
3622.316
3618.561
3597.585
3613.188
3664.744
3727.462
3794.739
3863.849
3933.247
4003.158
4074.391
4147.5
4222.683
4299.909
4378.99
4459.58
4541.204
4623.321
4705.404
4787.006
4867.803
4947.606
5026.309
5103.813
5179.934
5254.353
5326.596
5396.06
5462.095
5524.155
5582.004
5636.16
5688.004
5738.954
5789.284
5838.011
5884.191
5927.463
5967.68
6004.969
6039.711
6072.236
6103.062
6132.711
6161.548
6189.629
6216.955
6243.494
6269.229
6294.144
6318.07
6341.41
6363.607
6384.365
6403.428
6420.847
6436.653
6450.684
6462.701
6472.465
6479.686
6484.008
6485.013
6482.191
6474.834
6462.061
6442.993
6416.395
6380.914
6335.391
6279.682
6214.243
6140.558
6061.643
5980.777
5902.642
5832.476
5772.368
5723.215
5682.343
5644.569
5606.701
5570.692
5545.088
5534.591
5539.844
5558.364
5587.637
5625.233
5668.114
5713.07
5757.408
5799.185
5837.298
5871.332
5901.059
5926.719
5947.812
5964.945
5979.951
5994.735
5998.135
6009.807
6032.447
6046.785
6061.894
6078.947
6097.598
6112.778
6120.701
6123.673
6126.396
6132.19
6140.269
6149.318
6158.913
6170.016
6183.045
6198.328
6215.552
6234.226
6253.808
6272.578
6289.927
6305.361
6318.697
6329.94
6339.183
6346.608
6352.499
6356.99
6359.975
6361.404
6361.465
6359.894
6356.908
6354.272
6354.721
6361.506
6372.784
6383.268
6392.359
6400.583
6407.836
6414.233
6420.13
6425.759
6431.276
6436.773
6442.356
6447.979
6453.719
6459.513
6465.171
6470.665
6476.05
6481.169
6486.022
6490.583
6494.827
6498.727
6502.251
6505.372
6508.068
6510.323
6512.122
6513.467
6514.345
6514.797
6514.819
6514.536
6516.424
6508.972
6509.751
6510.147
6506.658
6501.326
6496.7
6493.235
6490.145
6486.888
6483.594
6480.455
6477.469
6474.646
6471.947
6469.405
6466.962
6464.577
6462.211
6459.923
6457.751
6455.68
6453.724
6451.942
6450.248
6448.776
6447.543
6446.525
6445.808
6445.193
6444.866
6444.8
6444.959
6445.35
6445.958
6446.784
6447.828
6449.092
6450.587
6452.32
6454.309
6456.564
6459.099
6461.902
6464.918
6468.014
6471.027
6473.777
6476.296
6478.837
6481.551
6484.358
6487.153
6489.803
6492.234
6493.783
6494.372
6495.293
6496.799
6498.353
6499.48
6500.05
6500.171
6500.021
6499.704
6499.255
6498.705
6498.094
6497.452
6496.809
6496.196
6495.645
6495.162
6494.726
6494.334
6493.968
6493.572
6493.1
6492.505
6491.742
6490.762
6489.519
6487.994
6486.107
6483.905
6481.355
6478.487
6475.301
6471.809
6468.026
6463.998
6459.748
6455.336
6450.807
6446.201
6441.557
6436.908
6432.287
6427.715
6423.222
6418.835
6414.561
6410.476
6406.594
6402.957
6399.664
6396.52
6393.552
6390.95
6388.661
6386.632
6384.908
6383.509
6382.45
6381.771
6381.52
6381.67
6382.134
6382.977
6384.215
6385.72
6387.448
6389.373
6391.291
6393.133
6394.823
6396.249
6397.346
6397.987
6398.119
6397.585
6396.318
6394.156
6391.072
6387.153
6383.153
6380.754
6382.851
6391.234
6406.371
3728.529
3825.706
3947.601
4086.444
4242.075
4413.695
4599.784
4798.889
5008.446
5223.249
5445.952
5672.56
5895.183
6109.481
6311.682
6498.351
6661.982
6796.35
6895.444
6965.605
6994.612
6985.905
6940.507
6860.814
6749.799
6611.616
6450.665
6272.176
6084.911
5881.453
5679.257
5474.001
5271.384
5073.411
4881.781
4697.952
4523.814
4360.996
4197.288
4052.031
3916.877
3794.357
3682.789
3581.526
3489.673
3406.349
3331.672
3261.262
3194.22
3136.974
3084.65
3037.568
2996.273
2960.194
2929.396
2910.202
2859.277
2833.382
2813.971
2794.524
2774.403
2755.468
2739.14
2725.516
2713.807
2702.109
2689.626
2678.422
2666.43
2653.165
2640.263
2629.156
2620.529
2613.707
2607.241
2599.868
2592.655
2584.606
2575.116
2565.358
2556.978
2549.787
2543.503
2539.212
2535.54
2532.247
2528.469
2523.52
2518.751
2514.118
2511.617
2510.699
2509.371
2507.215
2503.915
2502.197
2501.216
2498.302
2496.087
2496.006
2497.168
2498.616
2499.838
2501.395
2504.194
2509.255
2517.797
2529.15
2544.991
2563.34
2585.357
2610.048
2636.211
2664.429
2683.558
2690.202
2698.487
2714.474
2727.091
2730.642
2728.747
2727.512
2730.737
2739.716
2754.602
2774.75
2799.22
2827.788
2860.239
2895.737
2934.949
2979.655
3031.705
3093.093
3165.037
3243.68
3326.819
3412.133
3488.329
3543.803
3578.929
3598.814
3611.897
3634.564
3676.669
3734.091
3797.913
3863.855
3930.648
3998.371
4067.767
4139.495
4213.888
4291.02
4370.692
4452.434
4535.613
4619.552
4703.605
4787.205
4869.888
4951.32
5031.265
5109.532
5185.918
5260.164
5331.933
5400.832
5466.475
5528.578
5587.081
5642.33
5695.151
5746.468
5796.568
5844.973
5891.138
5934.777
5975.742
6014.03
6049.837
6083.428
6115.14
6145.399
6174.54
6202.666
6229.789
6255.908
6281.074
6305.342
6328.752
6351.149
6372.593
6392.6
6411.072
6427.92
6443.05
6456.335
6467.547
6476.416
6482.616
6485.738
6485.279
6480.626
6471.008
6455.315
6432.543
6401.406
6360.686
6309.144
6246.578
6174.254
6094.351
6009.624
5924.069
5843.413
5771.031
5707.83
5675.764
5653.629
5622.997
5583.927
5542.425
5511
5499.817
5508.503
5532.225
5567.979
5613.031
5663.319
5714.864
5764.693
5810.639
5851.533
5887.01
5916.582
5939.974
5957.688
5971.141
5983.55
5991.544
5993.892
6003.025
6013.806
6024.082
6036.453
6052.367
6071.527
6090.69
6107.616
6121.743
6135.434
6147.793
6158.566
6167.73
6176.356
6185.664
6197.116
6211.413
6227.335
6244.188
6261.506
6278.618
6294.517
6308.368
6320.017
6329.969
6338.004
6343.931
6348.351
6351.672
6353.869
6354.926
6355.452
6355.505
6355.778
6357.153
6360.666
6366.949
6375.407
6384.732
6393.93
6402.536
6410.441
6417.749
6424.752
6431.283
6437.542
6443.597
6449.49
6455.257
6460.927
6466.425
6471.746
6477.063
6481.731
6486.325
6490.615
6494.656
6498.392
6501.776
6504.778
6507.378
6509.56
6511.31
6512.612
6513.465
6513.864
6513.829
6513.377
6512.565
6511.227
6508.776
6506.113
6502.843
6499.227
6495.808
6492.742
6489.93
6487.184
6484.379
6481.568
6478.88
6476.319
6473.793
6471.368
6469.039
6466.806
6464.622
6462.473
6460.376
6458.341
6456.37
6454.476
6452.694
6451.059
6449.613
6448.375
6447.354
6446.485
6445.977
6445.608
6445.469
6445.482
6445.746
6446.218
6446.886
6447.751
6448.823
6450.113
6451.64
6453.413
6455.447
6457.737
6460.273
6463.013
6465.916
6468.887
6471.827
6474.662
6477.473
6480.33
6483.255
6486.088
6488.765
6491.014
6493.115
6495.267
6497.096
6498.459
6499.353
6499.843
6499.991
6499.856
6499.516
6499.036
6498.47
6497.855
6497.22
6496.591
6496.003
6495.496
6495.098
6494.81
6494.622
6494.521
6494.421
6494.305
6494.098
6493.745
6493.185
6492.363
6491.241
6489.762
6487.955
6485.728
6483.069
6480.067
6476.684
6472.992
6469.005
6464.773
6460.339
6455.761
6451.086
6446.357
6441.602
6436.848
6432.13
6427.472
6422.885
6418.365
6413.992
6409.816
6405.849
6402.124
6398.705
6395.618
6392.626
6389.841
6387.424
6385.285
6383.472
6382.022
6380.975
6380.39
6380.278
6380.603
6381.358
6382.456
6383.991
6385.861
6387.826
6390.006
6392.127
6394.135
6395.955
6397.517
6398.734
6399.556
6399.889
6399.701
6398.906
6397.554
6395.728
6393.761
6392.189
6391.68
6392.867
6396.773
6404.055
3418.571
3395.027
3381.927
3370.798
3367.714
3380.471
3406.129
3449.65
3509.284
3553.471
3585.906
3640.152
3717.897
3816.196
3933.649
4069.005
4218.005
4382.21
4560.008
4749.931
4950.735
5160.487
5375.709
5592.052
5805.928
6013.623
6209.188
6388.729
6546.956
6679.896
6785.641
6863.734
6892.994
6880.519
6827.174
6739.899
6622.548
6478.668
6312.882
6130.744
5937.966
5738.618
5536.523
5334.968
5136.729
4943.76
4757.283
4578.542
4408.691
4248.263
4098.033
3959.098
3831.433
3715.314
3610.506
3515.973
3430.394
3352.53
3281.124
3215.321
3154.782
3099.215
3049.172
3005.293
2967.45
2934.775
2905.946
2879.752
2853.013
2829.698
2809.102
2787.672
2766.002
2746.402
2730.237
2717.744
2707.313
2697.37
2687.156
2675.489
2662.096
2648.385
2635.84
2624.119
2615.384
2609.188
2603.52
2597.965
2591.481
2582.687
2572.362
2561.646
2552.258
2545.261
2539.275
2536.003
2534.518
2531.749
2527.089
2521.244
2516.186
2511.841
2509.071
2509.19
2509.233
2507.983
2504.861
2500.186
2495.434
2492.483
2491.345
2492.457
2494.7
2495.911
2495.996
2495.532
2495.391
2497.716
2506.178
2518.632
2532.519
2547.251
2564.004
2581.031
2598.18
2615.813
2631.04
2642.066
2653.143
2669.664
2682.799
2690.537
2694.545
2697.67
2703.35
2714.271
2731.795
2755.108
2782.567
2814.511
2850.862
2888.623
2929.242
2974.855
3027.203
3087.314
3154.889
3227.842
3303.865
3379.752
3448.979
3505.467
3548.623
3581.966
3609.717
3639.764
3680.901
3733.958
3793.948
3856.806
3920.899
3986.171
4053.291
4123.119
4196.345
4273.363
4354.001
4437.543
4523.064
4609.666
4696.529
4782.924
4868.213
4951.915
5033.688
5113.269
5190.435
5264.979
5336.69
5405.351
5470.766
5532.824
5591.585
5647.371
5700.775
5752.412
5802.524
5850.897
5897.206
5941.231
5982.838
6022.019
6058.912
6093.706
6126.65
6158.043
6188.1
6216.908
6244.519
6270.991
6296.381
6320.704
6343.927
6366.002
6386.921
6406.432
6424.384
6440.709
6455.347
6468.097
6478.714
6486.912
6492.332
6494.525
6492.981
6486.979
6475.552
6457.251
6431.071
6395.831
6350.107
6292.388
6222.346
6141.249
6051.273
5955.485
5859.165
5758.278
5691.409
5649.755
5635.201
5635.504
5611.548
5564.623
5507.347
5463.853
5450.346
5462.281
5490.829
5533.222
5586.945
5646.288
5706.441
5764.281
5816.647
5861.759
5899.479
5929.885
5953.024
5969.181
5979.402
5985.863
5989.28
5989.847
5991.668
5994.083
5997.014
6004.117
6014.747
6040.628
6072.359
6097.602
6118.892
6139.05
6157.123
6172.113
6184.056
6193.902
6203.602
6214.331
6226.721
6240.279
6254.881
6270.437
6285.459
6299.04
6310.791
6320.567
6329.184
6335.818
6340.621
6344.5
6347.351
6349.205
6350.381
6351.353
6352.488
6354.231
6357.064
6361.467
6367.773
6375.928
6385.215
6394.711
6403.856
6412.46
6420.437
6427.99
6435.178
6442.06
6448.602
6454.869
6460.939
6466.796
6472.309
6477.527
6482.522
6487.17
6491.473
6495.439
6499.019
6502.244
6505.126
6507.618
6509.705
6511.381
6512.63
6513.446
6513.808
6513.741
6513.209
6512.264
6510.77
6508.907
6506.506
6503.47
6500.598
6497.955
6495.186
6492.202
6489.172
6486.243
6483.421
6480.685
6478.052
6475.534
6473.163
6470.916
6468.77
6466.68
6464.636
6462.628
6460.653
6458.723
6456.848
6455.048
6453.349
6451.776
6450.359
6449.125
6448.086
6447.238
6446.633
6446.246
6446.01
6445.991
6446.149
6446.474
6446.98
6447.663
6448.539
6449.622
6450.926
6452.468
6454.265
6456.326
6458.658
6461.246
6464.059
6467.033
6470.099
6473.193
6476.305
6479.435
6482.551
6485.544
6488.344
6490.889
6493.273
6495.442
6497.156
6498.282
6498.931
6499.242
6499.284
6499.08
6498.668
6498.109
6497.478
6496.831
6496.191
6495.579
6495.039
6494.618
6494.351
6494.26
6494.378
6494.504
6494.73
6494.94
6495.059
6495.009
6494.716
6494.115
6493.15
6491.771
6489.95
6487.682
6485.004
6481.875
6478.356
6474.471
6470.242
6465.78
6461.125
6456.335
6451.465
6446.564
6441.662
6436.781
6431.955
6427.194
6422.489
6417.846
6413.32
6408.987
6404.867
6401.033
6397.503
6394.43
6391.473
6388.615
6386.061
6383.812
6381.904
6380.379
6379.282
6378.687
6378.632
6379.086
6380.031
6381.287
6383.189
6385.633
6388.074
6390.544
6392.975
6395.256
6397.316
6399.097
6400.544
6401.618
6402.274
6402.494
6402.274
6401.665
6400.855
6399.993
6399.542
6399.576
6400.735
6402.912
6407.316
3862.527
3819.929
3780.008
3737.84
3693.621
3647.389
3604.554
3563.554
3524.649
3488.379
3454.786
3425.325
3400.289
3381.431
3368.898
3363.911
3372.428
3391.023
3419.438
3455.214
3495.92
3547.483
3614.303
3697.556
3799.581
3918.844
4054.498
4205.501
4370.859
4549.487
4739.798
4940.147
5147.406
5358.955
5572.333
5783.839
5990.563
6185.802
6362.33
6514.949
6639.21
6729.852
6780.561
6801.122
6785.951
6732.977
6645.506
6527.387
6382.438
6215.412
6031.915
5837.978
5638.513
5437.774
5239.276
5045.108
4856.703
4674.954
4500.042
4333.29
4175.729
4027.503
3890.243
3765.639
3654.127
3554.936
3466.149
3385.886
3312.673
3245.317
3182.823
3124.582
3070.897
3022.622
2980.838
2945.595
2915.721
2889.816
2866.588
2844.414
2822.538
2800.432
2777.91
2756.213
2737.527
2722.397
2711.675
2703.805
2695.828
2686.011
2673.62
2659.176
2643.479
2629.188
2619.305
2611.784
2606.538
2602.184
2597.052
2590.459
2581.647
2570.829
2559.061
2547.978
2539.893
2535.684
2534.476
2534.644
2532.737
2527.812
2520.461
2512.207
2508.375
2507.673
2509.309
2510.937
2509.673
2504.88
2497.694
2490.248
2487.334
2488.314
2491.233
2493.804
2493.929
2491.561
2487.634
2483.586
2482.676
2490.21
2505.471
2516.647
2527.221
2539.534
2549.925
2558.348
2566.58
2577.731
2591.313
2606.786
2624.711
2640.162
2650.36
2657.811
2662.902
2669.018
2681.169
2702.501
2730.291
2759.79
2794.147
2836.467
2874.64
2914.118
2959.219
3011.538
3070.943
3136.262
3205.891
3278.383
3350.416
3417.024
3475.325
3524.269
3564.363
3598.26
3632.687
3674.358
3724.922
3782.113
3842.702
3904.608
3967.246
4031.332
4098.406
4169.897
4246.851
4329.111
4415.447
4504.432
4594.845
4685.656
4775.914
4864.752
4951.54
5035.852
5117.369
5195.848
5271.127
5343.102
5411.699
5476.89
5538.717
5597.367
5653.205
5706.748
5758.48
5808.63
5857.122
5903.748
5948.326
5990.743
6030.977
6069.098
6105.229
6139.533
6172.194
6203.369
6233.158
6261.627
6288.821
6314.758
6339.439
6362.845
6384.96
6405.755
6425.105
6442.853
6458.926
6473.232
6485.656
6495.911
6503.675
6508.545
6509.969
6507.441
6500.211
6486.978
6466.621
6437.908
6399.257
6348.957
6284.51
6204.092
6108.104
5998.722
5870.517
5756.975
5674.506
5617.26
5605.103
5618.941
5631.978
5619.143
5553.872
5459.654
5394.522
5380.84
5400.657
5436.527
5489.337
5555.284
5624.578
5693.234
5760.317
5821.151
5872.305
5913.73
5945.931
5969.206
5983.525
5989.959
5991.539
5990.599
5986.909
5980.76
5957.104
5814.734
5797.23
5936.809
6030.314
6060.984
6085.554
6112.153
6138.956
6162.97
6182.461
6197.587
6211.823
6224.421
6235.913
6247.65
6259.776
6271.825
6284.948
6296.895
6307.862
6317.416
6325.487
6332.052
6336.574
6339.916
6342.639
6344.601
6345.988
6347.081
6348.283
6349.904
6352.288
6355.646
6360.251
6366.586
6374.693
6384.03
6393.813
6403.368
6412.638
6421.53
6429.921
6437.823
6445.454
6452.675
6459.464
6465.907
6472.091
6477.971
6483.491
6488.605
6493.253
6497.458
6501.254
6504.534
6507.342
6509.719
6511.704
6513.27
6514.419
6515.144
6515.434
6515.269
6514.657
6513.588
6512.086
6510.134
6507.888
6505.314
6502.403
6499.531
6496.697
6493.706
6490.568
6487.487
6484.588
6481.852
6479.242
6476.772
6474.463
6472.272
6470.209
6468.217
6466.287
6464.399
6462.535
6460.688
6458.864
6457.073
6455.335
6453.677
6452.129
6450.725
6449.493
6448.455
6447.621
6447.008
6446.596
6446.346
6446.265
6446.309
6446.512
6446.845
6447.344
6448.018
6448.883
6449.961
6451.269
6452.835
6454.683
6456.842
6459.321
6462.098
6465.13
6468.357
6471.728
6475.179
6478.663
6482.069
6485.299
6488.287
6490.989
6493.434
6495.588
6497.292
6498.439
6499.092
6499.349
6499.275
6498.916
6498.324
6497.571
6496.772
6496.022
6495.322
6494.666
6494.108
6493.723
6493.562
6493.641
6493.933
6494.453
6495.049
6495.642
6496.134
6496.429
6496.439
6496.088
6495.311
6494.056
6492.295
6490.022
6487.252
6483.98
6480.269
6476.15
6471.713
6466.994
6462.06
6457.003
6451.883
6446.76
6441.68
6436.651
6431.719
6426.864
6422.038
6417.235
6412.491
6407.966
6403.594
6399.586
6395.985
6392.917
6389.939
6387.07
6384.448
6382.109
6380.103
6378.487
6377.319
6376.684
6376.63
6377.131
6378.193
6379.751
6382.019
6384.829
6388.012
6391
6393.889
6396.513
6398.87
6400.926
6402.644
6404.007
6404.999
6405.615
6405.883
6405.847
6405.691
6405.522
6405.682
6406.221
6407.546
6409.387
6412.736
4307.857
4255.375
4206.855
4159.779
4118.253
4071.065
4030.202
3989.666
3948.937
3907.774
3866.638
3825.456
3783.038
3740.805
3696.931
3648.034
3605.654
3564.738
3525.621
3488.711
3454.653
3424.101
3397.806
3376.684
3361.119
3352.601
3351.404
3361.475
3381.21
3410.361
3449.523
3501.264
3568.153
3651.97
3752.779
3870.192
4003.509
4151.833
4314.355
4489.899
4675.903
4870.096
5070.896
5276.442
5485.682
5694.284
5897.194
6088.121
6260.393
6407.919
6525.993
6611.384
6660.562
6674.355
6652.839
6596.063
6505.903
6385.469
6238.335
6069.299
5884.168
5689.243
5490.334
5291.636
5097.406
4910.189
4730.076
4557.281
4391.514
4231.866
4079.018
3934.73
3801.706
3682.171
3577.03
3485.594
3404.669
3331.715
3265.099
3203.109
3144.587
3089.184
3037.394
2990.567
2951.32
2920.023
2893.901
2872.81
2854.29
2835.255
2814.251
2791.413
2767.98
2745.287
2725.201
2712.481
2706.175
2701.366
2695.473
2685.954
2672.828
2656.825
2638.605
2621.174
2611.71
2607.93
2605.115
2601.72
2597.191
2590.964
2581.939
2569.613
2555.15
2541.202
2531.301
2528.788
2532.533
2536.605
2535.944
2529.09
2518.513
2507.286
2501.794
2504.264
2510.51
2514.834
2513.407
2505.943
2495.354
2484.468
2478.717
2482.534
2489.843
2493.721
2492.497
2486.679
2478.142
2468.143
2462.446
2470.159
2488.299
2499.461
2506.772
2514.863
2518.735
2517.791
2514.78
2521.266
2537.727
2561.404
2579.672
2594.963
2608.513
2619.515
2625.358
2629.367
2640.289
2666.289
2701.694
2736.626
2772.341
2817.694
2856.596
2892.424
2934.552
2986.053
3045.825
3111.57
3180.65
3252.663
3324.154
3390.265
3451.121
3504.702
3548.053
3582.668
3617.073
3657.908
3706.951
3763.034
3822.57
3882.63
3941.989
4001.396
4063.982
4132.64
4209.626
4294.493
4384.934
4478.729
4574.285
4670.336
4765.659
4859.139
4950.003
5037.756
5122.011
5202.469
5278.99
5351.561
5420.244
5485.154
5546.487
5604.6
5659.992
5713.236
5764.803
5814.948
5863.686
5910.838
5956.188
5999.579
6040.947
6080.323
6117.783
6153.429
6187.392
6219.794
6250.725
6280.24
6308.37
6335.124
6360.498
6384.472
6407.014
6428.076
6447.595
6465.498
6481.644
6495.957
6508.302
6518.489
6526.138
6530.802
6532.056
6529.261
6521.113
6506.433
6484.604
6454.101
6412.473
6356.907
6282.811
6186.962
6069.942
5918.069
5785.661
5679.483
5591.841
5538.428
5529.001
5573.731
5613.949
5593.236
5380.999
5196.77
5088.126
5135.941
5203.533
5268.814
5365.941
5488.562
5597.213
5682.081
5758.926
5826.292
5882.294
5928.67
5964.149
5988.382
6001.256
6002.653
6000.969
5994.36
5986.063
5929.947
5583.385
5548.226
5673.714
5944.266
6024.152
6047.716
6073.493
6102.8
6134.091
6164.89
6191.52
6213.377
6233.521
6248.746
6260.835
6271.757
6282.263
6292.076
6300.771
6310.616
6319.178
6326.159
6331.606
6335.723
6338.582
6340.583
6342.029
6342.885
6343.182
6343.779
6344.952
6347.037
6349.805
6349.551
6351.03
6357.609
6369.272
6382.197
6392.355
6401.989
6411.561
6420.973
6430.269
6439.153
6447.733
6455.978
6463.778
6471.05
6477.806
6484.125
6490.008
6495.356
6500.109
6504.266
6507.854
6510.859
6513.289
6515.209
6516.649
6517.648
6518.218
6518.371
6518.097
6517.372
6516.196
6514.574
6512.516
6510.059
6507.411
6504.636
6501.482
6498.332
6495.226
6492.109
6489.007
6486.015
6483.197
6480.565
6478.106
6475.822
6473.665
6471.627
6469.692
6467.833
6466.026
6464.243
6462.459
6460.665
6458.863
6457.068
6455.308
6453.619
6452.036
6450.599
6449.344
6448.298
6447.473
6446.871
6446.467
6446.233
6446.142
6446.14
6446.245
6446.406
6446.717
6447.184
6447.829
6448.678
6449.755
6451.091
6452.731
6454.727
6457.116
6459.896
6463.052
6466.502
6470.198
6473.999
6477.918
6481.719
6485.252
6488.424
6491.193
6493.707
6496.035
6497.932
6499.162
6499.814
6499.996
6499.741
6499.128
6498.258
6497.208
6496.15
6495.256
6494.456
6493.72
6493.115
6492.761
6492.693
6492.956
6493.528
6494.389
6495.389
6496.404
6497.308
6497.983
6498.327
6498.255
6497.692
6496.578
6494.883
6492.589
6489.711
6486.289
6482.385
6478.047
6473.341
6468.328
6463.105
6457.724
6452.264
6446.809
6441.439
6436.283
6431.326
6426.456
6421.557
6416.577
6411.469
6406.711
6401.934
6397.558
6393.607
6390.585
6387.915
6385.32
6382.666
6380.211
6378.111
6376.407
6375.151
6374.428
6374.301
6374.732
6375.71
6377.225
6379.219
6382.932
6387.618
6391.508
6394.828
6397.854
6400.569
6402.941
6404.959
6406.626
6407.95
6408.933
6409.604
6410.002
6410.298
6410.612
6411.235
6412.258
6413.891
6415.892
6418.944
4571.086
4546.505
4489.931
4422.84
4357.89
4300.732
4248.8
4201.342
4157.761
4114.503
4067.216
4027.011
3987.224
3947.227
3906.713
3865.681
3824.055
3781.61
3738.591
3695.87
3654.163
3612.124
3570.975
3531.067
3492.901
3456.982
3423.378
3392.722
3366.525
3345.84
3331.72
3325.879
3329.815
3344.329
3370.258
3408.378
3460.395
3527.591
3610.892
3710.448
3826.046
3957.103
4102.699
4261.606
4431.529
4610.615
4798.336
4993.863
5195.968
5400.909
5604.435
5801.115
5984.648
6148.387
6286.155
6392.99
6465.578
6501.928
6502.389
6469.216
6404.321
6309.266
6186.114
6037.401
5867.241
5681.86
5487.09
5289.425
5093.81
4904.846
4726.378
4557.97
4397.867
4244.212
4094.615
3950.052
3813.673
3687.984
3575.392
3478.459
3397.099
3326.248
3262.693
3205.352
3151.485
3098.967
3047.14
2996.669
2949.685
2911.816
2886.01
2866.023
2851.199
2839.276
2824.876
2805.385
2781.669
2756.337
2731.617
2710.136
2699.018
2698.195
2699.124
2695.985
2686.924
2672.961
2654.879
2633.482
2611.529
2598.97
2600.77
2602.409
2600.173
2596.47
2591.832
2583.52
2569.243
2550.648
2531.832
2519.257
2517.579
2529.056
2541.014
2543.532
2533.338
2517.975
2501.168
2490.418
2496.607
2511.615
2521.8
2521.347
2509.495
2493.715
2476.359
2464.163
2473.902
2488.88
2495.257
2492.729
2482.466
2468.249
2447.774
2431.754
2445.8
2467.93
2480.109
2486.459
2489.024
2485.978
2475.38
2457.062
2456.91
2482.232
2513.525
2535.197
2548.276
2565.684
2577.377
2581.216
2581.022
2590.684
2626.82
2669.082
2710.623
2750.147
2790.398
2834.031
2866.062
2903.638
2954.982
3015.553
3081.39
3149.213
3225.776
3304.4
3370.225
3433.821
3492.47
3536.279
3565.369
3596.691
3634.976
3681.456
3737.521
3798.095
3857.763
3912.934
3965.083
4019.901
4082.702
4159.649
4248.862
4345.27
4445.374
4547.386
4649.983
4751.621
4850.857
4946.829
5039.034
5126.982
5210.228
5288.616
5362.186
5431.115
5495.646
5556.145
5613.16
5667.442
5719.89
5771.092
5821.239
5870.369
5918.264
5964.586
6009.074
6051.609
6092.225
6130.983
6167.959
6203.252
6236.953
6269.133
6299.834
6329.078
6356.867
6383.184
6407.996
6431.26
6452.93
6472.956
6491.289
6507.853
6522.517
6535.146
6545.581
6553.541
6558.651
6560.291
6557.337
6548.948
6534.532
6512.532
6480.753
6436.153
6374.779
6289.271
6164.973
6031.598
5884.521
5724.852
5569.368
5429.31
5250.321
5095.308
5236.821
5438.257
5081.021
4185.466
3895.598
3771.654
3773.599
3830.236
3918.331
4262.587
4996.607
5439.99
5607.694
5734.76
5832.283
5900.048
5947.702
5982.744
6008.547
6020.417
6007.866
5993.99
5984.425
5982.31
5978.226
5977.815
5971.792
5974.776
5986.893
6009.024
6034.052
6063.827
6097.946
6134.212
6168.659
6198.249
6225.623
6251.716
6269.625
6283.333
6294.529
6303.84
6310.808
6318.117
6325.504
6331.236
6335.384
6338.436
6340.489
6341.295
6341.283
6341.727
6342.068
6339.486
6325.744
6325.515
6327.288
6339.437
6351.41
6356.139
6361.492
6370.679
6381.538
6391.604
6401.436
6411.333
6421.179
6430.891
6440.318
6449.413
6458.15
6466.552
6474.611
6482.247
6489.327
6495.822
6501.662
6506.782
6511.124
6514.667
6517.452
6519.523
6520.95
6521.834
6522.263
6522.282
6521.907
6521.121
6519.88
6518.175
6516.014
6513.37
6510.329
6507.321
6504.214
6500.606
6497.129
6493.904
6490.812
6487.776
6484.829
6482.047
6479.474
6477.126
6475.051
6472.937
6471.049
6469.27
6467.552
6465.862
6464.163
6462.431
6460.652
6458.823
6456.959
6455.103
6453.307
6451.615
6450.079
6448.746
6447.648
6446.804
6446.207
6445.828
6445.618
6445.517
6445.472
6445.451
6445.539
6445.697
6445.973
6446.411
6447.045
6447.898
6449.004
6450.427
6452.252
6454.549
6457.372
6460.642
6464.35
6468.514
6472.851
6477.287
6481.585
6485.507
6488.861
6491.525
6493.856
6495.862
6497.697
6499.709
6501.101
6501.251
6500.71
6499.789
6498.508
6496.695
6494.336
6492.432
6492.123
6492.532
6492.239
6491.805
6491.767
6492.204
6493.081
6494.326
6495.781
6497.275
6498.637
6499.721
6500.415
6500.617
6500.269
6499.331
6497.713
6495.386
6492.389
6488.786
6484.654
6480.072
6475.119
6469.846
6464.295
6458.533
6452.672
6446.777
6441.005
6435.634
6430.698
6425.964
6421.123
6416.049
6410.44
6404.618
6397.11
6388.41
6384.511
6385.678
6386.033
6383.563
6380.646
6378.039
6375.846
6374.057
6372.711
6371.88
6371.547
6371.161
6369.126
6366.589
6370.983
6380.415
6387.469
6391.924
6395.783
6399.293
6402.412
6405.126
6407.452
6409.419
6411.056
6412.376
6413.389
6414.123
6414.737
6415.386
6416.361
6417.814
6419.85
6422.272
6425.283
4548.584
4509.1
4431.033
4375.41
4322.128
4273.283
4228.108
4185.751
4145.309
4106.341
4068.66
4030.367
3991.776
3952.54
3912.667
3871.915
3830.248
3787.641
3744.104
3700.213
3657.444
3615.21
3573.554
3532.482
3491.91
3452.377
3414.909
3380.396
3350.189
3326.157
3309.601
3301.407
3302.822
3314.84
3338.656
3375.444
3426.532
3492.801
3574.828
3672.688
3786.204
3914.572
4056.396
4209.165
4371.48
4543.848
4726.663
4917.601
5114.108
5312.29
5507.349
5693.687
5865.13
6015.194
6137.837
6228.228
6283.35
6302.361
6286.793
6239.88
6164.99
6064.304
5939.029
5790.701
5622.084
5439.113
5247.197
5050.67
4856.953
4674.547
4507.88
4354.021
4208.225
4067.766
3931.505
3800.433
3674.731
3556.433
3449.928
3362.595
3294.859
3234.791
3181.337
3134.431
3089.587
3045.249
2999.505
2951.029
2904.291
2867.668
2843.539
2833.214
2830.099
2824.315
2815.303