/*--------------------------------*- C++ -*----------------------------------*\
| =========                 |                                                 |
| \\      /  F ield         | foam-extend: Open Source CFD                    |
|  \\    /   O peration     | Version:     3.1                                |
|   \\  /    A nd           | Web:         http://www.extend-project.de       |
|    \\/     M anipulation  |                                                 |
\*---------------------------------------------------------------------------*/
FoamFile
{
    version     2.0;
    format      ascii;
    class       surfaceScalarField;
    location    "19";
    object      phi;
}
// * * * * * * * * * * * * * * * * * * * * * * * * * * * * * * * * * * * * * //

dimensions      [0 3 -1 0 0 0 0];

internalField   nonuniform List<scalar> 
275122
(
-0.0004003111
0.0004057678
-4.012752e-07
-5.055459e-06
-0.000357885
0.0003410342
1.378667e-06
1.547211e-05
-0.0003543902
0.0003633376
-3.870491e-07
-8.560341e-06
-0.0003933276
0.0004036673
-4.761514e-07
-9.863488e-06
-0.0004293438
0.0004322408
-5.46692e-07
-2.350392e-06
-0.0004313079
0.0004303787
-4.926036e-07
1.421733e-06
-0.0004257891
0.0004240288
-4.527225e-07
2.213019e-06
-0.0004180382
0.0004157387
-4.664343e-07
2.765895e-06
-0.0004088903
0.0004065228
-4.49454e-07
2.816953e-06
-0.0003992476
0.0003967615
-4.145715e-07
2.900653e-06
-0.0003892582
0.0003866674
-3.359041e-07
2.926719e-06
-0.0003789726
0.0003763358
-3.000654e-07
2.936832e-06
-0.0003685328
0.0003658637
-2.73572e-07
2.942625e-06
-0.0003579843
0.0003552882
-2.445211e-07
2.940657e-06
-0.0003473445
0.0003446253
-2.17596e-07
2.936844e-06
-0.0003366282
0.0003338907
-1.924409e-07
2.92992e-06
-0.0003258567
0.0003231135
-1.673563e-07
2.910561e-06
-0.0003150724
0.0003123759
-1.498212e-07
2.846331e-06
-0.0003049329
0.0003027091
-2.032931e-07
2.427146e-06
-0.0002979421
0.0002979811
-5.744343e-07
5.353997e-07
-0.0003283983
0.0003407959
-1.203584e-06
-1.119407e-05
-0.0003422952
0.0003412836
-2.30247e-07
1.241872e-06
-0.0003419521
0.0003432645
-1.393518e-07
-1.172987e-06
-0.0003782577
0.0003909967
3.425723e-07
-1.308151e-05
-0.0003899833
0.0003880025
5.573365e-07
1.423546e-06
-0.0003867316
0.0003861913
-2.020456e-07
7.423762e-07
-0.0003836772
0.0003815841
-2.164508e-07
2.309587e-06
-0.0003747385
0.0003703471
-1.973808e-07
4.588752e-06
-0.0003457021
0.0003221699
-2.852631e-07
2.381755e-05
-0.0002361091
0.000242673
5.752816e-09
-6.56972e-06
-0.0002660811
0.000279717
-6.998955e-08
-1.356598e-05
-0.0003184191
0.000331274
8.499552e-09
-1.286338e-05
-0.0003705202
0.0003837848
9.363262e-09
-1.327392e-05
-0.0004240122
0.0004374878
1.034457e-08
-1.348596e-05
-0.0004786685
0.0004925651
1.04428e-08
-1.390704e-05
-0.0005348633
0.0005490687
1.052371e-08
-1.421595e-05
-0.0005922483
0.000606772
9.402409e-09
-1.453307e-05
-0.0006506509
0.0006653931
1.085646e-08
-1.475306e-05
-0.0007097293
0.0007245939
9.571585e-09
-1.48742e-05
-0.0007685301
0.000784636
2.32707e-07
-1.633863e-05
1.285406e-05
-0.0005334403
0.0005356461
8.953391e-10
-1.506075e-05
1.316931e-05
-0.0005420202
0.0005439546
-1.27011e-09
-1.510236e-05
1.341953e-05
-0.0005494288
0.0005511668
-1.481187e-09
-1.515603e-05
1.373912e-05
-0.0005560474
0.0005575583
-2.063859e-09
-1.524787e-05
1.413604e-05
-0.0005616877
0.0005629341
-1.918254e-09
-1.538051e-05
1.447592e-05
-0.0005663758
0.0005674104
-1.258203e-09
-1.550931e-05
1.47285e-05
-0.0005703625
0.0005712739
-1.14201e-09
-1.563877e-05
1.489477e-05
-0.0005738478
0.0005747039
-1.114883e-09
-1.574981e-05
1.539402e-05
-0.0005770383
0.0005767928
-6.238553e-10
-1.514787e-05
1.372349e-05
-0.002351
0.002360491
1.622552e-10
-6.473585e-05
1.395877e-05
1.36719e-05
1.389034e-05
1.459791e-05
-0.002367634
0.002373527
2.68501e-11
-6.533328e-05
1.515518e-05
1.456817e-05
1.51189e-05
1.500124e-05
-0.002378252
0.00238268
-2.925501e-11
-6.487955e-05
1.525557e-05
1.496846e-05
1.522655e-05
1.517746e-05
-0.002387235
0.002391615
-5.690408e-11
-6.529205e-05
1.530706e-05
1.514929e-05
1.527845e-05
1.524691e-05
-0.00239623
0.002400577
-2.365396e-10
-6.568647e-05
1.544546e-05
1.522341e-05
1.542454e-05
1.547421e-05
-0.002404724
0.002408686
-1.986407e-10
-6.605474e-05
1.559772e-05
1.54486e-05
1.557207e-05
1.557117e-05
-0.002412637
0.002416255
-2.518104e-10
-6.598754e-05
1.563657e-05
1.554794e-05
1.561376e-05
1.556483e-05
-0.002419912
0.002423311
-2.386106e-10
-6.558263e-05
1.554928e-05
1.553788e-05
1.553262e-05
1.548262e-05
-0.002427188
0.002430801
-1.155246e-10
-6.546041e-05
1.547032e-05
1.545275e-05
1.544133e-05
1.493028e-05
-0.002430509
0.002434341
-4.883616e-11
-6.373669e-05
1.504287e-05
1.490095e-05
1.503014e-05
1.565443e-05
-0.002438375
0.002441012
-5.526253e-11
-6.549821e-05
1.578571e-05
1.564626e-05
1.577482e-05
1.561629e-05
-0.002442983
0.002444692
-4.025993e-11
-6.391339e-05
1.549249e-05
1.560923e-05
1.548634e-05
1.549349e-05
-0.002446548
0.002448448
-4.185855e-11
-6.366113e-05
1.539404e-05
1.548555e-05
1.538815e-05
1.545411e-05
-0.002450332
0.002452006
-4.451143e-11
-6.333285e-05
1.538177e-05
1.544505e-05
1.537788e-05
1.54097e-05
-0.002453626
0.002455027
-3.372945e-11
-6.287926e-05
1.534307e-05
1.538999e-05
1.533643e-05
1.537751e-05
-0.002456322
0.002457336
-1.380832e-11
-6.231378e-05
1.530464e-05
1.532763e-05
1.52902e-05
1.552441e-05
-0.002458314
0.002458845
1.89798e-11
-6.214547e-05
1.547529e-05
1.530196e-05
1.531343e-05
1.668669e-05
-0.002458893
0.002456657
4.251507e-11
-6.310696e-05
1.693167e-05
1.573017e-05
1.599387e-05
2.121627e-05
-0.002449758
0.002433519
4.914795e-10
-6.39032e-05
2.25483e-05
1.851426e-05
1.78635e-05
2.585281e-05
-0.002413031
0.00243455
2.702278e-10
-4.737155e-05
1.809652e-05
-0.002453956
0.002455947
3.926973e-10
-2.008705e-05
3.858826e-05
-0.002447884
0.002442819
1.075636e-09
-3.35246e-05
3.216873e-05
-0.002439444
0.002436538
4.682504e-10
-2.926306e-05
1.59493e-05
-0.002433005
0.002433302
1.824692e-10
-1.624731e-05
9.28393e-07
-0.002436315
0.002438896
8.959816e-11
-3.50932e-06
-5.244362e-06
-0.002440636
0.002441678
5.571751e-11
4.201965e-06
-8.447164e-06
-0.002442401
0.002442426
3.637192e-11
8.422301e-06
-1.089158e-05
-0.002442023
0.002441095
9.50013e-12
1.181954e-05
-1.27133e-05
-0.002439806
0.002438127
-5.700268e-12
1.439304e-05
-1.397243e-05
-0.002436202
0.002434034
-1.996976e-11
1.613991e-05
-1.480871e-05
-0.002431711
0.002429253
-1.108235e-11
1.726706e-05
-1.544647e-05
-0.002426669
0.002424006
-1.201566e-11
1.810967e-05
-1.605489e-05
-0.002421208
0.002418323
-7.362424e-12
1.893938e-05
-1.668309e-05
-0.002415258
0.002412092
-2.498658e-12
1.984835e-05
-1.727506e-05
-0.002408692
0.002405203
2.041742e-12
2.076468e-05
-1.763051e-05
-0.002401457
0.002397667
1.022196e-11
2.142063e-05
-1.730303e-05
-0.002393656
0.002389676
1.994138e-11
2.128335e-05
-1.522943e-05
-0.002385341
0.002380776
2.729651e-11
1.979486e-05
-1.112381e-05
-0.002376158
0.002370799
3.167924e-11
1.648227e-05
-2.278636e-06
-0.002359813
0.002350459
3.534019e-11
1.163231e-05
-9.239993e-06
-0.002346076
0.002343108
4.040986e-11
1.220778e-05
2.827814e-06
-0.002338269
0.002328247
4.24388e-11
7.194647e-06
2.242362e-05
-0.002306463
0.002285383
3.71521e-11
-1.344221e-06
-3.764213e-06
-0.002272137
0.002264039
2.212952e-11
1.186216e-05
-1.943492e-05
-0.002257146
0.002247604
4.397847e-12
2.897654e-05
-3.087592e-05
-0.002236805
0.002226609
-1.612012e-11
4.107127e-05
-5.047848e-05
-0.002218056
0.002212222
-3.446973e-11
5.631232e-05
-9.209423e-05
-0.002207113
0.002220309
-4.442395e-11
7.889835e-05
-2.044057e-05
-0.002239631
0.002231806
-4.311817e-11
7.781112e-05
-1.477481e-05
-2.030545e-05
-1.446562e-05
-1.054831e-05
-0.002214829
0.002205179
-3.768902e-11
5.174464e-05
-1.098737e-05
-1.010836e-05
-1.04505e-05
-9.892588e-06
-0.002197007
0.002186418
-2.76771e-11
4.87115e-05
-9.555061e-06
-9.499159e-06
-9.175947e-06
-8.557142e-06
-0.002174101
0.002161624
-1.443381e-11
4.565696e-05
-8.367131e-06
-8.215367e-06
-8.040941e-06
-8.197526e-06
-0.002149423
0.002137403
-1.75557e-12
4.420477e-05
-8.189468e-06
-7.899609e-06
-7.898407e-06
-8.102527e-06
-0.002125389
0.002113197
1.132097e-11
4.403515e-05
-8.075419e-06
-7.8426e-06
-7.82237e-06
-7.997753e-06
-0.002100816
0.002088243
2.037535e-11
4.407111e-05
-7.974408e-06
-7.770665e-06
-7.754673e-06
-7.963503e-06
-0.002075517
0.00206259
2.574146e-11
4.438481e-05
-7.959253e-06
-7.766736e-06
-7.768267e-06
-7.981384e-06
-0.002049462
0.002036086
2.810384e-11
4.497012e-05
-7.983053e-06
-7.811457e-06
-7.817853e-06
-8.03061e-06
-0.002022476
0.002008602
2.830106e-11
4.572025e-05
-8.038429e-06
-7.882925e-06
-7.894539e-06
-8.102944e-06
-0.001994491
0.001980125
2.757492e-11
4.654439e-05
-8.115257e-06
-7.97266e-06
-7.987555e-06
-8.187492e-06
-0.001965534
0.001950717
2.682659e-11
4.736133e-05
-8.201802e-06
-8.069466e-06
-8.085303e-06
-8.270559e-06
-0.001935702
0.001920508
2.593216e-11
4.808392e-05
-8.2851e-06
-8.159927e-06
-8.17496e-06
-8.342919e-06
-0.001905155
0.00188968
2.497655e-11
4.866089e-05
-8.355838e-06
-8.236944e-06
-8.249693e-06
-8.395038e-06
-0.001874089
0.001858437
2.365972e-11
4.904577e-05
-8.404531e-06
-8.292487e-06
-8.301834e-06
-8.417545e-06
-0.001842719
0.001826999
2.119931e-11
4.920095e-05
-8.420979e-06
-8.319535e-06
-8.323615e-06
-8.394526e-06
-0.001811263
0.001795584
1.759066e-11
4.907152e-05
-8.388048e-06
-8.307094e-06
-8.303244e-06
-8.304532e-06
-0.001779932
0.001764385
1.277579e-11
4.859584e-05
-8.282719e-06
-8.239057e-06
-8.222772e-06
-8.123631e-06
-0.001748894
0.001733534
7.856851e-12
4.771673e-05
-8.081722e-06
-8.092591e-06
-8.05921e-06
-7.838023e-06
-0.001718236
0.001703073
4.781619e-12
4.641861e-05
-7.77512e-06
-7.848101e-06
-7.794608e-06
-7.459352e-06
-0.001687958
0.001672972
5.007308e-12
4.476446e-05
-7.381506e-06
-7.504068e-06
-7.433136e-06
-7.032072e-06
-0.001658018
0.001643188
9.567621e-12
4.291919e-05
-6.951458e-06
-7.09205e-06
-7.013389e-06
-6.624346e-06
-0.001628385
0.001613714
1.873789e-11
4.113008e-05
-6.555777e-06
-6.675057e-06
-6.603247e-06
-6.308645e-06
-0.001599079
0.001584594
3.037015e-11
3.966577e-05
-6.265314e-06
-6.328762e-06
-6.277872e-06
-6.144604e-06
-0.00157017
0.001555918
4.134597e-11
3.874714e-05
-6.136034e-06
-6.117333e-06
-6.097168e-06
-6.17041e-06
0.001527792
4.89429e-11
3.852351e-05
-6.204427e-06
-6.083609e-06
-6.100746e-06
-0.001541757
-6.397231e-06
-0.001513964
0.001500369
5.390947e-11
3.90212e-05
-6.473632e-06
-6.249352e-06
-6.305692e-06
-6.77686e-06
-0.001486973
0.001473851
5.213921e-11
4.00952e-05
-6.873167e-06
-6.615448e-06
-6.70757e-06
-7.145306e-06
-0.001460974
0.001448333
4.026171e-11
4.12964e-05
-7.199876e-06
-7.103425e-06
-7.206651e-06
-7.210994e-06
-0.001435842
0.001423345
1.94174e-11
4.174785e-05
-7.156249e-06
-7.430952e-06
-7.452057e-06
-6.733371e-06
-0.001410617
0.001397462
1.254289e-12
4.05459e-05
-6.575289e-06
-7.117963e-06
-6.964297e-06
-5.880469e-06
-0.001383712
0.001369344
6.274776e-13
3.803639e-05
-5.704235e-06
-6.155392e-06
-5.928181e-06
-5.074736e-06
-0.001354377
0.00133902
2.091561e-11
3.556869e-05
-4.951872e-06
-5.171053e-06
-5.013846e-06
-4.531611e-06
-0.001323376
0.001307663
4.515785e-11
3.372265e-05
-4.463835e-06
-4.545689e-06
-4.468646e-06
-4.197919e-06
-0.001291946
0.001276386
6.359059e-11
3.227839e-05
-4.160511e-06
-4.198821e-06
-4.161224e-06
-3.985903e-06
-0.001261026
0.001245967
6.787092e-11
3.097241e-05
-3.972427e-06
-3.985335e-06
-3.969804e-06
-3.838862e-06
-0.001231289
0.001217055
5.914183e-11
2.955007e-05
-3.82671e-06
-3.831215e-06
-3.819104e-06
-3.65828e-06
-0.001203308
0.001190084
3.865709e-11
2.778039e-05
-3.635943e-06
-3.642862e-06
-3.619964e-06
-3.439752e-06
-0.001177425
0.00116543
1.039354e-11
2.565978e-05
-3.414849e-06
-3.419914e-06
-3.390405e-06
-3.164479e-06
-0.001154091
0.001143486
-2.082266e-11
2.315564e-05
-3.120587e-06
-3.149749e-06
-3.115929e-06
-2.76397e-06
-0.001133556
0.001124385
-5.813248e-11
2.021558e-05
-2.679686e-06
-2.833098e-06
-2.767484e-06
-2.210501e-06
-0.001115776
0.00110786
-7.933937e-11
1.672752e-05
-2.120825e-06
-2.297013e-06
-2.183387e-06
-1.669785e-06
-0.00110049
0.001093947
-8.491056e-11
1.308184e-05
-1.590594e-06
-1.68417e-06
-1.594865e-06
-1.1629e-06
-0.001088017
0.001082994
-8.220528e-11
9.514522e-06
-1.093331e-06
-1.15318e-06
-1.082176e-06
-7.185446e-07
-0.001078591
0.001075115
-7.669505e-11
6.213898e-06
-6.600108e-07
-7.088745e-07
-6.499029e-07
-3.338577e-07
-0.001072222
0.001070228
-6.854548e-11
3.218708e-06
-2.868847e-07
-3.245352e-07
-2.801654e-07
-1.203757e-08
-0.001068798
0.001068188
-5.64334e-11
5.712634e-07
2.693165e-08
-7.087831e-09
3.126197e-08
2.525732e-07
-0.001068067
0.001068731
-4.76893e-11
-1.776001e-06
2.996508e-07
2.562653e-07
3.031584e-07
5.159615e-07
-0.001069851
0.00107172
-4.400046e-11
-4.12406e-06
6.084235e-07
5.191094e-07
6.118177e-07
8.225469e-07
-0.001073661
0.001076291
-4.35299e-11
-6.400563e-06
1.060672e-06
8.254792e-07
1.061779e-06
1.03102e-06
-0.001079983
0.001083736
-4.32455e-11
-8.01692e-06
1.091879e-06
1.039543e-06
1.102034e-06
1.054705e-06
-0.001088107
0.001093219
-4.139389e-11
-9.371187e-06
1.068483e-06
1.061612e-06
1.074462e-06
1.275853e-06
-0.001098572
0.00110461
-4.075825e-11
-1.118985e-05
1.296069e-06
1.280311e-06
1.300081e-06
1.466828e-06
-0.001110982
0.001117987
-4.106412e-11
-1.293937e-05
1.497223e-06
1.470516e-06
1.50067e-06
1.677784e-06
-0.001125311
0.001133301
-4.172437e-11
-1.476903e-05
1.708603e-06
1.680638e-06
1.711454e-06
1.901727e-06
-0.001141612
0.001150626
-3.988411e-11
-1.669201e-05
1.93423e-06
1.904408e-06
1.93679e-06
2.137535e-06
-0.001159979
0.001170075
-3.517942e-11
-1.871476e-05
2.170265e-06
2.139578e-06
2.172097e-06
2.391291e-06
-0.001180525
0.001191787
-2.850608e-11
-2.089845e-05
2.425236e-06
2.392821e-06
2.426892e-06
2.669263e-06
-0.001203418
0.001215898
-1.970596e-11
-2.322872e-05
2.706313e-06
2.667727e-06
2.705417e-06
2.959625e-06
-0.00122875
0.001242527
-9.271326e-12
-2.568624e-05
2.993996e-06
2.959096e-06
2.995856e-06
3.26006e-06
-0.001256697
0.001271873
1.553805e-12
-2.829687e-05
3.299588e-06
3.261895e-06
3.299068e-06
3.58117e-06
-0.00128751
0.001304281
1.083017e-11
-3.117054e-05
3.620691e-06
3.579965e-06
3.617602e-06
3.942958e-06
-0.00132155
0.001340038
1.967438e-11
-3.434097e-05
3.984903e-06
3.941123e-06
3.983239e-06
4.327793e-06
-0.001359061
0.001379347
2.750122e-11
-3.767513e-05
4.368028e-06
4.326355e-06
4.366436e-06
4.722404e-06
-0.0014002
0.001422351
3.340416e-11
-4.111851e-05
4.763315e-06
4.72052e-06
4.761345e-06
5.155381e-06
-0.00144515
0.001469275
3.624106e-11
-4.483682e-05
5.202883e-06
5.153123e-06
5.200593e-06
5.592762e-06
-0.001494129
0.001520156
3.593768e-11
-4.846684e-05
5.629757e-06
5.5903e-06
5.62731e-06
5.91192e-06
-0.001546872
0.001574471
3.204921e-11
-5.127018e-05
5.926022e-06
5.90936e-06
5.923499e-06
6.059489e-06
-0.001602602
0.001631298
2.468246e-11
-5.29107e-05
6.05039e-06
6.056861e-06
6.047787e-06
6.031397e-06
-0.001660318
0.00168964
1.488435e-11
-5.338688e-05
6.004094e-06
6.028711e-06
6.001455e-06
5.833551e-06
-0.001719073
0.00174853
3.081039e-12
-5.269597e-05
5.788461e-06
5.830906e-06
5.785886e-06
5.483198e-06
-0.001777899
0.001806864
-8.901836e-12
-5.079662e-05
5.435316e-06
5.480839e-06
5.433025e-06
4.974294e-06
-0.001835569
0.00186329
-1.925744e-11
-4.748957e-05
4.912111e-06
4.972701e-06
4.910237e-06
4.279654e-06
-0.0018904
0.001915665
-2.743558e-11
-4.217232e-05
4.176062e-06
4.277831e-06
4.174767e-06
3.345305e-06
-0.001939877
0.001961935
-3.196292e-11
-3.516693e-05
3.211569e-06
3.341423e-06
3.210838e-06
2.204948e-06
0.002002002
-3.630338e-11
-2.766524e-05
-0.001982845
2.051335e-06
2.201125e-06
2.050969e-06
1.249711e-06
-0.002019991
0.00203628
-3.800848e-11
-2.106752e-05
1.140158e-06
1.249471e-06
1.13951e-06
4.421939e-07
-0.002051559
0.002065288
-3.604213e-11
-1.529862e-05
3.429849e-07
4.419017e-07
3.423976e-07
-3.376627e-07
-0.002077982
0.002089313
-2.781725e-11
-9.778151e-06
-4.38255e-07
-3.379403e-07
-4.390924e-07
-1.138499e-06
-0.002099729
0.002108386
-2.549305e-11
-3.918549e-06
-1.228715e-06
-1.140817e-06
-1.230281e-06
-1.936166e-06
-0.002115782
0.002121223
-3.058707e-11
2.553929e-06
-2.067033e-06
-1.927929e-06
-2.063929e-06
-2.967597e-06
-0.00212548
0.002127422
-1.654127e-11
1.019393e-05
-3.098546e-06
-2.96919e-06
-3.100642e-06
-4.026057e-06
-0.002127936
0.002126166
-8.963745e-12
1.815588e-05
-4.166441e-06
-4.026645e-06
-4.167069e-06
-5.025923e-06
-0.002122989
0.002117775
1.69305e-12
2.558975e-05
-5.162081e-06
-5.025588e-06
-5.161773e-06
-5.908021e-06
-0.002111298
0.00210311
1.761843e-11
3.20685e-05
-6.033031e-06
-5.907135e-06
-6.032324e-06
-6.648527e-06
-0.002093824
0.002083122
3.280606e-11
3.75102e-05
-6.756638e-06
-6.647324e-06
-6.755769e-06
-7.204086e-06
-0.002071456
0.00205863
4.550723e-11
4.179244e-05
-7.280558e-06
-7.202502e-06
-7.279564e-06
-7.473845e-06
-0.002044963
0.002030409
5.418713e-11
4.44905e-05
-7.496166e-06
-7.471841e-06
-7.495047e-06
-7.354603e-06
-0.002015183
0.001999448
5.99628e-11
4.505971e-05
-7.309349e-06
-7.352278e-06
-7.308594e-06
-6.84682e-06
-0.001983331
0.001967224
6.218697e-11
4.328622e-05
-6.744278e-06
-6.843569e-06
-6.7449e-06
-6.078217e-06
-0.001951139
0.001935619
5.879009e-11
3.956971e-05
-5.948141e-06
-6.074305e-06
-5.948923e-06
-5.213028e-06
-0.001920523
0.00190641
5.622805e-11
3.470478e-05
-5.084486e-06
-5.210676e-06
-5.083978e-06
-4.387091e-06
-0.001892968
0.001880728
4.501902e-11
2.956204e-05
-4.274641e-06
-4.384876e-06
-4.274884e-06
-3.654006e-06
-0.001869295
0.001859171
4.583672e-11
2.454524e-05
-3.560797e-06
-3.647499e-06
-3.558985e-06
-3.099895e-06
-0.001849859
0.001841921
3.050152e-11
2.022413e-05
-3.056923e-06
-3.0859e-06
-3.043213e-06
-2.772012e-06
-0.001834963
0.001829223
6.219577e-11
1.677603e-05
-2.786161e-06
-2.735558e-06
-2.741649e-06
-3.11546e-06
-0.001823848
0.001818845
5.979135e-11
1.754788e-05
-3.27252e-06
-3.008866e-06
-3.147755e-06
-3.991048e-06
-0.001814322
0.00181071
1.757071e-10
1.966231e-05
-4.358572e-06
-3.706656e-06
-3.9943e-06
-7.378225e-06
-0.001808615
0.001808756
1.147924e-10
3.041299e-05
-8.183266e-06
-7.026608e-06
-7.965671e-06
-7.083481e-06
-0.001809496
0.001804565
-7.595485e-11
3.084569e-05
-5.606011e-06
-7.314224e-06
-5.910356e-06
-2.401645e-06
-0.0004474887
0.0004430586
1.223828e-08
6.819552e-06
-5.888574e-06
-0.0004372807
0.0004346274
9.140099e-09
8.532764e-06
-6.013551e-06
-0.0004256834
0.0004224536
9.743086e-09
9.233583e-06
-6.073091e-06
-0.0004119209
0.0004081194
-1.385556e-08
9.888455e-06
-5.235051e-06
-0.0003957795
0.000391314
-2.4065e-08
9.724633e-06
-4.603388e-06
-0.0003772172
0.0003723672
-1.958941e-08
9.473014e-06
-4.426396e-06
-0.000358082
0.0003535435
-1.086246e-08
8.975719e-06
-4.137776e-06
-0.0003409892
0.0003371963
-4.07805e-09
7.934734e-06
-3.618225e-06
-0.0003269929
0.0003240362
-1.191549e-09
6.576062e-06
-2.920452e-06
-0.0003163806
0.0003142881
-7.644821e-10
5.013735e-06
-2.083349e-06
-0.0003091844
0.0003079014
-8.708754e-10
3.367212e-06
-1.467171e-06
-0.0003049082
0.0003041719
-6.771798e-10
2.2042e-06
-1.236007e-06
-0.0003024689
0.0003020766
-4.426864e-10
1.628788e-06
-1.09491e-06
-0.0003011999
0.0003010218
-2.522756e-10
1.273288e-06
-9.293431e-07
-0.0003007668
0.0003008095
-1.105258e-10
8.86777e-07
-7.16631e-07
-0.000301293
0.0003016043
-7.042961e-13
4.053327e-07
-4.91628e-07
-0.0003029366
0.000303529
8.16005e-11
-1.008659e-07
-2.895765e-07
-0.0003056917
0.0003065555
1.482093e-10
-5.744092e-07
-1.308342e-07
-0.0003094761
0.0003105683
2.258811e-10
-9.615598e-07
5.437455e-09
-0.0003140903
0.0003153305
-1.727319e-10
-1.245529e-06
-3.360029e-08
-0.0003192346
0.0003205768
3.309887e-10
-1.308893e-06
-2.229899e-07
-0.0003247224
0.0003261136
3.640932e-10
-1.168574e-06
-3.7734e-07
-0.0003302588
0.0003316178
3.950645e-10
-9.819771e-07
-5.547373e-07
-0.0003356085
0.0003368967
4.328705e-10
-7.339547e-07
-7.609177e-07
-0.0003406362
0.0003418254
4.932446e-10
-4.288021e-07
-9.976519e-07
-0.0003452213
0.0003462802
5.718109e-10
-6.186212e-08
-1.260132e-06
-0.0003492023
0.0003500751
7.891749e-10
3.865766e-07
-1.45847e-06
-0.0003524379
0.0003530286
1.378068e-09
8.66398e-07
-1.959174e-06
-0.0003544648
0.0003547689
3.192736e-09
1.651935e-06
-2.496747e-06
-0.00035529
0.0003552343
4.138744e-09
2.548262e-06
-2.926449e-06
-0.0003545846
0.0003541059
3.663004e-09
3.401438e-06
-3.210034e-06
-0.0003521382
0.0003512064
2.002007e-09
4.139747e-06
-3.436434e-06
-0.000347992
0.0003466895
-4.272164e-10
4.739371e-06
-3.43776e-06
-0.000342541
0.0003409464
-2.868982e-09
5.035289e-06
-3.124143e-06
-0.0003362602
0.0003346147
-3.648586e-09
4.773258e-06
-1.382697e-06
-0.0003297576
0.0003275513
-2.733505e-09
3.591749e-06
-2.835372e-07
-0.0003214836
0.0003196537
-1.677737e-09
2.115065e-06
3.175362e-07
-0.000313996
0.0003121705
-1.018758e-09
1.509047e-06
5.333468e-07
-0.0003069431
0.0003052976
-7.275504e-10
1.112895e-06
6.509293e-07
-0.0003006163
0.0002991492
-5.387763e-10
8.167077e-07
7.264188e-07
-0.0002949913
0.0002936941
-4.163501e-10
5.711913e-07
7.905963e-07
-0.0002900418
0.0002889106
-3.392614e-10
3.409035e-07
8.588207e-07
-0.0002857485
0.0002847774
-3.256352e-10
1.126839e-07
9.385395e-07
-0.000282079
0.0002812641
-3.634455e-10
-1.232936e-07
1.022419e-06
-0.0002790315
0.0002783671
-4.104758e-10
-3.575895e-07
1.10339e-06
-0.0002765662
0.000276035
-4.043367e-10
-5.718286e-07
1.164918e-06
-0.0002746329
0.0002742599
-3.709349e-10
-7.915469e-07
1.291738e-06
-0.0002732843
0.0002730169
-3.278887e-10
-1.023965e-06
1.36136e-06
-0.0002723837
0.0002722382
-2.613379e-10
-1.215609e-06
1.433765e-06
-0.0002719659
0.0002719316
-2.161068e-10
-1.399274e-06
1.518075e-06
-0.0002719668
0.0002720294
-1.837124e-10
-1.580518e-06
1.604098e-06
-0.0002723431
0.0002724936
-1.52991e-10
-1.754435e-06
1.687268e-06
-0.000273058
0.0002732883
-1.280199e-10
-1.917429e-06
1.767663e-06
-0.0002740834
0.0002743875
-1.019191e-10
-2.071727e-06
1.843358e-06
-0.0002753934
0.0002757638
-6.831599e-11
-2.213678e-06
1.914588e-06
-0.0002769578
0.0002773874
-3.67059e-11
-2.344095e-06
1.981322e-06
-0.0002787493
0.0002792314
-6.467151e-12
-2.463421e-06
2.043413e-06
-0.0002807418
0.0002812702
2.683007e-11
-2.571833e-06
2.100635e-06
-0.0002829108
0.0002834794
6.141531e-11
-2.669283e-06
2.152309e-06
-0.000285232
0.0002858346
9.216573e-11
-2.755005e-06
2.197497e-06
-0.0002876804
0.0002883107
1.003891e-10
-2.827858e-06
2.235575e-06
-0.0002902305
0.0002908817
1.099322e-10
-2.886918e-06
2.265179e-06
-0.0002928553
0.0002935208
1.270286e-10
-2.930798e-06
2.284557e-06
-0.0002955281
0.0002962014
1.31748e-10
-2.957958e-06
2.291332e-06
-0.0002982215
0.0002988963
1.359766e-10
-2.966214e-06
2.28193e-06
-0.0003009059
0.0003015762
1.390142e-10
-2.952414e-06
2.25925e-06
-0.0003035509
0.0003042054
1.444616e-10
-2.913918e-06
2.21811e-06
-0.0003061208
0.0003067493
1.633454e-10
-2.846819e-06
2.194053e-06
-0.0003085608
0.0003091246
2.035396e-10
-2.758072e-06
2.025218e-06
-0.0003109578
0.000311522
3.448062e-10
-2.589751e-06
2.673282e-06
-0.000310798
0.0012736
1.002328e-11
-1.158363e-05
4.786858e-07
2.677135e-06
4.603008e-07
-0.0003108037
-0.0003233511
-0.0003233532
1.127831e-06
-0.001282074
0.001286691
1.077598e-11
-1.009233e-05
1.632786e-06
1.103839e-06
1.610759e-06
1.262474e-06
-0.001290138
0.001293255
8.651706e-12
-8.312962e-06
1.35315e-06
1.244084e-06
1.335878e-06
1.145721e-06
-0.001296843
0.001300272
7.617015e-12
-8.071561e-06
1.19172e-06
1.129113e-06
1.175386e-06
1.100817e-06
-0.001303513
0.001306073
6.76329e-12
-7.057792e-06
1.163776e-06
1.085224e-06
1.147958e-06
1.038071e-06
-0.001308263
0.001310047
6.792142e-12
-5.957266e-06
1.063811e-06
1.022771e-06
1.048495e-06
9.189323e-07
-0.001311714
0.001313069
7.277539e-12
-5.00511e-06
9.205691e-07
9.053702e-07
9.054886e-07
8.336224e-07
-0.001314214
0.001314941
6.583168e-12
-4.047977e-06
8.399061e-07
8.202975e-07
8.270364e-07
7.970134e-07
-0.001315373
0.001315398
4.526467e-12
-3.200843e-06
8.033029e-07
7.844232e-07
7.912014e-07
7.661225e-07
-0.001315163
0.001314568
5.605661e-12
-2.460119e-06
7.719743e-07
7.554432e-07
7.614733e-07
7.575405e-07
-0.001313717
0.00131253
6.564891e-12
-1.838129e-06
7.635046e-07
7.488324e-07
7.552646e-07
7.62382e-07
-0.001311099
0.00130937
5.870567e-12
-1.317688e-06
7.68043e-07
7.551847e-07
7.611354e-07
7.767701e-07
-0.001307416
0.001305197
6.447963e-12
-8.880642e-07
7.829282e-07
7.705352e-07
7.768575e-07
8.033961e-07
-0.001302773
0.001300137
9.0928e-12
-5.81e-07
8.104801e-07
7.978235e-07
8.050182e-07
8.386257e-07
-0.001297339
0.001294382
8.794077e-12
-4.026534e-07
8.463533e-07
8.336347e-07
8.414037e-07
8.762436e-07
-0.001291303
0.001288122
1.974963e-11
-3.305361e-07
8.841959e-07
8.717302e-07
8.795686e-07
9.006119e-07
-0.001284878
0.001281617
1.762184e-11
-3.437477e-07
9.055493e-07
8.970258e-07
9.013154e-07
9.587734e-07
-0.001278292
0.001274949
1.376854e-11
-5.004062e-07
9.66824e-07
9.546165e-07
9.628441e-07
1.014767e-06
-0.00127161
0.001268316
1.368346e-11
-7.693809e-07
1.020448e-06
1.011208e-06
1.016961e-06
1.071519e-06
-0.001265068
0.001261906
9.046381e-12
-1.129631e-06
1.077606e-06
1.06818e-06
1.074326e-06
1.132688e-06
-0.001258822
0.001255861
1.637748e-12
-1.576778e-06
1.13932e-06
1.12956e-06
1.136239e-06
1.198427e-06
-0.001253006
0.001250307
-5.916804e-12
-2.103518e-06
1.205635e-06
1.195628e-06
1.202926e-06
1.267542e-06
-0.001247741
0.001245359
-1.413631e-11
-2.698506e-06
1.275002e-06
1.265113e-06
1.272682e-06
1.341973e-06
-0.00124313
0.001241114
-2.19694e-11
-3.363695e-06
1.350083e-06
1.339847e-06
1.348066e-06
1.416259e-06
-0.001239255
0.001237617
-2.696916e-11
-4.038867e-06
1.424502e-06
1.414219e-06
1.42246e-06
1.485535e-06
-0.00123614
0.001234893
-2.864061e-11
-4.703752e-06
1.491893e-06
1.4837e-06
1.490069e-06
1.558722e-06
-0.001233783
0.001232892
-2.686164e-11
-5.356662e-06
1.566871e-06
1.556894e-06
1.565123e-06
1.621952e-06
-0.001232149
0.001231617
-2.356977e-11
-5.968525e-06
1.629805e-06
1.620307e-06
1.628218e-06
1.680263e-06
-0.001231218
0.001231016
-1.885276e-11
-6.53161e-06
1.687731e-06
1.678781e-06
1.68631e-06
1.732895e-06
-0.001230939
0.001231054
-1.375317e-11
-7.057162e-06
1.740052e-06
1.73143e-06
1.738522e-06
1.780577e-06
-0.001231285
0.001231696
-8.553713e-12
-7.54237e-06
1.786549e-06
1.779285e-06
1.785302e-06
1.824118e-06
-0.001232213
0.001232894
-3.815113e-12
-7.986394e-06
1.830045e-06
1.822912e-06
1.828867e-06
1.865206e-06
-0.001233669
0.00123459
6.383849e-13
-8.391096e-06
1.870974e-06
1.864039e-06
1.869829e-06
1.903029e-06
-0.001235594
0.001236725
4.723788e-12
-8.752705e-06
1.908525e-06
1.901888e-06
1.907391e-06
1.936231e-06
-0.001237929
0.001239245
8.125563e-12
-9.068481e-06
1.941086e-06
1.935071e-06
1.939938e-06
1.962984e-06
-0.001240624
0.001242103
1.074606e-11
-9.336248e-06
1.96698e-06
1.961772e-06
1.965783e-06
1.983055e-06
-0.001243636
0.001245254
1.27753e-11
-9.554244e-06
1.986225e-06
1.981828e-06
1.984993e-06
1.996487e-06
-0.001246917
0.00124865
1.414303e-11
-9.721399e-06
1.9989e-06
1.995289e-06
1.997716e-06
2.003075e-06
-0.00125042
0.001252242
1.493887e-11
-9.836256e-06
2.004798e-06
2.001953e-06
2.003701e-06
2.002662e-06
-0.001254092
0.001255979
1.540359e-11
-9.897312e-06
2.003649e-06
2.001549e-06
2.002603e-06
1.994923e-06
-0.001257885
0.001259809
1.563855e-11
-9.90206e-06
1.995245e-06
1.993785e-06
1.994074e-06
1.979313e-06
-0.001261741
0.001263674
1.581221e-11
-9.847669e-06
1.979392e-06
1.978159e-06
1.978177e-06
1.95508e-06
-0.001265601
0.001267506
1.582006e-11
-9.723417e-06
1.95507e-06
1.953954e-06
1.953963e-06
1.915921e-06
-0.001269382
0.001271223
1.548722e-11
-9.498581e-06
1.913838e-06
1.914884e-06
1.912833e-06
1.828749e-06
-0.001273031
0.001274867
1.482145e-11
-9.114704e-06
1.811597e-06
1.827727e-06
1.810612e-06
1.653194e-06
-0.001276799
0.001278879
1.392363e-11
-8.58349e-06
1.599678e-06
1.652172e-06
1.598625e-06
1.45374e-06
-0.00128102
0.001283153
1.342041e-11
-7.897072e-06
1.429274e-06
1.452887e-06
1.428424e-06
1.410923e-06
-0.001285245
0.001287322
1.326937e-11
-7.730411e-06
1.416511e-06
1.410146e-06
1.41576e-06
1.412883e-06
-0.001289391
0.001291481
1.278757e-11
-7.7486e-06
1.416912e-06
1.412079e-06
1.416152e-06
1.412191e-06
-0.001293563
0.001295681
1.119052e-11
-7.776284e-06
1.417564e-06
1.411357e-06
1.416854e-06
1.421647e-06
-0.001297776
0.001299893
8.491692e-12
-7.824266e-06
1.432885e-06
1.420731e-06
1.432242e-06
1.42385e-06
-0.001301962
0.001304124
-6.114755e-13
-7.876859e-06
1.435093e-06
1.422524e-06
1.434191e-06
1.397754e-06
-0.001306357
0.001308675
2.609975e-11
-7.872521e-06
1.382524e-06
1.394231e-06
1.379866e-06
1.20347e-06
-0.001310925
0.001314361
2.388007e-11
-8.328036e-06
1.247149e-06
1.198663e-06
1.242054e-06
1.58614e-06
-0.001318116
0.001318953
1.307112e-11
-6.975681e-06
1.473169e-06
1.596791e-06
1.482491e-06
1.457695e-06
-0.001320143
0.001322305
8.790829e-12
-7.729623e-06
1.315159e-06
1.469096e-06
1.325927e-06
1.394825e-06
-0.001324749
0.001327282
8.160957e-12
-8.008586e-06
1.333943e-06
1.404464e-06
1.342983e-06
1.398958e-06
-0.001329644
0.001332061
6.857243e-12
-7.951709e-06
1.359575e-06
1.407927e-06
1.36827e-06
1.380885e-06
-0.001334488
0.001336996
6.392493e-12
-7.982898e-06
1.348385e-06
1.389254e-06
1.356433e-06
1.36466e-06
-0.001339498
0.001341975
6.321918e-12
-7.910143e-06
1.345844e-06
1.371363e-06
1.351855e-06
1.350874e-06
-0.00134439
0.001346741
5.195681e-12
-7.733216e-06
1.336684e-06
1.354882e-06
1.340119e-06
1.319245e-06
-0.001349035
0.001351232
4.315198e-12
-7.453748e-06
1.306685e-06
1.321834e-06
1.309088e-06
1.275629e-06
-0.00135335
0.001355339
2.979465e-12
-7.073885e-06
1.264667e-06
1.277788e-06
1.26678e-06
1.223488e-06
-0.001357235
0.001358986
2.534926e-12
-6.628083e-06
1.213061e-06
1.22545e-06
1.214997e-06
1.165375e-06
-0.00136064
0.001362138
5.955041e-12
-6.142738e-06
1.155222e-06
1.167151e-06
1.15698e-06
1.104084e-06
-0.001363538
0.001364778
1.048759e-11
-5.638996e-06
1.093801e-06
1.105691e-06
1.095424e-06
1.040492e-06
-0.001365921
0.001366904
1.194719e-11
-5.126899e-06
1.030122e-06
1.041973e-06
1.031624e-06
9.765892e-07
-0.001367789
0.001368514
9.486775e-12
-4.613449e-06
9.662948e-07
9.779258e-07
9.676618e-07
9.130339e-07
-0.001369142
0.001369612
4.264825e-12
-4.104613e-06
9.028142e-07
9.143233e-07
9.039782e-07
8.521659e-07
-0.001369989
0.001370214
-3.076478e-12
-3.617515e-06
8.431985e-07
8.53168e-07