/*--------------------------------*- C++ -*----------------------------------*\
| =========                 |                                                 |
| \\      /  F ield         | foam-extend: Open Source CFD                    |
|  \\    /   O peration     | Version:     3.1                                |
|   \\  /    A nd           | Web:         http://www.extend-project.de       |
|    \\/     M anipulation  |                                                 |
\*---------------------------------------------------------------------------*/
FoamFile
{
    version     2.0;
    format      ascii;
    class       volScalarField;
    location    "36";
    object      nut;
}
// * * * * * * * * * * * * * * * * * * * * * * * * * * * * * * * * * * * * * //

dimensions      [0 2 -1 0 0 0 0];

internalField   nonuniform List<scalar> 
2539
(
0.0351367
0.0351317
0.0351385
0.0351447
0.035151
0.0351573
0.0351637
0.03517
0.0351763
0.0351827
0.035189
0.0351954
0.0352018
0.0352082
0.0352146
0.035221
0.0352274
0.0352338
0.0352403
0.0352467
0.0352532
0.0352596
0.0352661
0.0352726
0.0352791
0.0352856
0.0352921
0.0352986
0.0353052
0.0353117
0.0353183
0.0353248
0.0353314
0.035338
0.0353446
0.0353512
0.0353578
0.0353645
0.0353711
0.0353778
0.0353844
0.0353911
0.0353978
0.0354045
0.0354112
0.0354179
0.0354246
0.0354313
0.0354381
0.0354448
0.0354516
0.0354584
0.0354652
0.035472
0.0354788
0.0354856
0.0354925
0.0354993
0.0355062
0.035513
0.0355199
0.0355268
0.0355337
0.0355406
0.0355476
0.0355545
0.0355615
0.0355684
0.0355754
0.0355824
0.0355894
0.0355964
0.0356034
0.0356105
0.0356175
0.0356246
0.0356316
0.0356387
0.0356458
0.0356529
0.03566
0.0356672
0.0356743
0.0356815
0.0356886
0.0356958
0.035703
0.0357102
0.0357175
0.0357247
0.0357319
0.0357392
0.0357465
0.0357538
0.0357611
0.0357684
0.0357757
0.035783
0.0357904
0.0357977
0.0358051
0.0358125
0.0358199
0.0358273
0.0358348
0.0358422
0.0358497
0.0358572
0.0358646
0.0358721
0.0358797
0.0358872
0.0358947
0.0359023
0.0359099
0.0359175
0.0359251
0.0359327
0.0359403
0.035948
0.0359556
0.0359633
0.035971
0.0359787
0.0359864
0.0359941
0.0360019
0.0360097
0.0360174
0.0360252
0.0360331
0.0360409
0.0360487
0.0360566
0.0360645
0.0360723
0.0360802
0.0360882
0.0360961
0.0361041
0.036112
0.03612
0.036128
0.036136
0.0361441
0.0361521
0.0361602
0.0361683
0.0361764
0.0361845
0.0361926
0.0362008
0.036209
0.0362171
0.0362253
0.0362336
0.0362418
0.0362501
0.0362583
0.0362666
0.0362749
0.0362833
0.0362916
0.0363
0.0363084
0.0363168
0.0363252
0.0363336
0.0363421
0.0363506
0.0363591
0.0363676
0.0363761
0.0363847
0.0363932
0.0364018
0.0364104
0.0364191
0.0364277
0.0364364
0.0364451
0.0364538
0.0364625
0.0364713
0.0364698
0.0243246
0.0243458
0.0243485
0.0243503
0.024352
0.0243538
0.0243555
0.0243573
0.024359
0.0243607
0.0243625
0.0243642
0.024366
0.0243677
0.0243694
0.0243712
0.0243729
0.0243747
0.0243764
0.0243782
0.0243799
0.0243817
0.0243834
0.0243852
0.024387
0.0243887
0.0243905
0.0243922
0.024394
0.0243958
0.0243975
0.0243993
0.0244011
0.0244028
0.0244046
0.0244064
0.0244082
0.0244099
0.0244117
0.0244135
0.0244153
0.024417
0.0244188
0.0244206
0.0244224
0.0244242
0.024426
0.0244277
0.0244295
0.0244313
0.0244331
0.0244349
0.0244367
0.0244385
0.0244403
0.0244421
0.0244439
0.0244457
0.0244475
0.0244493
0.0244511
0.0244529
0.0244547
0.0244565
0.0244583
0.0244602
0.024462
0.0244638
0.0244656
0.0244674
0.0244692
0.0244711
0.0244729
0.0244747
0.0244765
0.0244783
0.0244802
0.024482
0.0244838
0.0244857
0.0244875
0.0244893
0.0244912
0.024493
0.0244948
0.0244967
0.0244985
0.0245004
0.0245022
0.024504
0.0245059
0.0245077
0.0245096
0.0245114
0.0245133
0.0245152
0.024517
0.0245189
0.0245207
0.0245226
0.0245244
0.0245263
0.0245282
0.02453
0.0245319
0.0245338
0.0245356
0.0245375
0.0245394
0.0245413
0.0245431
0.024545
0.0245469
0.0245488
0.0245507
0.0245525
0.0245544
0.0245563
0.0245582
0.0245601
0.024562
0.0245639
0.0245658
0.0245677
0.0245696
0.0245715
0.0245734
0.0245753
0.0245772
0.0245791
0.024581
0.0245829
0.0245848
0.0245867
0.0245886
0.0245905
0.0245924
0.0245944
0.0245963
0.0245982
0.0246001
0.024602
0.024604
0.0246059
0.0246078
0.0246098
0.0246117
0.0246136
0.0246156
0.0246175
0.0246194
0.0246214
0.0246233
0.0246253
0.0246272
0.0246291
0.0246311
0.024633
0.024635
0.024637
0.0246389
0.0246409
0.0246428
0.0246448
0.0246467
0.0246487
0.0246507
0.0246526
0.0246546
0.0246566
0.0246585
0.0246605
0.0246625
0.0246645
0.0246664
0.0246684
0.0246704
0.0246724
0.0246744
0.0246764
0.0246784
0.0246803
0.0246823
0.0246843
0.0246863
0.0246883
0.0246903
0.0246923
0.0246943
0.0246963
0.0246983
0.0247003
0.0247024
0.0247044
0.0247064
0.0247084
0.0247104
0.0247126
0.0247103
0.0248005
0.0167864
0.0171214
0.0174979
0.0177204
0.017845
0.017923
0.0179775
0.0180192
0.0180535
0.0180834
0.0181102
0.0181349
0.018158
0.0181798
0.0182007
0.0182207
0.01824
0.0182586
0.0182767
0.0182944
0.0183115
0.0183283
0.0183447
0.0183608
0.0183766
0.0183921
0.0184073
0.0184223
0.0184371
0.0184517
0.0184661
0.0184802
0.0184943
0.0185081
0.0185218
0.0185354
0.0185488
0.0185621
0.0185752
0.0185883
0.0186012
0.018614
0.0186268
0.0186394
0.0186519
0.0186644
0.0186768
0.018689
0.0187013
0.0187134
0.0187255
0.0187375
0.0187495
0.0187614
0.0187732
0.018785
0.0187967
0.0188084
0.0188201
0.0188317
0.0188433
0.0188548
0.0188663
0.0188778
0.0188893
0.0189007
0.0189121
0.0189235
0.0189349
0.0189462
0.0189576
0.0189689
0.0189803
0.0189916
0.019003
0.0190144
0.0190257
0.0190371
0.0190486
0.0190601
0.0190716
0.0190831
0.0190947
0.0191064
0.0191182
0.01913
0.019142
0.019154
0.0191662
0.0191786
0.0191911
0.0192039
0.019217
0.0192304
0.0192442
0.0192587
0.0192741
0.0192908
0.0193094
0.0193308
0.0193937
0.0194342
0.0194711
0.0195051
0.0195368
0.0195664
0.0195942
0.0196205
0.0196455
0.0196692
0.0196919
0.0197137
0.0197346
0.0197548
0.0197742
0.019793
0.0198113
0.0198289
0.0198461
0.0198628
0.019879
0.0198948
0.0199103
0.0199254
0.0199401
0.0199546
0.0199687
0.0199825
0.0199961
0.0200094
0.0200225
0.0200353
0.0200479
0.0200603
0.0200725
0.0200845
0.0200963
0.0201079
0.0201193
0.0201306
0.0201417
0.0201527
0.0201635
0.0201742
0.0201847
0.0201951
0.0202054
0.0202155
0.0202255
0.0202354
0.0202452
0.0202549
0.0202644
0.0202739
0.0202832
0.0202925
0.0203017
0.0203107
0.0203197
0.0203286
0.0203374
0.0203461
0.0203547
0.0203633
0.0203717
0.0203801
0.0203884
0.0203967
0.0204049
0.0204129
0.020421
0.0204289
0.0204368
0.0204447
0.0204524
0.0204601
0.0204678
0.0204754
0.0204829
0.0204904
0.0204978
0.0205051
0.0205124
0.0205197
0.0205269
0.020534
0.0205411
0.0205481
0.0205551
0.0205621
0.020569
0.0205758
0.0205826
0.0205894
0.020596
0.0206026
0.0206092
0.0206163
0.0206242
0.0206326
0.020639
0.0206432
0.0206473
0.0206515
0.0206556
0.0206597
0.0206638
0.0206679
0.020672
0.020676
0.0206801
0.0206841
0.0206881
0.0206921
0.020696
0.0207
0.0207039
0.0207079
0.0207118
0.0207157
0.0207196
0.0207234
0.0207273
0.0207311
0.0207349
0.0207387
0.0207425
0.0207463
0.0207501
0.0207538
0.0207576
0.0207613
0.020765
0.0207687
0.0207724
0.0207761
0.0207798
0.0207834
0.020787
0.0207907
0.0207943
0.0207979
0.0208015
0.020805
0.0208086
0.0208122
0.0208157
0.0208192
0.0208227
0.0208262
0.0208297
0.0208332
0.0208367
0.0208401
0.0208436
0.020847
0.0208504
0.0208539
0.0208573
0.0208607
0.020864
0.0208674
0.0208708
0.0208741
0.0208775
0.0208808
0.0208841
0.0208874
0.0208907
0.020894
0.0208973
0.0209005
0.0209038
0.020907
0.0209103
0.0209135
0.0209167
0.0209199
0.0209231
0.0209263
0.0209295
0.0209327
0.0209358
0.020939
0.0209421
0.0209453
0.0209484
0.0209515
0.0209546
0.0209577
0.0209608
0.0209639
0.020967
0.02097
0.0209731
0.0209761
0.0209792
0.0209822
0.0209852
0.0209882
0.0209912
0.0209942
0.0209972
0.0210002
0.0210032
0.0210061
0.0210091
0.0210121
0.021015
0.0210179
0.0210208
0.0210238
0.0210267
0.0210296
0.0210325
0.0210354
0.0210382
0.0210411
0.021044
0.0210468
0.0210497
0.0210525
0.0210553
0.0210582
0.021061
0.0210638
0.0210666
0.0210694
0.0210722
0.021075
0.0210778
0.0210805
0.0210833
0.021086
0.0210888
0.0210915
0.0210943
0.021097
0.0210997
0.0211024
0.0211051
0.0211078
0.0211105
0.0211132
0.0211159
0.0211186
0.0211213
0.0211239
0.0211266
0.0211292
0.0211319
0.0211345
0.0211371
0.0211398
0.0211424
0.021145
0.0211476
0.0211502
0.0211528
0.0211554
0.021158
0.0211605
0.0211631
0.0211657
0.0211682
0.0211708
0.0211733
0.0211759
0.0211784
0.0211809
0.0211834
0.021186
0.0211885
0.021191
0.0211935
0.021196
0.0211985
0.0212009
0.0212034
0.0212059
0.0212084
0.0212108
0.0212133
0.0212157
0.0212182
0.0212206
0.021223
0.0212255
0.0212279
0.0212303
0.0212327
0.0212351
0.0212375
0.0212399
0.0212423
0.0212447
0.0212471
0.0212495
0.0212518
0.0212542
0.0212566
0.0212589
0.0212613
0.0212636
0.021266
0.0212683
0.0212706
0.021273
0.0212753
0.0212776
0.0212799
0.0212822
0.0212845
0.0212868
0.0212891
0.0212914
0.0212937
0.021296
0.0212982
0.0213005
0.0213028
0.021305
0.0213073
0.0213095
0.0213118
0.021314
0.0213163
0.0213185
0.0213207
0.0213229
0.0213252
0.0213274
0.0213296
0.0213318
0.021334
0.0213362
0.0213384
0.0213406
0.0213428
0.0213449
0.0213471
0.0213493
0.0213514
0.0213536
0.0213558
0.0213579
0.0213601
0.0213622
0.0213644
0.0213665
0.0213686
0.0213708
0.0213729
0.021375
0.0213771
0.0213792
0.0213813
0.0213834
0.0213855
0.0213876
0.0213897
0.0213918
0.0213939
0.021396
0.0213981
0.0214001
0.0214022
0.0214043
0.0214063
0.0214084
0.0214104
0.0214125
0.0214145
0.0214166
0.0214186
0.0214206
0.0214227
0.0214247
0.0214267
0.0214287
0.0214308
0.0214328
0.0214348
0.0214368
0.0214388
0.0214408
0.0214428
0.0214448
0.0214467
0.0214487
0.0214507
0.0214527
0.0214546
0.0214566
0.0214586
0.0214605
0.0214625
0.0214645
0.0214664
0.0214683
0.0214703
0.0214722
0.0214742
0.0214761
0.021478
0.02148
0.0214819
0.0214838
0.0214857
0.0214876
0.0214895
0.0214914
0.0214933
0.0214952
0.0214971
0.021499
0.0215009
0.0215028
0.0215047
0.0215066
0.0215084
0.0215103
0.0215122
0.021514
0.0215159
0.0215178
0.0215196
0.0215215
0.0215233
0.0215252
0.021527
0.0215289
0.0215307
0.0215325
0.0215344
0.0215362
0.021538
0.0215398
0.0215417
0.0215435
0.0215453
0.0215471
0.0215489
0.0215507
0.0215525
0.0215543
0.0215562
0.021558
0.0215596
0.0215605
0.021562
0.0215644
0.0215667
0.0215691
0.0215715
0.0215738
0.0215762
0.0215785
0.0215809
0.0215832
0.0215855
0.0215878
0.0215902
0.0215925
0.0215948
0.0215971
0.0215994
0.0216017
0.021604
0.0216063
0.0216086
0.0216108
0.0216131
0.0216154
0.0216177
0.0216199
0.0216222
0.0216244
0.0216267
0.0216289
0.0216312
0.0216334
0.0216356
0.0216379
0.0216401
0.0216423
0.0216445
0.0216467
0.0216489
0.0216511
0.0216533
0.0216555
0.0216577
0.0216599
0.0216621
0.0216642
0.0216664
0.0216686
0.0216707
0.0216729
0.0216751
0.0216772
0.0216794
0.0216815
0.0216836
0.0216858
0.0216879
0.02169
0.0216922
0.0216943
0.0216964
0.0216985
0.0217006
0.0217027
0.0217048
0.0217069
0.021709
0.0217111
0.0217132
0.0217153
0.0217173
0.0217194
0.0217215
0.0217235
0.0217256
0.0217277
0.0217297
0.0217318
0.0217338
0.0217359
0.0217379
0.0217399
0.021742
0.021744
0.021746
0.021748
0.0217501
0.0217521
0.0217541
0.0217561
0.0217581
0.0217601
0.0217621
0.0217641
0.0217661
0.0217681
0.02177
0.021772
0.021774
0.021776
0.0217779
0.0217799
0.0217819
0.0217838
0.0217858
0.0217877
0.0217897
0.0217916
0.0217935
0.0217955
0.0217974
0.0217993
0.0218013
0.0218032
0.0218051
0.021807
0.0218089
0.0218109
0.0218128
0.0218147
0.0218166
0.0218185
0.0218204
0.0218223
0.0218241
0.021826
0.0218279
0.0218298
0.0218317
0.0218335
0.0218354
0.0218373
0.0218391
0.021841
0.0218428
0.0218447
0.0218465
0.0218484
0.0218502
0.0218521
0.0218539
0.0218557
0.0218576
0.0218594
0.0218612
0.021863
0.0218649
0.0218667
0.0218685
0.0218703
0.0218721
0.0218739
0.0218757
0.0218775
0.0218793
0.0218811
0.0218829
0.0218847
0.0218865
0.0218882
0.02189
0.0218918
0.0218936
0.0218953
0.0218971
0.0218989
0.0219006
0.0219024
0.0219041
0.0219059
0.0219076
0.0219094
0.0219112
0.0219129
0.0219145
0.0219158
0.0219171
0.0219203
0.0219276
0.0266345
0.0266247
0.0266185
0.0266197
0.0266203
0.0266208
0.0266216
0.0266225
0.0266231
0.0266231
0.026623
0.0266231
0.0266233
0.0266232
0.0266227
0.0266224
0.0266218
0.0266211
0.0266205
0.0266194
0.0266183
0.026617
0.0266157
0.0266144
0.0266131
0.0266115
0.0266096
0.0266076
0.0266055
0.0266034
0.0266012
0.0265988
0.0265961
0.0265933
0.0265905
0.0265876
0.0265845
0.0265816
0.0265783
0.0265747
0.0265712
0.0265678
0.0265638
0.0265597
0.0265556
0.0265513
0.0265469
0.0265425
0.0265379
0.0265331
0.0265281
0.0265233
0.0265183
0.026513
0.0265075
0.0265018
0.0264961
0.0264902
0.0264842
0.0264783
0.0264722
0.0264658
0.0264591
0.0264522
0.0264453
0.0264383
0.0264314
0.0264243
0.0264169
0.0264093
0.0264015
0.0263937
0.0263856
0.0263773
0.026369
0.0263604
0.0263518
0.0263432
0.0263345
0.0263253
0.0263158
0.0263059
0.0262959
0.0262859
0.0262759
0.0262663
0.0262576
0.0262487
0.0262383
0.0262243
0.026206
0.0261859
0.0261721
0.0261762
0.0262036
0.0262405
0.0262435
0.0261529
0.025936
0.0256524
0.0255142
0.0213225
0.0219821
0.0219838
0.0219854
0.0219871
0.0219888
0.0219904
0.0219921
0.0219937
0.0219954
0.021997
0.0219987
0.0220003
0.022002
0.0220036
0.0220052
0.0220069
0.0220085
0.0220101
0.0220118
0.0220134
0.022015
0.0220166
0.0220183
0.0220199
0.0220215
0.0220231
0.0220247
0.0220263
0.0220279
0.0220295
0.0220311
0.0220327
0.0220343
0.0220359
0.0220375
0.022039
0.0220406
0.0220422
0.0220438
0.0220454
0.0220469
0.0220485
0.0220501
0.0220516
0.0220532
0.0220548
0.0220563
0.0220579
0.0220594
0.022061
0.0220625
0.0220641
0.0220656
0.0220672
0.0220687
0.0220703
0.0220718
0.0220733
0.0220749
0.0220764
0.0220779
0.0220794
0.022081
0.0220825
0.022084
0.0220855
0.022087
0.0220885
0.02209
0.0220915
0.0220931
0.0220946
0.0220961
0.0220976
0.022099
0.0221005
0.022102
0.0221035
0.022105
0.0221065
0.022108
0.0221095
0.022111
0.0221124
0.0221137
0.0221151
0.0221173
0.0221208
0.0221228
0.0221227
0.0221226
0.0221226
0.0221225
0.0221224
0.0221223
0.0221222
0.0221221
0.0221221
0.022122
0.0221219
0.0221218
0.0221217
0.0221216
0.0221215
0.0221215
0.0221214
0.0221213
0.0221212
0.0221211
0.022121
0.022121
0.0221209
0.0221208
0.0221207
0.0221206
0.0221205
0.0221205
0.0221204
0.0221203
0.0221202
0.0221201
0.02212
0.02212
0.0221199
0.0221198
0.0221197
0.0221196
0.0221196
0.0221195
0.0221194
0.0221193
0.0221192
0.0221191
0.0221191
0.022119
0.0221189
0.0221188
0.0221187
0.0221186
0.0221186
0.0221185
0.0221184
0.0221183
0.0221182
0.0221182
0.0221181
0.022118
0.0221179
0.0221178
0.0221177
0.0221177
0.0221176
0.0221175
0.0221174
0.0221173
0.0221173
0.0221172
0.0221171
0.022117
0.0221169
0.0221169
0.0221168
0.0221167
0.0221166
0.0221165
0.0221164
0.0221164
0.0221163
0.0221162
0.0221161
0.022116
0.022116
0.0221159
0.0221158
0.0221157
0.0221156
0.0221156
0.0221155
0.0221154
0.0221153
0.0221152
0.0221152
0.0221151
0.022115
0.0221149
0.0221148
0.0221148
0.0221147
0.0221146
0.0221145
0.0221144
0.0221144
0.0221143
0.0221142
0.0221141
0.022114
0.022114
0.0221139
0.0221138
0.0221137
0.0221136
0.0221136
0.0221135
0.0221134
0.0221133
0.0221132
0.0221132
0.0221131
0.022113
0.0221129
0.0221129
0.0221128
0.0221127
0.0221126
0.0221125
0.0221125
0.0221124
0.0221123
0.0221122
0.0221121
0.0221121
0.022112
0.0221119
0.0221118
0.0221118
0.0221117
0.0221116
0.0221115
0.0221114
0.0221114
0.0221113
0.0221112
0.0221111
0.0221111
0.022111
0.0221109
0.0221108
0.0221107
0.0221107
0.0221106
0.0221105
0.0221104
0.0221104
0.0221103
0.0221102
0.0221101
0.02211
0.02211
0.0221099
0.0221098
0.0221097
0.0221097
0.0221096
0.0221095
0.0221094
0.0221094
0.0221093
0.0221092
0.0221091
0.022109
0.022109
0.0221089
0.0221088
0.0221087
0.0221087
0.0221086
0.0221085
0.0221084
0.0221084
0.0221083
0.0221082
0.0221081
0.0221081
0.022108
0.0221079
0.0221078
0.0221078
0.0221077
0.0221076
0.0221075
0.0221074
0.0221074
0.0221073
0.0221072
0.0221071
0.0221071
0.022107
0.0221069
0.0221068
0.0221068
0.0221067
0.0221066
0.0221065
0.0221065
0.0221064
0.0221063
0.0221062
0.0221062
0.0221061
0.022106
0.0221059
0.0221059
0.0221058
0.0221057
0.0221056
0.0221056
0.0221055
0.0221054
0.0221054
0.0221054
0.0221054
0.0221051
0.0221039
0.0221023
0.0221047
0.0221183
0.0221374
0.0221115
0.0219515
0.0217046
0.0219724
0.0238552
0.0264206
0.024899
0.0192944
0.0170327
0.0169194
0.0169177
0.0169164
0.016915
0.0169136
0.0169122
0.0169109
0.0169095
0.0169081
0.0169068
0.0169054
0.016904
0.0169027
0.0169013
0.0168999
0.0168986
0.0168972
0.0168958
0.0168945
0.0168931
0.0168918
0.0168904
0.016889
0.0168877
0.0168863
0.016885
0.0168836
0.0168823
0.0168809
0.0168796
0.0168782
0.0168769
0.0168755
0.0168742
0.0168728
0.0168715
0.0168701
0.0168688
0.0168674
0.0168661
0.0168647
0.0168634
0.016862
0.0168607
0.0168594
0.016858
0.0168567
0.0168553
0.016854
0.0168527
0.0168513
0.01685
0.0168486
0.0168473
0.016846
0.0168446
0.0168433
0.016842
0.0168406
0.0168393
0.016838
0.0168367
0.0168352
0.0168323
0.0168303
0.0168302
0.0168302
0.0168301
0.01683
0.0168299
0.0168298
0.0168298
0.0168297
0.0168296
0.0168295
0.0168295
0.0168294
0.0168293
0.0168292
0.0168292
0.0168291
0.016829
0.0168289
0.0168289
0.0168288
0.0168287
0.0168286
0.0168286
0.0168285
0.0168284
0.0168283
0.0168283
0.0168282
0.0168281
0.016828
0.016828
0.0168279
0.0168278
0.0168277
0.0168277
0.0168276
0.0168275
0.0168274
0.0168274
0.0168273
0.0168272
0.0168272
0.0168271
0.016827
0.0168269
0.0168269
0.0168268
0.0168267
0.0168266
0.0168266
0.0168265
0.0168264
0.0168264
0.0168263
0.0168262
0.0168261
0.0168261
0.016826
0.0168259
0.0168259
0.0168258
0.0168257
0.0168256
0.0168256
0.0168255
0.0168254
0.0168254
0.0168253
0.0168252
0.0168251
0.0168251
0.016825
0.0168249
0.0168249
0.0168248
0.0168247
0.0168246
0.0168246
0.0168245
0.0168244
0.0168244
0.0168243
0.0168242
0.0168241
0.0168241
0.016824
0.0168239
0.0168239
0.0168238
0.0168237
0.0168236
0.0168236
0.0168235
0.0168234
0.0168233
0.0168233
0.0168232
0.0168231
0.016823
0.016823
0.0168229
0.0168228
0.0168227
0.0168227
0.0168226
0.0168225
0.0168224
0.0168224
0.0168223
0.0168222
0.0168221
0.0168221
0.016822
0.0168219
0.0168218
0.0168217
0.0168217
0.0168216
0.0168215
0.0168214
0.0168214
0.0168213
0.0168212
0.0168211
0.016821
0.016821
0.0168209
0.0168208
0.0168207
0.0168206
0.0168206
0.0168205
0.0168204
0.0168203
0.0168203
0.0168202
0.0168201
0.01682
0.0168199
0.0168199
0.0168198
0.0168197
0.0168196
0.0168195
0.0168195
0.0168194
0.0168193
0.0168192
0.0168192
0.0168191
0.016819
0.0168189
0.0168188
0.0168188
0.0168187
0.0168186
0.0168185
0.0168185
0.0168184
0.0168183
0.0168182
0.0168181
0.0168181
0.016818
0.0168179
0.0168178
0.0168178
0.0168177
0.0168176
0.0168175
0.0168175
0.0168174
0.0168173
0.0168172
0.0168172
0.0168171
0.016817
0.0168169
0.0168169
0.0168168
0.0168167
0.0168166
0.0168166
0.0168165
0.0168164
0.0168163
0.0168163
0.0168162
0.0168161
0.0168161
0.016816
0.0168159
0.0168158
0.0168158
0.0168157
0.0168156
0.0168155
0.0168155
0.0168154
0.0168153
0.0168152
0.0168152
0.0168151
0.016815
0.016815
0.0168149
0.0168148
0.0168147
0.0168147
0.0168146
0.0168145
0.0168144
0.0168144
0.0168143
0.0168142
0.0168141
0.0168141
0.016814
0.0168139
0.0168138
0.0168138
0.0168137
0.0168136
0.0168135
0.0168135
0.0168134
0.0168133
0.0168132
0.0168132
0.0168131
0.016813
0.0168129
0.0168129
0.0168128
0.0168127
0.0168126
0.0168125
0.0168125
0.0168124
0.0168123
0.0168122
0.0168122
0.0168121
0.016812
0.0168119
0.0168118
0.0168118
0.0168117
0.0168116
0.0168115
0.0168115
0.0168114
0.0168113
0.0168112
0.0168111
0.0168111
0.016811
0.0168109
0.0168108
0.0168108
0.0168107
0.0168106
0.0168105
0.0168104
0.0168104
0.0168103
0.0168102
0.0168101
0.01681
0.01681
0.0168099
0.0168098
0.0168097
0.0168097
0.0168096
0.0168095
0.0168094
0.0168094
0.0168093
0.0168092
0.0168091
0.016809
0.016809
0.0168089
0.0168088
0.0168087
0.0168087
0.0168086
0.0168085
0.0168084
0.0168084
0.0168083
0.0168082
0.0168081
0.0168081
0.016808
0.0168079
0.0168079
0.0168078
0.0168077
0.0168076
0.0168076
0.0168075
0.0168074
0.0168073
0.0168073
0.0168072
0.0168071
0.0168071
0.016807
0.0168069
0.0168068
0.0168068
0.0168067
0.0168066
0.0168066
0.0168065
0.0168064
0.0168063
0.0168063
0.0168062
0.0168061
0.0168061
0.016806
0.0168059
0.0168059
0.0168058
0.0168057
0.0168056
0.0168056
0.0168055
0.0168054
0.0168054
0.0168053
0.0168052
0.0168052
0.0168051
0.016805
0.0168049
0.0168049
0.0168048
0.0168047
0.0168047
0.0168046
0.0168045
0.0168044
0.0168044
0.0168043
0.0168042
0.0168042
0.0168041
0.016804
0.016804
0.0168039
0.0168038
0.0168037
0.0168037
0.0168036
0.0168035
0.0168035
0.0168034
0.0168033
0.0168032
0.0168032
0.0168031
0.016803
0.0168029
0.0168029
0.0168028
0.0168027
0.0168027
0.0168026
0.0168025
0.0168024
0.0168024
0.0168023
0.0168022
0.0168022
0.0168021
0.016802
0.0168019
0.0168019
0.0168018
0.0168017
0.0168016
0.0168016
0.0168015
0.0168014
0.0168014
0.0168013
0.0168012
0.0168011
0.0168011
0.016801
0.0168009
0.0168009
0.0168008
0.0168007
0.0168006
0.0168006
0.0168005
0.0168004
0.0168004
0.0168003
0.0168002
0.0168001
0.0168001
0.0168
0.0167999
0.0167999
0.0167998
0.0167997
0.0167997
0.0167996
0.0167995
0.0167994
0.0167994
0.0167993
0.0167992
0.0167992
0.0167991
0.016799
0.016799
0.0167989
0.0167988
0.0167987
0.0167987
0.0167986
0.0167985
0.0167985
0.0167984
0.0167983
0.0167982
0.0167982
0.0167981
0.016798
0.016798
0.0167979
0.0167978
0.0167978
0.0167977
0.0167976
0.0167975
0.0167975
0.0167974
0.0167973
0.0167973
0.0167972
0.0167971
0.016797
0.016797
0.0167969
0.0167968
0.0167967
0.0167967
0.0167966
0.0167965
0.0167964
0.0167964
0.0167963
0.0167962
0.0167961
0.016796
0.016796
0.0167959
0.0167958
0.0167957
0.0167957
0.0167956
0.0167955
0.0167954
0.0167953
0.0167952
0.0167952
0.0167951
0.016795
0.0167949
0.0167948
0.0167947
0.0167947
0.0167946
0.0167945
0.0167944
0.0167943
0.0167942
0.0167941
0.016794
0.016794
0.0167939
0.0167938
0.0167937
0.0167936
0.0167935
0.0167934
0.0167933
0.0167932
0.0167931
0.016793
0.0167929
0.0167928
0.0167927
0.0167926
0.0167925
0.0167925
0.0167924
0.0167923
0.0167922
0.0167921
0.016792
0.0167919
0.0167918
0.0167917
0.0167916
0.0167915
0.0167914
0.0167912
0.0167911
0.016791
0.0167909
0.0167908
0.0167907
0.0167906
0.0167905
0.0167904
0.0167903
0.0167902
0.0167901
0.01679
0.0167899
0.0167898
0.0167897
0.0167896
0.0167895
0.0167893
0.0167892
0.0167891
0.016789
0.0167889
0.0167888
0.0167887
0.0167886
0.0167885
0.0167884
0.0167883
0.0167881
0.016788
0.0167879
0.0167878
0.0167877
0.0167876
0.0167875
0.0167874
0.0167872
0.0167871
0.016787
0.0167869
0.0167868
0.0167867
0.0167866
0.0167865
0.0167863
0.0167862
0.0167861
0.016786
0.0167859
0.0167858
0.0167857
0.0167855
0.0167854
0.0167853
0.0167852
0.0167851
0.016785
0.0167848
0.0167847
0.0167846
0.0167845
0.0167844
0.0167843
0.0167841
0.016784
0.0167839
0.0167838
0.0167837
0.0167836
0.0167835
0.0167833
0.0167832
0.0167831
0.016783
0.0167829
0.0167828
0.0167826
0.0167825
0.0167824
0.0167823
0.0167822
0.0167821
0.0167819
0.0167818
0.0167817
0.0167816
0.0167815
0.0167814
0.0167812
0.0167811
0.016781
0.0167809
0.0167808
0.0167807
0.0167806
0.0167804
0.0167803
0.0167802
0.0167801
0.01678
0.0167799
0.0167798
0.0167797
0.0167795
0.0167794
0.0167793
0.0167792
0.0167791
0.016779
0.0167789
0.0167788
0.0167787
0.0167785
0.0167784
0.0167783
0.0167782
0.0167781
0.016778
0.0167779
0.0167778
0.0167777
0.0167776
0.0167775
0.0167774
0.0167772
0.0167771
0.016777
0.0167769
0.0167768
0.0167767
0.0167766
0.0167765
0.0167764
0.0167763
0.0167762
0.0167761
0.016776
0.0167759
0.0167758
0.0167757
0.0167756
0.0167755
0.0167754
0.0167753
0.0167752
0.0167751
0.016775
0.0167749
0.0167748
0.0167747
0.0167746
0.0167745
0.0167744
0.0167743
0.0167742
0.0167741
0.016774
0.0167739
0.0167738
0.0167737
0.0167736
0.0167735
0.0167734
0.0167733
0.0167732
0.0167731
0.016773
0.0167729
0.0167728
0.0167727
0.0167726
0.0167725
0.0167725
0.0167724
0.0167723
0.0167722
0.0167721
0.016772
0.0167719
0.0167718
0.0167717
0.0167716
0.0167715
0.0167714
0.0167713
0.0167712
0.0167711
0.016771
0.0167709
0.0167708
0.0167707
0.0167706
0.0167705
0.0167704
0.0167703
0.0167702
0.0167701
0.01677
0.0167699
0.0167698
0.0167697
0.0167696
0.0167695
0.0167694
0.0167693
0.0167692
0.0167691
0.016769
0.0167689
0.0167688
0.0167688
0.0167687
0.0167686
0.0167685
0.0167684
0.0167683
0.0167682
0.0167681
0.016768
0.0167679
0.0167678
0.0167677
0.0167676
0.0167675
0.0167674
0.0167673
0.0167672
0.0167671
0.016767
0.0167669
0.0167668
0.0167667
0.0167666
0.0167665
0.0167664
0.0167663
0.0167662
0.0167661
0.016766
0.0167659
0.0167658
0.0167657
0.0167656
0.0167655
0.0167654
0.0167653
0.0167652
0.0167652
0.0167651
0.016765
0.0167649
0.0167648
0.0167647
0.0167646
0.0167645
0.0167644
0.0167643
0.0167642
0.0167641
0.016764
0.0167639
0.0167638
0.0167637
0.0167636
0.0167635
0.0167634
0.0167633
0.0167632
0.0167632
0.0167631
0.016763
0.0167629
0.0167628
0.0167627
0.0167626
0.0167625
0.0167624
0.0167623
0.0167622
0.0167621
0.016762
0.0167619
0.0167618
0.0167617
0.0167616
0.0167615
0.0167614
0.0167613
0.0167612
0.0167611
0.0167611
0.016761
0.0167609
0.0167608
0.0167607
0.0167606
0.0167605
0.0167604
0.0167603
0.0167602
0.0167601
0.01676
0.0167599
0.0167598
0.0167597
0.0167596
0.0167595
0.0167594
0.0167593
0.0167592
0.0167591
0.016759
0.0167589
0.0167588
0.0167587
0.0167586
0.0167585
0.0167584
0.0167583
0.0167582
0.0167581
0.016758
0.0167579
0.0167578
0.0167577
0.0167576
0.0167575
0.0167574
0.0167573
0.0167572
0.0167571
0.016757
0.0167569
0.0167568
0.0167567
0.0167566
0.0167566
0.0167565
0.0167564
0.0167563
0.0167562
0.0167561
0.016756
0.0167559
0.0167558
0.0167557
0.0167556
0.0167555
0.0167554
0.0167553
0.0167552
0.0167551
0.016755
0.0167549
0.0167548
0.0167547
0.0167546
0.0167545
0.0167544
0.0167543
0.0167542
0.0167541
0.016754
0.0167539
0.0167538
0.0167537
0.0167536
0.0167535
0.0167534
0.0167533
0.0167532
0.0167531
0.016753
0.0167529
0.0167528
0.0167527
0.0167526
0.0167525
0.0167524
0.0167523
0.0167522
0.0167521
0.016752
0.0167519
0.0167518
0.0167517
0.0167516
0.0167515
0.0167514
0.0167513
0.0167512
0.0167511
0.016751
0.0167509
0.0167508
0.0167507
0.0167506
0.0167505
0.0167504
0.0167503
0.0167502
0.0167501
0.01675
0.0167499
0.0167498
0.0167497
0.0167496
0.0167495
0.0167494
0.0167493
0.0167492
0.0167491
0.016749
0.0167489
0.0167488
0.0167487
)
;

boundaryField
{
    inlet
    {
        type            zeroGradient;
    }
    outlet
    {
        type            zeroGradient;
    }
    right
    {
        type            empty;
    }
    left
    {
        type            empty;
    }
    atmosphere
    {
        type            empty;
    }
    bottomWall
    {
        type            empty;
    }
}


// ************************************************************************* //
