/*--------------------------------*- C++ -*----------------------------------*\
| =========                 |                                                 |
| \\      /  F ield         | foam-extend: Open Source CFD                    |
|  \\    /   O peration     | Version:     3.1                                |
|   \\  /    A nd           | Web:         http://www.extend-project.de       |
|    \\/     M anipulation  |                                                 |
\*---------------------------------------------------------------------------*/
FoamFile
{
    version     2.0;
    format      ascii;
    class       volScalarField;
    location    "30";
    object      alpha;
}
// * * * * * * * * * * * * * * * * * * * * * * * * * * * * * * * * * * * * * //

dimensions      [0 0 -1 0 0 0 0];

internalField   nonuniform List<scalar> 
2539
(
0.00548372
0.00549269
0.00550671
0.00552057
0.0055345
0.00554848
0.00556251
0.0055766
0.00559074
0.00560494
0.00561919
0.00563349
0.00564786
0.00566227
0.00567675
0.00569128
0.00570587
0.00572051
0.00573521
0.00574998
0.00576479
0.00577967
0.00579461
0.0058096
0.00582465
0.00583977
0.00585494
0.00587018
0.00588547
0.00590083
0.00591625
0.00593172
0.00594727
0.00596287
0.00597854
0.00599427
0.00601006
0.00602592
0.00604184
0.00605783
0.00607388
0.00609
0.00610618
0.00612243
0.00613874
0.00615512
0.00617157
0.00618809
0.00620468
0.00622133
0.00623805
0.00625485
0.00627171
0.00628864
0.00630564
0.00632272
0.00633986
0.00635708
0.00637437
0.00639173
0.00640916
0.00642667
0.00644426
0.00646191
0.00647964
0.00649745
0.00651533
0.00653329
0.00655133
0.00656944
0.00658763
0.0066059
0.00662425
0.00664267
0.00666118
0.00667976
0.00669843
0.00671718
0.00673601
0.00675492
0.00677391
0.00679299
0.00681215
0.00683139
0.00685072
0.00687014
0.00688964
0.00690922
0.0069289
0.00694866
0.0069685
0.00698844
0.00700847
0.00702858
0.00704879
0.00706909
0.00708947
0.00710995
0.00713053
0.00715119
0.00717195
0.0071928
0.00721375
0.0072348
0.00725594
0.00727718
0.00729851
0.00731994
0.00734148
0.00736311
0.00738484
0.00740667
0.0074286
0.00745064
0.00747278
0.00749502
0.00751737
0.00753982
0.00756238
0.00758504
0.00760781
0.00763069
0.00765368
0.00767678
0.00769998
0.0077233
0.00774673
0.00777027
0.00779393
0.0078177
0.00784158
0.00786558
0.0078897
0.00791393
0.00793828
0.00796275
0.00798734
0.00801206
0.00803689
0.00806184
0.00808692
0.00811212
0.00813745
0.0081629
0.00818848
0.00821419
0.00824003
0.00826599
0.00829209
0.00831832
0.00834468
0.00837118
0.00839781
0.00842457
0.00845147
0.00847851
0.00850569
0.00853301
0.00856047
0.00858807
0.00861581
0.0086437
0.00867173
0.00869991
0.00872823
0.00875671
0.00878533
0.00881411
0.00884304
0.00887212
0.00890135
0.00893074
0.00896029
0.00898999
0.00901986
0.00904988
0.00908007
0.00911042
0.00914094
0.00917162
0.00920247
0.00923348
0.00926467
0.00929602
0.00933173
0.00416728
0.00418152
0.00418622
0.00419043
0.00419462
0.00419881
0.00420301
0.00420721
0.00421142
0.00421564
0.00421987
0.0042241
0.00422834
0.00423259
0.00423684
0.0042411
0.00424537
0.00424964
0.00425392
0.00425821
0.00426251
0.00426681
0.00427112
0.00427544
0.00427976
0.0042841
0.00428843
0.00429278
0.00429713
0.0043015
0.00430586
0.00431024
0.00431462
0.00431901
0.00432341
0.00432781
0.00433222
0.00433664
0.00434107
0.00434551
0.00434995
0.0043544
0.00435885
0.00436332
0.00436779
0.00437227
0.00437676
0.00438125
0.00438575
0.00439026
0.00439478
0.00439931
0.00440384
0.00440838
0.00441293
0.00441748
0.00442205
0.00442662
0.0044312
0.00443579
0.00444038
0.00444499
0.0044496
0.00445422
0.00445884
0.00446348
0.00446812
0.00447277
0.00447743
0.0044821
0.00448677
0.00449146
0.00449615
0.00450085
0.00450556
0.00451027
0.004515
0.00451973
0.00452447
0.00452922
0.00453397
0.00453874
0.00454351
0.0045483
0.00455309
0.00455788
0.00456269
0.00456751
0.00457233
0.00457716
0.00458201
0.00458686
0.00459171
0.00459658
0.00460146
0.00460634
0.00461123
0.00461613
0.00462104
0.00462596
0.00463089
0.00463583
0.00464077
0.00464573
0.00465069
0.00465566
0.00466064
0.00466563
0.00467063
0.00467564
0.00468065
0.00468568
0.00469071
0.00469576
0.00470081
0.00470587
0.00471094
0.00471602
0.00472111
0.00472621
0.00473132
0.00473643
0.00474156
0.0047467
0.00475184
0.004757
0.00476216
0.00476733
0.00477251
0.00477771
0.00478291
0.00478812
0.00479334
0.00479857
0.00480381
0.00480906
0.00481432
0.00481959
0.00482487
0.00483015
0.00483545
0.00484076
0.00484608
0.00485141
0.00485674
0.00486209
0.00486745
0.00487281
0.00487819
0.00488358
0.00488898
0.00489438
0.0048998
0.00490523
0.00491067
0.00491612
0.00492157
0.00492704
0.00493252
0.00493801
0.00494351
0.00494902
0.00495454
0.00496007
0.00496561
0.00497116
0.00497673
0.0049823
0.00498788
0.00499348
0.00499908
0.0050047
0.00501032
0.00501596
0.00502161
0.00502727
0.00503294
0.00503862
0.00504431
0.00505001
0.00505573
0.00506145
0.00506719
0.00507293
0.00507869
0.00508446
0.00509024
0.00509603
0.00510183
0.00510765
0.00511347
0.00511931
0.00512515
0.00513101
0.00513688
0.00514277
0.00514866
0.00515451
0.00516162
0.00514349
0.00268791
0.00301435
0.00344104
0.00372704
0.00392061
0.00406454
0.00418097
0.00428139
0.00437193
0.00445601
0.00453558
0.00461185
0.0046856
0.00475735
0.00482746
0.00489622
0.00496383
0.00503046
0.00509625
0.00516131
0.00522574
0.00528961
0.00535301
0.00541599
0.00547861
0.00554091
0.00560294
0.00566474
0.00572634
0.00578779
0.0058491
0.0059103
0.00597142
0.00603249
0.00609352
0.00615454
0.00621556
0.00627661
0.0063377
0.00639885
0.00646007
0.00652138
0.0065828
0.00664433
0.006706
0.00676782
0.00682979
0.00689194
0.00695427
0.0070168
0.00707954
0.0071425
0.00720571
0.00726916
0.00733288
0.00739687
0.00746115
0.00752574
0.00759065
0.00765589
0.00772148
0.00778743
0.00785377
0.00792051
0.00798767
0.00805528
0.00812334
0.00819189
0.00826095
0.00833056
0.00840073
0.0084715
0.00854291
0.00861499
0.0086878
0.00876139
0.0088358
0.0089111
0.00898737
0.00906469
0.00914316
0.00922289
0.00930402
0.00938672
0.00947119
0.00955766
0.00964646
0.00973795
0.00983263
0.00993111
0.0100342
0.0101429
0.0102585
0.0103828
0.0105177
0.0106659
0.0108302
0.0110139
0.0112199
0.0114501
0.0120843
0.012378
0.0126565
0.0129222
0.0131768
0.0134217
0.0136581
0.013887
0.0141091
0.0143252
0.0145357
0.0147413
0.0149424
0.0151392
0.0153323
0.0155218
0.015708
0.0158911
0.0160714
0.0162491
0.0164242
0.016597
0.0167676
0.0169361
0.0171026
0.0172673
0.0174302
0.0175914
0.017751
0.0179091
0.0180658
0.018221
0.018375
0.0185276
0.0186791
0.0188293
0.0189785
0.0191266
0.0192736
0.0194196
0.0195647
0.0197089
0.0198521
0.0199945
0.0201361
0.0202768
0.0204168
0.020556
0.0206944
0.0208322
0.0209692
0.0211056
0.0212414
0.0213765
0.0215109
0.0216448
0.0217781
0.0219109
0.022043
0.0221747
0.0223058
0.0224364
0.0225665
0.0226961
0.0228252
0.0229539
0.0230821
0.0232099
0.0233372
0.0234641
0.0235906
0.0237167
0.0238424
0.0239677
0.0240926
0.0242172
0.0243413
0.0244652
0.0245886
0.0247117
0.0248345
0.024957
0.0250791
0.0252009
0.0253224
0.0254435
0.0255644
0.025685
0.0258053
0.0259253
0.026045
0.0261643
0.0262834
0.0264022
0.0265211
0.0266403
0.0267601
0.0268792
0.0269932
0.0270944
0.0271788
0.0272552
0.0273314
0.0274075
0.0274835
0.0275594
0.0276352
0.0277109
0.0277864
0.0278619
0.0279373
0.0280125
0.0280876
0.0281627
0.0282376
0.0283124
0.0283872
0.0284618
0.0285363
0.0286108
0.0286851
0.0287593
0.0288335
0.0289075
0.0289815
0.0290553
0.0291291
0.0292027
0.0292763
0.0293498
0.0294232
0.0294965
0.0295697
0.0296428
0.0297159
0.0297888
0.0298617
0.0299344
0.0300071
0.0300797
0.0301523
0.0302247
0.030297
0.0303693
0.0304415
0.0305136
0.0305856
0.0306576
0.0307294
0.0308012
0.0308729
0.0309445
0.0310161
0.0310875
0.0311589
0.0312302
0.0313015
0.0313726
0.0314437
0.0315147
0.0315857
0.0316565
0.0317273
0.031798
0.0318687
0.0319393
0.0320098
0.0320802
0.0321505
0.0322208
0.032291
0.0323612
0.0324313
0.0325013
0.0325712
0.0326411
0.0327109
0.0327806
0.0328503
0.0329199
0.0329894
0.0330589
0.0331282
0.0331976
0.0332668
0.0333361
0.0334052
0.0334743
0.0335433
0.0336122
0.0336811
0.0337499
0.0338187
0.0338874
0.033956
0.0340246
0.0340931
0.0341615
0.0342299
0.0342982
0.0343665
0.0344347
0.0345028
0.0345709
0.0346389
0.0347069
0.0347748
0.0348427
0.0349104
0.0349782
0.0350458
0.0351135
0.035181
0.0352485
0.035316
0.0353833
0.0354507
0.0355179
0.0355852
0.0356523
0.0357194
0.0357865
0.0358535
0.0359204
0.0359873
0.0360541
0.0361209
0.0361876
0.0362543
0.0363209
0.0363875
0.036454
0.0365204
0.0365868
0.0366532
0.0367195
0.0367857
0.0368519
0.036918
0.0369841
0.0370501
0.0371161
0.0371821
0.0372479
0.0373138
0.0373795
0.0374453
0.0375109
0.0375766
0.0376422
0.0377077
0.0377732
0.0378386
0.037904
0.0379693
0.0380346
0.0380998
0.038165
0.0382301
0.0382952
0.0383602
0.0384252
0.0384901
0.038555
0.0386199
0.0386847
0.0387494
0.0388141
0.0388788
0.0389434
0.0390079
0.0390724
0.0391369
0.0392013
0.0392657
0.03933
0.0393943
0.0394585
0.0395227
0.0395869
0.0396509
0.039715
0.039779
0.039843
0.0399069
0.0399707
0.0400346
0.0400983
0.0401621
0.0402258
0.0402894
0.040353
0.0404165
0.0404801
0.0405435
0.0406069
0.0406703
0.0407337
0.0407969
0.0408602
0.0409234
0.0409866
0.0410497
0.0411127
0.0411758
0.0412388
0.0413017
0.0413646
0.0414275
0.0414903
0.0415531
0.0416158
0.0416785
0.0417411
0.0418037
0.0418663
0.0419288
0.0419913
0.0420537
0.0421161
0.0421785
0.0422408
0.042303
0.0423653
0.0424275
0.0424896
0.0425517
0.0426138
0.0426758
0.0427378
0.0427997
0.0428616
0.0429235
0.0429853
0.0430471
0.0431088
0.0431705
0.0432322
0.0432938
0.0433554
0.0434169
0.0434784
0.0435399
0.0436013
0.0436627
0.043724
0.0437853
0.0438466
0.0439078
0.043969
0.0440301
0.0440912
0.0441523
0.0442133
0.0442743
0.0443352
0.0443961
0.044457
0.0445178
0.0445786
0.0446394
0.0447001
0.0447608
0.0448214
0.044882
0.0449426
0.0450031
0.0450636
0.045124
0.0451844
0.0452448
0.0453051
0.0453654
0.0454257
0.0454859
0.0455461
0.0456062
0.0456663
0.0457264
0.0457864
0.0458464
0.0459064
0.0459663
0.0460262
0.046086
0.0461459
0.0462056
0.0462654
0.0463251
0.0463847
0.0464443
0.0465039
0.0465635
0.046623
0.0466825
0.0467419
0.0468013
0.0468607
0.04692
0.0469793
0.0470385
0.0470978
0.0471569
0.0472161
0.0472752
0.0473343
0.0473933
0.0474523
0.0475113
0.0475702
0.0476291
0.047688
0.0477468
0.0478056
0.0478643
0.0479231
0.0479817
0.0480404
0.048099
0.0481576
0.0482161
0.0482746
0.0483331
0.0483915
0.0484499
0.0485083
0.0485666
0.0486249
0.0486832
0.0487414
0.0487996
0.0488577
0.0489158
0.0489739
0.049032
0.04909
0.0491479
0.0492059
0.0492638
0.0493217
0.0493795
0.0494373
0.0494951
0.0495529
0.0496107
0.0496684
0.0497256
0.0497817
0.0498376
0.0498982
0.0499689
0.0500455
0.050122
0.0501985
0.050275
0.0503514
0.0504278
0.0505041
0.0505804
0.0506566
0.0507328
0.0508089
0.050885
0.050961
0.051037
0.051113
0.0511889
0.0512647
0.0513405
0.0514163
0.051492
0.0515677
0.0516433
0.0517189
0.0517944
0.0518699
0.0519453
0.0520207
0.0520961
0.0521714
0.0522467
0.0523219
0.0523971
0.0524722
0.0525473
0.0526223
0.0526973
0.0527722
0.0528471
0.052922
0.0529968
0.0530716
0.0531463
0.053221
0.0532956
0.0533702
0.0534447
0.0535192
0.0535937
0.0536681
0.0537425
0.0538168
0.0538911
0.0539653
0.0540395
0.0541136
0.0541877
0.0542618
0.0543358
0.0544098
0.0544837
0.0545576
0.0546314
0.0547052
0.0547789
0.0548526
0.0549263
0.0549999
0.0550735
0.055147
0.0552205
0.055294
0.0553674
0.0554407
0.055514
0.0555873
0.0556605
0.0557337
0.0558069
0.05588
0.055953
0.056026
0.056099
0.0561719
0.0562448
0.0563177
0.0563905
0.0564632
0.0565359
0.0566086
0.0566812
0.0567538
0.0568264
0.0568989
0.0569713
0.0570437
0.0571161
0.0571884
0.0572607
0.057333
0.0574052
0.0574773
0.0575494
0.0576215
0.0576936
0.0577655
0.0578375
0.0579094
0.0579813
0.0580531
0.0581249
0.0581966
0.0582683
0.05834
0.0584116
0.0584831
0.0585547
0.0586262
0.0586976
0.058769
0.0588404
0.0589117
0.058983
0.0590542
0.0591254
0.0591966
0.0592677
0.0593387
0.0594098
0.0594808
0.0595517
0.0596226
0.0596935
0.0597643
0.0598351
0.0599058
0.0599765
0.0600472
0.0601178
0.0601884
0.0602589
0.0603294
0.0603998
0.0604702
0.0605406
0.0606109
0.0606812
0.0607515
0.0608217
0.0608918
0.060962
0.061032
0.0611021
0.0611721
0.061242
0.061312
0.0613818
0.0614517
0.0615215
0.0615912
0.0616609
0.0617306
0.0618003
0.0618698
0.0619394
0.0620089
0.0620784
0.0621478
0.0622172
0.0622866
0.062356
0.0624253
0.0624942
0.0625624
0.0626306
0.0627024
0.0627827
0.0628652
0.0629107
0.0926867
0.092581
0.0925465
0.0925782
0.0926026
0.0926253
0.0926458
0.0926585
0.09266
0.0926539
0.0926458
0.0926359
0.0926194
0.0925935
0.0925607
0.0925236
0.0924801
0.0924306
0.0923743
0.0923107
0.0922429
0.0921697
0.0920927
0.0920106
0.0919205
0.0918224
0.0917172
0.0916066
0.0914919
0.091372
0.091244
0.0911085
0.0909671
0.0908216
0.090672
0.0905167
0.0903565
0.09019
0.090015
0.0898346
0.0896506
0.0894583
0.0892573
0.0890519
0.0888422
0.0886268
0.0884069
0.0881819
0.0879499
0.0877125
0.0874711
0.0872245
0.0869698
0.0867076
0.0864394
0.086167
0.0858905
0.0856086
0.0853226
0.0850313
0.0847316
0.0844242
0.0841109
0.0837944
0.0834752
0.0831519
0.0828234
0.0824869
0.0821431
0.0817933
0.081439
0.08108
0.080715
0.0803458
0.0799725
0.079594
0.0792114
0.0788231
0.0784259
0.0780203
0.0776085
0.0771941
0.0767797
0.076365
0.0759497
0.0755313
0.0750988
0.074637
0.0741419
0.0736338
0.0731658
0.0728078
0.0725937
0.072429
0.0720327
0.0710223
0.0692255
0.0671215
0.0660555
0.0679694
0.074516
0.0572875
0.0653803
0.0654496
0.0655188
0.0655881
0.0656572
0.0657263
0.0657954
0.0658645
0.0659335
0.0660024
0.0660713
0.0661402
0.0662091
0.0662779
0.0663466
0.0664154
0.066484
0.0665527
0.0666213
0.0666898
0.0667584
0.0668268
0.0668953
0.0669637
0.067032
0.0671004
0.0671686
0.0672369
0.0673051
0.0673732
0.0674414
0.0675094
0.0675775
0.0676455
0.0677134
0.0677814
0.0678492
0.0679171
0.0679849
0.0680526
0.0681204
0.068188
0.0682557
0.0683233
0.0683908
0.0684584
0.0685259
0.0685933
0.0686607
0.0687281
0.0687954
0.0688627
0.0689299
0.0689971
0.0690643
0.0691314
0.0691985
0.0692656
0.0693326
0.0693995
0.0694665
0.0695333
0.0696002
0.069667
0.0697338
0.0698005
0.0698672
0.0699339
0.0700005
0.070067
0.0701336
0.0702001
0.0702665
0.0703329
0.0703993
0.0704657
0.070532
0.0705982
0.0706645
0.0707307
0.0707968
0.0708628
0.0709285
0.0709942
0.0710616
0.0711321
0.0712015
0.0712526
0.0712686
0.0712648
0.071261
0.0712572
0.0712534
0.0712496
0.0712458
0.071242
0.0712382
0.0712345
0.0712307
0.0712269
0.0712231
0.0712193
0.0712156
0.0712118
0.071208
0.0712043
0.0712005
0.0711967
0.071193
0.0711892
0.0711855
0.0711817
0.071178
0.0711742
0.0711705
0.0711667
0.071163
0.0711592
0.0711555
0.0711518
0.071148
0.0711443
0.0711406
0.0711369
0.0711331
0.0711294
0.0711257
0.071122
0.0711183
0.0711146
0.0711109
0.0711072
0.0711034
0.0710997
0.071096
0.0710924
0.0710887
0.071085
0.0710813
0.0710776
0.0710739
0.0710702
0.0710665
0.0710629
0.0710592
0.0710555
0.0710518
0.0710482
0.0710445
0.0710408
0.0710372
0.0710335
0.0710299
0.0710262
0.0710226
0.0710189
0.0710153
0.0710116
0.071008
0.0710043
0.0710007
0.070997
0.0709934
0.0709898
0.0709861
0.0709825
0.0709789
0.0709753
0.0709716
0.070968
0.0709644
0.0709608
0.0709572
0.0709536
0.07095
0.0709464
0.0709428
0.0709391
0.0709356
0.070932
0.0709284
0.0709248
0.0709212
0.0709176
0.070914
0.0709104
0.0709068
0.0709033
0.0708997
0.0708961
0.0708925
0.070889
0.0708854
0.0708818
0.0708783
0.0708747
0.0708711
0.0708676
0.070864
0.0708605
0.0708569
0.0708534
0.0708498
0.0708463
0.0708428
0.0708392
0.0708357
0.0708321
0.0708286
0.0708251
0.0708215
0.070818
0.0708145
0.070811
0.0708075
0.0708039
0.0708004
0.0707969
0.0707934
0.0707899
0.0707864
0.0707829
0.0707794
0.0707759
0.0707724
0.0707689
0.0707654
0.0707619
0.0707584
0.0707549
0.0707514
0.070748
0.0707445
0.070741
0.0707375
0.070734
0.0707306
0.0707271
0.0707236
0.0707202
0.0707167
0.0707132
0.0707098
0.0707063
0.0707029
0.0706994
0.070696
0.0706925
0.0706891
0.0706856
0.0706822
0.0706788
0.0706753
0.0706719
0.0706684
0.070665
0.0706616
0.0706582
0.0706547
0.0706513
0.0706479
0.0706445
0.0706411
0.0706376
0.0706342
0.0706308
0.0706274
0.070624
0.0706206
0.0706172
0.0706138
0.0706104
0.070607
0.0706036
0.0706002
0.0705968
0.0705935
0.0705901
0.0705867
0.0705833
0.0705799
0.0705765
0.0705732
0.0705698
0.0705664
0.0705631
0.0705597
0.0705563
0.070553
0.0705496
0.0705463
0.0705429
0.0705395
0.0705362
0.0705328
0.0705295
0.0705262
0.0705228
0.0705195
0.0705161
0.0705128
0.0705095
0.0705061
0.0705028
0.0704995
0.0704961
0.0704928
0.0704895
0.0704862
0.0704829
0.0704795
0.0704762
0.0704729
0.0704696
0.0704663
0.070463
0.0704597
0.0704564
0.0704531
0.0704498
0.0704465
0.0704432
0.0704399
0.0704366
0.0704333
0.07043
0.0704268
0.0704238
0.0704206
0.0704161
0.0704094
0.0704047
0.0704158
0.0704539
0.0704729
0.0703049
0.0698003
0.0694775
0.0713746
0.0779105
0.0829779
0.0626679
0.0233104
0.00533531
0.00233889
0.00213734
0.00213585
0.00213365
0.00213144
0.00212924
0.00212705
0.00212485
0.00212266
0.00212048
0.0021183
0.00211612
0.00211395
0.00211178
0.00210961
0.00210745
0.00210529
0.00210313
0.00210098
0.00209883
0.00209669
0.00209454
0.00209241
0.00209027
0.00208814
0.00208601
0.00208389
0.00208177
0.00207965
0.00207753
0.00207542
0.00207331
0.00207121
0.00206911
0.00206701
0.00206491
0.00206282
0.00206073
0.00205864
0.00205656
0.00205448
0.0020524
0.00205033
0.00204825
0.0020462
0.00204454
0.00204395
0.00204403
0.0020441
0.00204416
0.00204423
0.00204429
0.00204436
0.00204442
0.00204448
0.00204454
0.0020446
0.00204466
0.00204472
0.00204478
0.00204484
0.00204489
0.00204495
0.002045
0.00204506
0.00204511
0.00204516
0.00204521
0.00204526
0.00204531
0.00204535
0.0020454
0.00204544
0.00204549
0.00204553
0.00204557
0.00204561
0.00204564
0.00204568
0.00204571
0.00204575
0.00204578
0.00204581
0.00204584
0.00204587
0.00204589
0.00204592
0.00204594
0.00204596
0.00204598
0.00204599
0.00204601
0.00204602
0.00204604
0.00204605
0.00204606
0.00204606
0.00204607
0.00204607
0.00204607
0.00204607
0.00204607
0.00204607
0.00204606
0.00204605
0.00204604
0.00204603
0.00204601
0.002046
0.00204598
0.00204596
0.00204594
0.00204592
0.00204589
0.00204586
0.00204583
0.0020458
0.00204577
0.00204573
0.00204569
0.00204565
0.00204561
0.00204557
0.00204552
0.00204548
0.00204543
0.00204537
0.00204532
0.00204527
0.00204521
0.00204515
0.00204509
0.00204503
0.00204496
0.0020449
0.00204483
0.00204476
0.00204469
0.00204462
0.00204455
0.00204447
0.00204439
0.00204432
0.00204424
0.00204416
0.00204407
0.00204399
0.00204391
0.00204382
0.00204373
0.00204365
0.00204356
0.00204347
0.00204338
0.00204329
0.00204319
0.0020431
0.00204301
0.00204291
0.00204282
0.00204272
0.00204263
0.00204253
0.00204244
0.00204234
0.00204224
0.00204215
0.00204205
0.00204195
0.00204186
0.00204176
0.00204166
0.00204157
0.00204147
0.00204138
0.00204128
0.00204119
0.00204109
0.002041
0.00204091
0.00204081
0.00204072
0.00204063
0.00204054
0.00204045
0.00204036
0.00204027
0.00204019
0.0020401
0.00204002
0.00203993
0.00203985
0.00203977
0.00203969
0.00203961
0.00203953
0.00203945
0.00203938
0.0020393
0.00203923
0.00203916
0.00203909
0.00203902
0.00203895
0.00203888
0.00203881
0.00203875
0.00203869
0.00203862
0.00203856
0.0020385
0.00203844
0.00203839
0.00203833
0.00203828
0.00203822
0.00203817
0.00203812
0.00203807
0.00203802
0.00203797
0.00203793
0.00203788
0.00203784
0.0020378
0.00203776
0.00203771
0.00203768
0.00203764
0.0020376
0.00203756
0.00203753
0.00203749
0.00203746
0.00203743
0.0020374
0.00203737
0.00203734
0.00203731
0.00203728
0.00203725
0.00203723
0.0020372
0.00203718
0.00203715
0.00203713
0.00203711
0.00203708
0.00203706
0.00203704
0.00203702
0.002037
0.00203698
0.00203697
0.00203695
0.00203693
0.00203692
0.0020369
0.00203688
0.00203687
0.00203685
0.00203684
0.00203683
0.00203681
0.0020368
0.00203679
0.00203678
0.00203677
0.00203675
0.00203674
0.00203673
0.00203672
0.00203671
0.0020367
0.00203669
0.00203668
0.00203667
0.00203667
0.00203666
0.00203665
0.00203664
0.00203663
0.00203663
0.00203662
0.00203661
0.0020366
0.0020366
0.00203659
0.00203658
0.00203658
0.00203657
0.00203656
0.00203656
0.00203655
0.00203654
0.00203654
0.00203653
0.00203652
0.00203652
0.00203651
0.00203651
0.0020365
0.00203649
0.00203649
0.00203648
0.00203648
0.00203647
0.00203646
0.00203646
0.00203645
0.00203645
0.00203644
0.00203644
0.00203643
0.00203642
0.00203642
0.00203641
0.00203641
0.0020364
0.00203639
0.00203639
0.00203638
0.00203638
0.00203637
0.00203636
0.00203636
0.00203635
0.00203635
0.00203634
0.00203634
0.00203633
0.00203632
0.00203632
0.00203631
0.00203631
0.0020363
0.00203629
0.00203629
0.00203628
0.00203628
0.00203627
0.00203626
0.00203626
0.00203625
0.00203625
0.00203624
0.00203623
0.00203623
0.00203622
0.00203622
0.00203621
0.0020362
0.0020362
0.00203619
0.00203619
0.00203618
0.00203617
0.00203617
0.00203616
0.00203616
0.00203615
0.00203614
0.00203614
0.00203613
0.00203613
0.00203612
0.00203611
0.00203611
0.0020361
0.00203609
0.00203609
0.00203608
0.00203608
0.00203607
0.00203606
0.00203606
0.00203605
0.00203604
0.00203604
0.00203603
0.00203602
0.00203602
0.00203601
0.002036
0.002036
0.00203599
0.00203598
0.00203598
0.00203597
0.00203596
0.00203596
0.00203595
0.00203594
0.00203593
0.00203593
0.00203592
0.00203591
0.00203591
0.0020359
0.00203589
0.00203588
0.00203588
0.00203587
0.00203586
0.00203585
0.00203585
0.00203584
0.00203583
0.00203582
0.00203582
0.00203581
0.0020358
0.00203579
0.00203579
0.00203578
0.00203577
0.00203576
0.00203576
0.00203575
0.00203574
0.00203573
0.00203572
0.00203572
0.00203571
0.0020357
0.00203569
0.00203568
0.00203568
0.00203567
0.00203566
0.00203565
0.00203564
0.00203564
0.00203563
0.00203562
0.00203561
0.0020356
0.00203559
0.00203558
0.00203558
0.00203557
0.00203556
0.00203555
0.00203554
0.00203553
0.00203552
0.00203551
0.0020355
0.00203549
0.00203549
0.00203548
0.00203547
0.00203546
0.00203545
0.00203544
0.00203543
0.00203542
0.00203541
0.0020354
0.00203539
0.00203537
0.00203536
0.00203535
0.00203534
0.00203533
0.00203532
0.00203531
0.0020353
0.00203529
0.00203527
0.00203526
0.00203525
0.00203524
0.00203523
0.00203521
0.0020352
0.00203519
0.00203518
0.00203516
0.00203515
0.00203514
0.00203513
0.00203511
0.0020351
0.00203509
0.00203507
0.00203506
0.00203505
0.00203503
0.00203502
0.002035
0.00203499
0.00203498
0.00203496
0.00203495
0.00203493
0.00203492
0.0020349
0.00203489
0.00203487
0.00203486
0.00203484
0.00203483
0.00203481
0.00203479
0.00203478
0.00203476
0.00203475
0.00203473
0.00203471
0.0020347
0.00203468
0.00203467
0.00203465
0.00203463
0.00203462
0.0020346
0.00203458
0.00203456
0.00203455
0.00203453
0.00203451
0.0020345
0.00203448
0.00203446
0.00203444
0.00203443
0.00203441
0.00203439
0.00203437
0.00203435
0.00203434
0.00203432
0.0020343
0.00203428
0.00203426
0.00203425
0.00203423
0.00203421
0.00203419
0.00203417
0.00203416
0.00203414
0.00203412
0.0020341
0.00203408
0.00203407
0.00203405
0.00203403
0.00203401
0.00203399
0.00203398
0.00203396
0.00203394
0.00203392
0.00203391
0.00203389
0.00203387
0.00203385
0.00203384
0.00203382
0.0020338
0.00203379
0.00203377
0.00203375
0.00203374
0.00203372
0.0020337
0.00203369
0.00203367
0.00203365
0.00203364
0.00203362
0.00203361
0.00203359
0.00203358
0.00203356
0.00203355
0.00203353
0.00203352
0.0020335
0.00203349
0.00203347
0.00203346
0.00203344
0.00203343
0.00203342
0.0020334
0.00203339
0.00203338
0.00203336
0.00203335
0.00203334
0.00203333
0.00203331
0.0020333
0.00203329
0.00203328
0.00203327
0.00203325
0.00203324
0.00203323
0.00203322
0.00203321
0.0020332
0.00203319
0.00203318
0.00203317
0.00203316
0.00203315
0.00203314
0.00203313
0.00203312
0.00203311
0.0020331
0.00203309
0.00203308
0.00203307
0.00203307
0.00203306
0.00203305
0.00203304
0.00203303
0.00203303
0.00203302
0.00203301
0.002033
0.002033
0.00203299
0.00203298
0.00203297
0.00203297
0.00203296
0.00203296
0.00203295
0.00203294
0.00203294
0.00203293
0.00203293
0.00203292
0.00203291
0.00203291
0.0020329
0.0020329
0.00203289
0.00203289
0.00203288
0.00203288
0.00203287
0.00203287
0.00203287
0.00203286
0.00203286
0.00203285
0.00203285
0.00203285
0.00203284
0.00203284
0.00203284
0.00203283
0.00203283
0.00203283
0.00203282
0.00203282
0.00203282
0.00203281
0.00203281
0.00203281
0.0020328
0.0020328
0.0020328
0.0020328
0.00203279
0.00203279
0.00203279
0.00203279
0.00203278
0.00203278
0.00203278
0.00203278
0.00203278
0.00203277
0.00203277
0.00203277
0.00203277
0.00203277
0.00203277
0.00203276
0.00203276
0.00203276
0.00203276
0.00203276
0.00203276
0.00203276
0.00203276
0.00203275
0.00203275
0.00203275
0.00203275
0.00203275
0.00203275
0.00203275
0.00203275
0.00203275
0.00203275
0.00203275
0.00203274
0.00203274
0.00203274
0.00203274
0.00203274
0.00203274
0.00203274
0.00203274
0.00203274
0.00203274
0.00203274
0.00203274
0.00203274
0.00203274
0.00203274
0.00203274
0.00203274
0.00203274
0.00203274
0.00203274
0.00203274
0.00203274
0.00203275
0.00203275
0.00203275
0.00203275
0.00203275
0.00203275
0.00203275
0.00203275
0.00203275
0.00203275
0.00203275
0.00203275
0.00203276
0.00203276
0.00203276
0.00203276
0.00203276
0.00203276
0.00203276
0.00203276
0.00203277
0.00203277
0.00203277
0.00203277
0.00203277
0.00203277
0.00203278
0.00203278
0.00203278
0.00203278
0.00203278
0.00203279
0.00203279
0.00203279
0.00203279
0.0020328
0.0020328
0.0020328
0.0020328
0.00203281
0.00203281
0.00203281
0.00203281
0.00203282
0.00203282
0.00203282
0.00203283
0.00203283
0.00203283
0.00203284
0.00203284
0.00203284
0.00203285
0.00203285
0.00203286
0.00203286
0.00203286
0.00203287
0.00203287
0.00203288
0.00203288
0.00203288
0.00203289
0.00203289
0.0020329
0.0020329
0.00203291
0.00203291
0.00203292
0.00203292
0.00203293
0.00203293
0.00203294
0.00203294
0.00203295
0.00203295
0.00203296
0.00203296
0.00203297
0.00203298
0.00203298
0.00203299
0.00203299
0.002033
0.00203301
0.00203301
0.00203302
0.00203302
0.00203303
0.00203304
0.00203304
0.00203305
0.00203306
0.00203306
0.00203307
0.00203308
0.00203308
0.00203309
0.0020331
0.0020331
0.00203311
0.00203312
0.00203313
0.00203313
0.00203314
0.00203315
0.00203316
0.00203316
0.00203317
0.00203318
0.00203319
0.00203319
0.0020332
0.00203321
0.00203322
0.00203323
0.00203323
0.00203324
0.00203325
0.00203326
0.00203327
0.00203328
0.00203328
0.00203329
0.0020333
0.00203331
0.00203332
0.00203333
0.00203334
0.00203334
0.00203335
0.00203336
0.00203337
0.00203338
0.00203339
0.0020334
0.00203341
0.00203342
0.00203342
0.00203343
0.00203344
0.00203345
0.00203346
0.00203347
0.00203348
0.00203349
0.0020335
0.00203351
0.00203352
0.00203353
0.00203354
0.00203355
0.00203356
0.00203356
0.00203357
0.00203358
0.00203359
0.0020336
0.00203361
0.00203362
0.00203363
0.00203364
0.00203365
0.00203366
0.00203367
0.00203368
0.00203369
0.0020337
0.00203371
0.00203372
0.00203373
0.00203374
0.00203375
0.00203376
0.00203377
0.00203378
0.00203379
0.0020338
0.00203381
0.00203382
0.00203383
0.00203384
0.00203385
0.00203386
0.00203387
0.00203388
0.00203389
0.0020339
0.00203391
0.00203392
0.00203393
0.00203394
0.00203395
0.00203396
0.00203397
0.00203398
0.00203399
0.00203401
0.00203402
0.00203403
0.00203404
0.00203405
0.00203406
0.00203407
0.00203408
0.00203409
0.0020341
0.00203411
0.00203412
0.00203413
0.00203414
0.00203415
0.00203416
0.00203417
0.00203418
0.00203419
0.0020342
0.00203422
0.00203423
0.00203424
0.00203425
0.00203426
0.00203427
0.00203428
0.00203429
0.0020343
0.00203431
0.00203432
0.00203433
0.00203434
0.00203435
0.00203436
0.00203438
0.00203439
0.0020344
0.00203441
0.00203442
0.00203443
0.00203444
0.00203445
0.00203446
0.00203447
0.00203448
0.00203449
0.00203451
0.00203452
0.00203453
0.00203454
0.00203455
0.00203456
0.00203457
)
;

boundaryField
{
    inlet
    {
        type            calculated;
        value           uniform 0.00548521;
    }
    outlet
    {
        type            calculated;
        value           uniform 0.00203457;
    }
    right
    {
        type            empty;
    }
    left
    {
        type            empty;
    }
    atmosphere
    {
        type            empty;
    }
    bottomWall
    {
        type            empty;
    }
}


// ************************************************************************* //
