/*--------------------------------*- C++ -*----------------------------------*\
| =========                 |                                                 |
| \\      /  F ield         | foam-extend: Open Source CFD                    |
|  \\    /   O peration     | Version:     3.1                                |
|   \\  /    A nd           | Web:         http://www.extend-project.de       |
|    \\/     M anipulation  |                                                 |
\*---------------------------------------------------------------------------*/
FoamFile
{
    version     2.0;
    format      ascii;
    class       volScalarField;
    location    "30";
    object      H;
}
// * * * * * * * * * * * * * * * * * * * * * * * * * * * * * * * * * * * * * //

dimensions      [0 1 0 0 0 0 0];

internalField   nonuniform List<scalar> 
2539
(
0.85752
0.856817
0.855885
0.854963
0.85404
0.853117
0.852194
0.85127
0.850346
0.849422
0.848498
0.847574
0.846649
0.845724
0.844799
0.843874
0.842948
0.842022
0.841096
0.84017
0.839244
0.838317
0.83739
0.836463
0.835535
0.834607
0.83368
0.832751
0.831823
0.830894
0.829965
0.829036
0.828107
0.827177
0.826247
0.825317
0.824386
0.823455
0.822524
0.821593
0.820662
0.81973
0.818798
0.817866
0.816933
0.816
0.815067
0.814134
0.8132
0.812266
0.811332
0.810397
0.809462
0.808527
0.807592
0.806656
0.80572
0.804784
0.803848
0.802911
0.801974
0.801036
0.800099
0.799161
0.798223
0.797284
0.796345
0.795406
0.794466
0.793527
0.792586
0.791646
0.790705
0.789764
0.788823
0.787881
0.786939
0.785997
0.785054
0.784111
0.783168
0.782224
0.78128
0.780336
0.779391
0.778446
0.777501
0.776555
0.775609
0.774663
0.773716
0.772769
0.771822
0.770874
0.769926
0.768977
0.768028
0.767079
0.766129
0.765179
0.764229
0.763278
0.762327
0.761376
0.760424
0.759472
0.758519
0.757566
0.756613
0.755659
0.754705
0.75375
0.752795
0.75184
0.750884
0.749928
0.748972
0.748015
0.747057
0.746099
0.745141
0.744182
0.743223
0.742264
0.741304
0.740344
0.739383
0.738421
0.73746
0.736498
0.735535
0.734572
0.733608
0.732644
0.73168
0.730715
0.72975
0.728784
0.727818
0.726851
0.725884
0.724916
0.723948
0.722979
0.72201
0.72104
0.72007
0.719099
0.718128
0.717156
0.716184
0.715212
0.714238
0.713264
0.71229
0.711315
0.71034
0.709364
0.708388
0.707411
0.706433
0.705455
0.704476
0.703497
0.702517
0.701537
0.700556
0.699575
0.698592
0.69761
0.696626
0.695643
0.694658
0.693673
0.692687
0.691701
0.690714
0.689727
0.688738
0.68775
0.68676
0.68577
0.684779
0.683788
0.682567
0.681213
0.680413
0.680096
0.679804
0.679513
0.679222
0.678931
0.67864
0.678349
0.678058
0.677767
0.677476
0.677185
0.676894
0.676602
0.676311
0.676019
0.675728
0.675436
0.675144
0.674853
0.674561
0.674269
0.673977
0.673685
0.673393
0.673101
0.672809
0.672516
0.672224
0.671932
0.671639
0.671347
0.671054
0.670762
0.670469
0.670176
0.669883
0.66959
0.669297
0.669004
0.668711
0.668418
0.668125
0.667832
0.667538
0.667245
0.666951
0.666658
0.666364
0.66607
0.665777
0.665483
0.665189
0.664895
0.664601
0.664307
0.664013
0.663718
0.663424
0.66313
0.662835
0.662541
0.662246
0.661952
0.661657
0.661362
0.661067
0.660772
0.660477
0.660182
0.659887
0.659592
0.659297
0.659001
0.658706
0.65841
0.658115
0.657819
0.657523
0.657227
0.656932
0.656636
0.65634
0.656044
0.655747
0.655451
0.655155
0.654859
0.654562
0.654266
0.653969
0.653672
0.653375
0.653079
0.652782
0.652485
0.652188
0.651891
0.651593
0.651296
0.650999
0.650701
0.650404
0.650106
0.649809
0.649511
0.649213
0.648915
0.648617
0.648319
0.648021
0.647723
0.647424
0.647126
0.646828
0.646529
0.64623
0.645932
0.645633
0.645334
0.645035
0.644736
0.644437
0.644138
0.643839
0.643539
0.64324
0.64294
0.642641
0.642341
0.642041
0.641742
0.641442
0.641142
0.640842
0.640541
0.640241
0.639941
0.63964
0.63934
0.639039
0.638739
0.638438
0.638137
0.637836
0.637535
0.637234
0.636933
0.636632
0.63633
0.636029
0.635727
0.635426
0.635124
0.634822
0.63452
0.634218
0.633916
0.633614
0.633312
0.63301
0.632707
0.632405
0.632102
0.631799
0.631497
0.631194
0.630891
0.630588
0.630284
0.629981
0.629678
0.629374
0.629071
0.628767
0.628464
0.62816
0.627856
0.627552
0.627248
0.626944
0.626639
0.626335
0.626031
0.625726
0.625421
0.625117
0.624812
0.624507
0.624202
0.623897
0.623591
0.623286
0.622981
0.622675
0.622369
0.622069
0.621646
0.623704
0.598428
0.572794
0.54428
0.527655
0.517138
0.50963
0.503734
0.49878
0.494419
0.490465
0.486808
0.483379
0.480135
0.477044
0.474084
0.471239
0.468494
0.465839
0.463266
0.460766
0.458334
0.455964
0.453651
0.451391
0.449181
0.447017
0.444896
0.442816
0.440773
0.438768
0.436796
0.434856
0.432948
0.431068
0.429217
0.427392
0.425592
0.423817
0.422064
0.420334
0.418625
0.416937
0.415268
0.413618
0.411986
0.410371
0.408773
0.407191
0.405625
0.404074
0.402537
0.401014
0.399504
0.398008
0.396523
0.395051
0.39359
0.39214
0.3907
0.389271
0.387851
0.386441
0.385039
0.383646
0.382261
0.380883
0.379512
0.378148
0.37679
0.375438
0.374091
0.372748
0.371409
0.370074
0.368741
0.36741
0.36608
0.364749
0.363418
0.362085
0.360748
0.359406
0.358056
0.356697
0.355327
0.35394
0.352534
0.351104
0.349642
0.348141
0.346591
0.344977
0.343284
0.341492
0.339576
0.337508
0.335258
0.332799
0.330111
0.327199
0.319637
0.316419
0.31346
0.310719
0.308164
0.305769
0.303514
0.301382
0.299358
0.297432
0.295593
0.293833
0.292144
0.290522
0.288959
0.287451
0.285995
0.284586
0.283221
0.281897
0.280611
0.279362
0.278146
0.276962
0.275808
0.274683
0.273585
0.272512
0.271463
0.270437
0.269434
0.268451
0.267488
0.266545
0.26562
0.264712
0.263821
0.262947
0.262088
0.261244
0.260414
0.259599
0.258797
0.258007
0.257231
0.256466
0.255713
0.254971
0.254241
0.253521
0.252811
0.252111
0.251421
0.25074
0.250069
0.249406
0.248752
0.248107
0.24747
0.24684
0.246219
0.245605
0.244998
0.244399
0.243806
0.243221
0.242642
0.24207
0.241504
0.240944
0.240391
0.239843
0.239301
0.238765
0.238235
0.23771
0.23719
0.236676
0.236167
0.235663
0.235164
0.234669
0.23418
0.233695
0.233214
0.232738
0.232267
0.2318
0.231337
0.230878
0.230423
0.229973
0.229526
0.229084
0.228643
0.228204
0.227766
0.227336
0.226932
0.226583
0.22629
0.226018
0.225748
0.22548
0.225212
0.224947
0.224682
0.224419
0.224158
0.223898
0.223639
0.223382
0.223125
0.222871
0.222617
0.222365
0.222114
0.221865
0.221616
0.221369
0.221123
0.220879
0.220635
0.220393
0.220152
0.219913
0.219674
0.219436
0.2192
0.218965
0.218731
0.218498
0.218266
0.218035
0.217806
0.217577
0.21735
0.217123
0.216898
0.216673
0.21645
0.216228
0.216007
0.215786
0.215567
0.215349
0.215131
0.214915
0.2147
0.214485
0.214272
0.214059
0.213848
0.213637
0.213427
0.213218
0.21301
0.212803
0.212597
0.212392
0.212187
0.211984
0.211781
0.211579
0.211378
0.211178
0.210979
0.21078
0.210583
0.210386
0.21019
0.209995
0.2098
0.209607
0.209414
0.209222
0.20903
0.20884
0.20865
0.208461
0.208273
0.208085
0.207898
0.207712
0.207527
0.207342
0.207158
0.206975
0.206793
0.206611
0.20643
0.206249
0.20607
0.205891
0.205712
0.205535
0.205358
0.205181
0.205006
0.204831
0.204656
0.204483
0.204309
0.204137
0.203965
0.203794
0.203624
0.203454
0.203284
0.203116
0.202948
0.20278
0.202613
0.202447
0.202281
0.202116
0.201952
0.201788
0.201624
0.201462
0.201299
0.201138
0.200977
0.200816
0.200656
0.200497
0.200338
0.20018
0.200022
0.199865
0.199708
0.199552
0.199396
0.199241
0.199087
0.198933
0.198779
0.198626
0.198474
0.198322
0.19817
0.198019
0.197869
0.197719
0.197569
0.19742
0.197272
0.197124
0.196976
0.196829
0.196683
0.196536
0.196391
0.196246
0.196101
0.195957
0.195813
0.19567
0.195527
0.195384
0.195242
0.195101
0.19496
0.194819
0.194679
0.194539
0.1944
0.194261
0.194123
0.193985
0.193847
0.19371
0.193573
0.193437
0.193301
0.193165
0.19303
0.192896
0.192761
0.192628
0.192494
0.192361
0.192229
0.192096
0.191964
0.191833
0.191702
0.191571
0.191441
0.191311
0.191182
0.191052
0.190924
0.190795
0.190667
0.19054
0.190412
0.190286
0.190159
0.190033
0.189907
0.189782
0.189657
0.189532
0.189408
0.189284
0.18916
0.189037
0.188914
0.188791
0.188669
0.188547
0.188426
0.188304
0.188184
0.188063
0.187943
0.187823
0.187704
0.187584
0.187466
0.187347
0.187229
0.187111
0.186993
0.186876
0.186759
0.186643
0.186527
0.186411
0.186295
0.18618
0.186065
0.18595
0.185836
0.185722
0.185608
0.185494
0.185381
0.185268
0.185156
0.185044
0.184932
0.18482
0.184709
0.184598
0.184487
0.184376
0.184266
0.184156
0.184047
0.183938
0.183829
0.18372
0.183611
0.183503
0.183395
0.183288
0.18318
0.183073
0.182966
0.18286
0.182754
0.182648
0.182542
0.182437
0.182332
0.182227
0.182122
0.182018
0.181914
0.18181
0.181706
0.181603
0.1815
0.181397
0.181295
0.181192
0.18109
0.180989
0.180887
0.180786
0.180685
0.180584
0.180484
0.180383
0.180283
0.180184
0.180084
0.179985
0.179886
0.179787
0.179689
0.17959
0.179492
0.179394
0.179297
0.179199
0.179102
0.179005
0.178909
0.178812
0.178716
0.17862
0.178525
0.178429
0.178334
0.178239
0.178144
0.178049
0.177955
0.177861
0.177767
0.177673
0.17758
0.177487
0.177394
0.177301
0.177208
0.177116
0.177024
0.176932
0.17684
0.176749
0.176657
0.176566
0.176475
0.176385
0.176294
0.176204
0.176114
0.176024
0.175934
0.175845
0.175756
0.175667
0.175578
0.175489
0.175401
0.175313
0.175225
0.175137
0.175049
0.174962
0.174874
0.174787
0.174702
0.174618
0.174533
0.174439
0.17433
0.174216
0.174102
0.173988
0.173875
0.173762
0.173649
0.173536
0.173424
0.173312
0.173201
0.17309
0.172979
0.172868
0.172758
0.172648
0.172538
0.172429
0.17232
0.172211
0.172102
0.171994
0.171886
0.171778
0.171671
0.171564
0.171457
0.171351
0.171245
0.171139
0.171033
0.170928
0.170822
0.170718
0.170613
0.170509
0.170405
0.170301
0.170198
0.170095
0.169992
0.169889
0.169787
0.169685
0.169583
0.169481
0.16938
0.169279
0.169178
0.169078
0.168977
0.168877
0.168777
0.168678
0.168579
0.16848
0.168381
0.168283
0.168184
0.168086
0.167989
0.167891
0.167794
0.167697
0.1676
0.167504
0.167407
0.167311
0.167215
0.16712
0.167025
0.16693
0.166835
0.16674
0.166646
0.166552
0.166458
0.166364
0.166271
0.166177
0.166084
0.165992
0.165899
0.165807
0.165715
0.165623
0.165531
0.16544
0.165349
0.165258
0.165167
0.165076
0.164986
0.164896
0.164806
0.164716
0.164627
0.164538
0.164449
0.16436
0.164271
0.164183
0.164095
0.164007
0.163919
0.163831
0.163744
0.163657
0.16357
0.163483
0.163397
0.163311
0.163224
0.163138
0.163053
0.162967
0.162882
0.162797
0.162712
0.162627
0.162543
0.162458
0.162374
0.16229
0.162207
0.162123
0.16204
0.161956
0.161873
0.161791
0.161708
0.161626
0.161543
0.161461
0.16138
0.161298
0.161216
0.161135
0.161054
0.160973
0.160892
0.160812
0.160731
0.160651
0.160571
0.160491
0.160412
0.160332
0.160253
0.160174
0.160095
0.160016
0.159937
0.159859
0.159781
0.159703
0.159625
0.159547
0.159469
0.159392
0.159315
0.159238
0.159161
0.159084
0.159007
0.158931
0.158855
0.158779
0.158703
0.158627
0.158551
0.158476
0.158401
0.158327
0.158253
0.158174
0.158085
0.158
0.157971
0.158052
0.158108
0.158118
0.158097
0.158079
0.158063
0.158049
0.158041
0.158042
0.158047
0.158052
0.158061
0.158074
0.158094
0.158119
0.158147
0.15818
0.158217
0.15826
0.158307
0.158358
0.158413
0.15847
0.158532
0.1586
0.158673
0.158752
0.158835
0.158921
0.159012
0.159109
0.159211
0.159318
0.159428
0.159542
0.15966
0.159782
0.15991
0.160044
0.160182
0.160324
0.160473
0.160629
0.160788
0.160952
0.161121
0.161293
0.161471
0.161654
0.161842
0.162034
0.162232
0.162437
0.162648
0.162865
0.163087
0.163313
0.163544
0.163779
0.164021
0.164271
0.164529
0.164792
0.165059
0.16533
0.165606
0.165889
0.166181
0.16648
0.166786
0.167097
0.167416
0.167741
0.168072
0.168409
0.168753
0.169103
0.169462
0.169831
0.170211
0.170598
0.170991
0.171386
0.171785
0.172188
0.172598
0.17303
0.173496
0.173998
0.174508
0.174966
0.1753
0.175496
0.175693
0.176223
0.177491
0.179612
0.181899
0.182545
0.179242
0.171366
0.162831
0.155366
0.155296
0.155226
0.155155
0.155085
0.155015
0.154946
0.154876
0.154807
0.154737
0.154668
0.154599
0.15453
0.154461
0.154393
0.154324
0.154256
0.154188
0.15412
0.154052
0.153984
0.153917
0.153849
0.153782
0.153715
0.153647
0.153581
0.153514
0.153447
0.153381
0.153314
0.153248
0.153182
0.153116
0.15305
0.152984
0.152919
0.152853
0.152788
0.152723
0.152658
0.152593
0.152528
0.152463
0.152399
0.152334
0.15227
0.152206
0.152142
0.152078
0.152014
0.15195
0.151887
0.151823
0.15176
0.151697
0.151634
0.151571
0.151508
0.151446
0.151383
0.151321
0.151258
0.151196
0.151134
0.151072
0.151011
0.150949
0.150887
0.150826
0.150765
0.150703
0.150642
0.150581
0.15052
0.15046
0.150399
0.150339
0.150278
0.150218
0.150158
0.150098
0.150038
0.149979
0.149917
0.149853
0.149792
0.149754
0.149745
0.149748
0.149751
0.149755
0.149758
0.149762
0.149765
0.149768
0.149772
0.149775
0.149779
0.149782
0.149786
0.149789
0.149792
0.149796
0.149799
0.149803
0.149806
0.149809
0.149813
0.149816
0.149819
0.149823
0.149826
0.14983
0.149833
0.149836
0.14984
0.149843
0.149846
0.14985
0.149853
0.149857
0.14986
0.149863
0.149867
0.14987
0.149873
0.149877
0.14988
0.149883
0.149887
0.14989
0.149894
0.149897
0.1499
0.149904
0.149907
0.14991
0.149914
0.149917
0.14992
0.149924
0.149927
0.14993
0.149934
0.149937
0.14994
0.149943
0.149947
0.14995
0.149953
0.149957
0.14996
0.149963
0.149967
0.14997
0.149973
0.149977
0.14998
0.149983
0.149986
0.14999
0.149993
0.149996
0.15
0.150003
0.150006
0.150009
0.150013
0.150016
0.150019
0.150023
0.150026
0.150029
0.150032
0.150036
0.150039
0.150042
0.150045
0.150049
0.150052
0.150055
0.150058
0.150062
0.150065
0.150068
0.150071
0.150075
0.150078
0.150081
0.150084
0.150088
0.150091
0.150094
0.150097
0.150101
0.150104
0.150107
0.15011
0.150114
0.150117
0.15012
0.150123
0.150126
0.15013
0.150133
0.150136
0.150139
0.150142
0.150146
0.150149
0.150152
0.150155
0.150159
0.150162
0.150165
0.150168
0.150171
0.150174
0.150178
0.150181
0.150184
0.150187
0.15019
0.150194
0.150197
0.1502
0.150203
0.150206
0.150209
0.150213
0.150216
0.150219
0.150222
0.150225
0.150228
0.150232
0.150235
0.150238
0.150241
0.150244
0.150247
0.150251
0.150254
0.150257
0.15026
0.150263
0.150266
0.150269
0.150273
0.150276
0.150279
0.150282
0.150285
0.150288
0.150291
0.150294
0.150298
0.150301
0.150304
0.150307
0.15031
0.150313
0.150316
0.150319
0.150323
0.150326
0.150329
0.150332
0.150335
0.150338
0.150341
0.150344
0.150347
0.15035
0.150354
0.150357
0.15036
0.150363
0.150366
0.150369
0.150372
0.150375
0.150378
0.150381
0.150384
0.150387
0.150391
0.150394
0.150397
0.1504
0.150403
0.150406
0.150409
0.150412
0.150415
0.150418
0.150421
0.150424
0.150427
0.15043
0.150433
0.150436
0.150439
0.150442
0.150446
0.150449
0.150452
0.150455
0.150458
0.150461
0.150464
0.150467
0.15047
0.150473
0.150476
0.150479
0.150482
0.150485
0.150488
0.150491
0.150494
0.150497
0.1505
0.150503
0.150506
0.150509
0.150512
0.150515
0.150519
0.150526
0.150528
0.150512
0.150474
0.150479
0.150704
0.15122
0.151263
0.148659
0.14251
0.1415
0.169495
0.271686
0.489798
0.645727
0.663604
0.663832
0.664126
0.664421
0.664716
0.665011
0.665305
0.6656
0.665894
0.666189
0.666483
0.666777
0.667072
0.667366
0.66766
0.667954
0.668248
0.668542
0.668837
0.66913
0.669424
0.669718
0.670012
0.670306
0.6706
0.670893
0.671187
0.671481
0.671775
0.672068
0.672362
0.672655
0.672949
0.673243
0.673536
0.67383
0.674123
0.674417
0.67471
0.675003
0.675297
0.67559
0.675885
0.676173
0.676374
0.676429
0.676419
0.67641
0.676401
0.676392
0.676383
0.676375
0.676366
0.676357
0.676349
0.67634
0.676332
0.676323
0.676315
0.676307
0.676298
0.67629
0.676282
0.676274
0.676266
0.676258
0.676251
0.676243
0.676235
0.676228
0.67622
0.676213
0.676206
0.676199
0.676192
0.676185
0.676178
0.676171
0.676164
0.676158
0.676152
0.676145
0.676139
0.676133
0.676127
0.676121
0.676116
0.67611
0.676105
0.6761
0.676094
0.676089
0.676085
0.67608
0.676075
0.676071
0.676067
0.676063
0.676059
0.676055
0.676051
0.676048
0.676045
0.676041
0.676038
0.676036
0.676033
0.67603
0.676028
0.676026
0.676024
0.676022
0.67602
0.676019
0.676017
0.676016
0.676015
0.676014
0.676014
0.676013
0.676013
0.676012
0.676012
0.676012
0.676013
0.676013
0.676014
0.676014
0.676015
0.676016
0.676017
0.676018
0.67602
0.676021
0.676023
0.676025
0.676026
0.676028
0.676031
0.676033
0.676035
0.676038
0.67604
0.676043
0.676045
0.676048
0.676051
0.676054
0.676057
0.67606
0.676064
0.676067
0.67607
0.676074
0.676077
0.676081
0.676084
0.676088
0.676092
0.676095
0.676099
0.676103
0.676106
0.67611
0.676114
0.676118
0.676122
0.676126
0.676129
0.676133
0.676137
0.676141
0.676145
0.676148
0.676152
0.676156
0.676159
0.676163
0.676167
0.67617
0.676174
0.676177
0.676181
0.676184
0.676187
0.67619
0.676194
0.676197
0.6762
0.676203
0.676206
0.676208
0.676211
0.676214
0.676216
0.676219
0.676221
0.676223
0.676226
0.676228
0.67623
0.676232
0.676234
0.676235
0.676237
0.676239
0.67624
0.676241
0.676243
0.676244
0.676245
0.676246
0.676247
0.676247
0.676248
0.676248
0.676249
0.676249
0.67625
0.67625
0.67625
0.67625
0.67625
0.676249
0.676249
0.676249
0.676248
0.676247
0.676247
0.676246
0.676245
0.676244
0.676243
0.676242
0.676241
0.67624
0.676238
0.676237
0.676236
0.676234
0.676232
0.676231
0.676229
0.676227
0.676225
0.676223
0.676222
0.67622
0.676217
0.676215
0.676213
0.676211
0.676209
0.676207
0.676204
0.676202
0.676199
0.676197
0.676195
0.676192
0.67619
0.676187
0.676184
0.676182
0.676179
0.676177
0.676174
0.676171
0.676169
0.676166
0.676163
0.67616
0.676158
0.676155
0.676152
0.676149
0.676146
0.676143
0.676141
0.676138
0.676135
0.676132
0.676129
0.676126
0.676123
0.67612
0.676117
0.676114
0.676111
0.676108
0.676105
0.676102
0.676099
0.676096
0.676093
0.67609
0.676087
0.676084
0.676081
0.676078
0.676075
0.676072
0.676069
0.676066
0.676063
0.676059
0.676056
0.676053
0.67605
0.676047
0.676044
0.676041
0.676038
0.676034
0.676031
0.676028
0.676025
0.676022
0.676019
0.676016
0.676012
0.676009
0.676006
0.676003
0.676
0.675997
0.675994
0.67599
0.675987
0.675984
0.675981
0.675978
0.675975
0.675972
0.675968
0.675965
0.675962
0.675959
0.675956
0.675953
0.67595
0.675947
0.675944
0.675941
0.675938
0.675934
0.675931
0.675928
0.675925
0.675922
0.675919
0.675916
0.675913
0.67591
0.675907
0.675904
0.675901
0.675898
0.675895
0.675892
0.675889
0.675886
0.675883
0.67588
0.675877
0.675874
0.675871
0.675868
0.675865
0.675862
0.675859
0.675856
0.675853
0.67585
0.675847
0.675844
0.675841
0.675838
0.675835
0.675832
0.675829
0.675826
0.675823
0.67582
0.675817
0.675814
0.675811
0.675808
0.675805
0.675802
0.675799
0.675796
0.675793
0.67579
0.675787
0.675784
0.675781
0.675778
0.675775
0.675772
0.675769
0.675766
0.675763
0.67576
0.675757
0.675754
0.675751
0.675748
0.675745
0.675742
0.67574
0.675737
0.675734
0.675731
0.675728
0.675725
0.675722
0.675719
0.675716
0.675713
0.67571
0.675707
0.675705
0.675702
0.675699
0.675696
0.675693
0.67569
0.675687
0.675685
0.675682
0.675679
0.675676
0.675673
0.675671
0.675668
0.675665
0.675662
0.675659
0.675657
0.675654
0.675651
0.675648
0.675646
0.675643
0.67564
0.675637
0.675635
0.675632
0.675629
0.675626
0.675624
0.675621
0.675618
0.675616
0.675613
0.67561
0.675607
0.675605
0.675602
0.675599
0.675597
0.675594
0.675591
0.675589
0.675586
0.675583
0.675581
0.675578
0.675576
0.675573
0.67557
0.675568
0.675565
0.675563
0.67556
0.675558
0.675555
0.675552
0.67555
0.675547
0.675545
0.675542
0.67554
0.675538
0.675535
0.675533
0.67553
0.675528
0.675525
0.675523
0.675521
0.675518
0.675516
0.675514
0.675511
0.675509
0.675507
0.675504
0.675502
0.6755
0.675498
0.675495
0.675493
0.675491
0.675489
0.675486
0.675484
0.675482
0.67548
0.675478
0.675475
0.675473
0.675471
0.675469
0.675467
0.675465
0.675463
0.67546
0.675458
0.675456
0.675454
0.675452
0.67545
0.675448
0.675446
0.675444
0.675441
0.675439
0.675437
0.675435
0.675433
0.675431
0.675429
0.675427
0.675425
0.675423
0.675421
0.675418
0.675416
0.675414
0.675412
0.67541
0.675408
0.675406
0.675404
0.675402
0.6754
0.675397
0.675395
0.675393
0.675391
0.675389
0.675387
0.675385
0.675382
0.67538
0.675378
0.675376
0.675374
0.675372
0.67537
0.675367
0.675365
0.675363
0.675361
0.675359
0.675356
0.675354
0.675352
0.67535
0.675347
0.675345
0.675343
0.675341
0.675338
0.675336
0.675334
0.675331
0.675329
0.675327
0.675324
0.675322
0.67532
0.675317
0.675315
0.675312
0.67531
0.675308
0.675305
0.675303
0.6753
0.675298
0.675295
0.675293
0.67529
0.675287
0.675285
0.675282
0.67528
0.675277
0.675274
0.675272
0.675269
0.675267
0.675264
0.675261
0.675258
0.675256
0.675253
0.67525
0.675247
0.675245
0.675242
0.675239
0.675236
0.675233
0.675231
0.675228
0.675225
0.675222
0.675219
0.675216
0.675213
0.67521
0.675207
0.675204
0.675201
0.675198
0.675196
0.675193
0.67519
0.675187
0.675184
0.67518
0.675177
0.675174
0.675171
0.675168
0.675165
0.675162
0.675159
0.675156
0.675153
0.67515
0.675147
0.675144
0.67514
0.675137
0.675134
0.675131
0.675128
0.675125
0.675121
0.675118
0.675115
0.675112
0.675109
0.675106
0.675102
0.675099
0.675096
0.675093
0.675089
0.675086
0.675083
0.67508
0.675076
0.675073
0.67507
0.675066
0.675063
0.67506
0.675057
0.675053
0.67505
0.675047
0.675043
0.67504
0.675037
0.675033
0.67503
0.675026
0.675023
0.67502
0.675016
0.675013
0.67501
0.675006
0.675003
0.674999
0.674996
0.674993
0.674989
0.674986
0.674982
0.674979
0.674975
0.674972
0.674969
0.674965
0.674962
0.674958
0.674955
0.674951
0.674948
0.674944
0.674941
0.674938
0.674934
0.674931
0.674927
0.674924
0.67492
0.674917
0.674913
0.67491
0.674906
0.674903
0.674899
0.674896
0.674892
0.674889
0.674885
0.674882
0.674878
0.674875
0.674871
0.674868
0.674864
0.674861
0.674857
0.674854
0.67485
0.674847
0.674843
0.674839
0.674836
0.674832
0.674829
0.674825
0.674822
0.674818
0.674814
0.674811
0.674807
0.674804
0.6748
0.674796
0.674793
0.674789
0.674786
0.674782
0.674778
0.674775
0.674771
0.674767
0.674764
0.67476
0.674756
0.674753
0.674749
0.674745
0.674742
0.674738
0.674734
0.674731
0.674727
0.674723
0.674719
0.674716
0.674712
0.674708
0.674705
0.674701
0.674697
0.674693
0.67469
0.674686
0.674682
0.674678
0.674675
0.674671
0.674667
0.674663
0.674659
0.674656
0.674652
0.674648
0.674644
0.67464
0.674636
0.674633
0.674629
0.674625
0.674621
0.674617
0.674613
0.67461
0.674606
0.674602
0.674598
0.674594
0.67459
0.674586
0.674582
0.674578
0.674574
0.674571
0.674567
0.674563
0.674559
0.674555
0.674551
0.674547
0.674543
0.674539
0.674535
0.674531
0.674527
0.674523
0.674519
0.674515
0.674511
0.674507
0.674503
0.674499
0.674495
0.674491
0.674487
0.674483
0.674479
0.674475
0.674471
0.674467
0.674462
0.674458
0.674454
0.67445
0.674446
0.674442
0.674438
0.674434
0.67443
0.674426
0.674422
0.674417
0.674413
0.674409
0.674405
0.674401
0.674397
0.674393
0.674389
0.674384
0.67438
0.674376
0.674372
0.674368
0.674364
0.67436
0.674355
0.674351
0.674347
0.674343
0.674339
0.674335
0.674331
0.674326
0.674322
0.674318
0.674314
0.67431
0.674305
0.674301
0.674297
0.674293
0.674289
0.674285
0.67428
0.674276
0.674272
0.674268
0.674264
0.674259
0.674255
0.674251
0.674247
0.674242
0.674238
0.674234
0.67423
0.674226
0.674221
0.674217
0.674213
0.674209
0.674204
0.6742
0.674196
0.674192
0.674188
0.674183
0.674179
0.674175
0.674171
0.674166
0.674162
0.674158
0.674154
0.674149
0.674145
0.674141
0.674137
0.674132
0.674128
0.674124
0.67412
0.674115
0.674111
0.674107
0.674103
0.674098
0.674094
0.67409
0.674086
0.674081
0.674077
0.674073
0.674069
0.674064
0.67406
0.674056
0.674052
0.674047
0.674043
0.674039
0.674035
0.67403
0.674026
0.674022
0.674018
0.674013
0.674009
0.674005
0.674001
0.673996
0.673992
0.673988
0.673984
0.673979
0.673975
0.673971
0.673966
0.673962
0.673958
0.673954
0.673949
0.673945
0.673941
0.673937
0.673932
0.673928
0.673924
0.67392
0.673915
0.673911
0.673907
0.673902
0.673898
0.673894
0.67389
0.673885
0.673881
0.673877
0.673873
0.673868
0.673863
)
;

boundaryField
{
    inlet
    {
        type            criticalFlowDepthInlet;
        criticalH       0.38;
        value           uniform 0.85752;
    }
    outlet
    {
        type            zeroGradient;
    }
    right
    {
        type            empty;
    }
    left
    {
        type            empty;
    }
    atmosphere
    {
        type            empty;
    }
    bottomWall
    {
        type            empty;
    }
}


// ************************************************************************* //
