/*--------------------------------*- C++ -*----------------------------------*\
| =========                 |                                                 |
| \\      /  F ield         | foam-extend: Open Source CFD                    |
|  \\    /   O peration     | Version:     3.1                                |
|   \\  /    A nd           | Web:         http://www.extend-project.de       |
|    \\/     M anipulation  |                                                 |
\*---------------------------------------------------------------------------*/
FoamFile
{
    version     2.0;
    format      ascii;
    class       volScalarField;
    location    "30";
    object      nut;
}
// * * * * * * * * * * * * * * * * * * * * * * * * * * * * * * * * * * * * * //

dimensions      [0 2 -1 0 0 0 0];

internalField   nonuniform List<scalar> 
2539
(
0.0351367
0.0351317
0.0351385
0.0351447
0.035151
0.0351573
0.0351637
0.03517
0.0351763
0.0351827
0.035189
0.0351954
0.0352018
0.0352082
0.0352146
0.035221
0.0352274
0.0352338
0.0352403
0.0352467
0.0352532
0.0352596
0.0352661
0.0352726
0.0352791
0.0352856
0.0352921
0.0352986
0.0353052
0.0353117
0.0353183
0.0353248
0.0353314
0.035338
0.0353446
0.0353512
0.0353578
0.0353645
0.0353711
0.0353778
0.0353844
0.0353911
0.0353978
0.0354045
0.0354112
0.0354179
0.0354246
0.0354313
0.0354381
0.0354448
0.0354516
0.0354584
0.0354652
0.035472
0.0354788
0.0354856
0.0354925
0.0354993
0.0355062
0.035513
0.0355199
0.0355268
0.0355337
0.0355406
0.0355476
0.0355545
0.0355615
0.0355684
0.0355754
0.0355824
0.0355894
0.0355964
0.0356034
0.0356105
0.0356175
0.0356246
0.0356316
0.0356387
0.0356458
0.0356529
0.03566
0.0356672
0.0356743
0.0356815
0.0356886
0.0356958
0.035703
0.0357102
0.0357175
0.0357247
0.0357319
0.0357392
0.0357465
0.0357538
0.0357611
0.0357684
0.0357757
0.035783
0.0357904
0.0357978
0.0358051
0.0358125
0.0358199
0.0358273
0.0358348
0.0358422
0.0358497
0.0358572
0.0358647
0.0358722
0.0358797
0.0358872
0.0358947
0.0359023
0.0359099
0.0359175
0.0359251
0.0359327
0.0359403
0.035948
0.0359556
0.0359633
0.035971
0.0359787
0.0359864
0.0359942
0.0360019
0.0360097
0.0360175
0.0360252
0.0360331
0.0360409
0.0360487
0.0360566
0.0360645
0.0360724
0.0360803
0.0360882
0.0360961
0.0361041
0.036112
0.03612
0.036128
0.036136
0.0361441
0.0361521
0.0361602
0.0361683
0.0361764
0.0361845
0.0361926
0.0362008
0.036209
0.0362172
0.0362254
0.0362336
0.0362418
0.0362501
0.0362584
0.0362666
0.036275
0.0362833
0.0362916
0.0363
0.0363084
0.0363168
0.0363252
0.0363336
0.0363421
0.0363506
0.0363591
0.0363676
0.0363761
0.0363847
0.0363932
0.0364018
0.0364104
0.0364191
0.0364277
0.0364364
0.0364451
0.0364538
0.0364625
0.0364713
0.0364698
0.0243246
0.0243458
0.0243485
0.0243503
0.0243521
0.0243538
0.0243555
0.0243573
0.024359
0.0243607
0.0243625
0.0243642
0.024366
0.0243677
0.0243695
0.0243712
0.0243729
0.0243747
0.0243764
0.0243782
0.0243799
0.0243817
0.0243835
0.0243852
0.024387
0.0243887
0.0243905
0.0243923
0.024394
0.0243958
0.0243975
0.0243993
0.0244011
0.0244029
0.0244046
0.0244064
0.0244082
0.0244099
0.0244117
0.0244135
0.0244153
0.0244171
0.0244188
0.0244206
0.0244224
0.0244242
0.024426
0.0244278
0.0244295
0.0244313
0.0244331
0.0244349
0.0244367
0.0244385
0.0244403
0.0244421
0.0244439
0.0244457
0.0244475
0.0244493
0.0244511
0.0244529
0.0244547
0.0244565
0.0244584
0.0244602
0.024462
0.0244638
0.0244656
0.0244674
0.0244692
0.0244711
0.0244729
0.0244747
0.0244765
0.0244784
0.0244802
0.024482
0.0244838
0.0244857
0.0244875
0.0244893
0.0244912
0.024493
0.0244948
0.0244967
0.0244985
0.0245004
0.0245022
0.0245041
0.0245059
0.0245078
0.0245096
0.0245115
0.0245133
0.0245152
0.024517
0.0245189
0.0245207
0.0245226
0.0245245
0.0245263
0.0245282
0.02453
0.0245319
0.0245338
0.0245357
0.0245375
0.0245394
0.0245413
0.0245431
0.024545
0.0245469
0.0245488
0.0245507
0.0245526
0.0245544
0.0245563
0.0245582
0.0245601
0.024562
0.0245639
0.0245658
0.0245677
0.0245696
0.0245715
0.0245734
0.0245753
0.0245772
0.0245791
0.024581
0.0245829
0.0245848
0.0245867
0.0245886
0.0245905
0.0245925
0.0245944
0.0245963
0.0245982
0.0246001
0.0246021
0.024604
0.0246059
0.0246078
0.0246098
0.0246117
0.0246136
0.0246156
0.0246175
0.0246195
0.0246214
0.0246233
0.0246253
0.0246272
0.0246292
0.0246311
0.0246331
0.024635
0.024637
0.0246389
0.0246409
0.0246428
0.0246448
0.0246468
0.0246487
0.0246507
0.0246527
0.0246546
0.0246566
0.0246586
0.0246605
0.0246625
0.0246645
0.0246665
0.0246684
0.0246704
0.0246724
0.0246744
0.0246764
0.0246784
0.0246804
0.0246824
0.0246843
0.0246863
0.0246883
0.0246903
0.0246923
0.0246943
0.0246963
0.0246984
0.0247004
0.0247024
0.0247044
0.0247064
0.0247084
0.0247104
0.0247127
0.0247103
0.0248005
0.0167864
0.0171214
0.0174979
0.0177204
0.017845
0.0179231
0.0179775
0.0180192
0.0180536
0.0180834
0.0181102
0.0181349
0.018158
0.0181799
0.0182007
0.0182207
0.01824
0.0182586
0.0182768
0.0182944
0.0183115
0.0183283
0.0183447
0.0183608
0.0183766
0.0183921
0.0184074
0.0184224
0.0184371
0.0184517
0.0184661
0.0184803
0.0184943
0.0185081
0.0185218
0.0185354
0.0185488
0.0185621
0.0185752
0.0185883
0.0186012
0.018614
0.0186268
0.0186394
0.0186519
0.0186644
0.0186768
0.0186891
0.0187013
0.0187134
0.0187255
0.0187375
0.0187495
0.0187614
0.0187732
0.018785
0.0187968
0.0188085
0.0188201
0.0188317
0.0188433
0.0188548
0.0188663
0.0188778
0.0188893
0.0189007
0.0189121
0.0189235
0.0189349
0.0189462
0.0189576
0.0189689
0.0189803
0.0189916
0.019003
0.0190144
0.0190258
0.0190372
0.0190486
0.0190601
0.0190716
0.0190831
0.0190947
0.0191064
0.0191182
0.01913
0.019142
0.0191541
0.0191663
0.0191786
0.0191912
0.0192039
0.019217
0.0192304
0.0192442
0.0192587
0.0192741
0.0192908
0.0193094
0.0193308
0.0193938
0.0194342
0.0194711
0.0195052
0.0195368
0.0195664
0.0195942
0.0196205
0.0196455
0.0196692
0.019692
0.0197137
0.0197347
0.0197548
0.0197743
0.0197931
0.0198113
0.0198289
0.0198461
0.0198628
0.019879
0.0198949
0.0199103
0.0199254
0.0199401
0.0199546
0.0199687
0.0199825
0.0199961
0.0200094
0.0200225
0.0200353
0.0200479
0.0200603
0.0200725
0.0200845
0.0200963
0.0201079
0.0201193
0.0201306
0.0201417
0.0201527
0.0201635
0.0201742
0.0201847
0.0201951
0.0202054
0.0202155
0.0202255
0.0202354
0.0202452
0.0202549
0.0202645
0.0202739
0.0202833
0.0202925
0.0203017
0.0203107
0.0203197
0.0203286
0.0203374
0.0203461
0.0203547
0.0203633
0.0203718
0.0203801
0.0203885
0.0203967
0.0204049
0.020413
0.020421
0.020429
0.0204369
0.0204447
0.0204524
0.0204602
0.0204678
0.0204754
0.0204829
0.0204904
0.0204978
0.0205051
0.0205124
0.0205197
0.0205269
0.020534
0.0205411
0.0205482
0.0205551
0.0205621
0.020569
0.0205758
0.0205827
0.0205894
0.020596
0.0206026
0.0206093
0.0206163
0.0206242
0.0206327
0.020639
0.0206432
0.0206473
0.0206515
0.0206556
0.0206597
0.0206638
0.0206679
0.020672
0.020676
0.0206801
0.0206841
0.0206881
0.0206921
0.0206961
0.0207
0.020704
0.0207079
0.0207118
0.0207157
0.0207196
0.0207234
0.0207273
0.0207311
0.020735
0.0207388
0.0207426
0.0207463
0.0207501
0.0207539
0.0207576
0.0207613
0.020765
0.0207687
0.0207724
0.0207761
0.0207798
0.0207834
0.0207871
0.0207907
0.0207943
0.0207979
0.0208015
0.0208051
0.0208086
0.0208122
0.0208157
0.0208192
0.0208228
0.0208263
0.0208298
0.0208332
0.0208367
0.0208402
0.0208436
0.020847
0.0208505
0.0208539
0.0208573
0.0208607
0.0208641
0.0208674
0.0208708
0.0208741
0.0208775
0.0208808
0.0208841
0.0208874
0.0208907
0.020894
0.0208973
0.0209006
0.0209038
0.0209071
0.0209103
0.0209135
0.0209168
0.02092
0.0209232
0.0209264
0.0209295
0.0209327
0.0209359
0.020939
0.0209422
0.0209453
0.0209484
0.0209515
0.0209546
0.0209577
0.0209608
0.0209639
0.020967
0.0209701
0.0209731
0.0209762
0.0209792
0.0209822
0.0209852
0.0209883
0.0209913
0.0209943
0.0209973
0.0210002
0.0210032
0.0210062
0.0210091
0.0210121
0.021015
0.0210179
0.0210209
0.0210238
0.0210267
0.0210296
0.0210325
0.0210354
0.0210383
0.0210411
0.021044
0.0210468
0.0210497
0.0210525
0.0210554
0.0210582
0.021061
0.0210638
0.0210666
0.0210694
0.0210722
0.021075
0.0210778
0.0210805
0.0210833
0.0210861
0.0210888
0.0210916
0.0210943
0.021097
0.0210997
0.0211025
0.0211052
0.0211079
0.0211106
0.0211133
0.0211159
0.0211186
0.0211213
0.0211239
0.0211266
0.0211292
0.0211319
0.0211345
0.0211372
0.0211398
0.0211424
0.021145
0.0211476
0.0211502
0.0211528
0.0211554
0.021158
0.0211606
0.0211631
0.0211657
0.0211682
0.0211708
0.0211733
0.0211759
0.0211784
0.0211809
0.0211835
0.021186
0.0211885
0.021191
0.0211935
0.021196
0.0211985
0.021201
0.0212034
0.0212059
0.0212084
0.0212108
0.0212133
0.0212158
0.0212182
0.0212206
0.0212231
0.0212255
0.0212279
0.0212303
0.0212328
0.0212352
0.0212376
0.02124
0.0212424
0.0212447
0.0212471
0.0212495
0.0212519
0.0212542
0.0212566
0.021259
0.0212613
0.0212637
0.021266
0.0212683
0.0212707
0.021273
0.0212753
0.0212776
0.0212799
0.0212822
0.0212845
0.0212868
0.0212891
0.0212914
0.0212937
0.021296
0.0212983
0.0213005
0.0213028
0.0213051
0.0213073
0.0213096
0.0213118
0.021314
0.0213163
0.0213185
0.0213207
0.021323
0.0213252
0.0213274
0.0213296
0.0213318
0.021334
0.0213362
0.0213384
0.0213406
0.0213428
0.021345
0.0213471
0.0213493
0.0213515
0.0213536
0.0213558
0.0213579
0.0213601
0.0213622
0.0213644
0.0213665
0.0213687
0.0213708
0.0213729
0.021375
0.0213771
0.0213793
0.0213814
0.0213835
0.0213856
0.0213877
0.0213898
0.0213918
0.0213939
0.021396
0.0213981
0.0214002
0.0214022
0.0214043
0.0214064
0.0214084
0.0214105
0.0214125
0.0214146
0.0214166
0.0214186
0.0214207
0.0214227
0.0214247
0.0214267
0.0214288
0.0214308
0.0214328
0.0214348
0.0214368
0.0214388
0.0214408
0.0214428
0.0214448
0.0214468
0.0214488
0.0214507
0.0214527
0.0214547
0.0214566
0.0214586
0.0214606
0.0214625
0.0214645
0.0214664
0.0214684
0.0214703
0.0214723
0.0214742
0.0214761
0.0214781
0.02148
0.0214819
0.0214838
0.0214857
0.0214877
0.0214896
0.0214915
0.0214934
0.0214953
0.0214972
0.0214991
0.0215009
0.0215028
0.0215047
0.0215066
0.0215085
0.0215103
0.0215122
0.0215141
0.0215159
0.0215178
0.0215197
0.0215215
0.0215234
0.0215252
0.0215271
0.0215289
0.0215307
0.0215326
0.0215344
0.0215362
0.021538
0.0215399
0.0215417
0.0215435
0.0215453
0.0215471
0.0215489
0.0215507
0.0215525
0.0215544
0.0215562
0.0215581
0.0215596
0.0215605
0.021562
0.0215644
0.0215668
0.0215691
0.0215715
0.0215738
0.0215762
0.0215785
0.0215809
0.0215832
0.0215855
0.0215879
0.0215902
0.0215925
0.0215948
0.0215971
0.0215994
0.0216017
0.021604
0.0216063
0.0216086
0.0216109
0.0216132
0.0216154
0.0216177
0.02162
0.0216222
0.0216245
0.0216267
0.021629
0.0216312
0.0216334
0.0216357
0.0216379
0.0216401
0.0216423
0.0216445
0.0216468
0.021649
0.0216512
0.0216534
0.0216555
0.0216577
0.0216599
0.0216621
0.0216643
0.0216665
0.0216686
0.0216708
0.0216729
0.0216751
0.0216772
0.0216794
0.0216815
0.0216837
0.0216858
0.0216879
0.0216901
0.0216922
0.0216943
0.0216964
0.0216985
0.0217007
0.0217028
0.0217049
0.021707
0.021709
0.0217111
0.0217132
0.0217153
0.0217174
0.0217194
0.0217215
0.0217236
0.0217256
0.0217277
0.0217298
0.0217318
0.0217339
0.0217359
0.0217379
0.02174
0.021742
0.021744
0.0217461
0.0217481
0.0217501
0.0217521
0.0217541
0.0217561
0.0217581
0.0217601
0.0217621
0.0217641
0.0217661
0.0217681
0.0217701
0.021772
0.021774
0.021776
0.021778
0.0217799
0.0217819
0.0217838
0.0217858
0.0217877
0.0217897
0.0217916
0.0217936
0.0217955
0.0217975
0.0217994
0.0218013
0.0218032
0.0218052
0.0218071
0.021809
0.0218109
0.0218128
0.0218147
0.0218166
0.0218185
0.0218204
0.0218223
0.0218242
0.0218261
0.0218279
0.0218298
0.0218317
0.0218336
0.0218354
0.0218373
0.0218392
0.021841
0.0218429
0.0218447
0.0218466
0.0218484
0.0218503
0.0218521
0.0218539
0.0218558
0.0218576
0.0218594
0.0218613
0.0218631
0.0218649
0.0218667
0.0218685
0.0218703
0.0218721
0.021874
0.0218758
0.0218776
0.0218793
0.0218811
0.0218829
0.0218847
0.0218865
0.0218883
0.0218901
0.0218918
0.0218936
0.0218954
0.0218971
0.0218989
0.0219007
0.0219024
0.0219042
0.0219059
0.0219077
0.0219094
0.0219112
0.021913
0.0219146
0.0219158
0.0219171
0.0219203
0.0219276
0.0266346
0.0266247
0.0266185
0.0266197
0.0266203
0.0266208
0.0266216
0.0266225
0.0266231
0.0266231
0.026623
0.0266231
0.0266233
0.0266233
0.0266228
0.0266224
0.0266218
0.0266212
0.0266205
0.0266194
0.0266184
0.0266171
0.0266157
0.0266145
0.0266131
0.0266115
0.0266097
0.0266076
0.0266055
0.0266035
0.0266013
0.0265989
0.0265962
0.0265933
0.0265906
0.0265876
0.0265846
0.0265816
0.0265784
0.0265747
0.0265713
0.0265678
0.0265639
0.0265597
0.0265557
0.0265514
0.0265469
0.0265426
0.026538
0.0265331
0.0265282
0.0265234
0.0265184
0.0265131
0.0265076
0.0265018
0.0264962
0.0264903
0.0264842
0.0264784
0.0264723
0.0264659
0.0264592
0.0264522
0.0264454
0.0264384
0.0264315
0.0264244
0.026417
0.0264093
0.0264015
0.0263937
0.0263856
0.0263773
0.026369
0.0263605
0.0263518
0.0263433
0.0263345
0.0263254
0.0263158
0.0263059
0.026296
0.026286
0.0262759
0.0262664
0.0262576
0.0262488
0.0262384
0.0262244
0.0262061
0.0261859
0.0261722
0.0261763
0.0262037
0.0262405
0.0262435
0.0261529
0.025936
0.0256524
0.0255143
0.0213225
0.0219821
0.0219838
0.0219855
0.0219871
0.0219888
0.0219905
0.0219921
0.0219938
0.0219954
0.0219971
0.0219987
0.0220004
0.022002
0.0220037
0.0220053
0.0220069
0.0220086
0.0220102
0.0220118
0.0220134
0.0220151
0.0220167
0.0220183
0.0220199
0.0220215
0.0220231
0.0220247
0.0220263
0.0220279
0.0220295
0.0220311
0.0220327
0.0220343
0.0220359
0.0220375
0.0220391
0.0220407
0.0220423
0.0220438
0.0220454
0.022047
0.0220486
0.0220501
0.0220517
0.0220533
0.0220548
0.0220564
0.0220579
0.0220595
0.022061
0.0220626
0.0220641
0.0220657
0.0220672
0.0220688
0.0220703
0.0220718
0.0220734
0.0220749
0.0220764
0.022078
0.0220795
0.022081
0.0220825
0.022084
0.0220856
0.0220871
0.0220886
0.0220901
0.0220916
0.0220931
0.0220946
0.0220961
0.0220976
0.0220991
0.0221006
0.0221021
0.0221036
0.0221051
0.0221065
0.022108
0.0221095
0.022111
0.0221124
0.0221137
0.0221151
0.0221173
0.0221208
0.0221229
0.0221228
0.0221227
0.0221226
0.0221225
0.0221224
0.0221224
0.0221223
0.0221222
0.0221221
0.022122
0.0221219
0.0221218
0.0221218
0.0221217
0.0221216
0.0221215
0.0221214
0.0221213
0.0221213
0.0221212
0.0221211
0.022121
0.0221209
0.0221208
0.0221208
0.0221207
0.0221206
0.0221205
0.0221204
0.0221203
0.0221203
0.0221202
0.0221201
0.02212
0.0221199
0.0221198
0.0221198
0.0221197
0.0221196
0.0221195
0.0221194
0.0221194
0.0221193
0.0221192
0.0221191
0.022119
0.0221189
0.0221189
0.0221188
0.0221187
0.0221186
0.0221185
0.0221184
0.0221184
0.0221183
0.0221182
0.0221181
0.022118
0.022118
0.0221179
0.0221178
0.0221177
0.0221176
0.0221176
0.0221175
0.0221174
0.0221173
0.0221172
0.0221171
0.0221171
0.022117
0.0221169
0.0221168
0.0221167
0.0221167
0.0221166
0.0221165
0.0221164
0.0221163
0.0221163
0.0221162
0.0221161
0.022116
0.0221159
0.0221159
0.0221158
0.0221157
0.0221156
0.0221155
0.0221155
0.0221154
0.0221153
0.0221152
0.0221151
0.0221151
0.022115
0.0221149
0.0221148
0.0221147
0.0221147
0.0221146
0.0221145
0.0221144
0.0221143
0.0221143
0.0221142
0.0221141
0.022114
0.0221139
0.0221139
0.0221138
0.0221137
0.0221136
0.0221135
0.0221135
0.0221134
0.0221133
0.0221132
0.0221131
0.0221131
0.022113
0.0221129
0.0221128
0.0221128
0.0221127
0.0221126
0.0221125
0.0221124
0.0221124
0.0221123
0.0221122
0.0221121
0.022112
0.022112
0.0221119
0.0221118
0.0221117
0.0221117
0.0221116
0.0221115
0.0221114
0.0221113
0.0221113
0.0221112
0.0221111
0.022111
0.022111
0.0221109
0.0221108
0.0221107
0.0221106
0.0221106
0.0221105
0.0221104
0.0221103
0.0221103
0.0221102
0.0221101
0.02211
0.0221099
0.0221099
0.0221098
0.0221097
0.0221096
0.0221096
0.0221095
0.0221094
0.0221093
0.0221093
0.0221092
0.0221091
0.022109
0.022109
0.0221089
0.0221088
0.0221087
0.0221086
0.0221086
0.0221085
0.0221084
0.0221083
0.0221083
0.0221082
0.0221081
0.022108
0.022108
0.0221079
0.0221078
0.0221077
0.0221077
0.0221076
0.0221075
0.0221074
0.0221074
0.0221073
0.0221072
0.0221071
0.0221071
0.022107
0.0221069
0.0221068
0.0221068
0.0221067
0.0221066
0.0221065
0.0221065
0.0221064
0.0221063
0.0221062
0.0221062
0.0221061
0.022106
0.0221059
0.0221059
0.0221058
0.0221057
0.0221056
0.0221056
0.0221055
0.0221054
0.0221053
0.0221053
0.0221052
0.0221051
0.022105
0.022105
0.0221049
0.0221048
0.0221047
0.0221047
0.0221046
0.0221045
0.0221044
0.0221044
0.0221043
0.0221042
0.0221041
0.0221041
0.022104
0.022104
0.022104
0.0221039
0.0221032
0.0221016
0.0221014
0.0221089
0.0221277
0.0221321
0.0220436
0.0218101
0.0217254
0.0227817
0.0254333
0.0262869
0.0215756
0.017222
0.0166991
0.0166999
0.0166987
0.0166975
0.0166963
0.0166951
0.0166939
0.0166927
0.0166915
0.0166903
0.0166891
0.0166879
0.0166867
0.0166855
0.0166843
0.0166832
0.016682
0.0166808
0.0166796
0.0166785
0.0166773
0.0166761
0.0166749
0.0166738
0.0166726
0.0166714
0.0166703
0.0166691
0.0166679
0.0166668
0.0166656
0.0166644
0.0166633
0.0166621
0.0166609
0.0166598
0.0166586
0.0166574
0.0166563
0.0166551
0.0166539
0.0166528
0.0166516
0.0166503
0.0166475
0.0166457
0.0166458
0.0166459
0.0166459
0.016646
0.016646
0.0166461
0.0166461
0.0166462
0.0166462
0.0166463
0.0166463
0.0166463
0.0166463
0.0166464
0.0166464
0.0166464
0.0166464
0.0166464
0.0166464
0.0166464
0.0166464
0.0166464
0.0166464
0.0166464
0.0166463
0.0166463
0.0166463
0.0166462
0.0166462
0.0166461
0.016646
0.016646
0.0166459
0.0166458
0.0166457
0.0166457
0.0166456
0.0166455
0.0166454
0.0166452
0.0166451
0.016645
0.0166449
0.0166447
0.0166446
0.0166444
0.0166443
0.0166441
0.0166439
0.0166438
0.0166436
0.0166434
0.0166432
0.016643
0.0166428
0.0166425
0.0166423
0.0166421
0.0166418
0.0166416
0.0166413
0.0166411
0.0166408
0.0166405
0.0166402
0.0166399
0.0166396
0.0166393
0.016639
0.0166387
0.0166384
0.016638
0.0166377
0.0166373
0.016637
0.0166366
0.0166362
0.0166358
0.0166355
0.0166351
0.0166347
0.0166342
0.0166338
0.0166334
0.016633
0.0166325
0.0166321
0.0166316
0.0166312
0.0166307
0.0166302
0.0166297
0.0166292
0.0166288
0.0166283
0.0166278
0.0166272
0.0166267
0.0166262
0.0166257
0.0166251
0.0166246
0.0166241
0.0166235
0.016623
0.0166224
0.0166219
0.0166213
0.0166207
0.0166202
0.0166196
0.016619
0.0166184
0.0166179
0.0166173
0.0166167
0.0166161
0.0166155
0.016615
0.0166144
0.0166138
0.0166132
0.0166126
0.016612
0.0166115
0.0166109
0.0166103
0.0166097
0.0166092
0.0166086
0.016608
0.0166074
0.0166069
0.0166063
0.0166058
0.0166052
0.0166046
0.0166041
0.0166036
0.016603
0.0166025
0.0166019
0.0166014
0.0166009
0.0166004
0.0165999
0.0165993
0.0165988
0.0165983
0.0165978
0.0165974
0.0165969
0.0165964
0.0165959
0.0165954
0.016595
0.0165945
0.0165941
0.0165936
0.0165932
0.0165927
0.0165923
0.0165919
0.0165914
0.016591
0.0165906
0.0165902
0.0165898
0.0165894
0.016589
0.0165886
0.0165882
0.0165878
0.0165875
0.0165871
0.0165867
0.0165863
0.016586
0.0165856
0.0165853
0.0165849
0.0165846
0.0165842
0.0165839
0.0165836
0.0165832
0.0165829
0.0165826
0.0165823
0.016582
0.0165817
0.0165813
0.016581
0.0165807
0.0165804
0.0165801
0.0165798
0.0165796
0.0165793
0.016579
0.0165787
0.0165784
0.0165782
0.0165779
0.0165776
0.0165773
0.0165771
0.0165768
0.0165765
0.0165763
0.016576
0.0165758
0.0165755
0.0165753
0.016575
0.0165748
0.0165745
0.0165743
0.0165741
0.0165738
0.0165736
0.0165734
0.0165731
0.0165729
0.0165727
0.0165724
0.0165722
0.016572
0.0165718
0.0165715
0.0165713
0.0165711
0.0165709
0.0165707
0.0165704
0.0165702
0.01657
0.0165698
0.0165696
0.0165694
0.0165691
0.0165689
0.0165687
0.0165685
0.0165683
0.0165681
0.0165679
0.0165677
0.0165674
0.0165672
0.016567
0.0165668
0.0165666
0.0165664
0.0165662
0.016566
0.0165657
0.0165655
0.0165653
0.0165651
0.0165649
0.0165647
0.0165645
0.0165643
0.016564
0.0165638
0.0165636
0.0165634
0.0165632
0.016563
0.0165628
0.0165625
0.0165623
0.0165621
0.0165619
0.0165617
0.0165615
0.0165613
0.016561
0.0165608
0.0165606
0.0165604
0.0165602
0.01656
0.0165597
0.0165595
0.0165593
0.0165591
0.0165589
0.0165587
0.0165585
0.0165583
0.016558
0.0165578
0.0165576
0.0165574
0.0165572
0.016557
0.0165568
0.0165566
0.0165563
0.0165561
0.0165559
0.0165557
0.0165555
0.0165553
0.0165551
0.0165549
0.0165547
0.0165545
0.0165543
0.016554
0.0165538
0.0165536
0.0165534
0.0165532
0.016553
0.0165528
0.0165526
0.0165524
0.0165522
0.016552
0.0165517
0.0165515
0.0165513
0.0165511
0.0165509
0.0165507
0.0165505
0.0165503
0.0165501
0.0165498
0.0165496
0.0165494
0.0165492
0.016549
0.0165488
0.0165486
0.0165483
0.0165481
0.0165479
0.0165477
0.0165475
0.0165473
0.016547
0.0165468
0.0165466
0.0165464
0.0165462
0.016546
0.0165457
0.0165455
0.0165453
0.0165451
0.0165449
0.0165447
0.0165444
0.0165442
0.016544
0.0165438
0.0165436
0.0165433
0.0165431
0.0165429
0.0165427
0.0165425
0.0165423
0.016542
0.0165418
0.0165416
0.0165414
0.0165412
0.016541
0.0165407
0.0165405
0.0165403
0.0165401
0.0165399
0.0165397
0.0165394
0.0165392
0.016539
0.0165388
0.0165386
0.0165384
0.0165381
0.0165379
0.0165377
0.0165375
0.0165373
0.016537
0.0165368
0.0165366
0.0165364
0.0165362
0.016536
0.0165357
0.0165355
0.0165353
0.0165351
0.0165349
0.0165346
0.0165344
0.0165342
0.016534
0.0165337
0.0165335
0.0165333
0.0165331
0.0165328
0.0165326
0.0165324
0.0165322
0.0165319
0.0165317
0.0165315
0.0165312
0.016531
0.0165308
0.0165306
0.0165303
0.0165301
0.0165299
0.0165296
0.0165294
0.0165292
0.0165289
0.0165287
0.0165284
0.0165282
0.016528
0.0165277
0.0165275
0.0165273
0.016527
0.0165268
0.0165265
0.0165263
0.0165261
0.0165258
0.0165256
0.0165253
0.0165251
0.0165249
0.0165246
0.0165244
0.0165241
0.0165239
0.0165236
0.0165234
0.0165232
0.0165229
0.0165227
0.0165224
0.0165222
0.0165219
0.0165217
0.0165214
0.0165212
0.016521
0.0165207
0.0165205
0.0165202
0.01652
0.0165197
0.0165195
0.0165192
0.016519
0.0165187
0.0165185
0.0165182
0.016518
0.0165177
0.0165175
0.0165172
0.016517
0.0165167
0.0165164
0.0165162
0.0165159
0.0165157
0.0165154
0.0165152
0.0165149
0.0165147
0.0165144
0.0165142
0.0165139
0.0165136
0.0165134
0.0165131
0.0165129
0.0165126
0.0165123
0.0165121
0.0165118
0.0165116
0.0165113
0.0165111
0.0165108
0.0165105
0.0165103
0.01651
0.0165098
0.0165095
0.0165093
0.016509
0.0165087
0.0165085
0.0165082
0.016508
0.0165077
0.0165075
0.0165072
0.016507
0.0165067
0.0165065
0.0165062
0.016506
0.0165057
0.0165055
0.0165052
0.016505
0.0165047
0.0165045
0.0165042
0.016504
0.0165037
0.0165035
0.0165032
0.016503
0.0165027
0.0165025
0.0165023
0.016502
0.0165018
0.0165015
0.0165013
0.0165011
0.0165008
0.0165006
0.0165004
0.0165001
0.0164999
0.0164996
0.0164994
0.0164992
0.0164989
0.0164987
0.0164985
0.0164983
0.016498
0.0164978
0.0164976
0.0164973
0.0164971
0.0164969
0.0164966
0.0164964
0.0164962
0.016496
0.0164957
0.0164955
0.0164953
0.0164951
0.0164948
0.0164946
0.0164944
0.0164942
0.016494
0.0164937
0.0164935
0.0164933
0.0164931
0.0164929
0.0164926
0.0164924
0.0164922
0.016492
0.0164918
0.0164916
0.0164913
0.0164911
0.0164909
0.0164907
0.0164905
0.0164903
0.0164901
0.0164899
0.0164897
0.0164895
0.0164892
0.016489
0.0164888
0.0164886
0.0164884
0.0164882
0.016488
0.0164878
0.0164876
0.0164874
0.0164872
0.016487
0.0164868
0.0164866
0.0164864
0.0164862
0.016486
0.0164858
0.0164856
0.0164854
0.0164852
0.016485
0.0164848
0.0164846
0.0164844
0.0164842
0.016484
0.0164838
0.0164836
0.0164834
0.0164832
0.016483
0.0164828
0.0164827
0.0164825
0.0164823
0.0164821
0.0164819
0.0164817
0.0164815
0.0164813
0.0164811
0.0164809
0.0164807
0.0164805
0.0164803
0.0164801
0.0164799
0.0164798
0.0164796
0.0164794
0.0164792
0.016479
0.0164788
0.0164786
0.0164784
0.0164782
0.016478
0.0164778
0.0164777
0.0164775
0.0164773
0.0164771
0.0164769
0.0164767
0.0164765
0.0164763
0.0164761
0.016476
0.0164758
0.0164756
0.0164754
0.0164752
0.016475
0.0164748
0.0164747
0.0164745
0.0164743
0.0164741
0.0164739
0.0164737
0.0164736
0.0164734
0.0164732
0.016473
0.0164728
0.0164726
0.0164725
0.0164723
0.0164721
0.0164719
0.0164717
0.0164715
0.0164714
0.0164712
0.016471
0.0164708
0.0164706
0.0164705
0.0164703
0.0164701
0.0164699
0.0164697
0.0164696
0.0164694
0.0164692
0.016469
0.0164688
0.0164687
0.0164685
0.0164683
0.0164681
0.016468
0.0164678
0.0164676
0.0164674
0.0164672
0.0164671
0.0164669
0.0164667
0.0164665
0.0164664
0.0164662
0.016466
0.0164658
0.0164657
0.0164655
0.0164653
0.0164651
0.016465
0.0164648
0.0164646
0.0164644
0.0164643
0.0164641
0.0164639
0.0164638
0.0164636
0.0164634
0.0164632
0.0164631
0.0164629
0.0164627
0.0164626
0.0164624
0.0164622
0.0164621
0.0164619
0.0164617
0.0164616
0.0164614
0.0164612
0.0164611
0.0164609
0.0164607
0.0164606
0.0164604
0.0164602
0.0164601
0.0164599
0.0164598
0.0164596
0.0164594
0.0164593
0.0164591
0.0164589
0.0164588
0.0164586
0.0164585
0.0164583
0.0164581
0.016458
0.0164578
0.0164577
0.0164575
0.0164573
0.0164572
0.016457
0.0164569
0.0164567
0.0164565
0.0164564
0.0164562
0.0164561
0.0164559
0.0164558
0.0164556
0.0164554
0.0164553
0.0164551
0.016455
0.0164548
0.0164547
0.0164545
0.0164544
0.0164542
0.0164541
0.0164539
0.0164537
0.0164536
0.0164534
0.0164533
0.0164531
0.016453
0.0164528
0.0164527
0.0164525
0.0164524
0.0164522
0.0164521
0.0164519
0.0164518
0.0164516
0.0164515
0.0164513
0.0164512
0.016451
0.0164509
0.0164507
0.0164506
0.0164504
0.0164503
0.0164501
0.01645
0.0164498
0.0164497
0.0164496
0.0164494
0.0164493
0.0164491
0.016449
0.0164488
0.0164487
0.0164485
0.0164484
0.0164482
0.0164481
0.016448
0.0164478
0.0164477
0.0164475
0.0164474
0.0164472
0.0164471
0.0164469
0.0164468
0.0164466
0.0164465
0.0164464
0.0164462
0.0164461
0.0164459
0.0164458
0.0164456
0.0164455
0.0164454
0.0164452
0.0164451
0.0164449
0.0164448
0.0164446
0.0164445
0.0164443
0.0164442
0.0164441
0.0164439
0.0164438
0.0164436
0.0164435
0.0164433
0.0164432
0.0164431
0.0164429
0.0164428
0.0164426
0.0164425
0.0164424
0.0164422
0.0164421
0.0164419
0.0164418
0.0164416
0.0164415
0.0164414
0.0164412
0.0164411
0.0164409
0.0164408
0.0164407
0.0164405
0.0164404
0.0164402
0.0164401
0.01644
0.0164398
0.0164397
0.0164395
0.0164394
0.0164393
0.0164391
0.016439
0.0164388
0.0164387
0.0164386
0.0164384
0.0164383
0.0164381
0.016438
0.0164379
0.0164377
0.0164376
0.0164375
0.0164373
0.0164372
0.016437
0.0164369
0.0164368
0.0164366
0.0164365
0.0164363
0.0164362
0.0164361
0.0164359
0.0164358
0.0164356
0.0164355
0.0164354
0.0164352
0.0164351
0.016435
0.0164348
0.0164347
0.0164345
0.0164344
0.0164343
0.0164341
0.016434
0.0164338
0.0164337
0.0164336
0.0164334
)
;

boundaryField
{
    inlet
    {
        type            zeroGradient;
    }
    outlet
    {
        type            zeroGradient;
    }
    right
    {
        type            empty;
    }
    left
    {
        type            empty;
    }
    atmosphere
    {
        type            empty;
    }
    bottomWall
    {
        type            empty;
    }
}


// ************************************************************************* //
