/*--------------------------------*- C++ -*----------------------------------*\
| =========                 |                                                 |
| \\      /  F ield         | foam-extend: Open Source CFD                    |
|  \\    /   O peration     | Version:     3.1                                |
|   \\  /    A nd           | Web:         http://www.extend-project.de       |
|    \\/     M anipulation  |                                                 |
\*---------------------------------------------------------------------------*/
FoamFile
{
    version     2.0;
    format      ascii;
    class       surfaceScalarField;
    location    "30";
    object      phi;
}
// * * * * * * * * * * * * * * * * * * * * * * * * * * * * * * * * * * * * * //

dimensions      [0 3 -1 0 0 0 0];

internalField   nonuniform List<scalar> 
2538
(
0.0728846
0.0729444
0.0730238
0.0731026
0.0731816
0.0732608
0.0733401
0.0734197
0.0734995
0.0735794
0.0736596
0.0737399
0.0738204
0.0739012
0.0739821
0.0740632
0.0741445
0.0742261
0.0743078
0.0743897
0.0744718
0.0745541
0.0746367
0.0747194
0.0748024
0.0748855
0.0749689
0.0750524
0.0751362
0.0752202
0.0753044
0.0753888
0.0754734
0.0755582
0.0756433
0.0757285
0.075814
0.0758997
0.0759856
0.0760717
0.0761581
0.0762446
0.0763314
0.0764184
0.0765057
0.0765931
0.0766808
0.0767687
0.0768569
0.0769452
0.0770338
0.0771227
0.0772117
0.077301
0.0773906
0.0774803
0.0775703
0.0776606
0.0777511
0.0778418
0.0779327
0.0780239
0.0781154
0.0782071
0.078299
0.0783912
0.0784836
0.0785763
0.0786692
0.0787623
0.0788558
0.0789494
0.0790434
0.0791376
0.079232
0.0793267
0.0794217
0.0795169
0.0796124
0.0797081
0.0798041
0.0799004
0.0799969
0.0800937
0.0801908
0.0802882
0.0803858
0.0804837
0.0805818
0.0806803
0.080779
0.080878
0.0809773
0.0810769
0.0811767
0.0812768
0.0813772
0.0814779
0.0815789
0.0816802
0.0817818
0.0818836
0.0819858
0.0820883
0.082191
0.0822941
0.0823974
0.0825011
0.082605
0.0827093
0.0828138
0.0829187
0.0830239
0.0831294
0.0832352
0.0833413
0.0834478
0.0835545
0.0836616
0.083769
0.0838768
0.0839848
0.0840932
0.0842019
0.0843109
0.0844203
0.08453
0.08464
0.0847504
0.0848611
0.0849722
0.0850836
0.0851953
0.0853074
0.0854199
0.0855327
0.0856458
0.0857593
0.0858732
0.0859874
0.086102
0.0862169
0.0863322
0.0864479
0.0865639
0.0866804
0.0867971
0.0869143
0.0870318
0.0871498
0.0872681
0.0873868
0.0875058
0.0876253
0.0877452
0.0878654
0.0879861
0.0881071
0.0882286
0.0883504
0.0884727
0.0885953
0.0887184
0.0888419
0.0889658
0.0890901
0.0892149
0.0893401
0.0894656
0.0895917
0.0897181
0.089845
0.0899724
0.0901001
0.0902283
0.090357
0.0904861
0.0906156
0.0907457
0.0908761
0.0910071
0.0911384
0.0912703
0.0914026
0.0915662
0.0917482
0.091856
0.0918988
0.0919383
0.0919777
0.0920171
0.0920565
0.0920959
0.0921354
0.092175
0.0922146
0.0922542
0.0922939
0.0923336
0.0923734
0.0924132
0.092453
0.0924929
0.0925329
0.0925728
0.0926129
0.0926529
0.092693
0.0927332
0.0927734
0.0928136
0.0928539
0.0928942
0.0929346
0.092975
0.0930154
0.0930559
0.0930965
0.0931371
0.0931777
0.0932184
0.0932591
0.0932999
0.0933407
0.0933816
0.0934225
0.0934634
0.0935044
0.0935454
0.0935865
0.0936276
0.0936688
0.09371
0.0937513
0.0937926
0.093834
0.0938754
0.0939168
0.0939583
0.0939999
0.0940414
0.0940831
0.0941248
0.0941665
0.0942083
0.0942501
0.094292
0.0943339
0.0943758
0.0944178
0.0944599
0.094502
0.0945442
0.0945864
0.0946286
0.0946709
0.0947132
0.0947556
0.0947981
0.0948406
0.0948831
0.0949257
0.0949683
0.095011
0.0950537
0.0950965
0.0951393
0.0951822
0.0952251
0.0952681
0.0953111
0.0953542
0.0953974
0.0954405
0.0954838
0.095527
0.0955704
0.0956137
0.0956572
0.0957006
0.0957442
0.0957877
0.0958314
0.095875
0.0959188
0.0959626
0.0960064
0.0960503
0.0960942
0.0961382
0.0961822
0.0962263
0.0962705
0.0963147
0.0963589
0.0964032
0.0964476
0.096492
0.0965364
0.0965809
0.0966255
0.0966701
0.0967148
0.0967595
0.0968043
0.0968491
0.096894
0.0969389
0.0969839
0.097029
0.0970741
0.0971192
0.0971644
0.0972097
0.097255
0.0973004
0.0973458
0.0973913
0.0974368
0.0974824
0.0975281
0.0975738
0.0976195
0.0976653
0.0977112
0.0977571
0.0978031
0.0978492
0.0978953
0.0979414
0.0979876
0.0980339
0.0980802
0.0981266
0.098173
0.0982195
0.0982661
0.0983127
0.0983593
0.0984061
0.0984528
0.0984997
0.0985466
0.0985935
0.0986406
0.0986876
0.0987348
0.098782
0.0988292
0.0988765
0.0989239
0.0989713
0.0990188
0.0990664
0.099114
0.0991617
0.0992094
0.0992572
0.099305
0.0993529
0.0994009
0.099449
0.0994971
0.0995452
0.0995934
0.0996417
0.0996901
0.0997385
0.0997869
0.0998355
0.0998841
0.0999327
0.0999814
0.10003
0.100079
0.100128
0.100177
0.100226
0.100275
0.100324
0.100373
0.100423
0.100471
0.10054
0.100208
0.10444
0.109114
0.114831
0.118449
0.120858
0.122638
0.124073
0.125306
0.126411
0.12743
0.128388
0.129298
0.130172
0.131015
0.131833
0.132629
0.133406
0.134167
0.134912
0.135644
0.136363
0.137072
0.137771
0.138461
0.139142
0.139816
0.140482
0.141142
0.141796
0.142445
0.143088
0.143726
0.144359
0.144989
0.145614
0.146236
0.146854
0.14747
0.148082
0.148691
0.149298
0.149903
0.150505
0.151106
0.151704
0.152301
0.152897
0.153491
0.154083
0.154675
0.155265
0.155855
0.156444
0.157032
0.15762
0.158208
0.158795
0.159382
0.159969
0.160557
0.161144
0.161733
0.162321
0.162911
0.163501
0.164093
0.164685
0.165279
0.165875
0.166472
0.167072
0.167674
0.168278
0.168885
0.169496
0.17011
0.170728
0.171351
0.171978
0.172612
0.173251
0.173898
0.174554
0.175219
0.175895
0.176584
0.177288
0.17801
0.178754
0.179525
0.180328
0.181172
0.182065
0.183021
0.184053
0.185181
0.186424
0.187801
0.18933
0.191016
0.195535
0.197523
0.199388
0.201146
0.202814
0.204403
0.205921
0.207378
0.20878
0.210132
0.21144
0.212706
0.213936
0.215131
0.216294
0.217428
0.218536
0.219618
0.220676
0.221712
0.222728
0.223724
0.224702
0.225663
0.226607
0.227535
0.228449
0.229348
0.230234
0.231107
0.231968
0.232817
0.233655
0.234482
0.235299
0.236106
0.236903
0.237691
0.23847
0.23924
0.240002
0.240756
0.241503
0.242241
0.242973
0.243697
0.244415
0.245126
0.24583
0.246529
0.247221
0.247907
0.248587
0.249262
0.249931
0.250595
0.251254
0.251908
0.252557
0.2532
0.25384
0.254474
0.255104
0.25573
0.256351
0.256968
0.257581
0.25819
0.258795
0.259396
0.259994
0.260587
0.261177
0.261763
0.262346
0.262926
0.263502
0.264074
0.264644
0.26521
0.265773
0.266333
0.266889
0.267443
0.267994
0.268542
0.269087
0.26963
0.270169
0.270706
0.27124
0.271772
0.2723
0.272827
0.273352
0.273878
0.274405
0.274924
0.275413
0.275837
0.276195
0.276526
0.276857
0.277187
0.277516
0.277844
0.278171
0.278497
0.278822
0.279146
0.279469
0.279791
0.280112
0.280432
0.280751
0.28107
0.281387
0.281704
0.282019
0.282334
0.282648
0.282961
0.283273
0.283584
0.283895
0.284204
0.284513
0.284821
0.285128
0.285434
0.28574
0.286044
0.286348
0.286651
0.286953
0.287255
0.287555
0.287855
0.288154
0.288453
0.28875
0.289047
0.289343
0.289639
0.289933
0.290227
0.29052
0.290813
0.291105
0.291396
0.291686
0.291976
0.292265
0.292553
0.29284
0.293127
0.293413
0.293699
0.293984
0.294268
0.294551
0.294834
0.295116
0.295398
0.295679
0.295959
0.296238
0.296517
0.296796
0.297073
0.297351
0.297627
0.297903
0.298178
0.298453
0.298727
0.299
0.299273
0.299545
0.299817
0.300088
0.300358
0.300628
0.300898
0.301166
0.301434
0.301702
0.301969
0.302236
0.302501
0.302767
0.303032
0.303296
0.30356
0.303823
0.304085
0.304347
0.304609
0.30487
0.305131
0.30539
0.30565
0.305909
0.306167
0.306425
0.306682
0.306939
0.307196
0.307452
0.307707
0.307962
0.308216
0.30847
0.308723
0.308976
0.309229
0.30948
0.309732
0.309983
0.310233
0.310483
0.310733
0.310982
0.31123
0.311478
0.311726
0.311973
0.31222
0.312466
0.312712
0.312957
0.313202
0.313446
0.31369
0.313934
0.314177
0.31442
0.314662
0.314904
0.315145
0.315386
0.315626
0.315866
0.316106
0.316345
0.316584
0.316822
0.31706
0.317298
0.317535
0.317771
0.318008
0.318243
0.318479
0.318714
0.318948
0.319183
0.319416
0.31965
0.319883
0.320115
0.320348
0.320579
0.320811
0.321042
0.321272
0.321503
0.321732
0.321962
0.322191
0.32242
0.322648
0.322876
0.323103
0.32333
0.323557
0.323784
0.32401
0.324235
0.324461
0.324686
0.32491
0.325134
0.325358
0.325582
0.325805
0.326027
0.32625
0.326472
0.326693
0.326915
0.327136
0.327356
0.327577
0.327797
0.328016
0.328235
0.328454
0.328673
0.328891
0.329109
0.329326
0.329543
0.32976
0.329977
0.330193
0.330408
0.330624
0.330839
0.331054
0.331268
0.331482
0.331696
0.33191
0.332123
0.332336
0.332548
0.33276
0.332972
0.333184
0.333395
0.333606
0.333817
0.334027
0.334237
0.334446
0.334656
0.334865
0.335073
0.335282
0.33549
0.335698
0.335905
0.336112
0.336319
0.336526
0.336732
0.336938
0.337144
0.337349
0.337554
0.337759
0.337963
0.338167
0.338371
0.338575
0.338778
0.338981
0.339184
0.339386
0.339588
0.33979
0.339991
0.340193
0.340393
0.340594
0.340794
0.340995
0.341194
0.341394
0.341593
0.341792
0.341991
0.342189
0.342387
0.342585
0.342783
0.34298
0.343177
0.343374
0.34357
0.343766
0.343962
0.344158
0.344353
0.344548
0.344743
0.344938
0.345132
0.345326
0.34552
0.345713
0.345907
0.3461
0.346292
0.346485
0.346677
0.346869
0.347061
0.347252
0.347443
0.347634
0.347825
0.348015
0.348205
0.348395
0.348585
0.348774
0.348963
0.349152
0.349341
0.349529
0.349717
0.349905
0.350092
0.35028
0.350467
0.350654
0.35084
0.351027
0.351213
0.351399
0.351584
0.35177
0.351955
0.35214
0.352324
0.352509
0.352693
0.352877
0.353061
0.353244
0.353427
0.35361
0.353793
0.353976
0.354158
0.35434
0.354522
0.354703
0.354885
0.355066
0.355247
0.355427
0.355608
0.355788
0.355968
0.356148
0.356327
0.356506
0.356685
0.356864
0.357043
0.357221
0.3574
0.357578
0.357753
0.357926
0.358099
0.358293
0.358516
0.358751
0.358986
0.359221
0.359455
0.359689
0.359922
0.360156
0.360388
0.360621
0.360853
0.361085
0.361317
0.361548
0.361779
0.362009
0.362239
0.362469
0.362699
0.362928
0.363157
0.363385
0.363614
0.363841
0.364069
0.364296
0.364523
0.36475
0.364976
0.365202
0.365427
0.365653
0.365878
0.366102
0.366327
0.366551
0.366774
0.366998
0.367221
0.367443
0.367666
0.367888
0.36811
0.368331
0.368552
0.368773
0.368994
0.369214
0.369434
0.369654
0.369873
0.370092
0.370311
0.370529
0.370747
0.370965
0.371183
0.3714
0.371617
0.371834
0.37205
0.372266
0.372482
0.372697
0.372912
0.373127
0.373342
0.373556
0.37377
0.373984
0.374197
0.37441
0.374623
0.374836
0.375048
0.37526
0.375472
0.375683
0.375894
0.376105
0.376316
0.376526
0.376736
0.376946
0.377155
0.377364
0.377573
0.377782
0.37799
0.378198
0.378406
0.378613
0.378821
0.379028
0.379234
0.379441
0.379647
0.379853
0.380058
0.380264
0.380469
0.380674
0.380878
0.381083
0.381287
0.38149
0.381694
0.381897
0.3821
0.382303
0.382505
0.382707
0.382909
0.383111
0.383312
0.383513
0.383714
0.383915
0.384115
0.384315
0.384515
0.384715
0.384914
0.385113
0.385312
0.385511
0.385709
0.385907
0.386105
0.386303
0.3865
0.386697
0.386894
0.38709
0.387287
0.387483
0.387679
0.387874
0.38807
0.388265
0.38846
0.388654
0.388849
0.389043
0.389237
0.38943
0.389624
0.389817
0.39001
0.390202
0.390395
0.390587
0.390779
0.390971
0.391162
0.391353
0.391544
0.391735
0.391926
0.392116
0.392306
0.392496
0.392686
0.392875
0.393064
0.393253
0.393442
0.39363
0.393819
0.394007
0.394195
0.394382
0.394568
0.394752
0.394938
0.395136
0.395359
0.395572
0.395643
0.395441
0.395299
0.395274
0.395329
0.395372
0.395414
0.395449
0.395467
0.395466
0.395454
0.395439
0.395419
0.395385
0.395334
0.395273
0.395202
0.39512
0.395027
0.394921
0.394803
0.394676
0.39454
0.394397
0.394244
0.394075
0.393892
0.393696
0.39349
0.393278
0.393053
0.392814
0.392561
0.392298
0.392028
0.391748
0.391459
0.391159
0.390847
0.390519
0.390182
0.389836
0.389473
0.389096
0.38871
0.388315
0.387909
0.387495
0.387068
0.386629
0.38618
0.385722
0.385252
0.384766
0.384265
0.383753
0.383233
0.382702
0.382161
0.381612
0.381049
0.380469
0.379874
0.379267
0.378653
0.378032
0.377402
0.376758
0.376097
0.375421
0.374733
0.374034
0.373323
0.372599
0.371866
0.371121
0.370365
0.369598
0.368816
0.368014
0.367193
0.366358
0.365518
0.364674
0.363828
0.362977
0.362114
0.361211
0.36024
0.359201
0.358151
0.357213
0.356532
0.356134
0.355735
0.354664
0.352131
0.347973
0.343599
0.342383
0.348691
0.364717
0.383835
0.402276
0.402458
0.402641
0.402823
0.403005
0.403187
0.403368
0.403549
0.40373
0.403911
0.404092
0.404272
0.404453
0.404633
0.404812
0.404992
0.405171
0.405351
0.405529
0.405708
0.405887
0.406065
0.406243
0.406421
0.406599
0.406776
0.406954
0.407131
0.407308
0.407484
0.407661
0.407837
0.408013
0.408189
0.408364
0.40854
0.408715
0.40889
0.409065
0.40924
0.409414
0.409588
0.409762
0.409936
0.41011
0.410283
0.410456
0.410629
0.410802
0.410975
0.411147
0.41132
0.411492
0.411663
0.411835
0.412006
0.412178
0.412349
0.41252
0.41269
0.412861
0.413031
0.413201
0.413371
0.413541
0.41371
0.41388
0.414049
0.414218
0.414386
0.414555
0.414723
0.414891
0.415059
0.415227
0.415395
0.415562
0.415729
0.415896
0.416063
0.41623
0.416396
0.416561
0.416727
0.416898
0.417077
0.417246
0.417353
0.417379
0.417369
0.417359
0.41735
0.41734
0.417331
0.417321
0.417312
0.417302
0.417293
0.417283
0.417274
0.417264
0.417255
0.417245
0.417236
0.417227
0.417217
0.417208
0.417198
0.417189
0.417179
0.41717
0.41716
0.417151
0.417142
0.417132
0.417123
0.417113
0.417104
0.417095
0.417085
0.417076
0.417067
0.417057
0.417048
0.417038
0.417029
0.41702
0.41701
0.417001
0.416992
0.416982
0.416973
0.416964
0.416955
0.416945
0.416936
0.416927
0.416917
0.416908
0.416899
0.41689
0.41688
0.416871
0.416862
0.416853
0.416843
0.416834
0.416825
0.416816
0.416806
0.416797
0.416788
0.416779
0.41677
0.416761
0.416751
0.416742
0.416733
0.416724
0.416715
0.416706
0.416696
0.416687
0.416678
0.416669
0.41666
0.416651
0.416642
0.416632
0.416623
0.416614
0.416605
0.416596
0.416587
0.416578
0.416569
0.41656
0.416551
0.416542
0.416533
0.416524
0.416515
0.416506
0.416496
0.416487
0.416478
0.416469
0.41646
0.416451
0.416442
0.416433
0.416424
0.416415
0.416406
0.416398
0.416389
0.41638
0.416371
0.416362
0.416353
0.416344
0.416335
0.416326
0.416317
0.416308
0.416299
0.41629
0.416281
0.416272
0.416264
0.416255
0.416246
0.416237
0.416228
0.416219
0.41621
0.416202
0.416193
0.416184
0.416175
0.416166
0.416157
0.416148
0.41614
0.416131
0.416122
0.416113
0.416104
0.416096
0.416087
0.416078
0.416069
0.416061
0.416052
0.416043
0.416034
0.416026
0.416017
0.416008
0.415999
0.415991
0.415982
0.415973
0.415964
0.415956
0.415947
0.415938
0.41593
0.415921
0.415912
0.415904
0.415895
0.415886
0.415878
0.415869
0.41586
0.415852
0.415843
0.415834
0.415826
0.415817
0.415808
0.4158
0.415791
0.415783
0.415774
0.415765
0.415757
0.415748
0.41574
0.415731
0.415723
0.415714
0.415705
0.415697
0.415688
0.41568
0.415671
0.415663
0.415654
0.415646
0.415637
0.415629
0.41562
0.415612
0.415603
0.415595
0.415586
0.415578
0.415569
0.415561
0.415552
0.415544
0.415535
0.415527
0.415518
0.41551
0.415501
0.415493
0.415485
0.415476
0.415468
0.415459
0.415451
0.415443
0.415434
0.415426
0.415417
0.415409
0.415401
0.415392
0.415384
0.415375
0.415367
0.415359
0.41535
0.415342
0.415334
0.415325
0.415317
0.415309
0.4153
0.415292
0.415284
0.415275
0.415267
0.415259
0.415252
0.415243
0.41523
0.415213
0.415206
0.415252
0.415359
0.415342
0.414709
0.41328
0.413193
0.420582
0.438918
0.441713
0.367228
0.226574
0.123782
0.0936077
0.091104
0.0910731
0.0910329
0.0909927
0.0909525
0.0909124
0.0908724
0.0908324
0.0907924
0.0907525
0.0907127
0.0906728
0.0906331
0.0905934
0.0905537
0.0905141
0.0904745
0.0904349
0.0903954
0.090356
0.0903166
0.0902772
0.0902379
0.0901986
0.0901594
0.0901202
0.090081
0.0900419
0.0900028
0.0899637
0.0899247
0.0898857
0.0898467
0.0898078
0.0897689
0.0897301
0.0896912
0.0896524
0.0896137
0.0895749
0.0895362
0.0894975
0.0894587
0.0894208
0.0893943
0.0893872
0.0893887
0.08939
0.0893913
0.0893926
0.0893938
0.089395
0.0893963
0.0893974
0.0893986
0.0893997
0.0894008
0.0894019
0.0894029
0.089404
0.089405
0.0894059
0.0894068
0.0894077
0.0894086
0.0894094
0.0894102
0.089411
0.0894117
0.0894124
0.089413
0.0894136
0.0894142
0.0894147
0.0894152
0.0894157
0.0894161
0.0894165
0.0894168
0.089417
0.0894173
0.0894175
0.0894176
0.0894177
0.0894177
0.0894177
0.0894177
0.0894176
0.0894174
0.0894172
0.089417
0.0894167
0.0894164
0.089416
0.0894155
0.089415
0.0894144
0.0894138
0.0894131
0.0894124
0.0894116
0.0894108
0.0894099
0.089409
0.089408
0.0894069
0.0894058
0.0894046
0.0894034
0.0894021
0.0894008
0.0893994
0.0893979
0.0893964
0.0893948
0.0893932
0.0893915
0.0893897
0.0893879
0.0893861
0.0893841
0.0893822
0.0893801
0.089378
0.0893759
0.0893737
0.0893714
0.0893691
0.0893667
0.0893643
0.0893618
0.0893593
0.0893567
0.0893541
0.0893514
0.0893486
0.0893458
0.089343
0.0893401
0.0893372
0.0893343
0.0893312
0.0893282
0.0893251
0.089322
0.0893188
0.0893156
0.0893124
0.0893091
0.0893058
0.0893025
0.0892991
0.0892958
0.0892924
0.0892889
0.0892855
0.089282
0.0892785
0.089275
0.0892715
0.089268
0.0892645
0.0892609
0.0892574
0.0892538
0.0892503
0.0892467
0.0892432
0.0892396
0.0892361
0.0892325
0.089229
0.0892255
0.089222
0.0892185
0.089215
0.0892116
0.0892081
0.0892047
0.0892013
0.0891979
0.0891946
0.0891912
0.0891879
0.0891847
0.0891814
0.0891782
0.089175
0.0891719
0.0891687
0.0891656
0.0891626
0.0891596
0.0891566
0.0891536
0.0891507
0.0891478
0.089145
0.0891422
0.0891394
0.0891367
0.089134
0.0891314
0.0891287
0.0891262
0.0891236
0.0891211
0.0891187
0.0891162
0.0891139
0.0891115
0.0891092
0.0891069
0.0891047
0.0891025
0.0891003
0.0890982
0.0890961
0.0890941
0.089092
0.08909
0.0890881
0.0890862
0.0890843
0.0890824
0.0890806
0.0890788
0.089077
0.0890753
0.0890736
0.0890719
0.0890703
0.0890686
0.089067
0.0890655
0.0890639
0.0890624
0.0890609
0.0890595
0.089058
0.0890566
0.0890552
0.0890538
0.0890525
0.0890512
0.0890499
0.0890486
0.0890473
0.0890461
0.0890448
0.0890436
0.0890424
0.0890413
0.0890401
0.089039
0.0890379
0.0890367
0.0890357
0.0890346
0.0890335
0.0890325
0.0890314
0.0890304
0.0890294
0.0890284
0.0890275
0.0890265
0.0890255
0.0890246
0.0890236
0.0890227
0.0890218
0.0890209
0.08902
0.0890191
0.0890182
0.0890173
0.0890165
0.0890156
0.0890148
0.0890139
0.0890131
0.0890122
0.0890114
0.0890105
0.0890097
0.0890089
0.0890081
0.0890073
0.0890064
0.0890056
0.0890048
0.089004
0.0890032
0.0890024
0.0890016
0.0890008
0.089
0.0889992
0.0889984
0.0889976
0.0889968
0.088996
0.0889952
0.0889944
0.0889936
0.0889928
0.088992
0.0889912
0.0889904
0.0889896
0.0889888
0.088988
0.0889871
0.0889863
0.0889855
0.0889847
0.0889839
0.0889831
0.0889823
0.0889815
0.0889807
0.0889799
0.0889791
0.0889783
0.0889774
0.0889766
0.0889758
0.088975
0.0889742
0.0889734
0.0889726
0.0889718
0.088971
0.0889702
0.0889694
0.0889686
0.0889678
0.0889669
0.0889661
0.0889653
0.0889645
0.0889637
0.0889629
0.0889621
0.0889614
0.0889606
0.0889598
0.088959
0.0889582
0.0889574
0.0889566
0.0889558
0.088955
0.0889542
0.0889534
0.0889526
0.0889518
0.088951
0.0889502
0.0889494
0.0889486
0.0889479
0.0889471
0.0889463
0.0889455
0.0889447
0.0889439
0.0889431
0.0889423
0.0889415
0.0889407
0.0889399
0.088939
0.0889382
0.0889374
0.0889366
0.0889358
0.088935
0.0889342
0.0889334
0.0889325
0.0889317
0.0889309
0.0889301
0.0889292
0.0889284
0.0889276
0.0889267
0.0889259
0.0889251
0.0889242
0.0889234
0.0889226
0.0889217
0.0889209
0.08892
0.0889192
0.0889184
0.0889175
0.0889167
0.0889158
0.088915
0.0889141
0.0889133
0.0889124
0.0889116
0.0889107
0.0889099
0.088909
0.0889082
0.0889073
0.0889065
0.0889057
0.0889048
0.088904
0.0889031
0.0889023
0.0889014
0.0889006
0.0888997
0.0888989
0.088898
0.0888972
0.0888963
0.0888955
0.0888946
0.0888937
0.0888929
0.088892
0.0888912
0.0888903
0.0888895
0.0888886
0.0888877
0.0888869
0.088886
0.0888852
0.0888843
0.0888834
0.0888825
0.0888817
0.0888808
0.0888799
0.088879
0.0888781
0.0888772
0.0888764
0.0888755
0.0888746
0.0888737
0.0888728
0.0888718
0.0888709
0.08887
0.0888691
0.0888682
0.0888673
0.0888663
0.0888654
0.0888645
0.0888635
0.0888626
0.0888616
0.0888607
0.0888597
0.0888587
0.0888578
0.0888568
0.0888558
0.0888549
0.0888539
0.0888529
0.0888519
0.0888509
0.0888499
0.0888489
0.0888479
0.0888469
0.0888459
0.0888449
0.0888439
0.0888429
0.0888419
0.0888409
0.0888398
0.0888388
0.0888378
0.0888367
0.0888357
0.0888347
0.0888336
0.0888326
0.0888315
0.0888305
0.0888294
0.0888284
0.0888273
0.0888262
0.0888252
0.0888241
0.088823
0.088822
0.0888209
0.0888198
0.0888187
0.0888176
0.0888165
0.0888154
0.0888143
0.0888132
0.0888121
0.088811
0.0888099
0.0888088
0.0888077
0.0888066
0.0888055
0.0888043
0.0888032
0.0888021
0.088801
0.0887998
0.0887987
0.0887976
0.0887964
0.0887953
0.0887941
0.088793
0.0887918
0.0887907
0.0887895
0.0887884
0.0887872
0.0887861
0.0887849
0.0887838
0.0887826
0.0887815
0.0887803
0.0887792
0.088778
0.0887768
0.0887757
0.0887745
0.0887734
0.0887722
0.0887711
0.0887699
0.0887688
0.0887676
0.0887665
0.0887653
0.0887642
0.088763
0.0887619
0.0887608
0.0887596
0.0887585
0.0887574
0.0887563
0.0887551
0.088754
0.0887529
0.0887518
0.0887507
0.0887496
0.0887485
0.0887474
0.0887463
0.0887453
0.0887442
0.0887431
0.088742
0.088741
0.0887399
0.0887389
0.0887378
0.0887368
0.0887357
0.0887347
0.0887337
0.0887326
0.0887316
0.0887306
0.0887296
0.0887286
0.0887276
0.0887266
0.0887256
0.0887246
0.0887236
0.0887226
0.0887216
0.0887207
0.0887197
0.0887187
0.0887178
0.0887168
0.0887159
0.0887149
0.088714
0.0887131
0.0887121
0.0887112
0.0887103
0.0887094
0.0887084
0.0887075
0.0887066
0.0887057
0.0887048
0.0887039
0.0887031
0.0887022
0.0887013
0.0887004
0.0886996
0.0886987
0.0886978
0.088697
0.0886961
0.0886953
0.0886944
0.0886936
0.0886928
0.0886919
0.0886911
0.0886903
0.0886895
0.0886887
0.0886879
0.0886871
0.0886863
0.0886855
0.0886847
0.0886839
0.0886831
0.0886823
0.0886816
0.0886808
0.08868
0.0886793
0.0886785
0.0886778
0.088677
0.0886763
0.0886755
0.0886748
0.088674
0.0886733
0.0886726
0.0886718
0.0886711
0.0886704
0.0886697
0.088669
0.0886683
0.0886675
0.0886668
0.0886661
0.0886654
0.0886647
0.088664
0.0886633
0.0886626
0.0886619
0.0886612
0.0886606
0.0886599
0.0886592
0.0886585
0.0886578
0.0886571
0.0886565
0.0886558
0.0886551
0.0886544
0.0886538
0.0886531
0.0886524
0.0886518
0.0886511
0.0886504
0.0886498
0.0886491
0.0886484
0.0886478
0.0886471
0.0886465
0.0886458
0.0886452
0.0886445
0.0886439
0.0886432
0.0886426
0.0886419
0.0886413
0.0886406
0.08864
0.0886394
0.0886387
0.0886381
0.0886375
0.0886368
0.0886362
0.0886356
0.088635
0.0886343
0.0886337
0.0886331
0.0886325
0.0886319
0.0886312
0.0886306
0.08863
0.0886294
0.0886288
0.0886282
0.0886276
0.088627
0.0886264
0.0886258
0.0886252
0.0886246
0.088624
0.0886234
0.0886228
0.0886222
0.0886216
0.0886211
0.0886205
0.0886199
0.0886193
0.0886187
0.0886181
0.0886176
0.088617
0.0886164
0.0886158
0.0886153
0.0886147
0.0886141
0.0886135
0.088613
0.0886124
0.0886118
0.0886113
0.0886107
0.0886102
0.0886096
0.088609
0.0886085
0.0886079
0.0886074
0.0886068
0.0886063
0.0886057
0.0886052
0.0886046
0.0886041
0.0886036
0.088603
0.0886025
0.0886019
0.0886014
0.0886009
0.0886004
0.0885998
0.0885993
0.0885988
0.0885983
0.0885978
0.0885973
0.0885967
0.0885962
0.0885957
0.0885952
0.0885947
0.0885942
0.0885937
0.0885932
0.0885927
0.0885923
0.0885918
0.0885913
0.0885908
0.0885903
0.0885899
0.0885894
0.0885889
0.0885884
0.088588
0.0885875
0.0885871
0.0885866
0.0885861
0.0885857
0.0885852
0.0885848
0.0885843
0.0885839
0.0885835
0.088583
0.0885826
0.0885821
0.0885817
0.0885813
0.0885808
0.0885804
0.08858
0.0885796
0.0885791
0.0885787
0.0885783
0.0885779
0.0885775
0.088577
0.0885766
0.0885762
0.0885758
0.0885754
0.088575
0.0885746
0.0885742
0.0885738
0.0885734
0.088573
0.0885726
0.0885722
0.0885718
0.0885715
0.0885711
0.0885707
0.0885703
0.0885699
0.0885696
0.0885692
0.0885688
0.0885684
0.0885681
0.0885677
0.0885673
0.088567
0.0885666
0.0885662
0.0885659
0.0885655
0.0885652
0.0885648
0.0885645
0.0885641
0.0885638
0.0885634
0.0885631
0.0885627
0.0885624
0.088562
0.0885617
0.0885614
0.088561
0.0885607
0.0885603
0.08856
0.0885597
0.0885593
0.088559
0.0885587
0.0885584
0.088558
0.0885577
0.0885574
0.088557
0.0885567
0.0885564
0.0885561
0.0885558
0.0885554
0.0885551
0.0885548
0.0885545
0.0885542
0.0885538
0.0885535
0.0885532
0.0885529
0.0885526
0.0885523
0.0885519
0.0885516
0.0885513
0.088551
0.0885507
0.0885504
0.0885501
0.0885498
0.0885495
0.0885491
0.0885488
0.0885485
0.0885482
0.0885479
0.0885476
0.0885473
0.088547
0.0885467
0.0885464
0.0885461
0.0885458
0.0885455
0.0885452
0.0885449
0.0885446
0.0885443
0.088544
0.0885437
0.0885434
0.0885431
0.0885428
0.0885425
0.0885422
0.0885419
0.0885416
0.0885413
0.0885411
0.0885408
0.0885405
0.0885402
0.0885399
0.0885396
0.0885393
0.088539
0.0885387
0.0885385
0.0885382
0.0885379
0.0885376
0.0885373
0.088537
0.0885367
0.0885364
0.0885362
0.0885359
0.0885356
0.0885353
0.088535
0.0885347
0.0885345
0.0885342
0.0885339
0.0885336
0.0885333
0.0885331
0.0885328
0.0885325
0.0885322
0.0885319
0.0885317
0.0885314
0.0885311
0.0885308
0.0885305
0.0885303
0.08853
0.0885297
0.0885294
0.0885291
0.0885289
0.0885286
0.0885283
0.088528
0.0885278
0.0885275
0.0885272
0.0885269
0.0885267
0.0885264
)
;

boundaryField
{
    inlet
    {
        type            calculated;
        value           uniform -0.0728846;
    }
    outlet
    {
        type            calculated;
        value           uniform 0.0885262;
    }
    right
    {
        type            empty;
    }
    left
    {
        type            empty;
    }
    atmosphere
    {
        type            empty;
    }
    bottomWall
    {
        type            empty;
    }
}


// ************************************************************************* //
