/*--------------------------------*- C++ -*----------------------------------*\
| =========                 |                                                 |
| \\      /  F ield         | foam-extend: Open Source CFD                    |
|  \\    /   O peration     | Version:     3.1                                |
|   \\  /    A nd           | Web:         http://www.extend-project.de       |
|    \\/     M anipulation  |                                                 |
\*---------------------------------------------------------------------------*/
FoamFile
{
    version     2.0;
    format      ascii;
    class       volScalarField;
    location    "13.5";
    object      alpha1;
}
// * * * * * * * * * * * * * * * * * * * * * * * * * * * * * * * * * * * * * //

dimensions      [0 0 0 0 0 0 0];

internalField   nonuniform List<scalar> 
119952
(
0.9998623
0.9998803
0.9999988
0.999999
0.9999997
0.9999999
1
1
0.9999999
0.9999985
1
1
0.9999994
0.9996787
0.9993492
0.999963
0.9998351
0.9793787
0.999257
0.9978562
0.9997948
0.9999382
0.9988181
0.9999988
0.9996999
0.9999612
0.9999494
0.9981127
0.99878
1
0.9998856
0.9962575
0.9732316
0.9997782
0.9999848
0.9999844
0.999843
0.9999999
0.9992637
0.999867
0.9996597
0.9999707
0.9999926
0.9928038
0.999302
0.9998591
0.9503257
0.9446413
0.9860152
0.9566289
0.9870357
0.9979156
0.9919072
0.983277
0.9969408
0.9802223
0.9182124
0.9367847
0.9987868
0.9997532
0.9663203
0.9768612
0.9926568
0.9871535
0.9977428
0.9983059
0.9984066
0.9995841
0.9979802
0.9993814
0.9999896
0.9998494
0.9992718
0.9968166
0.9924795
0.9925155
0.991778
0.9903828
0.9898871
0.9920288
0.9927504
0.992616
0.9924312
0.9955832
0.9981313
0.9996703
0.9999904
0.9999656
0.9984697
0.979891
0.9977752
0.9996383
0.9998774
0.9998777
0.9962908
0.9934681
0.9980831
0.9998437
0.9998042
0.9987524
0.9994959
0.999731
0.9985887
0.9993176
0.9999453
0.9993197
0.9993434
0.9999275
0.9997957
0.9994844
0.9999758
0.9999746
0.9992539
0.9992197
0.999953
0.9996591
0.9999933
0.9999996
0.9999223
0.9998137
0.9999851
0.9999556
0.999021
0.999985
0.999873
0.9949339
0.9985061
0.9999831
0.9999475
0.9999909
0.9999904
0.9999987
0.9999987
0.9980373
0.9898099
0.9914445
0.9999109
0.9999945
0.999999
0.9999992
0.9997974
0.9989286
0.9999124
0.9999876
0.9970797
0.9904209
0.9905215
0.9992482
0.9999798
0.9999392
0.9951557
0.9901958
0.9905695
0.9987355
0.9985351
0.994375
0.9978105
0.9981233
0.9950051
0.9973977
0.9985815
0.9988178
0.9951788
0.991704
0.9969521
0.9996036
0.9989278
0.9885967
0.9907851
0.9995473
0.9999379
0.9954478
0.9893906
0.9988264
0.9999521
0.9999897
0.9999874
0.9999754
0.9999601
0.9936914
0.9968142
0.9999738
0.9996526
0.9974735
0.9888002
0.999398
0.9999943
0.9998798
0.9996853
0.999883
0.999997
0.9999477
0.9995276
0.9999523
0.9999998
0.9999995
0.9999998
1
1
1
0.9999999
1
0.9999995
1
0.9999997
0.9999992
1
1
1
1
1
1
1
0.9999998
0.9999997
1
1
1
0.9999998
1
0.9999999
0.9999997
1
0.9999994
0.9999955
1
0.9999888
0.999987
0.9999997
0.9999895
0.9999999
0.9999775
0.9999991
0.9999982
0.999999
0.9999979
0.9999984
0.9999997
0.9999997
0.9999972
0.9999995
0.9999973
0.9999968
0.9999996
0.9999996
0.9999995
0.9999998
1
0.9999998
0.9999997
0.9999999
0.9999997
1
0.9999992
1
1
0.9999999
1
1
1
1
1
1
1
1
0.9999998
1
1
1
0.9999917
0.9999813
0.9999373
0.9999376
0.999999
1
1
1
1
1
1
1
1
0.9999997
0.9999999
0.9999996
0.9999989
0.9999999
1
1
1
0.9999997
0.9999986
0.999995
0.9999904
0.9999867
0.999984
0.9999824
0.999984
0.9999833
0.9999827
0.999991
0.9999977
0.9999998
0.9999975
0.9999982
0.9999998
1
1
1
1
0.9999994
0.9999981
0.999999
0.9999997
0.9999998
1
1
1
1
1
1
1
1
1
1
1
1
1
1
1
1
1
1
1
1
1
1
1
1
1
1
1
1
1
1
1
1
1
1
1
1
1
1
1
1
1
1
1
1
1
1
1
1
1
1
1
1
1
1
1
1
1
1
1
1
1
1
1
1
1
1
1
1
1
1
1
1
1
1
1
1
1
1
1
1
1
1
1
1
1
1
1
1
1
1
1
0.9999999
1
0.9999915
1
0.9999299
0.9999993
0.9999907
0.9999199
0.999918
0.9995545
0.9997973
0.9997804
0.9998038
0.9998681
0.9999421
0.9996565
0.9998556
0.9997775
0.9985805
0.9950264
0.9955337
0.9998925
0.9999997
0.9999785
0.9993216
0.9999125
0.9999293
0.9996648
0.9999861
0.9999992
0.9999995
0.9999414
0.9994448
0.9998995
0.9999906
0.9999869
0.9981508
0.9964285
0.9629121
0.9797849
0.9996611
0.9996868
0.9800261
0.9676104
0.9676104
0.9953442
0.998119
0.9970651
0.958923
0.9402361
0.9867907
0.9726007
0.968278
0.9718096
0.989659
0.9774244
0.9611349
0.9619724
0.971056
0.9860783
0.9934967
0.9917081
0.9454838
0.9320911
0.9701575
0.9947223
0.9986855
0.9982458
0.9917501
0.9699056
0.9880129
0.9980508
0.9989356
0.9982378
0.9977594
0.9992641
0.9989618
0.9984938
0.9978186
0.9978551
0.9988768
0.9994764
0.9996307
0.9994875
0.999219
0.9982519
0.9961787
0.990573
0.9817611
0.9770911
0.9770911
0.9842913
0.9912344
0.9917348
0.9951635
0.9991266
0.9995876
0.9985279
0.991083
0.9934897
0.9981626
0.9986722
0.9992818
0.999179
0.9979321
0.9978326
0.9986631
0.9996567
0.9992146
0.9975826
0.9989143
0.9940896
0.9892882
0.9893191
0.9948932
0.999321
0.9999281
0.999984
0.999986
0.9999646
0.9998363
0.999682
0.9996823
0.9997985
0.999882
0.9999173
0.9998018
0.9995383
0.9994862
0.9998778
0.9998967
0.9994283
0.9993236
0.9998106
0.9998924
0.9999144
0.999988
0.9999987
0.9999993
0.9999976
0.9999672
0.999817
0.999587
0.999488
0.9997315
0.9999501
0.9999847
0.9999737
0.9999309
0.9998966
0.9996032
0.9982236
0.9956862
0.994163
0.9965469
0.9991456
0.9994422
0.9977826
0.9957864
0.9955296
0.9938721
0.9924799
0.9933559
0.995073
0.994581
0.9974292
0.9979772
0.9984381
0.9981982
0.9972314
0.9908822
0.9894016
0.9917954
0.9975583
0.9996051
0.9997066
0.9998032
0.9996939
0.9995127
0.9982591
0.9878585
0.9765269
0.9765269
0.9788818
0.9925118
0.9990911
0.9996613
0.9995469
0.9997123
0.9999409
0.9998727
0.9991326
0.9993239
0.9988837
0.998229
0.9987027
0.9988659
0.9975519
0.9976091
0.9986136
0.9996929
0.9999848
0.9999973
0.9999704
0.9999779
0.9999983
1
0.9999999
1
1
1
0.9999999
1
0.9999998
0.9999983
0.9999989
0.9999979
0.9999993
1
0.9999996
0.9999999
0.9999998
0.9999896
0.9999915
0.9999959
0.9999938
0.9999999
1
0.9999997
0.9999994
0.9999989
0.9999889
0.999953
0.9998722
0.9997296
0.9997101
0.9997999
0.9997648
0.9999469
0.9999431
0.9999857
0.999988
0.9999936
0.9999978
0.9999915
0.9999485
0.9999727
0.9999874
0.999992
0.9999945
0.9999986
0.9999983
0.9999998
0.9999996
0.9999568
0.9999529
0.9999937
0.9999984
0.9999824
0.9999801
0.9999977
0.9999753
0.9999264
0.9999925
0.9999767
0.9999762
0.999999
0.9999994
0.9999997
0.9999962
0.9999994
0.9999916
0.9998726
0.9999581
0.9999876
0.9998343
0.9998054
0.9999267
0.9999608
0.9998415
0.999222
0.9991461
0.9994223
0.9998342
0.9999842
0.9999997
1
1
1
1
1
1
1
0.9999999
0.9999998
0.9999977
0.9999737
0.9999584
0.9999728
0.9999917
0.9999925
0.999988
0.999976
0.9999583
0.9999398
0.999901
0.9997777
0.9997532
0.9997532
0.9997532
0.9997596
0.9998021
0.9998691
0.9999261
0.9999637
0.9999864
0.9999968
0.9999995
0.9999997
0.9999992
0.9999926
0.9999566
0.9999558
0.9999782
0.9999955
0.9999998
0.9999999
0.9999981
0.9999788
0.9999634
0.9999709
0.9999884
0.9999987
1
1
1
1
1
1
1
1
1
1
1
1
1
1
1
1
1
1
1
1
1
1
1
1
1
1
1
1
1
1
1
1
1
1
1
1
1
1
1
1
1
1
1
1
1
1
1
1
1
1
1
1
1
1
1
1
1
1
1
1
1
1
1
1
1
1
1
1
1
1
1
1
1
1
1
1
1
1
1
1
1
1
0.9999998
1
1
1
1
1
1
1
0.9999998
0.9999999
1
1
0.9999999
1
1
1
1
1
1
1
0.9999999
0.9999993
0.9999998
0.9999969
0.9999932
0.9999994
0.9999997
0.9999999
1
1
0.9999999
0.9999961
0.9999748
0.9995655
0.9997052
0.9999875
0.9999986
0.9999991
0.9999811
0.9999951
0.9999812
0.9990429
0.9912253
0.9992642
0.9992644
0.9954473
0.993052
0.9930526
0.993054
0.9961674
0.9978443
0.9965801
0.9910633
0.9961902
0.9981357
0.9964439
0.9972817
0.9992063
0.9999117
0.9989687
0.9970433
0.9979558
0.9995464
0.9991012
0.9982905
0.9989867
0.9998009
0.9999813
0.9999826
0.999978
0.9999329
0.9997185
0.9990893
0.9976691
0.9884407
0.9586626
0.9629121
0.9984091
0.9992866
0.9992513
0.9987435
0.9985395
0.997257
0.9952632
0.9969888
0.9993023
0.9999406
0.9983936
0.9971008
0.9945093
0.9881787
0.974648
0.9409123
0.9040197
0.9040197
0.9040197
0.9337881
0.9701687
0.994009
0.9983186
0.9927966
0.9444699
0.9365241
0.9620668
0.9871526
0.9921637
0.9951104
0.9981449
0.9996326
0.9997183
0.9992913
0.9995719
0.9993506
0.9964906
0.9864482
0.9852836
0.9911213
0.9975997
0.9997265
0.9999659
0.9999826
0.9999868
0.9999849
0.9999697
0.9999041
0.9997465
0.9997352
0.9996804
0.9966037
0.9779642
0.9744138
0.9844628
0.9971968
0.9993907
0.9970226
0.986889
0.9896786
0.9970004
0.998739
0.9984709
0.9965677
0.9939409
0.9958171
0.9990458
0.9992084
0.999364
0.9993565
0.9949585
0.9892882
0.9892882
0.9901679
0.9983682
0.999879
0.9999782
0.999986
0.9999507
0.9994516
0.9982499
0.9979959
0.9991894
0.9996796
0.9997234
0.9993494
0.9990595
0.9993071
0.9998953
0.9999099
0.999627
0.9996158
0.9999382
0.9999789
0.999935
0.999902
0.9999498
0.9999974
0.9999993
0.9999962
0.9999727
0.9999404
0.9999297
0.9999463
0.9999808
0.9999956
0.9999983
0.9999976
0.9999708
0.9998277
0.9996765
0.9996603
0.9997337
0.9997857
0.9995733
0.9980892
0.9967729
0.9979823
0.9992476
0.9992476
0.9992476
0.9992187
0.9997363
0.9997325
0.9997519
0.9997464
0.9989111
0.9943293
0.9926192
0.9943257
0.9977984
0.9992596
0.9998379
0.9998795
0.9998795
0.9995868
0.999231
0.9995081
0.9998542
0.9998905
0.9996349
0.9990685
0.9982575
0.9845181
0.9603748
0.9676304
0.98942
0.9988395
0.9999289
0.9999482
0.9999476
0.9999064
0.9998185
0.9997998
0.9997556
0.9995125
0.998401
0.9941236
0.9941919
0.997537
0.9996251
0.9999789
0.9999909
0.9999902
0.9999822
0.9999849
0.9999951
0.9999953
0.9999935
0.9999979
0.9999982
0.9999933
0.9999924
0.9999944
0.9999947
0.9999936
0.9999921
0.9999933
0.9999974
0.9999986
0.9999987
0.9999977
0.9999981
0.9999987
0.9999949
0.9999571
0.9997571
0.9995218
0.9994094
0.9992551
0.9991144
0.9983046
0.9970838
0.9955886
0.9942953
0.9934306
0.9908644
0.9892722
0.9846738
0.983848
0.9826518
0.9855622
0.992226
0.9965316
0.998298
0.9989591
0.9993134
0.9995617
0.9997748
0.9999313
0.9999912
0.9999995
1
1
1
1
0.9999999
0.9999994
0.9999936
0.999992
0.9999957
0.9999992
0.9999977
0.9999398
0.9997811
0.9998876
0.9999735
0.9999969
0.9999993
0.9999995
0.9999981
0.9999914
0.9999903
0.9999946
0.9999963
0.9999963
0.9999965
0.999997
0.9999963
0.9999806
0.9997018
0.9984951
0.9983499
0.9987953
0.9996827
0.9999601
0.9999969
0.9999998
1
1
1
1
1
1
0.9999995
0.9999957
0.9999829
0.9999728
0.9999793
0.9999921
0.9999985
0.999999
0.999999
0.9999988
0.9999981
0.9999955
0.9999843
0.9999457
0.9998024
0.9995934
0.9995917
0.9995917
0.9995917
0.9996324
0.9997657
0.9998909
0.9999702
0.999997
0.9999992
0.9999992
0.9999973
0.9999616
0.9997566
0.9997139
0.9998278
0.9999356
0.9998875
0.9996918
0.9995496
0.9996807
0.9999022
0.9999916
0.9999999
1
1
1
1
1
1
1
1
1
1
1
1
1
1
1
1
1
1
1
1
1
1
1
1
1
1
1
1
1
1
1
1
1
1
1
1
1
1
1
1
1
1
1
1
1
1
1
1
1
1
1
1
1
1
1
1
1
1
1
1
1
1
1
1
1
1
1
1
1
1
1
1
1
1
1
1
1
1
1
1
1
1
1
1
0.9999999
1
1
1
1
0.9999999
1
1
1
1
1
1
1
1
1
1
1
1
1
1
1
1
1
1
1
1
0.9999999
0.9999999
1
1
1
1
1
0.9999996
0.999999
0.9999917
0.9999836
0.9999906
0.9999981
0.9999931
0.9998789
0.9989913
0.9986051
0.9993382
0.9998716
0.9999916
0.9999994
0.9999889
0.9999738
0.9996451
0.9956532
0.990769
0.998515
0.9968653
0.9959458
0.9965684
0.9965772
0.9966201
0.9991925
0.9998459
0.9999806
0.9999931
0.9999889
0.9999391
0.9997171
0.9996917
0.9998801
0.9998884
0.9993014
0.9978328
0.9988626
0.999144
0.9970666
0.995688
0.9965643
0.9990237
0.9999244
0.9999826
0.9999535
0.9998333
0.9994668
0.9968421
0.9910379
0.9637639
0.9447956
0.9715578
0.9985189
0.9996278
0.9998368
0.9998828
0.9998976
0.9998855
0.9999351
0.9999864
0.9999832
0.9999835
0.9999768
0.9999492
0.9999269
0.9999251
0.9998926
0.999717
0.9985865
0.9881881
0.9097311
0.8710338
0.8710338
0.9296395
0.9877808
0.999443
0.9994396
0.9970233
0.9968753
0.9950621
0.9811413
0.9837639
0.9944917
0.9994357
0.9999211
0.999901
0.9999145
0.9998334
0.9989187
0.9942573
0.9852836
0.9862246
0.994586
0.9991947
0.999936
0.9999883
0.9999958
0.9999957
0.9999876
0.9999339
0.9995872
0.9994096
0.9996924
0.9998876
0.9999058
0.9989479
0.9864366
0.9814055
0.9887228
0.9970798
0.9942915
0.9941262
0.9947677
0.988891
0.9909948
0.9961661
0.9889967
0.9913344
0.9979877
0.9980909
0.9988939
0.9998123
0.9988839
0.9954863
0.9930814
0.9967791
0.9986714
0.9996505
0.9998725
0.9999088
0.9999384
0.9995188
0.9967411
0.992993
0.9960229
0.9991426
0.9983793
0.9964413
0.9971987
0.9994045
0.9998943
0.9999279
0.99988
0.9998713
0.9999758
0.9999917
0.9999889
0.9999742
0.9999739
0.9999933
0.9999986
0.9999986
0.9999934
0.9999891
0.9999897
0.9999958
0.9999988
0.9999994
0.9999996
0.9999995
0.9999988
0.9999978
0.9999964
0.9999937
0.9999881
0.9999733
0.999909
0.9997114
0.9993553
0.998906
0.9985124
0.9988155
0.9981943
0.9988103
0.9996536
0.9999275
0.9999607
0.9999607
0.99986
0.9991499
0.9955315
0.9908727
0.9904968
0.9919286
0.9962942
0.9992307
0.9998795
0.9998446
0.9990563
0.9967983
0.9973292
0.9989177
0.9998759
0.9999529
0.9996781
0.9951938
0.9880669
0.9925283
0.9930354
0.9691825
0.9605584
0.9763359
0.9947402
0.9993747
0.9999323
0.9999734
0.9999726
0.9997195
0.9962935
0.9938266
0.9941926
0.9970964
0.9983391
0.9980848
0.998634
0.9996088
0.9999605
0.9999849
0.9999835
0.9999601
0.9999716
0.999988
0.9999919
0.9999909
0.9999862
0.9999648
0.9998329
0.9996696
0.9996275
0.999603
0.9996958
0.9997968
0.9998283
0.9997595
0.999589
0.9996153
0.999781
0.9997904
0.9993699
0.9959512
0.9944683
0.9960859
0.998064
0.9970405
0.9960297
0.9972031
0.9976666
0.995918
0.993545
0.9891059
0.9804117
0.9648387
0.9623416
0.9623416
0.9667668
0.9751873
0.9795769
0.9824169
0.9877674
0.9935445
0.9975526
0.9994842
0.9999607
0.9999978
0.9999994
0.9999997
0.9999999
1
1
1
0.9999999
0.9999997
0.9999997
0.9999998
0.9999997
0.9999977
0.9999678
0.9998975
0.9999215
0.9999726
0.9999958
0.9999968
0.9999943
0.9999902
0.9999899
0.9999934
0.9999986
0.9999991
0.999998
0.999998
0.9999986
0.9999942
0.9999438
0.9998212
0.9997595
0.9994698
0.9983434
0.9982735
0.9989373
0.9997535
0.9999683
0.9999981
1
1
1
1
1
0.9999999
0.9999994
0.9999974
0.9999966
0.9999972
0.9999987
0.9999997
0.9999999
0.9999999
0.9999999
0.9999998
0.9999996
0.9999991
0.9999982
0.9999963
0.9999897
0.9999494
0.9996748
0.9994711
0.9994711
0.9994881
0.9997858
0.9999687
0.9999978
0.999999
0.9999985
0.999997
0.999994
0.9999857
0.9999579
0.9997761
0.9991895
0.9991241
0.9991241
0.9992965
0.9997961
0.9999818
0.9999993
0.9999998
0.9999999
0.9999999
0.9999999
0.9999999
0.9999999
1
1
1
1
1
1
1
1
1
1
1
1
1
0.9999999
0.9999998
0.9999996
0.9999997
0.9999998
0.9999999
1
1
1
1
1
1
1
1
1
1
1
1
1
1
1
1
1
1
1
1
1
1
1
1
1
1
1
1
1
1
1
1
1
1
1
1
1
1
1
1
1
1
1
1
1
1
1
1
1
1
1
1
1
1
1
1
1
1
1
1
1
0.9999999
1
1
1
1
0.9999998
1
1
1
1
1
1
1
1
1
1
1
1
1
1
1
1
1
1
1
1
1
1
1
1
1
1
1
1
1
1
1
1
1
1
1
1
1
1
0.9999994
0.9999868
0.9999652
0.9999866
0.9999874
0.9999453
0.999687
0.99962
0.9997664
0.9999598
0.9999963
0.9999989
0.9999912
0.9998971
0.9981471
0.9902419
0.9958019
0.9969761
0.9929132
0.9939167
0.9918865
0.9920362
0.9984151
0.9997622
0.9999546
0.9999931
0.9999931
0.9999931
0.9999787
0.9997854
0.9997665
0.999922
0.9999005
0.9997055
0.9995243
0.9997496
0.9996869
0.9982669
0.995688
0.9967074
0.9991208
0.9999011
0.999966
0.9998865
0.9995651
0.999447
0.9959012
0.9750588
0.9563396
0.9720488
0.9953642
0.9992114
0.999774
0.9999397
0.9999403
0.9998557
0.9998049
0.9998772
0.9999893
0.9999799
0.9998299
0.9996655
0.9997489
0.9998601
0.9999473
0.9999912
0.9999973
0.9999955
0.9999753
0.9997707
0.9973016
0.9713989
0.9375491
0.9538846
0.9874229
0.9991345
0.9999807
0.9999727
0.9991047
0.9711388
0.9565006
0.9799166
0.9977695
0.9998826
0.9999704
0.9999704
0.9999686
0.9999024
0.9991756
0.9965488
0.9972883
0.99927
0.9999122
0.9999506
0.9999748
0.9999958
0.9999934
0.9999563
0.9996417
0.9983982
0.9979244
0.9982911
0.9994122
0.9999413
0.9999656
0.9994272
0.9956371
0.9900111
0.9919979
0.996793
0.9989619
0.9983075
0.9922372
0.9853599
0.9920935
0.9881833
0.9881833
0.9921466
0.9951971
0.9962299
0.9996305
0.9989716
0.9980404
0.9987526
0.9985726
0.9989115
0.9988069
0.9986664
0.9987291
0.9994139
0.9994689
0.9967348
0.9921813
0.9915449
0.9973098
0.9982483
0.9919542
0.9894741
0.9964039
0.9997315
0.9998804
0.9998498
0.9998441
0.9999517
0.999985
0.999988
0.9999869
0.999986
0.9999816
0.9999778
0.9999832
0.9999969
0.9999996
0.9999997
0.9999997
0.9999997
0.9999997
0.9999997
0.9999997
0.9999997
0.9999997
0.9999997
0.9999997
0.999999
0.9999934
0.9999655
0.9998894
0.9996976
0.9985515
0.9949958
0.9929443
0.9912532
0.9917368
0.9949654
0.9979755
0.9996094
0.9999518
0.9999792
0.9999712
0.9998455
0.9987905
0.9928641
0.9889925
0.9896742
0.9955443
0.9992163
0.9998418
0.9996634
0.996184
0.9906649
0.992183
0.9970085
0.9996389
0.9999149
0.9997667
0.9994966
0.9995154
0.99876
0.9955241
0.9938654
0.986681
0.9509339
0.9489403
0.9734127
0.9949945
0.9997232
0.9998458
0.9990954
0.9959469
0.9966879
0.9990863
0.9987754
0.9923052
0.991855
0.9968336
0.9996462
0.9999714
0.9999763
0.9999705
0.9999173
0.9998637
0.9999269
0.9999753
0.9999625
0.9999028
0.999854
0.9997793
0.9994977
0.9990324
0.9986673
0.9982404
0.9974796
0.9962929
0.9951913
0.9949657
0.9950998
0.9938819
0.9870703
0.9773961
0.9789367
0.9914611
0.997976
0.9989376
0.999534
0.9998507
0.9999102
0.9998278
0.9996815
0.9994225
0.9990238
0.9970839
0.9885883
0.9749979
0.9575228
0.9545257
0.950497
0.9485742
0.9484522
0.9636406
0.9845705
0.9969377
0.9998078
0.9999948
0.9999989
0.9999991
0.9999992
0.9999996
0.9999999
1
1
1
1
1
1
0.9999999
0.9999974
0.9999778
0.9999651
0.9999814
0.999995
0.9999856
0.9998637
0.9997894
0.999874
0.9999709
0.9999971
0.9999936
0.9999526
0.9999178
0.9999412
0.9999818
0.9999956
0.9999946
0.9999886
0.9999086
0.9996557
0.9996821
0.99968
0.9988487
0.9985883
0.9990221
0.9997629
0.9999823
0.9999997
1
1
1
1
1
0.9999999
0.9999999
0.9999998
0.9999999
0.9999999
0.9999999
1
1
1
1
1
0.9999999
0.9999987
0.9999922
0.9999786
0.9999263
0.9995705
0.999489
0.9997175
0.9999335
0.9999787
0.9999843
0.9999914
0.9999974
0.9999974
0.9999951
0.9999823
0.9999678
0.9999492
0.9998377
0.9996461
0.9997053
0.9998707
0.9999724
0.999993
0.9999968
0.9999988
0.9999997
0.9999998
0.9999998
0.9999999
1
1
1
1
1
1
1
1
1
1
1
1
1
1
0.9999995
0.9999964
0.9999922
0.9999935
0.9999974
0.9999997
1
1
1
1
1
1
1
1
1
1
1
1
1
1
1
1
1
1
1
1
1
1
1
1
1
1
1
1
1
1
1
1
1
1
1
1
1
1
1
1
1
1
1
1
1
1
1
1
1
1
1
1
1
1
1
1
1
1
1
1
1
1
1
1
1
1
1
1
1
1
1
1
1
1
1
1
1
1
1
1
1
1
1
1
1
1
1
1
1
1
1
1
1
1
1
1
1
1
1
1
1
1
1
1
1
1
1
1
1
1
1
1
1
1
1
0.9999975
0.9999895
0.9999933
0.9999925
0.9999686
0.9999212
0.9998948
0.9997462
0.9998588
0.9999682
0.9999963
0.9999855
0.9996206
0.9952115
0.9827036
0.9974073
0.9984201
0.9955668
0.9872924
0.9835624
0.9917015
0.9992436
0.9999076
0.9999824
0.9999897
0.9999872
0.999987
0.9999517
0.99985
0.9998911
0.9999217
0.9999191
0.9999191
0.9999191
0.9999191
0.999852
0.999432
0.9976984
0.9984621
0.9995449
0.9998326
0.9998665
0.999778
0.9966062
0.9992014
0.9973697
0.9805192
0.9611911
0.976086
0.9887902
0.9893241
0.9976511
0.9997711
0.9991606
0.9979305
0.9982295
0.9994372
0.9998767
0.9994893
0.997134
0.9938977
0.995583
0.9979854
0.9996006
0.9999801
0.9999996
0.9999996
0.9999993
0.9999984
0.9999928
0.999969
0.9998774
0.9992735
0.9969773
0.9969931
0.9988332
0.9998916
0.9997622
0.9910671
0.9565006
0.9631352
0.9885173
0.9988073
0.999913
0.9999701
0.9999804
0.9999804
0.9999488
0.9998602
0.9999042
0.9999764
0.9999955
0.9999971
0.9999971
0.9999971
0.9999935
0.9999247
0.9989803
0.9979244
0.9979244
0.9979244
0.9983714
0.9995891
0.9999785
0.9999912
0.9998273
0.9983425
0.9950729
0.9966076
0.9992348
0.9996971
0.9982629
0.9902877
0.9882872
0.9887791
0.9894504
0.9927269
0.996762
0.996587
0.9972464
0.9956844
0.9900791
0.9969924
0.9814744
0.9670653
0.9923955
0.9954499
0.9953819
0.9957238
0.9972061
0.9984839
0.9967919
0.9922239
0.9917494
0.9972302
0.9963939
0.9918703
0.9915392
0.9920234
0.9957361
0.9985119
0.99945
0.9996383
0.9996301
0.9991875
0.9985142
0.9986377
0.9994695
0.9996276
0.9997379
0.9998705
0.9999293
0.9999567
0.9999819
0.9999918
0.9999978
0.9999989
0.9999991
0.9999995
0.9999997
0.9999997
0.9999997
0.9999997
0.9999988
0.9999909
0.9999488
0.9998052
0.9992988
0.9969843
0.9907363
0.9875779
0.9875779
0.9875779
0.9901811
0.9951345
0.998742
0.9998517
0.9999933
0.9999958
0.999987
0.9999039
0.9992028
0.9961198
0.9946389
0.9969347
0.9993296
0.9997602
0.9996953
0.9975154
0.9884806
0.9873902
0.9911474
0.9974905
0.9997004
0.9999863
0.9999919
0.9999718
0.9999237
0.9997618
0.9982583
0.9917818
0.9651016
0.9573129
0.9692171
0.9928116
0.9994563
0.9996834
0.9992538
0.9993187
0.9997503
0.9995161
0.9945995
0.9877249
0.9890821
0.9959623
0.9994513
0.999846
0.9998973
0.999909
0.9998905
0.9995776
0.9996081
0.9997438
0.9998697
0.9999056
0.9999056
0.9995758
0.9994996
0.9996729
0.9994454
0.9987643
0.9973719
0.9968072
0.9971548
0.9980619
0.9979831
0.9954197
0.980687
0.977421
0.9825792
0.9955342
0.9996355
0.9999789
0.9999942
0.9999942
0.9999942
0.9999944
0.9999927
0.9999875
0.9999719
0.9999061
0.9997758
0.9994379
0.998641
0.9947997
0.9700965
0.9455836
0.9455825
0.9684326
0.993886
0.9996232
0.9999916
0.9999989
0.9999979
0.9999938
0.9999936
0.9999957
0.9999981
0.9999994
0.9999999
1
1
1
1
0.9999999
0.9999986
0.9999953
0.9999962
0.9999975
0.9999939
0.9999524
0.9997011
0.9996238
0.9996922
0.999905
0.9999898
0.9999762
0.9998112
0.9997828
0.9999056
0.9999873
0.9999996
0.9999998
0.9999978
0.9999912
0.9999905
0.9999838
0.9999075
0.9992729
0.9987428
0.9989143
0.9995894
0.9999434
0.9999974
1
1
1
1
1
1
0.9999995
0.9999975
0.999997
0.9999979
0.9999993
0.9999999
1
1
1
1
0.9999999
0.9999985
0.9999768
0.9998219
0.999569
0.9997816
0.9999333
0.9999379
0.9999424
0.9999635
0.9999862
0.9999978
0.999996
0.9999874
0.9999649
0.9999149
0.9998795
0.9998829
0.9999363
0.9999852
0.9999946
0.9999865
0.9999806
0.9999883
0.9999971
0.9999992
0.9999991
0.9999993
0.9999997
0.9999996
0.9999996
0.9999998
0.9999999
1
1
1
1
0.9999999
0.9999998
0.9999999
1
1
1
0.9999996
0.9999954
0.9999707
0.9999695
0.9999853
0.9999964
0.9999996
1
1
1
1
1
1
1
1
1
1
1
1
1
1
1
1
1
1
1
1
1
1
1
1
1
1
1
1
1
1
1
1
1
1
1
1
1
1
1
1
1
1
1
1
1
1
1
1
1
1
1
1
1
1
1
1
1
0.9999999
1
1
1
1
1
1
1
1
1
1
1
1
1
1
1
1
1
1
1
1
1
1
1
1
1
1
1
1
1
1
1
1
1
1
1
1
1
1
1
1
1
1
1
1
1
1
1
1
1
1
1
0.9999999
1
1
1
1
1
1
1
1
1
0.9999999
0.9999995
0.9999994
0.9999975
0.9999538
0.9999442
0.9999612
0.9999017
0.9996477
0.9998267
0.9999796
0.9999728
0.9994474
0.9893857
0.9846533
0.9984194
0.9993109
0.9957213
0.9867217
0.9878636
0.9983691
0.9996862
0.9999293
0.9999887
0.9998995
0.9996961
0.9996418
0.9994101
0.9991875
0.9992703
0.9995324
0.9996413
0.9997111
0.9997768
0.9996223
0.9980419
0.9964849
0.9979683
0.9995086
0.999932
0.9993509
0.9997288
0.9996831
0.9980158
0.9985841
0.9985662
0.9942007
0.9865723
0.948791
0.8731872
0.9243255
0.9869771
0.9985629
0.9968369
0.9938029
0.9961077
0.9993124
0.9993718
0.9967421
0.9886843
0.9831543
0.9856611
0.9945152
0.9992498
0.9999723
0.9999871
0.9999449
0.9996741
0.9996544
0.9997604
0.999906
0.9999209
0.9998356
0.9990843
0.998454
0.9984958
0.9991872
0.9997781
0.9991342
0.988021
0.9635808
0.9718057
0.9903313
0.9986755
0.9999012
0.9999688
0.9999728
0.9999805
0.9999805
0.9999805
0.999976
0.9999699
0.9999733
0.9999893
0.9999971
0.9999936
0.9999249
0.9992078
0.9979487
0.9979244
0.9982076
0.9992502
0.9998417
0.9999872
0.9999978
0.9999961
0.9999201
0.9992858
0.9984752
0.9991168
0.9998656
0.9997723
0.9979084
0.994453
0.9909094
0.9926911
0.9960419
0.9988533
0.9984635
0.9959311
0.9813758
0.9790532
0.9881351
0.9806697
0.9793026
0.9715399
0.9604474
0.9789734
0.9840454
0.9853097
0.9947152
0.998075
0.9981999
0.9966791
0.997351
0.9988712
0.9979829
0.9953696
0.9948567
0.9943849
0.9941038
0.9935246
0.9922048
0.9946724
0.9972412
0.9977136
0.9959853
0.9936039
0.9925581
0.994701
0.9981738
0.9986539
0.9977925
0.997887
0.9986831
0.9995234
0.9998709
0.9999024
0.9999164
0.9999475
0.9999636
0.9999805
0.9999943
0.9999985
0.9999985
0.9999973
0.9999903
0.9999527
0.9997726
0.9994005
0.9983764
0.9952965
0.98923
0.9868905
0.9868905
0.9929098
0.9983797
0.9998933
0.999997
0.9999971
0.999997
0.9999945
0.9999533
0.999307
0.9973695
0.9981412
0.9992998
0.9999138
0.9999387
0.9998309
0.9986143
0.9904992
0.9873901
0.9889194
0.9956045
0.9993765
0.9999731
0.9999972
0.9999938
0.9999545
0.999519
0.9963605
0.9873097
0.9759289
0.9836029
0.9945922
0.9991764
0.9998957
0.9998976
0.9998976
0.99985
0.9981168
0.9888706
0.9877249
0.9905039
0.9973897
0.9981687
0.9984603
0.9994141
0.9998859
0.9997919
0.998907
0.9986468
0.9993455
0.999873
0.9999056
0.9998956
0.9996837
0.9994343
0.9995552
0.9998099
0.9996955
0.999511
0.9995134
0.9996435
0.9997995
0.9996363
0.9978895
0.9934352
0.9937366
0.9970429
0.9995222
0.9999559
0.9999298
0.9999252
0.9999673
0.9999965
0.9999997
0.9999997
0.9999997
0.9999994
0.9999979
0.999991
0.9999649
0.9998432
0.998621
0.9905754
0.988377
0.9924563
0.9973832
0.9995081
0.9999264
0.9999961
0.9999978
0.9999849
0.9999232
0.9998663
0.9998883
0.9999467
0.9999886
0.9999991
0.9999999
0.9999999
0.9999999
0.9999999
0.9999999
0.9999998
0.9999997
0.9999996
0.9999991
0.9999945
0.9999681
0.9998753
0.9997064
0.99982
0.9999641
0.9999759
0.9998705
0.999735
0.9997366
0.9998853
0.9999644
0.9999823
0.9999923
0.9999982
0.9999988
0.9999988
0.9999917
0.9999472
0.9997854
0.9992637
0.9990867
0.9991138
0.9995133
0.9998852
0.999991
0.9999998
1
1
0.9999999
0.9999998
0.9999975
0.9999897
0.9999894
0.9999949
0.9999992
1
1
1
1
1
0.9999999
0.9999985
0.999978
0.9997642
0.9996105
0.9996664
0.9998829
0.9999842
0.9999982
0.9999991
0.9999991
0.9999981
0.999995
0.9999879
0.9999633
0.9998514
0.9994353
0.9991906
0.9993925
0.9997726
0.9999656
0.9999975
0.9999999
0.9999998
0.9999982
0.999998
0.9999993
0.9999996
0.9999987
0.9999945
0.999993
0.9999945
0.9999976
0.9999996
1
1
1
0.9999998
0.9999992
0.9999993
0.9999997
0.9999998
0.9999996
0.9999962
0.9999752
0.9999666
0.9999666
0.9999719
0.9999886
0.9999975
0.9999997
1
1
1
1
1
1
1
1
1
1
1
1
1
1
1
1
1
1
1
1
1
1
1
1
1
1
1
1
1
1
1
1
1
1
1
1
1
1
1
1
1
1
1
1
1
1
1
1
1
1
1
1
1
1
1
0.9999999
0.9999999
0.9999999
0.9999999
0.9999999
0.9999999
1
1
1
1
1
1
1
1
1
1
1
1
0.9999999
1
1
1
1
1
1
1
1
1
1
1
1
1
1
1
1
1
1
1
1
1
1
1
1
1
1
1
1
1
0.9999999
0.9999981
0.9999892
0.999962
0.9998931
0.999906
0.9999512
0.999987
0.9999986
1
1
1
1
1
1
1
1
0.9999994
0.9999792
0.9999599
0.9999762
0.9999638
0.9996178
0.9996479
0.9999103
0.9999237
0.998653
0.980905
0.9924154
0.9990728
0.9994654
0.9964907
0.9955454
0.9983504
0.9986791
0.9979443
0.9996393
0.9999675
0.9996617
0.9980869
0.995784
0.9933077
0.9919296
0.9923202
0.9937129
0.9944562
0.9896903
0.9884276
0.9892502
0.9939711
0.9973731
0.9990678
0.9998433
0.9999786
0.9997871
0.9995705
0.9996733
0.9993232
0.9962204
0.9978854
0.9967447
0.988887
0.8508034
0.7456155
0.8412332
0.9737393
0.9953763
0.9940425
0.9939459
0.9969542
0.9993672
0.9980437
0.9887754
0.9831543
0.9831543
0.983327
0.9938194
0.9992515
0.9997553
0.9988267
0.9938695
0.9740369
0.9709949
0.9788083
0.9876895
0.9853185
0.981935
0.9720149
0.9749904
0.9889791
0.9975146
0.9997882
0.9999632
0.9991198
0.9883771
0.9717188
0.9739806
0.9909197
0.9989306
0.9998853
0.9999024
0.9999422
0.999952
0.9998774
0.9996118
0.9993277
0.9995028
0.9998673
0.9999922
0.999995
0.9999761
0.9998596
0.9992904
0.9991196
0.9995308
0.9998904
0.9999894
0.9999978
0.9999978
0.9999978
0.9999967
0.9999686
0.9998053
0.9996599
0.9998368
0.9999571
0.9998314
0.9992831
0.9969555
0.994823
0.9975851
0.9996796
0.9995116
0.9971644
0.9825451
0.9790532
0.9898726
0.9923303
0.9948126
0.9941747
0.9875102
0.9545186
0.9353166
0.9514837
0.9694126
0.9922079
0.9965548
0.996401
0.9967788
0.9988839
0.9992398
0.9992191
0.9990809
0.9987111
0.9983738
0.9977955
0.9969115
0.9961628
0.997811
0.997811
0.9975233
0.9928245
0.9827032
0.9890951
0.9968239
0.9978398
0.9928702
0.9828457
0.9846112
0.9926423
0.9984321
0.9990913
0.9981308
0.9971182
0.9972229
0.9981667
0.9993706
0.9997774
0.9998696
0.9999442
0.9999912
0.9999972
0.9999951
0.9999897
0.9999813
0.9999321
0.9993862
0.9942315
0.9868931
0.9892224
0.9964485
0.9996464
0.9999912
0.9999971
0.9999971
0.9999971
0.999988
0.9998527
0.9983557
0.9980903
0.9991263
0.9998862
0.9999938
0.9999912
0.9999226
0.9990236
0.991763
0.9873901
0.9873901
0.9927512
0.9985757
0.9999251
0.9999988
0.999999
0.9999912
0.9999161
0.9992588
0.9967904
0.9944013
0.9944258
0.9951004
0.9976073
0.9992505
0.9998735
0.9998937
0.9994707
0.994293
0.9914667
0.996292
0.9948107
0.9840903
0.9894229
0.9974991
0.999803
0.9998715
0.9994781
0.9985853
0.9985853
0.9992456
0.999859
0.9999056
0.9998695
0.9987349
0.9978459
0.9989431
0.9998211
0.9999832
0.9999823
0.9999794
0.9999839
0.9999804
0.999953
0.9998281
0.9998082
0.9998684
0.9999379
0.9997613
0.9990038
0.9988811
0.9994589
0.9999165
0.9999969
0.9999998
0.9999998
0.9999998
0.9999997
0.9999979
0.9999861
0.9999498
0.9999044
0.9998782
0.9998579
0.9998076
0.9994911
0.9993088
0.9996729
0.9999437
0.9999926
0.9999805
0.9997751
0.9988938
0.9988215
0.9994143
0.9999012
0.9999954
0.9999996
0.999999
0.9999976
0.9999976
0.9999982
0.9999993
0.9999999
0.9999999
0.9999999
0.9999998
0.9999993
0.9999925
0.9999626
0.9999575
0.9999749
0.999961
0.9999547
0.9999661
0.9999685
0.9998859
0.9996441
0.9996987
0.9998847
0.9999858
0.9999832
0.9999199
0.9999477
0.9999756
0.9999721
0.9999355
0.9997855
0.9991396
0.9993
0.9997699
0.999973
0.9998785
0.999652
0.9996883
0.9998445
0.9999601
0.9999945
0.9999985
0.999999
0.9999984
0.9999986
0.9999995
0.9999999
1
1
1
1
0.9999999
0.9999989
0.9999903
0.9999421
0.9998198
0.9998547
0.9999544
0.9999937
0.999999
0.9999996
0.9999996
0.9999994
0.9999989
0.999997
0.9999831
0.9998492
0.9986771
0.996854
0.9976729
0.9991468
0.999876
0.9999933
0.9999997
0.9999999
1
1
0.9999999
0.9999993
0.9999926
0.999954
0.9999352
0.9999597
0.9999902
0.9999994
1
1
0.9999999
0.9999992
0.9999957
0.9999927
0.9999931
0.9999953
0.9999976
0.9999969
0.9999882
0.9999677
0.9999666
0.9999666
0.9999749
0.9999935
0.9999996
1
1
1
1
1
1
1
1
1
1
1
1
1
1
1
1
1
1
1
1
1
1
1
1
1
1
1
1
1
1
1
1
1
1
1
1
1
1
1
1
1
1
1
1
1
1
1
1
1
1
1
1
1
1
1
1
1
1
1
1
1
0.9999999
0.9999999
1
1
1
1
1
1
1
1
1
1
0.9999999
0.9999999
0.9999999
1
1
1
1
1
1
1
1
1
1
1
1
1
0.9999999
1
1
1
1
1
1
1
1
1
1
1
1
1
1
1
1
1
1
1
1
1
1
1
1
1
1
1
0.9999999
0.9999982
0.9999542
0.9994527
0.9974615
0.993956
0.9859122
0.9842281
0.9877284
0.9941318
0.9985
0.9998268
0.9999919
0.9999997
1
1
1
1
1
0.9999999
0.9999972
0.9999907
0.9999869
0.9999752