/*--------------------------------*- C++ -*----------------------------------*\
| =========                 |                                                 |
| \\      /  F ield         | foam-extend: Open Source CFD                    |
|  \\    /   O peration     | Version:     3.1                                |
|   \\  /    A nd           | Web:         http://www.extend-project.de       |
|    \\/     M anipulation  |                                                 |
\*---------------------------------------------------------------------------*/
FoamFile
{
    version     2.0;
    format      ascii;
    class       surfaceScalarField;
    location    "13.5";
    object      phi;
}
// * * * * * * * * * * * * * * * * * * * * * * * * * * * * * * * * * * * * * //

dimensions      [0 3 -1 0 0 0 0];

internalField   nonuniform List<scalar> 
275122
(
-4.079447e-06
-7.195639e-07
-1.002075e-08
4.809047e-06
2.309404e-05
-2.841741e-05
-6.399885e-07
5.963359e-06
4.173219e-05
-4.69349e-05
-1.264719e-07
5.329182e-06
6.115692e-05
-6.535421e-05
9.343019e-08
4.103862e-06
7.581658e-05
-7.830787e-05
1.505564e-07
2.340735e-06
8.019532e-05
-8.033406e-05
2.055334e-07
-6.679316e-08
7.977296e-05
-7.933673e-05
2.124744e-07
-6.487082e-07
7.733214e-05
-7.638002e-05
2.591647e-07
-1.211288e-06
7.291956e-05
-7.175301e-05
2.647496e-07
-1.431301e-06
6.739894e-05
-6.558055e-05
2.273906e-07
-2.045784e-06
5.997474e-05
-5.795795e-05
1.944398e-07
-2.211231e-06
5.06701e-05
-4.820818e-05
1.55462e-07
-2.61738e-06
4.015705e-05
-3.723353e-05
1.152763e-07
-3.038792e-06
2.838717e-05
-2.537076e-05
7.720818e-08
-3.093521e-06
1.48537e-05
-1.175314e-05
2.936033e-08
-3.129783e-06
3.58633e-06
-4.381976e-07
2.259845e-07
-3.374115e-06
-5.59884e-06
7.005825e-06
1.64296e-07
-1.571263e-06
-1.234642e-05
1.480693e-05
1.713062e-07
-2.627281e-06
-1.76409e-05
1.886213e-05
9.215526e-08
-1.313192e-06
-2.130744e-05
2.387473e-05
1.793718e-07
-2.745969e-06
-2.466899e-05
2.528228e-05
4.557812e-08
-6.588586e-07
-2.523846e-05
2.504875e-05
1.156457e-07
7.405756e-08
-2.586422e-05
2.623186e-05
5.622993e-08
-4.232904e-07
-2.801574e-05
2.839125e-05
-6.303522e-08
-3.124778e-07
-2.76907e-05
2.740749e-05
-9.164911e-08
3.749716e-07
-2.626234e-05
2.499816e-05
-8.624044e-08
1.350426e-06
-2.090134e-05
1.982942e-05
-1.906913e-08
1.090961e-06
-1.534531e-05
1.356879e-05
-2.193625e-09
1.779309e-06
-7.637434e-06
5.67627e-06
2.159847e-08
1.939682e-06
-8.979911e-06
9.491659e-06
-3.520265e-09
-5.082278e-07
2.503858e-06
-3.273936e-06
3.780796e-08
7.322589e-07
1.700712e-05
-2.598923e-05
-1.550318e-07
9.138309e-06
4.875389e-05
-5.688592e-05
-2.473125e-07
8.385389e-06
8.170956e-05
-9.042445e-05
-2.081565e-07
8.923011e-06
0.0001168289
-0.0001279486
-9.450067e-07
1.206467e-05
0.0001516895
-0.0001586929
-2.891661e-07
7.292555e-06
0.0001803626
-0.0001875881
-7.592589e-08
7.301399e-06
0.0002053365
-0.0002099424
-5.253854e-08
4.658444e-06
0.0002270312
-0.0002322138
-4.62497e-07
5.645188e-06
0.0002688108
-0.0002815778
-4.950992e-08
1.281652e-05
-6.312403e-06
0.000171977
-0.0001680234
1.673626e-07
2.19149e-06
-2.526391e-06
0.000161426
-0.0001600315
2.403878e-07
8.915176e-07
-9.685815e-07
0.0001513521
-0.0001465198
3.717157e-07
-4.235473e-06
1.371834e-06
0.0001327101
-0.000127626
3.524284e-07
-6.808368e-06
3.575983e-06
0.000111866
-0.0001071092
1.860884e-07
-8.518902e-06
4.115359e-06
8.952322e-05
-8.099394e-05
5.053898e-09
-1.264969e-05
4.363559e-06
6.006325e-05
-5.488984e-05
-2.661263e-07
-9.270835e-06
6.643064e-06
4.521485e-05
-3.501094e-05
-2.776482e-07
-1.656932e-05
4.96516e-06
2.648347e-05
-1.846884e-05
-4.767305e-08
-1.293211e-05
1.028878e-05
-4.34154e-05
8.932473e-05
5.138532e-08
-9.055308e-05
1.19573e-05
1.094516e-05
1.140112e-05
8.637345e-06
-0.0001313145
0.0001533752
7.020745e-07
-5.582881e-05
8.737456e-06
7.692206e-06
7.998986e-06
5.665201e-06
-0.0001855587
0.0002161471
1.022643e-07
-5.530684e-05
6.28376e-06
6.126017e-06
6.541193e-06
6.78316e-06
-0.0002451021
0.0002722262
7.733085e-08
-5.466915e-05
7.018936e-06
6.723795e-06
6.941859e-06
7.773867e-06
-0.0002942891
0.0003058113
6.756509e-07
-4.34781e-05
7.701034e-06
7.953839e-06
7.851574e-06
6.259821e-06
-0.0003236432
0.0003388469
3.146759e-07
-4.242284e-05
6.797056e-06
6.557576e-06
7.289996e-06
6.491963e-06
-0.0003485427
0.0003628949
-1.275179e-07
-4.013026e-05
6.392526e-06
6.506319e-06
6.514809e-06
1.314616e-06
-0.0003757407
0.0003879576
-3.143224e-07
-1.646572e-05
3.882237e-07
1.945126e-06
9.151804e-07
-3.476615e-06
-0.0004060932
0.0004239044
6.906859e-07
-3.868785e-06
-3.008586e-06
-3.991531e-06
-4.156341e-06
8.02239e-06
-0.0004217038
0.0004558532
1.108149e-06
-3.319626e-05
-3.12798e-06
5.945653e-08
-7.015146e-06
2.262779e-06
-0.000494618
0.0005071228
9.953695e-07
-3.021931e-05
4.085719e-06
3.417837e-06
6.952759e-06
5.889117e-07
-0.0005193971
0.0005297051
6.187276e-07
-1.906642e-05
7.944254e-07
3.683476e-06
3.072868e-06
4.101087e-06
-0.0005282354
0.000514405
1.328794e-06
-3.480838e-06
4.847967e-06
3.358474e-06
3.67494e-06
4.979912e-06
-0.0004941985
0.0004563692
-1.038857e-06
2.167348e-05
4.353436e-06
4.141524e-06
3.719795e-06
-1.420293e-06
-0.0004092815
0.0003600119
-7.805289e-07
5.413289e-05
-6.38207e-07
-5.379225e-08
-1.970485e-06
-5.802954e-06
-0.0003085884
0.0002593165
-2.796067e-06
7.609716e-05
-7.795818e-06
-4.673265e-06
-5.757149e-06
-4.328551e-06
-0.0002191102
0.0001723104
1.310758e-06
6.8633e-05
-6.479859e-06
-5.514532e-06
-6.821019e-06
-8.259114e-06
-0.0001519531
0.0001248963
7.60555e-07
7.25964e-05
-1.137885e-05
-1.213345e-05
-1.45288e-05
-2.096508e-05
-5.873966e-05
-9.178631e-06
-7.27891e-07
0.0001773407
-3.289791e-05
-2.200921e-05
-3.282231e-05
-0.000143441
4.57652e-05
-8.366284e-05
-2.108102e-08
0.0001813598
-8.996537e-05
0.000119819
-0.0001555266
9.566049e-07
0.0001247163
-5.080566e-05
0.0001882637
-0.0002175389
-5.824651e-07
8.066338e-05
-3.923745e-05
0.0002272067
-0.0002356783
-1.208686e-06
4.891778e-05
-1.617455e-05
0.0002335871
-0.0002328264
-2.893666e-07
1.570321e-05
-6.02754e-06
0.0002304263
-0.0002294173
-6.959223e-07
5.714442e-06
1.166447e-05
0.0002265536
-0.0002248728
-1.336945e-06
-1.200834e-05
1.72726e-05
0.0002207671
-0.0002123989
-1.029697e-06
-2.461116e-05
2.326792e-05
0.0002061545
-0.0001961311
2.319244e-06
-3.561057e-05
2.962121e-05
0.0001838753
-0.0001639956
2.499709e-06
-5.200067e-05
4.089309e-05
0.0001483835
-0.0001269301
1.410527e-06
-6.375702e-05
4.818133e-05
0.0001137813
-9.177907e-05
3.152304e-07
-7.04988e-05
5.001582e-05
7.247248e-05
-4.873206e-05
1.097463e-08
-7.376722e-05
5.130768e-05
2.738339e-05
-5.445773e-07
-4.656156e-07
-7.768088e-05
6.031083e-05
-2.574118e-05
4.54026e-05
-2.473451e-07
-7.97249e-05
2.997422e-05
-7.156289e-05
0.0001135876
-6.341265e-08
-7.193556e-05
4.698918e-05
-0.0001393215
0.0001618059
-2.045482e-07
-6.926901e-05
2.166244e-05
-0.0001820277
0.0002114771
-9.782751e-08
-5.101398e-05
2.340413e-05
-0.0002264945
0.0002393288
-2.068508e-07
-3.603156e-05
1.392025e-05
-0.0002418934
0.0002405959
8.727611e-07
-1.349551e-05
-4.332983e-06
-0.0002459622
0.0002425846
1.366066e-06
6.344452e-06
-1.355748e-06
-0.0002262664
0.0002045859
2.395889e-06
2.064039e-05
4.287701e-06
-0.0001775998
0.0001500165
2.761369e-06
2.053419e-05
-4.481105e-06
-0.0001331298
0.0001331148
4.1049e-08
4.455092e-06
-6.271444e-06
-0.00013861
0.000137156
-1.788681e-07
7.904318e-06
-1.1057e-05
-0.0001328276
0.0001235851
1.650677e-07
2.013437e-05
-1.528249e-05
-0.0001115418
0.0001036703
-1.415013e-06
2.456901e-05
-4.085264e-05
-9.46202e-05
7.613309e-05
2.18614e-07
5.912114e-05
-3.218026e-05
-5.534088e-05
3.252242e-05
1.543775e-06
5.345495e-05
-2.629159e-06
-1.049273e-05
-1.042622e-05
1.399779e-09
3.425014e-05
-4.981854e-06
-2.891354e-06
-2.830227e-06
-1.958e-06
2.483888e-05
-3.33578e-05
7.199917e-07
1.470833e-05
-1.439194e-06
-1.709109e-06
-1.803105e-06
1.960623e-06
2.545884e-05
-1.20811e-05
-1.075456e-06
-2.097461e-05
1.745723e-06
2.090112e-06
2.875873e-06
2.000361e-06
2.063939e-06
1.065629e-05
-9.439995e-07
-1.963255e-05
1.382467e-06
1.698945e-06
2.77454e-06
8.472456e-07
-2.055448e-05
1.816452e-05
-6.839601e-07
-7.54962e-07
7.249649e-07
1.748625e-06
5.080473e-07
-8.172347e-07
-4.704506e-06
-1.276115e-05
-3.963211e-07
2.761522e-05
-3.696422e-06
-2.413318e-06
-2.826273e-06
-6.168032e-06
3.142015e-05
-5.265979e-05
-5.601474e-07
4.631739e-05
-6.305024e-06
-5.774761e-06
-6.269787e-06
-5.857407e-06
7.235933e-05
-9.541151e-05
1.209052e-07
4.741362e-05
-3.998256e-06
-7.972155e-06
-6.65453e-06
-3.622048e-06
0.0001193995
-0.0001368353
1.504855e-07
4.241272e-05
-5.656582e-06
-8.202915e-06
-7.645829e-06
-5.631106e-06
0.0001501317
-0.0001615786
5.18321e-07
3.150542e-05
-5.664186e-06
-3.773665e-06
-5.507846e-06
-3.037065e-06
0.0001682323
-0.0001726165
5.379219e-07
1.415129e-05
-2.758418e-06
-2.790854e-06
-1.718672e-06
-5.670456e-07
0.0001716957
-0.0001706425
2.681883e-07
1.089519e-06
-4.375524e-07
-9.223685e-07
-4.839146e-07
-2.257483e-07
0.0001650643
-0.0001591045
7.373217e-08
-5.709836e-06
-8.581613e-09
-1.074634e-07
1.816332e-08
4.846845e-08
0.0001525539
-0.000145937
-2.195748e-07
-6.903537e-06
1.290304e-07
1.946179e-07
1.340591e-07
2.686588e-07
0.0001426
-0.0001399861
-2.380377e-07
-3.755041e-06
4.191595e-07
3.357313e-07
3.556706e-07
1.362397e-06
0.0001382688
-0.0001357832
-6.143023e-07
-6.105195e-06
1.529729e-06
6.910743e-07
6.506697e-07
-2.083105e-07
0.0001315759
-0.0001266975
-1.292825e-06
-3.316651e-06
-2.229992e-07
5.769114e-07
-4.14521e-07
-1.471297e-06
0.000126974
-0.0001279963
-1.103678e-06
7.88672e-06
-1.731205e-06
-7.971203e-07
-1.761085e-06
-1.003344e-06
0.0001330303
-0.0001405704
-5.71472e-07
1.317516e-05
-1.846805e-06
-9.880066e-07
-1.225417e-06
-1.820599e-06
0.0001462149
-0.0001526823
-6.384735e-07
1.35907e-05
-1.250466e-06
-1.154964e-06
-2.258876e-06
-1.161798e-06
0.0001589078
-0.0001671937
-2.665378e-07
1.480691e-05
-1.256722e-06
-1.437606e-06
-2.398339e-06
-2.869988e-06
0.0001758125
-0.0001860986
-4.04539e-07
2.453546e-05
-2.525571e-06
-3.950395e-06
-4.498915e-06
-4.97227e-06
0.000196943
-0.000217258
1.091306e-07
4.465278e-05
-5.031795e-06
-8.835156e-06
-5.607664e-06
-8.572035e-06
0.0002369107
-0.0002595734
8.799537e-07
5.557279e-05
-8.571353e-06
-7.424803e-06
-9.221866e-06
-1.039857e-05
0.0002892866
-0.0003199148
1.726689e-06
6.243975e-05
-9.720935e-06
-5.049077e-06
-8.369579e-06
-1.06471e-05
-0.0004008133
1.621621e-06
8.587188e-05
-1.066163e-05
-9.587713e-06
-1.410811e-05
0.0003583244
-1.041237e-05
0.0004505945
-0.0005019094
1.212273e-06
9.552889e-05
-1.062363e-05
-1.212417e-05
-1.226615e-05
-1.128415e-05
0.0005475781
-0.0005897913
4.946948e-07
8.782905e-05
-1.085556e-05
-1.212947e-05
-1.184139e-05
-8.449366e-06
0.000628854
-0.0006652283
9.065101e-09
7.274372e-05
-1.041574e-05
-9.526404e-06
-7.98695e-06
-7.456921e-06
0.0006991504
-0.0007222601
-5.045686e-08
5.608175e-05
-9.988828e-06
-7.112943e-06
-8.362901e-06
-5.775068e-06
0.0007467011
-0.0007639774
1.660181e-08
4.30004e-05
-6.293038e-06
-7.3993e-06
-6.273307e-06
-3.823849e-06
0.0007822549
-0.0007941714
-2.916334e-08
3.207908e-05
-3.725081e-06
-7.000082e-06
-5.584395e-06
-2.861224e-06
0.0008080254
-0.0008189525
-2.785091e-08
2.332581e-05
-1.702139e-06
-4.067826e-06
-3.739635e-06
-2.333599e-06
0.0008298988
-0.0008370348
2.610684e-08
1.527241e-05
-1.326573e-06
-2.454214e-06
-2.04815e-06
-8.412241e-07
0.0008469675
-0.0008541417
3.60793e-08
1.01483e-05
-1.092764e-06
-7.301898e-07
-3.460695e-07
-9.397864e-07
0.0008567799
-0.0008581317
-8.414679e-08
3.915698e-06
-8.921447e-07
-4.808427e-07
-1.669562e-07
-4.344599e-08
0.0008592343
-0.0008592875
-1.038034e-07
-6.147346e-07
1.236522e-07
3.126162e-07
3.789355e-07
4.015413e-07
0.0008600265
-0.0008598229
-5.83673e-08
-3.811596e-06
5.558819e-07
1.202905e-06
1.506095e-06
6.451066e-07
0.0008593575
-0.0008533503
-3.27084e-08
-9.720629e-06
4.826793e-07
1.340336e-06
1.278026e-06
1.777654e-06
0.0008489879
-0.0008421496
3.21114e-08
-1.469129e-05
1.336365e-06
2.238203e-06
2.468619e-06
2.78366e-06
0.0008360957
-0.0008281774
1.115915e-07
-2.086237e-05
2.782009e-06
3.210661e-06
4.056132e-06
3.515847e-07
0.0008229459
-0.0008147141
3.467364e-07
-1.804157e-05
9.060631e-08
4.023452e-06
4.997427e-06
5.157244e-06
0.0008123775
-0.0008042533
2.667122e-07
-2.800362e-05
5.316826e-06
2.377992e-06
6.760716e-06
3.79703e-06
0.000794089
-0.0007809988
1.88632e-07
-3.37515e-05
4.973052e-06
5.017649e-06
6.684943e-06
4.380275e-06
0.0007716249
-0.0007564829
2.219446e-07
-3.315548e-05
4.830715e-06
4.069154e-06
4.511384e-06
6.645462e-06
0.000744367
-0.0007300701
9.117572e-08
-3.743038e-05
7.279268e-06
3.78708e-06
5.330442e-06
7.246995e-06
0.0007194026
-0.000705037
3.322844e-07
-3.992586e-05
9.277164e-06
4.007097e-06
4.696685e-06
9.526808e-06
0.0006913937
-0.0006737507
4.062702e-07
-4.33307e-05
8.704824e-06
3.299765e-06
3.750036e-06
7.24754e-06
0.0006584907
-0.000638457
4.335702e-07
-2.881585e-05
5.552711e-06
-2.895174e-06
-1.556467e-06
-2.073982e-07
0.00062476
-0.0005846971
9.0621e-08
-2.578604e-05
-6.973948e-06
3.513879e-07
-7.537517e-06
7.339058e-06
0.0005526647
-0.0005582954
-5.089112e-08
-6.809661e-06
1.053609e-06
5.451751e-06
-1.353175e-06
6.879102e-07
0.0005419961
-0.000521414
-7.752063e-08
-2.309128e-05
1.314653e-06
-6.147904e-07
1.198931e-06
4.215335e-06
0.0005032091
-0.0004855711
-1.212256e-08
-3.380351e-05
4.190266e-06
4.227379e-06
3.544657e-06
6.134627e-06
0.0004655102
-0.0004486971
-5.308705e-08
-3.919392e-05
6.700245e-06
4.765688e-06
4.833373e-06
7.353519e-06
0.0004312131
-0.0004074621
1.060465e-07
-5.061848e-05
6.143015e-06
6.339904e-06
6.924971e-06
6.790152e-06
0.0003827437
-0.0003597339
-1.07712e-07
-5.015314e-05
6.896013e-06
6.763512e-06
6.801311e-06
6.919382e-06
0.0003344089
-0.0003143107
-3.606962e-07
-4.710814e-05
7.070414e-06
6.688213e-06
6.692565e-06
6.542139e-06
0.0002922577
-0.0002783225
-8.432265e-08
-3.826477e-05
5.505899e-06
6.322959e-06
6.042862e-06
5.184713e-06
0.0002586567
-0.0002507747
3.635596e-07
-2.99276e-05
5.379917e-06
5.696666e-06
5.420721e-06
7.812512e-06
0.0002367897
-0.0002071298
1.156729e-07
-6.205958e-05
9.374338e-06
7.264501e-06
7.832675e-06
9.914236e-06
0.0001775662
-0.0001438524
-9.48565e-07
-7.054379e-05
1.027155e-05
8.454725e-06
9.138046e-06
1.040186e-05
0.0001107733
-8.71168e-05
4.683842e-07
-6.06435e-05
8.538097e-06
8.745175e-06
8.833459e-06
6.489861e-06
7.13937e-05
-4.945743e-05
-1.429368e-07
-4.746965e-05
5.925785e-06
6.845334e-06
6.415339e-06
6.826852e-06
1.931216e-05
1.314965e-05
4.15514e-07
-6.09795e-05
6.910427e-06
6.731524e-06
7.633377e-06
6.822425e-06
-3.762736e-05
7.352679e-05
7.866003e-07
-6.404605e-05
7.182532e-06
6.556242e-06
6.798821e-06
7.642647e-06
-0.0001068069
0.0001225247
1.09071e-06
-4.343672e-05
6.32808e-06
5.62893e-06
7.028568e-06
4.580695e-06
-0.0001349048
0.000137593
1.023277e-06
-2.043563e-05
4.267161e-06
3.958038e-06
3.918299e-06
2.727419e-06
-0.0001508926
0.0001649834
2.457612e-07
-2.575361e-05
2.784512e-06
3.027063e-06
2.87813e-06
2.861093e-06
-0.0001804669
0.0001940435
4.188851e-07
-2.558465e-05
2.879746e-06
2.914077e-06
2.934261e-06
3.264566e-06
-0.0002082433
0.0002223598
4.693845e-07
-2.730104e-05
3.171772e-06
3.322055e-06
2.956677e-06
2.340505e-06
-0.0002321526
0.0002428476
1.469327e-07
-2.056327e-05
2.317728e-06
2.626086e-06
2.437049e-06
2.343862e-06
-0.0002564444
0.0002688126
9.613224e-10
-2.168135e-05
2.362978e-06
2.286698e-06
2.318613e-06
2.540442e-06
-0.0002842572
0.0002980582
-6.304607e-08
-2.389414e-05
2.641009e-06
2.46609e-06
2.508609e-06
2.682221e-06
-0.0003150198
0.0003268967
1.477836e-09
-2.241087e-05
2.586558e-06
2.673245e-06
2.590515e-06
1.100216e-06
-0.0003377242
0.0003448371
2.04233e-07
-1.399877e-05
2.228289e-06
1.841953e-06
1.511223e-06
4.346143e-07
0.0003530587
-2.99793e-07
-3.829715e-06
-0.000350351
2.391418e-07
4.174792e-07
3.305564e-07
-4.544737e-07
-0.0003537589
0.0003520752
-5.269082e-07
3.861324e-06
-5.198735e-07
-2.987883e-07
-3.775604e-07
-1.008124e-06
-0.0003494773
0.000344636
-5.510988e-07
9.266284e-06
-1.061722e-06
-8.858578e-07
-9.182127e-07
-1.190853e-06
-0.0003399186
0.0003327782
-3.008862e-07
1.209442e-05
-1.193779e-06
-1.15387e-06
-1.114624e-06
-1.148319e-06
-0.0003266291
0.0003173401
1.76529e-08
1.397831e-05
-1.034951e-06
-1.038101e-06
-1.48561e-06
-1.315393e-06
-0.0003136079
0.0003090727
-1.226795e-07
1.088696e-05
-1.762855e-06
-1.351643e-06
-1.799192e-06
-1.585897e-06
-0.000303727
0.0002979591
-1.467958e-08
1.22699e-05
-1.583715e-06
-1.644774e-06
-1.672976e-06
-1.957519e-06
-0.0002928493
0.0002852942
4.79368e-08
1.54474e-05
-2.076937e-06
-1.907221e-06
-1.998597e-06
-2.269512e-06
-0.0002769611
0.0002658277
1.163013e-07
2.011008e-05
-2.224988e-06
-2.3499e-06
-2.248594e-06
-2.18275e-06
-0.0002569895
0.0002460244
9.987238e-08
1.963288e-05
-2.192336e-06
-2.203849e-06
-2.188785e-06
-2.452819e-06
-0.0002350443
0.0002218942
8.497226e-08
2.277854e-05
-2.380954e-06
-2.357275e-06
-2.522412e-06
-1.780467e-06
-0.0002147352
0.0002055972
8.311297e-09
1.686543e-05
-1.679817e-06
-2.235973e-06
-2.039559e-06
-1.382748e-06
-0.0001968355
0.0001916082
1.161057e-07
1.257377e-05
-2.034127e-06
-1.885444e-06
-2.160263e-06
-1.05954e-06
-0.0001898424
0.0001893406
1.067597e-07
5.071254e-06
-8.284899e-07
-1.192671e-06
-1.595508e-06
-5.015153e-07
-0.0001882415
0.000182601
5.956798e-07
6.543656e-06
4.190273e-09
-3.337595e-07
-6.678349e-07
-5.496374e-07
-0.0001771772
0.0001728747
2.107609e-07
5.985417e-06
-2.847455e-07
-3.475019e-07
-7.11796e-07
-6.632041e-07
-0.0001681264
0.00016231
1.455701e-07
8.359812e-06
-4.991591e-07
-6.574568e-07
-8.691991e-07
-7.577074e-07
-0.0001595979
0.0001562794
1.786003e-07
5.692382e-06
-3.716639e-07
-6.110316e-07
-8.119998e-07
-7.053888e-07
-0.000153873
0.0001509226
4.477514e-08
5.230574e-06
-3.524921e-07
-5.417232e-07
-7.253395e-07
-6.027095e-07
-0.0001476383
0.0001439562
-3.742272e-09
5.933815e-06
-4.481636e-07
-6.104952e-07
-5.86613e-07
-9.700016e-07
-0.0001419633
0.0001359498
-3.602392e-07
1.06172e-05
-9.243711e-07
-9.948215e-07
-1.354324e-06
-1.672906e-06
-0.0001311725
0.0001238056
-8.807542e-08
1.411057e-05
-1.495827e-06
-1.620748e-06
-1.866097e-06
-1.84459e-06
-0.0001106103
9.826544e-05
1.549909e-07
1.934555e-05
-1.629039e-06
-1.768254e-06
-1.913764e-06
-1.704278e-06
-8.672245e-05
8.058928e-05
1.490134e-07
1.280328e-05
-1.55601e-06
-1.642579e-06
-1.916251e-06
-3.190441e-06
-8.567323e-05
8.304699e-05
6.260444e-07
1.548139e-05
-3.333615e-06
-3.312566e-06
-3.644565e-06
-2.127085e-06
-1.427515e-05
1.084838e-05
3.903387e-08
5.514823e-06
3.963788e-07
-6.271226e-06
6.270013e-06
3.759199e-09
-3.989254e-07
4.474734e-07
-7.708819e-06
7.68809e-06
-1.871889e-08
-4.08026e-07
-2.45619e-07
-8.332493e-06
8.375346e-06
-4.320971e-08
2.459761e-07
-5.979391e-07
-7.234189e-06
6.761804e-06
-4.363855e-08
1.113962e-06
-8.744135e-07
-6.192926e-06
5.854153e-06
-2.249442e-08
1.235681e-06
-1.022198e-06
-3.903477e-06
2.878095e-06
-1.268529e-08
2.060265e-06
-1.480092e-06
8.419353e-08
9.327696e-08
-4.17524e-08
1.344374e-06
-1.162699e-06
3.473419e-06
-4.055443e-06
-4.429747e-08
1.789021e-06
-7.73114e-07
6.287233e-06
-7.270293e-06
-3.290953e-08
1.789083e-06
-9.523936e-07
8.05879e-06
-8.123891e-06
-2.645048e-08
1.043946e-06
-9.568912e-07
1.076935e-05
-1.177975e-05
-3.558414e-08
2.002873e-06
-9.030391e-07
1.488484e-05
-1.592577e-05
-7.061109e-09
1.951038e-06
-6.933398e-07
1.707197e-05
-1.82407e-05
-1.070724e-08
1.872777e-06
-7.119586e-07
2.102318e-05
-2.185119e-05
2.600508e-08
1.51396e-06
-6.261142e-07
2.318133e-05
-2.38507e-05
2.058354e-08
1.274906e-06
-1.146061e-06
2.528004e-05
-2.667944e-05
-5.605756e-10
2.546028e-06
-1.391139e-06
3.150259e-05
-3.284293e-05
-2.525717e-08
2.756731e-06
-1.504818e-06
3.602761e-05
-3.838847e-05
-6.874127e-08
3.934417e-06
-4.712291e-07
4.481637e-05
-4.569828e-05
1.490931e-07
1.204038e-06
-1.420876e-06
4.747573e-05
-4.925381e-05
1.287063e-07
3.070253e-06
-9.57401e-07
5.53017e-05
-5.573671e-05
1.312663e-07
1.261146e-06
-9.469895e-07
5.858048e-05
-6.050227e-05
1.00162e-07
2.768618e-06
-3.22589e-07
6.430149e-05
-6.495318e-05
6.941205e-08
9.048633e-07
-1.103356e-07
6.721108e-05
-6.751568e-05
-2.467145e-08
4.396083e-07
8.093808e-08
6.834671e-05
-6.852173e-05
-5.951513e-08
1.535971e-07
3.968689e-07
6.851402e-05
-6.838781e-05
-1.316626e-07
-3.91424e-07
4.397786e-07
6.775593e-05
-6.742992e-05
-1.626786e-07
-6.031088e-07
6.371216e-07
6.6377e-05
-6.595556e-05
-9.871964e-08
-9.598439e-07
6.005159e-07
6.444737e-05
-6.393936e-05
-8.268022e-08
-1.025847e-06
7.280019e-07
6.279994e-05
-6.207296e-05
-5.73718e-08
-1.397606e-06
9.244667e-07
5.99081e-05
-5.90372e-05
-2.149616e-08
-1.773875e-06
1.020906e-06
5.664857e-05
-5.621159e-05
-1.006546e-07
-1.357228e-06
6.963332e-07
5.393352e-05
-5.288483e-05
-7.406472e-08
-1.670958e-06
5.976123e-07
5.147366e-05
-5.03615e-05
-6.996826e-08
-1.639806e-06
4.655883e-07
4.904742e-05
-4.888635e-05
-6.988982e-08
-5.567603e-07
2.656065e-07
4.643116e-05
-4.573837e-05
-4.484705e-08
-9.135502e-07
4.137425e-07
4.36018e-05
-4.269838e-05
-4.178981e-08
-1.27537e-06
1.04434e-06
3.976091e-05
-3.793729e-05
-3.456586e-08
-2.833398e-06
1.179566e-06
3.477328e-05
-3.339536e-05
-1.492098e-08
-2.542565e-06
1.150274e-06
2.930285e-05
-2.923703e-05
7.228674e-08
-1.288383e-06
1.197659e-06
2.451879e-05
-2.45935e-05
1.04542e-07
-1.227482e-06
8.661191e-07
2.098858e-05
-2.099455e-05
2.903325e-08
-8.891855e-07
2.184907e-07
1.830386e-05
-1.769521e-05
2.649906e-08
-8.536336e-07
3.2284e-07
1.713848e-05
-1.619148e-05
5.053978e-08
-1.320381e-06
1.110456e-06
1.376275e-05
-1.25474e-05
5.496764e-08
-2.380777e-06
1.568844e-06
9.324827e-06
-8.883504e-06
1.998564e-08
-2.030153e-06
1.011484e-06
4.794516e-06
-4.363789e-06
-1.361098e-08
-1.4286e-06
7.454791e-07
6.603511e-07
-5.583312e-07
-4.030023e-08
-8.071987e-07
7.823119e-07
-1.054613e-06
2.088252e-06
-1.011977e-07
-1.714752e-06
1.238273e-06
-3.980781e-06
5.108976e-06
-9.065584e-08
-2.275813e-06
7.136785e-07
-1.030119e-05
1.262863e-05
-2.615762e-08
-3.01496e-06
8.798017e-07
-1.26166e-05
1.355001e-05
1.280534e-07
-1.941271e-06
4.94674e-07
-1.466044e-05
1.53043e-05
4.370905e-08
-1.182252e-06
3.099676e-07
-1.583069e-05
1.60844e-05
-1.439426e-08
-5.492763e-07
2.034235e-07
-1.655184e-05
1.686297e-05
-2.361015e-08
-4.909363e-07
1.974747e-07
-1.718077e-05
1.758724e-05
-4.989251e-08
-5.540541e-07
2.000479e-07
-1.80216e-05
1.810319e-05
-6.312353e-08
-2.185163e-07
4.257593e-07
-1.883927e-05
1.890593e-05
-5.486892e-08
-4.375459e-07
4.589681e-07
-1.985224e-05
2.028541e-05
-6.738162e-08
-8.24754e-07
3.436884e-07
-2.138181e-05
2.146559e-05
-4.662479e-08
-3.808462e-07
3.835738e-07
-2.209131e-05
2.226182e-05
-1.169568e-08
-5.423822e-07
2.952688e-07
-2.273398e-05
2.30834e-05
1.164899e-09
-6.45857e-07
3.407923e-07
-2.354632e-05
2.353401e-05
2.613903e-08
-3.546148e-07
9.243268e-08
-2.368373e-05
2.352024e-05
5.156541e-08
1.949468e-08
-1.432291e-07
-2.316613e-05
2.289988e-05
6.896946e-08
3.405183e-07
-3.364964e-07
-2.174974e-05
2.115114e-05
6.00425e-08
8.750539e-07
-1.24617e-06
-1.873431e-05
1.7248e-05
5.552751e-08
2.676959e-06
-1.883246e-06
-1.571747e-05
1.449297e-05
9.677709e-08
3.010968e-06
-2.637918e-06
-7.838076e-06
7.364486e-06
-2.111505e-09
3.11362e-06
-2.210875e-06
-2.025545e-06
9.299475e-06
-1.422264e-07
1.476383e-05
-2.67561e-06
-2.171641e-06
-2.618447e-06
-2.240365e-06
-5.423927e-06
-4.554667e-06
-8.98888e-07
-4.764451e-06
4.392109e-06
1.269006e-07
4.009121e-06
-9.621136e-07
-9.43367e-07
-9.593105e-07
-8.581443e-07
-1.389231e-08
-4.097827e-06
8.70196e-08
7.566042e-06
-9.767052e-07
-8.774005e-07
-8.290926e-07
1.873779e-07
2.733671e-06
5.170274e-06
-6.520119e-07
-8.421033e-06
3.583478e-07
2.039882e-07
4.193855e-07
1.423472e-06
-1.553908e-05
2.509329e-05
-5.136473e-07
-1.501868e-05
1.563185e-06
1.451483e-06
1.539981e-06
1.748031e-06
-3.349242e-05
3.840021e-05
-4.668128e-07
-1.146452e-05
1.782674e-06
1.760782e-06
1.732067e-06
1.45703e-06
-4.050127e-05
4.067088e-05
-2.12236e-07
-5.734215e-06
1.467399e-06
1.504187e-06
1.348233e-06
8.090321e-07
-3.837917e-05
3.645619e-05
3.386819e-07
-9.573526e-07
6.98983e-07
5.565398e-07
4.77096e-07
4.22499e-07
-3.82441e-05
4.26105e-05
-4.128167e-07
-5.80306e-06
5.230734e-07
4.748056e-07
4.291024e-07
5.063382e-07
-4.753343e-05
5.158971e-05
-1.16729e-07
-6.258791e-06
7.14313e-07
5.746868e-07
5.239003e-07
3.798043e-07
-5.420176e-05
5.106465e-05
7.467834e-07
1.043108e-06
4.606831e-07
3.093236e-07
1.974042e-07
-2.328487e-07
-4.975918e-05
4.950309e-05
2.271848e-09
1.366112e-06
-2.104951e-07
-1.209701e-07
-5.479845e-07
-7.396812e-07
-4.721588e-05
4.194836e-05
7.294155e-07
7.540866e-06
-7.504053e-07
-7.443403e-07
-7.68333e-07
-7.739819e-07
-3.789521e-05
3.389242e-05
5.563395e-07
6.540566e-06
-7.634405e-07
-7.778063e-07
-7.788864e-07
-7.228885e-07
-3.228739e-05
3.065044e-05
-3.205683e-07
4.849664e-06
-7.308695e-07
-7.127395e-07
-7.256419e-07
-9.318282e-07
-2.685037e-05
1.94486e-05
-7.913886e-08
1.129538e-05
-9.914573e-07
-9.149912e-07
-9.761895e-07
-1.408182e-06
-8.838824e-06
1.4434e-06
2.130475e-07
1.267534e-05
-1.362199e-06
-1.40322e-06
-1.319361e-06
-4.261005e-07
-3.89475e-07
-2.257461e-06
6.241168e-08
4.0873e-06
-2.792826e-07
-4.508451e-07
-3.46547e-07
-3.00144e-07
4.442207e-06
-2.988243e-06
-4.346288e-07
-2.595281e-08
-2.576477e-07
-2.362891e-07
-1.993016e-07
-9.767937e-08
2.416285e-06
-4.693195e-06
-2.973856e-07
2.993059e-06
-1.136549e-07
-1.208348e-07
-8.659412e-08
-1.629437e-07
4.831289e-06
-5.386613e-06
-3.026334e-07
1.547455e-06
-1.499673e-07
-1.565924e-07
-2.199956e-07
-3.789225e-07
6.209785e-06
-7.386026e-06
-1.852618e-07
2.951217e-06
-4.019352e-07
-3.946994e-07
-4.141576e-07
-5.384619e-07
8.481493e-06
-1.03905e-05
-4.482441e-08
4.157842e-06
-5.619208e-07
-5.431022e-07
-5.605275e-07
-7.432303e-07
1.231698e-05
-1.628461e-05
2.436285e-07
6.754529e-06
-7.766038e-07
-7.535518e-07
-7.571412e-07
-6.217874e-07
2.041741e-05
-2.226006e-05
1.658029e-07
4.38766e-06
-6.268675e-07
-7.265427e-07
-7.356174e-07
-7.624436e-07
2.715438e-05
-2.871602e-05
-2.537002e-09
4.705464e-06
-9.052074e-07
-7.490015e-07
-7.246332e-07
-5.98905e-07
3.123142e-05
-3.069499e-05
2.057184e-07
1.591867e-06
-5.387294e-07
-6.36548e-07
-5.598364e-07
-2.306277e-07
2.962449e-05
-2.641979e-05
3.940702e-07
-2.841511e-06
-1.373518e-07
-2.426142e-07
-1.466682e-07
2.423247e-07
2.392863e-05
-2.022865e-05
1.497401e-07
-4.918106e-06
2.956482e-07
2.402256e-07
2.901942e-07
5.766912e-07
1.740103e-05
-1.402345e-05
4.254896e-07
-6.187134e-06
6.281913e-07
5.621958e-07
6.16981e-07
8.84043e-07
1.090294e-05
-8.540735e-06
-4.535872e-08
-5.949696e-06
9.414761e-07
8.773256e-07
9.300063e-07
1.253893e-06
6.860474e-06
-4.462057e-06
-1.045409e-07
-7.482935e-06
1.344131e-06
1.252391e-06
1.338643e-06
1.639795e-06
9.234987e-07
2.077729e-06
-4.365254e-07
-9.06964e-06
1.55661e-06
1.681787e-06
1.626746e-06
1.312508e-06
-6.212754e-06
7.663423e-06
-8.424986e-09
-6.423894e-06
1.229666e-06
1.461603e-06
9.778728e-07
5.454426e-07
-8.44437e-06
9.77288e-06
4.468465e-08
-3.532269e-06
5.15023e-07
6.231613e-07
4.754469e-07
-8.639046e-08
-8.074995e-06
6.247459e-06
-1.747168e-07
2.659481e-06
-2.088503e-07
-1.241081e-07
-2.378799e-07
-2.336647e-07
-3.998568e-06
4.375946e-06
-2.902782e-07
7.399395e-07
-1.783153e-07
-2.344332e-07
-1.806262e-07
3.246027e-08
-6.162399e-06
8.849296e-06
-6.065469e-07
-2.28991e-06
7.18963e-08
3.323396e-08
7.196919e-08
2.035718e-07
-1.10985e-05
1.374125e-05
-9.616398e-07
-2.564985e-06
2.347893e-07
2.05398e-07
2.401168e-07
1.793018e-07
-1.500816e-05
1.380313e-05
-5.461264e-08
4.609441e-07
3.004782e-07
1.90421e-07
1.285013e-07
6.208843e-08
-1.471934e-05
1.525085e-05
-2.396588e-07
-5.360053e-07
5.027894e-08
6.502255e-08
6.676486e-08
-8.183557e-08
-1.49395e-05
1.447964e-05
-2.579049e-07
1.10479e-06
-1.103672e-07
-8.330091e-08
-1.115239e-07
-1.585258e-07
-1.343319e-05
1.192765e-05
-1.99052e-07
2.347481e-06
-1.659921e-07
-1.556356e-07
-1.627316e-07
-3.661379e-08
-1.012429e-05
9.255817e-06
1.072162e-07
8.532404e-07
-3.490007e-09
-5.000031e-08
-1.880599e-09
-1.939106e-07
-7.811203e-06
8.942205e-06
6.016611e-09
-7.008764e-07
-6.290388e-08
-1.13772e-07
-6.555572e-08
3.01845e-08
-9.352227e-06
8.514996e-06
4.734799e-08
6.499064e-07
4.971373e-08
2.957241e-08
3.050565e-08
-1.151375e-07
-1.051177e-05
1.370932e-05
-1.084318e-07
-2.701579e-06
-8.30518e-08
-1.024555e-07
-8.689307e-08
-4.367355e-08
-1.772336e-05
2.342889e-05
-2.348037e-07
-5.238586e-06
-4.677805e-08
-6.941456e-08
-7.227904e-08
-1.075421e-07
-2.90028e-05
3.444444e-05
8.368502e-08
-4.892821e-06
-1.794619e-07
-1.35131e-07
-2.103607e-07
-3.913531e-07
-3.537495e-05
2.830167e-05
-5.731035e-07
9.606772e-06
-5.128931e-07
-4.446029e-07
-6.115429e-07
-8.969099e-07
-1.431922e-05
3.931932e-06
-2.640814e-07
1.385772e-05
-8.220954e-07
-6.268601e-07
-8.604878e-07
-1.380387e-06
1.057462e-05
-2.603951e-05
-1.225451e-07
2.10265e-05
-1.350483e-06
-1.376508e-06
-1.331683e-06
-1.244833e-06
3.979839e-05
-5.0834e-05
4.61597e-07
1.544086e-05
-1.18427e-06
-1.233406e-06
-1.204335e-06
-2.675225e-06
5.519798e-05
-5.787652e-05
5.187855e-07
1.659696e-05
-4.285704e-06
-3.051123e-06
-4.425152e-06
-3.632664e-06
6.500435e-05
-4.997208e-05
-8.79956e-07
1.159881e-05
-6.635004e-06
-4.078839e-06
-1.140461e-05
-6.392861e-07
2.427564e-05
-6.612045e-06
-1.396751e-06
-1.837366e-05
4.936811e-07
7.505607e-07
1.501866e-06
4.470724e-06
-3.819275e-06
1.563219e-05
-2.265158e-08
-2.385735e-05
4.866253e-06
2.082527e-06
6.475886e-07
7.060555e-06
-1.84849e-05
1.743501e-05
7.415581e-09
-2.521539e-05
2.907325e-06
8.339785e-06
7.950197e-06
4.177438e-06
-2.10395e-05
2.570278e-05
1.111233e-06
-1.075107e-05
1.148432e-06
-3.288683e-07
-2.044402e-08
3.034654e-06
-3.194725e-05
3.82244e-05
-1.405676e-06
-1.491255e-05
6.762523e-07
3.441658e-06
2.88851e-06
3.480947e-07
-4.722616e-05
5.781997e-05
-1.941638e-06
-9.971207e-06
3.813706e-07
-3.188038e-08
6.214452e-07
6.278517e-07
-6.772482e-05
7.734325e-05
-1.761881e-06
-1.158093e-05
1.225352e-06
5.791584e-07
1.292023e-06
9.726101e-08
-8.338161e-05
9.104298e-05
-1.729101e-06
-8.070042e-06
5.546013e-07
2.938435e-07
1.192068e-06
1.642733e-07
-9.662974e-05
0.0001035824
-1.614293e-06
-8.048843e-06
6.126901e-07
5.785135e-07
1.354958e-06
1.424369e-06
-0.0001064012
0.0001085982
-1.203425e-06
-6.298563e-06
1.620464e-06
1.181719e-06