/*--------------------------------*- C++ -*----------------------------------*\
| =========                 |                                                 |
| \\      /  F ield         | foam-extend: Open Source CFD                    |
|  \\    /   O peration     | Version:     3.1                                |
|   \\  /    A nd           | Web:         http://www.extend-project.de       |
|    \\/     M anipulation  |                                                 |
\*---------------------------------------------------------------------------*/
FoamFile
{
    version     2.0;
    format      ascii;
    class       volScalarField;
    location    "13.5";
    object      alpha1;
}
// * * * * * * * * * * * * * * * * * * * * * * * * * * * * * * * * * * * * * //

dimensions      [0 0 0 0 0 0 0];

internalField   nonuniform List<scalar> 
119952
(
1
1
1
1
1
1
1
1
1
1
1
1
1
1
1
1
1
1
1
0.9999999
1
1
1
1
1
1
1
1
1
1
1
1
1
1
1
1
1
1
1
1
1
1
1
1
0.9999999
1
1
1
1
1
1
0.9999999
1
0.9999999
0.9999999
1
1
1
0.9999999
1
1
1
1
1
1
1
1
1
1
1
1
1
1
1
1
1
1
1
1
1
1
1
1
0.9999999
1
1
1
0.9999999
1
1
1
1
0.9999999
1
1
0.9999999
0.9999999
1
0.9999999
1
1
1
1
0.9999999
0.9999999
1
1
1
1
1
1
1
1
1
1
1
1
1
1
1
1
1
1
0.9999999
1
1
1
1
1
1
1
1
1
1
1
1
1
0.9999993
0.9999981
0.9999713
0.9989507
0.9932772
0.9957417
0.9999745
1
1
1
1
1
1
1
1
1
1
1
1
1
1
1
1
1
1
1
1
1
1
1
1
1
1
1
1
1
1
1
1
1
1
1
1
1
1
0.9999999
0.9999998
1
1
1
0.9999996
0.9999999
1
1
1
0.9999997
1
1
1
1
0.9999999
1
1
1
1
1
1
1
1
1
1
1
1
1
1
1
1
1
1
1
1
1
1
1
1
1
1
1
1
1
1
1
1
1
1
1
1
1
1
1
1
1
1
1
1
1
1
1
1
1
1
1
1
1
1
0.9999999
1
1
1
1
0.9999994
1
1
1
1
1
1
1
1
1
1
1
1
1
1
1
1
1
1
1
1
1
1
1
1
1
1
1
0.9999996
1
1
1
1
1
1
0.999999
0.9999992
1
1
1
1
1
0.9999995
0.9999997
1
1
0.9999998
0.9999999
1
1
1
1
1
1
0.9999999
0.9999997
0.9999997
1
0.9999997
0.9999996
1
1
1
0.9999998
0.9999998
1
0.9999995
0.9999996
1
1
0.9999996
0.9999995
1
1
1
0.9999995
1
0.9999996
0.9999994
1
1
1
1
0.9999993
0.9999998
1
1
1
0.9999998
0.9999996
1
1
1
1
1
1
1
0.9999999
1
0.9999997
0.9999901
0.9999936
1
1
1
1
1
1
1
1
1
1
1
1
1
1
1
1
1
1
1
1
1
1
1
1
1
1
1
1
1
1
1
1
1
1
1
1
1
1
1
1
1
1
1
1
1
1
1
1
1
1
1
1
1
1
1
1
1
1
1
1
1
1
1
1
1
1
1
1
1
1
1
1
1
1
1
1
1
1
1
1
1
1
1
1
1
1
1
1
1
1
1
1
1
1
0.9999999
1
1
1
0.9999999
1
1
1
1
1
1
1
1
1
1
1
1
1
1
1
1
1
1
1
1
1
1
1
1
1
1
1
1
1
0.9999999
0.9999999
0.9999999
0.9999999
1
1
1
1
1
1
1
1
1
1
1
1
1
0.9999999
0.9999999
1
1
1
1
1
1
0.9999999
1
1
1
1
1
1
1
1
1
1
1
1
1
1
1
1
1
1
1
1
1
1
1
1
1
1
1
1
1
1
1
1
1
0.9999998
0.9999991
0.9999978
0.9999922
0.9998894
0.9979164
0.9595128
0.7805453
0.7584191
0.7905495
0.9278953
0.99297
0.9998642
0.9999996
1
1
1
0.9999999
0.9999998
0.9999997
0.9999997
0.9999997
0.9999993
0.9999993
0.9999997
1
1
1
1
1
1
1
1
1
1
1
1
1
1
1
1
1
1
1
1
1
1
1
1
1
1
1
1
1
1
1
1
1
1
0.9999999
0.9999999
1
1
1
1
1
1
0.9999999
0.9999999
1
1
1
1
1
1
1
1
0.9999999
0.9999999
1
1
1
1
1
1
1
1
1
1
1
1
1
1
1
1
1
1
1
1
1
1
1
1
1
1
1
1
1
1
1
1
1
1
1
1
1
1
1
1
1
1
1
1
1
1
1
1
1
1
1
1
1
1
1
1
1
1
1
1
1
1
1
1
1
1
1
1
1
0.9999999
0.9999998
0.9999999
1
1
1
1
1
1
1
1
1
1
1
1
1
1
0.9999998
0.9999971
0.9999761
0.9999434
0.9999356
0.9999378
0.9999484
0.9999711
0.9999931
0.9999996
1
1
1
1
1
1
1
1
1
1
1
0.9999999
0.9999997
0.9999997
0.9999998
1
1
1
1
1
0.9999997
0.9999998
0.9999999
1
1
1
1
0.9999999
0.9999999
1
1
1
1
1
1
0.9999999
0.9999999
0.9999999
1
1
1
1
1
1
0.9999998
0.9999982
0.9999867
0.9999309
0.9999026
0.9999532
0.9999927
0.9999997
1
1
1
1
0.9999999
0.9999997
0.9999991
0.9999976
0.9999933
0.9999865
0.9999824
0.9999781
0.9999572
0.9998036
0.9993091
0.9992835
0.9996683
0.9999574
0.9999989
1
1
1
1
1
1
1
1
1
1
1
1
1
1
1
1
1
1
1
1
1
1
1
1
1
1
1
1
1
1
1
1
1
1
1
1
1
1
1
1
1
1
1
1
1
1
1
1
1
1
1
1
1
1
1
1
1
1
1
1
1
1
1
1
1
1
1
1
1
1
1
1
1
1
1
1
1
1
1
1
1
1
1
1
1
1
1
1
1
1
1
1
0.9999999
0.9999999
0.9999999
0.9999999
1
1
1
1
1
1
1
1
1
1
1
1
1
1
1
1
1
1
1
1
1
0.9999998
0.9999998
0.9999998
0.9999999
1
1
1
1
1
1
1
1
1
1
1
1
1
1
1
1
1
1
1
1
1
1
1
1
1
1
1
0.9999999
0.9999997
0.9999997
0.9999999
1
1
1
1
1
1
1
1
1
1
1
1
1
1
1
1
1
0.9999999
0.9999998
0.9999998
0.9999999
1
1
1
1
1
1
1
1
1
1
1
1
1
1
1
1
1
1
1
1
1
1
1
1
1
1
1
1
1
0.9999999
0.9999997
0.9999985
0.9999806
0.9997879
0.9990504
0.9989625
0.9990528
0.9938801
0.8875185
0.7584191
0.7584191
0.7584191
0.7584191
0.9016575
0.990466
0.9998272
0.9999988
0.9999983
0.9999951
0.9999792
0.9999214
0.9999093
0.9999553
0.9999942
0.9999993
0.9999995
0.9999995
0.9999997
1
1
1
1
1
1
1
1
0.9999999
0.9999999
1
1
1
1
1
1
1
1
1
1
1
1
1
0.9999999
0.9999999
1
1
1
1
1
1
1
1
1
1
1
1
1
1
1
1
1
1
1
1
1
1
0.9999999
1
1
1
1
1
0.9999999
0.9999999
0.9999999
1
1
1
1
1
1
1
1
1
1
1
1
0.9999999
0.9999998
0.9999998
0.9999999
1
1
1
1
1
1
1
1
1
1
1
1
1
1
1
1
1
1
1
1
1
1
0.9999999
0.9999993
0.9999993
0.9999996
0.9999999
1
1
1
1
1
1
1
0.9999998
0.9999997
0.9999998
0.9999999
0.9999999
1
1
1
1
1
1
1
1
1
1
1
0.9999999
0.999999
0.9999979
0.9999981
0.9999987
0.9999994
0.9999998
1
1
1
1
1
1
1
1
1
1
0.9999999
0.9999982
0.9999653
0.9996002
0.9984609
0.9982138
0.9988209
0.9997042
0.9999817
0.9999998
1
1
1
1
1
1
1
1
1
1
1
0.9999998
0.9999997
0.9999998
0.9999999
1
1
1
1
1
1
1
1
1
1
0.9999999
0.9999999
0.9999999
1
1
1
1
1
1
1
1
1
0.9999998
0.9999997
0.9999998
0.9999999
1
0.9999999
0.9999992
0.9999926
0.9999394
0.9996984
0.999653
0.9998556
0.9999819
0.9999995
1
1
0.9999999
0.9999992
0.9999957
0.9999792
0.999923
0.9998585
0.999869
0.9999375
0.9998993
0.9991495
0.9978635
0.9978635
0.9978635
0.9978635
0.9985756
0.9997246
0.9999876
0.9999999
1
1
1
1
0.9999999
0.9999999
1
1
1
1
1
1
1
1
1
1
1
1
1
1
1
1
1
1
1
1
1
1
1
1
1
1
1
1
1
1
1
1
1
1
1
1
1
1
1
1
1
1
1
1
1
1
1
1
1
1
1
1
1
1
1
1
1
1
1
1
1
1
1
1
1
1
1
1
1
1
1
1
1
1
1
1
1
1
1
1
1
1
0.9999999
0.9999999
0.9999999
0.9999999
0.9999999
1
1
1
1
1
1
1
1
1
1
1
1
1
0.9999999
0.9999999
0.9999999
0.9999999
0.9999999
1
1
1
1
1
1
1
1
1
1
1
1
1
1
1
1
1
1
1
1
0.9999998
0.9999997
0.9999997
0.9999998
1
1
1
1
1
1
1
1
1
1
1
1
1
1
1
1
1
1
1
1
1
1
1
1
1
1
0.9999999
0.9999997
0.9999997
0.9999998
1
1
1
1
1
1
1
1
1
1
1
1
1
1
1
1
1
1
1
0.9999998
0.9999998
0.9999998
1
1
1
1
1
1
0.9999999
0.9999999
0.9999999
1
1
1
1
1
1
1
1
1
1
1
1
1
1
1
1
1
1
0.9999997
0.9999965
0.9999731
0.99975
0.9962047
0.9690464
0.9503417
0.9672453
0.9643176
0.8135643
0.7584191
0.7977739
0.9301468
0.9910209
0.9990361
0.9992759
0.9992792
0.9992537
0.9989222
0.9979059
0.9980449
0.9992912
0.9999095
0.9999956
0.9999995
0.9999993
0.9999978
0.9999984
0.9999996
1
1
1
1
1
1
1
1
1
0.9999999
0.9999996
0.9999996
0.9999998
1
1
1
0.9999999
0.9999999
1
1
1
1
1
1
0.9999999
0.9999999
1
1
1
1
1
1
1
0.9999999
1
1
1
1
1
1
1
1
1
1
1
1
1
1
1
1
1
1
1
1
1
1
0.9999999
0.9999999
0.9999999
1
1
1
1
1
1
1
1
1
1
1
1
1
0.9999999
0.9999996
0.9999996
0.9999997
0.9999999
1
1
1
1
1
1
1
1
1
1
1
1
1
1
1
1
1
1
0.9999997
0.9999993
0.9999993
0.9999994
0.9999998
1
1
1
1
1
1
0.9999999
0.9999994
0.9999993
0.9999993
0.9999993
0.9999995
0.9999997
0.9999998
1
1
1
1
1
1
1
1
1
0.9999994
0.999993
0.9999687
0.9999562
0.9999674
0.9999883
0.9999987
1
1
1
1
1
1
1
1
1
0.9999999
0.9999984
0.9999647
0.9992229
0.994078
0.9926666
0.9964678
0.9993097
0.9999523
0.9999991
1
1
1
1
1
1
1
1
1
1
1
0.9999999
0.9999999
0.9999999
1
1
1
1
1
1
1
1
1
1
1
1
0.9999998
0.9999999
1
1
1
1
1
1
1
1
1
0.9999998
0.9999997
0.9999998
1
0.9999999
0.9999993
0.9999877
0.9998419
0.9989872
0.9988338
0.9995219
0.999942
0.9999984
1
1
0.9999998
0.9999974
0.9999767
0.9998553
0.9991779
0.9959205
0.9909091
0.993114
0.9981273
0.9998461
0.9999437
0.9998902
0.9997333
0.9993967
0.9993212
0.9995294
0.9998662
0.9999899
0.9999999
1
1
1
1
1
0.9999999
0.9999998
0.9999999
1
1
1
1
1
1
1
1
1
1
1
1
1
1
1
1
1
1
1
1
1
1
1
1
1
1
1
1
1
1
1
1
1
1
1
1
1
1
1
1
1
1
1
1
1
1
1
1
1
1
1
1
1
1
1
1
1
1
1
1
1
1
1
1
1
1
1
1
1
1
1
1
1
1
1
1
1
1
1
1
1
1
1
1
1
1
1
1
1
1
1
1
1
1
0.9999999
0.9999998
0.9999998
0.9999999
1
1
1
1
1
1
1
1
1
1
1
1
1
1
0.9999999
0.9999999
0.9999999
1
1
1
1
1
1
1
1
1
1
1
1
1
1
1
1
1
1
1
1
0.9999998
0.9999997
0.9999998
0.9999999
1
1
1
1
1
1
1
1
1
1
1
1
1
1
1
1
1
1
1
1
1
1
1
1
1
1
1
0.9999998
0.9999999
1
1
1
1
1
1
1
1
1
1
1
1
1
1
1
1
1
1
1
0.9999998
0.9999998
0.9999998
1
1
1
1
1
1
1
0.9999999
0.9999999
1
1
1
1
1
1
1
1
1
0.9999999
0.9999999
1
1
1
1
1
1
1
0.9999993
0.9999848
0.9997197
0.9966424
0.9774693
0.8469121
0.7882767
0.7882767
0.9046687
0.9859115
0.9957217
0.9957335
0.9953337
0.9936766
0.9887683
0.9710436
0.9153106
0.8828484
0.9273528
0.9864278
0.9993391
0.9999673
0.9999974
0.9999995
0.9999995
0.9999991
0.9999978
0.9999978
0.9999986
0.9999995
0.9999999
1
1
1
1
1
1
1
1
0.9999999
0.9999994
0.9999988
0.999999
0.9999996
1
1
1
0.9999999
0.9999999
0.9999999
1
1
1
1
1
1
1
1
1
1
1
1
1
0.9999998
0.9999998
0.9999999
1
1
1
1
1
1
1
1
1
1
1
1
1
1
1
1
1
1
1
1
0.9999999
0.9999999
0.9999999
0.9999999
1
1
1
1
1
1
1
1
1
1
1
0.9999999
0.9999996
0.9999996
0.9999998
1
1
1
1
1
1
1
1
1
1
1
1
1
1
1
1
1
1
1
1
0.9999998
0.9999995
0.9999996
0.9999999
1
1
1
1
1
1
1
1
0.9999999
0.9999996
0.9999988
0.9999987
0.9999987
0.9999988
0.9999993
0.9999998
0.9999999
1
1
1
1
1
1
0.9999995
0.9999927
0.9999156
0.9997209
0.9997762
0.9999178
0.9999893
0.9999997
1
1
1
1
1
1
1
1
1
0.9999995
0.9999907
0.999831
0.9972514
0.9926666
0.9926666
0.9929245
0.9974258
0.9997398
0.9999952
1
1
1
1
1
1
1
1
1
1
1
1
1
1
1
1
1
0.9999999
0.9999998
0.9999998
0.9999999
1
1
1
0.9999998
0.9999997
0.9999997
0.9999999
1
1
1
1
1
1
1
1
1
1
1
1
0.9999998
0.9999953
0.9998851
0.9984895
0.9973112
0.9983958
0.9996958
0.9999853
0.9999999
1
1
0.9999994
0.9999883
0.999776
0.9972091
0.9786877
0.9568352
0.9711283
0.9931172
0.9995773
0.9999953
0.9999996
0.9999994
0.9999976
0.9999922
0.9999857
0.99998
0.9999802
0.9999895
0.9999982
0.9999999
1
1
1
1
1
0.9999998
0.9999996
0.9999997
0.9999999
1
1
1
1
1
1
1
1
1
1
1
1
1
1
1
1
1
1
1
1
1
1
1
1
1
1
1
1
1
1
1
1
1
1
1
1
1
1
1
1
1
1
1
1
1
1
1
1
1
1
1
1
1
1
1
1
1
1
1
1
1
1
1
1
1
1
1
1
1
1
1
1
1
1
1
1
1
1
1
1
1
1
0.9999999
0.9999999
0.9999999
1
1
1
1
1
1
1
1
1
1
1
1
1
1
1
1
1
1
1
0.9999998
0.9999998
0.9999999
1
1
1
1
1
1
1
1
1
1
1
1
1
1
0.9999999
0.9999999
1
1
1
1
1
1
1
1
1
1
1
1
1
1
1
1
1
1
1
1
1
1
0.9999999
1
1
1
1
1
1
1
1
1
1
1
1
1
1
1
1
1
1
1
1
1
1
1
1
1
1
1
1
1
1
1
1
1
1
1
1
1
1
1
1
1
1
1
1
1
1
1
1
1
0.9999999
0.9999999
0.9999999
1
1
1
1
1
1
1
1
1
1
1
1
1
1
1
1
1
1
0.9999999
0.9999999
1
1
1
1
1
1
0.9999999
0.9999984
0.9999692
0.9993849
0.9858261
0.8377032
0.7845367
0.7999711
0.9175127
0.9875115
0.9908981
0.9773919
0.9166086
0.8989609
0.8904394
0.6331333
0.178938
0.1525887
0.5276368
0.938445
0.9982026
0.9999888
0.9999968
0.9999969
0.9999969
0.9999966
0.9999944
0.9999893
0.9999878
0.9999888
0.9999918
0.9999956
0.9999983
0.9999995
0.9999998
0.9999999
1
1
1
1
1
0.9999994
0.999997
0.999996
0.9999974
0.9999995
1
1
1
1
0.9999999
0.9999999
0.9999999
1
1
1
1
1
1
1
1
1
1
1
0.9999999
0.9999996
0.9999996
0.9999998
1
1
1
1
1
1
0.9999999
1
1
1
1
1
1
1
1
1
1
1
1
1
1
1
1
0.9999999
0.9999999
0.9999999
1
1
1
1
1
1
1
1
1
0.9999999
0.9999999
0.9999999
1
1
1
1
1
1
1
1
1
1
1
1
1
1
1
1
1
1
1
1
1
1
1
1
1
1
1
1
1
1
1
1
1
1
1
0.9999999
0.9999995
0.9999984
0.999998
0.9999983
0.9999989
0.9999995
0.9999999
1
1
1
1
0.9999997
0.9999927
0.999869
0.9996382
0.9996382
0.9997272
0.9999356
0.9999965
1
1
1
1
0.9999999
0.9999998
0.9999998
0.9999999
1
0.9999997
0.9999947
0.9998816
0.9978731
0.9926796
0.9950175
0.9986508
0.9998848
0.9999978
1
1
1
1
1
1
1
0.9999999
0.9999998
0.9999996
0.9999996
0.9999998
1
1
1
1
1
1
0.9999999
0.9999998
0.9999998
0.9999999
1
1
1
0.9999999
0.9999997
0.9999997
0.9999999
1
1
0.9999999
0.9999997
0.9999998
0.9999999
1
1
1
1
1
1
0.9999994
0.9999809
0.999451
0.9974574
0.9973112
0.9983634
0.9996947
0.9999846
0.9999998
1
0.9999999
0.9999988
0.9999724
0.9993585
0.9841889
0.9178066
0.9124381
0.9440558
0.9897267
0.999546
0.9999962
0.999999
0.9999981
0.9999958
0.9999927
0.9999891
0.9999828
0.9999756
0.9999826
0.9999958
0.9999997
1
1
1
1
0.9999999
0.9999994
0.9999983
0.9999983
0.9999994
0.9999999
1
1
1
0.9999999
0.9999999
1
1
1
1
1
1
1
1
1
1
1
1
1
1
1
1
1
1
1
1
1
1
1
1
1
1
1
1
1
1
1
1
1
1
1
1
1
1
1
1
1
1
1
1
1
1
1
1
1
1
1
1
1
1
1
1
1
1
1
1
1
1
1
1
1
1
1
1
1
1
1
1
1
0.9999999
0.9999999
0.9999999
0.9999999
1
1
1
1
1
1
0.9999999
0.9999999
1
1
1
1
1
1
1
1
1
1
1
1
1
1
1
1
1
1
1
1
0.9999999
1
1
1
1
1
1
1
1
1
1
1
1
1
1
1
1
1
1
1
1
1
1
1
1
1
1
1
1
1
1
1
1
1
1
1
1
1
1
1
1
1
1
1
1
1
1
1
1
1
1
1
1
1
1
1
1
1
1
1
1
1
0.9999999
0.9999998
0.9999996
0.9999995
0.9999995
0.9999995
0.9999996
0.9999997
0.9999998
0.9999999
1
1
1
1
1
1
1
1
1
1
1
1
1
1
1
1
1
1
1
1
1
1
1
1
1
1
1
1
1
1
1
1
1
1
1
1
1
1
1
1
1
1
1
1
1
0.9999995
0.9999978
0.9999916
0.9999151
0.9990025
0.9782717
0.8708646
0.8795386
0.9612744
0.9737685
0.9435553
0.8836339
0.7521931
0.3311643
0.09535742
0.0947199
0.0947199
0.0947199
0.2657742
0.8064284
0.9891329
0.999893
0.9999646
0.9999435
0.999893
0.9998347
0.9997637
0.9996068
0.9994736
0.9994959
0.9996009
0.999759
0.9998837
0.9999438
0.9999763
0.9999954
0.9999998
1
1
1
1
0.9999999
0.9999984
0.9999904
0.9999848
0.999991
0.9999986
0.9999999
0.9999999
0.9999999
0.9999999
1
1
0.9999999
0.9999999
1
1
1
0.9999999
1
1
1
1
1
1
1
0.9999998
0.9999996
0.9999996
0.9999998
1
1
1
1
1
1
1
1
1
1
1
1
1
0.9999999
0.9999999
1
1
1
1
1
1
1
1
0.9999999
0.9999999
1
1
1
1
1
1
0.9999999
0.9999999
1
1
1
1
1
0.9999999
0.9999999
1
1
1
1
1
1
1
1
1
1
1
1
1
1
1
1
1
1
1
1
1
1
1
1
1
1
1
1
1
1
1
1
1
1
0.9999999
0.9999987
0.9999953
0.9999947
0.9999964
0.999999
0.9999999
1
1
1
0.9999999
0.999999
0.9999861
0.9998415
0.9996382
0.9997312
0.9999242
0.9999939
0.9999999
0.9999999
0.9999994
0.9999971
0.9999935
0.9999939
0.9999972
0.9999994
0.9999991
0.999998
0.9999956
0.9999846
0.999817
0.9988159
0.998456
0.9991796
0.9998636
0.9999949
1
1
0.9999999
0.9999996
0.9999988
0.9999961
0.9999877
0.9999759
0.9999776
0.9999919
0.9999992
1
1
1
0.9999999
0.9999998
0.9999998
0.9999999
1
1
1
1
0.9999998
0.9999998
0.9999999
1
1
1
1
1
0.9999999
0.9999996
0.9999995
0.9999996
0.9999999
1
1
1
1
1
1
0.9999995
0.9999849
0.9996264
0.9976311
0.9975139
0.9990293
0.9998482
0.9999918
0.9999999
1
0.9999999
0.9999989
0.9999781
0.9995581
0.9904037
0.9258537
0.9124381
0.9210621
0.9748643
0.9978658
0.9998841
0.9997464
0.9990827
0.9964967
0.9914239
0.992314
0.9974847
0.9997616
0.9999944
0.9999998
1
1
1
1
0.9999998
0.9999982
0.999992
0.9999921
0.9999973
0.9999997
1
1
1
1
0.9999998
0.9999997
0.9999997
0.9999998
0.9999999
1
1
1
1
1
1
1
1
1
1
1
1
1
1
1
1
1
1
1
1
1
1
1
1
1
1
1
1
1
1
1
1
1
1
1
1
1
1
1
1
1
1
1
1
1
1
1
1
1
1
1
1
1
1
1
1
1
1
1
1
1
1
1
1
1
1
1
1
1
1
1
0.9999999
0.9999998
0.9999998
0.9999998
0.9999999
1
1
1
1
1
1
1
1
1
1
1
1
1
1
1
1
1
1
1
1
1
1
1
1
1
1
1
1
1
1
1
1
1
1
1
1
1
1
1
1
1
1
1
1
1
1
0.9999999
0.9999999
0.9999999
0.9999999
0.9999999
1
1
1
0.9999999
0.9999999
0.9999999
0.9999998
0.9999996
0.9999993
0.9999992
0.9999994
0.9999997
0.9999998
0.9999998
0.9999998
0.9999995
0.9999986
0.9999965
0.9999953
0.9999956
0.9999972
0.9999991
0.9999998
0.9999998
0.9999998
0.9999996
0.999999
0.9999972
0.9999933
0.9999923
0.9999945
0.9999974
0.9999979
0.9999972
0.9999946
0.9999904
0.9999861
0.9999798
0.9999627
0.9999199
0.9998529
0.9997939
0.9997682
0.9997709
0.9997995
0.9998691
0.9999591
0.9999968
0.9999999
0.9999999
0.9999999
0.9999998
0.9999998
0.9999997
0.9999994
0.9999987
0.9999985
0.9999994
0.9999999
1
1
1
1
1
1
1
1
1
1
1
1
1
0.9999999
0.9999999
0.9999999
0.9999999
0.9999999
0.9999999
1
1
1
1
1
1
1
1
0.9999999
0.9999999
1
1
0.9999998
0.9999929
0.9998562
0.9995366
0.9996628
0.999273
0.9957344
0.9913399
0.9896661
0.9636483
0.8648508
0.8680562
0.7615163
0.2880426
0.1126185
0.1234819
0.3179647
0.7625328
0.9319697
0.9559295
0.9787174
0.9905523
0.9929757
0.9921059
0.9925651
0.9937564
0.9936231
0.991979
0.9907472
0.9910356
0.9914879
0.9921534
0.9930466
0.9939995
0.9956494
0.9983159
0.9997975
0.9999947
1
1
1
1
0.9999997
0.9999975
0.999983
0.9999433
0.9999504
0.9999869
0.9999992
0.9999999
0.9999997
0.9999997
0.9999998
1
1
1
1
1
1
0.9999999
0.9999998
0.9999998
0.9999999
1
1
1
1
1
1
0.9999997
0.9999997
0.9999999
1
1
1
1
1
1
1
1
1
1
1
1
1
0.9999999
0.9999999
0.9999999
1
1
1
1
1
1
1
1
1
1
1
1
1
1
1
0.9999999
0.9999999
0.9999999
0.9999999
1
1
1
0.9999999
0.9999999
0.9999999
1
1
1
1
1
1
1
1
1
1
1
1
1
1
1
1
1
1
1
1
1
1
1
1
1
1
1
1
1
1
1
1
1
0.9999992
0.9999937
0.9999799
0.9999801
0.9999892
0.999998
0.9999999
1
1
1
1
0.9999999
0.9999979
0.9999837
0.9999475
0.9999423
0.9999649
0.9999936
0.9999972
0.9999918
0.9999613
0.999914
0.9999285
0.999977
0.9999979
0.9999992
0.999993
0.9999332
0.999614
0.9984958
0.9967218
0.9965405
0.9980476
0.9996715
0.9999871
0.9999995
0.9999992
0.9999969
0.9999888
0.9999616
0.9998696
0.9996618
0.9995995
0.9997656
0.9999585
0.9999983
1
1
1
1
1
0.9999999
0.9999999
1
1
1
0.9999999
0.9999996
0.9999996
0.9999998
1
1
1
1
1
1
0.9999999
0.9999995
0.9999995
0.9999997
1
1
1
1
1
1
1
0.9999999
0.9999995
0.9999966
0.999963
0.9993149
0.9970042
0.9979538
0.9994723
0.9999602
0.999999
0.9999997
0.9999987
0.9999782
0.9995859
0.9924721
0.9597301
0.9626481
0.9841865
0.9977927
0.9995877
0.9989406
0.9914318
0.9291119
0.9000027
0.9510698
0.9926273
0.9997173
0.9999945
0.9999982
0.9999982
0.9999984
0.9999991
0.9999996
0.9999991
0.9999892
0.9999722
0.9999791
0.9999936
0.9999993
1
1
1
0.9999999
0.9999997
0.9999989
0.9999977
0.9999977
0.999999
0.9999999
1
1
1
1
1
1
1
1
1
1
1
1
1
1
1
1
1
1
1
1
1
1
1
1
1
1
1
1
1
1
1
1
1
1
1
1
1
1
1
1
1
1
1
1
1
1
1
1
1
1
1
1
1
1
1
1
1
1
1
1
1
1
1
1
1
1
1
1
1
1
1
1
1
1
1
1
1
1
1
1
1
1
1
1
1
1
1
1
1
1
0.9999999
0.9999998
0.9999998
0.9999999
1
1
1
1
1
1
1
1
1
1
1
1
1
1
1
1
1
1
1
1
1
0.9999999
0.9999998
0.9999996
0.9999994
0.9999994
0.9999994
0.9999995
0.9999997
0.9999998
0.9999998
0.9999994
0.9999979
0.9999944
0.9999887
0.9999824
0.9999789
0.9999787
0.9999823
0.999992
0.9999968
0.9999967
0.9999945
0.9999864
0.9999685
0.9999409
0.9999168
0.999912
0.9999181
0.9999447
0.9999767
0.9999861
0.9999857
0.9999798
0.9999591
0.9999137
0.9998302
0.9997215
0.9996778
0.9997235
0.9998627
0.9999588
0.9999694
0.9999625
0.9999208
0.9997594
0.9993197
0.998843
0.9988802
0.999243
0.9997119
0.9999333
0.9999586
0.9999564
0.999936
0.9998452
0.9995968
0.9992698
0.9992193
0.9994427
0.999793
0.9998697
0.9998594
0.9997803
0.9994799
0.9989009
0.9986664
0.9987495
0.9987736
0.9979579
0.9949857
0.9896435
0.9840485
0.9838085
0.9901104
0.9979942
0.9998935
0.999984
0.9999834
0.9999835
0.9999826
0.9999741
0.999924
0.9998021
0.9998294
0.9999515
0.9999966
0.9999999
0.9999999
0.9999999
0.9999998
0.9999993
0.9999974
0.9999961
0.9999976
0.9999992
0.9999996
0.9999996
0.9999996
0.9999993
0.9999982
0.9999945
0.9999863
0.9999771
0.999973
0.9999743
0.9999777
0.9999831
0.9999937
0.9999994
1
1
1
1
1
0.9999998
0.9999996
0.9999998
0.9999999
0.9999997
0.9999936
0.9997826
0.9965059
0.9915425
0.9953012
0.9962033
0.9781256
0.8821243
0.9046118
0.9012724
0.5176606
0.4261973
0.7025749
0.9476924
0.9859432
0.9872776
0.9867251
0.984954
0.9833616
0.9804771
0.9438467
0.9338969
0.9551602
0.9603442
0.9519623
0.9493217
0.9526147
0.9443473
0.8223554
0.5287811
0.4950602
0.584897
0.7665214
0.9130221
0.9778141
0.9971464
0.9998888
0.9999991
1
1
1
0.9999992
0.9999874
0.9998929
0.9997217
0.9997712
0.9999392
0.999996
0.9999999
0.9999998
0.9999991
0.9999991
0.9999996
1
1
1
1
1
1
0.9999999
0.9999998
0.9999998
0.9999999
1
1
1
1
1
1
0.9999999
0.9999998
0.9999999
1
1
1
1
1
1
1
1
1
1
1
1
1
0.9999999
0.9999999
0.9999999
1
1
1
1
1
1
1
1
1
1
1
1
1
1
1
1
0.9999999
0.9999999
1
1
1
1
1
1
0.9999999
1
1
1
1
0.9999999
0.9999999
1
1
1
1
1
1
1
1
1
1
1
1
1
1
1
1
1
1
1
1
1
1
1
1
1
1
0.9999999
0.9999973
0.9999678
0.9999006
0.9999225
0.999975
0.9999977
0.9999999
1
0.9999999
0.9999997
0.9999995
0.9999994
0.9999992
0.9999983
0.9999969
0.9999967
0.9999936
0.9999859
0.9999462
0.9997571
0.9994425
0.999581
0.9998865
0.9999913
0.9999993
0.9999982
0.9999719
0.9995357
0.9949397
0.9737295
0.9684978
0.9828818
0.9970002
0.9998814
0.9999986
0.9999991
0.9999875
0.9998821
0.9994034
0.9979126
0.996166
0.9964099
0.9983917
0.999797
0.9999947
1
1
1
1
1
1
1
1
1
0.9999999
0.9999992
0.9999977
0.9999981
0.9999994
1
1
1
1
1
1
1
1
0.9999997
0.9999996
0.9999998
1
1
1
1
0.9999999
0.9999999
1
1
0.9999996
0.9999918
0.9998648
0.998848
0.9963455
0.9967027
0.9981752
0.9993081
0.9998525
0.99999
0.9999978
0.999977
0.999528
0.9903838
0.97331
0.986195
0.9975702
0.9997673
0.9996185
0.9947734
0.9134436
0.8625364
0.8625364
0.9335538
0.9910844
0.999705
0.9999779
0.9999315
0.9998428
0.9998437
0.9998975
0.9999635
0.9999692
0.9999663
0.9999788
0.9999932
0.999999
1
1
0.9999999
0.9999996
0.9999983
0.9999937
0.9999841
0.9999826
0.999992
0.999999
0.9999999
0.9999999
0.9999997
0.9999996
0.9999997
0.9999999
1
1
1
1
1
1
1
1
1
1
1
1
1
1
1
1
1
1
1
1
1
1
1
0.9999999
0.9999999
0.9999999
1
1
1
1
1
1
1
1
1
1
1
1
1
1
1
1
1
1
1
1
1
1
1
1
1
1
1
1
1
1
1
1
1
1
1
1
1
1
1
1
1
1
1
1
1
1
1
1
1
1
1
1
1
1
1
1
1
1
1
1
1
1
1
1
1
1
1
1
1
1
1
1
1
1
0.9999999
1
1
1
1
1
1
1
1
1
1
1
0.9999999
0.9999997
0.9999994
0.9999989
0.9999985
0.9999981
0.9999981
0.9999984
0.9999986
0.9999981
0.999994
0.9999779
0.9999284
0.999804
0.9996096
0.9995246
0.9995345
0.9996136
0.9997771
0.999896
0.9999137
0.9998977
0.9997678
0.9992058
0.9975124
0.9947919
0.9939819
0.994577
0.9966784
0.9988945
0.9996075
0.9996254
0.9995139
0.9988103
0.9962627
0.9909912
0.9873942
0.9875511
0.9905045
0.9956401
0.9983151
0.9986601
0.9986779
0.9985007
0.996996
0.9911491
0.9789303
0.9735024
0.9776599
0.9893683
0.9970169
0.9978844
0.9979114
0.9973779
0.9924088
0.9710974
0.9461948
0.9488734
0.9683899
0.9876557
0.9944871
0.9962798
0.9965479
0.9963667
0.9946525
0.9868323
0.9729407
0.9741238
0.990203
0.9985327
0.9978348
0.9949229
0.9927847
0.9913472
0.9862651
0.9704145
0.9613436
0.9687088
0.9881656
0.9861662
0.9567744
0.8456492
0.8220892
0.9179959
0.9882974
0.9989375
0.9985795
0.9979947
0.9981301
0.9982971
0.9979747
0.996389
0.9967679
0.9989284
0.9998886
0.9999939
0.9999983
0.9999983
0.9999968
0.9999832
0.9999113
0.9998959
0.9999489
0.9999928
0.9999958
0.9999924
0.9999875
0.9999853
0.9999762
0.9999262
0.9998212
0.9997033
0.9994295
0.9974566
0.9930511
0.994901
0.9984822
0.9998699
0.9999975
1
1
1
0.9999999
0.9999997
0.9999986
0.9999979
0.999999
0.9999999
0.9999998
0.9999856
0.9995507
0.9967327
0.9845776
0.977834
0.9807752
0.9706062
0.9108558
0.5651295
0.6210499
0.8600125
0.9733872
0.9841293
0.9912277
0.9909023
0.9710379
0.9642483
0.9591169
0.8772606
0.8444571
0.8960196
0.900067
0.8768178
0.851661
0.8019487
0.5257031
0.1508828
0.05753116
0.07028675
0.07129616
0.05559582
0.06111799
0.089905
0.1462649
0.3770003
0.8150906
0.9802786
0.9993189
0.9999943
1
1
0.9999994
0.9999883
0.9998144
0.9989498
0.9990982
0.9997087
0.9999706
0.9999994
0.9999998
0.9999987
0.9999968
0.9999981
0.9999997
1
1
1
1
1
1
1
0.9999999
0.9999998
0.9999999
1
1
1
1
1
0.9999998
0.9999998
0.9999999
1
1
1
1
0.9999999
0.9999998
0.9999998
0.9999998
0.9999998
0.9999998
0.9999999
1
1
1
1
1
0.9999999
1
1
1
1
1
1
1
1
1
1
1
1
1
0.9999999
0.9999998
0.9999999
1
1
1
1
1
1
1
1
1
1
1
1
1
1
0.9999999
1
1
1
1
1
1
1
1
1
1
1
1
1
1
1
1
1
1
1
1
1
0.9999999
0.9999999
1
1
1
0.9999998
0.9999962
0.9999176
0.9998435
0.9998556
0.9999488
0.9999952
0.9999999
0.9999999
0.9999988
0.999989
0.9999582
0.9999434
0.9999503
0.9999774
0.9999925
0.9999801
0.9999049
0.9995873
0.9985226
0.9973258
0.9981738
0.9995655
0.9999706
0.9999985
0.9999978
0.9999871
0.9998283
0.9972936
0.9650937
0.9300521
0.9300538
0.9618681
0.9934677
0.9997143
0.9999975
0.9999984
0.9999695
0.9993844
0.9923107
0.9713285
0.9723247
0.9868784
0.9978599
0.9999197
0.999998
0.9999966
0.9999888
0.9999684
0.9999532
0.9999638
0.9999901
0.9999993
0.9999998
0.9999994
0.9999963
0.9999902
0.9999923
0.9999979
0.9999998
1
1
1
1
1
1
1
1
1
1
1
0.9999999
0.9999999
1
0.9999999
0.9999994
0.9999981
0.9999978
0.9999983
0.9999991
0.9999984
0.9999766
0.9997666
0.9986616
0.9945426
0.9916438
0.99477
0.9989371
0.9999477
0.9999976
0.9999752
0.9994653
0.9900592
0.9737106
0.9827605
0.9953555
0.9996868
0.9996492
0.9965996
0.9447187
0.8873751
0.9387516
0.9880197
0.9993699
0.9999402
0.9998234
0.9992176
0.9987853
0.9989005
0.9992509
0.9996249
0.9998545
0.9999692
0.9999972
0.9999998
1
1
1
0.9999998
0.9999958
0.9999455
0.9998181
0.9998549
0.9999546
0.999996
0.9999997
0.9999996
0.9999984
0.9999967
0.9999971
0.9999991
0.9999999
1
1
1
1
1
1
1
1
1
1
1
1
1
1
1
1
1
1
0.9999999
0.9999999
1
1
1
1
1
1
1
1
1
1
1
1
1
1
0.9999998
0.9999998
0.9999998
1
1
1
1
1
1
1
1
1
1
1
1
1
1
1
1
1
1
1
1
1
1
1
1
1
1
1
1
1
1
1
1
1
1
1
1
1
1
1
1
1
1
1
1
1
1
1
1
1
1
1
1
1
1
1
1
1
1
1
1
1
1
1
1
1
1
1
1
1
1
1
1
1
1
1
1
1
1
1
1
1
1
1
1
1
1
0.9999998
0.9999979
0.9999828
0.9999022
0.9996665
0.9993993
0.9992755
0.9991698
0.9990894
0.9991327
0.9993338
0.9994799
0.99933
0.99827
0.9946414
0.9856887
0.9699819
0.9596635
0.9601734
0.9683464
0.9833303
0.9906922
0.9918972
0.9926169
0.9918041
0.9795443
0.9196234
0.8064149
0.7859738
0.8352511
0.9268789
0.9678669
0.9787679
0.9824349
0.9812551
0.9716867
0.9287262
0.7851512
0.6836809
0.7066599
0.8099852
0.9316582
0.9690762
0.9638583
0.9478396
0.9428221
0.9377314
0.8354552
0.5427886
0.536601
0.757861
0.943319
0.9431731
0.9032516
0.8975596
0.9112229
0.8523429
0.4704079
0.3648476
0.6355998
0.8858109
0.8649127
0.820637
0.8419304
0.9061232
0.8926322
0.6585005
0.5365584
0.735511
0.9529037
0.9913503
0.9910651
0.9791123
0.9045867
0.8984069
0.9216331
0.8901249
0.689626
0.6751396
0.8205849
0.9556595
0.9514683
0.6664266
0.3777298
0.6657199
0.9483351
0.9963386
0.9954189
0.9826778
0.8595012
0.6304231
0.6787672
0.8684279
0.9783299
0.9973222
0.9992508
0.9997196
0.9998578
0.9998908
0.9998728
0.9996393
0.9994032
0.999618
0.9998979
0.9999837
0.9999832
0.9999545
0.9999162
0.9998559
0.9997556
0.999652
0.9992764
0.9946988
0.9526359
0.9350257
0.9622323
0.9925654
0.998854
0.9997821
0.9999795
0.9999995
1
1
0.9999997
0.9999945
0.9999802
0.9999865
0.9999966
0.9999998
0.9999999
0.9999995
0.9999242
0.9915095
0.9617964
0.9847415
0.9850622
0.9614516
0.7505975
0.7054853
0.8352728
0.9661686
0.9955447
0.9844647
0.9499304
0.9618169
0.9684152
0.8902856
0.7871724
0.8255735
0.8282644
0.8044327
0.7288621
0.4630113
0.1483227
0.02841523
0.003813344
0.001210196
0.00121467
0.001237847
0.00128009
0.001456988
0.00272421
0.005345043
0.007937128
0.01000152
0.03880736
0.2129277
0.7313071
0.9721674
0.9992025
0.9999949
0.9999999
0.9999984
0.9999392
0.9991435
0.998845
0.9991492
0.9998065
0.999991
0.9999994
0.9999974
0.9999906
0.9999932
0.9999985
0.9999999
1
0.9999999
0.9999998
0.9999999
1
1
1
1
0.9999999
1
1
1
1
1
0.9999996
0.9999995
0.9999996
0.9999999
0.9999999
0.9999998
0.9999991
0.9999973
0.9999951
0.9999944
0.9999958
0.9999985
0.9999998
1
1
1
1
1
1
1
1
1
1
1
1
1
1
1
1
1
1
1
0.9999999
0.9999995
0.9999995
0.9999998
1
1
1
1
1
1
1
1
1
1
1
1
1
1
1
1
1
1
1
1
1
1
1
1
1
1
1
1
1
1
1
1
1
1
1
1
1
0.9999999
0.9999999
1
1
1
0.9999999
0.9999969
0.9999573
0.9998475
0.9998571
0.9999456
0.999993
0.9999996
0.9999996
0.9999942
0.999915
0.9993707
0.9990431
0.9993498
0.9998351
0.9999742
0.9998735
0.9985607
0.9910957
0.9863544
0.991363
0.9981189
0.9998867
0.9999813
0.9999638
0.999897
0.9994643
0.9966787
0.9761767
0.9304326
0.9300521
0.9300521
0.9300538
0.9660223
0.99591
0.9998967
0.9999941
0.9999409
0.9989304
0.9816494
0.9278106
0.925263
0.9441002
0.9855012
0.9988951
0.9998839
0.999736
0.99927
0.9993037
0.9996691
0.9999495
0.9999979
0.9999992
0.9999968
0.999982
0.9999568
0.9999682
0.999992
0.9999994
1
1
1
1
1
1
1
1
1
1
1
0.9999999
0.999999
0.9999982
0.9999984
0.9999992
0.9999986
0.999987
0.9999633
0.9999659
0.999985
0.9999863
0.9998856
0.9974978
0.9641884
0.940429
0.9705361
0.9952767
0.9998262
0.9999972
0.9999975
0.9999889
0.9997957
0.997923
0.9924709
0.9925887
0.9967758
0.9996065
0.9997325
0.9989125
0.9896542
0.9656603
0.9742166
0.9923219
0.9987663
0.9998825
0.9996029
0.9968476
0.993081
0.9928303
0.993265
0.9952926
0.9987269
0.9999167
0.9999991
1
1
1
1
0.999999
0.9999722
0.9997194
0.9996236
0.999714
0.9999301
0.9999955
0.9999975
0.9999923
0.9999798
0.9999814
0.9999939
0.9999995
1
1
1
1
1
1
1
1
1
1
1
1
1
1
0.9999997
1
1
1
1
1
1
1
1
1
1
1
1
1
1
0.9999999
0.9999999
1
1
1
1
1
1
1
1
1
1
1
1
1
1
1
0.9999998
0.9999998
0.9999999
1
1
1
1
1
1
1
1
1
1
1
1
1
1
1
1
1
1
1
1
1
1
1
1
1
1
1
1
1
1
1
1
1
1
1
1
1
1
1
1
1
1
1
1
1
1
1
1
1
1
1
1
1
1
1
1
1
1
1
1
0.9999999
0.9999999
1
1
1
1
1
1
1
1
1
1
1
1
1
1
1
1
1
0.9999997
0.9999989
0.9999969
0.9999951
0.999994
0.9999924
0.9999867
0.9999697
0.9999399
0.9998384
0.9990977
0.9942708
0.9764522
0.9586567
0.9565054
0.955202
0.949585
0.9481928
0.9547748
0.9700345
0.9707014
0.9498564
0.8857145
0.7737586
0.619625
0.5180236
0.5221758
0.6170079
0.7975417
0.8370139
0.8169029
0.8166185
0.8354477
0.7370639
0.3040416
0.05520081
0.05343886
0.1934219
0.538203
0.6154475
0.6502528
0.7460638
0.7329982
0.4413268
0.1040353
0.03684189
0.03714875
0.03830419
0.07907931
0.4093999
0.7817675
0.7536806
0.4194219
0.09478316
0.02638809
0.02438498
0.02216702
0.02781423
0.2224402
0.6334859
0.5457436
0.2029006
0.03671079
0.02562174
0.02562174
0.02562174
0.04238323
0.3783336
0.4633923
0.2552833
0.06554908
0.05241
0.06310959
0.06509489
0.05340875
0.1136383
0.5726359
0.6062174
0.4272356
0.5981432
0.9339719
0.8387576
0.2871394
0.1492391
0.3199323
0.6811696
0.7076506
0.5783179
0.1620575
0.07423082
0.07426127
0.2742154
0.8302392
0.9198296
0.9012628
0.7894974
0.3829082
0.09725274
0.06617615
0.07743549
0.1734212
0.6009324
0.9309843
0.9949725
0.9988312
0.9987747
0.9980205
0.9981613
0.9988394
0.9990856
0.9992803
0.999568
0.999845
0.9999585
0.9998911
0.9994743
0.999188
0.9984634
0.9841436
0.845136
0.8009189
0.8858317
0.9752683
0.9949437
0.9992259
0.9999158
0.9999221
0.9999381
0.9999367
0.9999576
0.9999877
0.9999962
0.9999799
0.9999759
0.999983
0.9999967
0.9999999
0.9999999
0.9999969
0.9995406
0.9949087
0.9953022
0.994135
0.9817693
0.807317
0.6874308
0.7954905
0.9631518
0.9874774
0.9795193
0.9252311
0.7991353
0.8489721
0.9274592
0.8973984
0.8132079
0.564122
0.2052807
0.04622026
0.008191016
0.001430794
0.001168931
0.001168931
0.001172542
0.001174344
0.001179203
0.001176562
0.001177106
0.001177476
0.001622549
0.004145202
0.01195192
0.03369603
0.0483989
0.09679285
0.5605898
0.9451021
0.9983959
0.9999908
0.9999997
0.9999961
0.9999167
0.9994319
0.9993351
0.9996739
0.999955
0.9999932
0.9999848
0.9999648
0.9999781
0.9999956
0.9999998
1
0.9999998
0.9999997
0.9999998
0.9999999
1
0.9999999
0.9999999
0.9999999
0.9999999
0.9999999
1
1
1
1
0.9999996
0.9999996
0.9999998
0.9999998