/*--------------------------------*- C++ -*----------------------------------*\
| =========                 |                                                 |
| \\      /  F ield         | foam-extend: Open Source CFD                    |
|  \\    /   O peration     | Version:     3.1                                |
|   \\  /    A nd           | Web:         http://www.extend-project.de       |
|    \\/     M anipulation  |                                                 |
\*---------------------------------------------------------------------------*/
FoamFile
{
    version     2.0;
    format      ascii;
    class       volScalarField;
    location    "13.5";
    object      nut;
}
// * * * * * * * * * * * * * * * * * * * * * * * * * * * * * * * * * * * * * //

dimensions      [0 2 -1 0 0 0 0];

internalField   nonuniform List<scalar> 
119952
(
5.364804e-05
3.625337e-05
3.751251e-05
4.181362e-05
4.470714e-05
4.248452e-05
4.099185e-05
3.986382e-05
3.891257e-05
3.803837e-05
3.719518e-05
3.636504e-05
3.552934e-05
3.468738e-05
3.384109e-05
3.300008e-05
3.218207e-05
3.137945e-05
3.05757e-05
2.975533e-05
3.808667e-05
3.59852e-05
3.516028e-05
4.601546e-05
4.436425e-05
4.33124e-05
4.261335e-05
4.242351e-05
4.219167e-05
2.527786e-05
3.272618e-05
3.573355e-05
4.044497e-05
4.518415e-05
5.01398e-05
5.532458e-05
6.078697e-05
6.640802e-05
7.212663e-05
8.207763e-05
0.0003704172
0.0004287013
0.0004939271
0.0005626334
0.0006324194
0.0007016833
0.0007697986
0.0008365853
0.0009016377
0.001269539
0.001334092
0.00139798
0.001460465
0.001521593
0.001581682
0.001640812
0.00169997
0.001759494
0.001818807
0.001880877
0.001941457
0.002001899
0.002063843
0.002127342
0.00219254
0.002259754
0.002329101
0.002403849
0.00227497
0.002492513
0.002509872
0.002533659
0.00254915
0.002549222
0.002529554
0.002495651
0.002452082
0.002400778
0.002343263
0.002281313
0.002216678
0.00215152
0.002088472
0.002030291
0.001979423
0.001937799
0.001907258
0.001889668
0.001892235
0.001897394
0.001915272
0.001950879
0.001990932
0.002014941
0.002028852
0.002026159
0.001972483
0.001846372
0.001797104
0.001757836
0.001722654
0.001683513
0.001637388
0.001584329
0.001526467
0.001467789
0.001413016
0.001366851
0.001332907
0.001312711
0.001305704
0.001296215
0.001304756
0.001336325
0.001386763
0.001433381
0.001488592
0.0015519
0.001622743
0.001699228
0.001785016
0.001883416
0.001995354
0.002121319
0.002261536
0.002415651
0.002582075
0.002757584
0.002937382
0.003115537
0.003285826
0.003442687
0.003581782
0.003699555
0.003791792
0.003851742
0.003865061
0.003802944
0.003628734
0.003344331
0.003087297
0.002945527
0.002884788
0.002827408
0.002733546
0.00261322
0.002499959
0.002408251
0.002349115
0.002328433
0.002338538
0.002359649
0.002367138
0.002334918
0.002226869
0.001975775
0.001517872
0.001032636
0.0007419021
0.000747593
0.0009577719
0.001084737
0.001205759
0.001332537
0.001423195
0.001504078
0.00158573
0.001661185
0.001718033
0.001751095
0.001762339
0.00175698
0.001740601
0.001717151
0.001688953
0.001658502
0.001628329
0.001599701
0.001572654
0.001546919
0.001522529
0.001499645
0.001478113
0.001457518
0.001437454
0.001417527
0.001397464
0.001377262
0.001356783
0.001335921
0.001314565
0.00129261
0.001269908
0.001246338
0.001221533
0.001195168
0.001166615
0.0009975518
0.0008130912
0.000727677
0.0006772345
0.0006419417
0.0006142718
0.0005911248
0.0005711168
0.0005534217
0.0005374108
0.0005226166
0.0005091054
0.0004963376
0.0004844865
0.0004737388
0.0004642092
0.0004558387
0.0004483427
0.0004413639
0.0004345933
0.0004277878
0.0004207169
0.0004130036
0.0004048625
0.0003968081
0.0003891809
0.0003820914
0.0003753446
0.0003686991
0.0003618627
0.0003546591
0.0003470738
0.0003391905
0.0003312077
0.0003234882
0.0003201736
0.000325993
0.0003312394
0.0003352542
0.0003374714
0.0003375605
0.0003356988
0.0003326201
0.0003292963
0.0003269139
0.0003266618
0.0003294869
0.0003359462
0.0003460669
0.0003596535
0.0003766591
0.0003956741
0.0004152623
0.0004340932
0.0004550978
0.0004795346
0.0005068189
0.000536713
0.0005687768
0.0006024824
0.0006368898
0.0006701283
0.0007015982
0.0007356663
0.0007736701
0.0008131673
0.0008531702
0.00089336
0.0009334466
0.000973407
0.001427457
0.001568561
0.001707475
0.001834898
0.001944251
0.002032729
0.002101382
0.002152794
0.002189397
0.002213057
0.002225298
0.00222746
0.002220661
0.002205621
0.002182535
0.002151356
0.002112629
0.002067916
0.002019297
0.001968736
0.001917792
0.001867585
0.001818862
0.001772077
0.001727416
0.001684791
0.00164387
0.001604152
0.001565069
0.00152608
0.00148676
0.001446874
0.001406457
0.001366037
0.001326317
0.001287887
0.001250947
0.001215061
0.001179375
0.001143212
0.001106625
0.001070848
0.001037458
0.001006651
0.0009781299
0.0009518292
0.0009276891
0.0009067474
0.000888747
0.0008734032
0.0008604529
0.0008495934
0.0008403638
0.0008323274
0.0008265349
0.0008196435
0.0008136794
0.0008091756
0.0008060384
0.0008045156
0.000804495
0.0008056284
0.0008078817
0.0008112442
0.0008155985
0.0008208857
0.0008270629
0.0008340601
0.0008418209
0.0008503315
0.0008595951
0.0008696066
0.0008803569
0.0008918412
0.000904058
0.0009170018
0.0009306575
0.0009449972
0.000959982
0.0009755663
0.0009917037
0.001008354
0.001025501
0.001043194
0.001061612
0.001081117
0.001102261
0.001125711
0.001152055
0.001181416
0.001212981
0.001244643
0.001272863
0.00129318
0.001300934
0.001290543
0.001253148
0.001177511
0.001088127
0.001022355
0.000974937
0.0009251295
0.0008614417
0.0007953693
0.0007420647
0.0007079574
0.0006526699
0.0006195707
0.0006141714
0.0006345064
0.0006767691
0.0007327333
0.000795134
0.0008381985
0.0008675815
0.0008910549
0.0009086438
0.0009218704
0.0009326378
0.0009424403
0.0009520525
0.0009618257
0.0009718441
0.0009821241
0.0009927002
0.001003627
0.001014997
0.001027353
0.001041153
0.001056638
0.001073963
0.001093234
0.001114546
0.001137986
0.001163696
0.001192263
0.001225319
0.001268607
0.001195169
5.196881e-05
5.576153e-05
6.499736e-05
7.599858e-05
8.703779e-05
9.75887e-05
0.0001075812
0.0001170749
0.0001275313
0.000446696
0.0006013416
0.0007637228
0.0009197129
0.001062051
0.001189102
0.001302169
0.001403711
0.001496259
0.002142129
0.002242672
0.002346594
0.002448637
0.002548183
0.00264459
0.002737746
0.002827364
0.002913191
0.002994159
0.00307163
0.003144876
0.003214434
0.003282411
0.003349693
0.003416342
0.003482204
0.003547228
0.003611428
0.003658503
0.00368943
0.003724221
0.0037631
0.003805358
0.003849694
0.003895234
0.003941483
0.003988382
0.004036156
0.004085809
0.004135921
0.004187044
0.004238741
0.004290001
0.004340062
0.004388533
0.004435524
0.004480758
0.005249772
0.005289579
0.005327773
0.005364613
0.005398938
0.005430115
0.005458333
0.005483797
0.005507691
0.005531133
0.005555702
0.005582765
0.005612359
0.00564448
0.005679176
0.005716407
0.005756128
0.005799148
0.005846885
0.00589123
0.005923645
0.005952357
0.005978776
0.005995373
0.005997777
0.005984424
0.005953549
0.005907699
0.0058473
0.005772976
0.005685399
0.005585598
0.005475636
0.005358858
0.005239722
0.005123156
0.005014145
0.004917177
0.004836195
0.004773549
0.004727569
0.004700246
0.004693145
0.00469166
0.00468859
0.004684093
0.004672951
0.004644601
0.004612613
0.004590461
0.004564645
0.004529418
0.004479333
0.004409905
0.004318633
0.004205022
0.004070904
0.003920493
0.003760245
0.003598362
0.003444107
0.003306772
0.003194427
0.003113056
0.003065867
0.003052964
0.003072132
0.003120424
0.003195378
0.003295479
0.003420031
0.003568317
0.003742167
0.00395285
0.00420666
0.004505018
0.004847159
0.005229297
0.005643716
0.006078288
0.006517447
0.006944555
0.007344499
0.007705403
0.008018169
0.008276237
0.008478024
0.008619311
0.008686815
0.008665237
0.008555688
0.008383176
0.008198263
0.007995859
0.007730656
0.007376133
0.006966706
0.006552537
0.006177529
0.005873106
0.0056546
0.005519469
0.005454403
0.005437792
0.005427502
0.005355232
0.005095499
0.004485301
0.003672849
0.002991182
0.002555887
0.001843182
0.001624223
0.001665367
0.001895546
0.002205453
0.002585373
0.003040259
0.003274982
0.003424467
0.003538139
0.003622914
0.003687552
0.003734121
0.003764461
0.003781439
0.003788425
0.003788677
0.003784757
0.003778131
0.003769389
0.003759335
0.003748883
0.00373823
0.003727251
0.003715852
0.003703819
0.003690813
0.003676476
0.003660461
0.003642493
0.003622394
0.003600013
0.003575462
0.003548694
0.003520252
0.003490298
0.003463263
0.0033054
0.003145212
0.003045261
0.002976647
0.002924936
0.002882757
0.002846277
0.002815159
0.002789338
0.002767448
0.002748496
0.002731881
0.002717204
0.002704297
0.002693166
0.002683898
0.002676515
0.002670781
0.002666153
0.002661806
0.002656678
0.002649468
0.002638777
0.002623431
0.00260271
0.002576292
0.002544104
0.002506174
0.002462708
0.002414291
0.002362003
0.002307329
0.002252009
0.002197992
0.002147545
0.002103681
0.002068777
0.002040852
0.002018264
0.001999
0.001980271
0.001959019
0.001933015
0.001901993
0.001868181
0.001836244
0.001812482
0.001803502
0.001814809
0.00184959
0.001908432
0.001989999
0.002092293
0.002213796
0.002353277
0.002508762
0.002677717
0.002857469
0.0030454
0.003239135
0.003436676
0.003636497
0.003837392
0.004037999
0.004236157
0.004434483
0.004633468
0.004829562
0.005020387
0.005201628
0.00617146
0.006348857
0.006501883
0.006635003
0.006748759
0.006842435
0.006915069
0.006970436
0.007010275
0.007034805
0.007044005
0.007037981
0.007016881
0.006980489
0.006927564
0.006855514
0.006763767
0.006656648
0.006538477
0.006413103
0.006283762
0.006153057
0.006023014
0.005895144
0.005770315
0.005648724
0.005529986
0.005413299
0.005297665
0.005182106
0.005065876
0.004948647
0.004830645
0.004712656
0.004595881
0.004481443
0.004369533
0.004258933
0.004147506
0.00403309
0.003914089
0.003790135
0.003663521
0.003536632
0.003411776
0.003290681
0.003174969
0.003065992
0.002964365
0.002870497
0.002784573
0.00270678
0.002636796
0.002574709
0.00252155
0.002476263
0.002437305
0.002404535
0.002377864
0.0023568
0.002340655
0.00232873
0.002320403
0.00231607
0.002316292
0.002321744
0.002332727
0.002348882
0.002369883
0.002395442
0.002425283
0.002459149
0.002496785
0.002537942
0.002582371
0.002629819
0.002680032
0.002732754
0.002787743
0.002844781
0.002903695
0.002964394
0.003026934
0.003091622
0.003159123
0.003230505
0.00330712
0.003390265
0.003480538
0.003576994
0.003676574
0.003773941
0.003861775
0.003931452
0.003974183
0.003982853
0.003953908
0.003887318
0.003793024
0.003675951
0.003521892
0.003315078
0.003052886
0.002749762
0.002432923
0.002133716
0.001877079
0.001676491
0.001534086
0.001442157
0.001224889
0.00109934
0.00105071
0.001059867
0.001115326
0.001208399
0.001329976
0.001470566
0.001617676
0.001702997
0.001767163
0.001832285
0.001897352
0.001961614
0.002024548
0.002085828
0.002145373
0.00220339
0.002260276
0.002316687
0.002373306
0.002431131
0.002490916
0.00255407
0.002621442
0.002695743
0.002777777
0.002871842
0.002964332
3.119393e-05
3.808134e-05
4.84677e-05
6.075753e-05
7.539589e-05
9.296088e-05
0.0001144796
0.0001412731
0.000175714
0.0002361943
0.0009866159
0.001152294
0.001330337
0.001519427
0.001709939
0.001874443
0.002007915
0.002165798
0.002508555
0.004554272
0.004789636
0.00493759
0.005069932
0.005192253
0.005301131
0.005400026
0.005489729
0.005573028
0.00568414
0.005903598
0.006114279
0.006266294
0.006370163
0.006442777
0.00649557
0.006535282
0.006566093
0.006596243
0.006493258
0.006478659
0.006504742
0.006548724
0.006598389
0.006647112
0.006691325
0.006729519
0.006761509
0.006787574
0.006807405
0.006824202
0.006840011
0.006855929
0.006872554
0.006889869
0.006907201
0.0069222
0.007703276
0.007717932
0.007725325
0.007728819
0.007730344
0.00773069
0.007730495
0.007730112
0.007730118
0.007730752
0.007731626
0.007733141
0.00773545
0.007737912
0.007740157
0.007742103
0.00774383
0.007745808
0.007748826
0.007752745
0.007757602
0.007764205
0.00777213
0.007780456
0.007788391
0.007795424
0.00780154
0.007807185
0.007813006
0.007820274
0.007829924
0.007841849
0.007855515
0.007869924
0.007883939
0.007896889
0.00790868
0.00792096
0.007917579
0.007916893
0.007918977
0.007922655
0.007926123
0.007927938
0.007927126
0.007923704
0.007918753
0.007913765
0.007910393
0.007909684
0.007912148
0.007918025
0.007927287
0.007939957
0.00795623
0.007975899
0.007998455
0.008021221
0.0080408
0.008056837
0.008069922
0.008077564
0.008076821
0.00806533
0.008039083
0.007997764
0.007941814
0.007871185
0.007785484
0.007684422
0.00756885
0.007441292
0.007305993
0.007168127
0.007033338
0.006906727
0.006792929
0.006695208
0.006613795
0.006549721
0.006503964
0.006470315
0.006443055
0.006421153
0.006401709
0.00638045
0.006360674
0.006347461
0.0063353
0.006317014
0.006287465
0.006240918
0.006172201
0.006077123
0.00595292
0.005798999
0.005617678
0.005414724
0.005199521
0.004984287
0.004782629
0.004607456
0.004468852
0.004372615
0.004320458
0.004311371
0.004343282
0.004414221
0.004523178
0.004670174
0.004855962
0.005079738
0.005352156
0.005681823
0.006069645
0.006512669
0.007002299
0.007523226
0.00805473
0.008574114
0.009060127
0.009497922
0.009878701
0.01000004
0.01000016
0.01000017
0.01000016
0.01000102
0.01002098
0.01005273
0.01005273
0.01005273
0.01005273
0.009940152
0.009536521
0.009092496
0.008648116
0.008238995
0.007891095
0.007620443
0.00743268
0.007317605
0.007243737
0.007161773
0.006972339
0.006524038
0.005803861
0.004966466
0.004165442
0.003559484
0.003211039
0.002378417
0.002121014
0.002137757
0.002302768
0.002555569
0.002868141
0.003194856
0.003481721
0.003705305
0.003876574
0.004003372
0.004101632
0.004183476
0.004260468
0.004334135
0.004398457
0.004467264
0.004544441
0.004609378
0.004674454
0.004727663
0.004757746
0.004779101
0.004797913
0.00481375
0.004826005
0.004834035
0.004837266
0.004835164
0.00482742
0.004813717
0.00479429
0.004769068
0.004739118
0.004704116
0.00465968
0.00461859
0.004579323
0.004541687
0.004506408
0.004474469
0.004446882
0.004424633
0.004408016
0.004396686
0.004390324
0.004388633
0.00439133
0.004398156
0.004408871
0.004423246
0.004441014
0.004461825
0.004485197
0.004510489
0.004536891
0.004563442
0.004588357
0.004609791
0.004626249
0.004636051
0.004637378
0.004628293
0.004606774
0.004570605
0.004518934
0.004453275
0.004376994
0.004292772
0.00420338
0.00411214
0.004021947
0.003934785
0.003852124
0.00377464
0.003702039
0.00363335
0.003567527
0.003504365
0.003445275
0.003393779
0.003355478
0.003337407
0.003346899
0.003390291
0.003471889
0.003593546
0.003754833
0.003953474
0.004185684
0.004446445
0.004729877
0.005029649
0.005339416
0.005653218
0.00596582
0.00627292
0.006571174
0.00685804
0.007131397
0.00739199
0.00764288
0.007883166
0.008112422
0.008329921
0.008492017
0.008647155
0.008790018
0.00891621
0.009023695
0.009115082
0.008892947
0.008586852
0.00838456
0.008271092
0.008236027
0.008275549
0.00839403
0.008601466
0.008887677
0.009199371
0.009114588
0.009010617
0.008892599
0.008764339
0.008629205
0.008489972
0.008348693
0.008207638
0.008068402
0.007931653
0.007797274
0.007664566
0.00753251
0.007400042
0.00726633
0.007131001
0.006994324
0.006857169
0.00672084
0.006586691
0.006455139
0.006324868
0.006193298
0.006057605
0.005915433
0.005765108
0.005608224
0.005447389
0.005285456
0.005124983
0.004967954
0.004816116
0.004670563
0.0045321
0.004401192
0.004278448
0.004164295
0.004059963
0.003964528
0.003878238
0.003801929
0.003735707
0.003679253
0.003632264
0.003594423
0.003565348
0.003544619
0.003531756
0.003526147
0.003526887
0.003533635
0.003547388
0.003569074
0.003598528
0.003635446
0.003679461
0.003730189
0.003787215
0.003850103
0.003918382
0.003991611
0.004069311
0.004151034
0.004236381
0.004325026
0.004416821
0.004511798
0.004610343
0.004713318
0.004822073
0.0049382
0.005063085
0.005197056
0.005338308
0.005482516
0.005623041
0.005751366
0.005858012
0.005934285
0.005974925
0.005980256
0.005955129
0.005902337
0.005813915
0.005671763
0.005455735
0.005159158
0.004785892
0.004352791
0.003888287
0.003426357
0.002998624
0.00262922
0.002332615
0.002112746
0.001963636
0.001871562
0.00159332
0.001438231
0.001389471
0.001410106
0.001481316
0.001594063
0.001740855
0.001913511
0.002100918
0.002239341
0.002331731
0.002426601
0.002522791
0.002619506
0.002716214
0.002812565
0.002908596
0.003004522
0.003100932
0.003198532
0.003298553
0.003402008
0.003511166
0.003627111
0.003753054
0.003872819
3.904806e-05
6.330371e-05
0.0001407803
0.000476212
0.0008212641
0.001475159
0.001982089
0.002597901
0.003309148
0.003895935
0.004328998
0.004677535
0.005023227
0.005375696
0.005739068
0.006107848
0.006482104
0.006857953
0.007215617
0.007553909
0.007879796
0.00817585
0.008416089
0.008619567
0.008804719
0.008971945
0.009120435
0.009250693
0.009368121
0.009479331
0.009605946
0.01
0.009895269
0.009561576
0.009294462
0.009067896
0.008874698
0.008721408
0.008614963
0.008543421
0.008483225
0.008462476
0.008476219
0.008512788
0.008567146
0.008638179
0.008724031
0.008825064
0.008942724
0.009084387
0.009243616
0.009395137
0.009575181
0.009769314
0.009978156
0.01
0.01
0.01
0.01
0.01
0.01
0.01
0.01
0.01
0.01
0.01
0.01
0.01
0.01
0.009977594
0.009953839
0.009931692
0.009910877
0.009891354
0.00987316
0.009856306
0.009840849
0.009826895
0.009814545
0.009803945
0.009794773
0.009786349
0.00977806
0.009769507
0.009760544
0.009751438
0.009742859
0.009735586
0.009730446
0.009727848
0.00972756
0.009728772
0.009730274
0.009730927
0.009730104
0.009727953
0.009725391
0.009723865
0.009724705
0.00972852
0.009735002
0.009742766
0.009750067
0.009755367
0.009758297
0.009759158
0.009758681
0.00975829
0.009758623
0.009759248
0.009758873
0.009755731
0.009748219
0.009735898
0.009719592
0.009700918
0.009681767
0.009663757
0.009647935
0.009634601
0.009623646
0.009615091
0.009608951
0.009604763
0.009601908
0.009599418
0.009595748
0.009590064
0.009582642
0.009573164
0.009560207
0.00954192
0.009516194
0.009480152
0.00943445
0.009378931
0.00931225
0.009232246
0.009137395
0.0090279
0.008906245
0.008776618
0.008644249
0.008514406
0.008391865
0.00828021
0.008181601
0.008097075
0.008027172
0.00797034
0.007924002
0.00788654
0.007856688
0.007832432
0.007813603
0.007800961
0.007792136
0.007782449
0.007766898
0.007740252
0.007697188
0.007632392
0.007540803
0.007418275
0.007262548
0.007074341
0.006858291
0.00662356
0.006383077
0.0061521
0.005945544
0.005775449
0.005649497
0.005571356
0.005541773
0.005560084
0.005625478
0.005737965
0.005898662
0.006109224
0.006370199
0.006693793
0.007084574
0.007539171
0.008046789
0.00858817
0.009138092
0.009670131
0.01
0.01
0.01000004
0.01000063
0.01000529
0.01000865
0.01000561
0.01000613
0.01003794
0.01005273
0.01004196
0.01001244
0.0100015
0.01000016
0.01000012
0.01000012
0.01000012
0.01000018
0.009776488
0.009482167
0.009251087
0.009085557
0.008969659
0.008870858
0.008721909
0.008410926
0.007859153
0.007078096
0.006147406
0.005238485
0.004508465
0.004008988
0.003737863
0.003282326
0.002857799
0.002782988
0.002854257
0.003004481
0.003198393
0.003412299
0.003629731
0.003835866
0.00403134
0.004217136
0.00439079
0.004548409
0.004685325
0.004817825
0.004942658
0.005043714
0.005132189
0.005234338
0.005338726
0.005424525
0.005496742
0.005553756
0.005606578
0.005654038
0.00569496
0.005728201
0.005752761
0.005767745
0.005772641
0.005767052
0.005751261
0.005725635
0.005691238
0.005649467
0.005601987
0.005550846
0.005498346
0.00544678
0.005398249
0.005354539
0.00531696
0.005286325
0.005263096
0.005247469
0.005239437
0.005238856
0.005245491
0.005259046
0.005279178
0.005305477
0.005337451
0.00537449
0.005415827
0.00546053
0.005507865
0.005556454
0.005604638
0.005650483
0.005691756
0.005725909
0.005750121
0.005761358
0.00575658
0.005732825
0.005687353
0.005621801
0.005539322
0.005442408
0.005334312
0.00521857
0.005098958
0.004979152
0.004862246
0.004750508
0.004645337
0.004547843
0.004459465
0.00438277
0.00432203
0.004283314
0.004273944
0.004301394
0.004371991
0.004489843
0.004656285
0.004869831
0.005126437
0.005419939
0.005742598
0.006085716
0.006440281
0.006797595
0.007149883
0.007490722
0.007815185
0.008119721
0.00840172
0.008659342
0.008897753
0.009120446
0.009329526
0.009525145
0.009703078
0.009865914
0.01
0.01
0.009627666
0.009131783
0.008770769
0.008526593
0.008385091
0.008336276
0.008370882
0.008481689
0.008666407
0.008927617
0.009267279
0.009654882
0.01
0.01000001
0.01000001
0.01000001
0.01
0.01
0.009918451
0.009788531
0.009659505
0.009532208
0.009406631
0.009282111
0.009157599
0.009031948
0.008904175
0.008773565
0.008640478
0.008506122
0.008371991
0.008239485
0.008109074
0.007979444
0.007847911
0.007711439
0.007567526
0.007414523
0.007253074
0.007085397
0.006914189
0.006742034
0.00657103
0.006402792
0.006238436
0.006078796
0.005924537
0.005776402
0.005635175
0.005501725
0.005376646
0.00526081
0.005155064
0.005059923
0.004975696
0.004902638
0.004840911
0.004790541
0.004751409
0.004723265
0.004705749
0.004698408
0.004700731
0.004712031
0.004731704
0.004760817
0.004799973
0.004848798
0.00490685
0.004973628
0.005048579
0.005131108
0.005220579
0.005316358
0.005417831
0.005524454
0.005635803
0.005751627
0.005871923
0.00599706
0.00612794
0.006266012
0.006412881
0.006569605
0.006735723
0.006908328
0.00708208
0.007249634
0.007402338
0.007531373
0.00762926
0.007691914
0.007721339
0.00772536
0.007708491
0.007662607
0.00756866
0.007404965
0.007152267
0.006810101
0.006385566
0.005891063
0.005346758
0.004779215
0.004220136
0.003703138
0.003256756
0.002897143
0.002625701
0.002434872
0.002310465
0.002115768
0.001890467
0.001789758
0.001774762
0.001820657
0.001912174
0.002042959
0.002210687
0.002409047
0.002625561
0.002789149
0.002904823
0.003024199
0.003146564
0.003271567
0.003399024
0.003528917
0.003661401
0.003796953
0.003936165
0.004080205
0.004229768
0.004385981
0.004534224
2.17735e-05
3.528367e-05
5.330925e-05
0.0002308556
0.000378504
0.0006428268
0.0009042724
0.00114475
0.00144806
0.001745485
0.002068593
0.00248824
0.002988743
0.003558995
0.004205779
0.005038087
0.006620583
0.007270799
0.007900697
0.008469188
0.00897119
0.009403895
0.009783782
0.01
0.01
0.01
0.01
0.01
0.01
0.01
0.01
0.01
0.01
0.01
0.01
0.01
0.01
0.01
0.01
0.01
0.009823082
0.009309192
0.009126103
0.008805265
0.008495316
0.008215495
0.007973832
0.007775604
0.007619711
0.007504331
0.007427289
0.00737874
0.007363816
0.007383454
0.007431327
0.007500259
0.007586543
0.007687482
0.007803791
0.007935697
0.008087388
0.008269744
0.008473623
0.008721832
0.009005517
0.009307122
0.009612634
0.009912933
0.01
0.01
0.01
0.01
0.01
0.01
0.01
0.01
0.01
0.01
0.01
0.01
0.01
0.01
0.01
0.01
0.01
0.01
0.01
0.01
0.01
0.01
0.01
0.01
0.01
0.01
0.01
0.01
0.01
0.01
0.01
0.01
0.01
0.01
0.01
0.01
0.01
0.01
0.01
0.01
0.01
0.01
0.01
0.01
0.01
0.01
0.01
0.01
0.01
0.01
0.01
0.01
0.01
0.01
0.01
0.01
0.01
0.01
0.01
0.01
0.01
0.01
0.01
0.01
0.01
0.01
0.01
0.01
0.01
0.01
0.01
0.01
0.01
0.01
0.01
0.01
0.01
0.01
0.01
0.01
0.01
0.009990657
0.009926061
0.009848756
0.009760062
0.009663153
0.009562281
0.00946189
0.009365757
0.009276627
0.00919613
0.009125223
0.00906404
0.009011944
0.00896828
0.00893259
0.008904116
0.008882218
0.00886634
0.008854946
0.008845247
0.008833714
0.008816468
0.00878937
0.008747932
0.008687312
0.008602605
0.008489481
0.008345096
0.008169223
0.007965392
0.007741589
0.007509959
0.007285162
0.007081916
0.006912349
0.006785149
0.006705287
0.006675097
0.006695572
0.006767601
0.006892821
0.007073802
0.007313109
0.007613467
0.007984329
0.008420346
0.008906723
0.009419799
0.009932948
0.01
0.01
0.01000005
0.01000056
0.01000382
0.01002993
0.01004446
0.01004446
0.01001745
0.01000237
0.01000071
0.01000071
0.01000078
0.01000105
0.01000188
0.01000494
0.01001532
0.01002197
0.01001297
0.01000228
0.01000011
0.01000001
0.01
0.01
0.01
0.01
0.01
0.009711286
0.009068072
0.008198517
0.007189929
0.00620632
0.00538476
0.00478865
0.004409369
0.004209269
0.004148695
0.004184433
0.003824375
0.003653275
0.003649176
0.003753158
0.003920912
0.00411908
0.004336949
0.004564465
0.004784623
0.004988695
0.005167515
0.005315694
0.005462733
0.005559473
0.005645821
0.005735671
0.005828541
0.005922945
0.006017216
0.006109526
0.006197995
0.006280721
0.00635581
0.00642144
0.006475915
0.006517806
0.006545967
0.006559719
0.00655882
0.006543538
0.006514626
0.006473562
0.006422392
0.006363573
0.006299822
0.006233949
0.006168731
0.006107137
0.006051292
0.006002786
0.005962733
0.005931833
0.005910452
0.005898705
0.005896539
0.005903785
0.005920207
0.005945509
0.005979333
0.006021225
0.006070566
0.006127055
0.006190249
0.00625871
0.006330694
0.006403985
0.006475886
0.006543186
0.006602198
0.006648849
0.006678844
0.006687915
0.00667199
0.006630258
0.006563859
0.006474126
0.006363693
0.006236412
0.006097127
0.005951213
0.005804001
0.005660307
0.005524231
0.005399217
0.005288738
0.005196889
0.005128982
0.005091629
0.005092194
0.005137716
0.005233648
0.005382833
0.005584935
0.005836367
0.006130611
0.006458833
0.006810667
0.00717506
0.007541061
0.007898808
0.008240198
0.008559402
0.008852645
0.009118028
0.00935481
0.009567192
0.00976104
0.009940745
0.01
0.01
0.01
0.01
0.009883502
0.009359787
0.008974236
0.008727407
0.008586553
0.008534731
0.00856457
0.00867203
0.008854603
0.009112201
0.009436124
0.009794548
0.01
0.01
0.01000001
0.01000005
0.01000004
0.01000001
0.01
0.01
0.01
0.01
0.01
0.01
0.01
0.01
0.01
0.01
0.009951929
0.009833484
0.009713513
0.009593623
0.009475088
0.009358111
0.00924118
0.009121521
0.008995973
0.008862076
0.008718711
0.008566193
0.008406484
0.008242015
0.008075089
0.007907528
0.007740652
0.007575355
0.007412308
0.007252123
0.007095521
0.006943344
0.006796593
0.006656344
0.00652373
0.006399882
0.006285806
0.006182385
0.006090368
0.00601035
0.005942747
0.0058878
0.005845576
0.005816
0.00579887
0.005793864
0.005800541
0.005818383
0.005846706
0.005885603
0.005935941
0.005997309
0.006069155
0.006150846
0.006241688
0.006340945
0.006447869
0.006561747
0.006681952
0.006807997
0.006939587
0.00707667
0.00721953
0.007368937
0.007526165
0.007692479
0.007868213
0.008051851
0.008239579
0.008425441
0.008601993
0.008761308
0.008896157
0.009001261
0.009074828
0.009119553
0.009144389
0.009153956
0.009139488
0.009082656
0.008965779
0.008774888
0.008498777
0.008141941
0.007707596
0.007199158
0.006624045
0.005998997
0.005353708
0.004727824
0.004160663
0.003680392
0.003299186
0.003014473
0.002814305
0.002682983
0.002605789
0.002467085
0.00233842
0.002279917
0.002281374
0.002335096
0.002432587
0.002569974
0.002747608
0.002962443
0.003199562
0.003363272
0.003500518
0.003643477
0.003791987
0.003946061
0.004105805
0.004271254
0.004442786
0.004620263
0.004803674
0.00497681
1.969574e-05
3.032599e-05
5.994841e-05
0.000181357
0.0002916906
0.0004632332
0.0005944113
0.00074335
0.0009190903
0.001091243
0.001293015
0.001554395
0.001853387
0.002210644
0.002676426
0.003572334
0.003998631
0.004459758
0.004947436
0.005460647
0.006004822
0.006570688
0.007143033
0.007707419
0.008247196
0.008749939
0.009234799
0.009767692
0.01
0.01
0.01
0.01
0.01
0.01
0.01
0.01
0.01
0.01
0.01
0.01
0.01
0.01
0.01
0.01
0.01
0.01
0.01
0.01
0.009746256
0.009293475
0.00881972
0.008378015
0.008010715
0.007631567
0.007337108
0.007096124
0.006898039
0.006741771
0.006625451
0.006548028
0.006508768
0.006506884
0.006542323
0.006614592
0.006720064
0.006852134
0.007004277
0.007170007
0.007351323
0.007546958
0.007775915
0.008060204
0.00841392
0.008823299
0.009286869
0.009778131
0.01
0.01
0.01
0.01
0.01
0.01
0.01
0.01
0.01
0.01
0.01
0.01
0.01
0.01
0.01
0.01
0.01
0.01
0.01
0.01
0.01
0.01
0.01
0.01
0.01
0.01
0.01
0.01
0.01
0.01
0.01
0.01
0.01
0.01
0.01
0.01
0.01
0.01
0.01
0.01
0.01
0.01
0.01
0.01
0.01
0.01
0.01
0.01
0.01
0.01
0.01
0.01
0.01
0.01
0.01
0.01
0.01
0.01
0.01
0.01
0.01
0.01
0.01
0.01
0.01
0.01
0.01
0.01
0.01
0.01
0.01
0.01
0.01
0.01
0.01
0.01
0.01
0.01
0.01
0.01
0.01
0.009991882
0.009991922
0.009999643
0.01
0.01
0.01
0.009983789
0.009948684
0.009905307
0.00985748
0.009808363
0.009760147
0.009714276
0.009671643
0.009632704
0.009597828
0.009567357
0.009541499
0.009520138
0.00950294
0.009489096
0.009477166
0.009465204
0.009450962
0.009431958
0.009405377
0.009367935
0.009315867
0.009245139
0.009151907
0.009033267
0.008888313
0.008719359
0.008532796
0.008338926
0.008150634
0.007980865
0.007841048
0.007739694
0.007682546
0.007673368
0.007715052
0.00781062
0.007963674
0.008177696
0.008453152
0.008794526
0.009194714
0.009634071
0.01
0.01
0.01
0.01000001
0.0100001
0.01000238
0.01003208
0.01004546
0.0100414
0.01001489
0.01000209
0.01000152
0.01000383
0.01001506
0.01001861
0.01002037
0.01009589
0.0107557
0.01091358
0.01014809
0.01001086
0.0100003
0.01
0.01
0.01
0.01
0.01
0.01
0.01
0.01
0.01
0.01
0.009167511
0.008114373
0.007107924
0.006260093
0.005610036
0.005155881
0.004879109
0.004744676
0.004714833
0.004759615
0.004853026
0.004709338
0.004603056
0.004634517
0.004767436
0.00496617
0.00519369
0.005416199
0.005593555
0.005655515
0.005723925
0.005801953
0.005890654
0.005989451
0.006096895
0.006211067
0.006329649
0.006450257
0.006570394
0.006687512
0.006799032
0.006902394
0.006995137
0.007075021
0.007140105
0.007188825
0.007220074
0.007233272
0.00722844
0.007206312
0.007168274
0.007116297
0.007052861
0.006980821
0.006903247
0.006824198
0.006747017
0.006674526
0.006608999
0.006552155
0.006505211
0.006468953
0.00644384
0.006430095
0.006427798
0.006436945
0.006457488
0.006489343
0.006532346
0.006586302
0.006651642
0.006727762
0.006813288
0.006906312
0.007004275
0.007103924
0.007201322
0.007291932
0.007370752
0.007432495
0.007471812
0.007483688
0.007466318
0.007418393
0.00734008
0.007233285
0.007101722
0.006950725
0.006786787
0.006616942
0.006448156
0.006286924
0.006139104
0.006010244
0.005906055
0.005832818
0.005797391
0.005806646
0.00586648
0.005980701
0.006150151
0.006372234
0.006640956
0.006947407
0.007280587
0.007627925
0.007978336
0.008319226
0.008641846
0.008939632
0.009208766
0.009447901
0.00965748
0.009840783
0.01
0.01
0.01
0.01
0.01
0.01
0.00958872
0.009234507
0.008987883
0.008837632
0.008774154
0.008788345
0.008880262
0.009047348
0.009280248
0.009568535
0.009884666
0.01
0.01
0.01
0.01000002
0.01000006
0.01000006
0.01000005
0.01000001
0.01
0.01
0.01
0.01
0.01
0.01
0.01
0.01
0.01
0.01
0.01
0.01
0.01000002
0.01000035
0.01000122
0.01000083
0.01000022
0.009984
0.009863361
0.009733796
0.009595653
0.009450677
0.009300953
0.009148167
0.008993375