/*--------------------------------*- C++ -*----------------------------------*\
| =========                 |                                                 |
| \\      /  F ield         | foam-extend: Open Source CFD                    |
|  \\    /   O peration     | Version:     3.1                                |
|   \\  /    A nd           | Web:         http://www.extend-project.de       |
|    \\/     M anipulation  |                                                 |
\*---------------------------------------------------------------------------*/
FoamFile
{
    version     2.0;
    format      ascii;
    class       volScalarField;
    location    "4.5";
    object      p;
}
// * * * * * * * * * * * * * * * * * * * * * * * * * * * * * * * * * * * * * //

dimensions      [1 -1 -2 0 0 0 0];

internalField   nonuniform List<scalar> 
119952
(
9982.998
9877.896
9861.668
9889.155
9919.728
9911.488
9913.56
9916
9919.009
9922.215
9925.508
9928.79
9931.985
9935.034
9937.886
9940.469
9942.655
9944.098
9943.56
9935.232
9988.018
9960.043
9953.414
10019.02
10009.59
10019.95
10025.57
10042.64
10097.15
9978.088
8755.435
8792.463
8828.709
8866.77
8903.735
8939.623
8974.791
9009.225
9042.829
9067.841
9085.236
9112.856
9139.194
9164.492
9189.057
9212.955
9236.169
9258.76
9280.996
9282.168
9294.85
9312.99
9331.445
9349.372
9367.164
9384.681
9401.756
9418.357
9434.542
9448.341
9464.375
9479.526
9494.1
9508.514
9522.742
9536.781
9551.265
9570.128
9598.002
9593.647
9600.62
9616.436
9627.977
9633.543
9636.86
9640.839
9644.863
9648.901
9652.945
9656.914
9660.762
9664.452
9667.942
9671.181
9674.099
9676.627
9678.848
9681.694
9687.864
9692.99
9696.316
9711.927
9731.921
9737.417
9742.358
9746.887
9739.483
9703.341
9697.94
9704.404
9707.686
9710.784
9713.35
9715.373
9717.081
9718.571
9719.89
9721.068
9722.124
9723.078
9723.947
9724.743
9725.478
9726.16
9726.797
9727.396
9727.964
9728.505
9729.026
9729.529
9730.018
9730.497
9730.968
9731.431
9731.89
9732.345
9732.797
9733.247
9733.692
9734.135
9734.572
9735.003
9735.424
9735.841
9736.261
9736.653
9737.022
9737.379
9737.717
9738.025
9738.298
9738.529
9738.701
9738.792
9738.771
9738.72
9739.359
9740.78
9741.923
9741.716
9741.452
9741.345
9741.222
9741.062
9740.872
9740.641
9740.377
9740.075
9739.731
9739.346
9738.919
9738.447
9737.93
9737.367
9736.757
9736.1
9735.394
9734.637
9733.83
9732.97
9732.056
9731.085
9730.049
9728.972
9727.843
9726.665
9725.37
9724.016
9722.593
9721.097
9719.525
9717.874
9716.142
9714.327
9712.426
9710.435
9708.348
9706.168
9703.88
9701.486
9698.99
9696.383
9693.641
9690.721
9687.52
9683.956
9680.58
9713.049
9710.356
9707.166
9703.783
9700.479
9697.285
9693.896
9690.443
9687.023
9683.547
9680.057
9676.528
9672.965
9669.379
9665.76
9662.117
9658.451
9654.761
9651.045
9647.303
9643.532
9639.733
9635.898
9632.023
9628.101
9624.117
9620.055
9615.897
9611.61
9607.147
9602.428
9597.316
9591.524
9584.711
9575.871
9565.402
9571.478
9574.801
9576.659
9577.377
9577.721
9577.85
9577.769
9577.588
9577.347
9577.078
9576.804
9576.542
9576.309
9576.117
9575.976
9575.892
9575.874
9575.927
9576.056
9576.266
9576.56
9576.943
9577.418
9577.986
9578.654
9579.42
9580.287
9581.259
9582.337
9583.527
9584.869
9586.351
9587.835
9589.083
9577.299
9572.502
9563.123
9565.21
9567.781
9569.057
9570.653
9572.755
9574.983
9577.243
9579.622
9582.11
9584.693
9587.366
9590.118
9592.938
9595.818
9598.753
9601.738
9604.769
9607.84
9610.948
9614.088
9617.259
9620.457
9623.677
9626.916
9630.171
9633.439
9636.717
9640.001
9643.289
9646.578
9649.867
9653.156
9656.445
9659.735
9663.027
9666.327
9669.641
9672.983
9676.375
9679.861
9683.497
9687.204
9690.389
9692.381
9693.764
9695.385
9697.214
9699.065
9700.955
9702.631
9702.952
9697.132
9703.058
9706.317
9707.283
9708.459
9709.515
9710.305
9711.018
9711.641
9712.153
9712.563
9712.864
9713.035
9713.073
9712.983
9712.764
9712.417
9711.943
9711.334
9710.59
9709.712
9708.699
9707.551
9706.278
9704.869
9703.342
9701.672
9699.907
9698.01
9696.002
9693.888
9691.664
9689.337
9686.913
9684.397
9681.793
9679.106
9676.341
9673.502
9670.593
9667.62
9664.586
9661.496
9658.346
9655.151
9651.91
9648.626
9645.3
9641.932
9638.529
9635.082
9631.594
9628.068
9624.498
9620.888
9617.236
9613.535
9609.784
9605.981
9602.119
9598.193
9594.198
9590.126
9585.969
9581.717
9577.361
9572.888
9568.283
9563.532
9558.618
9553.518
9548.211
9542.666
9536.849
9530.717
9524.216
9517.265
9509.763
9501.539
9492.348
9481.74
9469.405
9456.788
9457.213
9495.835
8102.361
8062.012
8022.143
7985.723
7952.417
7923.363
7898.312
7878.787
7860.744
7814.258
7813.408
7804.718
7800.34
7800.531
7804.333
7811.545
7823.284
7838.69
7841.303
7865.088
7877.685
7902.994
7932.606
7963.965
7997.661
8033.194
8070.241
8109.288
8145.128
8181.63
8222.768
8262.723
8302.202
8341.735
8380.983
8419.824
8458.317
8496.557
8529.07
8564.037
8599.879
8634.039
8667.001
8699.132
8730.295
8760.382
8789.058
8817.591
8844.759
8870.396
8895.214
8919.417
8942.926
8965.76
8987.859
9010.051
8976.631
8996.754
9013.896
9031.202
9049.029
9066.783
9084.057
9100.796
9117.066
9133.011
9148.532
9163.423
9177.977
9192.386
9206.712
9221.014
9235.481
9250.291
9265.233
9279.04
9289.324
9297.622
9307.171
9316.38
9323.597
9329.029
9333.636
9338.046
9342.413
9346.689
9350.814
9354.771
9358.555
9362.16
9365.593
9368.876
9372.133
9375.593
9379.673
9384.654
9390.707
9397.544
9406.453
9416.449
9422.687
9425.047
9423.64
9417.852
9408.79
9402.398
9401.611
9403.721
9406.162
9408.079
9409.596
9410.959
9412.251
9413.452
9414.54
9415.52
9416.407
9417.22
9417.968
9418.66
9419.303
9419.904
9420.469
9421.005
9421.516
9422.007
9422.482
9422.944
9423.396
9423.841
9424.281
9424.716
9425.149
9425.579
9426.008
9426.434
9426.857
9427.277
9427.693
9428.102
9428.504
9428.899
9429.281
9429.648
9429.997
9430.325
9430.627
9430.899
9431.138
9431.343
9431.524
9431.712
9431.967
9432.371
9432.954
9433.508
9433.783
9433.814
9433.736
9433.62
9433.48
9433.314
9433.113
9432.873
9432.581
9432.24
9431.856
9431.426
9430.95
9430.426
9429.854
9429.233
9428.563
9427.843
9427.072
9426.248
9425.371
9424.44
9423.45
9422.404
9421.299
9420.136
9418.914
9417.625
9416.261
9414.823
9413.313
9411.728
9410.064
9408.322
9406.497
9404.588
9402.591
9400.507
9398.323
9396.05
9393.666
9391.165
9388.612
9385.97
9383.219
9380.487
9377.755
9375.033
9435.609
9433.332
9430.097
9426.942
9423.793
9420.539
9417.232
9413.87
9410.455
9407.007
9403.522
9400.003
9396.452
9392.872
9389.265
9385.628
9381.962
9378.271
9374.555
9370.812
9367.041
9363.24
9359.405
9355.532
9351.611
9347.634
9343.585
9339.446
9335.183
9330.759
9326.119
9321.196
9315.883
9310.165
9304.591
9300.418
9299.702
9301.127
9301.894
9302.165
9302.292
9302.239
9302.058
9301.805
9301.514
9301.208
9300.907
9300.625
9300.376
9300.171
9300.019
9299.928
9299.904
9299.953
9300.08
9300.288
9300.583
9300.967
9301.443
9302.014
9302.684
9303.453
9304.324
9305.299
9306.384
9307.582
9308.898
9310.326
9311.919
9314.539
9256.502
9260.501
9261.508
9261.183
9261.372
9262.558
9264.411
9266.539
9268.756
9271.035
9273.408
9275.894
9278.49
9281.18
9283.946
9286.777
9289.667
9292.613
9295.608
9298.65
9301.733
9304.853
9308.005
9311.187
9314.395
9317.625
9320.875
9324.14
9327.418
9330.705
9333.998
9337.295
9340.593
9343.891
9347.187
9350.481
9353.773
9357.064
9360.356
9363.653
9366.958
9370.27
9373.574
9376.816
9379.888
9382.669
9385.033
9387.008
9388.842
9390.701
9392.542
9394.317
9395.901
9397.083
9397.169
9397.214
9398.751
9400.804
9402.346
9403.499
9404.358
9405.057
9405.665
9406.144
9406.529
9406.817
9406.938
9406.934
9406.806
9406.553
9406.168
9405.657
9405.015
9404.24
9403.333
9402.287
9401.106
9399.8
9398.377
9396.817
9395.137
9393.339
9391.424
9389.398
9387.282
9385.025
9382.677
9380.234
9377.702
9375.083
9372.382
9369.605
9366.756
9363.838
9360.857
9357.816
9354.72
9351.57
9348.365
9345.118
9341.828
9338.497
9335.126
9331.716
9328.27
9324.786
9321.26
9317.694
9314.087
9310.439
9306.745
9303.003
9299.208
9295.355
9291.44
9287.454
9283.392
9279.245
9275.003
9270.656
9266.192
9261.599
9256.86
9251.959
9246.876
9241.593
9236.077
9230.308
9224.241
9217.853
9211.071
9203.893
9196.248
9188.292
9180.267
9173.068
9167.651
9164.373
9161.004
6904.678
7059.96
7233.45
7421.81
7619.911
7825.84
8028.946
8228.399
8416.644
8586.478
8721.343
8850.589
8956.85
9039.366
9098.231
9134.483
9149.711
9146.083
9127.481
9051.229
9006.276
8951.405
8889.728
8822.64
8751.987
8679.107
8605.011
8530.864
8458.595
8382.746
8311.539
8241.486
8173.754
8108.71
8046.447
7987.165
7931.468
7880.616
7828.152
7778.798
7735.603
7696.998
7661.97
7630.663
7603.265
7579.816
7560.846
7543.908
7531.955
7525.061
7521.443
7521.505
7525.693
7533.974
7546.14
7563.434
7523.882
7547.965
7572.727
7599.74
7629.56
7661.987
7696.471
7732.502
7769.928
7808.471
7847.833
7887.052
7926.23
7965.738
8005.548
8045.311
8084.751
8123.736
8162.144
8199.7
8235.708
8270.259
8304.35
8338.117
8371.123
8403.092
8433.976
8463.806
8492.6
8520.353
8547.097
8572.945
8597.885
8622.005
8645.341
8667.82
8689.654
8711.433
8732.827
8751.986
8770.07
8788.059
8806.05
8823.775
8840.964
8857.624
8873.8
8889.491
8904.777
8919.694
8934.307
8948.679
8962.879
8976.951
8990.882
9004.626
9018.022
9030.885
9041.755
9050.822
9059.584
9068.245
9075.765
9081.828
9086.994
9091.81
9096.477
9100.98
9105.281
9109.397
9113.337
9117.125
9120.789
9124.394
9128.034
9131.874
9136.095
9141.007
9146.606
9152.637
9159.502
9166.374
9171.248
9173.381
9172.859
9169.833
9164.692
9160.494
9159.429
9160.54
9162.198
9163.675
9164.934
9166.11
9167.257
9168.35
9169.36
9170.279
9171.119
9171.891
9172.604
9173.264
9173.878
9174.451
9174.99
9175.499
9175.984
9176.45
9176.9
9177.337
9177.765
9178.185
9178.601
9179.013
9179.423
9179.832
9180.239
9180.646
9181.05
9181.453
9181.852
9182.247
9182.636
9183.017
9183.389
9183.747
9184.09
9184.415
9184.72
9185.002
9185.262
9185.503
9185.735
9185.975
9186.251
9186.591
9186.986
9187.364
9187.594
9187.644
9187.599
9187.523
9187.431
9187.306
9187.131
9186.903
9186.622
9186.292
9185.915
9185.49
9185.016
9184.492
9183.919
9183.295
9182.621
9181.895
9181.117
9180.286
9179.401
9178.46
9177.462
9176.407
9175.294
9174.12
9172.879
9171.573
9170.2
9168.759
9167.247
9165.661
9163.998
9162.259
9160.44
9158.54
9156.557
9154.49
9152.336
9150.097
9147.769
9145.389
9142.848
9140.249
9137.603
9134.93
9132.296
9129.784
9127.571
9125.094
9122.254
9119.15
9115.952
9112.704
9109.42
9106.082
9102.695
9099.267
9095.801
9092.301
9088.767
9085.202
9081.607
9077.982
9074.33
9070.65
9066.944
9063.212
9059.452
9055.664
9051.844
9047.989
9044.093
9040.148
9036.144
9032.067
9027.903
9023.636
9019.256
9014.776
9010.277
9005.954
9002.137
8999.293
8997.733
8997.225
8997.094
8996.919
8996.627
8996.261
8995.866
8995.466
8995.066
8994.678
8994.312
8993.98
8993.693
8993.46
8993.286
8993.179
8993.145
8993.187
8993.311
8993.52
8993.818
8994.207
8994.69
8995.271
8995.949
8996.729
8997.61
8998.598
8999.689
9000.892
9002.197
9003.628
9005.156
9006.833
9008.174
9008.631
9009.336
9010.821
9012.888
9015.208
9017.601
9020.017
9022.45
9024.914
9027.43
9030.016
9032.678
9035.41
9038.205
9041.058
9043.965
9046.924
9049.931
9052.983
9056.075
9059.205
9062.368
9065.56
9068.778
9072.019
9075.278
9078.553
9081.84
9085.137
9088.441
9091.748
9095.056
9098.363
9101.668
9104.968
9108.262
9111.55
9114.831
9118.103
9121.359
9124.587
9127.759
9130.838
9133.78
9136.529
9139.012
9141.211
9143.207
9145.133
9147.007
9148.81
9150.488
9152.123
9154.076
9156.024
9157.317
9158.141
9158.81
9159.469
9160.105
9160.675
9161.174
9161.621
9161.945
9162.155
9162.261
9162.252
9162.122
9161.869
9161.487
9160.976
9160.336
9159.567
9158.672
9157.629
9156.457
9155.157
9153.765
9152.196
9150.51
9148.706
9146.787
9144.754
9142.591
9140.363
9138.026
9135.59
9133.062
9130.446
9127.748
9124.972
9122.123
9119.205
9116.223
9113.18
9110.08
9106.932
9103.737
9100.498
9097.215
9093.892
9090.531
9087.131
9083.693
9080.22
9076.711
9073.164
9069.576
9065.946
9062.274
9058.555
9054.786
9050.962
9047.078
9043.126
9039.101
9034.993
9030.795
9026.495
9022.083
9017.547
9012.872
9008.044
9003.045
8997.857
8992.459
8986.831
8980.948
8974.792
8968.346
8961.626
8954.676
8947.653
8940.723
8934.217
8928.471
8923.827
8918.573
5983.948
5998.209
6013.356
6017.733
6040.296
6049.785
6098.961
6164.427
6246.611
6324.492
6404.244
6507.24
6632.799
6777.947
6941.669
7119.239
7307.157
7500.767
7696.025
7887.319
8069.736
8239.179
8389.069
8517.268
8623.052
8705.186
8763.728
8799.76
8815.021
8812.036
8795.97
8682.207
8642.883
8592.214
8529.981
8462.29
8392.133
8320.482
8247.912
8175.128
8102.857
8031.549
7961.7
7893.664
7827.965
7764.928
7704.628
7647.137
7592.614
7541.07
7492.511
7447.297
7405.607
7367.577
7333.386
7303.096
7276.705
7254.219
7235.581
7220.966
7210.374
7203.602
7200.815
7202.195
7207.548
7216.851
7229.735
7246.926
7268.763
7292.43
7316.871
7343.892
7374.347
7407.719
7443.263
7480.432
7518.681
7557.697
7597.245
7637.179
7677.435
7717.939
7758.42
7798.626
7838.404
7877.625
7916.121
7953.733
7990.36
8026
8060.82
8094.895
8128.05
8160.136
8191.126
8221.055
8249.947
8277.858
8304.782
8330.698
8355.684
8379.805
8403.178
8425.764
8447.732
8468.666
8489.18
8508.954
8527.808
8546.007
8563.834
8581.282
8598.309
8614.833
8630.877
8646.443
8661.646
8676.463
8690.945
8705.117
8719.049
8732.749
8746.176
8759.287
8771.946
8783.95
8794.714
8804.174
8812.907
8821.2
8828.693
8835.149
8840.796
8845.984
8850.912
8855.613
8860.085
8864.364
8868.464
8872.422
8876.28
8880.097
8883.95
8887.953
8892.226
8896.906
8901.937
8907.267
8912.751
8917.841
8921.773
8923.911
8924.092
8922.592
8919.998
8917.663
8916.718
8917.131
8918.196
8919.357
8920.446
8921.486
8922.507
8923.495
8924.426
8925.286
8926.078
8926.81
8927.489
8928.118
8928.704
8929.251
8929.766
8930.252
8930.714
8931.158
8931.586
8932.003
8932.41
8932.811
8933.207
8933.601
8933.993
8934.384
8934.775
8935.165
8935.555
8935.944
8936.331
8936.714
8937.093
8937.465
8937.829
8938.181
8938.522
8938.847
8939.156
8939.447
8939.722
8939.982
8940.236
8940.491
8940.761
8941.052
8941.355
8941.635
8941.832
8941.92
8941.927
8941.884
8941.803
8941.676
8941.498
8941.269
8940.99
8940.661
8940.284
8939.858
8939.381
8938.855
8938.278
8937.651
8936.971
8936.24
8935.455
8934.617
8933.723
8932.774
8931.768
8930.703
8929.579
8928.392
8927.143
8925.829
8924.449
8922.999
8921.478
8919.884
8918.215
8916.47
8914.647
8912.745
8910.763
8908.699
8906.553
8904.325
8902.015
8899.63
8897.157
8894.623
8892.041
8889.431
8886.828
8884.239
8881.65
8878.947
8876.077
8873.081
8869.983
8866.791
8863.605
8860.342
8857.009
8853.627
8850.198
8846.734
8843.234
8839.7
8836.132
8832.532
8828.902
8825.244
8821.559
8817.847
8814.109
8810.345
8806.553
8802.73
8798.875
8794.982
8791.048
8787.067
8783.037
8778.962
8774.858
8770.77
8766.78
8763.017
8759.674
8756.977
8755.099
8753.974
8753.3
8752.738
8752.158
8751.573
8751.008
8750.472
8749.964
8749.486
8749.046
8748.651
8748.31
8748.03
8747.815
8747.671
8747.604
8747.616
8747.713
8747.898
8748.173
8748.541
8749.005
8749.567
8750.228
8750.99
8751.854
8752.823
8753.893
8755.07
8756.344
8757.716
8759.147
8760.571
8761.948
8763.513
8765.295
8767.146
8768.99
8770.885
8772.899
8775.045
8777.303
8779.653
8782.09
8784.614
8787.224
8789.914
8792.677
8795.507
8798.398
8801.345
8804.345
8807.393
8810.485
8813.615
8816.781
8819.977
8823.201
8826.448
8829.716
8833
8836.297
8839.604
8842.918
8846.236
8849.555
8852.872
8856.184
8859.489
8862.784
8866.068
8869.334
8872.579
8875.792
8878.958
8882.057
8885.065
8887.951
8890.677
8893.201
8895.511
8897.642
8899.665
8901.612
8903.49
8905.295
8907.05
8908.706
8910
8910.987
8911.94
8912.947
8913.927
8914.807
8915.557
8916.184
8916.703
8917.1
8917.375
8917.525
8917.548
8917.443
8917.208
8916.839
8916.338
8915.711
8914.955
8914.102
8913.024
8911.839
8910.53
8909.062
8907.521
8905.849
8904.053
8902.138
8900.108
8897.963
8895.719
8893.372
8890.927
8888.391
8885.767
8883.061
8880.277
8877.421
8874.495
8871.506
8868.458
8865.355
8862.201
8858.999
8855.753
8852.466
8849.139
8845.776
8842.375
8838.94
8835.472
8831.968
8828.428
8824.851
8821.236
8817.581
8813.883
8810.137
8806.339
8802.484
8798.566
8794.578
8790.512
8786.359
8782.111
8777.756
8773.283
8768.68
8763.934
8759.03
8753.953
8748.688
8743.221
8737.539
8731.639
8725.52
8719.219
8712.77
8706.312
8699.904
8693.901
8688.188
8683.018
8675.79
5927.622
5915.774
5904.97
5871.055
5848.212
5794.955
5775.21
5757.912
5743.21
5731.81
5723.877
5719.258
5719.993
5726.622
5739.513
5759.888
5737.317
5780.601
5834.8
5899.947
5976.154
6068.04
6179.022
6308.303
6456.519
6621.825
6801.011
6990.774
7186.878
7384.395
7577.946
7762.01
7929.81
8076.62
8200.835
8301.43
8377.968
8430.942
8461.698
8472.235
8464.501
8440.785
8402.933
8358.381
8307.129
8247.857
8182.791
8114.436
8044.217
7972.846
7901.144
7829.98
7759.741
7690.859
7623.826
7559.073
7496.808
7437.12
7380.234
7326.308
7275.495
7227.71
7182.932
7141.551
7103.88
7070.01
7039.934
7013.66
6991.225
6972.719
6958.125
6947.455
6940.85
6938.373
6939.983
6945.665
6955.312
6969.05
6986.48
7007.083
7030.484
7056.377
7085.048
7116.606
7150.743
7186.906
7224.562
7263.33
7302.973
7343.319
7384.194
7425.37
7466.624
7507.75
7548.583
7588.981
7628.802
7667.912
7706.201
7743.588
7779.975
7815.361
7849.794
7883.248
7915.66
7946.994
7977.257
8006.469
8034.651
8061.808
8087.957
8113.164
8137.486
8160.99
8183.656
8205.551
8226.612
8247.092
8266.91
8285.888
8304.135
8321.879
8339.188
8356.046
8372.417
8388.323
8403.835
8418.911
8433.613
8447.934
8461.898
8475.56
8488.902
8501.904
8514.5
8526.584
8538.007
8548.538
8558.08
8566.823
8574.953
8582.41
8589.089
8595.07
8600.55
8605.689
8610.559
8615.191
8619.608
8623.845
8627.938
8631.932
8635.878
8639.837
8643.88
8648.076
8652.464
8657.05
8661.725
8666.281
8670.415
8673.722
8675.785
8676.479
8676.034
8674.878
8673.685
8673.116
8673.344
8674.098
8675.046
8676.003
8676.935
8677.851
8678.747
8679.602
8680.403
8681.148
8681.84
8682.482
8683.081
8683.638
8684.16
8684.65
8685.113
8685.555
8685.977
8686.385
8686.782
8687.17
8687.552
8687.931
8688.307
8688.682
8689.057
8689.432
8689.808
8690.184
8690.56
8690.935
8691.308
8691.678
8692.042
8692.399
8692.748
8693.086
8693.411
8693.723
8694.021
8694.304
8694.577
8694.84
8695.1
8695.361
8695.623
8695.878
8696.107
8696.278
8696.373
8696.397
8696.365
8696.285
8696.159
8695.984
8695.759
8695.484
8695.159
8694.785
8694.36
8693.884
8693.358
8692.78
8692.15
8691.468
8690.733
8689.944
8689.1
8688.2
8687.244
8686.231
8685.158
8684.025
8682.829
8681.57
8680.247
8678.857
8677.398
8675.868
8674.265
8672.588
8670.836
8669.008
8667.104
8665.121
8663.06
8660.92
8658.703
8656.408
8654.037
8651.592
8649.085
8646.528
8643.934
8641.317
8638.674
8636.007
8633.289
8630.455
8627.499
8624.439
8621.333
8618.094
8614.82
8611.487
8608.127
8604.709
8601.273
8597.792
8594.276
8590.727
8587.144
8583.532
8579.891
8576.224
8572.532
8568.816
8565.077
8561.316
8557.531
8553.723
8549.892
8546.038
8542.163
8538.275
8534.387
8530.526
8526.734
8523.078
8519.654
8516.587
8513.998
8511.97
8510.485
8509.387
8508.476
8507.64
8506.857
8506.13
8505.458
8504.837
8504.266
8503.747
8503.286
8502.887
8502.556
8502.297
8502.114
8502.011
8501.993
8502.061
8502.22
8502.471
8502.818
8503.262
8503.805
8504.448
8505.193
8506.04
8506.99
8508.041
8509.192
8510.436
8511.765
8513.161
8514.621
8516.185
8517.868
8519.586
8521.276
8523.023
8524.911
8526.959
8529.146
8531.442
8533.827
8536.294
8538.842
8541.471
8544.177
8546.954
8549.796
8552.698
8555.657
8558.667
8561.725
8564.826
8567.967
8571.144
8574.352
8577.588
8580.849
8584.13
8587.428
8590.739
8594.061
8597.389
8600.721
8604.053
8607.382
8610.705
8614.017
8617.317
8620.598
8623.855
8627.082
8630.268
8633.4
8636.461
8639.433
8642.291
8645.008
8647.564
8649.951
8652.185
8654.302
8656.325
8658.263
8660.107
8661.827
8663.38
8664.756
8666.034
8667.243
8668.36
8669.36
8670.236
8670.989
8671.625
8672.149
8672.557
8672.843
8673.004
8673.037
8672.939
8672.711
8672.351
8671.852
8671.228
8670.446
8669.493
8668.497
8667.34
8666.041
8664.601
8663.04
8661.353
8659.544
8657.617
8655.574
8653.42
8651.161
8648.801
8646.344
8643.795
8641.157
8638.437
8635.639
8632.769
8629.83
8626.828
8623.766
8620.651
8617.485
8614.273
8611.018
8607.723
8604.391
8601.022
8597.62
8594.185
8590.718
8587.22
8583.688
8580.123
8576.523
8572.886
8569.209
8565.489
8561.72
8557.899
8554.019
8550.073
8546.054
8541.955
8537.766
8533.477
8529.079
8524.559
8519.907
8515.111
8510.159
8505.04
8499.745
8494.269
8488.616
8482.791
8476.832
8470.763
8464.704
8458.65
8452.909
8447.094
8441.715
8433.832
5938.692
5920.87
5899.186
5864.027
5840.866
5784.453
5761.249
5737.909
5714.491
5690.732
5667.06
5643.431
5619.9
5597.133
5574.222
5489.539
5470.078
5452.578
5437.637
5425.538
5416.723
5411.768
5411.212
5415.664
5426.001
5443.686
5468.697
5505.109
5551.952
5610.648
5683.129
5772.549
5880.287
6007.04
6152.299
6315.148
6493.468
6683.599
6880.732
7079.113
7272.659
7455.972
7623.223
7769.91
7893.589
7993.259
8068.833
8121.05
8151.388
8161.916
8154.891
8133.339
8099.692
8056.873
8007.185
7951.035
7889.325
7823.8
7756.035
7687.065
7617.746
7548.794
7480.646
7413.693
7348.365
7284.942
7223.588
7164.683
7108.612
7055.497
7005.377
6958.222
6914.104
6873.286
6835.994
6802.325
6772.315
6746.018
6723.509
6704.876
6690.159
6679.449
6672.851
6670.406
6672.09
6677.906
6687.769
6701.59
6718.971
6739.771
6763.939
6791.14
6821.065
6853.576
6888.474
6925.402
6963.948
7003.756
7044.546
7086.081
7128.116
7170.399
7212.707
7254.859
7296.692
7338.051
7378.788
7418.776
7457.903
7496.074
7533.208
7569.283
7604.318
7638.31
7671.228
7703.037
7733.733
7763.329
7791.845
7819.305
7845.74
7871.197
7895.718
7919.353
7942.123
7964.088
7985.269
8005.734
8025.482
8044.473
8062.768
8080.494
8097.725
8114.477
8130.743
8146.539
8161.897
8176.801
8191.277
8205.365
8219.124
8232.516
8245.545
8258.163
8270.319
8281.952
8292.948
8303.212
8312.667
8321.368
8329.425
8336.861
8343.652
8349.833
8355.519
8360.829
8365.84
8370.595
8375.126
8379.466
8383.655
8387.732
8391.742
8395.728
8399.738
8403.806
8407.948
8412.142
8416.286
8420.224
8423.761
8426.647
8428.649
8429.695
8429.928
8429.638
8429.214
8429.059
8429.314
8429.916
8430.72
8431.57
8432.411
8433.244
8434.062
8434.85
8435.595
8436.292
8436.943
8437.551
8438.118
8438.648
8439.144
8439.611
8440.053
8440.474
8440.877
8441.266
8441.645
8442.016
8442.381
8442.743
8443.104
8443.464
8443.825
8444.187
8444.55
8444.915
8445.28
8445.645
8446.01
8446.372
8446.73
8447.083
8447.428
8447.765
8448.091
8448.406
8448.709
8448.999
8449.278
8449.547
8449.808
8450.061
8450.304
8450.531
8450.728
8450.879
8450.971
8451.001
8450.977
8450.903
8450.782
8450.613
8450.394
8450.124
8449.803
8449.432
8449.011
8448.537
8448.013
8447.436
8446.806
8446.123
8445.386
8444.595
8443.749
8442.845
8441.885
8440.866
8439.788
8438.648
8437.445
8436.179
8434.849
8433.454
8431.987
8430.447
8428.834
8427.148
8425.387
8423.551
8421.64
8419.653
8417.59
8415.452
8413.241
8410.956
8408.595
8406.165
8403.673
8401.128
8398.537
8395.907
8393.239
8390.53
8387.76
8384.897
8381.934
8378.882
8375.764
8372.576
8369.334
8366.045
8362.671
8359.215
8355.838
8352.372
8348.879
8345.345
8341.778
8338.18
8334.556
8330.907
8327.235
8323.542
8319.83
8316.101
8312.356
8308.597
8304.828
8301.053
8297.28
8293.518
8289.788
8286.115
8282.539
8279.117
8275.915
8273.013
8270.484
8268.373
8266.663
8265.274
8264.095
8263.043
8262.083
8261.205
8260.402
8259.669
8259.002
8258.401
8257.868
8257.407
8257.021
8256.713
8256.487
8256.346
8256.292
8256.329
8256.459
8256.684
8257.007
8257.429
8257.952
8258.576
8259.302
8260.131
8261.063
8262.095
8263.225
8264.449
8265.762
8267.159
8268.643
8270.214
8271.847
8273.517
8275.237
8277.062
8279.023
8281.117
8283.325
8285.632
8288.026
8290.504
8293.063
8295.701
8298.415
8301.199
8304.049
8306.96
8309.927
8312.947
8316.016
8319.129
8322.283
8325.473
8328.696
8331.947
8335.224
8338.521
8341.837
8345.166
8348.505
8351.851
8355.2
8358.548
8361.892
8365.228
8368.552
8371.859
8375.143
8378.4
8381.62
8384.794
8387.91
8390.954
8393.911
8396.761
8399.487
8402.077
8404.525
8406.839
8409.034
8411.123
8413.11
8414.985
8416.735
8418.359
8419.868
8421.264
8422.535
8423.677
8424.698
8425.606
8426.399
8427.075
8427.634
8428.071
8428.383
8428.565
8428.617
8428.535
8428.321
8427.979
8427.482
8426.842
8426.078
8425.166
8424.136
8422.967
8421.659
8420.216
8418.646
8416.949
8415.129
8413.188
8411.132
8408.963
8406.688
8404.31
8401.835
8399.266
8396.609
8393.869
8391.052
8388.162
8385.204
8382.183
8379.103
8375.971
8372.789
8369.563
8366.294
8362.987
8359.645
8356.269
8352.862
8349.425
8345.959
8342.464
8338.94
8335.386
8331.802
8328.184
8324.53
8320.837
8317.101
8313.316
8309.478
8305.58
8301.615
8297.575
8293.452
8289.237
8284.921
8280.493
8275.945
8271.265
8266.445
8261.477
8256.356
8251.08
8245.654
8240.087
8234.412
8228.642
8222.871
8217.052
8211.444
8205.558
8200.18
8192.077
5895.597
5831.57
5783.116
5736.948
5697.352
5665.112
5636.851
5611.378
5587.974
5564.322
5477.132
5454.035
5430.737
5407.165
5383.263
5359.307
5335.396
5311.606
5288.26
5266.114
5245.347
5225.658
5207.443
5191.403
5177.828
5167.066
5159.684
5156.293
5157.604
5164.337
5177.307
5198.269
5229.096
5270.675
5324.895
5393.833
5479.689
5584.761
5710.194
5854.391
6017.753
6194.862
6383.898
6579.514
6775.885
6966.969
7147.05
7310.82
7454.083
7574.379
7670.815
7743.605
7793.799
7823.083
7833.636
7827.885
7808.437
7777.56
7737.317
7689.961
7636.813
7578.753
7517.007
7452.862
7387.402
7321.392
7255.377
7189.989
7125.681
7062.76
7001.395
6941.836
6884.575
6829.939
6778.045
6728.937
6682.668
6639.351
6599.156
6562.256
6528.775
6498.81
6472.457
6449.818
6431.004
6416.118
6405.271
6398.553
6396.028
6397.709
6403.594
6413.611
6427.623
6445.471
6467.059
6492.163
6520.412
6551.485
6585.178
6621.277
6659.47
6699.38
6740.636
6782.913
6825.923
6869.4
6913.094
6956.783
7000.273
7043.386
7085.955
7127.834
7168.893
7209.023
7248.136
7286.168
7323.087
7358.887
7393.56
7427.087
7459.447
7490.64
7520.68
7549.591
7577.404
7604.152
7629.875
7654.614
7678.419
7701.329
7723.394
7744.644
7765.114
7784.838
7803.837
7822.152
7839.856
7857.01
7873.648
7889.78
7905.422
7920.594
7935.309
7949.595
7963.479
7976.981
7990.072
8002.739
8014.975
8026.764
8038.017
8048.68
8058.678
8067.982
8076.605
8084.605
8092.005
8098.835
8105.123
8110.938
8116.367
8121.478
8126.322
8130.932
8135.34
8139.583
8143.698
8147.721
8151.684
8155.617
8159.537
8163.445
8167.305
8171.044
8174.548
8177.682
8180.291
8182.25
8183.517
8184.183
8184.435
8184.515
8184.689
8185.058
8185.64
8186.371
8187.134
8187.899
8188.665
8189.419
8190.147
8190.839
8191.491
8192.103
8192.675
8193.211
8193.714
8194.185
8194.63
8195.051
8195.452
8195.837
8196.21
8196.572
8196.927
8197.278
8197.626
8197.973
8198.32
8198.668
8199.019
8199.371
8199.726
8200.082
8200.44
8200.797
8201.153
8201.507
8201.856
8202.2
8202.536
8202.864
8203.182
8203.488
8203.783
8204.067
8204.339
8204.599
8204.846
8205.077
8205.286
8205.465
8205.603
8205.69
8205.724
8205.707
8205.64
8205.525
8205.362
8205.148
8204.884
8204.57
8204.204
8203.787
8203.318
8202.797
8202.223
8201.596
8200.914
8200.178
8199.388
8198.541
8197.636
8196.675
8195.657
8194.577
8193.431
8192.22
8190.946
8189.609
8188.214
8186.749
8185.206
8183.589
8181.898
8180.134
8178.296
8176.383
8174.395
8172.331
8170.194
8167.984
8165.701
8163.348
8160.929
8158.447
8155.908
8153.315
8150.674
8147.982
8145.237
8142.427
8139.539
8136.568
8133.52
8130.404
8127.224
8123.987
8120.703
8117.376
8114.048
8110.547
8107.023
8103.564
8100.039
8096.477
8092.888
8089.273
8085.636
8081.979
8078.306
8074.618
8070.919
8067.211
8063.499
8059.788
8056.085
8052.399
8048.745
8045.142
8041.615
8038.199
8034.938
8031.881
8029.08
8026.581
8024.408
8022.548
8020.96
8019.577
8018.343
8017.226
8016.209
8015.283
8014.441
8013.679
8012.995
8012.39
8011.864
8011.421
8011.062
8010.79
8010.608
8010.517
8010.521
8010.621
8010.819
8011.117
8011.517
8012.019
8012.624
8013.333
8014.146
8015.061
8016.077
8017.193
8018.405
8019.711
8021.106
8022.588
8024.147
8025.778
8027.482
8029.271
8031.163
8033.164
8035.276
8037.49
8039.801
8042.201
8044.688
8047.257
8049.905
8052.629
8055.423
8058.284
8061.207
8064.187
8067.221
8070.305
8073.434
8076.604
8079.812
8083.053
8086.323
8089.619
8092.936
8096.271
8099.621
8102.981
8106.347
8109.716
8113.084
8116.446
8119.799
8123.137
8126.456
8129.75
8133.012
8136.234
8139.408
8142.522
8145.564
8148.521
8151.379
8154.126
8156.752
8159.253
8161.631
8163.891
8166.041
8168.081
8170.009
8171.821
8173.516
8175.09
8176.535
8177.85
8179.041
8180.116
8181.076
8181.918
8182.637
8183.231
8183.698
8184.035
8184.239
8184.308
8184.241
8184.037
8183.684
8183.208
8182.579
8181.809
8180.898
8179.854
8178.672
8177.352
8175.897
8174.311
8172.597
8170.757
8168.795
8166.716
8164.523
8162.222
8159.817
8157.314
8154.717
8152.031
8149.262
8146.416
8143.497
8140.51
8137.461
8134.356
8131.197
8127.991
8124.741
8121.452
8118.126
8114.767
8111.377
8107.959
8104.514
8101.044
8097.549
8094.028
8090.482
8086.91
8083.308
8079.676
8076.009
8072.304
8068.557
8064.761
8060.911
8057.001
8053.022
8048.968
8044.829
8040.597
8036.264
8031.82
8027.258
8022.569
8017.747
8012.79
8007.697
8002.473
7997.126
7991.681
7986.142
7980.582
7974.93
7969.415
7963.509
7958.171
7949.976
5618.768
5553.608
5437.872
5403.457
5372.423
5345.222
5320.772
5298.028
5276.101
5254.584
5233.196
5210.834
5187.907
5164.376
5140.383
5116.072
5091.629
5067.271
5043.242
5019.981
4998.341
4977.951
4958.88
4941.685
4926.566
4913.977
4904.409
4898.477
4896.802
4900.272
4910.124
4927.811
4954.825
4992.784
5044.02
5110.623
5195.211
5299.246
5423.526
5566.993
5728.124
5903.574
6089.801
6281.707
6473.448
6658.948
6832.559
6989.507
7126.206
7240.56
7331.927
7400.792
7448.469
7476.764
7487.798
7483.808
7467.042
7439.566
7403.224
7359.837
7310.864
7257.314
7200.097
7140.302
7078.977
7016.759
6954.123
6891.797
6830.315
6769.973
6711.006
6653.694
6598.403
6545.411
6494.878
6446.903
6401.59
6359.059
6319.45
6282.919
6249.612
6219.663
6193.205
6170.372
6151.31
6136.161
6125.063
6118.13
6115.457
6117.096
6123.062
6133.307
6147.761
6166.294
6188.758
6214.841
6244.246
6276.694
6311.918
6349.63
6389.494