/*--------------------------------*- C++ -*----------------------------------*\
| =========                 |                                                 |
| \\      /  F ield         | foam-extend: Open Source CFD                    |
|  \\    /   O peration     | Version:     3.1                                |
|   \\  /    A nd           | Web:         http://www.extend-project.de       |
|    \\/     M anipulation  |                                                 |
\*---------------------------------------------------------------------------*/
FoamFile
{
    version     2.0;
    format      ascii;
    class       surfaceScalarField;
    location    "4.5";
    object      phi;
}
// * * * * * * * * * * * * * * * * * * * * * * * * * * * * * * * * * * * * * //

dimensions      [0 3 -1 0 0 0 0];

internalField   nonuniform List<scalar> 
275122
(
-0.0001066109
0.0001076146
-2.918386e-08
-9.745446e-07
-9.605593e-05
9.165098e-05
3.652879e-07
4.039655e-06
-9.52031e-05
9.775073e-05
-8.822602e-08
-2.45941e-06
-0.000106625
0.000109602
-1.005975e-07
-2.876365e-06
-0.0001173646
0.0001185361
-9.744604e-08
-1.074047e-06
-0.0001193778
0.0001195527
-9.212449e-08
-8.282267e-08
-0.0001196174
0.0001195399
-7.765434e-08
1.551427e-07
-0.0001191175
0.0001189308
-6.530932e-08
2.520767e-07
-0.0001182845
0.0001180408
-5.533447e-08
2.990141e-07
-0.0001172363
0.0001169434
-4.727006e-08
3.401727e-07
-0.0001159992
0.0001156628
-4.056745e-08
3.769566e-07
-0.0001145959
0.0001142214
-3.499274e-08
4.095113e-07
-0.0001130466
0.0001126384
-3.034035e-08
4.385833e-07
-0.0001113678
0.0001109297
-2.642959e-08
4.644711e-07
-0.0001095747
0.000109111
-2.313496e-08
4.86845e-07
-0.000107684
0.0001071999
-2.044877e-08
5.044826e-07
-0.0001057183
0.0001052236
-1.892077e-08
5.136126e-07
-0.0001037267
0.000103247
-2.203423e-08
5.01699e-07
-0.0001018665
0.0001014815
-4.731314e-08
4.323445e-07
-0.0001007817
0.000101023
-1.684602e-07
-7.284422e-08
-0.0001122859
0.0001161861
-3.26554e-07
-3.573648e-06
-0.0001183134
0.000118919
-1.09154e-07
-4.963892e-07
-0.0001205834
0.0001214971
-4.669635e-08
-8.670328e-07
-0.0001348602
0.0001399453
1.295632e-07
-5.214651e-06
-0.0001414379
0.0001417773
1.788902e-07
-5.183256e-07
-0.000143527
0.0001438925
-3.827574e-09
-3.616736e-07
-0.0001445169
0.0001445244
-1.914304e-08
1.161905e-08
-0.0001437494
0.0001428201
-1.545979e-08
9.447806e-07
-0.0001351785
0.0001267385
-1.68885e-08
8.456826e-06
-0.0001696099
0.0001739055
3.999201e-09
-4.299602e-06
-0.0001086071
0.0001131286
-2.832907e-08
-4.493102e-06
-0.0001261007
0.0001304403
4.20707e-09
-4.343845e-06
-0.000143395
0.0001476619
4.190664e-09
-4.271153e-06
-0.0001604567
0.0001647267
3.97384e-09
-4.273966e-06
-0.0001776089
0.0001819185
3.718154e-09
-4.31331e-06
-0.0001948933
0.0001992225
3.455061e-09
-4.332579e-06
-0.0002122254
0.0002165588
2.993897e-09
-4.336427e-06
-0.0002295489
0.0002338713
2.771517e-09
-4.325222e-06
-0.0002468027
0.0002511001
2.407855e-09
-4.299824e-06
-0.0002636408
0.000268796
7.934235e-08
-5.234532e-06
3.74921e-06
-0.0001830945
0.0001835454
-6.864196e-10
-4.199383e-06
3.705187e-06
-0.0001847413
0.0001851088
-7.444289e-10
-4.071902e-06
3.801598e-06
-0.0001859738
0.0001861966
-7.830812e-10
-4.023669e-06
3.909098e-06
-0.0001866396
0.0001867294
-6.69059e-10
-3.998235e-06
3.997385e-06
-0.0001868248
0.0001868122
-5.276421e-10
-3.984319e-06
4.063175e-06
-0.0001866564
0.000186576
-3.415563e-10
-3.982482e-06
4.108714e-06
-0.0001862649
0.0001861441
-4.684678e-10
-3.987485e-06
4.135825e-06
-0.0001857395
0.0001855928
-4.631544e-10
-3.988717e-06
4.38561e-06
-0.0001849329
0.0001841372
-2.634263e-10
-3.589733e-06
3.173124e-06
-0.0007631696
0.0007638109
-3.740852e-12
-1.434401e-05
3.691184e-06
3.161149e-06
3.677233e-06
3.792757e-06
-0.0007632646
0.0007623295
-4.692805e-12
-1.450853e-05
3.939206e-06
3.783315e-06
3.928356e-06
3.933952e-06
-0.0007615041
0.000760535
-5.635659e-12
-1.493208e-05
4.02574e-06
3.924647e-06
4.016881e-06
4.044699e-06
-0.0007594761
0.0007583325
-6.62148e-12
-1.512268e-05
4.096556e-06
4.036309e-06
4.088642e-06
4.108306e-06
-0.0007571359
0.0007559289
-8.914611e-12
-1.525969e-05
4.130683e-06
4.103704e-06
4.124075e-06
4.151752e-06
-0.0007547828
0.0007536423
-1.060625e-11
-1.54935e-05
4.172168e-06
4.143906e-06
4.166222e-06
4.175319e-06
-0.0007525714
0.0007515578
-1.201517e-11
-1.569732e-05
4.186218e-06
4.169201e-06
4.180215e-06
4.197162e-06
-0.000750618
0.0007497314
-3.884834e-12
-1.587947e-05
4.190094e-06
4.192854e-06
4.185897e-06
4.222484e-06
-0.0007489062
0.0007479243
-1.119269e-11
-1.584399e-05
4.194722e-06
4.218144e-06
4.190529e-06
3.874275e-06
-0.0007471432
0.0007477013
-7.735102e-12
-1.652677e-05
4.111396e-06
3.871163e-06
4.111852e-06
4.291675e-06
-0.0007470333
0.0007461403
-6.878583e-12
-1.610289e-05
4.206891e-06
4.290858e-06
4.206466e-06
4.210433e-06
-0.0007455556
0.0007451209
-8.670387e-12
-1.632038e-05
4.166969e-06
4.210877e-06
4.166815e-06
4.228077e-06
-0.0007447238
0.0007444044
-1.014465e-11
-1.65525e-05
4.209628e-06
4.226609e-06
4.207532e-06
4.257759e-06
-0.0007441281
0.0007439274
4.81554e-12
-1.680539e-05
4.252814e-06
4.251362e-06
4.244139e-06
4.296574e-06
-0.0007437393
0.0007435969
4.906038e-11
-1.706162e-05
4.300057e-06
4.302652e-06
4.304676e-06
4.352933e-06
-0.0007434788
0.0007434017
6.388656e-12
-1.732303e-05
4.357972e-06
4.341922e-06
4.347365e-06
4.456249e-06
-0.0007433613
0.000743343
-7.568699e-13
-1.771527e-05
4.468607e-06
4.397646e-06
4.411137e-06
4.801967e-06
-0.000743281
0.0007428613
6.279442e-12
-1.841118e-05
4.880773e-06
4.54063e-06
4.607539e-06
5.997882e-06
-0.00074137
0.0007376971
5.959817e-12
-1.930198e-05
6.380661e-06
5.307926e-06
5.28846e-06
8.165202e-06
-0.0007330438
0.0007388267
6.600835e-12
-1.39481e-05
7.999089e-06
-0.0007432341
0.0007441375
6.779334e-12
-8.902474e-06
1.244133e-05
-0.0007435769
0.0007432787
5.352692e-12
-1.214313e-05
1.146517e-05
-0.0007428538
0.0007426046
4.046468e-12
-1.121604e-05
7.505927e-06
-0.0007424974
0.0007433398
3.664395e-12
-8.348279e-06
4.028522e-06
-0.0007449561
0.0007464118
3.424065e-12
-5.484301e-06
2.839424e-06
-0.0007478103
0.0007491668
2.338086e-12
-4.195841e-06
2.18357e-06
-0.0007505145
0.0007518193
6.76461e-13
-3.488334e-06
1.782644e-06
-0.0007530952
0.0007543347
-1.952821e-13
-3.02217e-06
1.496664e-06
-0.0007555614
0.0007567718
2.788369e-13
-2.707066e-06
1.288494e-06
-0.0007579812
0.000759187
1.411463e-12
-2.494311e-06
1.131174e-06
-0.0007604008
0.0007616205
2.580851e-12
-2.35091e-06
1.009839e-06
-0.0007628539
0.0007641014
3.430914e-12
-2.25733e-06
9.181566e-07
-0.0007653644
0.0007666509
3.638548e-12
-2.204674e-06
8.5838e-07
-0.000767954
0.0007692908
3.174633e-12
-2.1952e-06
8.429277e-07
-0.0007706429
0.0007720466
2.340347e-12
-2.246719e-06
9.07457e-07
-0.0007734644
0.0007749578
1.572417e-12
-2.40088e-06
1.146598e-06
-0.000776455
0.0007780623
1.140628e-12
-2.753884e-06
1.827625e-06
-0.000779636
0.0007813032
1.024574e-12
-3.494827e-06
3.619501e-06
-0.0007827066
0.0007839506
1.032916e-12
-4.863428e-06
5.88115e-06
-0.0007841097
0.0007847197
1.051591e-12
-6.491154e-06
4.794647e-06
-0.0007863302
0.0007882129
9.957502e-13
-6.677334e-06
8.634516e-06
-0.0007894767
0.0007898778
8.332572e-13
-9.035632e-06
1.468698e-05
-0.0007865758
0.0007835473
6.241309e-13
-1.165846e-05
6.939057e-06
-0.0007823966
0.0007831398
4.090437e-13
-7.682246e-06
2.695906e-06
-0.0007840285
0.0007844961
1.180698e-13
-3.163549e-06
-9.876144e-07
-0.0007847467
0.0007850057
-1.652393e-13
7.286093e-07
-7.721471e-06
-0.0007855651
0.0007867748
-5.188371e-13
6.511798e-06
-2.562823e-05
-0.0007893529
0.0008001508
-9.708409e-13
1.483027e-05
-4.896523e-06
-0.000811657
0.0008130642
-1.416173e-12
1.499761e-05
-3.304967e-06
-4.895591e-06
-3.30766e-06
-1.798691e-06
-0.0008132655
0.0008145826
1.34581e-13
5.699538e-06
-1.713691e-06
-1.791963e-06
-1.712366e-06
-1.005768e-06
-0.0008155331
0.0008160409
1.592436e-13
3.29458e-06
-8.931447e-07
-1.00821e-06
-8.952989e-07
-6.69991e-07
-0.0008164682
0.0008170142
-4.106399e-13
2.079816e-06
-6.394087e-07
-6.727431e-07
-6.436307e-07
-5.466694e-07
-0.0008176502
0.0008183716
-8.502453e-13
1.444693e-06
-5.313017e-07
-5.515615e-07
-5.365993e-07
-4.73659e-07
-0.0008191446
0.0008199722
-1.050441e-12
1.057859e-06
-4.63252e-07
-4.794052e-07
-4.691425e-07
-4.329924e-07
-0.0008208367
0.0008217445
-1.106556e-12
8.258518e-07
-4.277884e-07
-4.390968e-07
-4.338129e-07
-4.147848e-07
-0.0008226747
0.0008236292
-1.114266e-12
7.127492e-07
-4.128011e-07
-4.209015e-07
-4.188087e-07
-4.085319e-07
-0.0008245985
0.000825585
-1.087593e-12
6.584891e-07
-4.081173e-07
-4.144256e-07
-4.138952e-07
-4.082495e-07
-0.0008265827
0.0008275943
-1.017137e-12
6.330806e-07
-4.085794e-07
-4.138126e-07
-4.140472e-07
-4.107978e-07
-0.0008286158
0.0008296494
-9.137669e-13
6.215505e-07
-4.115483e-07
-4.160862e-07
-4.167515e-07
-4.150847e-07
-0.0008306922
0.0008317458
-7.861292e-13
6.185014e-07
-4.160259e-07
-4.200459e-07
-4.208813e-07
-4.20471e-07
-0.0008328075
0.0008338792
-6.607437e-13
6.213497e-07
-4.215863e-07
-4.250041e-07
-4.260186e-07
-4.26523e-07
-0.0008349584
0.0008360473
-5.515701e-13
6.277829e-07
-4.277022e-07
-4.306814e-07
-4.317697e-07
-4.328141e-07
-0.0008371434
0.0008382491
-4.375036e-13
6.354719e-07
-4.340003e-07
-4.366237e-07
-4.377277e-07
-4.390902e-07
-0.0008393618
0.0008404845
-2.954544e-13
6.429155e-07
-4.402542e-07
-4.425768e-07
-4.436657e-07
-4.45236e-07
-0.0008416143
0.0008427545
-1.299768e-13
6.493998e-07
-4.463678e-07
-4.484283e-07
-4.494947e-07
-4.512297e-07
-0.0008439019
0.0008450601
1.903239e-14
6.547203e-07
-4.523301e-07
-4.541604e-07
-4.552039e-07
-4.570806e-07
-0.0008462258
0.0008474027
9.798237e-14
6.588797e-07
-4.581512e-07
-4.597808e-07
-4.60802e-07
-4.628005e-07
-0.0008485874
0.0008497837
1.472463e-13
6.619492e-07
-4.638433e-07
-4.652962e-07
-4.662959e-07
-4.683993e-07
-0.0008509878
0.000852204
1.767403e-13
6.640236e-07
-4.694147e-07
-4.707183e-07
-4.717001e-07
-4.738843e-07
-0.0008534282
0.0008546649
2.064697e-13
6.652063e-07
-4.748822e-07
-4.760563e-07
-4.770223e-07
-4.792995e-07
-0.0008559097
0.0008571672
2.452692e-13
6.657023e-07
-4.802926e-07
-4.813347e-07
-4.822914e-07
-4.847277e-07
-0.0008584331
0.0008597118
2.916494e-13
6.65901e-07
-4.857376e-07
-4.86601e-07
-4.875706e-07
-4.902679e-07
-0.000860999
0.0008622992
3.279083e-13
6.662769e-07
-4.913149e-07
-4.919593e-07
-4.929581e-07
-4.959849e-07
0.0008649297
3.371348e-13
6.672238e-07
-4.970396e-07
-4.974919e-07
-4.985241e-07
-0.0008636079
-5.017261e-07
-0.00086626
0.0008676033
3.743096e-13
6.688262e-07
-5.028354e-07
-5.032069e-07
-5.043131e-07
-5.076599e-07
-0.0008689551
0.0008703194
4.359453e-13
6.712192e-07
-5.087196e-07
-5.090908e-07
-5.101234e-07
-5.137055e-07
-0.000871692
0.0008730772
5.352543e-13
6.744562e-07
-5.148369e-07
-5.149614e-07
-5.160642e-07
-5.199598e-07
-0.0008744704
0.0008758758
6.582951e-13
6.790591e-07
-5.211202e-07
-5.211162e-07
-5.222574e-07
-5.264104e-07
-0.0008772892
0.0008787142
7.908435e-13
6.851403e-07
-5.276077e-07
-5.274887e-07
-5.286706e-07
-5.330804e-07
-0.000880147
0.0008815909
9.001966e-13
6.929112e-07
-5.343196e-07
-5.3409e-07
-5.35316e-07
-5.399796e-07
-0.0008830422
0.000884504
9.473912e-13
7.025638e-07
-5.412643e-07
-5.409273e-07
-5.422004e-07
-5.471223e-07
-0.0008859728
0.0008874514
8.606543e-13
7.143272e-07
-5.48468e-07
-5.480141e-07
-5.49352e-07
-5.546248e-07
-0.0008889368
0.0008904317
5.88728e-13
7.28252e-07
-5.561336e-07
-5.55467e-07
-5.569821e-07
-5.622501e-07
-0.0008919341
0.0008934441
2.227866e-12
7.431927e-07
-5.636794e-07
-5.628791e-07
-5.64327e-07
-5.683735e-07
-0.0008949571
0.0008964751
4.248301e-12
7.593244e-07
-5.696208e-07
-5.690685e-07
-5.702397e-07
-5.768236e-07
-0.0008979974
0.0008995311
-2.315303e-12
7.782334e-07
-5.780424e-07
-5.77859e-07
-5.791469e-07
-5.862637e-07
-0.0009010707
0.0009026163
1.756255e-13
8.024282e-07
-5.872391e-07
-5.867478e-07
-5.877244e-07
-5.935391e-07
-0.000904164
0.0009057153
8.468909e-13
8.26417e-07
-5.947627e-07
-5.940525e-07
-5.953478e-07
-6.016118e-07
-0.00090727
0.000908829
1.5434e-12
8.522141e-07
-6.034518e-07
-6.021382e-07
-6.039368e-07
-6.102924e-07
-0.0009103904
0.0009119553
1.3825e-12
8.807847e-07
-6.120772e-07
-6.107515e-07
-6.125361e-07
-6.189616e-07
-0.0009135223
0.0009150933
1.364863e-12
9.097235e-07
-6.208371e-07
-6.194983e-07
-6.214114e-07
-6.27383e-07
-0.0009166644
0.0009182404
1.130118e-12
9.38945e-07
-6.294881e-07
-6.279553e-07
-6.300784e-07
-6.359466e-07
-0.0009198166
0.0009213997
3.782212e-13
9.654048e-07
-6.378344e-07
-6.364195e-07
-6.383062e-07
-6.433737e-07
-0.0009229816
0.0009245749
-1.544978e-13
9.843587e-07
-6.449798e-07
-6.437831e-07
-6.454451e-07
-6.479771e-07
-0.0009261655
0.0009277753
-5.497218e-13
9.843241e-07
-6.486692e-07
-6.483265e-07
-6.491655e-07
-6.447229e-07
-0.0009293866
0.0009310315
-1.852663e-12
9.276807e-07
-6.411557e-07
-6.449463e-07
-6.417343e-07
-6.056478e-07
-0.0009326638
0.0009342575
2.035512e-13
7.734651e-07
-5.774349e-07
-6.057021e-07
-5.783985e-07
-4.401766e-07
-0.0009355939
0.0009368379
4.306313e-12
4.41439e-07
-4.021884e-07
-4.390691e-07
-4.040076e-07
-3.162299e-07
-0.0009384234
0.0009394295
1.469501e-12
3.241649e-07
-3.534346e-07
-3.107645e-07
-3.497734e-07
-6.140906e-07
-0.0009409822
0.0009425743
3.53977e-13
8.444619e-07
-6.066952e-07
-6.116944e-07
-6.040644e-07
-6.337188e-07
-0.0009440677
0.0009455248
-2.976494e-13
1.058141e-06
-6.269007e-07
-6.3068e-07
-6.239415e-07
-6.53922e-07
-0.0009469746
0.0009484085
-7.085192e-13
1.167792e-06
-6.4976e-07
-6.51056e-07
-6.469995e-07
-6.687838e-07
-0.0009498421
0.0009512575
-7.013896e-13
1.248733e-06
-6.658585e-07
-6.661634e-07
-6.63295e-07
-6.822097e-07
-0.0009526682
0.0009540685
-6.141191e-13
1.320327e-06
-6.807673e-07
-6.795085e-07
-6.78226e-07
-6.952549e-07
-0.0009554693
0.0009568624
-5.384863e-13
1.381654e-06
-6.944237e-07
-6.929026e-07
-6.921607e-07
-7.075413e-07
-0.0009582573
0.000959649
-5.044207e-13
1.434303e-06
-7.075085e-07
-7.054673e-07
-7.054723e-07
-7.202006e-07
-0.0009610425
0.00096243
-5.578279e-13
1.491221e-06
-7.210022e-07
-7.183278e-07
-7.191268e-07
-7.334765e-07
-0.0009638185
0.0009652028
-5.520151e-13
1.548455e-06
-7.345718e-07
-7.317469e-07
-7.329589e-07
-7.460589e-07
-0.0009665885
0.0009679713
-6.489266e-13
1.601499e-06
-7.474618e-07
-7.446352e-07
-7.461291e-07
-7.584387e-07
-0.0009693555
0.0009707373
-6.773248e-13
1.652607e-06
-7.599725e-07
-7.572519e-07
-7.587888e-07
-7.705828e-07
-0.0009721204
0.000973502
-7.290444e-13
1.701808e-06
-7.722306e-07
-7.69447e-07
-7.711481e-07
-7.824877e-07
-0.0009748849
0.000976267
-7.316777e-13
1.749377e-06
-7.84243e-07
-7.814557e-07
-7.832396e-07
-7.941779e-07
-0.0009776504
0.0009790335
-6.332599e-13
1.7953e-06
-7.959846e-07
-7.93255e-07
-7.950616e-07
-8.057299e-07
-0.0009804183
0.0009818032
-5.941235e-13
1.839975e-06
-8.075547e-07
-8.049036e-07
-8.067558e-07
-8.171385e-07
-0.0009831898
0.000984577
-6.533595e-13
1.883578e-06
-8.190061e-07
-8.164054e-07
-8.182718e-07
-8.284612e-07
-0.000985966
0.000987356
-5.561725e-13
1.926411e-06
-8.303845e-07
-8.278013e-07
-8.297245e-07
-8.398147e-07
-0.0009887477
0.0009901408
-4.190447e-13
1.968951e-06
-8.417663e-07
-8.392234e-07
-8.411891e-07
-8.511599e-07
-0.0009915357
0.000992932
-2.703711e-13
2.011296e-06
-8.531562e-07
-8.506331e-07
-8.526358e-07
-8.626405e-07
-0.0009943299
0.0009957291
-3.89718e-13
2.054417e-06
-8.64661e-07
-8.621388e-07
-8.641909e-07
-8.741012e-07
-0.0009971302
0.0009985323
7.386214e-15
2.097689e-06
-8.761896e-07
-8.736483e-07
-8.757685e-07
-8.858121e-07
-0.0009999355
0.00100134
6.33127e-13
2.142353e-06
-8.880744e-07
-8.85448e-07
-8.876889e-07
-8.978309e-07
-0.001002746
0.00100415
4.467828e-13
2.1908e-06
-9.004093e-07
-8.974635e-07
-9.000202e-07
-9.094362e-07
-0.001005558
0.001006965
-1.075349e-12
2.234598e-06
-9.119161e-07
-9.090333e-07
-9.114499e-07
-9.208256e-07
0.001009771
-2.411994e-12
2.286165e-06
-0.001008374
-9.212208e-07
-9.201624e-07
-9.207113e-07
-9.345992e-07
-0.001011174
0.001012577
-4.549822e-12
2.336656e-06
-9.354313e-07
-9.344251e-07
-9.349501e-07
-9.408454e-07
-0.001013965
0.001015345
3.774826e-11
2.392862e-06
-9.459199e-07
-9.403374e-07
-9.460435e-07
-9.603213e-07
-0.001016732
0.001018122
-6.782732e-12
2.453087e-06
-9.607621e-07
-9.603948e-07
-9.607538e-07
-9.734515e-07
-0.001019508
0.001020885
-9.551446e-12
2.517382e-06
-9.741505e-07
-9.732761e-07
-9.739705e-07
-9.866909e-07
-0.001022257
0.001023616
-9.239807e-12
2.589044e-06
-9.87829e-07
-9.864603e-07
-9.876035e-07
-1.000683e-06
-0.001024969
0.001026309
-7.455114e-12
2.665743e-06
-1.002198e-06
-1.00046e-06
-1.001997e-06
-1.015138e-06
-0.001027641
0.001028957
-5.802105e-12
2.746962e-06
-1.016824e-06
-1.014929e-06
-1.016614e-06
-1.029802e-06
-0.001030265
0.001031554
-4.512841e-12
2.83267e-06
-1.031551e-06
-1.029573e-06
-1.031322e-06
-1.044532e-06
-0.001032833
0.001034091
-3.824038e-12
2.922799e-06
-1.046246e-06
-1.044311e-06
-1.046039e-06
-1.05921e-06
-0.001035336
0.001036559
-2.467537e-12
3.017379e-06
-1.060881e-06
-1.059005e-06
-1.060688e-06
-1.073894e-06
-0.001037766
0.001038948
-8.08757e-13
3.116397e-06
-1.075443e-06
-1.073674e-06
-1.075229e-06
-1.088625e-06
-0.001040112
0.001041249
9.060651e-13
3.220376e-06
-1.090136e-06
-1.088405e-06
-1.08991e-06
-1.103382e-06
-0.001042368
0.001043457
2.561411e-12
3.327399e-06
-1.105291e-06
-1.103226e-06
-1.105095e-06
-1.119201e-06
-0.001044528
0.00104557
3.470702e-12
3.438776e-06
-1.121475e-06
-1.118965e-06
-1.121221e-06
-1.135095e-06
-0.001046592
0.001047586
3.208272e-12
3.549621e-06
-1.137203e-06
-1.134799e-06
-1.136868e-06
-1.15073e-06
-0.001048558
0.001049501
1.655541e-12
3.661615e-06
-1.152396e-06
-1.15026e-06
-1.151996e-06
-1.164119e-06
-0.001050411
0.001051289
-7.234966e-13
3.775718e-06
-1.162708e-06
-1.164007e-06
-1.162507e-06
-1.17467e-06
-0.00105213
0.00105296
-3.633765e-12
3.889597e-06
-1.184929e-06
-1.175005e-06
-1.184809e-06
-1.186696e-06
-0.001053755
0.001054531
-6.76789e-12
3.98274e-06
-1.192911e-06
-1.186504e-06
-1.192702e-06
-1.19365e-06
-0.001055262
0.001055988
-7.86361e-12
4.066112e-06
-1.202473e-06
-1.193504e-06
-1.202272e-06
-1.19852e-06
-0.001056667
0.001057362
-7.758178e-12
4.115247e-06
-1.206619e-06
-1.198295e-06
-1.206431e-06
-1.198238e-06
-0.00105801
0.001058718
-6.705109e-12
4.09737e-06
-1.204888e-06
-1.19774e-06
-1.204662e-06
-1.174923e-06
-0.001059407
0.0010602
-2.207957e-11
3.885664e-06
-1.164177e-06
-1.174039e-06
-1.165784e-06
-9.648382e-07
-0.001060848
0.001060864
-6.442864e-12
3.311373e-06
-6.955423e-07
-9.674714e-07
-6.997281e-07
-1.982443e-07
-0.0002648619
0.0002637882
-8.76539e-11
1.272042e-06
-9.590653e-07
-0.0002625089
0.0002621362
-7.030278e-11
1.331798e-06
-1.047189e-06
-0.0002612416
0.0002609901
-5.349473e-11
1.298689e-06
-1.094566e-06
-0.000260343
0.0002601569
-2.66437e-11
1.280621e-06
-1.120054e-06
-0.0002596732
0.0002595292
-1.420223e-11
1.26411e-06
-1.122941e-06
-0.000259153
0.0002590185
-1.454993e-09
1.258909e-06
-1.174187e-06
-0.0002587306
0.0002586446
-5.86153e-11
1.260261e-06
-1.187013e-06
-0.0002584024
0.0002583241
2.574555e-11
1.265285e-06
-1.196344e-06
-0.0002581028
0.0002580333
-7.183575e-11
1.265834e-06
-1.205481e-06
-0.0002578326
0.0002577675
-3.461527e-11
1.27056e-06
-1.213989e-06
-0.0002575786
0.0002575171
-3.571431e-11
1.275506e-06
-1.219981e-06
-0.0002573347
0.0002572753
-5.893053e-11
1.27938e-06
-1.225342e-06
-0.0002570974
0.000257039
-7.749669e-11
1.283792e-06
-1.22995e-06
-0.0002568652
0.000256808
-1.031544e-10
1.287326e-06
-1.233702e-06
-0.0002566371
0.0002565806
-1.128586e-10
1.290295e-06
-1.23738e-06
-0.0002564121
0.0002563563
-1.078894e-10
1.293336e-06
-1.239703e-06
-0.0002561893
0.0002561338
-1.14093e-10
1.295292e-06
-1.241337e-06
-0.0002559674
0.0002559122
-7.612746e-11
1.296613e-06
-1.242794e-06
-0.0002557465
0.0002556918
-2.890631e-11
1.297474e-06
-1.24371e-06
-0.000255527
0.0002554731
-4.278326e-11
1.297658e-06
-1.243959e-06
-0.000255309
0.0002552559
-6.099985e-11
1.297101e-06
-1.243808e-06
-0.0002550927
0.0002550405
-6.315311e-11
1.295987e-06
-1.243191e-06
-0.0002548792
0.0002548283
-6.386793e-11
1.294166e-06
-1.241789e-06
-0.0002546706
0.0002546208
-6.082966e-11
1.291619e-06
-1.239556e-06
-0.0002544678
0.000254419
-4.896154e-11
1.28834e-06
-1.236431e-06
-0.0002542726
0.000254225
-4.373652e-11
1.284131e-06
-1.231611e-06
-0.0002540868
0.0002540402
-5.322289e-11
1.278304e-06
-1.225718e-06
-0.0002539131
0.0002538679
-5.310496e-11
1.270916e-06
-1.21935e-06
-0.0002537539
0.0002537113
-3.142046e-11
1.262034e-06
-1.211949e-06
-0.0002536138
0.0002535772
-2.401096e-11
1.248633e-06
-1.205122e-06
-0.0002535014
0.0002534742
-2.482096e-11
1.232347e-06
-1.188437e-06
-0.0002534262
0.0002534196
-1.337719e-11
1.195051e-06
-1.173247e-06
-0.0002534322
0.0002534423
-2.095252e-11
1.163172e-06
-1.130467e-06
-0.000253535
0.0002535918
-1.244128e-11
1.073708e-06
-1.035594e-06
-0.0002538511
0.0002540372
-1.875743e-11
8.494821e-07
2.486516e-07
-0.0002546614
0.0002544956
8.408886e-12
-8.287938e-08
8.812545e-07
-0.0002541798
0.0002541684
-2.217543e-11
-8.69881e-07
1.003522e-06
-0.0002541631
0.0002541637
-3.67477e-12
-1.004051e-06
1.064547e-06
-0.0002542636
0.0002543126
-1.705932e-12
-1.113523e-06
1.100838e-06
-0.0002544684
0.0002545323
-1.618877e-12
-1.164711e-06
1.133656e-06
-0.0002547178
0.0002547837
7.191565e-13
-1.199578e-06
1.155409e-06
-0.0002549905
0.0002550628
4.962535e-12
-1.227673e-06
1.173843e-06
-0.0002552855
0.0002553615
1.017293e-11
-1.249833e-06
1.19029e-06
-0.0002555935
0.0002556722
1.342001e-11
-1.269e-06
1.204933e-06
-0.0002559112
0.0002559921
3.971173e-12
-1.28588e-06
1.21814e-06
-0.0002562371
0.0002563197
-4.23682e-12
-1.300787e-06
1.229864e-06
-0.0002565696
0.0002566537
-1.065503e-12
-1.314039e-06
1.240694e-06
-0.0002569077
0.0002569932
6.114021e-13
-1.326187e-06
1.250736e-06
-0.0002572506
0.0002573372
2.260866e-12
-1.337339e-06
1.260033e-06
-0.0002575976
0.0002576852
1.1793e-12
-1.347642e-06
1.268738e-06
-0.0002579485
0.0002580371
-5.354275e-13
-1.35729e-06
1.27689e-06
-0.0002583031
0.0002583926
1.21697e-12
-1.366351e-06
1.284553e-06
-0.0002586613
0.0002587517
1.561699e-12
-1.374926e-06
1.291845e-06
-0.0002590229
0.0002591141
1.739377e-13
-1.383103e-06
1.298841e-06
-0.0002593879
0.00025948
1.669239e-12
-1.39096e-06
1.305601e-06
-0.0002597562
0.0002598491
2.468516e-12
-1.398584e-06
1.312185e-06
-0.0002601277
0.0002602215
9.637979e-13
-1.406016e-06
1.318598e-06
-0.0002605025
0.0002605972
2.941926e-12
-1.413283e-06
1.324916e-06
-0.0002608804
0.0002609759
8.618342e-12
-1.420452e-06
1.331223e-06
-0.0002612614
0.0002613577
1.054375e-11
-1.427547e-06
1.337379e-06
-0.0002616453
0.0002617424
5.463087e-12
-1.434516e-06
1.343442e-06
-0.0002620321
0.00026213
2.805771e-13
-1.441323e-06
1.349434e-06
-0.0002624217
0.0002625202
1.600438e-12
-1.447973e-06
1.355275e-06
-0.0002628137
0.0002629129
3.174679e-12
-1.454495e-06
1.361112e-06
-0.0002632079
0.0002633078
5.727917e-12
-1.461009e-06
1.36719e-06
-0.0002636041
0.0002637047
6.669276e-12
-1.467824e-06
1.376149e-06
-0.0002639991
0.0002640979
2.927099e-12
-1.474952e-06
1.373259e-06
-0.0002643908
0.000264495
5.216846e-11
-1.477517e-06
1.37023e-06
-0.0002647865
0.0002648993
4.743492e-11
-1.483099e-06
1.359372e-06
-0.000265273
0.0002653619
1.206168e-10
-1.448316e-06
1.916683e-06
-0.000263292
0.001082887
1.090017e-13
-6.33867e-06
2.432478e-07
1.92026e-06
2.278903e-07
-0.0002632979
-0.0002771323
-0.0002771341
8.877975e-07
-0.001087322
0.001088426
5.215421e-12
-5.519065e-06
1.341851e-06
8.646759e-07
1.320035e-06
1.11718e-06
-0.001088986
0.001089854
4.886812e-12
-5.459482e-06
1.196162e-06
1.099019e-06
1.178983e-06
1.172982e-06
-0.001091248
0.001092626
2.683143e-12
-6.156079e-06
1.231932e-06
1.156958e-06
1.216213e-06
1.252334e-06
-0.001093957
0.001095026
5.193419e-12
-6.162833e-06
1.309514e-06
1.237559e-06
1.294699e-06
1.299079e-06
-0.001096002
0.001096893
8.470449e-12
-6.125391e-06
1.332061e-06
1.285132e-06
1.318366e-06
1.306195e-06
-0.001097832
0.001098775
8.250076e-12
-6.178135e-06
1.325259e-06
1.292434e-06
1.311415e-06
1.319134e-06
-0.001099769
0.001100744
7.661014e-12
-6.257169e-06
1.335123e-06
1.305641e-06
1.32253e-06
1.336081e-06
-0.001101745
0.001102728
1.069937e-11
-6.335373e-06
1.352594e-06
1.323858e-06
1.339882e-06
1.362594e-06
-0.001103716
0.001104676
1.309424e-11
-6.405285e-06
1.371762e-06
1.350787e-06
1.36023e-06
1.378662e-06
-0.00110566
0.001106631
9.432438e-12
-6.475258e-06
1.384795e-06
1.367225e-06
1.373569e-06
1.3959e-06
-0.001107604
0.001108565
1.218448e-11
-6.536577e-06
1.401904e-06
1.385829e-06
1.392151e-06
1.411612e-06
-0.001109528
0.00111048
9.142342e-12
-6.590151e-06
1.416861e-06
1.402328e-06
1.407721e-06
1.426482e-06
-0.001111431
0.001112373
8.143195e-12
-6.639116e-06
1.430825e-06
1.417898e-06
1.422427e-06
1.440018e-06
-0.001113313
0.001114244
7.114137e-12
-6.683479e-06
1.443557e-06
1.432287e-06
1.435974e-06
1.45221e-06
-0.001115174
0.001116096
6.046416e-12
-6.722759e-06
1.455145e-06
1.445226e-06
1.448304e-06
1.463141e-06
-0.001117015
0.001117927
4.427221e-12
-6.757298e-06
1.465551e-06
1.456819e-06
1.459356e-06
1.472852e-06
-0.001118836
0.001119739
2.661772e-12
-6.787374e-06
1.474871e-06
1.467127e-06
1.46924e-06
1.481472e-06
-0.001120639
0.001121533
1.191485e-12
-6.813212e-06
1.483052e-06
1.476302e-06
1.477974e-06
1.489102e-06
-0.001122424
0.001123309
-1.070964e-13
-6.835129e-06
1.490276e-06
1.484401e-06
1.485661e-06
1.495687e-06
-0.001124191
0.001125068
-1.47173e-12
-6.853342e-06
1.496751e-06
1.491404e-06
1.492529e-06
1.501431e-06
-0.00112594
0.001126808
-2.613346e-12
-6.86807e-06
1.502385e-06
1.49755e-06
1.498574e-06
1.506563e-06
-0.001127672
0.001128531
-3.296308e-12
-6.879831e-06
1.507288e-06
1.503069e-06
1.50387e-06
1.511094e-06
-0.001129385
0.001130234
-3.5174e-12
-6.888847e-06
1.511622e-06
1.507907e-06
1.508522e-06
1.515008e-06
-0.001131079
0.00113192
-3.304232e-12
-6.895258e-06
1.515349e-06
1.512018e-06
1.512356e-06
1.518272e-06
-0.001132755
0.001133586
-3.091171e-12
-6.898763e-06
1.518447e-06
1.515446e-06
1.515609e-06
1.521054e-06
-0.001134411
0.001135233
-3.219453e-12
-6.900131e-06
1.520975e-06
1.518449e-06
1.51843e-06
1.523285e-06
-0.001136048
0.001136859
-3.621722e-12
-6.899131e-06
1.523128e-06
1.520923e-06
1.520812e-06
1.52503e-06
-0.001137664
0.001138464
-4.16475e-12
-6.89568e-06
1.524868e-06
1.522864e-06
1.522735e-06
1.526421e-06
-0.001139259
0.001140048
-4.817539e-12
-6.889734e-06
1.526046e-06
1.524408e-06
1.524049e-06
1.527418e-06
-0.00114083
0.001141607
-5.563846e-12
-6.881483e-06
1.526924e-06
1.525547e-06
1.525074e-06
1.528197e-06
-0.001142377
0.00114314
-6.293841e-12
-6.871839e-06
1.527748e-06
1.526477e-06
1.526064e-06
1.529122e-06
-0.001143897
0.001144646
-7.119261e-12
-6.861491e-06
1.528619e-06
1.52753e-06
1.527044e-06
1.530358e-06
-0.001145388
0.001146122
-8.116687e-12
-6.851401e-06
1.529905e-06
1.528876e-06
1.528431e-06
1.531893e-06
-0.001146848
0.001147565
-9.191441e-12
-6.84151e-06
1.531653e-06
1.530528e-06
1.530311e-06
1.5339e-06
-0.001148275
0.001148974
-1.026337e-11
-6.831919e-06
1.533683e-06
1.532639e-06
1.532442e-06
1.535932e-06
-0.001149666
0.001150346
-1.133766e-11
-6.820947e-06
1.535824e-06
1.53475e-06
1.534649e-06
1.537789e-06
-0.001151018
0.001151677
-1.24758e-11
-6.808186e-06
1.537783e-06
1.536698e-06
1.536716e-06
1.539039e-06
-0.001152329
0.001152966
-1.329566e-11
-6.790802e-06
1.539113e-06
1.538067e-06
1.538181e-06
1.539284e-06
-0.001153595
0.001154207
-1.342997e-11
-6.767303e-06
1.539455e-06
1.538399e-06
1.53861e-06
1.53765e-06
-0.001154812
0.001155394
-1.401383e-11
-6.73257e-06
1.538089e-06
1.536768e-06
1.537181e-06
1.533108e-06
-0.00115597
0.001156518
-1.557044e-11
-6.679912e-06
1.533656e-06
1.532214e-06
1.532736e-06
1.523341e-06
-0.001157052
0.00115755
-1.700736e-11
-6.591226e-06
1.523943e-06
1.522505e-06
1.523143e-06
1.501021e-06
-0.00115802
0.001158449
-1.761742e-11
-6.427386e-06
1.498835e-06
1.500287e-06
1.498127e-06
1.433545e-06
-0.001158852
0.001159283
-1.796285e-11
-6.130702e-06
1.417082e-06
1.43287e-06
1.41642e-06
1.285646e-06
-0.001159805
0.001160443
-1.860414e-11
-5.679865e-06
1.235723e-06
1.284999e-06
1.235042e-06
1.104072e-06
-0.001161139
0.001161817
-1.885982e-11
-5.045296e-06
1.079917e-06
1.103522e-06
1.079381e-06
1.064157e-06
-0.001162453
0.001163037
-1.869964e-11
-4.847798e-06
1.068303e-06
1.063682e-06
1.067833e-06
1.059646e-06
-0.001163602
0.001164155
-1.912986e-11
-4.788562e-06
1.058635e-06
1.059176e-06
1.058157e-06
1.039551e-06
-0.0011647
0.001165217
-2.080795e-11
-4.670235e-06
1.037861e-06
1.039128e-06
1.037441e-06
1.027857e-06
-0.001165696
0.001166139
-2.484581e-11
-4.561759e-06
1.031748e-06
1.027479e-06
1.031329e-06
1.005956e-06
-0.001166558
0.001166966
-3.254083e-11
-4.429662e-06
1.005568e-06
1.005563e-06
1.005138e-06
9.598764e-07
-0.001167369
0.001167808
-3.784472e-11
-4.23192e-06
9.371579e-07
9.594133e-07
9.365681e-07
7.266187e-07
-0.001168653
0.001170231
-4.162899e-11
-4.605175e-06
7.884771e-07
7.249619e-07
7.87369e-07
1.083231e-06
-0.001171781
0.00117075
-3.550488e-11
-3.070126e-06
9.653388e-07
1.085513e-06
9.671241e-07
9.682374e-07
-0.001170216
0.001170441
-2.745689e-11
-3.908641e-06
8.675248e-07
9.74192e-07
8.732056e-07
9.257158e-07
-0.001170567
0.00117076
-1.831342e-11
-3.790937e-06
8.667652e-07
9.319102e-07
8.731555e-07
8.778103e-07
-0.001170847
0.001171086
-1.575588e-11
-3.674182e-06
8.329751e-07
8.847328e-07
8.397248e-07
8.486865e-07
-0.001171334
0.001171658
-1.841755e-11
-3.674029e-06
8.200371e-07
8.550121e-07
8.260826e-07
8.437447e-07
-0.001171947
0.00117225
-2.012565e-11
-3.653994e-06
8.264326e-07
8.493886e-07
8.318482e-07
8.434503e-07
-0.001172518
0.001172795
-2.236753e-11
-3.632987e-06
8.293339e-07
8.486733e-07
8.344303e-07
8.384264e-07
-0.00117305
0.00117331
-2.336299e-11
-3.601846e-06
8.281891e-07
8.430079e-07
8.326678e-07
8.317331e-07
-0.001173546
0.001173778
-2.201508e-11
-3.550817e-06
8.236804e-07
8.35779e-07
8.276575e-07
8.232722e-07
-0.001173989
0.00117419
-2.043175e-11
-3.488374e-06
8.166693e-07
8.268794e-07
8.202349e-07
8.156844e-07
-0.001174372
0.001174546
-2.058237e-11
-3.432764e-06
8.103817e-07
8.189131e-07
8.135889e-07
8.10502e-07
-0.001174704
0.001174851
-2.199093e-11
-3.385723e-06
8.060616e-07
8.134079e-07
8.089803e-07
8.070959e-07
-0.001174982
0.001175099