/*--------------------------------*- C++ -*----------------------------------*\
| =========                 |                                                 |
| \\      /  F ield         | foam-extend: Open Source CFD                    |
|  \\    /   O peration     | Version:     3.1                                |
|   \\  /    A nd           | Web:         http://www.extend-project.de       |
|    \\/     M anipulation  |                                                 |
\*---------------------------------------------------------------------------*/
FoamFile
{
    version     2.0;
    format      ascii;
    class       volScalarField;
    location    "1.5";
    object      k;
}
// * * * * * * * * * * * * * * * * * * * * * * * * * * * * * * * * * * * * * //

dimensions      [0 2 -2 0 0 0 0];

internalField   nonuniform List<scalar> 
119952
(
0.009864162
0.007890003
0.008475866
0.009624178
0.01022237
0.01017983
0.01022445
0.01026923
0.01029568
0.01030145
0.01028758
0.01025746
0.01021526
0.010164
0.01010586
0.01004287
0.009977372
0.009913199
0.009860682
0.009882253
0.01116794
0.01081286
0.01081348
0.01211767
0.01177689
0.01159205
0.0114167
0.0112217
0.01063894
0.01249876
0.01055327
0.008535634
0.009063126
0.01011897
0.0111142
0.01194202
0.01263878
0.01324769
0.01379874
0.01445015
0.0170925
0.02017305
0.02276873
0.0248411
0.02648846
0.02783855
0.02899161
0.03001519
0.03093745
0.03688242
0.03775054
0.03876019
0.03986131
0.04096966
0.0420266
0.04300737
0.04390873
0.04473668
0.04547303
0.04609155
0.04672731
0.0474386
0.0482143
0.04901418
0.04980269
0.05056169
0.05129237
0.0520129
0.0522887
0.05235152
0.05257099
0.05288535
0.05318752
0.05341863
0.05361037
0.05377677
0.05391993
0.0540408
0.05413963
0.0542157
0.05427213
0.05431265
0.05434094
0.05436137
0.05437989
0.0544059
0.05445364
0.05453926
0.05467903
0.05482898
0.05503855
0.0553476
0.05556985
0.0556172
0.05551974
0.0552245
0.05452855
0.05363912
0.05322779
0.05288607
0.05257069
0.05229085
0.05205101
0.05184797
0.0516748
0.05152388
0.0513884
0.05126306
0.05114411
0.05102914
0.05091675
0.05080629
0.05069757
0.05059063
0.05048558
0.05038251
0.0502814
0.05018212
0.05008445
0.04998801
0.0498924
0.04979711
0.04970165
0.04960553
0.04950832
0.04940972
0.04930951
0.04920769
0.04910441
0.04900001
0.04889494
0.0487897
0.04868475
0.04858047
0.04847707
0.04837483
0.04827396
0.04817432
0.04807567
0.04797775
0.04788036
0.0477834
0.04768683
0.04759082
0.04749596
0.04740427
0.04732445
0.04726878
0.04710862
0.04684039
0.04651733
0.04618079
0.04585375
0.04554657
0.04526262
0.04500167
0.04476187
0.04454076
0.04433584
0.04414476
0.04396535
0.04379578
0.04363446
0.04348004
0.04333138
0.04318754
0.04304769
0.04291115
0.04277736
0.04264582
0.04251613
0.04238796
0.04226108
0.04213526
0.04200981
0.04188448
0.04175953
0.04163493
0.0415105
0.04138606
0.04126149
0.04113668
0.04101156
0.0408861
0.04076029
0.0406342
0.04050795
0.04038172
0.04025571
0.04013017
0.04000532
0.0398814
0.03975856
0.03963699
0.03951703
0.03940051
0.03929562
0.03671816
0.03385102
0.03271279
0.03191811
0.03126938
0.03072666
0.03026879
0.02987794
0.02953913
0.02924044
0.02897286
0.02872944
0.02850497
0.02829548
0.02809791
0.02790987
0.02772945
0.02755501
0.02738571
0.0272211
0.02705949
0.02689905
0.02674044
0.02658364
0.02642837
0.02627429
0.02612131
0.02596937
0.0258186
0.02566919
0.02552168
0.02537752
0.02523706
0.02510714
0.02500117
0.02502851
0.02535311
0.02568802
0.0259892
0.02625552
0.02649184
0.02670509
0.02690109
0.02708431
0.02725803
0.02742452
0.02758548
0.02774201
0.027895
0.02804506
0.02819266
0.02833809
0.02848162
0.02862342
0.02876365
0.02890242
0.02903984
0.029176
0.02931098
0.02944484
0.02957769
0.02970952
0.02984045
0.02997042
0.03009951
0.03022773
0.03035509
0.03048156
0.03060745
0.03073274
0.035739
0.03583217
0.03598712
0.03627211
0.03668118
0.03717099
0.0376924
0.03820725
0.03869158
0.03913438
0.03953313
0.03988966
0.04020815
0.04049356
0.04075078
0.0409842
0.04119771
0.04139468
0.04157798
0.04175003
0.04191286
0.04206812
0.04221718
0.04236114
0.04250094
0.04263729
0.04277078
0.04290189
0.04303097
0.04315833
0.04328416
0.0434086
0.04353174
0.04365361
0.0437742
0.04389346
0.04401132
0.04412767
0.04424236
0.04435521
0.04446595
0.04457417
0.04467916
0.0447796
0.04487275
0.04495295
0.04501721
0.04507537
0.04513075
0.04518478
0.04523797
0.04529043
0.04534237
0.04539449
0.04537071
0.04530903
0.04529249
0.04535772
0.04551133
0.04573653
0.04600591
0.04629251
0.04657624
0.04684496
0.04709285
0.04731832
0.04752219
0.04770645
0.0478735
0.04802573
0.04816535
0.04829429
0.04841424
0.04852661
0.04863261
0.04873324
0.04882935
0.04892167
0.04901083
0.04909735
0.04918168
0.04926424
0.04934534
0.04942528
0.04950428
0.04958251
0.04966012
0.04973719
0.04981378
0.04988989
0.04996552
0.05004061
0.05011509
0.05018888
0.05026184
0.05033384
0.05040474
0.05047439
0.05054265
0.05060939
0.05067452
0.05073797
0.05079971
0.05085978
0.0509182
0.05097506
0.05103045
0.0510845
0.05113733
0.05118908
0.05123989
0.0512899
0.05133923
0.05138802
0.05143638
0.05148443
0.05153228
0.05158005
0.05162783
0.05167575
0.05172393
0.0517725
0.05182163
0.05187148
0.05192229
0.05197432
0.05202794
0.05208361
0.05214198
0.05220395
0.05227088
0.05234489
0.05242941
0.05253051
0.05265966
0.05284103
0.05313023
0.05365611
0.05404998
0.009071604
0.008721362
0.00960725
0.01064987
0.01155769
0.01231673
0.01296894
0.01354822
0.01409784
0.01543245
0.01852669
0.02131808
0.02362781
0.02548101
0.02698517
0.02824762
0.02934817
0.03033955
0.03630002
0.03710911
0.03806031
0.03914706
0.04029436
0.04142568
0.04249571
0.04348765
0.04440139
0.04524179
0.04595214
0.04661109
0.04733177
0.04813726
0.04899524
0.04985958
0.05069606
0.05148718
0.05222594
0.05272256
0.0531134
0.05360489
0.05418573
0.05483479
0.05552092
0.05621511
0.05689688
0.05755438
0.05817768
0.05874441
0.05927126
0.05979696
0.0603478
0.06092722
0.06152375
0.06212212
0.0627085
0.06325727
0.06877728
0.06929782
0.06976341
0.07020941
0.07065504
0.07110719
0.07156532
0.0720254
0.07248186
0.07292652
0.07335191
0.07375906
0.07415573
0.07455071
0.07494939
0.07535265
0.0757572
0.07615635
0.07653478
0.07685372
0.07710998
0.07732689
0.07750697
0.07764833
0.07775702
0.07784417
0.0779183
0.07798456
0.07804544
0.07810302
0.07815884
0.07821293
0.0782653
0.07831637
0.07836717
0.07841959
0.07847657
0.07854196
0.07861937
0.07870808
0.07880656
0.07891718
0.07902644
0.07910205
0.07912092
0.07905767
0.07891268
0.07871153
0.0785426
0.07841156
0.07829302
0.07817672
0.07806018
0.0779431
0.0778248
0.07770591
0.07758721
0.07746931
0.07735259
0.07723737
0.07712395
0.07701264
0.07690379
0.07679774
0.07669476
0.07659507
0.07649871
0.07640562
0.07631557
0.0762282
0.07614304
0.07605954
0.0759771
0.0758951
0.07581299
0.0757303
0.07564667
0.07556195
0.07547616
0.0753895
0.0753024
0.07521523
0.07512831
0.07504208
0.07495693
0.07487322
0.07479116
0.07471087
0.07463232
0.0745554
0.07447996
0.07440587
0.07433304
0.07426147
0.07419134
0.07412315
0.07405799
0.07399797
0.07394847
0.07390568
0.07385735
0.07379544
0.07371737
0.07362426
0.07351891
0.07340463
0.07328449
0.07316107
0.07303639
0.07291193
0.07278871
0.07266738
0.07254834
0.07243175
0.07231766
0.07220602
0.0720967
0.07198953
0.07188431
0.07178082
0.07167893
0.0715784
0.07147905
0.0713807
0.07128315
0.07118616
0.07108965
0.07099353
0.07089774
0.07080218
0.07070685
0.07061167
0.07051661
0.0704217
0.07032699
0.0702326
0.0701387
0.0700455
0.06995326
0.06986228
0.06977285
0.06968528
0.06959983
0.06951677
0.06943637
0.06935889
0.06928412
0.06920919
0.06596527
0.0645796
0.06416629
0.06395337
0.0637711
0.06358599
0.06339564
0.0632039
0.0630149
0.06283161
0.06265585
0.06248845
0.0623296
0.06217899
0.06203606
0.06190013
0.06177042
0.06164622
0.06152683
0.0614116
0.06129983
0.06119094
0.06108446
0.06098027
0.06087807
0.06077777
0.06067933
0.06058281
0.06048845
0.06039672
0.06030841
0.06022499
0.06014919
0.06008665
0.06004927
0.06005565
0.06009958
0.06016607
0.0602463
0.060335
0.06042858
0.06052453
0.06062116
0.06071742
0.06081274
0.06090689
0.06099981
0.06109155
0.06118218
0.06127178
0.06136041
0.0614481
0.06153487
0.06162072
0.06170564
0.06178962
0.06187267
0.06195477
0.06203595
0.06211622
0.0621956
0.06227413
0.06235182
0.06242871
0.06250479
0.06258006
0.06265444
0.06272783
0.06279954
0.06285967
0.06775738
0.06792358
0.06803009
0.06810375
0.06816563
0.06823066
0.06830771
0.06840045
0.06850871
0.06863007
0.06876116
0.06889849
0.06903896
0.06918012
0.06932013
0.06945774
0.06959219
0.06972308
0.06985033
0.06997406
0.07009449
0.07021196
0.07032679
0.07043935
0.07054997
0.07065895
0.07076656
0.070873
0.07097846
0.07108304
0.07118681
0.07128979
0.07139195
0.07149323
0.07159351
0.07169266
0.07179049
0.07188681
0.07198138
0.0720739
0.07216403
0.07225131
0.07233516
0.07241474
0.07248897
0.07255671
0.0726183
0.07267496
0.07272752
0.07277657
0.07282251
0.07286559
0.07290562
0.07294083
0.07296691
0.0729829
0.07299103
0.07299642
0.07300565
0.07302473
0.07305766
0.07310586
0.07316864
0.07324385
0.07332871
0.07342036
0.07351623
0.0736142
0.07371266
0.07381042
0.07390671
0.07400103
0.07409312
0.07418291
0.07427042
0.07435575
0.07443906
0.07452055
0.07460043
0.0746789
0.0747562
0.07483251
0.07490802
0.07498291
0.07505729
0.07513128
0.07520494
0.07527829
0.07535133
0.07542402
0.07549626
0.07556796
0.07563897
0.07570912
0.07577824
0.07584612
0.07591257
0.0759774
0.07604042
0.07610149
0.0761605
0.07621737
0.07627207
0.07632462
0.07637506
0.07642349
0.07647004
0.07651484
0.07655805
0.07659986
0.07664043
0.07667994
0.07671856
0.07675646
0.07679379
0.07683072
0.07686739
0.07690394
0.07694052
0.07697728
0.07701438
0.07705198
0.07709029
0.07712952
0.07716995
0.07721192
0.07725583
0.07730225
0.07735189
0.07740578
0.07746532
0.07753259
0.07761065
0.07770416
0.07782011
0.07796851
0.07816018
0.07838998
0.07857807
0.01243167
0.01062228
0.01223385
0.01367153
0.01463577
0.01529919
0.01578897
0.01616929
0.01647924
0.01693184
0.01994985
0.02322001
0.02572622
0.02754608
0.0288815
0.02991577
0.03077404
0.03153254
0.03222073
0.0380827
0.03876322
0.03962402
0.04060536
0.04161386
0.04258548
0.0434933
0.04433322
0.04511073
0.04580652
0.04639496
0.04701156
0.04771569
0.04849608
0.04931058
0.05012041
0.05090189
0.05164417
0.05233982
0.0526685
0.05310751
0.05363755
0.05424433
0.05490263
0.05558456
0.05626718
0.05693494
0.05757793
0.05817906
0.05872702
0.05925301
0.05979181
0.0603608
0.06095791
0.06157057
0.06218387
0.0627761
0.0683992
0.06896876
0.06947731
0.06996048
0.07044224
0.07093422
0.07143851
0.0719516
0.07246754
0.07297876
0.07347513
0.07395291
0.07441755
0.07487908
0.07534577
0.07582101
0.07630342
0.07678839
0.07726868
0.07773297
0.07817281
0.07858789
0.07898293
0.07936363
0.0797452
0.08013329
0.08052773
0.0809256
0.08132199
0.08171108
0.08208967
0.08245902
0.08282359
0.08318811
0.08355562
0.08392715
0.08430359
0.0846954
0.08495982
0.08526108
0.08557504
0.08589344
0.08621493
0.08654
0.08686888
0.08720083
0.08753403
0.08786546
0.08819175
0.08851095
0.08882329
0.08913055
0.08943474
0.08973687
0.09003611
0.09032921
0.09060923
0.09086414
0.09108981
0.09128916
0.09146127
0.09160484
0.09172227
0.09181919
0.09190145
0.09197385
0.09203989
0.09210181
0.09216101
0.09221842
0.09227477
0.09233073
0.09238719
0.09244532
0.09250664
0.09257283
0.0926451
0.09272291
0.09280463
0.09288776
0.09296417
0.09302046
0.09304262
0.09301767
0.09292672
0.09280273
0.09269069
0.09260011
0.0925271
0.09246
0.09239007
0.09231386
0.09223166
0.092144
0.09205163
0.09195542
0.09185628
0.09175516
0.09165298
0.09155064
0.09144895
0.09134864
0.09125033
0.09115446
0.09106131
0.09097097
0.09088339
0.09079833
0.09071543
0.09063424
0.09055423
0.09047486
0.09039562
0.09031606
0.09023584
0.09015474
0.09007269
0.08998978
0.08990617
0.08982228
0.0897387
0.08965591
0.08957431
0.08949424
0.08941593
0.08933953
0.08926504
0.08919241
0.08912151
0.08905226
0.08898456
0.08891842
0.08885396
0.08879146
0.08873139
0.08867446
0.08862232
0.08857549
0.08853136
0.08848641
0.08843779
0.08838383
0.08832383
0.08825779
0.08818621
0.08810986
0.08802963
0.08794639
0.08786089
0.08777379
0.08768562
0.08759681
0.08750767
0.08741851
0.08732944
0.08724055
0.08715191
0.08706355
0.08697551
0.08688772
0.08680016
0.08671278
0.0866255
0.08653823
0.08645099
0.08636367
0.08627626
0.08618878
0.08610123
0.08601361
0.08592598
0.08583841
0.08575102
0.08566398
0.08557752
0.08549188
0.08540737
0.0853243
0.085243
0.08516378
0.08508693
0.0850127
0.08494131
0.08487254
0.0848046
0.08472757
0.08459208
0.08458364
0.08458512
0.0845747
0.08454981
0.08451122
0.08446038
0.08439917
0.0843294
0.08425293
0.08417144
0.0840864
0.08399902
0.08391022
0.08382077
0.08373117
0.08364179
0.08355286
0.08346452
0.08337682
0.08328973
0.08320333
0.08311762
0.0830326
0.08294836
0.082865
0.08278271
0.08270175
0.08262254
0.0825457
0.0824722
0.08240367
0.08234257
0.08229306
0.08226146
0.08224545
0.0822431
0.08225167
0.08226887
0.08229306
0.08232314
0.08235832
0.08239797
0.08244159
0.08248875
0.08253914
0.08259236
0.08264808
0.08270601
0.08276583
0.08282724
0.08288995
0.08295367
0.08301814
0.08308312
0.08314839
0.08321377
0.0832791
0.08334425
0.08340911
0.08347361
0.08353768
0.08360127
0.08366434
0.08372682
0.08378863
0.08384974
0.0839105
0.08397304
0.08405186
0.08401915
0.08402353
0.08404356
0.08406894
0.08409595
0.0841246
0.08415652
0.08419355
0.08423706
0.08428768
0.08434539
0.08440967
0.08447972
0.08455461
0.08463341
0.08471526
0.08479946
0.0848854
0.08497265
0.08506089
0.08514989
0.08523951
0.08532968
0.08542034
0.08551148
0.0856031
0.08569518
0.0857877
0.08588061
0.08597386
0.08606736
0.08616097
0.08625457
0.08634796
0.08644094
0.08653328
0.08662472
0.08671499
0.08680377
0.08689073
0.08697549
0.08705761
0.08713658
0.08721182
0.08728268
0.08734866
0.08740979
0.08746646
0.0875191
0.08756803
0.0876135
0.0876557
0.08769456
0.08772949
0.08775953
0.08778433
0.08780399
0.08781941
0.08783239
0.08784537
0.08786083
0.08788085
0.08790684
0.08793949
0.08797883
0.08802445
0.08807562
0.08813151
0.08819124
0.08825399
0.08831905
0.08838581
0.08845378
0.08852258
0.08859192
0.08866158
0.08873143
0.08880137
0.08887135
0.08894138
0.08901147
0.08908165
0.08915195
0.08922242
0.08929307
0.08936391
0.08943492
0.08950607
0.08957727
0.08964842
0.08971939
0.08979
0.08986008
0.08992942
0.08999778
0.09006493
0.09013065
0.09019471
0.09025691
0.09031708
0.0903751
0.09043086
0.09048432
0.0905355
0.09058443
0.0906312
0.09067594
0.09071879
0.09075992
0.09079951
0.09083775
0.09087482
0.09091092
0.09094623
0.09098091
0.09101515
0.0910491
0.09108292
0.09111678
0.09115084
0.09118528
0.09122027
0.09125604
0.09129281
0.09133089
0.09137061
0.09141241
0.09145684
0.09150462
0.09155671
0.09161439
0.09167941
0.09175418
0.09184197
0.09194694
0.09207361
0.09222372
0.09238621
0.09251736
0.01836293
0.02300654
0.02848661
0.04373612
0.04947427
0.06126848
0.06414579
0.06637264
0.06790757
0.0690367
0.06972899
0.07007281
0.06984549
0.06948491
0.0692504
0.06905302
0.06883072
0.06855226
0.06821418
0.0678293
0.06741646
0.06698938
0.06654362
0.06611806
0.06577101
0.06553273
0.06540223
0.06536265
0.06539477
0.06548146
0.06559099
0.07070758
0.07093288
0.07114252
0.071373
0.07164091
0.07194895
0.07229206
0.07266204
0.07304974
0.07344403
0.0738352
0.0742227
0.07461339
0.07501547
0.07543385
0.07586882
0.07631703
0.07677255
0.07722637
0.07766666
0.07808811
0.07849271
0.07888495
0.07926717
0.07965167
0.08004308
0.08044084
0.0808417
0.08124034
0.08163188
0.08201501
0.08239265
0.08276986
0.08315127
0.08353983
0.08393804
0.0843578
0.08465841
0.08499996
0.08535671
0.08571884
0.08608474
0.08645577
0.08683323
0.08721723
0.08760659
0.08799862
0.08838954
0.0887764
0.08915851
0.0895375
0.08991622
0.09029717
0.09068175
0.09106985
0.09145995
0.09184947
0.09223526
0.09261511
0.09298931
0.09336032
0.0937302
0.09410033
0.0944713
0.09484273
0.09521316
0.0955805
0.09594286
0.09629944
0.09665077
0.09699828
0.09734352
0.09768769
0.09803125
0.0983727
0.09869517
0.09900961
0.09931885
0.09962391
0.09992578
0.1002256
0.1005242
0.1008222
0.1011193
0.1014148
0.1017075
0.101996
0.1022798
0.1025586
0.1028327
0.103102
0.1033659
0.1036224
0.103868
0.104098
0.1043101
0.1045042
0.1046789
0.104833
0.1049671
0.1050839
0.1051868
0.1052793
0.1053646
0.105444
0.1055181
0.1055881
0.1056552
0.1057204
0.1057849
0.1058497
0.1059161
0.105985
0.1060569
0.1061313
0.1062065
0.1062795
0.1063444
0.1063932
0.1064171
0.1064086
0.1063616
0.1062796
0.1061898
0.1061087
0.106036
0.1059684
0.105902
0.1058337
0.1057614
0.1056842
0.1056017
0.1055141
0.1054221
0.1053265
0.1052282
0.1051282
0.1050275
0.104927
0.1048275
0.1047297
0.1046339
0.1045406
0.1044496
0.1043609
0.1042743
0.1041894
0.1041056
0.1040226
0.1039397
0.1038567
0.1037732
0.103689
0.1036041
0.1035186
0.1034327
0.1033467
0.1032612
0.1031765
0.1030931
0.1030112
0.1029311
0.1028529
0.1027768
0.1027026
0.1026302
0.1025596
0.1024907
0.1024234
0.1023577
0.1022937
0.1022316
0.1021718
0.102115
0.1020616
0.1020113
0.1019629
0.101915
0.1018659
0.1018147
0.1017605
0.1017029
0.1016418
0.1015773
0.1015097
0.1014391
0.101366
0.1012906
0.1012133
0.1011343
0.1010541
0.1009727
0.1008903
0.1008071
0.1007231
0.1006386
0.1005535
0.1004679
0.1003818
0.1002952
0.1002082
0.1001207
0.1000329
0.09994453
0.09985574
0.09976653
0.09967699
0.09958719
0.09949728
0.09940742
0.09931783
0.09922878
0.09914056
0.09905353
0.09896804
0.09888445
0.09880312
0.09872436
0.09864843
0.0985755
0.09850554
0.0984377
0.0983693
0.09829599
0.09824009
0.0981969
0.0981601
0.09812509
0.09808876
0.09804921
0.09800533
0.09795661
0.09790299
0.09784475
0.0977823
0.09771616
0.09764683
0.09757489
0.09750077
0.09742484
0.09734746
0.09726889
0.09718934
0.09710904
0.09702816
0.09694684
0.0968653
0.09678378
0.09670249
0.09662173
0.09654194
0.09646366
0.09638763
0.09631504
0.09624757
0.09618747
0.09613883
0.09610087
0.09607272
0.0960544
0.09604485
0.096043
0.09604786
0.09605877
0.09607523
0.09609689
0.09612344
0.09615467
0.09619033
0.09623011
0.09627367
0.09632078
0.096371
0.09642402
0.09647945
0.09653692
0.09659607
0.09665657
0.09671812
0.09678044
0.0968433
0.09690648
0.0969698
0.09703313
0.09709633
0.09715938
0.09722211
0.09728442
0.09734618
0.09740735
0.09746789
0.0975279
0.09758689
0.09763158
0.09767126
0.09770864
0.09774398
0.09777714
0.09780845
0.09783873
0.09786912
0.09790084
0.09793493
0.09797223
0.09801327
0.09805835
0.09810754
0.09816078
0.09821789
0.09827865
0.09834279
0.09841007
0.09848027
0.09855317
0.0986286
0.09870637
0.09878636
0.09886841
0.09895241
0.09903821
0.09912566
0.09921462
0.09930489
0.09939629
0.09948859
0.09958155
0.09967491
0.09976836
0.0998616
0.0999543
0.1000461
0.1001366
0.1002255
0.1003123
0.1003965
0.1004778
0.1005555
0.1006292
0.1006986
0.1007636
0.1008242
0.1008808
0.1009336
0.1009826
0.101028
0.10107
0.1011083
0.1011428
0.1011735
0.1012004
0.1012239
0.1012444
0.101263
0.1012807
0.101299
0.1013191
0.1013419
0.1013684
0.1013989
0.1014336
0.1014724
0.1015153
0.1015618
0.1016117
0.1016647
0.1017202
0.1017781
0.101838
0.1018997
0.1019628
0.1020273
0.102093
0.1021598
0.1022276
0.1022963
0.1023659
0.1024363
0.1025075
0.1025794
0.1026519
0.102725
0.1027985
0.1028723
0.1029461
0.1030198
0.1030931
0.1031657
0.1032375
0.103308
0.1033771
0.1034446
0.10351
0.1035734
0.1036344
0.103693
0.1037492
0.1038029
0.1038542
0.1039032
0.1039499
0.1039946
0.1040374
0.1040785
0.1041181
0.1041564
0.1041936
0.10423
0.1042657
0.1043009
0.1043358
0.1043705
0.1044053
0.1044404
0.1044758
0.104512
0.1045489
0.1045871
0.1046267
0.1046681
0.1047118
0.1047584
0.1048085
0.1048632
0.1049236
0.1049912
0.105068
0.1051565
0.1052594
0.1053788
0.1055143
0.1056559
0.1057707
0.0155347
0.02117845
0.02827053
0.05060825
0.06052684
0.08018402
0.08527076
0.08855197
0.09153109
0.09341914
0.09451374
0.09476804
0.09504137
0.09501881
0.0948274
0.09459709
0.09975675
0.09943272
0.09917427
0.09895205
0.09868041
0.09832498
0.09789442
0.09738477
0.0967989
0.09615358
0.09546684
0.09475233
0.09401994
0.09327871
0.09253857
0.09181031
0.09110403
0.0904279
0.08979247
0.08921182
0.08870008
0.08826752
0.08791893
0.08765424
0.0874713
0.08737611
0.08721301
0.0871568
0.08717205
0.08724276
0.08736119
0.08752213
0.08772056
0.08795105
0.08820767
0.08848393
0.08877365
0.08907268
0.0893797
0.08969547
0.09002144
0.09035856
0.09070664
0.09106423
0.09142864
0.09179626
0.09216331
0.09252784
0.09289031
0.093253
0.09361748
0.09398453
0.09435423
0.09472578
0.09509751
0.09546745
0.0958343
0.09619802
0.09655985
0.09692165
0.09728526
0.09765194
0.09802084
0.09837571
0.09872744
0.09907831
0.09942843
0.09977819
0.1001286
0.1004806
0.100835
0.1011922
0.1015515
0.1019119
0.1022719
0.1026308
0.1029887
0.1033462
0.1037045
0.1040649
0.1044281
0.1047946
0.1051643
0.1055372
0.1059134
0.1062952
0.1066862
0.1070794
0.1074721
0.1078634
0.1082529
0.10864
0.1090238
0.1094037
0.109779
0.1101496
0.1105159
0.1108782
0.1112372
0.1115928
0.1119441
0.1122873
0.1126229
0.1129517
0.1132745
0.1135922
0.1139055
0.1142151
0.1145215
0.1148249
0.1151252
0.1154219
0.1157146
0.1160029
0.1162863
0.1165646
0.1168372
0.1171033
0.1173613
0.1176089
0.1178436
0.118064
0.1182695
0.1184591
0.1186318
0.1187876
0.1189274
0.119053
0.1191661
0.1192687
0.1193624
0.1194487
0.1195292
0.1196052
0.119678
0.1197486
0.1198181
0.1198874
0.1199571
0.1200275
0.120098
0.1201671
0.1202324
0.1202899
0.1203346
0.1203613
0.1203656
0.1203449
0.1203008
0.1202421
0.1201776
0.1201113
0.1200446
0.1199766
0.1199063
0.1198323
0.1197538
0.1196704
0.1195819
0.1194887
0.1193913
0.1192906
0.1191874
0.1190829
0.1189778
0.1188731
0.1187695
0.1186675
0.1185675
0.1184696
0.1183738
0.1182799
0.1181876
0.1180964
0.1180059
0.1179156
0.1178251
0.1177342
0.1176426
0.1175503
0.1174575
0.1173643
0.1172712
0.1171785
0.1170866
0.116996
0.116907
0.1168199
0.1167348
0.1166518
0.1165709
0.1164919
0.1164149
0.1163397
0.1162661
0.1161942
0.116124
0.1160556
0.115989
0.1159246
0.1158624
0.1158023
0.1157441
0.115687
0.1156303
0.1155732
0.115515
0.1154551
0.1153934
0.1153294
0.115263
0.1151943
0.1151232
0.1150498
0.1149744
0.114897
0.1148178
0.1147369
0.1146545
0.1145707
0.1144856
0.1143993
0.1143119
0.1142233
0.1141337
0.114043
0.1139514
0.1138586
0.113765
0.1136704
0.1135751
0.113479
0.1133822
0.113285
0.1131874
0.1130897
0.1129921
0.112895
0.1127986
0.1127035
0.1126099
0.1125184
0.1124292
0.1123429
0.1122596
0.1121797
0.1121031
0.1120296
0.1119584
0.1118889
0.1118246
0.1117666
0.1117139
0.1116648
0.1116176
0.1115708
0.111523
0.1114732
0.111421
0.1113658
0.1113075
0.1112461
0.1111818
0.1111145
0.1110448
0.1109727
0.1108984
0.1108222
0.1107443
0.1106649
0.1105841
0.1105023
0.1104197
0.1103365
0.1102532
0.1101702
0.1100878
0.1100069
0.1099283
0.1098535
0.1097845
0.1097226
0.1096676
0.1096206
0.1095824
0.1095529
0.1095318
0.1095182
0.1095116
0.1095115
0.1095176
0.1095294
0.1095468
0.1095697
0.1095977
0.1096307
0.1096683
0.1097102
0.1097562
0.1098059
0.1098588
0.1099144
0.1099725
0.1100327
0.1100944
0.1101576
0.1102217
0.1102867
0.1103521
0.1104179
0.110484
0.1105502
0.1106162
0.110682
0.1107475
0.1108124
0.1108767
0.11094
0.1110016
0.1110588
0.1111119
0.1111614
0.1112079
0.1112515
0.1112925
0.1113315
0.1113689
0.1114058
0.1114427
0.1114805
0.1115199
0.1115614
0.1116055
0.1116526
0.1117027
0.1117562
0.111813
0.1118732
0.1119369
0.1120038
0.1120741
0.1121476
0.1122241
0.1123037
0.1123862
0.1124713
0.112559
0.112649
0.1127411
0.1128351
0.1129306
0.1130273
0.1131249
0.1132231
0.1133215
0.1134197
0.1135172
0.1136136
0.1137086
0.1138015
0.113892
0.1139795
0.1140637
0.1141439
0.11422
0.1142918
0.1143592
0.1144225
0.1144816
0.1145367
0.1145881
0.1146357
0.1146797
0.1147202
0.1147573
0.1147913
0.1148225
0.1148513
0.1148781
0.1149038
0.1149289
0.1149544
0.114981
0.1150094
0.1150401
0.1150737
0.1151103
0.1151502
0.1151932
0.1152395
0.1152888
0.115341
0.115396
0.1154535
0.1155133
0.1155753
0.1156393
0.1157052
0.1157727
0.1158419
0.1159125
0.1159846
0.1160581
0.1161328
0.1162087
0.1162856
0.1163634
0.116442
0.1165211
0.1166005
0.1166799
0.1167592
0.1168379
0.1169157
0.1169924
0.1170676
0.117141
0.1172124
0.1172816
0.1173483
0.1174124
0.1174739
0.1175326
0.1175888
0.1176424
0.1176936
0.1177425
0.1177893
0.1178342
0.1178775
0.1179194
0.1179601
0.1179998
0.1180387
0.1180771
0.1181151
0.118153
0.118191
0.1182292
0.1182679
0.1183074
0.1183478
0.1183895
0.1184328
0.1184781
0.1185259
0.1185768
0.1186316
0.118691
0.1187562
0.1188287
0.1189099
0.1190019
0.1191065
0.1192249
0.1193557
0.1194902
0.1195995
0.00934519
0.01248673
0.01538558
0.0276027
0.03846877
0.05338159
0.06225281
0.07122548
0.07974294
0.08781311
0.09498385
0.1016011
0.1074245
0.1122249
0.1160849
0.1254777
0.1265877
0.1269699
0.1267285
0.1260446
0.1250075
0.1236533
0.1221113
0.1204944
0.1189336
0.1175123
0.1160642
0.1149835
0.1141792
0.1135747
0.1130876
0.1126442
0.1122037
0.1117408
0.1112382
0.1106858
0.1100811
0.1094274
0.1087326
0.108007
0.1072636
0.1065161
0.1057787
0.1050645
0.104386
0.1037558
0.1031854
0.1026842
0.1022586
0.1019115
0.1016427
0.101448
0.1013053
0.1012222
0.1011956
0.1012204
0.1012914
0.1014035
0.1015523
0.1017332
0.1019414
0.1021723
0.1024215
0.1026852
0.1029606
0.1032464
0.1035419
0.1038471
0.1041618
0.1044856
0.1048179
0.1051577
0.1055037
0.1058557
0.1062153
0.1065872
0.1069648
0.107345
0.1077265
0.1081086
0.1084906
0.1088718
0.1092516
0.1096301
0.1100076
0.1103848
0.1107626
0.1111413
0.1115205
0.1118965
0.1122699
0.1126416
0.1130118
0.1133812
0.1137501
0.1141192
0.114489
0.1148598
0.1152317
0.1156044
0.1159774
0.1163507
0.1167241
0.117098
0.1174729
0.1178496
0.1182286
0.1186106
0.1189958
0.1193845
0.1197766
0.1201718
0.120569
0.1209658
0.1213607
0.1217531
0.1221425
0.1225285
0.1229107
0.1232889
0.1236626
0.1240317
0.1243961
0.124756
0.1251115
0.1254626
0.1258089
0.1261493
0.1264834
0.1268112
0.1271329
0.1274487
0.1277591
0.1280644
0.1283651
0.1286613
0.1289532
0.1292408
0.1295238
0.1298022
0.1300755
0.1303435
0.1306056
0.1308611
0.1311089
0.1313475
0.1315754
0.1317915
0.1319952
0.1321856
0.132362
0.1325239
0.1326718
0.1328063
0.1329285
0.1330398
0.1331416
0.1332352
0.1333221
0.1334036
0.1334807
0.1335546
0.133626
0.1336957
0.1337643
0.1338317
0.1338976
0.1339609
0.1340198
0.1340718
0.1341138
0.1341427
0.134156
0.1341521
0.1341318
0.1340982
0.1340554
0.1340062
0.1339523
0.1338941
0.1338316
0.1337643
0.1336918
0.1336139
0.1335306
0.1334422
0.1333492
0.1332523
0.1331524
0.1330504
0.1329471
0.1328436
0.1327405
0.1326384
0.1325377
0.1324387
0.1323413
0.1322455
0.1321509
0.1320573
0.1319643
0.1318714
0.1317783
0.1316847
0.1315905
0.1314956
0.1314002
0.1313046
0.1312089
0.1311137
0.1310193
0.1309262
0.1308347
0.130745
0.1306574
0.1305719
0.1304885
0.1304071
0.1303278
0.1302502
0.1301745
0.1301004
0.130028
0.1299572
0.1298881
0.1298208
0.1297553
0.1296916
0.1296295
0.1295687
0.1295088
0.1294494
0.1293899
0.12933
0.1292691
0.1292071
0.1291435
0.1290783
0.1290111
0.1289421
0.1288711
0.1287982
0.1287233
0.1286466
0.1285682
0.1284879
0.128406
0.1283225
0.1282374
0.1281508
0.1280627
0.1279731
0.1278822
0.1277899
0.1276962
0.1276014
0.1275053
0.1274082
0.1273102
0.1272114
0.127112
0.1270123
0.1269125
0.1268131
0.1267144
0.1266167
0.1265206
0.1264265
0.1263347
0.1262457
0.1261598
0.1260771
0.1259978
0.125922
0.1258493
0.1257795
0.1257132
0.1256508
0.1255922
0.1255368
0.1254838
0.1254323
0.1253815
0.1253305
0.1252786
0.1252253
0.1251701
0.1251128
0.1250532
0.1249911
0.1249267
0.1248598
0.1247907
0.1247194
0.124646
0.1245707
0.1244937
0.1244152
0.1243356
0.124255
0.1241741
0.1240931
0.1240127
0.1239336
0.1238566
0.1237823
0.1237114
0.1236451
0.1235846
0.1235307
0.1234842
0.1234452
0.1234136
0.1233892
0.1233716
0.1233605
0.1233558
0.1233572
0.1233645
0.1233778
0.1233967
0.1234211
0.1234507
0.1234854
0.1235246
0.1235681
0.1236154
0.1236663
0.1237201
0.1237765
0.1238352
0.1238957
0.1239577
0.124021
0.1240852
0.1241502
0.1242157
0.1242816
0.1243477
0.1244138
0.1244798
0.1245454
0.1246105
0.1246748
0.1247378
0.1247987
0.1248571
0.1249127
0.1249655
0.1250154
0.1250625
0.125107
0.1251493
0.1251897
0.1252288
0.1252673
0.1253057
0.1253447
0.1253849
0.1254267
0.1254706
0.1255171
0.1255665
0.1256189
0.1256747
0.1257339
0.1257966
0.125863
0.1259329
0.1260064
0.1260834
0.1261636
0.1262471
0.1263335
0.1264227
0.1265142
0.126608
0.1267035
0.1268004
0.1268984
0.126997
0.1270957
0.1271941
0.1272918
0.1273882
0.1274829
0.1275754
0.1276652
0.1277518
0.1278349
0.127914
0.1279891
0.12806
0.1281267
0.1281893
0.128248
0.1283027
0.1283537
0.1284011
0.1284451
0.1284858
0.1285238
0.1285591
0.1285922
0.1286234
0.1286532
0.128682
0.1287105
0.1287391
0.1287685
0.1287991
0.1288314
0.1288657
0.1289024
0.1289417
0.1289836
0.1290283
0.1290757
0.1291259
0.1291787
0.1292341
0.1292919
0.129352
0.1294145
0.129479
0.1295456
0.1296142
0.1296846
0.1297569
0.1298308
0.1299063
0.1299832
0.1300614
0.1301406
0.1302207
0.1303013
0.1303822
0.1304631
0.1305436
0.1306234
0.1307021
0.1307794
0.130855
0.1309285
0.1309998
0.1310685
0.1311347
0.1311981
0.1312587
0.1313167
0.1313719
0.1314247
0.131475
0.1315232
0.1315694
0.1316139
0.1316568
0.1316985
0.1317391
0.131779
0.1318182
0.131857
0.1318957
0.1319344
0.1319733
0.1320128
0.132053
0.1320941
0.1321366
0.1321806
0.1322267
0.1322753
0.1323269
0.1323822
0.132442
0.1325072
0.1325789
0.1326585
0.1327473
0.1328466
0.1329569
0.1330767
0.1331985
0.1332973
0.002654109
0.01297797
0.02094323
0.0290069
0.03670325
0.0443559
0.05225264
0.05993327
0.06743744
0.0752824
0.08742631
0.09413745
0.1010415
0.1077975
0.1144466
0.1208262
0.1268146
0.1322226
0.1367627
0.1401953
0.1419801
0.1428505
0.1428784
0.1422087
0.1410031
0.1394179
0.1375084
0.1354303
0.1333306
0.1313448
0.1295632
0.1280274
0.1268187
0.1259131
0.1252662
0.1248297
0.1245247
0.1242835
0.1240588
0.1238155
0.1235273
0.1231771
0.122757
0.1222669
0.1217136
0.1211089
0.1204682
0.1198085
0.1191473
0.1185017
0.1178878
0.1173195
0.1168085
0.1163635
0.1159897
0.1156894
0.115461
0.1152982
0.1151976
0.1151551
0.1151658
0.1152246
0.1153262
0.1154654
0.1156375
0.1158377
0.1160619
0.116306
0.1165668
0.1168416
0.1171283
0.1174258
0.1177332
0.1180499
0.1183756
0.1187098
0.119052
0.1194016
0.1197582
0.1201214
0.1204903
0.1208626
0.1212364
0.121611
0.1219856
0.12236
0.122734
0.1231073
0.1234801
0.1238526
0.1242251