/*--------------------------------*- C++ -*----------------------------------*\
| =========                 |                                                 |
| \\      /  F ield         | foam-extend: Open Source CFD                    |
|  \\    /   O peration     | Version:     3.1                                |
|   \\  /    A nd           | Web:         http://www.extend-project.de       |
|    \\/     M anipulation  |                                                 |
\*---------------------------------------------------------------------------*/
FoamFile
{
    version     2.0;
    format      ascii;
    class       volScalarField;
    location    "1.5";
    object      nut;
}
// * * * * * * * * * * * * * * * * * * * * * * * * * * * * * * * * * * * * * //

dimensions      [0 2 -1 0 0 0 0];

internalField   nonuniform List<scalar> 
119952
(
4.293457e-05
2.418297e-05
2.686796e-05
3.441618e-05
3.994969e-05
3.851131e-05
3.744627e-05
3.647799e-05
3.551468e-05
3.453327e-05
3.352887e-05
3.250796e-05
3.147986e-05
3.045218e-05
2.942932e-05
2.841449e-05
2.740996e-05
2.641576e-05
2.542246e-05
2.448538e-05
3.385162e-05
3.186495e-05
3.110337e-05
4.389814e-05
4.253944e-05
4.172791e-05
4.105874e-05
4.070902e-05
3.931693e-05
3.896814e-05
2.269506e-05
2.091285e-05
2.589256e-05
3.293526e-05
4.054486e-05
4.823111e-05
5.601582e-05
6.389838e-05
7.194413e-05
8.553798e-05
0.0002180514
0.0003234591
0.0004131743
0.0004816728
0.0005356514
0.0005821377
0.000625243
0.0006670171
0.0007082169
0.001105574
0.001231843
0.001356629
0.00147105
0.00157133
0.001658351
0.001734877
0.001803697
0.001867087
0.001927528
0.002002682
0.002098499
0.002203764
0.002307194
0.002402423
0.002488006
0.002565458
0.002637907
0.002708253
0.00267897
0.002690693
0.002753744
0.002834403
0.002909816
0.002970801
0.003018404
0.003053384
0.003077104
0.003091714
0.003099222
0.003101003
0.003098724
0.003093748
0.003087094
0.00307964
0.003072329
0.00306652
0.003064342
0.003068172
0.003079096
0.003091653
0.003112224
0.003141934
0.003161407
0.003166442
0.003155213
0.003104541
0.002934035
0.00267778
0.002618777
0.002594775
0.002582118
0.002575214
0.002571285
0.002568461
0.002565562
0.002561934
0.002557288
0.002551563
0.002544833
0.00253724
0.002528943
0.002520101
0.002510861
0.002501344
0.002491647
0.002481843
0.002471982
0.002462094
0.002452194
0.002442285
0.002432359
0.002422403
0.002412399
0.002402327
0.002392172
0.002381921
0.002371564
0.0023611
0.002350537
0.00233989
0.002329183
0.002318438
0.00230767
0.002296886
0.002286089
0.002275288
0.002264508
0.00225373
0.00224293
0.002232091
0.002221203
0.002210262
0.002199268
0.002188243
0.002177257
0.002166601
0.002155922
0.002098781
0.002026479
0.001968352
0.001923767
0.001889349
0.001862107
0.001839841
0.001821034
0.001804656
0.001790002
0.001776587
0.001764076
0.001752229
0.001740869
0.001729871
0.001719143
0.001708618
0.001698245
0.001687986
0.001677814
0.001667706
0.001657645
0.001647618
0.001637615
0.001627627
0.001617658
0.001607713
0.001597712
0.001587656
0.001577609
0.00156756
0.00155749
0.001547389
0.001537249
0.001527065
0.001516831
0.001506542
0.001496193
0.001485782
0.00147531
0.001464776
0.001454183
0.001443533
0.001432832
0.001422084
0.001411288
0.001400449
0.001389593
0.00137899
0.001366606
0.001024294
0.0007866222
0.0007215275
0.0006912112
0.0006722647
0.0006582999
0.0006468977
0.0006369346
0.0006278312
0.000619271
0.0006110727
0.0006031371
0.0005953962
0.0005878074
0.0005803414
0.0005729755
0.0005656927
0.000558472
0.0005513212
0.0005442642
0.0005372419
0.0005301861
0.0005231758
0.0005162169
0.0005092998
0.0005024154
0.0004955615
0.0004887438
0.0004819668
0.0004752361
0.0004685679
0.0004620387
0.0004555858
0.0004495448
0.0004445872
0.0004480746
0.0004618646
0.0004734379
0.0004832335
0.0004919225
0.0004999336
0.0005075449
0.0005149192
0.0005221514
0.0005292994
0.0005363928
0.0005434453
0.0005504767
0.0005574941
0.0005645024
0.0005715057
0.0005785067
0.0005855077
0.0005925105
0.0005995163
0.0006065264
0.0006135416
0.0006205626
0.0006275903
0.000634625
0.0006416701
0.0006487233
0.0006557786
0.0006628443
0.0006699188
0.0006770011
0.0006840902
0.0006911844
0.0006982986
0.0007055209
0.00100596
0.001069478
0.001136131
0.001202426
0.001264404
0.001319098
0.001365375
0.001403659
0.001435158
0.001461272
0.001483275
0.001502181
0.001518777
0.001533656
0.001547258
0.001559907
0.00157184
0.001583235
0.001594227
0.001604913
0.001615369
0.001625648
0.001635791
0.001645829
0.001655783
0.001665669
0.0016755
0.001685284
0.001695028
0.001704737
0.001714413
0.001724057
0.00173367
0.001743249
0.001752795
0.001762303
0.001771771
0.001781194
0.001790566
0.001799879
0.00180912
0.001818264
0.001827267
0.001836035
0.001844357
0.001851764
0.00185811
0.001864052
0.001869777
0.001875373
0.001880877
0.001886307
0.001891702
0.00189721
0.001903095
0.001923037
0.001956897
0.001999243
0.00204411
0.002086757
0.002124414
0.002156141
0.00218223
0.002203558
0.002221131
0.002235865
0.002248497
0.002259591
0.002269563
0.002278713
0.002287258
0.002295354
0.002303111
0.002310611
0.002317912
0.002325056
0.002332074
0.00233899
0.002345822
0.002352583
0.002359286
0.002365939
0.002372551
0.002379128
0.002385674
0.002392195
0.002398693
0.002405171
0.002411628
0.002418066
0.002424485
0.002430884
0.002437262
0.002443616
0.002449943
0.002456241
0.002462505
0.002468731
0.002474915
0.002481052
0.00248714
0.002493176
0.00249916
0.002505091
0.002510971
0.002516801
0.002522585
0.002528327
0.00253403
0.002539698
0.002545337
0.002550951
0.002556543
0.00256212
0.002567684
0.002573241
0.002578796
0.002584354
0.00258992
0.0025955
0.002601102
0.002606733
0.002612403
0.002618124
0.00262391
0.00262978
0.00263576
0.002641884
0.002648199
0.002654776
0.002661724
0.002669217
0.002677552
0.002687275
0.002699467
0.002716545
0.002744082
0.002793274
0.00277406
2.006098e-05
2.277365e-05
2.883224e-05
3.601805e-05
4.345809e-05
5.094633e-05
5.850732e-05
6.61861e-05
7.484572e-05
0.0001658508
0.0002673554
0.0003652144
0.0004441023
0.0005051483
0.0005553356
0.0006000762
0.0006424031
0.000683856
0.001036078
0.001154683
0.001279136
0.00139917
0.001507624
0.001602492
0.001685352
0.001758908
0.00182569
0.001888061
0.001953118
0.002040073
0.002143754
0.002251865
0.002354614
0.002447662
0.002530827
0.002605786
0.002674518
0.002693136
0.002731643
0.002816525
0.002919849
0.003026361
0.003128194
0.003222343
0.003308545
0.003387745
0.003461461
0.003535618
0.003619972
0.003715545
0.003817294
0.003918952
0.004016042
0.004106506
0.004189844
0.004261551
0.00513392
0.00523542
0.005332838
0.005430459
0.00552805
0.005624017
0.005716849
0.005805584
0.005889866
0.005970216
0.006049437
0.006130647
0.00621514
0.006302288
0.006390396
0.006477582
0.00656213
0.006642122
0.00671231
0.006763457
0.006804761
0.006845593
0.006887009
0.006927197
0.006965255
0.007000802
0.007033176
0.007061717
0.00708598
0.00710598
0.007121995
0.007134339
0.007143472
0.007149974
0.007154531
0.007157973
0.00716134
0.007165914
0.007172861
0.007182112
0.007193638
0.007207863
0.007221242
0.007227877
0.007223727
0.007200092
0.007148941
0.007064718
0.006979251
0.006911856
0.006859244
0.006818338
0.006786633
0.006761912
0.00674205
0.006725499
0.006711108
0.006698038
0.006685698
0.006673704
0.006661831
0.006649965
0.006638074
0.006626172
0.006614295
0.006602485
0.006590773
0.006579179
0.006567705
0.006556335
0.006545038
0.006533772
0.006522486
0.006511125
0.006499638
0.006487981
0.006476124
0.006464055
0.006451781
0.006439335
0.006426767
0.006414119
0.00640141
0.006388681
0.006375968
0.006363298
0.006350697
0.006338171
0.006325706
0.006313285
0.006300888
0.006288503
0.006276129
0.006263786
0.006251527
0.006239455
0.006227639
0.006214937
0.006196846
0.006171796
0.006141007
0.006106932
0.006071861
0.006037444
0.006004668
0.005974011
0.005945617
0.005919427
0.005895275
0.005872945
0.005852207
0.005832841
0.005814642
0.005797429
0.005781043
0.005765353
0.005750242
0.005735612
0.005721381
0.005707472
0.005693852
0.00568046
0.005667258
0.005654213
0.005641283
0.005628419
0.005615614
0.005602864
0.005590153
0.005577461
0.005564789
0.005552109
0.005539405
0.005526666
0.005513883
0.005501051
0.005488173
0.005475257
0.005462314
0.005449363
0.005436424
0.005423519
0.005410671
0.005397907
0.005385281
0.005372894
0.005361025
0.005351318
0.004794485
0.004515542
0.004404574
0.004337711
0.004286092
0.004242748
0.004205655
0.004173793
0.004146323
0.004122467
0.00410153
0.004082916
0.004066131
0.004050771
0.004036514
0.004023108
0.004010354
0.003998099
0.003986236
0.003974677
0.003963327
0.003952114
0.003940991
0.00392999
0.003919106
0.003908333
0.003897675
0.003887154
0.003876812
0.003866716
0.003856986
0.003847842
0.003839712
0.003833556
0.003831595
0.003837326
0.003848756
0.003863231
0.003879067
0.00389518
0.00391095
0.003926077
0.003940468
0.003954143
0.003967175
0.003979657
0.003991683
0.004003336
0.004014686
0.00402579
0.004036693
0.004047429
0.004058027
0.004068507
0.004078885
0.004089175
0.004099387
0.004109529
0.004119609
0.004129633
0.004139605
0.004149529
0.004159408
0.004169244
0.004179035
0.004188778
0.004198465
0.004208081
0.004217536
0.00422475
0.005006684
0.005046386
0.005078766
0.00511085
0.005145227
0.005182147
0.005220754
0.005259822
0.005298186
0.005334945
0.005369513
0.005401596
0.005431126
0.005458192
0.005482979
0.005505724
0.005526677
0.00554609
0.005564198
0.005581214
0.005597326
0.005612696
0.00562746
0.005641732
0.005655605
0.005669155
0.005682441
0.00569551
0.005708398
0.00572113
0.005733724
0.005746192
0.005758542
0.005770775
0.005782889
0.005794881
0.005806744
0.005818466
0.005830034
0.005841426
0.00585261
0.005863538
0.005874133
0.005884279
0.005893815
0.005902592
0.005910712
0.005918362
0.00592566
0.005932679
0.005939461
0.005946016
0.0059523
0.005958169
0.00596406
0.005971796
0.005983064
0.00599877
0.00601889
0.006042657
0.006068891
0.006096317
0.006123805
0.006150489
0.006175796
0.006199414
0.006221231
0.006241275
0.006259661
0.006276547
0.006292112
0.006306531
0.006319967
0.006332568
0.006344463
0.006355763
0.006366562
0.00637694
0.006386964
0.006396691
0.006406169
0.006415438
0.006424534
0.006433485
0.006442314
0.00645104
0.006459678
0.006468241
0.006476735
0.006485168
0.006493541
0.006501855
0.006510109
0.006518298
0.006526416
0.006534457
0.00654241
0.006550268
0.006558022
0.006565662
0.006573182
0.006580578
0.006587848
0.006594992
0.006602013
0.006608915
0.006615707
0.006622396
0.006628992
0.006635506
0.006641948
0.006648331
0.006654664
0.006660961
0.006667232
0.00667349
0.006679747
0.006686015
0.006692309
0.006698645
0.006705038
0.00671151
0.006718084
0.006724788
0.006731658
0.00673874
0.00674609
0.006753787
0.006761938
0.006770691
0.006780264
0.006790981
0.006803343
0.006818123
0.006836519
0.006860238
0.006890927
0.006925769
0.006949828
3.170385e-05
2.993231e-05
3.886739e-05
4.813425e-05
5.649577e-05
6.4205e-05
7.163846e-05
7.888462e-05
8.607783e-05
9.972079e-05
0.0002425858
0.0003592708
0.0004513652
0.0005169243
0.0005667934
0.0006094417
0.0006491985
0.0006880382
0.0007266331
0.001130412
0.001256435
0.001381045
0.001494739
0.001593572
0.001678648
0.00175304
0.001819768
0.001881237
0.001940004
0.002013913
0.002109232
0.0022146
0.00231839
0.002413943
0.002499603
0.002576452
0.002646389
0.002711632
0.002706048
0.002769407
0.002862382
0.002965161
0.003066938
0.003162661
0.003250786
0.003331576
0.003406048
0.003476536
0.003551884
0.003638054
0.003733329
0.003832373
0.003929894
0.004022472
0.004108606
0.004185832
0.005057645
0.005154127
0.005246259
0.005340615
0.005437789
0.005536007
0.005633091
0.00572733
0.005817739
0.005904133
0.005988019
0.006072973
0.006161629
0.006254454
0.006350077
0.006446337
0.006541193
0.006633053
0.006720383
0.006798993
0.006872457
0.006946878
0.007024725
0.007105489
0.007188874
0.00727335
0.007357261
0.007439373
0.007519114
0.007597209
0.007675548
0.007755813
0.007838591
0.007923319
0.008008762
0.008093552
0.008176604
0.008258197
0.00828503
0.008334016
0.008395931
0.008466151
0.008541744
0.008620456
0.008700456
0.008780312
0.008859
0.008936043
0.009011869
0.009087458
0.00916367
0.009240821
0.009318631
0.009396354
0.009472844
0.009546405
0.009614168
0.009672677
0.009723299
0.009768703
0.009810069
0.009847837
0.009882656
0.009915162
0.009945639
0.009974079
0.01
0.01
0.01
0.01
0.01
0.01
0.01
0.01
0.01
0.01
0.01
0.01
0.01
0.01
0.01
0.01
0.01
0.01
0.01
0.01
0.01
0.009975126
0.009930308
0.009891329
0.009856703
0.009825608
0.009797842
0.009772972
0.009750495
0.009729929
0.009710857
0.009692947
0.009675953
0.009659703
0.009644085
0.009629031
0.009614499
0.009600456
0.009586872
0.009573711
0.009560925
0.009548455
0.00953623
0.009524169
0.009512188
0.009500201
0.009488126
0.009475893
0.009463447
0.009450749
0.009437783
0.009424552
0.009411075
0.009397416
0.009383681
0.009369936
0.009356235
0.009342619
0.009329118
0.00931574
0.009302479
0.009289317
0.009276235
0.009263221
0.009250274
0.009237416
0.009224693
0.009212172
0.00919985
0.009187247
0.00917308
0.009156296
0.009136366
0.00911346
0.009088225
0.009061529
0.009034209
0.009006885
0.008980044
0.008954017
0.008929005
0.008905103
0.008882333
0.008860661
0.008840025
0.008820343
0.008801517
0.008783497
0.008766168
0.008749447
0.008733243
0.008717512
0.008702208
0.008687252
0.008672598
0.008658202
0.008644016
0.008629982
0.008616095
0.008602347
0.00858868
0.008575095
0.008561586
0.008548109
0.008534646
0.008521184
0.008507714
0.008494234
0.008480748
0.008467269
0.008453817
0.008440416
0.008427097
0.008413891
0.008400828
0.008387933
0.008375266
0.008362869
0.008350564
0.0083369
0.008310337
0.008308968
0.008304704
0.008293212
0.008275705
0.008254226
0.008230567
0.008206118
0.008181795
0.008158194
0.008135656
0.008114337
0.00809427
0.008075404
0.008057659
0.008040917
0.008025058
0.008009966
0.00799553
0.007981645
0.007968211
0.007955176
0.007942478
0.007930118
0.007918061
0.007906298
0.007894843
0.00788373
0.007873021
0.007862823
0.007853314
0.007844846
0.007837944
0.00783356
0.007833196
0.007836123
0.007841902
0.007849966
0.007859747
0.007870739
0.007882526
0.007894778
0.007907247
0.00791976
0.007932193
0.007944513
0.007956664
0.007968626
0.007980408
0.007992011
0.008003449
0.008014729
0.008025864
0.008036863
0.008047736
0.008058492
0.008069138
0.008079684
0.008090136
0.0081005
0.008110782
0.008120986
0.00813112
0.008141184
0.008151176
0.008161086
0.008170896
0.008180672
0.008190684
0.008203351
0.008170094
0.008155439
0.008152155
0.008156889
0.008167869
0.008183933
0.008204078
0.008227321
0.008252702
0.008279339
0.008306468
0.008333477
0.00835991
0.008385452
0.008409915
0.008433208
0.008455315
0.008476278
0.00849617
0.008515088
0.00853314
0.008550433
0.00856707
0.008583146
0.008598745
0.008613941
0.008628795
0.008643356
0.008657665
0.00867175
0.008685635
0.008699332
0.00871285
0.008726193
0.008739358
0.00875234
0.008765131
0.008777719
0.008790086
0.008802207
0.008814052
0.008825572
0.008836703
0.00884736
0.008857447
0.008866895
0.008875747
0.008884095
0.008892021
0.008899583
0.008906818
0.008913744
0.008920339
0.008926556
0.008932564
0.008939005
0.00894667
0.008956263
0.008968242
0.00898274
0.008999583
0.009018364
0.009038549
0.009059575
0.009080919
0.009102143
0.009122909
0.009142984
0.009162223
0.009180555
0.009197965
0.009214477
0.009230139
0.009245016
0.009259178
0.009272696
0.009285642
0.00929808
0.009310073
0.009321677
0.009332943
0.009343917
0.00935464
0.009365147
0.00937547
0.009385635
0.009395662
0.009405569
0.009415369
0.00942507
0.009434678
0.009444193
0.009453615
0.009462938
0.009472155
0.009481257
0.009490231
0.009499067
0.009507752
0.009516277
0.009524632
0.009532811
0.009540813
0.009548638
0.00955629
0.009563776
0.009571106
0.009578292
0.009585348
0.009592289
0.00959913
0.009605889
0.009612581
0.009619223
0.009625833
0.009632426
0.009639021
0.009645637
0.009652293
0.009659009
0.009665812
0.009672727
0.009679788
0.009687033
0.009694509
0.009702275
0.009710408
0.009719004
0.009728193
0.009738151
0.009749118
0.009761433
0.009775569
0.00979218
0.009812126
0.009836356
0.009865243
0.009896417
0.009921293
7.779008e-05
0.0001274205
0.0002419189
0.0006694965
0.0008920838
0.001717916
0.002091948
0.002385567
0.002672166
0.002936544
0.003130139
0.003260311
0.003290658
0.003362414
0.003476646
0.003584175
0.003671109
0.003737719
0.003788408
0.003827778
0.003859592
0.003887269
0.003920141
0.0039696
0.004034082
0.004105643
0.00417695
0.00424399
0.004305681
0.004362323
0.004409416
0.005276683
0.00536077
0.0054427
0.005526865
0.005612726
0.005698369
0.005782064
0.005862724
0.005939934
0.006014222
0.006088463
0.006165875
0.006247788
0.006333525
0.006421279
0.006509049
0.006595162
0.006678231
0.006755776
0.006825565
0.006893931
0.006965171
0.007040149
0.007117387
0.007196369
0.007275824
0.00735441
0.00743117
0.007505952
0.007580013
0.007655217
0.007732909
0.007813357
0.007895872
0.007979275
0.008062521
0.008146315
0.008178042
0.008229189
0.008291953
0.008362994
0.008440291
0.008522073
0.008606618
0.008692342
0.008777994
0.008862701
0.008946375
0.009029918
0.009114516
0.00920094
0.009289329
0.009379164
0.00946959
0.00955962
0.009648165
0.009733869
0.009816991
0.009899195
0.009982279
0.01
0.01
0.01
0.01
0.01
0.01
0.01
0.01
0.01
0.01
0.01
0.01
0.01
0.01
0.01
0.01
0.01
0.01
0.01
0.01
0.01
0.01
0.01
0.01
0.01
0.01
0.01
0.01
0.01
0.01
0.01
0.01
0.01
0.01
0.01
0.01
0.01
0.01
0.01
0.01
0.01
0.01
0.01
0.01
0.01
0.01
0.01
0.01
0.01
0.01
0.01
0.01
0.01
0.01
0.01
0.01
0.01
0.01
0.01
0.01
0.01
0.01
0.01
0.01
0.01
0.01
0.01
0.01
0.01
0.01
0.01
0.01
0.01
0.01
0.01
0.01
0.01
0.01
0.01
0.01
0.01
0.01
0.01
0.01
0.01
0.01
0.01
0.01
0.01
0.01
0.01
0.01
0.01
0.01
0.01
0.01
0.01
0.01
0.01
0.01
0.01
0.01
0.01
0.01
0.01
0.01
0.01
0.01
0.01
0.01
0.01
0.01
0.01
0.01
0.01
0.01
0.01
0.01
0.01
0.01
0.01
0.01
0.01
0.01
0.01
0.01
0.01
0.01
0.01
0.01
0.01
0.01
0.01
0.01
0.01
0.01
0.01
0.01
0.01
0.01
0.01
0.01
0.01
0.01
0.01
0.01
0.01
0.01
0.01
0.01
0.01
0.01
0.01
0.01
0.01
0.01
0.01
0.01
0.01
0.01
0.01
0.01
0.01
0.01
0.01
0.01
0.01
0.01
0.01
0.01
0.01
0.01
0.01
0.01
0.01
0.01
0.01
0.01
0.01
0.01
0.01
0.01
0.01
0.01
0.01
0.01
0.01
0.01
0.01
0.01
0.01
0.01
0.01
0.01
0.01
0.01
0.01
0.01
0.01
0.01
0.01
0.01
0.01
0.01
0.01
0.01
0.01
0.01
0.01
0.01
0.01
0.01
0.01
0.01
0.01
0.01
0.01
0.01
0.01
0.01
0.01
0.01
0.01
0.01
0.01
0.01
0.01
0.01
0.01
0.01
0.01
0.01
0.01
0.01
0.01
0.01
0.01
0.01
0.01
0.01
0.01
0.01
0.01
0.01
0.01
0.01
0.01
0.01
0.01
0.01
0.01
0.01
0.01
0.01
0.01
0.01
0.01
0.01
0.01
0.01
0.01
0.01
0.01
0.01
0.01
0.01
0.01
0.01
0.01
0.01
0.01
0.01
0.01
0.01
0.01
0.01
0.01
0.01
0.01
0.01
0.01
0.01
0.01
0.01
0.01
0.01
0.01
0.01
0.01
0.01
0.01
0.01
0.01
0.01
0.01
0.01
0.01
0.01
0.01
0.01
0.01
0.01
0.01
0.01
0.01
0.01
0.01
0.01
0.01
0.01
0.01
0.01
0.01
0.01
0.01
0.01
0.01
0.01
0.01
0.01
0.01
0.01
0.01
0.01
0.01
0.01
0.01
0.01
0.01
0.01
0.01
0.01
0.01
0.01
0.01
0.01
0.01
0.01
0.01
0.01
0.01
0.01
0.01
0.01
0.01
0.01
0.01
0.01
0.01
0.01
0.01
0.01
0.01
0.01
0.01
0.01
0.01
0.01
0.01
0.01
0.01
0.01
0.01
0.01
0.01
0.01
0.01
0.01
0.01
0.01
0.01
0.01
4.679818e-05
0.0001029484
0.0001651814
0.0006117673
0.0009048746
0.002027996
0.00255598
0.002854403
0.003374288
0.003699027
0.003986909
0.004268384
0.004542727
0.004796037
0.005078032
0.005332592
0.006497198
0.006745859
0.006982556
0.0072062
0.007407361
0.007581574
0.007727463
0.00784168
0.007936117
0.008019822
0.00809387
0.008156681
0.008207077
0.008245161
0.00827216
0.008290038
0.008301408
0.008310077
0.008320506
0.008335869
0.008357321
0.008384456
0.008416146
0.008451179
0.008488614
0.008528761
0.008515845
0.008531924
0.008566217
0.008613131
0.008668994
0.008730949
0.008796686
0.008864405
0.008932818
0.00900128
0.00907014
0.009140369
0.009212844
0.009287899
0.009365274
0.009444285
0.009524043
0.009603556
0.00968161
0.009757285
0.009831527
0.009905975
0.009982047
0.01
0.01
0.01
0.01
0.01
0.01
0.01
0.01
0.01
0.01
0.01
0.01
0.01
0.01
0.01
0.01
0.01
0.01
0.01
0.01
0.01
0.01
0.01
0.01
0.01
0.01
0.01
0.01
0.01
0.01
0.01
0.01
0.01
0.01
0.01
0.01
0.01
0.01
0.01
0.01
0.01
0.01
0.01
0.01
0.01
0.01
0.01
0.01
0.01
0.01
0.01
0.01
0.01
0.01
0.01
0.01
0.01
0.01
0.01
0.01
0.01
0.01
0.01
0.01
0.01
0.01
0.01
0.01
0.01
0.01
0.01
0.01
0.01
0.01
0.01
0.01
0.01
0.01
0.01
0.01
0.01
0.01
0.01
0.01
0.01
0.01
0.01
0.01
0.01
0.01
0.01
0.01
0.01
0.01
0.01
0.01
0.01
0.01
0.01
0.01
0.01
0.01
0.01
0.01
0.01
0.01
0.01
0.01
0.01
0.01
0.01
0.01
0.01
0.01
0.01
0.01
0.01
0.01
0.01
0.01
0.01
0.01
0.01
0.01
0.01
0.01
0.01
0.01
0.01
0.01
0.01
0.01
0.01
0.01
0.01
0.01
0.01
0.01
0.01
0.01
0.01
0.01
0.01
0.01
0.01
0.01
0.01
0.01
0.01
0.01
0.01
0.01
0.01
0.01
0.01
0.01
0.01
0.01
0.01
0.01
0.01
0.01
0.01
0.01
0.01
0.01
0.01
0.01
0.01
0.01
0.01
0.01
0.01
0.01
0.01
0.01
0.01
0.01
0.01
0.01
0.01
0.01
0.01
0.01
0.01
0.01
0.01
0.01
0.01
0.01
0.01
0.01
0.01
0.01
0.01
0.01
0.01
0.01
0.01
0.01
0.01
0.01
0.01
0.01
0.01
0.01
0.01
0.01
0.01
0.01
0.01
0.01
0.01
0.01
0.01
0.01
0.01
0.01
0.01
0.01
0.01
0.01
0.01
0.01
0.01
0.01
0.01
0.01
0.01
0.01
0.01
0.01
0.01
0.01
0.01
0.01
0.01
0.01
0.01
0.01
0.01
0.01
0.01
0.01
0.01
0.01
0.01
0.01
0.01
0.01
0.01
0.01
0.01
0.01
0.01
0.01
0.01
0.01
0.01
0.01
0.01
0.01
0.01
0.01
0.01
0.01
0.01
0.01
0.01
0.01
0.01
0.01
0.01
0.01
0.01
0.01
0.01
0.01
0.01
0.01
0.01
0.01
0.01
0.01
0.01
0.01
0.01
0.01
0.01
0.01
0.01
0.01
0.01
0.01
0.01
0.01
0.01
0.01
0.01
0.01
0.01
0.01
0.01
0.01
0.01
0.01
0.01
0.01
0.01
0.01
0.01
0.01
0.01
0.01
0.01
0.01
0.01
0.01
0.01
0.01
0.01
0.01
0.01
0.01
0.01
0.01
0.01
0.01
0.01
0.01
0.01
0.01
0.01
0.01
0.01
0.01
0.01
0.01
0.01
0.01
0.01
0.01
0.01
0.01
0.01
0.01
0.01
0.01
0.01
0.01
0.01
0.01
0.01
0.01
0.01
0.01
0.01
0.01
0.01
0.01
0.01
0.01
0.01
0.01
0.01
0.01
0.01
0.01
0.01
0.01
0.01
0.01
0.01
0.01
0.01
0.01
0.01
0.01
0.01
0.01
0.01
0.01
0.01
0.01
0.01
0.01
0.01
0.01
0.01
0.01
0.01
0.01
0.01
0.01
0.01
0.01
0.01
0.01
0.01
0.01
0.01
0.01
0.01
0.01
0.01
0.01
0.01
0.01
0.01
3.067354e-05
5.739667e-05
9.112709e-05
0.0003357224
0.0005919631
0.001217611
0.001615701
0.002099877
0.002639455
0.003158127
0.003653168
0.004103759
0.004563319
0.005010065
0.005394849
0.00651516
0.006848208
0.007149151
0.007447479
0.007712004
0.007953702
0.008181599
0.008399665
0.008612049
0.00882821
0.009048392
0.009217198
0.009427213
0.009656691
0.009893464
0.01
0.01
0.01
0.01
0.01
0.01
0.01
0.01
0.01
0.01
0.01
0.01
0.01
0.01
0.01
0.01
0.01
0.01
0.01
0.01
0.01
0.01
0.01
0.01
0.01
0.01
0.01
0.01
0.01
0.01
0.01
0.01
0.01
0.01
0.01
0.01
0.01
0.01
0.01
0.01
0.01
0.01
0.01
0.01
0.01
0.01
0.01
0.01
0.01
0.01
0.01
0.01
0.01
0.01
0.01
0.01
0.01
0.01
0.01
0.01
0.01
0.01
0.01
0.01
0.01
0.01
0.01
0.01
0.01
0.01
0.01
0.01
0.01
0.01
0.01
0.01
0.01
0.01
0.01
0.01
0.01
0.01
0.01
0.01
0.01
0.01
0.01
0.01
0.01
0.01
0.01
0.01
0.01
0.01
0.01
0.01
0.01
0.01
0.01
0.01
0.01
0.01
0.01
0.01
0.01
0.01
0.01
0.01
0.01
0.01
0.01
0.01
0.01
0.01
0.01
0.01
0.01
0.01
0.01
0.01
0.01
0.01
0.01
0.01
0.01
0.01
0.01
0.01
0.01
0.01
0.01
0.01
0.01
0.01
0.01
0.01
0.01
0.01
0.01
0.01
0.01
0.01
0.01
0.01
0.01
0.01
0.01
0.01
0.01
0.01
0.01
0.01
0.01
0.01
0.01
0.01
0.01
0.01
0.01
0.01
0.01
0.01
0.01
0.01
0.01
0.01
0.01
0.01
0.01
0.01
0.01
0.01
0.01
0.01
0.01
0.01
0.01
0.01
0.01
0.01
0.01
0.01
0.01
0.01
0.01
0.01
0.01
0.01
0.01
0.01
0.01
0.01
0.01
0.01
0.01
0.01
0.01
0.01
0.01
0.01
0.01
0.01
0.01
0.01
0.01
0.01
0.01
0.01
0.01
0.01
0.01
0.01
0.01
0.01
0.01
0.01
0.01
0.01
0.01
0.01
0.01
0.01
0.01
0.01
0.01
0.01
0.01
0.01
0.01
0.01
0.01
0.01
0.01
0.01
0.01
0.01
0.01
0.01
0.01
0.01
0.01
0.01
0.01
0.01
0.01
0.01
0.01
0.01
0.01
0.01
0.01
0.01
0.01
0.01
0.01
0.01
0.01
0.01
0.01
0.01
0.01
0.01
0.01
0.01
0.01
0.01
0.01
0.01
0.01
0.01
0.01
0.01
0.01
0.01
0.01
0.01
0.01
0.01
0.01
0.01
0.01
0.01
0.01
0.01
0.01
0.01
0.01
0.01
0.01
0.01
0.01
0.01
0.01
0.01
0.01
0.01
0.01
0.01
0.01
0.01
0.01
0.01
0.01
0.01
0.01
0.01
0.01
0.01
0.01
0.01
0.01
0.01
0.01
0.01
0.01
0.01
0.01
0.01
0.01
0.01
0.01
0.01
0.01
0.01
0.01
0.01
0.01
0.01
0.01
0.01
0.01
0.01
0.01
0.01
0.01
0.01
0.01
0.01
0.01
0.01
0.01
0.01
0.01
0.01
0.01
0.01
0.01
0.01
0.01
0.01
0.01
0.01
0.01
0.01
0.01
0.01
0.01
0.01
0.01
0.01
0.01
0.01
0.01
0.01
0.01
0.01
0.01
0.01
0.01
0.01
0.01
0.01
0.01
0.01
0.01
0.01
0.01
0.01
0.01
0.01
0.01
0.01
0.01
0.01
0.01
0.01
0.01
0.01
0.01
0.01
0.01
0.01
0.01
0.01
0.01
0.01
0.01
0.01
0.01
0.01
0.01
0.01
0.01
0.01
0.01
0.01
0.01
0.01
0.01
0.01
0.01
0.01
0.01
0.01
0.01
0.01
0.01
0.01
0.01
0.01
0.01
0.01
0.01
0.01
0.01
0.01
0.01
0.01
0.01
0.01
0.01
0.01
0.01
0.01
0.01
0.01
0.01
0.01
0.01
0.01
0.01
0.01
0.01
0.01
0.01
0.01
0.01
0.01
0.01
0.01
0.01
0.01
0.01
0.01
3.565356e-05
0.0003039083
0.0005456499
0.0008307244
0.001128759
0.001470398
0.00187688
0.002321642
0.002782027
0.003298715
0.004331669
0.00475525
0.005156038
0.005498
0.005818182
0.006132859
0.006455397
0.006793344
0.007138114
0.007489473
0.007805772
0.008140691
0.008472226
0.008795575
0.009100561
0.009387912
0.009660007
0.009925026
0.01
0.01
0.01
0.01
0.01
0.01
0.01
0.01
0.01
0.01
0.01
0.01
0.01
0.01
0.01
0.01
0.01
0.01
0.01
0.01
0.01
0.01
0.01
0.01
0.01
0.01
0.01
0.01
0.01
0.01
0.01
0.01
0.01
0.01
0.01
0.01
0.01
0.01
0.01
0.01
0.01
0.01
0.01
0.01
0.01
0.01
0.01
0.01
0.01
0.01
0.01
0.01
0.01
0.01
0.01
0.01
0.01
0.01
0.01
0.01
0.01
0.01
0.01
0.01
0.01
0.01
0.01
0.01
0.01
0.01
0.01
0.01
0.01
0.01
0.01
0.01
0.01
0.01
0.01
0.01
0.01
0.01
0.01
0.01
0.01
0.01
0.01
0.01
0.01
0.01
0.01
0.01
0.01
0.01
0.01
0.01
0.01
0.01
0.01
0.01
0.01
0.01
0.01
0.01
0.01
0.01
0.01
0.01
0.01
0.01
0.01
0.01
0.01
0.01
0.01
0.01
0.01
0.01
0.01
0.01
0.01
0.01
0.01
0.01
0.01
0.01
0.01
0.01
0.01
0.01
0.01
0.01
0.01
0.01
0.01
0.01
0.01
0.01
0.01
0.01
0.01
0.01
0.01
0.01
0.01
0.01
0.01
0.01
0.01
0.01
0.01
0.01
0.01
0.01
0.01
0.01
0.01
0.01
0.01
0.01
0.01
0.01
0.01
0.01
0.01
0.01
0.01
0.01
0.01
0.01
0.01
0.01
0.01
0.01
0.01
0.01
0.01
0.01
0.01
0.01
0.01
0.01
0.01
0.01
0.01
0.01
0.01
0.01
0.01
0.01
0.01
0.01
0.01
0.01
0.01
0.01
0.01
0.01
0.01
0.01
0.01
0.01
0.01
0.01
0.01
0.01
0.01
0.01
0.01
0.01
0.01
0.01
0.01
0.01
0.01
0.01
0.01
0.01
0.01
0.01
0.01
0.01
0.01
0.01
0.01
0.01
0.01
0.01
0.01
0.01
0.01
0.01
0.01
0.01
0.01
0.01
0.01
0.01
0.01
0.01
0.01
0.01
0.01
0.01
0.01
0.01
0.01
0.01
0.01
0.01
0.01
0.01
0.01
0.01
0.01
0.01
0.01
0.01
0.01
0.01
0.01
0.01
0.01
0.01
0.01
0.01
0.01
0.01
0.01
0.01
0.01
0.01
0.01
0.01
0.01
0.01
0.01
0.01
0.01
0.01
0.01
0.01
0.01
0.01
0.01
0.01
0.01
0.01
0.01
0.01
0.01
0.01
0.01
0.01
0.01
0.01
0.01
0.01
0.01
0.01
0.01
0.01
0.01
0.01
0.01
0.01
0.01
0.01
0.01
0.01
0.01
0.01
0.01
0.01
0.01
0.01
0.01
0.01
0.01
0.01
0.01
0.01
0.01
0.01
0.01
0.01
0.01
0.01
0.01
0.01
0.01
0.01
0.01
0.01
0.01
0.01
0.01
0.01
0.01
0.01
0.01
0.01
0.01
0.01
0.01
0.01
0.01
0.01
0.01
0.01
0.01
0.01
0.01
0.01
0.01
0.01
0.01
0.01
0.01
0.01
0.01
0.01
0.01
0.01
0.01
0.01
0.01
0.01
0.01
0.01
0.01
0.01
0.01
0.01
0.01
0.01
0.01
0.01
0.01
0.01
0.01
0.01
0.01
0.01
0.01
0.01
0.01
0.01
0.01
0.01
0.01
0.01
0.01
0.01
0.01
0.01
0.01
0.01
0.01
0.01
0.01
0.01
0.01
0.01
0.01
0.01
0.01
0.01
0.01
0.01
0.01
0.01
0.01
0.01
0.01
0.01
0.01
0.01
0.01
0.01
0.01
0.01
0.01
0.01
0.01
0.01
0.01
0.01
0.01
0.01
0.01
0.01
0.01
0.01
0.01
0.01
0.01
0.01
0.01
0.01
0.01
0.01
0.01
0.01
0.01
0.01
0.01
0.01
0.01
0.01
0.01
0.01
0.01
0.01
0.01
0.01
0.01
0.01
0.01
0.01
0.01
3.578395e-05
0.000656798
0.001502683
0.002096137
0.002680903
0.003243293
0.003764184
0.00422827
0.004628198
0.00496019
0.005220411
0.005449655
0.005642029
0.005826744
0.006026238
0.006251831
0.006516399
0.006831002
0.006974171
0.007122526
0.007380287
0.007738625
0.008341771
0.009145039
0.009586453
0.009960923
0.01
0.01
0.01
0.01
0.01
0.01
0.01
0.01
0.01
0.01
0.01
0.01
0.01
0.01
0.01
0.01
0.01
0.01
0.01
0.01
0.01
0.01
0.01
0.01
0.01
0.01
0.01
0.01
0.01
0.01
0.01
0.01
0.01
0.01
0.01
0.01
0.01
0.01
0.01
0.01
0.01
0.01
0.01
0.01
0.01
0.01
0.01
0.01
0.01
0.01
0.01
0.01
0.01
0.01
0.01
0.01
0.01
0.01
0.01
0.01
0.01
0.01
0.01
0.01
0.01
0.01
0.01
0.01
0.01
0.01
0.01
0.01
0.01
0.01
0.01
0.01
0.01
0.01
0.01
0.01
0.01
0.01
0.01
0.01
0.01
0.01
0.01
0.01
0.01
0.01
0.01
0.01
0.01
0.01
0.01
0.01
0.01
0.01
0.01
0.01
0.01
0.01
0.01
0.01
0.01
0.01
0.01
0.01
0.01
0.01
0.01
0.01
0.01
0.01
0.01
0.01
0.01
0.01
0.01
0.01
0.01
0.01
0.01
0.01
0.01
0.01
0.01
0.01
0.01
0.01
0.01
0.01
0.01
0.01
0.01
0.01
0.01
0.01
0.01
0.01
0.01
0.01
0.01
0.01
0.01
0.01
0.01
0.01
0.01
0.01
0.01
0.01
0.01
0.01
0.01
0.01
0.01
0.01
0.01
0.01
0.01
0.01
0.01
0.01
0.01
0.01
0.01
0.01
0.01
0.01
0.01
0.01
0.01
0.01
0.01
0.01
0.01
0.01
0.01
0.01
0.01
0.01
0.01
0.01
0.01
0.01
0.01
0.01
0.01
0.01
0.01
0.01
0.01
0.01
0.01
0.01
0.01
0.01
0.01
0.01
0.01
0.01
0.01
0.01
0.01
0.01
0.01
0.01
0.01
0.01
0.01
0.01
0.01
0.01
0.01
0.01
0.01
0.01
0.01
0.01
0.01
0.01
0.01
0.01
0.01
0.01
0.01
0.01
0.01
0.01
0.01
0.01
0.01
0.01
0.01
0.01
0.01
0.01
0.01
0.01
0.01
0.01
0.01
0.01
0.01
0.01
0.01
0.01
0.01
0.01
0.01
0.01
0.01
0.01
0.01
0.01
0.01
0.01
0.01
0.01
0.01
0.01
0.01
0.01
0.01
0.01
0.01
0.01
0.01
0.01
0.01
0.01
0.01
0.01
0.01
0.01
0.01
0.01
0.01
0.01
0.01
0.01
0.01
0.01
0.01
0.01
0.01
0.01
0.01
0.01
0.01
0.01
0.01
0.01
0.01
0.01
0.01
0.01
0.01
0.01
0.01
0.01
0.01
0.01
0.01
0.01
0.01
0.01
0.01
0.01
0.01
0.01
0.01
0.01
0.01
0.01
0.01
0.01
0.01
0.01
0.01
0.01
0.01
0.01
0.01
0.01
0.01
0.01
0.01
0.01
0.01
0.01
0.01
0.01
0.01
0.01
0.01
0.01
0.01
0.01
0.01
0.01
0.01
0.01
0.01
0.01
0.01
0.01
0.01
0.01
0.01
0.01
0.01
0.01
0.01
0.01
0.01
0.01
0.01
0.01
0.01
0.01
0.01
0.01
0.01
0.01
0.01
0.01
0.01
0.01
0.01
0.01
0.01
0.01
0.01
0.01
0.01
0.01
0.01
0.01
0.01
0.01
0.01
0.01
0.01
0.01
0.01
0.01
0.01
0.01
0.01
0.01
0.01
0.01
0.01
0.01
0.01
0.01
0.01
0.01
0.01
0.01
0.01
0.01
0.01
0.01
0.01
0.01
0.01
0.01
0.01
0.01
0.01
0.01
0.01
0.01
0.01
0.01
0.01
0.01
0.01
0.01
0.01
0.01
0.01
0.01
0.01
0.01
0.01
0.01
0.01
0.01
0.01
0.01
0.01
0.01
0.01
0.01
0.01
0.01
0.01
0.01
0.01
0.01
0.01
0.01
0.01
0.01
0.01
0.01
0.01
0.01
0.01
0.01
0.01
0.01
0.01
0.01
0.01
0.01
0.01
0.01
0.01
1.688193e-05
2.50016e-05
3.717186e-05
0.0001533346
0.0002378735
0.0005091111
0.0006094575
0.00067209
0.0006709094
0.0006571286
0.000680783
0.000702646
0.0007142004
0.0006909163
0.00045138
7.922858e-05
1.13665e-05
3.175061e-05
0.0009254985
0.001849494
0.00254551
0.003209527
0.003803628
0.004303723
0.004697509
0.004981638
0.005160861
0.005249975
0.005298221