/*--------------------------------*- C++ -*----------------------------------*\
| =========                 |                                                 |
| \\      /  F ield         | foam-extend: Open Source CFD                    |
|  \\    /   O peration     | Version:     3.1                                |
|   \\  /    A nd           | Web:         http://www.extend-project.de       |
|    \\/     M anipulation  |                                                 |
\*---------------------------------------------------------------------------*/
FoamFile
{
    version     2.0;
    format      ascii;
    class       volScalarField;
    location    "1.5";
    object      p;
}
// * * * * * * * * * * * * * * * * * * * * * * * * * * * * * * * * * * * * * //

dimensions      [1 -1 -2 0 0 0 0];

internalField   nonuniform List<scalar> 
119952
(
6012.966
5981.34
5974.892
5986.267
6000.268
5999.193
6001.371
6003.87
6006.634
6009.565
6012.606
6015.721
6018.882
6022.074
6025.278
6028.471
6031.608
6034.573
6036.942
6036.483
6058.063
6052.939
6052.755
6078.44
6077.963
6082.862
6087.588
6096.076
6119.329
6303.089
5592.289
5596.744
5601.871
5607.195
5612.56
5618.005
5623.499
5629.062
5634.665
5638.686
5626.987
5629.835
5632.509
5635.192
5637.994
5640.904
5643.902
5646.974
5650.138
5624.308
5626.814
5630.052
5633.439
5636.949
5640.542
5644.215
5647.966
5651.798
5655.887
5659.605
5663.677
5667.742
5671.872
5676.061
5680.297
5684.554
5688.897
5694.358
5704.215
5703.889
5707.712
5713.377
5718.654
5722.341
5725.796
5729.325
5732.919
5736.593
5740.337
5744.102
5747.918
5751.758
5755.606
5759.441
5763.234
5766.947
5770.506
5773.993
5778.553
5782.548
5785.829
5792.334
5800.141
5805.083
5810.505
5816.107
5819.649
5813.402
5815.272
5819.628
5823.908
5828.073
5832.097
5836.014
5839.842
5843.592
5847.276
5850.899
5854.465
5857.979
5861.442
5864.855
5868.22
5871.538
5874.809
5878.034
5881.214
5884.348
5887.436
5890.48
5893.479
5896.433
5899.342
5902.206
5905.025
5907.8
5910.531
5913.217
5915.859
5918.458
5921.011
5923.521
5925.986
5928.408
5930.789
5933.125
5935.419
5937.67
5939.879
5942.046
5944.171
5946.253
5948.291
5950.282
5952.218
5954.091
5955.995
5957.926
5959.786
5961.625
5963.429
5965.189
5966.906
5968.585
5970.229
5971.841
5973.421
5974.969
5976.486
5977.973
5979.431
5980.86
5982.261
5983.634
5984.979
5986.298
5987.591
5988.859
5990.101
5991.319
5992.513
5993.682
5994.829
5995.958
5997.054
5998.135
5999.192
6000.227
6001.242
6002.237
6003.211
6004.165
6005.099
6006.014
6006.91
6007.786
6008.643
6009.482
6010.301
6011.101
6011.881
6012.642
6013.38
6014.092
6014.769
6015.399
6016.179
6047.993
6048.108
6048.912
6049.646
6050.328
6050.979
6051.607
6052.214
6052.803
6053.376
6053.933
6054.474
6055.002
6055.515
6056.013
6056.496
6056.965
6057.42
6057.86
6058.276
6058.68
6059.078
6059.453
6059.81
6060.146
6060.462
6060.753
6061.016
6061.248
6061.439
6061.576
6061.639
6061.6
6061.298
6060.479
6058.856
6060.475
6061.66
6062.615
6063.409
6064.115
6064.757
6065.346
6065.893
6066.403
6066.882
6067.334
6067.762
6068.167
6068.552
6068.919
6069.268
6069.6
6069.917
6070.219
6070.506
6070.779
6071.039
6071.285
6071.52
6071.741
6071.951
6072.149
6072.337
6072.514
6072.681
6072.841
6072.993
6073.12
6073.264
6045.773
6043.72
6043.016
6042.954
6042.884
6042.863
6042.865
6042.849
6042.832
6042.812
6042.782
6042.742
6042.692
6042.633
6042.563
6042.483
6042.393
6042.293
6042.183
6042.062
6041.932
6041.791
6041.641
6041.48
6041.311
6041.131
6040.942
6040.744
6040.537
6040.32
6040.095
6039.86
6039.617
6039.366
6039.107
6038.841
6038.567
6038.287
6038.003
6037.715
6037.427
6037.144
6036.874
6036.634
6036.442
6036.239
6035.718
6035.16
6034.636
6034.12
6033.613
6033.111
6032.611
6032.043
6030.803
6030.747
6030.3
6029.729
6029.154
6028.568
6027.981
6027.391
6026.797
6026.199
6025.595
6024.986
6024.371
6023.75
6023.123
6022.49
6021.851
6021.205
6020.554
6019.898
6019.236
6018.569
6017.897
6017.22
6016.539
6015.854
6015.164
6014.472
6013.775
6013.076
6012.373
6011.668
6010.961
6010.251
6009.54
6008.828
6008.114
6007.399
6006.684
6005.968
6005.252
6004.536
6003.821
6003.106
6002.392
6001.679
6000.967
6000.257
5999.548
5998.841
5998.136
5997.433
5996.732
5996.033
5995.337
5994.642
5993.95
5993.26
5992.572
5991.886
5991.201
5990.518
5989.835
5989.153
5988.47
5987.787
5987.101
5986.412
5985.718
5985.017
5984.306
5983.583
5982.843
5982.08
5981.287
5980.451
5979.555
5978.573
5977.459
5976.136
5974.462
5972.199
5969.317
5968.432
5979.817
5266.246
5272.322
5278.141
5284.096
5290.092
5296.115
5302.145
5308.159
5313.894
5302.544
5305.479
5308.21
5310.705
5313.203
5315.672
5318.097
5320.464
5322.749
5295.863
5297.466
5299.196
5301.114
5303.054
5304.962
5306.833
5308.673
5310.487
5312.324
5314.062
5315.775
5317.523
5319.243
5320.976
5322.731
5324.513
5326.33
5328.226
5330.156
5331.755
5333.839
5335.898
5337.974
5340.098
5342.291
5344.559
5346.91
5349.363
5351.878
5354.403
5357.008
5359.701
5362.49
5365.369
5368.34
5371.41
5374.62
5317.126
5320.474
5323.884
5327.339
5330.871
5334.487
5338.183
5341.959
5345.818
5349.766
5353.74
5357.751
5361.829
5365.985
5370.216
5374.53
5378.979
5383.61
5388.673
5393.925
5397.844
5401.859
5406.423
5410.972
5415.052
5418.835
5422.564
5426.314
5430.098
5433.914
5437.761
5441.633
5445.52
5449.413
5453.302
5457.179
5461.042
5464.916
5468.889
5473.127
5477.464
5481.897
5487.083
5492.724
5497.634
5502.07
5505.915
5508.526
5509.518
5511.563
5514.956
5518.776
5522.628
5526.451
5530.238
5533.98
5537.672
5541.314
5544.907
5548.452
5551.949
5555.399
5558.802
5562.158
5565.468
5568.731
5571.949
5575.121
5578.247
5581.328
5584.363
5587.354
5590.299
5593.2
5596.055
5598.867
5601.634
5604.356
5607.035
5609.67
5612.263
5614.808
5617.31
5619.769
5622.184
5624.557
5626.886
5629.173
5631.417
5633.618
5635.778
5637.896
5639.972
5642.006
5643.998
5645.95
5647.87
5649.778
5651.657
5653.477
5655.289
5657.077
5658.829
5660.541
5662.213
5663.856
5665.466
5667.043
5668.588
5670.102
5671.586
5673.04
5674.465
5675.861
5677.23
5678.572
5679.887
5681.176
5682.44
5683.679
5684.893
5686.083
5687.249
5688.392
5689.512
5690.609
5691.685
5692.74
5693.773
5694.786
5695.779
5696.751
5697.704
5698.637
5699.551
5700.446
5701.322
5702.179
5703.018
5703.838
5704.64
5705.422
5706.185
5706.928
5707.65
5708.353
5709.039
5709.751
5771.716
5772.253
5772.948
5773.627
5774.286
5774.928
5775.551
5776.157
5776.746
5777.319
5777.877
5778.419
5778.946
5779.459
5779.957
5780.44
5780.908
5781.362
5781.8
5782.222
5782.629
5783.02
5783.392
5783.746
5784.08
5784.392
5784.679
5784.938
5785.164
5785.349
5785.483
5785.546
5785.514
5785.354
5785.083
5784.95
5785.548
5786.37
5787.136
5787.84
5788.487
5789.086
5789.642
5790.163
5790.654
5791.117
5791.555
5791.971
5792.367
5792.744
5793.103
5793.446
5793.773
5794.084
5794.381
5794.664
5794.934
5795.19
5795.434
5795.665
5795.884
5796.091
5796.287
5796.472
5796.646
5796.812
5796.97
5797.124
5797.284
5797.496
5736.497
5736.533
5736.355
5736.276
5736.278
5736.286
5736.279
5736.266
5736.248
5736.221
5736.186
5736.142
5736.088
5736.026
5735.954
5735.871
5735.78
5735.678
5735.566
5735.444
5735.313
5735.171
5735.02
5734.859
5734.688
5734.508
5734.318
5734.119
5733.91
5733.692
5733.466
5733.23
5732.986
5732.734
5732.473
5732.205
5731.93
5731.649
5731.362
5731.072
5730.779
5730.487
5730.196
5729.906
5729.602
5729.253
5728.819
5728.338
5727.848
5727.357
5726.866
5726.376
5725.9
5725.419
5724.824
5724.216
5723.635
5723.055
5722.474
5721.89
5721.303
5720.712
5720.116
5719.513
5718.905
5718.291
5717.67
5717.044
5716.413
5715.775
5715.131
5714.482
5713.828
5713.168
5712.503
5711.832
5711.157
5710.478
5709.794
5709.106
5708.415
5707.719
5707.021
5706.319
5705.615
5704.908
5704.198
5703.487
5702.774
5702.06
5701.344
5700.627
5699.91
5699.193
5698.475
5697.758
5697.041
5696.324
5695.609
5694.895
5694.182
5693.471
5692.761
5692.053
5691.348
5690.644
5689.943
5689.243
5688.547
5687.852
5687.16
5686.469
5685.781
5685.095
5684.41
5683.726
5683.043
5682.36
5681.677
5680.992
5680.305
5679.614
5678.918
5678.215
5677.502
5676.777
5676.034
5675.269
5674.476
5673.645
5672.764
5671.817
5670.787
5669.656
5668.44
5667.25
5666.517
5666.604
5668.224
5110.907
5105.829
5100.652
5095.741
5091.081
5086.736
5082.728
5079.102
5075.837
5071.461
5051.529
5046.598
5041.73
5037.322
5033.359
5029.821
5026.684
5023.921
5021.508
4989.837
4987.36
4985.928
4984.866
4984.158
4983.766
4983.678
4983.877
4984.36
4985.272
4986.017
4987.265
4988.655
4990.248
4992.031
4993.99
4996.107
4998.375
5000.881
5003.048
5005.576
5008.288
5010.98
5013.685
5016.412
5019.156
5021.91
5024.675
5027.442
5030.093
5032.704
5035.256
5037.775
5040.247
5042.667
5045.035
5047.366
4988.842
4990.981
4993.057
4995.079
4997.044
4998.964
5000.844
5002.692
5004.516
5006.324
5008.118
5009.839
5011.545
5013.257
5014.984
5016.729
5018.5
5020.305
5022.154
5024.035
5025.895
5027.82
5029.818
5031.877
5033.997
5036.185
5038.447
5040.787
5043.21
5045.695
5048.238
5050.861
5053.569
5056.366
5059.25
5062.222
5065.281
5068.432
5071.62
5074.895
5078.262
5081.712
5085.245
5088.858
5092.549
5096.315
5100.156
5104.071
5108.036
5112.059
5116.154
5120.324
5124.572
5128.909
5133.36
5137.922
5142.583
5147.262
5151.496
5155.676
5160.043
5164.372
5168.46
5172.374
5176.243
5180.112
5183.992
5187.887
5191.798
5195.725
5199.664
5203.611
5207.563
5211.523
5215.501
5219.522
5223.631
5227.901
5232.293
5236.797
5241.568
5246.387
5250.849
5254.893
5258.446
5261.397
5263.697
5266.488
5269.971
5273.677
5277.412
5281.147
5284.87
5288.566
5292.226
5295.846
5299.423
5302.957
5306.447
5309.892
5313.293
5316.648
5319.957
5323.222
5326.441
5329.614
5332.742
5335.825
5338.862
5341.854
5344.802
5347.704
5350.561
5353.374
5356.143
5358.868
5361.548
5364.183
5366.774
5369.324
5371.829
5374.291
5376.709
5379.084
5381.415
5383.704
5385.95
5388.155
5390.317
5392.438
5394.518
5396.558
5398.559
5400.523
5402.453
5404.358
5406.234
5408.069
5409.874
5411.65
5413.39
5415.094
5416.75
5418.397
5420.01
5421.589
5423.135
5424.65
5426.135
5427.59
5429.016
5430.414
5431.784
5433.126
5434.442
5435.732
5436.996
5438.235
5439.45
5440.64
5441.807
5442.95
5444.071
5445.168
5446.242
5447.298
5448.332
5449.345
5450.338
5451.311
5452.264
5453.198
5454.113
5455.009
5455.886
5456.744
5457.584
5458.406
5459.21
5459.995
5460.762
5461.51
5462.242
5462.958
5463.661
5464.362
5465.097
5465.792
5466.463
5467.122
5467.769
5468.399
5469.014
5469.613
5470.198
5470.766
5471.32
5471.86
5472.384
5472.894
5473.39
5473.871
5474.337
5474.788
5475.224
5475.644
5476.048
5476.436
5476.806
5477.158
5477.489
5477.799
5478.086
5478.347
5478.577
5478.774
5478.933
5479.049
5479.123
5479.173
5479.244
5479.457
5479.902
5480.491
5481.107
5481.707
5482.28
5482.825
5483.343
5483.834
5484.3
5484.744
5485.166
5485.569
5485.954
5486.321
5486.672
5487.007
5487.327
5487.632
5487.924
5488.201
5488.466
5488.718
5488.957
5489.184
5489.399
5489.602
5489.794
5489.974
5490.145
5490.305
5490.456
5490.598
5490.731
5490.854
5490.907
5490.858
5490.868
5490.927
5490.984
5491.018
5491.033
5491.033
5491.023
5491.002
5490.97
5490.928
5490.876
5490.814
5490.741
5490.659
5490.567
5490.465
5490.353
5490.231
5490.099
5489.957
5489.806
5489.645
5489.474
5489.293
5489.103
5488.903
5488.694
5488.476
5488.249
5488.013
5487.768
5487.515
5487.253
5486.984
5486.708
5486.424
5486.135
5485.84
5485.539
5485.234
5484.923
5484.601
5484.26
5483.886
5483.463
5483.004
5482.531
5482.052
5481.569
5481.08
5480.589
5480.087
5479.561
5478.986
5478.395
5477.807
5477.223
5476.64
5476.056
5475.467
5474.872
5474.271
5473.663
5473.049
5472.429
5471.802
5471.169
5470.531
5469.886
5469.235
5468.579
5467.918
5467.251
5466.58
5465.903
5465.223
5464.537
5463.848
5463.155
5462.458
5461.758
5461.055
5460.349
5459.641
5458.93
5458.217
5457.503
5456.787
5456.07
5455.351
5454.633
5453.914
5453.194
5452.475
5451.757
5451.039
5450.322
5449.606
5448.892
5448.179
5447.469
5446.76
5446.053
5445.348
5444.646
5443.946
5443.248
5442.553
5441.86
5441.169
5440.48
5439.794
5439.108
5438.424
5437.741
5437.058
5436.375
5435.691
5435.004
5434.314
5433.62
5432.918
5432.208
5431.487
5430.752
5429.998
5429.221
5428.416
5427.579
5426.705
5425.797
5424.871
5423.974
5423.197
5422.716
5422.679
5423.121
4907.152
4923.553
4927.968
4918.48
4916.176
4881.853
4877.867
4873.571
4870.045
4866.336
4859.528
4851.738
4843.321
4835.126
4827.312
4819.572
4812.045
4804.815
4797.926
4791.405
4785.273
4779.571
4774.258
4769.264
4764.644
4760.426
4756.605
4753.172
4750.122
4747.455
4745.187
4681.183
4679.642
4678.427
4677.504
4676.899
4676.598
4676.593
4676.873
4677.431
4678.259
4679.292
4680.52
4681.962
4683.612
4685.453
4687.465
4689.634
4691.946
4694.39
4696.885
4699.441
4702.092
4704.806
4707.557
4710.331
4713.117
4715.906
4718.686
4721.443
4724.136
4726.779
4729.373
4731.917
4734.405
4736.833
4739.199
4741.517
4743.762
4745.899
4747.973
4750.011
4751.995
4753.928
4755.813
4757.658
4759.469
4761.251
4763.006
4764.723
4766.428
4768.134
4769.847
4771.576
4773.324
4775.1
4776.907
4778.744
4780.599
4782.508
4784.481
4786.515
4788.611
4790.775
4793.011
4795.322
4797.708
4800.166
4802.696
4805.306
4808
4810.783
4813.652
4816.609
4819.65
4822.777
4825.975
4829.252
4832.619
4836.072
4839.604
4843.216
4846.905
4850.669
4854.506
4858.413
4862.382
4866.416
4870.518
4874.691
4878.937
4883.257
4887.658
4892.13
4896.637
4901.13
4905.445
4909.711
4914.015
4918.272
4922.401
4926.429
4930.412
4934.378
4938.341
4942.306
4946.28
4950.262
4954.252
4958.25
4962.257
4966.277
4970.321
4974.407
4978.562
4982.815
4987.151
4991.567
4996.082
5000.54
5004.8
5008.78
5012.434
5015.697
5018.664
5021.829
5025.245
5028.84
5032.497
5036.173
5039.849
5043.509
5047.141
5050.741
5054.303
5057.825
5061.306
5064.744
5068.14
5071.491
5074.798
5078.06
5081.278
5084.45
5087.578
5090.66
5093.697
5096.689
5099.636
5102.538
5105.396
5108.208
5110.977
5113.7
5116.38
5119.015
5121.606
5124.153
5126.657
5129.117
5131.534
5133.908
5136.238
5138.526
5140.772
5142.976
5145.139
5147.261
5149.342
5151.384
5153.387
5155.354
5157.287
5159.189
5161.059
5162.893
5164.695
5166.465
5168.203
5169.91
5171.596
5173.225
5174.824
5176.392
5177.93
5179.439
5180.918
5182.367
5183.789
5185.182
5186.548
5187.887
5189.199
5190.485
5191.746
5192.982
5194.194
5195.381
5196.545
5197.686
5198.803
5199.897
5200.963
5202.02
5203.055
5204.068
5205.06
5206.032
5206.984
5207.917
5208.831
5209.725
5210.602
5211.459
5212.299
5213.121
5213.924
5214.71
5215.479
5216.23
5216.966
5217.688
5218.397
5219.098
5219.798
5220.476
5221.14
5221.794
5222.435
5223.06
5223.671
5224.267
5224.849
5225.416
5225.969
5226.508
5227.032
5227.542
5228.037
5228.519
5228.985
5229.437
5229.874
5230.295
5230.701
5231.091
5231.463
5231.817
5232.153
5232.468
5232.762
5233.033
5233.279
5233.499
5233.692
5233.861
5234.014
5234.182
5234.392
5234.691
5235.114
5235.627
5236.168
5236.707
5237.232
5237.74
5238.229
5238.699
5239.149
5239.579
5239.992
5240.386
5240.764
5241.126
5241.472
5241.804
5242.121
5242.424
5242.713
5242.989
5243.252
5243.502
5243.74
5243.966
5244.179
5244.381
5244.572
5244.751
5244.919
5245.076
5245.222
5245.355
5245.474
5245.573
5245.631
5245.657
5245.695
5245.74
5245.778
5245.803
5245.816
5245.817
5245.808
5245.788
5245.757
5245.716
5245.665
5245.604
5245.532
5245.451
5245.359
5245.257
5245.145
5245.023
5244.891
5244.749
5244.598
5244.436
5244.265
5244.084
5243.894
5243.694
5243.484
5243.266
5243.038
5242.801
5242.556
5242.301
5242.039
5241.768
5241.489
5241.203
5240.909
5240.609
5240.3
5239.984
5239.657
5239.317
5238.958
5238.573
5238.154
5237.71
5237.249
5236.778
5236.299
5235.811
5235.314
5234.809
5234.282
5233.721
5233.145
5232.567
5231.99
5231.411
5230.827
5230.239
5229.644
5229.044
5228.436
5227.822
5227.202
5226.575
5225.942
5225.302
5224.657
5224.006
5223.349
5222.687
5222.02
5221.347
5220.67
5219.988
5219.302
5218.611
5217.917
5217.219
5216.518
5215.814
5215.107
5214.397
5213.685
5212.971
5212.256
5211.538
5210.82
5210.101
5209.381
5208.661
5207.94
5207.22
5206.501
5205.782
5205.064
5204.348
5203.632
5202.919
5202.207
5201.498
5200.79
5200.085
5199.382
5198.682
5197.984
5197.289
5196.596
5195.905
5195.217
5194.531
5193.846
5193.164
5192.482
5191.801
5191.12
5190.439
5189.757
5189.072
5188.383
5187.69
5186.99
5186.282
5185.563
5184.831
5184.084
5183.321
5182.541
5181.747
5180.948
5180.165
5179.436
5178.819
5178.397
5178.23
5178.223
4364.259
4417.062
4468.747
4494.11
4527.838
4527.353
4552.826
4573.128
4591.186
4604.507
4615.33
4622.302
4627.245
4630.194
4631.228
4630.405
4564.434
4562.336
4558.892
4554.668
4549.686
4543.473
4536.476
4529.149
4521.762
4514.43
4507.217
4500.194
4493.426
4486.959
4480.822
4475.038
4469.624
4464.564
4459.85
4455.497
4451.514
4447.898
4444.647
4441.756
4439.22
4437.029
4435.131
4433.58
4432.365
4431.467
4430.882
4430.597
4430.602
4430.887
4431.442
4432.254
4433.291
4434.547
4436.021
4437.701
4439.571
4441.613
4443.812
4446.148
4448.605
4451.143
4453.758
4456.458
4459.22
4462.02
4464.845
4467.681
4470.515
4473.333
4476.122
4478.862
4481.551
4484.188
4486.768
4489.287
4491.74
4494.124
4496.441
4498.683
4500.831
4502.917
4504.951
4506.928
4508.848
4510.718
4512.544
4514.331
4516.084
4517.808
4519.506
4521.191
4522.873
4524.56
4526.259
4527.977
4529.72
4531.492
4533.296
4535.135
4537.026
4538.975
4540.984
4543.059
4545.203
4547.419
4549.71
4552.077
4554.521
4557.042
4559.645
4562.333
4565.108
4567.971
4570.921
4573.957
4577.079
4580.281
4583.566
4586.937
4590.392
4593.926
4597.54
4601.231
4604.998
4608.837
4612.745
4616.719
4620.758
4624.862
4629.031
4633.265
4637.563
4641.919
4646.326
4650.758
4655.181
4659.524
4663.822
4668.112
4672.364
4676.542
4680.652
4684.719
4688.764
4692.797
4696.827
4700.858
4704.892
4708.932
4712.978
4717.033
4721.101
4725.19
4729.311
4733.478
4737.704
4741.98
4746.295
4750.638
4754.933
4759.09
4763.045
4766.77
4770.259
4773.578
4776.935
4780.415
4783.996
4787.626
4791.274
4794.923
4798.56
4802.173
4805.757
4809.308
4812.821
4816.295
4819.728
4823.119
4826.467
4829.772
4833.033
4836.249
4839.42
4842.547
4845.628
4848.665
4851.656
4854.603
4857.504
4860.361
4863.172
4865.939
4868.662
4871.34
4873.973
4876.562
4879.108
4881.609
4884.067
4886.481
4888.853
4891.181
4893.467
4895.711
4897.913
4900.073
4902.193
4904.273
4906.314
4908.317
4910.284
4912.215
4914.113
4915.978
4917.808
4919.605
4921.369
4923.101
4924.801
4926.471
4928.103
4929.702
4931.269
4932.806
4934.313
4935.789
4937.237
4938.656
4940.047
4941.411
4942.747
4944.058
4945.342
4946.601
4947.835
4949.045
4950.23
4951.393
4952.532
4953.649
4954.745
4955.826
4956.873
4957.901
4958.909
4959.898
4960.866
4961.816
4962.746
4963.657
4964.55
4965.425
4966.281
4967.119
4967.94
4968.743
4969.529
4970.298
4971.051
4971.788
4972.512
4973.222
4973.921
4974.609
4975.284
4975.947
4976.599
4977.236
4977.856
4978.467
4979.062
4979.643
4980.209
4980.761
4981.299
4981.823
4982.333
4982.828
4983.31
4983.777
4984.23
4984.668
4985.091
4985.498
4985.891
4986.267
4986.626
4986.968
4987.291
4987.596
4987.881
4988.146
4988.393
4988.624
4988.844
4989.061
4989.282
4989.542
4989.866
4990.266
4990.723
4991.208
4991.699
4992.187
4992.665
4993.131
4993.581
4994.016
4994.434
4994.837
4995.224
4995.596
4995.953
4996.295
4996.623
4996.937
4997.237
4997.524
4997.798
4998.059
4998.308
4998.545
4998.769
4998.981
4999.182
4999.37
4999.548
4999.713
4999.867
5000.009
5000.137
5000.251
5000.349
5000.423
5000.475
5000.518
5000.555
5000.586
5000.607
5000.618
5000.619
5000.609
5000.589
5000.558
5000.517
5000.466
5000.405
5000.333
5000.251
5000.159
5000.057
4999.945
4999.822
4999.69
4999.548
4999.396
4999.234
4999.063
4998.882
4998.691
4998.49
4998.281
4998.061
4997.833
4997.595
4997.349
4997.093
4996.829
4996.556
4996.275
4995.986
4995.688
4995.382
4995.066
4994.741
4994.404
4994.054
4993.685
4993.295
4992.88
4992.444
4991.992
4991.526
4991.05
4990.562
4990.064
4989.554
4989.026
4988.476
4987.915
4987.347
4986.775
4986.198
4985.615
4985.027
4984.432
4983.831
4983.223
4982.609
4981.988
4981.361
4980.727
4980.087
4979.441
4978.789
4978.131
4977.468
4976.8
4976.126
4975.448
4974.765
4974.078
4973.386
4972.691
4971.992
4971.289
4970.584
4969.875
4969.164
4968.451
4967.736
4967.019
4966.3
4965.581
4964.86
4964.139
4963.418
4962.696
4961.975
4961.254
4960.534
4959.816
4959.098
4958.382
4957.668
4956.955
4956.245
4955.537
4954.831
4954.128
4953.427
4952.729
4952.034
4951.342
4950.652
4949.964
4949.279
4948.596
4947.916
4947.237
4946.559
4945.882
4945.205
4944.529
4943.851
4943.171
4942.488
4941.801
4941.109
4940.411
4939.706
4938.993
4938.274
4937.549
4936.825
4936.112
4935.428
4934.798
4934.258
4933.847
4933.586
4933.408
3939.043
3943.403
3945.579
3940.152
3950.209
3937.141
3958.639
3985.283
4016.694
4051.626
4088.174
4125.539
4162.938
4199.131
4232.301
4206.406
4233.535
4254.994
4273.023
4287.527
4299.274
4308.101
4313.996
4317.42
4318.589
4317.682
4314.356
4311.666
4308.19
4303.835
4298.713
4292.759
4286.209
4279.344
4272.365
4265.403
4258.531
4251.818
4245.325
4239.098
4233.171
4227.567
4222.303
4217.379
4212.797
4208.565
4204.687
4201.163
4197.99
4195.163
4192.678
4190.527
4188.693
4187.185
4186.004
4185.137
4184.577
4184.316
4184.344
4184.654
4185.232
4186.068
4187.142
4188.446
4189.968
4191.697
4193.618
4195.713
4197.964
4200.355
4202.864
4205.469
4208.158
4210.922
4213.741
4216.597
4219.476
4222.362
4225.241
4228.1
4230.926
4233.705
4236.43
4239.097
4241.701
4244.237
4246.702
4249.092
4251.406
4253.64
4255.793
4257.876
4259.895
4261.852
4263.75
4265.595
4267.393
4269.149
4270.871
4272.563
4274.233
4275.888
4277.538
4279.193
4280.858
4282.542
4284.251
4285.991
4287.767
4289.583
4291.45
4293.374
4295.36
4297.413
4299.536
4301.732
4304.005
4306.357
4308.787
4311.299
4313.895
4316.577
4319.347
4322.205
4325.152
4328.186
4331.307
4334.511
4337.801
4341.175
4344.632
4348.171
4351.789
4355.485
4359.255
4363.098
4367.011
4370.989
4375.031
4379.136
4383.303
4387.528
4391.807
4396.136
4400.502
4404.889
4409.272
4413.618
4417.932
4422.225
4426.489
4430.704
4434.872
4439.005
4443.115
4447.211
4451.3
4455.386
4459.471
4463.56
4467.652
4471.751
4475.86
4479.985
4484.132
4488.308
4492.517
4496.753
4501.002
4505.247
4509.443
4513.535
4517.482
4521.267
4524.898
4528.416
4531.921
4535.474
4539.078
4542.708
4546.348
4549.985
4553.609
4557.211
4560.785
4564.328
4567.835
4571.305
4574.734
4578.123
4581.469
4584.773
4588.032
4591.248
4594.419
4597.546
4600.627
4603.664
4606.655
4609.601
4612.503
4615.359
4618.17
4620.936
4623.658
4626.334
4628.967
4631.555
4634.098
4636.598
4639.054
4641.467
4643.836
4646.163
4648.447
4650.688
4652.889
4655.048
4657.166
4659.245
4661.285
4663.287
4665.252
4667.181
4669.076
4670.937
4672.763
4674.556
4676.315
4678.042
4679.736
4681.399
4683.027
4684.623
4686.187
4687.721
4689.224
4690.697
4692.142
4693.558
4694.945
4696.306
4697.639
4698.946
4700.228
4701.483
4702.715
4703.921
4705.104
4706.263
4707.4
4708.514
4709.607
4710.68
4711.729
4712.756
4713.763
4714.75
4715.718
4716.666
4717.594
4718.504
4719.396
4720.269
4721.124
4721.962
4722.782
4723.584
4724.37
4725.14
4725.894
4726.632
4727.356
4728.067
4728.766
4729.452
4730.127
4730.788
4731.437
4732.073
4732.697
4733.303
4733.895
4734.474
4735.039
4735.59
4736.127
4736.651
4737.161
4737.656
4738.138
4738.606
4739.06
4739.5
4739.925
4740.336
4740.731
4741.112
4741.477
4741.826
4742.158
4742.475
4742.775
4743.06
4743.331
4743.589
4743.841
4744.094
4744.359
4744.651
4744.984
4745.366
4745.788
4746.234
4746.691
4747.149
4747.602
4748.046
4748.479
4748.9
4749.307
4749.7
4750.08
4750.445
4750.796
4751.134
4751.458
4751.768
4752.066
4752.351
4752.623
4752.882
4753.129
4753.364
4753.587
4753.797
4753.996
4754.183
4754.358
4754.522
4754.673
4754.811
4754.937
4755.048
4755.144
4755.222
4755.281
4755.328
4755.368
4755.399
4755.42
4755.432
4755.432
4755.422
4755.402
4755.371
4755.33
4755.279
4755.217
4755.145
4755.062
4754.97
4754.868
4754.755
4754.632
4754.5
4754.357
4754.205
4754.043
4753.871
4753.689
4753.498
4753.297
4753.086
4752.866
4752.637
4752.399
4752.151
4751.894
4751.628
4751.353
4751.069
4750.777
4750.475
4750.164
4749.843
4749.511
4749.166
4748.808
4748.434
4748.04
4747.627
4747.195
4746.747
4746.286
4745.812
4745.326
4744.828
4744.317
4743.791
4743.25
4742.697
4742.135
4741.566
4740.991
4740.41
4739.822
4739.227
4738.626
4738.018
4737.403
4736.781
4736.153
4735.519
4734.878
4734.231
4733.578
4732.919
4732.255
4731.585
4730.91
4730.23
4729.546
4728.857
4728.164
4727.467
4726.767
4726.063
4725.355
4724.645
4723.933
4723.218
4722.501
4721.782
4721.062
4720.341
4719.619
4718.896
4718.173
4717.45
4716.728
4716.006
4715.285
4714.564
4713.846
4713.128
4712.413
4711.699
4710.988
4710.279
4709.573
4708.869
4708.168
4707.47
4706.775
4706.083
4705.393
4704.707
4704.023
4703.342
4702.664
4701.987
4701.313
4700.64
4699.969
4699.298
4698.628
4697.958
4697.286
4696.614
4695.939
4695.262
4694.584
4693.903
4693.224
4692.548
4691.882
4691.235
4690.622
4690.061
4689.574
4689.18
4688.887
4688.649
3797.754
3748.544
3723.373
3699.982
3681.23
3668.525
3661.036
3658.959
3662.13
3670.465
3626.163
3646.853
3672.343
3702.881
3737.701
3775.365
3814.437
3853.562
3890.872
3924.8
3952.743
3978.987
4000.77
4019.237
4034.792
4047.669
4057.424
4063.935
4067.763
4069.384
4069.102
4067.227
4064.676
4061.123
4056.606
4051.279
4045.277
4038.797
4032.025
4025.125
4018.22
4011.395
4004.722
3998.262
3992.061
3986.156
3980.57
3975.319
3970.412
3965.853
3961.646
3957.795
3954.297
3951.15
3948.35
3945.891
3943.768
3941.971
3940.498
3939.349
3938.514
3937.986
3937.758
3937.824
3938.172
3938.794
3939.676
3940.805
3942.168
3943.754
3945.549
3947.537
3949.702
3952.026
3954.491
3957.076
3959.762
3962.532
3965.372
3968.264
3971.19
3974.134
3977.081
3980.016
3982.926
3985.797
3988.619
3991.381
3994.08
3996.708
3999.261
4001.737
4004.132
4006.445
4008.675
4010.823
4012.894
4014.895
4016.828
4018.7
4020.514
4022.279
4024
4025.685
4027.339
4028.971
4030.589
4032.201
4033.816
4035.443
4037.088
4038.759
4040.462
4042.203
4043.988
4045.825
4047.72
4049.678
4051.704
4053.802
4055.976
4058.228
4060.56
4062.976
4065.475
4068.061
4070.734
4073.498
4076.351
4079.294
4082.326
4085.446
4088.653
4091.946
4095.325
4098.788
4102.332
4105.957
4109.659
4113.436
4117.286
4121.204
4125.189
4129.237
4133.345
4137.512
4141.732
4146.002
4150.313
4154.657
4159.019
4163.382
4167.729
4172.055
4176.363
4180.645
4184.895
4189.11
4193.298
4197.465
4201.618
4205.762
4209.899
4214.035
4218.169
4222.305
4226.444
4230.59
4234.746
4238.915
4243.099
4247.299
4251.509
4255.717
4259.905
4264.045
4268.103
4272.055
4275.889
4279.615
4283.257
4286.869
4290.489
4294.124
4297.769
4301.413
4305.048
4308.667
4312.265
4315.834
4319.373
4322.877
4326.343
4329.771
4333.158
4336.504
4339.807
4343.066
4346.282
4349.453
4352.58
4355.661
4358.698
4361.689
4364.636
4367.537
4370.392
4373.203
4375.968
4378.689
4381.365
4383.996
4386.582
4389.124
4391.622
4394.076
4396.487
4398.854
4401.178
4403.46
4405.7
4407.898
4410.055
4412.171
4414.248
4416.286
4418.286
4420.249
4422.175
4424.067
4425.923
4427.745
4429.534
4431.288
4433.01
4434.699
4436.356
4437.979
4439.571
4441.131
4442.66
4444.159
4445.628
4447.069
4448.481
4449.865
4451.221
4452.551
4453.855
4455.133
4456.385
4457.613
4458.816
4459.996
4461.152
4462.286
4463.397
4464.487
4465.556
4466.602
4467.628
4468.633
4469.618
4470.583
4471.529
4472.456
4473.364
4474.253
4475.125
4475.979
4476.815
4477.634
4478.436
4479.221
4479.99
4480.744
4481.483
4482.207
4482.918
4483.615
4484.3
4484.972
4485.632
4486.278
4486.911
4487.531
4488.137
4488.728
4489.306
4489.87
4490.421
4490.958
4491.481
4491.991
4492.487
4492.97
4493.439
4493.894
4494.335
4494.763
4495.177
4495.576
4495.961
4496.332
4496.688
4497.03
4497.358
4497.672
4497.973
4498.264
4498.547
4498.826
4499.108
4499.401
4499.714
4500.055
4500.428
4500.83
4501.251
4501.681
4502.115
4502.547
4502.973
4503.39
4503.798
4504.194
4504.577
4504.949
4505.307
4505.653
4505.986
4506.306
4506.613
4506.907
4507.189
4507.459
4507.716
4507.961
4508.195
4508.416
4508.625
4508.822
4509.007
4509.18
4509.342
4509.49
4509.627
4509.75
4509.859
4509.954
4510.033
4510.097
4510.148
4510.19
4510.222
4510.244
4510.255
4510.256
4510.246
4510.225
4510.194
4510.153
4510.101
4510.039
4509.967
4509.884
4509.791
4509.689
4509.576
4509.453
4509.32
4509.177
4509.024
4508.861
4508.689
4508.507
4508.315
4508.113
4507.902
4507.681
4507.451
4507.211
4506.962
4506.704
4506.436
4506.159
4505.873
4505.577
4505.272
4504.956
4504.63
4504.293
4503.943
4503.579
4503.2
4502.804
4502.391
4501.961
4501.516
4501.057
4500.585
4500.1
4499.603
4499.093
4498.57
4498.034
4497.486
4496.929
4496.363
4495.79
4495.21
4494.623
4494.028
4493.427
4492.818
4492.203
4491.581
4490.952
4490.316
4489.674
4489.026
4488.372
4487.712
4487.046
4486.375
4485.698
4485.017
4484.331
4483.64
4482.946
4482.247
4481.544
4480.838
4480.129
4479.418
4478.703
4477.986
4477.267
4476.547
4475.825
4475.102
4474.378
4473.653
4472.928
4472.204
4471.479
4470.756
4470.033
4469.311
4468.591
4467.872
4467.155
4466.441
4465.728
4465.018
4464.311
4463.607
4462.906
4462.207
4461.512
4460.82
4460.131
4459.446
4458.763
4458.084
4457.408
4456.735
4456.064
4455.396
4454.731
4454.067
4453.405
4452.744
4452.085
4451.427
4450.77
4450.114
4449.46
4448.81
4448.166
4447.533
4446.915
4446.321
4445.762
4445.251
4444.803
4444.426
4444.129
4443.872
3537.353
3489.174
3399.421
3380.744
3365.466
3354.558
3348.217
3346.571
3349.756
3358.025
3371.208
3390.32
3415.094
3445.254
3480.482
3519.212
3559.689
3600.378
3639.522
3675.569
3706.981
3734.012
3755.934
3773.717
3788.88
3802.205
3812.427
3818.95
3822.589
3824.032
3823.675
3821.826
3818.871
3814.918
3810.086
3804.52
3798.367
3791.795
3784.966
3778.024
3771.082
3764.228
3757.533
3751.056
3744.842
3738.926
3733.333
3728.08
3723.175
3718.625
3714.432
3710.597
3707.119
3703.995
3701.219
3698.787
3696.692
3694.928
3693.491
3692.378
3691.58
3691.091
3690.907
3691.019
3691.417
3692.093
3693.035
3694.229
3695.664
3697.327
3699.202
3701.275
3703.527
3705.941
3708.497
3711.176
3713.958
3716.824
3719.757
3722.738
3725.751
3728.777
3731.8
3734.806
3737.78
3740.71
3743.583
3746.392
3749.128
3751.787
3754.363
3756.853
3759.255
3761.568