/*--------------------------------*- C++ -*----------------------------------*\
| =========                 |                                                 |
| \\      /  F ield         | foam-extend: Open Source CFD                    |
|  \\    /   O peration     | Version:     3.1                                |
|   \\  /    A nd           | Web:         http://www.extend-project.de       |
|    \\/     M anipulation  |                                                 |
\*---------------------------------------------------------------------------*/
FoamFile
{
    version     2.0;
    format      ascii;
    class       volScalarField;
    location    "1.5";
    object      pd;
}
// * * * * * * * * * * * * * * * * * * * * * * * * * * * * * * * * * * * * * //

dimensions      [1 -1 -2 0 0 0 0];

internalField   nonuniform List<scalar> 
119952
(
6043.661
6018.755
6011.686
6019.793
6030.98
6030.545
6033.336
6036.448
6039.825
6043.369
6047.023
6050.751
6054.525
6058.33
6062.148
6065.954
6069.703
6073.281
6076.264
6076.418
6093.351
6088.489
6088.564
6109.102
6108.625
6113.524
6118.25
6126.738
6150.024
6333.783
5882.775
5883.688
5885.549
5887.606
5889.703
5891.876
5894.107
5896.403
5898.739
5900.611
5902.893
5905.741
5908.416
5911.099
5913.901
5916.81
5919.808
5922.88
5926.044
5930.87
5933.377
5936.615
5940.002
5943.512
5947.104
5950.778
5954.528
5958.361
5962.449
5966.168
5970.239
5974.305
5978.435
5982.624
5986.86
5991.116
5995.46
6000.92
6010.777
6010.452
6014.275
6019.94
6025.216
6028.904
6032.358
6035.888
6039.482
6043.156
6046.899
6050.665
6054.48
6058.321
6062.168
6066.003
6069.797
6073.51
6077.068
6080.556
6085.116
6089.11
6092.392
6098.897
6106.704
6111.646
6117.068
6122.669
6126.211
6119.965
6121.834
6126.191
6130.471
6134.635
6138.66
6142.577
6146.404
6150.155
6153.839
6157.461
6161.028
6164.541
6168.004
6171.417
6174.783
6178.101
6181.372
6184.597
6187.776
6190.91
6193.999
6197.043
6200.041
6202.995
6205.904
6208.768
6211.588
6214.363
6217.093
6219.78
6222.422
6225.02
6227.574
6230.083
6232.549
6234.971
6237.352
6239.688
6241.981
6244.232
6246.442
6248.609
6250.733
6252.815
6254.854
6256.844
6258.781
6260.654
6262.557
6264.489
6266.348
6268.187
6269.992
6271.751
6273.468
6275.147
6276.792
6278.404
6279.984
6281.532
6283.049
6284.536
6285.994
6287.423
6288.823
6290.196
6291.542
6292.861
6294.154
6295.421
6296.664
6297.881
6299.075
6300.245
6301.391
6302.52
6303.617
6304.698
6305.754
6306.79
6307.805
6308.799
6309.773
6310.727
6311.662
6312.577
6313.472
6314.348
6315.206
6316.044
6316.864
6317.664
6318.444
6319.204
6319.943
6320.655
6321.331
6321.962
6322.742
6323.9
6324.014
6324.818
6325.552
6326.235
6326.885
6327.513
6328.12
6328.71
6329.282
6329.84
6330.381
6330.908
6331.421
6331.919
6332.403
6332.872
6333.326
6333.766
6334.182
6334.586
6334.985
6335.36
6335.716
6336.053
6336.368
6336.659
6336.923
6337.154
6337.345
6337.482
6337.545
6337.506
6337.204
6336.386
6334.763
6336.381
6337.566
6338.521
6339.315
6340.022
6340.663
6341.252
6341.799
6342.309
6342.789
6343.24
6343.668
6344.073
6344.459
6344.825
6345.174
6345.506
6345.823
6346.125
6346.412
6346.685
6346.945
6347.192
6347.426
6347.647
6347.858
6348.056
6348.243
6348.42
6348.588
6348.747
6348.899
6349.026
6349.171
6352.336
6350.283
6349.579
6349.516
6349.447
6349.425
6349.428
6349.412
6349.394
6349.375
6349.344
6349.304
6349.255
6349.195
6349.126
6349.046
6348.956
6348.856
6348.745
6348.625
6348.494
6348.354
6348.203
6348.043
6347.873
6347.694
6347.505
6347.307
6347.099
6346.883
6346.657
6346.423
6346.18
6345.929
6345.67
6345.403
6345.13
6344.85
6344.565
6344.278
6343.99
6343.706
6343.436
6343.196
6343.005
6342.801
6342.281
6341.723
6341.198
6340.683
6340.176
6339.674
6339.173
6338.606
6337.366
6337.309
6336.862
6336.292
6335.716
6335.13
6334.544
6333.954
6333.359
6332.761
6332.158
6331.549
6330.934
6330.313
6329.686
6329.052
6328.413
6327.768
6327.117
6326.46
6325.798
6325.131
6324.459
6323.783
6323.102
6322.416
6321.727
6321.034
6320.338
6319.638
6318.936
6318.231
6317.523
6316.814
6316.103
6315.39
6314.676
6313.962
6313.246
6312.531
6311.815
6311.099
6310.383
6309.669
6308.954
6308.241
6307.53
6306.819
6306.111
6305.404
6304.699
6303.996
6303.295
6302.596
6301.899
6301.205
6300.513
6299.823
6299.134
6298.448
6297.764
6297.08
6296.398
6295.715
6295.033
6294.349
6293.663
6292.974
6292.28
6291.579
6290.869
6290.145
6289.405
6288.643
6287.849
6287.013
6286.118
6285.135
6284.022
6282.699
6281.024
6278.762
6275.88
6274.995
6286.38
5800.089
5802.883
5805.434
5808.123
5810.851
5813.607
5816.369
5819.116
5821.746
5823.7
5826.635
5829.366
5831.862
5834.36
5836.828
5839.253
5841.62
5843.905
5847.676
5849.278
5851.009
5852.926
5854.866
5856.775
5858.645
5860.485
5862.3
5864.137
5865.874
5867.587
5869.336
5871.056
5872.789
5874.544
5876.326
5878.142
5880.038
5881.968
5883.567
5885.652
5887.711
5889.787
5891.911
5894.103
5896.371
5898.723
5901.176
5903.691
5906.216
5908.821
5911.514
5914.302
5917.182
5920.153
5923.222
5926.433
5930.251
5933.599
5937.009
5940.464
5943.996
5947.612
5951.308
5955.084
5958.943
5962.891
5966.865
5970.876
5974.954
5979.11
5983.341
5987.655
5992.104
5996.735
6001.798
6007.05
6010.969
6014.984
6019.548
6024.097
6028.177
6031.96
6035.689
6039.439
6043.223
6047.039
6050.886
6054.758
6058.645
6062.538
6066.427
6070.304
6074.167
6078.041
6082.014
6086.252
6090.589
6095.022
6100.208
6105.849
6110.759
6115.195
6119.04
6121.651
6122.643
6124.688
6128.081
6131.901
6135.753
6139.576
6143.363
6147.105
6150.797
6154.439
6158.032
6161.577
6165.074
6168.524
6171.927
6175.283
6178.593
6181.856
6185.074
6188.246
6191.372
6194.453
6197.488
6200.479
6203.424
6206.325
6209.18
6211.992
6214.759
6217.481
6220.16
6222.795
6225.388
6227.933
6230.435
6232.894
6235.309
6237.682
6240.011
6242.298
6244.542
6246.743
6248.903
6251.021
6253.097
6255.131
6257.123
6259.075
6260.995
6262.903
6264.782
6266.602
6268.414
6270.202
6271.954
6273.666
6275.338
6276.981
6278.591
6280.168
6281.713
6283.227
6284.711
6286.165
6287.59
6288.986
6290.355
6291.697
6293.012
6294.301
6295.565
6296.804
6298.018
6299.208
6300.374
6301.517
6302.637
6303.734
6304.81
6305.865
6306.898
6307.911
6308.904
6309.876
6310.829
6311.762
6312.676
6313.571
6314.447
6315.304
6316.143
6316.963
6317.765
6318.547
6319.31
6320.053
6320.775
6321.478
6322.164
6322.876
6323.529
6324.066
6324.761
6325.439
6326.099
6326.74
6327.363
6327.969
6328.558
6329.131
6329.689
6330.231
6330.759
6331.271
6331.769
6332.253
6332.721
6333.175
6333.613
6334.034
6334.441
6334.832
6335.205
6335.559
6335.892
6336.204
6336.491
6336.75
6336.976
6337.162
6337.295
6337.358
6337.326
6337.167
6336.896
6336.762
6337.361
6338.182
6338.948
6339.653
6340.3
6340.898
6341.455
6341.976
6342.466
6342.929
6343.368
6343.784
6344.18
6344.557
6344.916
6345.258
6345.585
6345.897
6346.194
6346.477
6346.746
6347.003
6347.246
6347.477
6347.696
6347.903
6348.099
6348.284
6348.459
6348.624
6348.782
6348.936
6349.096
6349.308
6349.622
6349.658
6349.48
6349.401
6349.403
6349.411
6349.404
6349.391
6349.373
6349.346
6349.311
6349.267
6349.213
6349.151
6349.079
6348.996
6348.905
6348.803
6348.691
6348.569
6348.438
6348.296
6348.145
6347.984
6347.813
6347.633
6347.443
6347.244
6347.035
6346.817
6346.591
6346.355
6346.111
6345.859
6345.598
6345.33
6345.055
6344.774
6344.487
6344.197
6343.904
6343.612
6343.321
6343.031
6342.727
6342.378
6341.944
6341.463
6340.973
6340.482
6339.991
6339.501
6339.025
6338.544
6337.949
6337.341
6336.76
6336.18
6335.599
6335.015
6334.428
6333.837
6333.241
6332.638
6332.03
6331.416
6330.795
6330.169
6329.538
6328.9
6328.256
6327.607
6326.953
6326.293
6325.628
6324.957
6324.282
6323.603
6322.919
6322.231
6321.54
6320.844
6320.146
6319.444
6318.74
6318.033
6317.323
6316.612
6315.899
6315.185
6314.469
6313.752
6313.035
6312.318
6311.6
6310.883
6310.166
6309.449
6308.734
6308.02
6307.307
6306.596
6305.886
6305.178
6304.473
6303.769
6303.068
6302.368
6301.672
6300.977
6300.285
6299.594
6298.906
6298.22
6297.535
6296.851
6296.168
6295.485
6294.802
6294.117
6293.43
6292.739
6292.043
6291.34
6290.627
6289.902
6289.159
6288.394
6287.601
6286.77
6285.889
6284.942
6283.912
6282.781
6281.565
6280.375
6279.642
6279.729
6281.349
5891.892
5883.273
5874.829
5866.651
5858.724
5851.108
5843.837
5836.943
5830.41
5823.886
5817.936
5813.004
5808.136
5803.728
5799.765
5796.227
5793.09
5790.328
5787.915
5786.899
5784.423
5782.99
5781.929
5781.221
5780.829
5780.74
5780.94
5781.422
5782.335
5783.079
5784.328
5785.717
5787.31
5789.094
5791.053
5793.169
5795.438
5797.944
5800.111
5802.638
5805.351
5808.042
5810.747
5813.474
5816.219
5818.973
5821.737
5824.504
5827.155
5829.766
5832.319
5834.838
5837.31
5839.73
5842.097
5844.429
5847.217
5849.356
5851.432
5853.454
5855.419
5857.339
5859.219
5861.067
5862.891
5864.699
5866.493
5868.214
5869.92
5871.632
5873.359
5875.104
5876.875
5878.68
5880.529
5882.41
5884.27
5886.195
5888.193
5890.252
5892.372
5894.56
5896.822
5899.162
5901.585
5904.07
5906.613
5909.236
5911.944
5914.741
5917.625
5920.597
5923.656
5926.807
5929.995
5933.271
5936.637
5940.087
5943.62
5947.233
5950.924
5954.69
5958.531
5962.446
5966.411
5970.434
5974.529
5978.699
5982.947
5987.284
5991.735
5996.297
6000.958
6005.637
6009.871
6014.051
6018.418
6022.747
6026.835
6030.749
6034.618
6038.487
6042.367
6046.262
6050.173
6054.1
6058.039
6061.986
6065.938
6069.898
6073.876
6077.897
6082.006
6086.276
6090.668
6095.172
6099.943
6104.762
6109.224
6113.268
6116.821
6119.772
6122.072
6124.863
6128.346
6132.052
6135.787
6139.522
6143.245
6146.941
6150.601
6154.221
6157.798
6161.332
6164.822
6168.267
6171.668
6175.023
6178.332
6181.597
6184.816
6187.989
6191.117
6194.2
6197.237
6200.229
6203.177
6206.079
6208.936
6211.749
6214.518
6217.243
6219.923
6222.558
6225.149
6227.699
6230.204
6232.666
6235.084
6237.459
6239.79
6242.079
6244.325
6246.53
6248.692
6250.813
6252.893
6254.933
6256.934
6258.898
6260.828
6262.733
6264.609
6266.444
6268.249
6270.025
6271.765
6273.469
6275.125
6276.772
6278.385
6279.964
6281.51
6283.025
6284.51
6285.965
6287.391
6288.789
6290.159
6291.501
6292.817
6294.107
6295.371
6296.61
6297.825
6299.015
6300.182
6301.325
6302.446
6303.543
6304.617
6305.673
6306.707
6307.72
6308.713
6309.686
6310.639
6311.573
6312.488
6313.384
6314.261
6315.119
6315.959
6316.781
6317.585
6318.37
6319.137
6319.885
6320.617
6321.333
6322.036
6322.737
6323.472
6324.167
6324.838
6325.497
6326.144
6326.774
6327.389
6327.988
6328.573
6329.141
6329.695
6330.235
6330.759
6331.269
6331.765
6332.246
6332.712
6333.163
6333.599
6334.019
6334.423
6334.811
6335.181
6335.533
6335.864
6336.174
6336.461
6336.722
6336.952
6337.149
6337.308
6337.424
6337.498
6337.548
6337.619
6337.832
6338.277
6338.866
6339.482
6340.082
6340.655
6341.2
6341.718
6342.209
6342.675
6343.119
6343.541
6343.944
6344.329
6344.696
6345.047
6345.382
6345.702
6346.007
6346.299
6346.576
6346.841
6347.093
6347.332
6347.559
6347.774
6347.977
6348.169
6348.349
6348.52
6348.68
6348.831
6348.973
6349.106
6349.229
6349.282
6349.233
6349.243
6349.302
6349.359
6349.393
6349.408
6349.408
6349.398
6349.377
6349.345
6349.303
6349.251
6349.189
6349.116
6349.034
6348.942
6348.84
6348.728
6348.606
6348.474
6348.332
6348.181
6348.02
6347.849
6347.668
6347.478
6347.278
6347.069
6346.851
6346.624
6346.388
6346.143
6345.89
6345.628
6345.359
6345.083
6344.799
6344.51
6344.215
6343.914
6343.609
6343.298
6342.976
6342.635
6342.261
6341.838
6341.379
6340.906
6340.427
6339.944
6339.455
6338.964
6338.462
6337.936
6337.361
6336.77
6336.182
6335.598
6335.015
6334.431
6333.842
6333.247
6332.646
6332.038
6331.424
6330.804
6330.177
6329.544
6328.906
6328.261
6327.61
6326.954
6326.293
6325.626
6324.955
6324.278
6323.598
6322.912
6322.223
6321.53
6320.833
6320.133
6319.43
6318.724
6318.016
6317.305
6316.592
6315.878
6315.162
6314.445
6313.726
6313.008
6312.289
6311.569
6310.85
6310.132
6309.414
6308.697
6307.981
6307.267
6306.554
6305.844
6305.135
6304.428
6303.723
6303.021
6302.321
6301.623
6300.928
6300.235
6299.544
6298.855
6298.169
6297.483
6296.799
6296.116
6295.433
6294.75
6294.066
6293.379
6292.689
6291.995
6291.293
6290.583
6289.862
6289.127
6288.373
6287.596
6286.791
6285.954
6285.08
6284.172
6283.246
6282.349
6281.572
6281.091
6281.054
6281.496
5924.356
5929.204
5930.145
5930.136
5927.833
5924.165
5920.18
5915.884
5912.357
5908.649
5901.84
5894.051
5885.634
5877.439
5869.624
5861.885
5854.357
5847.127
5840.239
5833.717
5827.586
5821.883
5816.57
5811.577
5806.956
5802.738
5798.917
5795.485
5792.435
5789.768
5787.5
5784.808
5783.267
5782.052
5781.129
5780.524
5780.224
5780.218
5780.498
5781.056
5781.884
5782.917
5784.145
5785.587
5787.237
5789.078
5791.09
5793.259
5795.571
5798.015
5800.51
5803.066
5805.717
5808.431
5811.182
5813.956
5816.742
5819.531
5822.311
5825.068
5827.761
5830.404
5832.998
5835.542
5838.03
5840.458
5842.825
5845.142
5847.387
5849.524
5851.598
5853.636
5855.62
5857.553
5859.438
5861.283
5863.094
5864.876
5866.631
5868.348
5870.053
5871.759
5873.472
5875.201
5876.949
5878.725
5880.532
5882.369
5884.224
5886.133
5888.106
5890.14
5892.236
5894.4
5896.636
5898.947
5901.333
5903.791
5906.321
5908.931
5911.626
5914.408
5917.277
5920.234
5923.275
5926.402
5929.6
5932.877
5936.244
5939.697
5943.229
5946.841
5950.53
5954.294
5958.131
5962.038
5966.007
5970.041
5974.143
5978.316
5982.562
5986.882
5991.283
5995.755
6000.262
6004.755
6009.07
6013.336
6017.64
6021.897
6026.026
6030.054
6034.037
6038.003
6041.966
6045.932
6049.905
6053.887
6057.877
6061.875
6065.882
6069.902
6073.946
6078.032
6082.187
6086.44
6090.776
6095.192
6099.707
6104.165
6108.425
6112.405
6116.059
6119.322
6122.289
6125.454
6128.87
6132.465
6136.122
6139.798
6143.474
6147.134
6150.766
6154.366
6157.928
6161.45
6164.931
6168.369
6171.765
6175.116
6178.423
6181.685
6184.903
6188.075
6191.203
6194.285
6197.322
6200.314
6203.261
6206.163
6209.021
6211.833
6214.602
6217.325
6220.005
6222.64
6225.231
6227.778
6230.282
6232.742
6235.159
6237.533
6239.863
6242.151
6244.397
6246.601
6248.764
6250.886
6252.967
6255.009
6257.012
6258.979
6260.912
6262.814
6264.684
6266.518
6268.32
6270.09
6271.828
6273.535
6275.221
6276.85
6278.449
6280.017
6281.555
6283.064
6284.543
6285.992
6287.414
6288.807
6290.173
6291.512
6292.824
6294.11
6295.371
6296.607
6297.819
6299.006
6300.17
6301.311
6302.428
6303.522
6304.588
6305.645
6306.68
6307.693
6308.685
6309.657
6310.609
6311.542
6312.456
6313.35
6314.227
6315.084
6315.924
6316.746
6317.549
6318.335
6319.104
6319.855
6320.591
6321.313
6322.022
6322.723
6323.423
6324.101
6324.765
6325.419
6326.06
6326.685
6327.296
6327.892
6328.474
6329.041
6329.594
6330.133
6330.657
6331.167
6331.662
6332.144
6332.61
6333.062
6333.499
6333.92
6334.326
6334.716
6335.088
6335.442
6335.778
6336.093
6336.387
6336.658
6336.904
6337.124
6337.317
6337.486
6337.639
6337.807
6338.017
6338.316
6338.739
6339.252
6339.793
6340.332
6340.857
6341.365
6341.854
6342.324
6342.774
6343.204
6343.617
6344.011
6344.389
6344.751
6345.097
6345.429
6345.746
6346.049
6346.338
6346.614
6346.877
6347.127
6347.365
6347.591
6347.804
6348.006
6348.197
6348.376
6348.544
6348.701
6348.847
6348.98
6349.099
6349.198
6349.256
6349.282
6349.32
6349.365
6349.403
6349.428
6349.441
6349.442
6349.433
6349.413
6349.382
6349.341
6349.29
6349.229
6349.157
6349.076
6348.984
6348.882
6348.77
6348.648
6348.516
6348.374
6348.223
6348.061
6347.89
6347.709
6347.519
6347.319
6347.109
6346.891
6346.663
6346.426
6346.181
6345.926
6345.664
6345.393
6345.114
6344.828
6344.534
6344.234
6343.925
6343.609
6343.282
6342.942
6342.583
6342.198
6341.779
6341.335
6340.874
6340.403
6339.924
6339.436
6338.939
6338.434
6337.907
6337.346
6336.77
6336.192
6335.615
6335.036
6334.452
6333.864
6333.269
6332.669
6332.061
6331.447
6330.827
6330.2
6329.567
6328.927
6328.282
6327.631
6326.974
6326.312
6325.645
6324.972
6324.295
6323.613
6322.927
6322.236
6321.542
6320.844
6320.143
6319.439
6318.732
6318.022
6317.31
6316.596
6315.881
6315.163
6314.445
6313.726
6313.006
6312.286
6311.565
6310.845
6310.126
6309.407
6308.689
6307.973
6307.257
6306.544
6305.832
6305.123
6304.415
6303.71
6303.007
6302.307
6301.609
6300.914
6300.221
6299.53
6298.842
6298.156
6297.471
6296.789
6296.107
6295.426
6294.745
6294.064
6293.382
6292.697
6292.008
6291.315
6290.615
6289.907
6289.188
6288.456
6287.709
6286.946
6286.166
6285.372
6284.573
6283.79
6283.061
6282.444
6282.022
6281.855
6281.848
5632.605
5673.689
5714.35
5751.016
5784.744
5814.915
5840.389
5860.69
5878.749
5892.07
5902.892
5909.864
5914.807
5917.756
5918.791
5917.967
5913.309
5911.211
5907.767
5903.543
5898.561
5892.348
5885.351
5878.024
5870.637
5863.305
5856.092
5849.069
5842.301
5835.834
5829.697
5823.913
5818.499
5813.439
5808.725
5804.372
5800.389
5796.773
5793.522
5790.631
5788.095
5785.904
5784.006
5782.455
5781.24
5780.342
5779.757
5779.472
5779.477
5779.762
5780.317
5781.129
5782.166
5783.423
5784.896
5786.576
5788.446
5790.488
5792.687
5795.023
5797.48
5800.018
5802.633
5805.333
5808.095
5810.895
5813.72
5816.556
5819.39
5822.208
5824.997
5827.737
5830.426
5833.063
5835.643
5838.162
5840.615
5842.999
5845.316
5847.558
5849.706
5851.792
5853.826
5855.803
5857.724
5859.593
5861.419
5863.206
5864.959
5866.683
5868.381
5870.066
5871.748
5873.435
5875.134
5876.852
5878.595
5880.367
5882.171
5884.01
5885.901
5887.85
5889.859
5891.934
5894.078
5896.294
5898.585
5900.952
5903.396
5905.917
5908.52
5911.208
5913.983
5916.846
5919.796
5922.832
5925.954
5929.156
5932.441
5935.812
5939.267
5942.801
5946.415
5950.106
5953.873
5957.712
5961.62
5965.594
5969.633
5973.737
5977.906
5982.14
5986.438
5990.794
5995.201
5999.633
6004.056
6008.399
6012.697
6016.987
6021.239
6025.417
6029.527
6033.594
6037.639
6041.672
6045.702
6049.733
6053.767
6057.807
6061.853
6065.908
6069.976
6074.065
6078.186
6082.353
6086.579
6090.855
6095.17
6099.513
6103.808
6107.965
6111.921
6115.645
6119.134
6122.453
6125.81
6129.29
6132.871
6136.501
6140.149
6143.798
6147.435
6151.048
6154.632
6158.183
6161.696
6165.17
6168.603
6171.994
6175.342
6178.647
6181.908
6185.124
6188.295
6191.422
6194.503
6197.54
6200.531
6203.478
6206.379
6209.236
6212.047
6214.814
6217.537
6220.215
6222.848
6225.437
6227.983
6230.484
6232.942
6235.356
6237.728
6240.056
6242.342
6244.586
6246.788
6248.948
6251.068
6253.148
6255.189
6257.192
6259.159
6261.09
6262.988
6264.853
6266.683
6268.48
6270.244
6271.976
6273.676
6275.346
6276.978
6278.577
6280.144
6281.681
6283.188
6284.664
6286.112
6287.531
6288.922
6290.286
6291.622
6292.933
6294.217
6295.476
6296.71
6297.92
6299.105
6300.268
6301.407
6302.524
6303.62
6304.701
6305.748
6306.776
6307.784
6308.773
6309.741
6310.691
6311.621
6312.532
6313.425
6314.3
6315.156
6315.994
6316.815
6317.618
6318.404
6319.173
6319.926
6320.663
6321.387
6322.097
6322.796
6323.484
6324.159
6324.822
6325.474
6326.111
6326.731
6327.342
6327.937
6328.518
6329.084
6329.636
6330.174
6330.698
6331.208
6331.703
6332.185
6332.652
6333.105
6333.543
6333.966
6334.373
6334.766
6335.142
6335.501
6335.843
6336.166
6336.471
6336.756
6337.021
6337.268
6337.499
6337.719
6337.936
6338.157
6338.417
6338.741
6339.141
6339.598
6340.083
6340.574
6341.062
6341.54
6342.006
6342.456
6342.891
6343.309
6343.712
6344.099
6344.471
6344.828
6345.17
6345.498
6345.812
6346.112
6346.399
6346.673
6346.934
6347.183
6347.42
6347.644
6347.856
6348.057
6348.245
6348.423
6348.588
6348.742
6348.884
6349.012
6349.126
6349.224
6349.298
6349.35
6349.393
6349.43
6349.461
6349.482
6349.493
6349.494
6349.484
6349.464
6349.433
6349.392
6349.341
6349.28
6349.208
6349.126
6349.034
6348.932
6348.82
6348.697
6348.565
6348.423
6348.271
6348.109
6347.938
6347.757
6347.566
6347.365
6347.156
6346.936
6346.708
6346.47
6346.224
6345.968
6345.704
6345.431
6345.15
6344.861
6344.563
6344.257
6343.941
6343.616
6343.279
6342.929
6342.56
6342.17
6341.755
6341.319
6340.867
6340.401
6339.925
6339.437
6338.939
6338.429
6337.901
6337.351
6336.79
6336.222
6335.65
6335.073
6334.49
6333.902
6333.307
6332.706
6332.098
6331.484
6330.863
6330.236
6329.602
6328.962
6328.316
6327.664
6327.006
6326.343
6325.675
6325.001
6324.323
6323.64
6322.953
6322.261
6321.566
6320.867
6320.164
6319.459
6318.75
6318.039
6317.326
6316.611
6315.894
6315.175
6314.456
6313.735
6313.014
6312.293
6311.571
6310.85
6310.129
6309.41
6308.691
6307.973
6307.257
6306.543
6305.83
6305.12
6304.412
6303.706
6303.003
6302.302
6301.604
6300.909
6300.217
6299.527
6298.839
6298.154
6297.471
6296.791
6296.112
6295.434
6294.757
6294.08
6293.404
6292.726
6292.046
6291.363
6290.676
6289.984
6289.286
6288.581
6287.868
6287.149
6286.424
6285.7
6284.987
6284.303
6283.673
6283.133
6282.722
6282.461
6282.283
5446.678
5439.489
5438.217
5442.308
5452.365
5469.953
5491.451
5518.096
5549.507
5584.438
5620.987
5658.351
5695.75
5731.944
5765.113
5800.531
5827.66
5849.119
5867.148
5881.652
5893.399
5902.226
5908.121
5911.545
5912.714
5911.807
5908.481
5905.791
5902.315
5897.96
5892.838
5886.884
5880.334
5873.469
5866.49
5859.528
5852.656
5845.943
5839.45
5833.223
5827.296
5821.692
5816.428
5811.504
5806.922
5802.69
5798.812
5795.288
5792.115
5789.288
5786.803
5784.652
5782.818
5781.31
5780.129
5779.262
5778.702
5778.441
5778.47
5778.779
5779.357
5780.193
5781.267
5782.571
5784.093
5785.822
5787.743
5789.838
5792.09
5794.48
5796.989
5799.594
5802.283
5805.047
5807.866
5810.722
5813.601
5816.487
5819.366
5822.225
5825.051
5827.83
5830.555
5833.222
5835.826
5838.362
5840.827
5843.217
5845.531
5847.765
5849.918
5852.001
5854.02
5855.977
5857.875
5859.72
5861.518
5863.274
5864.996
5866.688
5868.358
5870.013
5871.663
5873.318
5874.983
5876.667
5878.376
5880.116
5881.892
5883.708
5885.575
5887.499
5889.485
5891.538
5893.661
5895.857
5898.13
5900.482
5902.912
5905.424
5908.02
5910.702
5913.472
5916.33
5919.277
5922.311
5925.432
5928.636
5931.926
5935.3
5938.757
5942.296
5945.914
5949.61
5953.381
5957.223
5961.136
5965.114
5969.156
5973.262
5977.428
5981.653
5985.932
5990.261
5994.627
5999.014
6003.397
6007.743
6012.057
6016.351
6020.614
6024.829
6028.997
6033.13
6037.24
6041.336
6045.425
6049.511
6053.597
6057.685
6061.777
6065.876
6069.985
6074.11
6078.257
6082.433
6086.642
6090.878
6095.127
6099.372
6103.568
6107.66
6111.607
6115.392
6119.023
6122.541
6126.046
6129.599
6133.203
6136.833
6140.473
6144.11
6147.734
6151.336
6154.91
6158.453
6161.96
6165.43
6168.859
6172.248
6175.594
6178.898
6182.157
6185.373
6188.544
6191.671
6194.752
6197.789
6200.78
6203.726
6206.628
6209.484
6212.295
6215.061
6217.783
6220.459
6223.092
6225.68
6228.223
6230.723
6233.179
6235.592
6237.961
6240.288
6242.572
6244.813
6247.014
6249.173
6251.291
6253.37
6255.41
6257.412
6259.377
6261.306
6263.201
6265.062
6266.888
6268.681
6270.44
6272.167
6273.861
6275.524
6277.152
6278.748
6280.312
6281.846
6283.349
6284.822
6286.267
6287.683
6289.07
6290.431
6291.764
6293.071
6294.353
6295.608
6296.84
6298.046
6299.229
6300.388
6301.525
6302.639
6303.732
6304.805
6305.854
6306.881
6307.888
6308.875
6309.843
6310.791
6311.719
6312.629
6313.521
6314.394
6315.249
6316.087
6316.907
6317.709
6318.495
6319.265
6320.019
6320.757
6321.481
6322.192
6322.891
6323.577
6324.252
6324.913
6325.562
6326.198
6326.822
6327.428
6328.02
6328.599
6329.164
6329.715
6330.252
6330.776
6331.286
6331.781
6332.263
6332.731
6333.185
6333.625
6334.05
6334.461
6334.856
6335.237
6335.602
6335.951
6336.283
6336.6
6336.9
6337.185
6337.456
6337.714
6337.966
6338.219
6338.484
6338.776
6339.109
6339.491
6339.913
6340.359
6340.816
6341.274
6341.727
6342.171
6342.604
6343.025
6343.432
6343.825
6344.205
6344.57
6344.921
6345.259
6345.583
6345.893
6346.191
6346.476
6346.748
6347.007
6347.254
6347.489
6347.712
6347.922
6348.121
6348.308
6348.483
6348.647
6348.798
6348.936
6349.062
6349.173
6349.269
6349.347
6349.406
6349.453
6349.493
6349.524
6349.545
6349.557
6349.557
6349.547
6349.527
6349.496
6349.455
6349.404
6349.342
6349.27
6349.187
6349.095
6348.993
6348.88
6348.757
6348.625
6348.482
6348.33
6348.168
6347.996
6347.814
6347.623
6347.422
6347.211
6346.991
6346.762
6346.524
6346.276
6346.019
6345.753
6345.478
6345.194
6344.902
6344.6
6344.289
6343.968
6343.636
6343.291
6342.933
6342.559
6342.165
6341.752
6341.32
6340.872
6340.411
6339.937
6339.451
6338.953
6338.442
6337.916
6337.375
6336.822
6336.26
6335.691
6335.116
6334.535
6333.947
6333.352
6332.751
6332.143
6331.528
6330.906
6330.278
6329.644
6329.003
6328.356
6327.703
6327.044
6326.38
6325.71
6325.035
6324.355
6323.671
6322.982
6322.289
6321.592
6320.892
6320.188
6319.48
6318.77
6318.058
6317.343
6316.626
6315.907
6315.187
6314.466
6313.744
6313.021
6312.298
6311.575
6310.853
6310.131
6309.41
6308.689
6307.971
6307.253
6306.538
6305.824
6305.113
6304.404
6303.698
6302.994
6302.293
6301.595
6300.9
6300.208
6299.518
6298.832
6298.148
6297.467
6296.789
6296.112
6295.438
6294.765
6294.094
6293.423
6292.753
6292.083
6291.411
6290.739
6290.064
6289.387
6288.709
6288.028
6287.349
6286.673
6286.007
6285.36
6284.747
6284.186
6283.699
6283.305
6283.012
6282.774
5546.002
5526.606
5501.435
5478.045
5459.292
5446.587
5439.098
5437.021
5440.193
5448.528
5465.538
5486.228
5511.718
5542.256
5577.076
5614.74
5653.812
5692.937
5730.247
5764.175
5792.118
5818.362
5840.145
5858.612
5874.167
5887.044
5896.799
5903.31
5907.138
5908.759
5908.477
5906.602
5904.051
5900.498
5895.981
5890.654
5884.652
5878.172
5871.4
5864.5
5857.595
5850.77
5844.097
5837.637
5831.436
5825.531
5819.945
5814.694
5809.787
5805.228
5801.022
5797.17
5793.672
5790.525
5787.725
5785.266
5783.143
5781.346
5779.873
5778.724
5777.889
5777.361
5777.133
5777.199
5777.548
5778.169
5779.051
5780.18
5781.543
5783.129
5784.924
5786.912
5789.077
5791.401
5793.866
5796.451
5799.137
5801.907
5804.747
5807.639
5810.565
5813.509
5816.456
5819.391
5822.301
5825.172
5827.994
5830.756
5833.455
5836.083
5838.636
5841.112
5843.507
5845.82
5848.05
5850.198
5852.269
5854.27
5856.203
5858.075
5859.89
5861.654
5863.375
5865.06
5866.714
5868.346
5869.964
5871.576
5873.191
5874.818
5876.463
5878.134
5879.837
5881.578
5883.363
5885.2
5887.095
5889.053
5891.079
5893.177
5895.351
5897.603
5899.935
5902.351
5904.85
5907.436
5910.109
5912.873
5915.726
5918.669
5921.701
5924.821
5928.028
5931.321
5934.7
5938.163
5941.707
5945.332
5949.034
5952.811
5956.661
5960.579
5964.564
5968.612
5972.72
5976.887
5981.107
5985.377
5989.688
5994.032
5998.394
6002.758
6007.104
6011.43
6015.738
6020.02
6024.27
6028.485
6032.673
6036.84
6040.993
6045.137
6049.275
6053.41
6057.544
6061.68
6065.819
6069.965
6074.121
6078.29
6082.474
6086.674
6090.884
6095.092
6099.28
6103.42
6107.478
6111.43
6115.264
6118.99
6122.632
6126.244
6129.864
6133.499
6137.144
6140.788
6144.423
6148.042
6151.64
6155.209
6158.748
6162.252
6165.718
6169.146
6172.533
6175.879
6179.182
6182.441
6185.657
6188.828
6191.955
6195.036
6198.073
6201.064
6204.011
6206.912
6209.767
6212.578
6215.343
6218.064
6220.74
6223.371
6225.957
6228.499
6230.997
6233.451
6235.862
6238.229
6240.553
6242.835
6245.075
6247.273
6249.43
6251.546
6253.623
6255.661
6257.661
6259.624
6261.55
6263.442
6265.298
6267.12
6268.909
6270.663
6272.385
6274.074
6275.731
6277.354
6278.946
6280.506
6282.035
6283.534
6285.003
6286.444
6287.856
6289.24
6290.596
6291.926
6293.23
6294.508
6295.76
6296.988
6298.191
6299.371
6300.527
6301.661
6302.772
6303.862
6304.931
6305.977
6307.003
6308.008
6308.993
6309.958
6310.904
6311.831
6312.739
6313.628
6314.5
6315.354
6316.19
6317.009
6317.811
6318.596
6319.365
6320.119
6320.858
6321.582
6322.293
6322.99
6323.675
6324.347
6325.007
6325.653
6326.286
6326.906
6327.512
6328.103
6328.681
6329.245
6329.796
6330.333
6330.856
6331.366
6331.862
6332.345
6332.814
6333.269
6333.71
6334.138
6334.552
6334.951
6335.336
6335.707
6336.063
6336.405
6336.733
6337.047
6337.348
6337.639
6337.922
6338.201
6338.483
6338.776
6339.089
6339.43
6339.803
6340.205
6340.626
6341.056
6341.49
6341.922
6342.348
6342.765
6343.173
6343.569
6343.952
6344.324
6344.682
6345.028
6345.361
6345.681
6345.988
6346.282
6346.564
6346.834
6347.091
6347.336
6347.57
6347.791
6348
6348.197
6348.382
6348.555
6348.717
6348.865
6349.002
6349.125
6349.234
6349.329
6349.408
6349.472
6349.523
6349.565
6349.597
6349.619
6349.63
6349.631
6349.621
6349.6
6349.569
6349.528
6349.476
6349.414
6349.342
6349.259
6349.166
6349.064
6348.951
6348.828
6348.695
6348.552
6348.399
6348.236
6348.064
6347.882
6347.69
6347.488
6347.277
6347.056
6346.826
6346.586
6346.337
6346.079
6345.811
6345.534
6345.248
6344.952
6344.647
6344.331
6344.005
6343.668
6343.318
6342.954
6342.575
6342.179
6341.766
6341.336
6340.891
6340.432
6339.96
6339.475
6338.978
6338.468
6337.945
6337.409
6336.861
6336.304
6335.738
6335.165
6334.585
6333.998
6333.403
6332.802
6332.193
6331.578
6330.956
6330.327
6329.691
6329.049
6328.401
6327.747
6327.087
6326.421
6325.75
6325.073
6324.392
6323.706
6323.015
6322.321
6321.622
6320.919
6320.213
6319.504
6318.793
6318.078
6317.361
6316.642
6315.922
6315.2
6314.477
6313.753
6313.028
6312.303
6311.579
6310.854
6310.131
6309.408
6308.686
6307.966
6307.247
6306.53
6305.816
6305.103
6304.393
6303.686
6302.982
6302.281
6301.582
6300.887
6300.195
6299.506
6298.821
6298.138
6297.459
6296.783
6296.11
6295.439
6294.771
6294.106
6293.442
6292.78
6292.119
6291.46
6290.802
6290.145
6289.489
6288.835
6288.185
6287.541
6286.908
6286.29
6285.696
6285.137
6284.626
6284.178
6283.801
6283.504
6283.247
5530.007
5512.487
5484.046
5465.369
5450.091
5439.183
5432.842
5431.196
5434.381
5442.65
5455.833
5474.945
5499.719
5529.879
5565.107
5603.837
5644.314
5685.003
5724.147
5760.195
5791.606
5818.637
5840.559
5858.342
5873.505
5886.829
5897.052
5903.575
5907.214
5908.657
5908.3
5906.451
5903.496
5899.543
5894.711
5889.145
5882.992
5876.42
5869.591
5862.649
5855.707
5848.853
5842.158
5835.681
5829.467
5823.551
5817.958
5812.705
5807.8
5803.25
5799.057
5795.222
5791.744
5788.62
5785.844
5783.412
5781.317
5779.553
5778.116
5777.003
5776.206
5775.716
5775.532
5775.644
5776.042
5776.718
5777.66
5778.854
5780.289
5781.952
5783.827
5785.9
5788.152
5790.566
5793.122
5795.801
5798.583
5801.449
5804.382
5807.363
5810.376
5813.402
5816.425
5819.431
5822.405
5825.335
5828.208
5831.017
5833.753
5836.412
5838.988
5841.478
5843.88
5846.193
5848.418