/*--------------------------------*- C++ -*----------------------------------*\
| =========                 |                                                 |
| \\      /  F ield         | foam-extend: Open Source CFD                    |
|  \\    /   O peration     | Version:     3.1                                |
|   \\  /    A nd           | Web:         http://www.extend-project.de       |
|    \\/     M anipulation  |                                                 |
\*---------------------------------------------------------------------------*/
FoamFile
{
    version     2.0;
    format      ascii;
    class       surfaceScalarField;
    location    "1.5";
    object      phi;
}
// * * * * * * * * * * * * * * * * * * * * * * * * * * * * * * * * * * * * * //

dimensions      [0 3 -1 0 0 0 0];

internalField   nonuniform List<scalar> 
275122
(
-6.15215e-05
6.213906e-05
-3.12383e-08
-5.863175e-07
-5.674892e-05
5.436212e-05
1.80409e-07
2.206394e-06
-5.759906e-05
5.957688e-05
-2.231596e-08
-1.955499e-06
-6.570073e-05
6.769413e-05
-1.347421e-08
-1.979919e-06
-7.272633e-05
7.343761e-05
-1.057369e-08
-7.007149e-07
-7.39092e-05
7.394718e-05
-5.770165e-09
-3.221488e-08
-7.369149e-05
7.354086e-05
-3.275149e-09
1.539058e-07
-7.300182e-05
7.279475e-05
-2.167731e-09
2.092414e-07
-7.211456e-05
7.186909e-05
-1.540696e-09
2.470129e-07
-7.108885e-05
7.081475e-05
-1.13779e-09
2.752445e-07
-6.995841e-05
6.966206e-05
-8.560203e-10
2.972071e-07
-6.874669e-05
6.843307e-05
-6.496641e-10
3.142609e-07
-6.747177e-05
6.714445e-05
-4.94515e-10
3.278184e-07
-6.614581e-05
6.580741e-05
-3.799285e-10
3.387835e-07
-6.477904e-05
6.443204e-05
-3.151095e-10
3.473126e-07
-6.338154e-05
6.302875e-05
-3.705576e-10
3.531681e-07
-6.196613e-05
6.161216e-05
-9.245227e-10
3.548979e-07
-6.055841e-05
6.021595e-05
-3.91e-09
3.463712e-07
-5.924265e-05
5.896344e-05
-1.883036e-08
2.980389e-07
-5.840934e-05
5.853228e-05
-8.384767e-08
-3.908774e-08
-6.495993e-05
6.71309e-05
-1.992785e-07
-1.971698e-06
-6.817229e-05
6.844498e-05
-9.554383e-08
-1.771472e-07
-6.903929e-05
6.952083e-05
-5.758243e-08
-4.239595e-07
-7.711418e-05
7.955499e-05
7.057784e-08
-2.511391e-06
-8.067183e-05
8.098614e-05
1.226814e-07
-4.369894e-07
-8.187163e-05
8.198843e-05
8.038126e-08
-1.971727e-07
-8.212357e-05
8.206464e-05
4.95701e-08
9.355808e-09
-8.147843e-05
8.089628e-05
3.951712e-08
5.426388e-07
-7.645455e-05
7.1779e-05
3.444257e-08
4.641101e-06
-8.836278e-05
9.075588e-05
2.606443e-09
-2.395707e-06
-4.14094e-05
4.31786e-05
-1.215714e-08
-1.75704e-06
-4.886381e-05
5.080261e-05
9.914275e-11
-1.938902e-06
-5.683747e-05
5.889513e-05
1.008436e-10
-2.057757e-06
-6.515968e-05
6.728309e-05
2.370861e-10
-2.123645e-06
-7.370128e-05
7.585118e-05
2.272089e-10
-2.150128e-06
-8.232155e-05
8.448201e-05
2.579871e-10
-2.160719e-06
-9.097465e-05
9.314097e-05
2.416214e-10
-2.166556e-06
-9.964886e-05
0.0001018195
3.295499e-10
-2.170989e-06
-0.0001083422
0.0001105209
4.232472e-10
-2.179123e-06
-0.0001171879
0.0001195232
3.400752e-08
-2.369277e-06
1.918771e-06
-8.000406e-05
8.016765e-05
-3.343689e-11
-2.08232e-06
2.01581e-06
-8.058767e-05
8.067674e-05
6.93025e-12
-2.104888e-06
2.090353e-06
-8.085175e-05
8.089058e-05
-2.65617e-11
-2.129155e-06
2.137896e-06
-8.097346e-05
8.099489e-05
-1.870961e-11
-2.159302e-06
2.160939e-06
-8.105642e-05
8.107655e-05
-2.866866e-11
-2.181038e-06
2.173173e-06
-8.114305e-05
8.116516e-05
-2.446048e-11
-2.195261e-06
2.182703e-06
-8.123958e-05
8.126295e-05
-2.151451e-11
-2.206052e-06
2.196553e-06
-8.134495e-05
8.136837e-05
-2.021263e-11
-2.219956e-06
2.321865e-06
-8.143178e-05
8.138623e-05
-9.99333e-11
-2.276208e-06
1.862161e-06
-0.0003274985
0.0003284588
2.234293e-12
-8.836069e-06
2.071507e-06
1.869182e-06
2.072899e-06
2.089207e-06
-0.0003289834
0.0003293703
2.433481e-12
-8.83995e-06
2.137212e-06
2.089597e-06
2.137094e-06
2.143346e-06
-0.0003296901
0.00032993
3.373632e-12
-8.86095e-06
2.167322e-06
2.143155e-06
2.167188e-06
2.186124e-06
-0.0003301183
0.0003303011
2.073846e-12
-8.937326e-06
2.191177e-06
2.186087e-06
2.1911e-06
2.208455e-06
-0.00033048
0.0003306589
1.546942e-12
-9.022097e-06
2.213303e-06
2.208306e-06
2.213191e-06
2.226275e-06
-0.0003308386
0.000331023
1.211668e-12
-9.098511e-06
2.230855e-06
2.226211e-06
2.230746e-06
2.240935e-06
-0.0003312098
0.0003314025
9.974273e-13
-9.16414e-06
2.244947e-06
2.240748e-06
2.244762e-06
2.25383e-06
-0.0003315983
0.0003317999
8.803482e-13
-9.224136e-06
2.257489e-06
2.253795e-06
2.257422e-06
2.274983e-06
-0.0003319996
0.0003321791
8.351354e-13
-9.289798e-06
2.280035e-06
2.275178e-06
2.2801e-06
2.213851e-06
-0.0003322583
0.0003326251
7.938489e-13
-9.220859e-06
2.213774e-06
2.213632e-06
2.212827e-06
2.24031e-06
-0.0003328953
0.0003331467
7.293718e-13
-9.172555e-06
2.220628e-06
2.239855e-06
2.22037e-06
2.222576e-06
-0.0003334434
0.000333743
9.242629e-13
-9.183099e-06
2.219387e-06
2.222347e-06
2.21917e-06
2.241777e-06
-0.0003340247
0.0003342892
1.034564e-12
-9.23916e-06
2.245823e-06
2.24152e-06
2.245529e-06
2.266011e-06
-0.0003345373
0.0003347715
1.153178e-12
-9.306369e-06
2.270492e-06
2.265588e-06
2.270042e-06
2.289276e-06
-0.0003349949
0.0003352126
1.145066e-12
-9.380308e-06
2.293405e-06
2.28798e-06
2.291901e-06
2.316012e-06
-0.000335427
0.0003356395
1.211579e-12
-9.478029e-06
2.322188e-06
2.311035e-06
2.316256e-06
2.371562e-06
-0.0003358477
0.0003360332
1.237826e-12
-9.66172e-06
2.389179e-06
2.351044e-06
2.364427e-06
2.555194e-06
-0.0003361509
0.0003360348
1.319422e-12
-1.007605e-05
2.628709e-06
2.477121e-06
2.531152e-06
3.089683e-06
-0.000335363
0.0003336808
1.71925e-12
-1.04557e-05
3.241548e-06
2.864265e-06
2.942391e-06
3.676271e-06
-0.0003315713
0.0003344391
1.766323e-12
-6.5441e-06
4.486931e-06
-0.0003368428
0.0003378215
1.916405e-12
-5.465696e-06
6.919333e-06
-0.0003378438
0.0003375252
2.002064e-12
-6.600767e-06
6.261751e-06
-0.0003371861
0.0003369114
1.999509e-12
-5.987055e-06
3.663296e-06
-0.0003369129
0.0003374781
2.121861e-12
-4.228424e-06
1.930802e-06
-0.0003382898
0.0003391276
2.057608e-12
-2.768593e-06
1.145201e-06
-0.0003399949
0.0003408321
1.847745e-12
-1.982437e-06
6.830842e-07
-0.0003416612
0.0003424602
1.723094e-12
-1.48212e-06
3.841416e-07
-0.0003432458
0.0003440043
1.650284e-12
-1.142555e-06
1.692971e-07
-0.0003447516
0.0003454781
1.586964e-12
-8.957293e-07
-9.877852e-09
-0.0003461983
0.0003469142
1.47128e-12
-7.060078e-07
-1.211328e-07
-0.0003476139
0.0003483009
1.391615e-12
-5.658579e-07
-2.198041e-07
-0.0003489837
0.0003496586
1.31224e-12
-4.551455e-07
-2.955536e-07
-0.0003503317
0.0003510004
1.249022e-12
-3.732106e-07
-3.462726e-07
-0.0003516694
0.000352338
1.197498e-12
-3.223873e-07
-3.651573e-07
-0.0003530096
0.0003536863
1.172e-12
-3.114541e-07
-3.34094e-07
-0.0003543698
0.0003550654
1.172876e-12
-3.615132e-07
-2.084396e-07
-0.0003557729
0.0003565014
1.157111e-12
-5.200265e-07
1.538391e-07
-0.0003572527
0.0003580039
1.162591e-12
-9.050065e-07
1.25931e-06
-0.0003586706
0.0003591297
1.159722e-12
-1.718359e-06
2.148288e-06
-0.0003590676
0.000359306
1.222011e-12
-2.38666e-06
1.901122e-06
-0.0003599642
0.0003606654
1.291168e-12
-2.602333e-06
4.25833e-06
-0.0003611805
0.0003610659
1.417378e-12
-4.143674e-06
6.780106e-06
-0.0003594021
0.0003579244
1.65776e-12
-5.302477e-06
3.232979e-06
-0.0003571993
0.0003571847
1.836313e-12
-3.21832e-06
1.098754e-06
-0.0003573397
0.0003574622
1.720818e-12
-1.221184e-06
-9.707328e-07
-0.0003575255
0.0003576109
1.35984e-12
8.853404e-07
-4.83006e-06
-0.0003578223
0.0003584376
9.550136e-13
4.214792e-06
-1.414536e-05
-0.0003601154
0.000364952
7.395109e-13
9.308705e-06
-2.576948e-06
-0.0003705938
0.0003720657
5.434467e-13
7.477211e-06
-1.865757e-06
-2.60224e-06
-1.904126e-06
-9.030097e-07
-0.0003722025
0.000372188
-9.29088e-14
3.470106e-06
-7.961982e-07
-9.3449e-07
-8.218769e-07
-4.907548e-07
-0.0003720984
0.0003720663
-1.358311e-12
1.94137e-06
-4.515737e-07
-5.033181e-07
-4.636668e-07
-3.508084e-07
-0.0003721136
0.0003722593
-1.563617e-12
1.252517e-06
-3.380343e-07
-3.617804e-07
-3.47591e-07
-2.97106e-07
-0.0003724607
0.0003727245
-1.035978e-12
9.256106e-07
-2.91445e-07
-3.035901e-07
-2.973079e-07
-2.734258e-07
-0.0003730224
0.0003733597
-4.995355e-13
7.58783e-07
-2.70891e-07
-2.772859e-07
-2.744575e-07
-2.630232e-07
-0.0003737177
0.0003741005
-3.345789e-13
6.719405e-07
-2.620559e-07
-2.65433e-07
-2.642946e-07
-2.594267e-07
-0.0003744965
0.0003749081
-4.616345e-13
6.289128e-07
-2.593379e-07
-2.609875e-07
-2.607776e-07
-2.598035e-07
-0.000375328
0.0003757573
-6.437176e-13
6.127343e-07
-2.602521e-07
-2.608157e-07
-2.611765e-07
-2.627109e-07
-0.0003761918
0.0003766311
-7.450119e-13
6.143344e-07
-2.634723e-07
-2.633854e-07
-2.641225e-07
-2.672504e-07
-0.0003770734
0.0003775175
-8.082775e-13
6.280211e-07
-2.682813e-07
-2.67809e-07
-2.68818e-07
-2.728274e-07
-0.0003779629
0.0003784078
-8.435779e-13
6.495519e-07
-2.739648e-07
-2.732818e-07
-2.743697e-07
-2.790658e-07
-0.0003788529
0.000379296
-8.874634e-13
6.761714e-07
-2.802873e-07
-2.793709e-07
-2.80571e-07
-2.85608e-07
-0.0003797386
0.0003801782
-9.324088e-13
7.057294e-07
-2.868538e-07
-2.858514e-07
-2.870797e-07
-2.92172e-07
-0.0003806168
0.0003810519
-9.667644e-13
7.364185e-07
-2.933993e-07
-2.923753e-07
-2.935914e-07
-2.985504e-07
-0.0003814857
0.0003819157
-9.965061e-13
7.668962e-07
-2.997239e-07
-2.987265e-07
-2.998945e-07
-3.045989e-07
-0.0003823442
0.0003827689
-1.021914e-12
7.962073e-07
-3.056993e-07
-3.047561e-07
-3.058522e-07
-3.102325e-07
-0.0003831921
0.0003836116
-1.054837e-12
8.237388e-07
-3.112503e-07
-3.103763e-07
-3.113906e-07
-3.154165e-07
-0.0003840297
0.0003844443
-1.093034e-12
8.491715e-07
-3.163508e-07
-3.155509e-07
-3.164821e-07
-3.20156e-07
-0.0003848576
0.0003852678
-1.128398e-12
8.72428e-07
-3.210125e-07
-3.202837e-07
-3.211374e-07
-3.24488e-07
-0.0003856767
0.0003860829
-1.14629e-12
8.936216e-07
-3.252765e-07
-3.246108e-07
-3.253966e-07
-3.284689e-07
-0.000386488
0.0003868906
-1.142644e-12
9.13001e-07
-3.292007e-07
-3.285875e-07
-3.29317e-07
-3.321682e-07
-0.0003872923
0.0003876916
-1.136389e-12
9.309141e-07
-3.32857e-07
-3.32283e-07
-3.329697e-07
-3.356666e-07
-0.0003880902
0.0003884866
-1.105562e-12
9.477812e-07
-3.363303e-07
-3.357744e-07
-3.364346e-07
-3.390644e-07
-0.0003888823
0.000389276
-1.127535e-12
9.640749e-07
-3.39725e-07
-3.391477e-07
-3.397959e-07
-3.424317e-07
0.0003900599
-1.186027e-12
9.802288e-07
-3.430545e-07
-3.424968e-07
-3.431459e-07
-0.000389669
-3.457705e-07
-0.0003904501
0.0003908382
-1.170306e-12
9.966745e-07
-3.464568e-07
-3.459256e-07
-3.46622e-07
-3.491708e-07
-0.0003912254
0.0003916102
-1.10975e-12
1.013593e-06
-3.498404e-07
-3.493515e-07
-3.499906e-07
-3.527601e-07
-0.000391994
0.0003923751
-1.056012e-12
1.031527e-06
-3.534735e-07
-3.528687e-07
-3.535771e-07
-3.565638e-07
-0.0003927552
0.0003931323
-1.042844e-12
1.050787e-06
-3.573128e-07
-3.566632e-07
-3.574103e-07
-3.605705e-07
-0.0003935082
0.0003938809
-1.046081e-12
1.071328e-06
-3.613521e-07
-3.606688e-07
-3.614489e-07
-3.647458e-07
-0.0003942522
0.00039462
-1.075549e-12
1.092969e-06
-3.65551e-07
-3.648435e-07
-3.656475e-07
-3.69031e-07
-0.0003949863
0.0003953488
-1.091974e-12
1.115411e-06
-3.69845e-07
-3.691284e-07
-3.699412e-07
-3.73348e-07
-0.0003957096
0.0003960665
-1.085328e-12
1.138288e-06
-3.741538e-07
-3.734447e-07
-3.742493e-07
-3.775969e-07
-0.0003964216
0.0003967727
-1.080591e-12
1.161029e-06
-3.783818e-07
-3.776926e-07
-3.784763e-07
-3.817188e-07
-0.0003971219
0.0003974673
-1.140831e-12
1.183243e-06
-3.824815e-07
-3.818148e-07
-3.82576e-07
-3.855876e-07
-0.0003978107
0.00039815
-1.399455e-12
1.20472e-06
-3.863339e-07
-3.856786e-07
-3.864199e-07
-3.89744e-07
-0.0003984876
0.0003988217
4.342465e-13
1.226342e-06
-3.905135e-07
-3.897334e-07
-3.905011e-07
-3.936642e-07
-0.0003991544
0.0003994836
-1.057266e-12
1.24703e-06
-3.943765e-07
-3.937558e-07
-3.944681e-07
-3.971499e-07
-0.0003998112
0.0004001354
-7.597038e-13
1.265916e-06
-3.978094e-07
-3.972324e-07
-3.978891e-07
-4.004721e-07
-0.000400458
0.0004007774
-5.608692e-13
1.283859e-06
-4.011345e-07
-4.005283e-07
-4.011797e-07
-4.037324e-07
-0.0004010955
0.0004014106
-4.633371e-13
1.301204e-06
-4.043656e-07
-4.037662e-07
-4.044175e-07
-4.068459e-07
-0.0004017243
0.0004020353
-3.868626e-13
1.317999e-06
-4.075121e-07
-4.069796e-07
-4.07659e-07
-4.098633e-07
-0.0004023451
0.0004026521
-3.224907e-13
1.333975e-06
-4.104754e-07
-4.10025e-07
-4.106179e-07
-4.127166e-07
-0.000402958
0.0004032615
-2.472204e-13
1.34876e-06
-4.133331e-07
-4.12801e-07
-4.134124e-07
-4.15267e-07
-0.0004035642
0.0004038651
-1.856764e-13
1.361405e-06
-4.158296e-07
-4.153496e-07
-4.159114e-07
-4.170107e-07
-0.0004041658
0.0004044659
-1.947403e-13
1.368953e-06
-4.17419e-07
-4.170967e-07
-4.17505e-07
-4.164747e-07
-0.0004047668
0.0004050688
-1.331663e-13
1.363742e-06
-4.162701e-07
-4.165828e-07
-4.163779e-07
-4.067004e-07
-0.000405372
0.000405668
1.78217e-13
1.323542e-06
-4.028681e-07
-4.069146e-07
-4.0308e-07
-3.633753e-07
-0.0004059363
0.0004061166
-7.214116e-14
1.232378e-06
-3.413517e-07
-3.6405e-07
-3.439514e-07
-3.690719e-07
-0.0004063835
0.0004065591
-5.92455e-14
1.339926e-06
-3.916954e-07
-3.656469e-07
-3.890341e-07
-3.669852e-07
-0.0004067625
0.000406983
6.241104e-14
1.247463e-06
-3.686321e-07
-3.652669e-07
-3.670745e-07
-3.706096e-07
-0.0004072024
0.0004074404
1.033963e-13
1.244702e-06
-3.715732e-07
-3.696687e-07
-3.708256e-07
-3.841051e-07
-0.0004076928
0.0004079553
6.450454e-14
1.275522e-06
-3.854273e-07
-3.835336e-07
-3.849493e-07
-3.964216e-07
-0.0004082261
0.0004085016
-3.589152e-14
1.311382e-06
-3.973963e-07
-3.96023e-07
-3.970444e-07
-4.058226e-07
-0.0004087804
0.00040906
-2.013239e-13
1.34491e-06
-4.066483e-07
-4.055489e-07
-4.064067e-07
-4.134269e-07
-0.0004093404
0.0004096199
-3.415949e-13
1.375419e-06
-4.141764e-07
-4.132501e-07
-4.140113e-07
-4.197268e-07
-0.0004098992
0.0004101767
-4.137029e-13
1.402455e-06
-4.203921e-07
-4.195902e-07
-4.202613e-07
-4.250866e-07
-0.0004104536
0.0004107283
-4.314946e-13
1.426646e-06
-4.257081e-07
-4.249465e-07
-4.255615e-07
-4.297338e-07
-0.000411002
0.0004112732
-4.162174e-13
1.448546e-06
-4.302333e-07
-4.296235e-07
-4.301678e-07
-4.338075e-07
-0.0004115434
0.0004118111
-3.498745e-13
1.468546e-06
-4.343321e-07
-4.338167e-07
-4.343621e-07
-4.373733e-07
-0.0004120776
0.0004123413
-2.447196e-13
1.486634e-06
-4.377935e-07
-4.374083e-07
-4.377959e-07
-4.406651e-07
-0.0004126038
0.0004128638
-1.025588e-13
1.503389e-06
-4.410537e-07
-4.406383e-07
-4.410275e-07
-4.437236e-07
-0.0004131226
0.000413379
4.036349e-14
1.519145e-06
-4.440786e-07
-4.436865e-07
-4.44042e-07
-4.465703e-07
-0.0004136342
0.0004138871
1.601371e-13
1.533973e-06
-4.468981e-07
-4.465327e-07
-4.46859e-07
-4.492476e-07
-0.0004141389
0.0004143884
2.780338e-13
1.548006e-06
-4.495367e-07
-4.492217e-07
-4.495181e-07
-4.517754e-07
-0.0004146368
0.0004148831
3.851708e-13
1.561322e-06
-4.520465e-07
-4.517511e-07
-4.520194e-07
-4.541713e-07
-0.0004151283
0.0004153714
4.853916e-13
1.574008e-06
-4.544273e-07
-4.541442e-07
-4.543928e-07
-4.564759e-07
-0.0004156136
0.0004158537
5.865761e-13
1.58618e-06
-4.56707e-07
-4.564534e-07
-4.566856e-07
-4.586793e-07
-0.0004160929
0.0004163301
6.880809e-13
1.597857e-06
-4.588952e-07
-4.586598e-07
-4.588728e-07
-4.607998e-07
-0.0004165665
0.0004168009
7.931489e-13
1.609097e-06
-4.609926e-07
-4.607725e-07
-4.609672e-07
-4.628629e-07
-0.0004170344
0.0004172662
8.971245e-13
1.619994e-06
-4.630387e-07
-4.628383e-07
-4.630211e-07
-4.648461e-07
-0.0004174971
0.0004177263
9.922301e-13
1.630538e-06
-4.650137e-07
-4.648351e-07
-4.649965e-07
-4.667901e-07
-0.0004179546
0.0004181812
1.196059e-12
1.64077e-06
-4.669247e-07
-4.667624e-07
-4.668909e-07
-4.687303e-07
-0.000418407
0.0004186312
1.768476e-12
1.650843e-06
-4.688833e-07
-4.686761e-07
-4.688122e-07
-4.703937e-07
0.000419076
4.208601e-12
1.660334e-06
-0.0004188547
-4.705316e-07
-4.703896e-07
-4.703902e-07
-4.715999e-07
-0.0004192962
0.0004195154
-2.360597e-13
1.668218e-06
-4.723412e-07
-4.713723e-07
-4.721132e-07
-4.740611e-07
-0.0004197335
0.0004199515
-3.404381e-12
1.677481e-06
-4.739971e-07
-4.736458e-07
-4.73713e-07
-4.760659e-07
-0.0004201691
0.0004203846
8.301891e-13
1.688673e-06
-4.760121e-07
-4.760824e-07
-4.760098e-07
-4.777439e-07
-0.0004205991
0.0004208118
5.169075e-13
1.698164e-06
-4.777492e-07
-4.777186e-07
-4.777172e-07
-4.793516e-07
-0.0004210238
0.0004212341
4.354808e-13
1.706925e-06
-4.793515e-07
-4.793077e-07
-4.793038e-07
-4.809656e-07
-0.0004214438
0.000421652
2.836284e-13
1.715573e-06
-4.80944e-07
-4.809279e-07
-4.809109e-07
-4.825786e-07
-0.0004218594
0.0004220654
1.740607e-13
1.724209e-06
-4.825499e-07
-4.8254e-07
-4.825057e-07
-4.841984e-07
-0.0004222706
0.0004224744
9.87512e-14
1.732899e-06
-4.84156e-07
-4.841496e-07
-4.841024e-07
-4.858429e-07
-0.0004226773
0.0004228788
5.291822e-14
1.741743e-06
-4.857807e-07
-4.857974e-07
-4.857399e-07
-4.874933e-07
-0.0004230794
0.0004232784
3.78401e-14
1.750766e-06
-4.874204e-07
-4.87456e-07
-4.873785e-07
-4.891809e-07
-0.0004234765
0.0004236729
3.715701e-14
1.760048e-06
-4.890878e-07
-4.891304e-07
-4.890358e-07
-4.909105e-07
-0.0004238684
0.0004240621
4.614894e-14
1.769664e-06
-4.908032e-07
-4.908586e-07
-4.907586e-07
-4.926574e-07
-0.0004242548
0.0004244455
4.680067e-14
1.779561e-06
-4.925342e-07
-4.926229e-07
-4.92498e-07
-4.944426e-07
-0.0004246353
0.000424823
6.377276e-14
1.789668e-06
-4.942964e-07
-4.943872e-07
-4.942383e-07
-4.962478e-07
-0.0004250096
0.0004251942
8.134488e-14
1.799892e-06
-4.961065e-07
-4.96152e-07
-4.96e-07
-4.980417e-07
-0.0004253779
0.0004255594
1.368335e-13
1.810015e-06
-4.978447e-07
-4.979349e-07
-4.977629e-07
-4.996678e-07
-0.00042574
0.0004259188
1.657309e-13
1.819651e-06
-4.995347e-07
-4.996881e-07
-4.995679e-07
-5.011428e-07
-0.0004260967
0.0004262727
1.91274e-13
1.828231e-06
-5.009514e-07
-5.011719e-07
-5.009749e-07
-5.024187e-07
-0.0004264479
0.0004266219
2.430004e-13
1.835387e-06
-5.023313e-07
-5.023518e-07
-5.022855e-07
-5.034374e-07
-0.0004267956
0.0004269689
1.861301e-13
1.840445e-06
-5.03479e-07
-5.033776e-07
-5.034363e-07
-5.039103e-07
-0.0004271427
0.0004273177
2.223388e-13
1.84113e-06
-5.042427e-07
-5.038123e-07
-5.041782e-07
-5.03446e-07
-0.0004274955
0.0004276783
-3.870964e-13
1.83147e-06
-5.037702e-07
-5.03277e-07
-5.037906e-07
-4.973531e-07
-0.000427869
0.0004280509
1.809636e-12
1.795831e-06
-4.918471e-07
-4.970887e-07
-4.913894e-07
-3.305961e-07
-0.000428102
0.0004276973
9.048452e-13
1.669886e-06
-3.031941e-07
-3.287226e-07
-3.027195e-07
-2.781631e-07
-0.0001065705
0.0001064255
8.762075e-11
4.230662e-07
-3.829292e-07
-0.000106225
0.0001062109
-1.075455e-10
3.972145e-07
-4.360692e-07
-0.0001062363
0.0001062572
-5.355867e-11
4.152086e-07
-4.611456e-07
-0.0001063319
0.0001063586
-1.609631e-11
4.344321e-07
-4.752052e-07
-0.00010644
0.0001064668
1.73584e-12
4.483283e-07
-4.841034e-07
-0.0001065463
0.0001065722
6.55082e-12
4.582379e-07
-4.902979e-07
-0.0001066481
0.0001066728
9.602433e-12
4.656083e-07
-4.949264e-07
-0.0001067453
0.0001067689
1.331949e-11
4.713656e-07
-4.985865e-07
-0.0001068381
0.0001068606
1.85926e-11
4.760501e-07
-5.016053e-07
-0.0001069271
0.0001069487
2.119496e-11
4.799988e-07
-5.042353e-07
-0.0001070123
0.0001070332
1.180832e-11
4.833429e-07
-5.062869e-07
-0.0001070947
0.0001071148
6.101873e-12
4.861929e-07
-5.08222e-07
-0.0001071742
0.0001071936
1.041104e-11
4.887901e-07
-5.100176e-07
-0.0001072511
0.0001072699
1.223607e-11
4.911744e-07
-5.11644e-07
-0.0001073256
0.0001073439
1.324355e-11
4.9336e-07
-5.131406e-07
-0.000107398
0.0001074157
1.210992e-11
4.953847e-07
-5.145522e-07
-0.0001074683
0.0001074855
1.308423e-11
4.972865e-07
-5.161048e-07
-0.0001075366
0.0001075535
1.446377e-11
4.99185e-07
-5.168387e-07
-0.0001076047
0.0001076211
-4.499669e-13
5.004708e-07
-5.171798e-07
-0.0001076701
0.0001076859
5.683799e-12
5.014031e-07
-5.184857e-07
-0.0001077321
0.0001077478
1.240329e-11
5.027559e-07
-5.203102e-07
-0.0001077943
0.0001078099
1.300261e-11
5.04682e-07
-5.21343e-07
-0.0001078563
0.0001078715
1.357648e-11
5.06083e-07
-5.220633e-07
-0.0001079168
0.0001079318
1.485725e-11
5.070654e-07
-5.227283e-07
-0.0001079765
0.0001079913
1.864838e-11
5.07826e-07
-5.232924e-07
-0.000108036
0.0001080509
2.084208e-11
5.083749e-07
-5.235713e-07
-0.0001080959
0.0001081109
9.479008e-12
5.084914e-07
-5.236136e-07
-0.000108157
0.0001081725
2.887637e-12
5.081386e-07
-5.233591e-07
-0.0001082203
0.0001082366
9.676894e-12
5.071169e-07
-5.228709e-07
-0.0001082875
0.0001083052
1.189201e-11
5.051389e-07
-5.217431e-07
-0.0001083613
0.0001083817
1.3977e-11
5.013495e-07
-5.158616e-07
-0.0001084459
0.0001084679
1.380358e-11
4.938359e-07
-5.149919e-07
-0.0001085478
0.0001085818
1.713275e-11
4.809871e-07
-4.970209e-07
-0.0001086964
0.0001087446
1.874804e-11
4.488548e-07
-4.475207e-07
-0.0001089329
0.000109026
1.701328e-11
3.543964e-07
1.471862e-07
-0.0001093458
0.0001092938
1.823921e-11
-9.517656e-08
4.686609e-07
-0.000109054
0.0001089995
6.357135e-12
-4.141143e-07
5.132478e-07
-0.0001088693
0.0001088363
1.246946e-12
-4.801897e-07
5.223976e-07
-0.0001087673
0.0001087506
-2.367953e-12
-5.057239e-07
5.312385e-07
-0.0001087125
0.0001087036
-5.349824e-12
-5.222811e-07
5.364594e-07
-0.000108685
0.0001086814
-7.461842e-12
-5.328866e-07
5.399834e-07
-0.0001086768
0.0001086771
-6.648513e-12
-5.403084e-07
5.425386e-07
-0.0001086824
0.0001086856
-5.887889e-12
-5.45677e-07
5.445747e-07
-0.0001086981
0.0001087033
-8.759871e-12
-5.497191e-07
5.461977e-07
-0.000108721
0.0001087277
-6.058019e-12
-5.528421e-07
5.474788e-07
-0.0001087493
0.0001087571
-3.036273e-12
-5.553034e-07
5.487393e-07
-0.0001087816
0.0001087902
-4.672505e-12
-5.573328e-07
5.497665e-07
-0.000108817
0.0001088262
-4.720084e-12
-5.589986e-07
5.506958e-07
-0.0001088546
0.0001088643
-3.636066e-12
-5.604091e-07
5.515299e-07
-0.000108894
0.0001089041
-3.919119e-12
-5.616065e-07
5.522723e-07
-0.0001089347
0.0001089451
-3.700853e-12
-5.626269e-07
5.529614e-07
-0.0001089764
0.000108987
-2.717278e-12
-5.635086e-07
5.53575e-07
-0.0001090188
0.0001090295
-2.649621e-12
-5.642588e-07
5.54132e-07
-0.0001090617
0.0001090725
-3.047598e-12
-5.648992e-07
5.546402e-07
-0.0001091048
0.0001091156
-2.208525e-12
-5.654432e-07
5.550933e-07
-0.0001091481
0.0001091589
-1.882392e-12
-5.658999e-07
5.555138e-07
-0.0001091912
0.000109202
-2.580891e-12
-5.662862e-07
5.558877e-07
-0.0001092342
0.000109245
-1.939599e-12
-5.666027e-07
5.562281e-07
-0.000109277
0.0001092876
-1.356087e-12
-5.668649e-07
5.565612e-07
-0.0001093194
0.0001093299
-4.459741e-12
-5.67078e-07
5.568218e-07
-0.0001093613
0.0001093717
-2.012155e-12
-5.67236e-07
5.569718e-07
-0.0001094026
0.000109413
1.187585e-12
-5.673273e-07
5.572408e-07
-0.0001094435
0.0001094537
-7.415551e-13
-5.674063e-07
5.573748e-07
-0.0001094837
0.0001094937
-1.3864e-12
-5.674025e-07
5.574509e-07
-0.0001095232
0.0001095331
-9.509686e-13
-5.673247e-07
5.57443e-07
-0.0001095618
0.0001095715
-1.654666e-12
-5.671497e-07
5.573714e-07
-0.0001095994
0.0001096089
-2.765204e-12
-5.668811e-07
5.568176e-07
-0.0001096356
0.0001096452
-5.908315e-12
-5.664101e-07
5.602117e-07
-0.0001096738
0.000109682
-7.542851e-12
-5.684093e-07
5.966206e-07
-0.0001097044
0.0001096939
-7.204119e-11
-5.860075e-07
4.693312e-07
-0.0001092962
0.0004407225
6.165165e-14
-2.129642e-06
-1.96879e-08
4.672372e-07
-1.170917e-08
-0.0001092974
-0.0001104514
-0.0001104531
3.173376e-07
-0.0004420801
0.0004424872
2.663965e-14
-1.923648e-06
4.370038e-07
3.221488e-07
4.400398e-07
4.193128e-07
-0.0004428159
0.0004430364
-1.810344e-14
-1.96952e-06
4.538432e-07
4.208714e-07
4.550293e-07
4.693528e-07
-0.0004431888
0.0004432721
-7.983541e-14
-1.991581e-06
4.842899e-07
4.699483e-07
4.847074e-07
4.985046e-07
-0.0004433317
0.0004433755
-1.855764e-13
-2.04704e-06
5.026047e-07
4.99024e-07
5.030451e-07
5.240287e-07
-0.0004434105
0.0004434104
-3.937998e-13
-2.099477e-06
5.256065e-07
5.240756e-07
5.258634e-07
5.425449e-07
-0.000443418
0.0004434167
-2.373249e-13
-2.152045e-06
5.37185e-07
5.387977e-07
5.348801e-07
5.454765e-07
-0.000443421
0.0004434206
7.290868e-13
-2.197478e-06
5.523962e-07
5.463274e-07
5.536591e-07
5.567904e-07
-0.0004434162
0.000443416
8.181505e-13
-2.228177e-06
5.56779e-07
5.573664e-07
5.574713e-07
5.60546e-07
-0.0004434196
0.0004434264
1.632833e-12
-2.250209e-06
5.611174e-07
5.606117e-07
5.61147e-07
5.629562e-07
-0.0004434362
0.0004434491
8.457136e-13
-2.265524e-06
5.633974e-07
5.629201e-07
5.633722e-07
5.640761e-07
-0.0004434645
0.0004434827
1.824976e-13
-2.275162e-06
5.644619e-07
5.640386e-07
5.644301e-07
5.645611e-07
-0.000443503
0.0004435254
-2.356187e-13
-2.281266e-06
5.648906e-07
5.645326e-07
5.648661e-07
5.64687e-07
-0.0004435495
0.0004435751
-3.344068e-13
-2.28491e-06
5.649985e-07
5.646461e-07
5.649507e-07
5.646343e-07
-0.000443602
0.0004436299
-3.029145e-13
-2.286955e-06
5.649165e-07
5.645781e-07
5.648648e-07
5.644763e-07
-0.0004436587
0.0004436883
-2.64968e-13
-2.287864e-06
5.647399e-07
5.644292e-07
5.646939e-07
5.642336e-07
-0.0004437184
0.0004437489
-2.348025e-13
-2.287872e-06
5.644846e-07
5.641837e-07
5.644285e-07
5.639645e-07
-0.0004437798
0.0004438109
-2.18427e-13
-2.287285e-06
5.641975e-07
5.638959e-07
5.641307e-07
5.636976e-07
-0.0004438421
0.0004438734
-2.232098e-13
-2.286411e-06
5.639295e-07
5.636409e-07
5.638754e-07
5.634531e-07
-0.0004439047
0.0004439359
-2.357882e-13
-2.28539e-06
5.636791e-07
5.634007e-07
5.636241e-07
5.632515e-07
-0.0004439671
0.0004439982
-2.435772e-13
-2.284345e-06
5.634698e-07
5.631825e-07
5.633975e-07
5.630772e-07
-0.0004440291
0.0004440598
-2.529969e-13
-2.283363e-06
5.632944e-07
5.630155e-07
5.632359e-07
5.629432e-07
-0.0004440904
0.0004441208
-2.504012e-13
-2.282457e-06
5.631503e-07
5.628891e-07
5.630983e-07
5.628333e-07
-0.000444151
0.000444181
-2.490534e-13
-2.281629e-06
5.630327e-07
5.627741e-07
5.629891e-07
5.627715e-07
-0.0004442108
0.0004442403
-2.389542e-13
-2.280872e-06
5.629603e-07
5.627201e-07
5.629061e-07
5.626909e-07
-0.0004442697
0.0004442989
-2.295765e-13
-2.280202e-06
5.629029e-07
5.62637e-07
5.628292e-07
5.626623e-07
-0.0004443278
0.0004443565
-2.210656e-13
-2.279603e-06
5.628435e-07
5.625853e-07
5.627668e-07
5.626243e-07
-0.0004443851
0.0004444135
-2.033771e-13
-2.27908e-06
5.628062e-07
5.625545e-07
5.627407e-07
5.62613e-07
-0.0004444416
0.0004444696
-1.958322e-13
-2.27864e-06
5.627845e-07
5.625541e-07
5.627289e-07
5.626077e-07
-0.0004444974
0.000444525
-1.758484e-13
-2.278236e-06
5.627787e-07
5.625456e-07
5.627121e-07
5.626106e-07
-0.0004445524
0.0004445797
-1.70608e-13
-2.277868e-06
5.627724e-07
5.625421e-07
5.627072e-07
5.626233e-07
-0.0004446067
0.0004446335
-1.544634e-13
-2.277531e-06
5.627804e-07
5.62566e-07
5.627249e-07
5.626261e-07
-0.0004446602
0.0004446866
-1.47346e-13
-2.277127e-06
5.627788e-07
5.625693e-07
5.62718e-07
5.626186e-07
-0.0004447129
0.0004447389
-1.452996e-13
-2.276599e-06
5.627585e-07
5.625506e-07
5.626915e-07
5.625814e-07
-0.0004447646
0.00044479
-1.360128e-13
-2.275871e-06
5.627143e-07
5.625238e-07
5.62659e-07
5.624924e-07
-0.0004448151
0.0004448398
-1.382337e-13
-2.274768e-06
5.626115e-07
5.62439e-07
5.625562e-07
5.623328e-07
-0.0004448641
0.0004448878
-1.320248e-13
-2.273103e-06
5.624302e-07
5.622683e-07
5.62363e-07
5.620565e-07
-0.000444911
0.0004449334
-1.277196e-13
-2.270622e-06
5.621248e-07
5.619982e-07
5.620688e-07
5.616141e-07
-0.0004449551
0.0004449756
-1.248675e-13
-2.266869e-06
5.616254e-07
5.61561e-07
5.615756e-07
5.608804e-07
-0.0004449952
0.000445013
-1.123296e-13
-2.261092e-06
5.608276e-07
5.608105e-07
5.607719e-07
5.596809e-07
-0.0004450294
0.000445043
-1.084649e-13
-2.251988e-06
5.59553e-07
5.596346e-07
5.595055e-07
5.575625e-07
-0.0004450545
0.0004450617
-1.094899e-13
-2.236873e-06
5.573345e-07
5.575328e-07
5.572858e-07
5.536073e-07
-0.0004450653
0.0004450618
-1.135449e-13
-2.209713e-06
5.530578e-07
5.535425e-07
5.529973e-07
5.444513e-07
-0.0004450528
0.0004450347
-1.191537e-13
-2.155874e-06
5.426107e-07
5.443982e-07
5.425513e-07
5.23045e-07
-0.0004450085
0.0004449723
-1.186401e-13
-2.041847e-06
5.160129e-07
5.229984e-07
5.159716e-07
4.401738e-07
-0.0004449764
0.0004450714
-1.242904e-13
-1.804492e-06
4.146184e-07
4.401256e-07
4.145465e-07
3.816531e-07
-0.0004451962
0.0004453059
-1.339427e-13
-1.635378e-06
3.812779e-07
3.815878e-07
3.812149e-07
3.704631e-07
-0.0004454054
0.0004454969
-1.574172e-13
-1.571083e-06
3.693682e-07
3.703963e-07
3.692998e-07
3.627767e-07
-0.0004455837
0.0004456633
-2.384338e-13
-1.529747e-06
3.623649e-07
3.627149e-07
3.623041e-07
3.584586e-07
-0.0004457389
0.0004458093
-4.366644e-13
-1.50345e-06
3.581273e-07
3.584038e-07
3.58073e-07
3.553671e-07
-0.0004458768
0.0004459401
-7.830001e-13
-1.484243e-06
3.551673e-07
3.553239e-07
3.551243e-07
3.533067e-07
-0.0004460011
0.000446058
-2.164569e-14
-1.470208e-06
3.533325e-07
3.533e-07
3.533306e-07
3.543737e-07
-0.000446111
0.0004461674
1.279122e-12
-1.473305e-06
3.539367e-07
3.544986e-07
3.540963e-07
3.060608e-07
-0.0004462542
0.0004464298
9.060252e-14
-1.46555e-06
3.383883e-07
3.065739e-07
3.390015e-07
3.155711e-07
-0.000446546
0.0004464126
5.415636e-14
-1.043464e-06
2.733391e-07
3.147435e-07
2.732385e-07
2.507586e-07
-0.0004464255
0.0004465959
-3.380776e-14
-1.126915e-06
2.271377e-07
2.512368e-07
2.273945e-07
2.530406e-07
-0.0004467552
0.000446899
-8.203553e-14
-1.154248e-06
2.521409e-07
2.531079e-07
2.521497e-07
2.708516e-07
-0.0004470173
0.0004471104
-6.054673e-14
-1.183578e-06
2.744487e-07
2.707659e-07
2.743482e-07
2.900465e-07
-0.0004471783
0.0004472277
-4.361724e-14
-1.216398e-06
2.935499e-07
2.899351e-07
2.934422e-07
3.070982e-07
-0.0004472604
0.0004472788
-4.465862e-14
-1.253009e-06
3.103048e-07
3.069986e-07
3.102149e-07
3.202235e-07
-0.0004472885
0.0004472926
-5.517723e-14
-1.289337e-06
3.224932e-07
3.201524e-07
3.224249e-07
3.291632e-07
-0.000447293
0.0004472932
-5.783994e-14
-1.319548e-06
3.30562e-07
3.2912e-07
3.305171e-07
3.355047e-07
-0.0004472918
0.0004472922
-5.722856e-14
-1.343728e-06
3.362008e-07
3.354901e-07
3.361864e-07
3.391623e-07
-0.0004472944
0.0004472989
-5.423578e-14
-1.362078e-06
3.396223e-07
3.391587e-07
3.396239e-07
3.415848e-07
-0.0004473055
0.0004473148
-4.976674e-14
-1.376175e-06
3.418485e-07