/*--------------------------------*- C++ -*----------------------------------*\
| =========                 |                                                 |
| \\      /  F ield         | foam-extend: Open Source CFD                    |
|  \\    /   O peration     | Version:     3.1                                |
|   \\  /    A nd           | Web:         http://www.extend-project.de       |
|    \\/     M anipulation  |                                                 |
\*---------------------------------------------------------------------------*/
FoamFile
{
    version     2.0;
    format      ascii;
    class       volScalarField;
    location    "10";
    object      k;
}
// * * * * * * * * * * * * * * * * * * * * * * * * * * * * * * * * * * * * * //

dimensions      [0 2 -2 0 0 0 0];

internalField   nonuniform List<scalar> 
119952
(
0.05190369
0.04970521
0.04957687
0.04897867
0.04807976
0.04714695
0.0465924
0.04611304
0.04557485
0.04494127
0.04421644
0.04341927
0.04256613
0.04168716
0.04081959
0.03999813
0.0392557
0.03862668
0.03816238
0.03804354
0.03956501
0.0379938
0.03763416
0.03894502
0.03687124
0.03552737
0.03437963
0.03318853
0.03124849
0.01051918
0.08182923
0.07941307
0.07771023
0.07687214
0.07671721
0.07700564
0.07752693
0.07812067
0.07867268
0.07916681
0.07469151
0.07401536
0.07509181
0.07681005
0.07853438
0.07993337
0.08087306
0.08135228
0.08141006
0.08858202
0.08746738
0.08616388
0.08480935
0.08355124
0.08250932
0.08176063
0.08134972
0.08130897
0.08163712
0.0824853
0.08345049
0.08460646
0.08600295
0.08760544
0.08935378
0.09116509
0.09289861
0.09461851
0.09770103
0.09881503
0.09904338
0.0993418
0.09935668
0.09871593
0.09733275
0.09554349
0.09352563
0.09137061
0.08915681
0.0869471
0.08478786
0.0827128
0.0807458
0.07890106
0.07718312
0.07558714
0.07410111
0.07271959
0.07155751
0.0704772
0.06935932
0.06849574
0.06810874
0.06753463
0.06681707
0.06617791
0.0654088
0.06343839
0.06171521
0.06020471
0.05889793
0.05783541
0.05703803
0.0565285
0.05632086
0.05636235
0.05659108
0.05683306
0.05679986
0.05616173
0.05206058
0.0494233
0.0525734
0.05900265
0.06504523
0.06868863
0.06780395
0.06233171
0.05440306
0.04715021
0.04207802
0.03823367
0.03473169
0.03155027
0.028955
0.02703405
0.02571353
0.02486591
0.02437959
0.02417364
0.0241904
0.02438226
0.02470645
0.02512573
0.02561114
0.02614741
0.02672916
0.02735007
0.02800013
0.02866845
0.0293457
0.03002503
0.03070204
0.03137399
0.03203821
0.03268819
0.03328536
0.03373608
0.03398156
0.03424812
0.03460137
0.03500916
0.03543378
0.03585006
0.03624177
0.03659749
0.03690841
0.03716736
0.03736846
0.03750698
0.03757923
0.03758246
0.03751448
0.03737508
0.03716552
0.03688826
0.03654699
0.03614663
0.0356931
0.03519322
0.0346546
0.03408562
0.03349491
0.03289117
0.03228256
0.03167639
0.03107884
0.03049532
0.02993051
0.02938853
0.02887216
0.02838356
0.02792383
0.02749341
0.02709235
0.02671983
0.02637213
0.02604636
0.02574361
0.02546203
0.02519852
0.02494939
0.02471081
0.02447938
0.02425234
0.02402805
0.02380403
0.02265683
0.0210685
0.02028446
0.01972273
0.01924292
0.0188083
0.01840622
0.01802888
0.01767017
0.01732584
0.01699129
0.01666278
0.01633804
0.01601618
0.01569711
0.01538122
0.01506952
0.01476459
0.01446844
0.01418082
0.01390184
0.01363242
0.01337362
0.01312638
0.01289147
0.01267003
0.01246376
0.01227017
0.01209206
0.01193061
0.01178461
0.01165327
0.01153594
0.01143131
0.01133908
0.01124885
0.01130731
0.01140022
0.01148928
0.0115668
0.01163147
0.01168385
0.01172527
0.01175782
0.01178367
0.01180474
0.01182265
0.01183882
0.01185444
0.01187046
0.01188763
0.01190654
0.01192754
0.01195088
0.01197667
0.01200495
0.01203566
0.01206863
0.01210363
0.01214038
0.01217861
0.01221798
0.01225819
0.01229893
0.01233993
0.0123809
0.01242154
0.01246161
0.01250176
0.01253816
0.01366505
0.01371589
0.01371884
0.01368758
0.01365399
0.01363102
0.01362498
0.0136376
0.01366695
0.01370889
0.01375883
0.01381246
0.0138662
0.01391722
0.01396352
0.01400372
0.01403704
0.01406311
0.01408186
0.01409344
0.01409814
0.01409633
0.01408841
0.01407482
0.01405599
0.01403231
0.01400421
0.01397205
0.01393622
0.01389708
0.013855
0.01381032
0.01376336
0.01371443
0.01366378
0.01361166
0.01355829
0.01350388
0.01344862
0.01339271
0.01333632
0.01327965
0.01322294
0.01316665
0.01311222
0.01306019
0.01300314
0.01294468
0.01288673
0.01282943
0.01277299
0.01271793
0.01266434
0.01262599
0.01261732
0.0125334
0.01245108
0.01236754
0.01228269
0.01219732
0.01211219
0.01202849
0.01194729
0.01186942
0.01179546
0.01172572
0.01166019
0.01159849
0.01153999
0.01148438
0.01143112
0.01137964
0.01132964
0.01128074
0.01123243
0.01118432
0.01113616
0.01108777
0.01103902
0.01098981
0.01094014
0.01089003
0.01083955
0.01078878
0.01073781
0.01068675
0.01063576
0.01058498
0.01053457
0.01048468
0.01043546
0.01038705
0.01033956
0.01029311
0.01024781
0.01020377
0.01016106
0.01011978
0.01007997
0.01004166
0.01000486
0.009969583
0.009935799
0.009903484
0.009872602
0.009843109
0.009814959
0.0097881
0.009762477
0.00973803
0.009714698
0.009692421
0.009671134
0.009650774
0.009631278
0.009612586
0.009594638
0.00957738
0.009560761
0.009544732
0.009529243
0.00951426
0.009499735
0.009485645
0.009471944
0.009458621
0.00944562
0.009432936
0.009420483
0.009408252
0.009396061
0.009383786
0.009370901
0.009356607
0.009338196
0.009309727
0.009254393
0.009167016
0.009272518
0.09843472
0.09124727
0.09427281
0.09974152
0.1048921
0.1090491
0.1122267
0.1146075
0.1164258
0.1179671
0.1249811
0.1330071
0.1405666
0.1469301
0.1519323
0.155701
0.1584618
0.1604029
0.1824413
0.1814236
0.1804244
0.1793442
0.1783975
0.177735
0.177398
0.1773596
0.177587
0.178001
0.1786504
0.1792921
0.1798023
0.1802952
0.1807921
0.1812848
0.1817468
0.1821499
0.1824364
0.1825764
0.182394
0.1818314
0.180956
0.1798688
0.1786363
0.1773146
0.1759385
0.1745114
0.1730375
0.1714604
0.1696988
0.1677509
0.1655592
0.1630744
0.1602733
0.1571717
0.1538543
0.1504229
0.157134
0.1534844
0.1498047
0.1461224
0.1424801
0.1389858
0.135879
0.133279
0.1312407
0.1297893
0.1289386
0.1286911
0.1290079
0.1298163
0.1310248
0.1324978
0.1340959
0.1356934
0.1373008
0.1386996
0.1395153
0.1399299
0.1399814
0.1395024
0.1384121
0.1368113
0.1348544
0.1326179
0.1301775
0.1276024
0.1249508
0.1222706
0.1196013
0.116974
0.1144128
0.1119352
0.1095561
0.1072895
0.1051512
0.103149
0.1012563
0.09950698
0.09793782
0.09640173
0.09480732
0.09316059
0.09143793
0.0895168
0.08750921
0.08561998
0.08379206
0.08198486
0.080194
0.07843579
0.07675793
0.07517024
0.07376249
0.07257948
0.07154295
0.07064285
0.06925496
0.06679673
0.06411944
0.0622191
0.06153423
0.06201178
0.06335691
0.06553466
0.06829525
0.07106852
0.07350461
0.07477787
0.07330424
0.06877264
0.0626229
0.05686655
0.05229038
0.04890869
0.04652439
0.04488038
0.04374636
0.04298483
0.04255355
0.04240946
0.04251465
0.04280594
0.0432219
0.04373958
0.04435184
0.04506961
0.04587441
0.04674003
0.04764112
0.04855614
0.04946861
0.05036637
0.05123902
0.05208271
0.05290099
0.05367124
0.0543815
0.0550489
0.05568337
0.05628608
0.05685326
0.05737895
0.05785628
0.05827809
0.05863724
0.05892687
0.05914063
0.05927297
0.05931936
0.05927638
0.05914197
0.05891549
0.05859788
0.05819181
0.05770167
0.05713339
0.05649435
0.05579314
0.05503933
0.05424307
0.05341501
0.05256583
0.05170574
0.05084433
0.0499906
0.04915265
0.04833698
0.04754844
0.04679041
0.04606494
0.04537332
0.04471649
0.04409507
0.04350909
0.04295772
0.04243931
0.04195145
0.04149102
0.0410543
0.04063741
0.04023613
0.03984801
0.0394685
0.0391135
0.0375697
0.03644106
0.03583378
0.03538778
0.03498753
0.03459608
0.03420122
0.03379871
0.0333869
0.03296501
0.03253258
0.03208944
0.0316357
0.03117174
0.03069829
0.03021626
0.02972675
0.02923098
0.02873051
0.02822759
0.02772455
0.02722365
0.02672708
0.02623688
0.02575481
0.02528188
0.02481905
0.02436991
0.02393757
0.0235245
0.02313265
0.02276336
0.02241679
0.02209276
0.02179245
0.0215175
0.02127961
0.0210763
0.02089828
0.02074176
0.02060448
0.02048472
0.02038111
0.02029258
0.02021821
0.02015706
0.02010811
0.02007033
0.02004269
0.02002424
0.02001409
0.02001139
0.02001529
0.02002497
0.02003962
0.02005847
0.02008074
0.02010568
0.02013255
0.02016062
0.02018918
0.02021758
0.02024519
0.02027144
0.0202958
0.02031782
0.0203371
0.02035336
0.02036619
0.02037369
0.02159758
0.02161265
0.02162667
0.02163129
0.02162362
0.02160455
0.02157577
0.02153867
0.02149437
0.02144378
0.02138762
0.02132646
0.02126071
0.02119067
0.02111653
0.02103842
0.02095643
0.02087059
0.02078095
0.02068755
0.02059044
0.02048966
0.02038528
0.02027738
0.02016606
0.02005143
0.01993359
0.01981268
0.01968885
0.01956223
0.01943298
0.01930129
0.01916732
0.01903124
0.01889325
0.01875353
0.01861225
0.0184696
0.01832577
0.01818095
0.01803537
0.01788925
0.01774294
0.01759677
0.01745088
0.01730482
0.01715765
0.01700974
0.01686202
0.01671492
0.0165687
0.01642373
0.01628151
0.01614771
0.01601401
0.01587158
0.01572739
0.01558579
0.01544761
0.0153127
0.01518081
0.01505167
0.0149251
0.01480089
0.01467895
0.01455918
0.01444152
0.01432586
0.01421209
0.01410028
0.01399055
0.01388271
0.01377652
0.01367195
0.01356897
0.01346766
0.01336799
0.01326986
0.01317322
0.01307804
0.01298431
0.01289201
0.01280119
0.01271186
0.01262402
0.0125377
0.01245297
0.01236987
0.01228844
0.01220875
0.01213086
0.01205481
0.01198066
0.01190845
0.01183822
0.01177001
0.01170384
0.01163975
0.01157773
0.01151779
0.0114599
0.01140404
0.01135016
0.01129822
0.01124815
0.01119988
0.01115334
0.01110846
0.01106514
0.01102332
0.0109829
0.0109438
0.01090593
0.01086921
0.01083356
0.0107989
0.01076517
0.01073227
0.01070017
0.01066879
0.0106381
0.01060802
0.01057857
0.01054964
0.0105213
0.0104934
0.01046608
0.01043908
0.01041265
0.01038633
0.01036046
0.01033413
0.01030765
0.01027897
0.01024791
0.01021221
0.01017971
0.01016737
0.01017931
0.05786757
0.06134309
0.06556123
0.07029185
0.07558661
0.08156
0.08840243
0.09641441
0.1060804
0.117373
0.1709261
0.187248
0.2038964
0.2204807
0.2365403
0.2512244
0.2659635
0.283694
0.3120052
0.375683
0.3904768
0.4038971
0.4156498
0.4255024
0.434233
0.4418386
0.4482293
0.4532139
0.4568097
0.4585085
0.4591617
0.4581596
0.4553524
0.450984
0.445421
0.4389996
0.4319921
0.4248193
0.4153741
0.4065584
0.3982679
0.3904399
0.3830298
0.37597
0.3691979
0.3626612
0.3563211
0.3501529
0.344039
0.3379583
0.3319216
0.32595
0.3200694
0.3143039
0.3086689
0.3031542
0.3143186
0.3089403
0.3036632
0.2985621
0.2936865
0.2890829
0.2848001
0.2808765
0.2773466
0.2742192
0.2714714
0.2690773
0.2669873
0.2651172
0.2633878
0.2617402
0.2601301
0.2585178
0.2568513
0.255047
0.2530448
0.2508454
0.2484605
0.2459299
0.2433099
0.240649
0.2379755
0.2352855
0.2325606
0.2297846
0.2269238
0.2239596
0.2208953
0.217802
0.2146161
0.211215
0.2075329
0.2035966
0.1991735
0.1945872
0.1899404
0.1853317
0.1808437
0.176528
0.1723571
0.1685442
0.1653471
0.162849
0.161108
0.1601466
0.159944
0.1604282
0.1614724
0.1628987
0.1644989
0.166073
0.1674904
0.1686477
0.1693606
0.1695675
0.1692425
0.1683244
0.1667913
0.1647412
0.1622917
0.1595555
0.1566327
0.1536009
0.1505079
0.1474031
0.1443263
0.1413064
0.1383645
0.1355148
0.1327687
0.1301329
0.1276155
0.125214
0.1229109
0.12071
0.1186051
0.1165156
0.1144069
0.1122621
0.1100817
0.1078195
0.1055343
0.1032934
0.1010696
0.09883679
0.09657315
0.09428477
0.09197725
0.08964624
0.08736643
0.08511693
0.08289756
0.08076998
0.07841946
0.07571204
0.07304
0.07079186
0.06914084
0.0681021
0.06770857
0.06794438
0.06861426
0.06987965
0.07210707
0.07510513
0.07833064
0.08058863
0.08021896
0.07684805
0.07175795
0.06671517
0.06259236
0.05947849
0.05715561
0.05539157
0.05417316
0.05346759
0.05319705
0.05326982
0.0535981
0.05409197
0.05469751
0.05545421
0.05635409
0.05735855
0.05842437
0.05951301
0.06059434
0.06164719
0.06265818
0.06362252
0.06454198
0.06540839
0.06621339
0.06696381
0.06766654
0.06832471
0.06893771
0.06950234
0.07001385
0.07046652
0.07085416
0.07117034
0.0714087
0.07156327
0.07162865
0.07160036
0.07147497
0.0712503
0.07092564
0.07050204
0.06998242
0.06937142
0.06867521
0.06790143
0.06705912
0.06615838
0.06521017
0.0642258
0.06321656
0.06219349
0.06116715
0.06014723
0.05914208
0.05815847
0.05720147
0.05627438
0.05537946
0.05451867
0.05369383
0.0529062
0.05215616
0.05144319
0.05076605
0.05012273
0.04951032
0.04892549
0.04836438
0.04782409
0.04729919
0.04678528
0.04624904
0.04577934
0.04533081
0.04488639
0.0444417
0.04399473
0.04354386
0.04308754
0.04262435
0.04215302
0.04167249
0.04118199
0.04068108
0.04016965
0.03964795
0.03911659
0.03857652
0.03802899
0.03747555
0.03691795
0.03635812
0.03579811
0.03523998
0.03468579
0.03413756
0.03359731
0.03306703
0.03254857
0.03204372
0.03155407
0.031081
0.03062578
0.03018933
0.02977272
0.02937795
0.02900965
0.02867195
0.02836367
0.02808217
0.02782549
0.02759186
0.02737968
0.02718759
0.02701443
0.02685912
0.02672059
0.02659773
0.02648942
0.02639454
0.02631203
0.02624082
0.02617988
0.02612817
0.02608468
0.02604838
0.02601827
0.02599338
0.02597275
0.02595546
0.02594063
0.02592739
0.02591495
0.02590256
0.02588951
0.0258752
0.02585904
0.0258407
0.02581953
0.02579632
0.02577233
0.02573221
0.02568919
0.02564081
0.02558704
0.02552926
0.02546791
0.02540257
0.02533266
0.02525779
0.02517779
0.02509263
0.02500234
0.024907
0.02480672
0.02470163
0.02459187
0.02447759
0.02435893
0.02423605
0.02410911
0.02397825
0.02384363
0.02370541
0.02356374
0.02341878
0.02327067
0.02311957
0.02296564
0.02280901
0.02264984
0.02248828
0.02232448
0.02215859
0.02199078
0.02182118
0.02164997
0.02147728
0.02130328
0.02112812
0.02095196
0.02077499
0.02059738
0.02041935
0.02024106
0.02006259
0.01988386
0.01970456
0.01952466
0.01934449
0.01916438
0.01898453
0.01880507
0.01862582
0.01844682
0.01826924
0.01809347
0.01791995
0.01774841
0.01757827
0.01740937
0.01724195
0.01707634
0.01691281
0.01675155
0.01659267
0.01643626
0.01628237
0.01613106
0.01598232
0.01583625
0.01569281
0.01555196
0.01541369
0.01527798
0.01514484
0.01501434
0.01488645
0.01476107
0.01463815
0.01451773
0.01439984
0.01428443
0.01417149
0.01406101
0.01395297
0.01384738
0.01374425
0.01364358
0.01354539
0.01344967
0.01335645
0.01326573
0.01317752
0.01309181
0.01300862
0.01292794
0.01284976
0.01277407
0.01270087
0.01263012
0.0125618
0.01249585
0.01243224
0.0123709
0.01231175
0.01225473
0.01219975
0.01214672
0.01209555
0.01204615
0.01199841
0.01195226
0.01190758
0.01186428
0.01182226
0.01178144
0.01174172
0.01170303
0.01166528
0.01162841
0.01159233
0.01155702
0.01152238
0.01148843
0.01145505
0.01142229
0.01139001
0.01135831
0.01132694
0.01129608
0.01126526
0.01123469
0.01120356
0.01117226
0.01113989
0.01110819
0.01107809
0.01105487
0.01104108
0.05161896
0.05631094
0.06049107
0.08863482
0.1168501
0.1505979
0.1726087
0.1940937
0.2135703
0.2312169
0.2463264
0.2591301
0.271493
0.2838194
0.2961467
0.3085516
0.321116
0.3336382
0.3459853
0.358259
0.3705107
0.3826833
0.3947727
0.4068591
0.4189221
0.4307919
0.4427234
0.4549601
0.4675795
0.4804913
0.4942045
0.5247507
0.5360794
0.5462373
0.5556846
0.564529
0.5726165
0.5797177
0.5855635
0.5898628
0.5921852
0.5914111
0.5884091
0.5837524
0.5779076
0.5711819
0.5637801
0.5558461
0.5475044
0.5388378
0.5299096
0.5208407
0.5116768
0.5024906
0.4933474
0.4842925
0.475362
0.4665815
0.4579598
0.4494909
0.4411619
0.4329513
0.4248371
0.4168048
0.408848
0.4009664
0.3931755
0.3855156
0.3777264
0.3701418
0.3627934
0.3557168
0.348967
0.3425997
0.336668
0.331222
0.3263034
0.3219319
0.3180956
0.3147527
0.3118281
0.3092205
0.306829
0.3045726
0.302396
0.3002457
0.2980409
0.2956766
0.2930672
0.29019
0.2870786
0.2838085
0.280467
0.2771218
0.2738052
0.2705125
0.2672191
0.2638968
0.2605307
0.2571594
0.2538093
0.2503327
0.2466629
0.242773
0.2386292
0.2342558
0.2296391
0.2248299
0.2199382
0.2150735
0.2103238
0.205769
0.2014885
0.1975382
0.1941131
0.1914696
0.1896967
0.1888406
0.1888849
0.1897355
0.1912152
0.1930813
0.1950669
0.1969335
0.1985145
0.1997049
0.2003892
0.2004447
0.1997719
0.1983139
0.1961111
0.1933604
0.1901941
0.1867584
0.1831783
0.1795447
0.1759133
0.172321
0.1687931
0.1653466
0.161994
0.1587445
0.155605
0.1525794
0.1496684
0.1468655
0.1441574
0.1415303
0.1389674
0.1364221
0.1338731
0.1313092
0.1287301
0.1261206
0.1234968
0.1208781
0.1182551
0.1156058
0.1129063
0.110151
0.1073306
0.1044369
0.1015003
0.09851153
0.0954822
0.0924604
0.08937038
0.08620487
0.0831585
0.08044805
0.07819426
0.07639509
0.07499356
0.0739486
0.07326137
0.07300287
0.07324742
0.07435986
0.07694289
0.0806659
0.08471738
0.08729462
0.0867184
0.08336244
0.07890295
0.07470347
0.07126955
0.06858398
0.06660398
0.06527148
0.06450472
0.06420442
0.06426792
0.06459987
0.06511428
0.06583862
0.06677338
0.06786263
0.06903952
0.07024409
0.07143059
0.0725691
0.07364393
0.07465127
0.07559631
0.07647344
0.07728198
0.0780315
0.07872935
0.07937855
0.07997869
0.08052698
0.08101923
0.08145043
0.0818151
0.08210757
0.08232214
0.08245325
0.08249568
0.08244482
0.08229681
0.08204863
0.08169836
0.08124562
0.08069186
0.08004017
0.07929507
0.07846256
0.07755026
0.07656733
0.07552405
0.0744315
0.0733011
0.07214436
0.07097255
0.06979627
0.06862507
0.06746706
0.06632848
0.0652132
0.0641246
0.06306629
0.0620414
0.06105233
0.06010037
0.05918608
0.05830973
0.05747086
0.05666792
0.05589866
0.05516046
0.05445151
0.05376925
0.05311324
0.05247764
0.05186476
0.05127344
0.05070091
0.0501439
0.04959887
0.04906251
0.04853182
0.04800398
0.04747647
0.04694702
0.04641376
0.04587516
0.04533013
0.04477801
0.04421856
0.04365198
0.04307886
0.04250016
0.04191714
0.04133133
0.04074444
0.04015829
0.03957478
0.03899578
0.03842332
0.0378592
0.03730524
0.03676315
0.03623447
0.03572066
0.03522294
0.03474244
0.03428052
0.03383917
0.03342139
0.03303019
0.03266642
0.03232928
0.03201753
0.03172995
0.03146529
0.03122233
0.03099993
0.03079696
0.03061228
0.03044471
0.03029307
0.03015618
0.03003285
0.02992195
0.02982238
0.02973302
0.0296528
0.02958062
0.02951544
0.02945624
0.02940201
0.0293518
0.0293047
0.02925982
0.02921634
0.02917349
0.02913053
0.02908686
0.02904182
0.02899506
0.02894585
0.02889447
0.0288394
0.02877982
0.02871533
0.02864615
0.02857236
0.02849388
0.02841061
0.02832242
0.02822918
0.02813086
0.02802744
0.02791897
0.02780546
0.02768698
0.02756361
0.02743545
0.02730264
0.0271653
0.02702361
0.02687772
0.02672782
0.02657409
0.02641671
0.02625588
0.02609178
0.02592459
0.0257545
0.02558168
0.02540629
0.02522851
0.02504848
0.02486636
0.0246823
0.02449645
0.02430895
0.02411994
0.02392956
0.02373794
0.02354522
0.02335152
0.02315699
0.02296174
0.02276592
0.02256964
0.02237302
0.02217611
0.02197889
0.02178123
0.02158306
0.02138448
0.02118567
0.0209868
0.02078799
0.02058942
0.02039155
0.02019469
0.01999831
0.01980217
0.01960661
0.01941212
0.01921904
0.01902757
0.01883788
0.0186501
0.01846435
0.01828076
0.01809942
0.01792045
0.01774393
0.01756993
0.0173985
0.0172297
0.01706361
0.01690032
0.01673986
0.01658228
0.01642759
0.01627584
0.01612705
0.01598125
0.01583854
0.01569895
0.01556244
0.01542901
0.01529873
0.01517162
0.01504766
0.01492686
0.01480923
0.01469477
0.01458349
0.01447537
0.01437042
0.01426862
0.01416995
0.01407438
0.01398189
0.01389245
0.01380602
0.01372257
0.01364204
0.0135644
0.01348958
0.01341752
0.01334814
0.01328136
0.01321709
0.01315523
0.0130957
0.01303838
0.01298316
0.01292995
0.01287862
0.01282907
0.01278118
0.01273485
0.01268996
0.01264641
0.01260411
0.01256294
0.01252284
0.0124837
0.01244546
0.01240803
0.01237137
0.0123354
0.01230009
0.01226535
0.0122312
0.01219747
0.01216422
0.01213121
0.0120985
0.01206586
0.01203344
0.01200134
0.01197005
0.01194068
0.01191435
0.01189473
0.02925826
0.03187359
0.03427822
0.04370083
0.05673741
0.07804005
0.09306607
0.1087351
0.1252022
0.1415754
0.1580968
0.1758524
0.1942926
0.2127011
0.2314995
0.2523738
0.2839895
0.2975448
0.3111313
0.3247378
0.3385774
0.351999
0.3644988
0.3761383
0.3869026
0.3969075
0.4064866
0.4157532
0.4247609
0.4335533
0.4421637
0.4505824
0.4588463
0.4669282
0.4748482
0.4825808
0.489874
0.4969254
0.5040695
0.5116295
0.5199978
0.528938
0.5348122
0.5426223
0.5512548
0.5603894
0.5697366
0.5789797
0.5877028
0.5955499
0.6020887
0.6068373
0.6088856
0.6091248
0.6079695
0.6057022
0.6024729
0.5983688
0.5934536
0.5877972
0.5814642
0.5745354
0.5671184
0.5593045
0.5511874
0.5428509
0.5343609
0.5257824
0.5171634
0.5085416
0.4999378
0.4913555
0.482787
0.4742232
0.4656522
0.4570707
0.4484843
0.4399162
0.4313767
0.4228802
0.4144846
0.4062487
0.3982442
0.3905571
0.38328
0.3765048
0.3703178
0.3647918
0.3599681
0.3558462
0.3523684
0.3494174
0.3468412
0.3444966
0.3422864
0.3401525
0.3380173
0.3357452
0.3331766
0.3302038
0.3268234
0.3231284
0.3192586
0.3153461
0.3114747
0.3076668
0.3038975
0.300124
0.2963175
0.2925238
0.2886876
0.284698
0.2805504
0.2762335
0.2717341
0.2670346
0.2621582
0.2571332
0.2520083
0.2468712
0.2418197
0.2369471
0.2323506
0.2281368
0.22442
0.2213078
0.2191359
0.2180323
0.218043
0.2191219
0.2211117
0.2237397
0.2266524
0.2294946
0.2320016
0.234008
0.2354409
0.2362043
0.2361158
0.2349751
0.2327031
0.229453
0.2255958
0.221322
0.2168439
0.2123193
0.2078417
0.2034667
0.1992043
0.1950512
0.1910043
0.1870649
0.1832391
0.179534
0.175954
0.1724984
0.1691604
0.1659264
0.1627779
0.1596948
0.1566473
0.1536149
0.1505857
0.1475547
0.1445133
0.1414604
0.1383967
0.1353137
0.1321949
0.129019
0.1257683
0.1224368
0.1190185
0.1155271
0.1119594
0.1083299
0.104684
0.1010213
0.09737612
0.09388499
0.0906958
0.08788085
0.0854124
0.08325138
0.08138326
0.07974808
0.07832364
0.07728271
0.07692923
0.07751638
0.07948085
0.08318524
0.08797481
0.09236473
0.09424464
0.09285727
0.08944646
0.08561709
0.08226808
0.07966997
0.0778235
0.07664019
0.0760059
0.07580586
0.07593487
0.07632221
0.07701572
0.07798842
0.07915437
0.08041458
0.08168313
0.08289803
0.08402305
0.08504474
0.08596732
0.08680811
0.08756271
0.08824182
0.08886203
0.08944018
0.0899781
0.09047246
0.09091824
0.09130984
0.09164162
0.09190813
0.09210421
0.09222504
0.09226609
0.09222318
0.09209258
0.09187104
0.09155577
0.09114447
0.09063593
0.09003043
0.08932957
0.08853597
0.08765346
0.08668746
0.08564505
0.08453471
0.08336601
0.0821493
0.08089539
0.07961525
0.07831964
0.07701871
0.0757215
0.07443482
0.07316133
0.0719038
0.07066951
0.06946349
0.06828872
0.06714614
0.06603667
0.06496259
0.06392568
0.06292629
0.06196376
0.06103729
0.06014663
0.05929139
0.05847159
0.05768508
0.05692937
0.05620375
0.05550681
0.05483597
0.05418808
0.05355984
0.05294791
0.05234903
0.05175991
0.05117747
0.05059891
0.05002178
0.04944403
0.04886404
0.04828067
0.04769323
0.04710152
0.04650577
0.04590657
0.04530495
0.04470214
0.04409967
0.04349901
0.04290191
0.0423101
0.04172525
0.04114907
0.04058317
0.0400291
0.03948827
0.03896201
0.03845164
0.03795866
0.03748488
0.03703258
0.03660409
0.03620074
0.03582263
0.03546925
0.03513985
0.0348336
0.03454953
0.03428664
0.0340439
0.03382029
0.03361468
0.03342586
0.03325261
0.03309373
0.03294804
0.03281436
0.03269153
0.03257842
0.03247392
0.03237693
0.03228641
0.03220134
0.03212075
0.03204371
0.03196933
0.03189679
0.03182532
0.03175419
0.03168274
0.03161037
0.03153659
0.03146079
0.03138263
0.03130145
0.03121664
0.03112785
0.03103502
0.03093798
0.03083652
0.03073057
0.03062005
0.0305049
0.03038506
0.03026051
0.03013126
0.02999732
0.02985876
0.02971564
0.02956808
0.0294162
0.02926014
0.02910005
0.02893611
0.0287685
0.02859742
0.02842307
0.02824564
0.02806533
0.02788234
0.02769686
0.02750906
0.02731912
0.0271272
0.02693346
0.02673804
0.02654108
0.02634273
0.02614311
0.02594234
0.02574055
0.02553784
0.02533433
0.02513012
0.02492529
0.02471995
0.02451418
0.02430805
0.02410161
0.02389488
0.02368784
0.02348042
0.02327256
0.02306426
0.02285561
0.02264672
0.0224377
0.02222871
0.02201987
0.02181123
0.02160269
0.02139435
0.02118645
0.02097923
0.02077284
0.02056744
0.02036318
0.02016023
0.01995876
0.01975894
0.01956092
0.01936485
0.01917084
0.01897901
0.01878946
0.01860229
0.01841763
0.01823559
0.01805623
0.01787963
0.01770588
0.01753509
0.01736734
0.01720271
0.01704129
0.01688312
0.01672827
0.01657683
0.0164289
0.0162845
0.01614365
0.01600641
0.01587282
0.01574291
0.01561669
0.01549419
0.0153754
0.01526032
0.01514893
0.01504122
0.01493714
0.01483666
0.01473975
0.01464634
0.01455639
0.01446983
0.01438659
0.0143066
0.01422976
0.01415599
0.01408519
0.01401724
0.01395203
0.01388946
0.01382939
0.0137717
0.01371628
0.01366298
0.01361168
0.01356226
0.01351458
0.01346853
0.01342398
0.0133808
0.01333891
0.01329818
0.01325852
0.01321983
0.01318204
0.01314505
0.01310882
0.01307325
0.0130383
0.01300389
0.01296999
0.01293651
0.01290346
0.01287082
0.01283869
0.01280732
0.0127769
0.01274837
0.01272182
0.01270104
0.01110284
0.01339111
0.01501853
0.02213954
0.03027245
0.04080428
0.04964931
0.05966671
0.07043844
0.08181971
0.09422938
0.1085921
0.1240413
0.1409389
0.1606899
0.1901243
0.2043882
0.2189536
0.2332985
0.2474029
0.2612423
0.2747465
0.2877898
0.3003332
0.3123794
0.323849
0.3348673
0.3464508
0.358021
0.3696967
0.3814585
0.3928682
0.4034901
0.4129997
0.4215865
0.4293879
0.4365192
0.4430717
0.4491
0.4546361
0.4597137
0.4643586
0.4686065
0.4722473
0.4753915
0.4781518
0.4805757
0.4829668
0.4855769
0.4887706
0.4928086
0.4979856
0.5038428
0.511513
0.5206835
0.5311225
0.5425043
0.5543794
0.5661902
0.5774692
0.5877843
0.5960759
0.6027159
0.6080023
0.6120354
0.6148212
0.6163007
0.6164404
0.6152459
0.612755
0.6090492
0.6042831
0.5985926
0.5921292
0.5850536
0.5775019
0.5695908
0.5614071
0.5530339
0.54455
0.5360058
0.5274176
0.5187851
0.5101044
0.501365
0.4925648
0.4837233
0.4748709
0.4660347
0.4572513
0.4485794
0.4400901
0.43187
0.4240299
0.4166924
0.4099833
0.404024
0.3989178
0.3947204
0.3914086
0.3888543
0.3868365
0.3851141
0.3835083
0.3819366
0.3803442
0.3785892
0.3764203
0.3735965
0.3700388
0.3658722
0.3613503
0.3567383
0.3522236
0.3478748
0.343651
0.3394629
0.3352457
0.3310388
0.3266957
0.3220637
0.3171404
0.3120031
0.3067349
0.3013739
0.2959247
0.2904028
0.2848454
0.2793183
0.2739139
0.2687376
0.2638975
0.259509
0.255701
0.2526146
0.2504005
0.2493548
0.2497061
0.2514591
0.2544884
0.2585063
0.263058
0.2675989
0.2716432
0.2749044
0.2773429
0.2790202
0.2798405
0.2794649
0.2775137
0.2738992
0.2690119
0.2634904
0.2576757
0.2518691
0.246227
0.2407879
0.2355249
0.2303944
0.2253673
0.2204358
0.2156111
0.2109147
0.2063678
0.2019824
0.19776
0.1936921
0.1897612
0.1859412
0.1822031
0.1785217
0.174866
0.1712143
0.1675553
0.1638819
0.1601887
0.1564708
0.1527224
0.1489372
0.1451137
0.1412495
0.137337
0.1333693
0.1293469
0.1252535
0.121106
0.1169464
0.1127993
0.1087152
0.1047935
0.1011315
0.09777109
0.09469998
0.09190478
0.08936311
0.08701848
0.08485865
0.08297158
0.08150778
0.0807007
0.08090948
0.0825326
0.08602876
0.0910313
0.09644845
0.1003657
0.1012551
0.09940964
0.0963479
0.09337358
0.09108721
0.08959401
0.08878165
0.08848659
0.0885628
0.08897276
0.08975103
0.0908345
0.0921036
0.0934255
0.0946885
0.09581727
0.0967749
0.09755856
0.09818703
0.09869665
0.09911843
0.09947884
0.09979518
0.1000892
0.1003618
0.1006075
0.1008185
0.1009869
0.1011056
0.1011682
0.1011695
0.1011051
0.1009714
0.1007655
0.1004851
0.1001282
0.09969301
0.0991777
0.09858066
0.09790138
0.09714029
0.09629804
0.09537565
0.09437528
0.09330057
0.09215667
0.09094997
0.08968795
0.08837899
0.08703224
0.0856574
0.08426431
0.08286253
0.08146085
0.08006476
0.07867711
0.07730501
0.07595418
0.07462783
0.07332529
0.07204444
0.07079079
0.06956838
0.06838033
0.0672284
0.06611417
0.06503948
0.06400591
0.06301463
0.06206564
0.06115803
0.06029095
0.05946299
0.05867192
0.05791487
0.05718865
0.05648982
0.05581474
0.05515972
0.05452107
0.05389524
0.05327898
0.05266935
0.05206382
0.05146031
0.0508572
0.05025339
0.04964826
0.04904168
0.04843391
0.04782579
0.0472182
0.04661226
0.04600932
0.04541077
0.04481807
0.04423272
0.04365621
0.04308997
0.04253538
0.0419938
0.04146661
0.04095531
0.04046162
0.03998744
0.03953463
0.03910452
0.03869766
0.03831404
0.03795337
0.03761514
0.03729868
0.03700324
0.03672795
0.03647188
0.03623408
0.03601349
0.03580887
0.03561902
0.03544277
0.03527894
0.03512636
0.03498385
0.0348503
0.03472459
0.03460566
0.03449249
0.0343841
0.03427956
0.03417799
0.03407857
0.03398053
0.03388316
0.03378581
0.03368788
0.03358884
0.03348814
0.03338536
0.03328004
0.0331717
0.03305995
0.03294457
0.03282536
0.03270219
0.03257499
0.03244371
0.0323083
0.03216871
0.03202492
0.03187695
0.03172482
0.03156859
0.03140836
0.03124422
0.03107631
0.03090476
0.03072974
0.03055141
0.03036996
0.03018559
0.02999851
0.0298089
0.02961697
0.02942292
0.02922692
0.02902915
0.02882978
0.02862895
0.0284268
0.02822348
0.0280191
0.02781379
0.02760764
0.02740077
0.02719327
0.02698523
0.02677671
0.0265678
0.02635855
0.02614901
0.02593921
0.02572919
0.02551895
0.02530847
0.02509771
0.0248866
0.02467508
0.02446311
0.02425069
0.02403787
0.02382469
0.0236112
0.02339746
0.02318351
0.0229694
0.0227552
0.02254104
0.02232707
0.02211345
0.02190031
0.02168781
0.02147612
0.0212654
0.02105582
0.02084751
0.02064064
0.02043535
0.02023177
0.02003002
0.01983024
0.01963256
0.01943711
0.019244
0.01905334
0.01886527
0.0186799
0.01849738
0.0183178
0.01814128
0.01796796
0.01779795
0.01763136
0.01746831
0.01730889
0.01715319
0.01700131
0.01685332
0.01670929
0.01656929
0.01643337
0.01630155
0.01617387
0.01605033
0.01593094
0.01581567
0.01570451
0.01559743
0.01549437
0.01539528
0.01530011
0.01520878
0.0151212
0.0150373
0.01495696
0.01488009
0.01480656
0.01473624
0.01466903
0.01460476
0.01454332
0.01448455
0.01442832
0.01437446
0.01432285
0.01427332
0.01422573
0.01417994
0.01413581
0.01409321
0.014052
0.01401207
0.01397329
0.01393556
0.01389879
0.01386288
0.01382774
0.01379331
0.01375952
0.01372632
0.01369368
0.01366161
0.01363014
0.01359936
0.01356952
0.01354074
0.01351374
0.01348843
0.01346842
0.002400272
0.01006355
0.01489492
0.02088555
0.02794308
0.03630332
0.04606855
0.05707353
0.06947794
0.08444175
0.1069074
0.1194778
0.1326903
0.1462405
0.159957
0.1737123
0.187387
0.2008548
0.2139355
0.2265594
0.2388139
0.252355
0.2656537
0.2785555
0.2910395
0.3031751
0.3149324
0.3262163
0.3369966
0.3473481
0.3572732
0.3668783
0.376358
0.3854879
0.3943885
0.403
0.4110227
0.4181487
0.4245077
0.4301479
0.4351134
0.4394377
0.4431553
0.446277
0.448799
0.4507702
0.4519432
0.4526089
0.452789
0.4526342
0.4522183
0.4515435
0.4510877