/*--------------------------------*- C++ -*----------------------------------*\
| =========                 |                                                 |
| \\      /  F ield         | foam-extend: Open Source CFD                    |
|  \\    /   O peration     | Version:     3.1                                |
|   \\  /    A nd           | Web:         http://www.extend-project.de       |
|    \\/     M anipulation  |                                                 |
\*---------------------------------------------------------------------------*/
FoamFile
{
    version     2.0;
    format      ascii;
    class       volScalarField;
    location    "10";
    object      p;
}
// * * * * * * * * * * * * * * * * * * * * * * * * * * * * * * * * * * * * * //

dimensions      [1 -1 -2 0 0 0 0];

internalField   nonuniform List<scalar> 
119952
(
7327.232
6377.03
6232.727
6364.254
6521.095
6402.753
6378.418
6369.675
6375.139
6387.502
6405.333
6427.25
6451.862
6477.718
6504.04
6530.163
6555.044
6577.208
6590.625
6570.703
6775.087
6699.24
6692.16
6941.86
6943.418
7000.345
7034.962
7119.017
7302.922
7917.938
5137.197
5071.861
5064.264
5058.524
5061.117
5067.781
5080.727
5101.228
5131.043
5140.601
5162.113
5207.105
5254.369
5305.696
5361.722
5421.83
5484.454
5548.049
5610.337
5689.443
5720.228
5760.024
5804.42
5843.71
5878.25
5908.199
5933.408
5953.808
5973.731
5978.218
5984.524
5990.814
5992.832
5992.54
5991.015
5989.22
5992.875
6031.92
6134.498
6032.848
6013.587
6065.59
6095.805
6094.144
6082.471
6084.693
6095.596
6112.392
6133.907
6158.809
6185.723
6213.547
6241.474
6268.848
6295.122
6319.907
6343.964
6371.104
6410.187
6452.601
6481.572
6559.825
6660.4
6703.401
6736.239
6769.099
6762.992
6670.914
6687.091
6748.23
6795.779
6845.627
6897.102
6949.762
7004.4
7061.769
7120.119
7178.186
7234.329
7267.548
7248.001
7172.079
7170.931
7207.061
7263.427
7325.717
7379.709
7418.42
7444.413
7460.852
7476.053
7490.579
7503.203
7512.588
7518.795
7521.51
7520.445
7515.275
7505.833
7492.134
7474.317
7452.618
7427.511
7399.722
7370.27
7340.43
7311.529
7284.789
7261.137
7241.208
7225.398
7213.886
7206.645
7203.472
7204.036
7207.928
7214.644
7223.742
7234.837
7247.335
7261.088
7275.895
7291.552
7307.891
7324.778
7342.103
7359.772
7377.699
7395.801
7413.995
7432.195
7450.309
7468.247
7485.917
7503.227
7520.087
7536.412
7552.125
7567.159
7581.457
7594.974
7607.68
7619.566
7630.617
7640.84
7650.252
7658.884
7666.769
7673.943
7680.465
7686.397
7691.792
7696.702
7701.181
7705.282
7709.057
7712.553
7715.845
7718.95
7721.918
7724.784
7727.583
7730.338
7733.066
7735.78
7738.515
7741.67
7775.896
7778.25
7781.395
7784.594
7787.828
7791.116
7794.465
7797.869
7801.315
7804.794
7808.298
7811.81
7815.317
7818.804
7822.255
7825.659
7829
7832.266
7835.457
7838.553
7841.548
7844.434
7847.205
7849.855
7852.378
7854.766
7857.025
7859.101
7861.047
7862.809
7864.37
7865.688
7866.676
7867.254
7866.848
7865.725
7870.173
7873.446
7876.203
7878.582
7880.706
7882.632
7884.387
7885.996
7887.469
7888.817
7890.047
7891.165
7892.176
7893.085
7893.896
7894.612
7895.236
7895.771
7896.219
7896.584
7896.867
7897.07
7897.195
7897.245
7897.219
7897.12
7896.948
7896.704
7896.39
7896.006
7895.555
7895.065
7894.539
7893.704
7868.049
7864.235
7860.189
7859.166
7857.91
7856.44
7855.035
7853.597
7852.074
7850.476
7848.799
7847.037
7845.184
7843.235
7841.188
7839.043
7836.798
7834.453
7832.008
7829.464
7826.821
7824.081
7821.246
7818.316
7815.295
7812.183
7808.984
7805.7
7802.335
7798.892
7795.374
7791.785
7788.131
7784.414
7780.641
7776.818
7772.95
7769.043
7765.108
7761.152
7757.189
7753.234
7749.313
7745.465
7741.679
7737.686
7733.132
7728.346
7723.737
7719.222
7714.766
7710.385
7705.973
7700.635
7693.017
7691.047
7687.389
7682.979
7678.812
7674.658
7670.518
7666.45
7662.461
7658.551
7654.716
7650.957
7647.276
7643.658
7640.116
7636.655
7633.274
7629.971
7626.735
7623.571
7620.486
7617.478
7614.544
7611.685
7608.9
7606.189
7603.553
7600.988
7598.494
7596.072
7593.717
7591.43
7589.208
7587.05
7584.953
7582.915
7580.936
7579.012
7577.141
7575.32
7573.549
7571.823
7570.141
7568.5
7566.897
7565.331
7563.798
7562.296
7560.822
7559.374
7557.949
7556.545
7555.158
7553.786
7552.425
7551.074
7549.729
7548.387
7547.044
7545.699
7544.346
7542.982
7541.604
7540.206
7538.785
7537.335
7535.849
7534.322
7532.745
7531.108
7529.401
7527.61
7525.718
7523.703
7521.537
7519.183
7516.589
7513.683
7510.362
7506.443
7501.629
7495.679
7489.889
7492.548
7519.304
6180.342
6084.782
5970.003
5868.014
5774.165
5688.492
5610.913
5541.206
5480.822
5392.556
5348.327
5308.41
5272.641
5244.814
5224.468
5211.051
5203.591
5198.628
5177.437
5190.516
5184.799
5185.644
5188.204
5188.993
5186.417
5179.778
5168.129
5152.459
5132.618
5097.017
5063.818
5029.289
4991.457
4953.257
4916.232
4881.87
4852.694
4830.959
4800.145
4781.011
4773.763
4773.606
4779.732
4791.93
4809.91
4833.917
4862.108
4895.062
4938.555
4985.159
5036.816
5093.461
5154.475
5218.628
5283.535
5348.449
5374.435
5436.493
5481.763
5523.209
5563.337
5599.129
5628.881
5651.928
5669.272
5681.281
5689.617
5693.625
5693.492
5690.483
5686.198
5682.283
5681.405
5686.23
5696.969
5706.589
5704.727
5699.122
5706.171
5720.09
5732.151
5741.824
5753.733
5771.839
5795.913
5823.901
5853.977
5884.892
5915.83
5946.237
5975.828
6004.637
6033.194
6062.576
6094.328
6129.787
6169.543
6214.006
6264.288
6316.633
6359.448
6388.475
6405.417
6409.405
6407.482
6421.565
6454.29
6496.296
6542.343
6589.985
6639.449
6689.882
6741.629
6792.796
6837.855
6877.838
6901.015
6897.323
6886.317
6902.221
6937.795
6983.308
7036.822
7086.438
7122.791
7151.206
7178.107
7195.914
7202.338
7205.923
7212.736
7218.67
7221.604
7220.231
7214.177
7203.616
7188.621
7169.286
7145.653
7118.376
7088.393
7056.928
7025.441
6995.506
6968.468
6945.035
6925.689
6910.767
6900.374
6894.391
6892.521
6894.342
6899.353
6907.018
6916.9
6928.587
6941.664
6955.829
6970.867
6986.613
7002.934
7019.722
7036.892
7054.368
7072.077
7089.948
7107.906
7125.873
7143.764
7161.494
7178.971
7196.105
7212.809
7228.997
7244.594
7259.533
7273.755
7287.216
7299.885
7311.742
7322.778
7332.998
7342.416
7351.059
7358.96
7366.163
7372.718
7378.681
7384.107
7389.048
7393.557
7397.683
7401.478
7404.994
7408.283
7411.389
7414.354
7417.216
7420.008
7422.757
7425.491
7428.218
7430.966
7433.642
7498.713
7500.476
7503.793
7506.993
7510.239
7513.546
7516.912
7520.335
7523.809
7527.321
7530.861
7534.414
7537.967
7541.504
7545.011
7548.476
7551.885
7555.224
7558.48
7561.647
7564.714
7567.675
7570.52
7573.244
7575.84
7578.314
7580.614
7582.771
7584.766
7586.586
7588.213
7589.621
7590.775
7591.667
7592.411
7593.513
7595.801
7598.529
7600.967
7603.212
7605.267
7607.146
7608.872
7610.455
7611.905
7613.231
7614.44
7615.536
7616.525
7617.412
7618.199
7618.89
7619.488
7619.996
7620.417
7620.752
7621.005
7621.177
7621.27
7621.286
7621.226
7621.092
7620.884
7620.604
7620.253
7619.834
7619.352
7618.813
7618.253
7618.044
7555.417
7554.982
7553.742
7552.055
7550.472
7549.047
7547.644
7546.174
7544.62
7542.986
7541.271
7539.47
7537.577
7535.589
7533.505
7531.324
7529.044
7526.667
7524.191
7521.618
7518.949
7516.184
7513.325
7510.373
7507.331
7504.202
7500.986
7497.688
7494.309
7490.855
7487.327
7483.73
7480.069
7476.348
7472.572
7468.746
7464.876
7460.969
7457.032
7453.072
7449.099
7445.119
7441.134
7437.128
7433.062
7428.872
7424.5
7419.997
7415.486
7411.014
7406.571
7402.123
7397.587
7392.773
7387.674
7382.996
7378.962
7375.112
7371.134
7367.026
7362.9
7358.839
7354.865
7350.973
7347.154
7343.403
7339.728
7336.127
7332.604
7329.157
7325.781
7322.493
7319.28
7316.134
7313.067
7310.08
7307.168
7304.33
7301.564
7298.875
7296.26
7293.716
7291.242
7288.837
7286.501
7284.233
7282.028
7279.887
7277.806
7275.784
7273.82
7271.909
7270.052
7268.244
7266.484
7264.77
7263.098
7261.467
7259.873
7258.315
7256.789
7255.294
7253.826
7252.384
7250.963
7249.563
7248.179
7246.81
7245.452
7244.103
7242.759
7241.418
7240.076
7238.731
7237.378
7236.015
7234.636
7233.239
7231.818
7230.369
7228.885
7227.36
7225.787
7224.156
7222.459
7220.681
7218.811
7216.825
7214.709
7212.425
7209.954
7207.243
7204.299
7201.137
7198.035
7195.506
7194.516
7195.519
7198.994
3512.612
3585.796
3682.489
3792.447
3915.575
4051.26
4199.378
4360.465
4533.87
4716.043
4893.592
5097.399
5308.469
5525.959
5747.392
5967.605
6183.866
6391.538
6587.665
6754.754
6909.58
7041.513
7146.735
7222.053
7266.256
7279.2
7261.983
7216.787
7150.174
7056.926
6944.701
6817.576
6681.82
6541.432
6399.88
6260.011
6124.459
5995.957
5864.585
5748.701
5640.073
5539.069
5446.336
5361.256
5283.994
5214.649
5153.758
5099.371
5050.748
5011.492
4978.959
4953.596
4935.506
4924.206
4919.269
4922.39
4859.051
4863.871
4871.431
4878.698
4883.896
4885.681
4883.205
4875.599
4862.201
4842.337
4815.951
4784.272
4747.65
4707.351
4665.441
4623.982
4584.604
4548.638
4516.919
4490.117
4469.592
4456.235
4449.896
4450.698
4458.43
4472.395
4491.975
4516.783
4547.075
4583.433
4625.238
4672.944
4726.985
4786.971
4851.336
4919.66
4988.981
5060.013
5131.183
5192.236
5244.647
5292.748
5337.108
5376.022
5407.022
5430.502
5446.64
5456.86
5461.55
5460.963
5456.273
5448.911
5440.101
5431.297
5423.66
5418.421
5416.04
5418.259
5418.101
5414.033
5416.636
5428.54
5443.876
5459.914
5479.313
5504.467
5535.022
5568.873
5603.994
5639.078
5673.364
5706.466
5738.309
5769.145
5799.473
5830.026
5861.643
5895.447
5932.16
5970.598
6010.368
6051.085
6087.387
6114.766
6134.034
6148.481
6160.019
6176.386
6204.322
6242.013
6284.307
6328.393
6373.867
6420.5
6466.913
6512.332
6554.244
6589.759
6619.4
6636.679
6642.776
6659.819
6695.577
6742.293
6789.374
6831.793
6872.277
6906.717
6926.314
6940.206
6958.971
6975.605
6981.274
6983.304
6985.084
6983.24
6976.923
6965.721
6949.584
6928.754
6903.302
6873.972
6841.922
6808.467
6775.119
6743.645
6715.625
6691.676
6672.072
6657.203
6647.165
6641.777
6640.661
6643.311
6649.155
6657.618
6668.191
6680.377
6693.841
6708.276
6723.462
6739.25
6755.528
6772.213
6789.238
6806.542
6824.069
6841.759
6859.545
6877.357
6895.117
6912.74
6930.139
6947.224
6963.906
6980.101
6995.73
7010.725
7025.024
7038.58
7051.356
7063.33
7074.491
7084.841
7094.393
7103.169
7111.202
7118.533
7125.211
7131.287
7136.816
7141.853
7146.445
7150.64
7154.492
7158.052
7161.374
7164.501
7167.478
7170.342
7173.13
7175.872
7178.6
7181.336
7184.153
7187.069
7190.408
7193.455
7196.435
7199.534
7202.753
7206.053
7209.423
7212.856
7216.346
7219.88
7223.445
7227.027
7230.611
7234.182
7237.726
7241.228
7244.676
7248.055
7251.355
7254.566
7257.679
7260.684
7263.576
7266.345
7268.988
7271.499
7273.868
7276.091
7278.16
7280.068
7281.809
7283.387
7284.83
7286.194
7287.6
7289.239
7291.228
7293.434
7295.624
7297.691
7299.616
7301.407
7303.067
7304.6
7306.009
7307.299
7308.474
7309.539
7310.498
7311.355
7312.112
7312.773
7313.339
7313.815
7314.203
7314.504
7314.721
7314.856
7314.912
7314.888
7314.788
7314.612
7314.362
7314.038
7313.642
7313.175
7312.635
7312.031
7311.339
7310.601
7309.6
7308.302
7306.973
7305.721
7304.492
7303.219
7301.863
7300.411
7298.865
7297.232
7295.513
7293.703
7291.799
7289.798
7287.701
7285.506
7283.215
7280.826
7278.341
7275.76
7273.083
7270.312
7267.448
7264.493
7261.449
7258.318
7255.102
7251.804
7248.427
7244.974
7241.449
7237.856
7234.198
7230.481
7226.708
7222.885
7219.017
7215.109
7211.169
7207.2
7203.208
7199.195
7195.155
7191.081
7186.953
7182.747
7178.435
7174.023
7169.57
7165.126
7160.699
7156.28
7151.892
7147.635
7143.633
7139.473
7135.042
7130.537
7126.109
7121.795
7117.586
7113.478
7109.466
7105.545
7101.708
7097.949
7094.269
7090.669
7087.149
7083.708
7080.326
7077.024
7073.813
7070.68
7067.624
7064.637
7061.727
7058.895
7056.135
7053.454
7050.849
7048.314
7045.847
7043.45
7041.122
7038.861
7036.663
7034.527
7032.452
7030.436
7028.477
7026.571
7024.718
7022.915
7021.159
7019.448
7017.779
7016.15
7014.559
7013.002
7011.478
7009.984
7008.517
7007.076
7005.656
7004.256
7002.873
7001.504
7000.146
6998.798
6997.455
6996.115
6994.776
6993.433
6992.083
6990.724
6989.352
6987.961
6986.549
6985.111
6983.641
6982.134
6980.583
6978.98
6977.318
6975.587
6973.776
6971.872
6969.861
6967.731
6965.474
6963.097
6960.642
6958.207
6955.973
6954.168
6953.067
6953.022
6954.259
2968.905
2954.561
2945.618
2930.622
2934.31
2925.799
2961.339
3016.254
3084.834
3126.916
3145.984
3182.301
3239.401
3314.653
3406.125
3510.226
3626.946
3756.014
3896.567
4048.13
4211.563
4386.201
4571.301
4766.299
4970.445
5180.61
5393.807
5607.401
5818.627
6021.505
6214.681
6370.98
6532.872
6660.414
6758.775
6826.9
6863.423
6868.621
6844.012
6793.34
6720.222
6624.559
6510.842
6385.38
6252.719
6116.493
5979.941
5845.737
5715.915
5591.883
5474.463
5364.545
5262.02
5166.886
5079.218
4998.961
4926.09
4860.608
4802.413
4751.316
4707.158
4670.05
4640.4
4618.417
4603.918
4596.456
4595.037
4599.049
4606.654
4616.842
4628.326
4638.471
4646.073
4650.161
4649.389
4642.655
4629.075
4608.203
4580.071
4544.781
4503.512
4458.524
4412.081
4366.216
4322.653
4282.953
4248.462
4220.434
4199.274
4185.332
4179.399
4181.399
4190.515
4205.58
4225.721
4250.668
4280.512
4315.801
4357.433
4405.928
4461.011
4522.703
4590.237
4662.702
4738.301
4814.205
4887.246
4954.655
5015.704
5070.544
5118.907
5159.768
5191.829
5214.967
5230.124
5237.84
5238.88
5234.073
5224.43
5211.243
5195.902
5179.692
5163.784
5149.772
5139.015
5132.396
5127.536
5123.892
5125.678
5135.28
5151.15
5172.098
5198.793
5231.587
5269.304
5309.7
5350.602
5390.52
5428.662
5464.741
5498.834
5531.286
5562.612
5593.454
5624.489
5656.388
5689.362
5723.021
5756.911
5790.455
5821.182
5846.94
5867.875
5886.022
5902.899
5922.576
5949.227
5982.9
6020.953
6061.234
6103.084
6146.012
6188.883
6231.312
6271.372
6307.404
6340.399
6365.272
6383.216
6408.113
6445.644
6488.307
6529.63
6570.47
6609.201
6639.102
6662.725
6686.912
6707.238
6721.908
6736.833
6747.504
6748.66
6745.054
6737.68
6725.296
6707.536
6684.699
6657.122
6625.387
6590.725
6554.718
6519.121
6485.832
6456.676
6432.239
6412.694
6398.355
6389.275
6385.163
6385.514
6389.697
6397.037
6406.894
6418.747
6431.799
6445.996
6460.974
6476.517
6492.521
6508.912
6525.636
6542.649
6559.91
6577.379
6595.006
6612.736
6630.502
6648.232
6665.842
6683.247
6700.354
6717.073
6733.315
6749.002
6764.061
6778.429
6792.053
6804.894
6816.929
6828.145
6838.544
6848.138
6856.95
6865.012
6872.365
6879.06
6885.149
6890.691
6895.742
6900.334
6904.515
6908.345
6911.881
6915.177
6918.278
6921.225
6924.06
6926.819
6929.531
6932.23
6934.946
6937.727
6940.584
6943.539
6946.399
6949.346
6952.442
6955.647
6958.931
6962.289
6965.717
6969.208
6972.751
6976.333
6979.939
6983.555
6987.166
6990.756
6994.311
6997.816
7001.26
7004.629
7007.913
7011.102
7014.189
7017.165
7020.023
7022.757
7025.363
7027.834
7030.166
7032.357
7034.405
7036.313
7038.095
7039.779
7041.413
7043.069
7044.828
7046.763
7048.836
7050.915
7052.906
7054.783
7056.542
7058.185
7059.708
7061.112
7062.4
7063.576
7064.641
7065.599
7066.453
7067.207
7067.862
7068.421
7068.887
7069.262
7069.549
7069.75
7069.867
7069.902
7069.857
7069.733
7069.531
7069.252
7068.899
7068.47
7067.967
7067.384
7066.726
7065.963
7065.106
7064.116
7063.019
7061.889
7060.697
7059.419
7058.063
7056.635
7055.132
7053.549
7051.883
7050.133
7048.294
7046.364
7044.341
7042.224
7040.012
7037.704
7035.301
7032.803
7030.209
7027.521
7024.739
7021.865
7018.901
7015.848
7012.709
7009.485
7006.18
7002.796
6999.337
6995.805
6992.205
6988.541
6984.816
6981.035
6977.203
6973.324
6969.403
6965.445
6961.455
6957.433
6953.383
6949.3
6945.18
6941.011
6936.78
6932.477
6928.105
6923.698
6919.286
6914.889
6910.513
6906.177
6901.879
6897.545
6893.095
6888.635
6884.279
6880.039
6875.88
6871.78
6867.74
6863.771
6859.876
6856.057
6852.313
6848.644
6845.053
6841.537
6838.096
6834.726
6831.438
6828.235
6825.11
6822.058
6819.078
6816.177
6813.357
6810.615
6807.937
6805.338
6802.814
6800.356
6797.968
6795.654
6793.407
6791.221
6789.096
6787.033
6785.028
6783.079
6781.184
6779.341
6777.547
6775.8
6774.097
6772.436
6770.815
6769.231
6767.682
6766.164
6764.676
6763.216
6761.78
6760.365
6758.97
6757.592
6756.229
6754.876
6753.533
6752.196
6750.862
6749.529
6748.193
6746.852
6745.502
6744.14
6742.762
6741.364
6739.943
6738.494
6737.012
6735.492
6733.928
6732.314
6730.643
6728.908
6727.103
6725.223
6723.267
6721.245
6719.178
6717.119
6715.14
6713.362
6711.891
6710.916
6710.534
6710.879
3438.79
3369.392
3304.606
3216.555
3139.091
3028.144
2959.507
2893.31
2834.695
2782.71
2737.621
2701.348
2673.865
2654.965
2646.183
2647.838
2603.26
2631.471
2668.62
2709.601
2749.052
2792.894
2847.338
2914.161
2993.543
3086.613
3192.217
3309.637
3438.697
3579.309
3731.298
3894.342
4068.496
4252.789
4445.97
4647.326
4855.367
5067.659
5281.622
5493.787
5698.288
5889.365
6053.806
6208.406
6335.7
6433.184
6499.61
6534.287
6537.619
6511.254
6458.86
6381.551
6281.668
6167.473
6044.254
5915.102
5783.031
5651.089
5521.852
5397.25
5278.567
5166.325
5061.14
4963.282
4872.513
4788.644
4711.549
4641.262
4577.905
4521.505
4471.854
4428.842
4392.888
4364.585
4344.335
4332.225
4327.975
4330.638
4339.145
4352.044
4367.66
4384.974
4401.226
4414.258
4422.862
4425.519
4420.828
4407.692
4385.37
4353.857
4313.606
4266.221
4214.233
4160.533
4107.896
4058.429
4013.708
3975.154
3944.021
3921.108
3907.09
3902.254
3905.924
3916.588
3932.639
3952.997
3977.123
4005.239
4038.607
4078.771
4126.467
4182.042
4245.462
4316.633
4394.296
4475.972
4558.275
4638.577
4714.647
4784.437
4846.624
4900.389
4944.867
4979.349
5003.753
5018.445
5024.083
5021.729
5012.525
4997.494
4977.767
4954.64
4929.483
4903.964
4880.225
4860.076
4844.809
4834.435
4828.634
4828.65
4836.313
4852.455
4877.348
4910.835
4951.789
4997.89
5046.141
5093.895
5139.431
5181.924
5221.193
5257.478
5291.28
5323.231
5353.983
5384.115
5414.078
5444.072
5474.001
5503.472
5531.969
5558.483
5582.156
5603.017
5622.254
5641.465
5662.848
5688.543
5719.142
5753.619
5790.663
5829.532
5869.679
5910.285
5950.78
5989.989
6026.716
6060.846
6090.92
6118.332
6149.158
6185.797
6225.072
6264.334
6302.708
6338.074
6369.242
6397.79
6423.083
6444.158
6463.111
6478.641
6491.969
6503.193
6504.59
6495.95
6481.887
6462.486
6437.677
6407.938
6373.78
6336.363
6297.474
6259.208
6223.824
6193.192
6168.041
6148.691
6135.297
6127.742
6125.548
6128.018
6134.359
6143.745
6155.417
6168.639
6183.167
6198.394
6214.1
6230.099
6246.384
6262.939
6279.745
6296.785
6314.041
6331.487
6349.089
6366.801
6384.563
6402.305
6419.946
6437.399
6454.571
6471.365
6487.686
6503.454
6518.596
6533.04
6546.728
6559.617
6571.684
6582.915
6593.311
6602.886
6611.663
6619.676
6626.968
6633.592
6639.608
6645.085
6650.093
6654.645
6658.765
6662.53
6666.01
6669.264
6672.322
6675.219
6678.006
6680.714
6683.374
6686.02
6688.681
6691.386
6694.144
6696.957
6699.824
6702.791
6705.871
6709.05
6712.318
6715.669
6719.098
6722.598
6726.156
6729.76
6733.393
6737.042
6740.69
6744.322
6747.923
6751.478
6754.975
6758.4
6761.743
6764.993
6768.144
6771.187
6774.114
6776.922
6779.606
6782.162
6784.587
6786.881
6789.046
6791.09
6793.027
6794.88
6796.687
6798.492
6800.345
6802.281
6804.28
6806.274
6808.202
6810.037
6811.769
6813.394
6814.907
6816.306
6817.593
6818.77
6819.837
6820.797
6821.652
6822.405
6823.059
6823.615
6824.078
6824.448
6824.728
6824.92
6825.027
6825.05
6824.991
6824.851
6824.632
6824.335
6823.961
6823.509
6822.979
6822.368
6821.676
6820.891
6820.022
6819.059
6818.001
6816.859
6815.629
6814.318
6812.936
6811.486
6809.963
6808.36
6806.674
6804.901
6803.04
6801.089
6799.046
6796.91
6794.679
6792.354
6789.934
6787.419
6784.809
6782.106
6779.309
6776.422
6773.444
6770.377
6767.225
6763.988
6760.67
6757.274
6753.802
6750.258
6746.645
6742.967
6739.228
6735.432
6731.583
6727.687
6723.746
6719.765
6715.747
6711.694
6707.608
6703.486
6699.326
6695.122
6690.868
6686.562
6682.208
6677.825
6673.433
6669.047
6664.672
6660.311
6655.949
6651.582
6647.227
6642.906
6638.634
6634.412
6630.244
6626.131
6622.083
6618.106
6614.205
6610.38
6606.632
6602.961
6599.366
6595.849
6592.409
6589.047
6585.764
6582.563
6579.44
6576.394
6573.425
6570.536
6567.728
6564.997
6562.328
6559.737
6557.227
6554.789
6552.414
6550.112
6547.878
6545.706
6543.595
6541.547
6539.557
6537.622
6535.742
6533.913
6532.132
6530.399
6528.709
6527.061
6525.452
6523.88
6522.341
6520.835
6519.357
6517.906
6516.48
6515.074
6513.688
6512.319
6510.964
6509.62
6508.285
6506.956
6505.632
6504.308
6502.982
6501.652
6500.315
6498.967
6497.605
6496.227
6494.827
6493.404
6491.953
6490.47
6488.951
6487.391
6485.788
6484.138
6482.439
6480.694
6478.908
6477.097
6475.288
6473.522
6471.861
6470.379
6469.162
6468.307
6467.865
6467.882
4032.505
3958.886
3879.766
3785.366
3704.333
3583.812
3504.275
3423.638
3340.841
3258.732
3177.807
3098.092
3019.003
2941.574
2863.381
2714.5
2644.162
2579.317
2520.047
2467.239
2421.556
2384.152
2355.322
2334.919
2323.537
2322.308
2329.708
2349.933
2378.817
2413.903
2454.363
2502.574
2560.321
2629.183
2709.875
2802.331
2906.226
3021.36
3147.695
3285.286
3433.949
3592.882
3761.829
3940.843
4129.339
4325.957
4529.683
4738.402
4949.24
5157.992
5360.047
5549.972
5718.991
5868.333
5991.5
6084.688
6146.177
6176.233
6175.435
6146.074
6089.816
6007.824
5905.96
5793.007
5672.933
5548.141
5421.291
5295.322
5172.712
5055.194
4943.725
4838.883
4740.847
4649.543
4564.613
4485.745
4412.731
4345.695
4285.024
4230.793
4182.731
4140.833
4105.813
4078.687
4060.353
4051.387
4051.627
4059.904
4074.875
4095.09
4118.826
4144.19
4168.638
4189.634
4204.967
4212.692
4211.209
4198.967
4174.881
4138.809
4091.432
4035
3972.997
3909.346
3847.458
3789.962
3738.621
3694.666
3659.287
3633.694
3619.039
3615.521
3621.831
3635.526
3653.825
3674.865
3697.816
3723.072
3753.128
3790.881
3837.649
3893.273
3958.278
4033.205
4117.103
4206.967
4298.644
4388.766
4474.591
4553.662
4624.105
4684.619
4734.18
4772.079
4798.12
4812.601
4816.26
4810.362
4796.145
4774.657
4747.126
4714.841
4679.142
4642.173
4607.07
4576.482
4552.806
4536.64
4527.04
4524.224
4529.916
4546.227
4574.999
4616.106
4666.871
4723.365
4781.333
4837.115
4888.751
4935.646
4977.881
5015.945
5050.599
5082.667
5112.864
5141.733
5169.694
5197.002
5223.681
5249.53
5274.247
5297.421
5318.759
5338.41
5357.305
5376.792
5398.232
5422.836
5451.181
5482.966
5517.469
5554.087
5592.306
5631.425
5670.81
5709.633
5746.963
5782.756
5816.879
5849.701
5883.445
5919.717
5957.682
5995.469
6031.844
6066.325
6098.35
6127.006
6152.432
6175.675
6196.395
6214.104
6229.401
6240.392
6247.205
6247.254
6235.763
6214.726
6187.693
6155.336
6118.353
6078.129
6036.497
5995.662
5957.98
5925.619
5899.861
5880.991
5869.034
5863.621
5864.002
5869.239
5878.346
5890.296
5904.263
5919.49
5935.297
5951.438
5967.811
5984.346
6001.02
6017.828
6034.78
6051.887
6069.158
6086.589
6104.166
6121.854
6139.605
6157.355
6175.027
6192.536
6209.786
6226.673
6243.096
6258.968
6274.215
6288.757
6302.526
6315.476
6327.578
6338.819
6349.2
6358.734
6367.444
6375.368
6382.549
6389.044
6394.915
6400.225
6405.029
6409.38
6413.34
6416.97
6420.332
6423.514
6426.527
6429.379
6432.124
6434.778
6437.37
6439.945
6442.535
6445.168
6447.862
6450.631
6453.482
6456.427
6459.476
6462.63
6465.884
6469.231
6472.665
6476.176
6479.752
6483.379
6487.042
6490.725
6494.411
6498.084
6501.729
6505.332
6508.878
6512.354
6515.751
6519.058
6522.266
6525.369
6528.361
6531.236
6533.992
6536.625
6539.136
6541.525
6543.797
6545.958
6548.024
6550.013
6551.952
6553.87
6555.798
6557.751
6559.718
6561.665
6563.554
6565.36
6567.073
6568.685
6570.191
6571.589
6572.877
6574.056
6575.127
6576.092
6576.951
6577.707
6578.364
6578.922
6579.385
6579.754
6580.031
6580.22
6580.32
6580.336
6580.268
6580.117
6579.886
6579.574
6579.184
6578.713
6578.164
6577.532
6576.819
6576.019
6575.133
6574.158
6573.088
6571.928
6570.686
6569.369
6567.979
6566.515
6564.973
6563.349
6561.64
6559.846
6557.963
6555.99
6553.925
6551.768
6549.517
6547.171
6544.732
6542.197
6539.569
6536.847
6534.032
6531.126
6528.13
6525.046
6521.876
6518.622
6515.287
6511.872
6508.382
6504.82
6501.188
6497.491
6493.732
6489.915
6486.044
6482.123
6478.157
6474.147
6470.098
6466.012
6461.889
6457.73
6453.533
6449.297
6445.019
6440.702
6436.349
6431.971
6427.583
6423.195
6418.812
6414.438
6410.075
6405.73
6401.407
6397.107
6392.838
6388.613
6384.442
6380.334
6376.292
6372.32
6368.421
6364.597
6360.849
6357.178
6353.584
6350.068
6346.631
6343.272
6339.994
6336.796
6333.678
6330.64
6327.682
6324.802
6322.001
6319.277
6316.627
6314.053
6311.558
6309.136
6306.775
6304.486
6302.269
6300.115
6298.023
6295.993
6294.02
6292.104
6290.241
6288.43
6286.667
6284.951
6283.278
6281.647
6280.054
6278.497
6276.974
6275.482
6274.019
6272.582
6271.168
6269.776
6268.403
6267.045
6265.702
6264.37
6263.047
6261.731
6260.419
6259.108
6257.796
6256.481
6255.16
6253.829
6252.488
6251.132
6249.758
6248.365
6246.95
6245.508
6244.039
6242.539
6241.008
6239.445
6237.853
6236.237
6234.606
6232.978
6231.38
6229.843
6228.421
6227.16
6226.133
6225.379
6224.953
6224.844
4039.376
4005.385
3973.792
3909.601
3830.023
3747.853
3664.276
3582.786
3503.779
3423.902
3266.108
3186.414
3105.705
3024.503
2942.76
2861.337
2780.606
2700.571
2621.654
2545.126
2472.959
2402.358
2335.857
2274.486
2218.892
2169.482
2127.573
2094.047
2069.52
2054.394
2048.813
2053.062
2067.891
2092.238
2125.035
2165.927
2215.971
2275.878
2346.234
2427.368
2519.225
2621.645
2734.626
2858.293
2992.518
3136.563
3290.129
3453.556
3627.245
3811.003
4003.245
4204.206
4408.169
4614.156
4817.445
5013.212
5196.082
5359.833
5500.837
5615.586
5700.723
5754.49
5777.985
5771.609
5736.088
5674.281
5590.506
5491.196
5382.005
5266.329
5146.992
5026.567
4907.987
4793.736
4685.455
4583.66
4488.375
4399.569
4316.737
4239.219
4166.646
4099.001
4036.516
3979.725
3928.411
3882.028
3840.816
3806.178
3779.872
3763.539
3758.5
3764.647
3780.275
3803.648
3833.394
3867.715
3903.999
3939.419
3970.788
3994.854
4009.264
4012.29
4001.899
3976.439
3935.127
3878.523
3809.544
3733.449
3656.323
3582.845
3515.823
3456.555
3406.013
3365.425
3336.555
3321.433
3320.221
3330.899
3350.006
3372.61
3394.902
3416.008
3436.882
3461.352
3494.367
3539.238
3595.732
3663.207
3742.175
3833.418
3933.738
4037.18
4139.089
4236.222
4325.895
4405.859
4474.296
4529.787
4571.446
4599.024
4612.859
4613.861
4603.653
4583.553
4554.63
4518.289
4475.685
4427.935
4377.677
4329.734
4287.26
4255.136
4233.851
4220.42
4214.637
4217.635
4232.632
4265.143
4315.835
4379.266
4448.576
4517.887
4582.699
4640.831
4691.873
4736.508
4775.761
4810.71
4842.389
4871.647
4899.034
4924.982
4949.797
4973.585
4996.287
5017.784
5037.957
5056.797
5074.509
5091.912
5110.192
5130.403
5153.371
5179.592
5209.072
5241.469
5276.385
5313.372
5351.766
5390.89
5430.017
5468.454
5506.054
5542.694
5578.337
5613.993
5650.684
5687.998
5724.675
5760.024
5793.737
5824.98
5853.346
5879.494
5903.487
5924.987
5944.205
5960.071
5972.394
5980.304
5981.689
5976.308
5961.133
5934.709
5899.497
5858.986
5815.467
5770.892
5727.48
5687.683
5654.319
5628.753
5611.004
5601.1
5598.463
5602.024
5610.562
5622.958
5637.83
5653.989
5670.91
5688.071
5705.269
5722.452
5739.647
5756.793
5773.901
5791.015
5808.187
5825.455
5842.842
5860.354
5877.972
5895.661
5913.363
5931.005
5948.502
5965.765
5982.686
5999.154
6015.076
6030.379
6044.982
6058.806
6071.8
6083.935
6095.193
6105.574
6115.089
6123.763
6131.63
6138.735
6145.133
6150.884
6156.035
6160.625
6164.754
6168.524
6171.978
6175.159
6178.111
6180.9
6183.634
6186.346
6188.963
6191.481
6193.974
6196.486
6199.048
6201.678
6204.395
6207.204
6210.115
6213.138
6216.273
6219.516
6222.863
6226.303
6229.828
6233.426
6237.081
6240.777
6244.497
6248.224
6251.941
6255.633
6259.285
6262.882
6266.412
6269.863
6273.226
6276.493
6279.657
6282.712
6285.655
6288.482
6291.192
6293.786
6296.265
6298.634
6300.901
6303.076
6305.176
6307.22
6309.228
6311.217
6313.196
6315.16
6317.087
6318.956
6320.747
6322.449
6324.054
6325.558
6326.957
6328.249
6329.433
6330.51
6331.482
6332.349
6333.111
6333.773
6334.336
6334.802
6335.173
6335.451
6335.638
6335.736
6335.747
6335.672
6335.514
6335.273
6334.95
6334.546
6334.062
6333.496
6332.848
6332.117
6331.301
6330.399
6329.409
6328.33
6327.164
6325.918
6324.594
6323.192
6321.71
6320.149
6318.504
6316.774
6314.957
6313.051
6311.056
6308.968
6306.789
6304.515
6302.148
6299.686
6297.13
6294.48
6291.737
6288.9
6285.973
6282.955
6279.849
6276.657
6273.381
6270.023
6266.587
6263.074
6259.488
6255.832
6252.11
6248.326
6244.482
6240.584
6236.634
6232.636
6228.594
6224.511
6220.388
6216.228
6212.031
6207.798
6203.529
6199.225
6194.889
6190.524
6186.14
6181.745
6177.348
6172.956
6168.575
6164.208
6159.861
6155.534
6151.232
6146.966
6142.745
6138.581
6134.477
6130.438
6126.467
6122.568
6118.742
6114.991
6111.317
6107.722
6104.205
6100.768
6097.412
6094.136
6090.942
6087.83
6084.799
6081.849
6078.979
6076.188
6073.477
6070.842
6068.284
6065.802
6063.393
6061.054
6058.785
6056.586
6054.452
6052.382
6050.371
6048.42
6046.525
6044.683
6042.893
6041.151
6039.456
6037.804
6036.192
6034.62
6033.082
6031.578
6030.105
6028.659
6027.24
6025.843
6024.467
6023.11
6021.769
6020.441
6019.125
6017.817
6016.516
6015.22
6013.925
6012.631
6011.334
6010.031
6008.722
6007.404
6006.074
6004.73
6003.371
6001.993
6000.597
5999.18
5997.742
5996.284
5994.808
5993.318
5991.821
5990.329
5988.858
5987.433
5986.081
5984.843
5983.753
5982.864
5982.195
5981.797
5981.637
3801.232
3744.527
3610.295
3542.789
3470.188
3396.019
3321.419
3246.658
3171.515
3095.912
3020.406
2943.999
2865.069
2785.031
2703.913
2622.405
2540.924
2459.947
2379.731
2301.347
2226.893
2154.798
2085.328
2020.084
1960.525
1907.576
1862.148
1825.236
1798.01
1780.893
1773.677
1776.399
1789.101
1811.34
1842.841
1883.562
1933.943
1994.284
2064.791
2145.498
2236.277
2336.995
2447.676
2568.188
2697.652
2835.765
2983.649
3142.182
3311.42
3490.019
3677.367
3871.832
4070.193
4269.399
4465.038
4652.218
4825.38
4979.279
5109.213
5212.505
5286.938
5331.733
5345.646
5329.275
5286.456
5221.949
5140.065
5044.699
4939.505
4827.902
4713.821
4600.002
4489.39
4384.187
4286.638
4197.388
4115.337
4039.424
3968.216
3900.625
3836.002
3774.227
3716.327
3663.904
3616.334
3571.62
3529.907
3493.979
3467.123
3452.423
3452.048
3465.329
3489.598
3523.24
3565.177
3613.055