/*--------------------------------*- C++ -*----------------------------------*\
| =========                 |                                                 |
| \\      /  F ield         | foam-extend: Open Source CFD                    |
|  \\    /   O peration     | Version:     3.1                                |
|   \\  /    A nd           | Web:         http://www.extend-project.de       |
|    \\/     M anipulation  |                                                 |
\*---------------------------------------------------------------------------*/
FoamFile
{
    version     2.0;
    format      ascii;
    class       volScalarField;
    location    "10";
    object      pd;
}
// * * * * * * * * * * * * * * * * * * * * * * * * * * * * * * * * * * * * * //

dimensions      [1 -1 -2 0 0 0 0];

internalField   nonuniform List<scalar> 
119952
(
7357.927
6414.444
6269.521
6397.781
6551.807
6434.105
6410.382
6402.253
6408.33
6421.306
6439.75
6462.28
6487.505
6513.975
6540.91
6567.646
6593.14
6615.916
6629.947
6610.638
6810.375
6734.79
6727.968
6972.522
6974.08
7031.007
7065.624
7149.679
7333.617
7948.633
5427.682
5358.805
5347.942
5338.935
5338.259
5341.653
5351.335
5368.568
5395.116
5402.526
5438.019
5483.011
5530.275
5581.602
5637.628
5697.736
5760.361
5823.955
5886.244
5996.005
6026.79
6066.587
6110.983
6150.272
6184.812
6214.761
6239.97
6260.37
6280.293
6284.78
6291.086
6297.376
6299.395
6299.102
6297.577
6295.782
6299.437
6338.482
6441.06
6339.411
6320.15
6372.153
6402.367
6400.707
6389.034
6391.255
6402.158
6418.955
6440.47
6465.371
6492.285
6520.11
6548.036
6575.41
6601.684
6626.469
6650.526
6677.666
6716.749
6759.163
6788.135
6866.388
6966.963
7009.963
7042.802
7075.662
7069.555
6977.476
6993.654
7054.793
7102.342
7152.19
7203.664
7256.325
7310.963
7368.332
7426.682
7484.749
7540.891
7574.111
7554.563
7478.642
7477.494
7513.624
7569.99
7632.279
7686.271
7724.982
7750.975
7767.415
7782.615
7797.142
7809.766
7819.151
7825.358
7828.072
7827.008
7821.837
7812.395
7798.696
7780.88
7759.181
7734.074
7706.285
7676.833
7646.992
7618.091
7591.351
7567.7
7547.771
7531.96
7520.449
7513.207
7510.034
7510.599
7514.491
7521.206
7530.304
7541.399
7553.897
7567.651
7582.457
7598.114
7614.454
7631.341
7648.666
7666.335
7684.262
7702.363
7720.557
7738.757
7756.871
7774.809
7792.48
7809.789
7826.649
7842.974
7858.688
7873.722
7888.02
7901.537
7914.243
7926.129
7937.18
7947.403
7956.814
7965.447
7973.331
7980.506
7987.027
7992.959
7998.354
8003.264
8007.744
8011.844
8015.619
8019.115
8022.407
8025.512
8028.479
8031.346
8034.145
8036.9
8039.629
8042.342
8045.078
8048.232
8051.803
8054.156
8057.302
8060.5
8063.734
8067.022
8070.371
8073.775
8077.22
8080.699
8084.204
8087.717
8091.224
8094.71
8098.162
8101.565
8104.907
8108.172
8111.364
8114.46
8117.454
8120.34
8123.111
8125.761
8128.285
8130.672
8132.931
8135.007
8136.953
8138.715
8140.277
8141.595
8142.582
8143.16
8142.754
8141.631
8146.079
8149.352
8152.109
8154.488
8156.612
8158.537
8160.294
8161.903
8163.375
8164.724
8165.953
8167.071
8168.082
8168.992
8169.802
8170.517
8171.142
8171.677
8172.126
8172.49
8172.773
8172.976
8173.102
8173.151
8173.125
8173.026
8172.854
8172.61
8172.296
8171.912
8171.461
8170.971
8170.445
8169.61
8174.612
8170.798
8166.751
8165.728
8164.472
8163.002
8161.598
8160.159
8158.637
8157.038
8155.362
8153.6
8151.746
8149.797
8147.751
8145.605
8143.36
8141.015
8138.57
8136.026
8133.384
8130.644
8127.808
8124.879
8121.857
8118.746
8115.547
8112.263
8108.898
8105.454
8101.936
8098.348
8094.693
8090.977
8087.204
8083.38
8079.512
8075.606
8071.67
8067.715
8063.751
8059.796
8055.875
8052.027
8048.241
8044.248
8039.694
8034.909
8030.299
8025.785
8021.328
8016.947
8012.536
8007.197
7999.579
7997.609
7993.951
7989.542
7985.375
7981.221
7977.08
7973.012
7969.024
7965.113
7961.279
7957.519
7953.838
7950.22
7946.679
7943.217
7939.837
7936.534
7933.297
7930.134
7927.049
7924.04
7921.107
7918.247
7915.462
7912.752
7910.115
7907.551
7905.056
7902.634
7900.28
7897.992
7895.77
7893.612
7891.515
7889.478
7887.498
7885.574
7883.703
7881.883
7880.111
7878.385
7876.703
7875.062
7873.459
7871.893
7870.36
7868.858
7867.385
7865.937
7864.512
7863.107
7861.72
7860.348
7858.988
7857.637
7856.291
7854.949
7853.607
7852.261
7850.908
7849.545
7848.166
7846.769
7845.348
7843.897
7842.412
7840.884
7839.307
7837.671
7835.964
7834.173
7832.281
7830.265
7828.1
7825.745
7823.151
7820.246
7816.925
7813.005
7808.192
7802.242
7796.452
7799.111
7825.867
6714.185
6615.343
6497.296
6392.041
6294.925
6205.984
6125.138
6052.163
5988.675
5913.712
5869.483
5829.567
5793.797
5765.97
5745.624
5732.207
5724.747
5719.784
5729.25
5742.328
5736.611
5737.457
5740.016
5740.806
5738.23
5731.59
5719.942
5704.272
5684.43
5648.83
5615.63
5581.101
5543.27
5505.069
5468.044
5433.682
5404.507
5382.771
5351.957
5332.824
5325.576
5325.418
5331.545
5343.743
5361.722
5385.73
5413.92
5446.874
5490.367
5536.971
5588.628
5645.273
5706.287
5770.441
5835.347
5900.262
5987.56
6049.618
6094.888
6136.334
6176.462
6212.254
6242.006
6265.053
6282.396
6294.406
6302.742
6306.75
6306.617
6303.608
6299.323
6295.408
6294.53
6299.355
6310.094
6319.714
6317.852
6312.247
6319.296
6333.215
6345.276
6354.948
6366.858
6384.964
6409.038
6437.026
6467.102
6498.017
6528.955
6559.362
6588.953
6617.762
6646.319
6675.701
6707.453
6742.912
6782.668
6827.131
6877.413
6929.758
6972.573
7001.6
7018.542
7022.53
7020.607
7034.69
7067.415
7109.421
7155.468
7203.11
7252.574
7303.007
7354.754
7405.921
7450.98
7490.963
7514.14
7510.448
7499.442
7515.346
7550.92
7596.433
7649.947
7699.563
7735.916
7764.331
7791.232
7809.039
7815.463
7819.048
7825.861
7831.795
7834.729
7833.356
7827.302
7816.741
7801.746
7782.411
7758.778
7731.501
7701.518
7670.053
7638.566
7608.631
7581.593
7558.16
7538.814
7523.892
7513.499
7507.516
7505.647
7507.467
7512.478
7520.143
7530.025
7541.712
7554.789
7568.954
7583.992
7599.738
7616.059
7632.847
7650.018
7667.493
7685.202
7703.073
7721.031
7738.998
7756.889
7774.619
7792.096
7809.23
7825.934
7842.122
7857.719
7872.658
7886.88
7900.341
7913.01
7924.867
7935.903
7946.123
7955.541
7964.184
7972.085
7979.288
7985.843
7991.806
7997.232
8002.173
8006.682
8010.808
8014.603
8018.119
8021.408
8024.514
8027.479
8030.341
8033.133
8035.882
8038.616
8041.343
8044.091
8046.767
8050.526
8052.288
8055.606
8058.805
8062.052
8065.358
8068.724
8072.148
8075.621
8079.134
8082.673
8086.227
8089.779
8093.316
8096.824
8100.288
8103.698
8107.037
8110.292
8113.459
8116.527
8119.487
8122.332
8125.056
8127.652
8130.126
8132.426
8134.583
8136.578
8138.399
8140.026
8141.433
8142.587
8143.48
8144.224
8145.325
8147.613
8150.341
8152.779
8155.025
8157.079
8158.959
8160.684
8162.267
8163.718
8165.044
8166.252
8167.348
8168.338
8169.224
8170.011
8170.702
8171.3
8171.808
8172.229
8172.565
8172.818
8172.99
8173.083
8173.099
8173.039
8172.904
8172.696
8172.416
8172.066
8171.647
8171.165
8170.625
8170.065
8169.857
8168.542
8168.107
8166.867
8165.18
8163.597
8162.172
8160.769
8159.299
8157.745
8156.111
8154.396
8152.595
8150.702
8148.714
8146.63
8144.449
8142.169
8139.792
8137.316
8134.743
8132.074
8129.309
8126.45
8123.498
8120.456
8117.327
8114.111
8110.813
8107.434
8103.979
8100.452
8096.855
8093.194
8089.473
8085.697
8081.871
8078.001
8074.094
8070.157
8066.197
8062.224
8058.244
8054.259
8050.253
8046.187
8041.997
8037.625
8033.122
8028.611
8024.139
8019.696
8015.248
8010.711
8005.898
8000.799
7996.121
7992.087
7988.237
7984.259
7980.15
7976.025
7971.964
7967.99
7964.098
7960.279
7956.528
7952.853
7949.252
7945.729
7942.282
7938.906
7935.618
7932.405
7929.259
7926.192
7923.205
7920.293
7917.455
7914.689
7912
7909.385
7906.841
7904.367
7901.962
7899.626
7897.358
7895.153
7893.012
7890.931
7888.909
7886.945
7885.034
7883.177
7881.369
7879.609
7877.895
7876.223
7874.592
7872.998
7871.44
7869.914
7868.419
7866.951
7865.509
7864.088
7862.688
7861.304
7859.935
7858.577
7857.228
7855.884
7854.543
7853.201
7851.856
7850.503
7849.139
7847.761
7846.364
7844.943
7843.494
7842.01
7840.485
7838.912
7837.281
7835.584
7833.806
7831.936
7829.95
7827.834
7825.55
7823.079
7820.368
7817.424
7814.262
7811.16
7808.631
7807.641
7808.644
7812.119
4293.597
4363.24
4456.666
4563.357
4683.218
4815.631
4960.486
5118.306
5288.443
5468.468
5659.999
5863.805
6074.876
6292.365
6513.798
6734.011
6950.272
7157.944
7354.071
7551.816
7706.642
7838.576
7943.797
8019.116
8063.318
8076.263
8059.046
8013.85
7947.236
7853.988
7741.763
7614.639
7478.883
7338.495
7196.942
7057.074
6921.522
6793.019
6661.647
6545.763
6437.135
6336.131
6243.399
6158.318
6081.056
6011.711
5950.821
5896.434
5847.81
5808.554
5776.021
5750.659
5732.568
5721.269
5716.332
5719.452
5717.426
5722.246
5729.806
5737.073
5742.271
5744.056
5741.58
5733.974
5720.576
5700.712
5674.326
5642.647
5606.025
5565.726
5523.816
5482.357
5442.979
5407.013
5375.294
5348.492
5327.967
5314.61
5308.271
5309.073
5316.805
5330.77
5350.35
5375.158
5405.45
5441.808
5483.613
5531.319
5585.36
5645.346
5709.711
5778.035
5847.356
5918.388
5989.558
6050.611
6103.022
6151.123
6195.483
6234.397
6265.397
6288.877
6305.015
6315.235
6319.925
6319.338
6314.648
6307.286
6298.476
6289.672
6282.035
6276.796
6274.415
6276.634
6276.476
6272.408
6275.011
6286.915
6302.251
6318.289
6337.688
6362.842
6393.397
6427.248
6462.369
6497.453
6531.739
6564.841
6596.684
6627.52
6657.848
6688.401
6720.018
6753.822
6790.535
6828.973
6868.743
6909.46
6945.762
6973.141
6992.409
7006.856
7018.394
7034.761
7062.697
7100.388
7142.682
7186.768
7232.242
7278.875
7325.288
7370.707
7412.619
7448.134
7477.775
7495.054
7501.151
7518.194
7553.952
7600.668
7647.749
7690.168
7730.652
7765.092
7784.689
7798.581
7817.346
7833.98
7839.649
7841.68
7843.46
7841.615
7835.298
7824.096
7807.959
7787.129
7761.677
7732.347
7700.297
7666.842
7633.494
7602.02
7574
7550.051
7530.447
7515.578
7505.54
7500.152
7499.036
7501.686
7507.53
7515.993
7526.566
7538.752
7552.216
7566.651
7581.837
7597.625
7613.903
7630.588
7647.613
7664.917
7682.444
7700.134
7717.92
7735.732
7753.492
7771.115
7788.514
7805.599
7822.281
7838.476
7854.105
7869.1
7883.399
7896.955
7909.731
7921.705
7932.867
7943.216
7952.768
7961.544
7969.577
7976.908
7983.586
7989.662
7995.191
8000.228
8004.82
8009.015
8012.867
8016.427
8019.749
8022.876
8025.853
8028.717
8031.505
8034.247
8036.975
8039.71
8042.528
8045.444
8048.783
8051.83
8054.81
8057.909
8061.128
8064.428
8067.798
8071.231
8074.721
8078.255
8081.82
8085.402
8088.986
8092.557
8096.101
8099.603
8103.051
8106.43
8109.73
8112.941
8116.054
8119.059
8121.951
8124.72
8127.363
8129.874
8132.243
8134.466
8136.535
8138.443
8140.184
8141.762
8143.205
8144.569
8145.975
8147.614
8149.603
8151.809
8153.999
8156.066
8157.991
8159.781
8161.442
8162.975
8164.384
8165.674
8166.849
8167.914
8168.873
8169.73
8170.487
8171.147
8171.714
8172.19
8172.578
8172.879
8173.096
8173.231
8173.287
8173.263
8173.163
8172.987
8172.737
8172.413
8172.017
8171.55
8171.01
8170.406
8169.714
8168.976
8167.975
8166.677
8165.348
8164.096
8162.867
8161.594
8160.238
8158.786
8157.24
8155.607
8153.888
8152.078
8150.173
8148.173
8146.075
8143.881
8141.59
8139.201
8136.716
8134.135
8131.458
8128.687
8125.823
8122.868
8119.824
8116.693
8113.477
8110.179
8106.802
8103.349
8099.824
8096.231
8092.573
8088.856
8085.083
8081.26
8077.392
8073.484
8069.544
8065.575
8061.583
8057.57
8053.53
8049.456
8045.328
8041.122
8036.81
8032.398
8027.945
8023.501
8019.074
8014.655
8010.267
8006.01
8002.008
7997.848
7993.417
7988.912
7984.484
7980.17
7975.961
7971.853
7967.841
7963.92
7960.083
7956.324
7952.644
7949.044
7945.524
7942.083
7938.701
7935.399
7932.188
7929.055
7925.999
7923.012
7920.102
7917.27
7914.51
7911.829
7909.224
7906.689
7904.222
7901.825
7899.497
7897.236
7895.038
7892.902
7890.827
7888.811
7886.852
7884.946
7883.093
7881.29
7879.534
7877.823
7876.154
7874.525
7872.934
7871.377
7869.853
7868.359
7866.892
7865.451
7864.031
7862.631
7861.248
7859.879
7858.521
7857.173
7855.83
7854.49
7853.151
7851.808
7850.458
7849.099
7847.727
7846.336
7844.924
7843.486
7842.016
7840.509
7838.958
7837.355
7835.693
7833.962
7832.151
7830.247
7828.236
7826.106
7823.849
7821.472
7819.017
7816.582
7814.348
7812.543
7811.442
7811.397
7812.634
3986.109
3960.212
3947.794
3942.279
3945.966
3968.111
4003.651
4058.567
4127.147
4169.228
4188.296
4224.613
4281.714
4356.966
4448.438
4552.538
4669.258
4798.327
4938.88
5090.443
5253.876
5428.514
5613.613
5808.611
6012.758
6222.922
6436.12
6649.713
6860.94
7063.817
7256.993
7474.605
7636.497
7764.039
7862.4
7930.525
7967.048
7972.246
7947.637
7896.965
7823.847
7728.184
7614.467
7489.005
7356.344
7220.118
7083.566
6949.362
6819.54
6695.508
6578.088
6468.17
6365.645
6270.511
6182.843
6102.586
6029.715
5964.233
5906.038
5854.941
5810.783
5773.675
5744.025
5722.042
5707.543
5700.081
5698.662
5702.674
5710.279
5720.467
5731.951
5742.096
5749.698
5753.786
5753.014
5746.28
5732.7
5711.828
5683.696
5648.406
5607.137
5562.149
5515.706
5469.841
5426.278
5386.578
5352.087
5324.059
5302.899
5288.957
5283.024
5285.024
5294.14
5309.205
5329.346
5354.293
5384.137
5419.426
5461.058
5509.553
5564.636
5626.328
5693.862
5766.327
5841.926
5917.83
5990.871
6058.28
6119.329
6174.169
6222.532
6263.393
6295.454
6318.592
6333.749
6341.465
6342.505
6337.698
6328.055
6314.868
6299.527
6283.317
6267.409
6253.397
6242.64
6236.021
6231.161
6227.517
6229.303
6238.905
6254.775
6275.723
6302.418
6335.212
6372.929
6413.325
6454.227
6494.145
6532.287
6568.366
6602.459
6634.911
6666.237
6697.079
6728.114
6760.013
6792.987
6826.646
6860.536
6894.08
6924.807
6950.565
6971.5
6989.647
7006.524
7026.201
7052.852
7086.525
7124.578
7164.859
7206.709
7249.637
7292.508
7334.937
7374.997
7411.029
7444.024
7468.897
7486.841
7511.738
7549.269
7591.932
7633.255
7674.095
7712.826
7742.727
7766.35
7790.537
7810.863
7825.533
7840.458
7851.129
7852.285
7848.679
7841.305
7828.921
7811.161
7788.324
7760.747
7729.012
7694.35
7658.343
7622.746
7589.457
7560.301
7535.864
7516.319
7501.98
7492.9
7488.788
7489.139
7493.322
7500.662
7510.519
7522.372
7535.424
7549.621
7564.599
7580.142
7596.146
7612.537
7629.261
7646.274
7663.535
7681.004
7698.631
7716.361
7734.128
7751.857
7769.467
7786.872
7803.979
7820.698
7836.94
7852.627
7867.686
7882.054
7895.678
7908.519
7920.554
7931.77
7942.169
7951.763
7960.575
7968.637
7975.99
7982.685
7988.774
7994.316
7999.367
8003.959
8008.14
8011.97
8015.506
8018.802
8021.903
8024.85
8027.685
8030.444
8033.156
8035.855
8038.571
8041.352
8044.209
8047.164
8050.024
8052.971
8056.067
8059.272
8062.556
8065.914
8069.342
8072.833
8076.376
8079.958
8083.564
8087.18
8090.791
8094.381
8097.936
8101.441
8104.885
8108.254
8111.538
8114.727
8117.814
8120.79
8123.648
8126.382
8128.988
8131.459
8133.791
8135.982
8138.03
8139.938
8141.72
8143.404
8145.038
8146.694
8148.453
8150.388
8152.461
8154.54
8156.531
8158.407
8160.167
8161.81
8163.333
8164.737
8166.025
8167.201
8168.266
8169.224
8170.078
8170.831
8171.486
8172.046
8172.512
8172.887
8173.174
8173.375
8173.492
8173.527
8173.482
8173.357
8173.156
8172.877
8172.524
8172.094
8171.592
8171.009
8170.351
8169.588
8168.731
8167.741
8166.644
8165.514
8164.321
8163.043
8161.687
8160.259
8158.756
8157.173
8155.508
8153.758
8151.919
8149.989
8147.966
8145.849
8143.637
8141.329
8138.926
8136.427
8133.833
8131.145
8128.364
8125.49
8122.526
8119.473
8116.334
8113.11
8109.805
8106.421
8102.962
8099.43
8095.83
8092.166
8088.441
8084.66
8080.828
8076.949
8073.028
8069.07
8065.08
8061.058
8057.008
8052.925
8048.804
8044.636
8040.405
8036.102
8031.73
8027.323
8022.911
8018.514
8014.138
8009.802
8005.504
8001.17
7996.72
7992.26
7987.904
7983.664
7979.505
7975.405
7971.365
7967.396
7963.501
7959.682
7955.938
7952.269
7948.678
7945.162
7941.721
7938.351
7935.063
7931.86
7928.735
7925.683
7922.703
7919.802
7916.982
7914.24
7911.562
7908.963
7906.439
7903.981
7901.593
7899.279
7897.032
7894.846
7892.721
7890.658
7888.653
7886.704
7884.809
7882.966
7881.172
7879.425
7877.722
7876.061
7874.44
7872.856
7871.307
7869.789
7868.301
7866.841
7865.405
7863.99
7862.595
7861.217
7859.854
7858.501
7857.158
7855.821
7854.487
7853.154
7851.818
7850.477
7849.127
7847.765
7846.387
7844.989
7843.568
7842.119
7840.637
7839.117
7837.553
7835.939
7834.268
7832.533
7830.727
7828.848
7826.892
7824.87
7822.803
7820.744
7818.765
7816.987
7815.516
7814.541
7814.159
7814.504
4707.135
4626.019
4550.209
4473.461
4395.997
4315.707
4247.069
4180.873
4122.257
4070.273
4025.183
3988.91
3961.427
3942.528
3933.745
3935.401
3952.135
3980.346
4017.495
4058.476
4097.927
4141.77
4196.213
4263.036
4342.418
4435.488
4541.092
4658.512
4787.572
4928.184
5080.173
5243.217
5417.371
5601.664
5794.845
5996.201
6204.242
6416.534
6630.497
6842.662
7047.163
7238.24
7402.681
7557.281
7684.575
7782.059
7848.485
7883.162
7886.494
7860.129
7807.735
7730.426
7630.543
7516.348
7393.129
7263.977
7131.906
6999.964
6870.727
6746.125
6627.442
6515.2
6410.015
6312.157
6221.388
6137.519
6060.424
5990.137
5926.78
5870.38
5820.729
5777.717
5741.763
5713.46
5693.21
5681.1
5676.85
5679.513
5688.02
5700.919
5716.534
5733.849
5750.101
5763.133
5771.737
5774.394
5769.703
5756.567
5734.245
5702.732
5662.481
5615.096
5563.108
5509.408
5456.771
5407.304
5362.583
5324.029
5292.896
5269.983
5255.965
5251.129
5254.799
5265.463
5281.514
5301.872
5325.998
5354.114
5387.482
5427.646
5475.342
5530.917
5594.337
5665.507
5743.17
5824.845
5907.147
5987.45
6063.522
6133.312
6195.499
6249.264
6293.742
6328.224
6352.628
6367.32
6372.958
6370.604
6361.399
6346.369
6326.642
6303.515
6278.358
6252.839
6229.1
6208.951
6193.684
6183.31
6177.509
6177.525
6185.188
6201.33
6226.223
6259.71
6300.664
6346.765
6395.016
6442.77
6488.306
6530.799
6570.068
6606.353
6640.155
6672.106
6702.858
6732.99
6762.953
6792.947
6822.876
6852.347
6880.844
6907.358
6931.031
6951.892
6971.129
6990.34
7011.723
7037.418
7068.017
7102.494
7139.538
7178.407
7218.554
7259.16
7299.655
7338.864
7375.591
7409.721
7439.795
7467.207
7498.033
7534.672
7573.947
7613.209
7651.583
7686.949
7718.117
7746.665
7771.958
7793.033
7811.986
7827.516
7840.844
7852.069
7853.465
7844.825
7830.762
7811.361
7786.552
7756.813
7722.656
7685.238
7646.349
7608.083
7572.699
7542.067
7516.917
7497.566
7484.172
7476.617
7474.423
7476.893
7483.234
7492.62
7504.292
7517.514
7532.042
7547.269
7562.975
7578.974
7595.259
7611.814
7628.62
7645.66
7662.916
7680.362
7697.964
7715.676
7733.438
7751.18
7768.821
7786.274
7803.446
7820.24
7836.561
7852.329
7867.471
7881.915
7895.603
7908.492
7920.559
7931.79
7942.186
7951.761
7960.538
7968.551
7975.843
7982.467
7988.483
7993.96
7998.968
8003.52
8007.64
8011.405
8014.885
8018.139
8021.197
8024.094
8026.881
8029.589
8032.249
8034.895
8037.556
8040.261
8043.019
8045.832
8048.699
8051.666
8054.746
8057.925
8061.193
8064.544
8067.973
8071.473
8075.031
8078.635
8082.268
8085.917
8089.565
8093.197
8096.798
8100.353
8103.85
8107.275
8110.618
8113.868
8117.019
8120.062
8122.989
8125.797
8128.481
8131.037
8133.462
8135.756
8137.921
8139.965
8141.902
8143.755
8145.561
8147.367
8149.219
8151.156
8153.155
8155.149
8157.077
8158.912
8160.644
8162.268
8163.781
8165.181
8166.468
8167.645
8168.712
8169.672
8170.527
8171.28
8171.934
8172.49
8172.952
8173.322
8173.603
8173.795
8173.902
8173.925
8173.866
8173.726
8173.507
8173.21
8172.836
8172.383
8171.854
8171.243
8170.551
8169.766
8168.897
8167.934
8166.876
8165.734
8164.504
8163.193
8161.811
8160.361
8158.838
8157.235
8155.548
8153.776
8151.915
8149.964
8147.921
8145.785
8143.554
8141.229
8138.809
8136.294
8133.684
8130.98
8128.184
8125.296
8122.318
8119.252
8116.1
8112.863
8109.545
8106.149
8102.677
8099.133
8095.52
8091.841
8088.102
8084.307
8080.458
8076.562
8072.621
8068.64
8064.622
8060.569
8056.483
8052.361
8048.201
8043.997
8039.743
8035.437
8031.083
8026.7
8022.308
8017.922
8013.547
8009.186
8004.824
8000.457
7996.102
7991.781
7987.508
7983.287
7979.119
7975.006
7970.958
7966.981
7963.08
7959.255
7955.507
7951.836
7948.241
7944.724
7941.284
7937.922
7934.639
7931.438
7928.315
7925.269
7922.3
7919.411
7916.603
7913.872
7911.203
7908.612
7906.102
7903.664
7901.289
7898.987
7896.753
7894.581
7892.47
7890.422
7888.432
7886.497
7884.617
7882.788
7881.007
7879.274
7877.584
7875.936
7874.327
7872.755
7871.216
7869.71
7868.232
7866.781
7865.355
7863.949
7862.563
7861.194
7859.839
7858.495
7857.16
7855.831
7854.507
7853.183
7851.857
7850.527
7849.19
7847.842
7846.48
7845.102
7843.702
7842.279
7840.828
7839.345
7837.826
7836.266
7834.663
7833.013
7831.314
7829.569
7827.783
7825.972
7824.163
7822.397
7820.736
7819.254
7818.037
7817.182
7816.74
7816.757
5540.14
5454.972
5372.403
5287.522
5206.489
5116.624
5037.088
4956.45
4873.654
4791.545
4710.619
4630.904
4551.815
4474.387
4396.194
4308.625
4238.287
4173.442
4114.172
4061.364
4015.681
3978.277
3949.447
3929.044
3917.662
3916.433
3923.833
3944.058
3972.942
4008.028
4048.488
4096.699
4154.446
4223.308
4304
4396.456
4500.351
4615.485
4741.82
4879.411
5028.074
5187.007
5355.954
5534.968
5723.464
5920.082
6123.808
6332.527
6543.365
6752.117
6954.172
7144.097
7313.116
7462.458
7585.625
7678.813
7740.302
7770.358
7769.56
7740.199
7683.941
7601.949
7500.085
7387.132
7267.058
7142.266
7015.416
6889.447
6766.837
6649.319
6537.85
6433.008
6334.972
6243.668
6158.738
6079.87
6006.856
5939.82
5879.149
5824.918
5776.856
5734.958
5699.938
5672.812
5654.478
5645.512
5645.752
5654.029
5669
5689.215
5712.951
5738.315
5762.763
5783.759
5799.092
5806.817
5805.334
5793.092
5769.006
5732.934
5685.557
5629.125
5567.122
5503.471
5441.583
5384.087
5332.746
5288.791
5253.412
5227.819
5213.164
5209.645
5215.956
5229.651
5247.95
5268.99
5291.941
5317.197
5347.252
5385.001
5431.754
5487.329
5552.154
5626.585
5710.435
5800.733
5892.731
5982.89
6068.716
6147.787
6218.23
6278.744
6328.305
6366.204
6392.245
6406.726
6410.385
6404.487
6390.27
6368.782
6341.251
6308.966
6273.267
6236.298
6201.195
6170.607
6146.931
6130.763
6121.145
6118.257
6123.832
6140.165
6168.997
6210.188
6260.992
6317.49
6375.458
6431.24
6482.876
6529.771
6572.006
6610.07
6644.724
6676.792
6706.988
6735.856
6763.817
6791.126
6817.806
6843.655
6868.372
6891.546
6912.884
6932.535
6951.43
6970.917
6992.357
7016.961
7045.306
7077.091
7111.594
7148.212
7186.431
7225.55
7264.935
7303.758
7341.088
7376.881
7411.004
7443.826
7477.57
7513.842
7551.807
7589.594
7625.969
7660.45
7692.475
7721.131
7746.557
7769.8
7790.52
7808.229
7823.526
7834.517
7841.33
7841.379
7829.888
7808.852
7781.818
7749.461
7712.478
7672.254
7630.622
7589.787
7552.105
7519.744
7493.986
7475.116
7463.159
7457.746
7458.127
7463.364
7472.471
7484.421
7498.388
7513.615
7529.422
7545.563
7561.936
7578.471
7595.145
7611.953
7628.905
7646.012
7663.283
7680.715
7698.291
7715.979
7733.73
7751.48
7769.152
7786.661
7803.911
7820.798
7837.221
7853.093
7868.34
7882.882
7896.651
7909.601
7921.703
7932.944
7943.325
7952.859
7961.569
7969.493
7976.674
7983.169
7989.04
7994.35
7999.154
8003.505
8007.465
8011.095
8014.457
8017.639
8020.652
8023.504
8026.249
8028.903
8031.495
8034.07
8036.66
8039.293
8041.987
8044.756
8047.607
8050.552
8053.601
8056.755
8060.009
8063.356
8066.79
8070.301
8073.877
8077.504
8081.167
8084.85
8088.536
8092.209
8095.854
8099.457
8103.003
8106.479
8109.876
8113.183
8116.391
8119.494
8122.486
8125.361
8128.117
8130.75
8133.261
8135.65
8137.922
8140.083
8142.149
8144.138
8146.077
8147.995
8149.923
8151.876
8153.843
8155.79
8157.679
8159.485
8161.198
8162.81
8164.316
8165.714
8167.002
8168.181
8169.252
8170.217
8171.076
8171.832
8172.489
8173.047
8173.51
8173.879
8174.156
8174.344
8174.445
8174.461
8174.393
8174.242
8174.011
8173.699
8173.309
8172.838
8172.289
8171.657
8170.943
8170.143
8169.258
8168.282
8167.212
8166.052
8164.811
8163.494
8162.104
8160.639
8159.097
8157.473
8155.765
8153.971
8152.088
8150.115
8148.05
8145.893
8143.642
8141.296
8138.857
8136.322
8133.694
8130.971
8128.157
8125.251
8122.255
8119.171
8116.001
8112.747
8109.412
8105.997
8102.507
8098.945
8095.313
8091.616
8087.857
8084.04
8080.169
8076.248
8072.282
8068.272
8064.223
8060.137
8056.014
8051.855
8047.658
8043.422
8039.144
8034.827
8030.474
8026.096
8021.708
8017.32
8012.937
8008.563
8004.2
7999.855
7995.532
7991.232
7986.963
7982.737
7978.567
7974.459
7970.416
7966.445
7962.546
7958.722
7954.974
7951.303
7947.709
7944.193
7940.756
7937.397
7934.119
7930.921
7927.803
7924.765
7921.807
7918.927
7916.126
7913.402
7910.752
7908.178
7905.683
7903.261
7900.9
7898.611
7896.394
7894.24
7892.148
7890.118
7888.145
7886.229
7884.366
7882.555
7880.792
7879.076
7877.403
7875.772
7874.179
7872.622
7871.099
7869.607
7868.144
7866.707
7865.293
7863.901
7862.528
7861.17
7859.827
7858.495
7857.172
7855.856
7854.544
7853.233
7851.921
7850.606
7849.285
7847.954
7846.613
7845.257
7843.883
7842.49
7841.075
7839.633
7838.164
7836.664
7835.133
7833.57
7831.978
7830.362
7828.731
7827.103
7825.505
7823.968
7822.546
7821.285
7820.258
7819.504
7819.078
7818.969
5787.625
5783.448
5751.854
5687.663
5608.086
5525.915
5442.339
5360.848
5281.841
5201.965
5105.483
5025.789
4945.08
4863.877
4782.135
4700.712
4619.981
4539.946
4461.029
4384.501
4312.334
4241.733
4175.232
4113.861
4058.267
4008.857
3966.948
3933.422
3908.895
3893.769
3888.188
3892.437
3907.266
3931.613
3964.41
4005.302
4055.346
4115.253
4185.609
4266.743
4358.6
4461.02
4574.001
4697.668
4831.893
4975.938
5129.504
5292.931
5466.62
5650.378
5842.62
6043.581
6247.544
6453.531
6656.82
6852.587
7035.457
7199.208
7340.212
7454.961
7540.098
7593.865
7617.36
7610.984
7575.463
7513.656
7429.881
7330.571
7221.38
7105.704
6986.367
6865.942
6747.362
6633.111
6524.83
6423.035
6327.75
6238.944
6156.112
6078.594
6006.021
5938.376
5875.891
5819.1
5767.786
5721.403
5680.191
5645.553
5619.247
5602.914
5597.875
5604.022
5619.65
5643.023
5672.769
5707.09
5743.374
5778.794
5810.163
5834.229
5848.639
5851.665
5841.274
5815.814
5774.502
5717.898
5648.919
5572.824
5495.698
5422.22
5355.198
5295.929
5245.386
5204.785
5175.882
5160.73
5159.546
5170.259
5189.379
5211.985
5234.276
5255.378
5276.227
5300.583
5332.985
5373.708
5413.945
5480.658
5572.662
5671.762
5773.074
5876.554
5978.463
6075.596
6165.269
6245.233
6313.668
6369.16
6410.82
6438.399
6452.234
6453.236
6443.028
6422.928
6394.005
6357.664
6315.06
6267.31
6217.052
6169.109
6126.626
6094.416
6072.316
6054.634
6042.781
6045.678
6066.157
6103.443
6155.15
6218.639
6287.95
6357.262
6422.073
6480.205
6531.244
6575.862
6615.003
6649.621
6681.293
6710.833
6738.383
6764.356
6789.172
6812.96
6835.662
6857.159
6877.332
6896.172
6913.884
6931.285
6949.558
6969.771
6992.743
7018.966
7048.447
7080.844
7115.76
7152.747
7191.141
7230.265
7269.392
7307.829
7345.429
7382.069
7417.712
7453.368
7490.059
7527.373
7564.05
7599.399
7633.112
7664.355
7692.721
7718.869
7742.862
7764.362
7783.58
7799.446
7811.769
7819.679
7821.064
7815.683
7800.508
7774.084
7738.872
7698.361
7654.842
7610.267
7566.855
7527.059
7493.694
7468.128
7450.379
7440.475
7437.838
7441.399
7449.937
7462.333
7477.205
7493.364
7510.285
7527.446
7544.644
7561.827
7579.022
7596.168
7613.276
7630.391
7647.562
7664.83
7682.217
7699.729
7717.347
7735.036
7752.738
7770.38
7787.877
7805.14
7822.061
7838.529
7854.451
7869.754
7884.357
7898.181
7911.175
7923.31
7934.568
7944.949
7954.464
7963.138
7971.005
7978.11
7984.508
7990.259
7995.41
8000
8004.129
8007.899
8011.353
8014.534
8017.486
8020.275
8023.009
8025.721
8028.338
8030.856
8033.349
8035.861
8038.423
8041.053
8043.77
8046.579
8049.49
8052.513
8055.648
8058.891
8062.237
8065.678
8069.203
8072.801
8076.456
8080.152
8083.872
8087.599
8091.316
8095.008
8098.66
8102.257
8105.787
8109.238
8112.601
8115.868
8119.032
8122.087
8125.03
8127.857
8130.567
8133.161
8135.64
8138.009
8140.276
8142.451
8144.551
8146.595
8148.603
8150.592
8152.571
8154.535
8156.462
8158.331
8160.122
8161.824
8163.429
8164.933
8166.332
8167.624
8168.808
8169.885
8170.857
8171.724
8172.486
8173.148
8173.711
8174.177
8174.548
8174.826
8175.013
8175.111
8175.122
8175.047
8174.888
8174.647
8174.325
8173.921
8173.436
8172.871
8172.223
8171.492
8170.676
8169.774
8168.784
8167.704
8166.539
8165.293
8163.969
8162.567
8161.085
8159.523
8157.878
8156.148
8154.332
8152.426
8150.431
8148.343
8146.164
8143.89
8141.523
8139.061
8136.505
8133.855
8131.112
8128.275
8125.348
8122.33
8119.224
8116.032
8112.756
8109.398
8105.962
8102.449
8098.863
8095.207
8091.485
8087.701
8083.857
8079.959
8076.009
8072.011
8067.969
8063.886
8059.763
8055.603
8051.406
8047.173
8042.904
8038.6
8034.264
8029.899
8025.515
8021.12
8016.723
8012.331
8007.95
8003.583
7999.236
7994.909
7990.607
7986.341
7982.12
7977.956
7973.852
7969.813
7965.842
7961.943
7958.117
7954.366
7950.692
7947.097
7943.58
7940.143
7936.787
7933.511
7930.317
7927.205
7924.174
7921.224
7918.354
7915.563
7912.852
7910.217
7907.659
7905.177
7902.768
7900.429
7898.16
7895.961
7893.827
7891.757
7889.746
7887.795
7885.9
7884.058
7882.268
7880.526
7878.831
7877.179
7875.567
7873.995
7872.457
7870.953
7869.48
7868.034
7866.615
7865.218
7863.842
7862.485
7861.144
7859.816
7858.5
7857.192
7855.891
7854.595
7853.3
7852.006
7850.709
7849.406
7848.097
7846.779
7845.449
7844.105
7842.746
7841.368
7839.972
7838.555
7837.117
7835.659
7834.183
7832.693
7831.196
7829.704
7828.233
7826.808
7825.456
7824.218
7823.128
7822.239
7821.57
7821.172
7821.012
5793.886
5767.84
5694.92
5627.414
5554.813
5480.644
5406.044
5331.283
5256.14
5180.537
5105.031
5028.624
4949.694
4869.656
4788.538
4707.03
4625.549
4544.572
4464.356
4385.972
4311.518
4239.423
4169.953
4104.709
4045.15
3992.201
3946.773
3909.861
3882.635
3865.518
3858.302
3861.024
3873.726
3895.965
3927.466
3968.187
4018.568
4078.909
4149.416
4230.123
4320.902
4421.62
4532.301
4652.813
4782.277
4920.39
5068.274
5226.807
5396.045
5574.644
5761.992
5956.457
6154.818
6354.024
6549.663
6736.843
6910.005
7063.904
7193.838
7297.13
7371.563
7416.358
7430.271
7413.9
7371.081
7306.574
7224.69
7129.324
7024.13
6912.527
6798.446
6684.627
6574.015
6468.812
6371.263
6282.013
6199.962
6124.049
6052.841
5985.25
5920.627
5858.852
5800.952
5748.529
5700.959
5656.245
5614.532
5578.604
5551.748
5537.048
5536.673
5549.954
5574.223
5607.865
5649.802
5697.68
5748.122
5797.827
5842.405
5877.51