/*--------------------------------*- C++ -*----------------------------------*\
| =========                 |                                                 |
| \\      /  F ield         | foam-extend: Open Source CFD                    |
|  \\    /   O peration     | Version:     3.1                                |
|   \\  /    A nd           | Web:         http://www.extend-project.de       |
|    \\/     M anipulation  |                                                 |
\*---------------------------------------------------------------------------*/
FoamFile
{
    version     2.0;
    format      ascii;
    class       surfaceScalarField;
    location    "10";
    object      phi;
}
// * * * * * * * * * * * * * * * * * * * * * * * * * * * * * * * * * * * * * //

dimensions      [0 3 -1 0 0 0 0];

internalField   nonuniform List<scalar> 
275122
(
-0.0003035034
0.0003085365
-2.65467e-07
-4.767629e-06
-0.000274171
0.0002621978
1.021045e-06
1.095212e-05
-0.0002748007
0.000282513
-2.821313e-07
-7.430158e-06
-0.0003085903
0.000317263
-3.308774e-07
-8.341802e-06
-0.0003387953
0.0003413358
-3.817406e-07
-2.15874e-06
-0.0003406932
0.0003398601
-3.311623e-07
1.164212e-06
-0.0003357523
0.0003340786
-3.31498e-07
2.005273e-06
-0.0003278447
0.0003255965
-3.052027e-07
2.553398e-06
-0.0003183791
0.0003158224
-2.794661e-07
2.836194e-06
-0.0003078825
0.000305132
-2.592133e-07
3.009689e-06
-0.000296751
0.0002939101
-2.376207e-07
3.078525e-06
-0.0002853445
0.0002824862
-2.169461e-07
3.075276e-06
-0.0002739268
0.0002710921
-1.939707e-07
3.028679e-06
-0.0002626801
0.0002599132
-1.712103e-07
2.938156e-06
-0.0002517747
0.0002491101
-1.533251e-07
2.817879e-06
-0.0002413396
0.0002388255
-1.39965e-07
2.654114e-06
-0.0002314543
0.0002291132
-1.252824e-07
2.466393e-06
-0.0002222417
0.0002200993
-1.123544e-07
2.254755e-06
-0.0002141801
0.0002124317
-1.320613e-07
1.880432e-06
-0.0002088931
0.0002089288
-3.958296e-07
3.601471e-07
-0.0002302212
0.0002391292
-8.582804e-07
-8.049775e-06
-0.000240522
0.0002399734
-1.710582e-07
7.197111e-07
-0.0002413132
0.0002425043
-9.244399e-08
-1.098632e-06
-0.0002675796
0.000276871
2.468904e-07
-9.538307e-06
-0.0002768386
0.0002757902
3.808623e-07
6.674514e-07
-0.0002760915
0.000275846
-1.061021e-07
3.516674e-07
-0.0002735946
0.0002722297
-1.312601e-07
1.496177e-06
-0.0002667322
0.0002632113
-9.034257e-08
3.611325e-06
-0.0002444328
0.0002273286
-1.432931e-07
1.724748e-05
-0.0001329943
0.0001364228
3.194327e-09
-3.431718e-06
-0.0002344423
0.0002467053
-6.023221e-08
-1.220279e-05
-0.0002814538
0.000293038
5.71294e-09
-1.158986e-05
-0.0003284132
0.0003403171
7.017066e-09
-1.191094e-05
-0.0003764091
0.0003886119
8.713405e-09
-1.221151e-05
-0.000425658
0.0004380796
8.28002e-09
-1.242991e-05
-0.0004756216
0.000488173
8.371334e-09
-1.255977e-05
-0.0005259025
0.0005384939
7.512164e-09
-1.259894e-05
-0.0005761479
0.0005886729
7.32913e-09
-1.253232e-05
-0.0006259337
0.000638313
6.245016e-09
-1.238552e-05
-0.0006750384
0.0006876286
2.03122e-07
-1.279329e-05
1.082596e-05
-0.0004641133
0.0004649965
-3.652724e-12
-1.170914e-05
1.063501e-05
-0.00046739
0.0004679423
-7.144153e-10
-1.118666e-05
1.051844e-05
-0.0004692462
0.0004694901
-1.744578e-09
-1.076064e-05
1.037479e-05
-0.0004695713
0.0004693875
-1.828722e-09
-1.018911e-05
1.00997e-05
-0.0004683019
0.0004677572
-1.70384e-09
-9.553355e-06
9.69909e-06
-0.0004656715
0.0004648145
-1.426424e-09
-8.840639e-06
9.210614e-06
-0.0004618639
0.0004607393
-1.466125e-09
-8.084543e-06
8.708578e-06
-0.0004570689
0.0004557284
-1.76173e-09
-7.366359e-06
8.332245e-06
-0.0004511706
0.0004489967
-2.855428e-09
-6.155495e-06
6.431476e-06
-0.001814365
0.0018041
1.849164e-11
-1.678897e-05
7.121671e-06
6.404011e-06
7.096531e-06
6.80681e-06
-0.001792055
0.001779588
4.348645e-12
-1.532238e-05
7.091738e-06
6.805161e-06
7.085251e-06
6.864164e-06
-0.001767667
0.001756156
-1.934104e-11
-1.621323e-05
7.009064e-06
6.853315e-06
6.997401e-06
7.132919e-06
-0.00174503
0.00173428
-5.26658e-11
-1.802539e-05
7.268276e-06
7.117971e-06
7.256228e-06
7.577112e-06
-0.001723733
0.001713788
-7.437103e-11
-2.062878e-05
7.720411e-06
7.566624e-06
7.709756e-06
8.150953e-06
-0.001704313
0.00169587
-3.294999e-11
-2.442156e-05
8.290657e-06
8.141836e-06
8.280837e-06
8.834211e-06
-0.001688244
0.001681708
6.778917e-11
-2.906282e-05
8.97578e-06
8.822999e-06
8.965968e-06
9.630288e-06
-0.001675933
0.001671383
1.285943e-10
-3.423523e-05
9.772412e-06
9.619191e-06
9.763014e-06
1.040046e-05
-0.00166797
0.001665697
7.898507e-11
-3.971036e-05
1.060317e-05
1.038786e-05
1.059222e-05
1.078768e-05
-0.001661965
0.001663275
-2.21833e-11
-4.512266e-05
1.11263e-05
1.07769e-05
1.112183e-05
1.21184e-05
-0.001664364
0.001665759
5.317993e-11
-5.007847e-05
1.223189e-05
1.211422e-05
1.221959e-05
1.280351e-05
-0.001667793
0.001670919
-1.896452e-11
-5.429634e-05
1.279962e-05
1.278629e-05
1.278143e-05
1.338175e-05
-0.001674852
0.001679768
-2.158709e-11
-5.837431e-05
1.339965e-05
1.331203e-05
1.336546e-05
1.396259e-05
-0.001685139
0.001691298
-8.572272e-11
-6.20917e-05
1.400926e-05
1.395531e-05
1.400512e-05
1.44517e-05
-0.001697867
0.001705009
-1.325018e-10
-6.502115e-05
1.450026e-05
1.444261e-05
1.448492e-05
1.487129e-05
-0.001712437
0.001720197
-2.234197e-10
-6.72512e-05
1.490862e-05
1.484644e-05
1.486509e-05
1.529453e-05
-0.00172824
0.001736347
-3.681458e-10
-6.906026e-05
1.528741e-05
1.517288e-05
1.519889e-05
1.641463e-05
-0.001744387
0.00175037
-2.144376e-10
-7.076092e-05
1.668085e-05
1.578686e-05
1.58962e-05
1.916039e-05
-0.001753165
0.001750241
-1.390407e-10
-7.222727e-05
2.051463e-05
1.77284e-05
1.774811e-05
3.641642e-05
-0.001743325
0.001762958
-2.708809e-11
-5.604913e-05
2.871171e-05
-0.001786305
0.001793737
-1.232752e-11
-3.614422e-05
3.965643e-05
-0.001795803
0.001798391
-6.432687e-12
-4.224431e-05
3.405294e-05
-0.001799868
0.001801158
-7.405614e-12
-3.534306e-05
1.750737e-05
-0.001802503
0.001806147
-1.371926e-11
-2.115156e-05
2.634478e-06
-0.001811694
0.001815831
-1.011016e-11
-6.771581e-06
-5.257267e-06
-0.001818879
0.00182071
-1.624966e-14
3.425768e-06
-1.101871e-05
-0.001821773
0.001821522
1.031202e-11
1.126924e-05
-1.577228e-05
-0.001820489
0.001818322
1.609786e-11
1.793943e-05
-1.948783e-05
-0.001815462
0.001811637
1.535017e-11
2.331219e-05
-2.208633e-05
-0.001807236
0.001802074
1.067199e-11
2.724801e-05
-2.368387e-05
-0.001796463
0.00179032
3.489973e-12
2.982614e-05
-2.443666e-05
-0.001783849
0.001777083
-2.960189e-12
3.120285e-05
-2.447301e-05
-0.001770098
0.001763023
-6.709444e-12
3.154828e-05
-2.393065e-05
-0.001755818
0.001748707
-8.19857e-12
3.104171e-05
-2.290827e-05
-0.00174151
0.001734578
-9.819176e-12
2.984047e-05
-2.147302e-05
-0.001727566
0.001720984
-1.357131e-11
2.805482e-05
-1.949174e-05
-0.001714278
0.00170814
-2.193514e-11
2.562896e-05
-1.641685e-05
-0.001701668
0.001695707
-3.427881e-11
2.237767e-05
-1.199249e-05
-0.001689136
0.001683017
-4.651404e-11
1.811103e-05
-3.974537e-06
-0.001673454
0.001664439
-5.30029e-11
1.298904e-05
-7.198711e-06
-0.001659013
0.001654451
-4.842956e-11
1.176053e-05
1.624018e-06
-0.001649128
0.001640408
-3.168697e-11
7.095952e-06
1.539255e-05
-0.001623314
0.001607975
-8.903695e-12
-5.280915e-08
-2.199144e-06
-0.001597283
0.001590305
1.386286e-11
9.17672e-06
-1.353581e-05
-0.001583886
0.001576444
3.837875e-11
2.097798e-05
-2.270085e-05
-0.001568457
0.001560685
5.632739e-11
3.047357e-05
-3.811755e-05
-0.001553624
0.00154908
6.733007e-11
4.266067e-05
-6.955136e-05
-0.001544781
0.001553786
7.307164e-11
6.054691e-05
-1.550952e-05
-0.001565752
0.001559145
7.87687e-11
6.107546e-05
-1.186842e-05
-1.542073e-05
-1.167048e-05
-9.730129e-06
-0.001546944
0.00153953
8.165873e-11
4.616785e-05
-1.005531e-05
-9.320653e-06
-9.648401e-06
-9.447041e-06
-0.00153178
0.001521758
8.192944e-11
4.669951e-05
-9.242637e-06
-9.08947e-06
-8.898735e-06
-9.128109e-06
-0.00151065
0.001499104
8.361505e-11
4.744227e-05
-9.129449e-06
-8.813155e-06
-8.825206e-06
-9.404127e-06
-0.001487253
0.00147465
7.815205e-11
4.983346e-05
-9.454124e-06
-9.154187e-06
-9.218326e-06
-9.714222e-06
-0.001461316
0.001446923
7.344403e-11
5.299468e-05
-9.74301e-06
-9.548879e-06
-9.596356e-06
-1.003136e-05
-0.001431562
0.001415132
8.982021e-11
5.647825e-05
-1.007837e-05
-9.94447e-06
-9.993756e-06
-1.049531e-05
-0.001397505
0.001378575
8.860169e-11
6.096404e-05
-1.058047e-05
-1.043654e-05
-1.052191e-05
-1.111089e-05
-0.001358269
0.001336583
4.50227e-11
6.626208e-05
-1.121449e-05
-1.107148e-05
-1.117973e-05
-1.193277e-05
-0.001313544
0.001289203
2.863205e-11
7.245891e-05
-1.215022e-05
-1.191114e-05
-1.212313e-05
-1.331376e-05
-0.001262729
0.001235694
-1.699209e-10
8.107852e-05
-1.366593e-05
-1.337788e-05
-1.368675e-05
-1.576794e-05
-0.001206593
0.001177326
-5.725022e-10
9.422381e-05
-1.634092e-05
-1.624096e-05
-1.66065e-05
-2.025416e-05
-0.001151498
0.001124149
-4.640333e-10
0.0001122035
-2.096288e-05
-2.135797e-05
-2.227973e-05
-2.920371e-05
-0.001102375
0.001089048
-5.086042e-10
0.0001393453
-2.967668e-05
-3.360067e-05
-3.353751e-05
-2.539493e-05
-0.001072162
0.001046714
1.626602e-09
0.0001266579
-2.354163e-05
-2.66132e-05
-2.566256e-05
-1.634978e-05
-0.001014452
0.0009733131
1.515493e-09
9.960963e-05
-1.467088e-05
-1.526159e-05
-1.21897e-05
-7.558843e-06
-0.000927287
0.0008792656
1.182411e-10
7.252904e-05
-6.451761e-06
-5.561748e-06
-4.935488e-06
-1.209761e-06
-0.0008315261
0.0007858744
-9.898111e-10
4.900382e-05
-7.098219e-07
-8.97879e-07
-5.336459e-07
2.089714e-06
-0.0007416023
0.0006993423
-1.76149e-09
3.35755e-05
2.186128e-06
2.160531e-06
2.249941e-06
2.005865e-06
-0.000660363
0.000626228
-8.60013e-10
2.65466e-05
1.753626e-06
2.038241e-06
1.791514e-06
4.065939e-07
-0.0005969689
0.0005726341
1.431377e-09
2.340463e-05
1.825205e-08
4.5071e-07
5.313819e-08
-1.672143e-06
-0.0005517751
0.0005336325
2.488276e-09
2.527782e-05
-1.928447e-06
-1.639164e-06
-1.897972e-06
-2.114711e-06
-0.0005178934
0.0005044246
1.906079e-09
2.162249e-05
-1.97644e-06
-2.099324e-06
-1.965123e-06
-8.223476e-07
-0.0004941716
0.0004865355
7.766467e-10
1.055683e-05
-6.412537e-07
-8.190089e-07
-6.388752e-07
1.447299e-07
-0.0004812346
0.0004774043
1.652973e-11
3.152874e-06
1.9293e-07
1.458508e-07
1.939637e-07
2.235442e-07
0.00047211
-2.299207e-10
1.441664e-06
1.813016e-07
2.241071e-07
1.817925e-07
-0.0004743622
-1.77306e-07
-0.0004700486
0.0004682607
-2.391885e-10
2.652254e-06
-2.554313e-07
-1.765456e-07
-2.547597e-07
-7.304418e-07
-0.0004663152
0.0004640103
-1.720449e-10
5.42462e-06
-8.304428e-07
-7.294172e-07
-8.29255e-07
-1.344544e-06
-0.0004612138
0.0004575747
-1.085248e-10
9.211773e-06
-1.443041e-06
-1.343335e-06
-1.441677e-06
-1.975289e-06
-0.0004532447
0.0004478014
-6.795283e-11
1.353706e-05
-2.0731e-06
-1.973847e-06
-2.071535e-06
-2.585612e-06
-0.0004415995
0.000434271
-4.743139e-11
1.784735e-05
-2.675501e-06
-2.583951e-06
-2.673748e-06
-3.128362e-06
-0.0004262596
0.0004172655
-4.011889e-11
2.165778e-05
-3.205352e-06
-3.126526e-06
-3.203452e-06
-3.586289e-06
-0.0004077175
0.0003973709
-3.905364e-11
2.481295e-05
-3.648849e-06
-3.584334e-06
-3.646863e-06
-3.957174e-06
-0.0003865909
0.0003751834
-3.929975e-11
2.732619e-05
-4.004138e-06
-3.955161e-06
-4.002125e-06
-4.232936e-06
-0.0003634512
0.0003512626
-3.897136e-11
2.917415e-05
-4.261809e-06
-4.230912e-06
-4.259815e-06
-4.39742e-06
-0.0003388706
0.0003262179
-3.780675e-11
3.025618e-05
-4.406241e-06
-4.395433e-06
-4.404309e-06
-4.439829e-06
-0.0003134963
0.0003007153
-3.573719e-11
3.051213e-05
-4.427572e-06
-4.437926e-06
-4.425747e-06
-4.353903e-06
-0.0002880101
0.0002754665
-3.288927e-11
2.989038e-05
-4.321222e-06
-4.352126e-06
-4.319535e-06
-4.14663e-06
-0.0002631399
0.0002511942
-2.910338e-11
2.842943e-05
-4.096786e-06
-4.145014e-06
-4.095265e-06
-3.841144e-06
-0.0002395795
0.0002285174
-2.440633e-11
2.630007e-05
-3.779253e-06
-3.8397e-06
-3.777904e-06
-3.467633e-06
-0.000217868
0.0002078852
-2.03669e-11
2.371392e-05
-3.399151e-06
-3.466366e-06
-3.397967e-06
-3.058246e-06
-0.0001983593
0.0001895508
-1.648273e-11
2.089825e-05
-2.987628e-06
-3.057175e-06
-2.986672e-06
-2.637037e-06
-0.0001812149
0.0001736143
-1.297203e-11
1.800798e-05
-2.567393e-06
-2.63622e-06
-2.566653e-06
-2.220789e-06
-0.0001664843
0.0001600819
-9.685123e-12
1.515137e-05
-2.154335e-06
-2.220119e-06
-2.153707e-06
-1.822929e-06
-0.0001541347
0.0001488865
-6.448389e-12
1.241555e-05
-1.761263e-06
-1.822367e-06
-1.760765e-06
-1.453226e-06
-0.0001440663
0.0001398991
-4.158004e-12
9.867806e-06
-1.397461e-06
-1.452818e-06
-1.397109e-06
-1.119407e-06
-0.0001361246
0.0001329456
-2.094881e-12
7.55798e-06
-1.070339e-06
-1.119128e-06
-1.070106e-06
-8.28287e-07
-0.0001301191
0.0001278246
3.618559e-14
5.524694e-06
-7.869671e-07
-8.280921e-07
-7.868029e-07
-5.916553e-07
-0.000125843
0.00012434
1.687116e-12
3.809356e-06
-5.617605e-07
-5.914408e-07
-5.615276e-07
-4.356919e-07
-0.0001231508
0.0001224669
3.202268e-12
2.374294e-06
-4.106669e-07
-4.350085e-07
-4.090161e-07
-2.293535e-07
-0.0001220185
0.0001219662
4.606748e-12
9.019228e-07
-1.959382e-07
-2.286879e-07
-1.957379e-07
-9.093792e-08
-0.0001221627
0.0001226485
6.146003e-12
-1.735601e-07
-6.526818e-08
-9.078452e-08
-6.522094e-08
8.803632e-08
-0.0001232879
0.0001241943
7.71412e-12
-1.312466e-06
1.151829e-07
8.788701e-08
1.149686e-07
2.656529e-07
-0.0001252485
0.0001265702
9.189855e-12
-2.433117e-06
2.903924e-07
2.653488e-07
2.899555e-07
4.168764e-07
-0.0001280518
0.0001298025
1.035012e-11
-3.461475e-06
4.389476e-07
4.164581e-07
4.384841e-07
5.478944e-07
-0.0001317104
0.0001338797
1.220448e-11
-4.398741e-06
5.673193e-07
5.473873e-07
5.66829e-07
6.636389e-07
-0.0001362003
0.0001387733
1.287824e-11
-5.261164e-06
6.810137e-07
6.630516e-07
6.804776e-07
7.676554e-07
-0.0001414913
0.0001444534
1.288332e-11
-6.062661e-06
7.832917e-07
7.669702e-07
7.827077e-07
8.618737e-07
-0.0001475547
0.0001508918
1.080977e-11
-6.811425e-06
8.759398e-07
8.611847e-07
8.753647e-07
9.472138e-07
-0.0001543627
0.0001580603
9.614971e-12
-7.510334e-06
9.598008e-07
9.464782e-07
9.591395e-07
1.023841e-06
-0.0001618859
0.0001659283
1.108714e-11
-8.158126e-06
1.034815e-06
1.022996e-06
1.034054e-06
1.091571e-06
-0.0001700917
0.0001744596
1.14241e-11
-8.7513e-06
1.100924e-06
1.090742e-06
1.100201e-06
1.149781e-06
-0.0001789409
0.0001836123
1.141131e-11
-9.284176e-06
1.157312e-06
1.149035e-06
1.156628e-06
1.197885e-06
-0.0001883885
0.0001933377
1.016737e-11
-9.750842e-06
1.203627e-06
1.197122e-06
1.202914e-06
1.235522e-06
-0.0001983812
0.0002035773
9.009512e-12
-1.014572e-05
1.24003e-06
1.23475e-06
1.239297e-06
1.261403e-06
-0.0002088569
0.0002142685
8.778755e-12
-1.046171e-05
1.264415e-06
1.260618e-06
1.263663e-06
1.276149e-06
-0.0002197509
0.0002253414
9.097647e-12
-1.069624e-05
1.277489e-06
1.275376e-06
1.276741e-06
1.279444e-06
-0.0002309895
0.0002367202
8.959531e-12
-1.084617e-05
1.279062e-06
1.278662e-06
1.278299e-06
1.271135e-06
-0.0002424949
0.0002483254
9.26456e-12
-1.090934e-05
1.269064e-06
1.270355e-06
1.268292e-06
1.251518e-06
-0.000254186
0.0002600746
7.220765e-12
-1.088577e-05
1.247803e-06
1.250753e-06
1.247046e-06
1.221073e-06
-0.0002659794
0.0002718842
7.830831e-12
-1.077718e-05
1.215821e-06
1.220348e-06
1.215091e-06
1.180482e-06
-0.0002777913
0.0002836708
7.774365e-12
-1.058666e-05
1.173779e-06
1.179791e-06
1.173074e-06
1.130625e-06
-0.0002895392
0.0002953529
4.903074e-12
-1.031876e-05
1.122595e-06
1.129947e-06
1.1219e-06
1.072514e-06
-0.0003011423
0.0003068509
2.650516e-12
-9.978914e-06
1.063254e-06
1.071918e-06
1.062649e-06
1.006386e-06
-0.0003125218
0.00031809
4.30585e-12
-9.570669e-06
9.95445e-07
1.005744e-06
9.948687e-07
9.289848e-07
0.0003290226
4.016487e-12
-9.09864e-06
-0.0003236143
9.165508e-07
9.282916e-07
9.164981e-07
8.489133e-07
-0.0003343734
0.0003395865
3.367891e-12
-8.58575e-06
8.378643e-07
8.485211e-07
8.373373e-07
7.65289e-07
-0.0003447366
0.0003497374
1.642087e-12
-8.038871e-06
7.542599e-07
7.650997e-07
7.533858e-07
6.808079e-07
-0.0003546657
0.0003594384
1.334119e-13
-7.472161e-06
6.691524e-07
6.805944e-07
6.688998e-07
5.950068e-07
-0.0003641373
0.0003686792
-2.071565e-12
-6.897498e-06
5.830375e-07
5.94771e-07
5.82811e-07
5.118808e-07
-0.0003731484
0.0003774597
2.556694e-13
-6.337094e-06
5.011744e-07
5.117023e-07
5.010241e-07
4.411831e-07
-0.0003816877
0.0003857478
-1.17102e-12
-5.80767e-06
4.327377e-07
4.410463e-07
4.325968e-07
3.723914e-07
-0.0003897256
0.0003935478
-2.303542e-12
-5.294173e-06
3.636896e-07
3.723053e-07
3.636041e-07
3.050573e-07
-0.000397292
0.0004008882
-2.570744e-12
-4.799882e-06
2.968522e-07
3.049558e-07
2.967612e-07
2.415202e-07
-0.0004044095
0.0004077913
-2.921087e-12
-4.332601e-06
2.339311e-07
2.414555e-07
2.338702e-07
1.823637e-07
-0.0004111018
0.0004142819
-1.186706e-12
-3.895478e-06
1.753986e-07
1.823088e-07
1.753584e-07
1.277865e-07
-0.0004173946
0.0004203868
-6.053495e-13
-3.4906e-06
1.214476e-07
1.277648e-07
1.214186e-07
7.812816e-08
-0.0004233166
0.0004261371
-2.009625e-12
-3.12165e-06
7.243508e-08
7.810908e-08
7.240718e-08
3.388124e-08
-0.0004289012
0.0004315679
-3.099007e-12
-2.79218e-06
2.88718e-08
3.386488e-08
2.886319e-08
-3.143397e-09
-0.0004341813
0.0004367121
-1.577604e-12
-2.50711e-06
-8.745512e-09
-3.1267e-09
-8.717523e-09
-3.968904e-08
-0.0004392071
0.0004416371
-5.235983e-14
-2.264609e-06
-4.304448e-08
-3.967772e-08
-4.300036e-08
-6.85729e-08
-0.0004440342
0.00044638
-1.351721e-12
-2.066032e-06
-7.133508e-08
-6.85248e-08
-7.134036e-08
-9.309357e-08
-0.0004487014
0.000450985
-1.395475e-12
-1.90627e-06
-9.556154e-08
-9.310899e-08
-9.562193e-08
-1.139144e-07
-0.000453252
0.0004554929
-1.263286e-12
-1.781308e-06
-1.158544e-07
-1.139853e-07
-1.158804e-07
-1.317393e-07
-0.000457724
0.0004599392
1.508131e-13
-1.684827e-06
-1.333901e-07
-1.317761e-07
-1.334308e-07
-1.472153e-07
-0.0004621502
0.0004643544
1.242729e-13
-1.612392e-06
-1.48692e-07
-1.472068e-07
-1.486988e-07
-1.602242e-07
-0.0004665591
0.0004687654
-3.518216e-12
-1.562285e-06
-1.618469e-07
-1.601437e-07
-1.618236e-07
-1.687271e-07
-0.0004709763
0.0004732042
-2.522415e-12
-1.54843e-06
-1.711106e-07
-1.685526e-07
-1.711641e-07
-1.58277e-07
-0.0004754294
0.000477639
-7.715759e-13
-1.586447e-06
-1.535193e-07
-1.577258e-07
-1.53608e-07
-2.142656e-08
-0.0004795759
0.0004812013
2.477715e-12
-1.685742e-06
5.087471e-08
-1.969635e-08
5.057141e-08
2.205747e-07
-0.0001198259
0.0001197776
5.086969e-11
-1.722911e-07
-6.642369e-08
-0.0001200296
0.0001202223
-6.555942e-11
-1.261883e-07
-1.535896e-07
-0.0001209433
0.0001212086
-2.527763e-11
-1.116721e-07
-1.932987e-07
-0.0001220386
0.0001223206
3.426871e-12
-8.874093e-08
-2.187089e-07
-0.0001231723
0.0001234568
1.814869e-11
-6.580761e-08
-2.383045e-07
-0.0001243111
0.0001245956
2.768783e-11
-4.619218e-08
-2.554416e-07
-0.0001254492
0.0001257336
3.571893e-11
-2.894178e-08
-2.72167e-07
-0.0001265863
0.0001268701
4.154991e-11
-1.167744e-08
-2.894069e-07
-0.0001277209
0.0001280035
4.464177e-11
6.816822e-09
-3.07354e-07
-0.0001288484
0.0001291284
4.715859e-11
2.729111e-08
-3.262648e-07
-0.0001299646
0.0001302412
4.45829e-11
4.960688e-08
-3.463755e-07
-0.0001310654
0.0001313373
4.138045e-11
7.447546e-08
-3.677548e-07
-0.0001321455
0.0001324113
4.484603e-11
1.018931e-07
-3.90056e-07
-0.0001331997
0.0001334582
4.905677e-11
1.315062e-07
-4.128502e-07
-0.0001342228
0.0001344727
5.604101e-11
1.629062e-07
-4.358319e-07
-0.0001352099
0.0001354499
6.675909e-11
1.957146e-07
-4.586128e-07
-0.0001361561
0.0001363854
8.452646e-11
2.292304e-07
-4.810114e-07
-0.0001370592
0.0001372768
1.027021e-10
2.632578e-07
-5.032127e-07
-0.0001379131
0.0001381181
1.207787e-10
2.980979e-07
-5.244457e-07
-0.0001387159
0.0001389078
1.218776e-10
3.323923e-07
-5.44606e-07
-0.0001394658
0.0001396442
8.453887e-11
3.660904e-07
-5.635258e-07
-0.0001401614
0.0001403262
3.197662e-11
3.987031e-07
-5.809516e-07
-0.0001408021
0.0001409532
-5.651329e-12
4.29881e-07
-5.968907e-07
-0.0001413881
0.0001415255
-1.145288e-11
4.59502e-07
-6.113939e-07
-0.0001419193
0.0001420432
4.485828e-12
4.875584e-07
-6.250003e-07
-0.0001423976
0.0001425087
2.340726e-11
5.138094e-07
-6.300836e-07
-0.0001428337
0.0001429286
3.139705e-11
5.350552e-07
-6.455124e-07
-0.0001432107
0.0001432975
7.804474e-11
5.587218e-07
-6.549542e-07
-0.0001435481
0.0001436264
1.386657e-10
5.765194e-07
-6.609325e-07
-0.00014385
0.0001439216
6.098407e-11
5.892513e-07
-6.643128e-07
-0.0001441235
0.0001441911
-1.168158e-11
5.967727e-07
-6.626721e-07
-0.0001443803
0.0001444457
-4.000421e-11
5.972767e-07
-6.510593e-07
-0.0001446392
0.0001447055
-3.521619e-11
5.847239e-07
-6.328144e-07
-0.0001449126
0.0001449956
-1.660204e-11
5.498291e-07
-5.723602e-07
-0.0001453056
0.0001454516
-2.492903e-11
4.264242e-07
1.602294e-07
-0.000145929
0.0001458779
-1.154517e-11
-1.091669e-07
5.64527e-07
-0.0001457353
0.0001457237
-1.691321e-11
-5.52961e-07
6.297114e-07
-0.0001457081
0.000145717
-2.481821e-11
-6.385546e-07
6.695663e-07
-0.0001457513
0.0001457689
-2.033936e-11
-6.872296e-07
6.887204e-07
-0.0001458322
0.0001458563
-1.449847e-11
-7.128504e-07
7.044796e-07
-0.0001459349
0.0001459629
-1.403129e-11
-7.324712e-07
7.161412e-07
-0.000146052
0.0001460832
-1.104011e-11
-7.473171e-07
7.260245e-07
-0.0001461807
0.0001462144
-6.599583e-12
-7.597599e-07
7.344712e-07
-0.0001463195
0.0001463558
-3.407515e-12
-7.707659e-07
7.420293e-07
-0.0001464685
0.0001465075
-1.028518e-11
-7.809471e-07
7.489262e-07
-0.0001466283
0.00014667
-1.140681e-11
-7.906716e-07
7.55498e-07
-0.0001467993
0.0001468439
-8.908998e-12
-8.001188e-07
7.618106e-07
-0.0001469819
0.0001470296
-7.400818e-12
-8.094192e-07
7.681402e-07
-0.0001471766
0.0001472273
-4.269336e-12
-8.188304e-07
7.74488e-07
-0.0001473838
0.0001474377
-5.327916e-12
-8.284114e-07
7.809042e-07
-0.000147604
0.0001476613
-1.121158e-11
-8.382227e-07
7.876618e-07
-0.000147838
0.0001478989
-1.084825e-11
-8.485606e-07
7.946593e-07
-0.0001480866
0.0001481513
-4.568995e-12
-8.593495e-07
8.018347e-07
-0.0001483504
0.0001484191
-1.334074e-12
-8.704985e-07
8.093573e-07
-0.0001486303
0.0001487031
-7.422166e-13
-8.821643e-07
8.172226e-07
-0.0001489269
0.000149004
1.4857e-12
-8.943602e-07
8.254027e-07
-0.0001492409
0.0001493226
1.458212e-12
-9.070565e-07
8.340049e-07
-0.0001495731
0.0001496594
2.499446e-12
-9.203367e-07
8.429828e-07
-0.000149924
0.0001500152
8.410532e-12
-9.341772e-07
8.522869e-07
-0.0001502943
0.0001503905
1.300682e-11
-9.484656e-07
8.618505e-07
-0.0001506845
0.0001507858
8.15944e-12
-9.631335e-07
8.71673e-07
-0.000151095
0.0001512015
7.822535e-12
-9.781739e-07
8.817438e-07
-0.0001515261
0.0001516379
1.054073e-11
-9.935264e-07
8.921098e-07
-0.0001519781
0.0001520952
1.086862e-11
-1.009215e-06
9.02748e-07
-0.000152451
0.0001525735
1.495386e-11
-1.025201e-06
9.136196e-07
-0.0001529449
0.0001530727
2.040223e-11
-1.041467e-06
9.255666e-07
-0.0001534596
0.0001535926
2.367158e-11
-1.05861e-06
9.416768e-07
-0.0001539908
0.0001541257
2.419246e-11
-1.076582e-06
9.39131e-07
-0.0001545393
0.0001546891
7.572507e-11
-1.089011e-06
9.916339e-07
-0.0001551618
0.0001552872
1.567679e-10
-1.117158e-06
1.093196e-06
-0.0001546397
0.0006324942
1.795448e-12
-4.983141e-06
9.470728e-08
1.094616e-06
8.600653e-08
-0.0001546423
-0.0001602982
-0.0001602994
6.11207e-07
-0.0006359289
0.00063765
-4.958509e-12
-4.652624e-06
8.646646e-07
6.005839e-07
8.550814e-07
7.781314e-07
-0.0006391092
0.0006406096
-5.280852e-12
-4.702717e-06
8.309638e-07
7.699043e-07
8.232512e-07
8.346354e-07
-0.0006422687
0.0006438645
-4.488876e-12
-4.999612e-06
8.741962e-07
8.275841e-07
8.674049e-07
8.899355e-07
-0.0006454285
0.000646928
-3.777855e-12
-5.099191e-06
9.164447e-07
8.833206e-07
9.100208e-07
9.240113e-07
-0.000648432
0.0006499386
-3.300057e-12
-5.218777e-06
9.38108e-07
9.178207e-07
9.322419e-07
9.535069e-07
-0.0006514595
0.0006529824
-2.170095e-12
-5.343246e-06
9.617338e-07
9.483903e-07
9.566733e-07
9.815928e-07
-0.0006545181
0.0006560574
6.044775e-14
-5.471738e-06
9.890341e-07
9.77046e-07
9.846932e-07
1.009839e-06
-0.000657602
0.0006591535
2.729869e-12
-5.593564e-06
1.015173e-06
1.005807e-06
1.011276e-06
1.033932e-06
-0.0006607094
0.0006622723
4.019629e-12
-5.699657e-06
1.037903e-06
1.030443e-06
1.034518e-06
1.054964e-06
-0.0006638379
0.0006654119
8.542011e-12
-5.793651e-06
1.057789e-06
1.051966e-06
1.054898e-06
1.072917e-06
-0.0006669883
0.000668573
8.693934e-12
-5.876043e-06
1.075269e-06
1.070386e-06
1.072814e-06
1.088435e-06
-0.0006701602
0.0006717556
3.195189e-12
-5.94881e-06
1.090396e-06
1.086247e-06
1.088261e-06
1.101928e-06
-0.0006733535
0.0006749591
-1.642549e-12
-6.012911e-06
1.103633e-06
1.099988e-06
1.101739e-06
1.113638e-06
-0.0006765669
0.0006781813
-2.797468e-12
-6.068753e-06
1.115186e-06
1.111941e-06
1.113531e-06
1.123809e-06
-0.0006797975
0.0006814191
-1.284957e-13
-6.116629e-06
1.125209e-06
1.122294e-06
1.123729e-06
1.132594e-06
-0.0006830418
0.0006846684
3.434754e-12
-6.156901e-06
1.133863e-06
1.131257e-06
1.132557e-06
1.140165e-06
-0.0006862954
0.0006879247
5.902598e-12
-6.189822e-06
1.141325e-06
1.138951e-06
1.140129e-06
1.146587e-06
-0.0006895535
0.0006911827
4.753703e-12
-6.215531e-06
1.147639e-06
1.145501e-06
1.14658e-06
1.1519e-06
-0.0006928107
0.0006944372
5.790121e-13
-6.234051e-06
1.152845e-06
1.150917e-06
1.151878e-06
1.156187e-06
-0.0006960616
0.0006976825
-4.445211e-12
-6.245625e-06
1.157064e-06
1.155271e-06
1.156148e-06
1.15952e-06
-0.0006993004
0.0007009129
-6.473147e-12
-6.25047e-06
1.160287e-06
1.158696e-06
1.159483e-06
1.161896e-06
-0.0007025213
0.0007041224
-5.461118e-12
-6.248468e-06
1.162523e-06
1.161161e-06
1.161811e-06
1.16331e-06
-0.0007057184
0.0007073051
-3.363417e-12
-6.23964e-06
1.163822e-06
1.162634e-06
1.163188e-06
1.163771e-06
-0.0007088857
0.0007104552
-2.031374e-12
-6.223972e-06
1.16415e-06
1.163115e-06
1.163473e-06
1.163172e-06
-0.0007120178
0.0007135672
1.719315e-12
-6.201335e-06
1.163443e-06
1.162511e-06
1.162754e-06
1.1616e-06
-0.0007151087
0.0007166353
4.526465e-12
-6.171984e-06
1.161702e-06
1.160981e-06
1.161108e-06
1.158969e-06
-0.0007181531
0.000719654
2.383981e-12
-6.135698e-06
1.158962e-06
1.158422e-06
1.158422e-06
1.155362e-06
-0.0007211452
0.0007226176
1.328276e-12
-6.092634e-06
1.15522e-06
1.154855e-06
1.154728e-06
1.15072e-06
-0.0007240795
0.0007255209
4.231752e-12
-6.042832e-06
1.150462e-06
1.150244e-06
1.149979e-06
1.14511e-06
-0.0007269509
0.0007283586
4.247666e-12
-5.986529e-06
1.144723e-06
1.144647e-06
1.144267e-06
1.13858e-06
-0.000729754
0.0007311256
-1.206273e-12
-5.924073e-06
1.138094e-06
1.138171e-06
1.137684e-06
1.13119e-06
-0.0007324839
0.0007338169
-5.050204e-12
-5.855826e-06
1.130671e-06
1.130784e-06
1.130268e-06
1.122992e-06
-0.0007351359
0.0007364278
-3.699434e-12
-5.781921e-06
1.122376e-06
1.122609e-06
1.121991e-06
1.113983e-06
-0.0007377051
0.0007389537
-5.406795e-13
-5.702338e-06
1.11322e-06
1.113613e-06
1.11285e-06
1.10408e-06
-0.0007401871
0.0007413903
2.961645e-13
-5.617029e-06
1.103182e-06
1.103738e-06
1.102842e-06
1.09334e-06
-0.0007425774
0.0007437329
-9.624586e-13
-5.525915e-06
1.092216e-06
1.093011e-06
1.091875e-06
1.081764e-06
-0.0007448718
0.0007459771
-2.632622e-12
-5.428885e-06
1.080333e-06
1.081445e-06
1.080014e-06
1.069133e-06
-0.0007470652
0.0007481178
-3.473027e-12
-5.325401e-06
1.067534e-06
1.06886e-06
1.067277e-06
1.055243e-06
-0.0007491527
0.0007501495
-5.315708e-12
-5.214328e-06
1.053759e-06
1.054982e-06
1.053521e-06
1.03964e-06
-0.0007511281
0.0007520656
-4.660477e-12
-5.0938e-06
1.038789e-06
1.039362e-06
1.03849e-06
1.021853e-06
-0.0007529842
0.0007538572
-2.619584e-12
-4.95974e-06
1.021797e-06
1.021557e-06
1.021464e-06
1.001712e-06
-0.0007547088
0.0007555091
-1.337352e-12
-4.803627e-06
1.000232e-06
1.001424e-06
9.99935e-07
9.732964e-07
-0.0007562795
0.0007569897
-1.455748e-12
-4.599164e-06
9.714048e-07
9.730394e-07
9.711647e-07
9.167041e-07
-0.0007576691
0.0007583287
1.644907e-12
-4.300007e-06
9.037476e-07
9.16482e-07
9.035342e-07
7.977935e-07
-0.0007590301
0.0007597889
3.53e-12
-3.872181e-06
7.591485e-07
7.975939e-07
7.588928e-07
6.568374e-07
-0.0007605876
0.0007613462
3.407362e-12
-3.379952e-06
6.540573e-07
6.566563e-07
6.537955e-07
6.335824e-07
-0.0007620406
0.0007626975
4.798797e-14
-3.184804e-06
6.30547e-07
6.334289e-07
6.303724e-07
6.073611e-07
-0.0007633348
0.000763924
7.783241e-14
-3.013947e-06
6.051739e-07
6.071906e-07
6.050218e-07
5.851181e-07
-0.0007644907
0.0007650051
4.190517e-12
-2.85148e-06
5.835537e-07
5.849537e-07
5.834105e-07
5.633894e-07
-0.0007655026
0.0007659412
6.034733e-12
-2.688735e-06
5.6183e-07
5.632357e-07
5.61679e-07
5.377361e-07
-0.0007663637
0.0007667089
4.356786e-12
-2.495416e-06
5.375779e-07
5.375633e-07
5.373403e-07
4.975613e-07
-0.0007670434
0.0007674128
3.920379e-12
-2.338363e-06
4.874467e-07
4.971029e-07
4.867867e-07
3.06001e-07
-0.0007682324
0.0007695113
9.438982e-13
-2.668348e-06
3.891165e-07
3.049253e-07
3.893595e-07
5.843208e-07
-0.000770109
0.0007693392
1.5848e-12
-1.350373e-06
4.717168e-07
5.884472e-07
4.757265e-07
4.417203e-07
-0.0007689968
0.0007692157
5.192849e-12
-1.865148e-06
3.757642e-07
4.476309e-07
3.811395e-07
4.046266e-07
-0.0007693212
0.0007694629
6.006235e-12
-1.701414e-06
3.706207e-07
4.093982e-07
3.750248e-07
3.723965e-07
-0.000769557
0.0007697333
2.50568e-12
-1.627429e-06
3.492832e-07
3.763756e-07
3.530313e-07
3.618097e-07
-0.0007698965
0.0007700724
4.499016e-12
-1.607564e-06
3.507197e-07
3.651968e-07
3.539373e-07
3.667848e-07
-0.0007702153
0.0007703419
1.035723e-11
-1.590778e-06
3.622068e-07
3.699867e-07
3.651677e-07
3.726021e-07
-0.0007704433
0.0007705322
1.0486e-11
-1.580111e-06
3.704484e-07
3.752085e-07
3.729487e-07
3.787782e-07
-0.0007706003
0.000770653
7.921918e-12
-1.571756e-06
3.785188e-07
3.810409e-07
3.806896e-07
3.860376e-07
-0.0007706858
0.0007707025
3.793727e-12
-1.566426e-06
3.868873e-07
3.880056e-07
3.887878e-07
3.936805e-07
-0.0007707022
0.0007706869
7.734751e-13
-1.565858e-06
3.951802e-07
3.954307e-07
3.968622e-07
4.014103e-07
-0.0007706578
0.0007706157
1.782438e-12
-1.570751e-06
4.034345e-07
4.03001e-07
4.04957e-07
4.087963e-07
-0.0007705619
0.0007704957
5.614945e-12
-1.576567e-06
4.111008e-07
4.102854e-07
4.125818e-07
4.159071e-07
-0.0007704202
0.0007703387
6.466182e-12
-1.588125e-06
4.175925e-07
4.172186e-07
4.18872e-07
4.230111e-07