/*--------------------------------*- C++ -*----------------------------------*\
| =========                 |                                                 |
| \\      /  F ield         | foam-extend: Open Source CFD                    |
|  \\    /   O peration     | Version:     3.1                                |
|   \\  /    A nd           | Web:         http://www.extend-project.de       |
|    \\/     M anipulation  |                                                 |
\*---------------------------------------------------------------------------*/
FoamFile
{
    version     2.0;
    format      ascii;
    class       volScalarField;
    location    "12.5";
    object      nut;
}
// * * * * * * * * * * * * * * * * * * * * * * * * * * * * * * * * * * * * * //

dimensions      [0 2 -1 0 0 0 0];

internalField   nonuniform List<scalar> 
119952
(
5.247868e-05
3.469298e-05
3.535017e-05
3.924844e-05
4.171987e-05
3.936665e-05
3.780837e-05
3.66944e-05
3.581008e-05
3.503873e-05
3.432458e-05
3.363653e-05
3.295081e-05
3.225336e-05
3.153726e-05
3.080301e-05
3.004925e-05
2.926432e-05
2.842924e-05
2.753854e-05
3.565628e-05
3.336061e-05
3.22856e-05
4.298495e-05
4.126214e-05
4.03266e-05
3.990181e-05
4.001683e-05
3.97738e-05
2.892457e-05
3.376802e-05
3.636203e-05
4.102236e-05
4.587755e-05
5.106105e-05
5.655966e-05
6.23777e-05
6.836703e-05
7.44657e-05
8.499249e-05
0.0003754921
0.000439808
0.0005106497
0.0005843654
0.0006583766
0.0007314007
0.0008028278
0.0008724443
0.0009397394
0.001330381
0.001397202
0.001462885
0.001527354
0.001590993
0.001654413
0.001717882
0.001781352
0.00184455
0.001906929
0.001970604
0.002028783
0.002084721
0.002138996
0.002191739
0.002242871
0.002292347
0.002340362
0.002389348
0.002333216
0.00241644
0.00240699
0.002406048
0.00240167
0.002378409
0.002345055
0.002309609
0.002274743
0.002241204
0.00220918
0.002178568
0.002149099
0.002120387
0.002092006
0.002063524
0.002034541
0.002004809
0.001974816
0.001945971
0.001925334
0.001896737
0.001870762
0.001865427
0.001852029
0.001822266
0.001789719
0.001753419
0.001697273
0.001607868
0.001574458
0.001557036
0.001549662
0.00154843
0.001551778
0.001559069
0.001569588
0.001582702
0.001597833
0.001614487
0.001632253
0.001650882
0.001670304
0.001690639
0.001711883
0.001733827
0.001756251
0.001778905
0.001801478
0.001823598
0.001844853
0.001864857
0.001883284
0.001899923
0.001914708
0.001927736
0.001939295
0.00194987
0.001960184
0.001971296
0.001984032
0.001999116
0.002017324
0.002038761
0.002064274
0.002095066
0.002131701
0.002174373
0.002223467
0.00227925
0.002341699
0.00241053
0.00248519
0.002564818
0.002648097
0.002732926
0.002815939
0.002892277
0.002955881
0.002984473
0.00298098
0.002956465
0.002912506
0.002849368
0.002763362
0.002646098
0.002490556
0.002310956
0.002092614
0.001808171
0.001435976
0.001008464
0.0007262737
0.0005831723
0.0005592564
0.0006744168
0.000853842
0.000948018
0.0009659074
0.0009552766
0.0009307968
0.000919563
0.0009401258
0.0009959605
0.001081291
0.001187765
0.00130734
0.001432729
0.001557769
0.001677503
0.001787494
0.001883675
0.001962545
0.002019347
0.00205227
0.002066206
0.002062981
0.002044903
0.002015072
0.001977059
0.001934084
0.001888346
0.001841009
0.001792535
0.001743519
0.001694831
0.001646942
0.001600105
0.001551201
0.001248881
0.0009780921
0.0008789383
0.0008243225
0.0007850277
0.0007473059
0.0007111554
0.0006767457
0.0006437202
0.0006128877
0.0005838474
0.0005566987
0.0005312635
0.0005062777
0.0004828475
0.000461647
0.0004425297
0.0004254909
0.000410538
0.0003975909
0.0003864708
0.0003769291
0.0003686859
0.0003614581
0.0003549862
0.0003490338
0.0003434131
0.0003380353
0.0003328691
0.0003278933
0.0003230837
0.0003184203
0.0003139163
0.0003096431
0.0003059155
0.000306409
0.0003151022
0.0003245941
0.0003338808
0.000343128
0.0003522305
0.0003611751
0.0003699745
0.0003786318
0.0003871817
0.0003956655
0.0004041152
0.0004125644
0.0004210421
0.0004295687
0.000438155
0.0004468022
0.0004555036
0.000464245
0.0004730058
0.0004817604
0.000490479
0.0004991282
0.0005076722
0.0005160728
0.0005242926
0.0005322897
0.0005400245
0.0005474656
0.0005545836
0.0005613541
0.000567762
0.0005738122
0.0005795175
0.0005848081
0.0007891247
0.0008042671
0.0008188343
0.0008320739
0.0008440998
0.0008547876
0.000864143
0.0008722157
0.0008790695
0.0008847743
0.0008894293
0.0008931494
0.0008960384
0.0008981623
0.0008995249
0.0009000123
0.0008993235
0.0008970518
0.0008927679
0.0008857434
0.0008747529
0.0008584914
0.0008324137
0.0007869432
0.0007089289
0.0006338863
0.0005994368
0.0005916768
0.0005774717
0.0005715517
0.0005779869
0.0005940282
0.0006148578
0.0006364139
0.0006573961
0.000679908
0.0007048284
0.0007318802
0.0007565687
0.0007703595
0.0007791847
0.0007844346
0.0007873647
0.0007891454
0.0007908706
0.0007931652
0.0007956125
0.0007974561
0.0007980527
0.0007977008
0.000797524
0.0007991371
0.0008039278
0.0008116077
0.0008200571
0.0008272452
0.00083983
0.0008605242
0.000889398
0.0009267798
0.0009737658
0.001031585
0.001100599
0.001179504
0.001265005
0.001352577
0.001438278
0.001520044
0.001597795
0.00167295
0.001746661
0.00181968
0.00189254
0.001965596
0.002039068
0.002112993
0.002187186
0.002261305
0.002334924
0.002409337
0.002485296
0.002560115
0.002632753
0.002702418
0.002768303
0.002829569
0.002885379
0.002934947
0.002977572
0.003012663
0.003039748
0.003058518
0.003068875
0.003070976
0.003065258
0.003052435
0.003033401
0.003009029
0.00298
0.002946758
0.002909537
0.00286846
0.002823693
0.002775618
0.002724898
0.002672379
0.002618893
0.002565139
0.002511647
0.002458794
0.002406822
0.002355853
0.00230591
0.002256942
0.002208879
0.002161665
0.002115273
0.002069703
0.002024979
0.00198114
0.001938232
0.001896313
0.001855461
0.001815773
0.001777367
0.001740374
0.001704926
0.001671145
0.001639142
0.001609025
0.001580888
0.001554847
0.001531026
0.001509645
0.001491061
0.001476059
0.001466331
0.001467178
0.001236028
6.051987e-05
6.800115e-05
8.2482e-05
9.666153e-05
0.0001092678
0.0001205931
0.0001310424
0.0001408656
0.0001519012
0.0004674575
0.0006722838
0.0008782191
0.001063315
0.001221413
0.001354819
0.001469242
0.001570137
0.001661959
0.002378013
0.002497825
0.002621993
0.002743813
0.002861123
0.002972926
0.003078502
0.003177448
0.003269845
0.003355086
0.003433645
0.003507289
0.003577899
0.003647909
0.00371824
0.003788411
0.003857807
0.003925617
0.003991033
0.004032547
0.004053113
0.004079179
0.004110695
0.004146947
0.004186811
0.004229311
0.004273382
0.004317957
0.004362257
0.00440557
0.004446515
0.004486138
0.0045247
0.004562466
0.004599947
0.004637351
0.004674665
0.004711076
0.005483318
0.005513877
0.005542741
0.005570438
0.005596992
0.005622754
0.005647986
0.005672889
0.005697136
0.005720261
0.005742523
0.005763474
0.005782703
0.005799724
0.005814707
0.00582681
0.005836611
0.005843846
0.005851274
0.00584983
0.005838971
0.005827009
0.005811545
0.005782859
0.005740781
0.005689675
0.0056328
0.005571943
0.005508483
0.005443524
0.005377817
0.005311754
0.005245428
0.00517868
0.005111192
0.005042568
0.004972553
0.004901193
0.004829072
0.004756307
0.004680384
0.004603846
0.004528933
0.004445201
0.0043496
0.004245478
0.0041337
0.004013358
0.003900139
0.003807552
0.003729878
0.003666257
0.003616139
0.003578944
0.00355389
0.003539891
0.003535715
0.00354013
0.003552003
0.003570351
0.003594371
0.003623443
0.003657077
0.003694826
0.003736258
0.003780927
0.003828343
0.003877961
0.003929189
0.003981408
0.00403402
0.004086484
0.004138359
0.004189345
0.004239303
0.004288275
0.00433647
0.004384191
0.004432327
0.004483116
0.004538491
0.004599759
0.004668334
0.004745706
0.004833397
0.004932893
0.005045568
0.005172586
0.005314828
0.005472781
0.005646307
0.005834359
0.006034763
0.006244009
0.006456775
0.006665532
0.006860917
0.00703306
0.007173461
0.007277071
0.007342953
0.007371622
0.007362758
0.007315418
0.007226656
0.007080574
0.006837367
0.006467039
0.00590767
0.005090203
0.004107674
0.003261613
0.002668342
0.0022963
0.00195338
0.001601007
0.001582093
0.001786483
0.002107086
0.00233398
0.002459233
0.00263377
0.002871469
0.003134455
0.003385401
0.003764684
0.004239325
0.004558507
0.004837771
0.005081066
0.005290973
0.005467373
0.005610705
0.005720707
0.005796701
0.005839226
0.005850728
0.005835622
0.005800051
0.005752573
0.005699723
0.005644704
0.005589141
0.005533819
0.005478684
0.005423452
0.005367654
0.005319795
0.004971437
0.004683421
0.004521284
0.004406607
0.004309567
0.004218024
0.004126778
0.004033288
0.003936001
0.003833912
0.003726331
0.003612877
0.00349371
0.003367705
0.003236988
0.0031086
0.002984666
0.002866203
0.002754164
0.002649381
0.002552569
0.002464303
0.002384982
0.0023148
0.002253736
0.002201592
0.002158015
0.002122561
0.002094735
0.002074009
0.00205983
0.002051642
0.002048937
0.002051401
0.002059225
0.002073806
0.002093401
0.002116929
0.002144254
0.002175033
0.00220882
0.002245153
0.002283581
0.002323683
0.002365091
0.002407508
0.00245069
0.002494439
0.00253859
0.002582995
0.00262751
0.002671992
0.002716285
0.00276022
0.002803613
0.002846262
0.002887953
0.002928456
0.002967532
0.003004931
0.003040404
0.003073706
0.003104607
0.003132905
0.003158423
0.003181026
0.003200617
0.003217155
0.003230597
0.003240367
0.003771972
0.003789216
0.003800699
0.003807088
0.003808906
0.003806683
0.003800907
0.003791988
0.003780287
0.003766163
0.00374999
0.003732125
0.003712887
0.003692509
0.003671
0.003648017
0.003622907
0.003594648
0.003561343
0.00351989
0.003465884
0.003391615
0.003284906
0.003137935
0.002958337
0.002769525
0.002578181
0.002382356
0.002186863
0.002002541
0.001839744
0.001704524
0.00159865
0.001520476
0.001466111
0.001369752
0.001283892
0.001229028
0.001200191
0.001196759
0.00122103
0.001274918
0.001358062
0.001467441
0.00159794
0.001682706
0.001734983
0.001786321
0.00183538
0.001882345
0.001927377
0.00197057
0.002013211
0.002057706
0.002106731
0.002163451
0.002230631
0.002310119
0.002403014
0.00251004
0.002631724
0.002768408
0.002920104
0.003086105
0.003264516
0.003452184
0.003645263
0.00384007
0.004033786
0.004224638
0.00441172
0.004594754
0.004773825
0.004949157
0.005120943
0.005289241
0.005453929
0.005614693
0.005771012
0.005922216
0.006070966
0.006215878
0.006355377
0.006488197
0.006613084
0.006728735
0.006833838
0.006927187
0.007007781
0.007074764
0.007127444
0.007165355
0.007188322
0.007196501
0.007190438
0.007171182
0.007140255
0.007099085
0.007048746
0.006989951
0.006923136
0.006848573
0.006766577
0.006677763
0.006583252
0.006484474
0.006382841
0.00627958
0.006175693
0.006071958
0.005968942
0.005867011
0.005766348
0.005667002
0.005568953
0.005472162
0.005376586
0.005282195
0.005188971
0.005096917
0.005006053
0.004916433
0.004828155
0.004741369
0.004656274
0.004573098
0.004492095
0.004413517
0.004337637
0.004264699
0.004195001
0.004128764
0.004066359
0.004007928
0.003954003
0.003904664
0.003862146
0.003828522
0.003801808
2.848911e-05
3.445669e-05
4.340673e-05
5.38729e-05
6.619263e-05
8.070227e-05
9.809281e-05
0.0001190521
0.0001446612
0.0001882664
0.0008369206
0.0009845418
0.001141718
0.001307237
0.001483617
0.001672209
0.001869143
0.002079002
0.002522103
0.004357252
0.004601399
0.004786405
0.004948808
0.005103634
0.005250665
0.005392058
0.005533401
0.005676763
0.005996332
0.006379624
0.00656539
0.006677348
0.00675985
0.006826731
0.006884001
0.006934465
0.006979063
0.007022932
0.006924364
0.00695988
0.007036638
0.007118806
0.007192772
0.007254826
0.007305005
0.007344538
0.007375323
0.00739896
0.007417524
0.007435945
0.007455431
0.007476338
0.007497953
0.00751921
0.007538976
0.007554887
0.008343786
0.008357513
0.00836287
0.008363745
0.008362038
0.008358572
0.008354037
0.008348891
0.008343722
0.008338673
0.008333308
0.008328074
0.008323337
0.00831888
0.008314782
0.008311067
0.008307668
0.00830452
0.00830156
0.008297788
0.008292734
0.00828728
0.008281621
0.008275917
0.008270543
0.008265743
0.008261545
0.008257651
0.008253474
0.008248809
0.008243455
0.008237112
0.008229924
0.008222488
0.008215273
0.008208899
0.008203213
0.008199509
0.008180642
0.008164095
0.008149426
0.008136182
0.008124152
0.008113483
0.008104433
0.008097173
0.008091512
0.008087063
0.00808338
0.008079621
0.008075139
0.008069512
0.008062658
0.008054308
0.008044582
0.008033153
0.008020023
0.008006074
0.007984322
0.007955429
0.007919951
0.007875261
0.007820407
0.00775721
0.00768812
0.007614904
0.007538979
0.007461485
0.007383248
0.007304764
0.007226234
0.007147575
0.007068458
0.006988355
0.006906686
0.006822921
0.006736747
0.006648022
0.006555036
0.006457709
0.006357345
0.006249168
0.006130285
0.00600151
0.005865353
0.005721844
0.005579413
0.005448572
0.005330279
0.0052243
0.005131761
0.005053331
0.004989361
0.004939777
0.004904093
0.004881532
0.004871159
0.004871975
0.004882999
0.004903308
0.004932021
0.004968275
0.005011207
0.005059929
0.005113509
0.00517097
0.005231301
0.005293493
0.005356592
0.005419758
0.005482317
0.005543809
0.005604014
0.005662967
0.005720946
0.005778459
0.005836137
0.00589435
0.005954795
0.006021241
0.006096072
0.006181171
0.006278503
0.006390066
0.006517779
0.006663348
0.006828138
0.007012962
0.007217624
0.007440372
0.007677689
0.007924423
0.00817362
0.008416274
0.008642108
0.008841083
0.009005331
0.009132901
0.009226881
0.009291259
0.009327672
0.00933521
0.009310353
0.009241477
0.009095721
0.008827938
0.008388435
0.007701486
0.006771784
0.005767202
0.004838055
0.004047079
0.003462585
0.003111223
0.002413706
0.002146281
0.002250259
0.002532491
0.002847466
0.003112213
0.003330435
0.00355844
0.003863472
0.004316905
0.004998542
0.005745108
0.006065201
0.006339081
0.006578569
0.006786777
0.00696458
0.007113853
0.007232075
0.007317101
0.007368739
0.007389027
0.00732236
0.007085931
0.00696041
0.0069131
0.006925032
0.006981556
0.00707252
0.007183801
0.007192705
0.007166286
0.007127841
0.007101237
0.007073991
0.007041414
0.007001723
0.006954007
0.006897654
0.006832154
0.006757061
0.006672024
0.006576816
0.006471332
0.00635554
0.006229474
0.006093206
0.005946747
0.005791402
0.005633074
0.005475235
0.005319132
0.005166138
0.005017696
0.004875247
0.004740115
0.004613528
0.004496515
0.004389891
0.004294251
0.00420997
0.004137217
0.004075973
0.004026072
0.003987262
0.003959324
0.00394214
0.003935667
0.003939054
0.003950206
0.003967623
0.003992323
0.004024874
0.004064467
0.004110352
0.004161828
0.004218242
0.004278991
0.004343515
0.004411297
0.004481852
0.004554721
0.004629462
0.004705641
0.004782826
0.004860583
0.004938469
0.005016029
0.005092804
0.005168325
0.005242117
0.005313703
0.005382613
0.005448394
0.005510627
0.005568928
0.005622976
0.005672492
0.005717316
0.005757295
0.005792617
0.005824945
0.00583361
0.005840479
0.005845028
0.005846722
0.005845358
0.005840866
0.005833166
0.005822201
0.005808
0.005790724
0.005770673
0.005748253
0.005723914
0.005698053
0.005670869
0.005642238
0.005611644
0.005578039
0.005539596
0.005493499
0.005435563
0.005359106
0.005253182
0.005109671
0.004931043
0.004724677
0.004493499
0.004236859
0.003958302
0.003667705
0.003376974
0.003097678
0.002839237
0.00260821
0.002408916
0.002244061
0.002114106
0.002017558
0.001950716
0.001870124
0.001700053
0.001605598
0.001571821
0.001588264
0.001653909
0.00177256
0.001943841
0.002154368
0.002243381
0.002325235
0.002408772
0.002493773
0.002580715
0.002670889
0.002766382
0.002869871
0.002984229
0.003111939
0.003254735
0.003413622
0.003589021
0.003780852
0.003988561
0.004211024
0.004446325
0.004691642
0.004943427
0.00519786
0.005451364
0.00570097
0.005944481
0.006180488
0.006408265
0.006627593
0.006838545
0.007041285
0.007235913
0.007422351
0.007600278
0.007768967
0.007929341
0.008083989
0.008232521
0.008374276
0.00850829
0.008633352
0.008748063
0.00885091
0.008941118
0.009017973
0.009080693
0.009128639
0.009161408
0.009178848
0.009181032
0.00916834
0.00914305
0.009107383
0.009062521
0.00900905
0.008947179
0.008876855
0.008797864
0.008709924
0.008613861
0.008511538
0.008404765
0.00829501
0.008183471
0.008071114
0.007958688
0.007846722
0.007735528
0.007625235
0.007515914
0.007407605
0.007300308
0.007193993
0.00708862
0.00698415
0.006880555
0.006777843
0.006676075
0.006575377
0.006475931
0.006377972
0.006281758
0.006187577
0.006095721
0.006006507
0.005920237
0.005837252
0.005757829
0.005682341
0.005611053
0.005544595
0.005483505
0.005429275
0.005384993
3.57743e-05
5.761456e-05
0.0001277358
0.0004283238
0.0007353303
0.00130772
0.001754059
0.002292129
0.002916096
0.003429221
0.003808719
0.004115841
0.004425906
0.004754071
0.005093277
0.005441184
0.005801148
0.00617468
0.006560749
0.006956874
0.007345397
0.007696806
0.007995395
0.008255994
0.00849883
0.008728794
0.008948246
0.009160559
0.009370773
0.009589003
0.009855196
0.01
0.01
0.01
0.01
0.01
0.01
0.01
0.01
0.01
0.009882652
0.009742677
0.009625805
0.009531834
0.009462855
0.009419885
0.009401218
0.009404019
0.009427332
0.009474069
0.009529469
0.009581435
0.009664803
0.009765476
0.009881356
0.01
0.01
0.01
0.01
0.01
0.01
0.01
0.01
0.01
0.01
0.01
0.01
0.01
0.01
0.01
0.01
0.01
0.01
0.01
0.01
0.01
0.01
0.01
0.01
0.01
0.01
0.01
0.01
0.01
0.01
0.01
0.01
0.01
0.01
0.01
0.01
0.01
0.01
0.01
0.01
0.01
0.01
0.01
0.01
0.01
0.01
0.01
0.01
0.009988193
0.00997433
0.009961437
0.009948971
0.009936382
0.009923001
0.009908539
0.009893145
0.00987735
0.009861904
0.009847511
0.0098345
0.009822674
0.009811417
0.009799901
0.009787459
0.009773723
0.009758703
0.009742484
0.009725267
0.009708688
0.009692113
0.009670049
0.009640372
0.009603539
0.009560429
0.009510677
0.009453525
0.009389161
0.009318759
0.009243845
0.009165872
0.009086062
0.009005375
0.008924495
0.00884383
0.008763479
0.008683008
0.00860201
0.00851986
0.008435803
0.008349061
0.008258877
0.008164244
0.008064244
0.007958533
0.007845407
0.007723149
0.007591156
0.007450668
0.007303154
0.007152741
0.007005242
0.006864316
0.006731808
0.006609277
0.006498255
0.006400128
0.00631594
0.006246293
0.006191365
0.006150979
0.006124696
0.006111882
0.006111771
0.006123482
0.006146036
0.006178356
0.006219265
0.006267488
0.00632166
0.006380352
0.006442121
0.006505574
0.00656945
0.006632692
0.006694513
0.006754448
0.00681237
0.006868503
0.006923401
0.006977894
0.007032979
0.007089717
0.007148922
0.007214584
0.007290553
0.007379331
0.007483498
0.007605573
0.007747786
0.007911867
0.008098729
0.008307741
0.008535912
0.008777899
0.009026975
0.009275216
0.009513153
0.009731573
0.009922172
0.01
0.01
0.01000002
0.01000015
0.01000104
0.01000972
0.01002226
0.01002226
0.0100099
0.01000137
0.01000005
0.009560235
0.008896366
0.00803863
0.007073357
0.006085873
0.005182941
0.004477838
0.004014311
0.003029956
0.002630192
0.002673976
0.002916654
0.003202339
0.00346962
0.003740794
0.00407754
0.004564266
0.005304719
0.006351563
0.006670497
0.006937562
0.007175252
0.007392663
0.007590676
0.007768153
0.007919579
0.008039873
0.008126237
0.008140591
0.00770446
0.007450387
0.007317818
0.007266901
0.007278422
0.00733732
0.00743512
0.007565197
0.00773162
0.007882516
0.008023426
0.008237441
0.008296769
0.00829601
0.008288442
0.008273316
0.00824987
0.008217305
0.008174897
0.008122053
0.008058348
0.007983518
0.007897416
0.007799979
0.007691209
0.007571105
0.007439704
0.007296593
0.007144798
0.006988368
0.006829051
0.006668595
0.006508829
0.006351565
0.006198582
0.006051534
0.00591198
0.005781294
0.005660648
0.005551002
0.005453093
0.005367417
0.005294307
0.005233945
0.005186403
0.005151675
0.005129321
0.005118337
0.00511748
0.005125064
0.005140482
0.005165231
0.005198969
0.005240992
0.005290631
0.005347256
0.005410242
0.005478983
0.005552882
0.005631365
0.005713842
0.005799724
0.005888418
0.00597932
0.006071811
0.006165263
0.006259036
0.006352482
0.006444952
0.006535795
0.006624368
0.00671005
0.006792264
0.00687048
0.006944241
0.007013155
0.007076947
0.007135419
0.007188529
0.007236226
0.00727723
0.007312017
0.007340939
0.007364216
0.007382041
0.00739458
0.007401955
0.007404284
0.007401739
0.007394606
0.007383328
0.007368498
0.0073508
0.007330896
0.007309275
0.007286105
0.007261121
0.007233542
0.007201943
0.007164078
0.007116684
0.007055066
0.006972407
0.006859819
0.006715639
0.006539655
0.006331129
0.006088648
0.005812828
0.005507631
0.005179399
0.004836008
0.004486256
0.004139458
0.00380518
0.00349273
0.003210291
0.002963957
0.002757078
0.002590804
0.00246497
0.002378457
0.002327719
0.002157276
0.002024291
0.001975348
0.002004073
0.002111096
0.002296944
0.002545179
0.002736538
0.002846272
0.002964153
0.003090882
0.003227704
0.003376126
0.003537874
0.003714601
0.003907553
0.00411741
0.004344247
0.004587515
0.004846055
0.005118104
0.005401249
0.005692391
0.005987853
0.006283655
0.006575845
0.006860825
0.007135608
0.007397978
0.007646563
0.00788084
0.008101007
0.008307693
0.00850171
0.008683896
0.008855015
0.009015535
0.00916607
0.009309876
0.009448196
0.009581238
0.009708487
0.009828996
0.009941546
0.01
0.01
0.01
0.01
0.01
0.01
0.01
0.01
0.00992654
0.009764514
0.009678376
0.009650938
0.009668402
0.009723502
0.009814901
0.009932516
0.01
0.00996061
0.009867466
0.009769153
0.009667022
0.009562251
0.009455849
0.009348646
0.009241264
0.009134057
0.009026998
0.008920201
0.008813963
0.008708406
0.008603538
0.008499304
0.008395622
0.008292391
0.008189555
0.008087138
0.007985232
0.00788399
0.007783613
0.007684335
0.007586422
0.007490159
0.007395861
0.00730385
0.007214474
0.007128064
0.007044981
0.006965589
0.006890307
0.006819666
0.006754832
0.006702216
1.981462e-05
3.203545e-05
4.826097e-05
0.0002068026
0.0003387332
0.0005725059
0.0008045365
0.001018202
0.00128796
0.001553619
0.001842975
0.00221873
0.00266827
0.003183042
0.003771724
0.004536734
0.006000002
0.006613829
0.007219443
0.007775014
0.008270689
0.008708954
0.009105961
0.009475308
0.009822526
0.01
0.01
0.01
0.01
0.01
0.01
0.01
0.01
0.01
0.01
0.01
0.01
0.01
0.01
0.01
0.01
0.01
0.01
0.01
0.01
0.01
0.01
0.009792457
0.009509856
0.009248132
0.008997588
0.008752395
0.008565932
0.008425738
0.00831927
0.008243515
0.008197409
0.008177644
0.008181505
0.008204002
0.008244856
0.008304728
0.008373569
0.008460571
0.008566156
0.008690643
0.008833261
0.008994424
0.009173183
0.009370741
0.009576579
0.009785507
0.01
0.01
0.01
0.01
0.01
0.01
0.01
0.01
0.01
0.01
0.01
0.01
0.01
0.01
0.01
0.01
0.01
0.01
0.01
0.01
0.01
0.01
0.01
0.01
0.01
0.01
0.01
0.01
0.01
0.01
0.01
0.01
0.01
0.01
0.01
0.01
0.01
0.01
0.01
0.01
0.01
0.01
0.01
0.01
0.01
0.01
0.01
0.01
0.01
0.01
0.01
0.01
0.01
0.01
0.01
0.01
0.01
0.01
0.01
0.01
0.01
0.01
0.01
0.01
0.01
0.01
0.01
0.01
0.01
0.01
0.01
0.01
0.01
0.01
0.01
0.01
0.01
0.01
0.01
0.009927716
0.009850289
0.009772733
0.009694253
0.009613881
0.009530591
0.009443342
0.009351046
0.009252871
0.009147773
0.009034564
0.008912239
0.008781058
0.008642262
0.008498145
0.008352112
0.008207432
0.00806648
0.007931138
0.007803284
0.007684811
0.007577456
0.007482647
0.007401433
0.007334489
0.007282143
0.007244411
0.007221027
0.007211467
0.007214975
0.007230573
0.007257079
0.007293119
0.007337146
0.007387481
0.007442367
0.007500053
0.007558878
0.007617376
0.007674363
0.007729007
0.007780883
0.007829995
0.007876775
0.007922044
0.007966955
0.008012897
0.008061345
0.008113452
0.008173096
0.008245098
0.008332642
0.008438818
0.008566282
0.008716914
0.008891368
0.009088151
0.009302716
0.009527942
0.009756655
0.009981859
0.01
0.01
0.01
0.01000002
0.01000009
0.01000061
0.01000315
0.01001645
0.01002226
0.01002226
0.01001263
0.01000244
0.01000014
0.01
0.01
0.01
0.009616666
0.008837876
0.007913971
0.006926152
0.006001771
0.005261932
0.004753318
0.003593901
0.003147957
0.003159884
0.003375983
0.003652402
0.003947347
0.004299652
0.004794086
0.005538172
0.006613842
0.00692138
0.007177362
0.007410391
0.007633727
0.007847993
0.008048676
0.008227258
0.008376076
0.008490422
0.008504901
0.008065005
0.007809544
0.007676172
0.007625641
0.00763713
0.007697299
0.007796504
0.007924736
0.008073659
0.008224069
0.008372593
0.008574392
0.008789946
0.008986831
0.009063212
0.009085142
0.009098469
0.009102366
0.009096058
0.009078932
0.009050579
0.00901077
0.008959407
0.008896475
0.008821986
0.008735923
0.00863821
0.00852869
0.008407021
0.008275237
0.0081358
0.007990278
0.007840343
0.007687745
0.007534291
0.007381804
0.007232095
0.00708692
0.006947943
0.006816694
0.006694532
0.00658262
0.006481909
0.006393146
0.006316877
0.006253443
0.006202898
0.006164938
0.006138963
0.006124111
0.006119309
0.00612355
0.006138259
0.006163291
0.006198069
0.006242027
0.006294586
0.006355159
0.006423138
0.006497902
0.006578799
0.006665174
0.006756321
0.006851517
0.006950008
0.007051019
0.007153755
0.00725741
0.007361174
0.007464233
0.007565776
0.007665019
0.007761241
0.007853759
0.007941983
0.008025411
0.008103669
0.008176492
0.008243745
0.008305362
0.008361222
0.008411313
0.008455669
0.008494309
0.008527244
0.008554487
0.008576048
0.008591963
0.008602343
0.008607436
0.008607693
0.008603786
0.008596544
0.008586823
0.008575326
0.008562431
0.008548085
0.008531734
0.008512267
0.008487946
0.008456329
0.008414081
0.008356639
0.008277903
0.008172641
0.008039172
0.007874928
0.007677722
0.007446391
0.007181026
0.006882578
0.006552812
0.006194752
0.005813203
0.005415141
0.005009979
0.004609474
0.004226584
0.003873502
0.003560373
0.003294961
0.003081989
0.002922392
0.002814029
0.002752541
0.002731503
0.00257619
0.002430477
0.002408206
0.002499266
0.002696931
0.002976464
0.003260153
0.003403068
0.00356189
0.003737958
0.003932574
0.004146507
0.004379972
0.004632596
0.004903406
0.00519082
0.005492662
0.005806205
0.006128198
0.006454906
0.006782205
0.007106067
0.007422497
0.007727652
0.008018146
0.008291228
0.0085449
0.008778215
0.008991749
0.009186831
0.009365242
0.009528861
0.009680064
0.009820799
0.009952374
0.01
0.01
0.01
0.01
0.01
0.01
0.01
0.01
0.01
0.01
0.01
0.01
0.01
0.01
0.01
0.009883825
0.009800858
0.009786082
0.009820774
0.009891515
0.009981676
0.01
0.01
0.01
0.01
0.01
0.01
0.01
0.01
0.01
0.01
0.01
0.009975916
0.009878143
0.009780865
0.009684177
0.009588052
0.009492388
0.009397025
0.009301693
0.009206136
0.009110455
0.00901476
0.008919183
0.008823881
0.008729033
0.008634843
0.008541569
0.00844951
0.008358992
0.008270357
0.008183956
0.00810014
0.008019289
0.007941778
0.007868157
0.007799728
0.007744625
1.769446e-05
2.715194e-05
5.291891e-05
0.0001593024
0.0002564151
0.0004059956
0.0005214398
0.0006534029
0.0008092362
0.000962684
0.001142865
0.001376461
0.001645187
0.001966806
0.002387118
0.003193202
0.003580693
0.004002098
0.004450126
0.004924189
0.005429697
0.005959181
0.006499752
0.007038279
0.007560499
0.008054706
0.008535047
0.009073784
0.00958769
0.01
0.01
0.01
0.01
0.01
0.01
0.01
0.01
0.01
0.01
0.01
0.01
0.01
0.01
0.01
0.01
0.01
0.01
0.01
0.01
0.01
0.01
0.01
0.01
0.009961261
0.009600493
0.009228945
0.008875876
0.008547242
0.008249355
0.007984576
0.007751116
0.007552389
0.007399431
0.007289566
0.007216748
0.007177276
0.007169121
0.007189157
0.007234156
0.00729962
0.007382716
0.007482629
0.007595573
0.007727781
0.007883608
0.008071576
0.008308242
0.008590818
0.008908509
0.009245498
0.009585085
0.009913347
0.01
0.01
0.01
0.01
0.01
0.01
0.01
0.01
0.01
0.01
0.01
0.01
0.01
0.01
0.01
0.01
0.01
0.01
0.01
0.01
0.01
0.01
0.01
0.01
0.01
0.01
0.01
0.01
0.01
0.01
0.01
0.01
0.01
0.01
0.01
0.01
0.01
0.01
0.01
0.01
0.01
0.01
0.01
0.01
0.01
0.01
0.01
0.01
0.01
0.01
0.01
0.01
0.01
0.01
0.01
0.01
0.01
0.01
0.01
0.01
0.01
0.01
0.01
0.01
0.01
0.01
0.01
0.01
0.01
0.01
0.01
0.01
0.01
0.01
0.01
0.01
0.01
0.01
0.01
0.01
0.01
0.01
0.01
0.01
0.01
0.01
0.01
0.01
0.01
0.01
0.009940007
0.009825452
0.009703026
0.009574144
0.009440908
0.009305652
0.009170433
0.009036799
0.008906637
0.008781987
0.008664856
0.008557091
0.00846028
0.008375701
0.008304323
0.008246798
0.008203452
0.008174283
0.008158967
0.008156863
0.008167032
0.00818824
0.008218994
0.008257582
0.008302128
0.008350684
0.008401327
0.008452271
0.008501976
0.008549249
0.008593316
0.008633884
0.008671153
0.008705814
0.00873901
0.008772267
0.008807411
0.008846378
0.008890803
0.008945124
0.009014671
0.009102975
0.0092129
0.00934612
0.009502491
0.009679188
0.009870561
0.01
0.01
0.01
0.01
0.01
0.01000001
0.01000014
0.01000164
0.01001155
0.01003192
0.01002421
0.01001066
0.01000265
0.01000032
0.01000002
0.01
0.01
0.01
0.01
0.01
0.01
0.009278367
0.008389796
0.007436647
0.006546361
0.00583164
0.005335608
0.004227546
0.003740287
0.003710849
0.003896872
0.004175439
0.004528685
0.005014113
0.005726744
0.006710991
0.007001583
0.007248468
0.007480202
0.0077115
0.007942443
0.008165408
0.008369046
0.008543299
0.008681902
0.00878238
0.008448754
0.008201592
0.008086897
0.008056444
0.008085811
0.008158668
0.008263303
0.008389217
0.008528107
0.008676496
0.008829865
0.009002325
0.009190694
0.009376549
0.009493978
0.009548282
0.009594719
0.009631986
0.009659013
0.009675014
0.009679607
0.009672649
0.009654157
0.009624239
0.009583034
0.009530643
0.00946707
0.009392112
0.009305532
0.009207197
0.009098759
0.008981424
0.008856452
0.008725202
0.008589133
0.008449813
0.0083089
0.008168114
0.008029197
0.007893873
0.007763794
0.007640497
0.007525369
0.007419622
0.007324274
0.007240125
0.007167732
0.00710736
0.007058995
0.007022377
0.006997021
0.00698222
0.006977422
0.006983898
0.00700141
0.007029583
0.007067985
0.007116134
0.007173498
0.007239491
0.007313472
0.007394747
0.007482568
0.007576132
0.007674591
0.007777052
0.007882595
0.007990282
0.008099161
0.008208273
0.008316661
0.008423424
0.00852768
0.008628627
0.008725551
0.00881785
0.008905091
0.008986997
0.009063422
0.00913431
0.00919964
0.009259399
0.009313519
0.00936195
0.009404749
0.009441906
0.009473381
0.009499149
0.009519266
0.009533945
0.009543639
0.009549084
0.009551233
0.00955109
0.009549495
0.009546944
0.009543478
0.009538652
0.009531532
0.009520707
0.009504269
0.009479722
0.009443821
0.00939243
0.009320516
0.009225453
0.009104532
0.008955263
0.008775869
0.008564955
0.008320535
0.008040203
0.007721906
0.007364941
0.006970903
0.006544613
0.006094999
0.005635111
0.005180762
0.004748741
0.004354911
0.004011928
0.003727457
0.003504199
0.003340974
0.003233885
0.003177641
0.003165516
0.003133527
0.002902007
0.002844996
0.002938672
0.003159046
0.003469639
0.003813697
0.004017198
0.004224638
0.004456667
0.004713267
0.004993336
0.005294756
0.005614589
0.005949232
0.00629457
0.006646111
0.006999298
0.007317525
0.007590936
0.007874859