/*--------------------------------*- C++ -*----------------------------------*\
| =========                 |                                                 |
| \\      /  F ield         | foam-extend: Open Source CFD                    |
|  \\    /   O peration     | Version:     3.1                                |
|   \\  /    A nd           | Web:         http://www.extend-project.de       |
|    \\/     M anipulation  |                                                 |
\*---------------------------------------------------------------------------*/
FoamFile
{
    version     2.0;
    format      ascii;
    class       volScalarField;
    location    "12.5";
    object      omega;
}
// * * * * * * * * * * * * * * * * * * * * * * * * * * * * * * * * * * * * * //

dimensions      [0 0 -1 0 0 0 0];

internalField   nonuniform List<scalar> 
119952
(
359.7252
451.4768
424.1879
367.7486
328.0775
327.8716
330.6888
334.9435
340.0902
345.814
351.965
358.407
365.0656
371.8951
378.8708
385.9642
393.1505
400.4143
407.8589
416.4435
351.9121
344.0175
341.3584
289.7829
278.3156
271.3481
266.2892
261.9861
254.4613
201.533
814.6624
678.1541
572.6359
497.3895
441.4846
398.4085
363.8797
335.4614
311.4573
284.7123
238.2147
205.8269
183.4845
167.064
154.3059
143.9095
135.1521
127.6023
120.9924
94.86674
91.11591
87.45202
83.91556
80.59017
77.51293
74.68863
72.11189
69.75817
67.63039
65.76926
63.9771
62.27129
60.65385
59.12697
57.68955
56.33281
55.02794
53.77233
53.65472
53.67391
53.31176
53.0953
52.98333
53.1345
53.35118
53.56886
53.78202
53.98931
54.19169
54.39498
54.60624
54.83408
55.08674
55.37175
55.69425
56.0513
56.41379
56.73921
56.94204
57.38666
57.65416
57.59697
58.18178
59.17244
60.24954
61.66073
63.63354
65.8328
66.1741
65.91129
65.2399
64.31596
63.18621
61.89244
60.47787
58.9838
57.45017
55.91235
54.39954
52.93319
51.52637
50.18601
48.91548
47.71526
46.5831
45.5153
44.50771
43.55631
42.65769
41.80823
41.00495
40.24507
39.52619
38.8461
38.20264
37.59335
37.01513
36.46389
35.93836
35.43817
34.96386
34.52524
34.12173
33.74738
33.40404
33.09652
32.82585
32.59334
32.40209
32.25633
32.1605
32.11851
32.13363
32.20895
32.34736
32.54977
32.81751
33.36086
34.07867
34.82472
35.58242
36.37135
37.27236
38.44245
40.11888
42.35754
45.6263
51.08688
61.43381
80.9798
102.8215
116.7164
120.0387
109.5251
90.31817
73.00398
61.16126
54.28214
50.78205
49.0731
47.91286
46.56022
44.76547
42.60629
40.29995
38.08546
36.14995
34.57999
33.37713
32.5045
31.91508
31.579
31.41398
31.32148
31.28012
31.28425
31.33118
31.41864
31.54628
31.71567
31.93134
32.19974
32.51822
32.87835
33.27415
33.70039
34.20369
40.54217
48.26568
51.64897
53.44207
54.61383
55.80456
57.01816
58.2318
59.46325
60.67132
61.88471
63.10249
64.32098
65.64111
67.00989
68.36271
69.69476
70.98106
72.19115
73.2977
74.28048
75.12782
75.83723
76.41547
76.87633
77.24141
77.53602
77.7803
77.99091
78.18507
78.37991
78.59046
78.82201
79.05868
79.22115
78.2614
76.30915
74.61648
73.05475
71.61812
70.28122
69.02904
67.85615
66.75892
65.73394
64.77581
63.88035
63.04421
62.26401
61.5362
60.85718
60.22347
59.6317
59.07856
58.56096
58.07595
57.62074
57.19271
56.7894
56.40852
56.04781
55.70544
55.37981
55.06899
54.77139
54.48549
54.20943
53.93948
53.67621
53.41225
42.4511
41.76678
41.01898
40.21553
39.44563
38.74968
38.14281
37.62819
37.2009
36.85142
36.56805
36.33929
36.15516
36.00826
35.89514
35.81812
35.78686
35.81626
35.92777
36.15868
36.55749
37.20145
38.35632
40.63723
45.06425
50.16519
53.78785
56.69081
59.69171
62.30775
63.9786
64.52702
64.00822
62.52975
60.20498
57.14909
53.55017
49.68138
45.8533
42.32823
39.17889
36.3995
33.9809
31.91191
30.17894
28.76151
27.62487
26.75558
26.12941
25.71106
25.46127
25.34222
25.3256
25.43551
25.71373
26.00993
26.28641
26.47613
26.57004
26.56378
26.45642
26.2551
25.97911
25.65881
25.33116
25.02994
24.77325
24.56134
24.38155
24.21583
24.0553
23.89747
23.74282
23.59274
23.4486
23.31227
23.18631
23.0733
22.9756
22.8824
22.7818
22.6834
22.58845
22.49676
22.40785
22.32112
22.23585
22.15122
22.06644
21.98082
21.89391
21.80538
21.71503
21.62264
21.52789
21.43034
21.32963
21.22569
21.11892
21.01016
20.90068
20.79197
20.68541
20.58198
20.48207
20.3857
20.29284
20.20345
20.11751
20.03503
19.9561
19.88087
19.80967
19.74285
19.68075
19.62355
19.5713
19.52395
19.48129
19.44307
19.40893
19.3784
19.35088
19.32557
19.30152
19.27766
19.25284
19.22588
19.19557
19.16064
19.11968
19.07097
19.01224
18.93995
18.84668
18.71511
18.50828
18.1875
18.18731
698.1582
596.7173
549.5753
509.5477
472.1716
438.2677
408.1127
381.4546
356.8545
291.8469
224.7818
188.1968
166.6331
152.8503
143.2158
135.8659
129.8309
124.6048
98.79621
94.0917
89.6034
85.46673
81.77353
78.53377
75.70449
73.22612
71.0394
69.0783
67.36978
65.75398
64.1393
62.54219
60.98528
59.49099
58.07325
56.73815
55.48288
54.62862
54.05345
53.33344
52.52181
51.6607
50.77565
49.88754
49.0126
48.16168
47.34583
46.56722
45.81466
45.09326
44.39587
43.71561
43.05011
42.3993
41.76624
41.16908
37.20893
36.72568
36.26867
35.83384
35.4148
35.00746
34.61038
34.22366
33.84775
33.48239
33.13209
32.79829
32.47894
32.17332
31.88201
31.60611
31.34912
31.12007
30.93446
30.78617
30.61473
30.4519
30.33077
30.25724
30.21106
30.17911
30.15969
30.15102
30.1508
30.15775
30.17188
30.19422
30.22661
30.2714
30.33112
30.40788
30.503
30.61738
30.75213
30.91316
31.10611
31.32514
31.59726
31.9574
32.38503
32.86893
33.40974
33.96935
34.4445
34.8373
35.18131
35.4373
35.58812
35.62351
35.53941
35.33789
35.02561
34.61359
34.11639
33.5508
32.93439
32.2843
31.61634
30.94404
30.27807
29.62625
28.99366
28.383
27.79499
27.22882
26.68263
26.15395
25.64009
25.13853
24.64716
24.16449
23.68988
23.22365
22.76553
22.31332
21.86729
21.43006
21.00451
20.59382
20.20149
19.83147
19.48814
19.17621
18.90058
18.66617
18.47752
18.33819
18.25027
18.2142
18.22823
18.28731
18.3825
18.50229
18.63624
18.77693
18.92291
19.07747
19.24689
19.44306
19.69272
20.05959
20.67485
21.70127
23.46527
26.52597
31.25656
36.97724
43.1027
49.39965
54.8265
57.91947
57.745
54.48363
49.51871
44.27099
39.48184
35.31996
31.69746
28.5116
25.74343
23.43248
21.60412
20.24194
19.29131
18.66886
18.28663
18.06908
17.94323
17.8406
17.72921
17.59642
17.44019
17.2648
17.07865
16.8902
16.70639
16.53253
16.37207
16.22741
16.09959
15.98962
15.89588
15.80391
16.2865
16.68738
16.90071
17.0385
17.14705
17.24717
17.3493
17.46008
17.58432
17.72622
17.89032
18.08134
18.30328
18.56534
18.86492
19.18075
19.50693
19.83943
20.17369
20.50383
20.82294
21.12324
21.39656
21.63485
21.83072
21.9778
22.07118
22.10765
22.08586
22.00652
21.87218
21.6869
21.45526
21.18042
20.86222
20.49789
20.11959
19.7449
19.37124
19.00349
18.64607
18.30252
17.97556
17.66705
17.37793
17.10847
16.85838
16.627
16.41339
16.2165
16.03523
15.86849
15.71521
15.57438
15.44504
15.32628
15.21728
15.11724
15.02546
14.94128
14.8641
14.79336
14.72854
14.66918
14.61482
14.56507
14.51953
14.47789
14.44004
14.40742
12.97423
12.91422
12.86806
12.83092
12.79915
12.77073
12.74475
12.72069
12.69815
12.67679
12.65638
12.63686
12.61836
12.60134
12.58689
12.57674
12.57329
12.58018
12.60342
12.65192
12.73979
12.89579
13.16761
13.59769
14.17836
14.85064
15.63397
16.59651
17.77317
19.15684
20.71883
22.41703
24.19196
25.96789
27.6523
29.13397
30.30547
31.08555
31.41217
31.22308
30.47
29.18077
27.49025
25.59479
23.68364
21.89512
20.31094
18.96919
17.87689
17.02162
16.38329
15.94025
15.66613
15.53306
15.50938
15.55816
15.64983
15.75766
15.85865
15.93342
15.9673
15.95084
15.87999
15.75652
15.58772
15.38483
15.1605
14.92632
14.69136
14.46203
14.24265
14.03606
13.84426
13.66871
13.51047
13.3703
13.24866
13.14579
13.06174
12.99637
12.94364
12.90167
12.86921
12.84465
12.82615
12.81175
12.79935
12.78686
12.77221
12.75353
12.72921
12.69792
12.65861
12.61054
12.55327
12.48673
12.41133
12.3279
12.23759
12.14171
12.04159
11.93852
11.83361
11.72788
11.62219
11.51725
11.41369
11.312
11.21257
11.11568
11.02157
10.93043
10.84238
10.7575
10.67581
10.59724
10.52173
10.44916
10.37939
10.31229
10.24768
10.18538
10.12516
10.06674
10.00985
9.954172
9.899372
9.84509
9.790952
9.736503
9.681273
9.624589
9.565708
9.503367
9.436272
9.362933
9.284552
9.209479
9.146726
579.8676
512.7242
457.7902
417.5034
387.0077
363.5059
345.125
330.9299
320.1667
304.803
183.1705
171.1917
161.1615
152.619
145.1392
138.5689
133.1236
128.7297
117.2141
79.83431
78.08715
77.28736
76.70371
76.14916
75.59131
75.00243
74.31225
73.50106
70.76747
67.6145
66.49757
65.8648
65.32966
64.80394
64.25483
63.6737
63.06568
62.43932
62.64119
61.77723
60.62645
59.47722
58.418
57.45684
56.57786
55.7615
54.99288
54.2668
53.54299
52.80425
52.04335
51.2693
50.49587
49.73465
48.99302
48.27848
44.98984
44.38304
43.8053
43.24675
42.70156
42.16563
41.63753
41.11715
40.60597
40.10437
39.61101
39.1277
38.65557
38.19288
37.73911
37.29456
36.85978
36.43559
36.02234
35.61863
35.22411
34.84027
34.46577
34.09895
33.7397
33.38885
33.04752
32.71636
32.39484
32.08308
31.77986
31.48234
31.18835
30.89724
30.60877
30.3243
30.04313
29.75748
29.53038
29.30368
29.07736
28.85026
28.62141
28.39094
28.16012
27.93113
27.70633
27.48797
27.27774
27.07567
26.88126
26.69488
26.51759
26.35137
26.19883
26.06255
25.94346
25.83229
25.73154
25.64061
25.56456
25.50616
25.46026
25.41967
25.38076
25.34292
25.30623
25.27106
25.23825
25.20916
25.18553
25.16949
25.16332
25.16948
25.1903
25.22797
25.28453
25.36172
25.46384
25.5932
25.75039
25.94383
26.1734
26.4299
26.70405
26.99
27.26579
27.51228
27.73389
27.92635
28.07651
28.17374
28.20997
28.17957
28.0794
27.90893
27.67051
27.36934
27.01313
26.6116
26.17571
25.71674
25.24548
24.77153
24.30278
23.84521
23.40273
22.97728
22.56907
22.17684
21.79829
21.43045
21.07005
20.71392
20.35929
20.00414
19.64757
19.29056
18.93301
18.57284
18.21182
17.8537
17.50331
17.16654
16.85016
16.56162
16.30874
16.0996
15.94182
15.84148
15.80225
15.82515
15.90793
16.04332
16.21855
16.41705
16.62228
16.82391
17.02047
17.21524
17.41082
17.60941
17.81887
18.06103
18.38896
18.89921
19.73705
21.1235
23.20842
25.96431
29.42303
33.63117
38.20163
42.43708
45.68536
47.18225
46.42443
43.74691
39.96295
35.80853
31.75799
28.08412
24.94966
22.44174
20.56815
19.25577
18.39542
17.87559
17.5902
17.4496
17.37483
17.29292
17.16897
16.99044
16.758
16.48023
16.17121
15.84733
15.52329
15.20997
14.91455
14.64132
14.39215
14.16686
13.96318
13.77909
13.63367
13.4913
13.36318
13.25105
13.15501
13.07435
13.00826
12.95612
12.91755
12.89244
12.88107
12.88399
12.90196
12.93595
12.9872
13.05759
13.14777
13.25163
13.36518
13.4869
13.6148
13.74637
13.87867
14.0084
14.13191
14.24533
14.34473
14.42628
14.48641
14.52205
14.53074
14.51069
14.4608
14.38076
14.27136
14.13539
13.97845
13.80689
13.62483
13.43222
13.23045
13.02319
12.81374
12.60503
12.39951
12.19914
12.00542
11.81947
11.64206
11.47366
11.31449
11.16457
11.02377
10.89185
10.76848
10.65324
10.54572
10.44544
10.35193
10.26474
10.18338
10.10739
10.03635
9.969824
9.907435
9.848822
9.793706
9.741804
9.692951
9.64453
9.625034
9.603446
9.580902
9.557807
9.534628
9.511837
9.489724
9.46839
9.447809
9.427898
9.408574
9.389812
9.371691
9.354471
9.338701
9.325259
9.315357
9.310752
9.314157
9.329461
9.36241
9.422896
9.528251
9.692793
9.915148
10.19302
10.53935
10.97608
11.52074
12.18214
12.96487
13.8681
14.88504
16.0017
17.19247
18.41901
19.64224
20.82278
21.91549
22.85843
23.56946
23.96332
23.98149
23.60815
22.8711
21.8505
20.66525
19.4386
18.26675
17.21262
16.31134
15.57655
15.00627
14.58736
14.29894
14.11608
14.01214
13.96095
13.93789
13.92115
13.89317
13.8413
13.75785
13.63996
13.48908
13.31008
13.11001
12.89684
12.67836
12.46152
12.25203
12.05438
11.87196
11.7072
11.56168
11.43631
11.33142
11.24704
11.18296
11.13896
11.11278
11.09954
11.09689
11.10262
11.1145
11.13022
11.14739
11.16365
11.17636
11.18313
11.18192
11.17106
11.14927
11.11563
11.06961
11.01105
10.93997
10.85715
10.76404
10.66237
10.55392
10.44046
10.32372
10.20537
10.08658
9.968134
9.850722
9.734994
9.621499
9.510687
9.402919
9.298469
9.197527
9.100184
9.006429
8.91617
8.829264
8.745539
8.664809
8.586888
8.511587
8.438703
8.368019
8.299318
8.232374
8.166971
8.102877
8.039872
7.977686
7.916078
7.854692
7.793259
7.731252
7.66844
7.604168
7.538833
7.472206
7.407037
7.346641
324.3309
235.6546
338.4141
154.2399
121.8914
90.9927
79.36447
69.65971
61.4926
57.66262
56.11927
55.32094
54.53835
53.74352
52.95866
52.22961
51.53259
50.85647
50.20065
49.56629
49.02966
48.7089
48.68394
48.84261
49.0692
49.33337
49.61378
49.88466
50.11183
50.24744
50.21548
48.79659
49.27745
49.78854
50.2647
50.72623
51.16072
51.51345
51.79058
52.01865
52.16235
52.20594
52.19871
52.13939
52.01935
51.83399
51.58342
51.27103
50.90214
50.4848
50.03061
49.54129
49.01246
48.44994
47.86214
47.25741
46.6442
46.02865
45.41492
44.80471
44.19774
43.5932
42.991
42.39113
41.79564
41.20627
40.62764
40.05304
39.52526
39.00458
38.49545
37.99716
37.50849
37.02888
36.55832
36.09728
35.64629
35.20603
34.77678
34.35876
33.95151
33.55426
33.1669
32.78994
32.42388
32.0689
31.72457
31.38993
31.06346
30.74344
30.42853
30.11845
29.81416
29.51753
29.23061
28.9549
28.69084
28.43761
28.19288
27.95342
27.71664
27.48085
27.24626
27.01353
26.78528
26.56236
26.34931
26.14493
25.94639
25.75083
25.55608
25.36129
25.1673
24.97646
24.7917
24.61527
24.44803
24.28959
24.13909
23.99617
23.86145
23.73633
23.62213
23.51691
23.42112
23.33951
23.26779
23.20236
23.14392
23.09321
23.04762
23.00281
22.95575
22.90554
22.85253
22.79766
22.74222
22.68784
22.63642
22.59014
22.55158
22.52315
22.50705
22.50514
22.51887
22.54947
22.59822
22.66541
22.7507
22.85487
22.97615
23.10984
23.25122
23.39725
23.54162
23.67805
23.8052
23.92081
24.01882
24.0923
24.13486
24.14084
24.10537
24.02462
23.89626
23.71991
23.49744
23.23295
22.93256
22.60385
22.25519
21.89506
21.53137
21.17092
20.81902
20.47928
20.15357
19.84213
19.54379
19.25628
18.97654
18.70113
18.42657
18.14968
17.86801
17.58002
17.28555
16.9865
16.68241
16.37486
16.0689
15.77139
15.49093
15.23749
15.0221
14.85662
14.75263
14.71939
14.76248
14.88393
15.08128
15.34429
15.65449
15.9882
16.32203
16.64412
16.95808
17.27088
17.5809
17.87667
18.14047
18.36314
18.55941
18.78343
19.1398
19.72968
20.6419
21.97901
23.89422
26.49254
29.69965
33.25664
36.79142
39.82678
41.62665
41.597
39.81185
36.79357
33.16093
29.46312
26.11653
23.37503
21.33238
19.94091
19.07119
18.58528
18.35379
18.2648
18.22624
18.16088
18.02831
17.81364
17.51839
17.15224
16.73198
16.28036
15.81948
15.36706
14.93567
14.53332
14.16407
13.82902
13.52722
13.25811
13.02056
12.80891
12.62029
12.45255
12.30372
12.17174
12.05486
11.95165
11.86102
11.78217
11.71463
11.65821
11.61298
11.5792
11.55741
11.54833
11.55271
11.57194
11.60439
11.64715
11.69898
11.75848
11.824
11.8936
11.9651
12.03611
12.10399
12.16602
12.2194
12.26142
12.28953
12.30149
12.29541
12.26999
12.22462
12.1596
12.0763
11.97671
11.86317
11.73885
11.60562
11.46292
11.31262
11.157
10.99826
10.83839
10.67922
10.52228
10.36888
10.22001
10.07648
9.938833
9.807445
9.682518
9.564111
9.452172
9.346559
9.247063
9.153429
9.065358
8.982522
8.904569
8.831143
8.761888
8.696472
8.634568
8.57591
8.520225
8.467366
8.417045
8.370366
8.32682
8.286087
8.24786
8.211892
8.177988
8.145964
8.11562
8.086737
8.059104
8.032546
8.006971
7.982399
7.959005
7.937153
7.917375
7.90037
7.88711
7.878953
7.877666
7.885741
7.907178
7.947934
8.015224
8.110816
8.237343
8.401169
8.611065
8.875397
9.20172
9.597608
10.07045
10.62708
11.27277
12.00924
12.83275
13.73318
14.69361
15.68918
16.68169
17.62002
18.44636
19.10768
19.56422
19.7864
19.75518
19.46819
18.94489
18.24179
17.44261
16.62873
15.86082
15.17809
14.60062
14.13338
13.77027
13.4976
13.29701
13.14801
13.03039
12.92619
12.82102
12.70466
12.57114
12.41846
12.24781
12.06276
11.86828
11.66999
11.47345
11.28368
11.10497
10.94076
10.79369
10.66561
10.55754
10.46979
10.40218
10.35423
10.32529
10.314
10.31665
10.33054
10.35331
10.38259
10.4159
10.45065
10.48412
10.51368
10.53677
10.55106
10.55452
10.5455
10.52275
10.48544
10.43286
10.36485
10.28218
10.18665
10.08044
9.965876
9.8452
9.720494
9.593209
9.464347
9.334839
9.205648
9.077671
8.951692
8.828381
8.708297
8.591886
8.479489
8.371342
8.267445
8.167624
8.07167
7.979345
7.890401
7.804599
7.721703
7.641481
7.563691
7.488095
7.414466
7.342594
7.272279
7.203329
7.135539
7.068713
7.002628
6.937096
6.87188
6.806842
6.741818
6.676886
6.612166
6.548485
6.489644
282.9837
190.658
144.1824
129.4348
105.7459
89.34595
77.34699
72.85623
67.74311
64.83718
62.32818
58.87023
55.35193
51.97783
48.84939
45.33541
39.77086
38.47927
37.50513
36.94149
36.7426
36.76799
36.88394
37.04357
37.24376
37.48546
37.77126
38.10578
38.5001
38.97675
39.5141
40.09616
40.71503
41.36153
42.02414
42.69971
43.38509
44.07887
44.78116
45.48875
46.20586
46.87049
47.38845
48.00727
48.68589
49.30998
49.86755
50.37118
50.80194
51.1391
51.38587
51.54355
51.58108
51.49664
51.30045
51.00398
50.61882
50.15739
49.63165
49.05354
48.43224
47.77496
47.09109
46.38551
45.66336
44.93047
44.19352
43.45812
42.7307
42.0164
41.31834
40.63659
39.96916
39.31623
38.67649
38.04941
37.43599
36.83888
36.25945
35.70014
35.16471
34.65526
34.16879
33.70113
33.24879
32.80928
32.38128
31.96456
31.56
31.1686
30.79053
30.42527
30.07215
29.73094
29.40191
29.08535
28.78106
28.48836
28.20597
27.93159
27.66238
27.39628
27.13279
26.87328
26.62059
26.37812
26.14866
25.93344
25.73156
25.54001
25.35409
25.16935
24.98306
24.79495
24.60667
24.42182
24.24402
24.07587
23.91734
23.76572
23.61696
23.46727
23.31475
23.16033
23.00756
22.861
22.72408
22.59788
22.48134
22.37241
22.26952
22.1718
22.08007
21.99644
21.92469
21.86435
21.81365
21.76928
21.72878
21.69181
21.65808
21.62538
21.59012
21.54925
21.50146
21.44706
21.38737
21.32425
21.25982
21.1964
21.13643
21.08248
21.03712
21.00247
20.98007
20.97076
20.97485
20.99223
21.02225
21.06398
21.1162
21.17658
21.24213
21.31006
21.37822
21.44442
21.50712
21.56568
21.61878
21.66356
21.6963
21.71307
21.70979
21.68232
21.62659
21.53907
21.41731
21.26041
21.0693
20.8468
20.59743
20.327
20.04204
19.74925
19.45489
19.16431
18.88162
18.6095
18.34912
18.1003
17.8616
17.63066
17.40442
17.1795
16.95253
16.72047
16.48102
16.23298
15.97668
15.71482
15.44945
15.18409
14.92643
14.68681
14.47789
14.31436
14.21256
14.18866
14.25542
14.42017
14.68533
15.04687
15.48958
15.98719
16.50703
17.01781
17.50773
17.99108
18.47814
18.95246
19.37564
19.70517
19.91842
20.0236
20.05489
20.09115
20.21701
20.50081
21.04278
21.98497
23.44924
25.47964
28.03065
30.94573
33.94027
36.56094
38.15023
38.20662
36.75167
34.18822
31.05128
27.86446
25.04971
22.85262
21.31889
20.35551
19.82439
19.58288
19.50014
19.46887
19.40573
19.26264
19.0193
18.67532
18.24121
17.73198
17.17244
16.59094
16.01174
15.45326
14.92802
14.44342
14.00281
13.60656
13.25328
12.9399
12.66153
12.41445
12.19542
12.00073
11.82685
11.67093
11.53065
11.40412
11.28985
11.18672
11.09398
11.01114
10.93797
10.87446
10.82076
10.77718
10.74423
10.72264
10.71152
10.70958
10.71603
10.72992
10.75013
10.77535
10.80411
10.83475
10.86543
10.8942
10.91904
10.93795
10.94898
10.95037
10.94061
10.91854
10.88348
10.83533
10.77447
10.70158
10.61773
10.52442
10.42337
10.314
10.1974
10.07517
9.948949
9.820309
9.690734
9.561562
9.43396
9.308917
9.18722
9.069501
8.956227
8.847715
8.744152
8.645618
8.552107
8.463542
8.379782
8.300628
8.225831
8.155111
8.088182
8.024757
7.964549
7.907294
7.852754
7.800744
7.751128
7.703835
7.658833
7.61612
7.575645
7.5373
7.500949
7.466433
7.433557
7.4021
7.371833
7.342578
7.314253
7.286917
7.260778
7.236175
7.213541
7.193374
7.176267
7.162931
7.154228
7.151329
7.15595
7.17047
7.197995
7.24141
7.302341
7.383964
7.490296
7.625753
7.795321
8.004817
8.260918
8.571134
8.943643
9.386705
9.907396
10.50955
11.1916
11.94455
12.74855
13.57092
14.3704
15.10636
15.74566
16.26939
16.66672
16.92686
17.0311
16.96091
16.7114
16.30604
15.79866
15.25061
14.71108
14.21341
13.77664
13.40745
13.10311
12.85442
12.64857
12.47173
12.31098
12.15574
11.99848
11.83494
11.66377
11.48597
11.3041
11.12177
10.94299
10.77168
10.61131
10.46474
10.33416
10.22104
10.12626
10.05008
9.99224
9.952118
9.928942
9.921707
9.92778
9.945008
9.971429
10.00496
10.04331
10.08394
10.12416
10.16133
10.19285
10.21618
10.22899
10.22925
10.21527
10.18574
10.13973
10.0769
9.997785
9.904023
9.797995
9.682329
9.559566
9.431578
9.299624
9.164935
9.028754
8.892219
8.756368
8.622164
8.49048
8.362066
8.23753
8.11733
8.001675
7.890529
7.783782
7.681266
7.582751
7.487979
7.396694
7.308665
7.223651
7.141325
7.061391
6.983582
6.907665
6.833431
6.760695
6.689277
6.619006
6.54972
6.481279
6.413561
6.346478
6.279982
6.214091
6.148953
6.084951
6.026264
139.6519
103.5006
159.6759
79.06858
67.99856
58.6705
56.03218
54.21604
52.1943
51.54567
50.62367
49.15874
47.78016
46.27459
44.42711
40.49575
39.69058
38.92749
38.17411
37.43482
36.66511
35.90604
35.21104
34.61357
34.13838
33.79742
33.52411
33.22362
33.08409
33.13381
33.35435
33.69043
34.08818
34.52536
34.99518
35.49599
36.03031
36.6084
37.23499
37.89477
38.5797
39.28586
40.00997
40.74797
41.49352
42.23994
42.9829
43.72548
44.4753
45.20698
45.93038
46.65911
47.32375
48.016
48.6868
49.29195
49.79543
50.17585
50.41819
50.51684
50.47505
50.29653
49.97998
49.53282
48.97072
48.31265
47.57836
46.78732
45.95752
45.10457
44.23987
43.37069
42.5018
41.63495
40.77142
39.91374
39.06759
38.242
37.44891
36.70102
35.99997
35.34335
34.72504
34.1354
33.56725
33.01496
32.4764
31.95267
31.4474
30.96501
30.50971
30.08348
29.68443
29.30781
28.94797
28.59978
28.25977
27.92659
27.60108
27.28516
26.98035
26.68718
26.40565
26.13601
25.87899
25.63497
25.40338
25.18296
24.97187
24.76733
24.56579
24.36427
24.16181
23.96018
23.76362
23.57736
23.40595
23.25181
23.11435
22.98987
22.87191
22.75374
22.63126
22.50383
22.37395
22.24644
22.12685
22.01943
21.92512
21.84066
21.75993
21.67661
21.58703
21.49217
21.39718
21.3087
21.23152
21.16655
21.1112
21.06088
21.01232
20.96567
20.92353
20.88887
20.86351
20.84656
20.8351
20.8256
20.81591
20.80574
20.79499
20.78189
20.76301
20.73491
20.69578
20.64591
20.58704
20.52162
20.45237
20.38212
20.31383
20.25044
20.19482
20.14921
20.11491
20.09224
20.08071
20.07941
20.08715
20.10248
20.12355
20.14779
20.1726
20.19583
20.21606
20.23242
20.24471
20.25301
20.25708
20.25615
20.24866
20.23258
20.20545
20.16428
20.10575
20.02647
19.92349
19.79487
19.64
19.45981
19.25682
19.03489
18.79883
18.55393
18.30544
18.05813
17.81588
17.58147
17.35643
17.14108
16.93457
16.73512
16.54021
16.34687
16.15198
15.9526
15.74634
15.53172
15.30867
15.07905
14.84744
14.61912
14.40212
14.20926
14.05683
13.9643
13.95353
14.0458
14.25706
14.59579
15.0648
15.65625
16.3431
17.08387
17.83462
18.5594
19.24881
19.92417
20.58793
21.19869
21.70117
22.05509
22.24465
22.27432
22.1618
21.95017
21.73435
21.58279
21.58701
21.86268
22.52267
23.6498
25.28205
27.38757
29.82507
32.31885
34.44314
35.65932
35.59323
34.27642
32.05918
29.41969
26.82138
24.61405
22.9619
21.85768
21.20555
20.87685
20.73716
20.66928
20.5831
20.42057
20.15221
19.77167
19.28842
18.71702
18.07947
17.40629
16.72663
16.06404
15.43565
14.85238
14.31997
13.84005
13.4113
13.03054
12.69326
12.3949
12.13108
11.89715
11.68867
11.50186
11.33358
11.18121
11.04258
10.91593
10.79992
10.69357
10.5962
10.50739
10.42691
10.35468
10.29083
10.23561
10.18929
10.15117
10.12073
10.09741
10.08056
10.06941
10.06308
10.06053
10.06058
10.06193
10.06317
10.06286
10.05953
10.05174
10.03816
10.01763
9.989225
9.952335
9.90663
9.852043
9.788808
9.717506
9.639066
9.554467
9.463269
9.366412
9.265018
9.160278
9.053387
8.945493
8.837662
8.73085
8.625878
8.523439
8.424092
8.328264
8.236265
8.148295
8.06447
7.984832
7.90935
7.83792
7.770361
7.706454
7.645953
7.5886
7.534135
7.482307
7.432897
7.385736
7.340713
7.297754
7.256828
7.217941
7.181053
7.14604
7.112759
7.081038
7.05067
7.021427
6.993084
6.965474
6.938561
6.912479
6.887518
6.864068
6.842555
6.823386
6.80694
6.793583
6.783704
6.7778
6.776572
6.781008
6.792449
6.812754
6.843262
6.885525
6.94159
7.014
7.105945
7.221417
7.365268
7.543397
7.762868
8.031767
8.358483
8.750244
9.211276
9.740731
10.3301
10.96199
11.61216
12.25386
12.86255
13.41994
13.91499
14.34081
14.6943
14.96637
15.13593
15.17753
15.07804
14.84859
14.52612
14.15588
13.77539
13.41034
13.0761
12.77884
12.51777
12.28763
12.08093
11.88983
11.7076
11.52942
11.35253
11.17592
11.00025
10.82749
10.66039
10.50182
10.35452
10.22063
10.10148
9.997864
9.910269
9.838655
9.78252
9.741247
9.714292
9.701025
9.699857
9.709324
9.728076
9.754563
9.786961
9.823163
9.860813
9.89737
9.930167
9.956536
9.97393
9.980021
9.972778
9.950574
9.912255
9.857157
9.785336
9.697921
9.596996
9.485098
9.364683
9.237552
9.105289
8.969399
8.831217
8.691934
8.552664
8.414483
8.278425
8.145428
8.016262
7.891472
7.771326
7.655935
7.545297
7.439276
7.337641
7.24011
7.14639
7.056174
6.969087
6.88477
6.802915
6.723242
6.645508
6.569515
6.49511
6.422096
6.350291
6.279548
6.209752
6.140819
6.07269
6.005349
5.938801
5.873169
5.808783
5.750077
56.22085
41.77313
41.36422
39.47059
38.68402
37.70821
36.98321
36.39254
35.9305
35.11717
32.91215
32.92504
32.95527
32.99784
33.01955
33.00821
32.99474
33.00679
33.05324
33.11961
33.0714
32.79008
32.50205
32.20927
31.92127
31.63973
31.38218
31.168
31.01199
30.91691
30.88019
30.89861
30.98572
31.17747
31.4848
31.89462
32.3772
32.90166
33.45161
34.01878
34.59925
35.20423
35.84203
36.50739
37.1995
37.91735
38.65503
39.41074
40.18345
40.97118
41.75219
42.5166
43.27458
44.07249
44.81995
45.54466
46.24211
46.89798
47.50978
48.01324
48.37249
48.56696
48.57987
48.40935
48.066
47.56557
46.92452
46.16136
45.29512
44.3459
43.33517
42.28535
41.21807
40.15401
39.11088
38.1006
37.12867
36.19451
35.29347
34.41885
33.572
32.76527
32.00479
31.29828
30.65231
30.06906
29.54494
29.06947
28.62845
28.20867
27.79998
27.39733
27.00086
26.61495
26.24627
25.90137
25.58428
25.29475
25.02836
24.77826
24.5374
24.30025
24.06397
23.82892
23.59768
23.37295
23.15647
22.94935
22.75308
22.56964
22.40017
22.24392
22.09894
21.96283
21.83229
21.70306
21.5715
21.43664
21.30123
21.17117
21.05338
20.95351
20.87422
20.81446
20.76952
20.73119
20.69162
20.64718
20.59824
20.54875
20.50489
20.47288
20.45615
20.45334
20.45887
20.4654
20.46631
20.45857
20.44513
20.43282
20.42952
20.4398
20.4629
20.49411
20.52764
20.55755
20.58129
20.60118
20.6216
20.64484
20.66942
20.69112
20.70577
20.71154
20.70921
20.70009
20.68384
20.65794
20.6195
20.56701
20.50124
20.42458
20.34006
20.25075
20.15971
20.07017
19.98553
19.90896
19.84273
19.78785
19.74408
19.71034
19.68519
19.66731
19.65524
19.64703
19.64016
19.63194
19.62018
19.60364
19.58175
19.5546
19.52261
19.48611
19.44528
19.39996
19.34954
19.29288
19.22819
19.15307
19.06484
18.96079
18.83872
18.69734
18.53666
18.35799
18.16389
17.9579
17.74413
17.5268
17.30991
17.09683
16.89002
16.69097
16.50011
16.31688
16.13985
15.9669
15.7955
15.62294
15.44667
15.26461
15.07555
14.87968
14.67915
14.4787
14.28674
14.11456
13.97832
13.89955
13.9043
14.02155
14.27853
14.69463
15.27858
16.02756
16.91973
17.90513
18.92028
19.91077
20.84703
21.72383
22.54972
23.30018
23.9292
24.4065
24.71221
24.83796
24.78649
24.56408
24.17879
23.70896
23.23487
22.84226
22.6333
22.7087
23.15362
24.03407
25.38058
27.14978
29.18683
31.20827
32.83761
33.6662
33.44916
32.24531
30.36545
28.22626
26.21055
24.55738
23.34417
22.54363
22.07107
21.81346
21.6592
21.51659
21.3183
21.02374
20.61676
20.10124
19.49188
18.80756
18.07594
17.32807
16.59103
15.88564
15.22604
14.62043
14.07214
13.58098
13.14426
12.75763
12.41604
12.11438
11.84763
11.611
11.40014
11.21114
11.04061
10.88564
10.74379
10.61318
10.4924
10.38046
10.27663
10.1804
10.09146
10.00961
9.934741
9.86688
9.80579
9.751145
9.702601
9.659782
9.622308
9.589683
9.561243
9.53622
9.513753
9.492902
9.472668
9.452002
9.429829
9.405094
9.376807
9.344096
9.306244
9.26271
9.213143
9.157415
9.095654
9.028271
8.956002
8.879176
8.79782
8.712698
8.624654
8.534585
8.443398
8.35197
8.261115
8.17156
8.083938
7.998779
7.916511
7.837455
7.76184
7.689814
7.621461
7.556795
7.495752
7.438185
7.383895
7.332647
7.284204
7.23834
7.194773
7.153265
7.113657
7.075861
7.039836
7.005564
6.973019
6.942135
6.912824
6.884961
6.858376
6.832864
6.8082
6.784177
6.760677
6.737753
6.715651
6.694773
6.675572
6.658461
6.643756
6.631664
6.622305
6.615749
6.61207
6.611411
6.614045
6.620473
6.631578
6.648506
6.672123
6.703461
6.74393
6.795493
6.8607
6.942867
7.046344
7.176659
7.340317
7.54457
7.796566
8.10199
8.463293
8.877863
9.337146
9.827601
10.33306
10.83733
11.32693
11.79308
12.23175
12.64123
13.01743
13.35278
13.63338
13.83478
13.93092
13.90918
13.77828
13.56589
13.30566
13.02598
12.74636
12.47876
12.22894
11.99783
11.78344
11.58245
11.39134
11.20711
11.02816
10.85429
10.6864
10.526
10.37487
10.23473
10.10697
9.992618
9.892267
9.805521
9.731526
9.669683
9.61964
9.58118
9.554119
9.53785
9.53155
9.534559
9.545993
9.564643
9.588922
9.616869
9.64617
9.674248
9.698408
9.715995
9.724506
9.72168
9.705608
9.674812
9.628214
9.565305
9.48649
9.393328
9.288098
9.17298
9.049842
8.920528
8.786708
8.64981
8.511073
8.371638
8.232637
8.095222
7.960507
7.829453
7.702775
7.58093
7.464149
7.352465
7.24576
7.143801
7.046276
6.95282
6.863022
6.776464
6.692797
6.611681
6.532798
6.455871
6.380669
6.306963
6.234529
6.163201
6.092856
6.023409
5.954815
5.887054
5.820081
5.753912
5.688648
5.624623
5.566379
78.48485
32.77143
27.88275
26.84095
26.30158
26.11429
26.19604
26.43389
26.7848
27.21551
27.59255
27.81216
28.03347
28.24333
28.44221
28.62304
28.79222
28.95043
29.08512
29.17391
29.19049
29.14635
29.09412
29.04243
28.9988
28.96718
28.95768
28.97775
29.03574
29.13348
29.27056
29.45143
29.69007
29.99915
30.38318
30.83195
31.32603
31.84514
32.37856
32.92117
33.49488
34.11255
34.76892
35.46528
36.20496
36.98967
37.79007
38.60429
39.43137
40.2908
41.12011
41.90902
42.67995
43.44084
44.18189
44.88407
45.50255
46.00114
46.34087
46.48735
46.42696
46.15744
45.68629
45.03119
44.21707
43.27295
42.22608
41.10366
39.92944
38.72407
37.50715
36.29802
35.11672
33.98438
32.91908
31.93375
31.03071
30.20375
29.44062
28.727
28.05406
27.42
26.82813
26.28397
25.7923
25.35985
24.98551
24.65919
24.36433
24.08374
23.8045
23.52048
23.23215
22.94513
22.66818
22.41057
22.17887
21.97433
21.79277
21.62669
21.46795
21.30966