/*--------------------------------*- C++ -*----------------------------------*\
| =========                 |                                                 |
| \\      /  F ield         | foam-extend: Open Source CFD                    |
|  \\    /   O peration     | Version:     3.1                                |
|   \\  /    A nd           | Web:         http://www.extend-project.de       |
|    \\/     M anipulation  |                                                 |
\*---------------------------------------------------------------------------*/
FoamFile
{
    version     2.0;
    format      ascii;
    class       volScalarField;
    location    "12.5";
    object      p;
}
// * * * * * * * * * * * * * * * * * * * * * * * * * * * * * * * * * * * * * //

dimensions      [1 -1 -2 0 0 0 0];

internalField   nonuniform List<scalar> 
119952
(
5964.188
4906.396
4790.735
4997.783
5206.134
5134.375
5144.656
5172.217
5210.716
5255.036
5302.805
5354.306
5408.448
5464.601
5522.265
5580.918
5639.901
5697.973
5748.966
5768.031
6003.49
5976.055
6009.5
6277.427
6327.354
6403.334
6473.311
6567.869
6726.132
8498.161
3245.446
3192.732
3194.997
3191.621
3192.437
3193.477
3200.261
3209.776
3222.385
3212.752
3205.13
3234.364
3249.004
3268.27
3288.845
3313.05
3340.051
3369.431
3401.864
3442.008
3463.64
3485.383
3525.538
3568.963
3613.442
3660.599
3710.05
3760.339
3813.684
3857.851
3915.02
3975.584
4036.689
4099.974
4165.849
4234.719
4312.431
4433.102
4616.129
4565.607
4597.983
4717.619
4797.784
4836.224
4862.063
4898.034
4940.796
4987.507
5037.764
5091.082
5146.715
5204.185
5263.052
5322.9
5383.235
5443.625
5504.798
5570.906
5648.771
5733.39
5803.144
5915.14
6047.773
6125.678
6187.487
6245.77
6265.738
6220.986
6260.567
6330.215
6390.463
6448.839
6504.628
6557.652
6608.614
6657.79
6705.348
6751.334
6795.766
6838.669
6880.108
6920.201
6959.076
6996.841
7033.62
7069.565
7104.828
7139.543
7173.834
7207.787
7241.484
7274.975
7308.292
7341.45
7374.448
7407.274
7439.915
7472.382
7504.602
7536.568
7568.256
7599.638
7630.681
7661.331
7691.519
7721.138
7750.035
7777.998
7804.721
7829.793
7852.689
7872.768
7889.28
7901.381
7908.158
7908.785
7903.592
7890.52
7870.695
7846.649
7818.742
7789.157
7760.555
7734.933
7718.051
7713.891
7727.083
7760.598
7811.529
7848.442
7791.773
7730.924
7777.568
7820.544
7831.276
7840.394
7849.928
7855.829
7852.396
7836.374
7806.479
7763.027
7707.587
7642.849
7572.627
7502.168
7437.525
7383.882
7344.8
7322.287
7316.856
7327.702
7352.591
7388.82
7433.345
7482.901
7534.472
7585.496
7634.17
7679.426
7720.723
7757.816
7790.622
7819.232
7843.893
7864.813
7883.076
7930.551
7939.979
7950.826
7958.599
7964.347
7968.153
7970.03
7970.504
7969.766
7967.878
7965.079
7961.506
7957.277
7952.579
7947.384
7941.793
7935.884
7929.708
7923.34
7916.844
7910.274
7903.673
7897.074
7890.502
7883.969
7877.478
7871.024
7864.592
7858.165
7851.716
7845.197
7838.52
7831.512
7823.863
7814.541
7803.969
7807.584
7808.767
7808.81
7808.475
7808.001
7807.391
7806.832
7806.349
7805.974
7805.728
7805.632
7805.695
7805.926
7806.329
7806.904
7807.649
7808.56
7809.628
7810.842
7812.191
7813.659
7815.229
7816.885
7818.607
7820.378
7822.18
7823.995
7825.806
7827.601
7829.369
7831.095
7832.831
7835.273
7835.735
7819.364
7816.909
7809.866
7810.325
7811.674
7812.278
7813.082
7814.249
7815.559
7816.977
7818.558
7820.344
7822.37
7824.678
7827.308
7830.293
7833.693
7837.54
7841.776
7846.441
7851.606
7857.171
7863.204
7869.668
7875.201
7871.168
7868.06
7873.534
7882.709
7890.004
7896.057
7901.339
7905.555
7908.552
7910.234
7910.782
7910.888
7911.55
7913.683
7917.095
7920.625
7923.37
7925.079
7926.167
7927.13
7928.288
7929.185
7930.567
7932.671
7935.035
7937.356
7939.3
7940.513
7939.054
7936.294
7936.214
7933.666
7928.601
7922.175
7914.426
7905.326
7894.927
7883.258
7870.372
7856.365
7841.382
7825.6
7809.208
7792.432
7775.475
7758.603
7742.105
7726.273
7711.413
7697.83
7685.808
7675.61
7667.479
7661.65
7658.309
7657.565
7659.579
7664.387
7671.978
7682.279
7695.147
7710.371
7727.67
7746.706
7767.103
7788.461
7810.368
7832.412
7854.201
7875.366
7895.581
7914.576
7932.167
7948.245
7962.753
7975.669
7986.998
7996.766
8005.017
8011.818
8017.258
8021.453
8024.529
8026.618
8027.844
8028.323
8028.162
8027.452
8026.274
8024.692
8022.762
8020.53
8018.032
8015.3
8012.356
8009.218
8005.895
8002.395
7998.72
7994.867
7990.829
7986.591
7982.132
7977.416
7972.395
7966.986
7961.072
7954.48
7946.89
7937.731
7926.384
7915.116
7919.897
7973.582
6300.966
6175.188
6024.846
5872.314
5716.653
5559.862
5403.534
5248.738
5096.257
4920.269
4776.219
4638.243
4502.613
4375.504
4254.845
4140.896
4033.576
3932.462
3789.078
3719.578
3631.214
3547.631
3476.991
3412.135
3352.819
3298.895
3249.349
3205.615
3168.419
3119.928
3085.109
3054.834
3027.508
3003.998
2983.554
2966.295
2953.976
2950.553
2926.351
2913.05
2910.269
2908.798
2908.662
2911.479
2916.635
2924.604
2935.022
2942.992
2959.486
2978.659
2997.406
3018.388
3041.566
3067.836
3097.443
3133.578
3104.543
3143.712
3184.904
3227.195
3270.598
3315.681
3362.585
3411.147
3461.136
3512.852
3568.286
3624.947
3682.331
3741.953
3805.351
3873.318
3947.662
4028.977
4114.857
4196.255
4259.133
4313.194
4375.457
4439.181
4494.334
4540.872
4585.349
4632.339
4682.926
4736.524
4792.342
4849.879
4908.878
4969.157
5030.586
5093.186
5157.377
5224.113
5294.76
5370.507
5451.007
5535.566
5624.919
5714.246
5792.291
5854.705
5902.946
5937.755
5965.6
6002.913
6054.949
6112.758
6170.23
6225.042
6277.158
6327.204
6375.555
6422.279
6467.334
6510.711
6552.475
6592.75
6631.68
6669.414
6706.089
6741.86
6776.889
6811.33
6845.319
6878.974
6912.387
6945.626
6978.736
7011.741
7044.648
7077.449
7110.128
7142.707
7174.957
7207.041
7238.822
7270.315
7301.452
7332.167
7362.385
7392.012
7420.92
7448.922
7475.763
7501.101
7524.487
7545.357
7563.008
7576.646
7585.432
7588.529
7585.23
7575.093
7558.132
7534.684
7506.245
7475.449
7444.333
7414.705
7389.061
7371.322
7365.902
7372.681
7391.246
7411.134
7425.291
7426.981
7416.86
7445.556
7504.237
7539.057
7558.894
7569.721
7570.78
7561.62
7539.663
7503.624
7453.934
7392.333
7321.643
7246.012
7171.354
7104.518
7050.885
7012.947
6992.603
6990.776
7003.792
7031.943
7071.544
7119.089
7171.197
7224.741
7276.908
7325.973
7371.184
7412.221
7448.912
7481.272
7509.496
7533.831
7554.311
7570.063
7646.891
7656.155
7667.056
7675.292
7681.258
7685.286
7687.572
7688.414
7688.016
7686.557
7684.198
7681.06
7677.28
7672.976
7668.183
7663.018
7657.511
7651.719
7645.731
7639.595
7633.355
7627.047
7620.701
7614.336
7607.967
7601.601
7595.236
7588.867
7582.484
7576.066
7569.583
7562.985
7556.209
7549.263
7542.54
7537.216
7535.299
7534.946
7534.2
7533.372
7532.538
7531.691
7530.914
7530.235
7529.674
7529.252
7528.984
7528.879
7528.946
7529.187
7529.604
7530.193
7530.951
7531.87
7532.939
7534.146
7535.478
7536.919
7538.452
7540.06
7541.726
7543.431
7545.161
7546.899
7548.638
7550.37
7552.113
7553.897
7555.861
7558.494
7496.234
7498.599
7501.06
7501.858
7502.116
7502.744
7503.823
7505.14
7506.58
7508.15
7509.892
7511.844
7514.036
7516.49
7519.238
7522.311
7525.718
7529.465
7533.568
7537.979
7542.644
7547.445
7552.823
7556.693
7560.253
7562.128
7563.083
7567.758
7574.452
7580.784
7586.524
7591.606
7595.852
7598.979
7601.258
7603.019
7604.987
7608.113
7612.683
7617.609
7620.952
7622.021
7621.56
7620.822
7620.632
7621.139
7622.315
7624.281
7626.827
7629.451
7631.999
7634.205
7635.693
7636.202
7635.018
7632.615
7628.989
7623.979
7617.64
7609.864
7600.638
7590.031
7578.115
7564.957
7550.656
7535.358
7519.24
7502.502
7485.365
7468.06
7450.851
7434.021
7417.871
7402.705
7388.823
7376.507
7366.019
7357.6
7351.465
7347.777
7346.738
7348.452
7352.958
7360.256
7370.281
7382.899
7397.904
7415.004
7433.854
7454.087
7475.313
7497.122
7519.107
7540.877
7562.061
7582.286
7601.248
7618.808
7634.885
7649.426
7662.41
7673.843
7683.748
7692.15
7699.093
7704.673
7709.02
7712.265
7714.532
7715.944
7716.614
7716.646
7716.132
7715.15
7713.764
7712.027
7709.986
7707.679
7705.134
7702.374
7699.416
7696.27
7692.944
7689.439
7685.755
7681.885
7677.82
7673.541
7669.028
7664.235
7659.138
7653.658
7647.81
7641.602
7635.548
7630.607
7628.856
7630.761
7637.168
3182.309
3199.598
3234.893
3282.969
3344.835
3421.081
3511.675
3616.441
3735.107
3866.82
3992.777
4147.171
4310.122
4481.034
4658.312
4840.2
5024.093
5207.121
5389.852
5557.301
5728.4
5891.273
6043.961
6184.269
6309.547
6417.023
6504.707
6570.681
6623.576
6644.223
6642.716
6619.664
6575.498
6511.409
6428.961
6330.144
6217.235
6092.732
5947.802
5807.074
5656.88
5502.19
5344.648
5186.263
5028.701
4873.505
4722.554
4576.153
4432.963
4298.32
4168.013
4044.098
3926.699
3815.833
3712.463
3621.403
3426.18
3340.567
3266.821
3196.306
3129.207
3067.108
3010.655
2959.394
2912.64
2869.317
2829.104
2793.131
2760.268
2730.027
2703.193
2680.271
2661.135
2645.425
2632.383
2621.223
2612.407
2605.354
2599.905
2596.686
2596.17
2598.458
2603.513
2611.228
2621.588
2635.098
2650.724
2668.039
2687.341
2708.937
2732.721
2758.974
2787.357
2819.423
2856.606
2895.7
2934.606
2975.133
3018.322
3063.816
3111.074
3159.757
3210.048
3261.939
3315.303
3370.4
3427.516
3487.313
3550.386
3617.512
3688.156
3762.069
3837.578
3914.387
3981.203
4039.096
4097.901
4159.497
4218.289
4271.268
4321.127
4371.975
4425.514
4481.498
4539.258
4598.393
4658.753
4720.3
4783.059
4847.169
4912.957
4980.956
5051.808
5126.178
5204.497
5284.816
5365.563
5446.33
5521.566
5586.098
5640.381
5688.01
5730.548
5773.381
5823.924
5880.779
5938.244
5993.342
6045.696
6095.824
6144.108
6190.613
6235.282
6278.111
6319.188
6358.664
6396.717
6433.529
6469.276
6504.138
6538.298
6571.931
6605.187
6638.195
6671.053
6703.832
6736.575
6769.302
6802.011
6834.683
6867.289
6899.801
6932.152
6964.279
6996.174
7027.725
7058.903
7089.635
7119.809
7149.313
7178.005
7205.689
7232.087
7256.832
7279.459
7299.379
7315.843
7328.011
7335.033
7336.007
7330.227
7317.274
7296.991
7269.884
7237.835
7203.617
7169.337
7136.248
7106.182
7084.515
7072.407
7068.857
7072.272
7081.536
7093.77
7100.49
7112.79
7153.014
7209.471
7252.481
7285.875
7313.019
7326.325
7320.825
7297.776
7258.958
7205.616
7139.728
7064.513
6984.21
6904.611
6833.552
6777.199
6737.372
6715.789
6712.604
6729.011
6760.057
6802.85
6853.787
6909.371
6966.3
7021.063
7071.977
7118.683
7160.811
7198.173
7230.874
7259.212
7283.467
7304.109
7321.835
7339.074
7350.973
7359.904
7366.932
7372.184
7375.666
7377.539
7378.042
7377.378
7375.71
7373.184
7369.93
7366.067
7361.716
7356.937
7351.75
7346.582
7341.1
7335.374
7329.514
7323.559
7317.546
7311.501
7305.44
7299.374
7293.306
7287.235
7281.16
7275.076
7268.979
7262.873
7256.779
7250.774
7245.04
7239.909
7235.828
7233.027
7231.209
7229.75
7228.416
7227.16
7226.009
7224.992
7224.107
7223.364
7222.772
7222.344
7222.088
7222.01
7222.112
7222.394
7222.853
7223.483
7224.278
7225.226
7226.316
7227.534
7228.864
7230.289
7231.793
7233.357
7234.965
7236.601
7238.253
7239.908
7241.562
7243.204
7244.839
7246.415
7247.901
7248.875
7249.834
7250.669
7251.468
7252.438
7253.656
7255.069
7256.599
7258.221
7259.956
7261.84
7263.913
7266.202
7268.727
7271.507
7274.566
7277.913
7281.518
7285.372
7289.479
7293.756
7298.024
7302.313
7306.37
7309.943
7312.571
7315.294
7319.216
7324.687
7330.243
7335.486
7340.359
7344.747
7348.62
7352.095
7355.405
7358.814
7362.364
7365.974
7369.553
7372.969
7375.644
7377.536
7378.498
7378.438
7378.268
7378.855
7380.337
7382.606
7385.411
7388.289
7390.712
7392.315
7392.85
7392.201
7390.354
7387.088
7382.355
7376.151
7368.447
7359.264
7348.674
7336.748
7323.554
7309.188
7293.786
7277.511
7260.55
7243.11
7225.424
7207.757
7190.395
7173.646
7157.825
7143.238
7130.172
7118.887
7109.624
7102.603
7098.03
7096.098
7096.914
7100.544
7107.011
7116.275
7128.226
7142.684
7159.372
7177.927
7197.98
7219.144
7241.006
7263.151
7285.184
7306.746
7327.433
7346.804
7364.699
7381.099
7395.961
7409.266
7421.024
7431.257
7440.017
7447.331
7453.262
7457.94
7461.501
7464.074
7465.778
7466.729
7467.032
7466.783
7466.059
7464.911
7463.401
7461.58
7459.487
7457.154
7454.602
7451.851
7448.91
7445.788
7442.488
7439.014
7435.363
7431.532
7427.51
7423.289
7418.855
7414.208
7409.369
7404.408
7399.537
7395.051
7391.525
7389.301
7389.435
7391.464
3157.93
3131.43
3101.331
3057.603
3027.701
2971.866
2957.378
2955.905
2967.233
2958.074
2932.393
2917.147
2919.01
2935.029
2965.405
3009.076
3065.675
3135.857
3219.931
3317.202
3428.185
3552.003
3688.138
3836.131
3993.829
4160.019
4332.891
4510.459
4690.606
4870.608
5051.148
5205.074
5380.574
5541.419
5689.969
5825.706
5946.03
6048.439
6132.064
6196.853
6241.555
6261.203
6256.563
6229.454
6181.103
6112.885
6026.621
5924.451
5808.611
5681.399
5544.784
5400.976
5250.992
5096.546
4939.683
4782.313
4626.063
4472.7
4323.649
4179.86
4041.761
3909.952
3784.333
3664.667
3550.996
3443.315
3341.452
3244.772
3150.924
3066.522
2992.622
2923.235
2857.702
2797.404
2742.711
2693.047
2647.492
2605.62
2567.303
2531.765
2498.917
2469.329
2443.356
2421.212
2402.754
2387.53
2375.123
2365.409
2357.348
2350.094
2344.517
2341.306
2340.61
2342.553
2347.304
2355.078
2365.904
2379.36
2395.139
2412.987
2432.623
2454.031
2477.436
2503.22
2532.164
2564.632
2600.248
2638.265
2678.133
2720.285
2764.78
2810.993
2858.386
2906.781
2956.328
3007.068
3059.164
3113.134
3169.258
3227.812
3289.045
3353.31
3420.278
3489.526
3560.367
3631.123
3697.532
3758.937
3819.079
3879.941
3939.673
3996.421
4051.125
4106.077
4162.666
4221.024
4280.785
4341.659
4403.522
4466.385
4530.298
4595.329
4661.719
4729.868
4800.236
4873.184
4948.606
5025.478
5102.686
5179.28
5252.305
5318.973
5378.904
5433.768
5484.885
5535.407
5589.211
5646.347
5703.901
5759.572
5812.701
5863.493
5912.198
5958.865
6003.46
6046.002
6086.597
6125.418
6162.676
6198.591
6233.383
6267.276
6300.487
6333.22
6365.651
6397.927
6430.16
6462.43
6494.782
6527.236
6559.786
6592.408
6625.06
6657.695
6690.244
6722.642
6754.842
6786.74
6818.266
6849.339
6879.878
6909.731
6938.732
6966.665
6993.224
7018.006
7040.528
7060.178
7076.106
7087.345
7092.985
7092.178
7084.103
7068.182
7044.048
7011.984
6974.364
6935.38
6897.79
6863.602
6832.549
6806.23
6782.254
6760.139
6747.675
6743.61
6748.211
6760.569
6784.193
6823.736
6874.232
6924.624
6972.842
7015.686
7043.015
7048.077
7030.595
6992.987
6938.316
6869.712
6790.79
6706.158
6621.952
6546.953
6488.428
6448.06
6427.538
6427.676
6447.479
6483.598
6532.018
6588.551
6649.373
6710.813
6769.074
6822.752
6871.683
6915.34
6953.651
6986.85
7015.322
7039.47
7059.917
7077.301
7091.974
7102.76
7111.104
7117.913
7123.111
7126.548
7128.389
7128.887
7128.24
7126.613
7124.149
7120.982
7117.234
7113.014
7108.416
7103.514
7098.407
7093.08
7087.573
7082.019
7076.359
7070.647
7064.91
7059.163
7053.412
7047.661
7041.909
7036.159
7030.413
7024.681
7018.985
7013.373
7007.933
7002.799
6998.149
6994.172
6991.024
6988.654
6986.767
6985.099
6983.536
6982.114
6980.836
6979.715
6978.746
6977.935
6977.294
6976.829
6976.544
6976.443
6976.526
6976.79
6977.23
6977.839
6978.609
6979.527
6980.581
6981.754
6983.031
6984.395
6985.827
6987.312
6988.832
6990.376
6991.929
6993.484
6995.016
6996.518
6997.918
6999.224
7000.364
7001.394
7002.537
7003.814
7005.118
7006.433
7007.807
7009.272
7010.848
7012.553
7014.415
7016.463
7018.723
7021.213
7023.947
7026.935
7030.165
7033.615
7037.27
7041.096
7045.002
7048.897
7052.724
7056.256
7059.792
7062.861
7065.944
7069.685
7074.249
7079.053
7083.8
7088.365
7092.634
7096.558
7100.185
7103.674
7107.283
7111.303
7115.832
7120.622
7125.203
7128.658
7130.545
7131.57
7132.595
7134.124
7136.103
7137.952
7139.933
7142.369
7144.94
7147.329
7149.152
7149.971
7149.522
7147.749
7144.516
7139.776
7133.521
7125.752
7116.498
7105.806
7093.742
7080.388
7065.846
7050.246
7033.737
7016.486
6998.68
6980.555
6962.375
6944.436
6927.067
6910.607
6895.362
6881.636
6869.685
6859.74
6852.011
6846.721
6844.105
6844.291
6847.339
6853.296
6862.154
6873.82
6888.119
6904.781
6923.473
6943.819
6965.398
6987.757
7010.455
7033.086
7055.26
7076.567
7096.55
7114.971
7131.794
7146.974
7160.513
7172.447
7182.764
7191.495
7198.759
7204.694
7209.424
7213.058
7215.708
7217.494
7218.531
7218.93
7218.794
7218.209
7217.21
7215.838
7214.157
7212.207
7210.021
7207.622
7205.031
7202.248
7199.282
7196.145
7192.844
7189.381
7185.76
7181.979
7178.044
7173.963
7169.761
7165.493
7161.251
7157.201
7153.541
7150.559
7148.52
7147.741
7147.922
3345.61
3323.24
3300.224
3252.363
3213.459
3139.589
3099.079
3057.571
3016.099
2974.542
2933.528
2894.409
2855.485
2818.409
2784.438
2752.683
2661.735
2641.115
2626.822
2615.448
2602.716
2592.176
2589.009
2596.24
2615.365
2647.004
2691.478
2748.687
2818.288
2902.619
3000.832
3112.653
3237.547
3374.872
3524.031
3683.719
3852.005
4026.888
4206.209
4387.5
4568.183
4745.861
4911.128
5080.647
5239.948
5387.364
5521.747
5640.936
5743.296
5827.505
5892.038
5935.377
5955.175
5950.923
5923.51
5874.3
5804.951
5717.523
5614.364
5497.878
5370.289
5233.399
5089.476
4940.116
4786.509
4630.296
4473.021
4316.708
4163.733
4015.337
3872.503
3736.226
3606.584
3483.166
3366.02
3254.893
3149.572
3049.523
2955.009
2866.501
2785.62
2712.375
2644.886
2582.348
2524.974
2472.724
2425.058
2381.243
2340.804
2303.323
2268.412
2236.256
2207.303
2181.929
2160.416
2142.726
2128.415
2116.944
2107.777
2100.055
2093.351
2088.013
2084.478
2083.086
2084.267
2088.489
2096.094
2107.028
2120.881
2137.394
2155.402
2174.608
2195.253
2217.776
2242.796
2271.07
2302.852
2338.22
2377.054
2418.831
2463.005
2508.862
2555.534
2602.686
2650.388
2698.864
2748.347
2799.072
2851.422
2905.677
2962.004
3020.66
3082.027
3146.046
3212.442
3279.766
3346.882
3412.272
3475.111
3536.454
3597.559
3658.277
3717.875
3776.508
3835.195
3894.84
3955.728
4017.719
4080.584
4144.147
4208.315
4273.09
4338.558
4404.958
4472.667
4542.08
4613.438
4686.663
4761.288
4836.445
4911.069
4983.576
5052.474
5117.072
5177.907
5236.138
5293.418
5351.409
5410.382
5469.08
5526.017
5580.465
5632.365
5681.825
5728.891
5773.572
5815.92
5856.063
5894.203
5930.589
5965.486
5999.168
6031.908
6063.971
6095.6
6127.007
6158.366
6189.811
6221.436
6253.296
6285.413
6317.78
6350.366
6383.124
6415.991
6448.895
6481.762
6514.523
6547.084
6579.338
6611.202
6642.526
6673.192
6702.998
6731.692
6758.922
6784.227
6807.082
6826.9
6842.758
6853.581
6858.129
6855.64
6844.985
6825.36
6796.294
6757.511
6712.098
6668.599
6633.615
6600.839
6565.506
6524.611
6480.994
6441.974
6409.578
6392.69
6389.805
6400.199
6425.352
6466.118
6518.344
6575.127
6631.512
6683.668
6724.454
6743.718
6736.489
6705.571
6654.301
6586.196
6505.463
6417.529
6329.328
6250.553
6189.818
6149.201
6130.546
6134.73
6160.212
6203.168
6258.844
6322.301
6389.076
6455.272
6517.653
6574.759
6626.049
6671.237
6710.464
6744.129
6772.759
6796.901
6817.081
6833.738
6847.284
6857.802
6865.856
6872.126
6876.762
6879.772
6881.304
6881.563
6880.725
6878.939
6876.345
6873.083
6869.277
6865.033
6860.44
6855.571
6850.5
6845.267
6839.939
6834.474
6828.992
6823.487
6817.973
6812.462
6806.963
6801.479
6796.015
6790.574
6785.166
6779.806
6774.523
6769.36
6764.385
6759.689
6755.387
6751.596
6748.407
6745.796
6743.6
6741.659
6739.908
6738.298
6736.844
6735.528
6734.384
6733.407
6732.601
6731.972
6731.523
6731.258
6731.177
6731.28
6731.563
6732.02
6732.642
6733.419
6734.338
6735.382
6736.536
6737.784
6739.105
6740.484
6741.902
6743.347
6744.804
6746.262
6747.7
6749.108
6750.456
6751.757
6752.986
6754.171
6755.398
6756.651
6757.885
6759.122
6760.418
6761.816
6763.336
6764.996
6766.816
6768.824
6771.045
6773.498
6776.19
6779.12
6782.27
6785.609
6789.102
6792.703
6796.35
6799.977
6803.542
6807.1
6810.148
6813.169
6816.244
6819.652
6823.521
6827.718
6832.019
6836.201
6840.141
6843.83
6847.382
6851.033
6855.029
6859.471
6864.324
6869.293
6874.065
6878.222
6881.554
6884.329
6886.711
6888.745
6890.955
6893.749
6897.08
6900.181
6902.633
6904.701
6906.197
6906.889
6906.547
6904.884
6901.649
6896.858
6890.519
6882.637
6873.244
6862.38
6850.114
6836.543
6821.777
6805.94
6789.155
6771.541
6753.278
6734.62
6715.842
6697.255
6679.238
6662.126
6646.22
6631.85
6619.263
6608.663
6600.229
6594.209
6590.886
6590.399
6592.938
6598.553
6607.23
6618.87
6633.272
6650.163
6669.232
6690.09
6712.276
6735.314
6758.73
6782.071
6804.898
6826.789
6847.4
6866.475
6883.883
6899.579
6913.565
6925.82
6936.28
6945.004
6952.196
6958.05
6962.692
6966.227
6968.78
6970.476
6971.44
6971.786
6971.612
6970.995
6969.996
6968.673
6967.069
6965.213
6963.131
6960.849
6958.398
6955.77
6952.956
6949.978
6946.849
6943.577
6940.171
6936.638
6932.985
6929.238
6925.436
6921.64
6917.931
6914.439
6911.294
6908.695
6906.767
6905.636
6905.013
3436.171
3410.482
3379.914
3337.178
3306.541
3241.756
3211.625
3181.004
3149.377
3117.125
3084.234
3050.892
3015.662
2979.437
2940.259
2833.828
2792.964
2751.944
2710.617
2669.26
2628.001
2587.469
2547.847
2509.379
2472.705
2439.544
2410.501
2384.808
2362.978
2344.452
2329.318
2319.762
2317.84
2325.176
2342.955
2372.185
2413.812
2468.584
2537.071
2619.24
2715.245
2825.043
2948.206
3084.027
3231.536
3389.43
3555.957
3729.155
3906.988
4087.048
4267.046
4443.835
4613.595
4779.643
4936.873
5083.348
5216.549
5334.046
5434.689
5516.893
5578.791
5618.879
5635.782
5628.777
5598.32
5545.814
5473.18
5382.753
5277.137
5158.914
5030.519
4893.802
4750.569
4602.326
4450.043
4295.49
4140.032
3985.362
3834.228
3688.088
3547.697
3414.044
3287.208
3166.956
3053.365
2945.987
2844.369
2748.096
2657.458
2572.839
2494.591
2423.031
2357.904
2298.592
2244.575
2195.371
2150.347
2108.782
2070.104
2033.918
2000.068
1968.706
1940.259
1915.357
1894.616
1878.179
1865.319
1855.089
1846.863
1839.948
1833.822
1828.444
1824.199
1821.758
1821.961
1825.579
1833.055
1844.288
1858.625
1876.609
1894.626
1912.764
1932.145
1953.312
1977.077
2004.383
2035.976
2072.216
2112.775
2156.634
2202.94
2250.555
2297.894
2344.802
2391.719
2439.021
2487.013
2535.817
2585.87
2637.693
2691.349
2747.255
2806.046
2867.659
2931.297
2995.851
3060.629
3124.87
3187.907
3249.942
3311.745
3373.72
3435.705
3497.574
3559.625
3622.306
3685.857
3750.24
3815.249
3880.629
3946.125
4011.622
4077.209
4143.16
4209.906
4277.929
4347.58
4418.998
4492.029
4566.089
4640.326
4713.701
4785.205
4854.191
4920.709
4985.297
5048.623
5111.285
5173.442
5234.504
5293.474
5349.699
5403.007
5453.433
5501.034
5545.875
5588.041
5627.685
5665.052
5700.433
5734.148
5766.527
5797.902
5828.592
5858.891
5889.055
5919.295
5949.773
5980.603
6011.856
6043.56
6075.711
6108.278
6141.207
6174.429
6207.867
6241.433
6275.036
6308.577
6341.947
6375.018
6407.649
6439.643
6470.779
6500.76
6529.17
6555.48
6579.134
6599.466
6615.398
6625.71
6629.797
6625.995
6612.521
6588.399
6553.287
6507.338
6456.604
6415.89
6379.424
6335.214
6281.866
6219.832
6155.041
6096.626
6050.53
6022.414
6012.576
6019.837
6045.612
6089.111
6145.705
6208.16
6271.559
6331.375
6381.375
6413.562
6420.79
6400.201
6355.529
6290.921
6210.811
6121.252
6030.263
5948.499
5885.708
5844.955
5828.628
5837.704
5870.063
5921.16
5985.295
6056.622
6129.984
6201.146
6267.596
6328.164
6381.74
6428.29
6468.216
6502.091
6530.597
6554.401
6574.111
6590.254
6603.381
6613.768
6621.624
6627.325
6631.231
6633.662
6634.766
6634.66
6633.516
6631.476
6628.663
6625.22
6621.277
6616.94
6612.295
6607.416
6602.373
6597.216
6591.974
6586.667
6581.35
6576.028
6570.716
6565.432
6560.187
6554.979
6549.809
6544.688
6539.627
6534.644
6529.762
6525.017
6520.459
6516.153
6512.175
6508.596
6505.459
6502.75
6500.389
6498.287
6496.387
6494.647
6493.09
6491.597
6490.302
6489.179
6488.223
6487.438
6486.829
6486.4
6486.154
6486.091
6486.211
6486.509
6486.979
6487.61
6488.389
6489.3
6490.328
6491.454
6492.657
6493.919
6495.226
6496.564
6497.923
6499.286
6500.633
6501.958
6503.251
6504.513
6505.734
6506.927
6508.119
6509.307
6510.486
6511.684
6512.94
6514.284
6515.739
6517.326
6519.075
6521.017
6523.185
6525.6
6528.261
6531.157
6534.261
6537.53
6540.921
6544.378
6547.839
6551.253
6554.579
6557.785
6560.762
6563.65
6566.51
6569.451
6572.688
6576.412
6580.431
6584.287
6587.85
6591.25
6594.655
6598.265
6602.234
6606.597
6611.354
6616.427
6621.643
6626.662
6631.268
6635.402
6639.132
6642.501
6645.744
6648.984
6652.269
6655.718
6659.196
6661.99
6663.487
6663.94
6663.3
6661.428
6658.177
6653.426
6647.041
6639.028
6629.467
6618.402
6605.914
6592.122
6577.127
6560.971
6543.762
6525.691
6506.96
6487.806
6468.499
6449.317
6430.594
6412.723
6396.163
6381.2
6367.905
6356.483
6347.253
6340.496
6336.458
6335.376
6337.449
6342.749
6351.253
6362.866
6377.401
6394.584
6414.072
6435.455
6458.265
6482.004
6506.173
6530.285
6553.882
6576.493
6597.788
6617.551
6635.597
6651.866
6666.317
6678.853
6689.485
6698.395
6705.742
6711.671
6716.325
6719.84
6722.355
6724.009
6724.935
6725.249
6725.04
6724.374
6723.344
6722.03
6720.455
6718.645
6716.623
6714.412
6712.026
6709.474
6706.773
6703.932
6700.959
6697.863
6694.665
6691.375
6687.996
6684.557
6681.102
6677.693
6674.4
6671.322
6668.547
6666.215
6664.384
6663.035
6662.045
3343.753
3305.544
3277.624
3238.631
3197.584
3159.446
3123.549
3090.399
3059.377
3028.206
2932.024
2902.032
2872.053
2841.345
2809.657
2776.959
2743.128
2707.825
2671.044
2633.296
2595.374
2555.314
2514.456
2472.995
2431.354
2389.658
2348.082
2306.919
2266.355
2226.358
2188.007
2153.431
2122.563
2095.485
2072.631
2055.342
2045.288
2043.438
2050.921
2068.697
2097.589
2138.41
2191.843
2258.517
2338.765
2432.813
2540.659
2661.96
2796.057
2941.902
3098.106
3262.907
3434.265
3610.251
3787.998
3964.829
4138.236
4306.39
4468.457
4622.106
4765.643
4895.981
5010.245
5106.628
5183.612
5239.767
5273.88
5285.005
5272.636
5237.071
5179.622
5102.314
5007.758
4898.885
4778.428
4649.204
4513.164
4371.384
4225.479
4076.146
3924.906
3773.288
3622.431
3474.071
3330.413
3193.6
3064.433
2942.931
2828.689
2721.1
2619.57
2523.49
2432.399
2346.274
2265.385
2190.256
2121.618
2059.827
2004.507
1954.744
1909.633
1868.267
1829.726
1793.378
1758.928
1726.313
1695.663
1667.556
1643.095
1623.392
1608.858
1598.131
1589.579
1582.795
1576.979
1571.303
1565.553
1560.201
1556.291
1555.185
1558.13
1565.812
1578.018
1593.628
1612.461
1631.032
1647.52
1664.955
1684.145
1706.153
1732.244
1763.718
1801.322
1844.504
1891.187
1940.412
1990.828
2039.109
2085.825
2131.915
2177.833
2223.998
2270.22
2317.07
2365.828
2416.429
2469.439
2525.769
2585.123
2646.316
2708.595
2771.699
2834.868
2897.534
2959.846
3022.379
3085.657
3149.756
3214.512
3279.853
3345.799
3412.364
3479.495
3546.982
3614.447
3681.418
3747.576
3812.91
3877.774
3942.806
4008.736
4076.148
4145.506
4217.013
4290.388
4365.031
4440.142
4514.869
4588.567
4660.917
4731.83
4801.316
4869.363
4935.818
5000.243
5061.98
5120.505
5175.604
5227.268
5275.584
5320.678
5362.665
5401.736
5438.192
5472.389
5504.706
5535.541
5565.289
5594.335
5623.034
5651.698
5680.579
5709.877
5739.734
5770.238
5801.433
5833.319
5865.87
5899.031
5932.728
5966.876
6001.379
6036.131
6071.017
6105.911
6140.668
6175.111
6209.007
6242.076
6273.965
6304.173
6332.009
6357.038
6378.44
6394.805
6405.071
6408.723
6403.689
6387.681
6359.874
6320.342
6273.938
6221.505
6174.962
6121.017
6058.71
5984.585
5901.472
5815.933
5736.634
5672.212
5630.501
5613.488
5619.815
5648.05
5695.041
5757.02
5827.478
5899.565
5967.933
6026.795
6068.972
6087.839
6080.273
6046.342
5987.998
5910.492
5821.124
5729.163
5645.799
5581.421
5540.74
5527.075
5541.521
5581.484
5641.455
5714.704
5794.408
5874.723
5951.06
6021.13
6084.449
6139.913
6187.434
6227.693
6261.426
6289.462
6312.629
6331.651
6347.132
6359.588
6369.379
6376.762
6382.006
6385.436
6387.401
6388.085
6387.582
6386.051
6383.671
6380.601
6376.976
6372.913
6368.509
6363.848
6358.995
6354.004
6348.915
6343.766
6338.58
6333.44
6328.303
6323.197
6318.147
6313.176
6308.267
6303.408
6298.617
6293.91
6289.303
6284.814
6280.464
6276.29
6272.34
6268.662
6265.296
6262.266
6259.563
6257.148
6254.965
6252.965
6251.114
6249.372
6247.862
6246.463
6245.209
6244.107
6243.164
6242.387
6241.782
6241.355
6241.11
6241.048
6241.17
6241.469
6241.936
6242.559
6243.323
6244.212
6245.208
6246.282
6247.411
6248.586
6249.797
6251.044
6252.316
6253.584
6254.838
6256.077
6257.296
6258.488
6259.658
6260.811
6261.954
6263.099
6264.26
6265.459
6266.723
6268.089
6269.568
6271.197
6273.023
6275.1
6277.476
6280.141
6283.051
6286.173
6289.439
6292.775
6296.132
6299.473
6302.753
6305.926
6308.951
6311.8
6314.476
6316.976
6319.246
6321.928
6325.69
6329.619
6333.042
6336.122
6339.084
6342.076
6345.315
6349.037
6353.335
6358.171
6363.491
6369.22
6375
6380.535
6385.669
6390.375
6394.774
6399.088
6403.23
6407.103
6410.687
6413.973
6416.914
6419.247
6420.37
6419.765
6417.698
6414.218
6409.269
6402.764
6394.697
6385.058
6373.841
6361.156
6347.117
6331.785
6315.222
6297.584
6279.092
6259.957
6240.385
6220.623
6200.936
6181.597
6162.988
6145.584
6129.818
6115.793
6103.606
6093.64
6086.217
6081.576
6080.014
6081.647
6086.588
6094.85
6106.358
6120.94
6138.328
6158.171
6180.042
6203.451
6227.88
6252.802
6277.705
6302.099
6325.516
6347.57
6368.047
6386.768
6403.612
6418.485
6431.296
6442.142
6451.243
6458.736
6464.762
6469.474
6473.018
6475.541
6477.194
6478.123
6478.456
6478.291
6477.7
6476.754
6475.514
6474.019
6472.296
6470.367
6468.246
6465.933
6463.456
6460.856
6458.136
6455.297
6452.353
6449.318
6446.208
6443.047
6439.866
6436.702
6433.606
6430.645
6427.888
6425.393
6423.259
6421.481
6420.045
6418.894
3093.268
3042.18
2935.711
2900.46
2865.557
2832.603
2801.491
2771.828
2743.094
2715.021
2687.555
2659.222
2630.196
2600.235
2569.283
2537.088
2503.528
2468.432
2431.622
2393.379
2354.7
2314.715
2273.603
2231.785
2189.665
2147.284
2104.277
2060.505
2016.648
1973.404
1931.547
1892.734
1858.308
1828.628
1804.252
1786.228
1775.695
1773.525
1780.642
1797.86
1826.031
1865.906
1918.107
1983.258
2061.845
2154.143
2260.173
2379.602
2511.792
2655.664
2809.804
2972.335
3141.107
3313.392
3486.543
3658.509
3827.411
3991.774
4150.04
4299.604
4437.864
4561.994
4669.442
4758.238
4826.939
4874.567
4900.301
4903.476
4883.856
4841.687
4778.243
4695.582
4596.299
4483.891
4361.062
4230.844
4096.123
3957.442
3815.657
3672.101
3526.389
3379.064
3232.303
3087.689
2947.693
2815.499
2692.455
2578.368
2472.188
2372.642
2278.653
2189.382
2104.348
2023.399
1946.781
1875.271
1810.015
1752.019