/*--------------------------------*- C++ -*----------------------------------*\
| =========                 |                                                 |
| \\      /  F ield         | foam-extend: Open Source CFD                    |
|  \\    /   O peration     | Version:     3.1                                |
|   \\  /    A nd           | Web:         http://www.extend-project.de       |
|    \\/     M anipulation  |                                                 |
\*---------------------------------------------------------------------------*/
FoamFile
{
    version     2.0;
    format      ascii;
    class       volScalarField;
    location    "12.5";
    object      pd;
}
// * * * * * * * * * * * * * * * * * * * * * * * * * * * * * * * * * * * * * //

dimensions      [1 -1 -2 0 0 0 0];

internalField   nonuniform List<scalar> 
119952
(
5994.882
4943.811
4827.529
5031.309
5236.846
5165.727
5176.621
5204.795
5243.907
5288.841
5337.222
5389.337
5444.092
5500.857
5559.135
5618.401
5677.997
5736.682
5788.288
5807.966
6038.779
6011.605
6045.309
6308.089
6358.016
6433.996
6503.973
6598.531
6756.827
8528.856
3535.931
3479.677
3478.674
3472.031
3469.58
3467.348
3470.869
3477.116
3486.458
3474.677
3481.037
3510.27
3524.91
3544.176
3564.752
3588.957
3615.957
3645.337
3677.77
3748.57
3770.202
3791.945
3832.1
3875.526
3920.004
3967.162
4016.613
4066.902
4120.246
4164.413
4221.583
4282.146
4343.251
4406.536
4472.412
4541.281
4618.994
4739.665
4922.692
4872.169
4904.546
5024.181
5104.347
5142.787
5168.626
5204.596
5247.358
5294.07
5344.327
5397.644
5453.277
5510.748
5569.614
5629.463
5689.798
5750.188
5811.36
5877.468
5955.334
6039.953
6109.707
6221.703
6354.335
6432.24
6494.049
6552.333
6572.301
6527.548
6567.129
6636.778
6697.026
6755.402
6811.19
6864.215
6915.177
6964.353
7011.91
7057.897
7102.328
7145.231
7186.671
7226.764
7265.638
7303.403
7340.182
7376.127
7411.39
7446.106
7480.396
7514.349
7548.047
7581.538
7614.855
7648.012
7681.01
7713.837
7746.477
7778.945
7811.165
7843.13
7874.819
7906.201
7937.243
7967.893
7998.082
8027.701
8056.597
8084.561
8111.284
8136.356
8159.252
8179.331
8195.843
8207.944
8214.72
8215.347
8210.155
8197.082
8177.257
8153.211
8125.304
8095.719
8067.117
8041.496
8024.614
8020.453
8033.645
8067.16
8118.091
8155.004
8098.335
8037.487
8084.131
8127.106
8137.838
8146.956
8156.49
8162.392
8158.959
8142.936
8113.041
8069.589
8014.15
7949.412
7879.19
7808.73
7744.087
7690.445
7651.363
7628.849
7623.418
7634.265
7659.153
7695.382
7739.907
7789.464
7841.035
7892.059
7940.732
7985.989
8027.285
8064.378
8097.184
8125.795
8150.456
8171.375
8189.639
8206.457
8215.886
8226.732
8234.506
8240.254
8244.06
8245.936
8246.41
8245.672
8243.784
8240.985
8237.412
8233.184
8228.486
8223.291
8217.699
8211.791
8205.614
8199.246
8192.751
8186.18
8179.579
8172.98
8166.408
8159.875
8153.384
8146.931
8140.498
8134.071
8127.623
8121.104
8114.426
8107.418
8099.77
8090.448
8079.876
8083.49
8084.673
8084.716
8084.382
8083.907
8083.297
8082.738
8082.255
8081.881
8081.634
8081.538
8081.601
8081.832
8082.235
8082.81
8083.555
8084.466
8085.534
8086.748
8088.097
8089.565
8091.135
8092.791
8094.513
8096.285
8098.086
8099.901
8101.712
8103.507
8105.275
8107.001
8108.737
8111.179
8111.641
8125.926
8123.472
8116.428
8116.887
8118.236
8118.84
8119.645
8120.811
8122.122
8123.54
8125.12
8126.907
8128.932
8131.241
8133.87
8136.856
8140.256
8144.103
8148.338
8153.003
8158.169
8163.733
8169.766
8176.23
8181.763
8177.731
8174.622
8180.096
8189.271
8196.567
8202.62
8207.902
8212.118
8215.114
8216.796
8217.344
8217.45
8218.113
8220.245
8223.657
8227.188
8229.932
8231.641
8232.73
8233.693
8234.85
8235.748
8237.13
8239.234
8241.598
8243.918
8245.863
8247.075
8245.617
8242.856
8242.777
8240.228
8235.163
8228.738
8220.988
8211.888
8201.489
8189.821
8176.934
8162.927
8147.944
8132.162
8115.771
8098.994
8082.038
8065.166
8048.668
8032.835
8017.976
8004.393
7992.371
7982.172
7974.042
7968.212
7964.871
7964.127
7966.142
7970.949
7978.54
7988.841
8001.71
8016.934
8034.232
8053.268
8073.665
8095.023
8116.93
8138.975
8160.763
8181.929
8202.143
8221.139
8238.729
8254.807
8269.316
8282.232
8293.561
8303.328
8311.58
8318.38
8323.821
8328.015
8331.092
8333.18
8334.406
8334.886
8334.724
8334.015
8332.836
8331.254
8329.325
8327.092
8324.595
8321.863
8318.919
8315.78
8312.457
8308.957
8305.282
8301.43
8297.391
8293.154
8288.694
8283.979
8278.957
8273.548
8267.635
8261.042
8253.452
8244.293
8232.946
8221.679
8226.46
8280.145
6834.808
6705.749
6552.139
6396.34
6237.412
6077.354
5917.758
5759.695
5604.11
5441.425
5297.375
5159.399
5023.77
4896.66
4776.002
4662.052
4554.733
4453.618
4340.891
4271.39
4183.027
4099.443
4028.804
3963.947
3904.631
3850.708
3801.161
3757.428
3720.232
3671.74
3636.921
3606.647
3579.32
3555.811
3535.366
3518.107
3505.788
3502.365
3478.164
3464.863
3462.081
3460.611
3460.475
3463.291
3468.448
3476.417
3486.834
3494.804
3511.299
3530.472
3549.218
3570.201
3593.379
3619.649
3649.256
3685.391
3717.668
3756.837
3798.029
3840.32
3883.723
3928.806
3975.71
4024.272
4074.261
4125.977
4181.411
4238.072
4295.456
4355.078
4418.476
4486.443
4560.787
4642.102
4727.982
4809.38
4872.258
4926.319
4988.582
5052.306
5107.459
5153.997
5198.474
5245.464
5296.051
5349.649
5405.467
5463.004
5522.003
5582.282
5643.711
5706.311
5770.502
5837.238
5907.885
5983.632
6064.132
6148.691
6238.044
6327.371
6405.416
6467.83
6516.071
6550.88
6578.725
6616.038
6668.074
6725.883
6783.355
6838.167
6890.283
6940.329
6988.68
7035.404
7080.459
7123.836
7165.6
7205.875
7244.805
7282.539
7319.214
7354.985
7390.014
7424.455
7458.444
7492.099
7525.512
7558.751
7591.861
7624.866
7657.773
7690.574
7723.253
7755.832
7788.082
7820.166
7851.947
7883.44
7914.577
7945.292
7975.51
8005.137
8034.045
8062.047
8088.888
8114.226
8137.612
8158.481
8176.133
8189.771
8198.557
8201.654
8198.355
8188.218
8171.257
8147.809
8119.37
8088.573
8057.452
8027.783
8001.911
7983.387
7975.74
7980.397
8000.87
8023.457
8038.365
8040.105
8029.985
8058.681
8117.362
8152.182
8172.019
8182.846
8183.905
8174.745
8152.788
8116.749
8067.059
8005.458
7934.768
7859.137
7784.479
7717.643
7664.01
7626.072
7605.728
7603.901
7616.917
7645.068
7684.669
7732.214
7784.322
7837.866
7890.033
7939.098
7984.309
8025.346
8062.037
8094.397
8122.621
8146.956
8167.436
8183.188
8198.704
8207.967
8218.869
8227.105
8233.071
8237.098
8239.384
8240.226
8239.828
8238.37
8236.011
8232.873
8229.092
8224.789
8219.995
8214.83
8209.323
8203.531
8197.544
8191.407
8185.167
8178.86
8172.513
8166.148
8159.78
8153.414
8147.049
8140.68
8134.296
8127.878
8121.395
8114.797
8108.021
8101.076
8094.352
8089.028
8087.112
8086.759
8086.013
8085.184
8084.35
8083.504
8082.727
8082.048
8081.487
8081.065
8080.796
8080.692
8080.758
8081
8081.416
8082.006
8082.764
8083.682
8084.751
8085.959
8087.291
8088.731
8090.265
8091.873
8093.538
8095.244
8096.973
8098.712
8100.451
8102.183
8103.926
8105.709
8107.674
8110.306
8109.359
8111.724
8114.185
8114.983
8115.241
8115.869
8116.948
8118.265
8119.705
8121.275
8123.017
8124.969
8127.161
8129.615
8132.363
8135.436
8138.843
8142.59
8146.693
8151.104
8155.769
8160.57
8165.948
8169.818
8173.378
8175.253
8176.208
8180.883
8187.577
8193.909
8199.649
8204.731
8208.977
8212.104
8214.383
8216.144
8218.112
8221.238
8225.808
8230.734
8234.077
8235.146
8234.685
8233.947
8233.757
8234.264
8235.44
8237.406
8239.952
8242.576
8245.124
8247.33
8248.817
8249.327
8248.143
8245.74
8242.114
8237.104
8230.765
8222.989
8213.763
8203.156
8191.24
8178.082
8163.781
8148.483
8132.365
8115.627
8098.49
8081.185
8063.976
8047.146
8030.996
8015.83
8001.948
7989.632
7979.144
7970.725
7964.59
7960.902
7959.863
7961.577
7966.083
7973.381
7983.406
7996.024
8011.029
8028.129
8046.979
8067.212
8088.438
8110.247
8132.232
8154.002
8175.186
8195.411
8214.373
8231.933
8248.01
8262.551
8275.535
8286.968
8296.873
8305.275
8312.218
8317.798
8322.145
8325.39
8327.657
8329.069
8329.739
8329.771
8329.257
8328.275
8326.889
8325.152
8323.111
8320.804
8318.259
8315.499
8312.541
8309.395
8306.069
8302.564
8298.88
8295.01
8290.945
8286.666
8282.153
8277.36
8272.263
8266.783
8260.935
8254.727
8248.673
8243.732
8241.981
8243.886
8250.293
3963.294
3977.043
4009.07
4053.879
4112.478
4185.452
4272.783
4374.282
4489.68
4619.244
4759.183
4913.577
5076.528
5247.44
5424.718
5606.606
5790.499
5973.527
6156.258
6354.364
6525.462
6688.336
6841.024
6981.332
7106.61
7214.085
7301.769
7367.744
7420.639
7441.285
7439.779
7416.727
7372.561
7308.471
7226.024
7127.207
7014.298
6889.794
6744.865
6604.137
6453.942
6299.252
6141.711
5983.326
5825.763
5670.567
5519.616
5373.215
5230.025
5095.383
4965.075
4841.16
4723.761
4612.895
4509.526
4418.466
4284.555
4198.942
4125.196
4054.681
3987.582
3925.483
3869.03
3817.769
3771.015
3727.692
3687.479
3651.506
3618.643
3588.402
3561.568
3538.646
3519.51
3503.8
3490.758
3479.598
3470.782
3463.729
3458.28
3455.061
3454.545
3456.833
3461.888
3469.603
3479.963
3493.473
3509.099
3526.414
3545.716
3567.312
3591.096
3617.348
3645.732
3677.798
3714.981
3754.075
3792.981
3833.508
3876.697
3922.191
3969.449
4018.132
4068.423
4120.314
4173.678
4228.775
4285.891
4345.688
4408.761
4475.887
4546.531
4620.444
4695.953
4772.762
4839.578
4897.471
4956.276
5017.872
5076.664
5129.643
5179.502
5230.35
5283.889
5339.873
5397.633
5456.768
5517.128
5578.675
5641.434
5705.544
5771.332
5839.331
5910.183
5984.553
6062.872
6143.191
6223.938
6304.705
6379.941
6444.473
6498.756
6546.385
6588.923
6631.756
6682.299
6739.154
6796.619
6851.716
6904.071
6954.199
7002.483
7048.988
7093.657
7136.486
7177.563
7217.039
7255.092
7291.904
7327.651
7362.513
7396.673
7430.306
7463.562
7496.57
7529.428
7562.207
7594.95
7627.677
7660.386
7693.058
7725.664
7758.176
7790.527
7822.654
7854.549
7886.1
7917.278
7948.009
7978.184
8007.688
8036.38
8064.064
8090.462
8115.207
8137.834
8157.754
8174.217
8186.386
8193.408
8194.382
8188.602
8175.649
8155.366
8128.259
8096.207
8061.964
8027.445
7992.431
7951.967
7888.104
7879.999
7910.108
7928.695
7939.821
7952.143
7958.865
7971.165
8011.389
8067.846
8110.856
8144.25
8171.394
8184.7
8179.2
8156.151
8117.333
8063.991
7998.103
7922.888
7842.585
7762.986
7691.927
7635.574
7595.747
7574.164
7570.979
7587.386
7618.432
7661.225
7712.162
7767.746
7824.675
7879.438
7930.352
7977.058
8019.186
8056.548
8089.249
8117.586
8141.842
8162.484
8180.21
8197.449
8209.348
8218.279
8225.307
8230.559
8234.041
8235.914
8236.417
8235.753
8234.085
8231.559
8228.305
8224.442
8220.091
8215.312
8210.125
8204.957
8199.475
8193.749
8187.889
8181.934
8175.921
8169.876
8163.815
8157.749
8151.681
8145.61
8139.535
8133.451
8127.354
8121.248
8115.154
8109.149
8103.415
8098.284
8094.203
8091.402
8089.584
8088.125
8086.791
8085.535
8084.384
8083.367
8082.482
8081.739
8081.147
8080.719
8080.463
8080.385
8080.487
8080.769
8081.228
8081.858
8082.653
8083.601
8084.691
8085.909
8087.239
8088.664
8090.168
8091.732
8093.34
8094.976
8096.628
8098.283
8099.937
8101.579
8103.214
8104.79
8106.276
8107.25
8108.209
8109.044
8109.843
8110.813
8112.031
8113.444
8114.974
8116.596
8118.331
8120.215
8122.288
8124.577
8127.102
8129.882
8132.941
8136.288
8139.893
8143.747
8147.854
8152.131
8156.399
8160.688
8164.745
8168.318
8170.946
8173.669
8177.591
8183.062
8188.618
8193.861
8198.734
8203.122
8206.995
8210.47
8213.78
8217.189
8220.739
8224.349
8227.928
8231.344
8234.019
8235.911
8236.873
8236.813
8236.643
8237.23
8238.712
8240.981
8243.786
8246.664
8249.087
8250.69
8251.225
8250.576
8248.729
8245.463
8240.73
8234.526
8226.822
8217.639
8207.049
8195.123
8181.929
8167.563
8152.161
8135.886
8118.925
8101.485
8083.799
8066.132
8048.77
8032.021
8016.2
8001.613
7988.547
7977.262
7967.999
7960.978
7956.405
7954.473
7955.289
7958.919
7965.386
7974.65
7986.601
8001.059
8017.747
8036.302
8056.355
8077.519
8099.381
8121.526
8143.559
8165.121
8185.808
8205.179
8223.074
8239.474
8254.336
8267.641
8279.399
8289.632
8298.391
8305.706
8311.637
8316.315
8319.876
8322.449
8324.153
8325.104
8325.407
8325.158
8324.434
8323.286
8321.776
8319.955
8317.862
8315.529
8312.977
8310.226
8307.285
8304.163
8300.863
8297.389
8293.738
8289.907
8285.885
8281.664
8277.23
8272.583
8267.744
8262.783
8257.912
8253.426
8249.9
8247.677
8247.81
8249.839
4175.134
4137.08
4103.507
4069.259
4039.357
4014.178
3999.691
3998.217
4009.546
4000.386
3974.706
3959.459
3961.323
3977.341
4007.718
4051.388
4107.988
4178.17
4262.244
4359.515
4470.498
4594.316
4730.45
4878.444
5036.141
5202.331
5375.204
5552.771
5732.919
5912.92
6093.461
6308.699
6484.199
6645.044
6793.594
6929.331
7049.655
7152.064
7235.689
7300.478
7345.18
7364.828
7360.188
7333.079
7284.728
7216.51
7130.246
7028.076
6912.236
6785.024
6648.409
6504.601
6354.617
6200.171
6043.308
5885.938
5729.688
5576.325
5427.274
5283.485
5145.386
5013.577
4887.958
4768.292
4654.621
4546.94
4445.077
4348.397
4254.549
4170.146
4096.247
4026.86
3961.327
3901.029
3846.336
3796.672
3751.117
3709.245
3670.928
3635.39
3602.542
3572.954
3546.981
3524.837
3506.379
3491.155
3478.748
3469.034
3460.973
3453.719
3448.142
3444.931
3444.235
3446.178
3450.929
3458.703
3469.529
3482.985
3498.764
3516.612
3536.248
3557.656
3581.06
3606.845
3635.789
3668.257
3703.872
3741.89
3781.758
3823.91
3868.405
3914.618
3962.011
4010.406
4059.953
4110.693
4162.788
4216.759
4272.883
4331.437
4392.67
4456.935
4523.903
4593.151
4663.992
4734.748
4801.157
4862.562
4922.704
4983.566
5043.298
5100.046
5154.75
5209.702
5266.291
5324.649
5384.41
5445.284
5507.147
5570.01
5633.923
5698.954
5765.344
5833.493
5903.861
5976.809
6052.231
6129.103
6206.311
6282.905
6355.93
6422.598
6482.529
6537.393
6588.51
6639.032
6692.836
6749.972
6807.526
6863.197
6916.326
6967.118
7015.823
7062.49
7107.085
7149.627
7190.222
7229.043
7266.301
7302.216
7337.008
7370.901
7404.112
7436.845
7469.276
7501.552
7533.785
7566.055
7598.407
7630.861
7663.411
7696.033
7728.685
7761.32
7793.869
7826.267
7858.467
7890.365
7921.891
7952.964
7983.503
8013.356
8042.357
8070.29
8096.849
8121.631
8144.153
8163.803
8179.731
8190.97
8196.61
8195.803
8187.728
8171.806
8147.67
8115.591
8077.859
8038.037
7994.513
7906.111
7805.543
7779.224
7823.682
7854.691
7850.959
7847.233
7851.836
7864.194
7887.818
7927.361
7977.856
8028.249
8076.467
8119.311
8146.64
8151.702
8134.22
8096.612
8041.941
7973.336
7894.415
7809.783
7725.577
7650.578
7592.053
7551.685
7531.163
7531.301
7551.104
7587.223
7635.643
7692.176
7752.998
7814.438
7872.699
7926.377
7975.308
8018.964
8057.275
8090.475
8118.947
8143.095
8163.542
8180.926
8195.599
8206.385
8214.729
8221.538
8226.736
8230.173
8232.014
8232.512
8231.865
8230.238
8227.774
8224.607
8220.859
8216.639
8212.041
8207.139
8202.032
8196.705
8191.198
8185.643
8179.984
8174.272
8168.535
8162.788
8157.037
8151.286
8145.534
8139.784
8134.038
8128.306
8122.61
8116.998
8111.558
8106.424
8101.774
8097.797
8094.649
8092.279
8090.392
8088.724
8087.161
8085.739
8084.461
8083.34
8082.371
8081.56
8080.919
8080.454
8080.169
8080.068
8080.151
8080.415
8080.855
8081.464
8082.234
8083.152
8084.206
8085.379
8086.656
8088.02
8089.452
8090.937
8092.457
8094.001
8095.554
8097.109
8098.641
8100.143
8101.543
8102.849
8103.989
8105.019
8106.162
8107.439
8108.743
8110.058
8111.432
8112.897
8114.473
8116.178
8118.04
8120.088
8122.348
8124.838
8127.572
8130.56
8133.79
8137.24
8140.895
8144.721
8148.627
8152.521
8156.349
8159.881
8163.417
8166.486
8169.569
8173.31
8177.874
8182.678
8187.425
8191.99
8196.259
8200.183
8203.81
8207.299
8210.908
8214.928
8219.457
8224.247
8228.828
8232.283
8234.17
8235.195
8236.22
8237.749
8239.728
8241.577
8243.558
8245.994
8248.565
8250.954
8252.777
8253.596
8253.147
8251.374
8248.141
8243.401
8237.146
8229.377
8220.123
8209.431
8197.367
8184.013
8169.471
8153.871
8137.362
8120.111
8102.305
8084.18
8066
8048.061
8030.692
8014.232
7998.987
7985.261
7973.31
7963.365
7955.636
7950.346
7947.73
7947.916
7950.964
7956.921
7965.779
7977.445
7991.744
8008.406
8027.098
8047.444
8069.023
8091.382
8114.08
8136.711
8158.885
8180.192
8200.175
8218.596
8235.419
8250.599
8264.138
8276.072
8286.389
8295.12
8302.383
8308.318
8313.049
8316.683
8319.333
8321.119
8322.156
8322.555
8322.419
8321.834
8320.835
8319.463
8317.782
8315.832
8313.646
8311.247
8308.656
8305.873
8302.907
8299.77
8296.469
8293.006
8289.385
8285.604
8281.669
8277.588
8273.386
8269.118
8264.876
8260.826
8257.166
8254.184
8252.145
8251.366
8251.547
4613.955
4579.867
4545.827
4509.27
4470.365
4427.152
4386.641
4345.134
4303.662
4262.104
4221.09
4181.971
4143.048
4105.971
4072
4040.245
4010.61
3989.99
3975.697
3964.323
3951.591
3941.051
3937.884
3945.115
3964.24
3995.879
4040.353
4097.562
4167.163
4251.494
4349.707
4461.528
4586.422
4723.747
4872.906
5032.594
5200.88
5375.763
5555.084
5736.375
5917.058
6094.736
6260.003
6429.522
6588.823
6736.239
6870.622
6989.811
7092.171
7176.38
7240.913
7284.252
7304.05
7299.798
7272.385
7223.175
7153.826
7066.398
6963.239
6846.753
6719.164
6582.274
6438.351
6288.991
6135.384
5979.171
5821.896
5665.583
5512.608
5364.212
5221.378
5085.101
4955.459
4832.041
4714.895
4603.768
4498.447
4398.398
4303.884
4215.376
4134.495
4061.25
3993.761
3931.223
3873.848
3821.599
3773.933
3730.118
3689.679
3652.198
3617.287
3585.131
3556.178
3530.804
3509.291
3491.601
3477.29
3465.819
3456.651
3448.93
3442.225
3436.888
3433.353
3431.961
3433.142
3437.364
3444.969
3455.903
3469.756
3486.269
3504.277
3523.483
3544.128
3566.651
3591.671
3619.945
3651.727
3687.095
3725.929
3767.706
3811.88
3857.737
3904.409
3951.561
3999.263
4047.739
4097.222
4147.947
4200.297
4254.551
4310.879
4369.535
4430.902
4494.921
4561.317
4628.641
4695.757
4761.147
4823.986
4885.329
4946.434
5007.152
5066.75
5125.383
5184.07
5243.715
5304.603
5366.594
5429.459
5493.022
5557.19
5621.965
5687.433
5753.833
5821.542
5890.955
5962.313
6035.537
6110.163
6185.32
6259.944
6332.451
6401.349
6465.947
6526.782
6585.013
6642.293
6700.284
6759.256
6817.955
6874.892
6929.34
6981.24
7030.7
7077.766
7122.447
7164.795
7204.938
7243.078
7279.464
7314.361
7348.043
7380.783
7412.846
7444.475
7475.882
7507.241
7538.686
7570.311
7602.171
7634.288
7666.655
7699.241
7731.999
7764.866
7797.77
7830.637
7863.398
7895.959
7928.213
7960.077
7991.401
8022.067
8051.873
8080.567
8107.797
8133.102
8155.957
8175.775
8191.633
8202.456
8207.004
8204.515
8193.86
8174.223
8145.043
8105.645
8056.039
7992.299
7860.737
7790.053
7754.721
7777.998
7810.327
7789.719
7758.44
7741.565
7738.68
7749.074
7774.227
7814.993
7867.219
7924.001
7980.387
8032.542
8073.328
8092.593
8085.364
8054.446
8003.176
7935.071
7854.338
7766.404
7678.203
7599.428
7538.693
7498.076
7479.421
7483.605
7509.087
7552.043
7607.719
7671.176
7737.951
7804.147
7866.528
7923.634
7974.924
8020.112
8059.339
8093.004
8121.633
8145.775
8165.956
8182.613
8196.159
8206.677
8214.731
8221.001
8225.637
8228.647
8230.179
8230.438
8229.6
8227.813
8225.219
8221.957
8218.152
8213.908
8209.315
8204.446
8199.375
8194.142
8188.814
8183.349
8177.867
8172.361
8166.847
8161.337
8155.838
8150.354
8144.89
8139.449
8134.041
8128.681
8123.397
8118.234
8113.26
8108.564
8104.262
8100.471
8097.282
8094.671
8092.475
8090.534
8088.783
8087.173
8085.719
8084.403
8083.259
8082.282
8081.476
8080.847
8080.398
8080.133
8080.052
8080.155
8080.438
8080.895
8081.517
8082.294
8083.213
8084.257
8085.411
8086.659
8087.98
8089.359
8090.777
8092.222
8093.679
8095.137
8096.575
8097.983
8099.331
8100.632
8101.861
8103.046
8104.273
8105.526
8106.76
8107.997
8109.293
8110.691
8112.211
8113.871
8115.691
8117.699
8119.92
8122.373
8125.065
8127.995
8131.145
8134.484
8137.976
8141.574
8145.219
8148.849
8152.416
8155.975
8159.023
8162.044
8165.119
8168.526
8172.395
8176.593
8180.893
8185.072
8189.003
8192.684
8196.243
8199.906
8203.903
8208.346
8213.199
8218.168
8222.94
8227.097
8230.429
8233.203
8235.585
8237.619
8239.83
8242.624
8245.955
8249.056
8251.508
8253.576
8255.072
8255.764
8255.422
8253.759
8250.524
8245.733
8239.394
8231.512
8222.119
8211.255
8198.989
8185.418
8170.652
8154.815
8138.03
8120.416
8102.153
8083.495
8064.717
8046.13
8028.113
8011.001
7995.095
7980.725
7968.138
7957.538
7949.104
7943.084
7939.761
7939.274
7941.813
7947.428
7956.105
7967.745
7982.147
7999.038
8018.107
8038.965
8061.151
8084.189
8107.605
8130.946
8153.773
8175.664
8196.275
8215.35
8232.758
8248.454
8262.44
8274.695
8285.155
8293.878
8301.07
8306.924
8311.566
8315.102
8317.655
8319.351
8320.315
8320.661
8320.487
8319.87
8318.87
8317.548
8315.944
8314.088
8312.006
8309.723
8307.272
8304.644
8301.831
8298.853
8295.724
8292.452
8289.046
8285.513
8281.86
8278.113
8274.311
8270.515
8266.806
8263.314
8260.169
8257.57
8255.642
8254.511
8253.888
4943.806
4906.568
4872.551
4839.334
4808.697
4774.569
4744.437
4713.817
4682.19
4649.938
4617.047
4583.705
4548.474
4512.249
4473.072
4427.953
4387.089
4346.069
4304.742
4263.385
4222.126
4181.594
4141.972
4103.504
4066.83
4033.669
4004.626
3978.933
3957.103
3938.577
3923.443
3913.887
3911.965
3919.301
3937.08
3966.311
4007.937
4062.709
4131.196
4213.365
4309.37
4419.168
4542.331
4678.152
4825.661
4983.555
5150.082
5323.28
5501.113
5681.173
5861.171
6037.96
6207.72
6373.768
6530.998
6677.473
6810.674
6928.171
7028.814
7111.018
7172.916
7213.004
7229.907
7222.902
7192.445
7139.939
7067.305
6976.878
6871.262
6753.039
6624.644
6487.927
6344.694
6196.451
6044.168
5889.615
5734.157
5579.487
5428.353
5282.213
5141.822
5008.169
4881.333
4761.081
4647.49
4540.112
4438.494
4342.221
4251.583
4166.964
4088.716
4017.156
3952.029
3892.717
3838.699
3789.496
3744.472
3702.907
3664.229
3628.043
3594.193
3562.831
3534.384
3509.482
3488.741
3472.304
3459.444
3449.214
3440.988
3434.073
3427.946
3422.569
3418.323
3415.883
3416.086
3419.704
3427.18
3438.413
3452.75
3470.734
3488.751
3506.889
3526.27
3547.437
3571.202
3598.508
3630.101
3666.341
3706.9
3750.759
3797.065
3844.68
3892.019
3938.927
3985.844
4033.146
4081.138
4129.942
4179.995
4231.817
4285.474
4341.38
4400.171
4461.784
4525.422
4589.976
4654.754
4718.995
4782.032
4844.067
4905.87
4967.845
5029.83
5091.699
5153.75
5216.431
5279.982
5344.365
5409.374
5474.754
5540.25
5605.747
5671.334
5737.285
5804.031
5872.054
5941.704
6013.122
6086.154
6160.214
6234.451
6307.826
6379.33
6448.316
6514.834
6579.422
6642.748
6705.41
6767.566
6828.629
6887.599
6943.824
6997.132
7047.558
7095.159
7140
7182.166
7221.81
7259.177
7294.558
7328.273
7360.652
7392.027
7422.717
7453.016
7483.18
7513.42
7543.898
7574.728
7605.981
7637.685
7669.836
7702.403
7735.332
7768.554
7801.992
7835.558
7869.16
7902.701
7936.072
7969.143
8001.774
8033.768
8064.904
8094.885
8123.294
8149.605
8173.259
8193.591
8209.523
8219.835
8223.922
8220.12
8206.644
8182.468
8146.074
8085.884
7946.925
7752.667
7770.452
7833.068
7850.874
7810.855
7748.976
7690.728
7644.647
7616.533
7606.697
7613.961
7639.737
7683.236
7739.83
7802.282
7865.672
7925.488
7975.496
8007.687
8014.915
7994.326
7949.654
7885.046
7804.936
7715.377
7624.387
7542.624
7479.833
7439.08
7422.753
7431.829
7464.188
7515.284
7579.42
7650.747
7724.109
7795.271
7861.721
7922.289
7975.865
8022.415
8062.341
8096.216
8124.722
8148.526
8168.236
8184.379
8197.506
8207.893
8215.749
8221.45
8225.356
8227.787
8228.891
8228.785
8227.641
8225.601
8222.787
8219.345
8215.402
8211.064
8206.42
8201.54
8196.498
8191.341
8186.099
8180.792
8175.475
8170.153
8164.84
8159.557
8154.312
8149.104
8143.934
8138.813
8133.752
8128.769
8123.887
8119.142
8114.584
8110.278
8106.3
8102.721
8099.584
8096.875
8094.514
8092.412
8090.512
8088.772
8087.215
8085.722
8084.427
8083.304
8082.348
8081.563
8080.954
8080.525
8080.279
8080.216
8080.336
8080.634
8081.104
8081.735
8082.514
8083.425
8084.453
8085.578
8086.782
8088.044
8089.351
8090.689
8092.048
8093.411
8094.758
8096.083
8097.376
8098.638
8099.859
8101.052
8102.244
8103.431
8104.61
8105.809
8107.065
8108.409
8109.864
8111.451
8113.2
8115.142
8117.31
8119.725
8122.386
8125.281
8128.382
8131.637
8134.984
8138.443
8141.943
8145.375
8148.704
8151.91
8154.886
8157.774
8160.633
8163.567
8166.776
8170.365
8173.89
8177.556
8181.557
8185.31
8188.777
8192.389
8196.359
8200.722
8205.479
8210.552
8215.767
8220.784
8225.384
8229.51
8233.245
8236.623
8239.869
8243.109
8246.393
8249.843
8253.321
8256.115
8257.612
8258.065
8257.425
8255.553
8252.302
8247.551
8241.166
8233.153
8223.592
8212.527
8200.039
8186.247
8171.252
8155.096
8137.887
8119.816
8101.085
8081.931
8062.624
8043.442
8024.719
8006.848
7990.288
7975.325
7962.03
7950.608
7941.378
7934.621
7930.583
7929.501
7931.574
7936.874
7945.378
7956.991
7971.526
7988.709
8008.197
8029.58
8052.39
8076.129
8100.298
8124.41
8148.007
8170.618
8191.913
8211.676
8229.722
8245.991
8260.442
8272.978
8283.61
8292.52
8299.866
8305.795
8310.449
8313.965
8316.48
8318.134
8319.06
8319.374
8319.163
8318.493
8317.464
8316.152
8314.58
8312.77
8310.748
8308.537
8306.15
8303.598
8300.897
8298.057
8295.083
8291.988
8288.79
8285.5
8282.121
8278.682
8275.227
8271.818
8268.525
8265.447
8262.672
8260.34
8258.509
8257.16
8256.17
5092.002
5083.607
5055.687
5016.694
4975.647
4937.508
4901.612
4868.461
4837.439
4806.268
4771.399
4741.407
4711.428
4680.72
4649.032
4616.334
4582.503
4547.2
4510.419
4472.671
4434.749
4394.689
4353.831
4312.37
4270.729
4229.033
4187.457
4146.294
4105.73
4065.733
4027.382
3992.806
3961.938
3934.86
3912.006
3894.717
3884.663
3882.813
3890.296
3908.072
3936.964
3977.785
4031.218
4097.892
4178.14
4272.188
4380.034
4501.335
4635.432
4781.277
4937.481
5102.282
5273.64
5449.626
5627.373
5804.204
5977.611
6145.765
6307.832
6461.481
6605.018
6735.356
6849.62
6946.003
7022.987
7079.142
7113.255
7124.38
7112.011
7076.446
7018.996
6941.689
6847.133
6738.26
6617.803
6488.579
6352.539
6210.759
6064.854
5915.521
5764.281
5612.663
5461.806
5313.446
5169.788
5032.975
4903.808
4782.306
4668.064
4560.475
4458.945
4362.865
4271.774
4185.649
4104.76
4029.631
3960.993
3899.202
3843.882
3794.119
3749.008
3707.641
3669.101
3632.753
3598.303
3565.688
3535.038
3506.931
3482.47
3462.767
3448.233
3437.506
3428.954
3422.17
3416.354
3410.678
3404.928
3399.576
3395.666
3394.56
3397.505
3405.187
3417.393
3433.003
3451.836
3470.407
3486.895
3504.33
3523.52
3545.528
3571.619
3603.093
3640.697
3683.879
3730.562
3779.787
3830.203
3878.484
3925.2
3971.29
4017.208
4063.373
4109.595
4156.445
4205.203
4255.804
4308.814
4365.144
4424.498
4485.691
4547.97
4611.074
4674.243
4736.909
4799.221
4861.754
4925.032
4989.131
5053.887
5119.228
5185.174
5251.739
5318.87
5386.357
5453.822
5520.793
5586.951
5652.285
5717.149
5782.181
5848.111
5915.523
5984.88
6056.387
6129.763
6204.406
6279.517
6354.244
6427.942
6500.292
6571.205
6640.691
6708.737
6775.192
6839.618
6901.354
6959.88
7014.979
7066.643
7114.959
7160.053
7202.04
7241.111
7277.567
7311.764
7344.081
7374.916
7404.664
7433.71
7462.409
7491.073
7519.954
7549.252
7579.109
7609.613
7640.807
7672.694
7705.245
7738.406
7772.103
7806.251
7840.754
7875.505
7910.391
7945.286
7980.043
8014.486
8048.382
8081.451
8113.34
8143.548
8171.384
8196.413
8217.815
8234.18
8244.445
8248.091
8243.051
8227.034
8199.085
8155.831
7990.581
7668.072
7687.216
7862.117
7886.71
7822.189
7740.298
7655.228
7575.933
7511.15
7469.253
7452.353
7458.903
7487.337
7534.404
7596.389
7666.833
7738.909
7807.293
7866.168
7908.347
7927.214
7919.648
7885.717
7827.373
7749.867
7660.499
7568.538
7485.174
7420.795
7380.114
7366.449
7380.894
7420.856
7480.827
7554.078
7633.783
7714.098
7790.435
7860.505
7923.824
7979.288
8026.809
8067.068
8100.801
8128.837
8152.004
8171.026
8186.507
8198.963
8208.754
8216.137
8221.381
8224.811
8226.776
8227.46
8226.957
8225.426
8223.046
8219.976
8216.351
8212.287
8207.884
8203.223
8198.37
8193.379
8188.29
8183.141
8177.955
8172.815
8167.678
8162.572
8157.522
8152.55
8147.642
8142.783
8137.992
8133.285
8128.678
8124.189
8119.839
8115.665
8111.715
8108.037
8104.671
8101.641
8098.938
8096.523
8094.34
8092.34
8090.489
8088.747
8087.237
8085.838
8084.584
8083.482
8082.539
8081.762
8081.157
8080.73
8080.485
8080.423
8080.545
8080.844
8081.311
8081.934
8082.698
8083.587
8084.583
8085.656
8086.786
8087.961
8089.172
8090.419
8091.691
8092.959
8094.213
8095.452
8096.671
8097.863
8099.033
8100.185
8101.329
8102.474
8103.635
8104.834
8106.098
8107.464
8108.943
8110.572
8112.398
8114.474
8116.85
8119.512
8122.398
8125.355
8128.432
8131.898
8135.439
8138.843
8142.128
8145.301
8148.326
8151.175
8153.844
8156.269
8157.958
8156.89
8155.079
8162.675
8171.027
8175.405
8178.457
8181.451
8184.689
8188.411
8192.707
8197.535
8202.831
8208.492
8214.146
8219.674
8224.946
8229.738
8234.147
8238.461
8242.601
8246.472
8250.056
8253.347
8256.289
8258.622
8259.745
8259.14
8257.073
8253.593
8248.644
8242.139
8234.072
8224.433
8213.216
8200.531
8186.492
8171.16
8154.597
8136.959
8118.467
8099.332
8079.76
8059.998
8040.311
8020.972
8002.363
7984.959
7969.193
7955.168
7942.981
7933.015
7925.592
7920.951
7919.389
7921.022
7925.963
7934.225
7945.732
7960.313
7977.701
7997.545
8019.416
8042.826
8067.255
8092.177
8117.08
8141.474
8164.891
8186.945
8207.422
8226.143
8242.987
8257.86
8270.671
8281.517
8290.618
8298.111
8304.137
8308.849
8312.393
8314.916
8316.569
8317.494
8317.812
8317.619
8317.035
8316.115
8314.888
8313.394
8311.671
8309.742
8307.621
8305.308
8302.831
8300.231
8297.51
8294.671
8291.727
8288.692
8285.583
8282.422
8279.241
8276.077
8272.981
8270.02
8267.263
8264.768
8262.634
8260.856
8259.42
8258.269
5085.922
5065.493
5020.336
4985.085
4950.182
4917.228
4886.116
4856.453
4827.719
4799.646
4772.18
4743.847
4714.821
4684.86
4653.908
4621.713
4588.153
4553.057
4516.247
4478.004
4439.325
4399.34
4358.228
4316.41
4274.29
4231.909
4188.902
4145.13
4101.273
4058.029
4016.172
3977.359
3942.933
3913.254
3888.877
3870.853
3860.32
3858.15
3865.267
3882.485
3910.656
3950.531
4002.732
4067.883
4146.47
4238.768
4344.798
4464.227
4596.417
4740.289
4894.429
5056.96
5225.732
5398.017
5571.168
5743.134
5912.036
6076.399
6234.665
6384.229
6522.489
6646.619
6754.067
6842.863
6911.564
6959.192
6984.926
6988.101
6968.481
6926.312
6862.868
6780.207
6680.923
6568.516
6445.687
6315.469
6180.748
6042.067
5900.282
5756.726
5611.014
5463.689
5316.928
5172.314
5032.318
4900.124
4777.08
4662.993
4556.813
4457.267
4363.278
4274.007
4188.973
4108.024
4031.406
3959.896