/*--------------------------------*- C++ -*----------------------------------*\
| =========                 |                                                 |
| \\      /  F ield         | foam-extend: Open Source CFD                    |
|  \\    /   O peration     | Version:     3.1                                |
|   \\  /    A nd           | Web:         http://www.extend-project.de       |
|    \\/     M anipulation  |                                                 |
\*---------------------------------------------------------------------------*/
FoamFile
{
    version     2.0;
    format      ascii;
    class       volScalarField;
    location    "19";
    object      nut;
}
// * * * * * * * * * * * * * * * * * * * * * * * * * * * * * * * * * * * * * //

dimensions      [0 2 -1 0 0 0 0];

internalField   nonuniform List<scalar> 
119952
(
5.470716e-05
3.727635e-05
3.874739e-05
4.318413e-05
4.620387e-05
4.406237e-05
4.267681e-05
4.16529e-05
4.085021e-05
4.014844e-05
3.949649e-05
3.886669e-05
3.823958e-05
3.760355e-05
3.695285e-05
3.628477e-05
3.559771e-05
3.488888e-05
3.413673e-05
3.330563e-05
4.16325e-05
3.968678e-05
3.884041e-05
4.967307e-05
4.828118e-05
4.736999e-05
4.682177e-05
4.67152e-05
4.681689e-05
3.198328e-05
3.260436e-05
3.585692e-05
4.066741e-05
4.541577e-05
5.03118e-05
5.541436e-05
6.078095e-05
6.630005e-05
7.194357e-05
8.17781e-05
0.0003738395
0.0004294024
0.0004917319
0.0005576587
0.000624915
0.0006922824
0.0007592809
0.0008257535
0.0008910811
0.00125279
0.001316978
0.001380231
0.001442144
0.001503344
0.00156489
0.001627274
0.001690713
0.001755278
0.001819024
0.001886337
0.001950576
0.002012384
0.002072775
0.002132306
0.002191499
0.002251247
0.002311674
0.002376624
0.002188171
0.002449316
0.002461282
0.002481625
0.002496546
0.002500572
0.002496333
0.002485705
0.002472183
0.002458616
0.002445531
0.002432655
0.002419337
0.002405128
0.002390058
0.002374649
0.002359829
0.002346836
0.002337449
0.002334706
0.002338702
0.00234434
0.002350168
0.002366954
0.002387343
0.002391127
0.00237827
0.00234147
0.002239217
0.002051371
0.001988765
0.001945337
0.001917114
0.001896974
0.001880451
0.001866509
0.001854383
0.001843539
0.001833742
0.001824824
0.001816587
0.00180876
0.001801011
0.001793045
0.001784707
0.001775998
0.001767023
0.001757938
0.001748892
0.001739967
0.001731127
0.001722238
0.001713135
0.001703696
0.001693883
0.001683732
0.001673314
0.001662718
0.001652013
0.001641225
0.001630324
0.001619255
0.001607964
0.00159643
0.001584673
0.001572747
0.001560726
0.001548665
0.001536573
0.001524406
0.001512088
0.001499551
0.001486764
0.00147375
0.001460581
0.00144737
0.00143425
0.001421513
0.001410374
0.001400144
0.00138808
0.001375881
0.001364049
0.001351899
0.001339664
0.001327335
0.001314844
0.001302161
0.001289251
0.001276074
0.001262607
0.001248848
0.001234806
0.001220496
0.001205947
0.001191213
0.001176376
0.001161543
0.00114682
0.00113228
0.001117956
0.001103861
0.001090008
0.001076415
0.0010631
0.001050078
0.001037366
0.00102497
0.001012898
0.001001152
0.0009897309
0.0009786363
0.0009678744
0.0009574386
0.0009472959
0.0009373592
0.000927495
0.0009175126
0.000907197
0.0008963113
0.000884679
0.0008721926
0.000858923
0.0008450853
0.0008311171
0.0008175155
0.000804857
0.0007934785
0.0007859044
0.0006835913
0.0006399471
0.000615864
0.0005872973
0.0005684123
0.0005520381
0.0005387204
0.0005289142
0.0005227196
0.0005201229
0.0005208581
0.0005240749
0.0005286249
0.0005332346
0.000537066
0.0005380383
0.0005370976
0.0005362398
0.0005353963
0.0005336109
0.000530837
0.0005271092
0.0005225082
0.0005171434
0.000511145
0.0005046903
0.0004980725
0.000491538
0.0004852381
0.000479288
0.0004739154
0.0004690781
0.0004647021
0.0004608889
0.0004583046
0.0004604022
0.000468856
0.0004785824
0.0004877357
0.0004967236
0.0005055073
0.0005141161
0.0005226203
0.0005310349
0.0005393886
0.0005476848
0.0005559211
0.0005640853
0.0005721504
0.0005800708
0.0005877795
0.0005951854
0.0006021734
0.0006086058
0.0006143258
0.0006191623
0.0006229321
0.0006254449
0.0006265076
0.0006258812
0.0006235243
0.000619609
0.0006144916
0.0006022593
0.0005858819
0.000563973
0.0005261555
0.00047225
0.0004131955
0.0003676986
0.0004154593
0.0004024689
0.000439636
0.0005069821
0.0005885763
0.0006678487
0.0007407776
0.0008058936
0.0008640912
0.0009089596
0.0009373135
0.0009633788
0.0009891159
0.00101535
0.001042434
0.001070804
0.001101266
0.001134074
0.001168483
0.001203781
0.001238814
0.00127247
0.001303857
0.001332183
0.001356903
0.001377932
0.001395603
0.001410456
0.001423022
0.001433773
0.001443198
0.001451803
0.001460042
0.001468297
0.001476889
0.001486011
0.001495765
0.001506201
0.001517324
0.001529105
0.001541479
0.001554347
0.001567572
0.00158095
0.001594186
0.001606796
0.001617853
0.00162718
0.001634619
0.001639407
0.001640814
0.001637855
0.001629545
0.001614727
0.001593687
0.001561515
0.001522034
0.001476492
0.001426014
0.001371633
0.001313985
0.001252542
0.00119049
0.001131715
0.00107977
0.00103728
0.001004107
0.0009791252
0.0009611332
0.0009489846
0.0009417206
0.0009386562
0.0009393222
0.0009433052
0.0009501353
0.000959337
0.0009704187
0.0009826448
0.000994775
0.001006501
0.001018321
0.001030941
0.001044991
0.00106021
0.001076382
0.001093265
0.001110649
0.00112839
0.001146395
0.001164585
0.001182879
0.001201204
0.001219487
0.001237655
0.001255632
0.001273331
0.001290646
0.001307434
0.001323493
0.001338558
0.001352298
0.001364334
0.001374267
0.001381704
0.001386263
0.00138758
0.001385304
0.001379102
0.001368583
0.001353113
0.001331845
0.001303958
0.001268632
0.001224582
0.001172499
0.00111583
0.001059338
0.001009583
0.0009702911
0.000941915
0.0009230785
0.0009124338
0.0009017245
0.000892068
0.0008920745
0.0009016061
0.0009192218
0.0009438289
0.0009738557
0.001006348
0.00103807
0.001058359
0.001075776
0.001090832
0.001103016
0.001113534
0.001124133
0.001137147
0.0009256727
5.007484e-05
5.35664e-05
6.167195e-05
7.161391e-05
8.189894e-05
9.194859e-05
0.0001016057
0.0001108694
0.0001210568
0.0004412022
0.0005821694
0.0007321286
0.0008787349
0.00101494
0.001138481
0.00124965
0.001350121
0.001442034
0.002064377
0.002159537
0.002258286
0.002355603
0.002450969
0.002544049
0.002634541
0.002722194
0.002806645
0.002886557
0.002963292
0.003036016
0.003104961
0.003172658
0.00324054
0.003309121
0.003378211
0.003447359
0.00351566
0.003566905
0.003601332
0.003637459
0.003676152
0.003717976
0.003762896
0.003810915
0.003861749
0.003914732
0.003968716
0.004023678
0.004076894
0.004128545
0.004179099
0.004229071
0.004279335
0.004330585
0.004383016
0.004435442
0.005214253
0.005260202
0.005302681
0.005343005
0.005381653
0.005419407
0.005457231
0.00549578
0.005535537
0.005575978
0.005616278
0.005656174
0.005694715
0.005731098
0.005765353
0.005797853
0.005829508
0.005861966
0.005897688
0.005929944
0.005950644
0.005968978
0.005987213
0.005998682
0.006000817
0.005995873
0.005987253
0.005976904
0.005964845
0.005952145
0.005938625
0.005923409
0.005905998
0.005886468
0.00586558
0.005844655
0.005825409
0.005809657
0.005797315
0.005788653
0.005781166
0.005775991
0.005774943
0.005772023
0.005758171
0.005730355
0.005684781
0.005614816
0.005539131
0.005485636
0.005439032
0.005396209
0.005356835
0.005319138
0.00528243
0.00524663
0.00521194
0.005178739
0.005147403
0.005118029
0.005090317
0.005063702
0.00503762
0.005011697
0.004985823
0.004960102
0.004934803
0.004910275
0.004886784
0.004864356
0.004842766
0.004821652
0.004800675
0.004779628
0.004758443
0.004737167
0.004715952
0.004694975
0.004674322
0.004653937
0.004633664
0.004613316
0.004592763
0.004571975
0.004551029
0.004530069
0.004509228
0.004488538
0.004467894
0.004447077
0.004425845
0.00440401
0.004381517
0.004358469
0.004335174
0.004312043
0.004289412
0.004267763
0.004246829
0.004225501
0.004203628
0.004181386
0.004158663
0.004135417
0.004111608
0.004087194
0.004062107
0.004036207
0.004009307
0.00398121
0.003951745
0.003920761
0.003888114
0.003853697
0.003817504
0.003779698
0.003740605
0.003700639
0.003660204
0.003619615
0.003579108
0.003538878
0.003499112
0.003459956
0.0034215
0.003383747
0.003346676
0.003310184
0.003274144
0.003238326
0.003202546
0.003166542
0.003130183
0.003093176
0.003055382
0.003016404
0.002976098
0.002933881
0.002889661
0.002842695
0.002793137
0.002740274
0.002685023
0.002627012
0.002568281
0.002508776
0.00245174
0.002397489
0.00230171
0.00214628
0.00204434
0.001973535
0.001914286
0.001860558
0.001818328
0.001785926
0.001762189
0.001746219
0.001737137
0.001733996
0.001735856
0.001741911
0.001751614
0.001764617
0.001780664
0.001799566
0.001821114
0.001844975
0.00187075
0.001898017
0.001926341
0.001955291
0.001984119
0.002012599
0.002040944
0.002069048
0.002096923
0.002124673
0.002152412
0.002180306
0.002208525
0.002237238
0.002266622
0.002297205
0.002330398
0.002366162
0.002403426
0.002441877
0.002481312
0.002521551
0.002562456
0.002603913
0.002645836
0.002688138
0.002730713
0.00277341
0.002816005
0.002858153
0.002899366
0.002938973
0.002976118
0.003009755
0.003038689
0.00306159
0.00307705
0.003083611
0.003079858
0.00306446
0.003036402
0.002994871
0.002937063
0.002859679
0.002760735
0.002635181
0.002478357
0.002291827
0.002088386
0.001888433
0.001996948
0.001867312
0.001778291
0.001721777
0.001689812
0.001676798
0.001603712
0.001564277
0.001554981
0.001568196
0.001599309
0.001646303
0.001708095
0.001783067
0.001868721
0.001962381
0.002061967
0.002165906
0.00227085
0.002377091
0.00248475
0.002593753
0.002702956
0.002788719
0.002871002
0.002949515
0.003023872
0.003093867
0.003159484
0.003221034
0.003279003
0.003333998
0.003386591
0.003437596
0.003487712
0.003537523
0.00358753
0.003638179
0.00368985
0.003742851
0.003797394
0.003853606
0.003911499
0.003970941
0.004031571
0.004092696
0.004153303
0.004212298
0.004268292
0.004319704
0.004364365
0.004400267
0.004424658
0.004435024
0.004429608
0.004406226
0.004363655
0.004302092
0.004222475
0.004125848
0.004012837
0.003883287
0.0037371
0.003581913
0.003424224
0.003268359
0.003117998
0.002976251
0.002845641
0.002728089
0.002624905
0.002536801
0.002463931
0.002405936
0.002362004
0.002330997
0.002311558
0.002302205
0.002301442
0.002307848
0.002320105
0.002336988
0.002357364
0.002380051
0.00240488
0.002433076
0.002466057
0.002503829
0.002545932
0.002591935
0.002641421
0.002693993
0.002749271
0.002806891
0.002866497
0.002927725
0.002990173
0.003053359
0.003116686
0.003179421
0.003240701
0.003299585
0.003355118
0.003406399
0.003452583
0.003492824
0.003526123
0.003551169
0.003566198
0.003568933
0.003556625
0.003526159
0.003474115
0.003396857
0.003290894
0.003159068
0.003010267
0.002850675
0.002686425
0.002523661
0.002368654
0.002227436
0.002104861
0.002004082
0.001926284
0.001870804
0.001835176
0.001809633
0.001745757
0.001709482
0.001711734
0.001726331
0.001784032
0.00183203
0.001932548
0.001965177
0.001995873
0.001974125
0.002002912
3.238735e-05
3.964334e-05
5.058029e-05
6.357595e-05
7.911814e-05
9.784404e-05
0.0001209341
0.000150008
0.0001880268
0.0002554682
0.001042205
0.001215757
0.00140444
0.001598989
0.001784886
0.001922419
0.002059182
0.00220929
0.002503083
0.004586399
0.00481883
0.004959124
0.005082421
0.005189605
0.005285068
0.005369969
0.005445018
0.005514283
0.005596713
0.005760663
0.005941407
0.006087385
0.006193454
0.006268963
0.00632352
0.006364045
0.006395168
0.006425477
0.006329602
0.006308664
0.006324688
0.006358622
0.006399612
0.006441162
0.006479959
0.006514478
0.006544301
0.006569473
0.006589699
0.006607659
0.006625166
0.006642702
0.006660318
0.006677653
0.00669411
0.006707926
0.00747929
0.007493432
0.007501823
0.007507474
0.007512035
0.007516135
0.007520167
0.007524196
0.007528456
0.007532808
0.007536569
0.007540143
0.007544134
0.007548672
0.007554238
0.007561443
0.007570547
0.007581545
0.007594174
0.007606959
0.007618693
0.007629623
0.007639734
0.007649355
0.007659444
0.007671083
0.007685055
0.007701516
0.007719674
0.007738677
0.007757469
0.007774898
0.007790907
0.0078063
0.007822363
0.007840319
0.007861018
0.007885476
0.007895361
0.007907269
0.007919641
0.007931424
0.007942428
0.007953389
0.007965587
0.007980301
0.007998324
0.008019608
0.008043438
0.00806851
0.008092993
0.008115415
0.00813527
0.008152994
0.008169946
0.008187621
0.008206928
0.008226474
0.008243426
0.008257592
0.008269209
0.008275839
0.008275819
0.008269524
0.008259161
0.008247425
0.008236483
0.00822726
0.008219179
0.008210581
0.008199336
0.008184447
0.008166565
0.008147726
0.008130121
0.008115346
0.008103271
0.008094567
0.008088415
0.008083578
0.008079482
0.00807482
0.008060845
0.008034706
0.007997234
0.007945822
0.007888977
0.007841033
0.007801028
0.007764379
0.007729812
0.007695966
0.007661889
0.007627631
0.007593716
0.007560941
0.007530086
0.007501494
0.007474864
0.007449408
0.007424223
0.007398618
0.007372295
0.007345315
0.00731809
0.00729129
0.007265536
0.007241082
0.007217707
0.007194863
0.00717195
0.007148548
0.007124473
0.007099782
0.007074798
0.007049919
0.007025386
0.007001175
0.006977036
0.006952644
0.006927743
0.006902253
0.006876304
0.006850186
0.006824218
0.006798552
0.006773076
0.006747434
0.006721184
0.006693937
0.006665505
0.006635954
0.00660564
0.006575046
0.006544757
0.006515202
0.006486543
0.006458075
0.006429281
0.006400188
0.006370685
0.006340572
0.006309811
0.00627843
0.006246403
0.006213577
0.006179684
0.00614441
0.006107453
0.006068513
0.006027249
0.005983317
0.005936488
0.005886788
0.005834555
0.005780372
0.005724885
0.00566865
0.005612098
0.005555616
0.005499587
0.005444375
0.005390247
0.00533737
0.005285794
0.005235458
0.005186123
0.005137437
0.005088894
0.005040002
0.004990182
0.004938915
0.004885509
0.004829502
0.004770157
0.004707106
0.004639543
0.004567226
0.004489252
0.00440583
0.00431656
0.004222668
0.004124418
0.004023569
0.003920816
0.003821016
0.003729755
0.003641618
0.003558984
0.003481925
0.003410708
0.003345684
0.003287319
0.003236059
0.003192225
0.003155921
0.003127008
0.003105148
0.003089895
0.003080786
0.003077392
0.003079313
0.003086191
0.00309771
0.003113566
0.003133465
0.003157134
0.003184302
0.003214676
0.003247912
0.003283304
0.003319407
0.003357756
0.003398796
0.003442561
0.003489154
0.003538692
0.003591291
0.003647043
0.003706035
0.003768373
0.003834262
0.003904038
0.003977486
0.004053946
0.004133017
0.00421433
0.004297448
0.004382048
0.004467872
0.004554713
0.00464238
0.004730675
0.004819349
0.004908029
0.004996165
0.005082937
0.005167237
0.005247614
0.005322389
0.005389591
0.005447178
0.005492911
0.005524721
0.005540489
0.005538774
0.005518267
0.005478641
0.005419479
0.005338782
0.005233072
0.00509868
0.004931358
0.00473119
0.004501724
0.004252726
0.003934357
0.003642417
0.003391988
0.003178616
0.002995954
0.002842013
0.002716052
0.002617184
0.002544381
0.00249779
0.002475796
0.002475517
0.002460199
0.002420434
0.002414379
0.002437983
0.002486144
0.002554163
0.002637795
0.002731591
0.002831508
0.002935934
0.003043618
0.003153648
0.003264763
0.003377354
0.003493633
0.003612644
0.003699856
0.003783595
0.003864831
0.003943867
0.004021153
0.004097241
0.004172757
0.004248357
0.004324705
0.004402454
0.004482227
0.00456459
0.00464993
0.004738777
0.004831439
0.004927967
0.005028122
0.005131237
0.005236427
0.005342343
0.005447243
0.005548979
0.005645081
0.005732675
0.00580879
0.005870159
0.005913761
0.005936717
0.005937229
0.005915298
0.005871885
0.005807994
0.005724175
0.005620306
0.005495609
0.005349538
0.005187973
0.005015228
0.004835675
0.004653856
0.004474303
0.004301347
0.00413867
0.003989318
0.003855573
0.003738875
0.00363983
0.003558339
0.003493674
0.003444723
0.003410153
0.003388562
0.003378543
0.003378756
0.003387929
0.003404867
0.003428417
0.003457287
0.0034902
0.00352888
0.003574948
0.00362798
0.003687488
0.003752967
0.003823907
0.003899763
0.003980076
0.004064343
0.004151977
0.004242259
0.004334297
0.004426974
0.004519077
0.004609303
0.0046964
0.004779297
0.0048571
0.004929017
0.00499404
0.005050686
0.005096839
0.005129734
0.005146054
0.005142136
0.005114231
0.005058616
0.004971726
0.004850001
0.004694727
0.004512822
0.004308067
0.004085541
0.003852036
0.003615965
0.003386313
0.003171865
0.002979463
0.002813928
0.002677413
0.002570097
0.002490125
0.002434776
0.00240029
0.002383508
0.002380387
0.002388709
0.002404911
0.002428773
0.002457383
0.002492097
0.002527473
4.064448e-05
6.596195e-05
0.0001472859
0.0004994725
0.0008620823
0.001553079
0.002086055
0.002735263
0.00348171
0.004095212
0.004545403
0.00490602
0.00526153
0.005618695
0.005985251
0.006353791
0.00672359
0.007076211
0.007403956
0.007722642
0.008027037
0.008303198
0.008526992
0.008710257
0.008873088
0.009014382
0.009131358
0.009222494
0.009287232
0.009340245
0.009412092
0.009395416
0.009089387
0.008845613
0.008630598
0.008453508
0.008316369
0.008219942
0.00816499
0.008143268
0.008134902
0.008157393
0.008206097
0.008274972
0.008359891
0.008462117
0.008582904
0.008719649
0.008873691
0.009053767
0.009249247
0.009426553
0.009627045
0.00983005
0.009846379
0.009860141
0.009870456
0.009876883
0.009879594
0.009879102
0.009876266
0.009872058
0.009867129
0.009861635
0.009855667
0.009848671
0.009840973
0.009833087
0.009802762
0.00977593
0.009752164
0.00973104
0.00971243
0.009696282
0.009682486
0.009670761
0.009660695
0.009651726
0.009643248
0.009635036
0.009627011
0.009619358
0.009612746
0.009608099
0.009606146
0.009607142
0.009610734
0.009615819
0.009620988
0.009625137
0.009627757
0.00962929
0.009631034
0.009634613
0.00964144
0.009652304
0.009666927
0.009683665
0.009700315
0.009715071
0.009727433
0.009738183
0.009749144
0.009762234
0.009779107
0.009799963
0.009823295
0.009847248
0.009869527
0.009888457
0.009903801
0.009916756
0.009929515
0.009944517
0.009963606
0.009987433
0.01
0.01
0.01
0.01
0.01
0.01
0.01
0.01
0.01
0.01
0.01
0.01
0.01
0.01
0.01
0.01
0.01
0.01
0.01
0.01
0.01
0.01
0.01
0.01
0.01
0.01
0.01
0.01
0.01
0.01
0.01
0.01
0.01
0.01
0.01
0.01
0.01
0.01
0.009970285
0.00992781
0.00989046
0.00985715
0.009825773
0.009794368
0.009762007
0.009728832
0.009695434
0.009662956
0.009632732
0.009605515
0.009581121
0.009558577
0.009536591
0.009514036
0.009490244
0.009464988
0.009438595
0.009412026
0.009386327
0.009362054
0.009339031
0.009316496
0.009293509
0.009269347
0.009243619
0.009216263
0.009187768
0.009158859
0.00913004
0.009101397
0.009072642
0.009043335
0.00901311
0.008981821
0.008949603
0.008916873
0.00888419
0.008851971
0.008820257
0.008788686
0.00875667
0.008723649
0.008689272
0.00865347
0.008616534
0.008578994
0.008541456
0.008504489
0.008468332
0.008432801
0.008397561
0.008362325
0.008326809
0.008290794
0.008254235
0.008217262
0.008180004
0.008142405
0.00810421
0.008065075
0.008024697
0.007982794
0.007938982
0.007892736
0.007843533
0.007791079
0.007735495
0.007677332
0.007617364
0.007556271
0.007494517
0.007432481
0.007370603
0.00730938
0.007249231
0.007190454
0.007133224
0.0070776
0.007023425
0.006970344
0.006917769
0.006865063
0.006811495
0.00675628
0.006698488
0.006637345
0.006571946
0.006501664
0.006425712
0.006343446
0.006253788
0.006156253
0.006050352
0.005936621
0.005815571
0.005688688
0.005557214
0.005423448
0.005291123
0.005159258
0.005029872
0.004905198
0.004786941
0.004676572
0.004575397
0.004484404
0.004404212
0.004335038
0.004276735
0.004228864
0.004190804
0.004161847
0.004141263
0.004128339
0.004122408
0.004122865
0.004129159
0.004140807
0.004157406
0.004178609
0.004204133
0.004233759
0.004267179
0.004303676
0.004341336
0.004382431
0.004427379
0.004476505
0.004530131
0.004588677
0.004652513
0.004721924
0.004797107
0.004878168
0.004965101
0.005057643
0.005155248
0.005257295
0.005363156
0.00547219
0.005583892
0.00569785
0.005813697
0.00593108
0.00604966
0.006169045
0.006288697
0.006407844
0.006525376
0.00663978
0.006749179
0.006851404
0.006944087
0.007024724
0.007090751
0.007139693
0.007169386
0.007178196
0.007164906
0.007128163
0.007066727
0.006980916
0.006869338
0.006731312
0.006564943
0.006372073
0.006153221
0.005911886
0.005650487
0.005378745
0.005106283
0.004838902
0.004580558
0.004335382
0.004107506
0.00390076
0.00371922
0.003565374
0.003441119
0.003346902
0.003281695
0.003243279
0.003228787
0.003235042
0.00325835
0.003296329
0.003346344
0.003406171
0.00347389
0.003547871
0.003626309
0.003707173
0.003787911
0.003868319
0.00394932
0.00403122
0.00411348
0.004195756
0.004277939
0.004360139
0.004442643
0.004525874
0.004610364
0.004696724
0.004785626
0.00487778
0.004973921
0.005074774
0.005181018
0.00529325
0.005411921
0.005537258
0.005669173
0.005807055
0.00594999
0.00609642
0.006244199
0.006390729
0.006533081
0.006667981
0.006791944
0.006901164
0.006991902
0.007061
0.007106508
0.007128251
0.007127502
0.007105874
0.007064291
0.007002734
0.006920543
0.006816739
0.006692417
0.006550277
0.006393399
0.006225492
0.006050747
0.005873631
0.005698592
0.005529794
0.005370893
0.005224842
0.005093763
0.004978936
0.004880907
0.004799627
0.004734614
0.004685099
0.00465014
0.004628702
0.004619709
0.00462208
0.00463471
0.004656459
0.004686152
0.004722476
0.004766033
0.004818846
0.004880286
0.004949706
0.005026471
0.005109955
0.005199533
0.00529456
0.005394301
0.005497851
0.005604047
0.005711447
0.005818426
0.005923372
0.006024943
0.00612224
0.006214762
0.006302111
0.006383553
0.006457662
0.006522169
0.006574061
0.006609833
0.006625806
0.006618452
0.006584649
0.006521766
0.006427421
0.00629875
0.006136774
0.005943858
0.005721286
0.005472164
0.005201943
0.00491828
0.004630536
0.004348627
0.004081854
0.003837839
0.003621986
0.003437399
0.003284945
0.003163752
0.003071549
0.003005324
0.002961596
0.002936988
0.002928235
0.002932741
0.002947832
0.002971922
2.285795e-05
3.703532e-05
5.596311e-05
0.0002439342
0.000399865
0.0006795923
0.0009560399
0.001209981
0.001529866
0.001842721
0.002182274
0.002623682
0.003147331
0.003742426
0.004414196
0.005273938
0.006898298
0.007555553
0.008186982
0.008753887
0.009249006
0.009669767
0.01
0.01
0.01
0.01
0.01
0.01
0.01
0.01
0.01
0.01
0.01
0.01
0.01
0.01
0.01
0.01
0.009995839
0.009544668
0.008980596
0.008472119
0.008291629
0.008035785
0.007776699
0.007558526
0.007381922
0.007246655
0.007152522
0.007098942
0.007080066
0.007089414
0.007125113
0.007186487
0.007270593
0.00737292
0.007493935
0.007634639
0.007797104
0.00798753
0.008202979
0.008462596
0.008748819
0.009049196
0.009357122
0.009655721
0.009966109
0.01
0.01
0.01
0.01
0.01
0.01
0.01
0.01
0.01
0.01
0.01
0.01
0.01
0.01
0.01
0.01
0.01
0.01
0.01
0.01
0.01
0.01
0.01
0.01
0.01
0.01
0.01
0.01
0.01
0.01
0.01
0.01
0.01
0.01
0.01
0.01
0.01
0.01
0.01
0.01
0.01
0.01
0.01
0.01
0.01
0.01
0.01
0.01
0.01
0.01
0.01
0.01
0.01
0.01
0.01
0.01
0.01
0.01
0.01
0.01
0.01
0.01
0.01
0.01
0.01
0.01
0.01
0.01
0.01
0.01
0.01
0.01
0.01
0.01
0.01
0.01
0.01
0.01
0.01
0.01
0.01
0.01
0.01
0.01
0.01
0.01
0.01
0.01
0.01
0.01
0.01
0.01
0.01
0.01
0.01
0.01
0.01
0.01
0.01
0.01
0.01
0.01
0.01
0.01
0.01
0.01
0.01
0.01
0.01
0.01
0.01
0.01
0.01
0.01
0.01
0.01
0.01
0.01
0.01
0.01
0.01
0.01
0.01
0.01
0.01
0.01
0.01
0.01
0.01
0.01
0.01
0.01
0.01
0.01
0.01
0.01
0.01
0.01
0.01
0.01
0.01
0.01
0.01
0.01
0.01
0.009995817
0.00995281
0.009910606
0.009869444
0.00982928
0.009789896
0.00975096
0.009712074
0.009672878
0.009633249
0.009593425
0.009553789
0.009514512
0.009475455
0.009436342
0.009396992
0.009357361
0.009317296
0.009276298
0.009233595
0.009188435
0.009140445
0.009089868
0.009037549
0.008984267
0.008930396
0.00887606
0.00882149
0.008767131
0.008713444
0.008660743
0.008609212
0.008558971
0.008509998
0.008462046
0.008414605
0.008367069
0.00831879
0.00826894
0.008216555
0.008160769
0.008100716
0.00803572
0.007965196
0.007888383
0.007804065
0.007711087
0.007608608
0.007496398
0.007374794
0.00724473
0.007107586
0.00696508
0.006819341
0.006671561
0.006522959
0.00637527
0.006230549
0.006091047
0.005959018
0.005836473
0.005724987
0.00562559
0.005538755
0.005464457
0.005402284
0.005351567
0.005311474
0.005281103
0.005259543
0.005245917
0.005239407
0.005239271
0.00524486
0.005255611
0.005271103
0.005291038
0.005315176
0.005343336
0.005374673
0.005408151
0.005446345
0.005489853
0.005539345
0.005595529
0.005659057
0.005730444
0.005810024
0.005897909
0.005993953
0.006097746
0.006208663
0.006325928
0.006448705
0.006576192
0.006707702
0.006842625
0.006980338
0.007120228
0.007261695
0.007404115
0.007546742
0.007688574
0.00782816
0.007963528
0.008092418
0.008212357
0.008320779
0.008415035
0.008492454
0.008550502
0.008587087
0.008600763
0.008590701
0.008556014
0.00849662
0.008413425
0.008306404
0.008175777
0.008021619
0.007845374
0.007648257
0.007432403
0.007201072
0.006957422
0.006703767
0.006442244
0.006175688
0.005907775
0.005642697
0.005384925
0.00513925
0.004910515
0.004703328
0.004521479
0.004367527
0.004242707
0.004146974
0.004079106
0.004036897
0.00401763
0.004018368
0.004036203
0.004068404
0.004112501
0.004166238
0.004227492
0.004294205
0.004364298
0.004435075
0.004505256
0.004575805
0.004647856
0.0047213
0.004796293
0.004873197
0.004952546
0.005034988
0.005121251
0.005212119
0.005308425
0.00541103
0.005520806
0.005638588
0.005765115
0.005900953
0.006046395
0.00620135
0.006365119
0.006536575
0.006713814
0.00689422
0.007074681
0.007251799
0.00742195
0.007581314
0.007725846
0.007851527
0.007954973
0.008034245
0.008089581
0.008123144
0.008137369
0.008133477
0.008111456
0.008070757
0.008010773
0.007930866
0.007831976
0.007715972
0.007585399
0.007443426
0.0072937
0.007140141
0.00698671
0.006837179
0.006694901
0.006562654
0.006442565
0.006336108
0.006244165
0.006167109
0.006104926
0.006057302
0.006023715
0.006003498
0.005995876
0.005999984
0.006014887
0.006039576
0.006072977
0.006113884
0.006163391
0.006222112
0.006289242
0.006364054
0.006445862
0.006534009
0.006627833
0.006726548
0.006829102
0.006934066
0.00703966
0.007143968
0.007245288
0.007342513
0.007435317
0.007523963
0.007608727
0.007689224
0.007764027
0.007830657
0.007885917
0.007926327
0.007948482
0.007949353
0.007926582
0.007878629
0.007804446
0.007702411
0.007569458
0.007405831
0.007210497
0.006983232
0.006725742
0.006442003
0.006138226
0.005822481
0.005503908
0.005191957
0.004895293
0.004621443
0.004375757
0.004161937
0.00398103
0.003833204
0.003716264
0.003628362
0.003565513
0.003525535
0.003503881
0.003499991
2.098333e-05
3.231655e-05
6.436497e-05
0.0001950874
0.0003133927
0.0004981261
0.0006381188
0.0007967302
0.000983603
0.00116588
0.00137933
0.001655528
0.001970753
0.002346664
0.002836235
0.003777997
0.004222176
0.004700987
0.005205593
0.005734631
0.006293128
0.006871368
0.007452672
0.008021275
0.008559928
0.009061143
0.009540294
0.01
0.01
0.01
0.01
0.01
0.01
0.01
0.01
0.01
0.01
0.01
0.01
0.01
0.01
0.01
0.01
0.01
0.01
0.01
0.009810435
0.009346004
0.008871785
0.008412557
0.007980378
0.007588064
0.007270528
0.006973852
0.006738912
0.006559016
0.006423331
0.006329514
0.006277921
0.006267871
0.00629727
0.006363015
0.006460175
0.006585566
0.00673566
0.006903715
0.007093757
0.007306214
0.007555935
0.007865432
0.008245102
0.008683871
0.009167315
0.009663168
0.01
0.01
0.01
0.01
0.01
0.01
0.01
0.01
0.01
0.01
0.01
0.01
0.01
0.01
0.01
0.01
0.01
0.01
0.01
0.01
0.01
0.01
0.01
0.01
0.01
0.01
0.01
0.01
0.01
0.01
0.01
0.01
0.01
0.01
0.01
0.01
0.01
0.01
0.01
0.01
0.01
0.01
0.01
0.01
0.01
0.01
0.01
0.01
0.01
0.01
0.01
0.01
0.01
0.01
0.01
0.01
0.01
0.01
0.01
0.01
0.01
0.01
0.01
0.01
0.01
0.01
0.01
0.01
0.01
0.01
0.01
0.01
0.01
0.01
0.01
0.01
0.01
0.01
0.01
0.01
0.01
0.01
0.01
0.01
0.01
0.01
0.01
0.01
0.01
0.01
0.01
0.01
0.01
0.01
0.01
0.01
0.01
0.01
0.01
0.01
0.01
0.01
0.01
0.01
0.01
0.01
0.01
0.01
0.01
0.01
0.01
0.01
0.01
0.01
0.01
0.01
0.01
0.01
0.01
0.01
0.01
0.01
0.01
0.01
0.01
0.01
0.01
0.01
0.01
0.01
0.01
0.01
0.01
0.01
0.01
0.01
0.01
0.01
0.01
0.01
0.01
0.01
0.01
0.01
0.01
0.01
0.01
0.01
0.01
0.01
0.01
0.01
0.01
0.01
0.01
0.01
0.01
0.01
0.01
0.01
0.01
0.01
0.01
0.01
0.01
0.01
0.01
0.01
0.01
0.01
0.009974409
0.009939543
0.009904145
0.009868438
0.009832123
0.009795006
0.009757307
0.009719409
0.009681504
0.009643579
0.009605604
0.009567536
0.009529177
0.009490077
0.009449701
0.009407501
0.009362732
0.009314775
0.009263128
0.009207614
0.009148253
0.009085088
0.009017834
0.008945545
0.008866788
0.008780118
0.008684559
0.008579865
0.008466461
0.008345402
0.008218116
0.008086173
0.007950678
0.007812197
0.007671332
0.007529222
0.007387696
0.007249131
0.007116119
0.006991106
0.006876094
0.00677248
0.006681017
0.006601882
0.006534788
0.006479117
0.006434043
0.006398629
0.00637191
0.006352938
0.006340822
0.006334755
0.006333993
0.006338017
0.006346447
0.006359073
0.006375822
0.006396595
0.006420217
0.006447996
0.006481899
0.006522954
0.006572226
0.006630675
0.006699058
0.006777849
0.00686719
0.006966866
0.007076356
0.007194932
0.007321665
0.007455527
0.007595494
0.007740553
0.007889701
0.008041975
0.008196412
0.008352165
0.008508514
0.008664665
0.008819462
0.008971081
0.009116707
0.009254088
0.009380835
0.009494485
0.009592503
0.009672274
0.009731304
0.009767665
0.009780283
0.009768882
0.009733482
0.009675332
0.009596174
0.009496914
0.009378443
0.009241653
0.009087916
0.008918336
0.008734004
0.008536749
0.008327953
0.008108025
0.007877202
0.00763639
0.007387324
0.007132401
0.006874522
0.006617072
0.006363995
0.00611984
0.005889393
0.005677263
0.005487542
0.005323447
0.005186982
0.00507876
0.004998076
0.004943142
0.004911412
0.004899913
0.004905527
0.004925192
0.004956031
0.004995443
0.005041176
0.00509132
0.005144255
0.005197959
0.005251143
0.00530582
0.005363892
0.005425851
0.005492352
0.005564161
0.005642116
0.005727102
0.005820042
0.00592189
0.006033604
0.006156093
0.006290145
0.006436319
0.006594821
0.006765379
0.006947015
0.007138171
0.007336424
0.007538607
0.007741085
0.007940059
0.008131679
0.008311993
0.00847688
0.008622312
0.008745104
0.008843827
0.008919471
0.008975096
0.009013736
0.009036747
0.009044138
0.009035537
0.009010692
0.008967978
0.008907779
0.008831244
0.008740137
0.008636785
0.008523984
0.008404857
0.008282681
0.008160698
0.008041941
0.007929111
0.007824488
0.007729865
0.00764654
0.00757536
0.007516786
0.007470973
0.007437814
0.007416998
0.00740805
0.007410357
0.007423175
0.007445637
0.007476776
0.007515586
0.00756138
0.007615084
0.007675998
0.007743436
0.007816792
0.007895553
0.007979212
0.008067067
0.008157969
0.008250214
0.00834169
0.00843027
0.008514372
0.008593449
0.008668137