/*--------------------------------*- C++ -*----------------------------------*\
| =========                 |                                                 |
| \\      /  F ield         | foam-extend: Open Source CFD                    |
|  \\    /   O peration     | Version:     3.1                                |
|   \\  /    A nd           | Web:         http://www.extend-project.de       |
|    \\/     M anipulation  |                                                 |
\*---------------------------------------------------------------------------*/
FoamFile
{
    version     2.0;
    format      ascii;
    class       volScalarField;
    location    "19";
    object      omega;
}
// * * * * * * * * * * * * * * * * * * * * * * * * * * * * * * * * * * * * * //

dimensions      [0 0 -1 0 0 0 0];

internalField   nonuniform List<scalar> 
119952
(
411.7948
527.1157
502.2676
438.5763
394.3678
398.4367
405.6062
414.3853
424.2571
434.9604
446.3692
458.4118
471.052
484.2841
498.1266
512.62
527.8336
543.8887
561.1209
580.8421
486.1457
485.2956
491.1585
412.2722
404.8855
401.1653
398.0238
395.1025
388.4652
218.6782
825.7916
694.8901
588.7135
511.3171
453.1311
408.1108
372.0458
342.4929
317.687
290.1752
245.1754
213.2713
190.959
174.3575
161.2531
150.4023
141.1273
133.0444
125.9267
97.83441
93.99336
90.23542
86.5669
83.07457
79.80663
76.7764
73.97874
71.39436
69.01741
66.92016
64.94633
63.0592
61.26708
59.56397
57.93847
56.36587
54.81913
53.29717
52.87377
52.66691
52.06853
51.59522
51.2943
51.10586
50.91899
50.77408
50.67219
50.58575
50.51018
50.45084
50.41566
50.40687
50.41922
50.44022
50.45102
50.424
50.31236
50.04965
49.72742
49.43447
49.00181
48.53745
48.39495
48.42898
48.71175
49.64309
52.15647
55.988
56.75561
57.2586
57.41024
57.43562
57.42445
57.39077
57.34966
57.3092
57.27127
57.23794
57.21311
57.20213
57.20984
57.23832
57.28612
57.34931
57.42314
57.50317
57.58647
57.67299
57.76571
57.86897
57.98623
58.11885
58.26611
58.42623
58.59719
58.7772
58.96562
59.16321
59.3716
59.59223
59.82567
60.07135
60.32791
60.59377
60.86809
61.15146
61.44622
61.75568
62.08281
62.42904
62.79367
63.17391
63.5653
63.96246
64.35899
64.73524
65.04038
65.34973
65.85216
66.4067
66.98025
67.58004
68.18849
68.8034
69.4256
70.05692
70.70106
71.36215
72.04352
72.74741
73.47553
74.2285
75.005
75.801
76.60999
77.42414
78.23637
79.04194
79.83849
80.62483
81.39987
82.16363
82.91773
83.66555
84.41078
85.15818
85.91316
86.68098
87.46611
88.27086
89.09552
89.93943
90.80368
91.69236
92.61468
93.58498
94.62441
95.75695
97.00883
98.39927
99.93778
101.6118
103.3903
105.2132
107.0081
108.6842
109.8783
113.6965
121.216
126.19
129.125
130.7913
131.4267
131.3547
130.7176
129.624
128.1448
126.3734
124.4355
122.4665
120.5892
118.8416
117.1825
115.5959
114.0875
112.6284
111.3528
110.2724
109.3931
108.7175
108.2451
107.9749
107.8999
108.0033
108.2707
108.6894
109.2414
109.8866
110.6298
111.4683
112.363
113.139
112.7295
111.5715
110.6131
109.5717
108.4774
107.3755
106.2645
105.1629
104.0815
103.0283
102.0113
101.0371
100.1115
99.24071
98.43147
97.69146
97.02954
96.45573
95.98139
95.6194
95.38454
95.29457
95.37268
95.65143
96.18786
97.05978
98.27289
99.80354
101.276
103.4699
107.6442
114.4918
123.6433
134.0549
143.9065
131.2007
137.2735
138.94
135.5159
127.7831
117.9862
108.0233
98.89319
90.94776
84.21853
78.56397
73.79248
69.71371
66.20084
63.1411
60.43961
58.02052
55.83512
53.85776
52.06495
50.43356
48.93914
47.56092
46.28279
45.09221
43.97795
42.93016
41.94124
41.00631
40.12185
39.2848
38.49247
37.74291
37.03442
36.36497
35.7337
35.14009
34.58356
34.06347
33.57915
33.12997
32.71533
32.33488
31.98918
31.68191
31.41949
31.19824
31.01077
30.85945
30.74716
30.6773
30.65617
30.6951
30.81313
31.06143
31.36229
31.73758
32.21875
32.81796
33.55422
34.45616
35.59218
36.94001
38.4221
39.93267
41.36449
42.66324
43.78381
44.68616
45.34243
45.73799
45.87018
45.74837
45.39428
44.84049
44.12614
43.28805
42.37072
41.43592
40.50258
39.56451
38.6135
37.64449
36.67838
35.73332
34.82155
33.9502
33.12322
32.34268
31.60944
30.92344
30.28402
29.69016
29.14065
28.63429
28.17003
27.74715
27.36554
27.02584
26.72932
26.47777
26.27328
26.1183
26.01581
25.96985
25.98578
26.07002
26.22916
26.47334
26.82112
27.29646
27.92905
28.76171
29.87275
31.33353
33.14157
35.22701
37.44467
39.69339
41.9133
44.04624
45.96862
47.52787
48.5967
49.08791
48.9725
48.29724
47.16642
45.71704
44.09592
42.42897
40.80425
39.27868
37.88451
36.63572
35.48328
34.33828
33.13239
32.54634
779.9992
639.6263
564.5906
513.7038
472.9723
438.0639
407.4427
380.3905
355.3112
298.1173
238.4103
202.1479
178.7673
162.6532
150.8434
141.692
134.2593
127.9713
101.0201
96.59064
92.31248
88.27203
84.55089
81.18573
78.1642
75.45681
73.02551
70.81714
68.87607
67.07713
65.31431
63.59257
61.92179
60.31216
58.77459
57.31516
55.93357
54.92569
54.21927
53.40807
52.52551
51.60382
50.65985
49.70703
48.75938
47.82878
46.92931
46.06797
45.24014
44.44727
43.68249
42.93641
42.20414
41.48508
40.78318
40.11517
35.84395
35.34315
34.87166
34.42308
33.99016
33.56646
33.14883
32.73688
32.33261
31.93725
31.5539
31.18714
30.83683
30.49933
30.1706
29.84794
29.53112
29.22872
28.9578
28.71681
28.47627
28.24977
28.05782
27.89272
27.73674
27.58342
27.43174
27.28192
27.13926
27.00476
26.88046
26.76773
26.66498
26.56842
26.47275
26.37233
26.26234
26.13892
26.0088
25.87948
25.7529
25.63531
25.5498
25.50457
25.49999
25.54342
25.64492
25.78775
25.88184
25.89867
25.92161
25.93947
25.9501
25.95918
25.96551
25.96771
25.96499
25.95677
25.9436
25.92747
25.91102
25.89635
25.88432
25.87449
25.8656
25.85603
25.84433
25.8299
25.81345
25.79668
25.78148
25.76914
25.75999
25.75359
25.74911
25.74558
25.74233
25.73941
25.73753
25.73764
25.74041
25.746
25.754
25.76364
25.77409
25.78491
25.79641
25.80968
25.82614
25.84707
25.87308
25.90394
25.93859
25.97523
26.01159
26.04567
26.07748
26.10756
26.13954
26.17708
26.21776
26.26193
26.31102
26.36484
26.42352
26.48776
26.5587
26.63781
26.72658
26.82641
26.93857
27.0643
27.20455
27.35951
27.52821
27.70859
27.89797
28.09373
28.2937
28.49607
28.699
28.90047
29.09876
29.29269
29.48196
29.66693
29.8489
30.02995
30.2132
30.40191
30.5998
30.80994
31.03618
31.28158
31.55068
31.84678
32.17615
32.54294
32.95563
33.41823
33.93937
34.51794
35.15844
35.85172
36.59634
37.3735
38.17146
38.96926
40.30426
42.58036
44.59861
46.31817
47.73977
48.86048
49.68975
50.24413
50.54699
50.62783
50.52067
50.25922
49.87131
49.37777
48.7932
48.12958
47.39797
46.60788
45.76887
44.88995
43.97768
43.03843
42.07885
41.10605
40.13298
39.16399
38.20355
37.25995
36.3406
35.4522
34.59937
33.78559
33.01184
32.27508
31.5673
30.88114
30.22474
29.61339
29.04278
28.50838
28.00849
27.54084
27.10306
26.69273
26.30772
25.9463
25.60719
25.28958
24.99324
24.71847
24.46612
24.23755
24.03464
23.85977
23.71598
23.60706
23.53789
23.51475
23.54556
23.63992
23.80849
24.06814
24.46586
25.05901
25.90432
27.09056
28.72551
30.90455
33.65338
36.91845
35.81111
38.19018
40.32972
42.38935
44.40966
46.31877
48.03686
49.47118
50.52848
51.14511
51.29446
50.98468
50.25692
49.17504
47.82052
46.28186
44.63956
42.96015
41.29126
39.65987
38.07573
36.53989
35.05936
33.6431
32.29234
31.00563
29.78096
28.61647
27.51074
26.46241
25.47028
24.53329
23.65091
22.8209
22.04155
21.31134
20.62862
19.99155
19.39814
18.84639
18.33436
17.8602
17.42225
17.01907
16.64933
16.31153
16.00366
15.72405
15.47144
15.24511
15.04431
14.86908
14.71953
14.59549
14.49937
14.43138
14.39046
14.37795
14.39775
14.45532
14.5585
14.71899
14.95052
15.24363
15.58699
15.97341
16.39464
16.84031
17.29784
17.75265
18.18879
18.58999
18.94102
19.22905
19.44494
19.58362
19.64418
19.62957
19.54555
19.39978
19.2014
18.9607
18.68849
18.39598
18.08769
17.76067
17.41237
17.04862
16.67688
16.30339
15.93329
15.57066
15.21871
14.87992
14.55616
14.24887
13.95918
13.68801
13.43612
13.20403
12.99202
12.80013
12.62823
12.47623
12.34423
12.23278
12.14304
12.07701
12.03781
12.02981
12.05882
12.13288
12.26344
12.4673
12.768
13.17788
13.6933
14.32086
15.06883
15.94278
16.93901
18.04075
19.21768
20.42649
21.61271
22.71786
23.68822
24.48023
25.06062
25.4128
25.53104
25.43239
25.13605
24.68727
24.11173
23.47313
22.80453
22.19057
21.607
637.1271
563.4789
503.2995
458.96
425.2337
399.2253
379.073
364.1166
354.1661
340.7907
188.5656
175.9422
164.7807
155.2378
147.7498
144.0484
140.9343
138.2233
132.0509
87.02686
85.08619
84.33392
83.5799
82.80958
81.99774
81.1398
80.23159
79.23231
77.9227
75.42391
72.93288
70.96916
69.44309
68.17916
67.0584
66.01559
65.01731
64.04088
64.00721
63.27295
62.2261
61.05818
59.87434
58.72245
57.62097
56.57417
55.58238
54.64942
53.75415
52.87758
52.01437
51.15969
50.31595
49.48805
48.68023
47.90389
44.0185
43.36334
42.73799
42.13629
41.55333
40.98546
40.43067
39.88815
39.35834
38.84057
38.33225
37.83406
37.34611
36.86577
36.39158
35.92423
35.46553
35.01795
34.5837
34.16262
33.75415
33.35777
32.96995
32.58647
32.20529
31.82707
31.45433
31.09014
30.73671
30.3962
30.06819
29.74829
29.43201
29.11655
28.80116
28.48758
28.17842
27.86949
27.61945
27.37607
27.13964
26.9067
26.67303
26.43561
26.19349
25.94805
25.70257
25.46115
25.2282
25.00648
24.7956
24.59298
24.39509
24.19927
24.00533
23.81588
23.63489
23.46546
23.30633
23.15713
23.02252
22.90088
22.78504
22.66783
22.54558
22.4184
22.28939
22.16307
22.04338
21.93224
21.82981
21.73343
21.63856
21.54005
21.435
21.32385
21.21104
21.10056
20.99769
20.90572
20.8289
20.76785
20.73155
20.7116
20.70258
20.70014
20.68849
20.65409
20.61219
20.57324
20.53727
20.50376
20.47126
20.43733
20.4001
20.35892
20.31448
20.26887
20.22465
20.18368
20.14649
20.11238
20.07988
20.04724
20.01292
19.97629
19.93811
19.90018
19.8644
19.83196
19.80305
19.77709
19.75309
19.72996
19.70698
19.68417
19.66232
19.64241
19.62519
19.61084
19.59894
19.58861
19.57888
19.5691
19.55941
19.5507
19.54423
19.54117
19.54213
19.54707
19.55519
19.56509
19.57522
19.58465
19.59315
19.60111
19.60923
19.61937
19.63243
19.64805
19.66604
19.6862
19.70826
19.73234
19.75912
19.78957
19.82466
19.86523
19.9122
19.96665
20.02963
20.10159
20.18202
20.26945
20.36204
20.45819
20.55683
20.65717
20.75807
20.85804
20.95548
21.04922
21.13851
21.2231
21.30323
21.38009
21.45554
21.53218
21.61258
21.69978
21.79646
21.90622
22.03156
22.17655
22.34369
22.53844
22.76319
23.02531
23.32474
23.66836
24.04935
24.47446
24.92977
25.4276
25.94687
26.49109
27.0472
27.55593
28.01141
28.42143
28.78498
29.09529
29.34454
29.52644
29.63793
29.67993
29.65665
29.5744
29.44024
29.2612
29.04388
28.79426
28.51756
28.21815
27.89946
27.56381
27.21255
26.8462
26.46455
26.06755
25.65774
25.24216
24.80869
24.35552
23.8852
23.40143
22.90881
22.4123
21.91694
21.42756
20.94883
20.48564
20.04355
19.62647
19.23557
18.87132
18.53365
18.22184
17.93452
17.67026
17.42766
17.20541
17.00231
16.81734
16.64964
16.49855
16.36351
16.24408
16.13989
16.05076
15.97675
15.91842
15.87683
15.85383
15.85191
15.87507
15.92911
16.02475
16.17462
16.38998
16.68189
17.06316
17.54574
18.1439
18.86718
19.70528
20.99943
22.38311
23.79368
25.2353
26.72122
28.23803
29.75795
31.24859
32.67222
33.96611
35.0799
35.97275
36.61779
37.00267
37.12881
37.01168
36.6804
36.16836
35.51413
34.75658
33.92995
33.06305
32.1681
31.24118
30.27637
29.28717
28.28635
27.28402
26.28858
25.30677
24.3448
23.40828
22.50217
21.6306
20.79683
20.00326
19.25145
18.54221
17.87574
17.25177
16.67
16.12901
15.62752
15.16434
14.73823
14.34794
13.99135
13.6663
13.37091
13.10325
12.86181
12.64485
12.45095
12.27817
12.12503
11.9896
11.87039
11.76793
11.68417
11.62163
11.58362
11.57441
11.59945
11.66503
11.76837
11.90729
12.0788
12.27838
12.49986
12.73538
12.97628
13.21311
13.43622
13.63663
13.80672
13.94064
14.03487
14.08779
14.09951
14.07154
14.00663
13.90837
13.7811
13.62976
13.45987
13.27772
13.0898
12.89352
12.68675
12.47237
12.25334
12.03246
11.81232
11.59528
11.38314
11.17754
10.97995
10.79172
10.61398
10.44763
10.29305
10.15033
10.0193
9.899797
9.791789
9.695481
9.611506
9.540942
9.485268
9.446327
9.426404
9.428481
9.456686
9.516967
9.617469
9.769627
9.982203
10.25754
10.60354
11.02758
11.53448
12.12448
12.7921
13.52411
14.30139
15.09877
15.88725
16.6368
17.31864
17.91022
18.38928
18.74224
18.95549
19.03249
18.97394
18.80338
18.53192
18.2016
17.84169
369.7102
268.9503
383.0362
173.5692
136.0946
100.0083
86.64866
75.38168
66.1012
61.64164
59.81726
58.84113
57.96946
57.25124
56.55402
55.94369
55.40894
55.0205
54.77475
54.56049
54.38851
54.32207
54.52919
54.92045
55.35416
55.82581
56.34128
56.90657
57.5064
58.08494
58.48337
57.35292
57.80967
58.14442
58.36234
58.45381
58.4153
58.24809
57.95684
57.5559
57.06484
56.48227
55.81984
55.0967
54.33025
53.53272
52.71351
51.88118
51.04294
50.20541
49.37788
48.56772
47.7708
46.98448
46.20818
45.43956
44.68034
43.93237
43.19833
42.48116
41.78376
41.10911
40.45877
39.83259
39.22968
38.64701
38.08277
37.52461
37.02081
36.52284
36.03462
35.55669
35.08919
34.63289
34.18865
33.75702
33.33769
32.92977
32.53171
32.14187
31.75789
31.3776
31.00037
30.62772
30.26264
29.9083
29.56729
29.24083
28.92736
28.6227
28.32164
28.0199
27.71545
27.40935
27.10567
26.80993
26.52714
26.25946
26.00504
25.7586
25.5142
25.26713
25.01601
24.76249
24.51185
24.26882
24.0401
23.82711
23.62732
23.4351
23.24418
23.04974
22.84978
22.64554
22.44098
22.24144
22.05204
21.87614
21.7137
21.5612
21.41344
21.26587
21.1161
20.96467
20.81493
20.67177
20.53925
20.41951
20.31369
20.21906
20.12821
20.0338
19.93147
19.82109
19.70629
19.59287
19.48631
19.38946
19.30185
19.21995
19.1394
19.05639
18.96844
18.87621
18.7832
18.69495
18.61555
18.54698
18.49017
18.44516
18.41126
18.38291
18.355
18.32433
18.28811
18.24579
18.20229
18.16205
18.12586
18.09225
18.05866
18.02244
17.98162
17.93568
17.88603
17.83541
17.7867
17.74171
17.70075
17.6628
17.62615
17.58894
17.54957
17.50779
17.46494
17.42334
17.38519
17.35167
17.32272
17.29744
17.27466
17.25309
17.232
17.21169
17.19311
17.17727
17.16476
17.15552
17.14892
17.14393
17.13941
17.1346
17.12961
17.12532
17.12292
17.12329
17.12671
17.13292
17.14119
17.15032
17.1591
17.16683
17.17362
17.18008
17.18704
17.19541
17.20577
17.21811
17.23205
17.24697
17.26229
17.2779
17.29426
17.31202
17.33162
17.35334
17.3776
17.40518
17.43694
17.47321
17.5134
17.5561
17.59968
17.64316
17.68643
17.72972
17.77273
17.8145
17.85394
17.89029
17.92308
17.95202
17.97711
17.99905
18.01917
18.03924
18.0611
18.08675
18.1183
18.15811
18.2081
18.27051
18.34748
18.44194
18.55694
18.69647
18.86257
19.05713
19.27911
19.52815
19.80136
20.09767
20.41429
20.74884
21.09635
21.457
21.81918
22.16944
22.49492
22.78327
23.02376
23.20872
23.33432
23.40041
23.40985
23.36753
23.27936
23.15158
22.99026
22.80109
22.58918
22.35902
22.1144
21.85839
21.59325
21.32044
21.04067
20.75394
20.45993
20.16004
19.86151
19.55635
19.24312
18.92187
18.59396
18.26144
17.92725
17.59501
17.26869
16.95236
16.64987
16.36446
16.09818
15.85211
15.62663
15.42157
15.23624
15.06977
14.92122
14.78959
14.6739
14.57322
14.48658
14.41299
14.35139
14.30048
14.25889
14.22515
14.198
14.17636
14.15966
14.14787
14.14215
14.14492
14.16127
14.20072
14.2767
14.3931
14.55393
14.76091
15.01722
15.32472
15.6895
16.11725
16.63044
17.22815
17.90214
18.6449
19.45176
20.31694
21.23159
22.18245
23.14663
24.10012
25.01239
25.85192
26.58884
27.19988
27.6683
27.98428
28.15053
28.16809
28.05236
27.82455
27.50826
27.126
26.69971
26.24797
25.78727
25.30897
24.79609
24.24152
23.64808
23.01939
22.36059
21.67832
20.98031
20.27479
19.56998
18.87359
18.19247
17.53242
16.89817
16.29337
15.72071
15.18202
14.67838
14.21027
13.77771
13.38045
13.01716
12.68609
12.3853
12.11268
11.86622
11.64368
11.44293
11.26133
11.09597
10.94407
10.80347
10.67347
10.55497
10.44998
10.3608
10.28982
10.23971
10.21407
10.21515
10.2423
10.29427
10.36883
10.46275
10.57178
10.69085
10.81426
10.93602
11.05028
11.15165
11.23561
11.29862
11.33829
11.35334
11.34349
11.3094
11.25254
11.17502
11.07954
10.9692
10.84751
10.71824
10.58557
10.45088
10.31264
10.17212
10.03063
9.889435
9.749733
9.612628
9.479145
9.350253
9.226852
9.109715
8.999404
8.896187
8.800046
8.71078
8.628195
8.552285
8.48331
8.42175
8.368201
8.323283
8.287628
8.261984
8.247385
8.245396
8.258401
8.289922
8.345007
8.430783
8.552608
8.714482
8.921671
9.179052
9.490216
9.856667
10.27665
10.74477
11.25182
11.78528
12.33009
12.86896
13.3844
13.85771
14.27312
14.61408
14.87169
15.03617
15.11007
15.0932
15.00086
14.84858
331.0983
222.985
168.5091
150.0974
122.1489
102.3401
88.0385
82.43392
76.18422
72.53283
69.38126
65.16034
60.97331
57.02486
53.43785
49.52853
43.5083
42.13198
41.14067
40.62335
40.53241
40.72544
41.04479
41.43299
41.88328
42.41227
43.02516
43.68931
44.39061
45.12547
45.89027
46.68099
47.49853
48.3452
49.21622
50.10824
51.03555
52.00412
52.95585
53.95927
55.07578
55.93778
56.35854
56.64186
56.79833
56.79383
56.6235
56.29452
55.81984
55.21657
54.50793
53.71891
52.87004
51.97641
51.0503
50.10245
49.14042
48.17041
47.19832
46.23069
45.27596
44.34157
43.43772
42.57126
41.74356
40.95328
40.19184
39.45374
38.73565
38.03636
37.35746
36.70253
36.0759
35.48119
34.91957
34.38944
33.886
33.40364
32.93495
32.47686
32.02874
31.59161
31.16575
30.75197
30.35197
29.96741
29.59901
29.24609
28.90704
28.57923
28.25887
27.94177
27.62477
27.30672
26.9892
26.67665
26.3748
26.089
25.82197
25.57133
25.33066
25.09205
24.84871
24.597
24.33801
24.07739
23.82344
23.58489
23.36627
23.16497
22.9736
22.78324
22.58638
22.37975
22.16555
21.95068
21.7437
21.55231
21.37967
21.2229
21.07515
20.92812
20.77476
20.61146
20.43914
20.26288
20.09038
19.92953
19.78571
19.65953
19.54621
19.4379
19.32706
19.20916
19.08383
18.95467
18.82838
18.71292
18.61437
18.53387
18.46587
18.40028
18.32859
18.24548
18.1506
18.04906
17.9493
17.85927
17.78344
17.72126
17.66801
17.61817
17.56803
17.51676
17.46628
17.42109
17.3869
17.3681
17.36413
17.37127
17.387
17.40725
17.42625
17.43958
17.44442
17.44185
17.43589
17.42987
17.42574
17.42267
17.41728
17.40614
17.38693
17.35849
17.32142
17.27872
17.23453
17.19226
17.15347
17.11777
17.08356
17.04894
17.01232
16.97265
16.93065
16.88911
16.85149
16.82043
16.79678
16.77981
16.76799
16.75975
16.75366
16.74909
16.74671
16.74771
16.75291
16.76227
16.77495
16.78964
16.80496
16.81967
16.83305
16.84539
16.85772
16.87106
16.88581
16.90161
16.91768
16.93318
16.94722
16.9592
16.96924
16.97826
16.98752
16.99798
17.01025
17.02459
17.04083
17.05831
17.07599
17.09297
17.10902
17.12453
17.1398
17.15458
17.1683
17.18059
17.1918
17.20256
17.21293
17.22199
17.22813
17.22983
17.22677
17.22017
17.21163
17.20185
17.19048
17.17699
17.16135
17.14383
17.12451
17.10343
17.08112
17.0586
17.03711
17.01775
17.00157
16.98992
16.98415
16.98515
16.99392
17.01157
17.0397
17.08087
17.13807
17.21301
17.30613
17.41677
17.54365
17.68515
17.83992
18.00763
18.18862
18.38374
18.59343
18.81389
19.03701
19.2523
19.44864
19.61578
19.74569
19.83343
19.87727
19.87819
19.83914
19.76423
19.6581
19.52544
19.37074
19.19816
19.01145
18.81394
18.60844
18.3972
18.18197
17.96373
17.74279
17.51921
17.29283
17.06525
16.83984
16.61244
16.38276
16.15133
15.91949
15.68931
15.46342
15.24471
15.03612
14.84033
14.65956
14.49536
14.34857
14.21943
14.10776
14.01316
13.93494
13.87218
13.82378
13.78861
13.76549
13.75321
13.7504
13.75538
13.76601
13.77987
13.79441
13.80714
13.81572
13.81815
13.81304
13.80021
13.78123
13.76045
13.74645
13.75215
13.78241
13.84028
13.92681
14.04269
14.18927
14.36936
14.58569
14.84164
15.14015
15.48225
15.86718
16.29357
16.7598
17.26339
17.80041
18.36437
18.94571
19.53101
20.10368
20.64526
21.13678
21.56016
21.9002
22.14654
22.29435
22.3456
22.30868
22.19674
22.02547
21.81093
21.56732
21.30529
21.03208
20.75662
20.47706
20.17872
19.84926
19.48601
19.08808
18.65695
18.19638
17.71188
17.21016
16.69849
16.18414
15.67398
15.17422
14.69019
14.22634
13.78615
13.37225
12.9865
12.63019
12.30331
12.00504
11.73398
11.4883
11.26603
11.06506
10.88313
10.71756
10.56518
10.42267
10.28735
10.1581
10.03584
9.922575
9.820254
9.730428
9.654694
9.595146
9.554027
9.531476
9.526968
9.539389
9.566969
9.607287
9.657322
9.713578
9.772257
9.829482
9.881499
9.92488
9.956719
9.974763
9.97748
9.964056
9.934377
9.888973
9.828947
9.755874
9.671717
9.578755
9.47954
9.37683
9.273542
9.170741
9.068449
8.96727
8.867796
8.770608
8.676263
8.585283
8.49815
8.415271
8.33693
8.26323
8.194098
8.129343
8.068802
8.012478
7.960594
7.913497
7.871481
7.834636
7.802838
7.775857
7.753538
7.735981
7.723722
7.717944
7.720693
7.73499
7.764764
7.814685
7.887876
7.987595
8.117426
8.280751
8.480268
8.717383
8.991742
9.30088
9.639984
10.00198
10.37728
10.75498
11.12226
11.46722
11.77635
12.04013
12.24761
12.39549
12.478
12.49964
12.46335
170.6791
125.7703
192.7643
94.58296
81.06593
69.40425
65.98133
63.56883
60.919
59.8903
58.52191
56.53939
54.68733
52.70098
50.34429
45.61688
44.54294
43.53643
42.56359
41.62934
40.68856
39.79102
38.99882
38.34564
37.8556
37.52666
37.28063
37.04709
37.00852
37.19221
37.58195
38.11698
38.72753
39.38443
40.10084
40.8619
41.65393
42.47065
43.30983
44.16935
45.04632
45.93149
46.83191
47.76309
48.73019
49.70347
50.70705
51.78849
52.69876
53.47174
54.09436
54.51263
54.66969
54.62201
54.35862
53.88799
53.23513
52.42663
51.48895
50.45023
49.34038
48.18909
47.02395
45.86615
44.72974
43.62204
42.54279
41.48891
40.45728
39.44996
38.47424
37.55241
36.697
35.91237
35.19671
34.54186
33.93553
33.3599
32.80215
32.25555
31.71954
31.19843
30.6994
30.22975
29.79396
29.39194
29.01881
28.66647
28.32639
27.99162
27.65846
27.3265
26.99736
26.674
26.36032
26.06023
25.77621
25.50857
25.2557
25.01427
24.77902
24.54362
24.3027
24.05382
23.79882
23.5439
23.29735
23.06778
22.86094
22.67499
22.50148
22.32965
22.14976
21.95564
21.74681
21.52974
21.31704
21.12184
20.95107
20.80244
20.66686
20.53257
20.38888
20.2298
20.05649
19.87755
19.70571
19.55158
19.41951
19.30683
19.20565
19.10562
18.99728
18.8751
18.73923
18.5954
18.45323
18.32361
18.21465
18.12756
18.05564
17.98806
17.91491
17.83027
17.73298
17.62686
17.52112
17.42839
17.35757
17.3083
17.27187
17.23544
17.18946
17.1297
17.05819
16.98332
16.91776
16.874
16.8576
16.86477
16.88981
16.93066
16.98926
17.07316
17.18883
17.3373
17.52031
17.73293
17.96226
18.18962
18.39828
18.58421
18.74508
18.88149
18.99477
19.09322
19.18405
19.26983
19.34715
19.40825
19.4462
19.45763
19.44302
19.40657
19.35586
19.29986
19.24565
19.19593
19.14891
19.10055
19.04711
18.98653
18.9192
18.84789
18.77822
18.71695
18.66917
18.63625
18.61592
18.60427
18.59778
18.59423
18.59292
18.59506
18.6029
18.61779
18.63917
18.66459
18.69085
18.71504
18.73523
18.75071
18.76219
18.77145
18.78015
18.78851
18.79511
18.79772
18.79452
18.78483
18.76906
18.74913
18.72848
18.71084
18.69866
18.69276
18.69294
18.69826
18.70729
18.71828
18.72942
18.73943
18.74827
18.75646
18.76355
18.76778
18.76689
18.7594
18.745
18.72372
18.69498
18.6575
18.60962
18.55042
18.48129
18.40589
18.32784
18.24889
18.16926
18.08914
18.00964
17.93223
17.85783
17.78683
17.71977
17.65756
17.60108
17.55075
17.50674
17.46928
17.43807
17.41226
17.39091
17.37365
17.36045
17.35201
17.34948
17.35351
17.36413
17.38104
17.40358
17.43079
17.46215
17.49861
17.54265
17.59757
17.6655
17.74559
17.83349
17.92194
18.00237
18.06655
18.10786
18.12204
18.10735
18.06419
17.99448
17.90107
17.78719
17.65609
17.51092
17.3546
17.18981
17.01897
16.84421
16.6673
16.48972
16.31226
16.13532
15.95888
15.78268
15.60664
15.43276
15.26182
15.09316
14.92734
14.76556
14.60959
14.46161
14.32394
14.19878
14.088
13.99301
13.9147
13.8534
13.80897
13.78091
13.76836
13.77015
13.78494
13.81129
13.8478
13.89315
13.94599
14.00462
14.06673
14.1291
14.18845
14.24135
14.28438
14.31421
14.32759
14.32176
14.29535
14.24917
14.18703
14.11689
14.05208
13.99991
13.96522
13.95083
13.95825
13.98917
14.04545
14.12852
14.23963
14.37912
14.54607
14.73906
14.95684
15.19855
15.46344
15.75062
16.05859
16.38457
16.72372
17.06875
17.40986
17.73508
18.03122
18.28534
18.48629
18.62607
18.70113
18.71293
18.66744
18.57374
18.44252
18.28433
18.10824
17.92098
17.72671
17.52711
17.32483
17.11998
16.90227
16.66358
16.4012
16.11404
15.80291
15.47033
15.12014
14.75716
14.38675
14.01446
13.64569
13.2854
12.93798
12.6071
12.29566
12.00596
11.739
11.49483
11.27265
11.07102
10.88822
10.72241
10.57158
10.4333
10.3046
10.18229
10.06382
9.948152
9.836265
9.730146
9.631469
9.541391
9.461079
9.392127
9.336021
9.292904
9.262605
9.244611
9.238001
9.241421
9.253088
9.270834
9.2922
9.31456
9.33526
9.351776
9.36184
9.36356
9.355496
9.336702
9.306749
9.265717
9.214154
9.153017
9.083596
9.007459
8.92641
8.842452
8.757709
8.674213
8.592596
8.513169
8.436268
8.362256
8.291507
8.224357
8.16102
8.101503
8.045569
7.992792
7.9427
7.895003
7.849806
7.807664
7.769369
7.735514
7.706124
7.680602
7.657952
7.637127
7.617334
7.598186
7.579829
7.563106
7.549722
7.542138
7.542991
7.554784
7.580127
7.621193
7.680505
7.760783
7.86457
7.993853
8.149751
8.332287
8.540008
8.769942
9.0171
9.275205
9.53579
9.790392
10.02869
10.24304
10.42409
10.56763
10.66652
10.7219
10.72983
70.68911
52.37583
50.20988
47.63608
46.537
45.2149
44.16263
43.27856
42.53397
41.3802
38.57849
38.42836
38.29935
38.1833
38.04656
37.87696
37.71313
37.58541
37.50502
37.45818
37.29572
36.8925
36.49446
36.10931
35.74492
35.40964
35.12801
34.91585
34.78515
34.7374
34.76064
34.84875
35.02256
35.30954
35.72501
36.25723
36.87109
37.52883
38.24048
38.99553
39.78403
40.60372
41.45079
42.32415
43.22543
44.16057
45.09101
46.0365
47.04537
48.11297
49.117
50.04192
50.83303
51.42524
51.7823
51.89226
51.74723
51.35653
50.73618
49.91053
48.91016
47.77072
46.52595
45.20652
43.84195
42.46189
41.09617
39.77371
38.51881
37.34643
36.25918
35.24837
34.29564
33.39164
32.5382
31.73618
30.99385
30.3205
29.72228
29.19878
28.73816
28.32468
27.93786
27.56011
27.18148
26.80002
26.42044
26.05216
25.70607
25.39043
25.10757
24.85339
24.61922
24.39492
24.17173
23.944
23.70995
23.47103
23.23095
22.99509
22.76943
22.55873
22.36514
22.1882
22.02427
21.86661
21.70705
21.53832
21.35665
21.16319
20.96424
20.77092
20.59551
20.44506
20.31772
20.2043
20.09306
19.97318
19.83687
19.68179
19.51392
19.34795
19.20035
19.0793
18.98159
18.89708
18.81365
18.72038
18.61038
18.48393
18.34978
18.22226
18.11356
18.02775
17.96081
17.90386
17.84636
17.77938
17.69823
17.60387
17.50256
17.40455
17.32168
17.26214
17.22423
17.19658
17.16608
17.1246
17.07015
17.00469
16.93316
16.86556
16.8168
16.7961
16.79694
16.803
16.80064
16.78564
16.76597
16.76152
16.7959
16.8861
17.04737
17.28164
17.56585
17.89193
18.26605
18.69327
19.19411
19.78146
20.4414
21.16174
21.90668
22.6287
23.27785
23.81301
24.21929
24.52058
24.74396
24.91559
25.06652
25.21376
25.35595
25.47502
25.54759
25.55778
25.50248
25.39132
25.24425
25.08658
24.94068
24.8177
24.71451
24.61794
24.51303
24.38922
24.24197
24.07998
23.91433
23.76205
23.63782
23.5475
23.48609
23.44164
23.40187
23.35902
23.31094
23.2607
23.21532
23.1814
23.16124
23.1515
23.14519
23.13492
23.11544
23.08464
23.04348
22.99636
22.94879
22.90368
22.85941
22.81073
22.75185
22.67938
22.5932
22.49625
22.39517
22.29926
22.21654
22.15098
22.10243
22.06873
22.04647
22.03158
22.01981
22.00783
21.9946
21.98161
21.96983
21.95739
21.94013
21.9135
21.87477
21.82337
21.75844
21.67742
21.57743
21.45681
21.31621
21.16007
20.99603
20.83099
20.66822
20.50888
20.35501
20.21066
20.08012
19.96594
19.86905
19.78993
19.72911
19.6867
19.66193
19.65318
19.65667
19.66759
19.68153
19.69364
19.69962
19.69599
19.67941
19.64546
19.5903
19.51314
19.41592
19.30124
19.17147
19.02919
18.87838
18.72456
18.57568
18.43722
18.31345
18.20792
18.11693
18.03209
17.94586
17.85263
17.74923
17.63436
17.50814
17.37164
17.22644
17.07425
16.91678
16.75561
16.59222
16.42801
16.26428
16.10224
15.94287
15.78699
15.63497
15.4869
15.34259
15.20166
15.06374
14.92895
14.79908
14.67571
14.55971
14.45248
14.35581
14.27163
14.20182
14.14792
14.11103
14.09174
14.09011
14.1056
14.13725
14.18375
14.24354
14.31491
14.39611
14.48517
14.58049
14.68104
14.7856
14.89234
14.99846
15.10022
15.19341
15.27373
15.3371
15.37933
15.39587
15.38245
15.33658
15.25849
15.15139
15.02224
14.88478
14.75021
14.62661
14.52003
14.43384
14.37032
14.33145
14.31836
14.33098
14.3677
14.42574
14.50219
14.59485
14.70234
14.82402
14.95969
15.10931
15.27254
15.44826
15.63393
15.825
16.01486
16.19518
16.35662
16.48994
16.5873
16.64354
16.65677
16.62839
16.56269
16.46601
16.34549
16.20796
16.05897
15.90233
15.74008
15.5729
15.40053
15.22401
15.04229
14.84928
14.64213
14.41975
14.18221
13.93079
13.66776
13.39627
13.12001
12.84305
12.5695
12.30329
12.04792
11.80634
11.58091
11.37286
11.18255
11.00944
10.85235
10.70974
10.57993
10.46106
10.35077
10.2463
10.14495
10.04482
9.945473
9.848193
9.754921
9.666882
9.584781
9.509525
9.442398
9.383753
9.33372
9.292361
9.259605
9.235166
9.218461
9.208557
9.204162
9.203673
9.205271
9.207048
9.207111
9.203687
9.195216
9.180419
9.158346
9.128424
9.090481
9.044758
8.991864
8.932687
8.86832
8.80005
8.729363
8.65793
8.587492
8.519196
8.45327
8.389958
8.329594
8.27262
8.219443
8.17017
8.12439
8.08119
8.039419
7.998117
7.956996
7.91678
7.87912
7.845881
7.818073
7.795222
7.775658
7.7573
7.738364
7.717701
7.694795
7.669783
7.643584
7.61799
7.595385
7.577763
7.566274
7.562113
7.567114
7.583194
7.612568
7.657462
7.719809
7.801017
7.901925
8.022493
8.16171
8.317023
8.484804
8.659589
8.835631
9.005562
9.163485
9.301919
9.416795
9.501411
9.556079
9.573731
95.93826
40.39505
33.59349
32.18548
31.4593
31.13464
31.12682
31.2973
31.59966
31.99461
32.32014
32.45236
32.58638
32.70689
32.81634
32.90803
32.99053
33.06553
33.12091
33.13534
33.08486
32.98673
32.89305
32.81319
32.75558
32.72521
32.73491
32.78671
32.88194
33.02031
33.20211
33.42956
33.71224
34.05615
34.47195
34.95621
35.49499
36.12162
36.82437
37.59117
38.42017
39.30195
40.215
41.15643
42.13046
43.19022
44.20221
45.21533
46.24277
47.21725
48.05325
48.69434
49.09382
49.2182
49.0553
48.61079
47.90599
46.97525
45.83261
44.52869
43.11342
41.63474
40.13208
38.63506
37.16548
35.74319
34.39053
33.13178
31.99087
30.98354
30.10589
29.33685
28.64651
28.00893
27.40846
26.84086
26.30644
25.81876
25.3938
25.03888
24.74685
24.4971
24.26328
24.02364
23.76722
23.49362
23.21008
22.9288
22.66362
22.4259
22.22021
22.04344
21.88651
21.73751
21.58628
21.42659
21.25669
21.0781
20.89469
20.71252
20.53888