/*--------------------------------*- C++ -*----------------------------------*\
| =========                 |                                                 |
| \\      /  F ield         | foam-extend: Open Source CFD                    |
|  \\    /   O peration     | Version:     3.1                                |
|   \\  /    A nd           | Web:         http://www.extend-project.de       |
|    \\/     M anipulation  |                                                 |
\*---------------------------------------------------------------------------*/
FoamFile
{
    version     2.0;
    format      ascii;
    class       surfaceScalarField;
    location    "19";
    object      phi;
}
// * * * * * * * * * * * * * * * * * * * * * * * * * * * * * * * * * * * * * //

dimensions      [0 3 -1 0 0 0 0];

internalField   nonuniform List<scalar> 
275122
(
-0.0004101476
0.0004159142
-4.139809e-07
-5.352604e-06
-0.0003672886
0.0003501386
1.410431e-06
1.573956e-05
-0.000364524
0.0003739566
-3.95893e-07
-9.03666e-06
-0.0004057076
0.0004166714
-4.819937e-07
-1.04818e-05
-0.0004440405
0.0004473073
-5.625316e-07
-2.704261e-06
-0.0004474259
0.0004467635
-4.956763e-07
1.158081e-06
-0.0004429247
0.0004414367
-4.626879e-07
1.950707e-06
-0.0004363588
0.0004344966
-4.363066e-07
2.298436e-06
-0.0004285893
0.0004265426
-4.142754e-07
2.461003e-06
-0.0004202599
0.0004181226
-3.92053e-07
2.529277e-06
-0.0004116076
0.0004094032
-3.683016e-07
2.572698e-06
-0.0004027102
0.0004004561
-3.436858e-07
2.597752e-06
-0.0003936378
0.0003913499
-3.19031e-07
2.606925e-06
-0.0003844459
0.0003821348
-2.949194e-07
2.606074e-06
-0.0003751709
0.0003728441
-2.717057e-07
2.598503e-06
-0.0003658451
0.0003635129
-2.496047e-07
2.58178e-06
-0.0003565199
0.0003542013
-2.291694e-07
2.547757e-06
-0.0003473155
0.0003450773
-2.163995e-07
2.454539e-06
-0.0003388096
0.0003370151
-2.662453e-07
2.060734e-06
-0.0003333271
0.0003337559
-6.731203e-07
2.443218e-07
-0.0003702183
0.0003848181
-1.343113e-06
-1.325675e-05
-0.0003889059
0.0003887635
-2.929836e-07
4.354259e-07
-0.0003926036
0.0003948006
-1.688304e-07
-2.028132e-06
-0.0004378825
0.0004537577
3.354525e-07
-1.621071e-05
-0.0004562248
0.0004554726
6.51596e-07
1.005707e-07
-0.0004579587
0.0004587328
-3.054705e-07
-4.686572e-07
-0.0004588118
0.0004577976
-2.717739e-07
1.285973e-06
-0.0004531723
0.0004492252
-2.310125e-07
4.178067e-06
-0.0004230305
0.000395369
-3.082297e-07
2.796979e-05
-0.0001997904
0.0002048583
4.598662e-09
-5.07249e-06
-0.0002688065
0.0002825858
-7.135335e-08
-1.370789e-05
-0.0003218529
0.0003348877
8.161278e-09
-1.304301e-05
-0.0003747064
0.0003881895
9.193611e-09
-1.349233e-05
-0.0004290205
0.0004427965
1.03842e-08
-1.37864e-05
-0.0004848442
0.0004990051
1.335351e-08
-1.41743e-05
-0.0005421805
0.000556789
1.575186e-09
-1.461015e-05
-0.0006010021
0.0006158763
2.768121e-09
-1.48769e-05
-0.0006607331
0.0006757899
8.539611e-09
-1.506534e-05
-0.0007211498
0.0007363541
9.122054e-09
-1.521346e-05
-0.0007814425
0.0007978923
2.367027e-07
-1.668651e-05
1.315132e-05
-0.0005420075
0.0005442025
1.193927e-09
-1.534748e-05
1.345669e-05
-0.0005507506
0.0005527666
-3.408778e-10
-1.54724e-05
1.368756e-05
-0.000558458
0.0005602897
-1.252165e-09
-1.551802e-05
1.405713e-05
-0.0005653515
0.0005669112
-1.550132e-09
-1.561521e-05
1.444729e-05
-0.0005711336
0.0005723965
-1.584299e-09
-1.57086e-05
1.475955e-05
-0.0005758731
0.0005769042
-1.436141e-09
-1.578914e-05
1.498696e-05
-0.0005798192
0.0005807049
-1.323228e-09
-1.587132e-05
1.514671e-05
-0.0005832238
0.0005840478
-1.119102e-09
-1.596952e-05
1.565155e-05
-0.000586328
0.0005860869
-7.951056e-10
-1.540965e-05
1.399693e-05
-0.002387497
0.002397018
1.123547e-10
-6.591587e-05
1.425256e-05
1.395158e-05
1.419282e-05
1.48532e-05
-0.002404497
0.002410722
-8.958741e-11
-6.670398e-05
1.541904e-05
1.482338e-05
1.538296e-05
1.5254e-05
-0.002415819
0.00242063
-6.810151e-11
-6.629233e-05
1.551734e-05
1.522103e-05
1.548885e-05
1.539674e-05
-0.002425555
0.002430313
-2.101174e-10
-6.654906e-05
1.552791e-05
1.53684e-05
1.549852e-05
1.541824e-05
-0.002434919
0.002439359
-8.059105e-11
-6.648244e-05
1.562969e-05
1.539061e-05
1.560371e-05
1.564733e-05
-0.002443371
0.002447161
6.444223e-11
-6.656858e-05
1.576888e-05
1.562046e-05
1.574192e-05
1.571695e-05
-0.00245085
0.00245419
2.048586e-10
-6.629899e-05
1.578826e-05
1.569532e-05
1.575812e-05
1.574647e-05
-0.002457566
0.002460713
1.138434e-10
-6.601556e-05
1.571372e-05
1.571347e-05
1.569539e-05
1.569028e-05
-0.002464385
0.002467935
6.831006e-11
-6.625142e-05
1.569424e-05
1.565433e-05
1.566194e-05
1.517244e-05
-0.002467605
0.002471652
8.038523e-11
-6.494504e-05
1.530046e-05
1.513964e-05
1.528544e-05
1.597215e-05
-0.002475977
0.002478945
1.445945e-10
-6.711745e-05
1.611216e-05
1.596388e-05
1.61012e-05
1.597438e-05
-0.00248124
0.002483335
1.552104e-10
-6.573209e-05
1.585029e-05
1.596742e-05
1.58442e-05
1.587678e-05
-0.002485584
0.00248788
1.758471e-10
-6.55872e-05
1.577735e-05
1.586709e-05
1.57698e-05
1.586134e-05
-0.002490138
0.002492213
1.842174e-10
-6.5376e-05
1.579523e-05
1.585265e-05
1.579113e-05
1.585941e-05
-0.002494211
0.002496048
1.416269e-10
-6.513599e-05
1.579967e-05
1.584409e-05
1.579529e-05
1.589514e-05
-0.002497806
0.002499345
5.870378e-11
-6.49333e-05
1.583374e-05
1.584749e-05
1.581752e-05
1.615523e-05
-0.00250104
0.002502689
-2.982219e-11
-6.581637e-05
1.611744e-05
1.593129e-05
1.596327e-05
1.749241e-05
-0.002503657
0.002502018
-8.16352e-11
-6.691118e-05
1.777758e-05
1.651627e-05
1.676441e-05
2.212966e-05
-0.002495915
0.002481054
-1.112556e-10
-6.912709e-05
2.354216e-05
1.944878e-05
1.886769e-05
2.957125e-05
-0.002461558
0.002484376
-9.940428e-11
-5.238927e-05
2.16396e-05
-0.002506544
0.002509658
-7.319716e-11
-2.475427e-05
4.280801e-05
-0.00250272
0.002499764
-3.103765e-11
-3.985172e-05
3.736575e-05
-0.002497891
0.00249668
5.321428e-12
-3.615513e-05
2.129879e-05
-0.002494863
0.002497038
3.964688e-11
-2.347369e-05
5.554686e-06
-0.002502289
0.002507694
6.51614e-11
-1.095947e-05
7.344166e-07
-0.002511955
0.00251562
8.219855e-11
-4.400128e-06
-2.303041e-06
-0.002519233
0.002522409
8.944227e-11
-8.734062e-07
-4.130452e-06
-0.002525252
0.002527766
8.245375e-11
1.616682e-06
-5.476691e-06
-0.002530104
0.002532163
6.33327e-11
3.417142e-06
-6.312263e-06
-0.002534094
0.002535873
3.540139e-11
4.533078e-06
-6.822252e-06
-0.00253759
0.002539251
5.667475e-12
5.161753e-06
-7.166188e-06
-0.002540877
0.002542485
-2.426831e-11
5.558908e-06
-7.42789e-06
-0.002544051
0.002545613
-4.23761e-11
5.865781e-06
-7.627638e-06
-0.002547108
0.002548618
-4.896249e-11
6.117995e-06
-7.701184e-06
-0.002550031
0.002551505
-4.577619e-11
6.227541e-06
-7.45963e-06
-0.002552866
0.002554373
-3.633334e-11
5.952054e-06
-6.475906e-06
-0.00255577
0.002557376
-2.381978e-11
4.86997e-06
-3.994213e-06
-0.002558791
0.002560342
-1.016285e-11
2.442437e-06
1.81506e-06
-0.00256165
0.002562159
4.017348e-12
-2.323647e-06
1.226597e-05
-0.00255747
0.002553744
1.563388e-11
-8.539537e-06
5.933401e-06
-0.002555818
0.002558405
1.717226e-11
-8.520131e-06
1.806084e-05
-0.002559296
0.002557533
2.375683e-11
-1.629774e-05
4.343732e-05
-0.002542091
0.00252482
2.43229e-11
-2.616632e-05
1.284487e-05
-0.002516789
0.002516756
1.695093e-11
-1.281199e-05
-2.624339e-06
-0.002517392
0.002514782
6.609596e-12
5.233434e-06
-1.521589e-05
-0.002510097
0.00250734
-5.582574e-13
1.797287e-05
-3.700641e-05
-0.002505626
0.002506999
-7.386844e-12
3.563355e-05
-9.147252e-05
-0.002509308
0.002539523
-1.468158e-11
6.125791e-05
-2.033328e-05
-0.002575866
0.002575234
-1.959126e-11
6.69636e-05
-1.305909e-05
-2.01814e-05
-1.275795e-05
-6.935563e-06
-0.002565249
0.00256299
-2.188195e-11
3.004273e-05
-7.329822e-06
-6.582873e-06
-6.935425e-06
-6.504775e-06
-0.002564697
0.002564381
-2.241359e-11
2.509825e-05
-6.174013e-06
-6.214957e-06
-5.888932e-06
-4.802085e-06
-0.00256155
0.002558412
-1.548065e-11
2.135026e-05
-4.539901e-06
-4.559821e-06
-4.310919e-06
-4.155242e-06
-0.002555712
0.002553622
-4.439114e-12
1.824757e-05
-4.120539e-06
-3.955803e-06
-3.925724e-06
-3.942001e-06
-0.002551898
0.002550333
9.424446e-12
1.690231e-05
-3.897757e-06
-3.768798e-06
-3.72795e-06
-3.721218e-06
-0.002548766
0.002547236
2.205416e-11
1.601791e-05
-3.676006e-06
-3.565775e-06
-3.525048e-06
-3.583507e-06
-0.002545728
0.002544268
3.064583e-11
1.547946e-05
-3.561137e-06
-3.446475e-06
-3.427969e-06
-3.51446e-06
-0.002542805
0.002541355
3.338311e-11
1.524111e-05
-3.500394e-06
-3.393651e-06
-3.38265e-06
-3.466085e-06
-0.002539879
0.002538406
2.996851e-11
1.510331e-05
-3.454152e-06
-3.359499e-06
-3.350402e-06
-3.422161e-06
-0.00253692
0.00253546
2.10514e-11
1.494334e-05
-3.411444e-06
-3.328685e-06
-3.320655e-06
-3.374987e-06
-0.002534012
0.002532618
9.465955e-12
1.471227e-05
-3.364509e-06
-3.293207e-06
-3.28503e-06
-3.32386e-06
-0.002531256
0.002529963
-3.037379e-12
1.442768e-05
-3.314104e-06
-3.252238e-06
-3.244374e-06
-3.27615e-06
-0.002528711
0.002527523
-1.430969e-11
1.415272e-05
-3.268243e-06
-3.213501e-06
-3.207245e-06
-3.238742e-06
-0.002526372
0.002525266
-2.302663e-11
1.394139e-05
-3.233112e-06
-3.184077e-06
-3.179877e-06
-3.213695e-06
-0.002524184
0.002523125
-2.897316e-11
1.381204e-05
-3.21009e-06
-3.166038e-06
-3.163651e-06
-3.199111e-06
-0.002522077
0.002521034
-3.168745e-11
1.375274e-05
-3.196929e-06
-3.157559e-06
-3.15642e-06
-3.191956e-06
-0.002519992
0.002518943
-3.127088e-11
1.374278e-05
-3.190691e-06
-3.155738e-06
-3.155382e-06
-3.189076e-06
-0.002517887
0.00251682
-2.838415e-11
1.375902e-05
-3.188068e-06
-3.157572e-06
-3.15737e-06
-3.185126e-06
-0.002515747
0.002514671
-2.374978e-11
1.375915e-05
-3.18349e-06
-3.157837e-06
-3.156916e-06
-3.174957e-06
-0.002513599
0.002512543
-1.805357e-11
1.370375e-05
-3.172314e-06
-3.151419e-06
-3.149391e-06
-3.158096e-06
-0.002511505
0.002510501
-1.200676e-11
1.358992e-05
-3.154889e-06
-3.137858e-06
-3.135159e-06
-3.138957e-06
-0.002509524
0.002508588
-6.154141e-12
1.345107e-05
-3.136049e-06
-3.121193e-06
-3.118615e-06
-3.123374e-06
-0.00250768
0.002506805
-1.171026e-12
1.333273e-05
-3.12157e-06
-3.107307e-06
-3.105823e-06
-3.115425e-06
-0.002505951
0.002505117
3.178007e-12
1.326702e-05
-3.115014e-06
-3.10099e-06
-3.100828e-06
-3.115926e-06
0.002503472
5.841463e-12
1.326034e-05
-3.116752e-06
-3.102978e-06
-3.103947e-06
-0.002504293
-3.123367e-06
-0.002502653
0.002501824
6.755651e-12
1.330321e-05
-3.125065e-06
-3.11196e-06
-3.113926e-06
-3.136634e-06
-0.002500988
0.00250013
6.368148e-12
1.338929e-05
-3.138962e-06
-3.126741e-06
-3.129345e-06
-3.153067e-06
-0.002499259
0.002498362
5.017033e-12
1.349659e-05
-3.155549e-06
-3.144413e-06
-3.147036e-06
-3.168572e-06
-0.002497452
0.002496523
3.034069e-12
1.359241e-05
-3.170609e-06
-3.161004e-06
-3.163201e-06
-3.180275e-06
-0.002495585
0.002494638
8.763593e-13
1.365779e-05
-3.181681e-06
-3.17368e-06
-3.175213e-06
-3.188217e-06
-0.002493688
0.002492736
-2.11701e-12
1.369616e-05
-3.189209e-06
-3.182391e-06
-3.183453e-06
-3.194213e-06
-0.002491783
0.002490827
-5.086883e-12
1.372385e-05
-3.195107e-06
-3.188998e-06
-3.18993e-06
-3.200359e-06
-0.00248987
0.002488906
-7.388084e-12
1.375821e-05
-3.201398e-06
-3.19569e-06
-3.196769e-06
-3.208107e-06
-0.002487937
0.002486954
-8.865886e-12
1.380998e-05
-3.209403e-06
-3.203996e-06
-3.20535e-06
-3.217878e-06
-0.002485961
0.002484948
-9.524946e-12
1.388099e-05
-3.219405e-06
-3.21436e-06
-3.215958e-06
-3.229e-06
-0.00248392
0.00248287
-9.40837e-12
1.396371e-05
-3.230602e-06
-3.226082e-06
-3.227761e-06
-3.23979e-06
-0.002481804
0.002480719
-8.767814e-12
1.404257e-05
-3.241213e-06
-3.237443e-06
-3.238935e-06
-3.248355e-06
-0.002479621
0.002478512
-7.880407e-12
1.410073e-05
-3.249401e-06
-3.24654e-06
-3.247641e-06
-3.253948e-06
-0.002477395
0.002476277
-7.043455e-12
1.413251e-05
-3.254688e-06
-3.252603e-06
-3.2534e-06
-3.257646e-06
-0.002475154
0.002474036
-6.64067e-12
1.414791e-05
-3.258435e-06
-3.256679e-06
-3.257513e-06
-3.261536e-06
-0.002472911
0.002471791
-6.274146e-12
1.416764e-05
-3.262818e-06
-3.260931e-06
-3.262216e-06
-3.267288e-06
-0.002470656
0.002469519
-5.270185e-12
1.42099e-05
-3.269336e-06
-3.267224e-06
-3.269449e-06
-3.275761e-06
-0.002468354
0.002467178
-4.001296e-12
1.428568e-05
-3.278903e-06
-3.276207e-06
-3.279526e-06
-3.28625e-06
-0.002465957
0.002464721
-2.863746e-12
1.439182e-05
-3.290971e-06
-3.286847e-06
-3.291614e-06
-3.296721e-06
-0.002463422
0.002462108
3.817059e-13
1.451593e-05
-3.303474e-06
-3.297359e-06
-3.304275e-06
-3.302582e-06
-0.002460721
0.002459339
7.65058e-12
1.46131e-05
-3.312158e-06
-3.303321e-06
-3.313119e-06
-3.292649e-06
-0.002457909
0.002456535
1.179948e-11
1.456713e-05
-3.302903e-06
-3.293263e-06
-3.303964e-06
-3.189748e-06
-0.002455099
0.002453577
-3.167075e-12
1.425626e-05
-3.176678e-06
-3.190187e-06
-3.177742e-06
-2.874015e-06
-0.002451468
0.002448641
-1.733188e-11
1.377756e-05
-2.599187e-06
-2.873917e-06
-2.602553e-06
-2.364399e-06
-0.002446982
0.002443176
-4.829522e-12
1.349195e-05
-2.487257e-06
-2.355219e-06
-2.479027e-06
-3.361501e-06
-0.002441513
0.002440084
3.070084e-12
1.491807e-05
-3.390785e-06
-3.354776e-06
-3.382583e-06
-3.326992e-06
-0.002438242
0.002435944
3.136583e-12
1.545058e-05
-3.257282e-06
-3.318761e-06
-3.24945e-06
-3.351532e-06
-0.002433627
0.00243132
1.889116e-12
1.572132e-05
-3.363176e-06
-3.344083e-06
-3.355559e-06
-3.428482e-06
-0.002428997
0.002426541
-8.077738e-13
1.615098e-05
-3.426607e-06
-3.420319e-06
-3.419328e-06
-3.463278e-06
-0.002423988
0.002421306
-1.715081e-12
1.651224e-05
-3.459691e-06
-3.455237e-06
-3.452119e-06
-3.50894e-06
-0.002418555
0.002415686
-2.915037e-12
1.689401e-05
-3.510473e-06
-3.50181e-06
-3.503587e-06
-3.563132e-06
-0.002412749
0.002409688
-4.766292e-12
1.730747e-05
-3.566973e-06
-3.556446e-06
-3.560363e-06
-3.61996e-06
-0.002406556
0.002403297
-6.757265e-12
1.773605e-05
-3.625118e-06
-3.613483e-06
-3.618618e-06
-3.680225e-06
-0.002399963
0.002396496
-9.336686e-12
1.818864e-05
-3.686954e-06
-3.674013e-06
-3.680741e-06
-3.745451e-06
-0.002392948
0.002389259
-1.23945e-11
1.867539e-05
-3.753767e-06
-3.739422e-06
-3.747985e-06
-3.815063e-06
-0.002385477
0.002381541
-1.483634e-11
1.920279e-05
-3.823912e-06
-3.809326e-06
-3.818406e-06
-3.887003e-06
-0.002377501
0.0023733
-1.608135e-11
1.975682e-05
-3.896376e-06
-3.881551e-06
-3.891092e-06
-3.960054e-06
-0.002368987
0.002364506
-1.671927e-11
2.033093e-05
-3.969889e-06
-3.95483e-06
-3.964787e-06
-4.032839e-06
-0.002359903
0.002355125
-1.668489e-11
2.092015e-05
-4.043012e-06
-4.027881e-06
-4.038148e-06
-4.104871e-06
-0.002350215
0.002345116
-1.55375e-11
2.153061e-05
-4.115323e-06
-4.100295e-06
-4.110816e-06
-4.17692e-06
-0.002339871
0.002334424
-1.389467e-11
2.216723e-05
-4.187842e-06
-4.172395e-06
-4.183406e-06
-4.247444e-06
-0.002328818
0.002323003
-1.234952e-11
2.281694e-05
-4.2577e-06
-4.243042e-06
-4.253387e-06
-4.311987e-06
-0.002317022
0.002310835
-1.080423e-11
2.344443e-05
-4.320841e-06
-4.307828e-06
-4.316747e-06
-4.365649e-06
-0.002304488
0.00229795
-9.334348e-12
2.400598e-05
-4.372608e-06
-4.361741e-06
-4.368672e-06
-4.404658e-06
-0.002291269
0.002284425
-7.796636e-12
2.446544e-05
-4.409654e-06
-4.401013e-06
-4.405776e-06
-4.427528e-06
-0.00227746
0.002270362
-6.381794e-12
2.480796e-05
-4.431066e-06
-4.424216e-06
-4.427121e-06
-4.434988e-06
-0.00226317
0.002255873
-5.428276e-12
2.503359e-05
-4.436482e-06
-4.431763e-06
-4.433531e-06
-4.428188e-06
-0.002248509
0.002241069
-5.079524e-12
2.514377e-05
-4.427201e-06
-4.424781e-06
-4.424144e-06
-4.407346e-06
-0.002233591
0.002226069
-5.406575e-12
2.513703e-05
-4.403431e-06
-4.403885e-06
-4.40043e-06
-4.37325e-06
0.002210995
-5.835318e-12
2.50136e-05
-0.002218537
-4.365612e-06
-4.369665e-06
-4.362916e-06
-4.327056e-06
-0.002203471
0.00219597
-6.13849e-12
2.478317e-05
-4.316432e-06
-4.324445e-06
-4.313808e-06
-4.270866e-06
-0.00218851
0.002181099
-6.561424e-12
2.446478e-05
-4.258713e-06
-4.26829e-06
-4.25598e-06
-4.207811e-06
-0.002173747
0.002166469
-7.067004e-12
2.4077e-05
-4.194406e-06
-4.205134e-06
-4.191643e-06
-4.139671e-06
-0.002159265
0.002152154
-7.040465e-12
2.36357e-05
-4.125329e-06
-4.136942e-06
-4.122558e-06
-4.068151e-06
-0.002145127
0.002138205
-6.607352e-12
2.315888e-05
-4.053111e-06
-4.065456e-06
-4.050369e-06
-3.995108e-06
-0.002131373
0.00212465
-6.121812e-12
2.266707e-05
-3.979447e-06
-3.992553e-06
-3.97689e-06
-3.922129e-06
-0.002118014
0.002111481
-5.206369e-12
2.218413e-05
-3.905897e-06
-3.919756e-06
-3.90351e-06
-3.850585e-06
-0.002105029
0.002098666
-3.904987e-12
2.172847e-05
-3.833934e-06
-3.848411e-06
-3.831743e-06
-3.783514e-06
-0.002092366
0.002086133
-2.802143e-12
2.133062e-05
-3.766978e-06
-3.781596e-06
-3.765075e-06
-3.725745e-06
-0.00207994
0.00207378
-2.008689e-12
2.102842e-05
-3.710226e-06
-3.724055e-06
-3.70855e-06
-3.684873e-06
-0.00206762
0.002061449
-1.045148e-12
2.087974e-05
-3.671413e-06
-3.6833e-06
-3.669847e-06
-3.667965e-06
-0.002055228
0.002048947
2.867732e-13
2.092852e-05
-3.65725e-06
-3.666448e-06
-3.655818e-06
-3.682718e-06
-0.002042543
0.002036025
1.843683e-12
2.123038e-05
-3.675127e-06
-3.681203e-06
-3.673769e-06
-3.734312e-06
-0.002029307
0.002022414
3.179802e-12
2.181995e-05
-3.730671e-06
-3.732738e-06
-3.729096e-06
-3.826259e-06
-0.002015217
0.002007791
3.670649e-12
2.27328e-05
-3.829031e-06
-3.824603e-06
-3.827022e-06
-3.956899e-06
-0.001999957
0.001991828
3.100454e-12
2.397678e-05
-3.968918e-06
-3.955179e-06
-3.966745e-06
-4.124169e-06
-0.001983154
0.001974151
2.7071e-12
2.553412e-05
-4.143511e-06
-4.122478e-06
-4.141652e-06
-4.316409e-06
-0.001964476
0.001954424
3.994862e-12
2.73542e-05
-4.336425e-06
-4.314649e-06
-4.334757e-06
-4.513868e-06
-0.001943543
0.001932345
6.719463e-12
2.928297e-05
-4.530277e-06
-4.512148e-06
-4.528456e-06
-4.686305e-06
-0.001920189
0.001907731
1.077911e-11
3.122924e-05
-4.700575e-06
-4.684847e-06
-4.698947e-06
-4.811467e-06
-0.001894165
0.001880534
1.605544e-11
3.28868e-05
-4.81725e-06
-4.810218e-06
-4.81616e-06
-4.864834e-06
-0.001865722
0.001851021
2.162206e-11
3.41557e-05
-4.863492e-06
-4.864048e-06
-4.862956e-06
-4.834581e-06
-0.001835218
0.001820166
2.775974e-11
3.436591e-05
-4.823273e-06
-4.833544e-06
-4.822563e-06
-4.195372e-06
-0.001803621
0.001782227
3.793402e-11
3.611011e-05
-3.164359e-06
-4.191259e-06
-3.164596e-06
-2.617418e-06
-0.0004384065
0.0004334047
-9.612118e-10
7.620223e-06
-4.869609e-06
-0.0004236431
0.000420391
-1.454738e-09
8.123138e-06
-4.628431e-06
-0.0004108661
0.0004077648
-1.110611e-09
7.730895e-06
-4.550304e-06
-0.0003987688
0.0003958881
-6.597581e-10
7.431591e-06
-4.541243e-06
-0.0003875434
0.0003848428
-5.13229e-10
7.242359e-06
-4.370268e-06
-0.0003769817
0.0003744458
-2.907904e-10
6.906379e-06
-4.192594e-06
-0.0003671098
0.000364752
-3.581179e-10
6.550736e-06
-3.92566e-06
-0.000357931
0.000355751
-5.51571e-10
6.106217e-06
-3.611125e-06
-0.000349485
0.0003474943
-1.077663e-09
5.60291e-06
-3.259353e-06
-0.0003418108
0.0003400207
-1.326817e-09
5.050773e-06
-2.903664e-06
-0.0003349433
0.0003333579
-1.760522e-09
4.490813e-06
-2.580406e-06
-0.0003288885
0.0003275035
-2.106757e-09
3.967561e-06
-2.308851e-06
-0.0003236228
0.0003224306
-2.344992e-09
3.503374e-06
-2.097537e-06
-0.0003191162
0.0003181091
-2.127776e-09
3.106785e-06
-1.92032e-06
-0.0003153404
0.0003145122
-1.330022e-09
2.749805e-06
-1.748156e-06
-0.0003122717
0.0003116139
-6.515857e-10
2.406655e-06
-1.577307e-06
-0.0003098633
0.0003093641
-3.57726e-10
2.076836e-06
-1.418474e-06
-0.0003080731
0.0003077267
-1.687754e-10
1.764994e-06
-1.252714e-06
-0.0003068387
0.0003066201
-1.995139e-10
1.471548e-06
-1.150308e-06
-0.0003061552
0.0003060705
-3.559675e-10
1.235368e-06
-1.066275e-06
-0.0003059822
0.0003060149
-4.712761e-10
1.034093e-06
-9.984962e-07
-0.0003062617
0.0003063999
-4.465901e-10
8.607403e-07
-9.43904e-07
-0.0003069489
0.0003071827
-3.179639e-10
7.104509e-07
-8.998933e-07
-0.0003080072
0.0003083288
-1.818996e-10
5.784621e-07
-8.646647e-07
-0.0003094069
0.0003098093
-8.719546e-11
4.623346e-07
-8.35671e-07
-0.000311123
0.0003116014
-3.606983e-11
3.572783e-07
-8.09883e-07
-0.000313139
0.0003136913
-1.240958e-11
2.576003e-07
-7.860659e-07
-0.0003154452
0.0003160679
1.687996e-11
1.633523e-07
-7.625479e-07
-0.0003180312
0.0003187233
6.308554e-11
7.038922e-08
-7.395872e-07
-0.0003209002
0.0003216625
1.039663e-10
-2.283563e-08
-7.14172e-07
-0.0003240468
0.0003248814
1.584137e-10
-1.205781e-07
-6.857556e-07
-0.0003274881
0.0003284021
2.134625e-10
-2.284368e-07
-6.495206e-07
-0.0003312541
0.0003322596
2.745187e-10
-3.562533e-07
-5.890421e-07
-0.0003354002
0.0003365225
3.205193e-10
-5.336657e-07
-4.356291e-07
-0.00034008
0.000341406
3.37029e-10
-8.906683e-07
9.406212e-07
-0.0003458539
0.0003468378
3.576821e-10
-1.924849e-06
2.538483e-06
-0.00034953
0.0003506012
2.365286e-10
-3.609903e-06
2.516209e-06
-0.0003540731
0.0003553058
2.08805e-10
-3.749212e-06
2.706449e-06
-0.0003591151
0.0003604212
1.334676e-10
-4.012689e-06
2.852392e-06
-0.0003644205
0.0003657943
4.98408e-11
-4.226301e-06
2.950803e-06
-0.0003700039
0.0003714401
-1.229449e-12
-4.387037e-06
3.06706e-06
-0.0003758097
0.000377293
-7.550883e-12
-4.550348e-06
3.164401e-06
-0.0003818027
0.0003833307
1.389391e-11
-4.692427e-06
3.260058e-06
-0.0003879592
0.0003895209
6.367226e-11
-4.82181e-06
3.346949e-06
-0.000394242
0.0003958311
9.168894e-11
-4.936138e-06
3.426926e-06
-0.0004006233
0.0004022313
1.258571e-10
-5.035016e-06
3.497376e-06
-0.0004070695
0.0004086886
1.833042e-10
-5.116711e-06
3.558829e-06
-0.0004135467
0.0004151675
2.24796e-10
-5.179785e-06
3.608505e-06
-0.0004200176
0.00042163
2.564135e-10
-5.221176e-06
3.643818e-06
-0.000426441
0.0004280341
2.698759e-10
-5.237242e-06
3.661782e-06
-0.0004327701
0.0004343315
2.816358e-10
-5.22339e-06
3.659284e-06
-0.0004389517
0.0004404661
2.914733e-10
-5.173988e-06
3.631581e-06
-0.0004449228
0.0004463733
2.858803e-10
-5.082386e-06
3.574725e-06
-0.000450612
0.0004519784
2.702343e-10
-4.941441e-06
3.482887e-06
-0.0004559375
0.000457198
2.62967e-10
-4.743676e-06
3.350907e-06
-0.0004608074
0.0004619376
2.418227e-10
-4.481341e-06
3.174041e-06
-0.0004651209
0.0004660932
2.11278e-10
-4.146515e-06
2.940015e-06
-0.000468766
0.0004695535
1.879355e-10
-3.72767e-06
2.634772e-06
-0.0004716167
0.0004721943
1.697103e-10
-3.212542e-06
2.235088e-06
-0.0004735292
0.0004738569
1.549098e-10
-2.56288e-06
1.776757e-06
-0.0004744726
0.0004745081
1.077031e-10
-1.812361e-06
1.285066e-06
-0.0004741786
0.0004738872
8.69718e-11
-9.938007e-07
7.224492e-07
-0.0004725515
0.0004719132
7.903091e-11
-8.41776e-08
1.829192e-07
-0.0004694556
0.0004684011
6.607355e-11
8.7147e-07
-4.720726e-07
-0.0004646559
0.0004631419
2.63257e-10
1.98576e-06
-1.562421e-06
-0.000457841
0.0004557971
6.702935e-10
3.605651e-06
-3.290346e-06
-0.0004490846
0.0004465133
1.269672e-09
5.860402e-06
-5.282044e-06
-0.00043803
0.0004347924
8.525581e-10
8.518819e-06
-7.55227e-06
-0.0004245218
0.0004207661
-4.654269e-10
1.13084e-05
-9.104534e-06
-0.0004090292
0.0004049629
-8.776336e-11
1.317091e-05
-1.011284e-05
-0.0003852226
0.001618768
1.49386e-10
6.541437e-05
-9.289774e-06
-1.01252e-05
-9.310114e-06
-0.0003852003
-0.0004374521
-0.0004374697
-7.773169e-06
-0.001588476
0.001554834
-4.121116e-10
6.178109e-05
-6.303481e-06
-7.76964e-06
-6.292921e-06
-2.048224e-06
-0.001519521
0.001485195
-2.162736e-10
4.135671e-05
-1.464851e-06
-2.049728e-06
-1.468069e-06
7.900845e-07
-0.001452844
0.001422201
1.700989e-10
2.742909e-05
8.346033e-07
7.724214e-07
8.172245e-07
1.344332e-06
-0.001393162
0.001366082
4.228003e-10
2.179713e-05
1.312687e-06
1.328785e-06
1.297359e-06
9.514175e-07
-0.001341242
0.001318732
5.745707e-10
1.888032e-05
8.754773e-07
9.387158e-07
8.634553e-07
5.638725e-07
-0.001298052
0.001278989
6.033617e-10
1.693632e-05
5.096541e-07
5.535861e-07
4.994722e-07
2.899668e-07
-0.001261196
0.001244412
4.536208e-10
1.568775e-05
2.663254e-07
2.812494e-07
2.578257e-07
1.157692e-07
-0.001228478
0.001213265
1.973426e-10
1.479375e-05
1.012318e-07
1.080823e-07
9.415911e-08
4.243854e-08
-0.001198752
0.001184931
-3.584151e-11
1.366399e-05
4.227574e-08
3.620569e-08
3.664824e-08
7.62444e-08
-0.001171804
0.00115947
-2.1255e-10
1.201331e-05
8.777793e-08
7.25086e-08
8.428635e-08
1.794542e-07
-0.001147924
0.001137277
-3.268976e-10
9.914969e-06
1.900784e-07
1.76114e-07
1.870645e-07
3.137804e-07
-0.001127464
0.001118577
-3.970661e-10
7.621294e-06
3.219044e-07
3.113343e-07
3.191314e-07
4.756594e-07
-0.001110485
0.001103228
-4.396386e-10
5.323354e-06
4.920937e-07
4.7443e-07
4.915741e-07
6.63014e-07
-0.001096613
0.001090713
-4.501249e-10
3.200051e-06
6.887999e-07
6.617313e-07
6.864704e-07
8.491777e-07
-0.001085337
0.001080636
-4.557238e-10
1.270117e-06
8.679457e-07
8.476986e-07
8.66485e-07
1.022996e-06
-0.001076423
0.0010728
-4.219644e-10
-4.967732e-07
1.038635e-06
1.021613e-06
1.037294e-06
1.185379e-06
-0.001069585
0.001066995
-3.605433e-10
-2.183429e-06
1.202446e-06
1.184045e-06
1.201152e-06
1.357923e-06
-0.001064808
0.001063261
-2.863927e-10
-3.923457e-06
1.378368e-06
1.356675e-06
1.377188e-06
1.543606e-06
-0.001062107
0.001061611
-2.103841e-10
-5.718721e-06
1.565065e-06
1.542325e-06
1.563839e-06
1.725729e-06
-0.001061488
0.00106197
-1.428078e-10
-7.424892e-06
1.746701e-06
1.724433e-06
1.745445e-06
1.903144e-06
-0.001062807
0.001064208
-8.763861e-11
-9.053494e-06
1.924194e-06
1.901863e-06
1.922974e-06
2.078547e-06
-0.001065939
0.001068195
-5.008405e-11
-1.061027e-05
2.099825e-06
2.077319e-06
2.098661e-06
2.244203e-06
-0.001070741
0.001073753
-3.188599e-11
-1.202374e-05
2.263216e-06
2.242965e-06
2.26209e-06
2.385333e-06
-0.001077003
0.00108064
-2.6979e-11
-1.320609e-05
2.400757e-06
2.384052e-06
2.39946e-06
2.501129e-06
-0.001084462
0.001088599
-2.394994e-11
-1.41636e-05
2.513937e-06
2.499796e-06
2.512549e-06
2.600068e-06
-0.001092877
0.001097414
-1.52807e-11
-1.495682e-05
2.611442e-06
2.598709e-06
2.610136e-06
2.69129e-06
-0.001102064
0.001106938
-1.749389e-12
-1.565796e-05
2.702235e-06
2.689974e-06
2.700954e-06
2.777891e-06
-0.001111908
0.001117074
1.541897e-11
-1.629615e-05
2.788222e-06
2.776586e-06
2.786949e-06
2.858824e-06
-0.001122321
0.001127742
2.909091e-11
-1.687344e-05
2.86856e-06
2.857497e-06
2.867251e-06
2.936511e-06
-0.00113323
0.001138881
3.691507e-11
-1.741414e-05
2.946239e-06
2.935151e-06
2.944903e-06
3.015341e-06
-0.001144593
0.001150466
3.766303e-11
-1.795276e-05
3.025608e-06
3.01397e-06
3.024282e-06
3.098617e-06
-0.0011564
0.001162501
3.338162e-11
-1.851519e-05
3.109638e-06
3.097257e-06
3.108271e-06
3.188059e-06
-0.001168667
0.00117501
2.797496e-11
-1.9116e-05
3.200024e-06
3.186634e-06
3.198601e-06
3.284078e-06
-0.001181423
0.001188024
2.32542e-11
-1.976031e-05
3.297085e-06
3.282613e-06
3.295641e-06
3.386466e-06
-0.001194703
0.001201578
1.978016e-11
-2.044617e-05
3.400306e-06
3.384955e-06
3.398815e-06
3.494173e-06
-0.001208537
0.001215701
1.711074e-11
-2.116539e-05
3.508458e-06
3.492602e-06
3.50689e-06
3.605337e-06
-0.001222952
0.00123041
1.490173e-11
-2.190603e-05
3.620093e-06
3.603731e-06
3.618504e-06
3.718219e-06
-0.001237958
0.001245713
1.304379e-11
-2.265372e-05
3.733032e-06
3.716636e-06
3.731469e-06
3.830639e-06
-0.001253557
0.001261601
1.138008e-11
-2.339221e-05
3.845313e-06
3.829028e-06
3.843728e-06
3.939937e-06
-0.001269732
0.001278051
9.924835e-12
-2.410361e-05
3.954233e-06
3.938243e-06
3.952498e-06
4.043258e-06
-0.001286452
0.001295023
8.709748e-12
-2.4768e-05
4.057139e-06
4.041501e-06
4.05535e-06
4.136737e-06
-0.001303667
0.001312454
7.610398e-12
-2.535778e-05
4.150291e-06
4.13498e-06
4.148524e-06
4.211082e-06
-0.001321294
0.001330245
6.530571e-12
-2.581512e-05
4.2227e-06
4.209096e-06
4.220733e-06
4.224946e-06
-0.001339235
0.001348378
5.539091e-12
-2.60238e-05
4.217192e-06
4.223017e-06
4.215328e-06
4.09484e-06
-0.001357729
0.001367368
4.482736e-12
-2.59193e-05
4.047934e-06
4.092264e-06
4.045293e-06
3.956534e-06
-0.00137715
0.001386998
3.519206e-12
-2.563095e-05
3.936722e-06
3.954428e-06
3.934637e-06
3.956247e-06
-0.001396838
0.001406696
2.699447e-12
-2.569623e-05
3.964617e-06
3.954529e-06
3.962838e-06
3.95732e-06
-0.001416588
0.001426506
1.817987e-12
-2.57511e-05
3.960873e-06
3.95539e-06
3.95884e-06
3.934615e-06
-0.001436398
0.001446269
7.890079e-13
-2.562126e-05
3.942897e-06
3.932354e-06
3.940713e-06
3.889096e-06
-0.001456097
0.001465878
-3.552449e-13
-2.536208e-05
3.903634e-06
3.886891e-06
3.901443e-06
3.802248e-06
-0.001475535
0.001485084
-9.862243e-13
-2.484921e-05
3.850021e-06
3.799775e-06
3.847973e-06
3.62908e-06
-0.001494381
0.001503672
-6.700837e-12
-2.394824e-05
3.702962e-06
3.625141e-06
3.699402e-06
3.27939e-06
-0.001512571
0.001521845
-2.474119e-12
-2.226839e-05
3.222265e-06
3.276347e-06
3.217243e-06
3.093502e-06
-0.00153286
0.001540859
-3.450397e-12
-2.056155e-05
3.18425e-06
3.09756e-06
3.187208e-06
2.782833e-06
-0.001547956
0.001555312
-1.486381e-12
-1.804624e-05
2.554524e-06
2.790298e-06
2.562895e-06
2.253695e-06
-0.001562704
0.001569575
1.090285e-12
-1.561634e-05
2.111477e-06
2.261729e-06
2.11877e-06
1.743816e-06
-0.001576016
0.001581862
3.82117e-12
-1.25976e-05
1.625449e-06
1.750712e-06
1.632164e-06
1.216141e-06
-0.00158734
0.001592179
6.843294e-12
-9.519247e-06
1.117355e-06
1.222841e-06
1.123662e-06
7.169058e-07
-0.001596541
0.001600213
-1.200584e-12
-6.38284e-06
6.330092e-07
7.225908e-07
6.381877e-07
2.877484e-07
-0.001603341
0.001605764
-1.644632e-11
-3.427489e-06
2.091408e-07
2.937177e-07
2.143437e-07
-1.586984e-07
-0.001607717
0.001609004
-1.030162e-11
-5.150815e-07
-2.313776e-07
-1.544678e-07
-2.279155e-07
-6.003946e-07
-0.001609824
0.001609928
1.137986e-11
2.44345e-06
-6.741856e-07
-5.992508e-07
-6.739442e-07
-1.035457e-06
-0.001609565
0.00160854
1.378292e-11
5.302586e-06
-1.100925e-06
-1.037369e-06
-1.103432e-06
-1.360296e-06
-0.001607066
0.001604909
4.017924e-12
7.656539e-06
-1.389485e-06
-1.36072e-06
-1.389464e-06
-1.462826e-06
-0.001602194
0.001598717
-4.678709e-12
9.322505e-06
-1.459998e-06
-1.462827e-06
-1.459824e-06
-1.494483e-06
-0.001594698
0.001590032
1.976655e-11
1.063041e-05
-1.488515e-06
-1.493867e-06
-1.487731e-06
-1.48992e-06
-0.001584888
0.001579192
7.851131e-11
1.163235e-05
-1.479948e-06
-1.488477e-06
-1.478334e-06
-1.452261e-06
-0.001573089
0.001566538
9.585885e-11
1.232972e-05
-1.438975e-06