/*--------------------------------*- C++ -*----------------------------------*\
| =========                 |                                                 |
| \\      /  F ield         | foam-extend: Open Source CFD                    |
|  \\    /   O peration     | Version:     3.1                                |
|   \\  /    A nd           | Web:         http://www.extend-project.de       |
|    \\/     M anipulation  |                                                 |
\*---------------------------------------------------------------------------*/
FoamFile
{
    version     2.0;
    format      ascii;
    class       volScalarField;
    location    "1.5";
    object      nut;
}
// * * * * * * * * * * * * * * * * * * * * * * * * * * * * * * * * * * * * * //

dimensions      [0 2 -1 0 0 0 0];

internalField   nonuniform List<scalar> 
119952
(
3.780936e-05
2.179087e-05
2.255272e-05
2.748869e-05
3.146227e-05
3.037485e-05
2.972237e-05
2.917437e-05
2.86159e-05
2.801357e-05
2.736713e-05
2.668548e-05
2.597855e-05
2.525471e-05
2.45205e-05
2.37808e-05
2.303889e-05
2.229563e-05
2.154254e-05
2.080676e-05
2.837966e-05
2.69011e-05
2.630023e-05
3.677335e-05
3.564682e-05
3.502709e-05
3.448302e-05
3.424753e-05
3.343831e-05
3.593869e-05
1.884065e-05
1.824321e-05
2.091536e-05
2.495407e-05
2.983355e-05
3.517783e-05
4.082349e-05
4.662089e-05
5.256898e-05
6.241713e-05
0.0001938286
0.0002712184
0.0003501088
0.0004226611
0.0004863429
0.0005422043
0.0005925375
0.000639474
0.0006845739
0.001046122
0.001143733
0.001245992
0.00134851
0.001447396
0.001540239
0.001626176
0.001705488
0.001779025
0.001847577
0.001918167
0.001999587
0.002090215
0.002185456
0.002280551
0.002372208
0.00245917
0.002542487
0.002626109
0.002613585
0.00260807
0.002647124
0.002706062
0.002765909
0.002818262
0.002863897
0.002902137
0.002932068
0.002954201
0.002969955
0.002980576
0.002986928
0.002989852
0.002990167
0.002988691
0.00298636
0.002984622
0.002986838
0.002995164
0.00300988
0.003025424
0.003048683
0.003082912
0.003106637
0.003113822
0.003104186
0.003056315
0.002891864
0.002626102
0.00255997
0.002534289
0.002521133
0.002513489
0.002508984
0.002506213
0.002504204
0.002502277
0.00249998
0.002497049
0.002493351
0.002488847
0.002483548
0.002477498
0.002470754
0.002463373
0.00245541
0.00244691
0.002437916
0.002428466
0.002418598
0.002408354
0.002397779
0.002386922
0.002375839
0.002364584
0.002353215
0.002341784
0.002330334
0.002318898
0.002307499
0.002296151
0.002284856
0.002273628
0.002262465
0.002251296
0.002240067
0.002228791
0.002217463
0.002206056
0.002194536
0.002182878
0.002171068
0.002159105
0.002146998
0.00213478
0.002122538
0.002110619
0.002099633
0.002058322
0.002003721
0.001954548
0.00191281
0.001877839
0.001848357
0.001823127
0.001801143
0.001781632
0.001764014
0.001747854
0.00173283
0.001718697
0.001705267
0.0016924
0.001679983
0.001667933
0.00165618
0.001644669
0.001633355
0.001622201
0.001611176
0.001600257
0.001589457
0.001578764
0.001568049
0.001557314
0.001546613
0.001535943
0.001525282
0.001514617
0.001503938
0.001493235
0.0014825
0.001471725
0.001460904
0.001450028
0.001439091
0.001428083
0.001416998
0.001405826
0.001394558
0.001383186
0.001371704
0.001360107
0.001348386
0.001336545
0.001324605
0.001312844
0.001301734
0.001028245
0.0007989157
0.0007246119
0.0006882265
0.0006651289
0.0006480407
0.0006341988
0.0006223168
0.0006117021
0.0006019453
0.0005927882
0.0005840707
0.0005756799
0.000567541
0.0005595942
0.0005517979
0.0005442042
0.0005367381
0.0005293249
0.0005219586
0.0005146765
0.000507471
0.0005003312
0.0004932461
0.0004862143
0.0004792304
0.0004722896
0.0004653967
0.0004585531
0.0004517655
0.0004450479
0.0004384367
0.0004320427
0.0004259146
0.0004208998
0.0004241135
0.0004387316
0.0004518834
0.0004633915
0.0004736289
0.0004829363
0.0004916069
0.0004998239
0.0005077308
0.0005154249
0.0005229662
0.0005303927
0.0005377378
0.0005450203
0.0005522529
0.0005594449
0.000566603
0.0005737329
0.0005808395
0.0005879274
0.0005950011
0.000602065
0.0006091237
0.0006161812
0.0006232414
0.0006303105
0.0006373876
0.0006444698
0.0006515641
0.0006586705
0.0006657882
0.0006729164
0.0006800526
0.0006872122
0.000694498
0.0009841258
0.001029766
0.001077948
0.001127142
0.001175639
0.00122192
0.001264773
0.001303548
0.001338114
0.001368715
0.001395796
0.001419876
0.001441457
0.001460987
0.001478841
0.001495328
0.001510696
0.001525146
0.001538838
0.0015519
0.001564433
0.00157652
0.001588229
0.001599615
0.001610725
0.001621597
0.001632264
0.001642754
0.001653093
0.001663302
0.0016734
0.001683402
0.001693321
0.001703168
0.001712952
0.001722679
0.001732354
0.001741978
0.001751551
0.00176107
0.001770526
0.001779896
0.00178914
0.001798168
0.001806764
0.001814467
0.001821036
0.001827203
0.001833167
0.001839028
0.001844831
0.001850592
0.001856337
0.001862377
0.001866437
0.001877104
0.001896623
0.001923238
0.00195437
0.001987456
0.002020332
0.002051466
0.002079954
0.002105437
0.002127944
0.002147735
0.002165173
0.002180638
0.002194486
0.002207025
0.00221851
0.002229149
0.002239108
0.002248516
0.002257476
0.00226607
0.00227436
0.002282398
0.002290224
0.002297869
0.002305361
0.002312719
0.002319962
0.002327105
0.002334158
0.002341134
0.00234804
0.002354883
0.00236167
0.002368408
0.002375099
0.002381751
0.002388366
0.002394949
0.002401503
0.002408034
0.002414544
0.002421038
0.002427518
0.002433988
0.002440451
0.002446908
0.002453362
0.002459814
0.002466264
0.002472711
0.002479156
0.002485598
0.002492033
0.00249846
0.002504874
0.002511273
0.002517653
0.00252401
0.002530342
0.002536648
0.002542928
0.002549183
0.002555417
0.002561635
0.002567846
0.002574058
0.002580284
0.002586539
0.002592842
0.002599215
0.002605689
0.002612305
0.002619116
0.002626201
0.002633677
0.002641727
0.002650648
0.002660982
0.002673829
0.002691613
0.002719928
0.002771453
0.002763329
1.677596e-05
1.85133e-05
2.117476e-05
2.457699e-05
2.855689e-05
3.294523e-05
3.762503e-05
4.251483e-05
4.808009e-05
0.0001544291
0.0002118989
0.0002776532
0.0003459341
0.0004118448
0.0004728602
0.0005286102
0.0005799853
0.0006282563
0.0009498076
0.001031685
0.001120673
0.001214105
0.00130912
0.001402769
0.001492814
0.001577994
0.001657997
0.001733191
0.001803542
0.001878176
0.00196108
0.002051168
0.00214521
0.00223969
0.002331733
0.002419577
0.002502647
0.002545634
0.00258157
0.00264583
0.002727425
0.002818924
0.002914909
0.003011304
0.003105368
0.003195576
0.003281319
0.00336318
0.003445701
0.003532222
0.003623544
0.003718534
0.00381503
0.003910745
0.004003801
0.004090235
0.004948058
0.005050015
0.005145394
0.005238836
0.005332274
0.005426003
0.005519486
0.005611887
0.005702394
0.005790354
0.005876133
0.005961021
0.00604621
0.006132353
0.006219428
0.006306899
0.006393912
0.006479082
0.006558042
0.006620133
0.006669477
0.00671363
0.006753666
0.006789017
0.00682068
0.006850159
0.006878112
0.006904601
0.006929411
0.006952248
0.006972857
0.006991134
0.007007127
0.007021037
0.007033241
0.007044327
0.007055088
0.007066587
0.007080017
0.007095287
0.007112178
0.00713145
0.00715004
0.007161765
0.007162464
0.007143294
0.007098103
0.007020835
0.006941859
0.006878345
0.006827276
0.006786451
0.006753705
0.006727337
0.006706335
0.006689475
0.00667563
0.006663962
0.006653822
0.006644707
0.006636221
0.006628051
0.006619953
0.006611733
0.006603233
0.00659433
0.006584926
0.006574949
0.006564354
0.006553123
0.006541267
0.006528825
0.006515863
0.006502469
0.006488745
0.006474803
0.006460754
0.0064467
0.006432731
0.006418918
0.006405312
0.006391942
0.006378814
0.006365873
0.006353058
0.006340324
0.006327623
0.006314905
0.006302118
0.006289214
0.006276158
0.006262933
0.006249545
0.00623603
0.006222471
0.006209016
0.006195859
0.006182532
0.006166642
0.006147066
0.006123652
0.006097144
0.006068599
0.006039036
0.006009278
0.005979919
0.005951354
0.005923818
0.005897431
0.005872234
0.005848212
0.005825321
0.005803496
0.005782661
0.005762736
0.005743639
0.005725287
0.005707605
0.005690522
0.005673968
0.005657915
0.005642302
0.005627059
0.005612107
0.005597409
0.005582939
0.005568673
0.005554581
0.005540635
0.005526804
0.005513084
0.00549944
0.005485854
0.005472307
0.005458783
0.005445267
0.005431745
0.005418204
0.005404631
0.005391017
0.005377352
0.005363634
0.005349861
0.005336045
0.00532223
0.005308546
0.005295466
0.005287073
0.004796509
0.004504346
0.004383371
0.004315806
0.004266739
0.00422549
0.004188783
0.00415557
0.004125417
0.004098024
0.004073107
0.00405038
0.004029562
0.004010388
0.003992615
0.003976042
0.003960498
0.003945812
0.003931825
0.003918414
0.003905484
0.003892962
0.003880766
0.003868886
0.003857266
0.00384589
0.003834739
0.003823814
0.003813143
0.003802781
0.003792839
0.003783535
0.003775293
0.003769062
0.003767083
0.003772904
0.003784356
0.003799113
0.003815713
0.003833185
0.003850864
0.003868323
0.003885303
0.003901665
0.003917355
0.003932368
0.003946735
0.003960498
0.003973711
0.003986426
0.003998694
0.004010562
0.004022074
0.004033274
0.0040442
0.004054889
0.004065378
0.0040757
0.004085887
0.004095966
0.004105962
0.004115894
0.004125778
0.004135622
0.004145433
0.00415521
0.004164948
0.004174635
0.004184221
0.004192183
0.004964625
0.005001026
0.005029001
0.005053944
0.005078751
0.005104778
0.005132447
0.005161632
0.005191919
0.00522279
0.005253736
0.005284311
0.005314164
0.00534304
0.005370772
0.005397265
0.005422484
0.005446437
0.005469158
0.005490705
0.005511146
0.005530556
0.005549015
0.005566605
0.005583405
0.005599497
0.005614955
0.005629852
0.005644256
0.005658231
0.005671832
0.005685112
0.005698116
0.00571088
0.005723437
0.005735811
0.00574802
0.005760076
0.005771981
0.005783729
0.005795301
0.00580666
0.00581774
0.005828436
0.005838594
0.005848045
0.005856867
0.005865265
0.005873362
0.005881232
0.005888921
0.005896442
0.005903793
0.005910817
0.005917361
0.005924287
0.0059325
0.005942727
0.005955399
0.005970609
0.005988168
0.006007682
0.00602864
0.006050497
0.006072738
0.00609492
0.006116692
0.006137796
0.006158063
0.006177393
0.00619575
0.006213136
0.006229586
0.006245151
0.006259896
0.006273891
0.006287203
0.006299902
0.00631205
0.006323706
0.006334925
0.006345756
0.006356242
0.006366423
0.006376333
0.006386002
0.006395459
0.006404728
0.006413829
0.006422783
0.006431606
0.006440314
0.006448922
0.006457445
0.006465894
0.006474282
0.00648262
0.00649092
0.00649919
0.006507439
0.006515675
0.006523904
0.006532131
0.006540358
0.006548587
0.006556819
0.006565051
0.006573279
0.006581499
0.006589703
0.006597884
0.006606034
0.006614145
0.006622209
0.006630222
0.00663818
0.006646085
0.006653939
0.006661752
0.006669534
0.006677304
0.006685083
0.006692899
0.006700787
0.006708791
0.006716964
0.006725375
0.006734112
0.006743293
0.006753079
0.006763699
0.006775486
0.006788936
0.006804814
0.006824276
0.006848991
0.006880961
0.006918718
0.00694773
3.87455e-05
3.548385e-05
4.365837e-05
5.192818e-05
5.908186e-05
6.543095e-05
7.138178e-05
7.704094e-05
8.254626e-05
9.394326e-05
0.0002670929
0.0003791336
0.000479231
0.0005608804
0.0006264075
0.0006807793
0.0007280201
0.0007707724
0.0008106563
0.001207479
0.001289274
0.001370936
0.001450072
0.001524768
0.00159404
0.001657773
0.001716445
0.001770804
0.001821509
0.001870849
0.001925417
0.001986554
0.002053543
0.002124737
0.002198306
0.002272529
0.002346032
0.002419516
0.002437112
0.002479254
0.002538274
0.00260923
0.002688439
0.002772907
0.002860101
0.002947925
0.00303475
0.003119269
0.003201791
0.003284801
0.003370205
0.003458852
0.003550505
0.003644153
0.003738342
0.003830328
0.004664511
0.004768917
0.00486578
0.004959382
0.005052348
0.005145949
0.00524046
0.005335527
0.00543046
0.005524471
0.005616934
0.005708229
0.005799242
0.005890918
0.005983849
0.006078181
0.006173586
0.006269379
0.00636449
0.006455801
0.00654262
0.006626916
0.00671079
0.006795744
0.006882395
0.006970507
0.007059137
0.007146691
0.007232836
0.007317957
0.007402433
0.00748684
0.007571802
0.007657744
0.007744742
0.007832556
0.007920919
0.008011253
0.008055881
0.008114229
0.008180907
0.008253083
0.008329167
0.008408093
0.008488971
0.008570969
0.008653306
0.008735293
0.008816569
0.008897149
0.008977257
0.009057128
0.009136851
0.009216281
0.00929495
0.009371806
0.009444482
0.009509251
0.009566266
0.009617049
0.009661861
0.009700706
0.009734534
0.009764731
0.009792417
0.00981831
0.009842804
0.009866066
0.009888135
0.009909001
0.009928671
0.009947215
0.0099648
0.009981722
0.009998412
0.01
0.01
0.01
0.01
0.01
0.01
0.01
0.01
0.01
0.01
0.01
0.009980309
0.009936699
0.009898306
0.009864881
0.009836101
0.009810795
0.009787788
0.009766819
0.009747853
0.009730712
0.009715159
0.009700931
0.009687767
0.009675417
0.009663645
0.009652232
0.00964098
0.009629711
0.00961827
0.009606526
0.009594383
0.009581772
0.009568663
0.00955506
0.009540998
0.009526541
0.009511776
0.009496802
0.009481721
0.009466634
0.009451629
0.009436777
0.009422128
0.009407712
0.009393532
0.009379607
0.009365922
0.009352425
0.00933905
0.009325725
0.00931238
0.009298951
0.009285392
0.009271678
0.009257814
0.009243839
0.009229831
0.009215898
0.009202147
0.00918839
0.009174
0.00915847
0.009141351
0.009122415
0.009101682
0.009079404
0.009055895
0.009031494
0.009006546
0.008981358
0.008956189
0.008931249
0.008906704
0.008882677
0.008859259
0.008836515
0.008814481
0.00879321
0.008772614
0.008752664
0.008733319
0.008714577
0.008696403
0.008678753
0.008661573
0.008644811
0.008628425
0.008612366
0.008596632
0.008581182
0.008565969
0.00855099
0.008536215
0.00852161
0.008507152
0.008492818
0.008478589
0.008464446
0.00845037
0.008436344
0.008422355
0.00840839
0.008394441
0.008380504
0.008366578
0.008352662
0.008338808
0.008325033
0.008311222
0.008295817
0.008262003
0.008257697
0.008256063
0.008250342
0.008239752
0.00822507
0.008207337
0.008187561
0.008166526
0.008144873
0.008123091
0.00810154
0.008080469
0.008060041
0.008040362
0.008021483
0.008003415
0.007986135
0.007969605
0.007953777
0.007938591
0.007924017
0.007910007
0.007896526
0.007883543
0.007871037
0.007859004
0.00784746
0.007836455
0.007826082
0.007816506
0.00780808
0.007801363
0.007797435
0.007797681
0.007800837
0.007806815
0.007815057
0.007825041
0.007836337
0.007848589
0.007861505
0.007874841
0.007888398
0.007902005
0.007915573
0.007928982
0.007942158
0.007955058
0.00796765
0.007979919
0.00799186
0.008003478
0.008014789
0.008025813
0.008036579
0.008047118
0.008057463
0.008067647
0.008077703
0.008087659
0.008097538
0.008107363
0.008117146
0.008126892
0.008136598
0.00814625
0.008155911
0.008165891
0.00817902
0.008150758
0.008136261
0.008130459
0.008130666
0.008135429
0.008143923
0.008155621
0.008170109
0.008186995
0.008205884
0.008226379
0.008248092
0.008270657
0.008293739
0.008317047
0.008340331
0.008363386
0.008386048
0.008408191
0.008429724
0.008450583
0.008470733
0.008490158
0.008508865
0.008526872
0.008544212
0.008560927
0.008577063
0.008592672
0.008607808
0.00862252
0.00863686
0.008650872
0.008664595
0.008678066
0.00869131
0.008704348
0.008717194
0.008729851
0.008742314
0.008754565
0.008766571
0.008778281
0.008789621
0.008800501
0.008810847
0.008820689
0.008830124
0.008839234
0.008848073
0.008856675
0.008865056
0.008873212
0.008881065
0.008888564
0.008895982
0.00890367
0.008911981
0.008921235
0.008931682
0.008943464
0.008956615
0.008971067
0.008986669
0.009003213
0.009020466
0.009038186
0.009056146
0.009074141
0.009092001
0.009109588
0.009126797
0.009143557
0.009159819
0.009175559
0.00919077
0.009205458
0.009219639
0.009233335
0.009246573
0.009259384
0.009271797
0.009283843
0.009295551
0.009306951
0.009318069
0.009328931
0.00933956
0.00934998
0.00936021
0.009370271
0.009380181
0.00938996
0.009399624
0.00940919
0.009418674
0.009428093
0.00943746
0.009446789
0.009456092
0.00946538
0.009474662
0.009483943
0.00949323
0.009502523
0.009511823
0.009521128
0.009530432
0.009539727
0.009549006
0.009558257
0.009567469
0.009576632
0.009585736
0.009594773
0.00960374
0.009612636
0.009621466
0.009630241
0.009638977
0.009647695
0.009656426
0.009665207
0.009674085
0.009683115
0.00969237
0.009701938
0.00971193
0.009722491
0.00973381
0.00974614
0.009759827
0.009775342
0.009793323
0.009814596
0.00984012
0.009870538
0.009904217
0.009932835
0.000103322
0.0001687031
0.0004545485
0.001021254
0.00124244
0.002441754
0.002819791
0.00308536
0.00337502
0.003629902
0.003797991
0.003900411
0.003896146
0.003924989
0.003997814
0.004071259
0.004134346
0.004187048
0.004232189
0.004272643
0.004310611
0.004347396
0.004385494
0.004431019
0.004484678
0.004543445
0.00460302
0.004659527
0.004710168
0.004753211
0.004784686
0.005621464
0.005654715
0.005675903
0.00569112
0.005703707
0.005715652
0.005728261
0.00574244
0.005758848
0.005777907
0.005800154
0.005826439
0.005857533
0.00589406
0.005936376
0.005984534
0.006038262
0.006096952
0.006159259
0.006222684
0.006287004
0.006352679
0.006420471
0.006491084
0.006564967
0.006642231
0.006722643
0.00680569
0.006890648
0.006976858
0.007063842
0.007151246
0.007238574
0.007325808
0.007414088
0.007503977
0.007597879
0.007654612
0.007721763
0.007795406
0.007873307
0.007954288
0.00803774
0.008123258
0.008210453
0.008298915
0.008388126
0.008477613
0.008567181
0.008656856
0.008746838
0.008837418
0.008928784
0.009021001
0.009113936
0.009207199
0.009299966
0.009391633
0.009482136
0.00957183
0.009661293
0.00975111
0.00984172
0.00993336
0.01
0.01
0.01
0.01
0.01
0.01
0.01
0.01
0.01
0.01
0.01
0.01
0.01
0.01
0.01
0.01
0.01
0.01
0.01
0.01
0.01
0.01
0.01
0.01
0.01
0.01
0.01
0.01
0.01
0.01
0.01
0.01
0.01
0.01
0.01
0.01
0.01
0.01
0.01
0.01
0.01
0.01
0.01
0.01
0.01
0.01
0.01
0.01
0.01
0.01
0.01
0.01
0.01
0.01
0.01
0.01
0.01
0.01
0.01
0.01
0.01
0.01
0.01
0.01
0.01
0.01
0.01
0.01
0.01
0.01
0.01
0.01
0.01
0.01
0.01
0.01
0.01
0.01
0.01
0.01
0.01
0.01
0.01
0.01
0.01
0.01
0.01
0.01
0.01
0.01
0.01
0.01
0.01
0.01
0.01
0.01
0.01
0.01
0.01
0.01
0.01
0.01
0.01
0.01
0.01
0.01
0.01
0.01
0.01
0.01
0.01
0.01
0.01
0.01
0.01
0.01
0.01
0.01
0.01
0.01
0.01
0.01
0.01
0.01
0.01
0.01
0.01
0.01
0.01
0.01
0.01
0.01
0.01
0.01
0.01
0.01
0.01
0.01
0.01
0.01
0.01
0.01
0.01
0.01
0.01
0.01
0.01
0.01
0.01
0.01
0.01
0.01
0.01
0.01
0.01
0.01
0.01
0.01
0.01
0.01
0.01
0.01
0.01
0.01
0.01
0.01
0.01
0.01
0.01
0.01
0.01
0.01
0.01
0.01
0.01
0.01
0.01
0.01
0.01
0.01
0.01
0.01
0.01
0.01
0.01
0.01
0.01
0.01
0.01
0.01
0.01
0.01
0.01
0.01
0.01
0.01
0.01
0.01
0.01
0.01
0.01
0.01
0.01
0.01
0.01
0.01
0.01
0.01
0.01
0.01
0.01
0.01
0.01
0.01
0.01
0.01
0.01
0.01
0.01
0.01
0.01
0.01
0.01
0.01
0.01
0.01
0.01
0.01
0.01
0.01
0.01
0.01
0.01
0.01
0.01
0.01
0.01
0.01
0.01
0.01
0.01
0.01
0.01
0.01
0.01
0.01
0.01
0.01
0.01
0.01
0.01
0.01
0.01
0.01
0.01
0.01
0.01
0.01
0.01
0.01
0.01
0.01
0.01
0.01
0.01
0.01
0.01
0.01
0.01
0.01
0.01
0.01
0.01
0.01
0.01
0.01
0.01
0.01
0.01
0.01
0.01
0.01
0.01
0.01
0.01
0.01
0.01
0.01
0.01
0.01
0.01
0.01
0.01
0.01
0.01
0.01
0.01
0.01
0.01
0.01
0.01
0.01
0.01
0.01
0.01
0.01
0.01
0.01
0.01
0.01
0.01
0.01
0.01
0.01
0.01
0.01
0.01
0.01
0.01
0.01
0.01
0.01
0.01
0.01
0.01
0.01
0.01
0.01
0.01
0.01
0.01
0.01
0.01
0.01
0.01
0.01
0.01
0.01
0.01
0.01
0.01
0.01
0.01
0.01
0.01
0.01
0.01
0.01
0.01
0.01
0.01
0.01
0.01
0.01
0.01
0.01
0.01
0.01
0.01
0.01
0.01
0.01
0.01
0.01
0.01
0.01
0.01
0.01
3.095442e-05
5.994874e-05
0.0001068312
0.0004442742
0.0007644209
0.001766864
0.002560046
0.003196871
0.00378558
0.004170468
0.004550833
0.004858677
0.005105934
0.005386152
0.005680802
0.005888672
0.006683211
0.006879262
0.007063507
0.007236006
0.007392548
0.007528057
0.007641036
0.007729328
0.007800403
0.007862683
0.007921908
0.007981643
0.008043828
0.00810909
0.00817676
0.00824697
0.008319415
0.00839318
0.008467283
0.0085406
0.008611723
0.008678954
0.008740463
0.008794522
0.008839903
0.008877538
0.0088553
0.008839646
0.008825254
0.008810153
0.008794036
0.008777452
0.008761392
0.00874701
0.008735447
0.008727726
0.008724763
0.008727367
0.0087362
0.008751755
0.008774334
0.008804041
0.008840769
0.008884184
0.008933654
0.008988275
0.009047241
0.009109909
0.009175876
0.009244961
0.009317136
0.009392435
0.009470817
0.009552153
0.00963622
0.009722785
0.00981165
0.009902678
0.009995857
0.01
0.01
0.01
0.01
0.01
0.01
0.01
0.01
0.01
0.01
0.01
0.01
0.01
0.01
0.01
0.01
0.01
0.01
0.01
0.01
0.01
0.01
0.01
0.01
0.01
0.01
0.01
0.01
0.01
0.01
0.01
0.01
0.01
0.01
0.01
0.01
0.01
0.01
0.01
0.01
0.01
0.01
0.01
0.01
0.01
0.01
0.01
0.01
0.01
0.01
0.01
0.01
0.01
0.01
0.01
0.01
0.01
0.01
0.01
0.01
0.01
0.01
0.01
0.01
0.01
0.01
0.01
0.01
0.01
0.01
0.01
0.01
0.01
0.01
0.01
0.01
0.01
0.01
0.01
0.01
0.01
0.01
0.01
0.01
0.01
0.01
0.01
0.01
0.01
0.01
0.01
0.01
0.01
0.01
0.01
0.01
0.01
0.01
0.01
0.01
0.01
0.01
0.01
0.01
0.01
0.01
0.01
0.01
0.01
0.01
0.01
0.01
0.01
0.01
0.01
0.01
0.01
0.01
0.01
0.01
0.01
0.01
0.01
0.01
0.01
0.01
0.01
0.01
0.01
0.01
0.01
0.01
0.01
0.01
0.01
0.01
0.01
0.01
0.01
0.01
0.01
0.01
0.01
0.01
0.01
0.01
0.01
0.01
0.01
0.01
0.01
0.01
0.01
0.01
0.01
0.01
0.01
0.01
0.01
0.01
0.01
0.01
0.01
0.01
0.01
0.01
0.01
0.01
0.01
0.01
0.01
0.01
0.01
0.01
0.01
0.01
0.01
0.01
0.01
0.01
0.01
0.01
0.01
0.01
0.01
0.01
0.01
0.01
0.01
0.01
0.01
0.01
0.01
0.01
0.01
0.01
0.01
0.01
0.01
0.01
0.01
0.01
0.01
0.01
0.01
0.01
0.01
0.01
0.01
0.01
0.01
0.01
0.01
0.01
0.01
0.01
0.01
0.01
0.01
0.01
0.01
0.01
0.01
0.01
0.01
0.01
0.01
0.01
0.01
0.01
0.01
0.01
0.01
0.01
0.01
0.01
0.01
0.01
0.01
0.01
0.01
0.01
0.01
0.01
0.01
0.01
0.01
0.01
0.01
0.01
0.01
0.01
0.01
0.01
0.01
0.01
0.01
0.01
0.01
0.01
0.01
0.01
0.01
0.01
0.01
0.01
0.01
0.01
0.01
0.01
0.01
0.01
0.01
0.01
0.01
0.01
0.01
0.01
0.01
0.01
0.01
0.01
0.01
0.01
0.01
0.01
0.01
0.01
0.01
0.01
0.01
0.01
0.01
0.01
0.01
0.01
0.01
0.01
0.01
0.01
0.01
0.01
0.01
0.01
0.01
0.01
0.01
0.01
0.01
0.01
0.01
0.01
0.01
0.01
0.01
0.01
0.01
0.01
0.01
0.01
0.01
0.01
0.01
0.01
0.01
0.01
0.01
0.01
0.01
0.01
0.01
0.01
0.01
0.01
0.01
0.01
0.01
0.01
0.01
0.01
0.01
0.01
0.01
0.01
0.01
0.01
0.01
0.01
0.01
0.01
0.01
0.01
0.01
0.01
0.01
0.01
0.01
0.01
0.01
0.01
0.01
0.01
0.01
0.01
0.01
0.01
0.01
0.01
0.01
0.01
0.01
0.01
0.01
0.01
0.01
0.01
0.01
0.01
0.01
0.01
0.01
0.01
0.01
0.01
0.01
0.01
0.01
0.01
0.01
0.01
0.01
0.01
0.01
0.01
0.01
0.01
0.01
0.01
0.01
2.769638e-05
4.750352e-05
8.185679e-05
0.0002769274
0.0004739664
0.0008477071
0.001110895
0.00142878
0.001818291
0.00220276
0.002628134
0.003169361
0.003743211
0.004295989
0.004797278
0.005491236
0.005654415
0.005799982
0.005437946
0.00517553
0.005080719
0.005140254
0.005292948
0.005512761
0.005787144
0.00614174
0.00676174
0.007311522
0.007904894
0.008337451
0.008561237
0.0087649
0.008947659
0.009110731
0.00925718
0.009391229
0.009519044
0.009645959
0.009775916
0.009911563
0.01
0.01
0.01
0.01
0.01
0.01
0.01
0.01
0.01
0.01
0.01
0.01
0.01
0.01
0.01
0.01
0.01
0.01
0.01
0.01
0.01
0.01
0.01
0.01
0.01
0.01
0.01
0.01
0.01
0.01
0.01
0.01
0.01
0.01
0.01
0.01
0.01
0.01
0.01
0.01
0.01
0.01
0.01
0.01
0.01
0.01
0.01
0.01
0.01
0.01
0.01
0.01
0.01
0.01
0.01
0.01
0.01
0.01
0.01
0.01
0.01
0.01
0.01
0.01
0.01
0.01
0.01
0.01
0.01
0.01
0.01
0.01
0.01
0.01
0.01
0.01
0.01
0.01
0.01
0.01
0.01
0.01
0.01
0.01
0.01
0.01
0.01
0.01
0.01
0.01
0.01
0.01
0.01
0.01
0.01
0.01
0.01
0.01
0.01
0.01
0.01
0.01
0.01
0.01
0.01
0.01
0.01
0.01
0.01
0.01
0.01
0.01
0.01
0.01
0.01
0.01
0.01
0.01
0.01
0.01
0.01
0.01
0.01
0.01
0.01
0.01
0.01
0.01
0.01
0.01
0.01
0.01
0.01
0.01
0.01
0.01
0.01
0.01
0.01
0.01
0.01
0.01
0.01
0.01
0.01
0.01
0.01
0.01
0.01
0.01
0.01
0.01
0.01
0.01
0.01
0.01
0.01
0.01
0.01
0.01
0.01
0.01
0.01
0.01
0.01
0.01
0.01
0.01
0.01
0.01
0.01
0.01
0.01
0.01
0.01
0.01
0.01
0.01
0.01
0.01
0.01
0.01
0.01
0.01
0.01
0.01
0.01
0.01
0.01
0.01
0.01
0.01
0.01
0.01
0.01
0.01
0.01
0.01
0.01
0.01
0.01
0.01
0.01
0.01
0.01
0.01
0.01
0.01
0.01
0.01
0.01
0.01
0.01
0.01
0.01
0.01
0.01
0.01
0.01
0.01
0.01
0.01
0.01
0.01
0.01
0.01
0.01
0.01
0.01
0.01
0.01
0.01
0.01
0.01
0.01
0.01
0.01
0.01
0.01
0.01
0.01
0.01
0.01
0.01
0.01
0.01
0.01
0.01
0.01
0.01
0.01
0.01
0.01
0.01
0.01
0.01
0.01
0.01
0.01
0.01
0.01
0.01
0.01
0.01
0.01
0.01
0.01
0.01
0.01
0.01
0.01
0.01
0.01
0.01
0.01
0.01
0.01
0.01
0.01
0.01
0.01
0.01
0.01
0.01
0.01
0.01
0.01
0.01
0.01
0.01
0.01
0.01
0.01
0.01
0.01
0.01
0.01
0.01
0.01
0.01
0.01
0.01
0.01
0.01
0.01
0.01
0.01
0.01
0.01
0.01
0.01
0.01
0.01
0.01
0.01
0.01
0.01
0.01
0.01
0.01
0.01
0.01
0.01
0.01
0.01
0.01
0.01
0.01
0.01
0.01
0.01
0.01
0.01
0.01
0.01
0.01
0.01
0.01
0.01
0.01
0.01
0.01
0.01
0.01
0.01
0.01
0.01
0.01
0.01
0.01
0.01
0.01
0.01
0.01
0.01
0.01
0.01
0.01
0.01
0.01
0.01
0.01
0.01
0.01
0.01
0.01
0.01
0.01
0.01
0.01
0.01
0.01
0.01
0.01
0.01
0.01
0.01
0.01
0.01
0.01
0.01
0.01
0.01
0.01
0.01
0.01
0.01
0.01
0.01
0.01
0.01
0.01
0.01
0.01
0.01
0.01
0.01
0.01
0.01
0.01
0.01
0.01
0.01
0.01
0.01
0.01
0.01
0.01
0.01
0.01
0.01
0.01
0.01
0.01
0.01
0.01
0.01
0.01
0.01
0.01
0.01
0.01
0.01
0.01
0.01
0.01
0.01
0.01
0.01
0.01
0.01
0.01
0.01
0.01
0.01
0.01
0.01
0.01
0.01
0.01
0.01
0.01
0.01
0.01
4.035904e-05
0.00029582
0.0005086659
0.0007454628
0.0009774388
0.00123943
0.001538644
0.001859538
0.002200233
0.002622429
0.003525993
0.003896197
0.004273333
0.004627879
0.004950622
0.005232963
0.005455749
0.005603692
0.005676171
0.005687031
0.005661134
0.005199736
0.004762971
0.004484291
0.004359096
0.004355912
0.00446186
0.004656759
0.004940624
0.005304214
0.005737679
0.006249846
0.006749874
0.007325569
0.00800865
0.008782905
0.009215677
0.00948127
0.0097237
0.009947447
0.01
0.01
0.01
0.01
0.01
0.01
0.01
0.01
0.01
0.01
0.01
0.01
0.01
0.01
0.01
0.01
0.01
0.01
0.01
0.01
0.01
0.01
0.01
0.01
0.01
0.01
0.01
0.01
0.01
0.01
0.01
0.01
0.01
0.01
0.01
0.01
0.01
0.01
0.01
0.01
0.01
0.01
0.01
0.01
0.01
0.01
0.01
0.01
0.01
0.01
0.01
0.01
0.01
0.01
0.01
0.01
0.01
0.01
0.01
0.01
0.01
0.01
0.01
0.01
0.01
0.01
0.01
0.01
0.01
0.01
0.01
0.01
0.01
0.01
0.01
0.01
0.01
0.01
0.01
0.01
0.01
0.01
0.01
0.01
0.01
0.01
0.01
0.01
0.01
0.01
0.01
0.01
0.01
0.01
0.01
0.01
0.01
0.01
0.01
0.01
0.01
0.01
0.01
0.01
0.01
0.01
0.01
0.01
0.01
0.01
0.01
0.01
0.01
0.01
0.01
0.01
0.01
0.01
0.01
0.01
0.01
0.01
0.01
0.01
0.01
0.01
0.01
0.01
0.01
0.01
0.01
0.01
0.01
0.01
0.01
0.01
0.01
0.01
0.01
0.01
0.01
0.01
0.01
0.01
0.01
0.01
0.01
0.01
0.01
0.01
0.01
0.01
0.01
0.01
0.01
0.01
0.01
0.01
0.01
0.01
0.01
0.01
0.01
0.01
0.01
0.01
0.01
0.01
0.01
0.01
0.01
0.01
0.01
0.01
0.01
0.01
0.01
0.01
0.01
0.01
0.01
0.01
0.01
0.01
0.01
0.01
0.01
0.01
0.01
0.01
0.01
0.01
0.01
0.01
0.01
0.01
0.01
0.01
0.01
0.01
0.01
0.01
0.01
0.01
0.01
0.01
0.01
0.01
0.01
0.01
0.01
0.01
0.01
0.01
0.01
0.01
0.01
0.01
0.01
0.01
0.01
0.01
0.01
0.01
0.01
0.01
0.01
0.01
0.01
0.01
0.01
0.01
0.01
0.01
0.01
0.01
0.01
0.01
0.01
0.01
0.01
0.01
0.01
0.01
0.01
0.01
0.01
0.01
0.01
0.01
0.01
0.01
0.01
0.01
0.01
0.01
0.01
0.01
0.01
0.01
0.01
0.01
0.01
0.01
0.01
0.01
0.01
0.01
0.01
0.01
0.01
0.01
0.01
0.01
0.01
0.01
0.01
0.01
0.01
0.01
0.01
0.01
0.01
0.01
0.01
0.01
0.01
0.01
0.01
0.01
0.01
0.01
0.01
0.01
0.01
0.01
0.01
0.01
0.01
0.01
0.01
0.01
0.01
0.01
0.01
0.01
0.01
0.01
0.01
0.01
0.01
0.01
0.01
0.01
0.01
0.01
0.01
0.01
0.01
0.01
0.01
0.01
0.01
0.01
0.01
0.01
0.01
0.01
0.01
0.01
0.01
0.01
0.01
0.01
0.01
0.01
0.01
0.01
0.01
0.01
0.01
0.01
0.01
0.01
0.01
0.01
0.01
0.01
0.01
0.01
0.01
0.01
0.01
0.01
0.01
0.01
0.01
0.01
0.01
0.01
0.01
0.01
0.01
0.01
0.01
0.01
0.01
0.01
0.01
0.01
0.01
0.01
0.01
0.01
0.01
0.01
0.01
0.01
0.01
0.01
0.01
0.01
0.01
0.01
0.01
0.01
0.01
0.01
0.01
0.01
0.01
0.01
0.01
0.01
0.01
0.01
0.01
0.01
0.01
0.01
0.01
0.01
0.01
0.01
0.01
0.01
0.01
0.01
0.01
0.01
0.01
0.01
0.01
0.01
0.01
0.01
0.01
0.01
0.01
0.01
0.01
0.01
0.01
0.01
0.01
0.01
0.01
0.01
0.01
0.01
0.01
0.01
0.01
0.01
0.01
0.01
0.01
0.01
0.01
0.01
0.01
0.01
0.01
0.01
0.01
0.01
0.01
0.01
0.01
3.524827e-05
0.0006295831
0.001420218
0.001960005
0.002483513
0.002981895
0.003443492
0.003861573
0.004231994
0.004548076
0.004808285
0.005099625
0.005356234
0.005558468
0.005612021
0.005598594
0.005548857
0.005439934
0.00519373
0.004861114
0.004508378
0.004124798
0.00384782
0.003701957
0.00366766
0.003725393
0.003863848
0.004088077
0.004398153
0.004791108
0.00526871
0.00581244
0.006393264
0.00703263
0.007758042
0.008583149
0.009336016
0.009665524
0.009967991
0.01
0.01
0.01
0.01
0.01
0.01
0.01
0.01
0.01
0.01
0.01
0.01
0.01
0.01
0.01
0.01
0.01
0.01
0.01
0.01
0.01
0.01
0.01
0.01
0.01
0.01
0.01
0.01
0.01
0.01
0.01
0.01
0.01
0.01
0.01
0.01
0.01
0.01
0.01
0.01
0.01
0.01
0.01
0.01
0.01
0.01
0.01
0.01
0.01
0.01
0.01
0.01
0.01
0.01
0.01
0.01
0.01
0.01
0.01
0.01
0.01
0.01
0.01
0.01
0.01
0.01
0.01
0.01
0.01
0.01
0.01
0.01
0.01
0.01
0.01
0.01
0.01
0.01
0.01
0.01
0.01
0.01
0.01
0.01
0.01
0.01
0.01
0.01
0.01
0.01
0.01
0.01
0.01
0.01
0.01
0.01
0.01
0.01
0.01
0.01
0.01
0.01
0.01
0.01
0.01
0.01
0.01
0.01
0.01
0.01
0.01
0.01
0.01
0.01
0.01
0.01
0.01
0.01
0.01
0.01
0.01
0.01
0.01
0.01
0.01
0.01
0.01
0.01
0.01
0.01
0.01
0.01
0.01
0.01
0.01
0.01
0.01
0.01
0.01
0.01
0.01
0.01
0.01
0.01
0.01
0.01
0.01
0.01
0.01
0.01
0.01
0.01
0.01
0.01
0.01
0.01
0.01
0.01
0.01
0.01
0.01
0.01
0.01
0.01
0.01
0.01
0.01
0.01
0.01
0.01
0.01
0.01
0.01
0.01
0.01
0.01
0.01
0.01
0.01
0.01
0.01
0.01
0.01
0.01
0.01
0.01
0.01
0.01
0.01
0.01
0.01
0.01
0.01
0.01
0.01
0.01
0.01
0.01
0.01
0.01
0.01
0.01
0.01
0.01
0.01
0.01
0.01
0.01
0.01
0.01
0.01
0.01
0.01
0.01
0.01
0.01
0.01
0.01
0.01
0.01
0.01
0.01
0.01
0.01
0.01
0.01
0.01
0.01
0.01
0.01
0.01
0.01
0.01
0.01
0.01
0.01
0.01
0.01
0.01
0.01
0.01
0.01
0.01
0.01
0.01
0.01
0.01
0.01
0.01
0.01
0.01
0.01
0.01
0.01
0.01
0.01
0.01
0.01
0.01
0.01
0.01
0.01
0.01
0.01
0.01
0.01
0.01
0.01
0.01
0.01
0.01
0.01
0.01
0.01
0.01
0.01
0.01
0.01
0.01
0.01
0.01
0.01
0.01
0.01
0.01
0.01
0.01
0.01
0.01
0.01
0.01
0.01
0.01
0.01
0.01
0.01
0.01
0.01
0.01
0.01
0.01
0.01
0.01
0.01
0.01
0.01
0.01
0.01
0.01
0.01
0.01
0.01
0.01
0.01
0.01
0.01
0.01
0.01
0.01
0.01
0.01
0.01
0.01
0.01
0.01
0.01
0.01
0.01
0.01
0.01
0.01
0.01
0.01
0.01
0.01
0.01
0.01
0.01
0.01
0.01
0.01
0.01
0.01
0.01
0.01
0.01
0.01
0.01
0.01
0.01
0.01
0.01
0.01
0.01
0.01
0.01
0.01
0.01
0.01
0.01
0.01
0.01
0.01
0.01
0.01
0.01
0.01
0.01
0.01
0.01
0.01
0.01
0.01
0.01
0.01
0.01
0.01
0.01
0.01
0.01
0.01
0.01
0.01
0.01
0.01
0.01
0.01
0.01
0.01
0.01
0.01
0.01
0.01
0.01
0.01
0.01
0.01
0.01
0.01
0.01
0.01
0.01
0.01
0.01
0.01
0.01
0.01
0.01
0.01
0.01
0.01
0.01
0.01
0.01
0.01
0.01
0.01
0.01
0.01
0.01
0.01
0.01
0.01
0.01
0.01
0.01
0.01
0.01
0.01
0.01
0.01
0.01
0.01
0.01
0.01
0.01
0.01
0.01
0.01
0.01
0.01
0.01
0.01
0.01
0.01
0.01