/*--------------------------------*- C++ -*----------------------------------*\
| =========                 |                                                 |
| \\      /  F ield         | foam-extend: Open Source CFD                    |
|  \\    /   O peration     | Version:     3.1                                |
|   \\  /    A nd           | Web:         http://www.extend-project.de       |
|    \\/     M anipulation  |                                                 |
\*---------------------------------------------------------------------------*/
FoamFile
{
    version     2.0;
    format      ascii;
    class       volScalarField;
    location    "1.5";
    object      omega;
}
// * * * * * * * * * * * * * * * * * * * * * * * * * * * * * * * * * * * * * //

dimensions      [0 0 -1 0 0 0 0];

internalField   nonuniform List<scalar> 
119952
(
155.3862
183.4987
175.1528
160.2375
148.9833
151.5269
155.3363
159.4522
163.6114
167.7512
171.8804
176.0313
180.2415
184.5471
188.9826
193.5828
198.3868
203.4511
208.9028
215.3564
187.2266
186.8228
188.9131
164.8511
162.5076
161.2358
159.9931
158.73
155.124
177.1818
301.0238
236.4053
200.5023
179.2303
164.2549
152.3915
142.2699
133.4341
125.6515
116.5801
87.47
70.7311
61.19853
55.54901
51.98849
49.51944
47.61848
46.01726
44.57088
34.68227
32.42106
30.46138
28.85726
27.58802
26.59598
25.81465
25.18556
24.66343
24.2127
23.70403
23.08064
22.41259
21.7705
21.19775
20.70783
20.29354
19.93531
19.61395
19.91143
19.99787
19.78291
19.45689
19.12813
18.83238
18.57683
18.37129
18.21826
18.11231
18.04391
18.00473
17.98854
17.98995
18.00431
18.02745
18.05509
18.08112
18.09184
18.07811
18.04508
18.00966
17.94521
17.85936
17.8174
17.80877
17.8522
18.06376
18.89562
20.46878
20.83047
20.91347
20.90559
20.8614
20.80257
20.74152
20.68579
20.63961
20.60496
20.58225
20.57096
20.57007
20.57836
20.59457
20.61751
20.64612
20.67946
20.71676
20.75737
20.80075
20.84646
20.89413
20.94345
20.99417
21.0461
21.09907
21.15293
21.20758
21.26299
21.31912
21.37599
21.43363
21.49209
21.5513
21.61123
21.67234
21.73492
21.79877
21.86381
21.93015
21.99796
22.06739
22.13853
22.21144
22.28618
22.36266
22.44043
22.51685
22.5905
23.01627
23.59114
24.09165
24.49286
24.80591
25.0498
25.24253
25.39853
25.52864
25.64074
25.7405
25.83197
25.91805
26.00085
26.08186
26.16217
26.24258
26.32365
26.40583
26.48943
26.57466
26.66171
26.7507
26.84124
26.93337
27.02867
27.12679
27.22688
27.32901
27.4334
27.54018
27.64944
27.76126
27.87575
27.99301
28.11314
28.23628
28.36258
28.4922
28.62532
28.76216
28.90297
29.04798
29.19745
29.35161
29.5108
29.6752
29.84465
30.01402
30.18486
36.23707
43.27526
46.17644
47.54407
48.27242
48.71169
49.01739
49.26501
49.49303
49.72133
49.96042
50.21465
50.48635
50.776
51.0839
51.41007
51.74822
52.10123
52.47255
52.86145
53.26394
53.67976
54.10909
54.55235
55.00918
55.47987
55.96491
56.46386
56.97691
57.50393
58.04433
58.59549
59.14617
59.69715
60.15516
59.6943
58.46145
57.58184
56.90855
56.3526
55.86167
55.40562
54.96874
54.54254
54.12268
53.70763
53.29727
52.89093
52.48894
52.09162
51.69924
51.31204
50.93019
50.55382
50.18302
49.81789
49.45846
49.1048
48.75692
48.41481
48.07829
47.74749
47.42275
47.10342
46.78946
46.48079
46.17729
45.87892
45.58506
45.28782
36.90068
35.2994
33.75848
32.38444
31.22652
30.28979
29.55483
28.98902
28.55699
28.22606
27.96909
27.76504
27.59835
27.45783
27.33557
27.22602
27.12531
27.03073
26.9404
26.85299
26.76759
26.68357
26.60052
26.51815
26.43629
26.35486
26.27382
26.19316
26.11289
26.03303
25.95364
25.87475
25.79641
25.71866
25.64156
25.56513
25.48943
25.4145
25.34037
25.2671
25.19476
25.12352
25.05366
24.98585
24.92178
24.86491
24.81478
24.76712
24.72119
24.67655
24.63301
24.59046
24.54857
24.50784
24.46198
24.29717
24.02536
23.69061
23.33885
23.00531
22.71119
22.46513
22.26691
22.11114
21.99029
21.89666
21.82341
21.76495
21.71692
21.67611
21.64017
21.60744
21.57676
21.54734
21.51864
21.4903
21.4621
21.43391
21.40563
21.37723
21.34869
21.32004
21.29128
21.26245
21.23358
21.20469
21.17582
21.147
21.11826
21.08962
21.06112
21.03277
21.0046
20.97663
20.94887
20.92133
20.89404
20.867
20.84023
20.81372
20.78747
20.7615
20.73578
20.71032
20.6851
20.6601
20.63529
20.61067
20.58618
20.56181
20.53752
20.51328
20.48907
20.46485
20.44059
20.41627
20.39188
20.36739
20.34278
20.31805
20.29318
20.26815
20.24296
20.21759
20.192
20.16616
20.14002
20.1135
20.08645
20.05866
20.02981
19.99931
19.9662
19.92856
19.88226
19.81776
19.71394
19.53765
19.80606
283.947
231.7856
199.7813
178.3624
162.6925
150.334
140.0688
131.2685
123.2036
103.3495
81.93787
69.05046
60.91744
55.59415
51.95624
49.3255
47.2905
45.60693
36.22077
34.11526
32.14182
30.40254
28.93409
27.72899
26.75369
25.96486
25.31985
24.78047
24.30458
23.75574
23.13521
22.49292
21.87902
21.32615
20.8474
20.44096
20.0965
20.03124
19.9692
19.70084
19.33145
18.9285
18.53338
18.16843
17.84259
17.55645
17.30605
17.07823
16.84713
16.60077
16.34219
16.08203
15.83182
15.59994
15.39073
15.21292
13.70562
13.54327
13.39529
13.25177
13.11029
12.97189
12.83869
12.71261
12.59484
12.48556
12.38249
12.28207
12.18172
12.08067
11.97965
11.8802
11.78414
11.69386
11.61556
11.56008
11.51841
11.48137
11.44604
11.41163
11.37685
11.34113
11.30508
11.26981
11.2365
11.20609
11.17923
11.15618
11.13692
11.1212
11.10853
11.09818
11.08921
11.08046
11.07066
11.0599
11.0481
11.03489
11.02382
11.01943
11.02462
11.04984
11.10513
11.20269
11.30796
11.39534
11.46626
11.52216
11.56532
11.598
11.62194
11.6391
11.65133
11.66005
11.66642
11.67132
11.67542
11.67921
11.68304
11.68718
11.69178
11.69695
11.70276
11.70925
11.7164
11.7242
11.73262
11.74159
11.75105
11.7609
11.77108
11.78148
11.79204
11.80268
11.81335
11.824
11.83461
11.84515
11.85565
11.86615
11.8767
11.88735
11.89812
11.90903
11.92014
11.93145
11.94302
11.95484
11.96692
11.97922
11.99166
12.00409
12.01633
12.02951
12.04885
12.0768
12.11286
12.15478
12.19996
12.24613
12.29162
12.33531
12.37657
12.41508
12.4508
12.48379
12.51424
12.54236
12.5684
12.59261
12.61521
12.63642
12.65645
12.67547
12.69364
12.71112
12.72798
12.74431
12.76026
12.77596
12.79146
12.80681
12.82204
12.83718
12.85229
12.86741
12.88252
12.89769
12.91293
12.92827
12.94372
12.95931
12.97504
12.99093
13.00701
13.02328
13.03975
13.05644
13.07335
13.09046
13.10769
13.1248
13.14071
13.14562
13.8793
14.43144
14.70729
14.87863
15.00715
15.11383
15.20562
15.28511
15.35376
15.41288
15.46377
15.50772
15.54595
15.57957
15.60954
15.63664
15.6615
15.6847
15.70677
15.72806
15.74886
15.76936
15.78977
15.81008
15.8304
15.85075
15.87115
15.89157
15.91192
15.93202
15.95156
15.96992
15.98591
15.99679
15.99601
15.9739
15.93853
15.89595
15.84983
15.8029
15.75705
15.71337
15.67237
15.63416
15.59862
15.5655
15.53449
15.5053
15.47764
15.45126
15.42597
15.40158
15.37797
15.35502
15.33266
15.31082
15.28945
15.2685
15.24795
15.22778
15.20795
15.18846
15.16929
15.15042
15.13185
15.11356
15.09556
15.07785
15.0605
15.04723
13.68255
13.61634
13.56474
13.51545
13.46317
13.40647
13.346
13.28335
13.22035
13.15864
13.09953
13.0439
12.99226
12.94482
12.90155
12.86227
12.82668
12.79447
12.76526
12.73872
12.7145
12.69231
12.67186
12.65291
12.63523
12.61865
12.603
12.58813
12.57393
12.5603
12.54716
12.53445
12.52209
12.51007
12.49833
12.48686
12.47565
12.46468
12.45395
12.44348
12.43329
12.42343
12.41398
12.40506
12.39683
12.38943
12.38268
12.37638
12.3704
12.36466
12.35911
12.35373
12.34858
12.3438
12.33899
12.33224
12.32177
12.30627
12.28527
12.25914
12.22884
12.19568
12.16103
12.12614
12.09203
12.05945
12.0289
12.00063
11.97474
11.95118
11.92983
11.9105
11.89301
11.87714
11.8627
11.8495
11.83737
11.82617
11.81577
11.80606
11.79693
11.7883
11.78012
11.77231
11.76484
11.75766
11.75073
11.74404
11.73755
11.73125
11.72513
11.71916
11.71335
11.70769
11.70216
11.69677
11.6915
11.68635
11.68133
11.67641
11.6716
11.66689
11.66227
11.65774
11.65327
11.64886
11.64449
11.64015
11.63583
11.63151
11.62717
11.6228
11.61839
11.61392
11.60939
11.60477
11.60005
11.59524
11.59031
11.58526
11.58009
11.57477
11.56929
11.56365
11.55782
11.55177
11.54548
11.53887
11.53189
11.52441
11.51628
11.50723
11.49685
11.4845
11.46922
11.44967
11.42466
11.3976
11.3814
368.5114
289.6841
263.2954
241.9633
221.783
203.7117
187.9039
174.2292
162.3697
149.379
105.896
83.56909
71.8835
65.18013
60.83223
57.61318
54.96796
52.64581
50.51699
38.69588
36.08268
33.80688
31.8908
30.30383
28.99382
27.90659
26.9948
26.2196
25.55402
24.92606
24.26313
23.58111
22.90989
22.27579
21.69628
21.17963
20.72681
20.32493
20.33676
20.15544
19.86019
19.50459
19.12598
18.74979
18.39236
18.06292
17.76542
17.4994
17.25355
17.01217
16.76651
16.51614
16.26595
16.02283
15.79322
15.58522
14.01169
13.84172
13.69314
13.55316
13.41572
13.2791
13.14408
13.01243
12.88606
12.76644
12.65385
12.54646
12.4416
12.33722
12.23249
12.12782
12.02442
11.92384
11.82783
11.74122
11.66404
11.59158
11.51962
11.44578
11.36955
11.29176
11.21399
11.13816
11.06512
10.99476
10.9264
10.85899
10.7916
10.7238
10.65577
10.58815
10.5217
10.45634
10.43778
10.40554
10.36485
10.31845
10.26806
10.21502
10.16053
10.1057
10.05144
9.998428
9.94685
9.896454
9.846813
9.797585
9.748663
9.700219
9.652718
9.607053
9.564934
9.528462
9.497073
9.469789
9.446009
9.425073
9.405963
9.387798
9.370085
9.352669
9.335615
9.319105
9.303359
9.288574
9.274889
9.262359
9.250944
9.240496
9.230763
9.221421
9.212193
9.20308
9.19412
9.185611
9.178747
9.175103
9.176257
9.185851
9.208156
9.241658
9.277358
9.310703
9.341273
9.36871
9.392757
9.413777
9.432356
9.448649
9.462735
9.474824
9.485179
9.494079
9.501795
9.508578
9.514649
9.520201
9.5254
9.530383
9.535264
9.540133
9.545058
9.550085
9.555242
9.560538
9.565967
9.571512
9.577146
9.582836
9.588552
9.594263
9.599945
9.605578
9.611154
9.616667
9.622123
9.627513
9.632845
9.638144
9.64344
9.648768
9.654159
9.659642
9.665242
9.670968
9.676821
9.68278
9.688807
9.694844
9.700855
9.707089
9.714301
9.723169
9.734149
9.747352
9.762593
9.779467
9.797499
9.816265
9.835353
9.854425
9.873217
9.891529
9.909222
9.926204
9.942424
9.957858
9.972513
9.986375
9.999533
10.01204
10.02396
10.03531
10.04613
10.05648
10.06643
10.07603
10.08532
10.09435
10.10313
10.11167
10.12005
10.12825
10.1363
10.14423
10.15205
10.1598
10.16747
10.17509
10.18266
10.19021
10.19772
10.20523
10.21272
10.22022
10.22771
10.2352
10.24266
10.25002
10.25722
10.26472
10.28452
10.2842
10.28309
10.28642
10.29465
10.30688
10.32196
10.33881
10.35656
10.37457
10.39233
10.40951
10.42591
10.44141
10.45595
10.46953
10.48219
10.494
10.50502
10.51533
10.52503
10.53417
10.5428
10.55097
10.55871
10.56608
10.57308
10.5797
10.58593
10.59168
10.59683
10.6011
10.60402
10.6047
10.60202
10.59714
10.59014
10.58142
10.57132
10.56019
10.54833
10.53602
10.52348
10.51092
10.4985
10.48629
10.4744
10.46289
10.45177
10.44108
10.4308
10.42094
10.41148
10.40241
10.39372
10.38538
10.37739
10.36971
10.36233
10.35524
10.34841
10.34184
10.33549
10.32937
10.32345
10.31773
10.31221
10.30685
10.30149
10.29442
10.32764
10.34727
10.35785
10.36174
10.36024
10.35414
10.34411
10.33077
10.31475
10.29672
10.27727
10.25699
10.23634
10.21575
10.19552
10.1759
10.15707
10.13912
10.12213
10.10611
10.09107
10.07696
10.06375
10.05138
10.0398
10.02893
10.01871
10.00909
9.999995
9.991381
9.983195
9.975394
9.96794
9.9608
9.953947
9.947359
9.941022
9.934922
9.929055
9.92342
9.918026
9.912889
9.908037
9.903507
9.899344
9.89557
9.89214
9.88899
9.886069
9.883341
9.880775
9.878355
9.876073
9.873953
9.871927
9.869668
9.866771
9.862823
9.857477
9.850515
9.841875
9.831639
9.820007
9.807256
9.793701
9.779659
9.765423
9.751247
9.73734
9.723859
9.710919
9.698594
9.686924
9.675925
9.66559
9.655899
9.646823
9.638325
9.630366
9.622906
9.615905
9.609324
9.603127
9.59728
9.591754
9.586519
9.581551
9.576828
9.57233
9.568039
9.563939
9.560019
9.556264
9.552666
9.549214
9.5459
9.542715
9.539651
9.536702
9.53386
9.531115
9.528461
9.525888
9.523386
9.520945
9.518554
9.516202
9.513877
9.511568
9.509262
9.506948
9.504616
9.502254
9.499854
9.497405
9.494898
9.492326
9.489679
9.486951
9.484132
9.481215
9.478189
9.475044
9.471767
9.468341
9.464743
9.460946
9.456911
9.452584
9.447891
9.442726
9.43694
9.430323
9.422583
9.413347
9.402206
9.388962
9.374533
9.362456
313.1333
238.8263
131.0461
81.62207
71.13002
43.49636
38.24958
35.10344
32.0137
29.63784
28.04243
26.89791
26.32569
25.49137
24.46168
23.51037
22.69028
21.98774
21.37735
20.837
20.35015
19.90534
19.48069
19.04408
18.59589
18.15126
17.72622
17.33133
16.97117
16.64614
16.36153
14.6249
14.39716
14.19362
14.00371
13.82322
13.65083
13.4864
13.33022
13.18261
13.04376
12.91304
12.78888
12.66958
12.55383
12.44084
12.33042
12.22285
12.11882
12.02001
11.93007
11.84798
11.77104
11.69657
11.62256
11.54791
11.47233
11.39618
11.32022
11.24531
11.172
11.10039
11.03027
10.96144
10.89356
10.82591
10.75835
10.68963
10.66171
10.62358
10.5794
10.53123
10.4801
10.42662
10.37137
10.315
10.2582
10.20166
10.14593
10.09116
10.0372
9.983736
9.930428
9.87713
9.823889
9.770954
9.718779
9.668204
9.619762
9.573283
9.528158
9.483669
9.43924
9.394538
9.349467
9.304047
9.258665
9.213781
9.169582
9.126031
9.082975
9.040257
8.997804
8.955671
8.914089
8.873856
8.839841
8.808526
8.778133
8.747755
8.716957
8.685596
8.653719
8.621498
8.589169
8.55698
8.525113
8.493654
8.462609
8.431953
8.401678
8.371838
8.342597
8.314288
8.287474
8.262764
8.240233
8.219837
8.201591
8.185376
8.170824
8.157493
8.14501
8.133118
8.121662
8.110572
8.099831
8.089458
8.079478
8.069909
8.060745
8.051947
8.043438
8.035139
8.027014
8.019116
8.01156
8.00461
7.998847
7.995006
7.993826
7.996331
8.004323
8.017782
8.032893
8.047459
8.061316
8.074869
8.088301
8.1013
8.113709
8.125424
8.136371
8.146516
8.155861
8.16444
8.172306
8.17953
8.186189
8.192369
8.198152
8.203621
8.208851
8.213909
8.218853
8.223728
8.228567
8.233391
8.238206
8.243009
8.247788
8.252526
8.257201
8.261791
8.266276
8.27064
8.274871
8.278964
8.28292
8.286751
8.290475
8.294117
8.297706
8.30127
8.304839
8.308439
8.312093
8.315814
8.319609
8.323476
8.3274
8.331365
8.33536
8.339425
8.343697
8.348358
8.353603
8.359588
8.366402
8.374076
8.382525
8.391697
8.401464
8.411664
8.422195
8.432928
8.443754
8.454578
8.465332
8.475936
8.486334
8.496481
8.506346
8.515904
8.525146
8.534063
8.542659
8.550943
8.55893
8.566639
8.574089
8.581299
8.588296
8.595057
8.601625
8.608007
8.614218
8.620271
8.626179
8.631953
8.637601
8.643132
8.648554
8.65388
8.659126
8.664298
8.669402
8.674445
8.679428
8.684356
8.689238
8.694027
8.698755
8.703599
8.709577
8.7143
8.71811
8.721839
8.726103
8.731253
8.737372
8.744411
8.752258
8.76074
8.769674
8.778884
8.788216
8.797553
8.806772
8.815764
8.824499
8.832936
8.841053
8.848853
8.856306
8.863411
8.870201
8.876657
8.882787
8.888566
8.894012
8.899104
8.903808
8.908077
8.911782
8.914697
8.916447
8.916919
8.916397
8.914788
8.912133
8.908567
8.904198
8.899119
8.893466
8.887344
8.880857
8.87411
8.867165
8.86009
8.852973
8.845888
8.838866
8.831929
8.825128
8.818491
8.812037
8.805781
8.799731
8.793892
8.788264
8.782846
8.777632
8.772618
8.767798
8.763171
8.758699
8.75439
8.75024
8.746258
8.742415
8.738701
8.73516
8.7321
8.733347
8.736243
8.73936
8.741914
8.74345
8.743707
8.742544
8.739918
8.73586
8.730462
8.723861
8.716222
8.707727
8.69856
8.6889
8.678915
8.668754
8.658547
8.648405
8.638418
8.628657
8.619176
8.610012
8.601188
8.592719
8.584605
8.576843
8.569422
8.562328
8.555543
8.549051
8.542832
8.536871
8.531152
8.525662
8.520389
8.515326
8.510466
8.505807
8.50135
8.4971
8.493064
8.489257
8.485693
8.482388
8.479347
8.476553
8.473978
8.471595
8.469382
8.467321
8.465397
8.463597
8.461921
8.460341
8.458773
8.4571
8.455191
8.452907
8.450118
8.446723
8.442658
8.437897
8.432459
8.426395
8.419782
8.412718
8.405304
8.397647
8.389847
8.381994
8.374168
8.366437
8.358855
8.351464
8.344295
8.337371
8.330704
8.324304
8.31817
8.312302
8.306694
8.301339
8.296228
8.29135
8.286695
8.282254
8.278015
8.273967
8.270102
8.26641
8.262881
8.259507
8.256279
8.253189
8.25023
8.247393
8.244671
8.242057
8.239542
8.237119
8.23478
8.232516
8.230318
8.228179
8.226088
8.224037
8.222017
8.220018
8.218033
8.216053
8.21407
8.212077
8.210066
8.208032
8.205966
8.203863
8.201716
8.199516
8.197256
8.194928
8.192522
8.190026
8.187427
8.184708
8.181848
8.178822
8.175595
8.172125
8.168352
8.164204
8.159579
8.154353
8.148364
8.141433
8.133385
8.124162
8.114122
8.105008
334.6914
241.8075
193.5248
130.7869
100.8261
61.26823
48.23389
42.49719
38.34185
36.43107
34.43908
32.77771
31.43637
29.66369
28.06873
26.71685
24.11615
22.94317
21.86617
20.87474
19.96486
19.13043
18.36963
17.68257
17.05224
16.46431
15.9148
15.4036
14.93069
14.49517
14.09554
13.72906
13.393
13.08403
12.79873
12.53412
12.28815
12.05963
11.84793
11.65273
11.47367
11.30892
11.20474
11.099
10.99611
10.89773
10.80436
10.71606
10.6326
10.55369
10.47904
10.40836
10.3413
10.27743
10.21627
10.15733
10.10016
10.04443
9.989914
9.936542
9.88447
9.834167
9.785874
9.739524
9.694781
9.651166
9.60819
9.565444
9.522676
9.47979
9.436809
9.393803
9.350809
9.30778
9.264562
9.221055
9.177436
9.133874
9.090886
9.052596
9.016671
8.981859
8.947493
8.913158
8.878581
8.843654
8.808333
8.772681
8.736841
8.700968
8.665177
8.629529
8.594012
8.558572
8.52315
8.487715
8.452286
8.416953
8.381888
8.347276
8.313205
8.279636
8.246418
8.213337
8.180151
8.146604
8.11239
8.077816
8.043381
8.009317
7.975714
7.942584
7.909899
7.877629
7.845768
7.814369
7.78367
7.754436
7.726671
7.700122
7.674482
7.649477
7.624898
7.600605
7.576527
7.552651
7.529
7.505617
7.482538
7.459794
7.437408
7.415406
7.393834
7.372776
7.352374
7.332845
7.314414
7.297162
7.281129
7.266373
7.252909
7.240641
7.229404
7.219021
7.209335
7.20022
7.191577
7.183331
7.175429
7.167832
7.160504
7.153416
7.146533
7.139819
7.133243
7.126802
7.120551
7.114598
7.109123
7.104431
7.100887
7.09883
7.098572
7.100452
7.104458
7.109849
7.115936
7.122398
7.129145
7.136135
7.143288
7.150522
7.157757
7.16492
7.171948
7.178788
7.185407
7.191781
7.197906
7.203786
7.209439
7.214888
7.220165
7.225301
7.230331
7.235283
7.240182
7.245045
7.24988
7.254687
7.259459
7.26418
7.268832
7.273391
7.277835
7.282145
7.286302
7.290297
7.294125
7.29779
7.301303
7.304682
7.307948
7.311129
7.314252
7.317344
7.320431
7.323533
7.326668
7.329845
7.333065
7.336326
7.339618
7.342936
7.346283
7.349685
7.353191
7.356863
7.360775
7.364997
7.369583
7.374568
7.379971
7.385808
7.392012
7.398551
7.405376
7.412451
7.419732
7.427144
7.434629
7.442144
7.449645
7.457093
7.464456
7.471708
7.478828
7.485802
7.492619
7.499274
7.505765
7.512094
7.518263
7.524276
7.530136
7.535849
7.541421
7.546857
7.552166
7.557355
7.562431
7.5674
7.572272
7.577052
7.581742
7.586342
7.590854
7.595285
7.599637
7.603915
7.608122
7.612262
7.616334
7.62035
7.62436
7.628502
7.632587
7.636492
7.640288
7.644092
7.648036
7.652215
7.656701
7.661524
7.666685
7.67216
7.677904
7.683867
7.689994
7.696238
7.702508
7.708776
7.715002
7.72115
7.727194
7.733102
7.738855
7.744437
7.74983
7.755024
7.75996
7.76463
7.769001
7.773026
7.776649
7.779786
7.782393
7.78449
7.785945
7.786702
7.786734
7.786067
7.784766
7.782912
7.78053
7.777701
7.77448
7.770919
7.767072
7.762979
7.758686
7.75424
7.749684
7.745072
7.740413
7.735748
7.731084
7.726467
7.721917
7.71745
7.713077
7.708807
7.704644
7.700593
7.696658
7.692854
7.689136
7.685508
7.681984
7.678561
7.675241
7.672016
7.668889
7.665876
7.663083
7.661005
7.65965
7.658845
7.658366
7.657993
7.657529
7.656805
7.655687
7.654078
7.651913
7.649159
7.645814
7.641896
7.637446
7.632518
7.627174
7.621484
7.615518
7.609346
7.603034
7.596641
7.590223
7.583824
7.577484
7.571233
7.565095
7.559087
7.553219
7.547499
7.54193
7.536513
7.531245
7.526125
7.521151
7.51632
7.511632
7.507087
7.502685
7.498429
7.494325
7.490377
7.486594
7.482986
7.479562
7.476331
7.473296
7.470451
7.467785
7.465282
7.462931
7.460719
7.458635
7.456671
7.454817
7.45306
7.451369
7.449703
7.448012
7.446243
7.444338
7.44224
7.439898
7.437271
7.434328
7.431056
7.427453
7.423532
7.419315
7.414835
7.410128
7.405236
7.400199
7.395059
7.389855
7.384622
7.379392
7.374193
7.369049
7.36398
7.359003
7.354131
7.349374
7.344741
7.340237
7.335866
7.331629
7.327528
7.323563
7.319731
7.316031
7.31246
7.309014
7.305689
7.302482
7.299388
7.2964
7.293515
7.290725
7.288026
7.285411
7.282874
7.280409
7.278009
7.275667
7.273377
7.271133
7.268928
7.266756
7.264612
7.262491
7.260387
7.258296
7.256213
7.254135
7.252057
7.249973
7.24788
7.245771
7.24364
7.241479
7.239281
7.237035
7.234729
7.23235
7.229881
7.227303
7.224592
7.221718
7.218645
7.215328
7.211711
7.207726
7.203292
7.198315
7.192696
7.18635
7.179257
7.171618
7.164571
179.7371
137.5888
191.6768
95.49289
78.80442
61.37331
55.88338
50.91801
45.87377
42.61478
39.65453
36.41865
33.80404
31.99568
31.00197
30.00263
30.4031
30.68422
30.74564
30.51622
29.96894
29.06704
28.03968
26.93423
25.77894
24.59136
23.40139
22.24632
21.15023
20.1227
19.16417
18.27292
17.44798
16.68685
15.98483
15.33588
14.73531
14.18002
13.66739
13.19471
12.75891
12.35708
11.98725
11.64711
11.33446
11.04723
10.78361
10.54208
10.32138
10.12045
9.938382
9.774612
9.632344
9.507668
9.397982
9.301272
9.215869
9.140291
9.073174
9.013256
8.95939
8.910544
8.8658
8.824352
8.785494
8.748619
8.713208
8.678833
8.645156
8.611934
8.579013
8.546371
8.514089
8.482237
8.450822
8.41977
8.388932
8.358016
8.326989
8.2958
8.264376
8.232647
8.200531
8.167903
8.134547
8.100471
8.066155
8.031848
7.997801
7.964662
7.932607
7.90156
7.871387
7.84189
7.812876
7.784211
7.75577
7.727466
7.699255
7.67112
7.643075
7.615121
7.58725
7.559443
7.531673
7.503914
7.47615
7.448382
7.420637
7.392958
7.365386
7.337937
7.310602
7.283345
7.256126
7.228915
7.201734
7.174694
7.147915
7.121478
7.095432
7.069795
7.044567
7.019743
6.995316
6.971294
6.947733
6.924775
6.902513
6.880973
6.860125
6.839908
6.820247
6.80107
6.782317
6.763944
6.745923
6.728241
6.710894
6.693886
6.677227
6.660933
6.645034
6.629572
6.614612
6.600244
6.586556
6.573598
6.561396
6.549984
6.539383
6.529576
6.520512
6.51212
6.504327
6.497061
6.490252
6.483835
6.477752
6.47195
6.466381
6.461004
6.455782
6.450685
6.445694
6.440815
6.436086
6.43158
6.427408
6.423734
6.420742
6.418591
6.417392
6.417203
6.417968
6.419464
6.42147
6.423858
6.426571
6.429577
6.432848
6.436355
6.440064
6.443939
6.447945
6.452045
6.456207
6.460403
6.464614
6.468824
6.473027
6.477221
6.48141
6.485602
6.489804
6.494024
6.498266
6.502533
6.506819
6.511114
6.515404
6.519667
6.523882
6.528023
6.532068
6.535995
6.539786
6.543429
6.546918
6.550254
6.553445
6.556502
6.559444
6.562292
6.565068
6.567795
6.570496
6.573189
6.575888
6.578604
6.58134
6.584097
6.58687
6.589656
6.592452
6.595261
6.598095
6.600971
6.603917
6.606966
6.610149
6.6135
6.617044
6.620805
6.62481
6.629016
6.633419
6.638023
6.642812
6.647755
6.652828
6.658003
6.663251
6.668549
6.67387
6.679195
6.684502
6.689776
6.695003
6.700172
6.705273
6.710301
6.715251
6.720119
6.724902
6.729599
6.73421
6.738735
6.743173
6.747528
6.751799
6.755989
6.7601
6.764134
6.768093
6.771979
6.775796
6.779547
6.783236
6.786865
6.790438
6.79396
6.797434
6.800866
6.80427
6.807671
6.81106
6.814417
6.817736
6.821029
6.824323
6.827649
6.831039
6.834519
6.838111
6.841826
6.845668
6.849633
6.85371
6.857887
6.862142
6.866454
6.870802
6.875165
6.879521
6.883847
6.888124
6.892329
6.896446
6.900456
6.904339
6.908074
6.911638
6.915003
6.918136
6.92099
6.923522
6.925692
6.927454
6.92877
6.92962
6.930013
6.929976
6.929545
6.928751
6.927628
6.926207
6.924515
6.922582
6.920432
6.918091
6.915585
6.91294
6.910181
6.907332
6.904423
6.901447
6.898439
6.895415
6.892391
6.889376
6.88638
6.883411
6.880474
6.877585
6.874734
6.871902
6.869109
6.866356
6.863646
6.86098
6.858361
6.855791
6.853278
6.850846
6.848574
6.846513
6.844678
6.843053
6.841597
6.840256
6.838964
6.837656
6.836268
6.834742
6.833032
6.831099
6.828919
6.826478
6.823771
6.820806
6.817596
6.814162
6.810529
6.806727
6.802783
6.798729
6.794591
6.790395
6.786166
6.781921
6.777678
6.773449
6.769246
6.765077
6.760947
6.756864
6.75283
6.74885
6.744928
6.74107
6.73728
6.733564
6.729928
6.72638
6.722929
6.719582
6.716349
6.713238
6.710256
6.707408
6.704694
6.70211
6.699651
6.697311
6.695083
6.692963
6.690944
6.689019
6.687182
6.685418
6.68371
6.682039
6.680383
6.678719
6.677021
6.675264
6.673422
6.671471
6.669392
6.667168
6.664791
6.662253
6.659554
6.6567
6.653698
6.65056
6.6473
6.643934
6.640478
6.63695
6.633366
6.629743
6.626097
6.622443
6.618794
6.615162
6.61156
6.607997
6.604481
6.601019
6.597619
6.594285
6.591021
6.58783
6.584713
6.581673
6.578708
6.57582
6.573006
6.570264
6.567593
6.564989
6.562449
6.55997
6.557548
6.555179
6.55286
6.550585
6.548353
6.546158
6.543998
6.54187
6.539771
6.537698
6.535649
6.533623
6.531617
6.52963
6.527658
6.5257
6.523751
6.521807
6.519864
6.517914
6.51595
6.513963
6.511943
6.509878
6.507752
6.50555
6.503252
6.500833
6.498266
6.495518
6.492551
6.48932
6.485774
6.48186
6.477524
6.472723
6.46745
6.461835
6.456646
84.04644
50.33009
45.72222
42.59434
40.90039
39.09971
37.37137
35.83375
34.54537
32.99877
29.3735
28.68559
28.09277
27.68018
27.45696
27.44407
27.7084
28.29108
29.1804
30.20294
31.18013
32.00524
32.47087
32.48952
32.01501
31.20939
30.17848
29.00492
27.74335
26.44388
25.14111
23.85916
22.63191
21.45619
20.33737
19.29056
18.32325
17.42906
16.60213
15.83723
15.1273
14.46685
13.85305
13.28339
12.7553
12.26611
11.81321
11.39436
11.00736
10.65018
10.32095
10.01805
9.74007
9.485824
9.254267
9.044473
8.855623
8.68728
8.538503
8.408017
8.294363
8.19599
8.111292
8.038634
7.976395
7.923005
7.876977
7.83694
7.801657
7.770037
7.741133
7.714141
7.688396
7.663367
7.638671
7.613969
7.58888
7.563602
7.538299
7.51301
7.487728
7.462441
7.437262
7.412002
7.38652
7.360729
7.334575
7.308035
7.281111
7.253851
7.226368
7.198803
7.171275
7.143901
7.116848
7.090249
7.064187
7.038712
7.013816
6.989471
6.965626
6.942219
6.919185
6.896464
6.874
6.851738
6.829644
6.807687
6.785838
6.764069
6.742352
6.720664
6.698987
6.677309
6.655633
6.633964
6.612309
6.590675
6.569077
6.547564
6.526179
6.504967
6.483979
6.463263
6.442852
6.422772
6.403034
6.383643
6.364598
6.345897
6.32754
6.309538
6.291919
6.274717
6.257958
6.241655
6.225806
6.210401
6.195419
6.180839
6.166637
6.152794
6.139296
6.12613
6.113293
6.100783
6.088606
6.076777
6.065317
6.054255
6.04363
6.033479
6.023828
6.014695
6.006093
5.998032
5.990509
5.983506
5.976994
5.970935
5.965289
5.960012
5.955061
5.95039
5.945959
5.941726
5.937657
5.933722
5.929896
5.926167
5.922536
5.919026
5.91568
5.912563
5.909761
5.907366
5.905457
5.904076
5.903226
5.90286
5.902878
5.903185
5.903727
5.90448
5.905435
5.906591
5.907944
5.909489
5.911219
5.913123
5.915188
5.917402
5.919749
5.922219
5.924802
5.927489
5.930276
5.933161
5.936142
5.939218
5.942387
5.945644
5.948983
5.952393
5.955858
5.95936
5.962877
5.966385
5.969861
5.973279
5.976619
5.979862
5.982995
5.98601
5.988903
5.991677
5.994339
5.996902
5.99938
6.001789
6.004148
6.006472
6.008776
6.011071
6.013367
6.015667
6.017973
6.020283
6.022593
6.024902
6.027208
6.029513
6.031821
6.034143
6.036492
6.038883
6.041335
6.043864
6.046488
6.04923
6.052077
6.05504
6.058122
6.061321
6.06463
6.06804
6.071541
6.075119
6.078763
6.082458
6.086193
6.089955
6.093734
6.097518
6.1013
6.10507
6.108823
6.112553
6.116255
6.119923
6.123556
6.127149
6.130701
6.134209
6.137672
6.141089
6.14446
6.147784
6.151062
6.154294
6.15748
6.160623
6.163723
6.166783
6.169804
6.172788
6.175738
6.178658
6.181549
6.184417
6.187268
6.190104
6.192924
6.195724
6.198503
6.201263
6.204008
6.206746
6.209485
6.212235
6.215002
6.217796
6.22062
6.223478
6.226371
6.229298
6.232255
6.235239
6.238242
6.241259
6.24428
6.247297
6.250297
6.25327
6.256203
6.25908
6.261886
6.264602
6.267209
6.269684
6.272
6.274129
6.276041
6.277707
6.279105
6.280219
6.281049
6.281603
6.281898
6.281948
6.281772
6.281384
6.280801
6.280038
6.279108
6.278026
6.276804
6.275458
6.274001
6.272447
6.27081
6.269099
6.267325
6.2655
6.263632
6.261729
6.259796
6.25784
6.255865
6.253883
6.25188
6.249863
6.247838
6.245806
6.243772
6.241739
6.239711
6.237693
6.235688
6.233706
6.231762
6.229873
6.228054
6.226316
6.22466
6.223081
6.221567
6.220099
6.218655
6.21721
6.215739
6.214219
6.212628
6.210948
6.209167
6.207274
6.205266
6.203142
6.200904
6.19856
6.196116
6.193584
6.190974
6.188295
6.185558
6.182772
6.179945
6.177084
6.174194
6.171282
6.168352
6.165408
6.162455
6.159497
6.15654
6.153588
6.150649
6.147729
6.144835
6.141976
6.139159
6.136394
6.133688
6.131049
6.128485
6.126001
6.1236
6.121283
6.11905
6.116899
6.114829
6.112839
6.110925
6.109086
6.107316
6.105611
6.103963
6.102365
6.100807
6.099281
6.097776
6.096281
6.094784
6.093272
6.091732
6.090153
6.088524
6.086835
6.085077
6.083246
6.081337
6.079348
6.077278
6.075131
6.072909
6.070616
6.068259
6.065844
6.063379
6.060872
6.05833
6.055763
6.053177
6.050582
6.047983
6.04539
6.042806
6.04024
6.037695
6.035176
6.032687
6.03023
6.027809
6.025424
6.023077
6.020768
6.018497
6.016263
6.014066
6.011904
6.009775
6.00768
6.005614
6.003579
6.001571
5.999591
5.997636
5.995707
5.993803
5.991924
5.99007
5.988241
5.986436
5.984656
5.9829
5.981166
5.979452
5.977756
5.976073
5.974398
5.972725
5.971048
5.969356
5.96764
5.965888
5.964087
5.962222
5.960274
5.958223
5.956046
5.953717
5.951208
5.948488
5.945525
5.94229
5.938759
5.934931
5.930892
5.927169
103.3971
36.50043
28.6693
26.81107
25.83304
25.294
25.03105
24.9461
24.98725
25.13893
25.35877
25.48983
25.72368
26.11943
26.71261
27.53401
28.60602
29.92867
31.28874
32.51699
33.47523
34.08961
34.07826
33.55875
32.68111
31.57839
30.33554
29.02161
27.67712
26.33664
25.02388
23.7595
22.55596
21.40947
20.3167
19.28501
18.32667
17.43963
16.61586
15.8469
15.1247
14.4455
13.8072
13.20822
12.64713
12.12239
11.63238
11.17539
10.74969
10.35362
9.985642
9.644412
9.328781
9.037797
8.770669
8.526713
8.305295
8.105807
7.927557
7.769663
7.631047
7.510443
7.406423
7.317424
7.241798
7.177856
7.123919
7.078365
7.039667
7.006416
6.977345
6.95133
6.927409
6.904677
6.882742
6.861712
6.84167
6.822149
6.802775
6.783343
6.763736
6.74389
6.723782
6.703376
6.682647
6.661586
6.640201
6.618518
6.596583
6.574461
6.552231
6.529975
6.507768
6.48568
6.463787
6.442158
6.420855
6.399931
6.379408
6.359304
6.339616
6.320327
6.301407