/*--------------------------------*- C++ -*----------------------------------*\
| =========                 |                                                 |
| \\      /  F ield         | foam-extend: Open Source CFD                    |
|  \\    /   O peration     | Version:     3.1                                |
|   \\  /    A nd           | Web:         http://www.extend-project.de       |
|    \\/     M anipulation  |                                                 |
\*---------------------------------------------------------------------------*/
FoamFile
{
    version     2.0;
    format      ascii;
    class       volScalarField;
    location    "1.5";
    object      p;
}
// * * * * * * * * * * * * * * * * * * * * * * * * * * * * * * * * * * * * * //

dimensions      [1 -1 -2 0 0 0 0];

internalField   nonuniform List<scalar> 
119952
(
6904.703
6839.334
6824.301
6837.462
6854.543
6847.515
6846.861
6846.849
6847.449
6848.435
6849.706
6851.204
6852.886
6854.716
6856.661
6858.676
6860.688
6862.506
6863.42
6859.798
6890.079
6877.902
6874.875
6911.265
6908.262
6914.352
6919.382
6930.931
6965.991
7299.525
6611.009
6608.023
6606.71
6605.637
6604.738
6604.098
6603.683
6603.474
6603.565
6601.788
6584.215
6581.992
6579.478
6577.194
6574.996
6573.044
6571.324
6569.695
6568.532
6538.534
6536.312
6535.293
6534.643
6534.284
6534.118
6534.181
6534.414
6534.934
6535.87
6536.201
6537.293
6538.524
6539.927
6541.524
6543.285
6545.192
6547.434
6551.979
6563.273
6557.48
6559.008
6564.11
6568.244
6569.504
6570.521
6571.847
6573.385
6575.165
6577.172
6579.371
6581.733
6584.231
6586.835
6589.509
6592.208
6594.867
6597.432
6600.039
6604.535
6608.248
6610.871
6619.249
6629.737
6634.853
6641.067
6647.371
6649.814
6636.973
6638.279
6643.508
6648.463
6653.326
6658.007
6662.577
6667.07
6671.508
6675.906
6680.274
6684.619
6688.944
6693.252
6697.543
6701.819
6706.078
6710.321
6714.546
6718.754
6722.942
6727.11
6731.256
6735.379
6739.478
6743.551
6747.598
6751.616
6755.606
6759.566
6763.495
6767.392
6771.256
6775.087
6778.883
6782.644
6786.37
6790.058
6793.708
6797.318
6800.889
6804.418
6807.904
6811.346
6814.742
6818.088
6821.378
6824.597
6827.738
6831.007
6834.227
6837.455
6840.582
6843.664
6846.689
6849.662
6852.587
6855.465
6858.298
6861.085
6863.828
6866.526
6869.181
6871.792
6874.36
6876.884
6879.366
6881.806
6884.206
6886.566
6888.885
6891.165
6893.405
6895.603
6897.769
6899.895
6901.981
6904.027
6906.037
6908.01
6909.947
6911.847
6913.712
6915.541
6917.336
6919.095
6920.821
6922.512
6924.169
6925.792
6927.383
6928.94
6930.463
6931.951
6933.404
6934.817
6936.182
6937.482
6938.7
6940.192
6973.052
6973.477
6974.875
6976.21
6977.483
6978.711
6979.902
6981.06
6982.188
6983.287
6984.36
6985.406
6986.427
6987.423
6988.394
6989.34
6990.222
6991.125
6992.012
6992.858
6993.675
6994.462
6995.221
6995.948
6996.642
6997.297
6997.911
6998.476
6998.984
6999.42
6999.76
6999.958
7000.023
6999.584
6998.281
6995.816
6999.076
7001.355
7003.191
7004.75
7006.148
7007.436
7008.636
7009.766
7010.838
7011.86
7012.838
7013.778
7014.684
7015.559
7016.405
7017.225
7018.02
7018.792
7019.541
7020.269
7020.978
7021.666
7022.336
7022.988
7023.623
7024.241
7024.843
7025.429
7026.002
7026.562
7027.112
7027.654
7028.136
7028.65
7003.347
7000.714
6999.57
6999.822
6999.987
7000.272
7000.552
7000.852
7001.16
7001.453
7001.731
7001.994
7002.242
7002.474
7002.691
7002.893
7003.079
7003.249
7003.404
7003.543
7003.666
7003.774
7003.866
7003.943
7004.005
7004.051
7004.082
7004.098
7004.1
7004.087
7004.061
7004.02
7003.967
7003.9
7003.822
7003.733
7003.634
7003.527
7003.414
7003.297
7003.183
7003.08
7003.003
7002.98
7003.029
7003.036
7002.498
7001.896
7001.371
7000.865
7000.379
6999.904
6999.437
6998.899
6997.012
6997.212
6996.921
6996.358
6995.789
6995.213
6994.623
6994.029
6993.425
6992.811
6992.186
6991.55
6990.902
6990.243
6989.572
6988.89
6988.196
6987.491
6986.775
6986.048
6985.309
6984.56
6983.801
6983.031
6982.251
6981.461
6980.662
6979.853
6979.035
6978.208
6977.372
6976.528
6975.677
6974.817
6973.95
6973.076
6972.194
6971.307
6970.413
6969.513
6968.607
6967.696
6966.78
6965.859
6964.933
6964.003
6963.069
6962.131
6961.19
6960.245
6959.297
6958.346
6957.392
6956.435
6955.475
6954.513
6953.547
6952.578
6951.605
6950.628
6949.647
6948.662
6947.67
6946.671
6945.665
6944.648
6943.621
6942.579
6941.521
6940.442
6939.337
6938.202
6937.027
6935.802
6934.512
6933.136
6931.644
6929.991
6928.098
6925.824
6922.934
6919.073
6914.408
6913.984
6934.194
6659.027
6653.191
6646.826
6640.355
6633.764
6627.538
6621.192
6614.879
6608.351
6583.736
6574.93
6565.871
6556.688
6547.6
6538.638
6529.814
6521.134
6512.681
6475.033
6466.018
6457.045
6448.967
6441.227
6433.655
6426.333
6419.154
6412.255
6405.642
6398.683
6392.114
6385.966
6379.935
6374.094
6368.427
6362.964
6357.714
6352.77
6348.037
6342.497
6338.242
6334.035
6329.978
6326.084
6322.363
6318.843
6315.538
6312.436
6309.481
6306.714
6304.119
6301.729
6299.56
6297.609
6295.873
6294.349
6293.083
6230.211
6229.272
6228.523
6228.003
6227.684
6227.57
6227.658
6227.951
6228.451
6229.17
6230.043
6231.052
6232.263
6233.697
6235.36
6237.271
6239.509
6242.259
6245.651
6249.334
6251.063
6252.794
6255.681
6258.561
6260.699
6262.388
6264.089
6265.944
6267.963
6270.139
6272.467
6274.934
6277.527
6280.23
6283.028
6285.908
6288.873
6291.98
6295.384
6299.31
6303.613
6308.115
6313.945
6320.698
6326.078
6330.589
6334.089
6335.66
6335.032
6336.16
6339.603
6343.845
6348.202
6352.568
6356.942
6361.313
6365.67
6370.013
6374.342
6378.659
6382.964
6387.256
6391.536
6395.803
6400.056
6404.294
6408.516
6412.721
6416.907
6421.074
6425.219
6429.343
6433.442
6437.517
6441.564
6445.584
6449.575
6453.536
6457.464
6461.361
6465.223
6469.051
6472.845
6476.601
6480.321
6484.003
6487.646
6491.249
6494.812
6498.334
6501.813
6505.249
6508.64
6511.985
6515.283
6518.539
6521.769
6524.998
6528.206
6531.331
6534.425
6537.486
6540.501
6543.469
6546.39
6549.265
6552.094
6554.879
6557.618
6560.314
6562.965
6565.573
6568.138
6570.658
6573.134
6575.57
6577.966
6580.322
6582.637
6584.913
6587.148
6589.343
6591.499
6593.618
6595.699
6597.742
6599.748
6601.716
6603.649
6605.545
6607.406
6609.231
6611.022
6612.778
6614.5
6616.188
6617.841
6619.462
6621.05
6622.605
6624.126
6625.614
6627.068
6628.486
6629.868
6631.223
6632.554
6633.935
6696.492
6697.587
6698.898
6700.174
6701.418
6702.63
6703.813
6704.968
6706.095
6707.195
6708.268
6709.315
6710.336
6711.332
6712.303
6713.248
6714.164
6715.058
6715.927
6716.767
6717.58
6718.364
6719.119
6719.842
6720.53
6721.181
6721.788
6722.347
6722.849
6723.281
6723.623
6723.846
6723.91
6723.766
6723.469
6723.487
6724.757
6726.41
6727.935
6729.349
6730.657
6731.88
6733.031
6734.123
6735.163
6736.16
6737.117
6738.039
6738.93
6739.792
6740.628
6741.438
6742.225
6742.99
6743.734
6744.457
6745.161
6745.846
6746.513
6747.162
6747.794
6748.409
6749.008
6749.593
6750.163
6750.721
6751.268
6751.811
6752.366
6753.007
6692.531
6693.007
6693.014
6693.112
6693.388
6693.717
6694.038
6694.343
6694.638
6694.923
6695.194
6695.451
6695.693
6695.92
6696.131
6696.327
6696.507
6696.672
6696.822
6696.956
6697.076
6697.179
6697.268
6697.342
6697.401
6697.444
6697.473
6697.488
6697.488
6697.474
6697.445
6697.404
6697.349
6697.282
6697.202
6697.112
6697.011
6696.902
6696.786
6696.666
6696.544
6696.424
6696.308
6696.191
6696.045
6695.812
6695.435
6694.98
6694.514
6694.05
6693.591
6693.135
6692.696
6692.23
6691.58
6690.904
6690.312
6689.726
6689.132
6688.538
6687.944
6687.343
6686.734
6686.116
6685.486
6684.844
6684.19
6683.524
6682.847
6682.159
6681.459
6680.748
6680.026
6679.293
6678.549
6677.795
6677.031
6676.256
6675.472
6674.678
6673.874
6673.062
6672.24
6671.409
6670.57
6669.723
6668.868
6668.005
6667.135
6666.258
6665.374
6664.484
6663.587
6662.685
6661.777
6660.863
6659.945
6659.021
6658.094
6657.162
6656.226
6655.286
6654.342
6653.396
6652.445
6651.492
6650.536
6649.577
6648.615
6647.65
6646.682
6645.71
6644.735
6643.756
6642.773
6641.784
6640.79
6639.788
6638.779
6637.76
6636.729
6635.684
6634.622
6633.54
6632.432
6631.294
6630.117
6628.894
6627.61
6626.252
6624.798
6623.223
6621.497
6619.602
6617.601
6615.731
6614.83
6615.31
6618.092
6786.437
6781.442
6774.855
6767.935
6760.611
6753.153
6745.688
6738.313
6730.936
6722.655
6696.257
6687.265
6677.066
6667.203
6657.447
6647.783
6638.169
6628.591
6619.293
6579.106
6568.946
6558.737
6549.101
6539.567
6530.085
6520.637
6511.223
6501.978
6492.956
6482.55
6473.052
6463.623
6454.102
6444.526
6434.95
6425.361
6415.821
6406.506
6395.968
6385.966
6376.514
6366.908
6357.292
6347.646
6338.027
6328.471
6318.987
6309.475
6300.125
6290.76
6281.456
6272.321
6263.345
6254.519
6245.839
6237.333
6165.845
6157.503
6149.283
6141.373
6133.694
6126.2
6118.886
6111.76
6104.834
6098.101
6091.576
6085.135
6078.854
6072.795
6066.954
6061.31
6055.868
6050.631
6045.594
6040.739
6035.97
6031.401
6027.075
6022.964
6019.05
6015.333
6011.818
6008.508
6005.4
6002.465
5999.696
5997.13
5994.774
5992.627
5990.689
5988.96
5987.436
5986.152
5985.116
5984.125
5983.319
5982.762
5982.422
5982.285
5982.346
5982.608
5983.07
5983.729
5984.558
5985.565
5986.779
5988.21
5989.868
5991.77
5993.943
5996.416
5999.158
6002.036
6004.18
6006.218
6008.676
6011.197
6013.376
6015.317
6017.269
6019.328
6021.507
6023.81
6026.242
6028.798
6031.473
6034.26
6037.158
6040.17
6043.318
6046.648
6050.238
6054.198
6058.496
6063.04
6068.109
6073.445
6078.132
6082.126
6085.379
6087.725
6089.13
6091.387
6094.849
6098.855
6103.008
6107.222
6111.484
6115.775
6120.076
6124.38
6128.682
6132.98
6137.272
6141.555
6145.83
6150.093
6154.344
6158.582
6162.805
6167.011
6171.2
6175.37
6179.519
6183.647
6187.751
6191.83
6195.883
6199.909
6203.905
6207.871
6211.806
6215.707
6219.575
6223.408
6227.205
6230.967
6234.691
6238.377
6242.024
6245.632
6249.199
6252.725
6256.209
6259.65
6263.049
6266.405
6269.719
6272.995
6276.238
6279.458
6282.649
6285.787
6288.88
6291.933
6294.941
6297.903
6300.82
6303.693
6306.52
6309.304
6312.044
6314.74
6317.392
6320.001
6322.566
6325.086
6327.553
6329.995
6332.401
6334.764
6337.085
6339.365
6341.604
6343.804
6345.964
6348.085
6350.168
6352.213
6354.221
6356.191
6358.125
6360.024
6361.886
6363.713
6365.505
6367.263
6368.987
6370.675
6372.327
6373.95
6375.54
6377.097
6378.621
6380.113
6381.573
6383.001
6384.4
6385.775
6387.13
6388.484
6389.896
6391.23
6392.51
6393.763
6394.99
6396.19
6397.362
6398.507
6399.625
6400.718
6401.784
6402.825
6403.84
6404.831
6405.796
6406.735
6407.649
6408.538
6409.401
6410.236
6411.044
6411.824
6412.575
6413.295
6413.981
6414.629
6415.237
6415.801
6416.314
6416.77
6417.162
6417.486
6417.746
6417.974
6418.273
6418.85
6419.82
6421.035
6422.296
6423.524
6424.703
6425.834
6426.918
6427.959
6428.96
6429.924
6430.855
6431.756
6432.629
6433.476
6434.298
6435.097
6435.874
6436.63
6437.366
6438.083
6438.78
6439.459
6440.121
6440.765
6441.392
6442.002
6442.597
6443.176
6443.74
6444.291
6444.829
6445.356
6445.866
6446.375
6446.766
6446.954
6447.229
6447.613
6448.018
6448.4
6448.75
6449.077
6449.387
6449.681
6449.959
6450.22
6450.464
6450.692
6450.904
6451.1
6451.281
6451.445
6451.594
6451.728
6451.846
6451.949
6452.037
6452.11
6452.168
6452.211
6452.24
6452.254
6452.253
6452.239
6452.211
6452.169
6452.114
6452.046
6451.966
6451.875
6451.772
6451.66
6451.539
6451.411
6451.275
6451.132
6450.979
6450.807
6450.6
6450.336
6449.988
6449.575
6449.14
6448.698
6448.25
6447.794
6447.326
6446.842
6446.337
6445.749
6445.128
6444.508
6443.899
6443.296
6442.696
6442.092
6441.482
6440.862
6440.232
6439.59
6438.937
6438.272
6437.594
6436.906
6436.205
6435.493
6434.771
6434.037
6433.292
6432.537
6431.771
6430.995
6430.21
6429.414
6428.61
6427.796
6426.973
6426.141
6425.301
6424.452
6423.596
6422.732
6421.861
6420.982
6420.097
6419.206
6418.308
6417.404
6416.495
6415.581
6414.661
6413.737
6412.808
6411.875
6410.937
6409.996
6409.052
6408.104
6407.152
6406.198
6405.241
6404.28
6403.317
6402.351
6401.382
6400.409
6399.433
6398.454
6397.47
6396.481
6395.486
6394.486
6393.477
6392.459
6391.43
6390.388
6389.331
6388.255
6387.156
6386.03
6384.871
6383.672
6382.427
6381.126
6379.761
6378.329
6376.838
6375.322
6373.881
6372.677
6372.009
6372.136
6372.975
6255.393
6344.675
6412.11
6447.283
6481.119
6477.707
6494.767
6506.448
6515.582
6521.257
6520.31
6516.054
6508.684
6500.828
6492.449
6483.11
6473.299
6463.271
6453.205
6443.195
6433.318
6423.645
6413.924
6404.352
6394.812
6385.373
6376.033
6366.772
6357.588
6348.524
6339.673
6265.582
6256.843
6248.027
6238.883
6229.709
6220.579
6211.458
6202.321
6193.143
6183.949
6174.697
6165.302
6155.85
6146.39
6136.906
6127.39
6117.842
6108.265
6098.644
6088.927
6079.085
6069.286
6059.546
6049.835
6040.147
6030.496
6020.894
6011.352
6001.866
5992.409
5983.034
5973.774
5964.648
5955.665
5946.829
5938.15
5929.714
5921.622
5913.31
5905.078
5897.141
5889.439
5881.919
5874.576
5867.417
5860.45
5853.667
5847.054
5840.59
5834.313
5828.239
5822.366
5816.689
5811.209
5805.923
5800.829
5795.914
5791.144
5786.57
5782.219
5778.074
5774.125
5770.371
5766.812
5763.451
5760.284
5757.304
5754.51
5751.913
5749.521
5747.335
5745.357
5743.587
5742.022
5740.671
5739.512
5738.488
5737.676
5737.096
5736.728
5736.561
5736.595
5736.828
5737.257
5737.88
5738.689
5739.689
5740.89
5742.297
5743.916
5745.754
5747.811
5750.083
5752.525
5755.022
5757.265
5759.464
5761.813
5764.193
5766.435
5768.577
5770.731
5772.957
5775.278
5777.704
5780.242
5782.894
5785.66
5788.54
5791.535
5794.654
5797.917
5801.356
5805.015
5808.941
5813.119
5817.522
5822.144
5826.768
5831.132
5835.072
5838.494
5841.359
5843.861
5846.737
5850.216
5854.06
5858.065
5862.177
5866.364
5870.598
5874.858
5879.132
5883.414
5887.699
5891.982
5896.261
5900.532
5904.795
5909.047
5913.287
5917.512
5921.722
5925.914
5930.087
5934.24
5938.371
5942.479
5946.561
5950.618
5954.647
5958.646
5962.616
5966.554
5970.459
5974.33
5978.167
5981.967
5985.732
5989.459
5993.148
5996.798
6000.408
6003.978
6007.507
6010.994
6014.44
6017.844
6021.207
6024.528
6027.811
6031.058
6034.274
6037.455
6040.59
6043.68
6046.728
6049.733
6052.693
6055.608
6058.479
6061.307
6064.089
6066.828
6069.523
6072.176
6074.785
6077.353
6079.882
6082.379
6084.816
6087.206
6089.557
6091.869
6094.142
6096.375
6098.569
6100.724
6102.841
6104.92
6106.962
6108.966
6110.933
6112.864
6114.759
6116.618
6118.442
6120.231
6121.986
6123.706
6125.391
6127.033
6128.659
6130.252
6131.81
6133.337
6134.831
6136.294
6137.728
6139.135
6140.517
6141.881
6143.23
6144.572
6145.87
6147.14
6148.39
6149.615
6150.811
6151.98
6153.122
6154.238
6155.328
6156.393
6157.433
6158.448
6159.437
6160.402
6161.342
6162.257
6163.147
6164.01
6164.846
6165.653
6166.436
6167.195
6167.921
6168.613
6169.271
6169.893
6170.475
6171.016
6171.513
6171.968
6172.393
6172.805
6173.235
6173.753
6174.437
6175.343
6176.413
6177.536
6178.654
6179.749
6180.816
6181.852
6182.856
6183.828
6184.77
6185.684
6186.571
6187.434
6188.272
6189.087
6189.88
6190.653
6191.405
6192.138
6192.852
6193.548
6194.226
6194.886
6195.529
6196.155
6196.765
6197.358
6197.935
6198.497
6199.043
6199.573
6200.085
6200.572
6201.032
6201.428
6201.762
6202.117
6202.489
6202.859
6203.213
6203.551
6203.874
6204.182
6204.475
6204.751
6205.012
6205.257
6205.486
6205.698
6205.895
6206.076
6206.241
6206.39
6206.524
6206.642
6206.745
6206.833
6206.906
6206.964
6207.007
6207.035
6207.049
6207.048
6207.033
6207.004
6206.961
6206.905
6206.835
6206.753
6206.659
6206.553
6206.436
6206.308
6206.169
6206.018
6205.855
6205.675
6205.473
6205.237
6204.955
6204.617
6204.232
6203.821
6203.394
6202.954
6202.499
6202.03
6201.548
6201.039
6200.472
6199.874
6199.275
6198.679
6198.084
6197.486
6196.882
6196.27
6195.649
6195.018
6194.376
6193.721
6193.056
6192.378
6191.689
6190.988
6190.276
6189.553
6188.818
6188.073
6187.317
6186.551
6185.775
6184.988
6184.192
6183.386
6182.572
6181.748
6180.915
6180.074
6179.224
6178.367
6177.502
6176.63
6175.75
6174.864
6173.972
6173.073
6172.168
6171.258
6170.342
6169.421
6168.496
6167.566
6166.632
6165.694
6164.752
6163.807
6162.858
6161.906
6160.951
6159.994
6159.033
6158.07
6157.104
6156.135
6155.163
6154.189
6153.21
6152.229
6151.242
6150.251
6149.254
6148.251
6147.239
6146.218
6145.186
6144.141
6143.08
6142
6140.899
6139.773
6138.618
6137.431
6136.209
6134.953
6133.671
6132.382
6131.126
6129.975
6129.028
6128.424
6128.269
6128.363
5021.137
5055.45
5106.008
5149.961
5225.405
5293.572
5399.986
5514.134
5630.961
5744.081
5849.771
5939.099
6017.028
6083.209
6134.009
6172.737
6145.167
6167.109
6181.25
6189.95
6194.465
6194.709
6191.692
6186.534
6180.046
6172.463
6164.021
6155.054
6145.821
6136.506
6127.202
6117.931
6108.722
6099.557
6090.446
6081.412
6072.449
6063.546
6054.689
6045.863
6037.041
6028.113
6018.725
6009.939
6001.26
5992.452
5983.621
5974.801
5965.961
5957.072
5948.129
5939.128
5930.024
5920.817
5911.551
5902.235
5892.858
5883.421
5873.924
5864.37
5854.759
5845.06
5835.282
5825.517
5815.774
5806.04
5796.32
5786.63
5776.982
5767.385
5757.843
5748.363
5738.963
5729.661
5720.478
5711.433
5702.534
5693.789
5685.213
5676.792
5668.387
5660.153
5652.164
5644.39
5636.804
5629.404
5622.191
5615.17
5608.335
5601.669
5595.183
5588.884
5582.779
5576.87
5571.156
5565.636
5560.308
5555.168
5550.211
5545.43
5540.845
5536.465
5532.285
5528.302
5524.516
5520.927
5517.535
5514.341
5511.343
5508.538
5505.932
5503.528
5501.33
5499.337
5497.549
5495.964
5494.578
5493.383
5492.375
5491.574
5490.986
5490.606
5490.427
5490.448
5490.668
5491.083
5491.693
5492.493
5493.484
5494.669
5496.05
5497.629
5499.402
5501.365
5503.5
5505.769
5508.103
5510.374
5512.634
5514.96
5517.317
5519.636
5521.922
5524.226
5526.59
5529.034
5531.573
5534.213
5536.959
5539.815
5542.782
5545.865
5549.071
5552.415
5555.916
5559.596
5563.473
5567.537
5571.757
5576.096
5580.429
5584.617
5588.531
5592.123
5595.412
5598.507
5601.744
5605.293
5609.098
5613.062
5617.134
5621.282
5625.483
5629.718
5633.975
5638.246
5642.523
5646.802
5651.08
5655.352
5659.618
5663.874
5668.118
5672.348
5676.563
5680.76
5684.939
5689.097
5693.233
5697.346
5701.434
5705.495
5709.528
5713.532
5717.506
5721.448
5725.357
5729.233
5733.073
5736.878
5740.646
5744.376
5748.069
5751.722
5755.336
5758.909
5762.442
5765.934
5769.384
5772.792
5776.159
5779.486
5782.773
5786.022
5789.235
5792.409
5795.54
5798.628
5801.674
5804.675
5807.632
5810.545
5813.414
5816.238
5819.018
5821.754
5824.446
5827.096
5829.702
5832.266
5834.789
5837.271
5839.709
5842.104
5844.458
5846.77
5849.043
5851.276
5853.469
5855.624
5857.74
5859.818
5861.858
5863.86
5865.826
5867.756
5869.649
5871.507
5873.33
5875.118
5876.871
5878.592
5880.28
5881.944
5883.56
5885.145
5886.699
5888.223
5889.716
5891.179
5892.615
5894.023
5895.407
5896.769
5898.111
5899.431
5900.726
5901.996
5903.241
5904.46
5905.652
5906.818
5907.957
5909.071
5910.159
5911.223
5912.261
5913.275
5914.264
5915.228
5916.168
5917.084
5917.974
5918.839
5919.676
5920.478
5921.266
5922.04
5922.776
5923.481
5924.155
5924.798
5925.409
5925.989
5926.539
5927.064
5927.567
5928.069
5928.603
5929.21
5929.93
5930.788
5931.755
5932.774
5933.806
5934.834
5935.847
5936.84
5937.811
5938.757
5939.678
5940.575
5941.449
5942.3
5943.129
5943.937
5944.724
5945.492
5946.24
5946.969
5947.68
5948.373
5949.048
5949.706
5950.347
5950.971
5951.578
5952.169
5952.743
5953.301
5953.842
5954.365
5954.869
5955.349
5955.806
5956.228
5956.614
5956.984
5957.346
5957.703
5958.05
5958.385
5958.705
5959.011
5959.302
5959.578
5959.838
5960.082
5960.31
5960.522
5960.719
5960.9
5961.065
5961.214
5961.347
5961.466
5961.568
5961.656
5961.728
5961.786
5961.828
5961.855
5961.868
5961.866
5961.85
5961.819
5961.775
5961.716
5961.644
5961.559
5961.461
5961.35
5961.227
5961.09
5960.941
5960.778
5960.599
5960.401
5960.179
5959.927
5959.638
5959.307
5958.939
5958.543
5958.127
5957.693
5957.242
5956.774
5956.286
5955.771
5955.223
5954.652
5954.074
5953.49
5952.901
5952.305
5951.701
5951.088
5950.466
5949.833
5949.19
5948.534
5947.868
5947.189
5946.499
5945.798
5945.085
5944.361
5943.626
5942.88
5942.123
5941.356
5940.579
5939.791
5938.994
5938.187
5937.371
5936.546
5935.712
5934.87
5934.019
5933.161
5932.294
5931.421
5930.54
5929.653
5928.759
5927.858
5926.952
5926.041
5925.124
5924.202
5923.275
5922.344
5921.409
5920.469
5919.527
5918.58
5917.631
5916.679
5915.723
5914.765
5913.805
5912.842
5911.877
5910.909
5909.939
5908.966
5907.99
5907.011
5906.029
5905.042
5904.051
5903.055
5902.052
5901.042
5900.023
5898.993
5897.952
5896.898
5895.828
5894.741
5893.635
5892.511
5891.371
5890.218
5889.065
5887.932
5886.852
5885.873
5885.056
5884.464
5884.138
5883.939
4904.187
4890.589
4873.151
4842.709
4825.239
4776.87
4763.431
4752.884
4746.616
4746.279
4753.538
4771.617
4803.29
4851.054
4916.458
4955.079
5062.959
5180.38
5301.845
5420.866
5532.314
5630.668
5713.129
5779.759
5830.661
5867.482
5891.555
5910.947
5923.857
5931.415
5935.509
5936.57
5934.625
5930.405
5924.732
5917.93
5910.207
5901.897
5893.28
5884.53
5875.743
5866.977
5858.266
5849.603
5840.981
5832.403
5823.861
5815.345
5806.84
5798.327
5789.779
5781.17
5772.489
5763.958
5755.436
5746.833
5738.178
5729.491
5720.761
5711.973
5703.119
5694.185
5685.159
5676.043
5666.847
5657.574
5648.221
5638.792
5629.287
5619.71
5610.06
5600.335
5590.555
5580.756
5570.954
5561.153
5551.36
5541.584
5531.841
5522.151
5512.523
5502.966
5493.495
5484.129
5474.884
5465.779
5456.82
5448.01
5439.35
5430.843
5422.466
5414.26
5406.255
5398.449
5390.834
5383.408
5376.171
5369.128
5362.288
5355.591
5349.092
5342.784
5336.669
5330.747
5325.018
5319.481
5314.136
5308.98
5304.01
5299.226
5294.634
5290.241
5286.045
5282.047
5278.246
5274.643
5271.238
5268.033
5265.026
5262.216
5259.605
5257.197
5254.993
5252.993
5251.197
5249.603
5248.211
5247.016
5246.019
5245.223
5244.633
5244.247
5244.063
5244.079
5244.292
5244.701
5245.303
5246.095
5247.076
5248.245
5249.603
5251.145
5252.868
5254.76
5256.803
5258.968
5261.211
5263.472
5265.753
5268.083
5270.453
5272.831
5275.217
5277.636
5280.114
5282.668
5285.309
5288.046
5290.882
5293.824
5296.873
5300.034
5303.314
5306.721
5310.266
5313.96
5317.806
5321.793
5325.893
5330.067
5334.24
5338.322
5342.233
5345.95
5349.493
5352.935
5356.436
5360.108
5363.951
5367.921
5371.985
5376.12
5380.306
5384.529
5388.778
5393.043
5397.318
5401.597
5405.877
5410.154
5414.424
5418.686
5422.937
5427.174
5431.396
5435.602
5439.788
5443.954
5448.097
5452.217
5456.312
5460.38
5464.421
5468.431
5472.411
5476.36
5480.275
5484.156
5488.002
5491.812
5495.586
5499.322
5503.019
5506.677
5510.296
5513.874
5517.411
5520.908
5524.362
5527.776
5531.148
5534.479
5537.769
5541.021
5544.233
5547.404
5550.534
5553.621
5556.664
5559.664
5562.619
5565.53
5568.397
5571.22
5573.999
5576.733
5579.424
5582.072
5584.677
5587.239
5589.759
5592.237
5594.673
5597.067
5599.419
5601.73
5604.001
5606.231
5608.423
5610.575
5612.688
5614.763
5616.801
5618.801
5620.764
5622.691
5624.581
5626.436
5628.256
5630.042
5631.793
5633.51
5635.196
5636.85
5638.469
5640.055
5641.61
5643.134
5644.628
5646.093
5647.529
5648.939
5650.323
5651.684
5653.022
5654.338
5655.629
5656.895
5658.136
5659.351
5660.54
5661.703
5662.841
5663.953
5665.04
5666.103
5667.141
5668.154
5669.144
5670.109
5671.05
5671.967
5672.861
5673.73
5674.578
5675.41
5676.204
5676.96
5677.699
5678.415
5679.105
5679.768
5680.405
5681.017
5681.608
5682.182
5682.749
5683.323
5683.928
5684.587
5685.322
5686.146
5687.047
5687.995
5688.963
5689.936
5690.904
5691.859
5692.799
5693.719
5694.62
5695.5
5696.36
5697.199
5698.018
5698.818
5699.599
5700.36
5701.103
5701.828
5702.535
5703.225
5703.897
5704.552
5705.19
5705.812
5706.416
5707.004
5707.576
5708.13
5708.667
5709.185
5709.684
5710.161
5710.616
5711.044
5711.443
5711.822
5712.19
5712.549
5712.897
5713.232
5713.552
5713.858
5714.148
5714.423
5714.683
5714.926
5715.154
5715.366
5715.562
5715.742
5715.907
5716.056
5716.189
5716.307
5716.409
5716.496
5716.567
5716.624
5716.665
5716.691
5716.703
5716.7
5716.682
5716.649
5716.603
5716.542
5716.467
5716.379
5716.276
5716.16
5716.031
5715.887
5715.728
5715.554
5715.363
5715.151
5714.916
5714.654
5714.36
5714.032
5713.673
5713.287
5712.878
5712.45
5712.003
5711.537
5711.05
5710.54
5710.006
5709.453
5708.887
5708.311
5707.726
5707.132
5706.529
5705.917
5705.294
5704.66
5704.016
5703.36
5702.692
5702.012
5701.322
5700.619
5699.905
5699.18
5698.444
5697.697
5696.939
5696.171
5695.392
5694.603
5693.805
5692.997
5692.179
5691.353
5690.517
5689.673
5688.821
5687.961
5687.093
5686.218
5685.335
5684.446
5683.55
5682.649
5681.741
5680.827
5679.909
5678.985
5678.057
5677.124
5676.187
5675.247
5674.303
5673.355
5672.405
5671.452
5670.496
5669.538
5668.577
5667.614
5666.65
5665.683
5664.714
5663.743
5662.77
5661.794
5660.816
5659.835
5658.85
5657.862
5656.868
5655.87
5654.865
5653.854
5652.834
5651.806
5650.768
5649.721
5648.664
5647.6
5646.534
5645.471
5644.423
5643.41
5642.456
5641.596
5640.866
5640.297
5639.911
5639.605
4835.799
4775.546
4734.85
4695.747
4661.5
4633.446
4609.16
4587.924
4569.041
4550.922
4471.806
4456.924
4444.298
4434.908
4430.264
4432.544
4445.038
4471.284
4514.093
4576.96
4659.617
4764.867
4884.497
5011.867
5138.902
5257.003
5361.215
5448.557
5518.597
5572.508
5612.524
5640.485
5660.24
5672.755
5679.483
5682.563
5683.222
5681.564
5677.931
5672.76
5666.303
5659.022
5651.243
5643.16
5634.897
5626.543
5618.195
5609.899
5601.636
5593.393
5585.164
5576.939
5568.707
5560.454
5552.169
5543.84
5535.473
5527.052
5518.619
5510.158
5501.635
5493.052
5484.416
5475.723
5466.964
5458.131
5449.215
5440.209
5431.111
5421.92
5412.64
5403.272
5393.817
5384.276
5374.655
5364.956
5355.186
5345.36
5335.499
5325.62
5315.735
5305.86
5296.013
5286.205
5276.444
5266.745
5257.123
5247.592
5238.169
5228.871
5219.714
5210.705
5201.849
5193.151
5184.614
5176.235
5168.026
5160.006
5152.181
5144.547
5137.104
5129.851
5122.784
5115.889
5109.225
5102.734
5096.428
5090.311
5084.386
5078.651
5073.108
5067.754
5062.59
5057.615
5052.828
5048.232
5043.832
5039.627
5035.62
5031.809
5028.195
5024.78
5021.564
5018.546
5015.728
5013.11
5010.694
5008.482
5006.474
5004.67
5003.069
5001.671
5000.474
4999.476
4998.681
4998.089
4997.7
4997.512
4997.524
4997.732
4998.135
4998.73
4999.514
5000.485
5001.641
5002.978
5004.491
5006.174
5008.015
5009.997
5012.097
5014.286
5016.532
5018.827
5021.173
5023.567
5025.998
5028.465
5030.978
5033.555
5036.206
5038.942
5041.769
5044.692
5047.714
5050.84
5054.074
5057.418
5060.88
5064.463
5068.171
5072.001
5075.942
5079.969
5084.05
5088.133
5092.163
5096.093
5099.908
5103.623
5107.285
5110.978
5114.77
5118.674
5122.674
5126.751
5130.89
5135.077
5139.3
5143.549
5147.815
5152.094
5156.378
5160.663
5164.947
5169.225
5173.495
5177.755
5182.001
5186.233
5190.447
5194.643
5198.818
5202.971
5207.099
5211.203
5215.279
5219.328
5223.346
5227.334
5231.29
5235.212
5239.1
5242.953
5246.77
5250.55
5254.291
5257.994
5261.658
5265.282
5268.866
5272.408
5275.909
5279.369
5282.787
5286.164
5289.499
5292.793
5296.046
5299.258
5302.429
5305.558
5308.643
5311.685
5314.684
5317.638
5320.548
5323.413
5326.235
5329.012
5331.745
5334.434
5337.081
5339.683
5342.244
5344.761
5347.237
5349.67
5352.061
5354.411
5356.72
5358.988
5361.216
5363.404
5365.554
5367.664
5369.736
5371.771
5373.768
5375.728
5377.652
5379.54
5381.392
5383.209
5384.992
5386.74
5388.455
5390.138
5391.788
5393.406
5394.991
5396.544
5398.067
5399.561
5401.025
5402.461
5403.87
5405.254
5406.612
5407.947
5409.259
5410.545
5411.807
5413.043
5414.254
5415.44
5416.6
5417.735
5418.845
5419.931
5420.992
5422.029
5423.042
5424.031
5424.997
5425.939
5426.857
5427.753
5428.625
5429.476
5430.304
5431.105
5431.877
5432.628
5433.357
5434.062
5434.746
5435.408
5436.05
5436.678
5437.295
5437.91
5438.536
5439.188
5439.879
5440.625
5441.432
5442.293
5443.192
5444.113
5445.042
5445.971
5446.892
5447.803
5448.699
5449.58
5450.443
5451.288
5452.115
5452.924
5453.716
5454.489
5455.244
5455.982
5456.702
5457.405
5458.091
5458.76
5459.412
5460.048
5460.667
5461.269
5461.854
5462.422
5462.974
5463.507
5464.022
5464.518
5464.993
5465.447
5465.877
5466.284
5466.672
5467.046
5467.408
5467.758
5468.093
5468.413
5468.718
5469.008
5469.283
5469.542
5469.785
5470.012
5470.224
5470.42
5470.6
5470.764
5470.912
5471.045
5471.162
5471.264
5471.35
5471.421
5471.476
5471.516
5471.542
5471.552
5471.547
5471.528
5471.493
5471.444
5471.381
5471.303
5471.211
5471.105
5470.984
5470.848
5470.698
5470.531
5470.348
5470.146
5469.925
5469.68
5469.41
5469.112
5468.786
5468.431
5468.051
5467.649
5467.225
5466.782
5466.319
5465.836
5465.332
5464.808
5464.265
5463.707
5463.138
5462.557
5461.967
5461.365
5460.754
5460.131
5459.497
5458.852
5458.195
5457.526
5456.846
5456.154
5455.451
5454.736
5454.009
5453.272
5452.524
5451.764
5450.995
5450.215
5449.424
5448.624
5447.815
5446.995
5446.167
5445.33
5444.484
5443.63
5442.768
5441.898
5441.021
5440.136
5439.245
5438.347
5437.443
5436.534
5435.618
5434.698
5433.772
5432.842
5431.907
5430.969
5430.027
5429.081
5428.132
5427.181
5426.227
5425.27
5424.311
5423.35
5422.388
5421.423
5420.457
5419.49
5418.521
5417.551
5416.579
5415.605
5414.63
5413.652
5412.672
5411.689
5410.703
5409.713
5408.72
5407.722
5406.721
5405.715
5404.707
5403.697
5402.689
5401.688
5400.702
5399.741
5398.822
5397.964
5397.189
5396.524
5395.981
5395.583
5395.239
4565.585
4507.081
4400.332
4369.48
4341.633
4317.525
4296.278
4276.952
4258.806
4241.643
4225.356
4209.132
4193.572
4179.731
4169.407
4165.083
4170.309
4188.989
4225.317
4283.081
4363.908
4469.552
4594.806
4728.374
4861.154
4984.78
5093.642
5184.656
5257.456
5313.514
5355.226
5384.999
5405.581
5419.067
5426.922
5430.38
5430.599
5428.716
5425.234
5420.213
5414.042
5407.267
5400.089
5392.616
5384.956
5377.187
5369.371
5361.544
5353.707
5345.854
5337.98
5330.076
5322.131
5314.134
5306.079
5297.959
5289.775
5281.517
5273.206
5264.843
5256.416
5247.918
5239.352
5230.715
5222.001
5213.202
5204.311
5195.324
5186.236
5177.046
5167.756
5158.367
5148.88
5139.298
5129.628
5119.875
5110.048
5100.162
5090.233
5080.28
5070.318
5060.363
5050.429
5040.529
5030.68
5020.899
5011.201
5001.601
4992.114
4982.756
4973.54
4964.475
4955.567
4946.824
4938.249
4929.844
4921.616
4913.577
4905.731
4898.08