/*--------------------------------*- C++ -*----------------------------------*\
| =========                 |                                                 |
| \\      /  F ield         | foam-extend: Open Source CFD                    |
|  \\    /   O peration     | Version:     3.1                                |
|   \\  /    A nd           | Web:         http://www.extend-project.de       |
|    \\/     M anipulation  |                                                 |
\*---------------------------------------------------------------------------*/
FoamFile
{
    version     2.0;
    format      ascii;
    class       surfaceScalarField;
    location    "1.5";
    object      phi;
}
// * * * * * * * * * * * * * * * * * * * * * * * * * * * * * * * * * * * * * //

dimensions      [0 3 -1 0 0 0 0];

internalField   nonuniform List<scalar> 
275122
(
-8.438139e-05
8.521068e-05
-4.743666e-08
-7.8186e-07
-7.672639e-05
7.33457e-05
2.549968e-07
3.125695e-06
-7.709145e-05
7.955442e-05
-4.894823e-08
-2.414017e-06
-8.747254e-05
9.006971e-05
-4.428462e-08
-2.552879e-06
-9.6648e-05
9.754382e-05
-3.672069e-08
-8.590983e-07
-9.80201e-05
9.803433e-05
-2.630906e-08
1.208301e-08
-9.759541e-05
9.736815e-05
-1.8154e-08
2.45416e-07
-9.656601e-05
9.626196e-05
-1.354449e-08
3.176023e-07
-9.527522e-05
9.49228e-05
-1.00801e-08
3.625012e-07
-9.381081e-05
9.342276e-05
-7.574111e-09
3.956223e-07
-9.221677e-05
9.180139e-05
-5.752275e-09
4.211298e-07
-9.052245e-05
9.00856e-05
-4.415253e-09
4.412648e-07
-8.874905e-05
8.82952e-05
-3.422778e-09
4.572698e-07
-8.691311e-05
8.644591e-05
-2.680041e-09
4.698837e-07
-8.502846e-05
8.455119e-05
-2.133352e-09
4.794064e-07
-8.310832e-05
8.262465e-05
-1.815299e-09
4.854776e-07
-8.116932e-05
8.068542e-05
-2.111953e-09
4.860106e-07
-7.924447e-05
7.87772e-05
-5.212074e-09
4.724868e-07
-7.744499e-05
7.706184e-05
-2.321487e-08
4.063642e-07
-7.627909e-05
7.642629e-05
-1.026714e-07
-4.452209e-08
-8.480187e-05
8.762793e-05
-2.529891e-07
-2.573078e-06
-8.894049e-05
8.929618e-05
-1.124638e-07
-2.43221e-07
-9.00789e-05
9.069632e-05
-6.552808e-08
-5.518912e-07
-0.0001005603
0.0001040458
7.895126e-08
-3.564383e-06
-0.0001052814
0.000105525
1.53792e-07
-3.974118e-07
-0.0001066444
0.0001068104
8.144298e-08
-2.474105e-07
-0.0001069294
0.0001068272
4.944948e-08
5.276428e-08
-0.0001060472
0.0001052887
4.401517e-08
7.145483e-07
-9.955074e-05
9.343264e-05
4.077314e-08
6.077325e-06
-0.0001181538
0.0001214212
2.989869e-09
-3.270417e-06
-6.200342e-05
6.484266e-05
-1.78079e-08
-2.821432e-06
-7.327107e-05
7.612368e-05
8.479774e-10
-2.85346e-06
-8.487851e-05
8.78545e-05
8.101697e-10
-2.976798e-06
-9.696399e-05
0.0001000376
7.617935e-10
-3.07438e-06
-0.0001092809
0.000112391
6.085343e-10
-3.110653e-06
-0.0001217519
0.0001248816
1.453083e-10
-3.129841e-06
-0.0001342721
0.0001374035
2.362387e-11
-3.131355e-06
-0.0001467745
0.0001498906
-1.07725e-10
-3.115921e-06
-0.000159256
0.0001623766
1.542439e-10
-3.12068e-06
-0.0001718685
0.0001751857
5.03351e-08
-3.367549e-06
2.75246e-06
-0.0001172798
0.000117492
-1.965942e-10
-2.964528e-06
2.843775e-06
-0.0001180491
0.0001181734
-1.044513e-10
-2.967936e-06
2.969618e-06
-0.0001183781
0.0001183856
-1.004359e-10
-2.977018e-06
2.993538e-06
-0.0001183842
0.000118375
-1.195038e-10
-2.984257e-06
3.039448e-06
-0.000118285
0.0001182481
-1.014032e-10
-3.00244e-06
3.055983e-06
-0.0001181185
0.0001180758
-6.319892e-11
-3.013194e-06
3.059229e-06
-0.0001179485
0.0001179059
-6.486548e-11
-3.016538e-06
3.070815e-06
-0.0001177848
0.0001177394
-2.467748e-11
-3.025367e-06
3.187137e-06
-0.0001175759
0.0001174393
1.338426e-10
-3.050668e-06
2.673545e-06
-0.0004721168
0.0004726744
7.533949e-12
-1.158681e-05
2.843517e-06
2.671416e-06
2.840724e-06
2.867307e-06
-0.0004728191
0.0004727995
3.321915e-12
-1.156706e-05
2.93209e-06
2.861503e-06
2.925759e-06
2.920591e-06
-0.0004726793
0.0004725014
-1.059166e-11
-1.156249e-05
2.944206e-06
2.925016e-06
2.950562e-06
2.955869e-06
-0.0004722771
0.0004719595
4.09121e-12
-1.155639e-05
2.97357e-06
2.96451e-06
2.98003e-06
2.96703e-06
-0.0004716294
0.000471331
6.285943e-12
-1.157803e-05
2.978493e-06
2.950024e-06
2.980843e-06
2.991393e-06
-0.0004709835
0.0004706442
-3.201111e-13
-1.1629e-05
2.993814e-06
2.990272e-06
2.992801e-06
2.998639e-06
-0.000470307
0.0004699733
2.74207e-13
-1.166674e-05
3.001916e-06
2.998293e-06
3.001548e-06
3.006037e-06
-0.0004696477
0.0004693096
4.546037e-12
-1.16965e-05
3.009428e-06
3.008057e-06
3.011104e-06
3.026481e-06
-0.0004689918
0.0004685983
-5.465391e-11
-1.1712e-05
3.026076e-06
3.02639e-06
3.026621e-06
2.90032e-06
-0.0004681452
0.0004681773
4.201203e-12
-1.166321e-05
2.915502e-06
2.899578e-06
2.915689e-06
2.975099e-06
-0.0004679705
0.0004676642
1.92358e-12
-1.154738e-05
2.951637e-06
2.974966e-06
2.951954e-06
2.93682e-06
-0.0004674468
0.0004672616
-1.451723e-12
-1.154097e-05
2.925888e-06
2.937519e-06
2.92598e-06
2.93118e-06
-0.0004670918
0.0004669278
-1.284214e-11
-1.155613e-05
2.930063e-06
2.930309e-06
2.928537e-06
2.948456e-06
-0.0004667327
0.0004665417
5.868403e-13
-1.159908e-05
2.948408e-06
2.946673e-06
2.946556e-06
2.964857e-06
-0.0004663407
0.0004661289
-2.980587e-13
-1.165154e-05
2.969018e-06
2.962715e-06
2.966747e-06
2.992184e-06
-0.0004659112
0.0004656897
1.276711e-11
-1.174381e-05
2.998799e-06
2.984373e-06
2.989936e-06
3.061349e-06
-0.0004654625
0.0004652077
5.413027e-12
-1.196325e-05
3.082942e-06
3.029052e-06
3.044755e-06
3.311703e-06
-0.0004648677
0.0004642218
6.290482e-14
-1.250845e-05
3.404706e-06
3.184554e-06
3.253345e-06
4.081601e-06
-0.0004628271
0.0004599609
-2.147689e-12
-1.320916e-05
4.402302e-06
3.73167e-06
3.85986e-06
4.300356e-06
-0.0004562246
0.0004598961
-2.928764e-12
-7.971841e-06
5.04869e-06
-0.0004627231
0.0004635376
-2.827095e-12
-5.863174e-06
8.398138e-06
-0.0004631745
0.0004624062
-3.650621e-12
-7.629828e-06
7.496308e-06
-0.0004616319
0.0004609093
-2.924995e-12
-6.773655e-06
3.937788e-06
-0.0004605211
0.0004609618
-2.434061e-12
-4.378453e-06
1.64197e-06
-0.0004616897
0.0004624118
-3.310298e-12
-2.364065e-06
6.37778e-07
-0.0004631605
0.0004638821
-3.050171e-12
-1.359392e-06
9.982853e-08
-0.0004645767
0.0004652339
-2.579716e-12
-7.569423e-07
-2.393707e-07
-0.0004658775
0.000466485
-2.448871e-12
-3.680769e-07
-4.676842e-07
-0.0004670794
0.0004676542
-2.410886e-12
-1.071031e-07
-6.362972e-07
-0.0004682202
0.0004687773
-2.400388e-12
7.922105e-08
-7.640071e-07
-0.0004693321
0.0004698823
-2.410216e-12
2.138003e-07
-8.594731e-07
-0.0004704339
0.0004709855
-2.423701e-12
3.07897e-07
-9.256482e-07
-0.0004715412
0.0004721015
-2.457205e-12
3.6533e-07
-9.609336e-07
-0.0004726686
0.0004732456
-2.544683e-12
3.839746e-07
-9.563635e-07
-0.0004738327
0.0004744366
-2.709104e-12
3.524911e-07
-8.868693e-07
-0.0004750556
0.0004757005
-2.946289e-12
2.420358e-07
-6.864106e-07
-0.0004763655
0.0004770633
-3.325558e-12
-1.138725e-08
-1.966101e-07
-0.000477781
0.0004785272
-3.687617e-12
-5.495996e-07
1.259894e-06
-0.0004791812
0.000479554
-3.996768e-12
-1.632707e-06
2.546167e-06
-0.0004792114
0.0004793005
-4.565353e-12
-2.635311e-06
2.138145e-06
-0.000479983
0.0004807072
-4.80735e-12
-2.862398e-06
5.179971e-06
-0.0004811874
0.0004808794
-4.575646e-12
-4.871989e-06
8.877089e-06
-0.0004784063
0.0004761061
-4.061465e-12
-6.576892e-06
3.830749e-06
-0.0004749783
0.0004748582
-3.854751e-12
-3.710612e-06
1.041838e-06
-0.0004749305
0.0004749137
-4.08168e-12
-1.024987e-06
-1.640778e-06
-0.0004747589
0.0004747561
-3.917774e-12
1.643582e-06
-6.530164e-06
-0.0004748997
0.0004755386
-4.216302e-12
5.891311e-06
-1.875738e-05
-0.0004774598
0.000483801
-5.002722e-12
1.241612e-05
-3.494637e-06
-0.0004912992
0.0004929193
-4.737692e-12
1.051411e-05
-2.532281e-06
-3.526067e-06
-2.581207e-06
-1.310897e-06
-0.0004930167
0.0004930039
6.260026e-13
5.076986e-06
-1.177325e-06
-1.356089e-06
-1.21989e-06
-7.470415e-07
-0.0004928423
0.0004926944
4.515402e-12
3.062035e-06
-6.861719e-07
-7.73069e-07
-7.078535e-07
-5.321868e-07
-0.0004926231
0.000492677
-1.028753e-12
2.076445e-06
-5.130112e-07
-5.533267e-07
-5.319039e-07
-4.478156e-07
-0.0004928044
0.0004930152
-2.380687e-12
1.589242e-06
-4.384925e-07
-4.621721e-07
-4.51561e-07
-4.076533e-07
-0.0004932735
0.000493589
-2.139609e-12
1.325215e-06
-4.030776e-07
-4.176221e-07
-4.122949e-07
-3.875522e-07
-0.0004939349
0.0004943196
-1.819036e-12
1.174419e-06
-3.851878e-07
-3.94567e-07
-3.917292e-07
-3.772838e-07
-0.0004947249
0.0004951574
-1.74726e-12
1.083944e-06
-3.761205e-07
-3.822642e-07
-3.807776e-07
-3.724737e-07
-0.0004956047
0.0004960716
-1.78574e-12
1.028961e-06
-3.720229e-07
-3.760201e-07
-3.753371e-07
-3.709992e-07
-0.0004965494
0.0004970415
-1.816306e-12
9.968617e-07
-3.709665e-07
-3.735445e-07
-3.733774e-07
-3.716142e-07
-0.0004975417
0.0004980523
-1.797569e-12
9.802162e-07
-3.719249e-07
-3.735559e-07
-3.737634e-07
-3.736221e-07
-0.0004985691
0.0004990934
-1.773295e-12
9.740414e-07
-3.740919e-07
-3.751107e-07
-3.754748e-07
-3.76598e-07
-0.0004996223
0.0005001567
-1.746894e-12
9.753112e-07
-3.772142e-07
-3.776833e-07
-3.782373e-07
-3.802359e-07
-0.0005006948
0.0005012368
-1.70845e-12
9.819945e-07
-3.809398e-07
-3.810723e-07
-3.817332e-07
-3.843143e-07
-0.0005017816
0.0005023291
-1.65357e-12
9.925709e-07
-3.850776e-07
-3.849776e-07
-3.857092e-07
-3.887013e-07
-0.0005028787
0.0005034301
-1.58369e-12
1.00608e-06
-3.895101e-07
-3.892381e-07
-3.900223e-07
-3.933287e-07
-0.0005039831
0.0005045371
-1.5127e-12
1.021967e-06
-3.941774e-07
-3.937719e-07
-3.946021e-07
-3.981772e-07
-0.0005050921
0.0005056474
-1.455904e-12
1.039978e-06
-3.990661e-07
-3.985515e-07
-3.994262e-07
-4.032588e-07
-0.0005062034
0.0005067588
-1.411163e-12
1.060069e-06
-4.041917e-07
-4.035825e-07
-4.045041e-07
-4.085998e-07
-0.0005073147
0.0005078693
-1.363346e-12
1.082299e-06
-4.095815e-07
-4.088859e-07
-4.098587e-07
-4.142281e-07
-0.0005084239
0.0005089767
-1.292007e-12
1.106754e-06
-4.152613e-07
-4.144862e-07
-4.155117e-07
-4.201556e-07
-0.000509529
0.0005100788
-1.197668e-12
1.133454e-06
-4.212382e-07
-4.203913e-07
-4.214672e-07
-4.263691e-07
-0.0005106279
0.0005111737
-1.118016e-12
1.1623e-06
-4.274948e-07
-4.265857e-07
-4.27706e-07
-4.328286e-07
-0.0005117185
0.0005122595
-9.935349e-13
1.193042e-06
-4.339893e-07
-4.330257e-07
-4.341819e-07
-4.394783e-07
-0.0005127991
0.0005133344
-8.694886e-13
1.225282e-06
-4.40668e-07
-4.396446e-07
-4.408179e-07
-4.462251e-07
0.0005143971
-7.705462e-13
1.258445e-06
-4.473736e-07
-4.463541e-07
-4.475262e-07
-0.0005138681
-4.528509e-07
-0.0005149243
0.0005154466
-7.03432e-13
1.291839e-06
-4.540312e-07
-4.530648e-07
-4.542542e-07
-4.592998e-07
-0.000515967
0.0005164822
-5.938696e-13
1.324603e-06
-4.603912e-07
-4.595445e-07
-4.606073e-07
-4.655075e-07
-0.0005169953
0.0005175035
-5.222655e-13
1.356261e-06
-4.665619e-07
-4.65674e-07
-4.667221e-07
-4.713993e-07
-0.0005180097
0.0005185112
-4.442831e-13
1.386425e-06
-4.723872e-07
-4.71553e-07
-4.725376e-07
-4.769046e-07
-0.0005190107
0.0005195058
-1.995111e-13
1.414622e-06
-4.778207e-07
-4.770543e-07
-4.779681e-07
-4.819879e-07
-0.0005199992
0.0005204886
-2.056986e-13
1.44058e-06
-4.828356e-07
-4.821344e-07
-4.829798e-07
-4.866592e-07
-0.0005209764
0.0005214607
4.334673e-14
1.46419e-06
-4.87442e-07
-4.868032e-07
-4.875856e-07
-4.909649e-07
-0.0005219438
0.0005224239
-7.291482e-13
1.485457e-06
-4.916918e-07
-4.911154e-07
-4.918369e-07
-4.944831e-07
-0.0005229028
0.0005233789
1.5487e-12
1.503292e-06
-4.949799e-07
-4.946905e-07
-4.951735e-07
-4.976305e-07
-0.0005238535
0.0005243256
-5.120685e-12
1.51963e-06
-4.980739e-07
-4.977755e-07
-4.982572e-07
-5.011527e-07
-0.0005247968
0.0005252662
5.763343e-15
1.537031e-06
-5.019894e-07
-5.012383e-07
-5.02054e-07
-5.049857e-07
-0.0005257357
0.0005262038
7.431308e-13
1.553351e-06
-5.057025e-07
-5.050268e-07
-5.057518e-07
-5.083268e-07
-0.0005266717
0.0005271381
7.97702e-13
1.568347e-06
-5.089466e-07
-5.084059e-07
-5.090338e-07
-5.114486e-07
-0.0005276041
0.0005280685
7.587917e-13
1.582829e-06
-5.120681e-07
-5.115494e-07
-5.121696e-07
-5.146091e-07
-0.0005285325
0.000528995
5.83703e-13
1.597389e-06
-5.152715e-07
-5.146925e-07
-5.153443e-07
-5.178974e-07
-0.0005294573
0.000529918
6.667885e-13
1.612392e-06
-5.185747e-07
-5.179591e-07
-5.186495e-07
-5.212219e-07
-0.0005303783
0.0005308371
7.404441e-13
1.627896e-06
-5.219577e-07
-5.213884e-07
-5.221425e-07
-5.246257e-07
-0.0005312956
0.0005317524
9.254714e-13
1.643563e-06
-5.253386e-07
-5.248278e-07
-5.255273e-07
-5.279492e-07
-0.0005322087
0.0005326636
1.116841e-12
1.658629e-06
-5.286965e-07
-5.280714e-07
-5.288132e-07
-5.309779e-07
-0.0005331184
0.0005335724
9.760125e-13
1.671589e-06
-5.316731e-07
-5.31099e-07
-5.317955e-07
-5.329961e-07
-0.0005340269
0.0005344819
9.600709e-13
1.678129e-06
-5.334804e-07
-5.331184e-07
-5.336036e-07
-5.318648e-07
-0.0005349393
0.0005353993
7.525952e-13
1.667025e-06
-5.314993e-07
-5.320078e-07
-5.316433e-07
-5.165667e-07
-0.0005358625
0.0005363117
8.291285e-13
1.607111e-06
-5.113398e-07
-5.16835e-07
-5.116107e-07
-4.543992e-07
-0.0005367163
0.000536995
1.25142e-12
1.478286e-06
-4.23202e-07
-4.552148e-07
-4.24191e-07
-4.687815e-07
-0.0005374549
0.0005377363
1.200333e-12
1.615713e-06
-4.813868e-07
-4.675601e-07
-4.793937e-07
-4.748729e-07
-0.0005380347
0.000538382
1.261083e-12
1.558039e-06
-4.791891e-07
-4.735088e-07
-4.778233e-07
-4.753917e-07
-0.000538715
0.0005390671
1.235392e-12
1.551545e-06
-4.77234e-07
-4.745237e-07
-4.765306e-07
-4.902064e-07
-0.0005394382
0.0005398234
1.136421e-12
1.578133e-06
-4.919921e-07
-4.896167e-07
-4.914958e-07
-5.041668e-07
-0.0005402204
0.0005406252
5.953113e-13
1.613222e-06
-5.052759e-07
-5.036836e-07
-5.0484e-07
-5.157076e-07
-0.0005410363
0.0005414509
2.481096e-14
1.649717e-06
-5.167733e-07
-5.153315e-07
-5.164339e-07
-5.257397e-07
-0.0005418688
0.0005422874
-9.532806e-13
1.685874e-06
-5.267742e-07
-5.254653e-07
-5.265091e-07
-5.345486e-07
-0.0005427076
0.0005431268
-1.78643e-12
1.720486e-06
-5.355185e-07
-5.343142e-07
-5.352842e-07
-5.423841e-07
-0.0005435463
0.0005439638
-2.641849e-12
1.753434e-06
-5.433321e-07
-5.421523e-07
-5.430828e-07
-5.494757e-07
-0.000544381
0.0005447952
-3.224539e-12
1.784942e-06
-5.502965e-07
-5.492673e-07
-5.501321e-07
-5.559052e-07
-0.0005452085
0.0005456186
-3.877509e-12
1.815106e-06
-5.567483e-07
-5.558211e-07
-5.566892e-07
-5.61791e-07
-0.0005460272
0.0005464318
-4.515119e-12
1.843843e-06
-5.625042e-07
-5.61755e-07
-5.624367e-07
-5.673133e-07
-0.0005468348
0.0005472337
-4.844285e-12
1.871458e-06
-5.67973e-07
-5.672263e-07
-5.678859e-07
-5.725194e-07
-0.0005476308
0.0005480238
-5.118902e-12
1.898168e-06
-5.731299e-07
-5.724217e-07
-5.730303e-07
-5.774237e-07
-0.0005484147
0.0005488015
-5.195821e-12
1.923893e-06
-5.779898e-07
-5.773272e-07
-5.778883e-07
-5.820625e-07
-0.0005491862
0.0005495667
-5.208646e-12
1.948657e-06
-5.825707e-07
-5.819802e-07
-5.824975e-07
-5.864308e-07
-0.0005499451
0.0005503193
-5.084978e-12
1.972313e-06
-5.869014e-07
-5.863569e-07
-5.868248e-07
-5.905037e-07
-0.0005506915
0.0005510598
-4.972713e-12
1.994456e-06
-5.909422e-07
-5.904311e-07
-5.908611e-07
-5.943649e-07
-0.0005514262
0.0005517888
-4.546356e-12
2.015514e-06
-5.947599e-07
-5.943047e-07
-5.947017e-07
-5.980331e-07
-0.0005521496
0.0005525067
-3.968709e-12
2.035692e-06
-5.983954e-07
-5.979824e-07
-5.983414e-07
-6.015415e-07
-0.000552862
0.0005532136
-3.153419e-12
2.05506e-06
-6.018555e-07
-6.014836e-07
-6.018023e-07
-6.049094e-07
-0.0005535635
0.0005539099
-1.993968e-12
2.073735e-06
-6.051994e-07
-6.048567e-07
-6.051473e-07
-6.083408e-07
-0.0005542547
0.0005545963
-4.380242e-13
2.092106e-06
-6.085536e-07
-6.082612e-07
-6.085571e-07
-6.106753e-07
-0.0005549358
0.0005552712
-3.227395e-12
2.108292e-06
-6.111851e-07
-6.106188e-07
-6.111728e-07
-6.126882e-07
-0.0005556043
0.000555935
-1.01891e-11
2.121104e-06
-6.13687e-07
-6.121978e-07
-6.131987e-07
-6.171308e-07
0.0005565941
-1.850537e-11
2.138217e-06
-0.0005562643
-6.170422e-07
-6.169789e-07
-6.168412e-07
-6.202027e-07
-0.0005569219
0.0005572462
-7.41658e-13
2.156581e-06
-6.20218e-07
-6.201937e-07
-6.202337e-07
-6.229144e-07
-0.0005575687
0.0005578878
6.407271e-13
2.172617e-06
-6.22955e-07
-6.229444e-07
-6.22976e-07
-6.25505e-07
-0.0005582054
0.0005585201
1.215086e-12
2.187371e-06
-6.255699e-07
-6.254663e-07
-6.255225e-07
-6.281048e-07
-0.0005588335
0.000559144
1.127831e-12
2.201822e-06
-6.2815e-07
-6.28045e-07
-6.280887e-07
-6.306412e-07
-0.0005594533
0.0005597598
8.260592e-13
2.215944e-06
-6.30669e-07
-6.305762e-07
-6.30602e-07
-6.331533e-07
-0.0005600651
0.0005603678
4.818487e-13
2.229823e-06
-6.331492e-07
-6.330992e-07
-6.331026e-07
-6.356036e-07
-0.0005606692
0.0005609681
1.146832e-13
2.243398e-06
-6.355842e-07
-6.35555e-07
-6.355291e-07
-6.380168e-07
-0.0005612657
0.0005615609
-3.868391e-14
2.25672e-06
-6.379785e-07
-6.379565e-07
-6.379108e-07
-6.404034e-07
-0.0005618548
0.0005621464
-1.88941e-13
2.269842e-06
-6.403389e-07
-6.403449e-07
-6.402852e-07
-6.427338e-07
-0.0005624367
0.0005627247
-5.658344e-13
2.282711e-06
-6.426486e-07
-6.426864e-07
-6.42594e-07
-6.450353e-07
-0.0005630115
0.0005632959
-7.633281e-13
2.295333e-06
-6.449185e-07
-6.449694e-07
-6.448466e-07
-6.472993e-07
-0.0005635793
0.0005638603
-1.003987e-12
2.307752e-06
-6.471652e-07
-6.472297e-07
-6.471027e-07
-6.495036e-07
-0.0005641403
0.0005644181
-1.151469e-12
2.319869e-06
-6.493505e-07
-6.494516e-07
-6.492987e-07
-6.516738e-07
-0.0005646948
0.0005649693
-1.313801e-12
2.331648e-06
-6.515044e-07
-6.515991e-07
-6.514251e-07
-6.538138e-07
-0.0005652429
0.0005655145
-1.408621e-12
2.343141e-06
-6.536699e-07
-6.536958e-07
-6.535398e-07
-6.559264e-07
-0.0005657853
0.0005660542
-1.56235e-12
2.354281e-06
-6.55762e-07
-6.55785e-07
-6.556457e-07
-6.578275e-07
-0.0005663222
0.0005665887
-1.76179e-12
2.364698e-06
-6.577698e-07
-6.578082e-07
-6.577788e-07
-6.595831e-07
-0.0005668546
0.0005671189
-1.700594e-12
2.373978e-06
-6.595267e-07
-6.596051e-07
-6.59547e-07
-6.610946e-07
-0.0005673827
0.0005676457
-1.380661e-12
2.381531e-06
-6.612109e-07
-6.610307e-07
-6.611711e-07
-6.62288e-07
-0.0005679088
0.0005681721
-1.552631e-12
2.386459e-06
-6.626898e-07
-6.622138e-07
-6.625885e-07
-6.628874e-07
-0.0005684367
0.000568704
-1.556573e-12
2.38532e-06
-6.635242e-07
-6.627358e-07
-6.634322e-07
-6.622403e-07
-0.0005689763
0.0005692575
-1.585099e-13
2.368702e-06
-6.6276e-07
-6.624141e-07
-6.624708e-07
-6.540271e-07
-0.0005695542
0.0005698493
6.808372e-12
2.304972e-06
-6.45984e-07
-6.541181e-07
-6.459377e-07
-4.327933e-07
-0.0005699508
0.0005694416
5.219882e-12
2.135668e-06
-3.807337e-07
-4.314092e-07
-3.814596e-07
-3.003752e-07
-0.0001418417
0.0001415858
4.002339e-11
5.562657e-07
-4.942577e-07
-0.0001412138
0.000141174
-1.093229e-10
5.341095e-07
-5.655639e-07
-0.0001411649
0.0001411828
-7.71429e-11
5.477914e-07
-6.004829e-07
-0.0001412645
0.0001412968
-4.627591e-11
5.683087e-07
-6.21039e-07
-0.0001413996
0.0001414347
-2.562257e-11
5.859798e-07
-6.345812e-07
-0.0001415405
0.0001415754
-1.108649e-11
5.99636e-07
-6.442421e-07
-0.0001416791
0.000141713
2.889857e-13
6.103368e-07
-6.515585e-07
-0.000141813
0.0001418456
6.543981e-12
6.18941e-07
-6.57364e-07
-0.0001419417
0.000141973
1.293317e-11
6.260351e-07
-6.621182e-07
-0.0001420655
0.0001420956
1.648122e-11
6.320295e-07
-6.661655e-07
-0.0001421844
0.0001422134
8.974121e-12
6.370892e-07
-6.694212e-07
-0.0001422992
0.0001423272
4.876398e-12
6.414168e-07
-6.723437e-07
-0.0001424099
0.000142437
1.053263e-11
6.452749e-07
-6.750233e-07
-0.000142517
0.0001425433
1.38156e-11
6.487795e-07
-6.777044e-07
-0.0001426208
0.0001426463
1.718256e-11
6.522018e-07
-6.799532e-07
-0.0001427237
0.0001427487
1.634212e-11
6.548624e-07
-6.784146e-07
-0.0001428238
0.0001428462
-1.739244e-11
6.560078e-07
-6.826171e-07
-0.0001429174
0.0001429416
5.369887e-11
6.583612e-07
-6.840458e-07
-0.0001430095
0.0001430327
1.640516e-11
6.608637e-07
-6.862074e-07
-0.000143102
0.0001431249
1.69159e-11
6.633014e-07
-6.877059e-07
-0.0001431929
0.0001432153
1.93844e-11
6.652911e-07
-6.889525e-07
-0.000143282
0.0001433039
1.890265e-11
6.669494e-07
-6.90021e-07
-0.0001433696
0.0001433912
1.868579e-11
6.683313e-07
-6.909646e-07
-0.0001434562
0.0001434777
2.119516e-11
6.694671e-07
-6.917998e-07
-0.0001435423
0.0001435637
2.612655e-11
6.703556e-07
-6.925165e-07
-0.0001436286
0.0001436502
2.834929e-11
6.70937e-07
-6.929286e-07
-0.0001437158
0.0001437377
1.738279e-11
6.709552e-07
-6.930894e-07
-0.000143805
0.0001438277
1.18036e-11
6.70333e-07
-6.928291e-07
-0.0001438975
0.0001439216
1.872633e-11
6.687727e-07
-6.92033e-07
-0.0001439958
0.000144022
2.063319e-11
6.658678e-07
-6.902758e-07
-0.0001441036
0.0001441333
2.197264e-11
6.605714e-07
-6.859545e-07
-0.0001442279
0.0001442637
1.953973e-11
6.501043e-07
-6.793174e-07
-0.0001443707
0.000144417
5.989244e-11
6.330159e-07
-6.574874e-07
-0.0001445805
0.0001446491
2.573713e-11
5.888195e-07
-5.917049e-07
-0.0001449105
0.0001450394
2.268165e-11
4.627272e-07
1.919208e-07
-0.0001454815
0.0001454085
2.880156e-11
-1.189913e-07
6.177044e-07
-0.0001451257
0.0001450663
1.302184e-11
-5.582892e-07
6.767011e-07
-0.0001449215
0.0001448895
8.385332e-12
-6.446822e-07
6.972155e-07
-0.0001448227
0.0001448081
3.850296e-12
-6.826438e-07
7.106752e-07
-0.0001447792
0.0001447743
-9.528376e-14
-7.058397e-07
7.176874e-07
-0.0001447703
0.0001447718
-5.226037e-12
-7.192431e-07
7.247689e-07
-0.0001447861
0.0001447933
-5.971782e-12
-7.319909e-07
7.287792e-07
-0.0001448208
0.0001448319
-4.477914e-12
-7.39864e-07
7.319938e-07
-0.0001448696
0.0001448836
-5.617397e-12
-7.460004e-07
7.345346e-07
-0.000144929
0.0001449453
-7.491952e-12
-7.507949e-07
7.365733e-07
-0.0001449966
0.0001450146
-7.201183e-12
-7.545649e-07
7.384018e-07
-0.0001450703
0.0001450896
-6.978928e-12
-7.576225e-07
7.399607e-07
-0.0001451487
0.0001451688
-6.468393e-12
-7.601214e-07
7.413625e-07
-0.0001452303
0.0001452511
-4.847381e-12
-7.62201e-07
7.425975e-07
-0.0001453144
0.0001453357
-5.208089e-12
-7.639064e-07
7.436892e-07
-0.0001454001
0.0001454217
-4.877675e-12
-7.653053e-07
7.44669e-07
-0.0001454867
0.0001455085
-3.433048e-12
-7.664398e-07
7.455196e-07
-0.0001455739
0.0001455957
-3.41867e-12
-7.673305e-07
7.462637e-07
-0.000145661
0.0001456828
-3.990512e-12
-7.680135e-07
7.469149e-07
-0.0001457478
0.0001457694
-2.97009e-12
-7.685148e-07
7.474749e-07
-0.0001458338
0.0001458552
-2.62379e-12
-7.688644e-07
7.479776e-07
-0.0001459189
0.00014594
-3.653699e-12
-7.690989e-07
7.484204e-07
-0.0001460029
0.0001460237
-2.681732e-12
-7.692428e-07
7.488314e-07
-0.0001460856
0.0001461061
-1.172101e-12
-7.693374e-07
7.492604e-07
-0.0001461669
0.000146187
-2.139249e-12
-7.694132e-07
7.496173e-07
-0.0001462467
0.0001462666
-3.226344e-12
-7.694502e-07
7.498786e-07
-0.0001463251
0.0001463447
-2.663034e-12
-7.694291e-07
7.501953e-07
-0.0001464022
0.0001464214
-2.965278e-12
-7.693979e-07
7.504147e-07
-0.0001464777
0.0001464966
-2.814632e-12
-7.693126e-07
7.505864e-07
-0.0001465518
0.0001465704
-1.779263e-12
-7.691707e-07
7.506641e-07
-0.0001466242
0.0001466424
-1.498084e-12
-7.689245e-07
7.507236e-07
-0.0001466946
0.0001467125
2.176923e-13
-7.685813e-07
7.496441e-07
-0.0001467624
0.0001467804
5.933659e-12
-7.676184e-07
7.540738e-07
-0.0001468339
0.0001468502
1.169851e-11
-7.704131e-07
7.981351e-07
-0.0001468992
0.0001468963
8.136571e-11
-7.953287e-07
7.294945e-07
-0.0001463542
0.0005908708
7.948971e-11
-2.883789e-06
5.387064e-08
7.53706e-07
4.661703e-08
-0.000146357
-0.000148429
-0.0001484305
4.261369e-07
-0.0005926457
0.000593271
-4.712042e-11
-2.674216e-06
6.050823e-07
4.17819e-07
5.99956e-07
5.553886e-07
-0.0005937802
0.0005941912
-2.243543e-11
-2.727888e-06
6.051832e-07
5.529423e-07
6.0342e-07
6.14125e-07
-0.0005945339
0.0005947724
-4.367764e-12
-2.742442e-06
6.394838e-07
6.125051e-07
6.378186e-07
6.492603e-07
-0.0005949744
0.0005951399
4.307782e-14
-2.780968e-06
6.597882e-07
6.478178e-07
6.585474e-07
6.734217e-07
-0.0005952884
0.0005954234
9.636042e-14
-2.834783e-06
6.767121e-07
6.731103e-07
6.765253e-07
6.966626e-07
-0.0005955495
0.000595637
-4.311404e-13
-2.885581e-06
7.011792e-07
6.977757e-07
7.025033e-07
7.166044e-07
-0.0005957095
0.0005957716
-8.263923e-13
-2.934392e-06
7.167945e-07
7.191561e-07
7.197179e-07
7.301144e-07
-0.0005958265
0.0005958744
-1.191103e-12
-2.978301e-06
7.315543e-07
7.337986e-07
7.349908e-07
7.410455e-07
-0.0005959189
0.000595962
-8.913439e-13
-3.015179e-06
7.420167e-07
7.44084e-07
7.449227e-07
7.491361e-07
-0.0005960044
0.0005960475
-5.71592e-13
-3.045521e-06
7.50158e-07
7.511704e-07
7.519235e-07
7.550297e-07
-0.0005960918
0.0005961381
2.484247e-14
-3.069866e-06
7.559429e-07
7.55899e-07
7.566417e-07
7.591031e-07
-0.0005961865
0.0005962376
-2.132671e-13
-3.089523e-06
7.598738e-07
7.59355e-07
7.600526e-07
7.618858e-07
-0.0005962912
0.0005963477
1.166856e-12
-3.105464e-06
7.625509e-07
7.619269e-07
7.625719e-07
7.638418e-07
-0.0005964067
0.0005964686
-8.08953e-13
-3.118442e-06
7.644183e-07
7.638313e-07
7.644122e-07
7.652613e-07
-0.0005965329
0.0005965998
-3.425046e-12
-3.129072e-06
7.657803e-07
7.652738e-07
7.658005e-07
7.663037e-07
-0.0005966689
0.0005967404
-1.660935e-12
-3.137726e-06
7.66779e-07
7.663296e-07
7.667983e-07
7.671082e-07
-0.0005968137
0.0005968892
-7.428745e-13
-3.144783e-06
7.675383e-07
7.671018e-07
7.675331e-07
7.677252e-07
-0.0005969662
0.0005970451
1.557717e-12
-3.150549e-06
7.681335e-07
7.677202e-07
7.681298e-07
7.682069e-07
-0.0005971251
0.0005972067
3.055662e-12
-3.155129e-06
7.685867e-07
7.681833e-07
7.685573e-07
7.685695e-07
-0.0005972893
0.000597373
4.63321e-12
-3.158588e-06
7.689219e-07
7.685108e-07
7.688551e-07
7.687967e-07
-0.0005974574
0.0005975427
8.772751e-12
-3.160966e-06
7.691249e-07
7.687358e-07
7.690671e-07
7.689163e-07
-0.0005976284
0.0005977145
9.741545e-12
-3.162311e-06
7.692145e-07
7.688655e-07
7.691682e-07
7.689489e-07
-0.0005978008
0.0005978873
5.661048e-12
-3.162732e-06
7.692277e-07
7.688959e-07
7.691982e-07
7.68906e-07
-0.0005979737
0.0005980599
1.229138e-12
-3.162206e-06
7.691467e-07
7.688293e-07
7.690556e-07
7.687271e-07
-0.0005981461
0.0005982318
-7.325901e-13
-3.160915e-06
7.68994e-07
7.686218e-07
7.688616e-07
7.685195e-07
-0.0005983171
0.0005984019
-8.22968e-13
-3.159014e-06
7.687283e-07
7.684062e-07
7.686237e-07
7.682447e-07
-0.0005984861
0.0005985695
-3.181568e-13
-3.156613e-06
7.684554e-07
7.681499e-07
7.683652e-07
7.679634e-07
-0.0005986522
0.000598734
1.186814e-13
-3.153838e-06
7.681547e-07
7.6788e-07
7.680762e-07
7.676432e-07
-0.000598815
0.000598895
3.682975e-13
-3.150703e-06
7.67829e-07
7.675565e-07
7.677366e-07
7.673056e-07
-0.0005989741
0.0005990521
4.666068e-13
-3.147316e-06
7.674773e-07
7.672084e-07
7.67383e-07
7.669575e-07
-0.0005991292
0.0005992049
4.892673e-13
-3.143763e-06
7.671232e-07
7.668735e-07
7.67042e-07
7.665858e-07
-0.0005992798
0.0005993533
5.039659e-13
-3.139991e-06
7.667459e-07
7.665024e-07
7.666594e-07
7.661936e-07
-0.0005994259
0.000599497
5.280528e-13
-3.135989e-06
7.663452e-07
7.660952e-07
7.662494e-07
7.657629e-07
-0.0005995671
0.0005996356
5.141072e-13
-3.131712e-06
7.659158e-07
7.65675e-07
7.658347e-07
7.65269e-07
-0.0005997031
0.0005997688
5.206775e-13
-3.126972e-06
7.654194e-07
7.651886e-07
7.65338e-07
7.646859e-07
-0.0005998334
0.0005998961
4.959446e-13
-3.121539e-06
7.648307e-07
7.645934e-07
7.647337e-07
7.639572e-07
-0.0005999575
0.0006000167
4.851987e-13
-3.115078e-06
7.640863e-07
7.638711e-07
7.640043e-07
7.630084e-07
-0.0006000744
0.0006001293
4.440601e-13
-3.107006e-06
7.63107e-07
7.629395e-07
7.630441e-07
7.617001e-07
-0.0006001823
0.0006002319
4.160596e-13
-3.09631e-06
7.617441e-07
7.616236e-07
7.616905e-07
7.597689e-07
-0.000600279
0.0006003214
3.808924e-13
-3.081122e-06
7.596958e-07
7.596881e-07
7.596053e-07
7.566369e-07
-0.0006003605
0.0006003926
3.559044e-13
-3.057959e-06
7.563941e-07
7.565474e-07
7.562823e-07
7.511446e-07
-0.0006004194
0.0006004354
3.400133e-13
-3.018973e-06
7.504434e-07
7.510429e-07
7.503479e-07
7.38992e-07
-0.0006004431
0.000600437
3.370228e-13
-2.944959e-06
7.366059e-07
7.389099e-07
7.365297e-07
7.081734e-07
-0.0006004243
0.000600393
3.198416e-13
-2.787544e-06
7.012772e-07
7.081122e-07
7.012113e-07
5.998071e-07
-0.0006004084
0.0006005587
3.252813e-13
-2.475072e-06
5.62686e-07
5.997329e-07
5.625847e-07
5.181055e-07
-0.0006007442
0.0006009077
3.227917e-13
-2.234536e-06
5.174685e-07
5.180121e-07
5.173801e-07
5.040257e-07
-0.0006010576
0.0006011963
3.250076e-13
-2.152475e-06
5.029723e-07
5.039429e-07
5.028866e-07
4.938705e-07
-0.0006013285
0.000601451
3.926819e-13
-2.096945e-06
4.934628e-07
4.937925e-07
4.93386e-07
4.882902e-07
-0.0006015676
0.000601677
7.263311e-13
-2.06206e-06
4.880867e-07
4.882215e-07
4.880184e-07
4.842779e-07
-0.0006017826
0.0006018827
1.110886e-12
-2.036787e-06
4.841296e-07
4.842248e-07
4.840767e-07
4.812706e-07
-0.0006019803
0.0006020728
-2.632195e-12
-2.016911e-06
4.809999e-07
4.812028e-07
4.809303e-07
4.824535e-07
-0.0006021585
0.0006022446
-7.146257e-12
-2.011358e-06
4.800254e-07
4.825611e-07
4.801774e-07
4.210084e-07
-0.00060238
0.0006026897
-1.737956e-12
-2.053402e-06
4.500114e-07
4.215504e-07
4.511193e-07
4.292664e-07
-0.000602952
0.0006027604
-5.70891e-13
-1.445881e-06
3.897811e-07
4.287852e-07
3.896112e-07
3.751905e-07
-0.0006026874
0.0006028705
-2.81984e-13
-1.598209e-06
3.313116e-07
3.763352e-07
3.32242e-07
3.580982e-07
-0.0006030763
0.0006032921
-1.786345e-13
-1.631304e-06
3.491087e-07
3.586928e-07
3.495819e-07
3.691747e-07
-0.0006034949
0.000603685
-6.182661e-14
-1.668057e-06
3.695417e-07
3.694458e-07
3.697435e-07
3.876415e-07
-0.0006038501
0.0006039944
2.666288e-14
-1.701953e-06
3.910882e-07
3.877243e-07
3.91147e-07
4.055048e-07
-0.0006041176
0.0006042263
2.663391e-14
-1.737476e-06
4.088849e-07
4.055059e-07
4.088812e-07
4.219564e-07
-0.0006043193
0.0006043964
2.883614e-14
-1.771574e-06
4.253417e-07
4.219048e-07
4.252968e-07
4.365196e-07
-0.0006044616
0.0006045183
2.444251e-14
-1.808092e-06
4.392137e-07
4.364963e-07
4.391979e-07
4.48183e-07
-0.0006045673
0.0006046108
2.966298e-14
-1.840409e-06
4.502687e-07
4.481726e-07
4.502664e-07
4.568662e-07
-0.0006046505
0.000604688
-1.128427e-15
-1.86783e-06
4.582667e-07
4.568755e-07
4.58282e-07
4.630735e-07
-0.0006047243
0.0006047605
-1.172389e-14