/*--------------------------------*- C++ -*----------------------------------*\
| =========                 |                                                 |
| \\      /  F ield         | foam-extend: Open Source CFD                    |
|  \\    /   O peration     | Version:     3.1                                |
|   \\  /    A nd           | Web:         http://www.extend-project.de       |
|    \\/     M anipulation  |                                                 |
\*---------------------------------------------------------------------------*/
FoamFile
{
    version     2.0;
    format      ascii;
    class       volScalarField;
    location    "9";
    object      p;
}
// * * * * * * * * * * * * * * * * * * * * * * * * * * * * * * * * * * * * * //

dimensions      [1 -1 -2 0 0 0 0];

internalField   nonuniform List<scalar> 
119952
(
7767.645
6807.407
6679.06
6897.175
7125.106
7156.253
7233.878
7289.367
7292.096
7253.8
7219.01
7259.458
7303.918
7338.272
7370.783
7402.925
7434.757
7463.654
7487.081
7501.446
7527.574
7531.839
7540.592
7567.745
7576.41
7587.088
7597.73
7610.555
7630.214
8192.858
5392.02
5456.833
5524.568
5597.14
5669.094
5737.976
5803.737
5865.852
5923.479
5961.316
5997.007
6038.658
6073.141
6103.129
6127.91
6149.155
6166.493
6179.61
6191.5
6171.257
6167.945
6156.851
6147.461
6134.578
6118.15
6098.775
6076.999
6054.431
6033.868
6006.695
5982.538
5969.406
5964.805
5971.658
5992.433
6029.569
6088.841
6201.986
6398.499
6376.004
6451.498
6603.784
6727.914
6828.979
6894.86
6947.805
6969.656
6969.314
6975.404
7007.213
7044.057
7076.244
7110.154
7142.727
7174.995
7204.456
7229.115
7246.413
7257.203
7266.069
7275.84
7289.094
7301.714
7311.876
7322.242
7332.938
7341.815
7345.567
7354.693
7364.22
7372.183
7378.32
7382.576
7385.059
7386.005
7385.72
7384.559
7382.924
7381.243
7379.95
7379.45
7380.096
7382.168
7385.862
7391.285
7398.456
7407.26
7417.544
7429.101
7441.69
7455.042
7468.879
7482.937
7496.966
7510.751
7524.108
7536.896
7549.008
7560.377
7570.963
7580.755
7589.766
7598.035
7605.614
7612.564
7618.96
7624.879
7630.401
7635.606
7640.569
7645.356
7650.031
7654.645
7659.238
7663.841
7668.473
7673.205
7678.03
7683.028
7687.912
7692.819
7697.691
7702.524
7707.295
7711.979
7716.553
7720.988
7725.283
7729.382
7733.28
7736.973
7740.447
7743.69
7746.693
7749.452
7751.966
7754.239
7756.276
7758.088
7759.679
7761.06
7762.246
7763.25
7764.081
7764.784
7765.365
7765.816
7766.155
7766.437
7766.606
7766.711
7766.76
7766.767
7766.743
7766.702
7766.651
7766.6
7766.555
7766.526
7766.514
7766.529
7766.575
7766.656
7766.766
7766.889
7767.007
7767.281
7800.731
7799.919
7800.571
7801.328
7802.182
7803.093
7804.12
7805.261
7806.517
7807.891
7809.386
7811.025
7812.769
7814.635
7816.624
7818.737
7820.971
7823.321
7825.778
7828.341
7831.005
7833.765
7836.615
7839.545
7842.545
7845.601
7848.704
7851.844
7854.996
7858.133
7861.22
7864.204
7866.989
7869.382
7870.864
7871.493
7878.55
7884.432
7889.824
7894.889
7899.763
7904.498
7909.112
7913.628
7918.055
7922.394
7926.648
7930.818
7934.904
7938.905
7942.821
7946.649
7950.389
7954.039
7957.599
7961.067
7964.444
7967.727
7970.918
7974.016
7977.023
7979.938
7982.763
7985.498
7988.147
7990.714
7993.202
7995.618
7997.935
8000.117
7980.401
7977.742
7975.145
7977.35
7978.956
7980.153
7981.578
7983.026
7984.386
7985.713
7986.967
7988.18
7989.351
7990.461
7991.513
7992.504
7993.449
7994.356
7995.202
7995.997
7996.741
7997.437
7998.085
7998.685
7999.239
7999.746
8000.207
8000.624
8000.998
8001.33
8001.621
8001.872
8002.084
8002.258
8002.394
8002.493
8002.559
8002.591
8002.594
8002.57
8002.525
8002.467
8002.411
8002.379
8002.354
8002.116
8001.395
8000.407
7999.497
7998.645
7997.79
7996.929
7995.973
7994.245
7990.486
7991.223
7990.525
7989.164
7987.863
7986.496
7985.049
7983.548
7982
7980.4
7978.747
7977.03
7975.25
7973.407
7971.498
7969.52
7967.472
7965.354
7963.165
7960.904
7958.573
7956.172
7953.703
7951.165
7948.562
7945.895
7943.166
7940.376
7937.529
7934.627
7931.673
7928.669
7925.619
7922.525
7919.39
7916.219
7913.013
7909.777
7906.514
7903.228
7899.921
7896.597
7893.261
7889.915
7886.563
7883.208
7879.854
7876.504
7873.161
7869.829
7866.51
7863.208
7859.925
7856.664
7853.427
7850.217
7847.035
7843.884
7840.765
7837.679
7834.628
7831.61
7828.628
7825.679
7822.762
7819.877
7817.019
7814.184
7811.368
7808.562
7805.758
7802.944
7800.103
7797.214
7794.249
7791.169
7787.922
7784.431
7780.587
7776.195
7770.945
7764.566
7758.33
7760.876
7788.87
6131.395
6035.49
5929.561
5833.831
5747.898
5671.789
5604.82
5546.582
5496.788
5419.096
5382.883
5347.314
5312.671
5280.213
5249.434
5218.734
5187.085
5152.607
5081.938
5058.279
5011.465
4962.312
4920.242
4880.671
4844.791
4814.667
4791.026
4778.619
4777.711
4773.154
4789.472
4816.338
4851.44
4894.996
4945.882
5003.093
5066.225
5138
5195.327
5260.976
5333.332
5403.467
5470.266
5533.809
5593.474
5648.724
5698.098
5742.582
5783.181
5817.135
5845.825
5869.452
5888.639
5903.601
5914.601
5923.515
5856.775
5852.379
5846.856
5835.697
5818.721
5797.468
5773.384
5747.22
5719.458
5690.791
5663.243
5640.151
5624.683
5619.482
5627.761
5652.775
5698.12
5765.909
5854.034
5951.673
6038.263
6124.781
6224.229
6324.348
6411.862
6482.313
6537.62
6578.079
6608.216
6639.339
6680.581
6722.169
6761.739
6801.58
6840.477
6876.809
6909.135
6936.577
6957.59
6972.596
6982.045
6986.296
6989.848
6995.495
7003.992
7014.665
7025.792
7035.615
7044.849
7054.579
7063.881
7071.609
7077.388
7081.182
7083.124
7083.426
7082.395
7080.436
7078.008
7075.591
7073.664
7072.66
7072.942
7074.8
7078.429
7083.906
7091.193
7100.209
7110.762
7122.622
7135.522
7149.176
7163.294
7177.598
7191.83
7205.766
7219.22
7232.053
7244.162
7255.482
7265.98
7275.649
7284.511
7292.606
7299.99
7306.732
7312.91
7318.608
7323.911
7328.904
7333.663
7338.259
7342.753
7347.202
7351.65
7356.129
7360.668
7365.286
7369.988
7374.735
7379.54
7384.38
7389.221
7394.033
7398.789
7403.463
7408.028
7412.461
7416.741
7420.844
7424.756
7428.467
7431.964
7435.239
7438.281
7441.087
7443.655
7445.985
7448.082
7449.956
7451.616
7453.072
7454.337
7455.426
7456.35
7457.121
7457.767
7458.295
7458.712
7459.069
7459.334
7459.52
7459.643
7459.733
7459.774
7459.792
7459.802
7459.807
7459.811
7459.826
7459.856
7459.912
7459.997
7460.124
7460.294
7460.537
7460.842
7461.449
7524.047
7524.139
7524.668
7525.399
7526.224
7527.146
7528.171
7529.306
7530.554
7531.918
7533.403
7535.011
7536.739
7538.589
7540.559
7542.651
7544.864
7547.201
7549.626
7552.163
7554.802
7557.543
7560.371
7563.278
7566.258
7569.302
7572.392
7575.5
7578.628
7581.748
7584.831
7587.838
7590.719
7593.441
7596.114
7599.319
7603.932
7609.128
7614.118
7619.013
7623.788
7628.457
7633.032
7637.521
7641.927
7646.253
7650.498
7654.663
7658.747
7662.749
7666.667
7670.501
7674.248
7677.908
7681.479
7684.96
7688.35
7691.649
7694.855
7697.971
7700.994
7703.926
7706.768
7709.521
7712.187
7714.769
7717.271
7719.697
7722.101
7724.986
7666.857
7669.563
7670.726
7671.34
7672.355
7673.788
7675.331
7676.793
7678.15
7679.45
7680.709
7681.929
7683.107
7684.222
7685.279
7686.282
7687.232
7688.125
7688.965
7689.756
7690.497
7691.189
7691.832
7692.427
7692.975
7693.476
7693.931
7694.341
7694.708
7695.031
7695.312
7695.553
7695.753
7695.915
7696.037
7696.123
7696.172
7696.187
7696.17
7696.121
7696.045
7695.94
7695.81
7695.624
7695.344
7694.925
7694.297
7693.51
7692.677
7691.826
7690.947
7689.998
7688.943
7687.628
7685.893
7684.345
7683.257
7682.27
7681.117
7679.766
7678.291
7676.757
7675.179
7673.552
7671.864
7670.114
7668.3
7666.423
7664.48
7662.471
7660.393
7658.246
7656.03
7653.744
7651.388
7648.964
7646.472
7643.914
7641.291
7638.605
7635.857
7633.05
7630.186
7627.268
7624.298
7621.279
7618.215
7615.107
7611.96
7608.775
7605.558
7602.311
7599.037
7595.74
7592.424
7589.092
7585.747
7582.393
7579.034
7575.673
7572.313
7568.958
7565.611
7562.275
7558.953
7555.648
7552.364
7549.102
7545.865
7542.656
7539.476
7536.327
7533.212
7530.13
7527.084
7524.073
7521.097
7518.157
7515.25
7512.376
7509.53
7506.71
7503.912
7501.126
7498.347
7495.562
7492.76
7489.919
7487.023
7484.035
7480.934
7477.665
7474.229
7470.633
7467.155
7464.322
7463.193
7464.292
7468.078
3512.813
3622.341
3761.927
3919.621
4094.856
4287.574
4498.358
4726.548
4971.915
5227.499
5482.474
5763.211
6049.081
6337.189
6618.615
6890.204
7143.18
7368.576
7557.196
7689.891
7796.562
7861.323
7885.405
7871.15
7821.626
7738.71
7626.897
7493.652
7349.088
7188.551
7025.925
6859.452
6694.524
6533.299
6377.543
6228.562
6087.791
5957.139
5826.912
5712.002
5607.139
5512.573
5427.978
5352.782
5286.575
5228.767
5179.189
5135.039
5093.91
5059.483
5027.299
4996.275
4966.006
4935.487
4904.15
4873.407
4758.8
4716.428
4676.363
4634.107
4590.556
4548.597
4511.12
4480.354
4458.115
4445.277
4443.003
4452.638
4472.582
4501.967
4540.704
4588.061
4642.921
4704.101
4770.207
4839.736
4910.586
4981.084
5051.586
5121.625
5189.053
5253.182
5313.295
5368.923
5419.718
5465.15
5504.534
5538.591
5567.24
5590.433
5608.039
5620.388
5627.394
5628.967
5625.665
5617.924
5606.769
5590.935
5570.047
5544.929
5516.677
5485.867
5452.799
5418.752
5385.818
5356.724
5335.397
5325.427
5329.708
5351.557
5393.085
5454.73
5533.293
5626.232
5719.294
5808.167
5900.327
5993.484
6079.572
6153.494
6214.689
6265.92
6310.883
6354.607
6401.797
6450.439
6497.642
6542.864
6586.068
6625.277
6660.047
6690.914
6712.946
6723.62
6728.967
6736.655
6748.48
6761.566
6770.716
6777.488
6785.294
6794.394
6804.225
6814.516
6823.981
6831.728
6837.383
6840.918
6842.483
6842.249
6840.524
6837.762
6834.465
6831.163
6828.385
6826.603
6826.191
6827.469
6830.657
6835.833
6842.962
6851.949
6862.578
6874.599
6887.727
6901.656
6916.078
6930.699
6945.243
6959.467
6973.178
6986.231
6998.521
7009.978
7020.571
7030.293
7039.167
7047.234
7054.551
7061.193
7067.241
7072.785
7077.919
7082.731
7087.304
7091.71
7096.017
7100.287
7104.57
7108.9
7113.301
7117.786
7122.36
7127.01
7131.727
7136.492
7141.276
7146.05
7150.785
7155.45
7160.019
7164.465
7168.767
7172.904
7176.862
7180.628
7184.189
7187.533
7190.653
7193.543
7196.201
7198.627
7200.825
7202.803
7204.569
7206.135
7207.511
7208.712
7209.75
7210.635
7211.385
7212.013
7212.531
7212.951
7213.283
7213.541
7213.743
7213.876
7213.965
7214.051
7214.14
7214.205
7214.26
7214.318
7214.388
7214.48
7214.6
7214.762
7214.97
7215.246
7215.602
7216.068
7216.646
7217.404
7218.08
7218.786
7219.612
7220.554
7221.602
7222.755
7224.019
7225.399
7226.896
7228.513
7230.251
7232.107
7234.079
7236.169
7238.37
7240.653
7243.11
7245.659
7248.305
7251.044
7253.87
7256.776
7259.753
7262.794
7265.883
7269.009
7272.16
7275.321
7278.477
7281.62
7284.759
7287.949
7291.318
7295.068
7299.329
7303.944
7308.65
7313.327
7317.947
7322.509
7327.008
7331.441
7335.805
7340.097
7344.316
7348.461
7352.528
7356.517
7360.425
7364.25
7367.991
7371.645
7375.211
7378.688
7382.075
7385.371
7388.576
7391.689
7394.711
7397.641
7400.479
7403.228
7405.887
7408.46
7410.942
7413.347
7415.645
7417.86
7419.653
7420.998
7422.518
7424.303
7426.166
7427.964
7429.65
7431.216
7432.673
7434.052
7435.376
7436.644
7437.851
7438.993
7440.072
7441.092
7442.056
7442.967
7443.824
7444.63
7445.383
7446.087
7446.742
7447.349
7447.91
7448.421
7448.886
7449.305
7449.68
7450.011
7450.298
7450.543
7450.746
7450.908
7451.03
7451.111
7451.153
7451.159
7451.13
7451.064
7450.959
7450.814
7450.619
7450.361
7450.016
7449.563
7448.981
7448.275
7447.483
7446.635
7445.738
7444.787
7443.774
7442.782
7441.862
7440.794
7439.465
7437.983
7436.458
7434.919
7433.359
7431.77
7430.147
7428.482
7426.766
7424.992
7423.158
7421.261
7419.302
7417.277
7415.186
7413.027
7410.8
7408.505
7406.141
7403.709
7401.211
7398.646
7396.017
7393.326
7390.573
7387.761
7384.893
7381.97
7378.996
7375.972
7372.903
7369.79
7366.637
7363.447
7360.224
7356.97
7353.69
7350.386
7347.063
7343.723
7340.37
7337.008
7333.64
7330.27
7326.901
7323.537
7320.18
7316.834
7313.503
7310.189
7306.894
7303.623
7300.377
7297.159
7293.97
7290.814
7287.691
7284.603
7281.552
7278.537
7275.559
7272.617
7269.712
7266.841
7264.003
7261.195
7258.412
7255.649
7252.901
7250.158
7247.412
7244.65
7241.86
7239.027
7236.145
7233.217
7230.284
7227.442
7224.88
7222.842
7221.621
7221.599
7223.013
2690.885
2685.051
2688.956
2688.023
2709.788
2724.77
2785.911
2870.388
2971.744
3041.165
3082.337
3145.59
3234.849
3347.595
3480.414
3630.978
3798.967
3982.255
4181.626
4397.257
4628.542
4875.658
5135.383
5404.301
5679.749
5956.834
6230.032
6493.897
6741.409
6963.81
7155.178
7281.982
7387.196
7445.704
7460.139
7437.191
7380.105
7290.464
7175.569
7043.292
6898.89
6745.783
6587.527
6427.593
6269.087
6114.267
5964.803
5821.951
5686.633
5559.524
5441.139
5332.344
5233.293
5144.147
5064.932
4995.289
4934.66
4882.327
4837.251
4798.342
4764.284
4733.726
4705.552
4678.359
4651.039
4622.529
4591.454
4556.552
4515.978
4472.793
4428.714
4381.614
4332.858
4285.801
4243.525
4208.473
4182.776
4168.318
4166.048
4175.522
4196.338
4228.189
4270.154
4320.616
4378.403
4442.23
4511.167
4583.886
4658.481
4733.444
4807.903
4880.898
4951.197
5017.953
5080.56
5138.61
5191.56
5239.09
5281.092
5317.307
5347.345
5371.159
5388.145
5399.331
5404.417
5403.59
5397.594
5386.609
5371.397
5351.897
5327.791
5299.227
5266.873
5231.136
5191.965
5150.266
5108.565
5070.451
5040.352
5022.134
5018.576
5032.448
5066.156
5121.125
5195.676
5285.354
5380.879
5476.185
5570.715
5662.991
5749.203
5826.139
5893.658
5954.002
6009.426
6062.533
6116.16
6169.663
6220.894
6269.469
6315.319
6356.836
6393.88
6425.761
6449.046
6464.551
6478.086
6492.713
6505.707
6514.635
6522.234
6533.027
6546.621
6559.325
6569.237
6577.629
6585.644
6592.81
6598.085
6601.014
6601.748
6600.593
6597.889
6594.089
6589.743
6585.442
6581.8
6579.293
6578.266
6579.093
6582.033
6587.139
6594.356
6603.563
6614.527
6626.977
6640.59
6655.028
6669.961
6685.08
6700.074
6714.672
6728.68
6741.962
6754.413
6765.967
6776.599
6786.306
6795.116
6803.077
6810.25
6816.716
6822.565
6827.895
6832.809
6837.405
6841.767
6845.963
6850.064
6854.145
6858.261
6862.448
6866.726
6871.107
6875.596
6880.182
6884.85
6889.579
6894.339
6899.101
6903.833
6908.503
6913.083
6917.545
6921.867
6926.032
6930.024
6933.829
6937.43
6940.817
6943.979
6946.913
6949.615
6952.087
6954.332
6956.359
6958.174
6959.79
6961.217
6962.467
6963.553
6964.487
6965.285
6965.959
6966.523
6966.989
6967.369
6967.675
6967.92
6968.109
6968.254
6968.28
6968.457
6968.565
6968.652
6968.741
6968.841
6968.962
6969.11
6969.297
6969.531
6969.829
6970.194
6970.656
6971.189
6971.812
6972.504
6973.264
6974.113
6975.057
6976.097
6977.237
6978.484
6979.842
6981.315
6982.904
6984.612
6986.438
6988.379
6990.446
6992.626
6994.913
6997.323
6999.838
7002.453
7005.164
7007.965
7010.85
7013.81
7016.838
7019.923
7023.056
7026.227
7029.43
7032.658
7035.917
7039.226
7042.629
7046.196
7050.015
7054.156
7058.567
7063.097
7067.641
7072.163
7076.653
7081.101
7085.498
7089.838
7094.116
7098.328
7102.471
7106.542
7110.538
7114.456
7118.294
7122.05
7125.721
7129.306
7132.803
7136.211
7139.53
7142.757
7145.893
7148.937
7151.89
7154.75
7157.52
7160.197
7162.784
7165.274
7167.67
7169.942
7172.09
7174.12
7176.095
7178.01
7179.793
7181.454
7183.048
7184.6
7186.098
7187.53
7188.898
7190.208
7191.464
7192.664
7193.807
7194.89
7195.918
7196.89
7197.808
7198.674
7199.487
7200.249
7200.963
7201.628
7202.247
7202.828
7203.341
7203.813
7204.241
7204.625
7204.965
7205.262
7205.515
7205.727
7205.898
7206.027
7206.114
7206.15
7206.148
7206.108
7206.026
7205.899
7205.724
7205.494
7205.199
7204.823
7204.357
7203.788
7203.114
7202.352
7201.52
7200.635
7199.706
7198.734
7197.721
7196.601
7195.326
7193.952
7192.554
7191.148
7189.712
7188.222
7186.674
7185.069
7183.409
7181.693
7179.919
7178.083
7176.183
7174.219
7172.188
7170.089
7167.922
7165.687
7163.383
7161.011
7158.572
7156.065
7153.493
7150.857
7148.157
7145.397
7142.578
7139.702
7136.771
7133.789
7130.757
7127.68
7124.558
7121.397
7118.198
7114.966
7111.703
7108.412
7105.099
7101.765
7098.414
7095.05
7091.677
7088.298
7084.916
7081.535
7078.159
7074.79
7071.433
7068.089
7064.763
7061.457
7058.175
7054.918
7051.689
7048.491
7045.326
7042.195
7039.1
7036.043
7033.024
7030.044
7027.103
7024.201
7021.337
7018.509
7015.716
7012.956
7010.223
7007.515
7004.826
7002.151
6999.485
6996.823
6994.164
6991.519
6988.906
6986.38
6984.01
6981.931
6980.249
6979.17
6978.782
6979.277
3281.293
3189.167
3104.293
2997.35
2900.174
2773.667
2692.898
2616.853
2552.759
2498.225
2454.71
2422.911
2402.357
2394.371
2399.351
2418.948
2398.063
2449.652
2512.272
2579.883
2646.121
2718.503
2803.726
2903.975
3022.091
3157.514
3309.317
3477.035
3660.624
3860.251
4074.928
4304.331
4548.342
4805.185
5072.757
5347.745
5625.152
5898.829
6161.325
6406.519
6624.623
6806.906
6943.715
7044.617
7101.974
7116.531
7092.865
7032.776
6940.694
6826.514
6696.807
6555.554
6406.259
6252.422
6097.257
5943.483
5793.233
5648.152
5509.403
5377.836
5254.203
5138.909
5032.889
4936.907
4851.217
4775.728
4710.047
4653.616
4605.746
4565.489
4531.676
4502.836
4477.606
4454.732
4432.116
4408.27
4382.369
4352.837
4318.369
4278.344
4233.171
4183.856
4130.546
4074.898
4020.221
3970.35
3928.148
3896.724
3878.349
3873.867
3883.006
3905.147
3939.26
3983.82
4037.466
4098.412
4165.656
4238.423
4315.507
4395.18
4475.571
4555.079
4632.474
4706.787
4777.362
4843.691
4905.351
4961.903
5012.988
5058.155
5096.879
5128.788
5153.499
5171.724
5182.788
5186.911
5184.587
5176.348
5162.731
5144.332
5121.086
5092.925
5059.879
5022.437
4980.507
4932.912
4880.103
4825.792
4774.687
4732.273
4702.974
4688.747
4692.168
4716.851
4766.643
4840.205
4931.875
5033.356
5136.827
5236.667
5331.384
5420.084
5501.359
5575.356
5643.503
5707.256
5767.933
5826.882
5884.01
5938.564
5990.211
6038.544
6082.489
6121.539
6155.327
6182.901
6205.384
6225.55
6242.946
6256.411
6267.886
6279.813
6292.766
6304.971
6316.105
6327.592
6339.293
6349.324
6356.289
6360.18
6361.537
6360.952
6358.696
6354.955
6350.112
6344.747
6339.465
6334.852
6331.459
6329.771
6330.24
6333.099
6338.29
6345.726
6355.322
6366.766
6379.806
6394.068
6409.167
6424.743
6440.493
6456.072
6471.136
6485.489
6499.018
6511.622
6523.236
6533.849
6543.471
6552.136
6559.897
6566.827
6573.017
6578.568
6583.59
6588.197
6592.507
6596.62
6600.581
6604.45
6608.325
6612.274
6616.32
6620.474
6624.751
6629.159
6633.686
6638.315
6643.019
6647.768
6652.529
6657.266
6661.947
6666.542
6671.022
6675.366
6679.555
6683.575
6687.411
6691.042
6694.456
6697.643
6700.599
6703.324
6705.819
6708.088
6710.138
6711.979
6713.62
6715.073
6716.35
6717.464
6718.428
6719.256
6719.962
6720.556
6721.052
6721.462
6721.798
6722.073
6722.3
6722.502
6722.727
6722.771
6722.871
6722.976
6723.087
6723.209
6723.352
6723.522
6723.731
6723.985
6724.297
6724.672
6725.126
6725.645
6726.253
6726.947
6727.713
6728.558
6729.493
6730.523
6731.654
6732.891
6734.239
6735.701
6737.28
6738.976
6740.789
6742.732
6744.781
6746.947
6749.226
6751.62
6754.122
6756.728
6759.433
6762.231
6765.116
6768.081
6771.119
6774.222
6777.382
6780.595
6783.856
6787.165
6790.528
6793.964
6797.501
6801.182
6805.055
6809.15
6813.439
6817.838
6822.278
6826.723
6831.153
6835.557
6839.922
6844.239
6848.503
6852.706
6856.846
6860.917
6864.916
6868.84
6872.686
6876.451
6880.133
6883.731
6887.241
6890.663
6893.994
6897.236
6900.385
6903.442
6906.407
6909.279
6912.058
6914.743
6917.334
6919.828
6922.222
6924.511
6926.704
6928.809
6930.809
6932.667
6934.401
6936.068
6937.696
6939.283
6940.812
6942.271
6943.663
6944.992
6946.261
6947.473
6948.626
6949.72
6950.757
6951.738
6952.665
6953.54
6954.363
6955.136
6955.859
6956.535
6957.158
6957.724
6958.264
6958.753
6959.194
6959.589
6959.939
6960.244
6960.504
6960.721
6960.893
6961.021
6961.107
6961.161
6961.167
6961.126
6961.037
6960.899
6960.701
6960.447
6960.129
6959.736
6959.261
6958.696
6958.04
6957.302
6956.494
6955.628
6954.707
6953.727
6952.67
6951.522
6950.296
6949.013
6947.679
6946.293
6944.851
6943.35
6941.79
6940.174
6938.503
6936.776
6934.989
6933.141
6931.229
6929.251
6927.207
6925.096
6922.917
6920.669
6918.354
6915.97
6913.519
6911.002
6908.419
6905.772
6903.062
6900.291
6897.461
6894.574
6891.633
6888.64
6885.597
6882.508
6879.375
6876.202
6872.991
6869.746
6866.471
6863.167
6859.84
6856.493
6853.128
6849.751
6846.363
6842.969
6839.573
6836.177
6832.786
6829.402
6826.029
6822.671
6819.33
6816.01
6812.714
6809.443
6806.202
6802.992
6799.816
6796.675
6793.572
6790.508
6787.484
6784.502
6781.561
6778.663
6775.806
6772.991
6770.217
6767.482
6764.783
6762.121
6759.492
6756.894
6754.328
6751.797
6749.306
6746.872
6744.52
6742.296
6740.257
6738.491
6737.075
6736.133
6735.681
6735.845
4146.179
4044.304
3937.609
3814.309
3705.913
3555.616
3449.721
3342.601
3233.308
3125.779
3020.722
2918.001
2817.5
2720.283
2623.7
2455.587
2372.943
2299.119
2233.886
2178.608
2134.439
2101.677
2079.973
2069.72
2072.092
2088.058
2113.756
2156.317
2209.39
2270.052
2337.223
2413.828
2502.673
2606.058
2724.441
2858.227
3007.391
3171.247
3349.422
3542.388
3750.496
3973.711
4211.193
4461.83
4724.068
4994.123
5266.822
5537.679
5797.113
6038.721
6254.026
6435.212
6574.736
6672.698
6727.71
6741.259
6715.429
6652.193
6559.179
6446.974
6320.773
6183.771
6039.44
5891.122
5741.949
5594.236
5449.814
5310.378
5176.922
5050.135
4930.712
4819.248
4716.842
4624.714
4543.379
4472.689
4412.205
4361.366
4319.567
4285.965
4259.314
4238
4220.578
4204.623
4188.554
4170.665
4148.986
4122.377
4089.357
4048.609
3999.804
3943.887
3881.757
3815.568
3748.727
3686.195
3633.191
3593.789
3570.292
3563.569
3573.116
3597.517
3635.098
3683.874
3741.605
3806.621
3878.188
3955.944
4038.92
4125.262
4212.518
4298.407
4381.378
4460.639
4535.824
4606.581
4672.563
4733.366
4788.506
4837.404
4879.487
4914.274
4941.337
4960.369
4971.989
4975.625
4971.935
4961.509
4944.792
4922.585
4895.064
4862.03
4823.547
4780.422
4731.871
4674.383
4607.376
4536.431
4468.22
4410.261
4368.199
4342.016
4333.916
4347.742
4391.058
4466.578
4568.123
4682.645
4797.898
4905.171
5004.491
5096.605
5181.424
5260.632
5335.328
5406.067
5473.312
5537.721
5599.06
5657.031
5711.512
5762.269
5808.632
5850.131
5886.868
5918.684
5945.793
5968.992
5988.455
6005.28
6021.314
6036.512
6050.218
6062.792
6075.024
6087.046
6097.806
6106.901
6114.449
6119.697
6121.9
6121.119
6117.899
6112.914
6106.868
6100.43
6094.178
6088.641
6084.42
6082.106
6082.126
6084.71
6089.896
6097.606
6107.703
6119.67
6133.38
6148.374
6164.204
6180.465
6196.795
6212.863
6228.39
6243.155
6257.022
6269.865
6281.598
6292.243
6301.813
6310.345
6317.9
6324.565
6330.44
6335.639
6340.283
6344.494
6348.367
6352.008
6355.564
6359.111
6362.725
6366.481
6370.39
6374.423
6378.598
6382.929
6387.405
6392.003
6396.692
6401.438
6406.204
6410.951
6415.646
6420.255
6424.753
6429.124
6433.344
6437.399
6441.265
6444.917
6448.344
6451.541
6454.505
6457.235
6459.735
6462.011
6464.068
6465.916
6467.567
6469.03
6470.319
6471.446
6472.426
6473.272
6473.998
6474.612
6475.125
6475.553
6475.908
6476.202
6476.448
6476.661
6476.847
6476.977
6477.097
6477.22
6477.349
6477.49
6477.651
6477.84
6478.066
6478.336
6478.661
6479.045
6479.498
6480.022
6480.627
6481.312
6482.072
6482.914
6483.845
6484.874
6486.003
6487.238
6488.583
6490.042
6491.615
6493.307
6495.119
6497.046
6499.093
6501.256
6503.535
6505.927
6508.43
6511.038
6513.747
6516.553
6519.448
6522.428
6525.486
6528.616
6531.813
6535.073
6538.394
6541.777
6545.229
6548.762
6552.397
6556.159
6560.072
6564.146
6568.364
6572.68
6577.047
6581.432
6585.816
6590.182
6594.519
6598.816
6603.066
6607.261
6611.396
6615.466
6619.468
6623.396
6627.248
6631.021
6634.712
6638.319
6641.839
6645.271
6648.614
6651.865
6655.025
6658.092
6661.065
6663.945
6666.73
6669.42
6672.014
6674.511
6676.91
6679.21
6681.41
6683.507
6685.489
6687.358
6689.14
6690.859
6692.522
6694.124
6695.659
6697.125
6698.524
6699.858
6701.133
6702.347
6703.504
6704.602
6705.643
6706.629
6707.562
6708.443
6709.272
6710.051
6710.783
6711.472
6712.096
6712.68
6713.222
6713.717
6714.167
6714.572
6714.932
6715.247
6715.518
6715.744
6715.927
6716.065
6716.16
6716.211
6716.213
6716.165
6716.069
6715.922
6715.726
6715.465
6715.137
6714.733
6714.254
6713.695
6713.055
6712.337
6711.55
6710.697
6709.78
6708.797
6707.742
6706.617
6705.428
6704.172
6702.851
6701.466
6700.021
6698.519
6696.96
6695.343
6693.668
6691.934
6690.139
6688.281
6686.358
6684.369
6682.313
6680.19
6677.999
6675.739
6673.411
6671.015
6668.551
6666.021
6663.425
6660.765
6658.042
6655.258
6652.415
6649.515
6646.56
6643.553
6640.496
6637.392
6634.245
6631.057
6627.83
6624.57
6621.278
6617.959
6614.615
6611.251
6607.869
6604.474
6601.069
6597.657
6594.243
6590.829
6587.42
6584.019
6580.628
6577.253
6573.895
6570.558
6567.245
6563.959
6560.702
6557.479
6554.29
6551.138
6548.025
6544.953
6541.924
6538.939
6535.998
6533.104
6530.256
6527.455
6524.7
6521.992
6519.33
6516.716
6514.148
6511.629
6509.162
6506.753
6504.414
6502.162
6500.022
6498.034
6496.243
6494.712
6493.495
6492.666
6492.229
6492.282
4269.646
4228.673
4172.941
4078.836
3969.199
3858.012
3746.037
3636.783
3530.724
3423.763
3232.778
3126.282
3018.849
2911.47
2804.261
2698.453
2594.585
2492.723
2393.586
2298.971
2211.23
2127.596
2051.314
1982.803
1923.147
1873.822
1835.753
1809.468
1795.426
1793.869
1804.507
1827.487
1864.144
1912.073
1970.026
2037.717
2116.394
2207.16
2311.076
2428.684
2560.453
2706.193
2865.056
3037.17
3223.468
3424.93
3641.891
3873.6
4118.406
4374.826
4639.639
4907.236
5172.295
5426.406
5661.544
5869.234
6042.129
6174.916
6265.749
6315.722
6324.748
6293.907
6229.301
6139.227
6031.267
5909.808
5778.264
5640.238
5498.704
5357.076
5216.942
5079.757
4946.788
4819.19
4697.714
4583.058
4476.292
4378.517
4291.725
4216.419
4152.381
4099.014
4055.684
4021.833
3996.69
3978.938
3967.127
3959.71
3953.688
3946.911
3936.721
3921.074
3899.166
3868.789
3827.348
3774.091
3709.87
3635.713
3554.687
3471.468
3392.113
3323.894
3273.376
3243.621
3234.893
3245.831
3274.268
3317.511
3372.241
3435.387
3505.207
3581.512
3664.97
3755.29
3850.217
3946.231
4040.056
4129.774
4214.825
4295.24
4370.932
4441.776
4507.404
4567.24
4620.594
4666.733
4704.958
4734.73
4755.88
4767.273
4769.922
4764.111
4750.531
4730.023
4703.498
4671.358
4633.404
4589.772
4541.609
4487.056
4419.046
4335.237
4243.983
4156.681
4084.448
4030.378
3987.334
3963.635
3966.24
4001.667
4075.691
4182.829
4321.908
4466.968
4582.94
4685.278
4782.198
4869.238
4951.958
5031.277
5107.095
5179.747
5249.347
5315.334
5377.421
5435.111
5488.328
5537.077
5581.23
5620.875
5655.797
5685.88
5711.786
5734.45
5754.885
5773.627
5790.317
5805.415
5819.971
5833.632
5845.8
5856.391
5865.348
5872.452
5877.077
5879.231
5879.123
5876.497
5871.692
5865.278
5858.106
5850.936
5844.562
5839.658
5836.745
5836.224
5838.382
5843.399
5851.178
5861.385
5873.954
5888.202
5903.766
5920.188
5937.022
5953.837
5970.323
5986.28
6001.454
6015.676
6028.792
6040.635
6051.345
6060.907
6069.355
6076.755
6083.199
6088.796
6093.667
6097.948
6101.786
6105.226
6108.307
6111.39
6114.547
6117.803
6121.218
6124.828
6128.651
6132.692
6136.936
6141.359
6145.927
6150.603
6155.348
6160.119
6164.875
6169.578
6174.19
6178.69
6183.071
6187.317
6191.42
6195.34
6199.019
6202.45
6205.642
6208.597
6211.317
6213.805
6216.068
6218.114
6219.951
6221.592
6223.047
6224.329
6225.451
6226.428
6227.276
6228.012
6228.637
6229.16
6229.596
6229.961
6230.265
6230.522
6230.741
6230.932
6231.092
6231.234
6231.374
6231.519
6231.676
6231.853
6232.058
6232.299
6232.584
6232.921
6233.314
6233.773
6234.301
6234.905
6235.586
6236.346
6237.19
6238.124
6239.155
6240.287
6241.525
6242.871
6244.331
6245.906
6247.598
6249.41
6251.34
6253.389
6255.555
6257.839
6260.236
6262.745
6265.362
6268.082
6270.901
6273.814
6276.816
6279.9
6283.064
6286.301
6289.609
6292.988
6296.438
6299.964
6303.575
6307.285
6311.105
6315.049
6319.118
6323.3
6327.565
6331.882
6336.224
6340.572
6344.909
6349.223
6353.504
6357.742
6361.93
6366.063
6370.133
6374.137
6378.071
6381.929
6385.71
6389.409
6393.025
6396.555
6399.996
6403.348
6406.609
6409.778
6412.853
6415.833
6418.719
6421.51
6424.204
6426.802
6429.302
6431.704
6434.007
6436.209
6438.308
6440.306
6442.209
6444.027
6445.77
6447.442
6449.045
6450.58
6452.047
6453.448
6454.785
6456.061
6457.276
6458.433
6459.533
6460.576
6461.565
6462.501
6463.385
6464.218
6465.001
6465.734
6466.414
6467.061
6467.656
6468.205
6468.709
6469.168
6469.582
6469.952
6470.277
6470.558
6470.794
6470.986
6471.133
6471.234
6471.288
6471.294
6471.251
6471.157
6471.01
6470.805
6470.539
6470.207
6469.808
6469.334
6468.781
6468.155
6467.454
6466.683
6465.843
6464.937
6463.964
6462.923
6461.815
6460.639
6459.394
6458.081
6456.704
6455.266
6453.77
6452.214
6450.598
6448.921
6447.181
6445.379
6443.512
6441.579
6439.579
6437.511
6435.375
6433.171
6430.898
6428.556
6426.146
6423.668
6421.123
6418.513
6415.837
6413.099
6410.299
6407.44
6404.524
6401.552
6398.528
6395.454
6392.332
6389.167
6385.96
6382.715
6379.436
6376.125
6372.786
6369.422
6366.038
6362.636
6359.22
6355.794
6352.362
6348.926
6345.492
6342.062
6338.639
6335.228
6331.832
6328.455
6325.098
6321.767
6318.463
6315.189
6311.95
6308.746
6305.581
6302.457
6299.376
6296.341
6293.352
6290.411
6287.521
6284.681
6281.894
6279.159
6276.479
6273.854
6271.287
6268.78
6266.336
6263.961
6261.664
6259.458
6257.36
6255.394
6253.593
6251.993
6250.64
6249.571
6248.837
6248.433
6248.458
4026.747
3954.258
3786.113
3692.379
3593.082
3492.575
3391.7
3290.654
3189.107
3087.015
2985.23
2882.613
2777.148
2670.957
2564.25
2458.094
2353.048
2249.769
2148.615
2051.201
1959.86
1872.983
1792.14
1719.238
1655.601
1602.303
1560.6
1531.63
1515.68
1512.481
1521.699
1543.258
1577.123
1622.33
1678.585
1745.799
1824.553
1915.238
2018.277
2134.058
2262.747
2403.578
2556.37
2722.461
2902.978
3097.993
3307.763
3533.434
3771.318
4020.947
4278.623
4539.083
4796.111
5041.323
5266.216
5462.645
5624.488
5747.58
5830.05
5871.238
5872.053
5837.14
5773.853
5687.858
5584.417
5467.825
5342.081
5210.98
5076.895
4942.985
4810.633
4682.055
4557.547
4438.288
4324.085
4215.999
4115.059
4022.493
3941.13
3872.356
3816.171
3771.352
3736.905
3712.717
3698.154
3691.452
3691.213
3696.553
3703.925
3708.377
3707.032
3699.556
3684.638
3658.116
3615.938
3557.282
3482.865
3393.462
3293.108
3188.134