/*--------------------------------*- C++ -*----------------------------------*\
| =========                 |                                                 |
| \\      /  F ield         | foam-extend: Open Source CFD                    |
|  \\    /   O peration     | Version:     3.1                                |
|   \\  /    A nd           | Web:         http://www.extend-project.de       |
|    \\/     M anipulation  |                                                 |
\*---------------------------------------------------------------------------*/
FoamFile
{
    version     2.0;
    format      ascii;
    class       volScalarField;
    location    "3.5";
    object      k;
}
// * * * * * * * * * * * * * * * * * * * * * * * * * * * * * * * * * * * * * //

dimensions      [0 2 -2 0 0 0 0];

internalField   nonuniform List<scalar> 
119952
(
0.0132355
0.01224238
0.01206379
0.01196951
0.01183996
0.01167568
0.0117103
0.01184135
0.0120199
0.01222196
0.01243405
0.01264799
0.01285947
0.01306679
0.01326971
0.013469
0.01366667
0.01386728
0.01408449
0.01437352
0.01486777
0.01464076
0.014832
0.01527134
0.01489786
0.01480898
0.01475528
0.01469495
0.01435793
0.01110523
0.01838273
0.01682786
0.01603941
0.01574298
0.0157641
0.01595825
0.01623006
0.01651678
0.01678111
0.0170523
0.01741853
0.01862886
0.02000276
0.02127673
0.0223504
0.02321081
0.02389721
0.02444056
0.02485938
0.02762231
0.02794792
0.02812429
0.0282053
0.02825889
0.02831469
0.02838456
0.02847086
0.02855981
0.02867372
0.02880188
0.02881953
0.02880188
0.02877012
0.02873087
0.02868535
0.02863124
0.02855465
0.02849497
0.02891101
0.02876249
0.02847397
0.02833007
0.02821463
0.02802846
0.02776144
0.02746914
0.02717639
0.02689021
0.02661405
0.02634996
0.02609885
0.02586113
0.02563709
0.02542698
0.02523068
0.02504688
0.0248716
0.02470157
0.02457666
0.02449225
0.0243658
0.02433116
0.02448153
0.02456188
0.02458654
0.02465467
0.02479617
0.02443188
0.02407076
0.02381793
0.02363247
0.02348713
0.02336885
0.02326731
0.02317408
0.02308295
0.02298958
0.02289081
0.02278424
0.02266809
0.02254118
0.0224029
0.02225314
0.02209222
0.02192095
0.02174096
0.02155523
0.02136499
0.02117119
0.02097541
0.02077969
0.02058774
0.02040099
0.02021969
0.0200448
0.01987706
0.01971689
0.0195646
0.0194204
0.01928437
0.01915646
0.01903635
0.01892361
0.01881786
0.01871891
0.01862643
0.01853982
0.01845875
0.01838294
0.01831204
0.01824566
0.01818348
0.01812511
0.01807009
0.01801775
0.01796528
0.01791264
0.01787723
0.01787686
0.01789185
0.01791951
0.01795248
0.01798748
0.01802052
0.01805205
0.01807828
0.01809871
0.01811342
0.01812226
0.01812545
0.01812336
0.01811618
0.01810406
0.01808727
0.01806622
0.01804128
0.01801283
0.01798124
0.01794684
0.01790997
0.01787096
0.01783015
0.01778787
0.01774443
0.01770012
0.01765525
0.01761009
0.01756489
0.01751992
0.0174754
0.01743155
0.01738856
0.01734663
0.01730593
0.01726662
0.01722886
0.01719266
0.01715794
0.01712466
0.01709279
0.0170623
0.0170332
0.01700545
0.01697895
0.01695323
0.01692567
0.01690305
0.01701118
0.01725803
0.01739087
0.01746133
0.01749314
0.01747714
0.01740627
0.01730312
0.01718118
0.01705058
0.01691757
0.01678566
0.01665713
0.01653338
0.01641531
0.01630335
0.01619771
0.01609857
0.01600598
0.01591988
0.0158402
0.01576687
0.0156998
0.01563899
0.01558436
0.01553596
0.01549367
0.01545755
0.01542753
0.0154037
0.01538617
0.01537507
0.01537048
0.01537157
0.01537018
0.01530604
0.01536903
0.01548001
0.01559318
0.01570289
0.01580606
0.01590013
0.01598523
0.01606067
0.01612526
0.01617597
0.0162033
0.01621415
0.01621516
0.01620883
0.01619685
0.01618066
0.01616149
0.01614044
0.01611842
0.01609631
0.01607496
0.01605529
0.01603679
0.01601766
0.01599978
0.01598416
0.01597044
0.01595848
0.01594821
0.01593956
0.01593244
0.0159267
0.01592208
0.01591745
0.01686375
0.01686198
0.01680378
0.01670379
0.01659554
0.01649443
0.01641397
0.01636096
0.01633744
0.01634265
0.01637419
0.01642866
0.01650222
0.01659084
0.01669072
0.01679838
0.01691075
0.01702543
0.01714055
0.01725469
0.01736684
0.01747632
0.01758273
0.01768583
0.01778556
0.01788191
0.01797498
0.01806489
0.01815182
0.01823596
0.0183175
0.01839663
0.01847353
0.01854842
0.01862146
0.01869285
0.01876275
0.01883132
0.01889869
0.01896498
0.01903029
0.0190947
0.01915829
0.01922118
0.01928392
0.01934708
0.01940331
0.01945629
0.01950662
0.01955487
0.01960155
0.01964711
0.01969204
0.01974846
0.01981361
0.01980985
0.01979401
0.01977499
0.01975775
0.01974793
0.01975023
0.01976795
0.01980251
0.01985351
0.01991912
0.01999662
0.02008289
0.02017495
0.02027018
0.02036647
0.02046222
0.02055612
0.02064722
0.02073501
0.02081929
0.0209001
0.02097761
0.0210521
0.02112385
0.02119297
0.02125971
0.02132433
0.02138707
0.02144817
0.02150782
0.0215662
0.02162345
0.0216797
0.02173504
0.02178954
0.02184322
0.02189615
0.02194839
0.02200001
0.02205102
0.02210146
0.02215135
0.02220071
0.02224955
0.02229787
0.0223457
0.02239303
0.02243987
0.02248623
0.02253211
0.02257751
0.02262243
0.02266686
0.02271082
0.02275429
0.02279728
0.0228398
0.02288185
0.02292344
0.02296459
0.02300532
0.02304566
0.02308563
0.02312529
0.02316468
0.02320386
0.02324292
0.02328192
0.02332099
0.02336024
0.02339983
0.02343994
0.02348081
0.02352275
0.02356616
0.02361158
0.02365977
0.02371186
0.02376958
0.02383554
0.02391447
0.0240158
0.02420649
0.02464038
0.04144926
0.03823636
0.03753258
0.0379059
0.03869147
0.03951984
0.04022341
0.04073625
0.04108259
0.04067376
0.04155993
0.04338401
0.04537298
0.04714894
0.04856788
0.04962237
0.05034106
0.05077734
0.05677675
0.05640642
0.05592068
0.05525536
0.05451067
0.05376532
0.05305584
0.05239536
0.05178478
0.05120055
0.05080749
0.05026928
0.04967043
0.04907788
0.04850914
0.04797174
0.04747099
0.04701067
0.04658368
0.04634812
0.04609927
0.04575209
0.045418
0.04510116
0.04480441
0.04452972
0.04427991
0.0440556
0.04385449
0.04365874
0.04347696
0.04332268
0.04317483
0.04302719
0.04288018
0.04273381
0.04258945
0.04246443
0.04525134
0.04502174
0.04481506
0.04461336
0.04440377
0.04418277
0.04394845
0.04370231
0.04344216
0.04316639
0.04288493
0.0425979
0.04230002
0.04199199
0.04167668
0.04135348
0.04102986
0.0407223
0.04046173
0.04019595
0.03983945
0.03948213
0.03915418
0.03881937
0.03845475
0.03806679
0.03767
0.03727044
0.03687229
0.03647966
0.03609598
0.03572384
0.03536516
0.03502136
0.03469331
0.03438132
0.03408528
0.03380661
0.03355032
0.03332385
0.03311714
0.032945
0.03284052
0.03278516
0.03274631
0.0327238
0.03269735
0.03260919
0.03245936
0.03233252
0.03223578
0.03215266
0.03208143
0.03201776
0.03195693
0.03189504
0.03182882
0.03175556
0.03167297
0.03157912
0.03147234
0.03135131
0.03121505
0.03106292
0.03089462
0.03071022
0.03051011
0.03029506
0.03006633
0.02982543
0.02957405
0.02931405
0.02904729
0.02877538
0.02850121
0.02822801
0.02795864
0.02769573
0.02744175
0.02719904
0.02696991
0.02675527
0.0265548
0.02636844
0.0261961
0.02603757
0.02589242
0.02576005
0.02563978
0.02553095
0.02543286
0.02534481
0.02526607
0.02519592
0.02513375
0.02507884
0.02503127
0.02499214
0.02496065
0.02493331
0.02490905
0.02488908
0.02487334
0.02486135
0.02485305
0.02484797
0.02484589
0.02484645
0.02484926
0.02485401
0.02486039
0.02486811
0.02487689
0.02488646
0.02489658
0.02490699
0.0249175
0.0249279
0.02493803
0.02494774
0.02495693
0.02496548
0.02497333
0.02498041
0.0249867
0.02499217
0.02499682
0.02500067
0.02500373
0.02500604
0.02500764
0.02500859
0.02500893
0.02500872
0.02500804
0.02500694
0.02500549
0.02500375
0.02500181
0.02499968
0.02499746
0.02499517
0.02499286
0.02499053
0.02498824
0.0249862
0.02498528
0.02499045
0.0245827
0.02411994
0.02380974
0.02359586
0.02344568
0.02333844
0.0232613
0.02320527
0.0231642
0.0231337
0.0231105
0.02309221
0.02307702
0.02306358
0.02305092
0.02303834
0.02302537
0.02301165
0.02299701
0.02298134
0.02296463
0.0229469
0.02292825
0.02290882
0.02288874
0.0228682
0.02284739
0.02282648
0.02280568
0.02278518
0.0227652
0.02274597
0.02272781
0.0227114
0.02269903
0.02269933
0.02272503
0.02276143
0.0228024
0.02284738
0.0228972
0.02295118
0.02300867
0.02306943
0.02313326
0.02319995
0.02326935
0.02334126
0.02341553
0.02349198
0.02357044
0.02365071
0.02373261
0.02381592
0.02390047
0.02398605
0.02407249
0.02415963
0.0242473
0.02433535
0.02442358
0.02451179
0.02459983
0.02468754
0.0247748
0.02486147
0.02494748
0.02503282
0.02511757
0.02520007
0.02715877
0.02725884
0.02736716
0.02747332
0.02757269
0.02766458
0.02774921
0.02782723
0.02789955
0.02796718
0.02803113
0.02809238
0.02815183
0.02821029
0.0282684
0.02832678
0.02838612
0.02844689
0.02850937
0.02857373
0.02864002
0.02870819
0.02877812
0.02884965
0.02892256
0.02899662
0.0290716
0.02914725
0.02922335
0.02929971
0.02937612
0.02945243
0.02952848
0.02960415
0.02967934
0.02975397
0.02982797
0.02990128
0.02997386
0.03004567
0.03011666
0.03018675
0.03025578
0.0303234
0.03038878
0.03045041
0.03050849
0.03056453
0.03061937
0.03067321
0.03072631
0.03077854
0.0308304
0.03088384
0.0309366
0.03098347
0.03102584
0.0310665
0.03110634
0.03114537
0.03118373
0.03122159
0.03125925
0.03129709
0.03133552
0.03137492
0.03141558
0.03145771
0.03150141
0.03154673
0.03159357
0.03164171
0.03169093
0.03174099
0.03179166
0.03184272
0.03189398
0.03194529
0.0319965
0.0320475
0.03209818
0.03214848
0.03219832
0.03224769
0.03229653
0.03234485
0.03239262
0.03243985
0.03248651
0.03253268
0.03257853
0.03262414
0.03266957
0.03271485
0.03276002
0.03280512
0.03285022
0.03289536
0.03294055
0.03298552
0.03303015
0.03307441
0.03311824
0.03316162
0.03320451
0.0332469
0.03328877
0.0333301
0.0333709
0.03341115
0.03345086
0.03349001
0.03352863
0.03356671
0.03360427
0.03364134
0.03367793
0.0337141
0.03374988
0.03378533
0.03382052
0.03385553
0.03389047
0.03392545
0.0339606
0.03399611
0.03403217
0.03406903
0.03410703
0.03414655
0.03418812
0.0342324
0.03428031
0.03433292
0.03439195
0.03446001
0.03454596
0.03466327
0.03478965
0.03965737
0.04383084
0.04835902
0.05266486
0.05704675
0.06129543
0.06515633
0.06900886
0.0732661
0.08298832
0.1364968
0.1406837
0.1435547
0.1459339
0.1478341
0.1492671
0.1502555
0.1508414
0.1510243
0.1728272
0.1731193
0.1731431
0.1729172
0.1722089
0.170978
0.169308
0.1673031
0.1650426
0.1626659
0.1599538
0.1571241
0.1543314
0.1516474
0.1490629
0.146544
0.1440555
0.1415703
0.1391318
0.1364212
0.1336034
0.1307646
0.1279815
0.1252681
0.1226214
0.1200376
0.1175107
0.1150414
0.1126399
0.1102247
0.1078469
0.1055053
0.1031901
0.1009074
0.09866377
0.096469
0.09435045
0.09738336
0.09530191
0.09329072
0.09135132
0.08945947
0.08760899
0.08580157
0.08404217
0.08233119
0.08066752
0.07906507
0.0775286
0.07604911
0.07462525
0.0732605
0.07195704
0.07071565
0.06953648
0.06841741
0.06735771
0.06635945
0.06541985
0.06453404
0.06370029
0.06291738
0.06218224
0.06149198
0.06084076
0.06022709
0.05965185
0.05910455
0.05858191
0.05808204
0.05760462
0.05714478
0.05670378
0.05626387
0.05581583
0.05540455
0.05499495
0.05458194
0.05416419
0.05374322
0.0533203
0.05289488
0.05246659
0.05203412
0.05159748
0.05115798
0.05071355
0.05026357
0.04980967
0.04935395
0.0488987
0.04844939
0.04801242
0.04759211
0.04717763
0.04673637
0.04627967
0.04582886
0.04538152
0.04492593
0.04445766
0.04398155
0.04350399
0.04303003
0.04256342
0.04210704
0.04166316
0.04123353
0.04081961
0.04042248
0.04004311
0.03968232
0.03934189
0.0390246
0.03873472
0.03847516
0.03824904
0.03807003
0.03793766
0.03783515
0.03775191
0.03767905
0.03759904
0.03748775
0.03736556
0.03726004
0.03717481
0.03710575
0.03704744
0.03699541
0.03694608
0.03689627
0.036843
0.03678351
0.03671532
0.03663623
0.03654436
0.03643814
0.03631633
0.03617806
0.03602284
0.03585061
0.03566171
0.03545691
0.03523738
0.03500462
0.03476043
0.03450682
0.03424592
0.03398001
0.03371149
0.03344272
0.03317591
0.03291308
0.03265594
0.03240569
0.03216413
0.03193383
0.03171678
0.03151455
0.03132831
0.03115766
0.03100194
0.0308606
0.03073305
0.03061852
0.03051625
0.03042546
0.03034543
0.03027542
0.03021476
0.0301631
0.03012011
0.03008505
0.03005638
0.03003295
0.03001451
0.03000065
0.029991
0.02998521
0.02998294
0.02998387
0.02998767
0.02999403
0.03000267
0.03001332
0.03002576
0.03003976
0.0300551
0.03007158
0.03008902
0.03010726
0.03012614
0.0301455
0.03016524
0.03018521
0.03020533
0.0302255
0.03024566
0.03026573
0.03028567
0.03030545
0.03032501
0.03034435
0.03036347
0.03038235
0.03040099
0.0304194
0.0304376
0.0304556
0.03047342
0.0304911
0.03050863
0.03052609
0.03054344
0.0305608
0.03057807
0.03059551
0.03061286
0.03063072
0.03064844
0.03066716
0.03068431
0.03066956
0.03067327
0.03068876
0.03071146
0.03073807
0.03076646
0.03079531
0.03082394
0.03085197
0.03087927
0.03090581
0.03093157
0.0309566
0.03098091
0.0310045
0.03102738
0.03104951
0.03107088
0.03109145
0.0311112
0.03113012
0.03114821
0.0311655
0.031182
0.03119779
0.03121294
0.03122755
0.03124173
0.03125563
0.03126944
0.03128342
0.03129803
0.03131407
0.03133317
0.03135789
0.03139145
0.03143458
0.0314841
0.03153747
0.03159355
0.0316516
0.03171112
0.03177182
0.03183353
0.03189616
0.03195968
0.03202407
0.03208932
0.03215546
0.03222249
0.03229044
0.03235933
0.03242917
0.03249998
0.03257175
0.03264448
0.03271817
0.03279278
0.03286829
0.03294463
0.03302173
0.03309952
0.0331779
0.03325678
0.03333603
0.0334156
0.03349528
0.03357517
0.03365512
0.03374108
0.03381007
0.03388112
0.03394836
0.03401387
0.03407979
0.03414621
0.03421262
0.03427868
0.03434416
0.03440886
0.03447262
0.03453535
0.03459707
0.03465785
0.03471784
0.03477724
0.03483629
0.0348952
0.0349542
0.0350135
0.03507328
0.0351337
0.03519485
0.0352568
0.03531958
0.03538319
0.03544759
0.03551273
0.03557855
0.03564495
0.03571186
0.03577917
0.03584678
0.0359146
0.03598253
0.03605048
0.03611837
0.03618611
0.03625361
0.03632078
0.0363875
0.0364536
0.03651885
0.03658284
0.03664504
0.03670471
0.0367621
0.03681792
0.03687269
0.03692659
0.03697981
0.03703215
0.03708411
0.03713559
0.03718382
0.03723083
0.03727798
0.03732511
0.03737187
0.03741813
0.03746382
0.03750883
0.03755313
0.03759672
0.03763969
0.03768214
0.03772422
0.03776609
0.03780794
0.03784992
0.03789211
0.03793458
0.03797733
0.03802037
0.03806369
0.03810727
0.03815107
0.03819506
0.03823917
0.03828338
0.03832761
0.03837184
0.03841601
0.03846011
0.03850408
0.03854793
0.03859162
0.03863515
0.03867851
0.0387217
0.03876472
0.03880754
0.03885017
0.03889257
0.03893474
0.03897665
0.03901825
0.03905952
0.03910046
0.03914136
0.03918232
0.03922342
0.03926471
0.03930597
0.03934696
0.0393876
0.03942781
0.03946755
0.03950681
0.03954555
0.03958379
0.03962151
0.03965871
0.03969539
0.03973158
0.03976728
0.03980252
0.03983734
0.03987179
0.03990591
0.03993979
0.03997349
0.04000713
0.04004082
0.0400747
0.04010894
0.04014375
0.04017937
0.0402161
0.04025431
0.04029445
0.04033709
0.04038292
0.04043283
0.04048789
0.04054983
0.04062099
0.0407029
0.040781
0.03398289
0.04090285
0.04721956
0.07896391
0.1067454
0.1430783
0.1632268
0.1827492
0.2004198
0.217078
0.2317113
0.2432127
0.2526705
0.2608656
0.2677793
0.2735557
0.2783243
0.2821303
0.2847926
0.2864458
0.2873677
0.2880685
0.2880272
0.2870564
0.2851578
0.2825086
0.279259
0.2755206
0.2713753
0.2668501
0.2618504
0.2645555
0.2597415
0.2546151
0.2493649
0.2440823
0.2388176
0.2336007
0.2284532
0.2233982
0.2184385
0.213567
0.2088032
0.2041383
0.1995744
0.1951126
0.1907519
0.186494
0.1823442
0.1782865
0.1743053
0.1704211
0.1666322
0.1629287
0.1593076
0.1557674
0.1523078
0.1489278
0.1456209
0.1423913
0.1392385
0.1361535
0.1331315
0.1301771
0.127284
0.124462
0.1216799
0.1189387
0.1162553
0.1136556
0.1111302
0.1086815
0.1063108
0.1040171
0.1017982
0.09965269
0.09757833
0.09557447
0.09364083
0.09177268
0.08996782
0.0882277
0.086554
0.08494705
0.08340605
0.08192999
0.08051803
0.07916913
0.07788021
0.07664917
0.07547738
0.07436557
0.07331252
0.0723155
0.07137154
0.07047716
0.06962963
0.06882518
0.06806212
0.06733944
0.06665436
0.06600189
0.06537872
0.0647793
0.06420205
0.06363872
0.06309579
0.06256024
0.06202687
0.06149647
0.06096966
0.0604452
0.05992104
0.05939567
0.05886818
0.05833794
0.0578044
0.05726736
0.05672747
0.05618602
0.05564492
0.05510622
0.05457298
0.05404799
0.05353223
0.05302184
0.05250344
0.05197483
0.05144646
0.05092223
0.05039681
0.04986554
0.04932987
0.04879458
0.04826409
0.04774164
0.04722978
0.0467306
0.04624577
0.04577684
0.04532527
0.0448925
0.04447992
0.04408941
0.04372341
0.0433857
0.04307961
0.04280745
0.04257372
0.04237973
0.04221859
0.042081
0.04195897
0.04184258
0.0417217
0.04160113
0.04149328
0.04140389
0.04133169
0.04127299
0.04122415
0.04118195
0.04114329
0.04110506
0.04106431
0.04101829
0.04096444
0.04090044
0.0408242
0.04073393
0.04062818
0.04050588
0.04036639
0.0402095
0.0400355
0.0398452
0.03963984
0.03942097
0.03919042
0.03895018
0.03870236
0.03844914
0.03819267
0.03793514
0.03767877
0.03742569
0.03717794
0.03693746
0.03670596
0.03648483
0.03627504
0.0360771
0.03589227
0.03572183
0.03556659
0.03542665
0.035301
0.03518887
0.03508945
0.03500193
0.03492555
0.03485958
0.03480336
0.03475629
0.03471768
0.03468659
0.03466203
0.03464333
0.03462996
0.03462146
0.03461739
0.03461735
0.03462094
0.03462778
0.03463752
0.03464983
0.03466443
0.03468106
0.03469946
0.03471944
0.0347408
0.03476336
0.03478695
0.03481144
0.0348367
0.0348626
0.03488906
0.03491597
0.03494327
0.03497089
0.03499877
0.03502687
0.03505515
0.03508359
0.03511216
0.03514085
0.03516964
0.03519852
0.0352275
0.03525657
0.03528574
0.03531501
0.03534438
0.03537386
0.03540347
0.03543319
0.03546309
0.03549313
0.0355234
0.03555386
0.03558469
0.03561577
0.03564735
0.03567896
0.03570899
0.03573809
0.03576682
0.0357958
0.0358253
0.03585539
0.03588605
0.03591713
0.03594853
0.03598015
0.03601186
0.03604359
0.03607524
0.03610675
0.03613805
0.03616906
0.03619974
0.03623003
0.03625989
0.03628928
0.03631818
0.03634657
0.03637447
0.0364019
0.03642891
0.03645555
0.03648193
0.03650817
0.03653445
0.03656102
0.03658825
0.0366167
0.03664718
0.03668099
0.03671962
0.03676475
0.03681644
0.03687294
0.0369326
0.03699444
0.03705786
0.03712242
0.03718782
0.03725384
0.03732036
0.03738726
0.0374545
0.03752202
0.03758982
0.03765788
0.03772622
0.03779486
0.0378638
0.03793308
0.03800273
0.03807276
0.03814321
0.03821409
0.03828541
0.03835718
0.03842938
0.03850199
0.03857499
0.03864833
0.03872198
0.03879589
0.03886998
0.03894419
0.03901833
0.03909266
0.03916513
0.03923534
0.03930505
0.03937549
0.03944655
0.03951751
0.03958782
0.03965737
0.03972613
0.03979403
0.03986101
0.03992702
0.03999203
0.04005609
0.04011923
0.04018151
0.04024304
0.0403039
0.04036423
0.04042416
0.04048382
0.04054335
0.04060287
0.04066248
0.04072226
0.0407823
0.04084264
0.04090332
0.04096437
0.0410258
0.04108759
0.04114973
0.04121218
0.0412749
0.04133785
0.04140098
0.04146422
0.04152751
0.04159077
0.0416539
0.04171679
0.04177926
0.04184111
0.04190203
0.04196167
0.04201971
0.04207619
0.04213147
0.0421859
0.04223966
0.04229285
0.04234543
0.04239752
0.04244912
0.04249959
0.04254916
0.04259814
0.04264666
0.04269483
0.04274272
0.04279031
0.04283754
0.04288427
0.0429304
0.04297582
0.04302044
0.0430642
0.04310705
0.04314904
0.04319056
0.04323175
0.04327267
0.04331338
0.04335393
0.04339438
0.04343476
0.04347511
0.04351544
0.04355579
0.04359615
0.04363653
0.04367693
0.04371733
0.04375775
0.04379816
0.04383857
0.04387897
0.04391935
0.0439597
0.04400002
0.04404029
0.04408051
0.04412066
0.04416073
0.04420072
0.04424062
0.0442804
0.04432007
0.04435961
0.04439902
0.04443826
0.04447727
0.044516
0.04455466
0.04459347
0.04463247
0.04467133
0.04470987
0.04474799
0.04478566
0.04482285
0.04485956
0.04489578
0.04493151
0.04496677
0.04500156
0.0450359
0.04506985
0.04510343
0.0451367
0.04516974
0.04520262
0.04523544
0.04526833
0.04530142
0.04533488
0.04536892
0.04540376
0.04543969
0.04547704
0.04551622
0.0455577
0.04560204
0.04564992
0.04570205
0.04575931
0.04582228
0.04588972
0.04595048
0.02128228
0.0247665
0.02820719
0.04089728
0.05494078
0.07966446
0.09439936
0.1087913
0.1233373
0.1374275
0.1514523
0.1663908
0.181997
0.1976103
0.2133699
0.2308308
0.2625702
0.2752767
0.2878572
0.2994982
0.3104479
0.32088
0.3298931
0.3373657
0.3433596
0.3475385
0.3497383
0.3503568
0.3494421
0.347293
0.3440379
0.3399923
0.3353766
0.3300442
0.3241183
0.3177662
0.3111277
0.3043119
0.2974267
0.2905296
0.2837464
0.2769963
0.2695072
0.2625436
0.2559576
0.2496408
0.2435694
0.2377402
0.2321418
0.2267599
0.2215826
0.2166019
0.2118043
0.2071849
0.2027314
0.1984095
0.1941935
0.1901066
0.1861511
0.182324
0.1786214
0.1750351
0.1715599
0.1681904
0.1649212
0.1617471
0.1586617
0.1556582
0.1527295
0.1498688
0.1470705
0.1443275
0.141633
0.1389824
0.1363714
0.1337973
0.1312554
0.1287522
0.1262883
0.1238749
0.1214883
0.1191242
0.1167981
0.1145207
0.1122951
0.1101213
0.1079996
0.1059305
0.1039147
0.1019529
0.1000459
0.09819462
0.09640006
0.09466313
0.09298426
0.09136363
0.08980138
0.08829741
0.08685147
0.08546316
0.08413268
0.08286077
0.08164738
0.08049157
0.07939175
0.07834618
0.07735264
0.07640886
0.07551158
0.0746547
0.07383386
0.07304752
0.07229286
0.07156726
0.07086752
0.07019485
0.06954538
0.06891486
0.06829804
0.06769125
0.06709286
0.06650171
0.06591584
0.06533296
0.06475134
0.06416976
0.06358722
0.0630031
0.06241746
0.06183076
0.06124379
0.06065783
0.06007426
0.05949487
0.05892133
0.05835387
0.05779022
0.0572247
0.05665488
0.0560845
0.05551633
0.05494867
0.05437916
0.05380841
0.05323941
0.05267544
0.05211917
0.05157296
0.05103886
0.05051853
0.05001357
0.04952565
0.04905653
0.04860791
0.04818184
0.04778075
0.04740762
0.04706515
0.04675526
0.04648005
0.04623997
0.04603147
0.04584837
0.04568468
0.04553472
0.04539357
0.04526253
0.04514708
0.04505077
0.04497325
0.04491204
0.04486414
0.04482652
0.04479602
0.04476951
0.04474412
0.04471708
0.04468568
0.04464728
0.04459941
0.0445398
0.04446648
0.04437786
0.0442727
0.04415019
0.0440099
0.04385215
0.04367819
0.04348937
0.04328727
0.04307365
0.04285041
0.0426195
0.04238265
0.04214182
0.04189949
0.04165803
0.04141965
0.04118642
0.04096016
0.04074246
0.04053462
0.0403378
0.04015288
0.03998045
0.03982072
0.03967389
0.03954076
0.03942172
0.03931638
0.03922369
0.03914279
0.03907287
0.03901317
0.03896297
0.03892159
0.03888822
0.03886207
0.03884241
0.03882865
0.03882028
0.03881682
0.0388178
0.03882279
0.0388314
0.03884321
0.0388579
0.03887514
0.03889464
0.03891615
0.03893942
0.03896425
0.03899045
0.03901784
0.03904629
0.03907565
0.03910582
0.03913669
0.03916817
0.03920021
0.03923273
0.0392657
0.03929906
0.0393328
0.03936689
0.03940131
0.03943606
0.03947112
0.03950649
0.03954216
0.03957815
0.03961444
0.03965105
0.03968797
0.0397252
0.03976276
0.03980063
0.03983884
0.03987739
0.0399163
0.03995558
0.03999528
0.04003538
0.04007595
0.04011693
0.04015824
0.04019951
0.04024034
0.04028069
0.04032068
0.04036045
0.04040006
0.04043954
0.04047889
0.0405181
0.04055715
0.04059603
0.04063469
0.04067311
0.04071124
0.04074906
0.04078652
0.04082358
0.04086024
0.04089645
0.04093221
0.04096752
0.0410024
0.04103689
0.04107102
0.0411049
0.04113861
0.04117231
0.04120619
0.04124053
0.0412757
0.04131222
0.04135078
0.04139226
0.0414376
0.04148761
0.04154237
0.04160103
0.0416625
0.04172596
0.04179087
0.04185689
0.04192373
0.04199118
0.04205909
0.04212734
0.04219586
0.04226457
0.04233343
0.04240241
0.04247151
0.04254069
0.04260996
0.04267935
0.04274885
0.04281848
0.04288827
0.04295822
0.04302835
0.04309866
0.04316913
0.04323979
0.04331055
0.04338139
0.04345223
0.04352296
0.04359343
0.04366368
0.04373383
0.04380389
0.04387353
0.04394268
0.04401169
0.04408083
0.04415014
0.04421942
0.04428848
0.04435721
0.04442554
0.04449342
0.04456078
0.04462755
0.04469365
0.04475904
0.0448237
0.0448876
0.04495076
0.04501319
0.04507493
0.04513604
0.04519659
0.04525667
0.04531634
0.0453757
0.04543482
0.04549379
0.04555268
0.04561155
0.04567047
0.04572949
0.04578863
0.04584793
0.04590741
0.04596705
0.04602686
0.04608683
0.04614691
0.04620709
0.04626729
0.04632744
0.04638746
0.04644719
0.04650648
0.04656511
0.04662288
0.04667959
0.04673527
0.0467901
0.0468443
0.04689802
0.04695133
0.04700424
0.04705679
0.04710899
0.04716055
0.04721146
0.04726192
0.04731213
0.04736217
0.04741211
0.04746194
0.04751164
0.04756115
0.04761038
0.04765925
0.04770771
0.04775568
0.04780314
0.04785007
0.04789647
0.04794237
0.04798778
0.04803274
0.04807728
0.04812146
0.04816533
0.04820892
0.04825228
0.04829545
0.04833847
0.04838135
0.04842413
0.04846682
0.04850944
0.048552
0.04859451
0.04863698
0.04867942
0.04872182
0.04876419
0.04880653
0.04884883
0.04889109
0.0489333
0.04897546
0.04901755
0.04905957
0.04910149
0.04914331
0.049185
0.04922655
0.04926793
0.04930911
0.0493501
0.04939083
0.04943131
0.04947185
0.04951253
0.04955294
0.04959293
0.04963242
0.04967139
0.04970985
0.04974778
0.0497852
0.04982212
0.04985856
0.04989457
0.04993019
0.04996547
0.05000049
0.05003534
0.05007012
0.05010496
0.05014002
0.05017545
0.05021147
0.05024832
0.05028628
0.05032567
0.05036687
0.05041031
0.05045648
0.05050591
0.05055914
0.05061665
0.05067844
0.05074253
0.05079878
0.01262492
0.01464985
0.01633544
0.02553205
0.03535276
0.04824097
0.05736708
0.0670067
0.07678501
0.08668917
0.09694481
0.10852
0.1206476
0.1335193
0.1484103
0.1735474
0.1855019
0.1979339
0.2105177
0.223251
0.2361569
0.2492323
0.2623141
0.2753074
0.2880571
0.3001698
0.3114183
0.322322
0.3319129
0.3406427
0.3486969
0.3558163
0.3610769
0.3644128
0.3656148
0.3646444
0.361706
0.3570182
0.350826
0.3434199
0.3351115
0.3262078
0.3169624
0.3075417
0.2980796
0.2887112
0.2795541
0.2706935
0.2621879
0.2540684
0.2463466
0.2390119
0.2320423
0.2254682
0.2193115
0.2135426
0.2081299
0.2030541
0.1982993
0.1938478
0.1896821
0.1857863
0.1821605
0.1787767
0.1756112
0.1726338
0.1698101
0.1670919
0.1644754
0.1619614
0.1595479
0.1572288
0.1549962
0.152844
0.1507665
0.1487568
0.1468065
0.144907
0.1430496
0.1412257
0.139426
0.1376399
0.1358555
0.1340484
0.1322274
0.1303986
0.1285674
0.1267361
0.1249037
0.1230718
0.1212383
0.1194025
0.1175691
0.1157439
0.1139309
0.1121321
0.1103498
0.1085868
0.1068457
0.1051294
0.1034409
0.1017823
0.1001561
0.09856447
0.09700975
0.09549386
0.09401845
0.0925849
0.09119442
0.08984811
0.08854705
0.08729236
0.08608493
0.0849252
0.08381309
0.08274814
0.08172956
0.08075625
0.07982702
0.07894013
0.0780927
0.07728169
0.07650438
0.0757579
0.07503803
0.0743386
0.07365759
0.07299298
0.07234207
0.07170451
0.07107868
0.07046247
0.06985371
0.06925017
0.06865008
0.06805206
0.06745497
0.06685816
0.0662614
0.06566476
0.06506863
0.06447375
0.06388101
0.06329142
0.06270576
0.06212398
0.06154489
0.06096597
0.06038547
0.05980428
0.05922384
0.05864405
0.05806415
0.05748454
0.05690711
0.05633422
0.05576807
0.05521062
0.05466365
0.05412895
0.05360849
0.05310407
0.05261741
0.05215034
0.05170489
0.05128337
0.05088823
0.05052178
0.05018571
0.04988125
0.0496085
0.04936544
0.04914839
0.04895349
0.04877744
0.04861782
0.04847482
0.04835082
0.04824764
0.0481651
0.04810158
0.04805477
0.04802186
0.04799938
0.04798312
0.04797102
0.04796084
0.04794987
0.04793526
0.0479142
0.04788404
0.0478424
0.04778724
0.04771694
0.04763029
0.04752653
0.04740534
0.04726693
0.04711197
0.04694155
0.04675712
0.04656045
0.04635358
0.0461387
0.04591808
0.045694
0.04546876
0.04524457
0.04502353
0.04480754
0.04459831
0.04439732
0.04420582
0.04402482
0.04385509
0.04369717
0.04355142
0.04341801
0.04329679
0.04318784
0.04309154
0.0430077
0.04293525
0.0428733
0.04282106
0.04277779
0.04274276
0.04271525
0.0426946
0.04268019
0.04267151
0.04266804
0.04266931
0.04267488
0.04268432
0.04269726
0.04271329
0.04273211
0.04275341
0.04277691
0.04280236
0.04282953
0.04285822
0.04288825
0.04291946
0.04295171
0.04298488
0.04301887
0.04305359
0.04308896
0.04312493
0.04316145
0.04319849
0.04323601
0.043274
0.04331244
0.04335133
0.04339067
0.04343046
0.04347069
0.04351137
0.0435525
0.04359409
0.04363615
0.04367866
0.04372165
0.04376511
0.04380904
0.04385345
0.04389836
0.04394375
0.04398965
0.04403606
0.04408301
0.04413045
0.04417836
0.04422651
0.04427459
0.04432245
0.04437007
0.04441747
0.04446464
0.04451157
0.04455823
0.04460459
0.04465064
0.04469635
0.0447417
0.04478666
0.04483119
0.04487528
0.04491889
0.04496199
0.04500458
0.04504664
0.04508816
0.04512917
0.04516969
0.04520975
0.04524943
0.04528881
0.04532802
0.0453672
0.04540657
0.04544639
0.04548701
0.04552887
0.04557251
0.04561855
0.04566759
0.04572008
0.04577612
0.04583524
0.04589677
0.04596012
0.04602486
0.04609068
0.04615736
0.0462247
0.04629255
0.0463608
0.04642937
0.04649817
0.04656717
0.04663631
0.04670556
0.04677492
0.04684436
0.04691388
0.0469835
0.04705321
0.04712303
0.04719299
0.0472631
0.04733338
0.04740387
0.04747455
0.04754546
0.04761661
0.04768798
0.04775956
0.04783132
0.04790321
0.04797516
0.04804714
0.048119
0.04819063
0.04826215
0.04833379
0.04840569
0.04847779
0.04854993
0.04862203
0.04869401
0.04876582
0.04883738
0.0489086
0.04897941
0.04904975
0.04911955
0.04918877
0.04925738
0.04932536
0.0493927
0.04945943
0.04952556
0.04959114
0.04965622
0.04972084
0.04978508
0.04984899
0.04991265
0.04997611
0.05003946
0.05010274
0.05016601
0.05022931
0.05029267
0.05035613
0.0504197
0.05048337
0.05054714
0.050611
0.05067489
0.05073877
0.05080256
0.05086614
0.0509294
0.05099219
0.05105437
0.05111584
0.05117658
0.05123669
0.05129631
0.05135553
0.05141442
0.051473
0.05153129
0.05158928
0.05164687
0.05170403
0.05176091
0.0518176
0.05187419
0.0519307
0.05198717
0.05204361
0.05209999
0.05215628
0.05221247
0.05226852
0.05232443
0.05238021
0.05243583
0.05249097
0.05254552
0.05259947
0.05265283
0.05270561
0.05275785
0.05280958
0.05286084
0.05291168
0.05296213
0.05301223
0.05306202
0.05311154
0.05316081
0.05320986
0.05325871
0.0533074
0.05335593
0.05340432
0.05345259
0.05350075
0.05354879
0.05359673
0.05364457
0.0536923
0.05373993
0.05378743
0.05383481
0.05388205
0.05392913
0.05397604
0.05402275
0.05406926
0.05411552
0.05416152
0.05420724
0.05425265
0.05429772
0.05434253
0.05438744
0.05443207
0.05447619
0.05451973
0.05456267
0.054605
0.05464674
0.0546879
0.05472851
0.05476861
0.05480825
0.0548475
0.05488643
0.05492515
0.05496376
0.05500241
0.05504125
0.05508048
0.05512029
0.05516096
0.05520275
0.05524599
0.05529106
0.05533835
0.05538832
0.05544141
0.05549807
0.05555861
0.05562283
0.05568852
0.05574559
0.004138906
0.01457354
0.02186719
0.02980101
0.03783637
0.04631861
0.05534318
0.06456929
0.07426724