/*--------------------------------*- C++ -*----------------------------------*\
| =========                 |                                                 |
| \\      /  F ield         | foam-extend: Open Source CFD                    |
|  \\    /   O peration     | Version:     3.1                                |
|   \\  /    A nd           | Web:         http://www.extend-project.de       |
|    \\/     M anipulation  |                                                 |
\*---------------------------------------------------------------------------*/
FoamFile
{
    version     2.0;
    format      ascii;
    class       volScalarField;
    location    "3.5";
    object      nut;
}
// * * * * * * * * * * * * * * * * * * * * * * * * * * * * * * * * * * * * * //

dimensions      [0 2 -1 0 0 0 0];

internalField   nonuniform List<scalar> 
119952
(
2.67689e-05
1.752794e-05
1.791419e-05
2.002346e-05
2.152644e-05
2.050244e-05
1.988137e-05
1.947406e-05
1.916852e-05
1.890536e-05
1.865807e-05
1.841145e-05
1.815747e-05
1.789281e-05
1.761647e-05
1.732845e-05
1.702906e-05
1.671736e-05
1.638357e-05
1.602958e-05
2.003617e-05
1.907349e-05
1.878287e-05
2.399669e-05
2.334925e-05
2.310494e-05
2.292542e-05
2.299771e-05
2.301328e-05
2.460158e-05
1.718453e-05
1.79729e-05
2.001966e-05
2.240389e-05
2.510634e-05
2.806482e-05
3.122049e-05
3.447006e-05
3.77522e-05
4.311075e-05
0.0001695701
0.0002064979
0.0002444637
0.000281503
0.0003169036
0.0003507344
0.0003833278
0.0004149658
0.0004456816
0.0006231033
0.0006604258
0.0006975963
0.0007346633
0.0007721264
0.0008100996
0.0008485865
0.0008874593
0.0009263012
0.0009654519
0.00100433
0.001041501
0.001078724
0.001116408
0.001154562
0.001193016
0.001231722
0.001270713
0.001312259
0.001308912
0.001351549
0.001361037
0.001375449
0.001388329
0.001395879
0.001399631
0.001401847
0.001403229
0.001404002
0.00140431
0.001404232
0.001403811
0.001403103
0.00140219
0.001401196
0.001400307
0.001399821
0.001400282
0.001402628
0.001408666
0.001416499
0.001425861
0.001442525
0.001461599
0.0014714
0.001473317
0.001457586
0.001379717
0.001265403
0.001225858
0.001205545
0.001195473
0.001189824
0.001186812
0.001184879
0.001182952
0.001180355
0.001176667
0.001171618
0.001165031
0.001156811
0.001146934
0.001135441
0.001122423
0.001108011
0.001092387
0.001075829
0.00105876
0.001041319
0.001023592
0.00100575
0.0009880207
0.0009706502
0.0009537572
0.0009374093
0.0009216883
0.0009066529
0.0008923443
0.0008787885
0.0008659946
0.0008539536
0.0008426348
0.0008319875
0.0008219591
0.0008124985
0.0008035473
0.0007950529
0.0007869658
0.0007792372
0.000771823
0.0007646814
0.0007577736
0.0007510676
0.0007445333
0.0007381564
0.0007319405
0.0007260541
0.0007213675
0.0007174469
0.0007124193
0.0007072941
0.0007022988
0.000697475
0.0006927572
0.0006880304
0.0006833012
0.0006785528
0.0006737442
0.0006688625
0.0006638997
0.0006588696
0.0006537769
0.0006486227
0.0006434048
0.0006381277
0.0006327997
0.0006274272
0.000622015
0.0006165665
0.0006110845
0.0006055719
0.0006000329
0.0005944713
0.0005888909
0.0005832955
0.000577689
0.0005720754
0.0005664572
0.0005608369
0.0005552166
0.0005495985
0.0005439838
0.0005383731
0.0005327668
0.0005271653
0.0005215687
0.0005159816
0.0005104134
0.0005048627
0.0004993243
0.0004937937
0.0004882674
0.0004827425
0.0004772174
0.0004716933
0.0004661826
0.0004608738
0.0004567497
0.0003477383
0.0003490822
0.0003461933
0.0003468409
0.0003449782
0.0003366495
0.0003265268
0.0003176686
0.0003097635
0.0003026299
0.0002961026
0.0002900622
0.0002844143
0.0002790909
0.0002740396
0.0002692213
0.0002646036
0.0002601605
0.0002558704
0.0002517157
0.0002476822
0.0002437587
0.0002399373
0.0002362148
0.0002325783
0.0002290274
0.0002255577
0.0002221675
0.0002188526
0.000215613
0.0002124518
0.0002093784
0.0002064119
0.0002036
0.0002012211
0.0002014844
0.0002059439
0.0002094917
0.0002141734
0.0002195727
0.0002255378
0.0002321023
0.0002387786
0.000245886
0.0002532987
0.0002608321
0.0002666998
0.0002719884
0.0002771745
0.0002822791
0.000287317
0.0002923011
0.0002972427
0.0003021519
0.0003070375
0.0003119072
0.0003167687
0.0003216341
0.0003265095
0.0003313776
0.0003362415
0.0003411106
0.000345984
0.0003508617
0.0003557428
0.000360626
0.0003655104
0.0003703958
0.0003752883
0.0003801958
0.0005119565
0.0005227635
0.0005338122
0.000545045
0.0005563001
0.0005676152
0.0005791122
0.0005908163
0.0006027206
0.0006148044
0.0006270446
0.0006394219
0.0006519159
0.0006645003
0.0006771482
0.0006898306
0.0007025162
0.0007151836
0.0007278146
0.0007403927
0.0007529029
0.0007653305
0.0007776621
0.000789885
0.0008019869
0.0008139557
0.0008257819
0.0008374578
0.0008489788
0.0008603421
0.0008715466
0.0008825925
0.0008934812
0.0009042155
0.0009147993
0.0009252375
0.000935535
0.0009456969
0.0009557275
0.0009656299
0.0009754048
0.0009850479
0.0009945464
0.001003868
0.00101296
0.001021849
0.001030266
0.001038291
0.001045968
0.001053351
0.001060486
0.00106741
0.001074154
0.00108095
0.001086933
0.001092068
0.00109828
0.001106063
0.001115324
0.001125885
0.0011375
0.001149884
0.001162747
0.001175821
0.001188877
0.001201732
0.001214256
0.001226369
0.001238035
0.001249254
0.001260047
0.001270439
0.001280459
0.001290146
0.001299539
0.001308678
0.001317605
0.001326354
0.001334956
0.001343407
0.001351718
0.001359905
0.001367981
0.001375957
0.001383844
0.001391647
0.001399373
0.001407026
0.001414608
0.001422118
0.001429553
0.001436917
0.001444211
0.001451437
0.001458597
0.001465691
0.001472719
0.001479683
0.001486582
0.001493417
0.001500189
0.001506898
0.001513544
0.001520129
0.001526653
0.001533117
0.00153952
0.001545865
0.001552151
0.001558379
0.00156455
0.001570666
0.001576729
0.001582739
0.001588701
0.001594615
0.001600487
0.00160632
0.001612119
0.001617891
0.001623642
0.001629382
0.00163512
0.001640869
0.001646646
0.001652469
0.001658364
0.001664363
0.001670512
0.001676869
0.001683524
0.001690608
0.001698333
0.001707071
0.001717526
0.001731233
0.00175151
0.001787186
0.001798024
2.80376e-05
3.03783e-05
3.407446e-05
3.857003e-05
4.352635e-05
4.867546e-05
5.384503e-05
5.891793e-05
6.444897e-05
0.000238845
0.0002958773
0.0003565988
0.0004164362
0.0004727097
0.0005243458
0.0005713755
0.0006141174
0.0006531555
0.0009198501
0.0009541911
0.0009875446
0.001018456
0.001047089
0.001073979
0.001099506
0.001123889
0.001147256
0.001169305
0.001192115
0.001211692
0.001230239
0.001248803
0.001267739
0.001287186
0.001307254
0.001328053
0.001349539
0.001369903
0.001385697
0.001402785
0.001422465
0.001444632
0.001469157
0.001495927
0.001524868
0.001555844
0.001588768
0.001623278
0.001659282
0.0016971
0.00173634
0.001776908
0.001818789
0.001861885
0.001906048
0.001950959
0.002326129
0.002371956
0.002418574
0.002465494
0.00251237
0.002559082
0.002605504
0.002651639
0.002697314
0.002742414
0.002787159
0.002831479
0.002875166
0.00291822
0.002960699
0.003002498
0.003043856
0.003085066
0.003126719
0.003165496
0.003198094
0.003229104
0.003259119
0.003285871
0.0033084
0.003327466
0.003344124
0.003358895
0.003372191
0.003384408
0.003395897
0.003406961
0.00341787
0.003428883
0.003440253
0.003452248
0.003465142
0.003479355
0.003495479
0.003514104
0.003534315
0.003557248
0.003583685
0.003610706
0.003635221
0.003656245
0.003664375
0.003653973
0.003642215
0.003643995
0.003650356
0.003657102
0.003663892
0.003670262
0.003675751
0.003679933
0.003682413
0.003682844
0.003680917
0.00367636
0.003668942
0.003658479
0.003644835
0.003627922
0.003607697
0.003584162
0.00355736
0.003527424
0.003494601
0.003459191
0.003421506
0.003381832
0.003340348
0.003297095
0.003252761
0.003208234
0.00316422
0.003121316
0.003080045
0.003040886
0.003004319
0.002970449
0.002939074
0.00291008
0.002883384
0.002858886
0.002836466
0.002815991
0.00279733
0.00278035
0.00276492
0.002750919
0.002738228
0.002726752
0.002716446
0.002707272
0.002699222
0.002692487
0.002686521
0.002680513
0.002674577
0.00266891
0.002663494
0.002658199
0.002653085
0.002648065
0.002643126
0.002638228
0.002633331
0.002628412
0.002623453
0.002618437
0.002613351
0.002608185
0.002602935
0.002597597
0.00259217
0.002586651
0.002581043
0.002575345
0.002569564
0.002563704
0.002557773
0.002551778
0.002545726
0.002539626
0.002533486
0.002527314
0.002521118
0.002514903
0.002508676
0.002502443
0.002496209
0.002489975
0.002483747
0.002477526
0.002471316
0.002465118
0.002458937
0.00245277
0.00244663
0.002440509
0.002434433
0.002428394
0.002422479
0.002416805
0.002411912
0.002410978
0.002298422
0.002169825
0.002082918
0.002022555
0.001979671
0.001948644
0.001925721
0.001908414
0.00189502
0.001884361
0.001875607
0.00186818
0.001861671
0.001855795
0.001850352
0.001845208
0.001840266
0.001835462
0.001830749
0.001826096
0.001821484
0.001816903
0.001812353
0.001807834
0.001803363
0.001798947
0.00179461
0.001790375
0.001786275
0.001782356
0.001778693
0.001775412
0.00177276
0.001771292
0.001772187
0.001777561
0.001788816
0.001801212
0.001813884
0.001826912
0.001840496
0.001854535
0.001868916
0.001883571
0.001898452
0.001913529
0.001928778
0.001944178
0.001959711
0.001975362
0.00199112
0.002006974
0.002022911
0.002038922
0.002054993
0.002071113
0.002087271
0.002103456
0.002119654
0.002135846
0.002152011
0.00216813
0.002184186
0.002200162
0.002216043
0.002231818
0.002247484
0.00226305
0.002278532
0.002293653
0.002759729
0.002786801
0.002812542
0.002836456
0.002858693
0.002879552
0.002899337
0.002918319
0.002936739
0.002954791
0.00297263
0.00299037
0.003008094
0.003025853
0.00304367
0.003061598
0.003079721
0.003098073
0.003116664
0.003135483
0.003154511
0.003173724
0.003193088
0.003212571
0.003232133
0.003251737
0.003271348
0.003290932
0.003310459
0.0033299
0.003349232
0.003368432
0.003387482
0.003406365
0.003425069
0.003443583
0.003461896
0.003480001
0.003497886
0.003515537
0.003532931
0.003550032
0.003566769
0.003583006
0.003598489
0.0036129
0.003626497
0.003639666
0.003652584
0.003665327
0.003677959
0.00369045
0.003702764
0.003714698
0.003726451
0.003737935
0.003748959
0.003760108
0.003771715
0.00378388
0.003796688
0.00381017
0.003824306
0.003839036
0.003854272
0.003869911
0.003885845
0.003901972
0.0039182
0.003934451
0.003950641
0.003966691
0.003982542
0.003998148
0.004013482
0.004028525
0.004043268
0.004057712
0.004071859
0.004085715
0.004099288
0.004112584
0.004125613
0.004138383
0.004150902
0.004163178
0.004175217
0.004187024
0.004198603
0.004209985
0.004221249
0.004232423
0.004243526
0.004254569
0.004265567
0.004276536
0.00428749
0.004298446
0.004309406
0.004320292
0.00433108
0.00434176
0.004352327
0.004362778
0.004373109
0.004383317
0.004393403
0.004403366
0.004413208
0.004422929
0.004432532
0.004442019
0.004451393
0.004460658
0.004469819
0.004478882
0.004487855
0.004496749
0.004505573
0.004514343
0.004523074
0.004531786
0.004540504
0.004549257
0.00455808
0.004567017
0.004576125
0.004585474
0.004595158
0.004605304
0.004616085
0.004627747
0.004640651
0.004655305
0.004672476
0.004693128
0.004719026
0.004750325
0.00477834
4.567589e-05
6.089927e-05
8.547888e-05
0.0001182966
0.0001607981
0.0001851871
0.0002100616
0.0002358459
0.000263268
0.0003083261
0.001034534
0.001113216
0.001184058
0.001253302
0.00132059
0.001385592
0.001448076
0.001508387
0.001570184
0.00236372
0.002581204
0.002746233
0.002864171
0.002947037
0.003006085
0.003049383
0.003082128
0.003107588
0.003127766
0.003149056
0.003179767
0.003216011
0.003253392
0.003288242
0.003318446
0.003343111
0.003362104
0.003378321
0.003339517
0.003317122
0.003305007
0.003299327
0.003297028
0.003295948
0.003294712
0.003292411
0.003288513
0.003282967
0.003274531
0.003264403
0.003252944
0.003240297
0.0032267
0.003212279
0.003197127
0.003180663
0.003597633
0.003579743
0.003560407
0.003540085
0.00351873
0.003496597
0.00347398
0.003451214
0.003428441
0.003405857
0.003383883
0.003362675
0.003342238
0.003322733
0.003304393
0.003287417
0.00327197
0.003258203
0.003246219
0.003236134
0.003228083
0.003222247
0.003218694
0.00321757
0.003219018
0.003223125
0.003229988
0.003239581
0.003252016
0.003267406
0.003285544
0.003306443
0.003330111
0.003356559
0.00338563
0.003417338
0.003451079
0.00348739
0.003520946
0.003556448
0.00359365
0.003632323
0.00367229
0.003713376
0.003755356
0.003798036
0.003841186
0.003884645
0.00392832
0.003972001
0.004015543
0.004058899
0.004102035
0.004144918
0.004187639
0.004230237
0.004272616
0.004313832
0.004352348
0.004388897
0.004424315
0.004458161
0.004489765
0.00451904
0.004546398
0.004572287
0.004597072
0.004621063
0.004644541
0.004667766
0.004690986
0.004714452
0.004738413
0.004763135
0.004788886
0.004816009
0.004844872
0.004875858
0.004909039
0.004944593
0.004982951
0.005023238
0.005063707
0.005103203
0.005140375
0.005172657
0.005202188
0.005230981
0.00526089
0.005291573
0.005322253
0.005352202
0.00538081
0.005407527
0.005431834
0.005453243
0.005471308
0.005485627
0.005495851
0.00550168
0.00550287
0.005499237
0.005490663
0.005477104
0.005458592
0.005435247
0.005407273
0.005374953
0.005338633
0.005298705
0.005255602
0.005209805
0.005161881
0.005112427
0.005062019
0.005011176
0.004960335
0.00490982
0.004859784
0.004810729
0.004763573
0.004718972
0.004677415
0.004639266
0.004604361
0.004572459
0.00454339
0.004516983
0.004493062
0.004471458
0.004452011
0.004434581
0.004419037
0.004405228
0.004393112
0.004382605
0.004373411
0.004365036
0.004357288
0.004350236
0.00434381
0.004337935
0.00433254
0.004327564
0.004322946
0.004318616
0.004314511
0.00431058
0.004306778
0.004303067
0.004299413
0.004295784
0.004292154
0.004288506
0.004284818
0.004281073
0.004277259
0.004273372
0.004269397
0.004265335
0.004261186
0.004256953
0.004252639
0.004248249
0.0042438
0.004239285
0.004234718
0.004230114
0.004225474
0.004220811
0.004216134
0.004211451
0.004206773
0.004202104
0.004197459
0.004192838
0.004188261
0.004183721
0.004179253
0.004174834
0.004170539
0.004166317
0.004162331
0.004158415
0.004154791
0.00415118
0.00413815
0.004132605
0.004131995
0.00413437
0.004138358
0.004143066
0.004147921
0.004152596
0.004156912
0.004160784
0.004164187
0.00416713
0.004169638
0.004171747
0.004173492
0.004174907
0.004176022
0.004176863
0.004177455
0.004177819
0.004177977
0.004177954
0.004177776
0.004177467
0.004177061
0.004176595
0.004176113
0.004175669
0.00417533
0.004175193
0.00417539
0.004176141
0.004177786
0.004180874
0.004186138
0.004194303
0.004205172
0.004217776
0.004231554
0.004246189
0.004261428
0.004277103
0.004293115
0.004309401
0.004325921
0.004342653
0.004359579
0.004376686
0.004393971
0.004411429
0.004429059
0.00444686
0.004464833
0.004482974
0.004501283
0.004519756
0.004538389
0.004557176
0.004576106
0.004595165
0.004614336
0.004633601
0.004652938
0.004672326
0.004691736
0.004711146
0.004730515
0.004749839
0.004769127
0.004790022
0.004793731
0.004800414
0.00480863
0.004818233
0.00482914
0.004841061
0.004853765
0.004867131
0.004881083
0.004895558
0.004910508
0.004925903
0.00494173
0.004957987
0.004974683
0.004991831
0.005009442
0.005027526
0.00504609
0.005065132
0.005084644
0.005104611
0.005125009
0.005145807
0.005166971
0.00518846
0.005210233
0.005232248
0.005254462
0.005276833
0.005299322
0.005321888
0.005344494
0.005367105
0.00538969
0.005412217
0.005434658
0.005456983
0.005479161
0.005501157
0.005522926
0.005544408
0.005565517
0.00558613
0.005606096
0.005625228
0.005643622
0.00566151
0.005679039
0.005696274
0.005713282
0.005730018
0.005746615
0.005763201
0.00577898
0.005794423
0.005809855
0.005825327
0.005840902
0.005856666
0.005872691
0.005889003
0.005905615
0.005922523
0.005939709
0.005957142
0.005974785
0.005992601
0.006010553
0.006028603
0.0060467
0.006064792
0.006082831
0.006100776
0.00611859
0.006136247
0.006153721
0.006170994
0.00618805
0.006204875
0.006221461
0.006237802
0.006253895
0.006269739
0.006285337
0.006300692
0.006315809
0.006330698
0.006345365
0.006359819
0.006374065
0.006388107
0.006401946
0.006415581
0.00642901
0.006442228
0.006455227
0.006467996
0.006480551
0.006493032
0.006505492
0.006517958
0.006530454
0.006542908
0.006555247
0.006567448
0.006579499
0.006591394
0.006603133
0.006614715
0.006626143
0.006637419
0.006648548
0.006659534
0.006670383
0.006681104
0.006691707
0.006702203
0.006712608
0.00672294
0.00673322
0.006743473
0.00675373
0.006764029
0.006774414
0.006784941
0.006795677
0.006806707
0.00681814
0.006830117
0.00684282
0.006856493
0.006871453
0.006888113
0.006906985
0.006928649
0.006953675
0.006981563
0.007007278
4.398489e-05
7.866014e-05
0.0001521664
0.0005529344
0.0009584035
0.001837634
0.002396997
0.003058575
0.003765112
0.004325156
0.00470865
0.004996496
0.005231283
0.005362291
0.005477203
0.005566937
0.005634604
0.00568647
0.005721697
0.005749693
0.005776003
0.005829098
0.005924639
0.005955105
0.00595714
0.005947765
0.005932906
0.005914958
0.005894871
0.005873043
0.005847036
0.006159611
0.006160626
0.006152985
0.0061433
0.006132129
0.006119487
0.006105421
0.006090074
0.006073707
0.006056325
0.006038045
0.006019388
0.006000466
0.005981222
0.005961401
0.005940894
0.005919602
0.005897473
0.005874073
0.00584868
0.005821596
0.005792937
0.00576275
0.005731181
0.005698367
0.005664444
0.005629498
0.005593504
0.00555662
0.005518906
0.005480286
0.005440748
0.005400491
0.005359464
0.005318043
0.005275665
0.005233835
0.005182928
0.005134026
0.005087027
0.005041703
0.004997878
0.00495538
0.004914066
0.004873839
0.004834606
0.004796348
0.004759071
0.004722692
0.004687226
0.004652762
0.004619404
0.004587249
0.004556381
0.004526904
0.004498942
0.004472626
0.004448049
0.004425339
0.004404709
0.00438636
0.00437044
0.004357063
0.004346336
0.004338348
0.004333209
0.004331027
0.004332209
0.004337058
0.004345543
0.00435755
0.004372975
0.004391665
0.004413525
0.004438345
0.004465914
0.004495752
0.004527634
0.004561489
0.004597203
0.004634576
0.004673376
0.004713389
0.004754416
0.004796275
0.004838794
0.004881818
0.004925234
0.004968957
0.005012933
0.005057112
0.005101485
0.005146008
0.005190543
0.00523468
0.005277656
0.00531936
0.005360227
0.005400302
0.005439224
0.005476764
0.00551306
0.005548427
0.005583162
0.005617518
0.005651729
0.00568602
0.005720613
0.00575574
0.005791648
0.005828597
0.005866852
0.005906714
0.005948499
0.005992565
0.00603915
0.006088379
0.00614041
0.006194985
0.00625127
0.006308351
0.006365498
0.006421867
0.006477104
0.006531953
0.006587341
0.006643383
0.006699588
0.006755305
0.006809895
0.006862734
0.006913194
0.006960658
0.00700454
0.007044292
0.007079406
0.007109422
0.007133929
0.007152581
0.007165103
0.007171305
0.00717109
0.007164464
0.007151544
0.007132569
0.007107876
0.007077882
0.007043063
0.00700395
0.006961116
0.006915155
0.006866658
0.006816228
0.006764466
0.006711965
0.006659307
0.006607075
0.00655581
0.006505946
0.006457781
0.00641148
0.006367604
0.006326727
0.006289215
0.006255157
0.006224252
0.006196283
0.00617105
0.006148367
0.00612806
0.006109959
0.006093925
0.006079797
0.00606736
0.00605633
0.006046484
0.006037711
0.00602992
0.006023014
0.006016909
0.006011509
0.006006742
0.006002507
0.005998734
0.005995355
0.005992309
0.005989541
0.005986996
0.005984639
0.005982436
0.005980337
0.005978316
0.005976346
0.005974401
0.005972462
0.005970511
0.005968536
0.005966528
0.005964479
0.005962385
0.005960244
0.005958055
0.005955828
0.005953561
0.005951261
0.005948933
0.005946585
0.005944224
0.00594186
0.005939501
0.005937155
0.005934835
0.005932547
0.005930307
0.005928121
0.005926011
0.005923979
0.005922062
0.005920256
0.005918611
0.005917106
0.005915811
0.005914679
0.005913077
0.005911323
0.005909812
0.00590887
0.005908598
0.005908986
0.00590998
0.005911485
0.005913412
0.00591567
0.005918177
0.005920861
0.005923657
0.005926513
0.005929393
0.005932249
0.005935057
0.005937794
0.005940444
0.005942993
0.005945445
0.005947793
0.00595005
0.005952232
0.005954371
0.005956489
0.005958638
0.005960876
0.005963285
0.005965973
0.005969102
0.005972881
0.005977602
0.005983663
0.005991486
0.006001486
0.006013605
0.006027271
0.006042004
0.006057525
0.006073643
0.00609021
0.006107116
0.006124282
0.006141663
0.00615921
0.0061769
0.006194712
0.006212648
0.006230688
0.006248842
0.006267112
0.006285506
0.006304032
0.0063227
0.00634152
0.006360502
0.006379654
0.00639898
0.006418483
0.006438161
0.006458008
0.006478025
0.006498197
0.00651851
0.006538945
0.006559481
0.006580086
0.006600688
0.006621387
0.006640493
0.006658265
0.006675324
0.006692137
0.00670884
0.006725419
0.006741877
0.006758298
0.006774761
0.006791319
0.006808017
0.006824899
0.006842006
0.006859381
0.006877066
0.0068951
0.006913521
0.006932362
0.006951655
0.006971424
0.006991687
0.007012454
0.007033726
0.007055495
0.007077746
0.007100458
0.007123604
0.007147153
0.007171072
0.007195323
0.007219866
0.007244662
0.00726967
0.007294848
0.007320156
0.007345553
0.007371
0.007396455
0.007421875
0.007447212
0.007472412
0.007497408
0.007522123
0.007546458
0.007570312
0.007593586
0.007616292
0.007638526
0.007660376
0.007681895
0.007703126
0.007724076
0.007744801
0.007765313
0.007785388
0.007805137
0.007824695
0.007844122
0.00786347
0.007882797
0.007902145
0.007921534
0.00794097
0.007960447
0.007979947
0.007999446
0.008018911
0.008038303
0.008057612
0.00807691
0.008096198
0.008115455
0.008134657
0.008153781
0.008172808
0.008191719
0.008210499
0.008229132
0.008247604
0.008265902
0.008284014
0.008301931
0.008319646
0.008337152
0.008354446
0.008371523
0.008388385
0.008405029
0.008421458
0.008437672
0.008453671
0.008469457
0.008485033
0.008500401
0.008515563
0.008530524
0.008545287
0.008559857
0.008574242
0.008588445
0.008602459
0.00861627
0.008629857
0.008643343
0.008656837
0.008670362
0.008683796
0.008697077
0.008710185
0.008723114
0.008735863
0.008748435
0.008760834
0.008773064
0.008785133
0.008797051
0.008808828
0.008820479
0.008832021
0.008843475
0.008854866
0.008866223
0.008877582
0.008888987
0.008900487
0.008912145
0.008924035
0.00893625
0.008948903
0.008962135
0.008976123
0.008991085
0.00900729
0.009025057
0.00904474
0.009066679
0.009091045
0.009117176
0.009140999
2.501925e-05
4.342545e-05
7.005323e-05
0.0002936292
0.0004901377
0.0009122757
0.001287905
0.00161726
0.00201803
0.002383539
0.002755329
0.003206835
0.003717504
0.004257167
0.004804701
0.005437863
0.00676232
0.00717197
0.007525609
0.007770864
0.00790462
0.007971746
0.007989682
0.007970176
0.007921478
0.00773431
0.007353128
0.00699853
0.006679341
0.006399518
0.006157614
0.005937777
0.005743811
0.005604692
0.005503587
0.005428369
0.00537544
0.005344933
0.005328992
0.005336054
0.005328236
0.005355813
0.00549959
0.005522335
0.00556929
0.005646665
0.005728685
0.005809455
0.005893322
0.005983011
0.006078736
0.006178174
0.006288331
0.006403009
0.006527051
0.00660335
0.006601781
0.006598275
0.006592958
0.00658592
0.006577211
0.006566805
0.006554748
0.006541077
0.006525817
0.006508999
0.006490638
0.006470738
0.006449296
0.006426307
0.006401798
0.006375754
0.006348176
0.006319124
0.006288706
0.0062572
0.006225372
0.006193239
0.006160773
0.006127633
0.006092756
0.006056019
0.006018096
0.005979391
0.005940115
0.00590043
0.005860465
0.005820383
0.005780322
0.005740429
0.005700825
0.005661651
0.005623064
0.005585211
0.005548216
0.005512205
0.005477312
0.005443679
0.005411461
0.005380816
0.005351947
0.005325071
0.005300374
0.005278013
0.005258127
0.005240859
0.005226338
0.005214695
0.005205989
0.005199833
0.005196034
0.005194778
0.005196192
0.005200402
0.005207586
0.005218327
0.005232562
0.005250063
0.00527058
0.005293936
0.005320007
0.005348648
0.005379659
0.005412813
0.005447896
0.005484706
0.005523042
0.005562723
0.005603596
0.005645526
0.005688396
0.005732114
0.005776597
0.005821778
0.00586758
0.00591386
0.005960352
0.006006645
0.006052532
0.006098117
0.006143443
0.006188341
0.00623265
0.006276402
0.006319776
0.006362981
0.006406216
0.006449679
0.006493565
0.006538077
0.006583434
0.00662988
0.006677669
0.006727069
0.006778372
0.006831886
0.006887936
0.006946788
0.007008611
0.007073529
0.007141462
0.007212001
0.007284555
0.007358581
0.007433579
0.007509197
0.007585576
0.007663057
0.00774167
0.007821051
0.007900629
0.007979768
0.008057786
0.008133959
0.008207564
0.008277941
0.008344454
0.008406478
0.008463403
0.008514653
0.008559699
0.00859808
0.008629411
0.008653398
0.008669844
0.00867865
0.008679918
0.008674014
0.008661327
0.008642297
0.008617424
0.008587255
0.008552354
0.008513215
0.008470434
0.00842477
0.008376969
0.008327756
0.008277817
0.008227785
0.00817823
0.008129653
0.008082501
0.008037164
0.007993935
0.007952979
0.007914489
0.007878951
0.007846644
0.00781752
0.007791288
0.00776773
0.007746644
0.007727852
0.007711172
0.007696417
0.007683376
0.007671851
0.007661689
0.007652769
0.007644982
0.00763822
0.00763238
0.007627351
0.007623077
0.007619434
0.007616372
0.007613808
0.007611669
0.007609918
0.007608485
0.007607327
0.007606402
0.007605672
0.007605101
0.007604659
0.00760432
0.007604061
0.007603862
0.007603709
0.007603587
0.007603487
0.007603403
0.007603329
0.007603263
0.007603205
0.007603156
0.007603117
0.007603093
0.007603089
0.007603109
0.007603161
0.007603252
0.00760339
0.007603583
0.007603843
0.007604179
0.007604604
0.007605128
0.00760577
0.007606539
0.007607459
0.007608534
0.007609793
0.007611223
0.007612764
0.007614293
0.007615777
0.007617276
0.007618875
0.007620638
0.007622608
0.007624807
0.007627245
0.007629919
0.00763282
0.007635929
0.007639224
0.007642678
0.007646261
0.007649956
0.00765373
0.007657559
0.007661423
0.007665304
0.007669191
0.007673079
0.00767697
0.007680873
0.007684802
0.007688796
0.007692891
0.007697142
0.007701627
0.007706446
0.007711736
0.007717672
0.007724469
0.007732387
0.007741685
0.007752572
0.007765042
0.007778833
0.007793633
0.00780922
0.007825422
0.00784211
0.007859181
0.007876554
0.007894167
0.007911973
0.007929935
0.007948028
0.007966231
0.007984539
0.008002958
0.008021477
0.008040107
0.00805886
0.008077747
0.008096785
0.00811599
0.008135377
0.00815496
0.008174749
0.008194741
0.008214968
0.008235403
0.008256041
0.008276863
0.008297837
0.008318919
0.008340123
0.008361489
0.008383022
0.00840446
0.008425666
0.008446708
0.00846766
0.00848852
0.008509252
0.008529826
0.008550256
0.008570569
0.008590798
0.008610972
0.008631126
0.008651299
0.008671533
0.008691873
0.008712364
0.008733052
0.008753983
0.008775202
0.008796749
0.008818661
0.008840967
0.008863691
0.008886847
0.008910445
0.008934485
0.008958963
0.008983868
0.009009183
0.009034889
0.009060959
0.009087364
0.009114072
0.009141049
0.009168258
0.00919566
0.009223216
0.009250882
0.009278615
0.009306364
0.009334075
0.009361686
0.009389129
0.009416327
0.009443206
0.009469703
0.009495803
0.00952154
0.009546954
0.009572077
0.00959693
0.009621523
0.009645872
0.009669983
0.009693795
0.009717326
0.009740642
0.009763793
0.009786818
0.009809752
0.009832625
0.009855456
0.009878255
0.009901027
0.00992377
0.009946477
0.00996914
0.00999175
0.01
0.01
0.01
0.01
0.01
0.01
0.01
0.01
0.01
0.01
0.01
0.01
0.01
0.01
0.01
0.01
0.01
0.01
0.01
0.01
0.01
0.01
0.01
0.01
0.01
0.01
0.01
0.01
0.01
0.01
0.01
0.01
0.01
0.01
0.01
0.01
0.01
0.01
0.01
0.01
0.01
0.01
0.01
0.01
0.01
0.01
0.01
0.01
0.01
0.01
0.01
0.01
0.01
0.01
0.01
0.01
0.01
0.01
0.01
0.01
0.01
0.01
0.01
0.01
0.01
0.01
0.01
0.01
0.01
0.01
0.01
2.464937e-05
3.984784e-05
7.786522e-05
0.0002546433
0.000423719
0.0007129618
0.0009148711
0.001140055
0.001397047
0.001636716
0.001905773
0.002243555
0.002613343
0.003026015
0.003527105
0.00457925
0.005003155
0.005434362
0.005861786
0.006280404
0.006696041
0.007101791
0.007483363
0.007829896
0.008131369
0.00837795
0.008568231
0.008704421
0.008763716
0.008759813
0.008702665
0.00850484
0.007984922
0.007495143
0.007040783
0.006619839
0.006240465
0.00590562
0.005615887
0.005371584
0.005165092
0.004989756
0.004850104
0.004746274
0.004676685
0.004633433
0.004611023
0.004608524
0.004622593
0.004654348
0.004698705
0.004766893
0.004853057
0.004927089
0.005004358
0.005105236
0.005222843
0.005348886
0.005481473
0.005620986
0.005766345
0.005917129
0.006072259
0.006230132
0.006388283
0.006543849
0.006703675
0.006759118
0.006780567
0.00679946
0.006816016
0.006830339
0.00684248
0.006852505
0.006860467
0.006866382
0.006870231
0.006871983
0.006871606
0.006869066
0.006864328
0.006857379
0.006848322
0.006838055
0.006826638
0.00681384
0.006798804
0.006781715
0.006762754
0.006742013
0.006719414
0.006694963
0.006668893
0.006641385
0.006612588
0.006582599
0.00655153
0.00651951
0.006486683
0.006453198
0.006419207
0.00638486
0.006350318
0.006315743
0.006281302
0.006247155
0.006213465
0.006180398
0.006148129
0.00611684
0.006086731
0.006058015
0.006030898
0.006005577
0.005982237
0.00596106
0.005942221
0.005925888
0.00591221
0.005901269
0.005893104
0.005887763
0.005885296
0.005885719
0.00588889
0.005894185
0.005901675
0.005911527
0.005923942
0.005939453
0.005958031
0.00597951
0.00600375
0.006030598
0.006059894
0.006091469
0.006125158
0.006160803
0.006198258
0.006237386
0.006278063
0.006320179
0.00636363
0.006408321
0.006454142
0.006500948
0.006548539
0.006596658
0.006645107
0.006693835
0.006742825
0.006791986
0.00684122
0.006890512
0.006939955
0.006989683
0.007039848
0.007090604
0.007142114
0.007194563
0.007248175
0.007303181
0.007359825
0.007418369
0.007479097
0.007542313
0.007608323
0.007677402
0.007749759
0.007825533
0.007904734
0.007987182
0.008072545
0.008160472
0.008250639
0.008342796
0.008436884
0.008532955
0.008630921
0.008730463
0.00883112
0.008932319
0.009033363
0.009133384
0.00923134
0.009326718
0.009418963
0.009507403
0.009591318
0.009669985
0.009742707
0.009808845
0.009867833
0.0099192
0.009962582
0.009997733
0.01
0.01
0.01
0.01
0.01
0.01
0.01
0.009993177
0.009963175
0.00992884
0.009890948
0.009850274
0.009807573
0.009763566
0.009718926
0.009674264
0.00963013
0.009587003
0.009545286
0.009505313
0.009467362
0.009431634
0.009398224
0.009367332
0.009339292
0.00931416
0.009291644
0.009271518
0.009253585
0.009237666
0.009223584
0.009211169
0.009200272
0.009190766
0.009182535
0.009175469
0.009169461
0.009164407
0.009160192
0.00915678
0.009154056
0.009151947
0.00915038
0.009149296
0.009148636
0.009148348
0.009148387
0.00914871
0.009149279
0.009150061
0.009151025
0.009152147
0.009153404
0.009154777
0.009156251
0.009157814
0.009159456
0.009161169
0.009162948
0.009164791
0.009166696
0.009168662
0.009170693
0.009172789
0.009174955
0.009177195
0.009179515
0.00918192