/*--------------------------------*- C++ -*----------------------------------*\
| =========                 |                                                 |
| \\      /  F ield         | foam-extend: Open Source CFD                    |
|  \\    /   O peration     | Version:     3.1                                |
|   \\  /    A nd           | Web:         http://www.extend-project.de       |
|    \\/     M anipulation  |                                                 |
\*---------------------------------------------------------------------------*/
FoamFile
{
    version     2.0;
    format      ascii;
    class       volScalarField;
    location    "3.5";
    object      omega;
}
// * * * * * * * * * * * * * * * * * * * * * * * * * * * * * * * * * * * * * //

dimensions      [0 0 -1 0 0 0 0];

internalField   nonuniform List<scalar> 
119952
(
164.0083
206.5022
196.1563
172.3247
155.8684
157.8052
161.3512
165.7218
170.6148
175.8859
181.4588
187.2928
193.3743
199.7098
206.3173
213.2252
220.4745
228.131
236.3428
245.6249
205.7058
206.3023
209.8427
176.3524
174.189
173.6708
173.3572
173.0037
170.8302
150.2583
355.7197
289.5599
242.1835
209.8664
186.6184
168.9745
154.8711
143.1959
133.2239
122.0353
102.7217
90.21334
81.82303
75.58262
70.52744
66.17774
62.34143
58.89776
55.77834
44.33023
42.31803
40.316
38.39215
36.59879
34.95211
33.44922
32.08131
30.8321
29.69979
28.67771
27.67115
26.69996
25.77026
24.88464
24.04439
23.24489
22.47136
21.71444
21.48116
21.28112
20.92078
20.59696
20.32274
20.07943
19.83483
19.59496
19.36704
19.15254
18.95169
18.76468
18.59142
18.43138
18.28361
18.14662
18.01797
17.89292
17.76185
17.61092
17.44677
17.29069
17.08848
16.86706
16.74983
16.69287
16.68788
16.91473
17.81478
19.30758
19.63585
19.75697
19.7683
19.74
19.69043
19.63686
19.59004
19.55595
19.53788
19.53778
19.55676
19.59532
19.65341
19.73057
19.82599
19.93863
20.06702
20.20857
20.35893
20.51724
20.68324
20.8555
21.03163
21.21025
21.39013
21.56976
21.74792
21.92356
22.09561
22.26316
22.42555
22.58246
22.734
22.88057
23.02258
23.16048
23.29534
23.42792
23.5586
23.68824
23.81756
23.94728
24.07799
24.21018
24.34425
24.48003
24.61641
24.74373
24.8315
24.91784
25.09317
25.2962
25.5155
25.73925
25.96506
26.19146
26.41888
26.64241
26.86288
27.08093
27.29669
27.50992
27.72102
27.93023
28.1379
28.34429
28.54966
28.75438
28.95884
29.1635
29.36883
29.57529
29.7833
29.9933
30.20572
30.42099
30.63954
30.86175
31.08811
31.31908
31.55511
31.79667
32.04424
32.29835
32.55952
32.82828
33.10517
33.39045
33.6838
33.98536
34.29567
34.61524
34.94459
35.28424
35.63461
35.99575
36.36607
36.72517
37.00724
38.81531
42.44436
45.56348
48.05609
50.19292
51.91494
53.30733
54.46911
55.46547
56.34136
57.13416
57.86917
58.56644
59.24012
59.90123
60.55745
61.21501
61.87938
62.55501
63.24547
63.95375
64.68229
65.43295
66.20664
67.00695
67.83451
68.69049
69.57611
70.49278
71.44145
72.42192
73.43198
74.46508
75.49889
76.38452
75.96638
74.20809
72.59746
71.06754
69.60941
68.2112
66.8629
65.56347
64.30883
63.09579
61.91779
60.75483
59.61341
58.50163
57.42129
56.37276
55.35614
54.37138
53.41828
52.49659
51.60608
50.74668
49.91788
49.11583
48.33657
47.58419
46.85917
46.15948
45.48368
44.83074
44.1997
43.58957
42.99915
42.42625
41.86646
32.93982
32.25547
31.47881
30.64662
29.83198
29.05918
28.34333
27.69213
27.10615
26.58187
26.11327
25.69299
25.31342
24.9674
24.64855
24.35146
24.07169
23.80568
23.55072
23.30478
23.06651
22.835
22.60973
22.39039
22.17687
21.96914
21.76722
21.57111
21.38078
21.19618
21.01724
20.84385
20.67591
20.51327
20.35579
20.2033
20.05564
19.91264
19.77414
19.64001
19.51014
19.38454
19.26334
19.14712
19.0372
18.93341
18.8333
18.73877
18.64934
18.56443
18.48355
18.40634
18.3326
18.26955
18.22891
18.13976
18.02274
17.87871
17.71481
17.53992
17.36284
17.19126
17.0308
16.88481
16.75457
16.63983
16.53926
16.45096
16.37287
16.30291
16.23925
16.18033
16.12485
16.07183
16.02053
15.97038
15.92102
15.87216
15.82363
15.77554
15.72792
15.68075
15.63404
15.58781
15.54209
15.49689
15.45224
15.40817
15.36471
15.32189
15.27975
15.23829
15.1975
15.1574
15.11797
15.07921
15.04112
15.00369
14.96691
14.93077
14.89526
14.86035
14.82604
14.79232
14.75915
14.72654
14.69446
14.6629
14.63184
14.60126
14.57114
14.54147
14.51223
14.48339
14.45495
14.42688
14.39915
14.37175
14.34465
14.31782
14.29124
14.26487
14.23866
14.21258
14.18656
14.16052
14.13438
14.10798
14.08117
14.05366
14.02509
13.99483
13.96184
13.92419
13.87784
13.81354
13.71148
13.54447
13.70415
494.7073
402.3486
345.4025
306.231
276.7826
253.0664
233.0891
215.7937
199.9613
170.2936
140.4634
121.6606
108.9554
99.74183
92.62568
86.84723
81.97303
77.74158
61.72392
59.11439
56.62598
54.25402
52.05927
50.0618
48.25425
46.61971
45.13796
43.78715
42.6196
41.48685
40.37463
39.29994
38.2643
37.26869
36.31351
35.39819
34.51822
33.83313
33.26793
32.61519
31.92907
31.21983
30.49668
29.76731
29.03853
28.3162
27.60283
26.89541
26.20227
25.52748
24.86543
24.21464
23.57623
22.9519
22.34437
21.76593
19.4535
18.98085
18.52954
18.0951
17.67405
17.26509
16.86754
16.48124
16.10571
15.74029
15.38661
15.0444
14.7122
14.38959
14.07664
13.77302
13.47957
13.19982
12.94063
12.69815
12.45725
12.22696
12.01373
11.81403
11.62337
11.44017
11.26453
11.09604
10.93422
10.77874
10.62929
10.48554
10.34714
10.21364
10.08452
9.959112
9.836619
9.716343
9.598204
9.482887
9.370173
9.261374
9.163895
9.079985
9.008066
8.950112
8.923037
8.924311
8.911983
8.872823
8.830857
8.791842
8.756107
8.723563
8.693988
8.66729
8.643467
8.622562
8.604642
8.589778
8.578041
8.569492
8.564187
8.56218
8.56353
8.568313
8.576614
8.588437
8.603651
8.622082
8.643577
8.668098
8.695886
8.727494
8.762161
8.798615
8.835871
8.873094
8.909531
8.944447
8.977048
9.007146
9.035093
9.06107
9.085194
9.107593
9.12841
9.147773
9.165806
9.182641
9.198407
9.213215
9.22716
9.240271
9.252438
9.263511
9.273511
9.282177
9.291065
9.301692
9.313268
9.325562
9.338614
9.352707
9.367607
9.383445
9.400191
9.417854
9.436439
9.455905
9.476208
9.497308
9.519153
9.541679
9.564811
9.588475
9.612603
9.637131
9.661998
9.687146
9.712514
9.738049
9.763698
9.789416
9.815158
9.840888
9.866573
9.892189
9.917717
9.943145
9.968461
9.993667
10.01877
10.04377
10.06868
10.09351
10.11829
10.14303
10.16773
10.19243
10.2171
10.24178
10.2664
10.29097
10.31515
10.33853
10.35912
10.36527
10.69547
11.11607
11.43096
11.66636
11.84322
11.97676
12.07927
12.15945
12.22372
12.27668
12.32161
12.36081
12.39586
12.42787
12.45758
12.4855
12.51197
12.53725
12.56153
12.58496
12.60765
12.62968
12.65109
12.67197
12.69225
12.71199
12.73112
12.74956
12.76718
12.78375
12.79884
12.81166
12.82058
12.82194
12.80848
12.76993
12.70395
12.63673
12.57104
12.50601
12.44078
12.3757
12.31124
12.24771
12.18532
12.12417
12.06429
12.00572
11.94846
11.89249
11.83778
11.78427
11.73191
11.68065
11.63044
11.58124
11.533
11.48568
11.43927
11.39377
11.34919
11.3055
11.2627
11.22078
11.17975
11.13956
11.10018
11.06154
11.02358
10.98687
9.841101
9.781412
9.730402
9.68579
9.645209
9.607249
9.570882
9.535361
9.500181
9.465029
9.429742
9.394281
9.358693
9.323085
9.287601
9.252286
9.217109
9.182121
9.147401
9.113026
9.079067
9.045585
9.012628
8.980238
8.948444
8.917271
8.886733
8.856837
8.827585
8.798974
8.771002
8.74366
8.71694
8.690833
8.665327
8.640411
8.616077
8.592319
8.569137
8.546539
8.524553
8.503234
8.482687
8.463116
8.444871
8.428248
8.41266
8.39762
8.382932
8.368478
8.354175
8.34005
8.326321
8.313957
8.301893
8.288927
8.275853
8.26213
8.247266
8.231068
8.213403
8.194277
8.173835
8.15233
8.130076
8.107401
8.08462
8.062003
8.039766
8.018077
7.997075
7.976853
7.957464
7.938923
7.921216
7.904313
7.888169
7.872735
7.857959
7.843791
7.830185
7.817099
7.804495
7.79234
7.780606
7.76927
7.758309
7.74771
7.737458
7.727503
7.717746
7.708147
7.698686
7.689345
7.680108
7.670957
7.661877
7.652849
7.643874
7.635021
7.62631
7.617742
7.609318
7.601032
7.592885
7.584872
7.576989
7.569233
7.561597
7.554078
7.546669
7.539367
7.532165
7.525058
7.518039
7.511101
7.504237
7.497439
7.490696
7.483998
7.477331
7.470682
7.464033
7.45736
7.450638
7.443832
7.436897
7.429774
7.422384
7.414614
7.406302
7.397207
7.386961
7.37501
7.360541
7.342654
7.320569
7.297032
7.280698
521.7525
466.7328
420.0878
383.5312
354.7725
330.9918
310.1772
292.6015
278.2947
269.1576
131.9403
126.376
121.2396
116.4396
111.9455
107.728
103.7622
100.0018
96.18253
73.11664
67.0692
63.04749
60.37252
58.43459
56.8773
55.52205
54.28168
53.10953
52.00707
50.79419
49.41373
47.98845
46.6121
45.33209
44.16044
43.09025
42.10766
41.18372
40.85057
40.2769
39.56562
38.79019
37.99426
37.20366
36.43341
35.69138
34.98279
34.31039
33.66122
33.03725
32.4338
31.84587
31.27264
30.71457
30.17365
29.66377
27.06873
26.62255
26.20227
25.80484
25.4238
25.0555
24.69835
24.35148
24.01418
23.68494
23.36519
23.05564
22.75394
22.459
22.17064
21.88863
21.61256
21.34197
21.07603
20.81425
20.55692
20.30256
20.04976
19.79764
19.54552
19.29253
19.03784
18.78044
18.51993
18.25664
17.98927
17.7175
17.44147
17.16181
16.87862
16.59297
16.30327
16.00504
15.7357
15.46345
15.18844
14.91172
14.6348
14.35898
14.08518
13.81414
13.54637
13.28242
13.02286
12.76776
12.51725
12.27172
12.03158
11.79726
11.56962
11.34982
11.13887
10.93636
10.7382
10.54472
10.35841
10.17943
10.0063
9.837855
9.673934
9.514711
9.360312
9.210743
9.065922
8.925717
8.789949
8.658399
8.530804
8.406881
8.286337
8.168982
8.054827
7.944186
7.837615
7.735528
7.640055
7.552431
7.471829
7.397689
7.33002
7.268805
7.206151
7.143126
7.082459
7.025285
6.971812
6.921906
6.875434
6.832342
6.792598
6.756163
6.722984
6.693003
6.666161
6.642401
6.621662
6.603886
6.589014
6.576987
6.567739
6.561194
6.557263
6.555849
6.556852
6.560174
6.565722
6.573359
6.582874
6.594028
6.606596
6.620384
6.635253
6.651147
6.668134
6.685915
6.703756
6.721121
6.737599
6.75286
6.76699
6.780145
6.792418
6.803887
6.814621
6.824675
6.834094
6.842907
6.851135
6.858843
6.865999
6.872651
6.879082
6.88571
6.892579
6.899513
6.906529
6.91366
6.920931
6.928363
6.93598
6.943815
6.951896
6.96024
6.968858
6.977758
6.986945
6.996417
7.006173
7.016202
7.026497
7.037052
7.047855
7.058884
7.070135
7.081585
7.093213
7.105002
7.116929
7.128976
7.141111
7.153332
7.165614
7.177933
7.190282
7.202642
7.214999
7.227343
7.23966
7.251944
7.26418
7.276368
7.288487
7.300543
7.312502
7.32438
7.336104
7.347703
7.359031
7.370223
7.381158
7.391708
7.411418
7.422262
7.427105
7.42833
7.427601
7.426013
7.424277
7.42281
7.421849
7.421504
7.421811
7.422753
7.42429
7.426363
7.428911
7.431872
7.435188
7.438806
7.442677
7.446756
7.451002
7.455374
7.45983
7.464333
7.468838
7.473299
7.477659
7.481851
7.485786
7.489341
7.492336
7.494487
7.495375
7.494408
7.490888
7.484305
7.475218
7.46462
7.452928
7.440448
7.427465
7.41416
7.400646
7.386997
7.373266
7.359484
7.34568
7.331877
7.318086
7.30432
7.290587
7.276893
7.263244
7.249646
7.236103
7.222621
7.209202
7.195856
7.182589
7.169411
7.156334
7.143369
7.130526
7.11782
7.105266
7.092882
7.080684
7.068696
7.056872
7.044036
7.052977
7.057959
7.059883
7.059406
7.057113
7.053456
7.048677
7.042893
7.036176
7.028587
7.020173
7.010968
7.001003
6.990306
6.978905
6.966832
6.954126
6.940828
6.926987
6.912653
6.897884
6.882738
6.867275
6.851558
6.835645
6.819593
6.803455
6.78728
6.771111
6.754989
6.738949
6.723022
6.707236
6.691615
6.676179
6.660946
6.645933
6.631158
6.616636
6.60239
6.588446
6.574842
6.561627
6.54887
6.536642
6.525018
6.513918
6.503198
6.492769
6.482587
6.472604
6.462834
6.453209
6.44357
6.434322
6.425287
6.416335
6.407384
6.398304
6.388982
6.379328
6.369301
6.358885
6.348092
6.336958
6.325539
6.313904
6.302121
6.29026
6.278389
6.266577
6.254885
6.243364
6.232055
6.220991
6.210192
6.199675
6.18945
6.17952
6.169887
6.160548
6.1515
6.142734
6.134243
6.126018
6.118047
6.11032
6.102826
6.095553
6.088491
6.081632
6.074968
6.068494
6.062206
6.056102
6.050181
6.044443
6.038891
6.033508
6.02821
6.022961
6.017747
6.012554
6.007415
6.002361
5.997398
5.992524
5.98774
5.98304
5.978422
5.973881
5.969414
5.965018
5.960686
5.956416
5.952201
5.948037
5.943918
5.939835
5.935783
5.931752
5.927731
5.923709
5.91967
5.915596
5.911465
5.907248
5.902908
5.898397
5.893648
5.888573
5.88305
5.876911
5.869943
5.861876
5.852487
5.841657
5.830056
5.819806
320.9914
240.725
310.3152
142.8088
111.3783
77.86007
68.09639
59.74978
53.23076
50.18962
49.20972
48.67666
48.2999
48.64816
48.88979
49.13936
49.39554
49.61431
49.77415
49.81932
49.75201
49.41904
48.61515
48.20342
47.86824
47.49829
47.06952
46.58031
46.03584
45.43642
44.78345
42.92515
42.16155
41.38075
40.59136
39.80385
39.02576
38.26119
37.51239
36.78119
36.06784
35.37022
34.68844
34.02041
33.36683
32.72932
32.10828
31.50449
30.91904
30.35143
29.8025
29.27395
28.76472
28.27273
27.79664
27.33544
26.8884
26.4549
26.03393
25.62552
25.22936
24.84423
24.46934
24.10468
23.74939
23.40373
23.06437
22.72495
22.43043
22.13771
21.84581
21.55651
21.27119
20.99073
20.71568
20.44645
20.18331
19.92651
19.67628
19.43228
19.19426
18.96244
18.73705
18.51808
18.30533
18.09846
17.8971
17.70082
17.50885
17.32052
17.13561
16.95382
16.77463
16.5973
16.42108
16.24516
16.06884
15.89119
15.71072
15.52653
15.33856
15.14656
14.95063
14.75051
14.54666
14.33839
14.1283
13.91541
13.69962
13.48166
13.26234
13.04223
12.82179
12.60148
12.38179
12.16318
11.94604
11.73074
11.51772
11.30741
11.10027
10.89678
10.69747
10.5029
10.31342
10.12896
9.948249
9.770881
9.597814
9.429515
9.265443
9.104928
8.94782
8.794309
8.64458
8.498708
8.356696
8.218507
8.084059
7.953251
7.825971
7.702112
7.581566
7.464288
7.350327
7.239922
7.13339
7.031009
6.933368
6.840973
6.753602
6.670682
6.591624
6.515641
6.441412
6.368866
6.298942
6.23235
6.169288
6.109715
6.053566
6.000809
5.951415
5.905341
5.862528
5.822912
5.786423
5.75299
5.72254
5.694997
5.670286
5.648328
5.629045
5.612352
5.598161
5.586374
5.576889
5.5696
5.5644
5.561173
5.559793
5.560127
5.562045
5.565416
5.570103
5.575966
5.582853
5.590591
5.598998
5.607922
5.617261
5.626954
5.636699
5.646179
5.655172
5.663591
5.671525
5.679029
5.686139
5.692883
5.699284
5.70537
5.711156
5.716686
5.722041
5.727328
5.732593
5.737826
5.743022
5.748196
5.753352
5.758513
5.763681
5.768887
5.774138
5.779446
5.78482
5.790269
5.795805
5.801426
5.807134
5.812943
5.818854
5.824871
5.830994
5.837225
5.843563
5.850006
5.856551
5.863193
5.869928
5.876751
5.883657
5.890632
5.897674
5.904773
5.911924
5.919116
5.926341
5.933593
5.94086
5.948136
5.955411
5.962676
5.969921
5.977138
5.984311
5.991434
5.998485
6.00546
6.012338
6.019119
6.025775
6.032273
6.038987
6.0457
6.052108
6.057978
6.06325
6.067944
6.072109
6.075821
6.079153
6.082176
6.084958
6.087559
6.090028
6.09241
6.094729
6.097023
6.099307
6.101597
6.103902
6.106229
6.108573
6.110934
6.113305
6.115672
6.118012
6.120308
6.122528
6.124631
6.126565
6.128257
6.129608
6.130491
6.13075
6.130189
6.128633
6.12594
6.122191
6.117684
6.112641
6.107188
6.101422
6.095426
6.089261
6.082973
6.076589
6.070139
6.06364
6.057104
6.050532
6.043937
6.037315
6.030666
6.023986
6.017273
6.010522
6.003727
5.996886
5.989994
5.983049
5.976051
5.968999
5.961898
5.954745
5.947547
5.940312
5.93305
5.925771
5.918493
5.911251
5.903998
5.897925
5.892727
5.888111
5.883844
5.879788
5.875843
5.871929
5.867952
5.863842
5.859544
5.85501
5.850199
5.845075
5.839607
5.833771
5.827546
5.820918
5.813877
5.80642
5.798551
5.790279
5.781621
5.772598
5.763235
5.753564
5.743615
5.733423
5.723023
5.712448
5.701732
5.690907
5.680006
5.669058
5.658089
5.647127
5.636196
5.625318
5.614515
5.603808
5.593221
5.582774
5.572494
5.562407
5.552542
5.542925
5.533579
5.524497
5.515654
5.507027
5.498599
5.490349
5.482265
5.47432
5.466505
5.458892
5.45143
5.444063
5.436767
5.429515
5.422278
5.415025
5.407732
5.400382
5.392963
5.385476
5.377927
5.37033
5.362705
5.355066
5.347412
5.339759
5.33213
5.324549
5.317034
5.309605
5.302276
5.295062
5.287975
5.281024
5.274216
5.267559
5.261056
5.254711
5.248525
5.242498
5.23663
5.23092
5.225365
5.219963
5.214711
5.209605
5.204644
5.199821
5.195135
5.190581
5.186155
5.181851
5.177665
5.17359
5.169623
5.165762
5.16201
5.15837
5.154794
5.151242
5.147705
5.144217
5.140792
5.137433
5.134137
5.130902
5.127724
5.124602
5.121531
5.118507
5.115528
5.112588
5.109682
5.106807
5.103955
5.10112
5.098295
5.095468
5.092631
5.089769
5.086866
5.083902
5.080851
5.077682
5.074353
5.070811
5.066986
5.062793
5.05813
5.052887
5.046975
5.040376
5.033327
5.026856
323.5962
222.4627
170.9732
139.2821
112.0926
87.32498
73.29682
67.26888
61.11767
57.65694
54.96706
51.88629
48.95677
46.41827
44.40857
42.44881
38.82842
38.3823
38.25036
38.54117
39.27423
40.25216
41.28989
42.32851
43.34539
44.27623
45.12338
45.88487
46.47172
46.86103
47.07798
47.15016
47.08184
46.84375
46.45947
45.95405
45.3476
44.65671
43.90186
43.09442
42.26602
41.40295
40.47052
39.55591
38.6554
37.7631
36.88457
36.02607
35.19063
34.37947
33.59335
32.8331
32.09808
31.38884
30.70486
30.0468
29.41532
28.81156
28.23484
27.68392
27.15763
26.65453
26.17337
25.71295
25.27212
24.84976
24.44469
24.05571
23.68157
23.32113
22.97331
22.63693
22.31082
21.99393
21.68514
21.38294
21.08394
20.78915
20.49877
20.21579
19.93979
19.67038
19.40782
19.15257
18.90453
18.66326
18.4285
18.19992
17.97731
17.7605
17.54937
17.34381
17.14369
16.94889
16.75931
16.57479
16.39515
16.22017
16.04954
15.88294
15.72001
15.5605
15.40408
15.25035
15.09887
14.94911
14.80054
14.6526
14.50475
14.35713
14.20965
14.06172
13.91266
13.76187
13.60852
13.4516
13.29088
13.12648
12.95835
12.78657
12.61142
12.43337
12.25279
12.07006
11.88557
11.69976
11.51308
11.32595
11.13882
10.95217
10.76644
10.5821
10.39959
10.21937
10.04185
9.867306
9.695773
9.526899
9.360525
9.197019
9.036681
8.879386
8.724886
8.57313
8.424257
8.278421
8.135718
7.996206
7.859913
7.726818
7.596881
7.470068
7.346355
7.225718
7.108173
6.993787
6.882703
6.775095
6.671117
6.570986
6.474861
6.382621
6.293915
6.208354
6.125544
6.045063
5.966921
5.891524
5.819257
5.750282
5.684615
5.622236
5.563131
5.507284
5.454665
5.405223
5.358898
5.315624
5.275335
5.23796
5.20343
5.171676
5.142629
5.116221
5.092385
5.071054
5.052139
5.035522
5.021098
5.008769
4.998437
4.990001
4.983365
4.978454
4.975167
4.97337
4.972924
4.973687
4.975517
4.978273
4.981818
4.986021
4.990757
4.995902
5.001348
5.00702
5.012817
5.018531
5.024023
5.029264
5.0343
5.039155
5.043845
5.048384
5.052795
5.057105
5.061346
5.06554
5.069693
5.073804
5.077878
5.081919
5.085936
5.089944
5.093928
5.097913
5.101891
5.105874
5.10987
5.113873
5.117895
5.121937
5.126004
5.130098
5.134224
5.138383
5.142579
5.146814
5.151089
5.155407
5.159766
5.164169
5.168615
5.173102
5.17763
5.182197
5.186801
5.191439
5.196107
5.200803
5.205522
5.21026
5.215012
5.219773
5.224537
5.229297
5.234047
5.23878
5.243487
5.248161
5.252794
5.257377
5.261904
5.266365
5.27076
5.27512
5.27948
5.283813
5.288071
5.29221
5.296204
5.300032
5.303681
5.307144
5.310423
5.313521
5.316449
5.319217
5.32184
5.324332
5.326704
5.328972
5.331148
5.333244
5.335268
5.337226
5.339124
5.340962
5.342738
5.344448
5.346077
5.347614
5.349038
5.350323
5.351433
5.352322
5.352938
5.35322
5.353103
5.35253
5.351464
5.349923
5.347979
5.34571
5.343166
5.340399
5.337453
5.334363
5.331161
5.327869
5.324506
5.321085
5.317617
5.31411
5.310564
5.306976
5.303348
5.299676
5.295954
5.292175
5.288331
5.284416
5.280421
5.27634
5.272169
5.267907
5.263537
5.259069
5.254503
5.249843
5.245097
5.240276
5.235375
5.230387
5.22531
5.220267
5.215336
5.210514
5.205787
5.201158
5.196629
5.192191
5.187822
5.183499
5.179196
5.174885
5.170536
5.16612
5.161606
5.156966
5.152173
5.147199
5.142023
5.136626
5.130991
5.125109
5.118972
5.112581
5.105939
5.099052
5.091932
5.084593
5.077051
5.069324
5.061433
5.053398
5.04524
5.036981
5.028641
5.020241
5.011802
5.003343
4.994884
4.986443
4.978039
4.969689
4.961413
4.953226
4.945146
4.937187
4.929362
4.921676
4.914132
4.906728
4.899461
4.892328
4.885322
4.878438
4.871672
4.865025
4.858482
4.852033
4.845671
4.839384
4.83316
4.826986
4.820847
4.814732
4.80863
4.802535
4.796442
4.790351
4.784261
4.778177
4.772111
4.766074
4.760072
4.754115
4.74821
4.742365
4.736586
4.730881
4.725254
4.719712
4.71426
4.708903
4.703643
4.698486
4.693433
4.688487
4.683649
4.67892
4.674301
4.66979
4.665389
4.661095
4.656907
4.652824
4.648844
4.644964
4.641182
4.637496
4.633903
4.6304
4.626986
4.623657
4.62041
4.617244
4.614153
4.611138
4.608194
4.605276
4.602375
4.59952
4.596719
4.593972
4.591277
4.588631
4.586031
4.583475
4.58096
4.57848
4.576034
4.573615
4.571219
4.56884
4.566471
4.564104
4.56173
4.559338
4.556914
4.554443
4.551906
4.549277
4.546529
4.543624
4.54052
4.537164
4.533501
4.529473
4.525038
4.520189
4.515054
4.510313
195.3519
143.847
209.7912
100.266
83.43444
67.66278
62.7051
58.77495
54.96238
52.96532
50.86901
48.36965
46.166
44.12382
42.07708
37.89865
37.07699
36.42266
35.91358
35.54724
35.26814
35.09428
35.05297
35.16105
35.42541
35.82855
36.34569
37.02969
37.87354
38.88698
40.06783
41.34326
42.64139
43.88355
45.04027
45.93482
46.61499
47.07155
47.29178
47.27567
47.04464
46.62579
46.04304
45.31451
44.46034
43.50747
42.48442
41.41564
40.32262
39.22107
38.12494
37.03995
35.97534
34.94583
33.9585
33.01071
32.10165
31.23275
30.40509
29.61873
28.87324
28.16793
27.50375
26.87863
26.29055
25.73674
25.21382
24.72096
24.25688
23.81975
23.4078
23.01918
22.65205
22.30483
21.97613
21.6645
21.3685
21.08664
20.81749
20.55967
20.31168
20.07179
19.83778
19.60329
19.36932
19.13731
18.9103
18.68791
18.46935
18.25446
18.04299
17.83468
17.62947
17.42768
17.22939
17.03462
16.84337
16.65566
16.47154
16.29106
16.11427
15.94119
15.77182
15.60616
15.44421
15.28598
15.1314
14.98041
14.83287
14.68865
14.54755
14.4094
14.27398
14.14106
14.01033
13.88145
13.75404
13.6277
13.50206
13.37681
13.25154
13.12582
12.99924
12.87148
12.7423
12.61219
12.48079
12.34757
12.21181
12.07258
11.92989
11.78399
11.63501
11.48313
11.32859
11.1717
11.01277
10.85218
10.69033
10.52761
10.36444
10.20125
10.03845
9.876443
9.715584
9.556141
9.398263
9.241948
9.087208
8.934232
8.783239
8.6343
8.487397
8.342564
8.199925
8.059624
7.921773
7.786448
7.653707
7.523591
7.396137
7.271361
7.149275
7.029893
6.913253
6.799422
6.688495
6.580583
6.475777
6.374167
6.275796
6.180583
6.088339
5.998855
5.911959
5.827521
5.745583
5.666363
5.590092
5.516901
5.446827
5.379876
5.316056
5.255377
5.19785
5.143398
5.091944
5.043424
4.997776
4.954941
4.91486
4.877475
4.842729
4.810563
4.780918
4.75373
4.728938
4.706487
4.686319
4.668367
4.652554
4.638793
4.626986
4.61702
4.60878
4.602149
4.597007
4.59323
4.59069
4.58926
4.588811
4.58922
4.590366
4.592136
4.594424
4.59713
4.600165
4.603445
4.606912
4.610474
4.614005
4.617453
4.620845
4.624194
4.62751
4.6308
4.634073
4.637332
4.64058
4.643812
4.647029
4.650229
4.653415
4.656589
4.659763
4.662911
4.666051
4.669183
4.67231
4.675432
4.678551
4.681668
4.684784
4.687901
4.691021
4.694145
4.697275
4.700413
4.703561
4.706719
4.70989
4.713074
4.716272
4.719486
4.722715
4.725961
4.729222
4.732498
4.735788
4.739092
4.742407
4.745731
4.749063
4.752399
4.755735
4.759069
4.762396
4.765711
4.76901
4.772288
4.775541
4.778764
4.781954
4.785107
4.788226
4.791314
4.794378
4.797416
4.800422
4.803386
4.806299
4.809152
4.811937
4.814645
4.817269
4.819806
4.822251
4.824603
4.826862
4.829031
4.831111
4.833104
4.835016
4.836849
4.838607
4.840292
4.841906
4.843449
4.844919
4.846314
4.847627
4.84885
4.849972
4.850978
4.85185
4.852567
4.853107
4.853443
4.853553
4.853417
4.853027
4.852389
4.85152
4.850446
4.84919
4.847777
4.846228
4.844566
4.842809
4.840973
4.83907
4.837111
4.835104
4.833053
4.830961
4.82883
4.82665
4.824422
4.822139
4.819794
4.817378
4.814882
4.812296
4.80961
4.806817
4.803903
4.800859
4.797679
4.794358
4.790891
4.787274
4.783506
4.779589
4.77553
4.771337
4.767028
4.762621
4.758127
4.753568
4.748965
4.744338
4.739699
4.735055
4.730412
4.725771
4.721129
4.716479
4.711813
4.707117
4.702377
4.697578
4.692703
4.687735
4.682657
4.677455
4.672116
4.66663
4.660987
4.655183
4.649216
4.643086
4.636796
4.630351
4.62376
4.617032
4.610177
4.603208
4.596138
4.588981
4.581751
4.574463
4.567131
4.55977
4.552395
4.54502
4.53766
4.530326
4.523033
4.515793
4.508615
4.50151
4.494485
4.487549
4.480705
4.473959
4.467312
4.460763
4.454313
4.447959
4.441698
4.435527
4.429443
4.423443
4.417521
4.411672
4.405888
4.400162
4.394488
4.388858
4.383267
4.377709
4.372181
4.36668
4.361208
4.355785
4.350418
4.345109
4.339861
4.334677
4.329559
4.324509
4.319529
4.31462
4.309785
4.305025
4.300342
4.295737
4.291213
4.286771
4.282411
4.278135
4.273943
4.269837
4.265815
4.261878
4.258026
4.254258
4.250573
4.24697
4.243449
4.240007
4.236644
4.233358
4.230147
4.227011
4.223946
4.220952
4.218026
4.215167
4.212372
4.209641
4.206971
4.204351
4.201746
4.199179
4.196659
4.194187
4.191762
4.18938
4.18704
4.184739
4.182473
4.180238
4.178032
4.175848
4.173682
4.171528
4.169378
4.167224
4.165057
4.162865
4.160636
4.158353
4.155997
4.153547
4.150976
4.148254
4.145348
4.142223
4.138844
4.135187
4.131247
4.127112
4.123292
92.73075
60.60939
53.73106
49.66457
47.5437
45.22861
43.25358
41.57376
40.14079
38.40333
34.87787
34.25626
33.70453
33.23644
32.81534
32.43337
32.12559
31.90953
31.79756
31.78076
31.75675
31.69312
31.70324
31.81479
32.02905
32.34808
32.78447
33.34983
34.05995
34.91984
35.91207
37.0053
38.20649
39.47159
40.7911
42.17265
43.42898
44.54827
45.45171
46.08802
46.43443
46.48859
46.26531
45.78442
45.06563
44.15746
43.09595
41.91821
40.66012
39.34961
38.00718
36.65903
35.32961
34.03604
32.79048
31.60036
30.47204
29.41243
28.41667
27.48796
26.62701
25.82922
25.0902
24.40605
23.77314
23.18796
22.6465
22.14588
21.68318
21.25555
20.86029
20.49488
20.1554
19.8398
19.54663
19.27441
19.02175
18.78732
18.56974
18.36771
18.17994
18.00508
17.84176
17.68857
17.54378
17.40444
17.26246
17.11931
16.9809
16.84581
16.71307
16.58196
16.45182
16.32202
16.19225
16.06222
15.93163
15.80029
15.66831
15.53578
15.40288
15.26977
15.13662
15.00366
14.87111
14.73919
14.60809
14.47803
14.34918
14.22174
14.09584
13.97163
13.84919
13.72858
13.60983
13.49294
13.37789
13.26463
13.15307
13.04308
12.93448
12.82706
12.72056
12.61473
12.50927
12.40384
12.29812
12.19178
12.08455
11.97622
11.86659
11.75543
11.64255
11.5279
11.41197
11.29449
11.17494
11.05255
10.92713
10.79888
10.66796
10.53455
10.39887
10.26122
10.12191
9.981253
9.839609
9.697317
9.554714
9.412104
9.269742
9.12782
8.98646
8.845766
8.7059
8.567052
8.429364
8.292924
8.157824
8.024196
7.892181
7.761895
7.633446
7.506923
7.382396
7.259938
7.139609
7.021448
6.905491
6.791793
6.68042
6.571455
6.464978
6.361056
6.259737
6.16104
6.064927
5.97131
5.880097
5.791231
5.704701
5.620577
5.539012
5.460172
5.384172
5.311033
5.240754
5.173333
5.108761
5.046971
4.987915
4.931585
4.877965
4.827035
4.778769
4.733138
4.690112
4.64966
4.611747
4.576339
4.543397
4.512894
4.484819
4.459146
4.435834
4.414828
4.396059
4.379438
4.364847
4.352169
4.341301
4.33213
4.324538
4.318402
4.313594
4.309987
4.307454
4.30587
4.305115
4.305075
4.305642
4.306716
4.308208
4.310034
4.312123
4.314414
4.316845
4.319313
4.321789
4.324285
4.326805
4.329345
4.331902
4.334469
4.337039
4.339609
4.342172
4.344728
4.347275
4.349817
4.352336
4.354848
4.357348
4.359835
4.362309
4.364772
4.367223
4.369663
4.372092
4.374511
4.376922
4.379324
4.38172
4.384109
4.386494
4.388876
4.391254
4.393631
4.396007
4.398382
4.400758
4.403134
4.40551
4.407887
4.410264
4.41264
4.415014
4.417385
4.419751
4.422109
4.424459
4.426796
4.429118
4.431423
4.433707
4.435968
4.438203
4.44041
4.442588
4.444738
4.446859
4.448953
4.451018
4.453055
4.45506
4.457032
4.458968
4.460867
4.462724
4.464536
4.466303
4.46802
4.469686
4.4713
4.472861
4.474368
4.47582
4.477219
4.478563
4.479854
4.48109
4.482271
4.483395
4.48446
4.485461
4.486395
4.487254
4.48803
4.488714
4.489296
4.489762
4.490102
4.490302
4.490353
4.490249
4.489985
4.489564
4.488993
4.488279
4.487435
4.486471
4.485402
4.484241
4.483
4.481691
4.480321
4.478901
4.477435
4.475927
4.47438
4.472793
4.471164
4.46949
4.467763
4.465978
4.464125
4.462194
4.460176
4.458059
4.455833
4.453479
4.450994
4.448364
4.445578
4.442626
4.439501
4.436193
4.432708
4.429059
4.425249
4.421283
4.417164
4.412902
4.40851
4.404004
4.399398
4.394706
4.38994
4.385113
4.380236
4.375316
4.370358
4.365367
4.360342
4.355281
4.35018
4.345033
4.339833
4.33457
4.329237
4.323824
4.318323
4.312728
4.307033
4.301233
4.295325
4.289309
4.283185
4.276956
4.270626
4.264199
4.257682
4.251083
4.24441
4.237673
4.230881
4.224044
4.217174
4.210281
4.203376
4.19647
4.189573
4.182695
4.175846
4.169035
4.162271
4.155561
4.148913
4.142335
4.135833
4.129411
4.123072
4.116818
4.11065
4.104569
4.098575
4.092667
4.086844
4.081105
4.075448
4.069871
4.064371
4.058945
4.053591
4.048307
4.043092
4.037946
4.03287
4.027864
4.022931
4.01807
4.013284
4.008573
4.003936
3.999374
3.994887
3.990474
3.986136
3.981872
3.977682
3.973565
3.969521
3.96555
3.961651
3.957825
3.954072
3.950391
3.946781
3.943243
3.939776
3.93638
3.933054
3.929798
3.92661
3.92349
3.920437
3.91745
3.914529
3.911672
3.908878
3.906146
3.903476
3.900865
3.898313
3.895818
3.893379
3.890996
3.888667
3.886386
3.884125
3.881898
3.879712
3.877568
3.875464
3.873397
3.871366
3.869367
3.867398
3.865454
3.863532
3.861627
3.859734
3.857847
3.855959
3.854062
3.852146
3.850202
3.848216
3.846175
3.844062
3.841858
3.839543
3.837095
3.834492
3.831712
3.828741
3.825575
3.822278
3.819241
112.068
44.57222
34.13043
31.80906
30.59516
29.8783
29.46087
29.2235
29.10908
29.08122
29.01602
28.83017
28.66093
28.53306
28.44537
28.40307
28.41694
28.49253
28.63041
28.82153
29.05845
29.36628
29.76052
30.2649
30.89043
31.64966
32.5602
33.60659
34.78002
36.07724
37.50092
38.99233
40.42823
41.76969
42.95383
43.94835
44.70332
45.17714
45.32133
45.14124
44.67345
43.93124
42.94689
41.76101
40.41097
38.94539
37.40844
35.84477
34.2892
32.76625
31.29795
29.90661
28.60346
27.39068
26.27198
25.24376
24.29835
23.42442
22.62216
21.88574
21.20933
20.58766
20.01573
19.48911
19.00388
18.55647
18.14421
17.76277
17.41062
17.08647
16.78909
16.51722
16.26951
16.04457
15.84106
15.6577
15.49301
15.34555
15.21405
15.09725
14.99389
14.90268
14.82229
14.75086
14.68208
14.61318
14.55131
14.49463
14.44186
14.39168
14.34292
14.29455
14.24564
14.19537