/*--------------------------------*- C++ -*----------------------------------*\
| =========                 |                                                 |
| \\      /  F ield         | foam-extend: Open Source CFD                    |
|  \\    /   O peration     | Version:     3.1                                |
|   \\  /    A nd           | Web:         http://www.extend-project.de       |
|    \\/     M anipulation  |                                                 |
\*---------------------------------------------------------------------------*/
FoamFile
{
    version     2.0;
    format      ascii;
    class       surfaceScalarField;
    location    "3.5";
    object      phi;
}
// * * * * * * * * * * * * * * * * * * * * * * * * * * * * * * * * * * * * * //

dimensions      [0 3 -1 0 0 0 0];

internalField   nonuniform List<scalar> 
275122
(
-0.0001318601
0.0001335284
-5.740586e-08
-1.610942e-06
-0.0001188833
0.0001136917
4.535724e-07
4.738053e-06
-0.000118719
0.0001219931
-1.150069e-07
-3.159117e-06
-0.0001336217
0.0001374095
-1.248998e-07
-3.6629e-06
-0.0001473366
0.0001488105
-1.374559e-07
-1.336493e-06
-0.0001497417
0.0001498785
-1.371934e-07
3.923076e-10
-0.0001496067
0.0001494006
-1.237893e-07
3.299591e-07
-0.0001485928
0.0001482684
-1.106191e-07
4.350433e-07
-0.000147189
0.0001467981
-1.003037e-07
4.912302e-07
-0.0001455506
0.0001451101
-9.111499e-08
5.316049e-07
-0.0001437239
0.0001432406
-8.259917e-08
5.659141e-07
-0.0001417339
0.0001412135
-7.49698e-08
5.954141e-07
-0.0001396023
0.0001390496
-6.815674e-08
6.208074e-07
-0.0001373468
0.0001367662
-6.196082e-08
6.42605e-07
-0.0001349832
0.0001343789
-5.627561e-08
6.604966e-07
-0.0001325286
0.0001319069
-5.114852e-08
6.728684e-07
-0.0001300088
0.0001293807
-4.716949e-08
6.752197e-07
-0.0001274826
0.0001268798
-4.85793e-08
6.513762e-07
-0.0001251528
0.0001246724
-7.813673e-08
5.584777e-07
-0.0001238038
0.0001241032
-2.295397e-07
-6.98584e-08
-0.0001381281
0.0001434819
-4.56603e-07
-4.897207e-06
-0.0001458068
0.0001461411
-1.189227e-07
-2.153818e-07
-0.0001485536
0.0001497128
-6.199581e-08
-1.097257e-06
-0.0001667568
0.0001732353
1.473519e-07
-6.625897e-06
-0.0001751155
0.0001754596
2.395983e-07
-5.837114e-07
-0.000177715
0.000178296
-5.23358e-08
-5.286638e-07
-0.000179159
0.0001791155
-4.685626e-08
9.031583e-08
-0.0001780167
0.0001767934
-3.992267e-08
1.263259e-06
-0.0001671
0.000156489
-5.262559e-08
1.066364e-05
-0.0001230899
0.0001264282
3.011789e-09
-3.341256e-06
-9.314311e-05
9.733391e-05
-2.401353e-08
-4.166788e-06
-0.0001092874
0.0001133693
3.684642e-09
-4.08559e-06
-0.0001256515
0.0001297686
3.559322e-09
-4.120631e-06
-0.0001423328
0.0001465965
3.377696e-09
-4.267047e-06
-0.0001596189
0.000164028
3.110693e-09
-4.412115e-06
-0.0001774299
0.000181924
3.060421e-09
-4.497206e-06
-0.0001956308
0.0002002385
2.759637e-09
-4.610459e-06
-0.0002142114
0.0002188963
2.712163e-09
-4.687572e-06
-0.000233045
0.0002377541
2.4443e-09
-4.711553e-06
-0.0002518453
0.0002571005
7.587338e-08
-5.331058e-06
3.942559e-06
-0.0001760248
0.0001769018
-7.020893e-10
-4.818872e-06
4.031792e-06
-0.0001792441
0.0001799692
-7.544603e-10
-4.75613e-06
4.205535e-06
-0.0001819481
0.0001825286
-8.170591e-10
-4.785262e-06
4.348152e-06
-0.0001841329
0.0001845985
-6.715162e-10
-4.813011e-06
4.494252e-06
-0.0001858538
0.0001862099
-7.627793e-10
-4.849539e-06
4.638471e-06
-0.0001871564
0.0001874373
-4.606623e-10
-4.918887e-06
4.722884e-06
-0.0001881884
0.0001884226
-4.15117e-10
-4.956601e-06
4.785398e-06
-0.0001890823
0.0001893012
-2.842091e-10
-5.004065e-06
5.129306e-06
-0.000189777
0.0001894373
-9.394442e-11
-4.789514e-06
4.099765e-06
-0.0007799938
0.0007835968
1.24043e-11
-2.047815e-05
4.357566e-06
4.084198e-06
4.333624e-06
4.654108e-06
-0.000785576
0.0007870053
1.713329e-11
-2.040645e-05
4.849785e-06
4.639415e-06
4.833855e-06
4.814198e-06
-0.000788358
0.0007897681
1.458957e-11
-2.078112e-05
4.884689e-06
4.800381e-06
4.871799e-06
4.895359e-06
-0.0007911588
0.0007924788
1.190863e-11
-2.105532e-05
4.985243e-06
4.88225e-06
4.97251e-06
5.045273e-06
-0.000793648
0.0007948097
1.391138e-11
-2.139247e-05
5.081865e-06
5.033167e-06
5.070436e-06
5.117679e-06
-0.0007959893
0.0007971362
2.06357e-11
-2.165554e-05
5.146852e-06
5.107284e-06
5.136832e-06
5.195347e-06
-0.0007982842
0.0007994092
4.155723e-11
-2.19409e-05
5.221704e-06
5.185988e-06
5.212832e-06
5.235688e-06
-0.0008005756
0.0008017775
5.183937e-11
-2.217109e-05
5.256799e-06
5.227693e-06
5.248958e-06
5.273541e-06
-0.0008031235
0.0008042167
-7.941789e-11
-2.221314e-05
5.295044e-06
5.26429e-06
5.287228e-06
4.958752e-06
-0.0008049412
0.0008074928
-4.385307e-11
-2.290868e-05
5.224541e-06
4.952512e-06
5.221268e-06
5.504797e-06
-0.0008089974
0.0008099279
-9.1816e-12
-2.282706e-05
5.44609e-06
5.502335e-06
5.443289e-06
5.43736e-06
-0.0008110838
0.0008124
2.188969e-12
-2.296417e-05
5.388263e-06
5.437134e-06
5.385217e-06
5.478926e-06
-0.0008137542
0.0008151475
5.939836e-12
-2.325628e-05
5.461197e-06
5.470559e-06
5.452301e-06
5.541057e-06
-0.0008165652
0.0008179966
1.078307e-11
-2.35907e-05
5.535588e-06
5.535714e-06
5.546915e-06
5.612313e-06
-0.0008194256
0.0008208883
1.408046e-12
-2.393792e-05
5.618311e-06
5.623057e-06
5.621482e-06
5.703919e-06
-0.000822362
0.000823839
-2.411032e-12
-2.427279e-05
5.708128e-06
5.687601e-06
5.696083e-06
5.858862e-06
-0.0008253457
0.0008268592
6.943089e-12
-2.482927e-05
5.865994e-06
5.787157e-06
5.803766e-06
6.352961e-06
-0.0008282749
0.0008291122
-2.59463e-11
-2.577914e-05
6.453521e-06
6.026806e-06
6.108592e-06
7.804406e-06
-0.0008285958
0.0008253028
-3.800039e-12
-2.678375e-05
8.324161e-06
6.984886e-06
6.963295e-06
1.245699e-05
-0.0008206441
0.0008289034
1.164841e-13
-2.071631e-05
1.191643e-05
-0.0008367421
0.0008388648
2.163375e-12
-1.40391e-05
1.760177e-05
-0.0008392297
0.0008399009
1.881346e-12
-1.827291e-05
1.598742e-05
-0.0008405737
0.000841409
3.1166e-12
-1.68227e-05
1.097991e-05
-0.0008423226
0.0008445346
3.238597e-12
-1.319184e-05
6.095257e-06
-0.0008478269
0.0008510444
3.793499e-12
-9.312753e-06
4.51259e-06
-0.0008540756
0.0008570291
2.814386e-12
-7.466113e-06
3.668755e-06
-0.0008599586
0.0008627754
1.630084e-12
-6.485586e-06
3.065417e-06
-0.0008655549
0.0008682665
1.933434e-12
-5.777016e-06
2.63391e-06
-0.000870943
0.0008735701
1.942184e-12
-5.261022e-06
2.317579e-06
-0.0008761744
0.0008787464
1.527171e-12
-4.889634e-06
2.074461e-06
-0.0008813037
0.0008838434
2.08075e-12
-4.614252e-06
1.883557e-06
-0.0008863725
0.0008888977
2.975904e-12
-4.408821e-06
1.737205e-06
-0.0008914128
0.0008939397
3.830595e-12
-4.264175e-06
1.638635e-06
-0.0008964538
0.0008990026
5.077441e-12
-4.187386e-06
1.605245e-06
-0.0009015315
0.0009041285
6.141762e-12
-4.202246e-06
1.68493e-06
-0.0009066945
0.0009093778
6.280082e-12
-4.368172e-06
2.012103e-06
-0.0009120079
0.0009148074
5.775803e-12
-4.81161e-06
2.937711e-06
-0.0009174754
0.0009203046
5.236034e-12
-5.766875e-06
5.177804e-06
-0.0009226862
0.0009249747
4.728841e-12
-7.466237e-06
8.494342e-06
-0.0009259304
0.0009269905
3.966019e-12
-9.554361e-06
6.486956e-06
-0.0009299498
0.0009332267
3.041049e-12
-9.763775e-06
1.141517e-05
-0.000935288
0.0009366572
2.350915e-12
-1.278435e-05
1.987307e-05
-0.0009333249
0.0009296145
1.956609e-12
-1.616265e-05
1.01312e-05
-0.0009287711
0.000930313
1.8508e-12
-1.167311e-05
4.007946e-06
-0.0009325334
0.0009339648
1.950344e-12
-5.439297e-06
-5.135188e-07
-0.0009351618
0.0009362112
1.808237e-12
-5.358979e-07
-8.8342e-06
-0.0009378597
0.0009401452
1.642313e-12
6.548712e-06
-3.143035e-05
-0.0009440333
0.0009587774
1.601374e-12
1.668626e-05
-6.198958e-06
-0.0009748829
0.0009776149
1.228401e-12
1.763741e-05
-4.008753e-06
-6.178472e-06
-3.983283e-06
-1.859379e-06
-0.0009781018
0.0009805177
8.849941e-13
5.012004e-06
-1.906918e-06
-1.812145e-06
-1.84953e-06
-1.053261e-06
-0.0009830667
0.0009848756
8.869528e-13
2.054606e-06
-9.000957e-07
-1.031178e-06
-8.789171e-07
-5.752016e-07
-0.0009864588
0.0009882285
9.116192e-13
4.575014e-07
-5.355176e-07
-5.779185e-07
-5.385506e-07
-4.07788e-07
-0.0009901597
0.0009921924
9.335415e-13
-4.376954e-07
-3.857585e-07
-4.113919e-07
-3.900188e-07
-3.067398e-07
-0.0009943243
0.0009965236
7.809658e-13
-9.910683e-07
-2.911956e-07
-3.130002e-07
-2.973162e-07
-2.492537e-07
-0.0009987786
0.001001083
5.256103e-13
-1.310334e-06
-2.412515e-07
-2.558566e-07
-2.474275e-07
-2.262432e-07
-0.001003428
0.001005811
5.695301e-13
-1.474001e-06
-2.232985e-07
-2.316525e-07
-2.281627e-07
-2.225953e-07
-0.001008222
0.001010661
8.885973e-13
-1.54046e-06
-2.224941e-07
-2.265835e-07
-2.260738e-07
-2.306833e-07
-0.001013119
0.001015597
8.146794e-13
-1.545544e-06
-2.325448e-07
-2.336845e-07
-2.35264e-07
-2.471881e-07
-0.001018091
0.001020596
5.120574e-15
-1.504477e-06
-2.506112e-07
-2.496071e-07
-2.52797e-07
-2.706363e-07
-0.001023112
0.001025631
-5.335042e-13
-1.423177e-06
-2.752612e-07
-2.725468e-07
-2.769072e-07
-2.999493e-07
-0.001028156
0.001030675
-5.029548e-13
-1.305742e-06
-3.056631e-07
-3.012116e-07
-3.066299e-07
-3.341613e-07
-0.001033196
0.001035703
-2.89284e-13
-1.156183e-06
-3.40667e-07
-3.34832e-07
-3.410615e-07
-3.721393e-07
-0.001038207
0.001040689
-2.62548e-13
-9.790975e-07
-3.792268e-07
-3.723485e-07
-3.791992e-07
-4.129997e-07
-0.001043163
0.001045608
-1.772207e-13
-7.783088e-07
-4.205146e-07
-4.129039e-07
-4.202244e-07
-4.561003e-07
-0.001048041
0.001050437
3.407992e-13
-5.567044e-07
-4.639236e-07
-4.558366e-07
-4.635038e-07
-5.00932e-07
-0.001052816
0.001055152
8.78512e-13
-3.168692e-07
-5.089695e-07
-5.005918e-07
-5.08498e-07
-5.467127e-07
-0.001057466
0.001059733
1.114272e-12
-6.496576e-08
-5.547544e-07
-5.463431e-07
-5.542694e-07
-5.934159e-07
-0.001061971
0.001064153
1.221837e-12
2.076365e-07
-6.016388e-07
-5.930716e-07
-6.012084e-07
-6.397388e-07
-0.001066307
0.001068398
2.618647e-12
4.84117e-07
-6.478444e-07
-6.395009e-07
-6.475432e-07
-6.855832e-07
-0.001070461
0.001072455
2.969464e-12
7.633446e-07
-6.935505e-07
-6.852733e-07
-6.931767e-07
-7.311979e-07
-0.001074421
0.001076312
3.162659e-12
1.045347e-06
-7.39215e-07
-7.290033e-07
-7.367139e-07
-7.695738e-07
-0.001078168
0.00107995
-8.318066e-12
1.317429e-06
-7.770786e-07
-7.723924e-07
-7.798743e-07
-8.101708e-07
-0.001081703
0.001083384
5.458861e-12
1.56963e-06
-8.164262e-07
-8.095791e-07
-8.146947e-07
-8.485685e-07
0.001086596
-4.86697e-12
1.840722e-06
-8.55765e-07
-8.471998e-07
-8.554079e-07
-0.001085029
-8.871628e-07
-0.001088128
0.001089586
-5.106821e-12
2.109415e-06
-8.942845e-07
-8.890356e-07
-8.966792e-07
-9.232995e-07
-0.001091012
0.001092366
-2.456132e-12
2.35911e-06
-9.299837e-07
-9.265706e-07
-9.331727e-07
-9.564863e-07
-0.001093688
0.00109494
5.979713e-13
2.591494e-06
-9.627236e-07
-9.592747e-07
-9.649705e-07
-9.870467e-07
-0.001096161
0.001097316
2.871217e-12
2.807175e-06
-9.927655e-07
-9.883574e-07
-9.937958e-07
-1.014347e-06
-0.001098441
0.001099503
3.388642e-12
3.006499e-06
-1.019542e-06
-1.014974e-06
-1.020051e-06
-1.038766e-06
-0.001100537
0.001101513
1.885108e-12
3.189985e-06
-1.043584e-06
-1.039165e-06
-1.043939e-06
-1.060649e-06
-0.001102461
0.001103356
-7.436373e-13
3.3572e-06
-1.065082e-06
-1.061007e-06
-1.065417e-06
-1.07987e-06
-0.001104227
0.001105051
-3.251531e-12
3.505169e-06
-1.084008e-06
-1.080242e-06
-1.084366e-06
-1.097373e-06
-0.001105852
0.00110661
-5.246996e-12
3.640143e-06
-1.101299e-06
-1.097714e-06
-1.101613e-06
-1.113455e-06
-0.001107347
0.001108045
-6.844618e-12
3.763418e-06
-1.117141e-06
-1.11353e-06
-1.117193e-06
-1.126858e-06
-0.001108723
0.001109365
-8.433971e-12
3.874403e-06
-1.130303e-06
-1.127602e-06
-1.131226e-06
-1.139268e-06
-0.001109989
0.001110584
-9.785737e-12
3.973326e-06
-1.142649e-06
-1.141711e-06
-1.145014e-06
-1.153271e-06
-0.001111166
0.00111172
-1.05003e-11
4.06266e-06
-1.156524e-06
-1.152133e-06
-1.155166e-06
-1.16328e-06
-0.00111226
0.001112774
-1.100635e-11
4.143309e-06
-1.166273e-06
-1.162705e-06
-1.165867e-06
-1.172707e-06
-0.001113276
0.001113757
-1.247896e-11
4.216157e-06
-1.175756e-06
-1.172506e-06
-1.175603e-06
-1.18143e-06
-0.001114225
0.001114676
-1.446785e-11
4.281006e-06
-1.1844e-06
-1.181315e-06
-1.184326e-06
-1.189132e-06
-0.001115115
0.00111554
-1.336011e-11
4.338466e-06
-1.192203e-06
-1.189167e-06
-1.192335e-06
-1.195691e-06
-0.001115954
0.001116356
-1.32221e-11
4.387651e-06
-1.198901e-06
-1.19589e-06
-1.199114e-06
-1.200756e-06
-0.001116747
0.001117131
-1.84673e-11
4.427472e-06
-1.204425e-06
-1.200905e-06
-1.204634e-06
-1.204016e-06
-0.001117504
0.001117875
-1.16858e-11
4.454794e-06
-1.208404e-06
-1.204195e-06
-1.208465e-06
-1.2032e-06
-0.001118239
0.001118607
-1.787607e-11
4.455151e-06
-1.208267e-06
-1.203448e-06
-1.208357e-06
-1.193733e-06
-0.001118989
0.001119397
-1.621339e-11
4.379483e-06
-1.199987e-06
-1.193978e-06
-1.199929e-06
-1.135077e-06
-0.001119817
0.001120157
-1.76994e-11
4.184683e-06
-1.1272e-06
-1.135408e-06
-1.127147e-06
-9.483304e-07
-0.001120227
0.001119961
-1.707571e-11
3.863019e-06
-8.499419e-07
-9.477312e-07
-8.512488e-07
-7.252244e-07
-0.001120202
0.001119628
-1.71459e-11
3.628921e-06
-8.067553e-07
-7.199853e-07
-8.031871e-07
-1.166374e-06
-0.001119965
0.00112028
-1.441823e-11
4.313497e-06
-1.151827e-06
-1.162745e-06
-1.147905e-06
-1.181468e-06
-0.001120429
0.001120582
-1.6708e-11
4.552631e-06
-1.175803e-06
-1.177318e-06
-1.171669e-06
-1.204478e-06
-0.001120715
0.00112082
-1.551438e-11
4.690357e-06
-1.197203e-06
-1.20019e-06
-1.193895e-06
-1.212407e-06
-0.001120895
0.001120942
-1.548208e-11
4.787427e-06
-1.208426e-06
-1.209391e-06
-1.204489e-06
-1.219061e-06
-0.001120982
0.001120963
-1.28089e-11
4.86238e-06
-1.20821e-06
-1.211762e-06
-1.204507e-06
-1.229873e-06
-0.001120894
0.001120894
-1.210941e-11
4.930471e-06
-1.236168e-06
-1.23144e-06
-1.232956e-06
-1.237594e-06
-0.001120877
0.00112082
-1.303684e-11
4.995832e-06
-1.236565e-06
-1.232665e-06
-1.231957e-06
-1.240407e-06
-0.001120744
0.001120654
-1.118354e-11
5.053188e-06
-1.245019e-06
-1.236876e-06
-1.241713e-06
-1.248881e-06
-0.001120562
0.001120453
-1.287764e-11
5.107219e-06
-1.252862e-06
-1.246072e-06
-1.250149e-06
-1.258528e-06
-0.001120336
0.00112021
-1.343292e-11
5.165155e-06
-1.263086e-06
-1.256092e-06
-1.260804e-06
-1.269036e-06
-0.001120077
0.001119932
-1.287835e-11
5.225213e-06
-1.273355e-06
-1.266873e-06
-1.271337e-06
-1.278691e-06
-0.001119781
0.001119619
-1.158546e-11
5.281745e-06
-1.282991e-06
-1.27673e-06
-1.281113e-06
-1.288314e-06
-0.001119451
0.001119271
-1.055813e-11
5.337432e-06
-1.292441e-06
-1.286513e-06
-1.290702e-06
-1.297558e-06
-0.001119085
0.001118887
-9.497338e-12
5.393636e-06
-1.30182e-06
-1.295885e-06
-1.300198e-06
-1.307421e-06
-0.001118682
0.001118466
-8.476295e-12
5.451142e-06
-1.311521e-06
-1.305886e-06
-1.310057e-06
-1.317118e-06
-0.001118243
0.001118008
-7.813711e-12
5.508148e-06
-1.320846e-06
-1.315702e-06
-1.319489e-06
-1.326345e-06
-0.001117766
0.001117512
-7.363561e-12
5.563773e-06
-1.329781e-06
-1.325045e-06
-1.328526e-06
-1.335153e-06
-0.00111725
0.001116977
-6.674504e-12
5.618341e-06
-1.338364e-06
-1.333983e-06
-1.337245e-06
-1.3436e-06
-0.001116696
0.001116402
-6.501733e-12
5.671955e-06
-1.346646e-06
-1.34254e-06
-1.345632e-06
-1.351739e-06
-0.0011161
0.001115786
-5.721209e-12
5.724936e-06
-1.35466e-06
-1.350762e-06
-1.353715e-06
-1.359602e-06
-0.001115464
0.001115129
-5.04965e-12
5.777302e-06
-1.362439e-06
-1.358716e-06
-1.361589e-06
-1.367196e-06
-0.001114785
0.001114429
-5.963998e-12
5.829104e-06
-1.369952e-06
-1.366394e-06
-1.369192e-06
-1.374482e-06
-0.001114063
0.001113685
-8.180899e-12
5.88007e-06
-1.377181e-06
-1.373722e-06
-1.376442e-06
-1.381466e-06
-0.001113297
0.001112897
-1.013556e-11
5.93004e-06
-1.384127e-06
-1.380711e-06
-1.383377e-06
-1.388122e-06
0.001112064
-1.148538e-11
5.979121e-06
-0.001112487
-1.390703e-06
-1.387415e-06
-1.390025e-06
-1.394312e-06
-0.001111631
0.001111185
-1.24746e-11
6.026756e-06
-1.396844e-06
-1.393774e-06
-1.396368e-06
-1.400096e-06
-0.001110729
0.001110261
-1.367062e-11
6.073196e-06
-1.402502e-06
-1.399665e-06
-1.402107e-06
-1.405455e-06
-0.001109781
0.001109289
-1.569356e-11
6.117824e-06
-1.407813e-06
-1.405013e-06
-1.407379e-06
-1.410501e-06
-0.001108786
0.00110827
-1.733598e-11
6.161372e-06
-1.412797e-06
-1.410066e-06
-1.412378e-06
-1.415163e-06
-0.001107744
0.001107204
-1.850526e-11
6.203622e-06
-1.417369e-06
-1.414761e-06
-1.416985e-06
-1.419434e-06
-0.001106654
0.001106091
-2.027652e-11
6.244436e-06
-1.421539e-06
-1.419078e-06
-1.421217e-06
-1.423298e-06
-0.001105516
0.001104929
-2.274472e-11
6.2837e-06
-1.425279e-06
-1.422982e-06
-1.424983e-06
-1.426777e-06
-0.00110433
0.001103719
-2.506973e-11
6.321432e-06
-1.428604e-06
-1.42648e-06
-1.428318e-06
-1.429851e-06
-0.001103096
0.00110246
-2.719575e-11
6.35766e-06
-1.431581e-06
-1.429587e-06
-1.431342e-06
-1.432378e-06
-0.001101813
0.001101153
-2.913633e-11
6.392393e-06
-1.434304e-06
-1.43215e-06
-1.434093e-06
-1.434258e-06
-0.001100481
0.001099798
-3.087839e-11
6.425357e-06
-1.436888e-06
-1.434034e-06
-1.436664e-06
-1.435607e-06
-0.001099101
0.001098394
-3.227203e-11
6.456725e-06
-1.439312e-06
-1.435399e-06
-1.439097e-06
-1.437901e-06
-0.001097673
0.001096943
-3.336789e-11
6.485517e-06
-1.43973e-06
-1.437689e-06
-1.439568e-06
-1.439683e-06
-0.001096199
0.001095448
-3.431891e-11
6.513052e-06
-1.441506e-06
-1.439495e-06
-1.441261e-06
-1.440483e-06
-0.001094682
0.00109391
-3.520967e-11
6.537483e-06
-1.442656e-06
-1.440225e-06
-1.442339e-06
-1.441216e-06
-0.001093122
0.00109233
-3.631835e-11
6.560053e-06
-1.443479e-06
-1.440959e-06
-1.443155e-06
-1.441217e-06
-0.00109152
0.001090711
-3.786757e-11
6.577619e-06
-1.44352e-06
-1.441137e-06
-1.443329e-06
-1.440563e-06
-0.00108988
0.001089054
-3.946846e-11
6.59178e-06
-1.442756e-06
-1.440611e-06
-1.442556e-06
-1.439134e-06
-0.0010882
0.001087363
-4.052819e-11
6.596779e-06
-1.44109e-06
-1.439162e-06
-1.440754e-06
-1.436478e-06
-0.001086489
0.001085643
-4.097765e-11
6.59418e-06
-1.437927e-06
-1.436543e-06
-1.437493e-06
-1.431833e-06
-0.001084748
0.001083911
-4.163866e-11
6.564666e-06
-1.432346e-06
-1.432057e-06
-1.431714e-06
-1.422827e-06
-0.00108302
0.001082224
-4.445554e-11
6.482071e-06
-1.420483e-06
-1.423168e-06
-1.419691e-06
-1.36798e-06
-0.001081331
0.00108045
-4.982797e-11
6.311261e-06
-1.347312e-06
-1.368461e-06
-1.347116e-06
-1.214442e-06
-0.001079636
0.001078558
-3.345024e-11
5.348275e-06
-9.166261e-07
-1.217061e-06
-9.21852e-07
-3.909078e-07
-0.0002690808
0.0002678287
-1.661495e-11
1.64298e-06
-1.098817e-06
-0.0002662377
0.0002657202
1.038517e-10
1.616217e-06
-1.219903e-06
-0.0002644219
0.0002640593
-2.790038e-10
1.582844e-06
-1.24814e-06
-0.0002629448
0.0002626328
2.18613e-10
1.55994e-06
-1.251343e-06
-0.0002617497
0.0002614772
-2.867415e-11
1.523882e-06
-1.272384e-06
-0.0002607142
0.0002604803
-1.424293e-10
1.506445e-06
-1.292882e-06
-0.0002598201
0.0002596148
-3.49499e-11
1.49819e-06
-1.312662e-06
-0.0002590267
0.0002588396
-7.381152e-11
1.499877e-06
-1.329068e-06
-0.0002582971
0.0002581222
-8.182762e-11
1.504044e-06
-1.340867e-06
-0.0002576089
0.000257442
-8.326367e-11
1.507859e-06
-1.350837e-06
-0.0002569482
0.0002567865
-9.433616e-11
1.512536e-06
-1.357248e-06
-0.0002563042
0.0002561456
-1.000969e-10
1.515975e-06
-1.362095e-06
-0.0002556702
0.0002555134
-9.834273e-11
1.519036e-06
-1.365029e-06
-0.0002550416
0.0002548855
-9.965495e-11
1.52116e-06
-1.366496e-06
-0.0002544155
0.0002542597
-1.05769e-10
1.522396e-06
-1.36716e-06
-0.0002537894
0.0002536337
-1.109589e-10
1.522989e-06
-1.366885e-06
-0.0002531619
0.0002530061
-1.053058e-10
1.522821e-06
-1.365748e-06
-0.0002525326
0.0002523766
-9.598506e-11
1.521899e-06
-1.363908e-06
-0.0002519013
0.000251745
-9.059357e-11
1.520288e-06
-1.361411e-06
-0.0002512678
0.0002511112
-8.547698e-11
1.51801e-06
-1.35835e-06
-0.000250632
0.0002504753
-7.874198e-11
1.51509e-06
-1.354696e-06
-0.0002499944
0.0002498377
-7.495367e-11
1.511474e-06
-1.350082e-06
-0.0002493555
0.0002491986
-7.242817e-11
1.507e-06
-1.344282e-06
-0.0002487162
0.0002485589
-6.47697e-11
1.501606e-06
-1.337429e-06
-0.0002480775
0.0002479197
-5.385122e-11
1.49524e-06
-1.329791e-06
-0.0002474408
0.0002472829
-5.018171e-11
1.487816e-06
-1.321384e-06
-0.0002468078
0.0002466502
-6.367811e-11
1.478966e-06
-1.312233e-06
-0.0002461809
0.0002460247
-6.760732e-11
1.468504e-06
-1.302135e-06
-0.0002455634
0.0002454097
-5.656355e-11
1.455905e-06
-1.290971e-06
-0.00024496
0.0002448106
-5.355613e-11
1.440431e-06
-1.277943e-06
-0.0002443777
0.0002442354
-5.060004e-11
1.42034e-06
-1.26192e-06
-0.0002438281
0.0002436975
-4.957064e-11
1.392573e-06
-1.240333e-06
-0.000243332
0.000243222
-4.454651e-11
1.350411e-06
-1.202575e-06
-0.0002429373
0.000242869
-3.292363e-11
1.270865e-06
-1.073634e-06
-0.0002427624
0.0002427952
-1.69026e-11
1.040888e-06
1.289107e-07
-0.0002430237
0.0002427428
4.062247e-11
1.518964e-07
8.041821e-07
-0.0002419552
0.0002417964
1.663904e-11
-6.453951e-07
9.287741e-07
-0.0002412824
0.0002411269
1.504447e-11
-7.732745e-07
9.753716e-07
-0.000240725
0.0002406015
-6.485118e-12
-8.518967e-07
1.006024e-06
-0.0002402452
0.0002401304
-2.643549e-11
-8.911329e-07
1.030445e-06
-0.000239795
0.000239686
-4.509413e-11
-9.213613e-07
1.042635e-06
-0.0002393574
0.0002392508
-4.501909e-11
-9.359664e-07
1.059066e-06
-0.0002389306
0.000238825
-5.234355e-11
-9.534585e-07
1.070858e-06
-0.0002385087
0.0002384033
-5.417691e-11
-9.653795e-07
1.078576e-06
-0.0002380872
0.000237982
-6.269116e-11
-9.733089e-07
1.080407e-06
-0.0002376685
0.0002375659
-6.424501e-11
-9.777381e-07
1.080116e-06
-0.000237265
0.0002371661
-5.401088e-11
-9.811477e-07
1.081392e-06
-0.0002368712
0.0002367734
-5.707968e-11
-9.835577e-07
1.082258e-06
-0.0002364808
0.0002363836
-6.205249e-11
-9.849807e-07
1.082081e-06
-0.0002360925
0.0002359957
-7.187865e-11
-9.851902e-07
1.081167e-06
-0.0002357054
0.0002356087
-7.432732e-11
-9.843982e-07
1.079607e-06
-0.0002353184
0.0002352215
-6.85861e-11
-9.826614e-07
1.077214e-06
-0.0002349306
0.0002348335
-6.647883e-11
-9.800083e-07
1.074321e-06
-0.000234541
0.0002344433
-6.469192e-11
-9.765512e-07
1.070983e-06
-0.0002341489
0.0002340502
-5.181876e-11
-9.722727e-07
1.066884e-06
-0.0002337529
0.0002336532
-5.162122e-11
-9.670878e-07
1.061529e-06
-0.0002333522
0.0002332516
-5.140337e-11
-9.608128e-07
1.05557e-06
-0.0002329485
0.0002328468
-6.574055e-11
-9.537985e-07
1.050373e-06
-0.0002325426
0.0002324397
-7.129107e-11
-9.474634e-07
1.050189e-06
-0.0002321246
0.0002320164
-8.162896e-11
-9.419131e-07
1.041223e-06
-0.0002316943
0.0002315865
-5.469954e-11
-9.334344e-07
1.034599e-06
-0.0002312606
0.0002311506
-5.82574e-11
-9.24531e-07
1.027372e-06
-0.0002308181
0.0002307058
-5.147745e-11
-9.150937e-07
1.019924e-06
-0.0002303659
0.0002302512
-4.980808e-11
-9.051073e-07
1.012061e-06
-0.0002299033
0.0002297858
-4.815968e-11
-8.945318e-07
1.003757e-06
-0.0002294297
0.0002293093
-5.110347e-11
-8.833113e-07
9.950653e-07
-0.0002289443
0.0002288208
-4.642786e-11
-8.715874e-07
9.8679e-07
-0.0002284468
0.0002283202
-3.79167e-11
-8.601952e-07
9.808678e-07
-0.0002279398
0.0002278114
-1.550836e-11
-8.524392e-07
9.852054e-07
-0.000227444
0.0002273023
1.190775e-10
-8.436588e-07
1.102853e-06
-0.0002254849
0.0009154434
-2.806157e-11
-2.529122e-06
8.617462e-08
1.104165e-06
7.506179e-08
-0.0002254894
-0.000232153
-0.0002321552
5.032342e-07
-0.0009167453
0.0009160473
-2.604126e-11
-1.895954e-06
8.063986e-07
4.898028e-07
7.945244e-07
6.341615e-07
-0.0009153915
0.0009147014
-3.278634e-11
-1.956347e-06
6.988243e-07
6.24134e-07
6.894185e-07
7.014271e-07
-0.0009141827
0.0009134514
-3.805661e-11
-2.160326e-06
7.526978e-07
6.930374e-07
7.445502e-07
7.395608e-07
-0.0009125929
0.0009115693
-4.248209e-11
-1.978474e-06
7.689096e-07
7.3208e-07
7.614902e-07
7.455362e-07
-0.0009105265
0.0009094483
-4.760556e-11
-1.91604e-06
7.583647e-07
7.387235e-07
7.516514e-07
7.509844e-07
-0.0009083856
0.0009072845
-5.353222e-11
-1.905336e-06
7.583045e-07
7.448279e-07
7.523715e-07
7.611124e-07
-0.0009061729
0.0009050191
-5.880224e-11
-1.890844e-06
7.665823e-07
7.555041e-07
7.61497e-07
7.687968e-07
-0.0009038533
0.0009026541
-6.311629e-11
-1.872192e-06
7.716756e-07
7.639437e-07
7.670016e-07
7.740556e-07
-0.0009014384
0.0009001895
-6.627204e-11
-1.842738e-06
7.759376e-07
7.699666e-07
7.717096e-07
7.77576e-07
-0.0008989208
0.0008976214
-6.867021e-11
-1.805984e-06
7.786582e-07
7.740185e-07
7.752142e-07
7.797317e-07
-0.0008963014
0.0008949525
-7.044486e-11
-1.765251e-06
7.803133e-07
7.767227e-07
7.773857e-07
7.804384e-07
-0.0008935837
0.0008921878
-7.131872e-11
-1.721237e-06
7.807026e-07
7.779005e-07
7.782127e-07
7.798979e-07
-0.0008907728
0.0008893306
-7.10824e-11
-1.673389e-06
7.800371e-07
7.777372e-07
7.779833e-07
7.761826e-07
-0.0008878724
0.0008863897
-6.953084e-11
-1.618693e-06
7.763155e-07
7.744525e-07
7.74563e-07
7.731056e-07
-0.0008848917
0.0008833738
-6.996106e-11
-1.571631e-06
7.731787e-07
7.716071e-07
7.717849e-07
7.697442e-07
-0.0008818417
0.0008802887
-7.098982e-11
-1.521662e-06
7.689523e-07
7.683864e-07
7.675586e-07
7.637714e-07
-0.0008787244
0.0008771418
-7.187188e-11
-1.469211e-06
7.632947e-07
7.627303e-07
7.62164e-07
7.570902e-07
-0.0008755488
0.0008739389
-7.267518e-11
-1.415096e-06
7.56513e-07
7.560675e-07
7.554776e-07
7.495342e-07
-0.00087232
0.0008706855
-7.337267e-11
-1.360629e-06
7.489078e-07
7.486866e-07
7.480162e-07
7.413747e-07
-0.0008690435
0.0008673873
-7.378473e-11
-1.30628e-06
7.406745e-07
7.406191e-07
7.398368e-07
7.326265e-07
-0.0008657248
0.0008640495
-7.391112e-11
-1.252182e-06
7.318657e-07
7.319811e-07
7.311464e-07
7.234202e-07
-0.0008623688
0.0008606765
-7.380008e-11
-1.198453e-06
7.225576e-07
7.22883e-07
7.219522e-07
7.138644e-07
-0.0008589799
0.0008572725
-7.349599e-11
-1.145281e-06
7.12927e-07
7.133794e-07
7.125145e-07
7.03925e-07
-0.0008555617
0.0008538414
-7.308649e-11
-1.092381e-06
7.029535e-07
7.034161e-07
7.024086e-07
6.936516e-07
-0.0008521185
0.0008503868
-7.256456e-11
-1.040058e-06
6.928465e-07
6.931556e-07
6.921833e-07
6.83174e-07
-0.0008486532
0.0008469117
-7.188117e-11
-9.883836e-07
6.822534e-07
6.827331e-07
6.817501e-07
6.726056e-07
-0.0008451688
0.0008434188
-7.102205e-11
-9.377347e-07
6.717231e-07
6.721997e-07
6.712714e-07
6.620721e-07
-0.0008416678
0.0008399105
-7.008332e-11
-8.883444e-07
6.611944e-07
6.616912e-07
6.607678e-07
6.515408e-07
-0.0008381528
0.0008363895
-6.902221e-11
-8.403038e-07
6.507157e-07
6.511735e-07
6.502859e-07
6.410785e-07
-0.0008346263
0.0008328581
-6.787349e-11
-7.936692e-07
6.402609e-07
6.407207e-07
6.398448e-07
6.307e-07
-0.0008310905
0.0008293186
-6.659767e-11
-7.485232e-07
6.299349e-07
6.303797e-07
6.295386e-07
6.204032e-07
-0.0008275477
0.000825773
-6.531957e-11
-7.047349e-07
6.196717e-07
6.200993e-07
6.192821e-07
6.10222e-07
-0.0008239999
0.0008222235
-6.400375e-11
-6.623045e-07
6.095117e-07
6.098984e-07
6.091353e-07
6.001545e-07
-0.000820449
0.0008186716
-6.266738e-11
-6.212673e-07
5.99495e-07
5.99866e-07
5.991551e-07
5.901857e-07
-0.0008168965
0.0008151191
-6.129669e-11
-5.814208e-07
5.89587e-07
5.899282e-07
5.892593e-07
5.803483e-07
-0.0008133442
0.0008115671
-5.99187e-11
-5.425562e-07
5.797871e-07
5.800833e-07
5.794362e-07
5.70549e-07
-0.000809793
0.0008080167
-5.851416e-11
-5.042866e-07
5.700241e-07
5.703111e-07
5.69711e-07
5.607075e-07
-0.0008062436
0.0008044682
-5.709605e-11
-4.658448e-07
5.601784e-07
5.60509e-07
5.599098e-07
5.506555e-07
-0.0008026961
0.0008009209
-5.568741e-11
-4.259909e-07
5.501257e-07
5.504783e-07
5.499538e-07
5.399423e-07
-0.0007991489
0.0007973728
-5.429641e-11
-3.821135e-07
5.394405e-07
5.397098e-07
5.391544e-07
5.27838e-07
-0.0007955996
0.0007938195
-5.291237e-11
-3.299187e-07
5.275421e-07
5.275801e-07
5.271606e-07
5.127439e-07
-0.0007920407
0.00079025
-5.153266e-11
-2.596386e-07
5.126988e-07
5.125282e-07
5.1242e-07
4.906201e-07
-0.0007884563
0.0007866436
-5.018584e-11
-1.505033e-07
4.912331e-07
4.904296e-07
4.909958e-07
4.431511e-07
-0.0007848323
0.000783028
-4.857428e-11
4.191908e-08
4.382754e-07
4.429898e-07
4.38068e-07
3.194656e-07
-0.0007812678
0.0007796444
-4.780622e-11
4.649502e-07
2.599924e-07
3.192791e-07
2.597523e-07
1.966582e-07
-0.0007781157
0.0007765637
-4.694343e-11
7.683939e-07
1.954167e-07
1.964717e-07
1.951892e-07
1.707717e-07
-0.0007750023
0.0007734355
-4.599012e-11
8.842841e-07
1.70667e-07
1.706055e-07
1.70462e-07
1.571901e-07
-0.0007718685
0.0007702954
-4.51401e-11
9.432348e-07
1.579345e-07
1.570377e-07
1.577419e-07
1.487594e-07
-0.0007687222
0.0007671456
-4.428854e-11
9.794909e-07
1.499483e-07
1.486169e-07
1.497689e-07
1.410668e-07
-0.0007655724
0.0007639992
-4.331894e-11
1.003086e-06
1.441331e-07
1.409194e-07
1.439631e-07
1.314896e-07
-0.0007624296
0.0007608481
-4.223439e-11
1.032106e-06
1.434328e-07
1.312867e-07
1.432514e-07
1.058362e-07
-0.0007592631
0.0007577126
-4.122426e-11
1.049979e-06
1.448732e-07
1.053879e-07
1.445115e-07
-3.172247e-08
-0.0007565227
0.000755595
-3.922739e-11
7.987081e-07
9.725186e-08
-3.265743e-08
9.619579e-08
1.390184e-07
-0.0007544741
0.0007521981
-3.777074e-11
1.76607e-06
1.12906e-07
1.421071e-07
1.159501e-07
6.269132e-08
-0.000750239
0.0007487213
-3.546729e-11
1.413962e-06
-1.44708e-08
6.608884e-08
-1.047194e-08
1.538235e-08
-0.0007472847
0.0007459363
-3.481922e-11
1.342577e-06
-1.559418e-08
1.766901e-08
-1.157403e-08
7.011175e-09
-0.0007445984
0.0007433121
-3.4655e-11
1.276556e-06
-4.01153e-09
8.747623e-09
-1.883069e-09
1.705201e-08
-0.0007420294
0.0007407649
-3.547829e-11
1.196694e-06
1.553291e-08
1.845683e-08
1.680902e-08
3.477933e-08
-0.0007394892
0.0007382186
-3.605609e-11
1.124992e-06
3.697982e-08
3.588278e-08
3.800216e-08
5.328683e-08
-0.0007369397
0.0007356665
-3.614018e-11
1.051032e-06
5.700348e-08
5.412458e-08
5.779029e-08
7.163825e-08
-0.0007343887
0.0007331175
-3.54361e-11
9.747443e-07
7.598397e-08
7.229906e-08
7.659548e-08
8.901235e-08
-0.0007318444
0.0007305787
-3.459982e-11
9.000515e-07
9.33367e-08
8.951474e-08
9.379589e-08
1.046714e-07
-0.0007293136
0.0007280565
-3.417321e-11
8.296611e-07
1.086963e-07
1.050529e-07
1.090406e-07
1.18614e-07
-0.0007268019
0.0007255559
-3.390444e-11
7.636611e-07
1.222743e-07
1.18909e-07
1.225368e-07
1.309691e-07
-0.0007243141
0.0007230818
-3.320828e-11
7.014814e-07
1.342402e-07
1.312049e-07