/*--------------------------------*- C++ -*----------------------------------*\
| =========                 |                                                 |
| \\      /  F ield         | foam-extend: Open Source CFD                    |
|  \\    /   O peration     | Version:     3.1                                |
|   \\  /    A nd           | Web:         http://www.extend-project.de       |
|    \\/     M anipulation  |                                                 |
\*---------------------------------------------------------------------------*/
FoamFile
{
    version     2.0;
    format      ascii;
    class       volScalarField;
    location    "0.5";
    object      nut;
}
// * * * * * * * * * * * * * * * * * * * * * * * * * * * * * * * * * * * * * //

dimensions      [0 2 -1 0 0 0 0];

internalField   nonuniform List<scalar> 
119952
(
6.161243e-05
3.478182e-05
3.662715e-05
4.587313e-05
5.323147e-05
5.149415e-05
5.036094e-05
4.932698e-05
4.825641e-05
4.711803e-05
4.591845e-05
4.46729e-05
4.339671e-05
4.210299e-05
4.080174e-05
3.949937e-05
3.819826e-05
3.689593e-05
3.557659e-05
3.426275e-05
4.74389e-05
4.472293e-05
4.360018e-05
6.189244e-05
5.980534e-05
5.877903e-05
5.794909e-05
5.763905e-05
5.618975e-05
6.184536e-05
3.221692e-05
2.990759e-05
3.543628e-05
4.383057e-05
5.35036e-05
6.363226e-05
7.401719e-05
8.454081e-05
9.525298e-05
0.0001131426
0.0003234484
0.0004657
0.0006001485
0.0007138803
0.0008074644
0.0008872948
0.0009591567
0.00102692
0.001092867
0.001666665
0.001828536
0.001994789
0.002156475
0.002307102
0.00244406
0.002567886
0.002680572
0.002784495
0.00288176
0.002987749
0.003115847
0.003260128
0.003410162
0.00355657
0.003693914
0.003821021
0.003940634
0.004058872
0.004029437
0.004023445
0.004091261
0.004190909
0.004291333
0.004377974
0.004450163
0.004505445
0.004543476
0.004568595
0.004583324
0.004589953
0.0045905
0.004586683
0.00457991
0.004571315
0.004561921
0.004553149
0.004548387
0.004555173
0.004572078
0.004589876
0.004619922
0.004667333
0.004699471
0.004708912
0.004694388
0.004624291
0.004379084
0.003983166
0.00388722
0.003849011
0.003830297
0.003821401
0.003818078
0.003817328
0.003817089
0.003816011
0.003813253
0.003808319
0.003800978
0.003791253
0.003779431
0.003766057
0.003751864
0.003737508
0.003723571
0.003710435
0.003697835
0.003685334
0.003672617
0.00365949
0.00364586
0.003631757
0.003617334
0.003602781
0.003588241
0.0035738
0.003559491
0.003545308
0.003531203
0.003517188
0.00350322
0.00348927
0.003475315
0.003461337
0.003447321
0.003433253
0.00341912
0.003404932
0.003390671
0.003376329
0.003361904
0.003347404
0.003332827
0.003318189
0.003303572
0.003289459
0.00327536
0.003194816
0.003089327
0.003002184
0.002934496
0.00288194
0.002840301
0.002806331
0.002777772
0.002753079
0.002731022
0.002710825
0.002691941
0.002673995
0.002656716
0.002639925
0.002623495
0.002607336
0.002591349
0.002575448
0.002559394
0.002543291
0.002527271
0.002511485
0.002496051
0.002481016
0.002466351
0.002451987
0.002437847
0.002423867
0.002409984
0.002396157
0.002382353
0.002368548
0.002354726
0.00234087
0.002326969
0.002313012
0.002298989
0.002284892
0.002270712
0.002256442
0.002242073
0.002227602
0.002213026
0.002198347
0.002183559
0.002168662
0.002153668
0.002139008
0.002121165
0.001596572
0.001228003
0.001127534
0.001081764
0.001053903
0.001033649
0.001017047
0.001002337
0.0009887544
0.0009756853
0.0009629611
0.0009505123
0.0009382866
0.0009262488
0.0009143808
0.0009026694
0.0008911022
0.0008796616
0.0008683204
0.0008570485
0.0008458199
0.0008346658
0.0008236745
0.0008128844
0.0008022921
0.0007919112
0.0007816749
0.0007715574
0.0007615375
0.0007516042
0.000741767
0.0007320605
0.0007226826
0.0007136011
0.0007062898
0.0007122079
0.0007339082
0.0007519063
0.0007671161
0.000780577
0.0007930697
0.0008049949
0.0008165877
0.0008279825
0.0008392579
0.0008504531
0.0008615843
0.0008726815
0.0008837559
0.0008948176
0.0009058752
0.0009169335
0.0009279917
0.0009390429
0.0009500742
0.0009610711
0.000972021
0.0009829172
0.0009937616
0.001004563
0.001015337
0.001026095
0.001036839
0.00104759
0.001058352
0.001069125
0.001079909
0.001090706
0.001101551
0.001112575
0.001577849
0.001679206
0.001785241
0.001889957
0.001986519
0.002070169
0.00213959
0.002196069
0.002242036
0.002279982
0.002312012
0.002339755
0.002364426
0.00238691
0.002407833
0.002427627
0.002446581
0.002464889
0.002482686
0.00250007
0.002517111
0.002533851
0.002550309
0.002566488
0.002582384
0.002597986
0.002613294
0.002628314
0.002643056
0.00265754
0.00267179
0.002685831
0.002699692
0.002713399
0.002726975
0.00274044
0.00275381
0.002767094
0.002780297
0.002793419
0.002806451
0.002819357
0.002832075
0.002844492
0.002856292
0.002866719
0.002875541
0.002883766
0.002891682
0.002899438
0.002907097
0.002914699
0.002922318
0.00293018
0.002939971
0.002973099
0.003028832
0.00309773
0.003169463
0.003236116
0.003293507
0.003340675
0.003378635
0.00340917
0.003434102
0.003454966
0.003472947
0.003488905
0.003503444
0.003516975
0.003529785
0.003542081
0.003554017
0.003565703
0.003577198
0.003588509
0.00359961
0.003610456
0.003621005
0.003631231
0.003641129
0.003650709
0.003659997
0.003669025
0.003677831
0.003686451
0.003694919
0.003703266
0.003711517
0.003719695
0.003727814
0.003735889
0.003743928
0.003751938
0.003759924
0.00376789
0.003775839
0.003783773
0.003791692
0.0037996
0.003807497
0.003815385
0.003823264
0.003831137
0.003839003
0.003846866
0.003854726
0.003862584
0.003870443
0.003878306
0.003886174
0.00389405
0.003901936
0.003909835
0.00391775
0.003925686
0.003933647
0.003941637
0.003949664
0.003957732
0.00396585
0.003974025
0.00398227
0.003990597
0.003999026
0.00400758
0.004016294
0.00402521
0.004034392
0.004043929
0.004053959
0.004064708
0.00407657
0.004090293
0.004107441
0.004131657
0.004171693
0.004244915
0.004219056
2.975574e-05
3.300857e-05
4.073847e-05
5.041645e-05
6.079573e-05
7.139939e-05
8.213822e-05
9.302911e-05
0.0001052439
0.0002597302
0.000402068
0.0005464965
0.0006721673
0.0007745539
0.0008595546
0.0009341593
0.001003298
0.001069974
0.001604302
0.001763718
0.001932697
0.002100985
0.002260154
0.002405597
0.002536777
0.002655457
0.002764112
0.002865417
0.002964483
0.003083874
0.003223992
0.00337524
0.003526825
0.003670995
0.003804042
0.00392524
0.004035533
0.004074463
0.004119367
0.004221186
0.004352023
0.004495097
0.004639644
0.004779379
0.004911335
0.005034733
0.005150036
0.005260904
0.005377169
0.005503744
0.005639685
0.00578057
0.005921293
0.006057858
0.006187855
0.006304734
0.007545805
0.007675983
0.007804125
0.007935578
0.008071211
0.008209595
0.008348498
0.008485778
0.008619814
0.008749724
0.008876819
0.009004061
0.00913389
0.009267288
0.009403688
0.009541538
0.009678877
0.009813098
0.009936214
0.01
0.01
0.01
0.01
0.01
0.01
0.01
0.01
0.01
0.01
0.01
0.01
0.01
0.01
0.01
0.01
0.01
0.01
0.01
0.01
0.01
0.01
0.01
0.01
0.01
0.01
0.01
0.01
0.01
0.01
0.01
0.01
0.01
0.01
0.009985418
0.009950352
0.009922314
0.00989921
0.00987914
0.009860483
0.009842024
0.009823066
0.009803478
0.009783623
0.009764153
0.009745751
0.009728887
0.009713598
0.009699513
0.009686061
0.009672672
0.009658905
0.009644511
0.009629444
0.009613819
0.009597832
0.009581686
0.009565546
0.00954952
0.009533657
0.009517975
0.009502467
0.009487104
0.009471854
0.009456684
0.009441565
0.009426472
0.009411386
0.009396293
0.009381183
0.009366048
0.009350887
0.009335703
0.009320506
0.009305323
0.009290222
0.009275342
0.009260785
0.009245038
0.009221678
0.009187893
0.009144886
0.009095974
0.009044565
0.008993292
0.008943858
0.008897202
0.008853681
0.008813264
0.00877572
0.00874073
0.008707954
0.008677061
0.008647754
0.008619757
0.008592802
0.008566638
0.008541058
0.008515964
0.008491413
0.008467586
0.008444721
0.008422981
0.008402437
0.008383058
0.008364727
0.008347285
0.008330562
0.008314393
0.008298634
0.008283163
0.008267903
0.008252766
0.008237695
0.008222649
0.008207594
0.008192507
0.008177368
0.008162166
0.00814689
0.008131534
0.008116097
0.008100582
0.008084997
0.008069359
0.008053699
0.008038159
0.008023156
0.008011472
0.007215062
0.006819858
0.006665146
0.006571231
0.006496799
0.00643264
0.006376535
0.006327452
0.006284406
0.006246351
0.00621232
0.006181477
0.006153152
0.006126831
0.006102135
0.006078781
0.006056533
0.006035172
0.006014486
0.005994303
0.00597456
0.005955343
0.005936824
0.005919206
0.005902546
0.005886839
0.005871975
0.005857838
0.005844341
0.005831454
0.005819238
0.005807919
0.005798047
0.005790945
0.005789908
0.005800434
0.005819749
0.005843873
0.005870235
0.005897082
0.005923414
0.005948748
0.005972924
0.005995966
0.006017991
0.006039143
0.006059575
0.006079422
0.006098804
0.006117817
0.006136532
0.006154984
0.006173172
0.006191056
0.00620857
0.006225644
0.006242218
0.006258268
0.006273809
0.006288891
0.006303589
0.006317983
0.006332149
0.006346148
0.006360024
0.006373804
0.006387498
0.006401116
0.006414565
0.0064241
0.007554164
0.007597794
0.007637782
0.007682241
0.007733451
0.007790551
0.007851339
0.00791333
0.007974387
0.00803299
0.008088256
0.008139835
0.008187746
0.008232227
0.008273604
0.00831222
0.008348391
0.008382403
0.008414506
0.008444916
0.008473809
0.008501317
0.008527533
0.008552516
0.008576309
0.00859895
0.008620483
0.008640968
0.008660478
0.008679103
0.008696942
0.008714099
0.008730675
0.008746763
0.008762447
0.008777795
0.008792859
0.008807675
0.008822262
0.008836621
0.008850728
0.008864525
0.008877911
0.008890711
0.008902658
0.008913481
0.008923354
0.008932605
0.008941435
0.008949972
0.008958291
0.008966423
0.008974319
0.008981837
0.008989743
0.009001028
0.009018535
0.00904372
0.009076393
0.009115084
0.009157651
0.009201887
0.009245937
0.009288479
0.009328728
0.009366337
0.009401264
0.009433648
0.00946372
0.009491745
0.009517993
0.009542721
0.009566151
0.00958845
0.009609716
0.009629974
0.009649204
0.00966736
0.009684405
0.009700329
0.009715162
0.009728969
0.009741846
0.009753908
0.009765278
0.009776078
0.009786422
0.009796408
0.00980612
0.009815627
0.009824983
0.009834227
0.009843391
0.009852495
0.009861556
0.009870584
0.009879588
0.009888574
0.009897545
0.009906506
0.009915459
0.009924407
0.009933353
0.009942299
0.009951249
0.009960204
0.009969168
0.009978145
0.009987137
0.009996151
0.01
0.01
0.01
0.01
0.01
0.01
0.01
0.01
0.01
0.01
0.01
0.01
0.01
0.01
0.01
0.01
0.01
0.01
0.01
0.01
0.01
0.01
0.01
0.01
0.01
0.01
0.01
0.01
0.01
3.198551e-05
2.998843e-05
3.67941e-05
4.65887e-05
5.741189e-05
6.848561e-05
7.975582e-05
9.11761e-05
0.0001028281
0.0001223676
0.0003356873
0.0004908663
0.0006316656
0.0007451451
0.0008358622
0.0009128719
0.00098285
0.001049714
0.001115493
0.001711718
0.00188788
0.002066638
0.002237171
0.002392514
0.002531129
0.002654942
0.00276699
0.00287022
0.002967356
0.003077595
0.003213684
0.003366433
0.003522731
0.003672218
0.003809564
0.00393342
0.004045004
0.004148648
0.00414304
0.004223758
0.004347222
0.004489915
0.004637416
0.004781273
0.00491735
0.005044355
0.005162605
0.005273771
0.005386372
0.005508881
0.005642462
0.005783297
0.005925845
0.006065329
0.006198695
0.006321121
0.007586714
0.007714267
0.007837868
0.007965266
0.008098301
0.008235787
0.008375362
0.008514582
0.008651488
0.008784796
0.008914656
0.009043718
0.00917495
0.009310148
0.009449363
0.009591318
0.009734043
0.009875389
0.01
0.01
0.01
0.01
0.01
0.01
0.01
0.01
0.01
0.01
0.01
0.01
0.01
0.01
0.01
0.01
0.01
0.01
0.01
0.01
0.01
0.01
0.01
0.01
0.01
0.01
0.01
0.01
0.01
0.01
0.01
0.01
0.01
0.01
0.01
0.01
0.01
0.01
0.01
0.01
0.01
0.01
0.01
0.01
0.01
0.01
0.01
0.01
0.01
0.01
0.01
0.01
0.01
0.01
0.01
0.01
0.01
0.01
0.01
0.01
0.01
0.01
0.01
0.01
0.01
0.01
0.01
0.01
0.01
0.01
0.01
0.01
0.01
0.01
0.01
0.01
0.01
0.01
0.01
0.01
0.01
0.01
0.01
0.01
0.01
0.01
0.01
0.01
0.01
0.01
0.01
0.01
0.01
0.01
0.01
0.01
0.01
0.01
0.01
0.01
0.01
0.01
0.01
0.01
0.01
0.01
0.01
0.01
0.01
0.01
0.01
0.01
0.01
0.01
0.01
0.01
0.01
0.01
0.01
0.01
0.01
0.01
0.01
0.01
0.01
0.01
0.01
0.01
0.01
0.01
0.01
0.01
0.01
0.01
0.01
0.01
0.01
0.01
0.01
0.01
0.01
0.01
0.01
0.01
0.01
0.01
0.01
0.01
0.01
0.01
0.01
0.01
0.01
0.01
0.01
0.01
0.01
0.01
0.01
0.01
0.01
0.01
0.01
0.01
0.01
0.01
0.01
0.01
0.01
0.01
0.01
0.01
0.01
0.01
0.01
0.01
0.01
0.01
0.01
0.01
0.01
0.01
0.01
0.01
0.01
0.01
0.01
0.01
0.01
0.01
0.01
0.01
0.01
0.01
0.01
0.01
0.01
0.01
0.01
0.01
0.01
0.01
0.01
0.01
0.01
0.01
0.01
0.01
0.01
0.01
0.01
0.01
0.01
0.01
0.01
0.01
0.01
0.01
0.01
0.01
0.01
0.01
0.01
0.01
0.01
0.01
0.01
0.01
0.01
0.01
0.01
0.01
0.01
0.01
0.01
0.01
0.01
0.01
0.01
0.01
0.01
0.01
0.01
0.01
0.01
0.01
0.01
0.01
0.01
0.01
0.01
0.01
0.01
0.01
0.01
0.01
0.01
0.01
0.01
0.01
0.01
0.01
0.01
0.01
0.01
0.01
0.01
0.01
0.01
0.01
0.01
0.01
0.01
0.01
0.01
0.01
0.01
0.01
0.01
0.01
0.01
0.01
0.01
0.01
0.01
0.01
0.01
0.01
0.01
0.01
0.01
0.01
0.01
0.01
0.01
0.01
0.01
0.01
0.01
0.01
0.01
0.01
0.01
0.01
0.01
0.01
0.01
0.01
0.01
0.01
0.01
0.01
0.01
0.01
0.01
0.01
0.01
0.01
0.01
0.01
0.01
0.01
0.01
0.01
0.01
0.01
0.01
0.01
0.01
0.01
0.01
0.01
0.01
0.01
0.01
0.01
0.01
0.01
0.01
0.01
0.01
0.01
0.01
0.01
0.01
0.01
0.01
0.01
0.01
0.01
0.01
0.01
0.01
0.01
0.01
0.01
0.01
0.01
0.01
0.01
0.01
0.01
0.01
0.01
0.01
0.01
0.01
0.01
0.01
0.01
0.01
0.01
0.01
0.01
0.01
0.01
0.01
7.087191e-05
0.0001154565
0.0002664428
0.0005924215
0.0009440261
0.001807538
0.002195397
0.002578882
0.002932894
0.003247749
0.003516224
0.003752349
0.003903045
0.004037739
0.004206912
0.004388808
0.004569462
0.004740392
0.004897801
0.005041189
0.005171815
0.005291746
0.005407214
0.005530673
0.005666611
0.005811771
0.005959624
0.006104302
0.00624232
0.006372322
0.006487667
0.007759864
0.007894964
0.008030315
0.008170547
0.008315106
0.008461373
0.008606472
0.008748128
0.008884957
0.009016636
0.00914554
0.009275533
0.009409353
0.00954765
0.009689276
0.0098321
0.009973766
0.01
0.01
0.01
0.01
0.01
0.01
0.01
0.01
0.01
0.01
0.01
0.01
0.01
0.01
0.01
0.01
0.01
0.01
0.01
0.01
0.01
0.01
0.01
0.01
0.01
0.01
0.01
0.01
0.01
0.01
0.01
0.01
0.01
0.01
0.01
0.01
0.01
0.01
0.01
0.01
0.01
0.01
0.01
0.01
0.01
0.01
0.01
0.01
0.01
0.01
0.01
0.01
0.01
0.01
0.01
0.01
0.01
0.01
0.01
0.01
0.01
0.01
0.01
0.01
0.01
0.01
0.01
0.01
0.01
0.01
0.01
0.01
0.01
0.01
0.01
0.01
0.01
0.01
0.01
0.01
0.01
0.01
0.01
0.01
0.01
0.01
0.01
0.01
0.01
0.01
0.01
0.01
0.01
0.01
0.01
0.01
0.01
0.01
0.01
0.01
0.01
0.01
0.01
0.01
0.01
0.01
0.01
0.01
0.01
0.01
0.01
0.01
0.01
0.01
0.01
0.01
0.01
0.01
0.01
0.01
0.01
0.01
0.01
0.01
0.01
0.01
0.01
0.01
0.01
0.01
0.01
0.01
0.01
0.01
0.01
0.01
0.01
0.01
0.01
0.01
0.01
0.01
0.01
0.01
0.01
0.01
0.01
0.01
0.01
0.01
0.01
0.01
0.01
0.01
0.01
0.01
0.01
0.01
0.01
0.01
0.01
0.01
0.01
0.01
0.01
0.01
0.01
0.01
0.01
0.01
0.01
0.01
0.01
0.01
0.01
0.01
0.01
0.01
0.01
0.01
0.01
0.01
0.01
0.01
0.01
0.01
0.01
0.01
0.01
0.01
0.01
0.01
0.01
0.01
0.01
0.01
0.01
0.01
0.01
0.01
0.01
0.01
0.01
0.01
0.01
0.01
0.01
0.01
0.01
0.01
0.01
0.01
0.01
0.01
0.01
0.01
0.01
0.01
0.01
0.01
0.01
0.01
0.01
0.01
0.01
0.01
0.01
0.01
0.01
0.01
0.01
0.01
0.01
0.01
0.01
0.01
0.01
0.01
0.01
0.01
0.01
0.01
0.01
0.01
0.01
0.01
0.01
0.01
0.01
0.01
0.01
0.01
0.01
0.01
0.01
0.01
0.01
0.01
0.01
0.01
0.01
0.01
0.01
0.01
0.01
0.01
0.01
0.01
0.01
0.01
0.01
0.01
0.01
0.01
0.01
0.01
0.01
0.01
0.01
0.01
0.01
0.01
0.01
0.01
0.01
0.01
0.01
0.01
0.01
0.01
0.01
0.01
0.01
0.01
0.01
0.01
0.01
0.01
0.01
0.01
0.01
0.01
0.01
0.01
0.01
0.01
0.01
0.01
0.01
0.01
0.01
0.01
0.01
0.01
0.01
0.01
0.01
0.01
0.01
0.01
0.01
0.01
0.01
0.01
0.01
0.01
0.01
0.01
0.01
0.01
0.01
0.01
0.01
0.01
0.01
0.01
0.01
0.01
0.01
0.01
0.01
0.01
0.01
0.01
0.01
0.01
0.01
0.01
0.01
0.01
0.01
0.01
0.01
0.01
0.01
0.01
0.01
0.01
0.01
0.01
0.01
0.01
0.01
0.01
0.01
0.01
0.01
0.01
0.01
0.01
0.01
0.01
0.01
0.01
0.01
0.01
0.01
0.01
0.01
0.01
0.01
0.01
0.01
0.01
0.01
0.01
0.01
0.01
0.01
0.01
0.01
0.01
0.01
0.01
0.01
0.01
0.01
0.01
0.01
0.01
0.01
0.01
0.01
0.01
0.01
0.01
0.01
0.01
0.01
0.01
0.01
0.01
0.01
0.01
0.01
0.0001057464
0.0001876126
0.0002801155
0.0009346721
0.001433984
0.00265337
0.003306887
0.003821031
0.004244946
0.004676483
0.005082787
0.005297406
0.005614093
0.005950441
0.006285456
0.006611925
0.00824985
0.008518583
0.008781316
0.009032158
0.009264706
0.009481696
0.009688722
0.009884175
0.01
0.01
0.01
0.01
0.01
0.01
0.01
0.01
0.01
0.01
0.01
0.01
0.01
0.01
0.01
0.01
0.01
0.01
0.01
0.01
0.01
0.01
0.01
0.01
0.01
0.01
0.01
0.01
0.01
0.01
0.01
0.01
0.01
0.01
0.01
0.01
0.01
0.01
0.01
0.01
0.01
0.01
0.01
0.01
0.01
0.01
0.01
0.01
0.01
0.01
0.01
0.01
0.01
0.01
0.01
0.01
0.01
0.01
0.01
0.01
0.01
0.01
0.01
0.01
0.01
0.01
0.01
0.01
0.01
0.01
0.01
0.01
0.01
0.01
0.01
0.01
0.01
0.01
0.01
0.01
0.01
0.01
0.01
0.01
0.01
0.01
0.01
0.01
0.01
0.01
0.01
0.01
0.01
0.01
0.01
0.01
0.01
0.01
0.01
0.01
0.01
0.01
0.01
0.01
0.01
0.01
0.01
0.01
0.01
0.01
0.01
0.01
0.01
0.01
0.01
0.01
0.01
0.01
0.01
0.01
0.01
0.01
0.01
0.01
0.01
0.01
0.01
0.01
0.01
0.01
0.01
0.01
0.01
0.01
0.01
0.01
0.01
0.01
0.01
0.01
0.01
0.01
0.01
0.01
0.01
0.01
0.01
0.01
0.01
0.01
0.01
0.01
0.01
0.01
0.01
0.01
0.01
0.01
0.01
0.01
0.01
0.01
0.01
0.01
0.01
0.01
0.01
0.01
0.01
0.01
0.01
0.01
0.01
0.01
0.01
0.01
0.01
0.01
0.01
0.01
0.01
0.01
0.01
0.01
0.01
0.01
0.01
0.01
0.01
0.01
0.01
0.01
0.01
0.01
0.01
0.01
0.01
0.01
0.01
0.01
0.01
0.01
0.01
0.01
0.01
0.01
0.01
0.01
0.01
0.01
0.01
0.01
0.01
0.01
0.01
0.01
0.01
0.01
0.01
0.01
0.01
0.01
0.01
0.01
0.01
0.01
0.01
0.01
0.01
0.01
0.01
0.01
0.01
0.01
0.01
0.01
0.01
0.01
0.01
0.01
0.01
0.01
0.01
0.01
0.01
0.01
0.01
0.01
0.01
0.01
0.01
0.01
0.01
0.01
0.01
0.01
0.01
0.01
0.01
0.01
0.01
0.01
0.01
0.01
0.01
0.01
0.01
0.01
0.01
0.01
0.01
0.01
0.01
0.01
0.01
0.01
0.01
0.01
0.01
0.01
0.01
0.01
0.01
0.01
0.01
0.01
0.01
0.01
0.01
0.01
0.01
0.01
0.01
0.01
0.01
0.01
0.01
0.01
0.01
0.01
0.01
0.01
0.01
0.01
0.01
0.01
0.01
0.01
0.01
0.01
0.01
0.01
0.01
0.01
0.01
0.01
0.01
0.01
0.01
0.01
0.01
0.01
0.01
0.01
0.01
0.01
0.01
0.01
0.01
0.01
0.01
0.01
0.01
0.01
0.01
0.01
0.01
0.01
0.01
0.01
0.01
0.01
0.01
0.01
0.01
0.01
0.01
0.01
0.01
0.01
0.01
0.01
0.01
0.01
0.01
0.01
0.01
0.01
0.01
0.01
0.01
0.01
0.01
0.01
0.01
0.01
0.01
0.01
0.01
0.01
0.01
0.01
0.01
0.01
0.01
0.01
0.01
0.01
0.01
0.01
0.01
0.01
0.01
0.01
0.01
0.01
0.01
0.01
0.01
0.01
0.01
0.01
0.01
0.01
0.01
0.01
0.01
0.01
0.01
0.01
0.01
0.01
0.01
0.01
0.01
0.01
0.01
0.01
0.01
0.01
0.01
0.01
0.01
0.01
0.01
0.01
0.01
0.01
0.01
0.01
0.01
0.01
0.01
0.01
0.01
0.01
0.01
0.01
0.01
0.01
0.01
0.01
0.01
0.01
0.01
0.01
0.01
0.01
0.01
0.01
0.01
0.01
0.01
0.01
0.01
0.01
0.01
0.01
0.01
0.01
7.507594e-05
0.0001529516
0.0002299406
0.0009040292
0.001586193
0.003679182
0.004492213
0.005304946
0.006195028
0.006797054
0.007457061
0.007957605
0.008372476
0.008834484
0.009276366
0.01
0.01
0.01
0.01
0.01
0.01
0.01
0.01
0.01
0.01
0.01
0.01
0.01
0.01
0.01
0.01
0.01
0.01
0.01
0.01
0.01
0.01
0.01
0.01
0.01
0.01
0.01
0.01
0.01
0.01
0.01
0.01
0.01
0.01
0.01
0.01
0.01
0.01
0.01
0.01
0.01
0.01
0.01
0.01
0.01
0.01
0.01
0.01
0.01
0.01
0.01
0.01
0.01
0.01
0.01
0.01
0.01
0.01
0.01
0.01
0.01
0.01
0.01
0.01
0.01
0.01
0.01
0.01
0.01
0.01
0.01
0.01
0.01
0.01
0.01
0.01
0.01
0.01
0.01
0.01
0.01
0.01
0.01
0.01
0.01
0.01
0.01
0.01
0.01
0.01
0.01
0.01
0.01
0.01
0.01
0.01
0.01
0.01
0.01
0.01
0.01
0.01
0.01
0.01
0.01
0.01
0.01
0.01
0.01
0.01
0.01
0.01
0.01
0.01
0.01
0.01
0.01
0.01
0.01
0.01
0.01
0.01
0.01
0.01
0.01
0.01
0.01
0.01
0.01
0.01
0.01
0.01
0.01
0.01
0.01
0.01
0.01
0.01
0.01
0.01
0.01
0.01
0.01
0.01
0.01
0.01
0.01
0.01
0.01
0.01
0.01
0.01
0.01
0.01
0.01
0.01
0.01
0.01
0.01
0.01
0.01
0.01
0.01
0.01
0.01
0.01
0.01
0.01
0.01
0.01
0.01
0.01
0.01
0.01
0.01
0.01
0.01
0.01
0.01
0.01
0.01
0.01
0.01
0.01
0.01
0.01
0.01
0.01
0.01
0.01
0.01
0.01
0.01
0.01
0.01
0.01
0.01
0.01
0.01
0.01
0.01
0.01
0.01
0.01
0.01
0.01
0.01
0.01
0.01
0.01
0.01
0.01
0.01
0.01
0.01
0.01
0.01
0.01
0.01
0.01
0.01
0.01
0.01
0.01
0.01
0.01
0.01
0.01
0.01
0.01
0.01
0.01
0.01
0.01
0.01
0.01
0.01
0.01
0.01
0.01
0.01
0.01
0.01
0.01
0.01
0.01
0.01
0.01
0.01
0.01
0.01
0.01
0.01
0.01
0.01
0.01
0.01
0.01
0.01
0.01
0.01
0.01
0.01
0.01
0.01
0.01
0.01
0.01
0.01
0.01
0.01
0.01
0.01
0.01
0.01
0.01
0.01
0.01
0.01
0.01
0.01
0.01
0.01
0.01
0.01
0.01
0.01
0.01
0.01
0.01
0.01
0.01
0.01
0.01
0.01
0.01
0.01
0.01
0.01
0.01
0.01
0.01
0.01
0.01
0.01
0.01
0.01
0.01
0.01
0.01
0.01
0.01
0.01
0.01
0.01
0.01
0.01
0.01
0.01
0.01
0.01
0.01
0.01
0.01
0.01
0.01
0.01
0.01
0.01
0.01
0.01
0.01
0.01
0.01
0.01
0.01
0.01
0.01
0.01
0.01
0.01
0.01
0.01
0.01
0.01
0.01
0.01
0.01
0.01
0.01
0.01
0.01
0.01
0.01
0.01
0.01
0.01
0.01
0.01
0.01
0.01
0.01
0.01
0.01
0.01
0.01
0.01
0.01
0.01
0.01
0.01
0.01
0.01
0.01
0.01
0.01
0.01
0.01
0.01
0.01
0.01
0.01
0.01
0.01
0.01
0.01
0.01
0.01
0.01
0.01
0.01
0.01
0.01
0.01
0.01
0.01
0.01
0.01
0.01
0.01
0.01
0.01
0.01
0.01
0.01
0.01
0.01
0.01
0.01
0.01
0.01
0.01
0.01
0.01
0.01
0.01
0.01
0.01
0.01
0.01
0.01
0.01
0.01
0.01
0.01
0.01
0.01
0.01
0.01
0.01
0.01
0.01
0.01
0.01
0.01
0.01
0.01
0.01
0.01
0.01
0.01
0.01
0.01
0.01
0.01
0.01
0.01
0.01
0.01
0.01
0.01
0.01
0.01
0.01
0.01
0.01
0.01
0.01
0.01
0.01
0.01
0.01
0.01
0.01
0.01
0.01
0.01
0.01
0.01
7.562601e-05
0.0007481892
0.001322704
0.002018635
0.002782849
0.003629037
0.004653192
0.005740437
0.006748805
0.007651743
0.009093753
0.009732388
0.01
0.01
0.01
0.01
0.01
0.01
0.01
0.01
0.01
0.01
0.01
0.01
0.01
0.01
0.01
0.01
0.01
0.01
0.01
0.01
0.01
0.01
0.01
0.01
0.01
0.01
0.01
0.01
0.01
0.01
0.01
0.01
0.01
0.01
0.01
0.01
0.01
0.01
0.01
0.01
0.01
0.01
0.01
0.01
0.01
0.01
0.01
0.01
0.01
0.01
0.01
0.01
0.01
0.01
0.01
0.01
0.01
0.01
0.01
0.01
0.01
0.01
0.01
0.01
0.01
0.01
0.01
0.01
0.01
0.01
0.01
0.01
0.01
0.01
0.01
0.01
0.01
0.01
0.01
0.01
0.01
0.01
0.01
0.01
0.01
0.01
0.01
0.01
0.01
0.01
0.01
0.01
0.01
0.01
0.01
0.01
0.01
0.01
0.01
0.01
0.01
0.01
0.01
0.01
0.01
0.01
0.01
0.01
0.01
0.01
0.01
0.01
0.01
0.01
0.01
0.01
0.01
0.01
0.01
0.01
0.01
0.01
0.01
0.01
0.01
0.01
0.01
0.01
0.01
0.01
0.01
0.01
0.01
0.01
0.01
0.01
0.01
0.01
0.01
0.01
0.01
0.01
0.01
0.01
0.01
0.01
0.01
0.01
0.01
0.01
0.01
0.01
0.01
0.01
0.01
0.01
0.01
0.01
0.01
0.01
0.01
0.01
0.01
0.01
0.01
0.01
0.01
0.01
0.01
0.01
0.01
0.01
0.01
0.01
0.01
0.01
0.01
0.01
0.01
0.01
0.01
0.01
0.01
0.01
0.01
0.01
0.01
0.01
0.01
0.01
0.01
0.01
0.01
0.01
0.01
0.01
0.01
0.01
0.01
0.01
0.01
0.01
0.01
0.01
0.01
0.01
0.01
0.01
0.01
0.01
0.01
0.01
0.01
0.01
0.01
0.01
0.01
0.01
0.01
0.01
0.01
0.01
0.01
0.01
0.01
0.01
0.01
0.01
0.01
0.01
0.01
0.01
0.01
0.01
0.01
0.01
0.01
0.01
0.01
0.01
0.01
0.01
0.01
0.01
0.01
0.01
0.01
0.01
0.01
0.01
0.01
0.01
0.01
0.01
0.01
0.01
0.01
0.01
0.01
0.01
0.01
0.01
0.01
0.01
0.01
0.01
0.01
0.01
0.01
0.01
0.01
0.01
0.01
0.01
0.01
0.01
0.01
0.01
0.01
0.01
0.01
0.01
0.01
0.01
0.01
0.01
0.01
0.01
0.01
0.01
0.01
0.01
0.01
0.01
0.01
0.01
0.01
0.01
0.01
0.01
0.01
0.01
0.01
0.01
0.01
0.01
0.01
0.01
0.01
0.01
0.01
0.01
0.01
0.01
0.01
0.01
0.01
0.01
0.01
0.01
0.01
0.01
0.01
0.01
0.01
0.01
0.01
0.01
0.01
0.01
0.01
0.01
0.01
0.01
0.01
0.01
0.01
0.01
0.01
0.01
0.01
0.01
0.01
0.01
0.01
0.01
0.01
0.01
0.01
0.01
0.01
0.01
0.01
0.01
0.01
0.01
0.01
0.01
0.01
0.01
0.01
0.01
0.01
0.01
0.01
0.01
0.01
0.01
0.01
0.01
0.01
0.01
0.01
0.01
0.01
0.01
0.01
0.01
0.01
0.01
0.01
0.01
0.01
0.01
0.01
0.01
0.01
0.01
0.01
0.01
0.01
0.01
0.01
0.01
0.01
0.01
0.01
0.01
0.01
0.01
0.01
0.01
0.01
0.01
0.01
0.01
0.01
0.01
0.01
0.01
0.01
0.01
0.01
0.01
0.01
0.01
0.01
0.01
0.01
0.01
0.01
0.01
0.01
0.01
0.01
0.01
0.01
0.01
0.01
0.01
0.01
0.01
0.01
0.01
0.01
0.01
0.01
0.01
0.01
0.01
0.01
0.01
0.01
0.01
0.01
0.01
0.01
0.01
0.01
0.01
0.01
0.01
0.01
0.01
0.01
0.01
0.01
0.01
0.01
0.01
0.01
0.01
0.01
0.01
0.01
0.01
0.01
0.01
0.01
0.01
0.01
0.01
0.01
0.01
0.01
0.01
0.01
0.0001042287
0.001768756
0.003733564
0.004951869
0.00600515
0.006855482
0.007503199
0.007971472
0.008301563
0.008649802
0.009077505
0.009671714
0.009783499
0.009998596
0.01
0.01
0.01
0.01
0.01
0.01
0.01
0.01
0.01
0.01
0.01
0.01
0.01
0.01
0.01
0.01
0.01
0.01
0.01
0.01
0.01
0.01
0.01
0.01
0.01
0.01
0.01
0.01
0.01
0.01
0.01
0.01
0.01
0.01
0.01
0.01
0.01
0.01
0.01
0.01
0.01
0.01
0.01
0.01
0.01
0.01
0.01
0.01
0.01
0.01
0.01
0.01
0.01
0.01
0.01
0.01
0.01
0.01
0.01
0.01
0.01
0.01
0.01
0.01
0.01
0.01
0.01
0.01
0.01
0.01
0.01
0.01
0.01
0.01
0.01
0.01
0.01
0.01
0.01
0.01
0.01
0.01
0.01
0.01
0.01
0.01
0.01
0.01
0.01
0.01
0.01
0.01
0.01
0.01
0.01
0.01
0.01
0.01
0.01
0.01
0.01
0.01
0.01
0.01
0.01
0.01
0.01
0.01
0.01
0.01
0.01
0.01
0.01
0.01
0.01
0.01
0.01
0.01
0.01
0.01
0.01
0.01
0.01
0.01
0.01
0.01
0.01
0.01
0.01
0.01
0.01
0.01
0.01
0.01
0.01
0.01
0.01
0.01
0.01
0.01
0.01
0.01
0.01
0.01
0.01
0.01
0.01
0.01
0.01
0.01
0.01
0.01
0.01
0.01
0.01
0.01
0.01
0.01
0.01
0.01
0.01
0.01
0.01
0.01
0.01
0.01
0.01
0.01
0.01
0.01
0.01
0.01
0.01
0.01
0.01
0.01
0.01
0.01
0.01
0.01
0.01
0.01
0.01
0.01
0.01
0.01
0.01
0.01
0.01
0.01
0.01
0.01
0.01
0.01
0.01
0.01
0.01
0.01
0.01
0.01
0.01
0.01
0.01
0.01
0.01
0.01
0.01
0.01
0.01
0.01
0.01
0.01
0.01
0.01
0.01
0.01
0.01
0.01
0.01
0.01
0.01
0.01
0.01
0.01
0.01
0.01
0.01
0.01
0.01
0.01
0.01
0.01
0.01
0.01
0.01
0.01
0.01
0.01
0.01
0.01
0.01
0.01
0.01
0.01
0.01
0.01
0.01
0.01
0.01
0.01
0.01
0.01
0.01
0.01
0.01
0.01
0.01
0.01
0.01
0.01
0.01
0.01
0.01
0.01
0.01
0.01
0.01
0.01
0.01
0.01
0.01
0.01
0.01
0.01
0.01
0.01
0.01
0.01
0.01
0.01
0.01
0.01
0.01
0.01
0.01
0.01
0.01
0.01
0.01
0.01
0.01
0.01
0.01
0.01
0.01
0.01
0.01
0.01
0.01
0.01
0.01
0.01
0.01
0.01
0.01
0.01
0.01
0.01
0.01
0.01
0.01
0.01
0.01
0.01
0.01
0.01
0.01
0.01
0.01
0.01
0.01
0.01
0.01
0.01
0.01
0.01
0.01
0.01
0.01
0.01
0.01
0.01
0.01
0.01
0.01
0.01
0.01
0.01
0.01
0.01
0.01
0.01
0.01
0.01
0.01
0.01
0.01
0.01
0.01
0.01
0.01
0.01
0.01
0.01
0.01
0.01
0.01
0.01
0.01
0.01
0.01
0.01
0.01
0.01
0.01
0.01
0.01
0.01
0.01
0.01
0.01
0.01
0.01
0.01
0.01
0.01
0.01
0.01
0.01
0.01
0.01
0.01
0.01
0.01
0.01
0.01
0.01
0.01
0.01
0.01
0.01
0.01
0.01
0.01
0.01
0.01
0.01
0.01
0.01
0.01
0.01
0.01
0.01
0.01
0.01
0.01
0.01
0.01
0.01
0.01
0.01
0.01
0.01
0.01
0.01
0.01
0.01
0.01
0.01
0.01
0.01
0.01
0.01
0.01
0.01
0.01
0.01
0.01
0.01
0.01
0.01
0.01
0.01
0.01
0.01
0.01
0.01
0.01
0.01
0.01
0.01
0.01
0.01
0.01
0.01
0.01
0.01
0.01
0.01
0.01
0.01
0.01
0.01
0.01
0.01
0.01
0.01
0.01
0.01
0.01
0.01
0.01
0.01
0.01
0.01
0.01
0.01
0.01
0.01
0.01
0.01
0.01
0.01
0.01
0.01
3.281681e-05
4.901511e-05
7.674751e-05
0.0002844861
0.0004790949
0.001035559
0.001238861
0.001361277
0.00135673
0.001330638
0.001378833
0.001421439
0.001439789
0.001381701
0.000840619
0.0001388745
2.134711e-05
0.0001175125
0.002617913
0.004654277
0.005855843
0.006699623
0.007149393
0.007287653
0.007257873
0.007211403
0.00734446
0.007718139
0.007995622
0.007951649
0.008517378
0.009428429
0.01
0.01
0.01
0.01
0.01
0.01
0.01
0.01
0.01
0.01
0.01
0.01
0.01
0.01
0.01
0.01
0.01
0.01
0.01
0.01
0.01
0.01
0.01
0.01
0.01
0.01
0.01
0.01
0.01
0.01
0.01
0.01
0.01
0.01
0.01
0.01
0.01
0.01
0.01
0.01
0.01
0.01
0.01
0.01
0.01
0.01
0.01
0.01
0.01
0.01
0.01
0.01
0.01
0.01
0.01
0.01
0.01
0.01
0.01
0.01
0.01
0.01
0.01
0.01
0.01
0.01
0.01
0.01
0.01
0.01
0.01
0.01
0.01
0.01
0.01
0.01
0.01
0.01
0.01
0.01
0.01
0.01
0.01
0.01
0.01
0.01
0.01
0.01
0.01
0.01
0.01
0.01
0.01
0.01
0.01
0.01
0.01
0.01
0.01
0.01
0.01
0.01
0.01
0.01
0.01
0.01
0.01
0.01
0.01
0.01
0.01
0.01
0.01
0.01
0.01
0.01
0.01
0.01
0.01
0.01
0.01
0.01
0.01
0.01
0.01
0.01
0.01
0.01
0.01
0.01
0.01
0.01
0.01
0.01
0.01
0.01
0.01
0.01
0.01
0.01
0.01
0.01
0.01
0.01
0.01
0.01
0.01
0.01
0.01
0.01
0.01
0.01
0.01
0.01
0.01
0.01
0.01
0.01
0.01
0.01
0.01
0.01
0.01
0.01
0.01
0.01
0.01
0.01
0.01
0.01
0.01
0.01
0.01
0.01
0.01
0.01
0.01
0.01
0.01
0.01
0.01
0.01
0.01
0.01
0.01
0.01
0.01
0.01
0.01
0.01
0.01
0.01
0.01
0.01
0.01
0.01
0.01
0.01
0.01
0.01
0.01
0.01
0.01
0.01
0.01
0.01
0.01
0.01
0.01
0.01
0.01
0.01
0.01
0.01
0.01
0.01
0.01
0.01
0.01
0.01
0.01
0.01
0.01
0.01
0.01
0.01
0.01
0.01
0.01
0.01
0.01
0.01
0.01
0.01
0.01
0.01
0.01
0.01
0.01
0.01
0.01
0.01
0.01
0.01
0.01
0.01
0.01
0.01
0.01
0.01
0.01
0.01
0.01
0.01
0.01
0.01
0.01
0.01
0.01
0.01
0.01
0.01
0.01
0.01
0.01
0.01
0.01
0.01
0.01
0.01
0.01
0.01
0.01
0.01
0.01
0.01
0.01
0.01
0.01
0.01
0.01
0.01
0.01
0.01
0.01
0.01
0.01
0.01
0.01
0.01
0.01
0.01
0.01
0.01
0.01
0.01
0.01
0.01
0.01
0.01
0.01
0.01
0.01
0.01
0.01
0.01
0.01
0.01
0.01
0.01
0.01
0.01
0.01
0.01
0.01
0.01
0.01
0.01
0.01
0.01
0.01
0.01
0.01
0.01
0.01
0.01
0.01
0.01
0.01
0.01
0.01
0.01
0.01
0.01
0.01
0.01
0.01
0.01
0.01
0.01
0.01
0.01
0.01
0.01
0.01
0.01
0.01
0.01
0.01
0.01
0.01
0.01
0.01
0.01
0.01
0.01
0.01
0.01
0.01
0.01
0.01
0.01
0.01
0.01
0.01
0.01
0.01
0.01
0.01
0.01
0.01
0.01
0.01
0.01
0.01
0.01
0.01
0.01
0.01
0.01
0.01
0.01
0.01
0.01
0.01
0.01
0.01
0.01
0.01
0.01
0.01
0.01
0.01
0.01
0.01
0.01
0.01
0.01
0.01
0.01
0.01
0.01
0.01
0.01
0.01
0.01
0.01
0.01
0.01
0.01
0.01
0.01
0.01
0.01
0.01
0.01
0.01
0.01
0.01
0.01
0.01
0.01
0.01
0.01
0.01
0.01
0.01
0.01
0.01
0.01
0.01
0.01
0.01
0.01
0.01
0.01
0.01
0.01
0.01
0.01
0.01
0.01
0.01
0.01
0.01
0.01
0.01
0.01
0.01
0.01
0.01
0.01
0.01
0.01
0.01
0.01
0.01
0.01
0.01
0.01
0.01
0.01
0.01
0.01
0.01
0.01
0.01
0.01
0.01
0.01
0.01
0.01
0.01
0.01
3.874461e-05
5.993401e-05
0.0002174707
0.0003894941
0.0006206852
0.001244913
0.001545311
0.001875969
0.002222109
0.002578291
0.002911499
0.003223725
0.003546194
0.003870573
0.004184707
0.005480229
0.005702107
0.005846299
0.005914664
0.005961909
0.005989779
0.005976756
0.005890295
0.005668276
0.00475788
0.003601908
0.002557369
0.001631082
0.0008831057
0.0001533942
0.000109472
0.003112413
0.005130218
0.006191335
0.006770599
0.006851157
0.006563375
0.006131677
0.005846891
0.005866737
0.00623076
0.00620409
0.006468511
0.007264528
0.008467756
0.00983981
0.01
0.01
0.01
0.01
0.01
0.01
0.01
0.01
0.01
0.01
0.01
0.01
0.01
0.01
0.01
0.01
0.01
0.01
0.01
0.01
0.01
0.01
0.01
0.01
0.01
0.01
0.01
0.01
0.01
0.01
0.01
0.01
0.01
0.01
0.01
0.01
0.01
0.01
0.01
0.01
0.01
0.01
0.01
0.01
0.01
0.01
0.01
0.01
0.01
0.01
0.01
0.01
0.01
0.01
0.01
0.01
0.01
0.01
0.01
0.01
0.01
0.01
0.01
0.01
0.01
0.01
0.01
0.01
0.01
0.01
0.01
0.01
0.01
0.01
0.01
0.01
0.01
0.01
0.01
0.01
0.01
0.01
0.01
0.01
0.01
0.01
0.01
0.01
0.01
0.01
0.01
0.01
0.01
0.01
0.01
0.01
0.01
0.01
0.01
0.01
0.01
0.01
0.01
0.01
0.01
0.01
0.01
0.01
0.01
0.01
0.01
0.01
0.01
0.01
0.01
0.01
0.01
0.01
0.01
0.01
0.01
0.01
0.01
0.01
0.01
0.01
0.01
0.01
0.01
0.01
0.01
0.01
0.01
0.01
0.01
0.01
0.01
0.01
0.01
0.01
0.01
0.01
0.01
0.01
0.01
0.01
0.01
0.01
0.01
0.01
0.01
0.01
0.01
0.01
0.01
0.01
0.01
0.01
0.01
0.01
0.01
0.01
0.01
0.01
0.01