/*--------------------------------*- C++ -*----------------------------------*\
| =========                 |                                                 |
| \\      /  F ield         | foam-extend: Open Source CFD                    |
|  \\    /   O peration     | Version:     3.1                                |
|   \\  /    A nd           | Web:         http://www.extend-project.de       |
|    \\/     M anipulation  |                                                 |
\*---------------------------------------------------------------------------*/
FoamFile
{
    version     2.0;
    format      ascii;
    class       volScalarField;
    location    "0.5";
    object      omega;
}
// * * * * * * * * * * * * * * * * * * * * * * * * * * * * * * * * * * * * * //

dimensions      [0 0 -1 0 0 0 0];

internalField   nonuniform List<scalar> 
119952
(
236.5405
276.1294
265.913
246.6591
230.8886
235.0949
240.9012
246.9622
252.9867
258.9397
264.8581
270.7975
276.8166
282.9716
289.316
295.8993
302.7694
309.9885
317.7207
326.8463
285.9171
284.2683
286.8003
251.8842
247.5811
245.5144
243.6116
241.7298
235.7714
246.428
447.6674
344.7076
297.8351
271.5386
251.9346
235.1013
220.0801
206.7318
194.8761
181.0859
132.0367
105.9371
92.31573
84.92199
80.49121
77.39214
74.88403
72.65358
70.55525
54.89764
51.10395
47.93307
45.44859
43.56937
42.15501
41.06814
40.20243
39.48237
38.84182
38.03628
37.00234
35.89914
34.86895
33.98531
33.25867
32.66313
32.15696
31.70255
32.17687
32.26428
31.84488
31.24723
30.66472
30.16745
29.77028
29.48681
29.31123
29.2156
29.18068
29.19017
29.23088
29.29242
29.36671
29.44747
29.5292
29.60478
29.65841
29.65699
29.61427
29.56376
29.46639
29.32347
29.23379
29.19475
29.23967
29.53623
30.8023
33.29039
33.83618
33.94194
33.89494
33.78264
33.64674
33.5132
33.39658
33.30366
33.2362
33.19322
33.17234
33.17053
33.18447
33.21066
33.24552
33.28658
33.33159
33.3786
33.42887
33.484
33.54451
33.61036
33.6812
33.75633
33.83455
33.91469
33.99593
34.07785
34.16023
34.24306
34.32661
34.41064
34.49539
34.58095
34.6674
34.75484
34.84334
34.93299
35.02389
35.11599
35.20941
35.30426
35.40059
35.49838
35.59771
35.69853
35.80039
35.89967
36.00732
36.88147
38.02412
38.91673
39.54822
39.98218
40.28153
40.4941
40.652
40.77599
40.88107
40.97568
41.06505
41.15222
41.23908
41.32663
41.4155
41.50604
41.59884
41.69441
41.79567
41.90201
42.01299
42.12824
42.24744
42.37058
42.49789
42.62952
42.76543
42.90537
43.04911
43.19632
43.34671
43.50004
43.65615
43.81499
43.97652
44.1408
44.3079
44.47794
44.65106
44.82742
45.00723
45.19065
45.37783
45.56887
45.764
45.9634
46.16718
46.36859
46.65259
57.92132
69.41275
73.04495
74.31598
74.78895
74.99891
75.14857
75.3121
75.50886
75.75389
76.04227
76.36624
76.72012
77.09934
77.50044
77.92116
78.36029
78.81742
79.2929
79.78747
80.30276
80.83913
81.39495
81.9697
82.5665
83.18209
83.81849
84.47411
85.14792
85.83896
86.54565
87.26546
87.98227
88.70561
89.31161
88.75047
87.27905
86.34155
85.6514
85.06324
84.5089
83.96169
83.4126
82.86021
82.30558
81.75081
81.19875
80.64944
80.10438
79.56456
79.03058
78.5028
77.98125
77.46569
76.95568
76.4507
75.95033
75.45439
74.96297
74.4764
73.99491
73.5191
73.05021
72.58728
72.13073
71.68069
71.23714
70.79997
70.3679
69.93344
57.25914
53.94028
50.95074
48.50449
46.66266
45.36877
44.50386
43.94177
43.57859
43.33998
43.1766
43.05712
42.9621
42.87967
42.80278
42.72732
42.65102
42.5726
42.49132
42.40667
42.31827
42.22576
42.12888
42.02751
41.92172
41.81183
41.69831
41.58173
41.4628
41.3422
41.22059
41.09854
40.9765
40.85485
40.73382
40.61363
40.49438
40.37617
40.25905
40.14306
40.02828
39.91491
39.80338
39.6942
39.58936
39.494
39.40896
39.32865
39.25179
39.17759
39.10558
39.03534
38.9661
38.89352
38.73575
38.25107
37.54052
36.77371
36.08315
35.53489
35.13797
34.86942
34.69621
34.58774
34.52041
34.47785
34.44947
34.42875
34.41188
34.39662
34.38166
34.36611
34.34931
34.33066
34.30963
34.28582
34.25894
34.22886
34.19563
34.15945
34.12068
34.07974
34.03708
33.99315
33.94834
33.903
33.85736
33.81163
33.76594
33.72037
33.67499
33.62982
33.58488
33.54019
33.49573
33.45153
33.40756
33.36383
33.32033
33.27705
33.234
33.19117
33.14854
33.10613
33.06392
33.02191
32.98009
32.93847
32.89702
32.85575
32.81465
32.77372
32.73295
32.69234
32.65187
32.61154
32.57133
32.53125
32.49127
32.45138
32.41156
32.37178
32.33204
32.29228
32.25246
32.21253
32.1724
32.13196
32.09105
32.04942
32.00666
31.9621
31.91449
31.86131
31.79712
31.70872
31.56531
31.3167
31.71213
384.2717
315.4532
283.1692
261.7547
243.8745
227.9757
213.7824
201.1642
189.4177
153.1908
116.2117
97.54215
87.83231
82.39999
78.87999
76.18515
73.85507
71.70596
56.98571
52.90182
49.35328
46.51203
44.34843
42.73164
41.50968
40.55593
39.77955
39.11298
38.43088
37.48615
36.38797
35.3029
34.34089
33.53955
32.88854
32.35813
31.91624
31.92218
31.80659
31.30132
30.64885
29.98377
29.37267
28.83914
28.38315
27.99419
27.65755
27.33926
26.98815
26.59319
26.17404
25.75978
25.37365
25.02783
24.72504
24.47738
22.08881
21.85954
21.63624
21.40826
21.17724
20.94928
20.73055
20.5254
20.33586
20.16114
19.99522
19.8301
19.66095
19.48736
19.31231
19.14008
18.97481
18.8207
18.68844
18.59839
18.53212
18.46967
18.40602
18.34154
18.27578
18.20932
18.14476
18.08553
18.03539
17.99534
17.96444
17.94188
17.92708
17.91909
17.91667
17.91823
17.92139
17.92208
17.9201
17.91554
17.9079
17.89479
17.88164
17.87826
17.88929
17.93145
18.02567
18.19883
18.39245
18.55376
18.68155
18.77797
18.84759
18.89524
18.92559
18.94302
18.95149
18.95443
18.95467
18.95429
18.95463
18.95626
18.95912
18.96281
18.96684
18.97093
18.97523
18.98027
18.98669
18.99504
19.00559
19.01839
19.03323
19.04971
19.06738
19.08582
19.1047
19.1238
19.14297
19.16215
19.1813
19.20042
19.21953
19.23866
19.25784
19.27708
19.29641
19.31584
19.33538
19.35504
19.37483
19.39474
19.41477
19.43488
19.45498
19.47492
19.49473
19.51809
19.5598
19.62525
19.70925
19.80289
19.89807
19.98917
20.0729
20.14778
20.21357
20.27079
20.32032
20.36315
20.40025
20.43255
20.4609
20.48608
20.5089
20.53012
20.5505
20.57063
20.59082
20.61118
20.63167
20.65224
20.6729
20.69371
20.71473
20.73604
20.75769
20.7797
20.80206
20.82475
20.84773
20.87098
20.89448
20.91821
20.94216
20.96635
20.99076
21.01541
21.04029
21.06543
21.09082
21.11645
21.14233
21.16841
21.19465
21.22074
21.24568
21.26294
22.60144
23.48015
23.9087
24.19195
24.41195
24.5898
24.73278
24.84613
24.9351
25.00482
25.05982
25.10377
25.13951
25.16915
25.19431
25.21625
25.23613
25.25504
25.27409
25.2943
25.31634
25.34046
25.3665
25.39424
25.42333
25.45364
25.48506
25.5174
25.5504
25.58365
25.6166
25.64831
25.67706
25.69894
25.70409
25.67546
25.62333
25.5602
25.49398
25.4299
25.37051
25.3165
25.26756
25.22292
25.1817
25.14308
25.10636
25.07097
25.03649
25.00257
24.96897
24.93552
24.90213
24.86876
24.83543
24.80218
24.76906
24.73611
24.70331
24.67067
24.63815
24.60572
24.57337
24.5411
24.50891
24.47683
24.4449
24.41313
24.38174
24.35928
22.15149
22.04915
21.94838
21.8317
21.69841
21.55539
21.41138
21.27399
21.14838
21.03728
20.94139
20.86007
20.79192
20.73522
20.6882
20.64922
20.61677
20.58951
20.5662
20.54574
20.52717
20.50965
20.49252
20.47529
20.45765
20.43942
20.42055
20.40108
20.38111
20.36076
20.34015
20.3194
20.29859
20.2778
20.25709
20.23649
20.21603
20.19573
20.17563
20.15574
20.13612
20.11686
20.09807
20.07997
20.06289
20.04712
20.0324
20.01836
20.00478
19.99153
19.97857
19.96587
19.95347
19.94117
19.92605
19.90107
19.86075
19.80375
19.73287
19.6534
19.57129
19.49166
19.41814
19.35273
19.29618
19.24832
19.20847
19.17568
19.14895
19.12727
19.10966
19.0952
19.08305
19.07244
19.06275
19.05349
19.0443
19.03494
19.02531
19.01537
19.00511
18.99461
18.9839
18.97307
18.96216
18.95123
18.9403
18.92939
18.91853
18.90771
18.89693
18.8862
18.87551
18.86486
18.85424
18.84366
18.83311
18.82259
18.81209
18.80162
18.79117
18.78074
18.77032
18.75992
18.74954
18.73917
18.7288
18.71845
18.70809
18.69774
18.68738
18.67702
18.66665
18.65627
18.64586
18.63542
18.62495
18.61442
18.60383
18.59317
18.58242
18.57155
18.56055
18.54937
18.53799
18.52634
18.51436
18.50194
18.48896
18.47522
18.46044
18.44418
18.42576
18.40403
18.37718
18.34248
18.29705
18.24682
18.21742
422.3056
327.9108
289.2231
267.5436
249.8821
233.8861
219.3311
206.3195
194.7393
181.2461
129.9367
103.7976
90.91432
84.29521
80.39893
77.59664
75.22775
73.05036
70.96517
54.89802
50.86991
47.59458
45.10887
43.28498
41.9409
40.91698
40.09898
39.41093
38.78209
37.93535
36.83797
35.68828
34.64331
33.77005
33.06729
32.50374
32.04238
31.63977
31.87282
31.498
30.87122
30.18581
29.53975
28.97171
28.48715
28.07638
27.72469
27.41041
27.08006
26.70129
26.28522
25.86204
25.46012
25.09653
24.77696
24.50778
22.06232
21.84387
21.63483
21.41787
21.19273
20.96585
20.7446
20.53469
20.33934
20.15922
19.99088
19.82623
19.65855
19.48546
19.30871
19.13237
18.96084
18.79768
18.64571
18.51328
18.39595
18.28199
18.164
18.03975
17.91057
17.77947
17.6497
17.52391
17.40372
17.28883
17.17696
17.0654
16.95238
16.83766
16.7223
16.60795
16.49571
16.38088
16.31482
16.23418
16.14355
16.04523
15.94116
15.83349
15.72449
15.61627
15.5105
15.4082
15.30925
15.21264
15.11706
15.02159
14.9259
14.83027
14.7354
14.64252
14.55432
14.4755
14.40663
14.34609
14.29282
14.24589
14.20347
14.16383
14.12608
14.09009
14.05633
14.02537
13.99809
13.97482
13.95517
13.93882
13.92544
13.91451
13.9053
13.89776
13.89157
13.88634
13.88159
13.87675
13.87348
13.87515
13.8865
13.91468
13.96513
14.03993
14.11977
14.19391
14.26121
14.3212
14.37347
14.41796
14.45487
14.48503
14.50954
14.52965
14.54662
14.56154
14.57512
14.58771
14.59927
14.60957
14.61834
14.62556
14.63145
14.63654
14.64148
14.64687
14.65317
14.66065
14.66934
14.67913
14.68979
14.70107
14.71274
14.72461
14.73656
14.74851
14.7604
14.77223
14.784
14.79571
14.80739
14.81904
14.83069
14.84234
14.854
14.86568
14.87737
14.88908
14.90079
14.91248
14.92412
14.93564
14.94707
14.95914
14.97407
14.99383
15.01933
15.05028
15.08554
15.1236
15.163
15.20246
15.241
15.27792
15.31279
15.34538
15.37561
15.40352
15.42925
15.45303
15.47516
15.49596
15.51576
15.5348
15.55319
15.57093
15.58794
15.60417
15.61963
15.63434
15.64843
15.66201
15.67523
15.68818
15.70098
15.7137
15.72638
15.73907
15.7518
15.76457
15.77741
15.79032
15.80332
15.8164
15.82957
15.84283
15.85617
15.86961
15.88311
15.89666
15.91023
15.9238
15.93781
15.95722
16.0272
16.05808
16.08775
16.12476
16.16851
16.21611
16.26469
16.312
16.35657
16.3976
16.43473
16.46794
16.49737
16.52325
16.54591
16.56573
16.58318
16.59876
16.61299
16.62632
16.63908
16.65143
16.66347
16.67516
16.68652
16.69757
16.70833
16.71879
16.72892
16.7386
16.7476
16.75551
16.7616
16.76455
16.76241
16.75432
16.74176
16.7256
16.70685
16.68645
16.66524
16.64383
16.62269
16.6021
16.5822
16.56305
16.54461
16.52682
16.50958
16.49281
16.47643
16.46041
16.44471
16.42936
16.41438
16.39983
16.38572
16.37206
16.35882
16.34596
16.33341
16.32112
16.30902
16.29707
16.28525
16.27352
16.26189
16.25027
16.23782
16.21709
16.23555
16.23657
16.2247
16.20162
16.16859
16.12724
16.07969
16.02825
15.97515
15.92226
15.87103
15.82246
15.77715
15.73542
15.69734
15.66286
15.63178
15.60384
15.5787
15.55596
15.53523
15.51613
15.49833
15.48153
15.46552
15.45015
15.4353
15.4209
15.40689
15.39324
15.37992
15.36691
15.35417
15.34167
15.3294
15.31733
15.30545
15.29375
15.28223
15.2709
15.25977
15.2489
15.23834
15.22819
15.21855
15.20951
15.201
15.1929
15.18512
15.17759
15.17027
15.16315
15.15622
15.14945
15.14238
15.13372
15.12195
15.10584
15.08486
15.05919
15.02966
14.99744
14.96377
14.92983
14.89659
14.86477
14.83487
14.80719
14.78185
14.75886
14.73808
14.71932
14.7023
14.68676
14.67244
14.65915
14.64673
14.63505
14.62404
14.61364
14.6038
14.59447
14.58559
14.57711
14.56896
14.5611
14.55346
14.54601
14.5387
14.53149
14.52436
14.51729
14.51027
14.50327
14.4963
14.48934
14.48239
14.47545
14.46851
14.46157
14.45463
14.44769
14.44074
14.43379
14.42682
14.41984
14.41284
14.40582
14.39878
14.39171
14.38462
14.37751
14.37037
14.36321
14.35601
14.34877
14.34147
14.3341
14.32666
14.31913
14.31149
14.30372
14.2958
14.2877
14.27937
14.27078
14.26184
14.25248
14.24257
14.23197
14.22046
14.20771
14.1933
14.17659
14.15672
14.13262
14.10349
14.07096
14.04355
329.2718
240.958
179.3256
110.7286
83.51315
56.42453
49.07444
43.85246
40.08979
37.26949
35.16242
33.56441
32.73369
32.01973
31.12557
30.24393
29.46805
28.82674
28.31196
27.90051
27.56678
27.28606
27.01148
26.68355
26.29872
25.88923
25.49175
25.12995
24.81207
24.53632
24.31394
21.92651
21.6947
21.4625
21.2227
20.98085
20.7454
20.5231
20.31774
20.13014
19.95799
19.79314
19.62648
19.45359
19.27548
19.09642
18.92145
18.75462
18.59863
18.45842
18.33912
18.22777
18.11387
17.99317
17.86617
17.73588
17.60587
17.47925
17.35806
17.2429
17.13196
17.02227
16.9114
16.7985
16.68426
16.57021
16.45741
16.34046
16.27081
16.18873
16.09852
16.00162
15.89918
15.79276
15.68433
15.57589
15.46919
15.36544
15.26496
15.16697
15.0701
14.97315
14.87541
14.77673
14.67731
14.57732
14.47661
14.37745
14.28246
14.19151
14.10332
14.01661
13.93054
13.84486
13.75978
13.67579
13.59341
13.51294
13.4343
13.35707
13.2807
13.20479
13.12914
13.05375
12.97871
12.90404
12.83464
12.767
12.69929
12.63066
12.56083
12.48999
12.41861
12.34728
12.27658
12.20698
12.13872
12.07173
12.0058
11.94063
11.876
11.81185
11.74833
11.68596
11.62582
11.56966
11.5182
11.47154
11.42982
11.39294
11.36025
11.33083
11.30386
11.27875
11.25513
11.23286
11.21199
11.19261
11.17482
11.1587
11.14436
11.13186
11.1212
11.11236
11.10524
11.0998
11.09585
11.09326
11.09248
11.0943
11.10318
11.12043
11.14737
11.18343
11.22214
11.25944
11.29463
11.32775
11.3587
11.38735
11.41365
11.43767
11.45966
11.47994
11.49893
11.51695
11.53414
11.55043
11.56557
11.57918
11.59096
11.60078
11.60878
11.61532
11.62092
11.62611
11.63137
11.63703
11.64327
11.65012
11.65752
11.66536
11.67349
11.68181
11.69021
11.69863
11.70702
11.71537
11.72366
11.73191
11.74012
11.74829
11.75645
11.76459
11.77271
11.78084
11.78895
11.79706
11.80515
11.81322
11.82124
11.82918
11.83704
11.84499
11.85346
11.86301
11.87421
11.88746
11.90292
11.92051
11.93999
11.961
11.98312
12.00597
12.02916
12.05239
12.07539
12.09797
12.12001
12.14142
12.16222
12.18241
12.20202
12.22101
12.2393
12.25675
12.27321
12.28858
12.30279
12.31589
12.32795
12.33912
12.34957
12.35944
12.36889
12.37804
12.38698
12.39579
12.40454
12.41325
12.42195
12.43067
12.43942
12.44821
12.45704
12.46591
12.47483
12.48378
12.49276
12.50175
12.51075
12.51974
12.52892
12.53962
12.55718
12.57543
12.59433
12.61474
12.63716
12.66152
12.68746
12.71445
12.74195
12.76948
12.79665
12.82308
12.84851
12.87269
12.89547
12.91677
12.9366
12.95503
12.97219
12.98818
13.00308
13.0169
13.02963
13.04126
13.05183
13.06137
13.06997
13.07772
13.08465
13.09075
13.09594
13.09996
13.1024
13.10262
13.09978
13.09369
13.08557
13.07561
13.0641
13.05132
13.03759
13.02318
13.00834
12.99327
12.97813
12.96302
12.94802
12.93318
12.91853
12.90409
12.88988
12.87593
12.8623
12.84905
12.83624
12.82393
12.81216
12.80095
12.79027
12.78009
12.77034
12.76095
12.75186
12.74301
12.73434
12.72583
12.71745
12.70916
12.70078
12.6918
12.68636
12.68119
12.67452
12.66533
12.6531
12.63763
12.61903
12.59764
12.57393
12.5484
12.52159
12.49398
12.46599
12.43803
12.41042
12.38348
12.35743
12.33247
12.3087
12.28622
12.26502
12.24512
12.22647
12.20904
12.19278
12.17761
12.16348
12.15029
12.13797
12.12641
12.11552
12.1052
12.09536
12.08592
12.07681
12.06798
12.05938
12.05098
12.04277
12.03473
12.02688
12.01923
12.01181
12.00467
11.99784
11.99136
11.98522
11.97938
11.97379
11.96841
11.96323
11.95822
11.95338
11.9487
11.94409
11.93926
11.93377
11.92714
11.91893
11.90884
11.89672
11.8826
11.86667
11.84921
11.83057
11.81113
11.79124
11.77127
11.7515
11.73218
11.71348
11.69554
11.67843
11.6622
11.6469
11.63256
11.61921
11.60687
11.59554
11.5852
11.57579
11.56724
11.55946
11.55233
11.54576
11.53964
11.53387
11.52837
11.52309
11.51796
11.51294
11.50801
11.50314
11.49831
11.49351
11.48874
11.48399
11.47926
11.47453
11.46982
11.46512
11.46042
11.45573
11.45104
11.44635
11.44166
11.43696
11.43226
11.42755
11.42283
11.4181
11.41334
11.40857
11.40376
11.39892
11.39404
11.38911
11.38412
11.37906
11.37392
11.36869
11.36336
11.35789
11.35227
11.34647
11.34045
11.33416
11.32753
11.32049
11.31293
11.30472
11.29565
11.2855
11.27396
11.26063
11.24512
11.22718
11.20738
11.18925
518.0482
374.3994
289.9932
132.0889
100.7226
65.59523
53.48685
46.6823
42.03066
38.00906
34.81185
33.03251
30.97736
29.1374
27.55912
26.21113
22.44258
21.74325
21.12923
20.59506
20.13501
19.73258
19.37517
19.06389
18.78926
18.53737
18.30073
18.07739
17.86847
17.67593
17.50116
17.34441
17.20463
17.07854
16.96085
16.8466
16.7328
16.6187
16.50507
16.39321
16.2837
16.17087
16.10428
16.02096
15.92617
15.82299
15.71423
15.60282
15.49149
15.3824
15.27701
15.17589
15.07828
14.98254
14.88698
14.79048
14.69259
14.59324
14.49218
14.38977
14.28995
14.19531
14.10563
14.01937
13.93486
13.851
13.76734
13.68403
13.60155
13.5205
13.44136
13.36418
13.28861
13.21407
13.14002
13.06615
12.99236
12.91864
12.84486
12.77592
12.70864
12.64139
12.57335
12.5042
12.43399
12.36309
12.29199
12.22119
12.15115
12.08212
12.0141
11.94685
11.88003
11.81332
11.74644
11.67927
11.61183
11.5444
11.47773
11.41257
11.34927
11.28786
11.22815
11.16984
11.1127
11.05657
11.00138
10.94717
10.89398
10.84185
10.79073
10.74049
10.69099
10.64203
10.59346
10.54514
10.497
10.44947
10.40246
10.35576
10.30921
10.26273
10.21638
10.17029
10.12463
10.07958
10.03527
9.991783
9.949126
9.907261
9.866128
9.82567
9.78588
9.74683
9.708723
9.671937
9.636992
9.604193
9.573703
9.545687
9.520224
9.497184
9.476278
9.457161
9.439511
9.423055
9.40759
9.39299
9.379199
9.366217
9.354096
9.342934
9.33286
9.324
9.316462
9.31031
9.30557
9.302222
9.300253
9.299795
9.301462
9.306858
9.316378
9.330193
9.347789
9.367032
9.386185
9.404674
9.422447
9.439514
9.455887
9.471604
9.486745
9.501427
9.515796
9.529985
9.544054
9.557943
9.571453
9.584267
9.596027
9.606426
9.615292
9.622637
9.628648
9.633639
9.637972
9.641996
9.645989
9.650139
9.654542
9.65922
9.664141
9.669253
9.674494
9.679807
9.685151
9.690494
9.695819
9.701117
9.706386
9.711627
9.716846
9.722045
9.72723
9.732402
9.737564
9.742717
9.747858
9.752985
9.758091
9.763166
9.7682
9.773186
9.778158
9.783214
9.788499
9.794208
9.800553
9.807727
9.815868
9.825052
9.835294
9.846552
9.858745
9.871759
9.885468
9.899735
9.914426
9.929417
9.944594
9.959857
9.975109
9.990237
10.0051
10.01953
10.03334
10.04636
10.05844
10.06952
10.0796
10.08872
10.09699
10.10454
10.11151
10.11802
10.12421
10.13016
10.13595
10.14163
10.14726
10.15286
10.15845
10.16404
10.16965
10.17528
10.18093
10.1866
10.19228
10.19798
10.20368
10.20938
10.21507
10.2208
10.22685
10.23402
10.24217
10.25122
10.26118
10.27213
10.28408
10.29704
10.31096
10.32577
10.34134
10.35754
10.37418
10.39104
10.40792
10.4246
10.44088
10.45662
10.4717
10.48604
10.49956
10.51218
10.52381
10.53437
10.54384
10.5522
10.55949
10.56578
10.57115
10.57568
10.57939
10.58225
10.58417
10.58495
10.58431
10.58193
10.57774
10.57252
10.56633
10.55928
10.55147
10.54303
10.53404
10.52463
10.51486
10.50484
10.49462
10.48426
10.47383
10.46336
10.45291
10.44253
10.43227
10.4222
10.41239
10.40292
10.39384
10.38519
10.377
10.36925
10.36192
10.35498
10.34836
10.34202
10.3359
10.32997
10.32419
10.31854
10.31298
10.30749
10.30201
10.2969
10.29203
10.28709
10.28177
10.2758
10.26898
10.26116
10.25223
10.24214
10.23088
10.21845
10.2049
10.19033
10.17486
10.15867
10.14195
10.12492
10.10781
10.09084
10.07419
10.05806
10.04258
10.02789
10.01406
10.00117
9.989218
9.978206
9.968087
9.958795
9.950247
9.942349
9.935006
9.928127
9.921628
9.91544
9.909504
9.903774
9.898218
9.892813
9.887548
9.882419
9.87743
9.872591
9.867919
9.86343
9.859137
9.855041
9.851127
9.84738
9.843785
9.840328
9.837003
9.833801
9.830718
9.82773
9.824765
9.821705
9.818392
9.814641
9.810267
9.805098
9.799
9.791889
9.783733
9.774556
9.764433
9.753479
9.741839
9.72968
9.717172
9.704488
9.691796
9.679256
9.667023
9.655243
9.64405
9.633556
9.623849
9.614979
9.60696
9.599768
9.59335
9.587626
9.582506
9.577891
9.573689
9.569813
9.566189
9.562753
9.559458
9.556265
9.553146
9.550079
9.547052
9.544052
9.541075
9.538113
9.535165
9.532227
9.529297
9.526375
9.523457
9.520543
9.517632
9.514722
9.511811
9.508897
9.505979
9.503055
9.500121
9.497177
9.494218
9.491241
9.488243
9.48522
9.482167
9.479079
9.475949
9.472771
9.469537
9.466238
9.462863
9.4594
9.455832
9.452139
9.448298
9.444276
9.440037
9.435533
9.430702
9.425469
9.41974
9.413396
9.406298
9.398289
9.389215
9.378997
9.367875
9.357441
339.2323
277.814
309.4401
143.5304
108.7153
61.55772
55.22478
49.99082
44.75316
41.7957
38.36101
35.82154
33.60774
31.26288
29.11364
24.3474
22.99218
21.79735
20.75157
19.83958
19.05686
18.3985
17.83455
17.34534
16.91674
16.53047
16.23317
15.95649
15.70339
15.47492
15.26959
15.08202
14.9069
14.7405
14.57767
14.41739
14.261
14.10928
13.96314
13.82363
13.69178
13.56841
13.45397
13.34826
13.25033
13.1587
13.07183
12.98837
12.90734
12.8281
12.75023
12.67332
12.60194
12.53226
12.46253
12.39209
12.32096
12.24955
12.17843
12.10817
12.03921
11.97176
11.90577
11.84089
11.77663
11.7125
11.6481
11.58321
11.51787
11.45251
11.38797
11.32496
11.26386
11.20466
11.14714
11.09101
11.03598
10.98188
10.92863
10.87628
10.82489
10.77453
10.72518
10.67671
10.62896
10.58174
10.53485
10.4881
10.4414
10.39514
10.34926
10.30355
10.25787
10.21216
10.16647
10.1209
10.0756
10.03071
9.986345
9.942562
9.899362
9.85669
9.814455
9.772555
9.730902
9.689439
9.648174
9.607199
9.56669
9.526834
9.487782
9.449621
9.412375
9.376018
9.340497
9.305752
9.271736
9.238426
9.205812
9.17389
9.142646
9.112041
9.08201
9.052458
9.023273
8.994338
8.965557
8.936906
8.908372
8.879952
8.851667
8.82357
8.795739
8.768268
8.741253
8.714768
8.68887
8.663585
8.63892
8.614863
8.591398
8.568509
8.546193
8.52447
8.503395
8.483065
8.463607
8.445105
8.427624
8.411233
8.395981
8.381862
8.368811
8.356728
8.345505
8.33503
8.325204
8.315945
8.307197
8.298931
8.291153
8.283903
8.277251
8.271289
8.266106
8.261783
8.258371
8.255893
8.254363
8.253847
8.254802
8.25761
8.262353
8.268981
8.277221
8.28637
8.295749
8.305022
8.314087
8.32293
8.331571
8.340062
8.348475
8.356902
8.365431
8.374124
8.382985
8.391939
8.40082
8.409397
8.417409
8.424629
8.430907
8.436202
8.440583
8.444206
8.44727
8.449986
8.452535
8.455057
8.457641
8.460328
8.46313
8.466032
8.469012
8.472043
8.475103
8.478174
8.481242
8.484301
8.487347
8.490378
8.493396
8.496402
8.499397
8.502383
8.50536
8.508329
8.511289
8.514238
8.517175
8.520094
8.522993
8.525866
8.528722
8.531581
8.534482
8.537482
8.54066
8.544105
8.547908
8.552152
8.556904
8.562216
8.568117
8.574619
8.581711
8.589363
8.597534
8.606165
8.615187
8.62452
8.63407
8.643722
8.653341
8.662774
8.671864
8.680465
8.688464
8.695789
8.70242
8.70838
8.713728
8.718548
8.722932
8.726971
8.73075
8.734339
8.737796
8.741166
8.744482
8.747768
8.75104
8.754309
8.757581
8.760862
8.764151
8.76745
8.770757
8.774069
8.777383
8.780693
8.783997
8.787304
8.79067
8.794234
8.79809
8.802297
8.806902
8.811948
8.817477
8.82353
8.830147
8.837356
8.845167
8.853564
8.862493
8.871869
8.88158
8.891494
8.901476
8.911391
8.921116
8.93053
8.939521
8.947975
8.95579
8.962881
8.969192
8.974703
8.979428
8.983407
8.986693
8.989336
8.991371
8.992803
8.9936
8.99369
8.992964
8.991304
8.988713
8.985609
8.982019
8.977984
8.973546
8.968747
8.963626
8.958222
8.952569
8.9467
8.940649
8.934446
8.928122
8.921711
8.915249
8.908778
8.902344
8.895998
8.889795
8.883786
8.878016
8.872518
8.867311
8.862396
8.857764
8.853392
8.849249
8.845304
8.841524
8.837882
8.834353
8.830918
8.827562
8.824268
8.821024
8.817855
8.814757
8.811692
8.808606
8.805434
8.802103
8.798537
8.794652
8.790356
8.785557
8.780168
8.774117
8.767358
8.759882
8.751717
8.742931
8.733628
8.723936
8.714003
8.703984
8.694036
8.684309
8.674935
8.666023
8.657658
8.649889
8.642737
8.636193
8.630226
8.624785
8.619808
8.615231
8.610988
8.607021
8.603276
8.599711
8.596293
8.592995
8.5898
8.586697
8.58368
8.580749
8.577905
8.575153
8.572498
8.569946
8.567497
8.565147
8.562891
8.560725
8.558642
8.55664
8.554713
8.552859
8.55107
8.549328
8.547599
8.545835
8.543972
8.541932
8.539627
8.536969
8.533874
8.53027
8.526107
8.521354
8.516011
8.510103
8.503679
8.496813
8.489599
8.482146
8.474577
8.467023
8.459615
8.452479
8.445727
8.439446
8.433696
8.428504
8.423868
8.419761
8.416136
8.412931
8.410082
8.407525
8.405198
8.40305
8.401037
8.399124
8.397282
8.395493
8.393742
8.392017
8.390312
8.388622
8.386942
8.385272
8.383609
8.381951
8.380298
8.378649
8.377002
8.375357
8.373713
8.372068
8.370422
8.368773
8.36712
8.365462
8.363797
8.362123
8.360438
8.358741
8.357028
8.355297
8.353545
8.351767
8.349961
8.348122
8.346245
8.344322
8.342347
8.340312
8.338204
8.336011
8.333717
8.331301
8.32874
8.326003
8.323056
8.319854
8.316348
8.312479
8.308188
8.303416
8.298136
8.292454
8.287087
156.8283
80.2721
71.1297
61.64436
54.11854
48.06399
42.68681
38.72741
36.39908
35.11241
32.64484
32.11116
31.13247
29.81911
28.27825
26.6417
25.0457
23.46819
21.9523
20.52192
19.29264
18.14574
17.12141
16.22543
15.4548
14.80224
14.25742
13.80585
13.43218
13.1219
12.86185
12.64649
12.46405
12.30665
12.16872
12.04568
11.93286
11.82624
11.72285
11.62064
11.51895
11.418
11.31832
11.22062
11.12565
11.03418
10.94686
10.86425
10.78666
10.71411
10.64631
10.58276
10.5228
10.46573
10.4109
10.35778
10.30598
10.25573
10.20678
10.15885
10.11177
10.0655
10.02007
9.975542
9.931983
9.889403
9.84777
9.806991
9.766922
9.727391
9.688224
9.649278
9.610463
9.571775
9.533306
9.49522
9.457688
9.420847
9.384785
9.349536
9.315087
9.281396
9.248411
9.216093
9.184421
9.153394
9.123014
9.09327
9.064129
9.035526
9.007364
8.979527
8.95189
8.924341
8.896845
8.869378
8.841926
8.814506
8.787164
8.759976
8.733032
8.706417
8.680197
8.654416
8.62909
8.604214
8.579767
8.555716
8.532026
8.50866
8.48559
8.462798
8.440283
8.418061
8.39616
8.37461
8.353441
8.332678
8.312337
8.292423
8.272939
8.253881
8.235252
8.217051
8.199281
8.181935
8.164997
8.148436
8.132204
8.116241
8.100479
8.084856
8.069327
8.053868
8.03848
8.023181
8.008014
7.993032
7.978296
7.963862
7.949777
7.936077
7.922782
7.909902
7.897436
7.885377
7.873714
7.862438
7.85154
7.84102
7.830885
7.821148
7.81182
7.80291
7.794436
7.786416
7.778854
7.771743
7.765063
7.758792
7.752899
7.747355
7.742129
7.737197
7.732541
7.728158
7.724058
7.720271
7.716838
7.713809
7.711232
7.709147
7.707578
7.706542
7.706086
7.706449
7.707683
7.709784
7.712697
7.716293
7.720338
7.724585
7.728879
7.733151
7.737377
7.741564
7.745743
7.749957
7.754262
7.758707
7.763327
7.768119
7.773035
7.777981
7.782822
7.787409
7.791606
7.795314
7.79849
7.80115
7.803357
7.805207
7.806805
7.808252
7.80963
7.810999
7.812395
7.813834
7.81532
7.816847
7.818405
7.819984
7.821575
7.82317
7.824765
7.826355
7.82794
7.829519
7.831092
7.832659
7.83422
7.835776
7.837327
7.838872
7.840411
7.841943
7.843466
7.844979
7.846481
7.847972
7.849458
7.850948
7.852458
7.854014
7.855648
7.857401
7.859315
7.861435
7.863804
7.86646
7.869438
7.872756
7.876429
7.880454
7.884817
7.88949
7.894431
7.899581
7.904867
7.9102
7.91548
7.920605
7.925481
7.930033
7.934209
7.937989
7.941378
7.944406
7.947115
7.949557
7.951786
7.953849
7.955791
7.957647
7.959445
7.961205
7.962944
7.964671
7.966394
7.968117
7.969842
7.971572
7.973305
7.975042
7.976781
7.978521
7.980259
7.981995
7.983727
7.985468
7.987244
7.989087
7.991032
7.993109
7.99535
7.997785
8.000449
8.003377
8.006604
8.010155
8.014047
8.018275
8.022817
8.027632
8.03266
8.037835
8.043079
8.048312
8.053452
8.058416
8.063122
8.067493
8.071468
8.075002
8.078074
8.080682
8.082844
8.084587
8.085939
8.086923
8.08755
8.087814
8.087693
8.08715
8.08615
8.084719
8.083052
8.08116
8.079056
8.076757
8.074279
8.071636
8.068841
8.065908
8.06285
8.059677
8.056404
8.053045
8.049618
8.046142
8.042642
8.039143
8.035677
8.032276
8.028968
8.025783
8.022739
8.019851
8.017123
8.014552
8.01213
8.009841
8.007669
8.005597
8.003608
8.00169
7.999829
7.998016
7.996243
7.994504
7.992798
7.991123
7.989473
7.987842
7.986219
7.984588
7.982925
7.981194
7.979352
7.977342
7.975104
7.972579
7.969712
7.966467
7.962826
7.958794
7.954398
7.94969
7.944737
7.939622
7.934438
7.929278
7.924231
7.919377
7.91478
7.910485
7.906518
7.902884
7.899574
7.896564
7.893824
7.891318
7.889008
7.886861
7.884847
7.88294
7.881118
7.879368
7.877677
7.876038
7.874447
7.872902
7.871401
7.869947
7.868541
7.867183
7.865875
7.864615
7.863401
7.862233
7.861109
7.860026
7.858984
7.85798
7.857012
7.856075
7.855159
7.854251
7.853328
7.852364
7.851323
7.850164
7.848842
7.847311
7.845528
7.843458
7.841075
7.838366
7.835336
7.832004
7.828408
7.824603
7.820656
7.816644
7.812652
7.808762
7.805047
7.801569
7.798372
7.795481
7.7929
7.79062
7.788615
7.786855
7.785303
7.783922
7.782677
7.781538
7.780479
7.779479
7.778523
7.777598
7.776695
7.775808
7.774932
7.774066
7.773206
7.772351
7.771501
7.770654
7.769809
7.768967
7.768126
7.767287
7.766448
7.765609
7.76477
7.763929
7.763087
7.762241
7.761392
7.760539
7.75968
7.758814
7.75794
7.757057
7.756163
7.755257
7.754335
7.753397
7.752438
7.751458
7.750451
7.749413
7.748339
7.747224
7.746059
7.744836
7.743544
7.74217
7.7407
7.739116
7.737399
7.735526
7.733476
7.731228
7.728771
7.726151
7.72367
218.2605
55.30899
40.57339
35.51311
32.38537
30.59057
29.82497
29.89618
30.58357
31.36949
31.8182
31.60144
30.70479
29.29277
27.6142
25.90714
24.16247
22.42693
20.75396
19.17918
17.73624
16.43688
15.28459
14.27958
13.41911
12.69569
12.09777
11.61088
11.21906
10.90617
10.65703
10.45869
10.29982
10.17083
10.06402
9.973144
9.893145
9.820106
9.75123
9.684678
9.619452
9.555165
9.491821
9.429653
9.369011
9.31029
9.253874
9.200102
9.149227
9.10138
9.056555
9.014608
8.975282
8.938244
8.903128
8.869585
8.837322
8.806158
8.775967
8.746664
8.718206
8.690582
8.663796
8.637846
8.612713
8.588351
8.564698
8.541674
8.519194
8.497174
8.475534
8.454206
8.433137
8.412292
8.391657
8.371236
8.351049
8.331119
8.311479
8.292161
8.273188
8.254578
8.236339
8.218478
8.200999
8.183908
8.167207
8.150894
8.134953
8.119356
8.104055
8.088989
8.074092
8.059297
8.044553
8.029832
8.015124
8.000445
7.985832
7.971332