/*--------------------------------*- C++ -*----------------------------------*\
| =========                 |                                                 |
| \\      /  F ield         | foam-extend: Open Source CFD                    |
|  \\    /   O peration     | Version:     3.1                                |
|   \\  /    A nd           | Web:         http://www.extend-project.de       |
|    \\/     M anipulation  |                                                 |
\*---------------------------------------------------------------------------*/
FoamFile
{
    version     2.0;
    format      ascii;
    class       volScalarField;
    location    "0.5";
    object      p;
}
// * * * * * * * * * * * * * * * * * * * * * * * * * * * * * * * * * * * * * //

dimensions      [1 -1 -2 0 0 0 0];

internalField   nonuniform List<scalar> 
119952
(
7405.428
7270.801
7239.216
7259.495
7288.523
7271.989
7268
7265.133
7263.281
7262.003
7261.1
7260.458
7259.996
7259.651
7259.366
7259.067
7258.628
7257.705
7254.92
7243.076
7288.106
7262.004
7251.336
7306.473
7297.743
7302.678
7305.446
7320.581
7381.746
7383.898
6882.916
6886.18
6892.024
6898.339
6904.444
6910.606
6916.741
6922.861
6928.9
6932.584
6920.147
6923.704
6926.596
6929.11
6931.713
6934.392
6937.093
6939.782
6942.381
6917.943
6918.84
6921.011
6923.347
6925.973
6928.631
6931.317
6934.041
6936.848
6940.214
6942.298
6945.256
6948.135
6951.059
6954.041
6957.027
6959.955
6963.116
6970.349
6991.177
6977.509
6978.355
6985.867
6991.316
6990.83
6989.681
6988.902
6988.353
6988.084
6988.057
6988.216
6988.505
6988.879
6989.289
6989.675
6989.959
6990.023
6989.776
6989.481
6992.393
6994.29
6993.414
7002.849
7016.605
7019.84
7025.269
7030.725
7029.58
6999.762
6995.873
6999.249
7002.128
7004.731
7006.941
7008.892
7010.645
7012.251
7013.744
7015.151
7016.491
7017.778
7019.022
7020.226
7021.392
7022.529
7023.63
7024.689
7025.718
7026.727
7027.716
7028.688
7029.643
7030.579
7031.495
7032.39
7033.261
7034.112
7034.942
7035.753
7036.547
7037.316
7038.069
7038.804
7039.521
7040.22
7040.901
7041.563
7042.207
7042.835
7043.438
7044.022
7044.583
7045.122
7045.646
7046.123
7046.541
7046.881
7047.384
7047.964
7048.483
7049.045
7049.548
7050.03
7050.475
7050.895
7051.288
7051.676
7052.05
7052.394
7052.72
7053.031
7053.327
7053.607
7053.871
7054.116
7054.344
7054.549
7054.778
7054.969
7055.147
7055.31
7055.458
7055.589
7055.706
7055.808
7055.897
7055.974
7056.038
7056.09
7056.128
7056.152
7056.163
7056.159
7056.141
7056.109
7056.062
7056
7055.923
7055.83
7055.721
7055.593
7055.447
7055.28
7055.089
7054.859
7054.585
7054.225
7054.107
7085.919
7084.407
7084.467
7084.41
7084.27
7084.08
7083.854
7083.543
7083.272
7082.984
7082.671
7082.334
7081.98
7081.607
7081.215
7080.805
7080.375
7079.925
7079.455
7078.964
7078.452
7077.917
7077.356
7076.771
7076.141
7075.483
7074.785
7074.04
7073.24
7072.366
7071.39
7070.261
7068.916
7067.093
7064.046
7059.113
7061.783
7063.37
7064.404
7065.134
7065.632
7065.968
7066.202
7066.356
7066.445
7066.482
7066.476
7066.434
7066.363
7066.267
7066.15
7066.014
7065.863
7065.698
7065.522
7065.336
7065.141
7064.94
7064.732
7064.52
7064.304
7064.085
7063.864
7063.643
7063.424
7063.209
7063
7062.798
7062.536
7062.331
7037.954
7033.496
7031.5
7030.954
7030.477
7030.102
7029.811
7029.554
7029.304
7029.063
7028.832
7028.608
7028.392
7028.182
7027.977
7027.778
7027.585
7027.398
7027.216
7027.041
7026.87
7026.705
7026.545
7026.391
7026.242
7026.1
7025.963
7025.833
7025.708
7025.59
7025.478
7025.373
7025.275
7025.184
7025.101
7025.028
7024.965
7024.913
7024.876
7024.855
7024.858
7024.904
7024.985
7025.14
7025.458
7025.753
7025.362
7024.926
7024.588
7024.295
7024.044
7023.82
7023.615
7023.436
7021.888
7022.498
7022.502
7022.281
7022.06
7021.83
7021.619
7021.414
7021.218
7021.026
7020.839
7020.653
7020.468
7020.282
7020.095
7019.907
7019.718
7019.527
7019.333
7019.136
7018.935
7018.729
7018.518
7018.304
7018.086
7017.863
7017.634
7017.399
7017.158
7016.91
7016.655
7016.393
7016.123
7015.845
7015.559
7015.266
7014.963
7014.653
7014.333
7014.005
7013.667
7013.319
7012.962
7012.594
7012.216
7011.827
7011.427
7011.016
7010.593
7010.158
7009.711
7009.251
7008.778
7008.291
7007.79
7007.275
7006.744
7006.197
7005.634
7005.053
7004.454
7003.835
7003.195
7002.534
7001.848
7001.136
7000.396
6999.624
6998.818
6997.972
6997.082
6996.14
6995.137
6994.062
6992.897
6991.621
6990.198
6988.576
6986.666
6984.31
6981.209
6976.845
6971.098
6969.754
6995.714
6503.95
6511.985
6519.055
6526.51
6533.86
6541.249
6548.622
6555.943
6562.929
6551.294
6555.998
6560.303
6563.954
6567.706
6571.498
6575.3
6579.079
6582.556
6558.546
6561.985
6564.349
6567.461
6570.815
6574.189
6577.532
6580.849
6584.141
6587.668
6590.876
6593.73
6596.927
6599.995
6603.054
6606.091
6609.114
6612.131
6615.28
6618.66
6620.381
6623.415
6626.433
6629.337
6632.146
6634.926
6637.699
6640.486
6643.348
6646.013
6648.705
6651.33
6653.933
6656.576
6659.24
6661.929
6664.655
6667.515
6609.122
6611.836
6614.538
6617.222
6619.904
6622.613
6625.364
6628.152
6630.984
6633.878
6636.761
6639.597
6642.489
6645.479
6648.594
6651.889
6655.516
6659.831
6665.005
6670.363
6671.667
6672.889
6675.984
6678.75
6679.856
6679.956
6679.901
6679.949
6680.146
6680.458
6680.85
6681.31
6681.828
6682.38
6682.943
6683.507
6684.1
6684.84
6686.035
6688.055
6690.65
6693.776
6698.928
6705.004
6708.908
6710.974
6711.012
6707.667
6700.674
6696.941
6697.177
6698.679
6700.296
6701.87
6703.404
6704.886
6706.304
6707.664
6708.976
6710.248
6711.485
6712.691
6713.868
6715.014
6716.13
6717.213
6718.264
6719.287
6720.288
6721.27
6722.235
6723.183
6724.115
6725.028
6725.922
6726.795
6727.648
6728.48
6729.292
6730.085
6730.858
6731.612
6732.347
6733.063
6733.76
6734.438
6735.098
6735.738
6736.36
6736.961
6737.543
6738.103
6738.642
6739.157
6739.647
6740.121
6740.601
6741.117
6741.633
6742.071
6742.544
6743.029
6743.495
6743.936
6744.355
6744.753
6745.131
6745.493
6745.839
6746.169
6746.482
6746.778
6747.059
6747.324
6747.573
6747.809
6748.032
6748.241
6748.438
6748.621
6748.79
6748.942
6749.079
6749.2
6749.306
6749.398
6749.477
6749.543
6749.596
6749.635
6749.661
6749.673
6749.671
6749.656
6749.626
6749.581
6749.523
6749.449
6749.359
6749.254
6749.132
6748.992
6748.834
6748.656
6748.455
6748.233
6747.997
6747.839
6809.076
6808.775
6808.584
6808.404
6808.198
6807.973
6807.724
6807.454
6807.168
6806.863
6806.539
6806.196
6805.836
6805.457
6805.06
6804.644
6804.209
6803.754
6803.279
6802.785
6802.271
6801.734
6801.171
6800.576
6799.945
6799.277
6798.566
6797.805
6796.986
6796.092
6795.101
6793.975
6792.662
6791.103
6789.342
6787.928
6788.195
6788.941
6789.547
6790.014
6790.351
6790.588
6790.744
6790.836
6790.875
6790.871
6790.831
6790.76
6790.663
6790.544
6790.406
6790.251
6790.082
6789.9
6789.709
6789.51
6789.306
6789.097
6788.884
6788.669
6788.451
6788.232
6788.012
6787.792
6787.573
6787.359
6787.152
6786.957
6786.794
6786.728
6725.464
6725.238
6724.53
6724.021
6723.723
6723.457
6723.183
6722.917
6722.666
6722.426
6722.194
6721.97
6721.752
6721.54
6721.335
6721.136
6720.942
6720.756
6720.575
6720.4
6720.231
6720.066
6719.908
6719.755
6719.608
6719.467
6719.332
6719.204
6719.082
6718.967
6718.858
6718.757
6718.662
6718.576
6718.497
6718.428
6718.369
6718.322
6718.288
6718.27
6718.271
6718.294
6718.341
6718.411
6718.464
6718.439
6718.251
6717.992
6717.741
6717.512
6717.306
6717.126
6716.989
6716.894
6716.618
6716.247
6715.957
6715.714
6715.489
6715.274
6715.068
6714.869
6714.674
6714.481
6714.289
6714.098
6713.907
6713.715
6713.522
6713.329
6713.133
6712.936
6712.736
6712.532
6712.324
6712.111
6711.895
6711.674
6711.449
6711.22
6710.986
6710.746
6710.5
6710.248
6709.99
6709.724
6709.45
6709.169
6708.88
6708.583
6708.277
6707.963
6707.64
6707.308
6706.966
6706.615
6706.253
6705.882
6705.499
6705.106
6704.702
6704.286
6703.858
6703.418
6702.966
6702.501
6702.022
6701.529
6701.022
6700.501
6699.964
6699.41
6698.84
6698.252
6697.645
6697.018
6696.37
6695.7
6695.004
6694.282
6693.531
6692.748
6691.93
6691.071
6690.166
6689.21
6688.192
6687.103
6685.927
6684.648
6683.241
6681.677
6679.925
6677.969
6675.877
6673.943
6673.176
6674.069
6677.91
6247.59
6238.053
6232.929
6228.882
6225.978
6224.043
6222.922
6222.539
6222.747
6221.364
6204.547
6203.985
6203.17
6202.661
6202.627
6203.047
6203.853
6204.969
6206.243
6180.469
6180.825
6182.526
6184.707
6187.268
6190.026
6192.97
6196.077
6199.353
6203.328
6206.184
6209.831
6213.467
6217.197
6220.995
6224.868
6228.802
6232.827
6237.235
6240.604
6244.287
6248.544
6252.683
6256.734
6260.746
6264.755
6268.772
6272.839
6276.886
6280.724
6284.604
6288.377
6292.167
6295.953
6299.724
6303.49
6307.314
6250.266
6253.824
6257.452
6260.987
6264.446
6267.867
6271.264
6274.638
6277.995
6281.327
6284.629
6287.794
6290.879
6293.942
6297.008
6300.062
6303.099
6306.126
6309.143
6312.11
6314.909
6317.71
6320.541
6323.37
6326.181
6328.975
6331.76
6334.539
6337.316
6340.038
6342.699
6345.348
6347.999
6350.66
6353.329
6356.007
6358.687
6361.376
6363.998
6366.622
6369.253
6371.928
6374.625
6377.349
6380.099
6382.878
6385.687
6388.53
6391.373
6394.227
6397.143
6400.149
6403.273
6406.559
6410.07
6413.877
6417.896
6421.78
6424.06
6425.9
6428.279
6430.494
6431.816
6432.467
6432.926
6433.38
6433.863
6434.378
6434.943
6435.561
6436.22
6436.917
6437.657
6438.456
6439.358
6440.462
6441.921
6443.919
6446.417
6449.343
6453.102
6457.11
6459.849
6461.231
6461.174
6459.393
6455.959
6453.898
6453.951
6454.951
6456.152
6457.415
6458.723
6460.044
6461.351
6462.632
6463.887
6465.117
6466.321
6467.501
6468.655
6469.784
6470.886
6471.961
6473.009
6474.032
6475.033
6476.015
6476.978
6477.925
6478.854
6479.765
6480.657
6481.529
6482.382
6483.215
6484.028
6484.822
6485.597
6486.352
6487.088
6487.805
6488.504
6489.183
6489.844
6490.486
6491.109
6491.712
6492.296
6492.86
6493.405
6493.93
6494.437
6494.933
6495.424
6495.922
6496.418
6496.888
6497.356
6497.82
6498.268
6498.696
6499.106
6499.497
6499.872
6500.232
6500.575
6500.902
6501.213
6501.508
6501.788
6502.053
6502.303
6502.54
6502.762
6502.972
6503.169
6503.352
6503.52
6503.674
6503.811
6503.934
6504.042
6504.135
6504.215
6504.281
6504.333
6504.372
6504.397
6504.409
6504.406
6504.39
6504.359
6504.314
6504.255
6504.18
6504.09
6503.985
6503.864
6503.726
6503.571
6503.399
6503.211
6503.011
6502.802
6502.609
6502.409
6502.228
6502.027
6501.814
6501.588
6501.346
6501.085
6500.805
6500.509
6500.196
6499.866
6499.517
6499.151
6498.767
6498.365
6497.944
6497.505
6497.047
6496.569
6496.071
6495.552
6495.009
6494.439
6493.84
6493.208
6492.54
6491.831
6491.077
6490.27
6489.404
6488.468
6487.457
6486.38
6485.284
6484.298
6483.651
6483.534
6483.726
6483.979
6484.195
6484.359
6484.472
6484.538
6484.561
6484.546
6484.499
6484.423
6484.324
6484.203
6484.063
6483.907
6483.737
6483.555
6483.363
6483.162
6482.956
6482.744
6482.528
6482.309
6482.088
6481.866
6481.642
6481.418
6481.194
6480.972
6480.753
6480.539
6480.331
6480.127
6479.92
6479.657
6479.199
6478.814
6478.598
6478.397
6478.175
6477.937
6477.697
6477.461
6477.228
6477
6476.776
6476.558
6476.345
6476.138
6475.936
6475.74
6475.551
6475.367
6475.189
6475.017
6474.85
6474.689
6474.534
6474.385
6474.242
6474.105
6473.975
6473.852
6473.734
6473.624
6473.521
6473.425
6473.336
6473.256
6473.184
6473.122
6473.07
6473.03
6473.001
6472.986
6472.984
6472.99
6472.995
6472.979
6472.912
6472.761
6472.557
6472.346
6472.146
6471.958
6471.783
6471.618
6471.441
6471.231
6470.974
6470.711
6470.465
6470.239
6470.028
6469.826
6469.63
6469.438
6469.248
6469.058
6468.868
6468.677
6468.486
6468.294
6468.1
6467.904
6467.705
6467.504
6467.299
6467.09
6466.877
6466.66
6466.439
6466.214
6465.983
6465.748
6465.508
6465.262
6465.009
6464.75
6464.484
6464.21
6463.929
6463.64
6463.343
6463.038
6462.724
6462.401
6462.069
6461.727
6461.376
6461.015
6460.643
6460.261
6459.868
6459.464
6459.048
6458.621
6458.181
6457.729
6457.264
6456.786
6456.293
6455.787
6455.266
6454.729
6454.176
6453.607
6453.02
6452.415
6451.79
6451.144
6450.476
6449.784
6449.067
6448.321
6447.545
6446.735
6445.887
6444.997
6444.059
6443.068
6442.014
6440.888
6439.682
6438.384
6436.989
6435.504
6433.97
6432.501
6431.303
6430.779
6431.196
6432.403
6088.91
6090.676
6081.236
6061.593
6052.4
6015.488
6010.795
6008.961
6010.667
6011.669
6001.038
5988.867
5978.374
5968.245
5960.506
5953.854
5948.065
5943.098
5938.897
5935.407
5932.597
5930.437
5928.707
5927.458
5926.631
5926.254
5926.32
5926.784
5927.614
5928.804
5930.423
5870.59
5872.737
5875.107
5877.563
5880.198
5883.04
5886.068
5889.265
5892.616
5896.118
5899.674
5903.248
5906.894
5910.648
5914.491
5918.405
5922.379
5926.408
5930.487
5934.489
5938.445
5942.465
5946.522
5950.583
5954.638
5958.687
5962.732
5966.767
5970.779
5974.701
5978.575
5982.424
5986.256
5990.066
5993.849
5997.597
6001.307
6004.88
6008.469
6012
6015.496
6018.975
6022.431
6025.855
6029.245
6032.6
6035.92
6039.188
6042.366
6045.495
6048.6
6051.686
6054.751
6057.791
6060.805
6063.786
6066.723
6069.566
6072.388
6075.228
6078.061
6080.875
6083.671
6086.451
6089.218
6091.968
6094.685
6097.368
6100.034
6102.694
6105.355
6108.019
6110.686
6113.349
6116.014
6118.656
6121.274
6123.911
6126.58
6129.271
6131.979
6134.708
6137.459
6140.234
6143.034
6145.851
6148.697
6151.593
6154.558
6157.609
6160.766
6164.043
6167.438
6170.874
6174.14
6176.656
6178.788
6180.944
6182.92
6184.396
6185.434
6186.261
6187.01
6187.73
6188.448
6189.186
6189.954
6190.758
6191.602
6192.495
6193.46
6194.541
6195.807
6197.337
6199.203
6201.431
6203.956
6206.805
6209.626
6211.821
6213.086
6213.371
6212.644
6211.12
6210.111
6210.136
6210.812
6211.755
6212.829
6213.991
6215.2
6216.423
6217.644
6218.854
6220.049
6221.226
6222.383
6223.52
6224.634
6225.726
6226.793
6227.837
6228.858
6229.859
6230.84
6231.802
6232.747
6233.673
6234.581
6235.471
6236.341
6237.192
6238.024
6238.836
6239.629
6240.403
6241.158
6241.894
6242.611
6243.309
6243.989
6244.65
6245.292
6245.916
6246.521
6247.107
6247.674
6248.224
6248.756
6249.272
6249.777
6250.273
6250.766
6251.255
6251.728
6252.189
6252.642
6253.081
6253.504
6253.91
6254.299
6254.672
6255.029
6255.371
6255.696
6256.006
6256.301
6256.58
6256.844
6257.094
6257.33
6257.552
6257.761
6257.956
6258.137
6258.303
6258.455
6258.592
6258.715
6258.823
6258.916
6258.996
6259.062
6259.114
6259.153
6259.178
6259.189
6259.187
6259.17
6259.14
6259.095
6259.036
6258.962
6258.873
6258.77
6258.651
6258.516
6258.366
6258.202
6258.024
6257.836
6257.639
6257.443
6257.25
6257.048
6256.838
6256.618
6256.384
6256.135
6255.869
6255.586
6255.287
6254.971
6254.639
6254.289
6253.923
6253.539
6253.137
6252.718
6252.28
6251.824
6251.349
6250.854
6250.337
6249.798
6249.234
6248.642
6248.021
6247.368
6246.679
6245.952
6245.185
6244.374
6243.521
6242.632
6241.729
6240.859
6240.103
6239.573
6239.348
6239.338
6239.406
6239.478
6239.534
6239.565
6239.568
6239.543
6239.491
6239.415
6239.315
6239.196
6239.059
6238.906
6238.738
6238.559
6238.368
6238.169
6237.963
6237.75
6237.533
6237.312
6237.089
6236.863
6236.636
6236.407
6236.179
6235.95
6235.723
6235.497
6235.272
6235.047
6234.816
6234.571
6234.282
6233.951
6233.659
6233.41
6233.171
6232.93
6232.687
6232.445
6232.208
6231.975
6231.746
6231.523
6231.305
6231.092
6230.885
6230.683
6230.487
6230.297
6230.113
6229.935
6229.762
6229.595
6229.433
6229.278
6229.128
6228.985
6228.847
6228.716
6228.591
6228.473
6228.362
6228.257
6228.159
6228.068
6227.985
6227.909
6227.842
6227.784
6227.734
6227.694
6227.662
6227.636
6227.612
6227.581
6227.533
6227.45
6227.318
6227.15
6226.97
6226.79
6226.612
6226.438
6226.266
6226.091
6225.9
6225.673
6225.431
6225.2
6224.984
6224.778
6224.579
6224.385
6224.194
6224.005
6223.817
6223.628
6223.439
6223.25
6223.059
6222.866
6222.672
6222.474
6222.274
6222.071
6221.863
6221.652
6221.437
6221.217
6220.993
6220.764
6220.53
6220.29
6220.045
6219.793
6219.534
6219.269
6218.996
6218.716
6218.428
6218.132
6217.828
6217.515
6217.193
6216.862
6216.521
6216.171
6215.811
6215.441
6215.06
6214.668
6214.265
6213.851
6213.424
6212.986
6212.536
6212.072
6211.595
6211.105
6210.601
6210.082
6209.548
6208.998
6208.432
6207.849
6207.247
6206.627
6205.987
6205.326
6204.642
6203.934
6203.2
6202.437
6201.643
6200.816
6199.951
6199.045
6198.094
6197.093
6196.038
6194.926
6193.757
6192.538
6191.291
6190.061
6188.93
6188.021
6187.507
6187.512
6187.842
5746.169
5821.188
5872.853
5883.882
5894.665
5861.037
5860.428
5851.54
5841.488
5830.125
5818.607
5805.926
5795.745
5786.35
5778.134
5771.086
5700.654
5696.77
5693.699
5690.764
5686.38
5679.026
5670.415
5662.164
5654.612
5647.921
5642.073
5636.996
5632.63
5628.933
5625.864
5623.386
5621.459
5620.01
5618.991
5618.413
5618.263
5618.515
5619.14
5620.108
5621.388
5622.938
5624.603
5626.641
5628.926
5631.41
5634.103
5636.995
5640.063
5643.288
5646.654
5650.148
5653.714
5657.343
5661.06
5664.867
5668.75
5672.695
5676.688
5680.719
5684.779
5688.811
5692.821
5696.873
5700.955
5705.04
5709.117
5713.185
5717.241
5721.276
5725.281
5729.234
5733.144
5737.022
5740.873
5744.695
5748.484
5752.233
5755.938
5759.588
5763.19
5766.743
5770.267
5773.764
5777.226
5780.65
5784.034
5787.38
5790.684
5793.936
5797.132
5800.283
5803.4
5806.488
5809.548
5812.578
5815.577
5818.542
5821.463
5824.331
5827.175
5830.014
5832.839
5835.643
5838.429
5841.198
5843.95
5846.683
5849.393
5852.078
5854.747
5857.407
5860.062
5862.716
5865.369
5868.018
5870.664
5873.296
5875.922
5878.56
5881.216
5883.888
5886.574
5889.278
5892.001
5894.744
5897.51
5900.297
5903.112
5905.963
5908.864
5911.821
5914.841
5917.916
5921.027
5924.104
5927.03
5929.562
5931.78
5933.858
5935.755
5937.338
5938.615
5939.695
5940.669
5941.589
5942.485
5943.379
5944.288
5945.222
5946.193
5947.215
5948.312
5949.516
5950.868
5952.42
5954.177
5956.179
5958.367
5960.656
5962.869
5964.678
5965.882
5966.433
5966.378
5965.894
5965.556
5965.721
5966.316
5967.154
5968.134
5969.206
5970.336
5971.496
5972.666
5973.836
5974.999
5976.15
5977.287
5978.407
5979.508
5980.589
5981.649
5982.688
5983.706
5984.705
5985.684
5986.645
5987.588
5988.512
5989.418
5990.305
5991.174
5992.023
5992.853
5993.665
5994.457
5995.23
5995.984
5996.72
5997.437
5998.135
5998.815
5999.476
6000.119
6000.743
6001.35
6001.938
6002.508
6003.062
6003.599
6004.121
6004.63
6005.129
6005.621
6006.104
6006.574
6007.031
6007.478
6007.911
6008.33
6008.733
6009.12
6009.491
6009.846
6010.186
6010.51
6010.819
6011.112
6011.391
6011.655
6011.904
6012.139
6012.361
6012.568
6012.762
6012.941
6013.106
6013.257
6013.394
6013.516
6013.623
6013.717
6013.797
6013.863
6013.915
6013.954
6013.979
6013.99
6013.987
6013.971
6013.941
6013.897
6013.838
6013.765
6013.678
6013.576
6013.46
6013.329
6013.184
6013.025
6012.854
6012.673
6012.483
6012.288
6012.087
6011.88
6011.664
6011.439
6011.2
6010.947
6010.678
6010.394
6010.094
6009.778
6009.445
6009.097
6008.731
6008.349
6007.949
6007.532
6007.098
6006.645
6006.174
6005.683
6005.172
6004.64
6004.084
6003.504
6002.898
6002.264
6001.601
6000.908
6000.185
5999.434
5998.66
5997.874
5997.098
5996.366
5995.73
5995.245
5994.951
5994.806
5994.74
5994.704
5994.672
5994.634
5994.583
5994.515
5994.429
5994.324
5994.202
5994.064
5993.911
5993.745
5993.566
5993.377
5993.179
5992.973
5992.76
5992.542
5992.319
5992.093
5991.864
5991.634
5991.401
5991.168
5990.934
5990.7
5990.466
5990.232
5989.998
5989.762
5989.521
5989.271
5989.004
5988.721
5988.441
5988.175
5987.92
5987.671
5987.425
5987.183
5986.945
5986.712
5986.483
5986.26
5986.042
5985.829
5985.622
5985.42
5985.224
5985.034
5984.849
5984.67
5984.497
5984.329
5984.167
5984.011
5983.861
5983.717
5983.579
5983.447
5983.321
5983.202
5983.089
5982.982
5982.882
5982.789
5982.702
5982.623
5982.55
5982.485
5982.427
5982.375
5982.328
5982.284
5982.238
5982.186
5982.119
5982.027
5981.906
5981.759
5981.598
5981.433
5981.265
5981.096
5980.925
5980.75
5980.562
5980.354
5980.138
5979.926
5979.721
5979.523
5979.329
5979.138
5978.95
5978.763
5978.577
5978.39
5978.204
5978.016
5977.827
5977.636
5977.443
5977.248
5977.049
5976.847
5976.642
5976.432
5976.218
5976
5975.778
5975.55
5975.317
5975.079
5974.834
5974.584
5974.326
5974.062
5973.791
5973.512
5973.225
5972.93
5972.627
5972.315
5971.994
5971.665
5971.325
5970.976
5970.618
5970.249
5969.869
5969.479
5969.077
5968.664
5968.24
5967.803
5967.355
5966.893
5966.419
5965.931
5965.429
5964.913
5964.382
5963.836
5963.274
5962.695
5962.099
5961.485
5960.852
5960.199
5959.524
5958.827
5958.106
5957.36
5956.585
5955.781
5954.946
5954.076
5953.17
5952.227
5951.245
5950.226
5949.176
5948.108
5947.044
5946.022
5945.1
5944.349
5943.851
5943.645
5943.613
4532.333
4541.452
4578.103
4639.456
4743.433
4844.364
4975.943
5104.135
5222.265
5320.869
5399.628
5462.585
5507.494
5540.824
5562.333
5506.677
5515.176
5514.969
5509.737
5502.776
5494.892
5486.589
5478.406
5470.619
5463.405
5456.71
5450.333
5445.63
5441.459
5437.159
5432.077
5425.626
5418.403
5411.317
5404.708
5398.723
5393.405
5388.734
5384.688
5381.247
5378.383
5376.067
5374.266
5372.937
5372.048
5371.584
5371.531
5371.866
5372.561
5373.589
5374.918
5376.521
5378.352
5380.456
5382.807
5385.37
5388.13
5391.074
5394.187
5397.45
5400.848
5404.365
5407.972
5411.661
5415.432
5419.28
5423.196
5427.168
5431.184
5435.231
5439.3
5443.363
5447.428
5451.514
5455.613
5459.713
5463.804
5467.882
5471.944
5475.984
5479.993
5483.963
5487.894
5491.788
5495.651
5499.48
5503.273
5507.027
5510.741
5514.408
5518.024
5521.595
5525.13
5528.628
5532.086
5535.504
5538.882
5542.22
5545.514
5548.763
5551.963
5555.12
5558.239
5561.324
5564.377
5567.399
5570.388
5573.342
5576.26
5579.139
5581.99
5584.823
5587.638
5590.433
5593.209
5595.966
5598.705
5601.425
5604.126
5606.807
5609.472
5612.126
5614.774
5617.417
5620.056
5622.691
5625.322
5627.947
5630.57
5633.2
5635.84
5638.492
5641.156
5643.835
5646.53
5649.242
5651.972
5654.722
5657.493
5660.29
5663.12
5665.984
5668.877
5671.789
5674.692
5677.534
5680.244
5682.712
5684.938
5686.992
5688.873
5690.528
5691.959
5693.22
5694.373
5695.461
5696.512
5697.547
5698.585
5699.639
5700.724
5701.854
5703.049
5704.333
5705.73
5707.265
5708.946
5710.764
5712.691
5714.645
5716.502
5718.081
5719.257
5719.999
5720.357
5720.458
5720.581
5720.95
5721.583
5722.401
5723.339
5724.361
5725.44
5726.553
5727.684
5728.821
5729.957
5731.087
5732.205
5733.31
5734.398
5735.47
5736.522
5737.556
5738.57
5739.566
5740.543
5741.502
5742.442
5743.365
5744.269
5745.154
5746.021
5746.869
5747.698
5748.508
5749.299
5750.072
5750.826
5751.561
5752.278
5752.976
5753.656
5754.317
5754.961
5755.586
5756.194
5756.784
5757.357
5757.913
5758.453
5758.979
5759.491
5759.992
5760.482
5760.962
5761.429
5761.884
5762.326
5762.755
5763.17
5763.569
5763.953
5764.322
5764.675
5765.013
5765.336
5765.643
5765.936
5766.213
5766.476
5766.725
5766.959
5767.179
5767.386
5767.578
5767.757
5767.921
5768.071
5768.207
5768.328
5768.436
5768.529
5768.609
5768.675
5768.727
5768.766
5768.791
5768.802
5768.8
5768.784
5768.754
5768.71
5768.652
5768.58
5768.495
5768.395
5768.281
5768.153
5768.012
5767.857
5767.691
5767.514
5767.328
5767.134
5766.932
5766.723
5766.504
5766.275
5766.032
5765.776
5765.506
5765.221
5764.92
5764.604
5764.272
5763.924
5763.56
5763.179
5762.782
5762.368
5761.937
5761.489
5761.022
5760.537
5760.033
5759.509
5758.963
5758.396
5757.806
5757.193
5756.557
5755.898
5755.218
5754.521
5753.814
5753.107
5752.42
5751.777
5751.209
5750.747
5750.412
5750.185
5750.029
5749.91
5749.808
5749.711
5749.61
5749.501
5749.38
5749.248
5749.102
5748.944
5748.774
5748.594
5748.403
5748.204
5747.996
5747.782
5747.562
5747.337
5747.108
5746.876
5746.642
5746.405
5746.167
5745.928
5745.688
5745.448
5745.208
5744.967
5744.725
5744.482
5744.234
5743.981
5743.719
5743.447
5743.174
5742.91
5742.655
5742.405
5742.16
5741.918
5741.68
5741.447
5741.219
5740.996
5740.778
5740.565
5740.357
5740.155
5739.958
5739.768
5739.582
5739.403
5739.229
5739.061
5738.898
5738.741
5738.591
5738.446
5738.307
5738.174
5738.047
5737.926
5737.811
5737.703
5737.6
5737.504
5737.414
5737.331
5737.253
5737.181
5737.115
5737.053
5736.994
5736.936
5736.875
5736.808
5736.728
5736.632
5736.515
5736.38
5736.232
5736.077
5735.918
5735.755
5735.589
5735.416
5735.235
5735.044
5734.846
5734.648
5734.454
5734.263
5734.075
5733.888
5733.704
5733.52
5733.337
5733.154
5732.97
5732.784
5732.598
5732.409
5732.218
5732.024
5731.828
5731.628
5731.424
5731.216
5731.004
5730.788
5730.567
5730.341
5730.109
5729.872
5729.629
5729.38
5729.124
5728.861
5728.591
5728.313
5728.028
5727.735
5727.433
5727.123
5726.803
5726.475
5726.137
5725.79
5725.433
5725.065
5724.687
5724.299
5723.899
5723.488
5723.065
5722.631
5722.184
5721.725
5721.253
5720.768
5720.269
5719.756
5719.229
5718.687
5718.129
5717.556
5716.966
5716.358
5715.733
5715.089
5714.425
5713.741
5713.035
5712.306
5711.553
5710.774
5709.97
5709.138
5708.278
5707.392
5706.48
5705.547
5704.601
5703.656
5702.732
5701.86
5701.079
5700.434
5699.962
5699.683
5699.511
4572.193
4506.899
4435.187
4358.622
4294.887
4256.182
4242.834
4261.031
4313.234
4398.816
4470.158
4610.244
4745.169
4868.481
4977.052
5067.564
5137.256
5187.798
5222.748
5243.599
5250.32
5256.552
5257.812
5254.662
5249.216
5242.487
5235.051
5227.451
5220.03
5212.97
5206.34
5200.185
5194.891
5189.955
5184.984
5179.638
5173.655
5167.292
5161.004
5155.06
5149.599
5144.684
5140.336
5136.555
5133.333
5130.655
5128.496
5126.831
5125.631
5124.867
5124.521
5124.573
5125.002
5125.783
5126.891
5128.301
5129.993
5131.936
5134.127
5136.553
5139.188
5142.015
5145.019
5148.187
5151.502
5154.949
5158.511
5162.17
5165.915
5169.737
5173.63
5177.585
5181.592
5185.64
5189.717
5193.815
5197.921
5202.031
5206.15
5210.274
5214.394
5218.505
5222.601
5226.678
5230.73
5234.752
5238.739
5242.688
5246.6
5250.476
5254.315
5258.116
5261.877
5265.595
5269.267
5272.891
5276.472
5280.011
5283.509
5286.967
5290.383
5293.758
5297.09
5300.38
5303.625
5306.826
5309.983
5313.101
5316.184
5319.232
5322.247
5325.228
5328.175
5331.089
5333.968
5336.818
5339.646
5342.452
5345.238
5348.003
5350.749
5353.476
5356.185
5358.875
5361.548
5364.206
5366.852
5369.49
5372.121
5374.747
5377.368
5379.986
5382.599
5385.212
5387.828
5390.451
5393.083
5395.724
5398.378
5401.043
5403.721
5406.414
5409.121
5411.844
5414.585
5417.343
5420.117
5422.9
5425.677
5428.424
5431.102
5433.667
5436.061
5438.27
5440.315
5442.203
5443.915
5445.453
5446.851
5448.146
5449.373
5450.555
5451.714
5452.866
5454.027
5455.209
5456.428
5457.698
5459.036
5460.457
5461.973
5463.588
5465.28
5467.024
5468.759
5470.4
5471.845
5473.018
5473.899
5474.526
5474.984
5475.425
5475.98
5476.689
5477.525
5478.456
5479.456
5480.506
5481.59
5482.694
5483.807
5484.921
5486.032
5487.135
5488.227
5489.305
5490.368
5491.414
5492.443
5493.453
5494.446
5495.42
5496.377
5497.315
5498.235
5499.138
5500.021
5500.886
5501.733
5502.561
5503.37
5504.161
5504.933
5505.686
5506.421
5507.137
5507.835
5508.515
5509.177
5509.821
5510.447
5511.055
5511.647
5512.221
5512.779
5513.322
5513.85
5514.364
5514.865
5515.355
5515.832
5516.297
5516.749
5517.188
5517.614
5518.025
5518.421
5518.802
5519.168
5519.519
5519.855
5520.176
5520.482
5520.773
5521.05
5521.312
5521.559
5521.793
5522.012
5522.217
5522.408
5522.586
5522.749
5522.898
5523.033
5523.154
5523.261
5523.355
5523.434
5523.5
5523.552
5523.591
5523.616
5523.627
5523.625
5523.609
5523.58
5523.537
5523.48
5523.409
5523.325
5523.227
5523.115
5522.99
5522.852
5522.701
5522.538
5522.365
5522.181
5521.988
5521.787
5521.576
5521.355
5521.122
5520.878
5520.62
5520.348
5520.062
5519.761
5519.445
5519.113
5518.766
5518.404
5518.025
5517.631
5517.22
5516.793
5516.348
5515.887
5515.408
5514.912
5514.396
5513.862
5513.309
5512.736
5512.144
5511.534
5510.906
5510.265
5509.614
5508.96
5508.314
5507.69
5507.106
5506.582
5506.135
5505.778
5505.5
5505.281
5505.101
5504.941
5504.793
5504.648
5504.5
5504.347
5504.186
5504.016
5503.838
5503.65
5503.454
5503.25
5503.039
5502.821
5502.598
5502.37
5502.137
5501.901
5501.662
5501.421
5501.178
5500.934
5500.689
5500.443
5500.197
5499.951
5499.704
5499.456
5499.206
5498.953
5498.697
5498.436
5498.169
5497.903
5497.642
5497.387
5497.137
5496.892
5496.65
5496.412
5496.179
5495.95
5495.727
5495.508
5495.295
5495.087
5494.884
5494.687
5494.496
5494.31
5494.13
5493.955
5493.786
5493.623
5493.466
5493.314
5493.168
5493.029
5492.895
5492.766
5492.644
5492.528
5492.417
5492.312
5492.214
5492.12
5492.033
5491.95
5491.872
5491.799
5491.729
5491.66
5491.591
5491.519
5491.441
5491.354
5491.254
5491.14
5491.012
5490.873
5490.727
5490.576
5490.419
5490.258
5490.092
5489.919
5489.739
5489.555
5489.369
5489.184
5489
5488.818
5488.637
5488.457
5488.278
5488.098
5487.918
5487.736
5487.554
5487.37
5487.184
5486.995
5486.804
5486.609
5486.411
5486.21
5486.004
5485.794
5485.58
5485.361
5485.137
5484.907
5484.672
5484.43
5484.183
5483.928
5483.667
5483.399
5483.123
5482.839
5482.548
5482.248
5481.939
5481.621
5481.295
5480.959
5480.613
5480.258
5479.892
5479.516
5479.13
5478.732
5478.323
5477.903
5477.471
5477.026
5476.57
5476.101
5475.619
5475.123
5474.614
5474.091
5473.553
5473.001
5472.433
5471.85
5471.25
5470.633
5469.999
5469.347
5468.676
5467.986
5467.276
5466.545
5465.793
5465.021
5464.227
5463.413
5462.58
5461.733
5460.877
5460.02
5459.176
5458.363
5457.602
5456.923
5456.353
5455.911
5455.614
5455.393
4309.164
4228.17
4074.48
4002.971
3942.149
3898.781
3878.747
3890.034
3940.377
4033.153
4155.906
4300.199
4441.605
4571.536
4687.174
4784.924
4861.091
4916.326
4954.788
4979.518
4993.193
5001.174
5003.721
5001.905
4997.378
4991.264
4984.274
4976.944
4969.636
4962.576
4955.896
4949.645
4943.879
4938.426
4933.063
4927.594
4921.89
4916.058
4910.334
4904.909
4899.899
4895.367
4891.346
4887.847
4884.869
4882.403
4880.432
4878.937
4877.893
4877.277
4877.07
4877.251
4877.799
4878.692
4879.907
4881.421
4883.213
4885.259
4887.545
4890.058
4892.777
4895.686
4898.768
4902.01
4905.394
4908.906
4912.531
4916.253
4920.06
4923.942
4927.891
4931.897
4935.951
4940.043
4944.163
4948.302
4952.451
4956.604
4960.76
4964.916
4969.065
4973.202
4977.322
4981.419
4985.491
4989.531
4993.537
4997.504
5001.434
5005.326
5009.178
5012.989
5016.758
5020.483
5024.162
5027.795
5031.382
5034.926
5038.427
5041.885
5045.3
5048.673
5052.002