/*--------------------------------*- C++ -*----------------------------------*\
| =========                 |                                                 |
| \\      /  F ield         | foam-extend: Open Source CFD                    |
|  \\    /   O peration     | Version:     3.1                                |
|   \\  /    A nd           | Web:         http://www.extend-project.de       |
|    \\/     M anipulation  |                                                 |
\*---------------------------------------------------------------------------*/
FoamFile
{
    version     2.0;
    format      ascii;
    class       surfaceScalarField;
    location    "0.5";
    object      phi;
}
// * * * * * * * * * * * * * * * * * * * * * * * * * * * * * * * * * * * * * //

dimensions      [0 3 -1 0 0 0 0];

internalField   nonuniform List<scalar> 
275122
(
-0.0001213298
0.0001225869
-9.921684e-08
-1.157888e-06
-0.0001098442
0.0001052256
3.693805e-07
4.249217e-06
-0.0001107957
0.0001143869
-5.209067e-08
-3.539098e-06
-0.0001258549
0.0001295939
-4.541806e-08
-3.693577e-06
-0.0001390524
0.000140304
-3.423475e-08
-1.21734e-06
-0.0001409671
0.000140965
-2.107809e-08
2.319694e-08
-0.0001402497
0.0001398941
-1.245803e-08
3.680581e-07
-0.0001386508
0.0001381825
-7.950082e-09
4.762538e-07
-0.0001366676
0.0001361275
-4.922788e-09
5.449912e-07
-0.0001344265
0.0001338337
-2.924605e-09
5.957351e-07
-0.0001319941
0.0001313612
-1.631231e-09
6.345337e-07
-0.0001294155
0.0001287518
-8.347021e-10
6.645057e-07
-0.0001267248
0.0001260375
-3.719488e-10
6.876611e-07
-0.0001239482
0.0001232431
-1.242035e-10
7.052199e-07
-0.000121108
0.0001203904
-2.829597e-11
7.177014e-07
-0.0001182248
0.0001175
-1.167371e-10
7.249625e-07
-0.0001153223
0.0001145983
-8.126937e-10
7.248128e-07
-0.0001124434
0.0001117415
-4.790697e-09
7.066592e-07
-0.0001097361
0.0001091511
-2.770919e-08
6.127566e-07
-0.0001079085
0.0001080648
-1.356093e-07
-2.071952e-08
-0.0001196684
0.0001237048
-3.59456e-07
-3.676919e-06
-0.0001253167
0.0001256601
-1.617768e-07
-1.815922e-07
-0.0001265639
0.000127336
-9.628073e-08
-6.758237e-07
-0.0001409037
0.0001460076
8.998416e-08
-5.193865e-06
-0.0001473355
0.0001475089
2.2636e-07
-3.997617e-07
-0.0001488342
0.0001490052
1.225053e-07
-2.935085e-07
-0.0001490246
0.0001488297
7.701316e-08
1.179227e-07
-0.0001476287
0.0001465515
6.63856e-08
1.010803e-06
-0.0001385866
0.0001301369
6.030191e-08
8.38942e-06
-0.0001341684
0.0001380406
3.312784e-09
-3.875555e-06
-8.058542e-05
8.418756e-05
-2.355549e-08
-3.578589e-06
-9.564721e-05
9.950479e-05
2.654313e-10
-3.857847e-06
-0.0001114227
0.0001154506
2.063343e-10
-4.028089e-06
-0.0001277244
0.0001318921
3.118961e-10
-4.168096e-06
-0.0001445102
0.0001487457
3.601962e-10
-4.235821e-06
-0.0001615112
0.0001657816
4.6922e-10
-4.270881e-06
-0.0001786217
0.0001829126
4.357865e-10
-4.291287e-06
-0.0001958
0.0002001053
6.037367e-10
-4.30592e-06
-0.0002130288
0.0002173516
4.704872e-10
-4.32328e-06
-0.0002305259
0.000235016
6.713625e-08
-4.557208e-06
3.860114e-06
-0.0001573258
0.0001576402
-1.877823e-10
-4.174342e-06
3.987429e-06
-0.000158504
0.0001587129
-3.782748e-11
-4.196307e-06
4.097662e-06
-0.0001591441
0.0001592574
1.931875e-11
-4.210987e-06
4.202158e-06
-0.0001594895
0.0001595474
-6.948576e-11
-4.259988e-06
4.251528e-06
-0.0001596878
0.0001597284
-9.97584e-11
-4.292051e-06
4.276173e-06
-0.0001598426
0.00015988
-6.806396e-11
-4.313488e-06
4.289654e-06
-0.0001599889
0.0001600254
-4.503645e-11
-4.326108e-06
4.303794e-06
-0.0001601353
0.0001601722
3.700959e-11
-4.340701e-06
4.481603e-06
-0.0001602551
0.0001601803
-2.461593e-11
-4.406687e-06
3.828608e-06
-0.0006433548
0.0006446546
-1.474256e-11
-1.70886e-05
4.060965e-06
3.834374e-06
4.064817e-06
4.087594e-06
-0.0006454265
0.0006459683
2.181725e-12
-1.707569e-05
4.177907e-06
4.089813e-06
4.178571e-06
4.1467e-06
-0.0006463894
0.0006467557
3.945045e-11
-1.704957e-05
4.194597e-06
4.146673e-06
4.195283e-06
4.231905e-06
-0.0006469359
0.0006470269
1.239956e-11
-1.703603e-05
4.240494e-06
4.23204e-06
4.240533e-06
4.250719e-06
-0.0006470967
0.0006471333
1.170707e-11
-1.705205e-05
4.257095e-06
4.25061e-06
4.257042e-06
4.268253e-06
-0.0006471461
0.0006471424
1.065232e-11
-1.708053e-05
4.273818e-06
4.268361e-06
4.273839e-06
4.278566e-06
-0.0006471303
0.0006470987
8.150897e-12
-1.709327e-05
4.28396e-06
4.278512e-06
4.283849e-06
4.284406e-06
-0.0006470597
0.0006470073
5.203048e-12
-1.709495e-05
4.289051e-06
4.28468e-06
4.289201e-06
4.307332e-06
-0.0006469368
0.000646775
2.238642e-12
-1.708699e-05
4.317053e-06
4.308049e-06
4.316342e-06
4.211168e-06
-0.0006464913
0.0006466765
-1.622917e-12
-1.698377e-05
4.187849e-06
4.211907e-06
4.187603e-06
4.226643e-06
-0.0006467335
0.0006466437
-5.30944e-12
-1.677001e-05
4.204006e-06
4.225676e-06
4.203481e-06
4.181113e-06
-0.0006466247
0.0006466141
8.054374e-12
-1.668789e-05
4.168793e-06
4.180564e-06
4.168001e-06
4.167219e-06
-0.0006466037
0.0006465536
-7.042947e-12
-1.66205e-05
4.166755e-06
4.168118e-06
4.168511e-06
4.182645e-06
-0.0006464665
0.0006463412
-5.694337e-12
-1.660369e-05
4.182796e-06
4.18142e-06
4.182055e-06
4.195602e-06
-0.0006461921
0.0006460095
-4.171279e-12
-1.660228e-05
4.199116e-06
4.193483e-06
4.196687e-06
4.223573e-06
-0.0006458104
0.0006455877
-3.696618e-12
-1.666245e-05
4.231365e-06
4.212128e-06
4.218104e-06
4.313945e-06
-0.0006453488
0.000645056
-3.77931e-12
-1.692481e-05
4.344787e-06
4.268475e-06
4.290374e-06
4.670708e-06
-0.0006446356
0.0006437753
2.664609e-12
-1.771365e-05
4.808114e-06
4.495775e-06
4.599313e-06
5.799559e-06
-0.0006418289
0.0006378202
7.266479e-13
-1.879904e-05
6.233029e-06
5.298342e-06
5.476832e-06
6.2024e-06
-0.0006326519
0.0006376483
-6.928211e-12
-1.119875e-05
7.21924e-06
-0.000641874
0.0006428856
-4.258992e-12
-8.230846e-06
1.177474e-05
-0.0006422023
0.0006409968
-3.502653e-12
-1.056921e-05
1.052061e-05
-0.0006397842
0.0006386102
-2.750054e-12
-9.346638e-06
5.457342e-06
-0.0006379035
0.0006383468
-2.785754e-12
-5.900622e-06
2.134536e-06
-0.000639209
0.0006400502
-2.326336e-12
-2.975707e-06
6.094597e-07
-0.0006409172
0.0006417277
-1.442816e-12
-1.419918e-06
-2.592617e-07
-0.0006425025
0.0006432064
-7.590648e-13
-4.44629e-07
-8.176623e-07
-0.000643869
0.0006444799
-1.433896e-13
2.067682e-07
-1.212795e-06
-0.0006450677
0.0006456103
4.671881e-13
6.702064e-07
-1.514317e-06
-0.0006461357
0.0006466289
5.796716e-13
1.021137e-06
-1.744678e-06
-0.0006471119
0.0006475731
1.606128e-13
1.283506e-06
-1.919518e-06
-0.0006480281
0.0006484689
-7.455812e-13
1.478732e-06
-2.045132e-06
-0.0006489069
0.0006493378
-2.131467e-12
1.614201e-06
-2.120535e-06
-0.0006497699
0.0006502027
-3.806102e-12
1.687715e-06
-2.136458e-06
-0.0006506417
0.0006510912
-5.398916e-12
1.687042e-06
-2.064891e-06
-0.0006515539
0.0006520391
-6.38528e-12
1.579762e-06
-1.820397e-06
-0.0006525456
0.0006530821
-6.334024e-12
1.283948e-06
-1.149879e-06
-0.000653632
0.0006541722
-5.273662e-12
6.096532e-07
7.786356e-07
-0.0006546488
0.0006546748
-3.806899e-12
-8.046177e-07
2.595142e-06
-0.0006536839
0.0006532621
-2.617966e-12
-2.173328e-06
1.896353e-06
-0.0006537289
0.0006542161
-2.283608e-12
-2.383559e-06
6.012885e-06
-0.0006543089
0.0006533894
-2.066367e-12
-5.093352e-06
1.144835e-05
-0.0006495464
0.0006457836
-2.056113e-12
-7.685532e-06
4.351467e-06
-0.000643766
0.0006431113
-2.447564e-12
-3.696695e-06
6.012983e-07
-0.0006426883
0.0006420104
-2.727842e-12
7.663888e-08
-3.102799e-06
-0.0006414773
0.0006408913
-2.771962e-12
3.688775e-06
-9.83234e-06
-0.0006405177
0.0006408305
-2.683056e-12
9.519584e-06
-2.661272e-05
-0.000642859
0.0006506427
-2.345352e-12
1.882907e-05
-5.078511e-06
-0.0006603116
0.0006617416
-2.101444e-12
1.637774e-05
-3.769126e-06
-5.124253e-06
-3.835843e-06
-2.08925e-06
-0.0006610716
0.0006602506
-2.292963e-12
8.91502e-06
-1.905586e-06
-2.144237e-06
-1.954913e-06
-1.310487e-06
-0.0006592908
0.0006583995
-3.946425e-12
6.032955e-06
-1.226179e-06
-1.346974e-06
-1.257975e-06
-1.005713e-06
-0.0006576413
0.0006570667
-7.787966e-12
4.581382e-06
-9.766108e-07
-1.027951e-06
-9.964506e-07
-8.730085e-07
-0.0006566059
0.0006562658
-1.01169e-11
3.828234e-06
-8.567992e-07
-8.877518e-07
-8.705724e-07
-8.034028e-07
-0.000655997
0.0006558125
-1.267533e-11
3.398309e-06
-7.95434e-07
-8.12153e-07
-8.028164e-07
-7.644696e-07
-0.0006556748
0.0006555954
-4.793836e-12
3.136604e-06
-7.595746e-07
-7.692885e-07
-7.638265e-07
-7.405154e-07
-0.0006555487
0.000655544
-2.180509e-12
2.965871e-06
-7.374008e-07
-7.433059e-07
-7.399186e-07
-7.250174e-07
-0.000655563
0.000655613
-1.15323e-12
2.849368e-06
-7.230393e-07
-7.267043e-07
-7.245648e-07
-7.152054e-07
-0.0006556805
0.0006557705
-5.859336e-13
2.770598e-06
-7.140506e-07
-7.162502e-07
-7.150466e-07
-7.101862e-07
-0.0006558729
0.0006559908
-1.496135e-13
2.723973e-06
-7.099688e-07
-7.109882e-07
-7.107371e-07
-7.101565e-07
-0.0006561167
0.0006562512
1.835693e-13
2.708583e-06
-7.108115e-07
-7.10774e-07
-7.113601e-07
-7.153851e-07
-0.0006563898
0.0006565312
1.812911e-13
2.723938e-06
-7.169583e-07
-7.157622e-07
-7.173142e-07
-7.252966e-07
-0.0006566734
0.000656814
-1.587249e-13
2.765667e-06
-7.275606e-07
-7.25578e-07
-7.278245e-07
-7.381911e-07
-0.0006569531
0.0006570878
-2.673545e-13
2.823537e-06
-7.407265e-07
-7.384062e-07
-7.408776e-07
-7.508045e-07
-0.0006572191
0.0006573439
4.921824e-12
2.882827e-06
-7.527824e-07
-7.509508e-07
-7.53139e-07
-7.626826e-07
-0.0006574655
0.0006575846
1.782036e-14
2.933918e-06
-7.649577e-07
-7.617779e-07
-7.635693e-07
-7.707716e-07
-0.0006577048
0.0006578246
-3.385213e-12
2.963206e-06
-7.711542e-07
-7.7019e-07
-7.708286e-07
-7.704078e-07
-0.0006579433
0.0006580616
-2.625307e-12
2.962156e-06
-7.698016e-07
-7.704293e-07
-7.698408e-07
-7.66755e-07
-0.00065818
0.0006583006
-1.935889e-12
2.945191e-06
-7.660721e-07
-7.667988e-07
-7.661166e-07
-7.633689e-07
-0.000658423
0.0006585488
4.310763e-13
2.926899e-06
-7.629506e-07
-7.633996e-07
-7.629764e-07
-7.616285e-07
-0.0006586766
0.000658807
1.88022e-12
2.916133e-06
-7.615889e-07
-7.616674e-07
-7.616298e-07
-7.622955e-07
-0.0006589387
0.000659071
2.750373e-12
2.917802e-06
-7.627382e-07
-7.623356e-07
-7.627797e-07
-7.656181e-07
-0.0006592034
0.0006593345
3.078152e-12
2.933276e-06
-7.665299e-07
-7.656533e-07
-7.66565e-07
-7.712467e-07
-0.0006594645
0.0006595914
2.501105e-12
2.960502e-06
-7.724592e-07
-7.712491e-07
-7.724492e-07
-7.780219e-07
0.0006598362
1.319315e-12
2.994527e-06
-7.792446e-07
-7.780001e-07
-7.792485e-07
-0.0006597162
-7.846659e-07
-0.000659953
0.0006600643
3.712659e-13
3.030088e-06
-7.858326e-07
-7.847998e-07
-7.859945e-07
-7.906776e-07
-0.0006601719
0.0006602734
-4.515679e-13
3.063434e-06
-7.91634e-07
-7.908605e-07
-7.91792e-07
-7.958118e-07
-0.0006603713
0.0006604636
-2.21376e-12
3.092734e-06
-7.966612e-07
-7.958532e-07
-7.967021e-07
-7.999386e-07
-0.0006605527
0.0006606369
2.206111e-12
3.11753e-06
-8.007127e-07
-8.000624e-07
-8.009434e-07
-8.034209e-07
-0.0006607177
0.000660794
2.163085e-11
3.137972e-06
-8.039669e-07
-8.032431e-07
-8.036322e-07
-8.071141e-07
-0.0006608693
0.000660941
-7.036964e-12
3.155852e-06
-8.071028e-07
-8.06584e-07
-8.06713e-07
-8.086958e-07
-0.0006610097
0.0006610753
-3.902806e-12
3.170052e-06
-8.090759e-07
-8.087552e-07
-8.091556e-07
-8.10658e-07
-0.0006611394
0.0006612008
-1.046878e-12
3.182063e-06
-8.110037e-07
-8.107315e-07
-8.110753e-07
-8.123572e-07
-0.0006612608
0.0006613185
-6.578513e-13
3.19245e-06
-8.126659e-07
-8.124206e-07
-8.127292e-07
-8.138595e-07
-0.000661375
0.0006614295
-5.14957e-13
3.201678e-06
-8.141479e-07
-8.13921e-07
-8.142102e-07
-8.152273e-07
-0.0006614828
0.0006615344
-3.873678e-13
3.210054e-06
-8.155011e-07
-8.15291e-07
-8.155657e-07
-8.164686e-07
-0.0006615849
0.0006616336
-3.482075e-13
3.217739e-06
-8.167084e-07
-8.165339e-07
-8.167743e-07
-8.174864e-07
-0.0006616816
0.000661727
-3.840512e-13
3.22483e-06
-8.175811e-07
-8.175504e-07
-8.176455e-07
-8.18509e-07
-0.0006617737
0.0006618153
-5.100252e-13
3.231447e-06
-8.179453e-07
-8.185523e-07
-8.179909e-07
-8.199112e-07
-0.0006618642
0.0006619026
-5.62067e-13
3.23789e-06
-8.182059e-07
-8.199419e-07
-8.182093e-07
-8.203806e-07
-0.000661949
0.000661985
-2.904958e-13
3.243718e-06
-8.194415e-07
-8.20406e-07
-8.194474e-07
-8.208581e-07
-0.0006620299
0.0006620642
5.193427e-14
3.248911e-06
-8.206213e-07
-8.210164e-07
-8.207812e-07
-8.213453e-07
-0.0006621081
0.0006621418
7.591209e-14
3.25258e-06
-8.215794e-07
-8.215618e-07
-8.217738e-07
-8.216947e-07
-0.000662183
0.0006622163
-1.486135e-13
3.254177e-06
-8.219536e-07
-8.218088e-07
-8.220618e-07
-8.219132e-07
-0.0006622557
0.0006622924
-3.857299e-13
3.254036e-06
-8.233285e-07
-8.220879e-07
-8.234212e-07
-8.215299e-07
-0.0006623325
0.0006623747
-8.753619e-13
3.246908e-06
-8.227799e-07
-8.218251e-07
-8.229465e-07
-8.197705e-07
-0.0006624248
0.0006624782
-9.028711e-13
3.218326e-06
-8.159516e-07
-8.198821e-07
-8.161341e-07
-7.973276e-07
-0.0006625305
0.0006625696
-5.376463e-13
3.138743e-06
-7.913006e-07
-7.976042e-07
-7.915846e-07
-7.256583e-07
-0.0006625362
0.000662397
-1.095496e-12
3.003652e-06
-7.049442e-07
-7.268749e-07
-7.069934e-07
-7.459167e-07
-0.0006624899
0.0006624146
-7.16496e-13
3.119078e-06
-7.791781e-07
-7.425998e-07
-7.761457e-07
-7.302427e-07
-0.0006623337
0.0006622569
-4.3659e-13
2.992877e-06
-7.295571e-07
-7.282112e-07
-7.280138e-07
-7.368884e-07
-0.0006622061
0.000662193
-1.120469e-13
2.959748e-06
-7.372613e-07
-7.359659e-07
-7.36586e-07
-7.478831e-07
-0.0006621967
0.0006622178
5.88377e-14
2.971752e-06
-7.492367e-07
-7.471254e-07
-7.486305e-07
-7.619492e-07
-0.0006622542
0.0006623018
6.400781e-14
3.000758e-06
-7.627375e-07
-7.613993e-07
-7.622525e-07
-7.725999e-07
-0.0006623565
0.0006624168
2.846071e-13
3.030616e-06
-7.732447e-07
-7.72178e-07
-7.728696e-07
-7.814999e-07
-0.0006624809
0.0006625494
6.585702e-12
3.0589e-06
-7.824514e-07
-7.812098e-07
-7.82205e-07
-7.862014e-07
-0.0006626189
0.0006626843
5.158974e-12
3.081789e-06
-7.877126e-07
-7.859545e-07
-7.873113e-07
-7.908797e-07
-0.0006627472
0.0006628128
-1.257852e-11
3.099027e-06
-7.918399e-07
-7.903313e-07
-7.91516e-07
-7.963511e-07
-0.000662881
0.0006629487
-5.440398e-13
3.117271e-06
-7.963089e-07
-7.961636e-07
-7.961299e-07
-8.000198e-07
-0.0006630157
0.0006630819
-1.738653e-13
3.134115e-06
-8.001449e-07
-8.000054e-07
-8.001594e-07
-8.032577e-07
-0.0006631473
0.0006632109
3.833367e-13
3.149561e-06
-8.032985e-07
-8.032876e-07
-8.033103e-07
-8.060436e-07
-0.0006632734
0.0006633343
3.204226e-14
3.16326e-06
-8.061489e-07
-8.059505e-07
-8.060427e-07
-8.085667e-07
-0.0006633943
0.0006634528
8.262445e-13
3.175739e-06
-8.086528e-07
-8.08454e-07
-8.085395e-07
-8.107185e-07
-0.0006635103
0.0006635666
2.653073e-12
3.186475e-06
-8.107643e-07
-8.106272e-07
-8.106689e-07
-8.126094e-07
-0.0006636224
0.0006636778
5.328121e-12
3.195074e-06
-8.126015e-07
-8.126548e-07
-8.125603e-07
-8.135878e-07
-0.000663732
0.0006637854
4.53441e-12
3.201588e-06
-8.140635e-07
-8.134055e-07
-8.1395e-07
-8.165241e-07
-0.0006638384
0.0006638898
4.139499e-12
3.207977e-06
-8.124268e-07
-8.132943e-07
-8.170981e-07
-8.139555e-07
-0.0006639353
0.0006639734
-3.690091e-11
3.217763e-06
-8.134738e-07
-8.116064e-07
-8.168053e-07
-8.215856e-07
-0.0006640159
0.0006640582
5.65046e-10
3.237003e-06
-8.21082e-07
-8.187099e-07
-8.184454e-07
-8.231591e-07
-0.0006640956
0.0006641285
1.993374e-10
3.258765e-06
-8.232902e-07
-8.226003e-07
-8.228824e-07
-8.268854e-07
-0.0006641579
0.0006641819
3.997052e-11
3.283947e-06
-8.271537e-07
-8.268239e-07
-8.271027e-07
-8.304732e-07
-0.0006642024
0.0006642177
1.349045e-11
3.306711e-06
-8.305969e-07
-8.304284e-07
-8.305441e-07
-8.329493e-07
-0.0006642299
0.0006642377
5.173034e-12
3.323533e-06
-8.328645e-07
-8.328493e-07
-8.327583e-07
-8.342105e-07
-0.0006642431
0.0006642455
1.842271e-12
3.333647e-06
-8.339798e-07
-8.340357e-07
-8.337865e-07
-8.345622e-07
0.0006642452
1.845188e-13
3.338251e-06
-0.0006642463
-8.341691e-07
-8.343683e-07
-8.340023e-07
-8.342674e-07
-0.0006642431
0.0006642403
-4.109507e-13
3.339147e-06
-8.339059e-07
-8.342652e-07
-8.339332e-07
-8.33756e-07
-0.0006642371
0.0006642332
-6.462979e-13
3.33803e-06
-8.33273e-07
-8.337972e-07
-8.332887e-07
-8.33277e-07
-0.000664229
0.0006642247
-6.5636e-13
3.336346e-06
-8.328532e-07
-8.331807e-07
-8.327445e-07
-8.330504e-07
-0.0006642204
0.0006642161
-5.878396e-13
3.335409e-06
-8.326214e-07
-8.32928e-07
-8.324976e-07
-8.329552e-07
-0.0006642118
0.0006642073
-5.322047e-13
3.335182e-06
-8.325336e-07
-8.328256e-07
-8.324013e-07
-8.330088e-07
-0.0006642028
0.000664198
-4.891871e-13
3.335696e-06
-8.32567e-07
-8.328961e-07
-8.324645e-07
-8.33141e-07
-0.000664193
0.0006641878
-4.000718e-13
3.336714e-06
-8.326948e-07
-8.33033e-07
-8.325802e-07
-8.33329e-07
-0.0006641823
0.0006641763
-3.131063e-13
3.338061e-06
-8.32863e-07
-8.332078e-07
-8.327359e-07
-8.33562e-07
-0.0006641701
0.0006641635
-2.864973e-13
3.339626e-06
-8.330653e-07
-8.334477e-07
-8.329591e-07
-8.337798e-07
-0.0006641566
0.0006641493
-3.029325e-13
3.341206e-06
-8.332614e-07
-8.336798e-07
-8.331543e-07
-8.340062e-07
-0.0006641417
0.0006641336
-2.912718e-13
3.34274e-06
-8.334483e-07
-8.338857e-07
-8.333245e-07
-8.342345e-07
-0.0006641253
0.0006641165
-2.430954e-13
3.344247e-06
-8.33649e-07
-8.341123e-07
-8.335351e-07
-8.344327e-07
-0.0006641076
0.0006640982
-1.983436e-13
3.34564e-06
-8.338158e-07
-8.343358e-07
-8.337153e-07
-8.346472e-07
-0.0006640886
0.0006640788
-1.50397e-13
3.346904e-06
-8.339917e-07
-8.345186e-07
-8.338593e-07
-8.348833e-07
-0.0006640687
0.0006640584
-1.051814e-13
3.348068e-06
-8.34237e-07
-8.346884e-07
-8.340243e-07
-8.351356e-07
-0.0006640482
0.0006640379
-6.843307e-14
3.349045e-06
-8.344009e-07
-8.349112e-07
-8.342182e-07
-8.351661e-07
-0.0006640274
0.0006640174
-6.879317e-14
3.349451e-06
-8.345374e-07
-8.351531e-07
-8.345584e-07
-8.350548e-07
-0.0006640074
0.0006639975
-1.113766e-13
3.34872e-06
-8.343304e-07
-8.350799e-07
-8.343404e-07
-8.347454e-07
-0.0006639878
0.000663979
-1.248231e-13
3.346421e-06
-8.341819e-07
-8.346103e-07
-8.34067e-07
-8.340927e-07
-0.0006639711
0.0006639652
6.79133e-14
3.341228e-06
-8.336912e-07
-8.339408e-07
-8.335687e-07
-8.333071e-07
-0.0006639622
0.0006639605
8.278163e-13
3.334626e-06
-8.3329e-07
-8.331327e-07
-8.331663e-07
-8.309038e-07
-0.0006639613
0.0006639709
2.742118e-12
3.314426e-06
-8.313107e-07
-8.306702e-07
-8.311553e-07
-8.19289e-07
-0.0006639889
0.0006639998
-8.950737e-15
3.249831e-06
-8.112739e-07
-8.190362e-07
-8.110978e-07
-5.722268e-07
-0.0006638542
0.0006629133
1.034749e-12
3.119871e-06
-5.197084e-07
-5.685662e-07
-5.18492e-07
-5.532364e-07
-0.0001652425
0.000165071
1.209934e-10
7.245328e-07
-6.64069e-07
-0.0001647459
0.000164701
-1.86778e-10
7.091588e-07
-7.314203e-07
-0.0001646564
0.0001646574
-1.199038e-10
7.305756e-07
-7.614298e-07
-0.0001646791
0.0001646897
-5.914512e-11
7.509322e-07
-7.785733e-07
-0.0001647247
0.0001647365
-1.830977e-11
7.667585e-07
-7.893073e-07
-0.0001647713
0.0001647824
3.324495e-12
7.782203e-07
-7.975689e-07
-0.0001648142
0.0001648245
1.046086e-11
7.872158e-07
-7.999089e-07
-0.0001648566
0.0001648648
-2.952339e-11
7.917493e-07
-8.024994e-07
-0.0001648885
0.0001648956
-2.885734e-11
7.955176e-07
-8.071496e-07
-0.0001649167
0.0001649236
3.647103e-11
8.002441e-07
-8.1012e-07
-0.0001649435
0.0001649499
1.997512e-11
8.037631e-07
-8.122631e-07
-0.0001649682
0.0001649739
8.3202e-12
8.065145e-07
-8.138297e-07
-0.0001649903
0.0001649955
1.662623e-11
8.086331e-07
-8.151469e-07
-0.0001650104
0.0001650151
1.862991e-11
8.103662e-07
-8.161055e-07
-0.0001650289
0.0001650333
1.705161e-11
8.116498e-07
-8.167845e-07
-0.0001650463
0.0001650505
1.277187e-11
8.125441e-07
-8.172538e-07
-0.000165063
0.0001650671
1.222301e-11
8.131368e-07
-8.175884e-07
-0.0001650792
0.0001650832
1.324905e-11
8.136086e-07
-8.180694e-07
-0.0001650948
0.0001650985
1.16609e-11
8.143394e-07
-8.188924e-07
-0.0001651089
0.0001651121
1.087871e-11
8.157373e-07
-8.204737e-07
-0.0001651203
0.0001651226
1.21562e-11
8.181972e-07
-8.224867e-07
-0.000165128
0.0001651292
1.152966e-11
8.212329e-07
-8.242805e-07
-0.0001651314
0.0001651317
1.139164e-11
8.240432e-07
-8.239301e-07
-0.0001651323
0.000165132
1.374519e-11
8.242085e-07
-8.242398e-07
-0.0001651307
0.0001651305
1.973922e-11
8.244088e-07
-8.231897e-07
-0.0001651307
0.0001651312
2.394939e-11
8.227391e-07
-8.216243e-07
-0.0001651337
0.0001651352
6.712001e-12
8.20089e-07
-8.198086e-07
-0.0001651419
0.000165145
-4.609774e-12
8.167459e-07
-8.176836e-07
-0.0001651568
0.0001651618
5.557026e-12
8.126635e-07
-8.150995e-07
-0.0001651808
0.0001651883
8.803334e-12
8.075539e-07
-8.115036e-07
-0.0001652172
0.0001652283
1.283979e-11
8.003526e-07
-8.062986e-07
-0.0001652722
0.0001652898
1.347691e-11
7.886667e-07
-7.936233e-07
-0.0001653522
0.0001653781
5.106022e-11
7.677363e-07
-7.759389e-07
-0.0001654964
0.0001655514
2.04118e-11
7.208937e-07
-6.996001e-07
-0.0001657797
0.0001659001
2.04285e-11
5.792081e-07
2.152428e-07
-0.0001663251
0.0001662206
2.340387e-11
-1.107646e-07
7.01155e-07
-0.0001657814
0.0001656772
6.34594e-12
-5.969452e-07
7.627582e-07
-0.0001654193
0.0001653543
-3.027514e-12
-6.977439e-07
7.876071e-07
-0.0001651914
0.0001651451
-5.277964e-12
-7.413082e-07
7.920138e-07
-0.0001650309
0.0001650025
-3.854828e-11
-7.635902e-07
8.02098e-07
-0.0001649324
0.0001649125
-1.521319e-11
-7.822342e-07
8.082263e-07
-0.0001648621
0.0001648483
-1.152e-11
-7.944407e-07
8.125779e-07
-0.0001648143
0.0001648054
-1.218854e-11
-8.036403e-07
8.159331e-07
-0.0001647842
0.000164779
-1.951148e-11
-8.106445e-07
8.18556e-07
-0.0001647675
0.000164765
-1.387189e-11
-8.160904e-07
8.20611e-07
-0.0001647609
0.0001647607
-7.541865e-12
-8.204245e-07
8.225858e-07
-0.0001647624
0.0001647638
-9.696384e-12
-8.24021e-07
8.241702e-07
-0.0001647702
0.0001647731
-9.467668e-12
-8.270073e-07
8.256073e-07
-0.0001647833
0.0001647873
-7.637111e-12
-8.296156e-07
8.269703e-07
-0.0001648009
0.0001648059
-8.125758e-12
-8.320167e-07
8.28339e-07
-0.0001648225
0.0001648285
-7.513011e-12
-8.343823e-07
8.298357e-07
-0.000164848
0.000164855
-5.936386e-12
-8.368561e-07
8.314322e-07
-0.0001648775
0.0001648855
-5.933366e-12
-8.394441e-07
8.330803e-07
-0.0001649109
0.0001649199
-6.373027e-12
-8.420373e-07
8.346306e-07
-0.0001649479
0.0001649577
-4.822254e-12
-8.443962e-07
8.358669e-07
-0.0001649879
0.0001649982
-4.007874e-12
-8.462203e-07
8.366532e-07
-0.0001650297
0.0001650404
-4.631694e-12
-8.472802e-07
8.368861e-07
-0.0001650723
0.0001650829
-3.076282e-12
-8.474642e-07
8.366232e-07
-0.0001651142
0.0001651244
-2.080933e-12
-8.468605e-07
8.360344e-07
-0.0001651544
0.000165164
-7.715163e-12
-8.456767e-07
8.351921e-07
-0.0001651921
0.000165201
-3.108851e-12
-8.44163e-07
8.341855e-07
-0.0001652268
0.0001652351
3.285354e-12
-8.425328e-07
8.334653e-07
-0.0001652587
0.0001652662
-1.350193e-13
-8.410259e-07
8.326659e-07
-0.0001652877
0.0001652946
-1.403485e-12
-8.395946e-07
8.319204e-07
-0.0001653141
0.0001653204
-1.303835e-12
-8.382738e-07
8.311712e-07
-0.000165338
0.0001653438
-2.892399e-12
-8.370083e-07
8.3031e-07
-0.0001653593
0.0001653647
-3.358106e-12
-8.356655e-07
8.293277e-07
-0.0001653797
0.0001653848
-2.335326e-11
-8.344679e-07
8.35053e-07
-0.0001654005
0.000165404
-4.921787e-11
-8.385446e-07
8.84021e-07
-0.0001654132
0.0001653951
-1.417118e-10
-8.657898e-07
7.731861e-07
-0.0001648114
0.0006633913
6.657138e-13
-3.104335e-06
2.467476e-08
7.633494e-07
3.935427e-08
-0.0001648136
-0.0001661299
-0.0001661326
4.798379e-07
-0.0006652352
0.0006657729
1.150938e-12
-2.855383e-06
6.683607e-07
4.924703e-07
6.769832e-07
6.368745e-07
-0.0006661766
0.000666409
7.727401e-13
-2.905358e-06
6.957545e-07
6.412556e-07
6.990658e-07
7.114526e-07
-0.0006665343
0.0006665526
7.58369e-13
-2.914607e-06
7.353789e-07
7.129701e-07
7.365141e-07
7.478078e-07
-0.0006665309
0.0006665014
7.051712e-12
-2.974494e-06
7.532587e-07
7.487507e-07
7.541698e-07
7.785017e-07
-0.000666454
0.0006663735
9.474363e-13
-3.041697e-06
7.820234e-07
7.789652e-07
7.826451e-07
7.997871e-07
-0.0006662818
0.0006661914
-7.840236e-13
-3.108426e-06
7.992631e-07
8.001417e-07
7.995888e-07
8.118394e-07
-0.0006661032
0.0006660177
-1.821169e-12
-3.162989e-06
8.121362e-07
8.120956e-07
8.124078e-07
8.198553e-07
-0.0006659365
0.0006658608
-4.552311e-12
-3.204155e-06
8.199449e-07
8.200258e-07
8.200338e-07
8.247545e-07
-0.0006657902
0.0006657241
-2.236119e-12
-3.2346e-06
8.255422e-07
8.248125e-07
8.255411e-07
8.277582e-07
-0.000665663
0.0006656074
-9.92561e-13
-3.256807e-06
8.285146e-07
8.277308e-07
8.284926e-07
8.296693e-07
-0.0006655561
0.0006655099
-2.081802e-13
-3.273806e-06
8.303782e-07
8.296241e-07
8.303383e-07
8.310106e-07
-0.0006654676
0.0006654301
1.961567e-13
-3.287726e-06
8.316668e-07
8.309683e-07
8.316271e-07
8.32101e-07
-0.0006653961
0.0006653666
3.948164e-13
-3.299968e-06
8.327508e-07
8.320319e-07
8.326701e-07
8.331453e-07
-0.0006653402
0.0006653178
6.503183e-13
-3.311279e-06
8.33776e-07
8.330478e-07
8.336843e-07
8.341586e-07
-0.0006652982
0.000665282
1.138063e-12
-3.321519e-06
8.347668e-07
8.340733e-07
8.346824e-07
8.349649e-07
-0.0006652682
0.0006652572
1.339844e-12
-3.329825e-06
8.355236e-07
8.348742e-07
8.354234e-07
8.354368e-07
-0.0006652481
0.0006652413
1.850059e-12
-3.335682e-06
8.359161e-07
8.353199e-07
8.358015e-07
8.355958e-07
-0.0006652359
0.0006652324
2.601835e-12
-3.339521e-06
8.360337e-07
8.354966e-07
8.359379e-07
8.356473e-07
-0.00066523
0.0006652291
1.630474e-12
-3.342404e-06
8.360679e-07
8.355531e-07
8.359702e-07
8.358042e-07
-0.0006652293
0.0006652308
-3.13898e-13
-3.345403e-06
8.362256e-07
8.35686e-07
8.361016e-07
8.361165e-07
-0.0006652333
0.0006652372
-1.481139e-12
-3.348983e-06
8.365462e-07
8.360072e-07
8.36441e-07
8.365222e-07
-0.0006652419
0.0006652481
-1.635631e-12
-3.352821e-06
8.369292e-07
8.364204e-07
8.368301e-07
8.368819e-07
-0.000665255
0.0006652633
-1.284538e-12
-3.356334e-06
8.372557e-07
8.367521e-07
8.371551e-07
8.371621e-07
-0.0006652723
0.0006652822
-7.342068e-13
-3.359075e-06
8.374999e-07
8.370686e-07
8.374059e-07
8.372283e-07
-0.0006652928
0.0006653042
-8.887308e-14
-3.360799e-06
8.375768e-07
8.371547e-07
8.374675e-07
8.372265e-07
-0.0006653159
0.0006653281
4.623512e-13
-3.361438e-06
8.375034e-07
8.37095e-07
8.373694e-07
8.37054e-07
-0.0006653405
0.0006653532
9.298892e-13
-3.361143e-06
8.373125e-07
8.369283e-07
8.371935e-07
8.368131e-07
-0.0006653658
0.0006653785
1.279922e-12
-3.360127e-06
8.370452e-07
8.367045e-07
8.369416e-07
8.365104e-07
-0.000665391
0.0006654032
1.554424e-12
-3.35852e-06
8.36734e-07
8.363983e-07
8.366154e-07
8.361721e-07
-0.0006654152
0.0006654269
1.765203e-12
-3.356483e-06
8.363769e-07
8.360517e-07
8.36261e-07
8.358163e-07
-0.0006654381
0.0006654488
1.880494e-12
-3.354135e-06
8.360099e-07
8.357133e-07
8.359094e-07
8.354233e-07
-0.000665459
0.0006654686
1.903892e-12
-3.351415e-06
8.356065e-07
8.353217e-07
8.354992e-07
8.349981e-07
-0.0006654777
0.0006654859
1.877656e-12
-3.34831e-06
8.351592e-07
8.348816e-07
8.350434e-07
8.345197e-07
-0.0006654935
0.0006655001
1.845746e-12
-3.344769e-06
8.346673e-07
8.344188e-07
8.345696e-07
8.339594e-07
-0.000665506
0.0006655107
1.808405e-12
-3.340593e-06
8.340855e-07
8.338652e-07
8.339891e-07
8.33296e-07
-0.0006655145
0.000665517
1.794306e-12
-3.33557e-06
8.333943e-07
8.331871e-07
8.332807e-07
8.324712e-07
-0.0006655184
0.0006655179
1.81248e-12
-3.329398e-06
8.325385e-07
8.323705e-07
8.324416e-07
8.314209e-07
-0.0006655163
0.0006655122
1.833877e-12
-3.321514e-06
8.314395e-07
8.313217e-07
8.313445e-07
8.300233e-07
-0.0006655066
0.0006654979
1.804004e-12
-3.311002e-06
8.299926e-07
8.298385e-07
8.298397e-07
8.283729e-07
-0.0006654869
0.0006654706
1.799626e-12
-3.296363e-06
8.283271e-07
8.28011e-07
8.279377e-07
8.289764e-07
-0.0006654477
0.0006654142
1.785764e-12
-3.269801e-06
8.190685e-07
8.272867e-07
8.280158e-07
8.162241e-07
-0.0006654023
0.0006653613
1.133758e-12
-3.232864e-06
8.214411e-07
8.150498e-07
8.211654e-07
8.045432e-07
-0.0006653119
0.0006652525
-1.365946e-11
-3.151347e-06
8.007351e-07
8.046741e-07
8.008241e-07
7.734182e-07
-0.000665165
0.00066508
-1.158851e-11
-2.985265e-06
7.617904e-07
7.733628e-07
7.617143e-07
6.492319e-07
-0.000665054
0.0006651611
1.661807e-12
-2.624697e-06
6.096879e-07
6.491529e-07
6.095676e-07
5.597654e-07
-0.0006653102
0.0006654352
1.547491e-12
-2.361385e-06
5.585158e-07
5.596552e-07
5.584104e-07
5.416162e-07
-0.0006655455
0.0006656427
9.346508e-13
-2.259654e-06
5.397024e-07
5.415178e-07
5.396018e-07
5.295983e-07
-0.0006657319
0.0006658093
7.27068e-13
-2.194196e-06
5.288553e-07
5.295135e-07
5.287718e-07
5.227717e-07
-0.0006658804
0.0006659434
6.124987e-13
-2.152863e-06
5.222083e-07
5.226971e-07
5.221339e-07
5.180217e-07
-0.0006660022
0.0006660551
7.280131e-13
-2.124136e-06
5.176745e-07
5.179514e-07
5.176012e-07
5.154331e-07
-0.0006661055
0.0006661505
2.020775e-12
-2.106465e-06
5.151295e-07
5.156218e-07
5.152505e-07
5.195258e-07
-0.0006661904
0.0006662252
2.521648e-12
-2.114305e-06
5.199197e-07
5.197219e-07
5.202936e-07
4.670978e-07
-0.0006662654
0.0006664292
6.227546e-13
-2.103328e-06
5.016811e-07
4.682226e-07
5.025196e-07
4.593325e-07
-0.0006666171
0.0006664504
9.639106e-13
-1.569718e-06
4.111377e-07
4.564835e-07
4.095501e-07
3.847713e-07
-0.000666433
0.0006666116
1.16473e-12
-1.648808e-06
3.509462e-07
3.842113e-07
3.503201e-07
3.812242e-07
-0.000666782
0.000666932
7.052273e-13
-1.668724e-06
3.786262e-07
3.807031e-07
3.781379e-07
4.027071e-07
-0.0006670494
0.0006671315
2.358763e-13
-1.701201e-06
4.071e-07
4.023787e-07
4.068489e-07
4.274081e-07
-0.0006671791
0.0006672016
-1.262652e-13
-1.740839e-06
4.317545e-07
4.274021e-07
4.317938e-07
4.498974e-07
-0.0006672008
0.0006671805
-2.980023e-13
-1.787524e-06
4.537903e-07
4.501079e-07
4.540184e-07
4.663773e-07
-0.0006671502
0.0006671128
-4.144958e-13
-1.833847e-06
4.691744e-07
4.664834e-07
4.692365e-07
4.776354e-07
-0.0006670715
0.0006670293
-6.121709e-13
-1.871436e-06
4.792354e-07
4.776184e-07
4.792284e-07
4.845485e-07
-0.0006669876
0.0006669478
-3.295324e-13
-1.900394e-06
4.854881e-07
4.845657e-07
4.855121e-07
4.890035e-07
-0.0006669116
0.0006668771
-7.714143e-13
-1.92291e-06
4.896824e-07
4.890244e-07
4.897081e-07
4.91948e-07
-0.0006668458
0.0006668184
-5.72066e-13
-1.941204e-06