/*--------------------------------*- C++ -*----------------------------------*\
| =========                 |                                                 |
| \\      /  F ield         | foam-extend: Open Source CFD                    |
|  \\    /   O peration     | Version:     3.1                                |
|   \\  /    A nd           | Web:         http://www.extend-project.de       |
|    \\/     M anipulation  |                                                 |
\*---------------------------------------------------------------------------*/
FoamFile
{
    version     2.0;
    format      ascii;
    class       volScalarField;
    location    "5";
    object      k;
}
// * * * * * * * * * * * * * * * * * * * * * * * * * * * * * * * * * * * * * //

dimensions      [0 2 -2 0 0 0 0];

internalField   nonuniform List<scalar> 
119952
(
0.01027813
0.008438341
0.008566604
0.009321734
0.009796487
0.009779774
0.009871002
0.009977209
0.01007543
0.0101623
0.01022693
0.01026896
0.01029361
0.01030627
0.01031146
0.01031305
0.01031492
0.01032239
0.01034767
0.01045258
0.01134738
0.01110965
0.0111312
0.01187028
0.0114829
0.01126616
0.01106286
0.01085395
0.01045498
0.01456369
0.011935
0.009841431
0.009456355
0.009810653
0.01043947
0.01107187
0.0116121
0.01203933
0.01237395
0.01276612
0.01425114
0.0163484
0.0183021
0.0199429
0.02128483
0.02238344
0.02331723
0.02414808
0.02489066
0.02943839
0.03025409
0.03104231
0.0318781
0.03277917
0.03372208
0.03467479
0.03561159
0.03651225
0.03743715
0.0381796
0.03885361
0.03953631
0.0402348
0.0409342
0.04161306
0.04224733
0.04281305
0.0433943
0.04424715
0.04433743
0.04434983
0.04453384
0.0447192
0.04474596
0.04463495
0.04444808
0.04419904
0.04389388
0.04353678
0.043133
0.04268741
0.04220461
0.04168918
0.04114554
0.04057767
0.03998781
0.03937393
0.03873605
0.03815263
0.03759216
0.03693964
0.03644896
0.0361748
0.03576081
0.03527801
0.03481532
0.03431927
0.03308746
0.03208634
0.03131123
0.03065023
0.03004678
0.02948199
0.02894758
0.02843914
0.02795432
0.02749161
0.02704977
0.02662755
0.02622366
0.02583677
0.02546559
0.02510887
0.02476539
0.02443403
0.02411371
0.02380358
0.02350336
0.02321197
0.02292836
0.0226517
0.02238137
0.02211689
0.02185788
0.02160403
0.02135512
0.02111097
0.02087147
0.02063646
0.020406
0.02018033
0.01995948
0.01974346
0.01953244
0.01932665
0.01912631
0.01893164
0.01874287
0.01856022
0.01838392
0.0182142
0.01805122
0.01789493
0.01774518
0.01760152
0.01746256
0.01732988
0.01721742
0.01714409
0.01708133
0.0170247
0.01697028
0.0169167
0.01686364
0.01681132
0.01675993
0.01670973
0.01666105
0.01661414
0.01656917
0.01652622
0.01648526
0.01644621
0.01640891
0.01637314
0.01633866
0.01630515
0.01627232
0.01623985
0.01620744
0.01617481
0.01614173
0.01610789
0.01607309
0.01603716
0.01600135
0.01596509
0.01592788
0.01588963
0.01585049
0.01581082
0.01577107
0.01573168
0.01569301
0.01565536
0.01561908
0.01558421
0.01555032
0.01551733
0.01548551
0.01545451
0.01542446
0.01539673
0.01537122
0.01534745
0.01532351
0.01530191
0.01540321
0.01562228
0.01572622
0.01577121
0.01578038
0.01576845
0.01574461
0.01571407
0.01568032
0.01564719
0.01561419
0.01557947
0.01554157
0.01550289
0.01546523
0.01542973
0.01539755
0.01536968
0.01534676
0.0153293
0.01531769
0.01531224
0.01531323
0.01532085
0.01533507
0.01535386
0.01537647
0.01540336
0.01543487
0.01547134
0.01551309
0.01556052
0.01561379
0.01567177
0.01573067
0.01575901
0.01583182
0.0159266
0.01601838
0.01610627
0.01618642
0.01625826
0.01632199
0.01637747
0.01642488
0.01646451
0.01649684
0.01652245
0.01654192
0.01655589
0.01656498
0.01656977
0.01657083
0.0165687
0.01656389
0.01655686
0.01654801
0.01653768
0.01652622
0.01651391
0.01650101
0.01648773
0.01647422
0.01646064
0.0164471
0.0164337
0.01642064
0.01640849
0.01639696
0.01638589
0.01591376
0.01600589
0.01605191
0.01604933
0.01601302
0.01595544
0.01588972
0.01582568
0.01576886
0.01572188
0.01568515
0.01565933
0.01564322
0.01563601
0.01563629
0.01564266
0.01565374
0.01566832
0.01568528
0.01570368
0.01572272
0.0157418
0.01576045
0.01577832
0.01579521
0.01581097
0.01582557
0.01583901
0.01585136
0.01586273
0.01587325
0.01588306
0.01589232
0.01590117
0.01590977
0.01591822
0.01592662
0.01593501
0.01594344
0.01595192
0.01596049
0.0159692
0.01597823
0.01598814
0.01600067
0.01601657
0.0160284
0.01603629
0.01604462
0.01605308
0.016061
0.01606922
0.01607872
0.01609976
0.01617794
0.01615129
0.01612008
0.01608318
0.01603933
0.01598917
0.01593371
0.01587441
0.0158131
0.01575149
0.01569097
0.0156327
0.01557769
0.01552672
0.01548025
0.01543839
0.01540096
0.01536762
0.01533799
0.0153116
0.01528796
0.01526659
0.01524712
0.01522925
0.01521276
0.01519746
0.01518316
0.01516971
0.01515703
0.01514503
0.01513367
0.01512289
0.01511261
0.01510278
0.01509332
0.01508418
0.01507532
0.01506671
0.01505832
0.01505014
0.01504215
0.01503431
0.01502666
0.01501915
0.01501191
0.01500487
0.01499802
0.01499132
0.01498475
0.01497829
0.01497198
0.01496591
0.01496025
0.0149552
0.01495113
0.01494824
0.01494655
0.01494611
0.0149469
0.0149489
0.01495217
0.01495678
0.01496273
0.01496992
0.01497796
0.01498643
0.01499506
0.01500361
0.01501183
0.01501945
0.01502617
0.01503162
0.01503542
0.01503715
0.01503649
0.01503314
0.01502711
0.01501838
0.0150071
0.01499217
0.01497175
0.01494193
0.01489641
0.01487846
0.01520426
0.03583817
0.03362991
0.03252843
0.03210283
0.03205474
0.03220176
0.03239564
0.0325516
0.03263446
0.03210515
0.03269677
0.03418407
0.03593815
0.03760913
0.0390403
0.0401899
0.04107467
0.04172594
0.04701142
0.04725757
0.04737707
0.04732229
0.04718555
0.04703711
0.04692289
0.04686214
0.04685437
0.04690893
0.04710866
0.04711384
0.04709927
0.0470924
0.04709752
0.04711771
0.04715594
0.04721034
0.04726575
0.04747469
0.04755138
0.04750768
0.04748045
0.04744908
0.04742185
0.04740736
0.04741042
0.04744036
0.04750359
0.04757566
0.04768262
0.04781759
0.04798423
0.04819613
0.04845909
0.04877576
0.04914897
0.04959638
0.05440497
0.0548826
0.05540935
0.05595967
0.05652795
0.05711306
0.05771216
0.05831982
0.058929
0.0595301
0.0601121
0.06066679
0.06118884
0.06167658
0.06212701
0.06253692
0.0629074
0.06325998
0.06364206
0.06394987
0.06406945
0.06414056
0.06418526
0.06415572
0.06401714
0.06377851
0.06345295
0.06304923
0.06257556
0.06203885
0.06144517
0.06079987
0.06010765
0.05937255
0.05859792
0.05778619
0.05693992
0.05606388
0.05517429
0.05428713
0.05338945
0.0525167
0.05173694
0.05100634
0.05027684
0.04955712
0.0488164
0.04791274
0.04688908
0.04592123
0.04501876
0.04416488
0.04335429
0.04258127
0.04184128
0.04113092
0.04044784
0.03979041
0.03915732
0.0385474
0.03795947
0.03739237
0.03684496
0.03631606
0.03580452
0.0353092
0.03482903
0.03436291
0.03390968
0.03346832
0.03303795
0.03261773
0.03220693
0.03180491
0.03141109
0.03102499
0.03064622
0.03027446
0.02990949
0.02955115
0.02919935
0.02885402
0.02851498
0.02818239
0.02785651
0.02753758
0.02722585
0.02692161
0.02662517
0.02633682
0.0260569
0.0257857
0.02552352
0.02527061
0.02502715
0.02479356
0.02457065
0.02435939
0.0241605
0.02397264
0.02379482
0.02362791
0.02347208
0.02332729
0.02319333
0.02306997
0.02295695
0.02285387
0.02276026
0.02267554
0.0225991
0.02253028
0.02246836
0.02241257
0.02236213
0.02231621
0.02227392
0.0222344
0.02219674
0.02216003
0.02212335
0.0220858
0.02204653
0.02200468
0.02195946
0.02191015
0.02185622
0.02179716
0.02173239
0.02166145
0.02158398
0.0214998
0.02140883
0.02131109
0.02120672
0.02109598
0.02097917
0.02085678
0.02072925
0.02059734
0.02046161
0.02032315
0.02018256
0.02004144
0.01989991
0.01975908
0.01961866
0.01948495
0.01918469
0.0187939
0.01848861
0.01823858
0.01802655
0.01784162
0.01767726
0.01752951
0.01739544
0.01727332
0.01716178
0.01705963
0.01696595
0.01687993
0.01680082
0.01672797
0.01666079
0.01659875
0.01654139
0.01648827
0.01643903
0.01639334
0.01635089
0.01631142
0.01627467
0.01624043
0.0162085
0.01617872
0.01615093
0.01612498
0.01610063
0.01607753
0.0160551
0.01603212
0.01600729
0.01598406
0.01597327
0.01597663
0.01598708
0.01600153
0.01601915
0.01603943
0.01606193
0.01608636
0.01611256
0.01614038
0.01616972
0.01620051
0.01623264
0.01626604
0.01630061
0.01633624
0.01637282
0.01641023
0.01644834
0.01648701
0.0165261
0.01656548
0.01660502
0.01664459
0.01668408
0.01672341
0.01676248
0.01680123
0.01683961
0.01687758
0.01691512
0.01695219
0.01698868
0.01702443
0.01793221
0.01796187
0.01800529
0.01805242
0.01809855
0.01814274
0.01818473
0.01822428
0.01826134
0.018296
0.01832846
0.01835888
0.01838743
0.01841429
0.01843968
0.01846376
0.0184867
0.01850865
0.01852974
0.01855008
0.01856977
0.01858888
0.01860749
0.01862567
0.01864346
0.01866091
0.01867804
0.0186949
0.01871149
0.01872785
0.01874398
0.01875991
0.01877565
0.01879124
0.01880672
0.01882211
0.01883746
0.01885281
0.0188682
0.01888367
0.01889924
0.01891498
0.01893098
0.01894738
0.01896392
0.01898005
0.01899468
0.01900796
0.01902034
0.01903254
0.0190441
0.01905569
0.01906658
0.01908247
0.01910103
0.01911143
0.01911676
0.01912143
0.01912662
0.0191324
0.01913862
0.01914505
0.01915142
0.0191575
0.0191631
0.01916813
0.01917253
0.01917635
0.01917965
0.01918253
0.01918506
0.01918734
0.01918943
0.01919136
0.01919315
0.01919479
0.0191963
0.01919769
0.01919898
0.0192002
0.0192014
0.01920262
0.01920393
0.01920537
0.01920701
0.0192089
0.01921109
0.01921362
0.01921655
0.01921992
0.0192238
0.01922824
0.01923332
0.01923908
0.01924562
0.01925299
0.01926126
0.01927047
0.01928065
0.01929186
0.01930424
0.01931797
0.01933327
0.01934977
0.01936712
0.01938511
0.01940358
0.01942238
0.01944139
0.01946045
0.01947952
0.01949897
0.01951914
0.01954029
0.01956261
0.01958623
0.01961128
0.01963783
0.01966594
0.01969558
0.01972667
0.01975913
0.01979281
0.01982763
0.01986338
0.01990007
0.01993742
0.01997557
0.02001411
0.02005347
0.02009289
0.02013335
0.02017355
0.02021603
0.02026039
0.02031467
0.0203851
0.02050553
0.02061092
0.0413434
0.04493322
0.04847897
0.05149526
0.05413692
0.05647373
0.05856861
0.0602933
0.06179046
0.06443914
0.08447201
0.09630574
0.1015828
0.1039631
0.1049665
0.1052861
0.1052351
0.1049566
0.1044474
0.116099
0.1150592
0.1138878
0.1128091
0.1118593
0.1109791
0.1101127
0.1092268
0.1083086
0.1073679
0.1063906
0.1051884
0.1039112
0.1026545
0.1014416
0.1002807
0.09916804
0.09808924
0.09706324
0.09616522
0.09503622
0.09383088
0.09264839
0.09149087
0.09035506
0.08925118
0.08817902
0.08713851
0.08612364
0.08507689
0.08407098
0.08309542
0.08213188
0.08120045
0.08030271
0.07943519
0.07866589
0.08338285
0.08257479
0.08184311
0.08115376
0.080459
0.07975109
0.07903541
0.07832134
0.07761427
0.07692723
0.07625781
0.07559515
0.07493977
0.07429919
0.07368511
0.0731022
0.07255426
0.07204002
0.0715661
0.07112599
0.07070026
0.07029574
0.0699195
0.06957185
0.06925201
0.06895981
0.06869036
0.06844023
0.06821444
0.0680119
0.06783583
0.06769556
0.06759658
0.0675446
0.06754172
0.06759409
0.06769553
0.06785638
0.06810182
0.06838399
0.06870702
0.06907586
0.0694852
0.06992694
0.07039332
0.07087651
0.07136865
0.07186037
0.07234048
0.07280088
0.07323675
0.07364402
0.07401865
0.07435787
0.07466289
0.07494028
0.07520123
0.07541164
0.07551364
0.07553771
0.07551112
0.07541888
0.07523545
0.07495481
0.07458331
0.07412846
0.07359659
0.07299326
0.07232389
0.07159365
0.07080726
0.06996881
0.06908191
0.06815008
0.06717761
0.06617107
0.06514162
0.06410364
0.06306452
0.06204031
0.06106254
0.06012929
0.05921173
0.05829153
0.05735018
0.05634721
0.05526143
0.05416729
0.0531151
0.05211141
0.05115043
0.05022691
0.04933805
0.04848213
0.04765772
0.04686349
0.04609823
0.04536076
0.04464991
0.04396447
0.04330321
0.04266484
0.04204804
0.04145149
0.04087388
0.04031391
0.03977027
0.03924174
0.03872718
0.0382255
0.03773571
0.0372569
0.03678828
0.03632916
0.03587895
0.03543718
0.03500346
0.03457751
0.03415916
0.03374833
0.03334498
0.03294917
0.03256099
0.03218063
0.03180832
0.03144435
0.03108903
0.03074269
0.03040567
0.03007832
0.02976098
0.02945395
0.02915757
0.02887223
0.02859851
0.02833721
0.02808904
0.02785388
0.02763094
0.02742003
0.0272213
0.02703496
0.02686106
0.02669953
0.02655024
0.02641293
0.02628728
0.02617289
0.02606926
0.02597584
0.02589201
0.02581709
0.0257503
0.02569086
0.02563788
0.02559047
0.02554768
0.02550854
0.02547206
0.02543725
0.02540309
0.02536864
0.02533298
0.02529522
0.02525452
0.02521013
0.02516135
0.02510757
0.02504825
0.02498292
0.02491124
0.02483292
0.02474783
0.02465587
0.02455715
0.02445171
0.02433989
0.02422179
0.02409805
0.02396869
0.02383469
0.02369567
0.0235532
0.02340701
0.02326005
0.02311002
0.02294058
0.02278162
0.02263023
0.02248525
0.02234646
0.0222134
0.02208568
0.02196319
0.02184597
0.02173413
0.02162779
0.02152697
0.02143168
0.0213419
0.02125759
0.02117867
0.02110501
0.02103649
0.02097295
0.02091421
0.02086008
0.02081036
0.02076483
0.02072328
0.02068548
0.0206512
0.02062025
0.02059239
0.02056742
0.0205451
0.02052522
0.02050753
0.02049189
0.02047849
0.02046826
0.02046322
0.02046459
0.02047204
0.02048375
0.02049878
0.02051658
0.02053665
0.02055861
0.02058215
0.02060706
0.02063315
0.0206603
0.02068838
0.02071728
0.02074691
0.02077716
0.02080794
0.02083916
0.02087072
0.02090252
0.02093448
0.02096651
0.02099852
0.02103044
0.0210622
0.02109375
0.02112504
0.02115603
0.02118671
0.02121705
0.02124704
0.02127668
0.02130599
0.02133508
0.02136621
0.02140114
0.02143429
0.02146258
0.02148726
0.02151088
0.02153475
0.02155907
0.0215837
0.02160843
0.02163316
0.02165781
0.02168231
0.02170658
0.02173057
0.02175422
0.02177751
0.02180042
0.02182291
0.02184499
0.02186664
0.02188786
0.02190866
0.02192904
0.02194901
0.02196859
0.02198778
0.0220066
0.02202505
0.02204315
0.02206091
0.02207834
0.02209544
0.02211223
0.02212873
0.02214495
0.02216092
0.02217665
0.02219217
0.02220749
0.02222264
0.02223763
0.02225248
0.02226722
0.02228182
0.0222962
0.02231013
0.02232336
0.02233568
0.02234726
0.02235822
0.02236872
0.02237872
0.0223883
0.02239711
0.0224056
0.02241387
0.0224222
0.02243061
0.02243878
0.02244645
0.02245359
0.02246035
0.02246686
0.02247322
0.02247947
0.02248561
0.02249167
0.02249768
0.0225037
0.02250977
0.02251594
0.02252223
0.02252866
0.02253523
0.02254194
0.02254877
0.0225557
0.02256269
0.02256975
0.02257687
0.02258404
0.0225913
0.02259865
0.02260614
0.0226138
0.02262169
0.02262984
0.02263831
0.02264718
0.02265651
0.02266638
0.02267687
0.02268807
0.02270006
0.02271292
0.02272672
0.02274152
0.0227575
0.02277468
0.02279254
0.02281064
0.02282865
0.02284629
0.02286386
0.02288161
0.02289966
0.02291805
0.02293682
0.02295599
0.02297565
0.02299595
0.02301707
0.02303919
0.02306252
0.02308726
0.02311359
0.02314167
0.02317165
0.02320359
0.02323756
0.02327357
0.02331159
0.02335159
0.02339353
0.02343733
0.02348298
0.02353038
0.02357959
0.02363045
0.02368325
0.02373765
0.02379471
0.02385382
0.02391837
0.02398733
0.024071
0.02416597
0.02429375
0.02438186
0.04067936
0.04710211
0.05306072
0.08477476
0.1131206
0.1474109
0.1663981
0.1832411
0.1970108
0.2072063
0.2158233
0.2222845
0.2256894
0.2271865
0.2271071
0.2257203
0.2233322
0.2203473
0.2168936
0.2130915
0.2090245
0.2048417
0.2006698
0.1965327
0.1924908
0.1885297
0.1846766
0.1809275
0.1772855
0.1737297
0.1701916
0.1691397
0.1663168
0.1634652
0.1606242
0.1578322
0.1551126
0.152476
0.1499289
0.1474732
0.1450915
0.1427883
0.1405763
0.1384415
0.1363775
0.1343846
0.1324642
0.1306167
0.1288448
0.1271372
0.1254802
0.1238889
0.1223644
0.1208929
0.1194662
0.1180799
0.1167297
0.1154156
0.1141411
0.1129084
0.1117018
0.1105028
0.1093029
0.1081141
0.1069164
0.1057326
0.1044966
0.1032275
0.1020269
0.1008109
0.09956309
0.0983191
0.09710367
0.09592179
0.09477103
0.0936519
0.09256524
0.09151466
0.09049493
0.08950338
0.08854653
0.08763087
0.08675901
0.08593108
0.08514814
0.08440983
0.08371853
0.08307056
0.08245994
0.08189167
0.0813718
0.08090008
0.08047393
0.08009045
0.07974615
0.07944037
0.07917379
0.07894518
0.07875497
0.07860537
0.07849906
0.07843768
0.07842321
0.07845317
0.07852531
0.07862632
0.0787724
0.07894621
0.07915272
0.07940709
0.07970802
0.08004596
0.08041201
0.08079795
0.0811958
0.08159694
0.08199228
0.08237432
0.08273728
0.0830763
0.08338722
0.08366701
0.08391446
0.08412957
0.08431409
0.08445383
0.08451873
0.08450892
0.08443795
0.08430171
0.08408472
0.08377862
0.08338476
0.08290735
0.08235034
0.08171749
0.08101291
0.08024098
0.07940597
0.07851174
0.07756201
0.07656091
0.07551362
0.07442715
0.0733113
0.07217857
0.07103939
0.06990474
0.06879147
0.06770412
0.06662795
0.06554706
0.06444937
0.06331741
0.06214246
0.06095613
0.05979402
0.05866981
0.05758354
0.05653321
0.05551803
0.05453768
0.05359168
0.05267926
0.05179955
0.05095165
0.05013453
0.04934709
0.04858812
0.0478563
0.04715025
0.04646852
0.04580964
0.04517213
0.0445545
0.04395531
0.04337314
0.04280665
0.0422546
0.04171581
0.04118923
0.04067393
0.0401691
0.03967402
0.03918814
0.038711
0.03824227
0.03778172
0.03732924
0.03688478
0.03644839
0.03602021
0.03560045
0.03518936
0.03478726
0.0343945
0.03401144
0.03363847
0.03327599
0.0329244
0.03258413
0.03225565
0.03193951
0.03163634
0.03134665
0.0310706
0.030808
0.03055873
0.03032292
0.03010075
0.02989232
0.02969764
0.02951661
0.02934908
0.02919482
0.02905354
0.02892488
0.0288084
0.02870357
0.02860982
0.02852646
0.02845277
0.02838795
0.02833113
0.02828138
0.02823774
0.0281992
0.02816473
0.02813329
0.02810385
0.02807539
0.02804692
0.02801751
0.02798626
0.02795233
0.02791494
0.02787338
0.02782698
0.0277752
0.02771754
0.02765365
0.02758325
0.02750615
0.02742226
0.02733161
0.02723425
0.02713044
0.02702037
0.02690453
0.02678325
0.02665738
0.02652745
0.02639457
0.02625926
0.02612157
0.0259828
0.02584371
0.02570496
0.02556708
0.02543117
0.02529838
0.02516961
0.02504566
0.02492727
0.02481461
0.02470766
0.02460647
0.02451111
0.02442157
0.02433778
0.02425961
0.02418692
0.02411955
0.02405734
0.0240001
0.02394764
0.02389975
0.02385623
0.02381689
0.02378151
0.02374991
0.0237219
0.0236973
0.02367595
0.02365771
0.02364251
0.02363037
0.02362154
0.02361682
0.02361601
0.02361964
0.02362771
0.02363962
0.02365468
0.02367237
0.0236923
0.02371415
0.02373767
0.02376263
0.02378885
0.02381618
0.02384446
0.02387357
0.02390339
0.02393379
0.02396467
0.02399591
0.02402739
0.02405902
0.02409071
0.02412235
0.02415388
0.02418524
0.02421635
0.02424719
0.02427772
0.0243079
0.02433773
0.0243672
0.02439627
0.02442503
0.02445333
0.02448143
0.02450911
0.02453661
0.02456346
0.02459048
0.02461766
0.02464485
0.02467178
0.02469832
0.02472446
0.0247502
0.02477557
0.02480059
0.02482529
0.0248497
0.02487381
0.02489763
0.02492115
0.02494437
0.02496727
0.02498985
0.02501211
0.02503403
0.0250556
0.02507682
0.02509767
0.02511817
0.02513829
0.02515804
0.02517742
0.02519642
0.02521505
0.0252333
0.02525118
0.02526869
0.02528582
0.02530259
0.02531901
0.02533507
0.02535078
0.02536616
0.02538119
0.0253959
0.02541027
0.02542431
0.02543799
0.02545128
0.0254641
0.02547633
0.02548787
0.02549869
0.02550888
0.02551847
0.02552749
0.02553589
0.02554371
0.02555118
0.02555823
0.02556475
0.02557077
0.02557645
0.0255819
0.0255872
0.0255924
0.02559755
0.02560269
0.02560784
0.02561302
0.02561825
0.02562358
0.02562905
0.02563471
0.02564059
0.02564675
0.02565319
0.02565995
0.02566703
0.02567441
0.0256821
0.02569006
0.02569829
0.02570679
0.02571554
0.02572455
0.02573385
0.02574345
0.0257534
0.02576372
0.02577449
0.02578574
0.02579756
0.02581001
0.02582317
0.02583713
0.02585197
0.02586776
0.02588456
0.02590249
0.02592106
0.02593964
0.02595796
0.02597634
0.02599492
0.02601376
0.02603289
0.02605236
0.02607223
0.02609255
0.02611335
0.02613468
0.02615659
0.02617919
0.02620259
0.02622694
0.02625242
0.02627922
0.02630753
0.02633754
0.02636946
0.02640344
0.02643962
0.0264781
0.02651897
0.02656226
0.02660801
0.02665623
0.02670692
0.0267601
0.02681577
0.02687399
0.02693476
0.02699832
0.02706469
0.02713471
0.02720845
0.0272884
0.02737415
0.02747186
0.02757647
0.02770223
0.02780038
0.0199352
0.02287437
0.02575876
0.0355815
0.04809359
0.06953374
0.08409739
0.09904454
0.11451
0.1295838
0.1445187
0.1600537
0.1760094
0.1914279
0.2064142
0.2224324
0.2462536
0.2532373
0.2574233
0.2590342
0.2590948
0.2581499
0.2558434
0.2514296
0.2457942
0.2400164
0.2340688
0.228122
0.2222886
0.2166419
0.2112203
0.206051
0.2011554
0.1965344
0.1921681
0.1880359
0.1841257
0.1804211
0.1769162
0.1735925
0.1704475
0.1674127
0.1641972
0.1612179
0.1584492
0.1558351
0.153349
0.1509852
0.1487431
0.1465779
0.1444959
0.1424966
0.1405815
0.1387502
0.1369989
0.1353267
0.1337343
0.132222
0.1307886
0.129432
0.128149
0.126937
0.1257899
0.1247024
0.1236722
0.1226944
0.1217513
0.1208333
0.1199378
0.1190575
0.1181892
0.1173265
0.1164634
0.1155964
0.1147247
0.1138406
0.1129457
0.1120277
0.1110997
0.1101741
0.1092008
0.1081732
0.1071176
0.1060553
0.104992
0.103927
0.1028623
0.1018021
0.1007523
0.09971704
0.09870103
0.09771034
0.09675006
0.09582353
0.09493307
0.09408123
0.09327005
0.09250134
0.09177605
0.0910944
0.09045783
0.08986855
0.08932704
0.08883262
0.08838463
0.08798274
0.08762702
0.08731718
0.08705216
0.08683128
0.08665468
0.08652344
0.08643812
0.08639966
0.08640668
0.08645832
0.08655082
0.08668196
0.08684419
0.08703268
0.08723958
0.08746639
0.08771787
0.08799792
0.08829882
0.0886123
0.08893036
0.0892454
0.08955063
0.08984026
0.09010943
0.09035407
0.09057091
0.09075758
0.09091205
0.09103224
0.09110964
0.09112864
0.09108348
0.09097702
0.09080682
0.09056445
0.09024363
0.08984318
0.08936448
0.08880929
0.08817943
0.08747711
0.08670501
0.08586614
0.08496371
0.08400111
0.08298236
0.08191267
0.08079888
0.07964964
0.07847519
0.07728526
0.07608902
0.07489642
0.07371159
0.07252868
0.07133847
0.07013342
0.06890655
0.06765669
0.06640005
0.06515847
0.06394502
0.06276392
0.06161624
0.06050283
0.05942447
0.05838156
0.05737409
0.05640177
0.05546411
0.05456043
0.05368985
0.05285134
0.05204369
0.05126555
0.05051547
0.04979191
0.04909328
0.04841795
0.04776429
0.04713069
0.04651559
0.04591747
0.04533493
0.04476666
0.04421147
0.04366827
0.04313614
0.04261427
0.04210201
0.04159882
0.04110432
0.04061821
0.04014034
0.03967066
0.03920922
0.03875614
0.03831166
0.03787604
0.03744963
0.03703279
0.03662594
0.03622953
0.035844
0.03546987
0.03510763
0.03475787
0.03442114
0.03409793
0.03378857
0.03349317
0.03321181
0.03294466
0.03269192
0.03245375
0.03223025
0.03202143
0.03182725
0.03164759
0.03148226
0.03133101
0.03119351
0.03106935
0.03095804
0.03085903
0.03077167
0.03069523
0.03062892
0.03057186
0.03052312
0.03048172
0.03044663
0.0304168
0.03039116
0.03036866
0.03034825
0.03032891
0.03030966
0.03028954
0.03026766
0.03024316
0.03021523
0.03018313
0.03014621
0.03010393
0.03005585
0.03000158
0.02994085
0.02987346
0.02979934
0.02971851
0.02963108
0.02953734
0.02943762
0.02933243
0.02922235
0.02910812
0.02899046
0.02887011
0.02874777
0.0286241
0.02849976
0.02837544
0.02825191
0.02812994
0.02801019
0.02789324
0.02777942
0.02766931
0.02756369
0.02746311
0.02736801
0.02727868
0.027195
0.02711685
0.02704413
0.02697674
0.02691453
0.02685733
0.02680495
0.02675722
0.02671396
0.02667498
0.0266401
0.02660915
0.02658198
0.02655842
0.02653836
0.02652169
0.02650838
0.02649844
0.02649204
0.02648968
0.02649078
0.02649561
0.02650421
0.0265163
0.0265314
0.0265491
0.02656907
0.02659104
0.02661476
0.02664002
0.02666663
0.02669442
0.02672325
0.02675296
0.02678342
0.0268145
0.02684607
0.02687801
0.0269102
0.02694253
0.0269749
0.02700724
0.02703945
0.02707148
0.02710328
0.02713481
0.02716602
0.0271969
0.02722744
0.02725761
0.02728742
0.02731687
0.02734591
0.02737458
0.02740283
0.02743068
0.0274582
0.02748554
0.02751266
0.02753952
0.02756616
0.02759264
0.02761898
0.02764516
0.02767114
0.02769692
0.02772247
0.02774777
0.02777282
0.02779759
0.02782208
0.02784626
0.02787014
0.0278937
0.02791693
0.02793982
0.02796236
0.02798453
0.02800633
0.02802775
0.02804878
0.02806942
0.02808965
0.02810946
0.02812887
0.02814785
0.0281664
0.02818451
0.0282022
0.02821944
0.02823623
0.02825259
0.02826849
0.02828394
0.02829894
0.02831347
0.02832754
0.02834114
0.02835426
0.02836688
0.02837895
0.02839044
0.02840127
0.02841142
0.0284209
0.02842974
0.02843795
0.02844556
0.0284526
0.02845916
0.02846519
0.02847066
0.02847562
0.02848017
0.0284844
0.02848837
0.02849212
0.02849573
0.02849926
0.02850277
0.02850631
0.02850993
0.0285137
0.02851766
0.02852187
0.02852637
0.02853122
0.02853646
0.02854211
0.02854819
0.0285547
0.02856166
0.02856905
0.02857688
0.02858513
0.02859382
0.02860295
0.02861253
0.02862261
0.0286332
0.02864436
0.02865613
0.02866858
0.02868177
0.02869577
0.02871066
0.0287265
0.02874334
0.02876129
0.02877995
0.02879858
0.02881723
0.02883611
0.0288553
0.02887491
0.02889499
0.0289156
0.02893674
0.02895846
0.02898077
0.02900368
0.02902724
0.02905147
0.02907643
0.02910221
0.0291289
0.02915665
0.02918562
0.02921598
0.02924792
0.02928165
0.02931736
0.02935524
0.02939546
0.02943815
0.02948345
0.02953145
0.02958222
0.02963585
0.02969238
0.02975189
0.02981443
0.02988011
0.02994903
0.03002145
0.03009756
0.03017805
0.03026321
0.03035482
0.03045251
0.03056049
0.03067327
0.03080246
0.03090249
0.007550677
0.008923266
0.01008418
0.01554849
0.0219304
0.03056495
0.03767089
0.04577072
0.05454076
0.06389152
0.07400198
0.08595455
0.09886515
0.1129835
0.1295122
0.1547508
0.1679284
0.1814253
0.1947242
0.2077548
0.2204436
0.2327084
0.2442393
0.2546354
0.2632256
0.2686065
0.2705501
0.2705978
0.2680207
0.2630559
0.256218
0.2477661
0.2393059
0.2304699
0.2215911
0.2129977
0.2048307
0.1971687
0.1900504
0.1834973
0.1774804
0.171969
0.1669489
0.1623864
0.1582409
0.1544699
0.1510355
0.1479059
0.1450511
0.1424416
0.1400505
0.1378472
0.1358114
0.1339319
0.132206
0.1306193
0.1291534
0.1277947
0.126508
0.1252793
0.1241131
0.1230109
0.1219718
0.1209944
0.1200787
0.1192248
0.1184331
0.1177037
0.1170359
0.1164295
0.1158839
0.1153974
0.114966
0.1145874
0.1142529
0.1139295
0.1136352
0.1133772
0.113149
0.1129436
0.112754
0.1125722
0.1123894
0.1121984
0.111992
0.1117637
0.1115071
0.1112182
0.1108887
0.1105116
0.1100742
0.1095696
0.1090037
0.1083858
0.1077217
0.1070146
0.1062689
0.1054915
0.1046909
0.1038756
0.1030536
0.1022325
0.1014196
0.1006215
0.09984363
0.09909067
0.09836645
0.09767396
0.09701565
0.09639294
0.09580688
0.09525903
0.09475071
0.09428258
0.09385499
0.09346825
0.0931226
0.09281812
0.09255463
0.09233198
0.09215035
0.09201037
0.09191243
0.09185684
0.09184299
0.09186989
0.09193604
0.09203905
0.09217428
0.09233794
0.09252606
0.09273318
0.09295157
0.09317375
0.09340446
0.0936438
0.09388528
0.09412246
0.09434981
0.09456254
0.09475656
0.09492841
0.09507518
0.09519442
0.09528371
0.09534017
0.09535806
0.09532845
0.09524493
0.09510565
0.09490843
0.09464877
0.09432264
0.09392812
0.09346483
0.09293282
0.09233229
0.09166375
0.09092791
0.0901256
0.08925869
0.08832983
0.08734252
0.08630134
0.08521221
0.08408227
0.08291962
0.08173235
0.08052786
0.07931283
0.07809089
0.07686076
0.07561845
0.0743606
0.07308569
0.07179592
0.07050124
0.06921566
0.06795018
0.06671081
0.06550072
0.06432213
0.06317685
0.06206621
0.06099105
0.05995178
0.0589485
0.057981
0.0570488
0.05615117
0.05528716
0.05445557
0.05365509
0.05288421
0.05214136
0.05142484
0.05073293
0.0500639
0.04941601
0.04878758
0.04817697
0.04758264
0.04700317
0.04643724
0.04588369
0.04534146
0.04480968
0.0442876
0.04377462
0.0432703
0.0427743
0.04228643
0.04180661
0.04133489
0.04087138
0.0404163
0.03996994
0.03953265
0.03910484
0.03868695
0.03827948
0.03788294
0.03749789
0.0371249
0.03676453
0.03641732
0.03608368
0.03576391
0.03545828
0.03516704
0.03489048
0.03462885
0.03438236
0.03415113
0.03393523
0.03373468
0.0335494
0.03337927
0.03322407
0.03308353
0.03295727
0.03284485
0.03274574
0.0326593
0.03258482
0.03252152
0.03246851
0.03242486
0.03238957
0.03236161
0.0323399
0.03232339
0.03231099
0.03230165
0.03229434
0.03228802
0.03228171
0.03227441
0.03226513
0.03225293
0.03223703
0.0322168
0.03219165
0.03216105
0.03212454
0.03208174
0.03203238
0.0319763
0.03191347
0.03184398
0.03176804
0.031686
0.03159832
0.03150557
0.03140838
0.03130746
0.0312035
0.03109718
0.03098918
0.03088021
0.03077098
0.0306622
0.03055453
0.03044861
0.03034502
0.03024434
0.03014705
0.03005353
0.02996407
0.02987882
0.02979823
0.02972261
0.02965215
0.02958695
0.0295269
0.02947176
0.02942138
0.02937558
0.02933419
0.02929706
0.029264
0.02923486
0.02920951
0.02918781
0.02916965
0.02915495
0.02914368
0.02913586
0.02913178
0.02913105
0.02913368
0.02913973
0.02914915
0.02916175
0.02917722
0.02919525
0.02921555
0.02923789
0.02926203
0.02928778
0.02931495
0.02934337
0.0293729
0.02940337
0.02943464
0.02946659
0.02949907
0.02953196
0.02956514
0.0295985
0.02963194
0.02966537
0.02969872
0.02973192
0.02976493
0.0297977
0.02983019
0.02986238
0.02989425
0.02992579
0.02995698
0.02998781
0.03001827
0.03004836
0.03007806
0.03010739
0.03013633
0.03016488
0.03019311
0.03022107
0.03024882
0.03027637
0.03030374
0.03033091
0.03035788
0.03038464
0.03041117
0.03043746
0.03046349
0.03048926
0.03051475
0.03053993
0.03056481
0.03058936
0.03061357
0.03063743
0.03066092
0.03068403
0.03070675
0.03072905
0.03075094
0.0307724
0.03079341
0.03081397
0.03083407
0.03085369
0.03087283
0.03089148
0.03090961
0.03092724
0.03094434
0.03096091
0.03097694
0.03099243
0.03100735
0.03102172
0.03103551
0.03104872
0.03106136
0.03107339
0.03108481
0.03109559
0.0311057
0.03111511
0.03112382
0.03113184
0.0311392
0.0311459
0.03115199
0.03115749
0.03116241
0.03116675
0.03117056
0.0311739
0.03117683
0.03117944
0.03118177
0.0311839
0.0311859
0.03118784
0.03118979
0.03119181
0.03119396
0.03119631
0.03119893
0.03120186
0.03120517
0.03120891
0.0312131
0.03121779
0.03122299
0.03122873
0.031235
0.03124182
0.03124919
0.03125713
0.03126564
0.03127476
0.03128451
0.03129493
0.03130607
0.03131798
0.03133071
0.03134434
0.03135893
0.03137453
0.03139119
0.03140896
0.03142716
0.03144545
0.03146401
0.03148299
0.03150248
0.03152257
0.0315433
0.03156471
0.03158684
0.03160969
0.03163328
0.03165762
0.03168273
0.03170861
0.03173531
0.03176288
0.03179139
0.03182093
0.03185162
0.03188362
0.03191709
0.03195221
0.03198918
0.0320282
0.03206945
0.03211313
0.0321594
0.03220842
0.03226032
0.03231522
0.03237324
0.03243449
0.03249907
0.0325671
0.03263873
0.03271412
0.03279355
0.03287729
0.03296589
0.03305971
0.03316003
0.03326643
0.03338203
0.03350087
0.03363376
0.03373422
0.002078644
0.007516397
0.01124136
0.01544701