/*--------------------------------*- C++ -*----------------------------------*\
| =========                 |                                                 |
| \\      /  F ield         | foam-extend: Open Source CFD                    |
|  \\    /   O peration     | Version:     3.1                                |
|   \\  /    A nd           | Web:         http://www.extend-project.de       |
|    \\/     M anipulation  |                                                 |
\*---------------------------------------------------------------------------*/
FoamFile
{
    version     2.0;
    format      ascii;
    class       volScalarField;
    location    "5";
    object      nut;
}
// * * * * * * * * * * * * * * * * * * * * * * * * * * * * * * * * * * * * * //

dimensions      [0 2 -1 0 0 0 0];

internalField   nonuniform List<scalar> 
119952
(
3.476235e-05
1.9998e-05
2.085264e-05
2.529849e-05
2.862329e-05
2.733771e-05
2.638877e-05
2.555364e-05
2.475242e-05
2.397047e-05
2.317806e-05
2.237258e-05
2.156582e-05
2.076865e-05
1.998884e-05
1.923151e-05
1.849961e-05
1.779373e-05
1.710813e-05
1.647902e-05
2.158888e-05
2.033381e-05
1.974746e-05
2.62229e-05
2.513517e-05
2.447346e-05
2.38708e-05
2.351242e-05
2.302605e-05
2.451447e-05
1.768871e-05
1.687628e-05
1.901766e-05
2.251546e-05
2.681224e-05
3.141375e-05
3.60683e-05
4.06267e-05
4.507593e-05
5.214202e-05
0.0001705252
0.0002299145
0.0002869675
0.0003384009
0.0003844222
0.0004262778
0.00046547
0.0005031739
0.000540011
0.0007898214
0.0008563763
0.0009262779
0.000998039
0.001070299
0.001141774
0.001211632
0.001279521
0.001345344
0.001410146
0.001473339
0.001541794
0.001615775
0.001692807
0.001770069
0.001845451
0.001917816
0.001987242
0.002058318
0.002083167
0.002095025
0.002125042
0.002165761
0.002204597
0.002234508
0.002257314
0.002274495
0.002286321
0.002292969
0.002294629
0.002291632
0.002284365
0.002273256
0.002258753
0.002241324
0.002221471
0.002199786
0.002177064
0.002154779
0.002135791
0.002116816
0.002098478
0.002089563
0.002081107
0.002061179
0.002033497
0.001988269
0.001884926
0.001711884
0.001640498
0.001598216
0.001568384
0.001543654
0.001521465
0.001500682
0.00148077
0.001461485
0.001442717
0.001424408
0.001406514
0.001388998
0.001371824
0.001354963
0.001338386
0.001322065
0.001305973
0.00129009
0.001274424
0.001259022
0.00124382
0.001228757
0.001213798
0.00119892
0.001184108
0.001169354
0.00115465
0.001139995
0.001125386
0.001110821
0.001096305
0.001081855
0.001067468
0.001053151
0.001038919
0.001024784
0.001010765
0.0009968774
0.000983136
0.0009695567
0.000956154
0.0009429423
0.0009299352
0.0009171496
0.000904601
0.0008923162
0.0008803487
0.0008689307
0.0008589625
0.000848811
0.0008381803
0.0008277692
0.0008176673
0.0008078706
0.0007983748
0.0007891708
0.0007802548
0.0007716058
0.0007631965
0.0007550003
0.0007469883
0.0007391292
0.0007313888
0.0007237325
0.0007161242
0.0007085283
0.000700909
0.0006932315
0.0006854625
0.0006775718
0.0006695325
0.0006613222
0.0006529247
0.0006443266
0.0006355313
0.0006265569
0.0006174108
0.0006080907
0.0005986291
0.0005890213
0.0005792666
0.0005693821
0.0005594079
0.0005493937
0.0005393853
0.0005294213
0.0005195347
0.0005097539
0.0005001266
0.0004906743
0.0004814048
0.0004723424
0.0004635036
0.0004548481
0.0004464408
0.0004383033
0.0004304203
0.000422864
0.0004167693
0.0003125315
0.0003107381
0.0003039474
0.000298399
0.0002937894
0.0002897448
0.0002860722
0.0002827886
0.0002792397
0.0002757657
0.0002723577
0.0002678232
0.0002632246
0.0002588542
0.0002546755
0.0002506624
0.000246797
0.0002430646
0.000239452
0.0002359496
0.0002325512
0.0002292514
0.0002260458
0.0002229294
0.0002197582
0.0002161706
0.0002125837
0.0002090068
0.0002054563
0.0002019406
0.0001984619
0.0001949969
0.000191716
0.0001886761
0.0001864862
0.0001905182
0.0001831803
0.0001850067
0.0001870859
0.0001896739
0.0001926278
0.00019569
0.0001988974
0.000202226
0.0002056447
0.0002091365
0.0002127072
0.0002163202
0.0002199761
0.0002236669
0.000227386
0.0002311312
0.0002348994
0.0002386872
0.0002424927
0.0002463155
0.0002501569
0.0002540161
0.0002578917
0.0002617841
0.0002656925
0.0002696093
0.0002735751
0.0002775527
0.0002815555
0.0002855865
0.0002896104
0.0002935661
0.000297583
0.0003021897
0.0003978704
0.0003749805
0.0003985673
0.0004168984
0.000423013
0.0004287881
0.0004344392
0.0004400034
0.0004454978
0.0004509342
0.0004563108
0.0004616517
0.0004669505
0.0004722221
0.0004774697
0.0004826969
0.0004879063
0.0004930999
0.0004982784
0.0005034418
0.0005085904
0.0005137243
0.0005188435
0.0005239483
0.000529039
0.0005341153
0.0005391774
0.0005442255
0.0005492598
0.0005542803
0.0005592868
0.0005642798
0.000569261
0.0005742334
0.0005792016
0.0005841706
0.0005891452
0.0005941291
0.0005991251
0.0006041339
0.0006091547
0.0006141822
0.0006192059
0.0006242046
0.0006291531
0.0006339877
0.0006384012
0.0006425244
0.0006465827
0.0006505576
0.0006544257
0.0006582036
0.0006618988
0.0006659227
0.0006703628
0.0006724833
0.0006747013
0.0006769499
0.00067928
0.0006817016
0.0006842069
0.0006867809
0.0006894086
0.0006920729
0.0006947573
0.0006974525
0.0007001626
0.0007029039
0.0007056951
0.0007085478
0.000711465
0.0007144467
0.0007174911
0.0007205914
0.000723734
0.0007269025
0.0007300845
0.0007332743
0.0007364695
0.0007396687
0.0007428708
0.0007460768
0.0007492901
0.0007525152
0.0007557562
0.0007590156
0.0007622949
0.0007655956
0.0007689187
0.0007722652
0.0007756363
0.0007790346
0.0007824616
0.0007859202
0.0007894132
0.0007929409
0.0007965068
0.000800113
0.0008037621
0.0008074524
0.0008111795
0.0008149352
0.0008187092
0.0008224915
0.0008262731
0.000830045
0.000833805
0.0008375612
0.0008413347
0.0008451371
0.0008489669
0.000852822
0.0008567048
0.0008606286
0.0008646203
0.0008687168
0.0008729579
0.0008773734
0.0008819255
0.0008865492
0.000891223
0.0008959346
0.000900672
0.0009054196
0.000910158
0.000914863
0.0009195096
0.0009240747
0.0009285469
0.0009329261
0.0009372336
0.000941496
0.0009457516
0.0009500224
0.0009543948
0.0009595724
0.0009670276
0.0009808639
0.0007940527
2.34923e-05
2.613294e-05
2.916641e-05
3.258174e-05
3.632157e-05
4.032373e-05
4.449223e-05
4.874174e-05
5.347847e-05
0.0002079866
0.0002487571
0.0002932471
0.0003382955
0.0003818078
0.0004228035
0.0004610718
0.0004968215
0.0005303869
0.0007383394
0.000769939
0.0008013509
0.0008317358
0.0008613044
0.0008907282
0.0009205646
0.0009510626
0.000982229
0.001014241
0.001046558
0.001076929
0.001108031
0.001140167
0.001173374
0.001207682
0.001243124
0.001279701
0.001317295
0.001354176
0.001386406
0.001421285
0.001459979
0.001501725
0.001546286
0.001593419
0.001642942
0.001694876
0.001749122
0.001804797
0.001862551
0.001922566
0.001985151
0.002050591
0.002118837
0.00218968
0.002262842
0.002337951
0.002773187
0.002856529
0.002941628
0.003028214
0.003116317
0.003205893
0.003296678
0.003388204
0.003479885
0.003570987
0.003660936
0.003749478
0.003836497
0.003921903
0.004005448
0.004086787
0.004165655
0.004242293
0.004316912
0.004383241
0.004438705
0.004488942
0.004534244
0.004572653
0.004603321
0.004627059
0.004644591
0.004656381
0.00466282
0.004664223
0.00466087
0.004653011
0.00464089
0.004624752
0.004604865
0.00458152
0.004555098
0.004526141
0.004495628
0.004464201
0.004431364
0.004398876
0.004368425
0.004336475
0.004300629
0.004260883
0.004213642
0.004147268
0.004078129
0.004017001
0.003959899
0.003905992
0.003855063
0.003806865
0.003761167
0.003717772
0.003676528
0.003637315
0.003600027
0.003564566
0.003530835
0.003498737
0.003468176
0.003439056
0.003411282
0.003384757
0.003359391
0.003335074
0.0033117
0.003289177
0.003267422
0.003246361
0.003225924
0.003206045
0.003186668
0.00316774
0.003149214
0.00313105
0.003113212
0.003095674
0.003078414
0.00306141
0.003044583
0.003027919
0.003011445
0.002995186
0.002979166
0.002963412
0.002947957
0.002932834
0.00291808
0.002903739
0.002889858
0.002876503
0.002863755
0.002851763
0.002840731
0.002830776
0.00282157
0.002812568
0.002803895
0.002795786
0.002788276
0.002781416
0.002775228
0.002769716
0.00276487
0.002760665
0.002757058
0.002753995
0.002751403
0.002749199
0.002747286
0.002745552
0.002743879
0.002742134
0.002740178
0.002737865
0.002735045
0.002731566
0.002727269
0.002722001
0.002715619
0.002707987
0.00269897
0.002688451
0.002676331
0.002662539
0.002647007
0.002629692
0.002610587
0.002589721
0.002567151
0.002542959
0.002517248
0.002490139
0.002461771
0.00243231
0.002401929
0.002370844
0.00233926
0.002307463
0.002275687
0.002244338
0.002213656
0.00218391
0.002155279
0.002131627
0.002022124
0.001890949
0.001796242
0.001725084
0.001669678
0.001625191
0.001588538
0.001557673
0.001531157
0.001508014
0.001487541
0.001469207
0.001452618
0.001437471
0.00142353
0.001410613
0.001398575
0.001387299
0.001376688
0.001366664
0.001357165
0.00134814
0.001339544
0.00133134
0.001323496
0.00131599
0.001308808
0.001301944
0.001295404
0.001289206
0.001283391
0.001278044
0.001273329
0.001269609
0.001267663
0.001268778
0.001272394
0.001277568
0.001283609
0.001290262
0.001297402
0.001304931
0.00131278
0.001320896
0.00132924
0.001337782
0.001346492
0.001355348
0.001364329
0.001373415
0.001382589
0.001391835
0.001401136
0.001410477
0.001419843
0.00142922
0.001438594
0.001447953
0.001457284
0.001466578
0.001475825
0.00148502
0.001494158
0.001503236
0.001512249
0.001521197
0.001530077
0.001538883
0.001547602
0.001555982
0.001897342
0.001912441
0.001927167
0.001941125
0.001954305
0.001966785
0.001978641
0.00198995
0.002000801
0.002011273
0.002021435
0.002031341
0.002041031
0.002050545
0.002059915
0.002069166
0.00207832
0.002087392
0.002096397
0.002105342
0.002114235
0.002123081
0.002131883
0.002140644
0.002149365
0.002158045
0.002166685
0.002175282
0.002183833
0.002192337
0.002200791
0.002209192
0.002217541
0.002225837
0.002234083
0.002242281
0.002250433
0.002258539
0.0022666
0.002274613
0.002282571
0.002290461
0.002298265
0.00230596
0.00231348
0.002320746
0.002327666
0.002334323
0.00234077
0.002347096
0.002353205
0.002359201
0.002364931
0.002371055
0.002376923
0.002382009
0.002386728
0.002391347
0.00239591
0.002400426
0.002404905
0.002409348
0.002413746
0.00241809
0.002422377
0.002426618
0.002430835
0.002435052
0.002439296
0.002443592
0.002447962
0.002452423
0.002456986
0.002461652
0.002466417
0.002471272
0.002476207
0.002481212
0.002486276
0.002491392
0.002496552
0.002501752
0.002506987
0.002512256
0.002517556
0.002522881
0.002528229
0.002533596
0.002538981
0.002544381
0.002549798
0.002555232
0.002560688
0.002566169
0.002571681
0.002577232
0.002582831
0.002588486
0.002594205
0.002600008
0.002605925
0.002612003
0.002618279
0.002624611
0.002630852
0.002636892
0.00264263
0.00264796
0.002652767
0.002656926
0.002660403
0.002663385
0.002666007
0.002668359
0.002670509
0.002672519
0.002674453
0.002676381
0.002678369
0.002680464
0.002682694
0.002685072
0.002687594
0.002690255
0.002693032
0.002695921
0.00269889
0.002701964
0.002705116
0.002708438
0.002711905
0.002715771
0.002720073
0.002725534
0.002732645
0.002742766
0.002754848
0.00277088
0.00278387
5.740188e-05
8.646295e-05
0.0001152969
0.0001358222
0.0001566848
0.0001777951
0.0001992032
0.0002204949
0.0002418176
0.0002717389
0.0006160172
0.000842505
0.0009516728
0.001019452
0.001072795
0.001120176
0.001164415
0.001206625
0.001247306
0.00174264
0.001830341
0.001911497
0.00198515
0.002050271
0.002106597
0.002154754
0.002195829
0.002230975
0.00226075
0.002286638
0.002310715
0.00233509
0.002360175
0.002385253
0.00240958
0.002432496
0.002453468
0.00247387
0.002466568
0.002461805
0.00246036
0.002461816
0.002464915
0.002468726
0.0024727
0.002476314
0.002479205
0.002481148
0.002480985
0.002480134
0.002478806
0.002477059
0.002476328
0.002476803
0.002478115
0.002480727
0.002848655
0.00285386
0.00285918
0.002864014
0.002867846
0.002871182
0.002874536
0.002878313
0.002882681
0.002887796
0.002893332
0.002900014
0.002907595
0.002916033
0.00292564
0.002936575
0.002949029
0.002963074
0.002979011
0.002996511
0.003015829
0.003037492
0.003061598
0.003088428
0.003118221
0.003151115
0.00318682
0.003225374
0.003267178
0.003312404
0.00336124
0.003413942
0.003470639
0.003531431
0.003596317
0.003665405
0.003738891
0.003818034
0.003896783
0.003978984
0.004064519
0.004153198
0.004244577
0.004338115
0.004433258
0.004529427
0.004626016
0.004722361
0.004817777
0.004911724
0.005003798
0.005093653
0.005180958
0.005265436
0.005346925
0.005425392
0.005500736
0.005571074
0.005634505
0.00569212
0.005744555
0.005791016
0.005830633
0.005863345
0.005889507
0.005909482
0.005923581
0.005932083
0.005935255
0.005933352
0.005926609
0.005915245
0.005899485
0.005879576
0.005855828
0.005828668
0.005798702
0.00576656
0.005732553
0.005697408
0.005662104
0.005625957
0.005587531
0.005546006
0.005500476
0.005448971
0.00539243
0.0053353
0.005279825
0.00522625
0.005174388
0.005124133
0.005075483
0.005028472
0.004983131
0.004939489
0.004897568
0.004857381
0.004818928
0.004782198
0.004747165
0.004713792
0.004682031
0.004651825
0.00462311
0.004595813
0.004569856
0.004545159
0.004521642
0.004499225
0.00447783
0.004457382
0.004437813
0.004419055
0.004401049
0.00438374
0.004367082
0.004351032
0.004335556
0.004320627
0.00430622
0.004292318
0.004278911
0.004266
0.004253591
0.004241701
0.004230348
0.004219562
0.004209372
0.004199818
0.00419094
0.004182789
0.004175419
0.004168901
0.004163325
0.00415878
0.00415531
0.004152859
0.00415137
0.004150855
0.004151355
0.004152886
0.00415552
0.004159223
0.004163994
0.004169807
0.004176621
0.004184377
0.004192997
0.004202388
0.004212438
0.004223017
0.00423398
0.004245165
0.004256401
0.004267502
0.004278272
0.004288495
0.004297991
0.004306524
0.004313883
0.00431986
0.004324254
0.004326874
0.004327536
0.004326102
0.004322422
0.004316386
0.004307918
0.004296961
0.004283491
0.004267514
0.004249066
0.004228201
0.004205003
0.004179566
0.00415201
0.004122447
0.004091018
0.004057809
0.00402295
0.003986468
0.003948589
0.003909844
0.003870874
0.003831963
0.003781808
0.003738765
0.003700655
0.003666261
0.003634866
0.00360582
0.003578617
0.003552962
0.003528693
0.003505721
0.003483976
0.003463406
0.003443969
0.003425628
0.003408347
0.00339209
0.003376815
0.003362483
0.003349051
0.003336478
0.003324723
0.003313745
0.003303507
0.00329397
0.003285106
0.003276893
0.003269314
0.003262368
0.003256066
0.003250446
0.00324558
0.00324161
0.003238776
0.00323748
0.003238301
0.003241225
0.00324577
0.003251707
0.003258671
0.003266469
0.003274968
0.003284055
0.003293637
0.00330364
0.003314007
0.003324687
0.003335638
0.003346824
0.003358208
0.003369759
0.003381445
0.003393234
0.003405096
0.003417001
0.00342892
0.003440825
0.003452691
0.003464493
0.003476212
0.003487829
0.00349933
0.003510704
0.003521943
0.003533041
0.003543994
0.003554795
0.003565448
0.003575934
0.003586337
0.003598098
0.003597438
0.003597912
0.003599107
0.003601045
0.00360382
0.003607379
0.00361162
0.003616428
0.00362171
0.003627394
0.00363342
0.003639737
0.003646301
0.003653076
0.003660034
0.003667147
0.003674395
0.003681757
0.003689214
0.003696751
0.003704351
0.003712002
0.003719689
0.003727401
0.003735128
0.003742856
0.003750578
0.003758282
0.00376596
0.003773603
0.003781202
0.003788751
0.003796245
0.00380368
0.003811054
0.003818362
0.003825604
0.003832773
0.003839867
0.003846876
0.003853791
0.003860598
0.003867276
0.003873799
0.003880127
0.003886217
0.003892029
0.003897578
0.003902895
0.003908021
0.003912945
0.003917688
0.003922234
0.003926608
0.003930675
0.003934506
0.003938214
0.00394181
0.003945263
0.003948552
0.003951688
0.003954694
0.003957591
0.003960394
0.003963114
0.003965767
0.003968373
0.003970958
0.003973545
0.00397616
0.003978823
0.003981551
0.003984358
0.003987248
0.003990223
0.003993278
0.003996407
0.003999604
0.00400286
0.004006171
0.004009531
0.004012938
0.004016391
0.00401989
0.004023435
0.004027028
0.004030672
0.004034371
0.004038132
0.004041964
0.004045879
0.004049891
0.004054015
0.004058269
0.004062672
0.004067237
0.004071982
0.004076935
0.004082056
0.004087072
0.004091752
0.004095889
0.004099305
0.004102156
0.004104568
0.004106579
0.004108184
0.004109364
0.004110098
0.00411039
0.004110274
0.004109808
0.004109061
0.004108106
0.004107017
0.004105872
0.004104743
0.004103698
0.004102791
0.004102064
0.004101543
0.004101244
0.004101171
0.004101328
0.0041017
0.004102298
0.0041031
0.004104149
0.00410542
0.004107044
0.004108987
0.004111609
0.004114864
0.004119631
0.004125702
0.004135153
0.00414704
0.004164006
0.004173449
4.097469e-05
6.977995e-05
0.0001531724
0.0005624094
0.0009993078
0.001912097
0.002509316
0.003144151
0.003697709
0.00397313
0.004107292
0.004217381
0.004299681
0.004090161
0.003951625
0.003873154
0.003835037
0.003829618
0.003850042
0.003893501
0.003961177
0.004035993
0.00410525
0.004195187
0.004277997
0.004285872
0.004290813
0.004293234
0.004293688
0.00429241
0.004288421
0.004514744
0.004521279
0.004523764
0.004524177
0.004523589
0.004522455
0.004520927
0.004518884
0.004516303
0.004512897
0.004508715
0.00450401
0.004498649
0.004492631
0.004486042
0.004478961
0.004471441
0.004463566
0.004455147
0.004445765
0.0044357
0.004425029
0.004413536
0.004401131
0.004387818
0.004373626
0.004359246
0.004345575
0.004332522
0.004319467
0.004304859
0.004288617
0.004271233
0.004252388
0.004232805
0.004211338
0.00418998
0.004157794
0.004126266
0.004096214
0.004068125
0.004042247
0.004018661
0.003997368
0.003978444
0.003961842
0.003947633
0.003935561
0.003925594
0.003917796
0.003912155
0.003908635
0.003907166
0.003907755
0.003910345
0.003915075
0.003921893
0.003930816
0.003942242
0.003956486
0.00397376
0.003994271
0.004018224
0.004045765
0.004077104
0.00411247
0.004152021
0.00419596
0.004244494
0.004297778
0.004355884
0.004418816
0.004486368
0.00455794
0.004632854
0.004711081
0.004792131
0.004876138
0.004963755
0.005054649
0.005148096
0.005243446
0.005340054
0.005437276
0.005534459
0.005630959
0.005726214
0.005819748
0.00591115
0.006000065
0.006086201
0.006169345
0.006249332
0.006325999
0.006398585
0.006465974
0.00652814
0.006585403
0.006637447
0.006683655
0.006723736
0.006757755
0.006785876
0.006808264
0.006825077
0.006836483
0.006842659
0.006843772
0.006839981
0.006831456
0.006818395
0.006801061
0.0067798
0.006755074
0.006727428
0.0066973
0.006665166
0.006631646
0.00659674
0.006559723
0.006519934
0.006476936
0.006430135
0.006379682
0.006327485
0.006275356
0.006224012
0.00617357
0.00612408
0.006075651
0.00602841
0.005982467
0.005937916
0.005894836
0.0058533
0.005813361
0.005775063
0.00573843
0.005703471
0.005670181
0.005638543
0.005608526
0.00558009
0.005553185
0.005527758
0.005503745
0.005481085
0.005459711
0.005439558
0.005420564
0.005402667
0.005385811
0.005369943
0.005355017
0.005340991
0.005327831
0.005315508
0.005304002
0.005293294
0.005283379
0.005274253
0.005265926
0.005258408
0.005251721
0.005245891
0.00524095
0.005236935
0.00523389
0.005231865
0.005230915
0.005231102
0.005232499
0.005235181
0.00523921
0.005244613
0.005251393
0.005259572
0.00526919
0.005280288
0.005292889
0.005307016
0.005322635
0.005339805
0.005358439
0.005378494
0.005399908
0.005422594
0.005446443
0.005471321
0.005497056
0.005523537
0.005550525
0.005577817
0.00560519
0.005632406
0.005659212
0.005685349
0.005710554
0.005734563
0.005757114
0.005777955
0.005796842
0.005813546
0.00582786
0.005839593
0.005848578
0.005854673
0.005857765
0.00585777
0.005854636
0.005848334
0.005838866
0.005826255
0.005810553
0.005791827
0.005770182
0.005745728
0.005718629
0.005689071
0.005657339
0.005623748
0.005588661
0.00555236
0.005514353
0.005475507
0.005436328
0.005397113
0.005357908
0.005319204
0.005281572
0.005245375
0.00521094
0.00517854
0.005148156
0.005119649
0.005092949
0.005068
0.005044751
0.005023109
0.005003011
0.004984384
0.004967154
0.004951249
0.004936607
0.004923148
0.004910822
0.004899571
0.004889353
0.004880117
0.004871846
0.004864527
0.004858169
0.004852808
0.004848521
0.004845428
0.004843721
0.004843664
0.004845719
0.004849272
0.004854247
0.004860498
0.004867801
0.004875959
0.004884837
0.004894329
0.004904345
0.00491481
0.004925662
0.004936842
0.004948307
0.004960012
0.004971918
0.004983979
0.004996161
0.005008424
0.005020729
0.005033042
0.005045326
0.005057551
0.005069687
0.005081709
0.005093596
0.005105332
0.005116903
0.0051283
0.005139517
0.00515055
0.005161397
0.005172053
0.00518253
0.005192802
0.005202915
0.0052129
0.005221885
0.005229996
0.005237546
0.005244697
0.005251544
0.00525815
0.005264578
0.005270879
0.005277098
0.005283267
0.005289414
0.005295559
0.005301712
0.005307882
0.005314074
0.005320289
0.005326526
0.005332782
0.005339053
0.005345333
0.005351614
0.00535789
0.005364153
0.005370394
0.005376603
0.005382774
0.005388897
0.005394963
0.005400964
0.005406892
0.005412741
0.005418502
0.005424172
0.005429745
0.005435217
0.005440585
0.005445842
0.005450984
0.005456004
0.005460894
0.005465643
0.005470237
0.005474659
0.005478888
0.005482899
0.005486668
0.005490172
0.005493408
0.005496388
0.005499133
0.005501646
0.005503934
0.005505984
0.005507801
0.005509384
0.005510741
0.005511888
0.005512848
0.005513642
0.005514289
0.005514804
0.005515201
0.005515497
0.005515705
0.005515836
0.005515907
0.005515936
0.005515943
0.00551595
0.005515977
0.005516044
0.005516166
0.005516352
0.00551661
0.005516939
0.005517338
0.0055178
0.00551832
0.005518891
0.005519507
0.005520166
0.005520866
0.005521609
0.005522397
0.005523238
0.005524139
0.005525111
0.005526166
0.005527323
0.005528598
0.005530014
0.005531591
0.005533348
0.0055353
0.005537454
0.005539815
0.005542091
0.005543938
0.005545183
0.005546004
0.00554647
0.005546599
0.005546396
0.005545881
0.005545066
0.005543949
0.005542522
0.005540777
0.005538712
0.005536339
0.005533687
0.005530794
0.005527713
0.005524504
0.005521233
0.00551797
0.005514781
0.005511728
0.005508862
0.005506225
0.005503846
0.005501746
0.005499938
0.005498428
0.00549722
0.005496322
0.005495738
0.005495497
0.005495614
0.00549618
0.005497233
0.005499007
0.005501559
0.00550543
0.00551057
0.005518064
0.005527063
0.005539023
0.005547071
2.256048e-05
3.747274e-05
5.802518e-05
0.0002472279
0.000411545
0.0007296516
0.001045648
0.001342121
0.001717494
0.002076034
0.002448731
0.002905896
0.00341029
0.003908599
0.004362121
0.004805637
0.005449653
0.005518419
0.005208552
0.004910704
0.004589202
0.004215393
0.003904965
0.003692864
0.003533343
0.003425336
0.003357015
0.003320512
0.003310796
0.003324044
0.003356612
0.00340406
0.00346132
0.00352859
0.003606232
0.003692036
0.003781726
0.003878079
0.003972833
0.004074712
0.004164553
0.004282326
0.004429646
0.004512366
0.004594544
0.004701824
0.004815801
0.004923631
0.005023793
0.005037494
0.005049258
0.005059259
0.005067705
0.005074753
0.00508049
0.005085031
0.005088507
0.005091024
0.005092656
0.005093444
0.005093395
0.005092507
0.005090749
0.005088102
0.005084578
0.005080208
0.005075647
0.005071359
0.005066525
0.005060053
0.005052041
0.00504248
0.005031407
0.0050188
0.005004866
0.004989428
0.004972958
0.004954921
0.004936128
0.004916011
0.004893798
0.004870039
0.004845826
0.004821883
0.004798582
0.004776149
0.004754855
0.004734939
0.004716647
0.004700097
0.0046854
0.004672676
0.004661977
0.004653294
0.00464659
0.004641851
0.004639053
0.004638225
0.004639391
0.004642613
0.004648055
0.004655934
0.004666457
0.004679848
0.004696361
0.004716273
0.004739876
0.004767452
0.004799245
0.004835499
0.00487645
0.004922305
0.004973204
0.005029226
0.005090313
0.0051563
0.005226907
0.005301778
0.005380424
0.00546233
0.005546519
0.005632799
0.005721403
0.005812496
0.005905381
0.005999379
0.006093829
0.006188104
0.006281636
0.006373928
0.006464548
0.006553128
0.006639359
0.006722987
0.006803793
0.006881553
0.006955814
0.007025928
0.007091613
0.007152856
0.007209457
0.007261038
0.00730733
0.007348263
0.007383865
0.007414184
0.007439275
0.007459198
0.00747402
0.007483808
0.007488648
0.007488649
0.00748396
0.007474795
0.00746144
0.007444265
0.0074237
0.00740015
0.007374001
0.007345652
0.007315221
0.007282425
0.007246879
0.00720832
0.00716656
0.007121777
0.00707496
0.007027294
0.006979517
0.006931956
0.006884799
0.006838231
0.006792433
0.006747566
0.006703769
0.006661165
0.006619863
0.006579957
0.006541524
0.006504626
0.006469306
0.006435593
0.006403502
0.006373032
0.006344172
0.006316899
0.006291183
0.006266985
0.006244262
0.006222967
0.006203051
0.006184466
0.006167165
0.006151103
0.006136238
0.006122532
0.006109954
0.006098478
0.006088081
0.00607875
0.006070475
0.006063254
0.006057094
0.006052005
0.006048005
0.00604512
0.00604338
0.006042822
0.006043489
0.00604543
0.006048697
0.006053353
0.006059461
0.006067094
0.006076326
0.006087223
0.006099841
0.006114216
0.006130386
0.0061484
0.006168304
0.006190138
0.006213931
0.006239701
0.006267401
0.006297124
0.00632875
0.006362247
0.00639755
0.006434527
0.006473144
0.006513198
0.00655453
0.006596953
0.006640255
0.006684203
0.006728541
0.006772998
0.00681729
0.006861121
0.006904191
0.006946196
0.006986837
0.007025815
0.007062844
0.007097645
0.007129955
0.007159527
0.007186131
0.007209564
0.007229656
0.007246268
0.007259288
0.007268633
0.007274248
0.007276107
0.00727422
0.00726863
0.007259422
0.007246723
0.007230703
0.007211579
0.007189604
0.007165063
0.007138244
0.007109381
0.007078758
0.007046685
0.007013472
0.006979447
0.00694497
0.006910383
0.006875977
0.006841959
0.006808443
0.006775747
0.006744295
0.00671438
0.006686209
0.006659921
0.006635415
0.006612598
0.006591414
0.006571806
0.006553714
0.006537071
0.006521818
0.006507896
0.006495252
0.006483839
0.006473619
0.006464564
0.006456657
0.0064499
0.006444316
0.006439952
0.006436891
0.006435248
0.006435183
0.006436953
0.006440013
0.006444385
0.006449993
0.006456691
0.006464319
0.006472738
0.006481837
0.006491522
0.00650171
0.006512329
0.006523315
0.006534611
0.006546163
0.006557921
0.006569837
0.006581869
0.006593954
0.00660606
0.006618145
0.006630168
0.006642096
0.006653899
0.006665551
0.006677033
0.00668833
0.00669943
0.006710336
0.006721024
0.006731506
0.006741781
0.006751847
0.006761707
0.006771358
0.006780809
0.006790056
0.006799029
0.006807704
0.006816107
0.006824248
0.006832134
0.006839785
0.006847223
0.006854464
0.006861521
0.006868407
0.006875136
0.006881719
0.006888166
0.006894487
0.006900688
0.006906777
0.006912758
0.006918634
0.006924407
0.006930077
0.006935644
0.006941105
0.006946458
0.006951699
0.006956823
0.006961826
0.006966704
0.00697145
0.006976061
0.006980529
0.006984852
0.006989024
0.006993041
0.0069969
0.007000596
0.007004127
0.007007487
0.007010671
0.007013674
0.007016486
0.007019099
0.007021502
0.007023681
0.007025621
0.007027306
0.007028721
0.007029851
0.007030691
0.007031243
0.007031515
0.007031514
0.007031243
0.007030703
0.007029901
0.007028847
0.007027542
0.007025996
0.007024236
0.007022287
0.007020171
0.007017905
0.007015509
0.007013003
0.007010407
0.00700774
0.007005023
0.007002275
0.006999518
0.006996771
0.006994055
0.006991386
0.006988777
0.006986238
0.006983774
0.006981386
0.006979072
0.006976826
0.006974644
0.006972518
0.006970445
0.006968422
0.006966448
0.006964526
0.006962663
0.006960867
0.00695915
0.006957528
0.006956016
0.006954635
0.006953403
0.006952339
0.006951455
0.006950758
0.006950251
0.006949688
0.006948652
0.006947191
0.00694542
0.0069434
0.006941179
0.006938779
0.00693621
0.006933469
0.006930553
0.006927453
0.006924157
0.006920653
0.006916934
0.006912998
0.006908855
0.006904525
0.00690004
0.006895442
0.006890781
0.006886114
0.0068815
0.006876999
0.006872667
0.006868555
0.006864702
0.006861144
0.006857906
0.006855008
0.006852464
0.006850289
0.006848496
0.006847102
0.006846136
0.00684563
0.006845654
0.00684627
0.006847635
0.006849838
0.006853201
0.006857709
0.006863941
0.006871156
0.006880356
0.006886115
1.914927e-05
3.037959e-05
5.856771e-05
0.000181022
0.0002944068
0.0004757942
0.0006133866
0.0007713482
0.0009592307
0.001142445
0.001356167
0.001636836
0.001954139
0.002323628
0.002787187
0.003671042
0.00406062
0.00444794
0.004815086
0.005149871
0.005448631
0.005698911
0.005885372
0.005999907
0.005798104
0.005473698
0.00534164
0.004938249
0.004566043
0.004250803
0.003941518
0.003644621
0.003410895
0.00323434
0.003105471
0.003011506
0.002950655
0.002921344
0.002920376
0.002944323
0.002989633
0.003052575
0.003131229
0.003222146
0.003324912
0.003438629
0.003560162
0.00368748
0.003817094
0.003954651
0.004092802
0.004246714
0.004408563
0.00456023
0.004694347
0.004834755
0.0049818
0.005126131
0.005181292
0.005214416
0.005244994
0.005273242
0.005299321
0.00532336
0.005345493
0.005365845
0.005384527
0.005401627
0.00541721
0.005431324
0.005444011
0.005455275
0.005465079
0.005473461
0.005480664
0.00548779
0.005494061
0.005498842
0.005502126
0.005503844
0.005503954
0.005502391
0.005499135
0.005494177
0.005487581
0.005479325
0.005469556
0.00545823
0.005445523
0.005431391
0.005415638
0.00539841
0.005380174
0.005361424
0.005342458
0.005323569
0.005305041
0.005287175
0.005270267
0.005254569
0.005240275
0.005227547
0.0052165
0.005207204
0.005199682
0.005193946
0.005189986
0.005187799
0.005187441
0.005188948
0.005192312
0.005197662
0.005205159
0.005214992
0.005227391
0.005242614
0.005260949
0.005282688
0.005308121
0.005337533
0.005371201
0.00540938
0.005452275
0.005500036
0.005552727
0.005610327
0.005672721
0.005739674
0.005810894
0.005885988
0.005964474
0.006045803
0.006129216
0.006213976
0.006300418
0.006388492
0.006477591
0.006567126
0.006656564
0.006745425
0.006833284
0.006919771
0.007004565
0.007087389
0.007167987
0.007246101
0.007321378
0.007393362
0.007461671
0.007526093
0.007586452
0.007642519
0.0076941
0.007741089
0.007783441
0.007821132
0.007854135
0.007882413
0.007905892
0.007924474
0.007938162
0.007947008
0.007951123
0.007950677
0.007945906
0.007937103
0.007924605
0.007908749
0.007889846
0.007868175
0.007843874
0.007816875
0.007787014
0.007754175
0.007718353
0.007679758
0.007638984
0.007596811
0.007553872
0.007510566
0.007467164
0.007423899
0.00738099
0.007338632
0.007297001
0.007256249
0.007216514
0.007177917
0.007140561
0.007104534
0.007069905
0.007036728
0.00700504
0.006974866
0.006946218
0.006919094
0.006893486
0.006869375
0.006846737
0.006825545
0.006805768
0.006787374
0.006770332
0.006754613
0.006740191
0.006727043
0.006715151
0.006704503
0.006695089
0.006686909
0.006679967
0.006674272
0.00666984
0.006666694