/*--------------------------------*- C++ -*----------------------------------*\
| =========                 |                                                 |
| \\      /  F ield         | foam-extend: Open Source CFD                    |
|  \\    /   O peration     | Version:     3.1                                |
|   \\  /    A nd           | Web:         http://www.extend-project.de       |
|    \\/     M anipulation  |                                                 |
\*---------------------------------------------------------------------------*/
FoamFile
{
    version     2.0;
    format      ascii;
    class       volScalarField;
    location    "5";
    object      omega;
}
// * * * * * * * * * * * * * * * * * * * * * * * * * * * * * * * * * * * * * //

dimensions      [0 0 -1 0 0 0 0];

internalField   nonuniform List<scalar> 
119952
(
144.5835
171.6172
165.4287
152.129
141.8002
144.4395
148.1495
152.1294
156.2179
160.3969
164.5864
168.786
173.0416
177.404
181.9213
186.6405
191.6137
196.9123
202.6824
209.5803
179.7354
179.7397
181.8233
155.4737
152.9225
151.4777
150.1099
148.6916
145.7862
171.9489
287.1123
221.8245
186.2065
165.8271
151.964
140.8121
131.0442
122.2899
114.4268
105.611
83.57203
71.10644
63.77761
58.93277
55.36838
52.50906
50.09395
47.99151
46.09288
37.27221
35.32804
33.51296
31.94074
30.62618
29.5348
28.61824
27.83198
27.13972
26.54843
25.91367
25.20026
24.46895
23.7681
23.12577
22.549
22.02887
21.54395
21.08241
21.24033
21.16319
20.8701
20.56268
20.28453
20.02498
19.77348
19.54195
19.33194
19.14282
18.97334
18.82196
18.68677
18.56571
18.45672
18.3577
18.26612
18.17805
18.08579
17.97681
17.86347
17.75882
17.60307
17.44335
17.38248
17.34969
17.34844
17.51037
18.20723
19.3281
19.5589
19.59136
19.54255
19.46471
19.37737
19.28961
19.20564
19.12734
19.05543
18.99018
18.93159
18.87956
18.83388
18.79431
18.76056
18.73236
18.70944
18.69149
18.67791
18.66794
18.66185
18.6598
18.66183
18.66795
18.6781
18.69228
18.71046
18.73264
18.75888
18.78923
18.82365
18.86206
18.90486
18.95215
19.00386
19.06006
19.12082
19.18623
19.25638
19.33138
19.41133
19.49634
19.58653
19.68187
19.78212
19.88664
19.9938
20.0966
20.17537
20.28416
20.45394
20.63537
20.82106
21.00619
21.18892
21.36881
21.54594
21.72084
21.8944
22.0676
22.2415
22.41716
22.59567
22.77811
22.96558
23.15914
23.35987
23.56883
23.78708
24.01564
24.25551
24.50762
24.77286
25.05209
25.34556
25.65304
25.97486
26.31409
26.66942
27.04126
27.4306
27.83806
28.26349
28.70632
29.16595
29.64182
30.13343
30.64043
31.16054
31.69174
32.23344
32.78449
33.34279
33.91123
34.48774
35.06983
35.65689
36.23744
36.71555
38.48873
42.01401
45.00454
47.48884
49.55831
51.29964
52.78742
54.07632
55.22981
56.2829
57.25616
58.1707
59.04298
59.89043
60.72524
61.55581
62.38953
63.23289
64.09118
64.96852
65.86803
66.79236
67.74393
68.7251
69.7383
70.78327
71.86105
72.97361
74.12248
75.3087
76.53323
77.79723
79.0817
80.37559
81.54993
81.55903
80.33232
79.19974
78.10212
77.03486
75.98653
74.94841
73.91932
72.89686
71.88053
70.8708
69.86899
68.87628
67.894
66.92398
65.96767
65.02623
64.10085
63.1926
62.30229
61.43033
60.577
59.74263
58.92743
58.13136
57.35421
56.59575
55.85574
55.13377
54.42939
53.74208
53.07187
52.42047
51.78643
51.17049
39.99734
39.60385
39.11381
38.49698
37.85467
37.21056
36.57525
35.96718
35.39603
34.86512
34.37384
33.92023
33.50081
33.11156
32.74824
32.4068
32.08351
31.77514
31.47896
31.19264
30.91431
30.64251
30.37611
30.11427
29.85642
29.60217
29.35132
29.10376
28.85949
28.61861
28.38123
28.14749
27.91746
27.69113
27.46845
27.24927
27.03344
26.82079
26.61121
26.40461
26.20105
26.00075
25.80438
25.61362
25.43207
25.26322
25.10709
24.95826
24.8145
24.67588
24.54213
24.41376
24.29181
24.17663
24.13311
24.01739
23.89218
23.7583
23.61225
23.45479
23.28786
23.11423
22.9372
22.75987
22.58482
22.414
22.24868
22.0894
21.93617
21.78877
21.64682
21.50982
21.37725
21.24866
21.12373
21.00226
20.88404
20.76883
20.65634
20.54631
20.43849
20.33264
20.22851
20.12588
20.02455
19.92435
19.82516
19.72684
19.62928
19.53239
19.43607
19.34023
19.2448
19.14971
19.05486
18.9602
18.8657
18.77129
18.67706
18.58298
18.48915
18.39572
18.3029
18.21087
18.11989
18.03024
17.94214
17.85565
17.77072
17.68736
17.60557
17.52548
17.44696
17.36974
17.29334
17.21709
17.14026
17.0622
16.98325
16.90423
16.82526
16.74632
16.66737
16.58839
16.50941
16.43046
16.35156
16.27266
16.19358
16.11397
16.03347
15.95161
15.8679
15.78086
15.68717
15.57145
15.40433
15.16873
15.21245
460.05
377.341
321.5574
281.8247
251.9389
228.4498
209.1961
192.9143
178.2322
154.3616
131.4406
116.5709
106.233
98.50278
92.33676
87.16625
82.67491
78.67076
63.67183
61.37833
59.1215
56.89582
54.78382
52.80748
50.97187
49.27346
47.70208
46.25026
45.01296
43.74834
42.50716
41.30307
40.13852
39.01499
37.93342
36.89169
35.88091
35.058
34.29831
33.42585
32.52132
31.59639
30.66823
29.75198
28.85703
27.99047
27.15853
26.36067
25.6007
24.87176
24.17158
23.50353
22.87061
22.27529
21.72002
21.21361
19.61821
19.21304
18.83629
18.47943
18.13934
17.81502
17.50615
17.21261
16.93418
16.67049
16.41987
16.18006
15.94914
15.72619
15.51063
15.30222
15.10144
14.91174
14.7425
14.58963
14.43427
14.28857
14.15567
14.0303
13.90673
13.78381
13.66169
13.54039
13.42011
13.301
13.1832
13.06678
12.95175
12.838
12.72522
12.61289
12.50026
12.38668
12.27288
12.16055
12.04808
11.93866
11.84338
11.76217
11.69058
11.63072
11.58532
11.55284
11.49769
11.43172
11.36866
11.30696
11.24606
11.18539
11.12455
11.06333
11.00164
10.9395
10.87695
10.81405
10.75085
10.68739
10.62373
10.55989
10.49592
10.43182
10.36766
10.30349
10.23936
10.17529
10.11132
10.04747
9.983787
9.920293
9.857031
9.794045
9.731386
9.669111
9.607277
9.545949
9.485193
9.425075
9.365809
9.307513
9.250214
9.193946
9.13875
9.084666
9.031733
8.979991
8.929466
8.880173
8.8321
8.785184
8.739277
8.694116
8.649409
8.605199
8.562784
8.5234
8.486346
8.451261
8.418136
8.386839
8.357269
8.329362
8.303083
8.278395
8.255269
8.23369
8.213664
8.195215
8.178383
8.163229
8.149825
8.138262
8.128642
8.121074
8.115676
8.112573
8.111907
8.113812
8.118418
8.125847
8.136237
8.149727
8.166485
8.186606
8.210176
8.237257
8.267867
8.301978
8.339527
8.380429
8.424567
8.471808
8.521982
8.574884
8.630252
8.687767
8.747044
8.807575
8.868776
8.929779
8.989614
9.047574
9.102605
9.140884
9.487396
9.938868
10.29294
10.57258
10.79643
10.97817
11.12801
11.25365
11.36097
11.45435
11.53702
11.61145
11.67957
11.74279
11.80222
11.85865
11.91268
11.9648
12.01535
12.06461
12.11277
12.15997
12.20631
12.25188
12.29673
12.34084
12.38417
12.42659
12.46788
12.50768
12.54538
12.5798
12.60876
12.62761
12.6274
12.59799
12.55371
12.50551
12.45479
12.40176
12.3471
12.2914
12.23505
12.17838
12.12163
12.06503
12.00878
11.95302
11.8979
11.8435
11.78991
11.73719
11.68539
11.63453
11.58462
11.53567
11.48767
11.44062
11.3945
11.34927
11.30492
11.2614
11.21868
11.17671
11.13547
11.09493
11.05508
11.0159
10.97742
10.94128
9.451224
9.392117
9.342881
9.299979
9.260862
9.224565
9.190513
9.158159
9.127014
9.096729
9.067051
9.037814
9.008891
8.980194
8.95167
8.923285
8.895021
8.866876
8.838852
8.810959
8.783209
8.755616
8.728197
8.700966
8.67394
8.647134
8.620564
8.594243
8.568187
8.542411
8.516928
8.491749
8.46688
8.442326
8.418091
8.394178
8.370594
8.347349
8.324452
8.301926
8.279803
8.258152
8.237073
8.216698
8.197143
8.178425
8.160396
8.142817
8.125674
8.108975
8.092834
8.077179
8.062216
8.048091
8.036031
8.023238
8.00961
7.996092
7.983028
7.97042
7.958163
7.946154
7.934314
7.922576
7.910868
7.89911
7.887222
7.875131
7.862782
7.850134
7.837157
7.823831
7.810152
7.796131
7.781792
7.76717
7.7523
7.737223
7.721981
7.706616
7.691168
7.675671
7.66016
7.644669
7.62923
7.613876
7.598635
7.583537
7.568608
7.55387
7.539343
7.525047
7.510996
7.497202
7.483673
7.470413
7.45742
7.444689
7.432199
7.419924
7.407825
7.395846
7.38396
7.372433
7.361541
7.351502
7.342526
7.334846
7.328722
7.324424
7.322016
7.321122
7.321489
7.322962
7.325422
7.328752
7.332818
7.337458
7.342508
7.347826
7.353307
7.358883
7.364508
7.370166
7.375844
7.38155
7.387267
7.39298
7.398615
7.404074
7.409142
7.413494
7.416549
7.417273
7.414205
7.406637
7.399722
7.400365
7.403696
532.5279
472.4071
420.4706
379.1373
345.5148
317.6339
294.0143
273.4454
255.525
237.1362
137.1261
114.3088
106.7413
101.9793
97.8439
93.99072
90.37592
86.98362
83.73838
66.62248
62.86217
59.58042
56.82648
54.55828
52.6817
51.10224
49.74285
48.54765
47.49215
46.52711
45.52202
44.49985
43.49444
42.52866
41.61749
40.76801
39.97984
39.23538
38.98747
38.60429
38.13705
37.63417
37.11725
36.59987
36.09462
35.60898
35.14777
34.7112
34.29158
33.89775
33.52236
33.15702
32.79066
32.42192
32.05469
31.71081
29.27095
28.93442
28.62468
28.33567
28.05555
27.77639
27.49501
27.21085
26.92434
26.63874
26.3564
26.06717
25.7738
25.47955
25.18598
24.8937
24.60276
24.31259
24.02344
23.73627
23.44306
23.14269
22.83758
22.52663
22.20882
21.88426
21.55451
21.21932
20.87871
20.53249
20.18179
19.82915
19.47669
19.12669
18.7808
18.4411
18.10578
17.77259
17.47642
17.1863
16.9041
16.63197
16.37035
16.1192
15.87846
15.64801
15.42767
15.21704
15.01532
14.82186
14.63623
14.458
14.28667
14.12188
13.96371
13.81288
13.67112
13.53628
13.402
13.27057
13.14482
13.02343
12.90348
12.78362
12.66376
12.54399
12.42434
12.30483
12.18547
12.06631
11.94735
11.82856
11.70982
11.59099
11.47192
11.35269
11.23383
11.11644
11.00112
10.88922
10.78443
10.68783
10.59712
10.51054
10.4264
10.34089
10.24796
10.15262
10.06001
9.97109
9.885309
9.802031
9.720857
9.641524
9.563811
9.487519
9.412474
9.338522
9.265526
9.193361
9.12191
9.051064
8.980726
8.910801
8.841208
8.771877
8.70274
8.633745
8.56485
8.49602
8.427232
8.358471
8.289732
8.221025
8.152364
8.083776
8.015297
7.946968
7.878843
7.81098
7.743447
7.676311
7.609644
7.543514
7.477991
7.413146
7.349046
7.285753
7.223327
7.161816
7.101264
7.041701
6.983148
6.925621
6.869153
6.813828
6.759794
6.707156
6.655862
6.605875
6.55721
6.509921
6.463946
6.419355
6.376147
6.334329
6.293911
6.254906
6.217332
6.181209
6.146563
6.113423
6.08182
6.051791
6.02337
5.996593
5.971495
5.948133
5.926504
5.906677
5.888684
5.872562
5.858347
5.846072
5.835775
5.827447
5.821123
5.816803
5.814467
5.814092
5.815639
5.819059
5.824298
5.831292
5.839984
5.8503
5.862194
5.875586
5.890479
5.906807
5.924679
5.944026
5.964967
5.986686
6.008991
6.030857
6.066034
6.093353
6.115196
6.133018
6.147807
6.16043
6.17157
6.181656
6.190952
6.199619
6.207789
6.215549
6.222961
6.230071
6.236921
6.243545
6.249974
6.256237
6.262355
6.268349
6.274233
6.280014
6.285694
6.291278
6.296745
6.30207
6.307209
6.3121
6.316646
6.320703
6.324051
6.326342
6.327047
6.325441
6.320681
6.313421
6.305004
6.295783
6.285921
6.275517
6.264666
6.253444
6.241917
6.230142
6.21817
6.206045
6.193808
6.181497
6.169148
6.156792
6.144461
6.132185
6.119991
6.107905
6.09595
6.084146
6.072513
6.061065
6.049815
6.038771
6.027939
6.017322
6.006921
5.996735
5.986762
5.977008
5.967465
5.958161
5.948991
5.938196
5.948995
5.957425
5.963308
5.966949
5.968912
5.969638
5.969364
5.968236
5.966361
5.96383
5.960724
5.957109
5.953042
5.948567
5.943722
5.938544
5.933063
5.927309
5.921311
5.915096
5.908689
5.902114
5.895395
5.888556
5.881617
5.874599
5.867522
5.860404
5.853263
5.846115
5.838974
5.831854
5.824765
5.817716
5.810717
5.803775
5.796902
5.790107
5.783402
5.776801
5.770326
5.763999
5.757857
5.751929
5.746254
5.740836
5.735661
5.730657
5.725815
5.721111
5.716595
5.712226
5.708046
5.703934
5.70019
5.696742
5.693494
5.690434
5.687525
5.684729
5.682025
5.679415
5.676903
5.674493
5.672174
5.669927
5.667729
5.665555
5.663381
5.661185
5.658946
5.656647
5.654276
5.651826
5.649295
5.646683
5.643994
5.641233
5.638406
5.635523
5.63259
5.629615
5.626606
5.623572
5.620521
5.617464
5.614407
5.611361
5.60833
5.605321
5.602336
5.599377
5.596444
5.593532
5.590637
5.587754
5.584879
5.582012
5.579219
5.576741
5.574785
5.573552
5.573209
5.57362
5.57467
5.576335
5.578633
5.581598
5.585266
5.589654
5.59475
5.600521
5.606924
5.613907
5.621418
5.629399
5.637788
5.646528
5.655563
5.664847
5.674345
5.68403
5.693884
5.703892
5.714053
5.724349
5.734782
5.745307
5.755916
5.766495
5.777008
5.787202
5.79699
5.805949
5.814122
5.821065
5.827281
5.834224
5.842136
351.0023
258.2165
346.4118
150.735
113.199
77.09385
66.31214
58.28
53.27916
52.15191
52.54637
52.70675
52.48981
52.85176
52.84905
52.57513
52.06172
51.43324
50.70936
49.90456
49.03252
48.11447
47.12207
46.05503
44.99553
43.98864
43.03999
42.14246
41.28979
40.47371
39.68629
37.46385
36.78535
36.13477
35.50351
34.89092
34.29831
33.7267
33.1783
32.65351
32.15042
31.66939
31.21136
30.77401
30.35581
29.95616
29.57476
29.21133
28.86589
28.53716
28.22466
27.92995
27.65279
27.3914
27.14443
26.91086
26.68946
26.47606
26.26606
26.06067
25.86008
25.66933
25.48675
25.31216
25.14268
24.97932
24.81316
24.63674
24.53871
24.4315
24.30613
24.16816
24.0222
23.86909
23.70836
23.53983
23.36419
23.18216
22.99416
22.79996
22.60111
22.39964
22.19676
21.9932
21.78953
21.58629
21.38363
21.18124
20.97782
20.77287
20.56669
20.35857
20.14734
19.93181
19.71102
19.48451
19.25212
19.01367
18.76924
18.51937
18.26503
18.0073
17.74756
17.48701
17.22824
16.97147
16.72067
16.47413
16.23266
15.99738
15.76925
15.54865
15.33572
15.13055
14.93317
14.74343
14.56098
14.38548
14.21664
14.05417
13.89772
13.747
13.60184
13.46217
13.32818
13.19883
13.07131
12.94533
12.82199
12.70092
12.58065
12.46013
12.33912
12.21763
12.09564
11.97313
11.85009
11.72658
11.60266
11.47836
11.35366
11.22858
11.10321
10.97778
10.85277
10.729
10.60717
10.48807
10.37321
10.26327
10.15713
10.05333
9.950596
9.84698
9.740682
9.633548
9.528386
9.426365
9.32743
9.231299
9.137791
9.046777
8.958123
8.871675
8.787276
8.704773
8.624017
8.544857
8.467145
8.390732
8.315475
8.241229
8.167858
8.095234
8.023233
7.951743
7.880658
7.809887
7.739347
7.66897
7.598699
7.528492
7.458319
7.388164
7.318023
7.247905
7.17783
7.107829
7.03794
6.968209
6.898691
6.829443
6.76053
6.692018
6.623974
6.556465
6.489557
6.423313
6.357792
6.293052
6.229145
6.166128
6.104064
6.043027
5.983087
5.924289
5.866633
5.810116
5.754759
5.700588
5.647637
5.59592
5.545488
5.496282
5.448382
5.401799
5.356551
5.312661
5.27015
5.229051
5.189406
5.151187
5.114462
5.07925
5.04557
5.013442
4.982885
4.953914
4.926543
4.900783
4.876643
4.854127
4.833237
4.813973
4.796328
4.780288
4.765838
4.752952
4.741603
4.731756
4.723377
4.716428
4.710872
4.70667
4.703789
4.702186
4.701835
4.702689
4.704717
4.707842
4.712001
4.717041
4.722879
4.729387
4.737015
4.745278
4.753891
4.762724
4.77184
4.781011
4.789933
4.798439
4.806362
4.813571
4.820097
4.826045
4.831478
4.836446
4.840987
4.845163
4.849001
4.852539
4.85581
4.858843
4.86166
4.864294
4.866752
4.869045
4.871174
4.873144
4.874932
4.876508
4.877827
4.878815
4.879367
4.879344
4.878558
4.87679
4.873749
4.870012
4.865768
4.86117
4.856323
4.851287
4.846091
4.840764
4.835334
4.829824
4.824251
4.818637
4.812994
4.807339
4.801681
4.796045
4.790437
4.784873
4.779367
4.773931
4.768576
4.763315
4.758154
4.753102
4.748165
4.743345
4.738646
4.734067
4.729608
4.725268
4.721047
4.716942
4.712954
4.709083
4.70533
4.701626
4.698803
4.69665
4.695039
4.693819
4.692878
4.692103
4.691415
4.690765
4.690116
4.68944
4.688721
4.687946
4.687109
4.686203
4.685224
4.684172
4.683046
4.681847
4.680578
4.679243
4.677846
4.676393
4.674888
4.67334
4.671754
4.670137
4.668496
4.666838
4.665171
4.663501
4.661835
4.660177
4.658533
4.656908
4.655305
4.653729
4.652185
4.65068
4.649218
4.647809
4.646461
4.645186
4.643998
4.642911
4.641938
4.641086
4.640353
4.639718
4.639172
4.638709
4.638334
4.638044
4.637844
4.637733
4.637755
4.637893
4.638111
4.638397
4.638758
4.639202
4.639729
4.640338
4.641023
4.64178
4.642603
4.643482
4.644407
4.645367
4.646353
4.647356
4.648366
4.649379
4.650391
4.651399
4.652404
4.653406
4.654408
4.655413
4.656424
4.657442
4.658472
4.659514
4.660571
4.661644
4.662735
4.663844
4.664972
4.666118
4.667279
4.668454
4.669639
4.670832
4.672031
4.673235
4.674451
4.675697
4.677127
4.67892
4.681172
4.683793
4.68675
4.690039
4.693659
4.697605
4.70188
4.706492
4.711457
4.71679
4.722505
4.72861
4.735105
4.741985
4.749238
4.756847
4.764792
4.77305
4.781597
4.79041
4.79947
4.808758
4.818261
4.827969
4.837874
4.847972
4.85826
4.868729
4.879377
4.890184
4.901137
4.912196
4.92333
4.934475
4.945589
4.956634
4.967571
4.978532
4.989354
5.001285
5.011723
313.0853
213.7208
163.3284
143.9219
116.8611
95.29719
80.42607
73.79703
66.67276
62.41893
59.0178
55.07895
51.61128
48.97609
47.31969
46.28573
45.18701
45.88946
46.77258
47.60627
48.4304
49.22235
49.76777
49.88575
49.61633
49.11094
48.41909
47.58667
46.65108
45.64516
44.5946
43.52392
42.45522
41.40219
40.37124
39.36734
38.39631
37.46061
36.56495
35.70849
34.89496
34.10858
33.3505
32.63588
31.96493
31.32882
30.72381
30.14983
29.60773
29.09739
28.61726
28.16551
27.74067
27.34126
26.96568
26.61275
26.28164
25.97159
25.68181
25.41148
25.15983
24.92623
24.70951
24.50863
24.32301
24.15145
23.98735
23.82661
23.6726
23.52891
23.39434
23.26762
23.14729
23.03267
22.92262
22.81637
22.71198
22.60939
22.50747
22.41129
22.31412
22.21197
22.10514
21.99458
21.87979
21.75959
21.63311
21.5002
21.361
21.21595
21.06566
20.911
20.75301
20.59262
20.4307
20.26804
20.10541
19.94326
19.78192
19.62136
19.46144
19.30194
19.14237
18.98195
18.81981
18.65514
18.48719
18.31527
18.13872
17.95704
17.77004
17.57783
17.38077
17.17951
16.97473
16.76751
16.55871
16.3496
16.14077
15.93325
15.72871
15.52805
15.33153
15.13944
14.95227
14.77024
14.59351
14.42209
14.25594
14.09496
13.93901
13.78793
13.64152
13.49959
13.36197
13.22844
13.09834
12.97033
12.84383
12.71898
12.59551
12.47266
12.34974
12.22645
12.10267
11.9783
11.85323
11.72741
11.60085
11.47359
11.34567
11.21713
11.08803
10.95852
10.82886
10.69946
10.5709
10.44374
10.31855
10.19602
10.07647
9.959414
9.844027
9.729509
9.61501
9.499974
9.38522
9.2722
9.161811
9.054288
8.949607
8.847732
8.748629
8.652241
8.558484
8.467254
8.378438
8.291913
8.207545
8.125194
8.04471
7.96594
7.888726
7.812907
7.738327
7.664828
7.592259
7.520473
7.449333
7.378711
7.30849
7.238565
7.168847
7.099258
7.029737
6.960237
6.890724
6.821182
6.751605
6.682001
6.612389
6.5428
6.473272
6.403852
6.334594
6.265557
6.196802
6.128393
6.060397
5.992879
5.925905
5.859541
5.793854
5.728915
5.664794
5.601557
5.539255
5.477918
5.417573
5.358249
5.299985
5.242816
5.186774
5.131886
5.078221
5.02572
4.974483
4.924519
4.875852
4.828536
4.782536
4.737923
4.694718
4.652941
4.612611
4.573748
4.536366
4.500477
4.46609
4.433211
4.401843
4.371984
4.343632
4.316782
4.291424
4.267549
4.245141
4.224185
4.204659
4.18654
4.169799
4.154406
4.14033
4.127541
4.116006
4.105693
4.096569
4.088598
4.081741
4.075958
4.071197
4.067407
4.064529
4.062507
4.061287
4.060847
4.061131
4.062066
4.063573
4.065572
4.067968
4.070677
4.073631
4.076791
4.080142
4.083582
4.086964
4.090194
4.093202
4.095946
4.098462
4.100785
4.102933
4.10492
4.10676
4.108465
4.110043
4.111502
4.112845
4.114072
4.115179
4.116156
4.116988
4.117649
4.118104
4.118306
4.118196
4.117703
4.11675
4.115252
4.113466
4.111426
4.109185
4.106793
4.104284
4.10168
4.099004
4.096272
4.093502
4.090706
4.087896
4.085083
4.082277
4.079488
4.076726
4.073995
4.071316
4.06869
4.066124
4.063627
4.061204
4.058859
4.056597
4.054418
4.052324
4.050316
4.048385
4.046542
4.044776
4.043088
4.041475
4.039936
4.038467
4.037067
4.03573
4.0345
4.033402
4.03244
4.031603
4.03088
4.030267
4.029756
4.029342
4.029013
4.028757
4.028563
4.028422
4.028326
4.028265
4.028235
4.028229
4.028243
4.028273
4.028317
4.028372
4.028439
4.028516
4.028604
4.028703
4.028815
4.02894
4.029081
4.02924
4.029418
4.029618
4.029841
4.03009
4.030366
4.03067
4.031005
4.031371
4.031772
4.032209
4.032686
4.033207
4.033776
4.0344
4.035084
4.035837
4.036664
4.03757
4.038555
4.039613
4.040739
4.041931
4.043189
4.044513
4.045906
4.047369
4.048908
4.050519
4.052188
4.05391
4.055683
4.057509
4.059384
4.061305
4.063271
4.065279
4.067327
4.06941
4.071525
4.073666
4.075831
4.078016
4.080217
4.082435
4.084668
4.086918
4.089186
4.091476
4.09379
4.096131
4.098502
4.100905
4.103342
4.105815
4.108325
4.11087
4.113453
4.116071
4.118723
4.121408
4.124123
4.126867
4.12964
4.132443
4.135282
4.138166
4.141187
4.144484
4.148041
4.151816
4.155789
4.159943
4.164276
4.168789
4.173487
4.178376
4.183466
4.188768
4.194292
4.200051
4.206053
4.212306
4.218813
4.225577
4.232595
4.239864
4.247377
4.255126
4.263104
4.271302
4.279715
4.288337
4.297162
4.30619
4.315418
4.324845
4.334471
4.344295
4.354313
4.364522
4.374913
4.385476
4.396199
4.407077
4.418091
4.429291
4.440624
4.452325
4.464062
4.47687
4.487653
151.2187
112.2844
172.1799
85.89284
74.49014
64.23985
61.4146
59.3386
56.85885
55.92526
54.56703
52.51262
50.5927
48.62374
46.467
42.15445
41.35537
40.78861
40.44045
40.34175
40.45852
40.83384
41.49939
42.43989
43.59756
44.76727
45.75722
46.76828
47.52583
47.94249
48.12753
48.06587
47.71767
47.06836
46.17464
45.14446
44.01006
42.80054
41.54501
40.27574
39.00795
37.75725
36.54625
35.38586
34.28128
33.2346
32.247
31.31876
30.44917
29.63528
28.87489
28.16257
27.49803
26.88026
26.30916
25.78094
25.29124
24.83706
24.4163
24.02557
23.66316
23.32737
23.01649
22.72896
22.46354
22.21921
21.99509
21.79041
21.60447
21.43667
21.2865
21.15336
21.03647
20.93508
20.84653
20.76054
20.68329
20.61837
20.56459
20.52085
20.486
20.45878
20.43764
20.42133
20.40826
20.39735
20.38688
20.37623
20.36328
20.34683
20.32525
20.29665
20.26025
20.21586
20.16332
20.10204
20.03168
19.95234
19.86444
19.76863
19.66569
19.5565
19.44208
19.32352
19.20187
19.07811
18.95312
18.82763
18.70202
18.57659
18.45168
18.32728
18.20323
18.07914
17.95446
17.82856
17.70072
17.57025
17.43642
17.29862
17.15638
17.00941
16.85763
16.70113
16.54016
16.37514
16.20669
16.03559
15.86232
15.68775
15.51286
15.33844
15.16533
14.99422
14.82512
14.6582
14.49386
14.33237
14.17395
14.01877
13.86691
13.71843
13.57332
13.43152
13.29295
13.15744
13.02461
12.89379
12.76456
12.63679
12.51025
12.3845
12.25909
12.13371
12.00816
11.88227
11.75588
11.6289
11.50128
11.37307
11.24425
11.11485
10.98493
10.85459
10.72404
10.59357
10.46357
10.33442
10.20652
10.08021
9.955654
9.83267
9.71084
9.58975
9.469078
9.348722
9.229139
9.111147
8.99541
8.882262
8.771834
8.664197
8.5594
8.457463
8.358372
8.26209
8.168556
8.077691
7.9894
7.903569
7.820071
7.738764
7.659498
7.582111
7.506438
7.432308
7.359547
7.287985
7.217455
7.147792
7.078844
7.010464
6.942521
6.874893
6.807475
6.740177
6.672921
6.60565
6.538318
6.470896
6.40337
6.335737
6.268009
6.200208
6.132366
6.064524
5.996731
5.929041
5.861512
5.794207
5.727192
5.660535
5.594306
5.528577
5.463419
5.3989
5.335081
5.272011
5.209736
5.148302
5.087758
5.02815
4.969526
4.911927
4.855391
4.8
4.745707
4.692608
4.640731
4.590106
4.540765
4.492739
4.446054
4.400737
4.356809
4.314288
4.27319
4.233527
4.195304
4.158525
4.123192
4.089302
4.056852
4.025835
3.996244
3.968067
3.941292
3.915906
3.891894
3.869237
3.847909
3.82788
3.809122
3.791606
3.775302
3.760182
3.746217
3.733375
3.721625
3.710933
3.701262
3.692575
3.684831
3.677992
3.672018
3.666869
3.662501
3.658866
3.655906
3.653564
3.65178
3.650497
3.649661
3.649219
3.64912
3.64931
3.649738
3.650362
3.651151
3.65208
3.653072
3.654068
3.655031
3.655938
3.656789
3.657603
3.658383
3.659131
3.659842
3.660513
3.661137
3.661703
3.662199
3.662607
3.662907
3.663073
3.663077
3.662885
3.662436
3.661808
3.661019
3.660093
3.659057
3.657935
3.656746
3.655502
3.654217
3.652903
3.651568
3.650223
3.648875
3.647531
3.6462
3.644887
3.643602
3.64235
3.641137
3.63997
3.638855
3.637795
3.636793
3.635853
3.634976
3.634161
3.63341
3.632714
3.632087
3.631515
3.631
3.630539
3.63013
3.629773
3.629465
3.629205
3.628991
3.628824
3.628705
3.628628
3.628596
3.62861
3.628672
3.628784
3.628946
3.629156
3.629415
3.62972
3.630069
3.630461
3.630894
3.631365
3.631874
3.632418
3.632996
3.633606
3.634248
3.634921
3.635625
3.636358
3.637121
3.637914
3.638737
3.639591
3.640476
3.641392
3.642341
3.643323
3.644337
3.645386
3.646468
3.647585
3.648736
3.649924
3.651149
3.652413
3.653718
3.655067
3.656462
3.657909
3.65941
3.66097
3.662592
3.664275
3.666019
3.667822
3.669683
3.671601
3.673575
3.675608
3.677698
3.679846
3.682049
3.684301
3.686598
3.688937
3.691315
3.69373
3.69618
3.698663
3.701176
3.703717
3.706283
3.708873
3.711484
3.714113
3.716761
3.719425
3.722107
3.724807
3.727529
3.730273
3.733044
3.735844
3.738676
3.741544
3.744448
3.747392
3.750376
3.753401
3.756467
3.759575
3.762723
3.765912
3.76914
3.772407
3.775715
3.779067
3.782469
3.785934
3.789559
3.793381
3.797363
3.801481
3.805722
3.810079
3.81455
3.819137
3.823844
3.828679
3.833648
3.838761
3.844026
3.849453
3.855051
3.860828
3.86679
3.872942
3.879289
3.885832
3.892574
3.899513
3.906649
3.913982
3.921511
3.929234
3.937153
3.945267
3.953578
3.962087
3.970797
3.979708
3.988822
3.998141
4.007666
4.017396
4.027332
4.037474
4.047835
4.05841
4.069256
4.080327
4.091832
4.10339
4.115908
4.12631
65.97597
43.88378
41.14288
39.90189
39.79629
39.31478
38.9557
38.61633
38.30813
37.49847
34.78928
34.78298
34.80013
34.83024
34.84678
34.84765
34.89741
35.03815
35.29525
35.67299
36.02372
36.28716
36.6822
37.24348
37.98401
38.90484
39.9984
41.22607
42.52324
43.8053
44.88576
45.63089
46.21055
46.36693
46.12633
45.60881
44.84364
43.85198
42.64744
41.29284
39.86423
38.39087
36.90459
35.43281
33.99537
32.61383
31.29721
30.05892
28.90258
27.82879
26.83574
25.92009
25.07815
24.30626
23.60223
22.96008
22.37453
21.84052
21.35297
20.90833
20.5032
20.13401
19.79734
19.48928
19.20721
18.94921
18.71359
18.4988
18.30352
18.12668
17.9674
17.82493
17.6987
17.58826
17.49325
17.41342
17.34849
17.29814
17.25948
17.22617
17.20877
17.20639
17.21833
17.24357
17.28101
17.32938
17.38735
17.4533
17.52565
17.60265
17.68269
17.76389
17.84455
17.92255
17.99628
18.06389
18.12345
18.17331
18.21231
18.23999
18.25564
18.25899
18.25005
18.22924
18.19719
18.15482
18.10317
18.04342
17.97683
17.90469
17.82813
17.74823
17.6659
17.58152
17.49559
17.40908
17.32217
17.23493
17.14722
17.05873
16.96902
16.87755
16.78375
16.68702
16.58678
16.4825
16.3738
16.26038
16.1421
16.01895
15.89106
15.7588
15.62284
15.48306
15.34002
15.19434
15.04674
14.89796
14.74858
14.59931
14.45026
14.30077
14.15136
14.00247
13.85453
13.70789
13.56285
13.41963
13.27842
13.1393
13.00232
12.86738
12.73424
12.60283
12.47304
12.34463
12.2173
12.09075
11.96473
11.83901
11.71339
11.58768
11.46175
11.33562
11.20931
11.0828
10.95607
10.82907
10.70184
10.57445
10.44706
10.31987
10.1931
10.06697
9.941641
9.817205
9.693587
9.570605
9.448084
9.325944
9.204259
9.083363
8.963787
8.846037
8.730466
8.617295
8.506681
8.398749
8.293593
8.191275
8.091825
7.995247
7.901521
7.810601
7.72242
7.63689
7.553903
7.473332
7.395037
7.318863
7.244645
7.172209
7.101378
7.031971
6.963807
6.896708
6.830503
6.765027
6.700126
6.635658
6.571494
6.507519
6.443634
6.379754
6.315813
6.251758
6.187552
6.123172
6.058609
5.993869
5.928966
5.863926
5.798785
5.733585
5.668377
5.603216
5.538163
5.473284
5.408645
5.344316
5.280364
5.216854
5.153847
5.0914
5.029571
4.968418
4.908
4.848374
4.789593
4.731709
4.674813
4.618862
4.563972
4.51018
4.457523
4.406041
4.35577
4.306744
4.258994
4.212545
4.167419
4.123635
4.081205
4.040138
4.000439
3.962112
3.925156
3.889571
3.855354
3.8225
3.791002
3.76085
3.732037
3.70456
3.678422
3.653603
3.630055
3.607745
3.586646
3.566734
3.547986
3.530378
3.513888
3.498492
3.484163
3.470875
3.4586
3.447309
3.43697
3.427552
3.41902
3.411336
3.40446
3.398345
3.392945
3.38821
3.384091
3.380539
3.377507
3.374947
3.372812
3.371059
3.369645
3.36853
3.367675
3.367042
3.366597
3.366316
3.366175
3.366144
3.366184
3.366272
3.366395
3.366544
3.366713
3.3669
3.367095
3.367286
3.367461
3.367602
3.367693
3.367708
3.367626
3.367464
3.367224
3.366911
3.366534
3.366105
3.365636
3.365136
3.364614
3.364077
3.36353
3.36298
3.362431
3.361888
3.361357
3.360842
3.360348
3.359879
3.359441
3.359036
3.35867
3.358345
3.358063
3.357827
3.357637
3.357494
3.357398
3.357348
3.357335
3.357376
3.357456
3.357576
3.357736
3.357934
3.358169
3.358441
3.358748
3.35909
3.359465
3.359871
3.360305
3.360768
3.36126
3.36178
3.36233
3.36291
3.36352
3.364161
3.364834
3.365538
3.366273
3.367041
3.367841
3.368673
3.369537
3.370434
3.371362
3.372323
3.373316
3.374341
3.375398
3.376488
3.377611
3.378766
3.379954
3.381176
3.382432
3.383721
3.385043
3.3864
3.387791
3.389215
3.390673
3.392166
3.393694
3.395257
3.396856
3.398494
3.40017
3.401889
3.403652
3.405461
3.40732
3.40923
3.411193
3.413208
3.415275
3.417393
3.419562
3.421781
3.424051
3.42637
3.428737
3.431152
3.433609
3.436106
3.438639
3.441206
3.443805
3.446434
3.44909
3.45177
3.454474
3.457199
3.459943
3.462705
3.465483
3.468278
3.471089
3.473918
3.476765
3.479634
3.482525
3.485443
3.48839
3.491368
3.494381
3.497429
3.500515
3.50364
3.506804
3.510009
3.513254
3.516539
3.519865
3.52323
3.526638
3.530089
3.533588
3.537142
3.54082
3.544638
3.548568
3.552595
3.55671
3.560909
3.56519
3.569556
3.57401
3.578558
3.583206
3.587961
3.592831
3.597824
3.602949
3.608211
3.613619
3.61918
3.624898
3.630779
3.636827
3.643046
3.649438
3.656008
3.662757
3.669688
3.676804
3.684108
3.691602
3.699291
3.707177
3.715264
3.723555
3.732055
3.740767
3.749694
3.758841
3.768214
3.777819
3.78767
3.797772
3.808171
3.818826
3.829905
3.841026
3.853009
3.862836
80.89713
32.39635
26.52639
25.84959
25.78587
25.95197
26.2889
26.72993
27.26417
27.88984
28.45822
28.78745
29.12394
29.4717
29.84176
30.24275
30.6959
31.21681
31.81036
32.45559
33.14531
33.91177
34.80054
35.83306
37.00509
38.27274
39.57731
40.87963
42.10996
43.20194
43.86426
44.2453
44.27697
43.9441
43.257
42.27709
41.04335
39.60245
38.00363
36.31928
34.61755
32.93862
31.31486
29.76927
28.31213
26.96013
25.71604
24.57934
23.54605
22.61085
21.76642
21.00676
20.32503
19.71273
19.16195
18.66602
18.2189
17.81385
17.44525
17.10955
16.8036
16.52449
16.26958
16.03659
15.82361
15.62907
15.45158
15.28997
15.14324
15.01055
14.89123
14.78474
14.69068
14.60874
14.53874
14.48059
14.43426
14.39941
14.37183
14.35977
14.36315
14.38175
14.41526
14.46322
14.52501
14.59983
14.6867
14.78443
14.89167
15.00692
15.12857
15.25481
15.38376
15.5134
15.64179
15.76677
15.88615
15.99785
16.10004