/*--------------------------------*- C++ -*----------------------------------*\
| =========                 |                                                 |
| \\      /  F ield         | foam-extend: Open Source CFD                    |
|  \\    /   O peration     | Version:     3.1                                |
|   \\  /    A nd           | Web:         http://www.extend-project.de       |
|    \\/     M anipulation  |                                                 |
\*---------------------------------------------------------------------------*/
FoamFile
{
    version     2.0;
    format      ascii;
    class       volScalarField;
    location    "5";
    object      p;
}
// * * * * * * * * * * * * * * * * * * * * * * * * * * * * * * * * * * * * * //

dimensions      [1 -1 -2 0 0 0 0];

internalField   nonuniform List<scalar> 
119952
(
9162.563
9112.045
9105.272
9125.192
9147.655
9147.441
9152.451
9157.511
9162.858
9168.303
9173.58
9178.749
9183.73
9188.47
9192.916
9197.004
9200.625
9203.515
9204.762
9199.177
9242.539
9221.013
9216.542
9270.178
9262.371
9270.149
9275.135
9289.382
9336.475
9534.167
8463.637
8481.481
8499.869
8518.684
8536.777
8554.408
8571.47
8588.01
8603.862
8615.237
8613.016
8624.274
8634.471
8644.152
8653.505
8662.448
8671.06
8679.284
8687.604
8669.293
8673.369
8680.115
8687.109
8694.205
8701.385
8708.633
8715.988
8723.513
8731.438
8738.274
8746.581
8754.786
8763.258
8772.016
8781.047
8790.334
8800.139
8812.579
8830.935
8830.776
8839.222
8851.328
8861.83
8868.911
8874.903
8881.193
8887.391
8893.522
8899.522
8905.36
8910.993
8916.379
8921.475
8926.229
8930.573
8934.428
8937.806
8941.345
8947.104
8951.783
8955.283
8967.444
8982.606
8987.659
8992.743
8997.165
8992.664
8963.759
8959.623
8963.909
8966.172
8968.123
8969.506
8970.449
8971.09
8971.492
8971.696
8971.729
8971.615
8971.372
8971.017
8970.562
8970.016
8969.39
8968.691
8967.926
8967.101
8966.218
8965.287
8964.311
8963.295
8962.241
8961.154
8960.036
8958.89
8957.721
8956.529
8955.318
8954.087
8952.849
8951.606
8950.333
8949.059
8947.788
8946.515
8945.241
8943.97
8942.701
8941.437
8940.177
8938.921
8937.665
8936.404
8935.118
8933.785
8932.455
8931.7
8931.697
8931.621
8930.404
8929.205
8928.207
8927.267
8926.373
8925.532
8924.74
8923.991
8923.289
8922.635
8922.027
8921.467
8920.954
8920.487
8920.065
8919.688
8919.353
8919.059
8918.804
8918.584
8918.397
8918.238
8918.103
8917.976
8917.881
8917.833
8917.772
8917.678
8917.59
8917.496
8917.388
8917.261
8917.11
8916.931
8916.721
8916.476
8916.191
8915.856
8915.474
8915.032
8914.524
8913.946
8913.305
8912.56
8911.666
8910.549
8909.133
8907.971
8941.454
8940.881
8939.748
8938.492
8937.28
8936.033
8934.737
8933.437
8932.057
8930.531
8929
8927.374
8925.69
8923.921
8922.07
8920.137
8918.116
8916.006
8913.8
8911.495
8909.086
8906.566
8903.931
8901.173
8898.282
8895.24
8892.033
8888.642
8885.037
8881.176
8876.997
8872.393
8867.101
8860.774
8852.677
8843.14
8847.221
8848.98
8849.309
8848.661
8847.539
8846.119
8844.427
8842.527
8840.472
8838.281
8835.979
8833.58
8831.102
8828.557
8825.954
8823.303
8820.615
8817.897
8815.157
8812.404
8809.644
8806.886
8804.136
8801.402
8798.691
8796.011
8793.367
8790.768
8788.223
8785.746
8783.367
8781.061
8778.745
8776.372
8757.965
8749.38
8738.42
8736.904
8735.376
8732.945
8730.943
8729.329
8727.845
8726.472
8725.232
8724.185
8723.276
8722.516
8721.906
8721.444
8721.128
8720.958
8720.936
8721.063
8721.341
8721.771
8722.358
8723.103
8724.008
8725.076
8726.309
8727.708
8729.277
8731.017
8732.93
8735.018
8737.284
8739.728
8742.353
8745.163
8748.161
8751.351
8754.74
8758.334
8762.147
8766.196
8770.517
8775.154
8780.047
8784.75
8788.729
8792.429
8796.508
8800.947
8805.605
8810.482
8815.345
8819.447
8818.789
8827.513
8834.113
8839.407
8844.931
8850.557
8856.18
8861.861
8867.617
8873.433
8879.287
8885.172
8891.076
8896.992
8902.914
8908.837
8914.752
8920.653
8926.532
8932.381
8938.195
8943.965
8949.688
8955.356
8960.966
8966.511
8971.989
8977.393
8982.722
8987.97
8993.136
8998.215
9003.205
9008.104
9012.91
9017.62
9022.231
9026.744
9031.155
9035.462
9039.668
9043.764
9047.754
9051.634
9055.404
9059.058
9062.595
9066.014
9069.314
9072.488
9075.531
9078.44
9081.208
9083.831
9086.302
9088.612
9090.751
9092.727
9094.519
9096.132
9097.552
9098.768
9099.771
9100.539
9101.078
9101.362
9101.378
9101.11
9100.538
9099.644
9098.402
9096.788
9094.771
9092.314
9089.372
9085.89
9081.792
9076.982
9071.302
9064.523
9056.266
9046.158
9035.591
9036.79
9072.274
7186.263
7203.574
7220.193
7240.54
7263.703
7290.04
7318.689
7349.806
7383.026
7385.769
7430.81
7464.814
7500.499
7536.757
7573.706
7610.955
7648.199
7685.502
7711.595
7742.992
7769.069
7802.472
7835.271
7867.172
7898.459
7928.694
7957.847
7985.794
8009.988
8035.719
8060.855
8083.884
8106.011
8127.261
8147.599
8167.059
8185.643
8203.236
8218.716
8235.045
8250.866
8265.753
8280.003
8293.619
8306.606
8318.934
8330.519
8341.933
8352.268
8362.079
8371.508
8380.604
8389.358
8397.781
8405.933
8414.208
8362.865
8369.885
8376.403
8383.233
8390.273
8397.36
8404.491
8411.73
8419.12
8426.685
8434.322
8442.081
8450.119
8458.491
8467.196
8476.255
8485.757
8495.857
8506.546
8516.883
8525.311
8533.6
8542.877
8551.908
8559.752
8566.67
8573.239
8579.669
8585.953
8592.053
8597.944
8603.608
8609.024
8614.165
8619.013
8623.57
8627.892
8632.14
8636.617
8641.615
8647.083
8653.268
8660.797
8668.526
8674.075
8676.815
8676.403
8671.994
8664.545
8659.802
8659.387
8660.654
8661.884
8662.723
8663.306
8663.734
8664.02
8664.155
8664.142
8663.995
8663.731
8663.362
8662.898
8662.347
8661.717
8661.017
8660.251
8659.427
8658.547
8657.616
8656.641
8655.625
8654.572
8653.486
8652.368
8651.223
8650.053
8648.861
8647.65
8646.422
8645.182
8643.934
8642.686
8641.431
8640.168
8638.901
8637.633
8636.368
8635.107
8633.852
8632.602
8631.359
8630.123
8628.898
8627.693
8626.539
8625.488
8624.611
8623.935
8623.294
8622.49
8621.554
8620.603
8619.693
8618.836
8618.024
8617.255
8616.527
8615.839
8615.194
8614.593
8614.037
8613.526
8613.058
8612.635
8612.254
8611.915
8611.615
8611.354
8611.127
8610.933
8610.767
8610.626
8610.506
8610.405
8610.32
8610.248
8610.173
8610.089
8609.998
8609.895
8609.776
8609.634
8609.468
8609.27
8609.039
8608.767
8608.454
8608.087
8607.67
8607.187
8606.651
8606.037
8605.394
8604.634
8603.921
8603.189
8602.455
8664.443
8664.138
8663.03
8661.965
8660.882
8659.699
8658.446
8657.125
8655.734
8654.269
8652.727
8651.116
8649.429
8647.663
8645.814
8643.878
8641.853
8639.736
8637.524
8635.212
8632.796
8630.27
8627.628
8624.862
8621.962
8618.916
8615.711
8612.325
8608.735
8604.902
8600.775
8596.291
8591.378
8586.027
8580.648
8576.324
8574.792
8574.904
8574.348
8573.289
8571.988
8570.418
8568.628
8566.667
8564.561
8562.333
8559.998
8557.574
8555.073
8552.507
8549.886
8547.221
8544.519
8541.788
8539.038
8536.275
8533.506
8530.74
8527.984
8525.244
8522.527
8519.842
8517.194
8514.592
8512.045
8509.563
8507.154
8504.824
8502.61
8501.035
8439.448
8438.756
8435.438
8431.367
8428.11
8425.791
8423.968
8422.351
8420.854
8419.485
8418.272
8417.222
8416.333
8415.595
8415.004
8414.559
8414.261
8414.111
8414.11
8414.26
8414.562
8415.019
8415.632
8416.404
8417.338
8418.435
8419.698
8421.128
8422.729
8424.501
8426.447
8428.569
8430.869
8433.348
8436.008
8438.853
8441.886
8445.109
8448.526
8452.144
8455.964
8459.991
8464.21
8468.583
8473.03
8477.453
8481.747
8485.947
8490.238
8494.742
8499.427
8504.254
8509.13
8513.878
8518.051
8522.38
8527.676
8533.566
8539.492
8545.26
8550.935
8556.624
8562.379
8568.199
8574.063
8579.951
8585.856
8591.773
8597.698
8603.624
8609.542
8615.445
8621.325
8627.176
8632.99
8638.761
8644.484
8650.153
8655.762
8661.307
8666.784
8672.188
8677.515
8682.762
8687.926
8693.003
8697.99
8702.886
8707.688
8712.394
8717.002
8721.51
8725.916
8730.22
8734.418
8738.511
8742.495
8746.369
8750.134
8753.786
8757.319
8760.729
8764.03
8767.192
8770.224
8773.121
8775.879
8778.492
8780.954
8783.268
8785.402
8787.363
8789.148
8790.749
8792.155
8793.356
8794.341
8795.103
8795.623
8795.89
8795.888
8795.601
8795.01
8794.097
8792.838
8791.213
8789.186
8786.737
8783.816
8780.401
8776.419
8771.865
8766.674
8760.973
8755
8749.506
8745.36
8742.737
8739.872
7299.142
7501.185
7677.545
7828.536
7948.876
8038.482
8098.616
8131.718
8140.659
8126.078
8076.751
8032.988
7978.97
7918.059
7852.34
7783.789
7713.996
7644.117
7577.122
7467.851
7404.384
7343.343
7285.41
7231.242
7181.135
7135.389
7094.138
7057.463
7026.67
6994.835
6969.742
6950.306
6934.765
6923.295
6916.03
6912.812
6913.662
6919.767
6925.378
6932.287
6947.915
6966.561
6987.249
7010.843
7037.066
7065.472
7095.729
7126.888
7161.524
7196.452
7231.618
7267.669
7304.393
7341.6
7378.749
7415.973
7407.078
7444.036
7474.124
7504.916
7537.413
7570.013
7601.498
7631.615
7660.506
7688.267
7714.611
7739.255
7762.915
7785.892
7808.007
7829.133
7849.301
7868.579
7887.024
7904.558
7920.891
7936.474
7951.714
7966.434
7980.481
7993.828
8006.507
8018.507
8029.933
8040.762
8050.993
8060.715
8069.994
8078.885
8087.389
8095.56
8103.368
8111.212
8119.101
8125.957
8132.559
8139.357
8146.286
8153.24
8160.218
8167.28
8174.473
8181.813
8189.288
8196.954
8204.883
8213.11
8221.654
8230.53
8239.75
8249.294
8259.073
8268.841
8277.7
8286.082
8294.774
8303.402
8311.328
8318.524
8325.336
8331.954
8338.387
8344.61
8350.609
8356.377
8361.904
8367.181
8372.208
8377.01
8381.646
8386.229
8390.917
8395.918
8401.273
8406.833
8412.779
8418.691
8423.111
8425.321
8425.398
8423.308
8419.252
8416.065
8415.221
8415.789
8416.549
8417.106
8417.506
8417.813
8418.024
8418.116
8418.081
8417.927
8417.663
8417.301
8416.847
8416.309
8415.694
8415.008
8414.256
8413.444
8412.579
8411.664
8410.704
8409.702
8408.662
8407.588
8406.482
8405.348
8404.188
8403.007
8401.806
8400.589
8399.359
8398.121
8396.873
8395.616
8394.353
8393.086
8391.821
8390.558
8389.301
8388.05
8386.807
8385.576
8384.36
8383.166
8382.004
8380.894
8379.861
8378.932
8378.099
8377.305
8376.453
8375.534
8374.611
8373.726
8372.886
8372.089
8371.328
8370.603
8369.916
8369.269
8368.663
8368.1
8367.579
8367.1
8366.664
8366.269
8365.914
8365.599
8365.322
8365.079
8364.869
8364.688
8364.533
8364.4
8364.287
8364.187
8364.094
8364.004
8363.916
8363.825
8363.725
8363.611
8363.477
8363.321
8363.137
8362.923
8362.672
8362.383
8362.05
8361.671
8361.241
8360.761
8360.221
8359.619
8359.022
8358.374
8357.784
8357.33
8357.081
8356.589
8355.784
8354.755
8353.642
8352.472
8351.247
8349.952
8348.582
8347.126
8345.602
8344.002
8342.323
8340.561
8338.713
8336.777
8334.752
8332.633
8330.418
8328.104
8325.685
8323.157
8320.513
8317.747
8314.851
8311.817
8308.631
8305.282
8301.753
8298.028
8294.097
8289.971
8285.715
8281.49
8277.588
8274.354
8272.087
8270.575
8269.261
8267.798
8266.122
8264.27
8262.281
8260.173
8257.953
8255.632
8253.22
8250.73
8248.173
8245.559
8242.896
8240.192
8237.457
8234.696
8231.919
8229.132
8226.342
8223.557
8220.783
8218.028
8215.297
8212.599
8209.939
8207.326
8204.765
8202.269
8199.834
8197.478
8195.179
8192.949
8190.34
8186.867
8184.047
8182.074
8180.511
8179.029
8177.584
8176.202
8174.893
8173.667
8172.549
8171.557
8170.699
8169.975
8169.388
8168.939
8168.633
8168.472
8168.458
8168.593
8168.881
8169.323
8169.921
8170.679
8171.597
8172.679
8173.927
8175.342
8176.927
8178.685
8180.616
8182.723
8185.008
8187.472
8190.118
8192.946
8195.96
8199.162
8202.552
8206.131
8209.898
8213.842
8217.948
8222.184
8226.519
8230.898
8235.273
8239.623
8244.033
8248.573
8253.286
8258.103
8263.018
8268.005
8273.433
8278.996
8284.359
8289.6
8294.879
8300.261
8305.748
8311.338
8317.027
8322.799
8328.633
8334.507
8340.408
8346.329
8352.262
8358.199
8364.131
8370.051
8375.948
8381.818
8387.652
8393.445
8399.19
8404.881
8410.514
8416.083
8421.584
8427.013
8432.365
8437.636
8442.825
8447.927
8452.94
8457.861
8462.688
8467.42
8472.053
8476.586
8481.018
8485.348
8489.571
8493.696
8497.711
8501.621
8505.413
8509.079
8512.632
8516.067
8519.368
8522.557
8525.615
8528.538
8531.323
8533.964
8536.455
8538.79
8540.965
8542.973
8544.804
8546.452
8547.907
8549.159
8550.199
8551.014
8551.591
8551.918
8551.98
8551.762
8551.246
8550.416
8549.25
8547.728
8545.826
8543.521
8540.785
8537.598
8533.94
8529.819
8525.275
8520.431
8515.442
8510.57
8506.152
8502.431
8497.989
5091.785
5154.515
5230.799
5321.707
5444.752
5575.927
5750.985
5945.469
6154.07
6361.894
6571.379
6788.214
6994.088
7186.962
7359.006
7503.707
7618.393
7702.489
7757.475
7785.944
7791.356
7777.964
7749.124
7706.747
7654.363
7595.219
7531.582
7465.299
7397.875
7331.123
7268.725
7113.825
7055.297
7000.637
6945.638
6892.922
6844.531
6800.902
6761.748
6726.729
6695.684
6669.038
6646.475
6627.842
6613.385
6603.244
6597.325
6595.432
6597.334
6602.754
6611.774
6623.757
6638.667
6656.812
6678.179
6702.432
6729.226
6758.315
6789.474
6822.301
6856.406
6891.532
6927.587
6964.563
7001.977
7039.74
7077.434
7116.12
7156.259
7192.093
7224.977
7257.849
7291.321
7324.46
7356.402
7386.888
7416.014
7443.833
7470.408
7495.761
7520.025
7543.265
7565.464
7586.634
7606.825
7626.11
7644.491
7662.021
7678.733
7694.668
7709.943
7724.565
7738.494
7751.736
7764.34
7776.334
7787.745
7798.572
7808.809
7818.505
7827.731
7836.543
7844.972
7853.067
7860.856
7868.339
7875.644
7882.58
7889.277
7895.974
7902.695
7909.464
7916.261
7923.152
7930.171
7937.342
7944.685
7952.235
7960.03
7968.103
7976.468
7985.126
7994.06
8003.232
8012.551
8021.841
8030.685
8039.192
8047.681
8056.039
8063.948
8071.343
8078.373
8085.158
8091.724
8098.063
8104.169
8110.043
8115.68
8121.082
8126.256
8131.228
8136.046
8140.79
8145.556
8150.445
8155.46
8160.507
8165.543
8170.245
8173.879
8176
8176.54
8175.631
8173.608
8171.748
8170.974
8171.083
8171.475
8171.831
8172.104
8172.31
8172.441
8172.476
8172.405
8172.228
8171.951
8171.582
8171.127
8170.59
8169.979
8169.298
8168.554
8167.751
8166.894
8165.987
8165.035
8164.041
8163.008
8161.941
8160.841
8159.713
8158.559
8157.383
8156.186
8154.973
8153.746
8152.507
8151.259
8150.003
8148.742
8147.479
8146.217
8144.957
8143.704
8142.458
8141.223
8140.002
8138.799
8137.622
8136.478
8135.38
8134.34
8133.368
8132.46
8131.589
8130.712
8129.815
8128.919
8128.046
8127.208
8126.405
8125.636
8124.902
8124.206
8123.548
8122.932
8122.356
8121.822
8121.33
8120.88
8120.47
8120.101
8119.771
8119.478
8119.221
8118.996
8118.802
8118.633
8118.488
8118.362
8118.251
8118.151
8118.056
8117.964
8117.868
8117.764
8117.649
8117.517
8117.365
8117.188
8116.983
8116.745
8116.471
8116.158
8115.803
8115.401
8114.954
8114.458
8113.922
8113.373
8112.811
8112.267
8111.738
8111.195
8110.53
8109.731
8108.816
8107.802
8106.718
8105.552
8104.308
8102.986
8101.553
8100.091
8098.542
8096.907
8095.186
8093.369
8091.464
8089.468
8087.378
8085.19
8082.906
8080.519
8078.023
8075.415
8072.689
8069.839
8066.86
8063.745
8060.487
8057.082
8053.529
8049.841
8046.051
8042.225
8038.473
8034.949
8031.882
8029.372
8027.37
8025.618
8023.839
8021.932
8019.906
8017.783
8015.569
8013.264
8010.873
8008.403
8005.864
8003.264
8000.611
7997.914
7995.179
7992.413
7989.625
7986.821
7984.008
7981.193
7978.383
7975.585
7972.804
7970.049
7967.325
7964.638
7961.997
7959.404
7956.87
7954.39
7951.973
7949.591
7947.232
7944.905
7942.785
7940.783
7938.72
7936.628
7934.644
7932.843
7931.218
7929.739
7928.392
7927.182
7926.115
7925.195
7924.419
7923.788
7923.301
7922.962
7922.77
7922.728
7922.838
7923.101
7923.521
7924.097
7924.834
7925.732
7926.795
7928.024
7929.421
7930.989
7932.73
7934.645
7936.736
7939.005
7941.453
7944.081
7946.892
7949.886
7953.063
7956.424
7959.965
7963.682
7967.565
7971.6
7975.768
7980.044
7984.394
7988.789
7993.22
7997.723
8002.337
8007.092
8011.969
8016.983
8022.142
8027.464
8032.722
8037.893
8043.14
8048.551
8054.105
8059.752
8065.468
8071.246
8077.083
8082.97
8088.894
8094.844
8100.81
8106.785
8112.759
8118.727
8124.678
8130.608
8136.508
8142.371
8148.192
8153.965
8159.684
8165.345
8170.941
8176.469
8181.923
8187.301
8192.599
8197.813
8202.939
8207.976
8212.921
8217.771
8222.525
8227.18
8231.734
8236.188
8240.54
8244.783
8248.929
8252.95
8256.856
8260.662
8264.362
8267.942
8271.405
8274.738
8277.947
8281.028
8283.977
8286.789
8289.459
8291.982
8294.353
8296.564
8298.608
8300.48
8302.171
8303.672
8304.973
8306.065
8306.937
8307.575
8307.968
8308.101
8307.961
8307.531
8306.794
8305.734
8304.333
8302.571
8300.431
8297.897
8294.961
8291.617
8287.894
8283.818
8279.504
8275.013
8270.636
8266.312
8262.138
8256.016
4965.481
4951.276
4937.852
4899.974
4873.732
4817.727
4797.064
4781.892
4773.953
4775.506
4788.869
4815.517
4861.287
4927.762
5016.003
5130.416
5237.288
5407.708
5598.517
5804.999
6022.65
6247.969
6472.88
6687.074
6882.083
7051.084
7190.656
7299.001
7376.475
7425.104
7448.001
7448.821
7431.33
7399.049
7354.914
7301.676
7242.032
7178.383
7112.453
7045.583
6978.694
6912.54
6847.083
6785.923
6729.793
6676.062
6624.928
6577.675
6534.845
6496.299
6461.96
6431.83
6405.749
6383.631
6365.665
6351.931
6342.386
6336.913
6335.358
6337.559
6343.445
6352.746
6364.986
6380.332
6399.028
6420.91
6445.654
6472.864
6502.277
6533.587
6566.691
6601.3
6637.1
6673.927
6711.558
6749.852
6788.443
6827.525
6866.154
6904.089
6940.869
6976.194
7010.612
7044.529
7077.739
7109.84
7140.618
7170.075
7198.266
7225.255
7251.032
7275.609
7299.057
7321.443
7342.821
7363.229
7382.716
7401.31
7419.062
7435.984
7452.084
7467.438
7482.105
7496.097
7509.418
7522.087
7534.12
7545.535
7556.347
7566.573
7576.256
7585.45
7594.203
7602.553
7610.534
7618.179
7625.522
7632.651
7639.525
7646.198
7652.788
7659.41
7666.079
7672.684
7679.416
7686.281
7693.306
7700.512
7707.924
7715.573
7723.481
7731.657
7740.096
7748.772
7757.639
7766.611
7775.564
7784.307
7792.82
7801.192
7809.389
7817.27
7824.77
7831.938
7838.843
7845.512
7851.946
7858.146
7864.117
7869.855
7875.359
7880.64
7885.722
7890.641
7895.448
7900.198
7904.933
7909.644
7914.257
7918.656
7922.619
7925.77
7927.823
7928.709
7928.576
7927.718
7926.747
7926.208
7926.168
7926.373
7926.605
7926.788
7926.915
7926.976
7926.957
7926.846
7926.642
7926.347
7925.966
7925.503
7924.964
7924.352
7923.673
7922.932
7922.133
7921.281
7920.38
7919.433
7918.445
7917.418
7916.356
7915.262
7914.139
7912.99
7911.817
7910.624
7909.414
7908.189
7906.952
7905.705
7904.451
7903.192
7901.931
7900.67
7899.413
7898.162
7896.92
7895.69
7894.475
7893.281
7892.113
7890.977
7889.881
7888.831
7887.832
7886.881
7885.965
7885.062
7884.161
7883.267
7882.394
7881.552
7880.743
7879.969
7879.229
7878.527
7877.863
7877.239
7876.655
7876.113
7875.611
7875.15
7874.73
7874.35
7874.009
7873.705
7873.437
7873.202
7872.997
7872.819
7872.664
7872.53
7872.411
7872.303
7872.203
7872.104
7872.004
7871.898
7871.782
7871.653
7871.504
7871.333
7871.136
7870.909
7870.65
7870.355
7870.023
7869.651
7869.238
7868.786
7868.3
7867.79
7867.257
7866.711
7866.145
7865.549
7864.893
7864.144
7863.286
7862.321
7861.27
7860.141
7858.935
7857.648
7856.309
7854.837
7853.292
7851.672
7849.97
7848.169
7846.299
7844.335
7842.274
7840.111
7837.861
7835.508
7833.048
7830.479
7827.798
7825.001
7822.086
7819.051
7815.895
7812.62
7809.236
7805.761
7802.226
7798.683
7795.222
7791.968
7788.993
7786.369
7784.074
7781.976
7779.913
7777.798
7775.613
7773.358
7771.035
7768.638
7766.171
7763.636
7761.04
7758.389
7755.691
7752.952
7750.178
7747.376
7744.553
7741.716
7738.87
7736.024
7733.182
7730.353
7727.541
7724.755
7721.999
7719.279
7716.603
7713.974
7711.398
7708.874
7706.406
7703.987
7701.628
7699.364
7697.144
7694.89
7692.682
7690.613
7688.721
7686.996
7685.414
7683.958
7682.625
7681.421
7680.351
7679.419
7678.627
7677.977
7677.47
7677.108
7676.895
7676.83
7676.918
7677.159
7677.556
7678.111
7678.826
7679.703
7680.746
7681.955
7683.333
7684.882
7686.604
7688.501
7690.574
7692.826
7695.256
7697.866
7700.658
7703.63
7706.784
7710.116
7713.624
7717.302
7721.141
7725.131
7729.255
7733.494
7737.827
7742.24
7746.726
7751.3
7755.981
7760.789
7765.719
7770.773
7775.93
7781.161
7786.424
7791.742
7797.162
7802.696
7808.324
7814.024
7819.784
7825.602
7831.476
7837.397
7843.356
7849.34
7855.341
7861.349
7867.358
7873.359
7879.345
7885.308
7891.241
7897.138
7902.991
7908.797
7914.548
7920.239
7925.865
7931.423
7936.907
7942.313
7947.639
7952.88
7958.033
7963.096
7968.066
7972.94
7977.718
7982.397
7986.975
7991.452
7995.836
8000.098
8004.247
8008.304
8012.247
8016.074
8019.788
8023.385
8026.865
8030.223
8033.458
8036.566
8039.543
8042.386
8045.088
8047.646
8050.054
8052.306
8054.395
8056.313
8058.055
8059.61
8060.97
8062.124
8063.062
8063.773
8064.243
8064.46
8064.411
8064.08
8063.453
8062.515
8061.25
8059.644
8057.684
8055.359
8052.669
8049.614
8046.224
8042.514
8038.587
8034.445
8030.341
8025.969
8021.648
8015.007
4985.781
4969.69
4949.273
4914.226
4890.918
4832.721
4808.108
4783.234
4757.916
4732.121
4706.025
4679.852
4653.157
4626.669
4599.79
4511.155
4488.966
4471.081
4459.635
4456.789
4465.091
4487.574
4528.113
4589.702
4672.747
4780.591
4917.247
5083.132
5272.209
5480.583
5702.139
5934.638
6162.127
6378.144
6573.757
6742.837
6881.804
6989.319
7066.033
7114.24
7137.203
7138.628
7122.252
7091.582
7049.647
6999.054
6942.243
6881.401
6818.163
6753.849
6689.305
6625.839
6564.269
6505.367
6450.272
6398.488
6349.626
6304.055
6262.229
6224.443
6190.889
6161.512
6136.188
6114.916
6097.771
6084.751
6075.788
6070.79
6069.649
6072.245
6078.436
6087.998
6100.75
6116.716
6135.9
6158.017
6182.994
6210.575
6240.42
6272.295
6306.026
6341.37
6378.027
6415.763
6454.32
6493.531
6533.034
6572.646
6611.743
6650.328
6688.275
6725.102
6760.724
6795.375
6829.117
6861.782
6893.188
6923.27
6952.045
6979.548
7005.79
7030.8
7054.647
7077.401
7099.115
7119.829
7139.584
7158.421
7176.376
7193.477
7209.753
7225.26
7240.046
7254.135
7267.532
7280.25
7292.309
7303.732
7314.543
7324.766
7334.439
7343.604
7352.307
7360.588
7368.484
7376.039
7383.29
7390.296
7397.075
7403.666
7410.142
7416.583
7423.006
7429.585
7436.207
7442.915
7449.787
7456.847
7464.11
7471.6
7479.333
7487.315
7495.534
7503.963
7512.556
7521.242
7529.934
7538.529
7546.975
7555.26
7563.351
7571.184
7578.715
7585.951
7592.926
7599.66
7606.154
7612.413
7618.454
7624.275
7629.861
7635.217
7640.361
7645.321
7650.129
7654.815
7659.392
7663.843
7668.1
7672.056
7675.561
7678.404
7680.414
7681.551
7681.927
7681.757
7681.376
7681.114
7681.092
7681.221
7681.378
7681.499
7681.567
7681.573
7681.507
7681.36
7681.129
7680.815
7680.419
7679.946
7679.4
7678.785
7678.105
7677.365
7676.568
7675.719
7674.822
7673.88
7672.896
7671.874
7670.816
7669.727
7668.608
7667.463
7666.294
7665.105
7663.897
7662.674
7661.439
7660.194
7658.941
7657.684
7656.424
7655.166
7653.91
7652.662
7651.423
7650.196
7648.986
7647.797
7646.632
7645.499
7644.401
7643.342
7642.323
7641.344
7640.397
7639.471
7638.559
7637.663
7636.789
7635.944
7635.132
7634.354
7633.61
7632.903
7632.234
7631.604
7631.014
7630.464
7629.955
7629.487
7629.06
7628.672
7628.324
7628.013
7627.738
7627.496
7627.285
7627.101
7626.942
7626.802
7626.679
7626.567
7626.463
7626.362
7626.26
7626.154
7626.04
7625.915
7625.77
7625.603
7625.412
7625.194
7624.947
7624.668
7624.354
7624.005
7623.62
7623.199
7622.745
7622.261
7621.749
7621.211
7620.643
7620.036
7619.37
7618.622
7617.778
7616.843
7615.825
7614.73
7613.555
7612.302
7610.976
7609.562
7608.067
7606.487
7604.82
7603.08
7601.23
7599.29
7597.254
7595.099
7592.904
7590.593
7588.175
7585.65
7583.019
7580.278
7577.431
7574.478
7571.422
7568.268
7565.03
7561.729
7558.387
7555.034
7551.831
7548.702
7545.777
7543.083
7540.606
7538.273
7535.996
7533.707
7531.379
7529.002
7526.571
7524.082
7521.533
7518.928
7516.269
7513.561
7510.811
7508.023
7505.203
7502.358
7499.494
7496.616
7493.732
7490.847
7487.968
7485.101
7482.252
7479.427
7476.633
7473.876
7471.16
7468.49
7465.871
7463.304
7460.795
7458.344
7455.956
7453.63
7451.337
7449.087
7446.935
7444.92
7443.044
7441.3
7439.683
7438.192
7436.829
7435.596
7434.499
7433.539
7432.719
7432.041
7431.507
7431.119
7430.878
7430.788
7430.849
7431.065
7431.436
7431.967
7432.658
7433.512
7434.532
7435.719
7437.075
7438.603
7440.305
7442.182
7444.235
7446.467
7448.878
7451.469
7454.24
7457.192
7460.322
7463.629
7467.11
7470.758
7474.566
7478.524
7482.62
7486.84
7491.171
7495.603
7500.13
7504.759
7509.498
7514.355
7519.33
7524.416
7529.598
7534.868
7540.22
7545.653
7551.166
7556.763
7562.439
7568.187
7573.998
7579.869
7585.793
7591.763
7597.767
7603.797
7609.842
7615.896
7621.949
7627.993
7634.021
7640.026
7646
7651.937
7657.831
7663.675
7669.463
7675.191
7680.853
7686.444
7691.962
7697.4
7702.757
7708.028
7713.21
7718.301
7723.299
7728.2
7733.004
7737.707
7742.31
7746.812
7751.199
7755.498
7759.678
7763.751
7767.712
7771.562
7775.299
7778.922
7782.427
7785.812
7789.075
7792.213
7795.221
7798.097
7800.836
7803.434
7805.884
7808.181
7810.319
7812.291
7814.089
7815.706
7817.131
7818.356
7819.37
7820.162
7820.721
7821.033
7821.086
7820.867
7820.362
7819.558
7818.441
7817
7815.226
7813.11
7810.655
7807.861
7804.754
7801.342
7797.706
7793.805
7789.858
7785.463
7781.195
7774.418
4910.935
4853.421
4813.631
4774.733
4740.382
4711.652
4685.409
4660.847
4637.627
4613.122
4524.632
4500.002
4475.197
4450.081
4424.469
4398.37
4371.885
4344.903
4316.598
4289.695
4263.898
4238.969
4216.759
4199.4
4189.455
4189.847
4204.068
4236.124
4287.831
4364.92
4469.991
4602.824
4765.457
4955.952
5165.465
5389.612
5621.012
5848.28
6062.276
6254.831
6420.171
6555.229
6659.266
6733.386
6780.137
6802.862
6805.191
6790.699
6762.674
6724.025
6677.214
6624.425
6567.562
6508.234
6447.726
6387.063
6327.301
6269.119
6213.081
6160.042
6110.26
6063.553
6019.924
5979.733
5943.42
5911.186
5883.029
5858.895
5838.768
5822.648
5810.516
5802.323
5797.999
5797.455
5800.581
5807.242
5817.301
5830.619
5847.095
5866.637
5889.376
5914.909
5943.014
5973.48
6006.097
6040.654
6076.911
6114.585
6153.411
6193.112
6233.444
6274.07
6314.712
6355.044
6394.899
6434.051
6472.155
6509.053
6544.82
6579.511
6613.041
6645.274
6676.134
6705.618
6733.754
6760.578
6786.132
6810.475
6833.668
6855.767
6876.818
6896.869
6915.964
6934.144
6951.449
6967.917
6983.588
6998.503
7012.686
7026.153
7038.923
7051.018
7062.463
7073.284
7083.509
7093.172
7102.312
7110.972
7119.195
7127.021
7134.495
7141.657
7148.556
7155.233
7161.73
7168.109
7174.44
7180.772
7187.169
7193.631
7200.217
7206.933
7213.833
7220.936
7228.256
7235.803
7243.581
7251.576
7259.763
7268.098
7276.525
7284.976
7293.381
7301.688
7309.856
7317.852
7325.639
7333.174
7340.445
7347.464
7354.24
7360.776
7367.071
7373.13
7378.959
7384.574
7389.968
7395.13
7400.084
7404.853
7409.449
7413.871
7418.097
7422.072
7425.713
7428.916
7431.558
7433.542
7434.85
7435.56
7435.822
7435.843
7435.829
7435.887
7436.006
7436.128
7436.211
7436.239
7436.205
7436.103
7435.925
7435.669
7435.335
7434.924
7434.44
7433.885
7433.265
7432.581
7431.839
7431.042
7430.194
7429.298
7428.358
7427.377
7426.358
7425.304
7424.217
7423.102
7421.959
7420.793
7419.606
7418.401
7417.18
7415.946
7414.702
7413.451
7412.194
7410.936
7409.679
7408.425
7407.179
7405.942
7404.718
7403.511
7402.324
7401.161
7400.026
7398.924
7397.855
7396.822
7395.824
7394.857
7393.914
7392.992
7392.091
7391.215
7390.368
7389.553
7388.771
7388.024
7387.314
7386.641
7386.007
7385.412
7384.858
7384.344
7383.872
7383.44
7383.048
7382.696
7382.381
7382.103
7381.859
7381.646
7381.461
7381.3
7381.16
7381.037
7380.927
7380.824
7380.722
7380.618
7380.511
7380.4
7380.283
7380.149
7379.992
7379.813
7379.609
7379.378
7379.117
7378.825
7378.499
7378.14
7377.746
7377.318
7376.858
7376.365
7375.838
7375.274
7374.663
7373.992
7373.249
7372.424
7371.517
7370.532
7369.468
7368.327
7367.107
7365.809
7364.427
7362.962
7361.411
7359.774
7358.057
7356.249
7354.352
7352.365
7350.308
7348.098
7345.807
7343.423
7340.94
7338.354
7335.671
7332.894
7330.021
7327.056
7324.009
7320.893
7317.737
7314.564
7311.429
7308.274
7305.238
7302.344
7299.604
7297.009
7294.518
7292.078
7289.643
7287.186
7284.693
7282.158
7279.576
7276.945
7274.265
7271.538
7268.767
7265.959
7263.116
7260.244
7257.349
7254.436
7251.512
7248.582
7245.652
7242.729
7239.818
7236.925
7234.057
7231.22
7228.418
7225.658
7222.943
7220.279
7217.669
7215.117
7212.626
7210.195
7207.826
7205.52
7203.292
7201.162
7199.144
7197.245
7195.468
7193.817
7192.294
7190.9
7189.638
7188.511
7187.522
7186.673
7185.966
7185.403
7184.986
7184.718
7184.599
7184.634
7184.823
7185.168
7185.673
7186.34
7187.17
7188.165
7189.329
7190.663
7192.17
7193.85
7195.706
7197.74
7199.953
7202.345
7204.917
7207.67
7210.603
7213.714
7217.001
7220.461
7224.088
7227.875
7231.815
7235.898
7240.114
7244.452
7248.906
7253.471
7258.147
7262.938
7267.847
7272.87
7278.003
7283.239
7288.573
7293.997
7299.501
7305.084
7310.746
7316.486
7322.298
7328.175
7334.109
7340.094
7346.121
7352.18
7358.264
7364.363
7370.468
7376.571
7382.665
7388.742
7394.795
7400.815
7406.797
7412.734
7418.62
7424.45
7430.217
7435.917
7441.545
7447.098
7452.57
7457.959
7463.26
7468.472
7473.592
7478.616
7483.544
7488.372
7493.101
7497.728
7502.249
7506.665
7510.975
7515.176
7519.269
7523.253
7527.125
7530.885
7534.531
7538.061
7541.473
7544.764
7547.932
7550.973
7553.885
7556.662
7559.301
7561.796
7564.143
7566.334
7568.363
7570.224
7571.907
7573.405
7574.707
7575.805
7576.687
7577.342
7577.758
7577.923
7577.825
7577.451
7576.789
7575.827
7574.556
7572.967
7571.054
7568.818
7566.261
7563.4
7560.236
7556.827
7553.114
7549.288
7544.909
7540.732
7533.926
4637.902
4578.888
4471.919
4443.003
4415.989
4391.434
4368.444
4346.189
4323.998
4301.654
4279.157
4255.515
4231.334
4206.63
4181.418
4155.358
4128.468
4100.813
4071.821
4042.294
4013.353
3985.24
3959.028
3936.706
3921.007
3915.251
3922.898
3947.118
3994.112
4066.606
4168.055
4299.05
4460.219
4648.753
4858.169
5081.372
5309.356
5531.675
5739.039
5924.111
6081.974
6210.272
6308.865
6379.325
6424.342
6447.177
6451.194
6439.642
6415.461
6381.302
6339.402
6291.685
6239.881
6185.382
6129.437
6073.202
6017.495
5962.913
5910.129
5859.859
5812.51
5768.157
5726.867
5688.89
5654.549
5624.043
5597.438
5574.735
5555.918
5540.977
5529.897
5522.646
5519.164
5519.371
5523.172
5530.46
5541.133
5555.059
5572.102
5592.39
5615.71
5641.831
5670.589
5701.817
5735.318
5770.87
5808.233
5847.131
5887.282
5928.387
5970.152
6012.252
6054.392
6096.281
6137.645
6178.229
6217.788