/*--------------------------------*- C++ -*----------------------------------*\
| =========                 |                                                 |
| \\      /  F ield         | foam-extend: Open Source CFD                    |
|  \\    /   O peration     | Version:     3.1                                |
|   \\  /    A nd           | Web:         http://www.extend-project.de       |
|    \\/     M anipulation  |                                                 |
\*---------------------------------------------------------------------------*/
FoamFile
{
    version     2.0;
    format      ascii;
    class       volScalarField;
    location    "5";
    object      pd;
}
// * * * * * * * * * * * * * * * * * * * * * * * * * * * * * * * * * * * * * //

dimensions      [1 -1 -2 0 0 0 0];

internalField   nonuniform List<scalar> 
119952
(
9193.258
9149.459
9142.065
9158.718
9178.367
9178.793
9184.416
9190.088
9196.049
9202.107
9207.997
9213.78
9219.374
9224.726
9229.785
9234.487
9238.72
9242.224
9244.084
9239.112
9277.828
9256.563
9252.351
9300.84
9293.033
9300.811
9305.797
9320.044
9367.17
9564.862
8754.123
8768.426
8783.546
8799.094
8813.919
8828.279
8842.078
8855.351
8867.935
8877.162
8888.922
8900.18
8910.377
8920.059
8929.411
8938.354
8946.966
8955.19
8963.511
8975.855
8979.931
8986.678
8993.672
9000.768
9007.947
9015.195
9022.55
9030.076
9038.001
9044.836
9053.144
9061.349
9069.82
9078.579
9087.609
9096.897
9106.701
9119.142
9137.498
9137.339
9145.785
9157.891
9168.392
9175.473
9181.466
9187.755
9193.954
9200.084
9206.084
9211.922
9217.556
9222.942
9228.038
9232.791
9237.135
9240.99
9244.369
9247.907
9253.667
9258.345
9261.845
9274.007
9289.168
9294.221
9299.305
9303.727
9299.226
9270.322
9266.185
9270.472
9272.735
9274.686
9276.069
9277.012
9277.653
9278.055
9278.258
9278.292
9278.177
9277.935
9277.58
9277.124
9276.579
9275.952
9275.253
9274.489
9273.664
9272.78
9271.85
9270.874
9269.858
9268.804
9267.717
9266.599
9265.453
9264.283
9263.092
9261.88
9260.649
9259.412
9258.168
9256.896
9255.622
9254.35
9253.077
9251.804
9250.532
9249.264
9248
9246.74
9245.484
9244.228
9242.966
9241.68
9240.348
9239.018
9238.263
9238.26
9238.183
9236.967
9235.768
9234.769
9233.83
9232.936
9232.095
9231.302
9230.553
9229.852
9229.197
9228.59
9228.03
9227.517
9227.05
9226.628
9226.25
9225.916
9225.622
9225.366
9225.146
9224.959
9224.8
9224.666
9224.539
9224.444
9224.395
9224.334
9224.24
9224.153
9224.058
9223.95
9223.824
9223.673
9223.494
9223.284
9223.038
9222.754
9222.419
9222.036
9221.595
9221.086
9220.509
9219.867
9219.123
9218.229
9217.111
9215.696
9214.534
9217.36
9216.788
9215.654
9214.398
9213.186
9211.939
9210.643
9209.344
9207.964
9206.437
9204.907
9203.28
9201.596
9199.827
9197.976
9196.043
9194.022
9191.912
9189.707
9187.401
9184.992
9182.473
9179.837
9177.079
9174.188
9171.146
9167.94
9164.548
9160.943
9157.082
9152.903
9148.299
9143.007
9136.68
9128.584
9119.046
9123.127
9124.886
9125.216
9124.567
9123.445
9122.026
9120.333
9118.434
9116.379
9114.187
9111.885
9109.486
9107.009
9104.463
9101.86
9099.21
9096.521
9093.803
9091.064
9088.31
9085.55
9082.792
9080.042
9077.308
9074.598
9071.917
9069.274
9066.675
9064.129
9061.652
9059.273
9056.967
9054.652
9052.278
9064.528
9055.943
9044.983
9043.467
9041.938
9039.508
9037.506
9035.892
9034.407
9033.034
9031.794
9030.748
9029.838
9029.079
9028.469
9028.007
9027.69
9027.521
9027.499
9027.626
9027.903
9028.334
9028.92
9029.665
9030.571
9031.639
9032.871
9034.271
9035.839
9037.579
9039.493
9041.581
9043.846
9046.29
9048.916
9051.726
9054.723
9057.914
9061.302
9064.897
9068.709
9072.759
9077.08
9081.716
9086.61
9091.312
9095.291
9098.992
9103.071
9107.51
9112.167
9117.044
9121.907
9126.01
9125.351
9134.075
9140.676
9145.969
9151.493
9157.12
9162.742
9168.423
9174.18
9179.995
9185.849
9191.735
9197.638
9203.554
9209.476
9215.399
9221.315
9227.216
9233.094
9238.944
9244.757
9250.528
9256.25
9261.919
9267.528
9273.074
9278.551
9283.956
9289.284
9294.533
9299.698
9304.777
9309.768
9314.667
9319.472
9324.182
9328.794
9333.306
9337.717
9342.025
9346.23
9350.326
9354.316
9358.196
9361.967
9365.62
9369.158
9372.576
9375.876
9379.051
9382.094
9385.002
9387.77
9390.393
9392.865
9395.175
9397.313
9399.289
9401.082
9402.694
9404.114
9405.331
9406.333
9407.102
9407.64
9407.925
9407.941
9407.672
9407.101
9406.206
9404.965
9403.351
9401.333
9398.876
9395.934
9392.453
9388.354
9383.544
9377.864
9371.086
9362.829
9352.721
9342.154
9343.352
9378.836
7720.106
7734.135
7747.487
7764.567
7784.462
7807.532
7832.914
7860.763
7890.879
7906.925
7951.966
7985.97
8021.655
8057.913
8094.862
8132.111
8169.355
8206.658
8263.408
8294.805
8320.881
8354.284
8387.084
8418.984
8450.272
8480.506
8509.659
8537.607
8561.801
8587.532
8612.668
8635.696
8657.824
8679.074
8699.411
8718.872
8737.456
8755.048
8770.529
8786.857
8802.678
8817.565
8831.815
8845.432
8858.418
8870.747
8882.331
8893.746
8904.08
8913.892
8923.321
8932.417
8941.171
8949.594
8957.745
8966.021
8975.99
8983.01
8989.528
8996.358
9003.398
9010.485
9017.616
9024.855
9032.245
9039.81
9047.447
9055.206
9063.244
9071.616
9080.321
9089.38
9098.882
9108.982
9119.671
9130.008
9138.436
9146.725
9156.002
9165.033
9172.877
9179.795
9186.364
9192.794
9199.078
9205.178
9211.069
9216.733
9222.149
9227.29
9232.138
9236.695
9241.017
9245.265
9249.742
9254.74
9260.208
9266.393
9273.922
9281.651
9287.2
9289.94
9289.528
9285.119
9277.67
9272.927
9272.512
9273.779
9275.009
9275.848
9276.431
9276.859
9277.145
9277.28
9277.267
9277.12
9276.856
9276.487
9276.023
9275.472
9274.842
9274.142
9273.376
9272.552
9271.672
9270.741
9269.766
9268.75
9267.697
9266.611
9265.493
9264.348
9263.178
9261.986
9260.775
9259.547
9258.307
9257.059
9255.811
9254.556
9253.293
9252.026
9250.758
9249.493
9248.232
9246.977
9245.727
9244.484
9243.248
9242.023
9240.818
9239.664
9238.613
9237.736
9237.06
9236.419
9235.615
9234.679
9233.728
9232.819
9231.961
9231.149
9230.38
9229.652
9228.964
9228.319
9227.718
9227.162
9226.651
9226.183
9225.76
9225.379
9225.04
9224.74
9224.479
9224.252
9224.058
9223.892
9223.751
9223.631
9223.53
9223.445
9223.373
9223.298
9223.214
9223.123
9223.02
9222.901
9222.759
9222.593
9222.395
9222.164
9221.892
9221.579
9221.212
9220.796
9220.312
9219.776
9219.162
9218.519
9217.759
9217.046
9216.314
9215.58
9216.256
9215.951
9214.843
9213.777
9212.694
9211.512
9210.259
9208.937
9207.547
9206.082
9204.54
9202.928
9201.242
9199.476
9197.626
9195.69
9193.665
9191.548
9189.336
9187.025
9184.609
9182.083
9179.441
9176.675
9173.774
9170.729
9167.523
9164.138
9160.547
9156.714
9152.588
9148.104
9143.191
9137.839
9132.461
9128.136
9126.605
9126.717
9126.161
9125.102
9123.8
9122.231
9120.441
9118.479
9116.373
9114.145
9111.811
9109.386
9106.885
9104.32
9101.699
9099.033
9096.331
9093.601
9090.85
9088.087
9085.319
9082.553
9079.796
9077.056
9074.34
9071.654
9069.007
9066.405
9063.858
9061.375
9058.966
9056.636
9054.422
9052.848
9052.573
9051.881
9048.563
9044.492
9041.235
9038.916
9037.093
9035.476
9033.979
9032.61
9031.397
9030.348
9029.458
9028.72
9028.129
9027.684
9027.386
9027.236
9027.235
9027.385
9027.687
9028.144
9028.757
9029.529
9030.463
9031.56
9032.823
9034.253
9035.854
9037.626
9039.572
9041.694
9043.994
9046.473
9049.133
9051.978
9055.011
9058.234
9061.651
9065.269
9069.089
9073.116
9077.335
9081.708
9086.155
9090.578
9094.872
9099.072
9103.363
9107.867
9112.552
9117.379
9122.255
9127.003
9131.176
9135.505
9140.801
9146.691
9152.617
9158.385
9164.06
9169.749
9175.504
9181.324
9187.188
9193.076
9198.981
9204.898
9210.823
9216.749
9222.667
9228.57
9234.45
9240.301
9246.115
9251.886
9257.609
9263.278
9268.887
9274.432
9279.909
9285.313
9290.64
9295.887
9301.051
9306.127
9311.115
9316.011
9320.813
9325.519
9330.127
9334.635
9339.041
9343.344
9347.543
9351.636
9355.62
9359.494
9363.259
9366.911
9370.444
9373.854
9377.155
9380.317
9383.349
9386.246
9389.004
9391.617
9394.079
9396.393
9398.527
9400.488
9402.273
9403.874
9405.28
9406.481
9407.466
9408.228
9408.748
9409.015
9409.013
9408.726
9408.135
9407.222
9405.963
9404.338
9402.311
9399.862
9396.941
9393.526
9389.544
9384.99
9379.799
9374.098
9368.125
9362.631
9358.485
9355.862
9352.997
8080.127
8278.63
8451.723
8599.446
8716.519
8802.853
8859.724
8889.558
8895.232
8878.502
8843.157
8799.394
8745.376
8684.465
8618.746
8550.196
8480.402
8410.523
8343.529
8264.913
8201.447
8140.405
8082.473
8028.305
7978.198
7932.451
7891.2
7854.525
7823.732
7791.898
7766.805
7747.369
7731.828
7720.357
7713.093
7709.875
7710.725
7716.829
7722.441
7729.35
7744.978
7763.623
7784.312
7807.905
7834.129
7862.535
7892.792
7923.951
7958.586
7993.515
8028.681
8064.732
8101.456
8138.662
8175.812
8213.036
8265.453
8302.411
8332.499
8363.291
8395.788
8428.388
8459.873
8489.99
8518.881
8546.642
8572.986
8597.63
8621.29
8644.267
8666.382
8687.508
8707.676
8726.954
8745.399
8762.933
8779.266
8794.849
8810.089
8824.809
8838.856
8852.204
8864.882
8876.882
8888.308
8899.137
8909.368
8919.09
8928.369
8937.26
8945.764
8953.935
8961.743
8969.587
8977.476
8984.332
8990.934
8997.732
9004.661
9011.615
9018.593
9025.655
9032.848
9040.188
9047.663
9055.329
9063.258
9071.485
9080.029
9088.905
9098.125
9107.669
9117.448
9127.216
9136.075
9144.457
9153.149
9161.777
9169.703
9176.899
9183.711
9190.329
9196.762
9202.985
9208.984
9214.752
9220.279
9225.556
9230.583
9235.385
9240.021
9244.604
9249.292
9254.293
9259.648
9265.208
9271.154
9277.066
9281.486
9283.697
9283.773
9281.683
9277.627
9274.44
9273.596
9274.164
9274.924
9275.481
9275.881
9276.188
9276.399
9276.491
9276.456
9276.302
9276.038
9275.676
9275.222
9274.684
9274.069
9273.383
9272.631
9271.819
9270.954
9270.039
9269.079
9268.077
9267.037
9265.963
9264.857
9263.723
9262.563
9261.382
9260.181
9258.964
9257.734
9256.496
9255.248
9253.991
9252.728
9251.461
9250.196
9248.933
9247.676
9246.425
9245.182
9243.951
9242.735
9241.541
9240.379
9239.269
9238.236
9237.307
9236.474
9235.68
9234.828
9233.909
9232.986
9232.101
9231.261
9230.464
9229.703
9228.978
9228.291
9227.644
9227.038
9226.475
9225.954
9225.475
9225.039
9224.644
9224.289
9223.974
9223.697
9223.454
9223.244
9223.063
9222.908
9222.775
9222.662
9222.562
9222.469
9222.379
9222.291
9222.2
9222.1
9221.986
9221.852
9221.696
9221.512
9221.298
9221.047
9220.758
9220.425
9220.046
9219.616
9219.136
9218.596
9217.994
9217.397
9216.749
9216.159
9215.705
9215.456
9214.964
9214.159
9213.13
9212.017
9210.847
9209.622
9208.327
9206.957
9205.501
9203.977
9202.377
9200.698
9198.936
9197.088
9195.152
9193.127
9191.008
9188.793
9186.479
9184.06
9181.532
9178.888
9176.122
9173.226
9170.192
9167.006
9163.657
9160.128
9156.403
9152.472
9148.346
9144.09
9139.865
9135.963
9132.729
9130.462
9128.95
9127.636
9126.173
9124.497
9122.645
9120.656
9118.548
9116.328
9114.007
9111.595
9109.105
9106.548
9103.934
9101.271
9098.567
9095.832
9093.071
9090.294
9087.507
9084.717
9081.932
9079.158
9076.403
9073.672
9070.974
9068.314
9065.701
9063.14
9060.644
9058.209
9055.853
9053.554
9051.324
9048.715
9045.242
9042.422
9040.449
9038.886
9037.404
9035.959
9034.577
9033.268
9032.042
9030.924
9029.932
9029.074
9028.35
9027.763
9027.314
9027.008
9026.847
9026.833
9026.968
9027.256
9027.698
9028.296
9029.054
9029.972
9031.054
9032.302
9033.717
9035.302
9037.06
9038.991
9041.098
9043.383
9045.847
9048.493
9051.321
9054.335
9057.537
9060.927
9064.506
9068.273
9072.217
9076.323
9080.559
9084.894
9089.273
9093.648
9097.998
9102.408
9106.948
9111.661
9116.478
9121.393
9126.38
9131.808
9137.371
9142.734
9147.975
9153.254
9158.636
9164.123
9169.713
9175.402
9181.174
9187.008
9192.882
9198.783
9204.704
9210.637
9216.574
9222.506
9228.426
9234.323
9240.193
9246.027
9251.82
9257.565
9263.256
9268.889
9274.458
9279.959
9285.388
9290.74
9296.011
9301.2
9306.302
9311.315
9316.236
9321.063
9325.795
9330.428
9334.961
9339.393
9343.723
9347.946
9352.071
9356.086
9359.996
9363.788
9367.454
9371.007
9374.442
9377.743
9380.932
9383.99
9386.913
9389.698
9392.339
9394.83
9397.165
9399.34
9401.348
9403.179
9404.827
9406.282
9407.534
9408.574
9409.389
9409.966
9410.293
9410.355
9410.137
9409.621
9408.791
9407.625
9406.103
9404.201
9401.896
9399.16
9395.973
9392.315
9388.194
9383.65
9378.806
9373.816
9368.945
9364.527
9360.806
9356.364
6108.989
6160.165
6232.976
6333.363
6456.409
6618.24
6793.297
6987.781
7196.383
7404.206
7613.691
7830.527
8036.401
8229.275
8401.319
8546.02
8660.706
8744.801
8799.788
8828.257
8833.669
8820.277
8791.437
8749.059
8696.675
8637.532
8573.894
8507.611
8440.188
8373.436
8311.038
8217.45
8158.922
8104.262
8049.263
7996.547
7948.156
7904.527
7865.373
7830.354
7799.309
7772.663
7750.1
7731.467
7717.01
7706.869
7700.95
7699.057
7700.959
7706.379
7715.399
7727.382
7742.292
7760.437
7781.804
7806.057
7832.851
7861.94
7893.099
7925.925
7960.031
7995.157
8031.212
8068.188
8105.602
8143.365
8181.059
8219.745
8259.884
8295.718
8328.602
8361.473
8394.946
8428.085
8460.027
8490.513
8519.639
8547.458
8574.033
8599.386
8623.649
8646.89
8669.089
8690.259
8710.45
8729.735
8748.116
8765.646
8782.358
8798.293
8813.568
8828.19
8842.119
8855.361
8867.965
8879.959
8891.37
8902.197
8912.434
8922.13
8931.356
8940.168
8948.597
8956.692
8964.481
8971.964
8979.27
8986.205
8992.902
8999.599
9006.32
9013.089
9019.886
9026.777
9033.796
9040.967
9048.31
9055.86
9063.656
9071.728
9080.093
9088.751
9097.685
9106.857
9116.176
9125.467
9134.31
9142.817
9151.306
9159.664
9167.573
9174.968
9181.998
9188.783
9195.349
9201.688
9207.794
9213.668
9219.305
9224.707
9229.881
9234.853
9239.671
9244.415
9249.181
9254.07
9259.085
9264.132
9269.168
9273.87
9277.504
9279.625
9280.165
9279.256
9277.233
9275.373
9274.599
9274.708
9275.1
9275.456
9275.729
9275.935
9276.066
9276.101
9276.03
9275.853
9275.576
9275.207
9274.752
9274.215
9273.604
9272.923
9272.179
9271.376
9270.519
9269.612
9268.66
9267.666
9266.633
9265.566
9264.466
9263.338
9262.184
9261.008
9259.811
9258.598
9257.371
9256.132
9254.884
9253.628
9252.367
9251.104
9249.842
9248.583
9247.329
9246.083
9244.848
9243.627
9242.425
9241.247
9240.103
9239.005
9237.965
9236.994
9236.085
9235.214
9234.337
9233.44
9232.544
9231.671
9230.833
9230.03
9229.261
9228.527
9227.831
9227.173
9226.557
9225.981
9225.447
9224.955
9224.505
9224.095
9223.726
9223.396
9223.103
9222.846
9222.621
9222.427
9222.258
9222.113
9221.987
9221.876
9221.776
9221.681
9221.589
9221.493
9221.389
9221.274
9221.142
9220.99
9220.813
9220.608
9220.37
9220.096
9219.783
9219.428
9219.026
9218.579
9218.083
9217.547
9216.998
9216.436
9215.892
9215.364
9214.82
9214.155
9213.356
9212.441
9211.427
9210.343
9209.177
9207.933
9206.611
9205.178
9203.716
9202.167
9200.532
9198.811
9196.994
9195.089
9193.093
9191.003
9188.816
9186.531
9184.144
9181.648
9179.04
9176.314
9173.464
9170.485
9167.37
9164.112
9160.707
9157.154
9153.466
9149.676
9145.85
9142.098
9138.574
9135.507
9132.997
9130.995
9129.243
9127.464
9125.557
9123.531
9121.408
9119.194
9116.889
9114.498
9112.028
9109.489
9106.889
9104.236
9101.539
9098.804
9096.038
9093.25
9090.446
9087.633
9084.819
9082.008
9079.21
9076.429
9073.674
9070.95
9068.263
9065.622
9063.029
9060.495
9058.015
9055.598
9053.216
9050.857
9048.53
9046.41
9044.408
9042.345
9040.253
9038.269
9036.468
9034.843
9033.364
9032.017
9030.807
9029.74
9028.82
9028.044
9027.413
9026.926
9026.587
9026.395
9026.353
9026.463
9026.726
9027.146
9027.722
9028.459
9029.357
9030.42
9031.649
9033.046
9034.614
9036.355
9038.27
9040.361
9042.63
9045.078
9047.706
9050.517
9053.511
9056.688
9060.049
9063.59
9067.307
9071.19
9075.225
9079.393
9083.669
9088.019
9092.414
9096.845
9101.348
9105.962
9110.717
9115.594
9120.608
9125.767
9131.089
9136.347
9141.518
9146.765
9152.176
9157.73
9163.377
9169.093
9174.871
9180.708
9186.595
9192.519
9198.469
9204.435
9210.41
9216.384
9222.352
9228.303
9234.233
9240.133
9245.996
9251.817
9257.59
9263.309
9268.97
9274.566
9280.094
9285.548
9290.926
9296.224
9301.438
9306.564
9311.601
9316.546
9321.396
9326.15
9330.805
9335.359
9339.813
9344.165
9348.408
9352.554
9356.575
9360.481
9364.287
9367.987
9371.567
9375.03
9378.363
9381.572
9384.653
9387.602
9390.414
9393.084
9395.607
9397.978
9400.189
9402.233
9404.105
9405.796
9407.297
9408.598
9409.69
9410.562
9411.2
9411.593
9411.726
9411.586
9411.156
9410.419
9409.359
9407.958
9406.196
9404.056
9401.522
9398.586
9395.242
9391.519
9387.443
9383.129
9378.638
9374.261
9369.937
9365.763
9359.641
6233.826
6207.904
6183.455
6156.88
6130.638
6105.289
6084.626
6069.454
6061.515
6063.068
6076.432
6103.08
6148.849
6215.324
6303.566
6417.979
6586.163
6756.583
6947.392
7153.874
7371.525
7596.844
7821.755
8035.949
8230.958
8399.96
8539.531
8647.876
8725.35
8773.979
8796.876
8797.696
8780.205
8747.924
8703.789
8650.552
8590.907
8527.258
8461.328
8394.458
8327.569
8261.416
8195.958
8134.798
8078.669
8024.937
7973.803
7926.55
7883.72
7845.174
7810.835
7780.705
7754.624
7732.506
7714.54
7700.806
7691.261
7685.788
7684.233
7686.434
7692.32
7701.621
7713.861
7729.207
7747.903
7769.785
7794.529
7821.739
7851.151
7882.462
7915.566
7950.175
7985.975
8022.802
8060.433
8098.727
8137.318
8176.4
8215.029
8252.964
8289.744
8325.069
8359.487
8393.404
8426.613
8458.715
8489.493
8518.95
8547.141
8574.129
8599.906
8624.484
8647.931
8670.318
8691.696
8712.104
8731.591
8750.185
8767.937
8784.859
8800.959
8816.313
8830.98
8844.972
8858.293
8870.962
8882.995
8894.41
8905.222
8915.448
8925.131
8934.325
8943.078
8951.428
8959.409
8967.054
8974.397
8981.526
8988.4
8995.073
9001.663
9008.285
9014.954
9021.559
9028.291
9035.156
9042.181
9049.387
9056.799
9064.448
9072.356
9080.532
9088.971
9097.647
9106.514
9115.486
9124.439
9133.182
9141.695
9150.067
9158.264
9166.145
9173.645
9180.814
9187.718
9194.387
9200.821
9207.021
9212.992
9218.73
9224.234
9229.516
9234.597
9239.516
9244.323
9249.073
9253.808
9258.519
9263.132
9267.531
9271.494
9274.645
9276.698
9277.584
9277.451
9276.593
9275.622
9275.083
9275.043
9275.248
9275.48
9275.663
9275.79
9275.851
9275.832
9275.721
9275.517
9275.222
9274.841
9274.378
9273.839
9273.227
9272.548
9271.807
9271.008
9270.156
9269.255
9268.308
9267.32
9266.293
9265.231
9264.137
9263.014
9261.865
9260.692
9259.499
9258.289
9257.064
9255.827
9254.58
9253.326
9252.067
9250.806
9249.545
9248.288
9247.037
9245.795
9244.565
9243.35
9242.156
9240.988
9239.852
9238.756
9237.706
9236.707
9235.756
9234.84
9233.937
9233.036
9232.142
9231.269
9230.427
9229.618
9228.844
9228.104
9227.402
9226.738
9226.114
9225.53
9224.988
9224.486
9224.025
9223.605
9223.225
9222.884
9222.58
9222.312
9222.077
9221.872
9221.694
9221.539
9221.405
9221.286
9221.178
9221.078
9220.979
9220.879
9220.773
9220.657
9220.528
9220.379
9220.208
9220.011
9219.784
9219.525
9219.23
9218.898
9218.526
9218.113
9217.661
9217.175
9216.665
9216.132
9215.586
9215.02
9214.424
9213.768
9213.019
9212.161
9211.196
9210.145
9209.016
9207.81
9206.523
9205.184
9203.712
9202.168
9200.547
9198.845
9197.044
9195.174
9193.21
9191.149
9188.986
9186.736
9184.383
9181.923
9179.354
9176.673
9173.876
9170.961
9167.926
9164.77
9161.495
9158.111
9154.636
9151.101
9147.558
9144.097
9140.843
9137.868
9135.244
9132.949
9130.851
9128.788
9126.673
9124.488
9122.234
9119.91
9117.513
9115.046
9112.511
9109.915
9107.264
9104.566
9101.827
9099.053
9096.251
9093.428
9090.591
9087.745
9084.899
9082.057
9079.228
9076.416
9073.63
9070.874
9068.154
9065.478
9062.849
9060.273
9057.749
9055.281
9052.862
9050.503
9048.239
9046.019
9043.765
9041.557
9039.488
9037.596
9035.871
9034.289
9032.833
9031.501
9030.296
9029.226
9028.294
9027.502
9026.852
9026.345
9025.983
9025.77
9025.705
9025.793
9026.034
9026.431
9026.986
9027.701
9028.578
9029.621
9030.83
9032.208
9033.757
9035.479
9037.376
9039.45
9041.701
9044.131
9046.741
9049.533
9052.505
9055.659
9058.991
9062.499
9066.177
9070.016
9074.006
9078.13
9082.369
9086.702
9091.115
9095.601
9100.175
9104.856
9109.664
9114.594
9119.648
9124.805
9130.036
9135.299
9140.617
9146.037
9151.571
9157.2
9162.899
9168.659
9174.477
9180.351
9186.272
9192.231
9198.215
9204.216
9210.224
9216.233
9222.234
9228.22
9234.183
9240.116
9246.013
9251.866
9257.672
9263.423
9269.114
9274.74
9280.298
9285.782
9291.188
9296.514
9301.755
9306.908
9311.971
9316.941
9321.815
9326.593
9331.272
9335.85
9340.327
9344.711
9348.973
9353.122
9357.179
9361.122
9364.949
9368.663
9372.26
9375.74
9379.098
9382.333
9385.441
9388.418
9391.261
9393.963
9396.521
9398.929
9401.181
9403.27
9405.188
9406.93
9408.485
9409.845
9410.999
9411.937
9412.648
9413.118
9413.335
9413.286
9412.955
9412.328
9411.39
9410.125
9408.519
9406.559
9404.234
9401.544
9398.489
9395.099
9391.389
9387.462
9383.32
9379.216
9374.844
9370.523
9363.882
6493.416
6465.776
6441.911
6416.382
6393.074
6365.533
6340.921
6316.046
6290.729
6264.934
6238.837
6212.665
6185.969
6159.482
6132.603
6105.28
6083.091
6065.206
6053.76
6050.914
6059.216
6081.699
6122.238
6183.827
6266.872
6374.716
6511.372
6677.257
6866.334
7074.708
7296.264
7528.763
7756.252
7972.269
8167.882
8336.962
8475.929
8583.444
8660.158
8708.365
8731.328
8732.753
8716.377
8685.707
8643.772
8593.179
8536.368
8475.526
8412.289
8347.974
8283.43
8219.964
8158.394
8099.492
8044.397
7992.613
7943.751
7898.18
7856.354
7818.568
7785.014
7755.637
7730.313
7709.041
7691.896
7678.876
7669.913
7664.915
7663.774
7666.37
7672.561
7682.123
7694.875
7710.841
7730.025
7752.142
7777.119
7804.7
7834.545
7866.42
7900.151
7935.495
7972.152
8009.887
8048.445
8087.656
8127.159
8166.771
8205.868
8244.452
8282.399
8319.227
8354.849
8389.5
8423.242
8455.907
8487.312
8517.394
8546.17
8573.673
8599.915
8624.925
8648.772
8671.526
8693.24
8713.953
8733.709
8752.545
8770.501
8787.602
8803.878
8819.385
8834.171
8848.26
8861.657
8874.375
8886.434
8897.857
8908.668
8918.891
8928.564
8937.729
8946.432
8954.713
8962.609
8970.164
8977.415
8984.421
8991.2
8997.791
9004.267
9010.708
9017.131
9023.71
9030.332
9037.04
9043.912
9050.972
9058.235
9065.725
9073.458
9081.44
9089.659
9098.088
9106.681
9115.367
9124.059
9132.654
9141.1
9149.385
9157.476
9165.309
9172.84
9180.076
9187.051
9193.785
9200.279
9206.538
9212.579
9218.4
9223.986
9229.342
9234.486
9239.446
9244.254
9248.94
9253.517
9257.968
9262.225
9266.181
9269.686
9272.529
9274.539
9275.676
9276.052
9275.882
9275.501
9275.24
9275.217
9275.346
9275.503
9275.624
9275.692
9275.698
9275.632
9275.485
9275.254
9274.94
9274.544
9274.071
9273.525
9272.91
9272.23
9271.49
9270.693
9269.844
9268.947
9268.005
9267.021
9265.999
9264.941
9263.852
9262.733
9261.588
9260.419
9259.23
9258.022
9256.799
9255.564
9254.319
9253.066
9251.809
9250.549
9249.291
9248.035
9246.787
9245.548
9244.321
9243.111
9241.922
9240.757
9239.624
9238.526
9237.467
9236.448
9235.469
9234.522
9233.596
9232.684
9231.788
9230.914
9230.069
9229.257
9228.479
9227.735
9227.028
9226.359
9225.729
9225.139
9224.589
9224.08
9223.612
9223.185
9222.797
9222.449
9222.138
9221.863
9221.621
9221.41
9221.226
9221.067
9220.927
9220.804
9220.692
9220.589
9220.487
9220.385
9220.279
9220.165
9220.04
9219.895
9219.728
9219.537
9219.319
9219.072
9218.793
9218.479
9218.13
9217.745
9217.324
9216.87
9216.386
9215.874
9215.336
9214.768
9214.161
9213.496
9212.747
9211.903
9210.968
9209.95
9208.855
9207.681
9206.427
9205.101
9203.687
9202.192
9200.612
9198.945
9197.205
9195.355
9193.415
9191.379
9189.224
9187.029
9184.718
9182.3
9179.776
9177.144
9174.403
9171.556
9168.603
9165.547
9162.393
9159.155
9155.854
9152.512
9149.159
9145.956
9142.827
9139.902
9137.208
9134.731
9132.399
9130.121
9127.832
9125.504
9123.127
9120.696
9118.207
9115.658
9113.053
9110.394
9107.686
9104.936
9102.148
9099.328
9096.483
9093.619
9090.741
9087.857
9084.972
9082.093
9079.226
9076.377
9073.552
9070.759
9068.001
9065.285
9062.615
9059.996
9057.43
9054.92
9052.469
9050.081
9047.755
9045.462
9043.212
9041.06
9039.045
9037.169
9035.425
9033.808
9032.317
9030.954
9029.722
9028.624
9027.664
9026.844
9026.166
9025.632
9025.244
9025.003
9024.913
9024.974
9025.19
9025.561
9026.092
9026.783
9027.637
9028.657
9029.844
9031.2
9032.728
9034.43
9036.307
9038.36
9040.592
9043.003
9045.594
9048.365
9051.317
9054.447
9057.754
9061.235
9064.883
9068.691
9072.649
9076.745
9080.965
9085.296
9089.728
9094.255
9098.884
9103.623
9108.48
9113.455
9118.541
9123.723
9128.993
9134.346
9139.778
9145.291
9150.888
9156.564
9162.312
9168.123
9173.994
9179.918
9185.888
9191.892
9197.922
9203.967
9210.021
9216.074
9222.118
9228.146
9234.151
9240.125
9246.062
9251.956
9257.8
9263.588
9269.316
9274.978
9280.569
9286.087
9291.525
9296.882
9302.153
9307.335
9312.426
9317.424
9322.325
9327.129
9331.832
9336.435
9340.937
9345.324
9349.623
9353.803
9357.876
9361.837
9365.687
9369.424
9373.047
9376.552
9379.937
9383.2
9386.338
9389.346
9392.222
9394.961
9397.559
9400.009
9402.306
9404.444
9406.416
9408.214
9409.831
9411.256
9412.481
9413.495
9414.287
9414.846
9415.158
9415.211
9414.992
9414.487
9413.683
9412.566
9411.125
9409.351
9407.235
9404.78
9401.986
9398.879
9395.467
9391.831
9387.93
9383.983
9379.588
9375.32
9368.543
6659.185
6631.484
6591.694
6552.795
6518.445
6489.714
6463.472
6438.91
6415.689
6391.184
6364.007
6339.377
6314.572
6289.456
6263.844
6237.745
6211.26
6184.278
6155.973
6129.07
6103.273
6078.344
6056.134
6038.775
6028.83
6029.222
6043.443
6075.499
6127.206
6204.295
6309.366
6442.199
6604.832
6795.328
7004.84
7228.987
7460.387
7687.655
7901.651
8094.206
8259.546
8394.604
8498.641
8572.761
8619.512
8642.237
8644.566
8630.074
8602.049
8563.4
8516.589
8463.8
8406.938
8347.609
8287.101
8226.438
8166.676
8108.494
8052.456
7999.417
7949.635
7902.928
7859.299
7819.108
7782.795
7750.561
7722.404
7698.271
7678.143
7662.023
7649.891
7641.698
7637.374
7636.83
7639.956
7646.617
7656.676
7669.994
7686.47
7706.012
7728.751
7754.284
7782.389
7812.855
7845.472
7880.029
7916.286
7953.96
7992.785
8032.487
8072.819
8113.445
8154.087
8194.419
8234.274
8273.426
8311.53
8348.428
8384.195
8418.886
8452.416
8484.648
8515.508
8544.992
8573.129
8599.953
8625.507
8649.85
8673.043
8695.141
8716.192
8736.243
8755.338
8773.519
8790.824
8807.292
8822.963
8837.878
8852.061
8865.528
8878.298
8890.393
8901.838
8912.659
8922.884
8932.547
8941.687
8950.347
8958.57
8966.396
8973.87
8981.032
8987.931
8994.608
9001.105
9007.484
9013.815
9020.147
9026.544
9033.006
9039.592
9046.308
9053.208
9060.311
9067.631
9075.178
9082.956
9090.951
9099.138
9107.473
9115.9
9124.351
9132.756
9141.063
9149.231
9157.227
9165.014
9172.549
9179.82
9186.839
9193.616
9200.151
9206.446
9212.505
9218.334
9223.949
9229.343
9234.505
9239.459
9244.228
9248.824
9253.246
9257.472
9261.447
9265.088
9268.291
9270.933
9272.918
9274.225
9274.935
9275.197
9275.218
9275.204
9275.262
9275.381
9275.503
9275.586
9275.614
9275.58
9275.478
9275.3
9275.044
9274.71
9274.299
9273.815
9273.26
9272.64
9271.956
9271.214
9270.417
9269.569
9268.673
9267.733
9266.752
9265.733
9264.679
9263.592
9262.477
9261.334
9260.168
9258.981
9257.776
9256.555
9255.321
9254.077
9252.826
9251.569
9250.311
9249.054
9247.8
9246.554
9245.317
9244.093
9242.886
9241.699
9240.536
9239.401
9238.299
9237.23
9236.197
9235.199
9234.232
9233.289
9232.367
9231.466
9230.59
9229.743
9228.928
9228.146
9227.399
9226.689
9226.016
9225.382
9224.787
9224.233
9223.719
9223.247
9222.815
9222.423
9222.071
9221.756
9221.478
9221.234
9221.021
9220.836
9220.675
9220.535
9220.412
9220.302
9220.199
9220.097
9219.993
9219.886
9219.775
9219.658
9219.524
9219.368
9219.188
9218.984
9218.753
9218.492
9218.2
9217.874
9217.515
9217.121
9216.693
9216.233
9215.74
9215.213
9214.649
9214.038
9213.367
9212.624
9211.799
9210.892
9209.907
9208.843
9207.702
9206.482
9205.184
9203.803
9202.337
9200.786
9199.149
9197.432
9195.624
9193.727
9191.74
9189.683
9187.473
9185.182
9182.798
9180.315
9177.729
9175.046
9172.269
9169.396
9166.431
9163.384
9160.268
9157.112
9153.94
9150.804
9147.649
9144.613
9141.719
9138.979
9136.384
9133.893
9131.453
9129.018
9126.561
9124.068
9121.533
9118.951
9116.32
9113.64
9110.913
9108.142
9105.334
9102.491
9099.619
9096.724
9093.811
9090.887
9087.957
9085.027
9082.104
9079.193
9076.3
9073.432
9070.595
9067.793
9065.033
9062.318
9059.654
9057.044
9054.493
9052.001
9049.57
9047.201
9044.896
9042.667
9040.537
9038.519
9036.62
9034.843
9033.192
9031.669
9030.275
9029.013
9027.886
9026.897
9026.048
9025.341
9024.778
9024.361
9024.093
9023.975
9024.009
9024.198
9024.543
9025.048
9025.715
9026.545
9027.54
9028.704
9030.038
9031.545
9033.225
9035.081
9037.115
9039.328
9041.72
9044.292
9047.045
9049.978
9053.089
9056.376
9059.836
9063.463
9067.25
9071.19
9075.273
9079.489
9083.827
9088.281
9092.846
9097.522
9102.313
9107.222
9112.245
9117.378
9122.615
9127.948
9133.372
9138.877
9144.459
9150.121
9155.861
9161.673
9167.55
9173.484
9179.469
9185.496
9191.555
9197.639
9203.738
9209.843
9215.946
9222.04
9228.117
9234.17
9240.19
9246.172
9252.109
9257.995
9263.825
9269.592
9275.292
9280.92
9286.473
9291.945
9297.334
9302.635
9307.847
9312.967
9317.991
9322.919
9327.747
9332.476
9337.103
9341.623
9346.04
9350.35
9354.551
9358.644
9362.628
9366.5
9370.26
9373.906
9377.436
9380.848
9384.139
9387.307
9390.348
9393.26
9396.037
9398.676
9401.171
9403.518
9405.709
9407.738
9409.599
9411.282
9412.78
9414.082
9415.18
9416.062
9416.717
9417.133
9417.298
9417.2
9416.826
9416.164
9415.202
9413.931
9412.342
9410.429
9408.193
9405.636
9402.775
9399.611
9396.202
9392.489
9388.663
9384.284
9380.107
9373.301
6630.556
6602.2
6556.544
6527.628
6500.614
6476.059
6453.069
6430.814
6408.623
6386.279
6363.782
6340.141
6315.959
6291.255
6266.043
6239.983
6213.093
6185.438
6156.446
6126.919
6097.978
6069.865
6043.653
6021.331
6005.633
5999.876
6007.523
6031.743
6078.737
6151.231
6252.68
6383.675
6544.844
6733.378
6942.794
7165.998
7393.981
7616.3
7823.664
8008.736
8166.599
8294.898
8393.491
8463.95
8508.967
8531.802
8535.819
8524.267
8500.087
8465.927
8424.027
8376.31
8324.506
8270.007
8214.062
8157.828
8102.121
8047.538
7994.755
7944.484
7897.135
7852.782
7811.492
7773.515
7739.174
7708.668
7682.063
7659.36
7640.543
7625.602
7614.522
7607.271
7603.789
7603.996
7607.797
7615.085
7625.758
7639.684
7656.727
7677.015
7700.335
7726.456
7755.214
7786.442
7819.943
7855.495
7892.858
7931.756
7971.907
8013.012
8054.777
8096.877
8139.017
8180.906
8222.27
8262.853