/*--------------------------------*- C++ -*----------------------------------*\
| =========                 |                                                 |
| \\      /  F ield         | foam-extend: Open Source CFD                    |
|  \\    /   O peration     | Version:     3.1                                |
|   \\  /    A nd           | Web:         http://www.extend-project.de       |
|    \\/     M anipulation  |                                                 |
\*---------------------------------------------------------------------------*/
FoamFile
{
    version     2.0;
    format      ascii;
    class       volScalarField;
    location    "16.5";
    object      alpha1;
}
// * * * * * * * * * * * * * * * * * * * * * * * * * * * * * * * * * * * * * //

dimensions      [0 0 0 0 0 0 0];

internalField   nonuniform List<scalar> 
119952
(
1
1
1
1
1
1
1
1
1
1
1
1
1
1
1
1
1
1
1
1
0.9999999
1
0.9999999
1
1
0.9999999
1
1
0.9999999
1
0.9999999
1
1
0.9999999
1
1
1
1
1
1
1
1
1
1
1
1
1
1
1
1
1
1
1
1
1
1
1
1
1
1
1
1
1
1
1
1
1
1
1
1
1
1
1
1
1
0.9999999
1
1
1
0.9999999
0.9999999
1
1
1
1
1
1
1
1
1
0.9999999
1
1
1
1
1
0.9999998
1
1
0.9999999
1
1
0.9999999
1
1
1
1
0.9999999
0.9999999
1
1
1
1
1
0.9999999
1
1
1
1
1
0.9999999
1
1
1
1
1
1
1
1
1
1
1
1
1
1
1
1
1
1
1
1
1
1
1
1
1
1
1
1
1
1
1
1
1
1
1
1
1
1
1
1
1
1
1
1
1
1
1
1
1
1
1
1
1
1
1
1
1
1
1
1
0.9999996
0.9999996
1
1
1
1
1
1
1
1
1
1
1
1
1
1
1
1
1
1
0.9999615
0.9999386
1
1
1
1
1
1
1
1
1
1
1
1
1
1
1
1
1
1
1
1
1
1
1
1
1
1
1
1
1
1
1
1
1
1
1
1
1
1
1
1
1
0.9999999
1
0.9999996
1
1
0.9999996
0.9999997
1
0.9999998
1
0.9999999
0.9999997
1
0.9999999
1
1
1
1
0.9999992
0.9999998
1
0.9999997
1
1
1
0.9999999
0.9999999
1
1
0.9999999
1
1
0.9999999
0.9999998
1
1
1
1
1
1
1
1
1
1
1
1
1
1
1
1
1
1
1
1
1
1
1
1
1
1
1
1
1
1
1
1
1
1
1
1
1
1
1
1
1
1
1
1
1
1
1
1
1
1
1
1
1
1
1
1
1
1
1
1
1
1
1
1
1
1
1
1
1
1
1
1
1
0.9999999
1
1
1
1
1
1
1
1
1
1
0.9999996
0.9999999
1
1
0.9999997
0.9999994
1
1
1
1
1
1
0.9999999
1
0.9999992
0.9999996
1
1
1
1
0.9999995
0.9999999
1
1
1
0.9999998
0.9999997
1
1
1
1
1
1
0.9999999
1
0.9999999
0.9999997
0.9999997
0.9999969
0.9999999
1
1
1
1
1
1
1
1
1
1
1
1
1
1
1
1
1
1
1
1
1
0.9999999
0.9999998
1
1
1
1
0.9999999
1
1
1
0.9999998
0.9999998
1
1
0.9999999
0.9999999
1
1
1
1
1
1
1
1
1
0.9999998
0.9999999
1
0.9999999
0.9999998
1
1
1
1
1
1
1
1
0.9999999
1
1
1
1
1
1
1
1
1
1
1
1
1
1
1
1
1
1
1
1
1
1
1
1
1
1
1
1
1
1
1
1
1
1
1
1
1
1
1
1
1
1
1
1
0.9999999
1
1
1
1
1
1
1
1
1
1
1
1
1
1
0.9999999
1
1
1
1
1
1
1
1
1
1
0.9999999
0.9999999
0.9999998
0.9999998
0.9999998
0.9999999
1
1
1
1
1
1
1
1
1
1
1
1
0.9999999
0.9999996
0.9999989
0.9999976
0.9999974
0.9999989
0.9999999
1
1
1
1
1
0.9999999
0.9999998
0.9999999
1
1
1
1
1
1
1
1
1
1
1
1
1
1
1
1
1
1
1
1
1
1
1
1
0.9999999
0.9999996
0.9999972
0.9999898
0.999989
0.9999953
0.9999994
1
1
1
1
1
0.9999998
0.9999986
0.999994
0.9999803
0.9999741
0.9999803
0.9999927
0.9999981
0.9999904
0.9999818
0.9999758
0.9993514
0.9621301
0.9847059
0.9999489
1
1
1
1
1
1
1
1
1
1
1
1
1
1
0.999994
0.9999816
0.9999979
1
1
1
1
1
0.9999999
1
1
0.9999998
0.9999983
0.9999998
1
1
1
1
1
1
1
1
1
1
1
1
1
1
1
1
1
1
1
1
1
1
1
1
1
1
1
1
1
1
1
1
1
1
1
1
1
1
1
1
1
1
1
0.9999999
0.9999995
0.9999995
0.9999997
1
1
1
1
1
1
1
1
1
1
1
1
1
0.9999999
0.9999996
0.9999991
0.9999992
0.9999997
1
1
1
1
1
1
1
1
1
1
1
1
1
1
1
1
1
1
1
1
1
1
1
1
1
1
1
1
1
1
1
1
1
1
0.9999999
0.9999997
0.9999993
0.9999992
0.9999992
0.9999992
0.9999992
0.9999992
0.9999995
0.9999999
1
1
0.9999999
0.9999999
0.9999997
0.9999992
0.9999966
0.9999781
0.9999661
0.9999719
0.9999914
0.9999993
1
1
1
1
1
1
1
0.9999999
0.9999998
0.9999998
0.9999999
1
1
1
1
1
1
0.9999999
0.9999999
0.9999999
1
1
1
1
1
1
1
0.9999997
0.9999994
0.9999996
0.9999999
1
1
1
1
1
1
1
1
1
1
1
1
0.9999999
0.9999988
0.999998
0.9999981
0.9999992
0.9999999
1
1
1
1
0.9999994
1
0.9999999
1
1
0.9999999
0.9999999
1
0.9999999
1
1
1
0.9999999
1
1
1
1
1
1
1
1
1
1
1
1
1
1
1
1
1
1
1
1
1
1
1
1
1
1
1
1
1
1
1
1
1
1
1
1
1
1
1
1
1
1
1
1
1
1
1
1
1
1
1
1
1
1
1
0.9999999
0.9999999
1
1
1
1
1
1
1
1
1
1
1
1
1
1
1
0.9999999
0.9999999
1
1
1
1
1
1
1
1
1
1
1
1
1
1
1
1
0.9999999
1
1
1
1
1
1
1
1
1
1
1
1
1
1
1
1
1
1
1
1
1
1
1
1
1
1
1
1
1
1
1
1
1
1
1
0.9999999
1
1
1
1
1
1
1
1
1
1
1
1
1
1
1
1
1
1
1
1
1
0.9999999
0.9999992
0.9999981
0.9999972
0.999997
0.9999971
0.9999974
0.9999991
0.9999999
1
1
1
1
1
1
1
1
0.9999999
0.9999996
0.9999977
0.9999882
0.999943
0.9997625
0.9995665
0.9997085
0.9999355
0.9999964
0.9999999
1
1
1
0.9999998
0.9999989
0.9999965
0.9999967
0.9999989
0.9999999
1
1
1
1
1
1
1
1
1
1
1
1
1
1
1
1
1
1
1
1
1
1
1
0.9999998
0.9999983
0.9999873
0.9999538
0.9999592
0.9999866
0.9999985
1
1
1
0.9999998
0.9999977
0.9999817
0.9998756
0.9993666
0.9984187
0.9983519
0.998953
0.9997586
0.9999771
0.9999783
0.999946
0.9998011
0.99842
0.9812465
0.9620195
0.9620121
0.9620195
0.9811877
0.9975762
0.9999359
0.9999998
1
1
1
1
0.9999999
0.9999995
0.9999969
0.9999801
0.9998744
0.9994523
0.9992849
0.9996536
0.9999529
0.9999987
0.9999993
0.9999959
0.9999694
0.9999566
0.9999708
0.9999939
0.9999997
1
0.9999999
0.9999992
0.999996
0.9999926
0.9999944
0.9999984
0.9999999
1
1
1
1
1
1
1
1
1
1
1
1
1
1
1
1
1
1
1
1
1
1
1
1
1
1
1
1
1
1
1
1
1
1
1
1
1
0.9999999
0.999999
0.9999978
0.9999986
0.9999997
1
1
1
1
1
1
1
1
1
1
0.9999999
0.9999992
0.9999961
0.9999874
0.9999871
0.9999946
0.9999994
1
1
1
1
1
1
1
1
0.9999999
0.9999998
0.9999998
0.9999999
1
1
1
1
1
1
1
1
1
1
1
1
1
1
1
1
1
1
1
1
0.9999997
0.999998
0.9999931
0.9999858
0.9999703
0.9999687
0.9999812
0.9999962
0.9999997
1
1
1
1
0.9999999
0.9999989
0.999992
0.9999487
0.9997726
0.9996985
0.9998444
0.9999741
0.9999978
0.999998
0.9999979
0.9999989
0.9999998
1
1
0.9999999
0.9999995
0.9999976
0.9999923
0.9999919
0.9999968
0.9999997
1
1
1
1
1
1
1
1
0.9999999
0.9999997
0.9999997
0.9999998
1
1
1
1
1
1
1
1
1
1
1
1
1
1
1
1
1
1
1
1
1
1
0.9999997
0.9999984
0.9999981
0.9999992
0.9999999
1
1
1
1
0.9999998
1
1
1
1
1
1
1
1
0.9999999
1
1
1
1
1
1
1
1
1
1
1
1
1
1
1
1
1
1
1
1
1
1
1
1
1
1
1
1
1
1
1
1
1
1
1
1
1
1
1
1
1
1
1
1
1
1
1
1
1
1
1
1
1
1
1
1
1
1
1
1
1
1
1
1
1
1
1
1
1
1
1
1
1
1
1
1
1
1
1
1
1
1
1
1
1
1
1
1
1
1
1
1
1
1
1
1
1
1
1
1
1
1
1
1
1
1
1
1
1
1
1
1
1
1
1
1
1
1
1
1
1
1
1
1
1
1
1
1
1
1
1
1
1
1
1
1
1
1
1
1
1
1
0.9999999
1
1
1
1
1
1
1
1
1
1
1
1
1
1
1
1
1
0.9999999
0.9999991
0.9999945
0.9999832
0.9999609
0.9999607
0.9999825
0.9999966
0.9999997
1
1
1
1
1
1
1
1
1
1
0.9999998
0.9999983
0.9999875
0.9999052
0.9993101
0.9968805
0.9964248
0.9984875
0.9998154
0.9999943
0.9999999
1
1
0.9999997
0.9999977
0.9999843
0.9999675
0.9999807
0.9999961
0.9999998
1
1
1
1
1
1
1
1
1
1
1
1
1
1
1
1
1
1
0.9999999
0.9999999
0.9999999
0.9999999
0.9999999
0.9999991
0.9999915
0.9999416
0.9998441
0.9998898
0.999968
0.9999967
0.9999999
0.9999999
0.9999998
0.999999
0.9999914
0.999899
0.998886
0.9928228
0.9786244
0.9793732
0.9920762
0.9990043
0.99994
0.9999571
0.9998251
0.9987602
0.9888852
0.9635809
0.9620186
0.9620121
0.9620058
0.9776016
0.9959347
0.9998207
0.9999986
1
1
1
0.9999999
0.9999989
0.9999931
0.9999627
0.999788
0.9987347
0.9956715
0.9960869
0.9987635
0.999858
0.9999759
0.9999746
0.9999351
0.9999102
0.99994
0.9999847
0.9999976
0.9999997
0.9999999
0.9999999
0.999999
0.9999922
0.9999716
0.9999743
0.9999918
0.9999993
1
1
0.9999999
0.9999997
0.9999997
0.9999998
1
1
1
1
1
1
1
1
1
1
1
1
1
1
1
1
1
1
1
1
1
1
1
1
1
0.9999999
0.9999999
1
1
1
1
1
0.9999993
0.9999958
0.9999957
0.9999984
0.9999998
1
1
1
1
1
1
1
0.9999999
0.9999997
0.9999978
0.9999868
0.999934
0.9998893
0.9999368
0.9999868
0.9999993
1
1
1
1
1
1
0.9999999
0.9999997
0.9999984
0.9999966
0.9999976
0.9999994
1
1
1
1
1
1
1
1
1
1
1
1
1
1
1
1
1
1
0.9999996
0.9999971
0.9999821
0.9999422
0.9998371
0.9997507
0.9997603
0.9998924
0.9999826
0.9999992
1
1
1
1
1
1
0.9999994
0.9999882
0.9998436
0.9989947
0.9987806
0.9994141
0.9999146
0.9999972
0.9999999
0.9999999
0.9999999
0.9999999
0.9999997
0.9999993
0.9999971
0.9999849
0.9999289
0.999892
0.9999429
0.9999899
0.9999995
1
1
1
1
1
1
1
1
0.9999999
0.9999994
0.9999983
0.9999982
0.9999992
0.9999999
1
1
1
1
1
1
1
1
1
1
1
1
1
1
1
1
1
1
1
1
1
1
1
0.9999999
0.9999992
0.999999
0.9999992
0.9999998
1
1
1
1
1
1
1
1
1
1
1
1
1
1
1
1
1
1
1
1
1
1
1
1
1
1
1
1
1
1
1
1
1
1
1
1
1
1
1
1
1
1
1
1
1
1
1
1
1
1
1
1
1
1
1
1
1
1
1
1
1
1
1
1
1
1
1
1
1
1
1
1
1
1
1
1
1
1
1
1
1
1
1
1
1
1
1
1
1
1
1
1
1
1
1
1
1
1
1
1
1
1
1
1
1
1
1
1
1
1
1
1
1
1
1
1
1
1
1
1
1
1
1
1
1
1
1
1
1
1
1
1
1
1
1
1
1
1
1
1
1
1
1
1
1
1
1
1
1
1
1
1
1
1
1
1
1
1
1
1
1
1
1
1
1
1
1
1
1
1
1
1
1
1
1
1
1
1
1
1
1
0.9999998
0.9999984
0.999987
0.9999407
0.9997893
0.999775
0.9998797
0.9999804
0.9999988
0.9999995
0.9999994
0.9999989
0.9999977
0.9999969
0.9999968
0.9999971
0.9999979
0.9999991
0.9999998
0.9999999
0.9999994
0.9999922
0.9999384
0.9995855
0.9972249
0.9879213
0.9866266
0.9948009
0.9994253
0.9999861
0.9999999
1
0.9999999
0.9999989
0.99999
0.9999282
0.9998925
0.9999439
0.9999899
0.9999995
1
1
1
1
1
1
0.9999999
1
1
1
1
1
1
1
1
1
0.9999999
0.9999995
0.9999981
0.999996
0.9999965
0.9999982
0.999998
0.999993
0.9999503
0.9997142
0.9995886
0.9997391
0.999938
0.9999961
0.9999997
0.9999995
0.9999971
0.9999824
0.9999175
0.9995266
0.9969048
0.9809323
0.914829
0.9266676
0.9760087
0.9971178
0.9998815
0.9999556
0.9997968
0.9966605
0.9705059
0.9620564
0.9620564
0.9723099
0.9914918
0.9977817
0.9994956
0.9999493
0.9999988
1
1
1
1
0.9999989
0.9999785
0.9997297
0.9976042
0.9853444
0.9733156
0.9836819
0.9964401
0.9987259
0.9954006
0.9963399
0.9986378
0.9997687
0.9999379
0.9999649
0.9999832
0.999996
0.9999996
0.9999994
0.9999964
0.9999707
0.9998857
0.9999024
0.9999706
0.9999973
0.9999999
1
0.9999997
0.9999989
0.9999991
0.9999997
1
1
1
1
1
1
1
1
1
1
1
1
1
1
1
1
1
1
1
1
1
1
1
1
0.9999998
0.9999995
0.9999996
0.9999999
1
1
1
1
0.9999997
0.9999961
0.9999896
0.9999937
0.9999987
0.9999999
1
1
1
1
1
1
0.9999996
0.9999971
0.99998
0.9998723
0.9995016
0.9995114
0.999825
0.9999809
0.9999995
1
1
1
1
0.9999999
0.9999997
0.9999985
0.999992
0.9999724
0.9999728
0.9999902
0.999999
1
1
1
1
1
1
1
1
1
1
1
1
1
1
1
1
0.9999998
0.9999987
0.9999909
0.9999454
0.9997812
0.9990653
0.9986943
0.9989871
0.9997046
0.9999736
0.9999989
0.9999991
0.9999991
0.9999991
0.9999986
0.9999967
0.9999914
0.999991
0.999996
0.9999949
0.999947
0.9990168
0.9977843
0.9978751
0.9990406
0.9998423
0.9999934
0.9999999
0.9999999
0.9999999
0.9999989
0.9999927
0.9999557
0.9997413
0.9992607
0.9994219
0.9998381
0.9999849
0.9999995
1
1
1
1
1
1
1
1
0.9999998
0.9999984
0.999992
0.9999897
0.9999953
0.9999994
1
1
1
1
1
1
1
1
1
1
1
1
1
1
1
1
1
1
1
1
1
1
1
1
1
1
1
1
1
1
1
0.9999997
1
1
1
1
1
1
1
1
1
1
1
1
1
1
1
1
1
1
1
1
1
1
1
1
1
1
1
1
1
1
1
1
1
1
1
1
1
1
1
1
1
1
1
1
1
1
1
1
1
1
1
1
1
1
1
1
1
1
1
1
1
1
1
1
1
1
1
1
1
1
1
1
1
1
1
1
1
1
1
1
1
1
1
1
1
1
1
1
1
1
1
1
1
1
1
1
1
1
1
1
1
1
1
1
1
1
1
1
1
1
1
1
1
1
1
1
1
1
1
1
1
1
1
1
1
1
1
1
1
1
1
1
1
1
1
1
1
1
1
1
1
1
1
1
1
1
1
1
1
1
1
1
1
1
1
1
1
1
1
1
1
1
1
1
1
1
1
1
1
1
1
1
1
1
1
1
1
1
0.9999999
1
1
1
1
1
1
1
0.9999999
0.9999992
0.9999897
0.9999093
0.9995184
0.999163
0.9993817
0.9997945
0.9999787
0.9999955
0.9999939
0.9999789
0.9998956
0.9996762
0.9994125
0.9993219
0.9995647
0.9998937
0.9999784
0.9999875
0.9999939
0.9999978
0.9999944
0.9999018
0.9984105
0.9817516
0.9333832
0.9414946
0.9818683
0.9984856
0.9999747
0.9999998
0.9999998
0.9999987
0.9999922
0.9999497
0.9997534
0.999718
0.9998644
0.9999812
0.9999993
1
1
1
1
0.9999998
0.9999998
0.9999999
1
1
1
1
1
1
1
1
0.9999998
0.9999988
0.9999913
0.999971
0.9999695
0.9999838
0.9999949
0.999992
0.9999548
0.9996937
0.9988288
0.9988492
0.9995562
0.9999322
0.9999966
0.9999975
0.9999958
0.9999883
0.9999183
0.9993426
0.9967911
0.9879581
0.9306483
0.8854686
0.889581
0.9522088
0.9926687
0.9996908
0.9999502
0.9999556
0.9998429
0.998724
0.9943792
0.9901039
0.9915893
0.9961678
0.9993724
0.999974
0.9999996
1
1
0.9999999
0.9999998
0.9999992
0.9999958
0.9999685
0.9996895
0.9954289
0.9445961
0.9138419
0.9414143
0.9869314
0.9991283
0.9997905
0.9995689
0.9980872
0.9965031
0.9968409
0.9973791
0.9984163
0.9996174
0.9999767
0.9999934
0.9999735
0.9997976
0.9995568
0.9997167
0.999927
0.9999947
0.9999999
0.9999999
0.9999993
0.9999974
0.9999982
0.9999995
1
1
1
1
1
1
1
1
1
1
1
1
1
1
1
1
1
1
1
1
1
1
1
0.9999998
0.9999985
0.9999975
0.9999987
0.9999998
1
1
1
1
0.9999997
0.9999966
0.9999822
0.9999814
0.9999928
0.9999992
1
1
1
1
1
1
0.9999997
0.999994
0.9999192
0.9992899
0.9977827
0.9982699
0.9995195
0.9999613
0.9999993
1
1
1
0.9999998
0.9999991
0.9999953
0.9999739
0.9998697
0.9997679
0.9998676
0.9999749
0.9999988
1
1
1
0.9999999
0.9999999
0.9999999
1
1
1
1
1
0.9999999
0.9999988
0.9999954
0.999994
0.9999936
0.9999924
0.9999821
0.9998977
0.9994795
0.9975211
0.9960866
0.9964416
0.9986464
0.9998271
0.9999941
0.9999991
0.9999991
0.9999986
0.9999945
0.9999749
0.9998925
0.9996114
0.9993332
0.9995696
0.9999048
0.9999922
0.9999849
0.9998877
0.9988994
0.9977836
0.9977836
0.9985128
0.9997159
0.9999823
0.9999921
0.9999918
0.9999832
0.9998245
0.997971
0.9962407
0.9980459
0.9996532
0.9999809
0.9999997
1
1
1
1
1
1
1
0.9999999
0.9999992
0.9999943
0.9999688
0.9999605
0.999983
0.9999978
0.9999999
1
1
1
1
1
1
1
1
1
1
1
1
1
1
1
1
1
1
1
1
1
1
1
1
1
1
1
1
1
1
1
0.9999999
1
1
1
1
1
1
1
1
1
1
1
1
1
1
1
1
1
1
1
1
1
1
1
1
1
1
1
1
1
1
1
1
1
1
1
1
1
1
1
1
1
1
1
1
1
1
1
1
1
1
1
1
1
1
1
1
1
1
1
1
1
1
1
1
1
1
1
1
1
1
1
1
1
1
1
1
1
1
1
1
1
1
1
1
1
1
0.9999999
0.9999999
0.9999999
0.9999999
0.9999999
0.9999999
0.9999999
0.9999998
0.9999998
0.9999998
0.9999997
0.9999997
0.9999996
0.9999996
0.9999997
0.9999998
0.9999998
0.9999997
0.9999996
0.9999995
0.9999995
0.9999996
0.9999997
0.9999997
0.9999997
0.9999997
0.9999997
0.9999997
0.9999997
0.9999998
0.9999998
0.9999998
0.9999998
0.9999998
0.9999998
0.9999998
0.9999998
0.9999998
0.9999998
0.9999998
0.9999998
0.9999998
0.9999998
0.9999998
0.9999998
0.9999998
0.9999998
0.9999999
0.9999999
0.9999999
0.9999999
0.9999999
1
1
1
1
1
1
1
1
1
1
1
1
1
1
1
1
1
1
1
1
1
1
1
1
1
1
1
1
1
1
1
1
0.9999999
0.9999999
0.9999999
0.9999999
1
1
1
0.9999999
0.9999996
0.999998
0.9999946
0.9999954
0.9999985
0.9999998
1
1
1
1
1
1
0.9999997
0.9999963
0.999962
0.9997276
0.9982442
0.9979902
0.9989456
0.9998385
0.9999893
0.999992
0.9999828
0.9998582
0.9989654
0.9951031
0.9879591
0.9909879
0.9975002
0.9997327
0.9997704
0.9995106
0.9994621
0.9997644
0.9999509
0.999894
0.9988203
0.9756341
0.8464944
0.8261962
0.9040472
0.9859648
0.9995076
0.9999968
0.9999997
0.9999963
0.9999453
0.9993857
0.9983589
0.9988501
0.9997044
0.9999764
0.9999995
0.9999999
0.9999999
0.9999995
0.9999987
0.9999989
0.9999996
0.9999999
1
1
1
1
1
1
0.9999999
0.9999995
0.9999956
0.9999628
0.9999049
0.999907
0.9999604
0.9999912
0.9999896
0.9999613
0.9996948
0.9980061
0.9962385
0.9974929
0.9992709
0.9999399
0.9999859
0.9999555
0.9996332
0.9989147
0.9989165
0.9984076
0.9934892
0.9621858
0.8757631
0.8574864
0.8875808
0.9617928
0.994228
0.9995567
0.9999336
0.9999226
0.9998533
0.9996832
0.9991265
0.996743
0.9915556
0.993641
0.9982408
0.9998516
0.9999973
0.9999998
0.9999998
0.9999995
0.9999977
0.9999867
0.9999429
0.9997972
0.9989081
0.9840491
0.9152341
0.9073145
0.9127447
0.9689823
0.9969614
0.9998787
0.9998962
0.9998934
0.9993204
0.990058
0.9681578
0.979176
0.9952271
0.9997098
0.9999308
0.9997263
0.9987668
0.9986748
0.9993838
0.999908
0.9999956
0.9999998
0.9999997
0.9999979
0.999996
0.9999965
0.9999987
0.9999998
1
1
1
1
1
1
1
1
1
0.9999999
0.9999999
1
1
1
1
1
0.9999998
0.9999993
0.9999991
0.9999994
0.9999996
0.9999993
0.9999967
0.9999911
0.9999916
0.9999966
0.9999995
1
1
1
1
0.9999999
0.9999978
0.9999741
0.9999452
0.9999687
0.9999939
0.9999997
1
1
1
1
1
0.9999999
0.9999981
0.9999555
0.9991595
0.9949262
0.9949282
0.9980739
0.9997796
0.9999946
1
1
1
0.9999999
0.9999976
0.9999709
0.9997591
0.9989242
0.9988232
0.9995146
0.9999425
0.9999985
1
0.9999999
0.9999998
0.999999
0.9999987
0.9999994
0.9999999
1
1
0.9999999
0.9999996
0.9999981
0.9999923
0.9999517
0.9997653
0.9996574
0.9996693
0.9995832
0.9992651
0.9976555
0.9905079
0.9903991
0.9959862
0.9993137
0.9999596
0.9999988
0.9999991
0.9999991
0.9999984
0.9999907
0.9999063
0.9989904
0.9949211
0.9950187
0.998185
0.9997819
0.9999883
0.9999887
0.9999789
0.9999625
0.999963
0.9999696
0.9999747
0.9999709
0.9997475
0.9985787
0.9975769
0.9979468
0.9982005
0.9961756
0.9954167
0.9954166
0.9981043
0.999745
0.9999919
1
1
1
1
1
1
0.9999999
0.9999992
0.9999952
0.9999703
0.999874
0.9998693
0.9999491
0.9999944
0.9999998
1
1
1
1
1
1
1
1
1
1
0.9999999
0.9999999
1
1
1
1
1
1
1
1
1
1
1
1
1
1
1
1
1
1
1
1
1
1
0.9999999
1
1
1
1
1
1
1
1
1
1
1
1
1
1
1
1
1
1
1
1
1
1
1
1
1
1
1
1
1
1
1
1
1
1
1
1
1
1
1
1
1
1
1
1
1
1
1
1
1
1
1
1
1
1
1
1
1
1
1
1
1
1
1
1
1
1
1
1
1
1
1
1
1
0.9999999
0.9999997
0.9999991
0.9999975
0.9999942
0.9999907
0.9999896
0.9999894
0.9999891
0.999987
0.9999769
0.9999455
0.9998901
0.9998492
0.9998428
0.9998516
0.9998879
0.9999099
0.9999065
0.9998824
0.9998255
0.9997551
0.9997243
0.999735
0.9998076
0.9998837
0.9998942
0.9998822
0.9998256
0.9997359
0.9997149
0.9997351
0.9998135
0.9998778
0.9998792
0.9998621
0.9998302
0.9998223
0.9998298
0.9998631
0.9999001
0.9999086
0.9999083
0.9999062
0.9999056
0.9999096
0.9999222
0.9999292
0.9999285
0.9999233
0.9999178
0.9999177
0.9999201
0.9999242
0.9999269
0.9999294
0.9999338
0.9999411
0.9999507
0.9999605
0.9999681
0.9999732
0.999978
0.9999831
0.9999884
0.9999923
0.999993
0.9999929
0.9999929
0.9999932
0.999994
0.999995
0.9999959
0.9999965
0.9999969
0.9999975
0.9999982
0.9999983
0.999998
0.9999966
0.9999965
0.9999984
0.9999998
1
1
0.9999999
0.9999999
0.9999999
0.9999998
0.9999998
0.9999995
0.9999983
0.9999921
0.9999719
0.999969
0.9999848
0.999998
0.9999998
0.9999998
0.9999996
0.999998
0.9999867
0.9999268
0.9998978
0.9999316
0.9999851
0.999999
1
1
1
1
1
1
0.9999996
0.9999973
0.9999763
0.9998199
0.9990073
0.9970384
0.9968992
0.9979914
0.9994919
0.9998642
0.9998985
0.9999028
0.9997063
0.99767
0.9797231
0.9676937
0.9727539
0.9915641
0.9987323
0.9983561
0.9964658
0.9969937
0.9990832
0.9998621
0.9997283
0.9977211
0.9619028
0.8313261
0.8234066
0.8533953
0.9583866
0.997044
0.9999622
0.9999994
0.999997
0.9999403
0.9990006
0.9972578
0.997247
0.9983081
0.9997048
0.9999871
0.9999994
0.9999957
0.9999919
0.9999942
0.9999985
0.9999998
1
1
1
1
1
1
1
0.9999999
0.9999988
0.9999761
0.9997642
0.9997178
0.9998883
0.9999874
0.9999926
0.9999799
0.9998033
0.9982041
0.990348
0.989444
0.9949033
0.9993042
0.9999699
0.9999901
0.9999666
0.9992027
0.9883638
0.9672804
0.9736849
0.9868245
0.9746139
0.889439
0.8574864
0.8562765
0.9144048
0.9655356
0.9898632
0.9982386
0.9996998
0.9993297
0.9979941
0.9936589
0.9747039
0.9436948
0.9641391
0.9926087
0.9995654
0.9999185
0.9998635
0.999866
0.9999491
0.999967
0.9999329
0.9995646
0.9939273
0.9480478
0.9294816
0.9604623
0.9589193
0.9160221
0.9524026
0.9870396
0.9978019
0.9998175
0.9998992
0.9998107
0.996458
0.9666852
0.9585272
0.9723078
0.9946974
0.9986732
0.9971836
0.9950786
0.9968723
0.9991931
0.9999303
0.9999978
0.999999
0.9999973
0.9999918
0.9999918
0.9999964
0.9999994
1
1
1
1
1
1
1
1
1
1
1
0.9999999
1
1
0.9999999
0.9999995
0.9999967
0.9999851
0.9999824
0.9999893
0.9999982
0.9999987
0.9999951
0.9999791
0.9999769
0.999987
0.9999976
0.9999999
1
1
1
1
1
0.9999997
0.9999934
0.9999381
0.999912
0.9999466
0.9999874
0.9999988
0.9999999
0.9999998
0.9999996
0.9999988
0.9999976
0.9999968
0.9999835
0.9997206
0.9965969
0.9943091
0.9943091
0.9966386
0.9994329
0.9999785
0.9999999
1
1
0.9999994
0.9999865
0.9997237
0.9969037
0.9959578
0.9982343
0.9997677
0.9999933
0.9999998
0.9999995
0.9999975
0.9999924
0.9999937
0.9999981
0.9999998
0.9999998
0.9999997
0.9999987
0.9999886
0.9998923
0.9994619
0.9993055
0.9994634
0.9992483
0.9982297
0.9975648
0.995615
0.989602
0.9893519
0.9893519
0.9927109
0.9984789
0.9999212
0.9999988
0.9999991
0.9999988
0.9999954
0.9999699
0.99972
0.997521
0.9894966
0.9897789
0.9964101
0.9996275
0.9998427
0.999702
0.999378
0.999328
0.999654
0.9999452
0.999975
0.9999743
0.9999311
0.9994164
0.9928483
0.9731957
0.9738192
0.988607
0.9975835
0.9977197
0.9967083
0.9973389
0.9988469
0.9998064
0.9999916
0.9999999
1
1
1
0.9999997
0.9999962
0.999962
0.9997303
0.9993156
0.9994884
0.9998662
0.9999894
0.9999998
1
1
1
1
1
1
1
1
0.9999999
0.9999996
0.9999992
0.9999995
0.9999999
1
1
1
1
1
1
1
1
1
1
1
1
1
1
1
1
1
1
1
1
1
1
1
1
1
1
1
1
1
1
1
1
1
1
1
1
1
1
1
1
1
1
1
1
1
1
1
1
1
1
1
1
1
1
1
1
1
1
1
1
1
1
1
1
1
1
1
1
1
1
1
1
1
1
1
1
1
1
1
1
1
1
1
1
1
1
1
1
1
1
1
1
1
1
1
1
1
1
1
1
1
1
1
1
1
1
0.9999999
0.9999994
0.9999976
0.9999927
0.9999828
0.9999671
0.9999462
0.9999163
0.9998489
0.9996415
0.9990456
0.9978496
0.9969549
0.9969247
0.997124
0.9974915
0.9975343
0.9968914
0.9933564
0.9848907
0.9791727
0.9796163
0.9842206
0.991326
0.9939911
0.9933961
0.9892183
0.9796166
0.9728788
0.9737275
0.982043
0.9936232
0.9958463
0.994837
0.9914053
0.9829625
0.9747967
0.9770625
0.9906697
0.997333
0.9968919
0.9941592
0.9850663
0.9786557
0.9860593
0.9964691
0.9978488
0.9971868
0.9937131
0.9895831
0.9916069
0.9965953
0.9982151
0.9980897
0.9971305
0.9953074
0.9950482
0.9956698
0.9970152
0.9974357
0.9969222
0.9958684
0.9959446
0.9964764
0.9965972
0.9963299
0.9969203
0.9986284
0.9996506
0.9997871
0.9997751
0.9996973
0.9994474
0.99947
0.9997894
0.9999578
0.999934
0.9998625
0.9998196
0.9998246
0.9998619
0.9998906
0.9998583
0.9996628
0.9996354
0.999804
0.9999678
0.9999983
0.9999993
0.9999993
0.9999992
0.9999988
0.9999976
0.9999952
0.9999923
0.999987
0.9999578
0.9997374
0.9993039
0.9994476
0.9998223
0.9999818
0.9999946
0.9999945
0.9999908
0.9999593
0.9997434
0.9991029
0.9991142
0.999651
0.9999456
0.9999947
0.9999994
1
1
1
0.9999999
0.9999998
0.9999992
0.9999925
0.9999204
0.9996929
0.9993779
0.9972224
0.9960691
0.9967671
0.9980526
0.9973239
0.9954106
0.9955419
0.9978051
0.9981903
0.9956662
0.9739879
0.9660413
0.9690654
0.9887545
0.9965932
0.9849451
0.980947
0.9870661
0.9972572
0.9997993
0.9996597
0.9957627
0.9375587
0.8402194
0.8525392
0.9279027
0.9835246
0.9984127
0.9999453
0.9999989
0.9999994
0.9999971
0.9999505
0.999056
0.997247
0.9979966
0.9994261
0.9999482
0.9999986
0.9999996
0.9999958
0.999992
0.9999959
0.9999993
1
1
1
1
1
1
1
1
0.9999993
0.9999792
0.9997532
0.9996196
0.9996917
0.9999105
0.9999926
0.9999875
0.9998121
0.9958976
0.9731475
0.9734034
0.990472
0.9989083
0.9999596
0.9999736
0.9998075
0.9979057
0.9895453
0.9270604
0.8785795
0.8959335
0.9670339
0.9948772
0.9947398
0.9546953
0.8263382
0.8255677
0.8913466
0.9808842
0.9986401
0.998471
0.9950166
0.9504987
0.6119024
0.6025388
0.8582929
0.9857858
0.9988474
0.9991898
0.9989508
0.9994135
0.9998651
0.9998842
0.9997155
0.9972256
0.9678899
0.9390531
0.9390531
0.9623919
0.992214
0.992727
0.9562481
0.93047
0.941319
0.9819523
0.9984942
0.9999018
0.9995381
0.9950085
0.9881156
0.9895677
0.984441
0.9793798
0.9709672
0.9778065
0.9937392
0.9993667
0.9999764
0.9999972
0.9999961
0.9999842
0.9999812
0.9999882
0.9999975
0.9999998
1
1
1
1
1
1
1
1
1
1
1
1
0.9999999
0.9999997
0.9999984
0.9999898
0.9999407
0.9999115
0.999946
0.999989
0.9999962
0.9999949
0.999973
0.9999351
0.9999597
0.9999893
0.999999
1
1
1
1
1
1
1
1
0.9999997
0.9999951
0.9999386
0.9998616
0.9998991
0.9999708
0.999997
0.9999965
0.9999827
0.9998834
0.9995801
0.9995212
0.9995837
0.9988251
0.9947993
0.9943585
0.9971776
0.9994606
0.999972
0.9999997
1
1
0.9999999
0.9999988
0.9999681
0.9992366
0.9957407
0.9954019
0.9964031
0.9991149
0.9999468
0.9999904
0.9999759
0.99996
0.9999766
0.999995
0.9999976
0.9999964
0.9999906
0.9999671
0.9998732
0.9994168
0.9972983
0.9898549
0.98951
0.9951833
0.9992788
0.9983623
0.9918549
0.9893521
0.989352
0.9893519
0.9900143
0.9941074
0.997886
0.9996192
0.9999782
0.9999991
0.9999953
0.9999157
0.9991471
0.9944228
0.9757377
0.9674416
0.9826635
0.9970845
0.9987113
0.9968353
0.9916325
0.9939696
0.9983969
0.9998772
0.999975
0.999975
0.9998975
0.9986672
0.9861627
0.9720043
0.9720043
0.9720043
0.9798868
0.9957165
0.9975871
0.9939105
0.9920638
0.995837
0.9993205
0.9999751
0.9999999
1
1
0.9999998
0.999997
0.9999539
0.9993426
0.997773
0.9983298
0.9995084
0.999954
0.9999991
1
1
1
1
1
1
0.9999999
0.9999997
0.9999983
0.9999944
0.999995
0.9999984
0.9999998
1
1
1
1
1
1
1
1
1
1
1
1
1
1
1
1
0.9999999
0.9999998
0.9999999
1
1
1
1
1
1
1
1
1
0.9999999
0.9999999
1
1
1
1
1
1
1
1
1
1
1
1
1
1
1
1
1
1
1
1
1
1
1
1
1
1
1
1
1
1
1
1
1
1
1
1
1
1
1
1
1
1
1
1
1
1
1
1
1
1
1
1
1
1
1
1
1
1
1
1
1
1
1
1
1
1
1
1
1
1
1
1
1
1
1
1
1
1
1
1
1
1
1
1
1
1
0.9999999
0.9999996
0.9999975
0.9999868
0.9999392
0.9997536
0.9991812
0.9978939
0.9959173
0.9937498
0.9917313
0.9896662
0.986364
0.9768293
0.9483703
0.9026819
0.8850414
0.8877482
0.9008757
0.9209725
0.9250082
0.9153831
0.8594286
0.7014475
0.6108274
0.6487287
0.7862722
0.8844431
0.9002389
0.9028747
0.8301384
0.5223012
0.4632746
0.6711641
0.9143704
0.9716699
0.9723061
0.9372585
0.6617155
0.5177581
0.7181547
0.9427991
0.9852473
0.9794886
0.8810064
0.6124948
0.6858586
0.9169739
0.985644
0.9816226
0.9124506
0.7792861
0.8405811
0.9524191
0.9845277
0.9818921
0.9517985
0.9323881
0.946797
0.960851
0.9485119
0.9259286
0.9428576
0.9696337
0.9860776
0.985808
0.9350529
0.9028938
0.942148
0.9828847
0.9949716
0.9955349
0.9954054
0.9950018
0.9938424
0.9943096
0.9972416
0.9993913
0.999899
0.9998974
0.9995944
0.9980348
0.9972119
0.9975771
0.9974127
0.9962782
0.9969414
0.9990235
0.9998886
0.9999889
0.9999915
0.9999916
0.9999908
0.9999834
0.9999522
0.9999217
0.9999314
0.9999305
0.9998764
0.9992765
0.9967244
0.9968352
0.9988378
0.999808
0.9999326
0.9999505
0.9999456
0.9996694
0.9943582
0.9897812
0.9923876
0.9979734
0.9997981
0.9999765
0.999998
0.9999999
1
1
1
0.9999999
0.9999992
0.9999876
0.9998719
0.999485
0.9974514
0.9941075
0.994822
0.9980943
0.9994704
0.9993664
0.9969504
0.9783231
0.9534078
0.9685016
0.9934085
0.9921791
0.9780635
0.9813106
0.9909205
0.9975783
0.9980581
0.997922
0.9961198
0.9920732
0.9923327
0.9954772
0.9990429
0.999452
0.9949238
0.888722
0.9074414
0.9664606
0.9944346
0.9995925
0.99997
0.9999966
0.9999994
0.9999994
0.9999988
0.999984
0.99974
0.9991469
0.9993568
0.9998161
0.9999855
0.9999996
0.9999998
0.999999
0.9999986
0.999999
0.9999997
1
1
1
1
1
1
1
0.9999999
0.9999979
0.9999453
0.9996482
0.9996514
0.9998597
0.9999849
0.9999928
0.9999376
0.9985474
0.9809227
0.9696998
0.9751184
0.9926282
0.9994315
0.9999229
0.9994244
0.9940591
0.9524348
0.8739708
0.8807855
0.945282
0.9896724
0.9973032
0.9960416
0.970629
0.8365701
0.8255677
0.9086755
0.9840716
0.9984342
0.9987146
0.9928295
0.8502048
0.5187834
0.508478
0.5163982
0.8343562
0.9837619
0.9977941
0.9991904
0.9994195
0.9994452
0.9993601
0.9974578
0.9769161
0.9578756
0.9578756
0.9682773
0.9876236
0.9980848
0.9984931
0.9854914
0.9333173
0.93047
0.9516055
0.9897383
0.9993956
0.9999082
0.9993793
0.9989847
0.9989926
0.996908
0.9626621
0.8537167
0.9053207
0.9784526
0.9984471
0.9999748
0.9999986
0.9999948
0.9999775
0.9999755
0.9999852
0.9999969
0.9999998
1
1
1
1
1
1
1
1
1
1
0.9999999
0.9999997
0.9999988
0.999994
0.9999685
0.9998284
0.9995343
0.9996386
0.9998979
0.9999904
0.999995
0.9999902
0.9999378
0.9998512
0.9999158
0.9999827
0.999999
1
1
1
0.9999999
0.9999996
0.9999996
0.9999997
0.9999998
0.9999996
0.9999974
0.9999784
0.9998529
0.9996455
0.9997784
0.9999524
0.9999816
0.9999276
0.9996611
0.9986136
0.995018
0.99416
0.99416
0.9975213
0.9995849
0.9998739
0.9998822
0.9998991
0.9999574
0.9999949
0.9999999
1
0.9999999
0.9999981
0.9999584
0.9992477
0.9963151
0.9969714
0.999043
0.9998118
0.9997634
0.9996129
0.9997424
0.9999359
0.9999879
0.999985
0.9999623
0.9998505
0.9994029
0.9979914
0.9939091
0.9839495
0.9803463
0.9803463
0.9814507
0.9927431
0.9991081
0.9998823
0.9998822
0.9998821
0.9998152
0.9976343
0.9797146
0.9688132
0.9796412
0.9950351
0.9996977
0.9999935
0.9999798
0.9996651
0.9927061
0.9204752
0.8824938
0.9187998
0.9792139
0.9874428
0.9805779
0.978882
0.9843872
0.9960045
0.9996898
0.999975
0.999975
0.9999744
0.9997597
0.9952327
0.974603
0.9723907
0.9862711
0.9966024
0.9988432
0.9978948
0.9839438
0.9674044
0.9824389
0.9966263
0.9998078
0.9999879
0.9999818
0.9999798
0.9999884
0.9999896
0.9999443
0.9992358
0.9977799
0.9977607
0.9984667
0.9996703
0.9999823
0.9999998
1
1
1
1
0.9999998
0.9999988
0.9999937
0.9999709
0.9999602
0.9999795
0.9999965
0.9999998
0.9999999
0.9999999
0.9999998
0.9999999
1
1
1
1
1
1
1
1
1
1
1
1
0.9999998
0.9999994
0.9999995
0.9999999
1
1
1
1
1
1
1
1
1
1
0.9999999
1
1
0.9999999
1
1
1
1
1
1
1
1
1
1
1
1
1
1
1
1
1
1
1
1
1
1
1
1
1
1
1
1
1
1
1
1
0.9999998
0.9999999
1
1
1
1
1
1
1
1
1
1
1
1
1
1
1
1
1
1
1
1
1
1
1
1
1
1
1
1
1
1
1
1
1
1
1
1
1
1
1
1
1
1
1
1
1
1
1
1
1
1
1
1
1
1
1
1
1
1
1
0.9999998
0.9999981
0.9999878
0.9999448
0.9997816
0.9992353
0.9975667
0.9930671
0.9814025
0.9562232
0.914705
0.8695877
0.8379106
0.8156045
0.7902836
0.7563142
0.6809949
0.4890615
0.3106897
0.3000921
0.3185437
0.3861581
0.4841817
0.4731058
0.3224873
0.1187568
0.0505327
0.05002734
0.09835176
0.2935648
0.3357088
0.2428556
0.09469053
0.03105409
0.02512538
0.05132796
0.2531385
0.4042006
0.3348369
0.1822475
0.08166528
0.06349141
0.1807011
0.4822599
0.4757469
0.3039753
0.1166279
0.06383754
0.1471963
0.681876
0.7918105
0.5015307
0.1355794
0.1495936
0.5950051
0.8653096
0.7024074
0.4391639
0.5739212
0.8886167
0.844983
0.485947
0.4703096
0.6954397
0.9089219
0.87429
0.5502467
0.5257281
0.8064128
0.9255079
0.8779634
0.8263855
0.8515679
0.9210262
0.9233632
0.8936506
0.9219575
0.9693074
0.9903001
0.9933411
0.9941589
0.9970915
0.9985291
0.9973048
0.9949427
0.9920085
0.98602
0.9805514
0.9870548
0.9970688
0.9997936
0.9999616
0.999937
0.9998648
0.9997573
0.9996384
0.9995499
0.9995649
0.9997891
0.9998787
0.9996542
0.9969317
0.9910332
0.9924365
0.9959586
0.9984468
0.9978303
0.9796342
0.9651884
0.9738088
0.9923988
0.9973905
0.9942078
0.9951012
0.9984548
0.9998728
0.9999981
0.9999999
0.9999999
0.9999999
0.9999998
0.9999992
0.9999966
0.9999819
0.9998078
0.995476
0.9863898
0.9877269
0.9946385
0.9988958
0.9996503
0.9994913
0.9972086
0.9700198
0.9113921
0.9105422
0.9521607
0.9930247
0.9993722
0.9989327
0.9978006
0.9968368
0.9885207
0.9636155
0.9495866
0.9516261
0.9563831
0.9622319
0.9731
0.989884
0.9934365
0.9675693
0.8257822
0.8874296
0.9683918
0.9968499
0.9999297
0.9999938
0.9999941
0.9999942
0.9999968
0.9999961
0.9999694
0.9995824
0.9987566
0.9991192
0.9997601
0.999982
0.9999997
1
1
1
1
1
1
1
0.9999998
0.9999972
0.9999758
0.9999506
0.9999704
0.999995
0.9999901
0.9999309
0.9998825
0.9999174
0.9999778
0.9999943
0.9999914