/*--------------------------------*- C++ -*----------------------------------*\
| =========                 |                                                 |
| \\      /  F ield         | foam-extend: Open Source CFD                    |
|  \\    /   O peration     | Version:     3.1                                |
|   \\  /    A nd           | Web:         http://www.extend-project.de       |
|    \\/     M anipulation  |                                                 |
\*---------------------------------------------------------------------------*/
FoamFile
{
    version     2.0;
    format      ascii;
    class       volScalarField;
    location    "16.5";
    object      nut;
}
// * * * * * * * * * * * * * * * * * * * * * * * * * * * * * * * * * * * * * //

dimensions      [0 2 -1 0 0 0 0];

internalField   nonuniform List<scalar> 
119952
(
4.568276e-05
2.948319e-05
2.98446e-05
3.345287e-05
3.597635e-05
3.403934e-05
3.287953e-05
3.208478e-05
3.146047e-05
3.087959e-05
3.028928e-05
2.967424e-05
2.902261e-05
2.834085e-05
2.765543e-05
2.700093e-05
2.640319e-05
2.586294e-05
2.532773e-05
2.467984e-05
3.214045e-05
3.007037e-05
2.91068e-05
3.823036e-05
3.629503e-05
3.526979e-05
3.444009e-05
3.408827e-05
3.360129e-05
2.217986e-05
3.018867e-05
3.236492e-05
3.635626e-05
4.060895e-05
4.520077e-05
5.012862e-05
5.53919e-05
6.086064e-05
6.645912e-05
7.589913e-05
0.0003263889
0.0003859467
0.000449951
0.000514821
0.0005781937
0.0006389141
0.0006965025
0.0007511592
0.0008021973
0.001111519
0.001160879
0.001207339
0.001252557
0.00129719
0.001341969
0.001387434
0.001433709
0.001480511
0.001528476
0.001576156
0.001620451
0.00166381
0.001707081
0.00175106
0.001796603
0.001844723
0.001896485
0.001954285
0.00198719
0.002036977
0.00206466
0.002102558
0.002138754
0.002168426
0.00219135
0.002208713
0.002220998
0.002226952
0.002224909
0.002213123
0.002190544
0.002157644
0.002116996
0.002072499
0.002027786
0.001985367
0.001947133
0.001915192
0.001895387
0.001874087
0.001859839
0.001855292
0.001861696
0.001862738
0.001860016
0.001850364
0.001804591
0.001703711
0.001676473
0.001674532
0.001689987
0.001717491
0.00175507
0.00179891
0.001846636
0.001895959
0.001944842
0.001991444
0.002034131
0.002071676
0.002103288
0.002128677
0.00214815
0.002162351
0.002172046
0.002177986
0.002180785
0.002180766
0.002177866
0.002171188
0.002158204
0.002140257
0.002119785
0.002096381
0.002068906
0.00203622
0.001997334
0.001951498
0.00189829
0.00183766
0.001770032
0.001696375
0.001617803
0.001534287
0.00144301
0.001339241
0.001223757
0.001112589
0.001024807
0.0009630374
0.0009213016
0.0008947311
0.0008795743
0.0008720685
0.0008680232
0.0008625514
0.0008551752
0.0008540944
0.0008585946
0.0008690608
0.0008819281
0.0008941459
0.0009038823
0.0009107902
0.0009156634
0.0009196343
0.0009236586
0.0009282054
0.0009335391
0.0009399562
0.0009476656
0.0009568071
0.000967542
0.0009800901
0.0009948227
0.00101244
0.00103281
0.001055423
0.001079206
0.001103609
0.001129152
0.001156473
0.001186138
0.001218468
0.001253448
0.001290723
0.001329653
0.00136946
0.001409411
0.001448831
0.001486936
0.001522689
0.001554896
0.001582438
0.001604524
0.001620865
0.001631678
0.001637551
0.001639012
0.001634395
0.001617386
0.001581693
0.001523308
0.00144385
0.001353997
0.001261882
0.001176384
0.001033138
0.0008553031
0.0007517414
0.0006876579
0.0006485927
0.0006218478
0.0005976785
0.0005680676
0.0005314839
0.000488559
0.0004420961
0.0003967844
0.0003591806
0.0003334981
0.0003019772
0.0002684977
0.0002528084
0.0002565648
0.0002711582
0.0002863884
0.0002968906
0.0003024627
0.0003067866
0.0003139565
0.000325116
0.0003379848
0.0003420629
0.0003425783
0.0003411496
0.0003375923
0.0003320142
0.0003249171
0.0003168503
0.0003083477
0.0003000692
0.0002956352
0.0002984332
0.0003013792
0.0003035021
0.0003014594
0.0002972195
0.0002921442
0.0002873106
0.0002834893
0.0002812311
0.0002807676
0.0002818327
0.00028429
0.0002875756
0.0002915628
0.0002962339
0.0003016165
0.0003077624
0.0003145956
0.0003225131
0.0003311807
0.0003403079
0.0003494247
0.0003547062
0.0003601076
0.0003656778
0.0003713708
0.0003771589
0.0003830433
0.0003889995
0.0003950095
0.0004010672
0.0004071642
0.0004132508
0.0004193583
0.0005451243
0.000558425
0.0005715881
0.0005840433
0.000596014
0.0006074562
0.000618417
0.0006289412
0.0006391813
0.000649121
0.0006587126
0.0006679306
0.0006767614
0.0006851962
0.0006932235
0.0007008101
0.0007079032
0.0007144514
0.0007204349
0.0007258881
0.0007308694
0.0007353873
0.000739379
0.0007427439
0.0007453979
0.0007472369
0.0007483111
0.0007487709
0.0007487898
0.0007486446
0.0007486851
0.000749279
0.0007507421
0.0007533088
0.0007570842
0.000762053
0.0007680976
0.000775018
0.0007825862
0.0007905953
0.0007989036
0.0008074649
0.0008163374
0.0008256598
0.0008356114
0.000846325
0.0008576694
0.0008699172
0.0008831943
0.00089718
0.0009114262
0.0009254348
0.0009387115
0.0009508105
0.000962292
0.0009697149
0.0009759559
0.0009814536
0.0009864062
0.0009908216
0.0009945009
0.0009970967
0.0009982461
0.0009977806
0.0009959104
0.0009932698
0.0009907972
0.0009894872
0.0009901577
0.0009931687
0.0009983054
0.001004881
0.001011836
0.001017739
0.001020788
0.001018916
0.001009452
0.0009875801
0.000946781
0.0008798421
0.0008039384
0.0007417697
0.0006935011
0.0006533578
0.0006205859
0.0005989516
0.000588699
0.000571901
0.0005728895
0.0005871596
0.0006047846
0.0006213006
0.0006378096
0.000655856
0.0006749345
0.000693696
0.0007121724
0.0007309041
0.0007507201
0.0007723402
0.000790048
0.0008078385
0.0008241784
0.0008376118
0.0008475215
0.0008544739
0.0008594961
0.0008638508
0.0008684634
0.0008737176
0.0008798203
0.0008870182
0.0008954651
0.0009051846
0.0009160893
0.00092803
0.0009408432
0.0009544047
0.0009687221
0.0009839305
0.0009996456
0.001015439
0.001030816
0.001045324
0.00105863
0.001070521
0.001080883
0.00108967
0.001096886
0.001102589
0.001106904
0.001110048
0.00111231
0.001114079
0.001115822
0.001118404
0.001123122
0.001134364
0.0009955174
4.492002e-05
4.831263e-05
5.483759e-05
6.293134e-05
7.178974e-05
8.08612e-05
8.987473e-05
9.871175e-05
0.0001083284
0.0004106882
0.0005264194
0.0006509879
0.0007752672
0.0008936139
0.001003083
0.001103005
0.001194341
0.001278696
0.001835225
0.001920166
0.00200834
0.002094035
0.002177751
0.002258922
0.002337734
0.002414346
0.00248887
0.002560796
0.002631099
0.002696231
0.002756865
0.002815823
0.002874429
0.002933021
0.002991275
0.003048651
0.003104687
0.003148615
0.003177742
0.003208625
0.003243102
0.003280698
0.003321107
0.00336426
0.003410032
0.003457863
0.003507258
0.003557199
0.003605775
0.00365277
0.003697131
0.003738019
0.003774748
0.003806466
0.003832409
0.003851563
0.004502068
0.004506595
0.004510031
0.004513489
0.004517843
0.004523824
0.004531746
0.004541875
0.004553659
0.004566493
0.004579964
0.004592928
0.004604685
0.004615117
0.00462508
0.004635188
0.004647325
0.004662665
0.00468428
0.004706282
0.004726739
0.004752805
0.004785932
0.004822885
0.004858344
0.004892912
0.004926757
0.004958679
0.004986894
0.005009128
0.005022782
0.005025314
0.005014706
0.004989753
0.004950113
0.004896179
0.00482922
0.004751412
0.004666146
0.004577069
0.004486104
0.004400355
0.004324474
0.004252082
0.004183743
0.004124318
0.004071758
0.004024097
0.003994478
0.003995101
0.004019027
0.0040635
0.004125723
0.00420458
0.004297016
0.004399174
0.004506832
0.00461585
0.004722462
0.004823513
0.004916651
0.005000466
0.005074527
0.005139211
0.005195403
0.005244174
0.005286504
0.005323162
0.005354717
0.005381574
0.005403995
0.005421888
0.005434168
0.005437481
0.005434209
0.005423015
0.005401789
0.005368419
0.005320975
0.00525783
0.005177738
0.005080018
0.004964839
0.004833224
0.004686118
0.004522988
0.004342553
0.004146273
0.003938344
0.003721905
0.003499531
0.003276479
0.003060941
0.002862337
0.002688136
0.002541502
0.002423247
0.002333654
0.00227029
0.002228724
0.002205419
0.002196333
0.002197816
0.002206857
0.00222117
0.002239113
0.002259508
0.002281437
0.002304156
0.002327061
0.002349687
0.002371752
0.002393281
0.002414715
0.002436842
0.002460866
0.00248789
0.002519172
0.00255609
0.002600152
0.002653042
0.002716565
0.002792507
0.002882477
0.002987745
0.003109069
0.003246589
0.003399847
0.003567813
0.003748879
0.003940843
0.004140785
0.004344891
0.004548456
0.004746492
0.004934778
0.005110446
0.005271954
0.005418657
0.005548932
0.005657071
0.005732628
0.005764702
0.005746965
0.005678928
0.005565216
0.005424945
0.005282885
0.004929025
0.00451515
0.004231181
0.004036508
0.003911692
0.003823273
0.003735754
0.003621761
0.003464527
0.003257275
0.003002547
0.002712481
0.002408027
0.002113122
0.001846757
0.001623596
0.001455652
0.001341262
0.001265573
0.001211211
0.001165444
0.001123268
0.001086988
0.001062571
0.001055116
0.001066512
0.001095403
0.001138252
0.001190556
0.001247662
0.001305264
0.001359895
0.001409262
0.001452221
0.001488366
0.00151784
0.001542673
0.001562877
0.001577613
0.001586244
0.001588369
0.001583818
0.001572736
0.001555559
0.00153272
0.00150473
0.001472494
0.00143703
0.00139937
0.001360928
0.001323657
0.001289933
0.001261322
0.001239265
0.00122507
0.001219257
0.00122177
0.001231854
0.001247957
0.001269358
0.001295894
0.001327515
0.001363371
0.001402743
0.001444845
0.001489003
0.001534669
0.001581418
0.001628877
0.001676488
0.001957718
0.002015091
0.002072605
0.002129676
0.002185886
0.00224105
0.002295103
0.002348002
0.002399704
0.002450177
0.002499383
0.002547275
0.002593788
0.002638814
0.002682189
0.002723689
0.002763053
0.00280005
0.002834528
0.002866392
0.002895518
0.002921676
0.002944516
0.002963687
0.002978932
0.002990193
0.002997695
0.003001995
0.003003992
0.003004823
0.00300576
0.003007997
0.003012449
0.003020053
0.003031191
0.003045837
0.003063578
0.003083756
0.003105662
0.003128721
0.003152648
0.003177529
0.003203828
0.003232318
0.003263876
0.003299223
0.003338584
0.003381636
0.003427298
0.003473989
0.003519674
0.00356253
0.003600602
0.003633018
0.003659456
0.003680026
0.003695825
0.003707886
0.003716657
0.003721879
0.003722741
0.003718282
0.003707948
0.003692102
0.003672268
0.003650958
0.003631112
0.003615354
0.003605282
0.003601106
0.003601857
0.003605611
0.003609319
0.003608878
0.00359942
0.003575301
0.003529025
0.003453211
0.003343657
0.003202048
0.00303621
0.002850892
0.002647232
0.002429247
0.002209137
0.002004328
0.001827126
0.001681041
0.001564645
0.001474764
0.0014076
0.001359273
0.001326262
0.001305313
0.001274051
0.001226094
0.00119577
0.001180626
0.001176687
0.001180569
0.00119088
0.001207748
0.001231998
0.001264586
0.001306079
0.001356087
0.001413363
0.001476215
0.001542581
0.001605214
0.001645315
0.001687113
0.001730936
0.001776839
0.001824628
0.001873893
0.001924067
0.001974649
0.002025097
0.002074797
0.002123018
0.002169207
0.002213598
0.002256443
0.002297253
0.002335606
0.002371222
0.002403926
0.002433631
0.002460305
0.002484051
0.002504998
0.002523518
0.002539756
0.002554393
0.002567625
0.002581791
0.002599062
0.002617472
3.257446e-05
4.055122e-05
5.27822e-05
6.766943e-05
8.590422e-05
0.0001085419
0.0001375893
0.000176016
0.0002296723
0.0003317917
0.001142237
0.001322735
0.001496184
0.001628092
0.001763634
0.001900504
0.002040508
0.00218171
0.002338043
0.004316547
0.00459032
0.004735696
0.00484278
0.00493226
0.005012126
0.0050856
0.005150775
0.00520852
0.005263175
0.005344797
0.00545577
0.005570642
0.005674448
0.005761771
0.005832976
0.005890644
0.005937578
0.005980924
0.005909957
0.005889948
0.00589792
0.005921767
0.00595357
0.005988141
0.006022174
0.006053667
0.006081461
0.006105474
0.006125183
0.006142435
0.006158675
0.006174248
0.006188897
0.006202061
0.006213608
0.00622317
0.007027669
0.0070416
0.007051776
0.007060149
0.007066316
0.007070066
0.007072225
0.00707394
0.00707635
0.007079372
0.007082159
0.007084489
0.007085896
0.007086446
0.007086735
0.007087122
0.007087421
0.007087439
0.007087201
0.00708647
0.007085409
0.007084679
0.007084205
0.007083971
0.007084541
0.007086582
0.007090576
0.007096374
0.007103579
0.007111799
0.007119649
0.007126004
0.007130046
0.007131223
0.007128275
0.00712048
0.007105846
0.007086174
0.007048721
0.007008963
0.006968898
0.00693095
0.006895443
0.006862604
0.006832575
0.006805534
0.006781545
0.006760552
0.00674207
0.006725093
0.006708559
0.006691856
0.006675031
0.006658611
0.006643685
0.006631484
0.006623275
0.006619067
0.006617827
0.006620231
0.006626888
0.00663671
0.006649089
0.006664743
0.006684018
0.006706373
0.006730402
0.00675396
0.006774321
0.006788423
0.006793172
0.006785694
0.006763544
0.006724815
0.006668428
0.006594246
0.006503673
0.006399195
0.006283272
0.006161399
0.00603956
0.005919539
0.005804421
0.00570104
0.005612368
0.005543445
0.005500239
0.005490769
0.005513676
0.005566114
0.00564409
0.005744999
0.005865462
0.006000566
0.006144932
0.006293202
0.006440486
0.006582666
0.006716613
0.006840342
0.006953042
0.007054808
0.00714622
0.007227947
0.007300398
0.007363669
0.007417697
0.007462488
0.007498236
0.007525236
0.007543526
0.007552173
0.007549903
0.007537543
0.007513967
0.007477912
0.007428087
0.007363153
0.007281792
0.007183144
0.007067549
0.006936814
0.006793006
0.006636537
0.006465812
0.006278189
0.006069957
0.005836914
0.005577157
0.00529359
0.004994755
0.004694032
0.004405392
0.004139779
0.003905651
0.003708581
0.003549523
0.003425915
0.003334469
0.003271268
0.003232105
0.003213091
0.003210789
0.003222189
0.003244602
0.003275507
0.003312418
0.00335283
0.003394256
0.003434374
0.003471331
0.003504085
0.003532528
0.003557647
0.003581334
0.003605764
0.003633768
0.003668757
0.00371462
0.003775512
0.003855516
0.003958288
0.004086669
0.004242353
0.004425827
0.004636403
0.004872228
0.005130417
0.005407252
0.00569796
0.005996097
0.006293634
0.00658257
0.006856903
0.007113444
0.007351057
0.007569226
0.007765544
0.007931762
0.008054375
0.008122401
0.008133775
0.008095252
0.008017586
0.007910596
0.007787155
0.00765019
0.007535366
0.007440072
0.007363833
0.007297429
0.007222249
0.00711873
0.00697027
0.006766387
0.006503137
0.00618307
0.005815204
0.005414041
0.004998277
0.004590326
0.004214143
0.003887345
0.003613296
0.003382763
0.003181166
0.002995394
0.002818012
0.002648971
0.002493792
0.002360228
0.002255046
0.002181558
0.002139084
0.002123837
0.002130279
0.002152585
0.002185686
0.002225687
0.002269919
0.002316635
0.002364231
0.002411292
0.002458451
0.002506441
0.002554037
0.002599887
0.002642476
0.002680237
0.00271176
0.002735726
0.002750612
0.002754933
0.002747539
0.002727737
0.002695515
0.002651781
0.002598609
0.002540172
0.002480126
0.002422145
0.002369644
0.002325424
0.002291411
0.002268582
0.00225703
0.002256135
0.002264759
0.002281507
0.002306516
0.002341028
0.00238531
0.002438813
0.00250082
0.002570728
0.002647947
0.002728682
0.00281481
0.002905475
0.002999548
0.003096204
0.003194826
0.003294852
0.003395676
0.003496669
0.003597253
0.003696903
0.003795128
0.003891473
0.003985481
0.004076649
0.004164413
0.004248169
0.004327392
0.004401726
0.004470948
0.004534814
0.004592921
0.00464475
0.004689861
0.004728071
0.004759595
0.004785157
0.004806094
0.004824771
0.004842437
0.004859732
0.004877518
0.004896948
0.004918723
0.004944059
0.004974231
0.005008391
0.005045137
0.005083247
0.005121902
0.005160867
0.005200563
0.005242014
0.005286665
0.005336019
0.005391052
0.00545164
0.005516424
0.005583024
0.005648479
0.005709678
0.005763827
0.005808871
0.005843871
0.005869373
0.005886902
0.005898471
0.005905761
0.005909344
0.005908534
0.005901808
0.005887582
0.005865126
0.005835271
0.005800612
0.005765027
0.005732684
0.005706897
0.005689258
0.005679415
0.005675701
0.005675429
0.005674524
0.00566796
0.005650197
0.005615171
0.005555792
0.005463464
0.005335372
0.005171688
0.00497504
0.004746877
0.004487411
0.004199832
0.003894305
0.003586173
0.00328962
0.003014432
0.002766636
0.002549056
0.002361698
0.002203139
0.002071402
0.001964045
0.00187802
0.001809898
0.00175667
0.001716243
0.001687346
0.001669109
0.001660622
0.00166051
0.001639921
0.001595565
0.001569872
0.001562112
0.001570213
0.001592253
0.001627236
0.001675071
0.001735599
0.0018073
0.001888018
0.001975719
0.002069304
0.002166447
0.002247899
0.002316526
0.002386391
0.00245688
0.002527224
0.002596561
0.002663904
0.002728377
0.00279021
0.002849533
0.002906161
0.002959977
0.003010896
0.00305888
0.003103922
0.00314611
0.00318556
0.003222498
0.003257178
0.003290227
0.003322424
0.003355251
0.00338674
3.867074e-05
6.372765e-05
0.0001391641
0.0004801335
0.0008352392
0.001529653
0.002056944
0.002700873
0.003437725
0.004053309
0.004514242
0.00489097
0.005255766
0.005606843
0.005966734
0.006307795
0.006619432
0.006918852
0.007207147
0.007487891
0.007770783
0.008045661
0.008254831
0.008391189
0.008495039
0.008574292
0.008633541
0.0086796
0.008712743
0.008504776
0.008638106
0.007844112
0.007769114
0.007711701
0.007679642
0.007682793
0.007718288
0.007783451
0.007878299
0.007997043
0.008130557
0.008293215
0.008474093
0.008679495
0.008895302
0.009118808
0.009355961
0.009609111
0.009700102
0.009736114
0.009764453
0.009785602
0.009800457
0.009810295
0.009816134
0.009818624
0.00981804
0.009814461
0.009807811
0.009798291
0.009786759
0.009774207
0.009761368
0.009748382
0.009734543
0.009718772
0.009700533
0.00968183
0.009643626
0.009610195
0.009581692
0.00955704
0.00953431
0.009511935
0.009489409
0.009467404
0.009447147
0.00942916
0.009412827
0.009396844
0.009380007
0.009362138
0.009343945
0.00932607
0.009308413
0.009290462
0.009271942
0.009253118
0.009234447
0.009216021
0.009197652
0.00917941
0.009161919
0.009146009
0.009132294
0.009120839
0.009111235
0.009102682
0.009094057
0.009084392
0.009073039
0.009059487
0.009042904
0.009022232
0.008996444
0.008965827
0.00893244
0.008895594
0.008854668
0.008810149
0.008764621
0.008719901
0.008677256
0.008637508
0.008600964
0.008567437
0.008536028
0.008505601
0.008475297
0.008444266
0.008412239
0.008379386
0.008346577
0.008314447
0.008283949
0.008255012
0.008228063
0.008204788
0.008186553
0.008173606
0.008165843
0.00816355
0.008167103
0.008176407
0.008190598
0.008208015
0.008226296
0.00824254
0.008253497
0.008255787
0.008246111
0.008221438
0.008179285
0.008117956
0.008036884
0.007936773
0.00781953
0.007688743
0.00754961
0.007407225
0.007267468
0.007137722
0.007024823
0.006935687
0.006876714
0.006853313
0.006866867
0.006915908
0.006996876
0.007105784
0.007239384
0.007391816
0.007556734
0.007727913
0.007899795
0.008067757
0.008228277
0.00837907
0.008519094
0.008648129
0.008765904
0.008872587
0.008967843
0.009050798
0.009120505
0.0091764
0.009218572
0.00924768
0.009264575
0.009269886
0.009263796
0.009246997
0.009219424
0.00918078
0.009130663
0.009068502
0.008993514
0.008905174
0.008804145
0.00869252
0.008572224
0.00844242
0.008300145
0.008140123
0.0079553
0.007738598
0.007485479
0.007195893
0.006875581
0.006535853
0.006190783
0.005854544
0.005540093
0.005257582
0.005012831
0.004807771
0.004642157
0.004514255
0.004421327
0.00436015
0.004327317
0.004319359
0.004332739
0.004363781
0.004408583
0.004462987
0.004522653
0.004583296
0.004641084
0.004693091
0.004737633
0.004774438
0.004805662
0.004833638
0.004862007
0.004895687
0.004940691
0.005003641
0.005090989
0.005208136
0.005358715
0.005544268
0.005764298
0.006016564
0.006297473
0.006602597
0.00692702
0.007264582
0.007606779
0.007943056
0.008263776
0.008562726
0.008838545
0.009093261
0.00932769
0.009538042
0.009712608
0.009835888
0.00990034
0.009910966
0.009881656
0.009827945
0.009756325
0.009676115
0.00959421
0.009517335
0.009449939
0.00939164
0.009332604
0.009256454
0.009146174
0.008988223
0.008774585
0.008501972
0.008170885
0.007788606
0.007366223
0.006919449
0.006470264
0.006044194
0.005661528
0.005329226
0.005041158
0.004784009
0.004543687
0.004310263
0.00408044
0.003857239
0.00364799
0.003461133
0.003303253
0.003177816
0.00308495
0.00302184
0.002984265
0.002968093
0.00296951
0.002985416
0.003013345
0.003051264
0.003097197
0.003148561
0.0032027
0.003259985
0.003321042
0.003384141
0.003447229
0.003508214
0.003564805
0.003614451
0.003654525
0.003682471
0.003696015
0.003693389
0.003673569
0.003636472
0.003583837
0.003519215
0.003446533
0.003370272
0.003295017
0.003225003
0.003163769
0.003113938
0.003077175
0.00305424
0.003045251
0.003049594
0.00306585
0.003094577
0.003137935
0.003195555
0.003266841
0.003350874
0.003446544
0.003552696
0.003668129
0.00379153
0.003921575
0.004057011
0.004196646
0.004339298
0.004483804
0.004629077
0.004774112
0.004917948
0.005059702
0.005198536
0.005333557
0.005463781
0.005588216
0.005706022
0.005816642
0.005919754
0.00601502
0.006101897
0.006179772
0.006248275
0.00630754
0.006358398
0.00640257
0.006442826
0.006478955
0.006512523
0.00654604
0.006581492
0.006620102
0.006662215
0.006707247
0.006754072
0.006803876
0.006855394
0.00690706
0.006958029
0.007008374
0.007059099
0.007111955
0.007169075
0.007232382
0.007302633
0.007378706
0.007457774
0.007536005
0.007609306
0.007673918
0.007726885
0.007766514
0.007792768
0.007807407
0.007813556
0.007814693
0.007813162
0.007809232
0.007801284
0.007786748
0.007763317
0.007730173
0.007688787
0.00764294
0.007597802
0.007558392
0.007528075
0.007507759
0.007496235
0.007491261
0.007489416
0.007485911
0.007475588
0.00745318
0.007413269
0.007350093
0.007257288
0.007129969
0.006968605
0.006772807
0.006542297
0.006276738
0.005977637
0.005650546
0.005305134
0.004952894
0.004604807
0.004270099
0.003955513
0.003665211
0.003401505
0.003165655
0.002957851
0.002776783
0.002620204
0.002485787
0.002371448
0.002275387
0.002196078
0.002132236
0.002082678
0.002046312
0.002022106
0.002009112
0.002006321
0.002012334
0.001993609
0.001939028
0.001909096
0.00190199
0.001915288
0.001946207
0.001992393
0.002052318
0.00212507
0.002209278
0.002302747
0.002403142
0.002508784
0.00261909
0.002732094
0.002844301
0.002927854
0.003003002
0.00307634
0.003147956
0.003217741
0.003285521
0.003351176
0.003414661
0.003476011
0.00353525
0.003592565
0.003648048
0.0037022
0.003755265
0.003808375
0.003858647
2.157783e-05
3.513426e-05
5.340535e-05
0.000232147
0.0003830044
0.0006614577
0.0009345186
0.001185684
0.001501376
0.001808844
0.002141166
0.00257079
0.003080217
0.003656734
0.004303186
0.005125358
0.006715878
0.007355757
0.007972813
0.008523797
0.009003514
0.009409701
0.009758281
0.01
0.01
0.01
0.01
0.01
0.01
0.01
0.01
0.01
0.01
0.01
0.009769761
0.009259441
0.008775082
0.008326749
0.007934297
0.007606072
0.007269218
0.007014731
0.006983618
0.006860869
0.006779625
0.006751178
0.006756536
0.006795184
0.00686556
0.006969651
0.007103467
0.007261435
0.007446104
0.007654938
0.00789544
0.008153643
0.008443611
0.008764445
0.009114408
0.009485784
0.009901812
0.01
0.01
0.01
0.01
0.01
0.01
0.01
0.01
0.01
0.01
0.01
0.01
0.01
0.01
0.01
0.01
0.01
0.01
0.01
0.01
0.01
0.01
0.01
0.01
0.01
0.01
0.01
0.01
0.01
0.01
0.01
0.01
0.01
0.01
0.01
0.01
0.01
0.01
0.01
0.01
0.01
0.01
0.01
0.01
0.01
0.01
0.01
0.01
0.01
0.01
0.01
0.01
0.01
0.01
0.01
0.01
0.01
0.01
0.01
0.01
0.01
0.01
0.01
0.009981229
0.009936929
0.00989655
0.00985913
0.009823191
0.009787243
0.009750115
0.009711348
0.009671172
0.009630404
0.009589889
0.009550476
0.009512676
0.009476989
0.009444436
0.009416172
0.009392942
0.009375154
0.009363218
0.009357573
0.009358371
0.009365165
0.009376767
0.009391271
0.00940616
0.009418455
0.009424893
0.009422122
0.009406889
0.009376274
0.009327931
0.009260363
0.009173162
0.009067133
0.008944278
0.008808618
0.008665718
0.008522343
0.008386471
0.008266366
0.008170097
0.008104677
0.008075259
0.008084144
0.008130775
0.008212144
0.008323721
0.008461681
0.008619763
0.008791211
0.008969165
0.009147978
0.009323464
0.009492361
0.009652642
0.009803604
0.009945377
0.01000001
0.01000003
0.01000004
0.01000002
0.01
0.01
0.01
0.01
0.01
0.01
0.01
0.01
0.01
0.01
0.01
0.01
0.01
0.01
0.01
0.01000001
0.01000007
0.009905326
0.009787993
0.00965173
0.009489763
0.009295653
0.009064729
0.008795118
0.008488759
0.008154151
0.007802994
0.00744844
0.007103563
0.006779847
0.006485941
0.006227563
0.006008069
0.005828864
0.005689775
0.005589456
0.005525669
0.005495443
0.005495153
0.005520549
0.00556678
0.005628485
0.005699985
0.005775633
0.005850283
0.005919803
0.00598141
0.006033393
0.006078197
0.006118219
0.006157543
0.006202055
0.006259233
0.006337301
0.006443807
0.00658417
0.006760873
0.006973509
0.007219363
0.007494291
0.007793682
0.008112906
0.008447328
0.008789735
0.009131022
0.009459873
0.00976695
0.01000001
0.01000008
0.01000051
0.01000322
0.01001542
0.0100131
0.01000407
0.01000048
0.01000002
0.01000001
0.01000003
0.01000055
0.01000503
0.01000653
0.01000653
0.01000472
0.01000142
0.01000037
0.01000008
0.01000001
0.01
0.01
0.01
0.009729444
0.009361645
0.008954812
0.008520011
0.008077683
0.007653297
0.007268151
0.006930551
0.006633994
0.006363845
0.006105689
0.005849551
0.005591166
0.005332501
0.005080258
0.004842873
0.004628075
0.004441329
0.004285109
0.004159274
0.004062218
0.003991579
0.003944946
0.003919995
0.003914516
0.003926341
0.003953328
0.003993242
0.004043765
0.004102254
0.004165764
0.0042342
0.004307423
0.004382841
0.004457548
0.004528372
0.004591968
0.004644984
0.00468426
0.00470705
0.004711254
0.004695621
0.004660041
0.004606221
0.004537035
0.004456382
0.004368885
0.004279511
0.004193156
0.004114265
0.004046576
0.003992958
0.003955414
0.003935034
0.003932068
0.003945765
0.003975669
0.004024413
0.004091566
0.004176179
0.004276978
0.00439247
0.004521055
0.004661036
0.004810678
0.004968304
0.005132321
0.005301171
0.005473314
0.005647268
0.005821631
0.00599509
0.006166448
0.006334588
0.006498319
0.006656326
0.006807283
0.006950074
0.007083989
0.007208647
0.007323639
0.007428306
0.007522043
0.007604778
0.007677251
0.00774119
0.00779937
0.007851491
0.007899718
0.007946907
0.007995607
0.008047538
0.008103351
0.008162682
0.008224368
0.008286739
0.008348329
0.008409359
0.008468454
0.008525152
0.00858018
0.008635378
0.008693307
0.008756418
0.008826713
0.008904295
0.008986598
0.009069281
0.00914748
0.009216639
0.009273093
0.009314429
0.009339827
0.00935043
0.009349477
0.009341719
0.009331864
0.009322424
0.009312736
0.009299814
0.009279906
0.009250098
0.009209726
0.009161108
0.009109295
0.009060624
0.009020519
0.00899172
0.008973892
0.008964822
0.008961706
0.008960453
0.008956168
0.008944275
0.00892027
0.008879622
0.008817526
0.008729313
0.008610328
0.008460202
0.008278344
0.008063938
0.007816088
0.00753462
0.00722174
0.006882893
0.006526197
0.006160846
0.00579552
0.005437575
0.005092923
0.004765975
0.004459959
0.004176841
0.003917312
0.003681198
0.003467936
0.003276798
0.003106704
0.00295637
0.002824671
0.002710579
0.002613104
0.002531403
0.002464857
0.002412964
0.002375122
0.002350567
0.002338343
0.002337383
0.002346468
0.002364012
0.002340188
0.002297401
0.002281961
0.002289966
0.002317854
0.002362131
0.002420135
0.002489857
0.002569697
0.00265795
0.002752907
0.002852656
0.002955899
0.003062143
0.003171004
0.003280743
0.003387124
0.003462791
0.003537487
0.003611209
0.003683863
0.00375558
0.00382633
0.003896548
0.003966153
0.004036154
0.004102579
1.992356e-05
3.07636e-05
6.062888e-05
0.0001854575
0.0002999786
0.0004815476
0.0006189489
0.0007749151
0.0009592382
0.00113839
0.001347822
0.001618565
0.00192683
0.00229268
0.00276718
0.003693176
0.004125996
0.004590295
0.005078377
0.005588931
0.006127328
0.006685118
0.007246507
0.007797792
0.008323283
0.008811404
0.009278709
0.00977866
0.01
0.01
0.01
0.01
0.01
0.01
0.01
0.01
0.01
0.01
0.01
0.01
0.01
0.01
0.009666654
0.009149775
0.008640338
0.008147232
0.007700337
0.007308067
0.006971446
0.006691192
0.006468157
0.006284701
0.006153979
0.006047193
0.005992825
0.005998556
0.006051873
0.006147204
0.006278723
0.006448824
0.006653289
0.006894506
0.007163451
0.007479822
0.007847931
0.008265483
0.00873006
0.009233627
0.009775007
0.01
0.01
0.01
0.01
0.01
0.01
0.01
0.01
0.01
0.01
0.01
0.01
0.01
0.01
0.01
0.01
0.01
0.01
0.01
0.01
0.01
0.01
0.01
0.01
0.01
0.01
0.01
0.01
0.01
0.01
0.01
0.01
0.01
0.01
0.01
0.01
0.01
0.01
0.01
0.01
0.01
0.01
0.01
0.01
0.01
0.01
0.01
0.01
0.01
0.01
0.01
0.01
0.01
0.01
0.01
0.01
0.01
0.01
0.01
0.01
0.01
0.01
0.01
0.01
0.01
0.01
0.01
0.01
0.01
0.01
0.01
0.01
0.01
0.01
0.01
0.01
0.01
0.01
0.01
0.01
0.01
0.01
0.01
0.01
0.01
0.01
0.01
0.01
0.01
0.01
0.01
0.01
0.01
0.01
0.01
0.01
0.01
0.01
0.01
0.009947716
0.009825527
0.009695288
0.009563454
0.009437764
0.009326538
0.009237927
0.00917893
0.009154549
0.009167171
0.009216423
0.00929943
0.009411466
0.009548197
0.009703572
0.009871375
0.01
0.01
0.01
0.01
0.01
0.01000002
0.01000008
0.01000014
0.0100001
0.01000003
0.01
0.01
0.01
0.01
0.01000002
0.01000005
0.0100001
0.01000011
0.01000007
0.01000002
0.01
0.01
0.01
0.01
0.01
0.01000002
0.01000026
0.01000308
0.01001182
0.01001029
0.01000306
0.01000025
0.01
0.01
0.01
0.009781263
0.009472926
0.009145553
0.008808147
0.008471054
0.008145181
0.00783987
0.007562615
0.007319062
0.007113115
0.006947049
0.006821621
0.00673617
0.00668871
0.006676013
0.006693715
0.006736474
0.006798243
0.006872634
0.006953382
0.00703488
0.007112677
0.007183757
0.007246199
0.007301466
0.007353426
0.007406487
0.007467253
0.007544104
0.007645739
0.007778898
0.007946745
0.008148597
0.008380972
0.008638926
0.008916553
0.009210438
0.009517857
0.009836395
0.01
0.01
0.01000001
0.01000011
0.01000053
0.01000202
0.01001234
0.01002142
0.01002055
0.01000831
0.01000122
0.01000005
0.01000001
0.01000001
0.01000003
0.01000021
0.01000094
0.01000166
0.0100014
0.01000064
0.0100001
0.01
0.01
0.01
0.01
0.01
0.01
0.01
0.01
0.01000001
0.009759299
0.009357669
0.008974007
0.00862733
0.008324425
0.008055077
0.007802543
0.007553259
0.007298175
0.007033646
0.006762154
0.006491055
0.006229146
0.005984483
0.005762869
0.005567468
0.005399847
0.005260342
0.005148393
0.005062855
0.005002254
0.004964946
0.004949191
0.004953161
0.004974897
0.005012309
0.005063133
0.005124845
0.00519442
0.005268696
0.005347056
0.005427664
0.005506899
0.005580989
0.005646179
0.005698944
0.005736206
0.00575551
0.005755164
0.005734204
0.005692899
0.005633145
0.005557931
0.0054712
0.005377608
0.005282195
0.005190022
0.00510584
0.005033829
0.00497741
0.004939075
0.004920347
0.00492173
0.004942608
0.00498281
0.00504409
0.005125525
0.00522574
0.00534306
0.005475638
0.005621538
0.005778834
0.005945676
0.006120293
0.006300925
0.006485789
0.006673129
0.006861305
0.007048816
0.00723428