/*--------------------------------*- C++ -*----------------------------------*\
| =========                 |                                                 |
| \\      /  F ield         | foam-extend: Open Source CFD                    |
|  \\    /   O peration     | Version:     3.1                                |
|   \\  /    A nd           | Web:         http://www.extend-project.de       |
|    \\/     M anipulation  |                                                 |
\*---------------------------------------------------------------------------*/
FoamFile
{
    version     2.0;
    format      ascii;
    class       volScalarField;
    location    "16.5";
    object      omega;
}
// * * * * * * * * * * * * * * * * * * * * * * * * * * * * * * * * * * * * * //

dimensions      [0 0 -1 0 0 0 0];

internalField   nonuniform List<scalar> 
119952
(
287.0913
357.0141
336.0722
294.2881
265.3433
266.9727
271.4103
277.1822
283.6014
290.2993
297.0701
303.7554
310.2598
316.5847
322.9192
329.6573
337.2666
346.1097
356.2359
367.6571
313.2632
309.2957
310.1867
263.1587
255.1889
250.8277
247.3993
244.5628
239.1884
144.8752
710.3065
587.478
494.0383
427.9059
379.1219
341.7605
311.9647
287.5382
266.9378
244.0182
206.0801
180.083
162.2609
149.1585
138.8941
130.4345
123.2186
116.9352
111.4008
88.78619
85.58369
82.38469
79.25092
76.24794
73.41259
70.76653
68.31656
66.06253
64.03235
62.23949
60.48786
58.81348
57.1972
55.61526
54.04536
52.46354
50.84257
49.17975
48.42722
47.61532
46.51908
45.53508
44.66174
43.85192
43.08422
42.40756
41.84343
41.40587
41.11575
40.99347
41.05006
41.27846
41.64557
42.10079
42.5928
43.07411
43.48724
43.75235
43.78634
43.83029
43.52851
43.05508
42.60469
42.06686
41.45294
41.03697
41.35368
42.19698
41.59616
40.72881
39.742
38.74148
37.7655
36.86356
36.04506
35.31398
34.66936
34.10854
33.62698
33.21787
32.87336
32.58455
32.34265
32.14057
31.97311
31.83722
31.7318
31.66016
31.62849
31.65159
31.76359
31.95376
32.19804
32.50185
32.87147
33.31394
33.83597
34.44393
35.14423
35.94333
36.84536
37.84891
38.95219
40.18228
41.64951
43.57033
46.11356
49.05925
51.95411
54.67956
57.2771
59.63275
61.5294
62.79815
63.42266
63.50369
63.0034
61.96051
60.58397
58.85445
56.98109
55.09569
53.30874
51.68139
50.23293
48.95646
47.84156
46.87567
46.03323
45.28778
44.61444
43.98845
43.38419
42.77694
42.14204
41.45367
40.71376
39.93955
39.16833
38.43109
37.73228
37.07839
36.47747
35.93801
35.46795
35.07412
34.76215
34.53618
34.39775
34.34631
34.38133
34.5039
34.71578
35.0172
35.40535
35.87436
36.41589
37.01976
37.67721
38.41018
39.31524
40.48111
41.98414
43.86544
46.00666
48.30308
50.56296
56.25572
65.57976
72.08606
76.46571
79.05182
80.67812
82.15648
84.28063
87.30461
91.47883
96.95827
103.7528
111.2888
118.557
125.077
130.7238
133.6441
132.4771
128.33
123.2485
118.5887
114.5724
110.6109
106.1885
101.4297
96.80122
92.60197
89.08282
86.35466
84.38761
83.10942
82.39221
82.13878
82.25063
82.58304
82.01707
80.64091
79.6503
78.95022
78.54329
78.43639
78.5982
78.96076
79.40265
79.77572
79.95841
79.87359
79.51285
78.90185
78.04994
76.9549
75.61921
74.0652
72.32534
70.44185
68.48711
66.52638
64.5844
62.66102
60.79273
59.01336
57.33837
55.77651
54.33135
53.00363
51.78939
50.68291
49.67689
48.7661
47.92995
38.13945
37.31369
36.45315
35.53868
34.65424
33.84005
33.10997
32.46834
31.90521
31.41413
30.98895
30.62277
30.30903
30.04173
29.81533
29.6251
29.46724
29.33848
29.23553
29.15445
29.09101
29.04298
29.01063
28.9952
28.99738
29.01602
29.04824
29.09029
29.13303
29.16609
29.17847
29.16021
29.10459
29.00893
28.87208
28.69838
28.49638
28.27431
28.03975
27.79835
27.55314
27.30453
27.0511
26.79124
26.52566
26.25727
25.98583
25.70951
25.43441
25.16937
24.92231
24.70104
24.51325
24.36408
24.29618
24.20936
24.12004
24.03483
23.95002
23.86961
23.79996
23.74804
23.71936
23.71521
23.73089
23.75609
23.7774
23.78197
23.76188
23.71752
23.65746
23.59584
23.55078
23.54455
23.60408
23.76117
24.07465
24.68238
25.7987
27.70537
30.09818
32.45693
34.88276
37.73262
41.0849
44.49305
47.22221
49.05274
50.08073
50.35762
49.96981
49.05008
47.72142
46.08066
44.23522
42.30164
40.35967
38.43629
36.5259
34.62362
32.74849
30.94322
29.25483
27.71241
26.3246
25.08574
23.98577
23.01168
22.15008
21.38924
20.71656
20.11869
19.58374
19.1013
18.66271
18.26134
17.89219
17.55083
17.23246
16.93199
16.65019
16.38846
16.14772
15.92798
15.72862
15.54863
15.3868
15.24201
15.11317
14.99912
14.89837
14.80915
14.72912
14.65511
14.5809
14.49307
14.3623
14.15206
14.22083
779.0487
635.6273
552.4211
496.0773
453.1765
417.9077
387.7004
361.2948
336.8191
285.1791
231.4107
197.7661
175.4548
159.7288
148.003
138.7984
131.2781
124.8836
98.75871
94.4634
90.34644
86.4689
82.89139
79.66336
76.7633
74.15466
71.79775
69.64852
67.77815
66.03233
64.32303
62.66016
61.05164
59.50879
58.04177
56.65501
55.3423
54.38621
53.68992
52.86383
51.96666
51.02888
50.06658
49.09376
48.12558
47.17558
46.25495
45.3646
44.51613
43.71771
42.96578
42.25827
41.59607
40.98045
40.41065
39.90147
36.09952
35.67803
35.2729
34.87213
34.46847
34.05883
33.6433
33.22466
32.80725
32.39532
31.99785
31.61629
31.24727
30.88702
30.53114
30.17486
29.81595
29.45814
29.11158
28.7694
28.38951
27.99725
27.60716
27.21019
26.81395
26.4192
26.03204
25.66012
25.31112
24.99306
24.71352
24.47854
24.29184
24.15479
24.06688
24.0258
24.02698
24.06317
24.12525
24.20308
24.2837
24.34425
24.38729
24.42353
24.41352
24.34102
24.20148
23.97601
23.63276
23.18843
22.69926
22.18082
21.66175
21.16043
20.69005
20.25955
19.87341
19.53252
19.23517
18.97789
18.75623
18.56525
18.40017
18.25686
18.13204
18.02319
17.92838
17.84611
17.77527
17.7151
17.66524
17.62617
17.60042
17.59613
17.61123
17.64731
17.7072
17.79419
17.91182
18.06388
18.25405
18.48464
18.7546
19.05909
19.39391
19.76361
20.18314
20.66691
21.22368
21.86651
22.61168
23.46354
24.40397
25.38891
26.35824
27.2494
27.99322
28.52548
28.82563
28.89481
28.74099
28.4
27.91195
27.31979
26.6664
25.99143
25.3287
24.70524
24.14034
23.64541
23.22493
22.87717
22.59466
22.3651
22.17313
22.00099
21.83166
21.64884
21.43811
21.18847
20.89385
20.55407
20.17484
19.76669
19.34313
18.91847
18.50575
18.1156
17.75592
17.4321
17.14754
16.90406
16.7018
16.53871
16.41101
16.31447
16.2455
16.20138
16.18036
16.18146
16.20421
16.24895
16.31892
16.42279
16.57719
16.80359
17.0904
17.39173
18.17004
19.23744
20.07962
20.70349
21.10344
21.37062
21.6296
21.98749
22.52477
23.30446
24.37936
25.78363
27.50919
29.49146
31.61583
33.66386
35.29169
36.30296
36.8044
37.07904
37.41416
37.96992
38.72247
39.49889
40.0606
40.18489
39.73788
38.71056
37.20708
35.39754
33.45717
31.52429
29.68923
27.99871
26.47125
25.11396
23.92239
22.89579
22.02168
21.28888
20.68741
20.20856
19.84321
19.58448
19.42895
19.37291
19.41235
19.54479
19.76636
20.0683
20.43442
20.83855
21.25417
21.64449
21.96661
22.18383
22.26758
22.20588
22.00911
21.68435
21.24051
20.69362
20.0741
19.41392
18.74001
18.07383
17.43132
16.82333
16.25675
15.73748
13.95629
13.55143
13.18656
12.85661
12.55622
12.28165
12.03056
11.80112
11.59162
11.40042
11.2261
11.06741
10.92328
10.79282
10.67533
10.57022
10.47689
10.39471
10.32294
10.26084
10.20775
10.16317
10.12669
10.09789
10.07624
10.06096
10.051
10.04501
10.04121
10.03751
10.03165
10.02173
10.00648
9.984818
9.956697
9.922749
9.884094
9.84209
9.798036
9.752963
9.707513
9.661925
9.616126
9.569855
9.522915
9.475379
9.427708
9.380553
9.334954
9.292044
9.253037
9.218727
9.189989
9.166908
9.149375
9.137302
9.130265
9.127782
9.129587
9.135784
9.146846
9.163474
9.186309
9.215539
9.250554
9.289807
9.331014
9.371715
9.410092
9.445567
9.478743
9.511299
9.546384
9.588826
9.645317
9.725562
9.845955
10.02759
10.28826
10.63513
11.06616
11.59436
12.25166
13.07009
14.05202
15.15611
16.32916
17.53226
18.73178
19.89212
20.97983
21.96573
22.82326
23.53395
24.09243
24.50254
24.76709
24.88438
24.85183
24.66995
24.34272
23.87666
23.28048
22.56473
21.74724
20.85551
19.92285
18.98237
18.06202
17.18201
16.35512
15.58857
14.88494
14.24305
13.65942
13.12964
12.64924
12.21411
11.82053
11.46511
11.14489
10.85685
10.59692
10.36146
10.14738
9.951972
9.773016
9.608649
9.457337
9.317663
9.188501
9.068608
8.957163
8.852449
8.753445
8.657906
8.568529
8.494787
8.440022
586.6244
521.874
468.7063
429.4876
399.5914
376.6126
359.2245
347.0404
340.4166
333.2956
170.2942
159.3172
150.9203
146.7273
142.6818
138.9312
135.3721
131.9212
128.8964
85.72181
82.96117
81.8212
80.90075
79.9793
79.00011
77.95199
76.87188
75.75623
74.5969
72.88163
70.84053
68.86204
67.10984
65.59802
64.28365
63.1159
62.05311
61.05298
60.97914
60.39356
59.52913
58.53149
57.48868
56.4508
55.44496
54.48367
53.57129
52.71214
51.89007
51.09157
50.31168
49.54669
48.79857
48.06859
47.3565
46.67217
42.91452
42.32013
41.75956
41.23112
40.7274
40.23911
39.75976
39.28672
38.82137
38.36638
37.92379
37.4959
37.07933
36.66942
36.2649
35.867
35.47665
35.09323
34.71489
34.33976
33.96916
33.6048
33.24513
32.88699
32.52859
32.17009
31.81311
31.45974
31.11285
30.7766
30.45195
30.13924
29.83992
29.55649
29.29047
29.04308
28.8096
28.57699
28.40574
28.22735
28.03477
27.82584
27.60319
27.36895
27.12522
26.87509
26.62226
26.37103
26.1246
25.88405
25.64939
25.41919
25.19147
24.9644
24.73755
24.51078
24.28416
24.05349
23.81461
23.56743
23.3166
23.06377
22.80558
22.53877
22.2644
21.98649
21.71025
21.44134
21.18549
20.94805
20.73356
20.54567
20.38707
20.25955
20.16374
20.09918
20.06346
20.05263
20.06276
20.08471
20.10866
20.12738
20.12642
20.08448
19.98971
19.8291
19.59527
19.29098
18.93586
18.54999
18.15496
17.76828
17.40093
17.06181
16.75624
16.48635
16.25176
16.0504
15.87916
15.7345
15.61295
15.51152
15.42762
15.3589
15.30307
15.25783
15.22103
15.19084
15.16589
15.14542
15.12954
15.12023
15.12202
15.13526
15.16145
15.2027
15.26153
15.34081
15.44333
15.57064
15.72098
15.88777
16.06157
16.23653
16.41624
16.61286
16.84245
17.12224
17.46749
17.88707
18.37861
18.92494
19.49825
20.0653
20.58678
21.02388
21.34926
21.54806
21.61282
21.54562
21.35722
21.06435
20.6885
20.2543
19.78745
19.31257
18.85135
18.42139
18.03562
17.70203
17.4235
17.19806
17.01987
16.88116
16.77009
16.67463
16.58208
16.48007
16.358
16.20875
16.02987
15.82379
15.59696
15.35825
15.11731
14.88323
14.66366
14.4645
14.2902
14.14375
14.02577
13.93381
13.86347
13.81062
13.77262
13.74801
13.73586
13.73461
13.73991
13.74562
13.74976
13.75853
13.78502
13.84544
13.94911
14.08716
14.25062
14.40236
14.53988
14.65973
14.76615
14.87576
15.01122
15.19505
15.44497
15.77387
16.19032
16.69801
17.29446
17.96788
18.68774
19.39384
20.00611
20.46389
20.76263
20.95532
21.11957
21.32008
21.58619
21.90858
22.24623
22.54096
22.7362
22.78968
22.67975
22.40625
21.98435
21.43764
20.7937
20.08132
19.32948
18.5683
17.82261
17.10067
16.40822
15.75706
15.1556
14.60886
14.11963
13.68968
13.32064
13.01351
12.76846
12.58569
12.46536
12.40722
12.41026
12.47156
12.58122
12.72844
12.90023
13.08146
13.25585
13.40741
13.52198
13.58865
13.60082
13.55676
13.45865
13.30501
13.09476
12.83473
12.53712
12.21466
11.8786
11.53605
11.2115
10.8971
10.59663
10.31202
10.04444
9.794745
9.563296
9.349946
9.154138
8.975081
8.811905
8.663711
8.529595
8.408696
8.300206
8.203325
8.117233
8.041071
7.973955
7.915038
7.863564
7.818905
7.780546
7.748016
7.720845
7.698508
7.68036
7.665505
7.652392
7.640222
7.628549
7.616677
7.603584
7.588745
7.571283
7.550463
7.526938
7.501687
7.475604
7.44946
7.423863
7.399248
7.375892
7.353929
7.333377
7.314174
7.296278
7.279615
7.264128
7.249728
7.236413
7.224087
7.212962
7.20305
7.195003
7.189417
7.18642
7.18591
7.187669
7.191504
7.197408
7.205696
7.217048
7.23233
7.252229
7.276826
7.305371
7.33645
7.368529
7.400615
7.432278
7.463582
7.495531
7.530182
7.570704
7.621665
7.689908
7.785742
7.916689
8.087524
8.302199
8.568542
8.898954
9.305689
9.793369
10.35572
10.98054
11.65374
12.35893
13.07877
13.79762
14.50033
15.17131
15.79594
16.36425
16.87332
17.32242
17.70974
18.03366
18.29363
18.48997
18.62341
18.69298
18.69364
18.61727
18.45643
18.20752
17.87215
17.45545
16.9673
16.42303
15.84149
15.24207
14.64215
14.05586
13.49385
12.96297
12.46685
12.00697
11.58311
11.19391
10.83739
10.51124
10.2132
9.941215
9.692352
9.463072
9.250465
9.052147
8.866246
8.691207
8.525965
8.369579
8.221543
8.081168
7.949006
7.825356
7.714108
7.617235
339.8812
248.5611
349.4006
158.5643
124.0256
90.20946
78.14374
67.9481
59.63248
55.58543
53.92704
53.03349
52.30928
51.85317
51.40859
51.15672
51.11569
51.16474
51.28346
51.42851
51.52433
51.60256
51.98777
52.67485
53.42393
54.22503
55.04594
55.81003
56.4507
56.94244
57.2815
56.2604
56.23777
56.15145
55.97789
55.7089
55.34764
54.9021
54.38086
53.79747
53.16791
52.49429
51.78426
51.04504
50.28862
49.5245
48.75917
47.9976
47.24515
46.50424
45.78327
45.08759
44.41594
43.76807
43.1439
42.54299
41.96425
41.40585
40.86474
40.33804
39.82531
39.32777
38.84789
38.38802
37.94699
37.51973
37.09803
36.66838
36.29381
35.91923
35.55352
35.20039
34.85821
34.52219
34.18705
33.85094
33.51721
33.19186
32.87884
32.57702
32.28137
31.98762
31.6953
31.40688
31.12415
30.84605
30.56984
30.29408
30.01941
29.7463
29.47363
29.19914
28.92174
28.64244
28.36373
28.08838
27.81903
27.55749
27.30434
27.05973
26.82449
26.60033
26.38935
26.19176
26.00517
25.82303
25.64092
25.45321
25.25886
25.05942
24.8539
24.6414
24.42182
24.19696
23.97061
23.74726
23.53057
23.32212
23.12101
22.92516
22.73218
22.54052
22.34948
22.15941
21.97071
21.78357
21.59532
21.40375
21.2088
21.01009
20.80564
20.59345
20.3734
20.1473
19.91812
19.68953
19.46546
19.24987
19.04639
18.85819
18.6879
18.53758
18.40868
18.302
18.21746
18.15401
18.1093
18.07867
18.05547
18.0317
17.99659
17.93746
17.84361
17.70678
17.52335
17.29431
17.02729
16.73418
16.43026
16.13192
15.84866
15.58822
15.35545
15.15247
14.97929
14.83439
14.71531
14.61922
14.5435
14.48595
14.44444
14.41643
14.39881
14.38814
14.38113
14.37504
14.36806
14.35935
14.34893
14.338
14.3305
14.32863
14.33387
14.34836
14.3747
14.41552
14.47303
14.54821
14.63934
14.73993
14.83859
14.9244
14.99545
15.06128
15.13741
15.2396
15.38077
15.57001
15.81039
16.09671
16.41637
16.75097
17.07783
17.37326
17.61673
17.79234
17.88868
17.89961
17.82448
17.66773
17.43856
17.15028
16.81918
16.46306
16.09961
15.74493
15.41233
15.11166
14.84886
14.62606
14.4424
14.29567
14.17885
14.0846
14.00492
13.93173
13.85777
13.77764
13.68861
13.5908
13.48674
13.38048
13.27676
13.18021
13.09489
13.02428
12.97149
12.93846
12.92414
12.924
12.93256
12.94671
12.96613
12.99185
13.02381
13.05712
13.07987
13.0792
13.05372
13.01613
12.98627
12.98378
13.01649
13.07766
13.15692
13.24464
13.33665
13.43123
13.52837
13.63255
13.75259
13.89836
14.07834
14.29911
14.56538
14.87922
15.24017
15.64392
16.0766
16.50591
16.88121
17.15552
17.31541
17.38804
17.42051
17.45614
17.5219
17.62424
17.75
17.87286
17.96226
17.99085
17.94044
17.80443
17.58482
17.28804
16.92474
16.50722
16.04857
15.5621
15.06128
14.56027
14.07125
13.59633
13.1375
12.70076
12.29143
11.91376
11.57097
11.26543
10.99908
10.77342
10.58957
10.44837
10.35032
10.29559
10.28239
10.3054
10.35841
10.43374
10.52246
10.61495
10.70141
10.77262
10.82056
10.83904
10.82429
10.77576
10.6969
10.58765
10.44612
10.27661
10.08519
9.877893
9.661428
9.441102
9.221558
9.006552
8.798904
8.600623
8.413096
8.237218
8.073464
7.921967
7.782606
7.655071
7.538917
7.433624
7.338616
7.253258
7.176858
7.108685
7.047996
6.994063
6.946195
6.903786
6.866347
6.833506
6.804968
6.780449
6.75957
6.741759
6.727573
6.716494
6.707296
6.698686
6.689515
6.679047
6.667145
6.65416
6.63965
6.623929
6.607607
6.591384
6.576024
6.562309
6.550988
6.542672
6.53763
6.535595
6.535826
6.537324
6.539027
6.53991
6.539135
6.536123
6.530796
6.523663
6.515855
6.508791
6.503676
6.500947
6.500182
6.500499
6.501107
6.501816
6.503327
6.507156
6.515112
6.528514
6.54755
6.571202
6.597775
6.625762
6.654064
6.681808
6.708828
6.735871
6.764517
6.797188
6.837329
6.889849
6.960372
7.052323
7.169412
7.316121
7.497979
7.720673
7.988305
8.301838
8.658815
9.053715
9.478691
9.924813
10.383
10.84417
11.29896
11.73885
12.15831
12.55453
12.92581
13.27094
13.58943
13.88183
14.14928
14.39338
14.61544
14.81621
14.99343
15.14152
15.2537
15.32308
15.34205
15.30331
15.20189
15.03648
14.80975
14.52684
14.196
13.82825
13.43606
13.03166
12.62572
12.22657
11.84028
11.47091
11.12065
10.78988
10.47781
10.18413
9.90885
9.650149
9.405861
9.174158
8.953538
8.743008
8.541758
8.349634
8.166206
7.992249
7.827591
7.675156
7.538451
307.9228
207.5905
157.0888
138.2708
112.1077
92.79895
79.39522
74.01126
68.12278
64.68666
61.76959
57.95613
54.19292
50.68211
47.53001
44.11029
38.64082
37.45898
36.62089
36.21877
36.21781
36.50313
36.93187
37.45945
38.10799
38.82749
39.60363
40.4362
41.32501
42.26977
43.27463
44.34629
45.47654
46.66892
47.92372
49.15769
50.38531
51.50001
52.38766
53.07369
53.62888
53.97574
53.96164
53.82154
53.55863
53.16432
52.65672
52.05498
51.37828
50.64228
49.86382
49.05917
48.23929
47.41201
46.58248
45.75875
44.94484
44.14564
43.36571
42.61225
41.88837
41.19736
40.54245
39.92468
39.34517
38.80388
38.29882
37.82611
37.37976
36.95244
36.53758
36.13227
35.73836
35.3615
35.00631
34.67217
34.35043
34.03041
33.70304
33.37326
33.04868
32.73858
32.448
32.17436
31.90876
31.64158
31.36925
31.09743
30.83612
30.59055
30.35744
30.12895
29.89896
29.66723
29.43802
29.2141
28.99349
28.77236
28.5492
28.32555
28.10286
27.87953
27.65234
27.42005
27.18463
26.94975
26.71893
26.49415
26.27593
26.06389
25.85737
25.65657
25.46332
25.27998
25.10706
24.9425
24.78061
24.61632
24.44431
24.26268
24.07181
23.87235
23.6645
23.44876
23.22721
23.00394
22.78384
22.57067
22.36583
22.1684
21.97585
21.78532
21.59496
21.4044
21.21425
21.02522
20.83759
20.65095
20.46471
20.27845
20.09144
19.90223
19.70936
19.51227
19.3116
19.10894
18.90643
18.70649
18.51157
18.32392
18.14553
17.978
17.82264
17.68041
17.55201
17.43774
17.33735
17.24966
17.17228
17.10142
17.03171
16.95626
16.86754
16.75852
16.62393
16.46124
16.27109
16.05748
15.82787
15.59311
15.36661
15.15678
14.96918
14.80715
14.67186
14.56272
14.47793
14.41499
14.37147
14.3455
14.33562
14.33979
14.35482
14.37622
14.39888
14.418
14.42995
14.43281
14.42633
14.41145
14.39047
14.36856
14.34883
14.33333
14.32481
14.32669
14.34222
14.37341
14.4204
14.48102
14.54899
14.61137
14.65152
14.66193
14.65078
14.6341
14.62711
14.64113
14.68516
14.76505
14.88083
15.02701
15.19374
15.36821
15.536
15.68272
15.79529
15.86302
15.87825
15.83671
15.73766
15.5841
15.38261
15.14288
14.8768
14.59723
14.31673
14.04635
13.79489
13.56844
13.37036
13.2017
13.06276
12.95045
12.86061
12.7888
12.73077
12.68285
12.64229
12.60733
12.57717
12.55181
12.53199
12.51902
12.51462
12.52083
12.54012
12.57536
12.62761
12.69306
12.76353
12.8319
12.89714
12.96357
13.03642
13.1151
13.18462
13.21838
13.1992
13.13479
13.05172
12.98225
12.94988
12.95431
12.98567
13.03551
13.10015
13.17844
13.26833
13.36584
13.46761
13.57336
13.68586
13.80957
13.94908
14.10784
14.28781
14.48933
14.71244
14.9528
15.19217
15.39509
15.52538
15.57051
15.54734
15.48842
15.42581
15.38234
15.36878
15.38266
15.41062
15.43344
15.43117
15.38746
15.29181
15.14001
14.93388
14.67904
14.38324
14.05498
13.70265
13.33422
12.95723
12.57863
12.2051
11.8429
11.4936
11.15874
10.84168
10.54541
10.27245
10.02485
9.804314
9.612197
9.449575
9.317271
9.215859
9.145415
9.10408
9.088813
9.09562
9.119548
9.154832
9.195155
9.234049
9.265326
9.283553
9.284438
9.265298
9.225318
9.165989
9.089477
8.994311
8.882532
8.757005
8.621011
8.477873
8.330772
8.182564
8.035654
7.892008
7.753211
7.620518
7.494862
7.37687
7.266909
7.165128
7.071489
6.98581
6.907786
6.837004
6.77297
6.715161
6.663047
6.616068
6.573618
6.535138
6.500246
6.46877
6.440699
6.41612
6.39519
6.378589
6.366315
6.358015
6.352853
6.349532
6.346623
6.342988
6.338018
6.331648
6.32416
6.315584
6.306259
6.296899
6.288571
6.282604
6.280441
6.283354
6.291893
6.305314
6.321687
6.338656
6.353979
6.3657
6.372308
6.372916
6.367543
6.357349
6.344623
6.332266
6.322681
6.316596
6.312913
6.309628
6.304884
6.29788
6.289435
6.281934
6.278573
6.282057
6.293387
6.311563
6.33432
6.359475
6.385275
6.410054
6.432885
6.453846
6.473673
6.49373
6.516058
6.543537
6.580046
6.629063
6.693565
6.776548
6.881044
7.01024
7.167345
7.354675
7.572378
7.817798
8.086094
8.371445
8.667847
8.969556
9.271154
9.567947
9.856244
10.13336
10.39746
10.64756
10.88397
11.10796
11.32125
11.52629
11.72606
11.92314
12.11822
12.30977
12.49463
12.66832
12.82619
12.9628
13.07215
13.14894
13.18853
13.18651
13.13995
13.04848
12.9144
12.7423
12.53805
12.30767
12.05746
11.79363
11.52171
11.24627
10.97054
10.69658
10.4256
10.15975
9.900865
9.649647
9.406041
9.170061
8.941438
8.720558
8.507212
8.302602
8.106197
7.921415
7.752885
159.8305
117.9421
180.353
88.24258
75.31738
63.97625
60.55386
58.06302
55.35671
54.18697
52.72854
50.71194
48.83816
46.87903
44.61162
40.13239
39.10368
38.15745
37.26252
36.42077
35.58886
34.80573
34.12152
33.56299
33.15084
32.88645
32.69865
32.53802
32.55732
32.78967
33.22711
33.82586
34.53788
35.34781
36.21774
37.13728
38.10731
39.13116
40.21131
41.34595
42.55062
43.84166
45.1496
46.47591
47.83839
48.95077
49.87509
50.58654
51.06167
51.29728
51.3002
51.10157
50.71222
50.18278
49.52836
48.7609
47.90554
46.98961
46.03915
45.07358
44.11001
43.16128
42.23906
41.34581
40.4865
39.66577
38.89639
38.18367
37.52964
36.9363
36.40329
35.92189
35.48923
35.10525
34.76852
34.47517
34.21892
33.99173
33.78338
33.5824
33.37903
33.17011
32.96155
32.76422
32.58535
32.42095
32.25748
32.07919
31.88011
31.66862
31.46039
31.26919
31.09826
30.93818
30.77444
30.5967
30.40636
30.21729
30.04419
29.88914
29.74202
29.59071
29.42927
29.26083
29.09321
28.92916
28.76424
28.59418
28.41978
28.24338
28.06757
27.88986
27.70486
27.51067
27.31059
27.11081
26.91772
26.73158
26.55016
26.37164
26.19452
26.01871
25.84643
25.68053
25.52134
25.36454
25.20214
25.02608
24.83311
24.62458
24.40417
24.17533
23.93988
23.69879
23.45393
23.20896
22.96828
22.73495
22.50966
22.29104
22.07616
21.86191
21.64653
21.43019
21.21418
20.99989
20.78822
20.57975
20.3749
20.17391
19.97657
19.78203
19.58915
19.39722
19.20621
19.01671
18.82951
18.6454
18.46505
18.289
18.11759
17.95109
17.78976
17.6339
17.48395
17.34041
17.20363
17.07351
16.94918
16.82909
16.71085
16.59122
16.46655
16.33333
16.18896
16.03235
15.86427
15.68753
15.50723
15.33094
15.16901
15.02834
14.91203
14.8214
14.75595
14.71383
14.69234
14.68847
14.70008
14.72649
14.76744
14.82108
14.88245
14.94435
14.99916
15.04031
15.06349
15.06736
15.0532
15.02405
14.98488
14.94374
14.90388
14.8675
14.83784
14.81999
14.81912
14.83746
14.87276
14.91902
14.96686
15.00095
15.00122
14.95807
14.88059
14.78671
14.69258
14.60886
14.54366
14.5044
14.49408
14.51093
14.55019
14.60468
14.66542
14.72259
14.76652
14.78857
14.78168
14.74078
14.66319
14.54884
14.4005
14.22354
14.02539
13.81471
13.60039
13.39063
13.19227
13.01036
12.84813
12.7072
12.58841
12.49179
12.41548
12.35784
12.31781
12.29492
12.28869
12.2978
12.31993
12.35239
12.39318
12.44174
12.49879
12.56636
12.64755
12.74645
12.86398
12.99229
13.11752
13.2309
13.33573
13.4439
13.56451
13.68975
13.78539
13.8108
13.75388
13.63778
13.50894
13.41854
13.38626
13.39953
13.44069
13.50106
13.57851
13.67095
13.77243
13.87378
13.96557
14.04199
14.10261
14.15157
14.19558
14.24113
14.29181
14.34916
14.41576
14.49416
14.57641
14.63987
14.65793
14.61574
14.52221
14.40167
14.27893
14.17295
14.09682
14.05344
14.0339
14.02317
14.00352
13.95825
13.87597
13.75189
13.5865
13.38359
13.1487
12.88792
12.60709
12.31164
12.00669
11.69703
11.38712
11.08104
10.78262
10.49523
10.22018
9.959136
9.714138
9.486983
9.279215
9.092129
8.926788
8.784048
8.66455
8.568696
8.495911
8.444692
8.412902
8.397711
8.395617
8.402539
8.414032
8.425559
8.432826
8.432071
8.420393
8.396025
8.358511
8.308832
8.248238
8.176492
8.09479
8.004734
7.908165
7.807004
7.703123
7.598266
7.493997
7.391673
7.292441
7.197246
7.106828
7.021719
6.942267
6.868658
6.800894
6.738788
6.681996
6.630099
6.582682
6.539362
6.499683
6.46306
6.428954
6.397126
6.367696
6.341069
6.317911
6.298973
6.284825
6.275993
6.272652
6.274154
6.278918
6.284949
6.290519
6.294505
6.296419
6.296291
6.294455
6.291161
6.287276
6.284446
6.284897
6.291157
6.305462
6.32861
6.358798
6.392127
6.424326
6.451766
6.471499
6.481496
6.480836
6.47
6.45125
6.428701
6.407427
6.391454
6.381589
6.375372
6.368992
6.359037
6.343904
6.324646
6.304899
6.289807
6.283902
6.288969
6.303508
6.324168
6.347978
6.372324
6.394836
6.414222
6.430262
6.443198
6.453803
6.463365
6.473812
6.487905
6.509108
6.540304
6.583859
6.641705
6.715817
6.80882
6.923492
7.061007
7.219688
7.395587
7.584
7.780393
7.980662
8.18116
8.378761
8.570902
8.755693
8.93196
9.09931
9.257986
9.408641
9.552507
9.691649
9.829072
9.968053
10.11097
10.25898
10.41204
10.56908
10.72793
10.88516
11.03637
11.17669
11.30094
11.40494
11.48485
11.53748
11.56092
11.55472
11.51938
11.45586
11.366
11.25243
11.11823
10.96659
10.80048
10.62252
10.43488
10.23932
10.03713
9.829638
9.618235
9.405473
9.192928
8.9822
8.773842
8.569831
8.369872
8.17796
7.999739
64.33672
48.50344
46.7579
44.28251
43.14171
41.76372
40.62085
39.62888
38.76689
37.52047
34.68599
34.40229
34.13925
33.89676
33.64271
33.36767
33.1084
32.89167
32.72858
32.60744
32.40038
31.99456
31.60325
31.23754
30.90136
30.5994
30.35084
30.17108
30.06537
30.03759
30.08333
30.1973
30.39923
30.71463
31.16264
31.74252
32.44526
33.26208
34.15734
35.11663
36.13163
37.20471
38.34496
39.55479
40.81338
42.14361
43.61245
44.91729
46.08671
47.0769
47.81635
48.29459
48.50569
48.44848
48.13722
47.59157
46.85175
45.95877
44.94974
43.86677
42.74767
41.62178
40.51201
39.43553
38.4038
37.42299
36.499
35.63819
34.84806
34.13816
33.51187
32.9725
32.52276
32.16443
31.89281
31.70094
31.58286
31.53255
31.54581
31.61583
31.7297
31.86959
32.01555
32.14788
32.25245
32.32794
32.39184
32.47293
32.58921
32.73032
32.86184
32.94462
32.95736
32.92086
32.87779
32.86813
32.90601
32.96297
32.9898
32.95528
32.8625
32.75137
32.66857
32.62819
32.60547
32.56465
32.4913
32.3998
32.29115
32.17041
32.04437
31.91317
31.77147
31.61621
31.45072
31.27587
31.09022
30.89241
30.68556
30.47641
30.27047
30.06859
29.87133
29.67849
29.48984
29.30499
29.12141
28.93327
28.73167
28.50706
28.25209
27.96317
27.63834
27.28875
26.92373
26.55427
26.19181
25.84154
25.50315
25.17489
24.85533
24.54421
24.2409
23.94409
23.65248
23.36446
23.07791
22.79146
22.50562
22.22244
21.94433
21.67267
21.40873
21.15359
20.90814
20.67306
20.44845
20.23349
20.02734
19.8293
19.63876
19.45484
19.27608
19.10056
18.9261
18.75057
18.57222
18.39001
18.20378
18.01422
17.82274
17.6313
17.44169
17.25529
17.07301
16.89532
16.72234
16.5538
16.38925
16.22838
16.07144
15.91948
15.7746
15.64009
15.52073
15.42387
15.35445
15.3127
15.29751
15.3066
15.33603
15.38075
15.43649
15.50175
15.57808
15.66727
15.76712
15.86989
15.96494
16.04241
16.0951
16.11901
16.11376
16.08275
16.03244
15.97321
15.91623
15.86291
15.8131
15.76946
15.7404
15.73518
15.75666
15.79569
15.83276
15.85
15.83828
15.78721
15.68485
15.53735
15.36517
15.18569
15.0094
14.84428
14.70053
14.58381
14.49448
14.43027
14.38681
14.35839
14.33828
14.31943
14.29505
14.25918
14.20708
14.13543
14.04274
13.92952
13.79824
13.65301
13.49897
13.34169
13.18647
13.03792
12.89963
12.77414
12.66308
12.56748
12.48837
12.42683
12.3836
12.36073
12.36106
12.38612
12.43396
12.4995
12.57681
12.66186
12.75415
12.85572
12.96954
13.09957
13.25125
13.42515
13.60688
13.77622
13.92553
14.0639
14.20812
14.3672
14.51899
14.61189
14.60476
14.49604
14.32507
14.16376
14.08466
14.10492
14.18953
14.2945
14.40467
14.52308
14.64679
14.7651
14.86202
14.92239
14.93796
14.90959
14.84611
14.76058
14.6654
14.56879
14.47569
14.39337
14.33233
14.29189
14.25495
14.19724
14.09706
13.95506
13.79173
13.62872
13.48241
13.36616
13.28768
13.24184
13.21381
13.18381
13.13324
13.05145
12.93552
12.78687
12.60908
12.40663
12.184
11.94534
11.69446
11.43498
11.1703
10.90362
10.6379
10.37596
10.12045
9.8739
9.63818
9.414485
9.204286
9.008977
8.829794
8.667799
8.523856
8.398599
8.29245
8.20514
8.135917
8.083619
8.046603
8.022689
8.009177
8.002945
8.000645
7.998944
7.994713
7.985221
7.968397
7.942997
7.908666
7.865988
7.815295
7.756978
7.691916
7.621267
7.54636
7.468595
7.389365
7.309968
7.231544
7.15504
7.081236
7.010773
6.944184
6.881906
6.824216
6.771171
6.722586
6.678048
6.63707
6.599202
6.56409
6.531294
6.500167
6.470182
6.441288
6.41401
6.389403
6.368573
6.352436
6.342167
6.339019
6.343735
6.355668
6.372569
6.391502
6.409918
6.425961
6.438591
6.447527
6.453061
6.455561
6.456178
6.457593
6.46356
6.478415
6.506022
6.546922
6.596564
6.648279
6.695521
6.733095
6.756815
6.764703
6.756482
6.733698
6.700223
6.662573
6.628826
6.605156
6.592035
6.584652
6.576446
6.561723
6.537803
6.50621
6.472397
6.444277
6.428961
6.428989
6.441525
6.461659
6.485547
6.509432
6.530373
6.547161
6.559343
6.566753
6.56973
6.569085
6.566159
6.563141
6.563232
6.569747
6.584804
6.609799
6.646098
6.696285
6.763699
6.85016
6.954067
7.071082
7.196441
7.326324
7.457807
7.588508
7.716416
7.839884
7.957647
8.06889
8.17328
8.270871
8.362042
8.447701
8.529619
8.610376
8.692755
8.779262
8.871765
8.971344
9.078356
9.192284
9.311622
9.434128
9.557088
9.677505
9.792102
9.897324
9.989648
10.06599
10.12388
10.16153
10.17846
10.17488
10.15155
10.10974
10.05102
9.977174
9.889991
9.791122
9.682093
9.564219
9.438789
9.30642
9.16702
9.020136
8.867447
8.709927
8.549828
8.387146
8.225894
8.071688
87.90763
37.43586
31.15726
29.72864
28.90467
28.46262
28.30403
28.31331
28.44659
28.66937
28.83985
28.826
28.81509
28.79681
28.77292
28.74009
28.70682
28.67513
28.63611
28.57229
28.46406
28.32453
28.19862
28.09525
28.01975
27.97619
27.97304
28.01612
28.10433
28.23871
28.42219
28.66242
28.97171
29.36098
29.84653
30.45571
31.2073
32.07223
33.0394
34.1058
35.23211
36.42364
37.70973
39.09995
40.483
41.84702
43.11877
44.19692
45.03253
45.58963
45.83992
45.78029
45.42336
44.79429
43.93233
42.88225
41.69992
40.44044
39.14353
37.85714
36.62356
35.47046
34.41137
33.44782
32.57548
31.78465
31.07821
30.45856
29.92927
29.50204
29.19408
29.01573
28.97927
29.0859
29.32246
29.67818
30.16664
30.77025
31.46676
32.22949
33.01942
33.79176
34.50383
35.12173
35.63836
36.09205
36.58096
37.21803
38.03874
38.95632
39.81955
40.49844
40.92674
41.18549
41.43154