/*--------------------------------*- C++ -*----------------------------------*\
| =========                 |                                                 |
| \\      /  F ield         | foam-extend: Open Source CFD                    |
|  \\    /   O peration     | Version:     3.1                                |
|   \\  /    A nd           | Web:         http://www.extend-project.de       |
|    \\/     M anipulation  |                                                 |
\*---------------------------------------------------------------------------*/
FoamFile
{
    version     2.0;
    format      ascii;
    class       volScalarField;
    location    "16.5";
    object      p;
}
// * * * * * * * * * * * * * * * * * * * * * * * * * * * * * * * * * * * * * //

dimensions      [1 -1 -2 0 0 0 0];

internalField   nonuniform List<scalar> 
119952
(
6287.888
5743.214
5667.826
5782.108
5904.18
5859.438
5865.301
5876.113
5893.1
5912.497
5933.427
5955.674
5978.223
6000.652
6022.595
6044.015
6065
6084.757
6098.799
6089.101
6250.362
6193.03
6188.786
6385.905
6379.933
6422.552
6447.831
6506.852
6659.717
6829.201
3626.485
3657.171
3700.14
3749.019
3796.895
3843.769
3891.462
3938.538
3987.988
4012.865
4047.505
4098.997
4143.753
4188.573
4234.538
4281.943
4328.988
4377.992
4427.489
4489.219
4511.314
4555.207
4603.89
4652.924
4703.195
4753.879
4804.347
4854.121
4902.635
4942.702
4992.92
5041.261
5087.433
5133.35
5178.787
5224.236
5273.08
5344.208
5449.871
5420.824
5441.106
5506.072
5551.48
5570.952
5583.041
5600.009
5619.436
5640.256
5662.595
5685.799
5709.363
5732.984
5756.42
5779.564
5802.349
5824.684
5846.897
5871.168
5906.545
5940.885
5965.456
6029.124
6102.829
6132.479
6156.01
6176.766
6163.347
6069.274
6063.988
6093.017
6108.373
6121.615
6132.498
6140.428
6146.003
6149.358
6150.456
6149.21
6145.783
6140.23
6132.549
6122.99
6111.813
6099.449
6086.327
6072.922
6059.773
6047.467
6036.461
6027.467
6020.998
6017.476
6017.258
6020.921
6028.135
6038.917
6052.977
6069.949
6089.375
6110.742
6133.527
6157.247
6181.489
6205.831
6229.702
6252.144
6271.56
6286.973
6300.689
6316.496
6333.993
6351.148
6367.109
6381.551
6394.064
6404.241
6412.818
6425.718
6437.972
6446.592
6456.723
6467.128
6477.321
6487.139
6496.483
6505.353
6513.785
6521.686
6528.971
6535.596
6541.48
6546.522
6550.61
6553.624
6555.496
6556.206
6555.64
6553.804
6550.697
6546.269
6540.553
6533.591
6525.44
6516.152
6505.759
6494.265
6481.643
6467.84
6452.789
6436.414
6418.623
6399.359
6378.598
6356.451
6333.265
6309.65
6286.455
6264.661
6245.217
6228.959
6216.235
6206.921
6201.479
6200.009
6202.43
6207.711
6214.403
6263.932
6277.437
6286.533
6298.168
6312.331
6324.071
6338.403
6351.946
6365.948
6380.113
6395.092
6409.822
6422.885
6432.52
6437.888
6437.17
6432.76
6436.285
6448.824
6463.986
6477.542
6487.723
6494.593
6499.29
6502.848
6505.781
6508.465
6511.247
6514.317
6517.735
6521.404
6525.042
6528.177
6530.348
6530.403
6528.941
6541.251
6550.716
6558.704
6565.389
6571.096
6575.896
6579.96
6583.446
6586.492
6589.148
6591.482
6593.46
6595.096
6596.368
6597.277
6597.846
6598.106
6598.012
6597.694
6597.163
6596.425
6595.482
6594.411
6593.236
6592.025
6590.757
6589.431
6588.024
6586.538
6584.971
6583.579
6581.847
6579.764
6577.054
6556.109
6549.1
6538.651
6534.583
6531.153
6526.477
6521.541
6516.515
6511.134
6505.344
6499.157
6492.601
6485.709
6478.52
6471.081
6463.452
6455.692
6447.869
6440.062
6432.354
6424.833
6417.587
6410.687
6404.191
6398.152
6392.573
6387.588
6382.977
6378.869
6375.215
6371.972
6369.079
6366.486
6364.11
6361.876
6359.836
6357.978
6356.289
6354.791
6353.517
6352.511
6351.827
6351.531
6351.696
6352.251
6352.577
6351.89
6350.743
6349.914
6349.27
6348.647
6348.172
6347.652
6346.098
6339.185
6340.53
6343.551
6344.382
6345.328
6346.917
6348.972
6351.453
6354.401
6357.822
6361.737
6366.172
6371.136
6376.586
6382.491
6388.758
6395.289
6401.99
6408.772
6415.545
6422.285
6429.023
6435.811
6442.652
6449.705
6455.73
6458.684
6460.717
6466.998
6475.398
6483.7
6489.673
6493.614
6498.483
6503.882
6508.244
6511.581
6514.426
6516.895
6518.858
6520.448
6521.875
6523.073
6523.876
6524.217
6524.201
6524.016
6523.806
6523.577
6523.214
6522.514
6521.356
6519.738
6517.686
6515.293
6512.617
6509.689
6506.523
6503.146
6499.59
6495.889
6492.088
6488.234
6484.369
6480.54
6476.77
6473.126
6469.619
6466.292
6463.147
6460.178
6457.364
6454.678
6452.087
6449.548
6447
6444.375
6441.581
6438.514
6434.985
6430.76
6425.564
6420.325
6422.216
6447.588
3554.398
3454.278
3352.51
3256.164
3173.075
3101.12
3039.338
2987.652
2946.108
2863.487
2838.514
2811.928
2785.97
2764.375
2747.879
2735.535
2726.307
2720.742
2706.724
2727.628
2721.31
2733.262
2757.312
2784.438
2816.524
2852.106
2890.376
2931.495
2970.186
3003.472
3047.948
3091.873
3134.988
3178.317
3221.782
3265.449
3310.511
3359.698
3389.25
3430.404
3478.276
3524.381
3569.573
3614.634
3659.523
3703.653
3744.757
3787.736
3835.348
3879.568
3923.479
3968.421
4014.373
4061.229
4108.969
4158.301
4160.695
4215.24
4262.974
4310.491
4360.113
4411.091
4461.987
4512.084
4561.237
4610.027
4658.247
4704.641
4750.178
4795.7
4841.619
4888.236
4936.486
4986.866
5038.35
5086.437
5122.293
5151.347
5184.822
5219.508
5248.083
5270.628
5291.082
5312.325
5334.967
5358.555
5382.602
5406.84
5431.178
5455.584
5480.094
5504.859
5530.269
5556.997
5586.048
5618.068
5653.144
5691.276
5733.208
5775.239
5807.594
5827.033
5833.941
5826.231
5809.279
5802.17
5807.63
5818.468
5828.899
5836.51
5841.362
5844.172
5845.079
5843.904
5840.53
5835.001
5827.409
5817.917
5806.766
5794.281
5780.848
5766.897
5752.903
5739.38
5726.913
5716.118
5707.587
5701.896
5699.538
5700.849
5706.082
5715.187
5727.933
5743.965
5762.821
5783.963
5806.813
5830.839
5855.507
5880.229
5904.357
5927.23
5948.197
5966.942
5983.629
5999.212
6014.98
6031.255
6047.335
6062.721
6077.308
6090.768
6102.879
6114.264
6126.039
6137.846
6148.516
6158.809
6168.947
6178.779
6188.161
6197.053
6205.464
6213.397
6220.84
6227.718
6233.956
6239.478
6244.186
6247.972
6250.685
6252.196
6252.507
6251.569
6249.286
6245.6
6240.519
6234.058
6226.252
6217.145
6206.771
6195.144
6182.277
6168.173
6152.811
6136.134
6118.089
6098.613
6077.638
6055.2
6031.439
6006.795
5982.083
5958.319
5936.48
5917.395
5901.873
5890.307
5882.76
5879.563
5881.315
5888.11
5899.511
5914.771
5988.019
6003.738
6016.299
6029.122
6041.603
6053.777
6065.723
6077.831
6089.806
6102.01
6114.388
6126.588
6137.674
6146.735
6153.841
6159.088
6163.914
6171.864
6182.973
6194.968
6206.014
6215.178
6222.325
6227.744
6231.767
6234.818
6237.309
6239.662
6242.182
6245.059
6248.225
6251.436
6254.416
6257.001
6259.484
6263.077
6269.528
6277.309
6284.049
6290.009
6295.32
6299.866
6303.864
6307.375
6310.501
6313.253
6315.625
6317.688
6319.44
6320.862
6321.941
6322.699
6323.121
6323.219
6323.033
6322.575
6321.848
6320.865
6319.767
6318.526
6317.206
6315.833
6314.367
6312.736
6311.056
6309.293
6307.45
6305.441
6303.364
6302.925
6235.951
6234.38
6231.951
6227.901
6222.866
6217.638
6212.495
6207.277
6201.741
6195.796
6189.464
6182.791
6175.806
6168.534
6161.02
6153.325
6145.519
6137.669
6129.86
6122.184
6114.733
6107.594
6100.84
6094.53
6088.704
6083.405
6078.61
6074.373
6070.653
6067.391
6064.518
6061.929
6059.619
6057.346
6055.199
6053.155
6051.214
6049.395
6047.74
6046.307
6045.155
6044.329
6043.843
6043.65
6043.614
6043.538
6043.178
6042.481
6041.625
6040.731
6039.78
6038.788
6037.791
6036.98
6035.986
6034.703
6034.26
6034.927
6036.369
6038.263
6040.513
6043.159
6046.276
6049.937
6054.191
6059.058
6064.509
6070.456
6076.775
6083.354
6090.006
6096.636
6103.233
6109.697
6115.995
6122.131
6128.137
6134.122
6139.607
6144.754
6149.323
6153.868
6159.635
6166.272
6172.893
6179.121
6184.707
6190.153
6195.505
6200.343
6204.489
6208.048
6211.098
6213.621
6215.721
6217.456
6218.822
6219.751
6220.271
6220.498
6220.573
6220.562
6220.354
6219.667
6218.439
6216.685
6214.514
6212.088
6209.445
6206.587
6203.512
6200.232
6196.768
6193.131
6189.347
6185.472
6181.549
6177.6
6173.673
6169.833
6166.127
6162.533
6159.135
6155.944
6152.944
6150.101
6147.401
6144.81
6142.293
6139.79
6137.249
6134.596
6131.82
6128.871
6125.993
6123.573
6122.591
6123.635
6127.241
3163.681
3246.051
3347.374
3462.777
3592.041
3734.618
3889.199
4054.552
4228.419
4405.375
4572.591
4757.318
4938.615
5112.9
5277.339
5428.436
5560.458
5668.243
5745.37
5767.179
5784.922
5770.179
5723.532
5647.232
5543.777
5416.56
5269.049
5105.938
4934.924
4748.518
4563.089
4374.968
4190.026
4010.81
3839.521
3677.882
3527.528
3390.047
3253.49
3135.482
3028.607
2934.566
2852.001
2780.424
2719.024
2666.827
2623.536
2584.737
2549.282
2522.238
2498.55
2478.309
2462.488
2450.552
2443.231
2446.118
2373.782
2381.278
2397.343
2419.625
2446.41
2477.444
2512.359
2549.92
2589.04
2629.104
2670.934
2713.989
2756.307
2798.113
2840.333
2883.314
2926.838
2970.642
3014.405
3058.177
3102.138
3145.155
3188.375
3232.438
3277.053
3321.577
3365.516
3408.633
3451.35
3494.468
3537.573
3580.893
3624.845
3669.635
3715.047
3761.401
3808.486
3858.271
3911.582
3961.836
4010.558
4060.422
4112.329
4165.075
4217.399
4268.578
4318.556
4367.098
4414.416
4460.955
4507.083
4553.223
4599.218
4645.351
4691.256
4737.085
4782.341
4826.701
4863.79
4895.438
4927.351
4959.842
4989.567
5015.177
5038.604
5062.007
5086.145
5110.826
5135.726
5160.712
5185.802
5211.075
5236.654
5262.767
5289.717
5317.916
5347.753
5379.803
5414.238
5449.593
5485.421
5520.437
5550.047
5569.69
5580.433
5582.635
5579.746
5577.412
5580.906
5588.893
5596.789
5602.236
5605.132
5605.981
5604.939
5601.844
5596.6
5589.229
5579.84
5568.63
5555.878
5541.967
5527.26
5512.157
5497.109
5482.63
5469.295
5457.741
5448.649
5442.684
5440.436
5442.282
5448.384
5458.666
5472.86
5490.507
5511.044
5533.872
5558.368
5583.9
5609.847
5635.496
5660.059
5683.049
5704.219
5723.118
5739.761
5755.023
5770.033
5785.476
5800.918
5816.021
5830.644
5844.78
5858.287
5870.998
5883.55
5896.196
5908.159
5919.246
5929.769
5939.791
5949.253
5958.138
5966.46
5974.221
5981.41
5987.999
5993.945
5999.189
6003.642
6007.187
6009.731
6011.167
6011.408
6010.369
6007.98
6004.179
5998.922
5992.191
5984.002
5974.368
5963.306
5950.809
5936.857
5921.48
5904.738
5886.635
5867.153
5846.257
5823.847
5799.813
5774.247
5747.682
5721.106
5695.754
5672.679
5652.467
5636.615
5625.787
5619.471
5618.067
5622.504
5632.935
5647.894
5665.014
5682.24
5700.15
5717.647
5734.951
5747.201
5757.125
5766.851
5775.709
5784.688
5793.933
5803.414
5813.009
5822.454
5831.599
5840.621
5850.318
5860.951
5872.266
5883.646
5893.871
5902.439
5909.594
5915.755
5921.306
5926.144
5930.618
5934.784
5938.675
5942.457
5946.316
5949.881
5953.231
5956.381
5959.467
5962.757
5966.695
5971.308
5976.619
5982.012
5986.985
5991.426
5995.343
5998.775
6002.072
6004.95
6007.175
6009.223
6011.159
6012.745
6014.057
6015.116
6015.885
6016.434
6016.729
6016.789
6016.625
6016.235
6015.623
6014.824
6013.848
6012.673
6011.277
6009.835
6008.122
6006.287
6004.294
6002.179
5999.915
5997.462
5994.979
5992.37
5988.702
5984.599
5980.353
5975.935
5971.284
5966.386
5961.193
5955.629
5949.655
5943.28
5936.543
5929.481
5922.133
5914.533
5906.734
5898.834
5890.902
5883.017
5875.268
5867.761
5860.589
5853.834
5847.558
5841.805
5836.633
5832.05
5828.051
5824.613
5821.602
5818.997
5816.695
5814.482
5812.439
5810.345
5808.229
5806.116
5804.075
5802.164
5800.464
5799.052
5797.981
5797.268
5796.875
5796.698
5796.555
5796.234
5795.58
5794.629
5793.457
5792.153
5790.733
5789.354
5787.99
5786.882
5786.495
5786.712
5787.437
5788.668
5790.374
5792.535
5795.168
5798.332
5802.111
5806.573
5811.737
5817.557
5823.891
5830.56
5837.5
5844.318
5850.868
5857.365
5863.635
5869.61
5875.317
5880.746
5886.058
5891.287
5896.288
5900.861
5905.468
5910.862
5917.024
5923.479
5929.745
5935.695
5941.601
5947.359
5952.632
5957.323
5961.504
5965.146
5968.163
5970.748
5972.872
5974.613
5975.885
5976.674
5977.024
5977.009
5976.698
5976.171
5975.427
5974.347
5972.88
5971.071
5968.928
5966.355
5963.353
5960.071
5956.614
5953.016
5949.265
5945.364
5941.353
5937.286
5933.216
5929.19
5925.246
5921.426
5917.776
5914.343
5911.117
5908.095
5905.188
5902.464
5899.883
5897.42
5895.01
5892.602
5890.175
5887.73
5885.341
5883.134
5881.355
5880.231
5880.372
5881.578
2679.762
2673.598
2667.428
2649.852
2648.065
2628.017
2648.512
2683.333
2730.8
2765.049
2790.013
2832.505
2894.466
2973.431
3067.871
3176.724
3297.099
3429.868
3573.891
3727.819
3890.674
4060.586
4235.015
4410.511
4583.544
4751.095
4909.352
5053.213
5179.364
5284.119
5366.526
5364.098
5381.986
5363.582
5309.244
5225.625
5116.203
4983.953
4832.74
4667.069
4491.321
4308.704
4122.831
3937.295
3755.565
3580.358
3413.831
3257.649
3112.336
2978.338
2855.611
2744.54
2644.922
2557.01
2480.937
2416.197
2361.684
2315.893
2277.042
2243.633
2214.666
2189.556
2168.278
2150.752
2136.45
2124.976
2115.991
2111.659
2112.792
2121.367
2137.106
2159.176
2187.455
2221.034
2258.375
2297.829
2338.469
2380.333
2423.127
2465.772
2508.294
2550.958
2593.918
2637.324
2681.031
2724.678
2768.291
2812.14
2855.822
2899.197
2943.123
2987.977
3033.281
3078.24
3122.2
3164.961
3206.675
3248.105
3290.299
3333.318
3376.798
3420.652
3465.172
3510.652
3558.011
3606.691
3656.623
3707.78
3759.855
3812.908
3866.567
3920.295
3973.34
4025.053
4075.146
4123.609
4170.799
4217.144
4262.872
4308.15
4353.257
4398.044
4442.19
4485.614
4527.788
4568.02
4604.614
4637.748
4669.562
4700.97
4730.989
4758.808
4785.027
4810.747
4836.569
4862.526
4888.487
4914.422
4940.408
4966.565
4993.042
5020.036
5047.791
5076.603
5106.765
5138.473
5171.503
5205.106
5238.436
5270.256
5298.049
5319.325
5334.084
5342.999
5347.577
5350.645
5355.252
5361.51
5367.343
5371.124
5372.511
5371.689
5368.774
5363.635
5356.315
5346.853
5335.398
5322.192
5307.527
5291.766
5275.296
5258.524
5241.864
5225.796
5210.916
5197.921
5187.58
5180.669
5177.908
5179.84
5186.683
5198.333
5214.321
5233.981
5256.628
5281.584
5308.117
5335.459
5362.911
5389.716
5414.964
5438.34
5460.117
5479.841
5496.822
5511.518
5525.278
5539.823
5554.088
5568.309
5582.722
5597.04
5611.027
5624.611
5638.14
5651.689
5664.75
5677.041
5688.624
5699.526
5709.715
5719.162
5727.865
5735.84
5743.109
5749.671
5755.509
5760.584
5764.832
5768.173
5770.539
5771.83
5771.94
5770.799
5768.346
5764.512
5759.225
5752.422
5744.048
5734.031
5722.313
5708.914
5693.897
5677.292
5659.161
5639.571
5618.53
5596.037
5572.048
5546.282
5518.516
5489.294
5460.05
5432.341
5407.583
5386.287
5371.757
5362.362
5355.866
5354.557
5360.672
5374.422
5394.014
5416.029
5438.939
5461.45
5482.351
5500.261
5512.612
5521.417
5528.189
5534.477
5541.264
5548.389
5555.931
5564.001
5572.547
5581.734
5591.94
5603.335
5615.724
5628.456
5640.779
5651.048
5659.263
5666.063
5672.042
5677.777
5683.271
5688.865
5694.407
5699.583
5704.168
5708.317
5712.066
5715.487
5718.636
5721.685
5724.813
5728.251
5732.133
5736.458
5740.857
5744.942
5748.64
5751.977
5754.976
5757.817
5760.333
5762.403
5764.301
5765.986
5767.423
5768.647
5769.665
5770.469
5771.116
5771.581
5771.876
5771.988
5771.907
5771.622
5771.12
5770.393
5769.424
5768.227
5766.883
5765.338
5763.543
5761.518
5759.267
5756.844
5754.214
5751.369
5748.18
5744.429
5740.4
5736.345
5732.066
5727.386
5722.307
5716.876
5711.086
5704.909
5698.345
5691.428
5684.178
5676.632
5668.835
5660.84
5652.718
5644.554
5636.437
5628.462
5620.759
5613.455
5606.625
5600.312
5594.571
5589.454
5584.983
5581.183
5577.975
5575.354
5573.123
5571.145
5569.259
5567.36
5565.337
5563.148
5560.857
5558.555
5556.355
5554.359
5552.665
5551.358
5550.481
5550.01
5549.828
5549.744
5549.52
5548.922
5547.884
5546.463
5544.768
5542.898
5541.024
5539.313
5538.052
5537.435
5537.452
5538.136
5539.487
5541.395
5543.787
5546.631
5549.968
5553.899
5558.545
5563.973
5570.159
5576.921
5584.011
5591.45
5598.617
5605.267
5611.771
5617.998
5623.74
5629.077
5634.076
5638.87
5643.526
5648.062
5652.461
5657.023
5662.104
5667.771
5673.786
5679.925
5686.129
5692.43
5698.686
5704.531
5709.768
5714.418
5718.394
5721.633
5724.409
5726.79
5728.746
5730.206
5731.308
5731.994
5732.297
5732.252
5731.888
5731.242
5730.225
5728.735
5726.776
5724.455
5721.865
5719.018
5715.928
5712.658
5709.214
5705.511
5701.555
5697.426
5693.215
5689.029
5684.922
5680.913
5677.034
5673.321
5669.808
5666.512
5663.403
5660.548
5657.851
5655.301
5652.95
5650.682
5648.45
5646.258
5644.11
5642.061
5640.177
5638.608
5637.441
5636.843
5636.438
2773.982
2751.853
2731.296
2687.288
2651.153
2584.989
2551.818
2520.094
2490.187
2462.689
2437.215
2414.912
2396.114
2382.023
2372.899
2369.661
2315.41
2330.294
2353.294
2381.718
2413.253
2453.045
2505.228
2570.822
2651.717
2746.804
2855.538
2977.164
3110.864
3255.499
3409.767
3572.547
3741.256
3912.836
4085.35
4255.835
4421.672
4578.865
4721.525
4844.274
4942.624
5012.08
5047.287
5057.547
5036.062
4980.913
4895.673
4784.335
4650.583
4498.301
4331.709
4155.231
3972.661
3787.62
3603.578
3423.903
3251.067
3087.089
2933.514
2791.199
2660.356
2540.397
2431.924
2335.73
2252.035
2180.758
2121.281
2072.323
2032.044
1998.396
1969.415
1943.843
1921.566
1902.625
1886.592
1872.74
1860.294
1849.088
1841.804
1841.11
1848.646
1865.167
1890.543
1922.843
1960.231
2000.987
2043.089
2085.67
2128.976
2172.565
2215.721
2258.833
2302.106
2345.433
2389.079
2432.847
2476.201
2519.257
2562.458
2606.217
2650.697
2695.878
2741.719
2787.937
2833.732
2877.993
2919.962
2960.044
2999.941
3041.101
3083.394
3126.001
3168.638
3211.572
3255.157
3300.55
3348.156
3398.241
3450.943
3505.563
3561.197
3617.137
3672.879
3727.733
3780.884
3831.79
3880.389
3927.107
3972.675
4017.699
4062.441
4106.876
4150.67
4193.281
4234.36
4273.621
4310.971
4346.157
4379.2
4410.941
4442.148
4472.755
4502.35
4530.929
4558.869
4586.492
4613.879
4641.018
4667.963
4694.824
4721.736
4748.854
4776.373
4804.54
4833.644
4863.91
4895.371
4927.788
4960.607
4992.927
5023.628
5051.259
5074.408
5092.645
5106.229
5115.967
5123.341
5129.84
5135.864
5140.688
5143.37
5143.434
5140.917
5135.989
5128.677
5119.029
5107.124
5093.186
5077.531
5060.538
5042.597
5024.058
5005.263
4986.513
4968.244
4951.104
4935.895
4923.502
4914.886
4911.001
4912.679
4920.199
4933.337
4951.468
4973.656
4999.002
5026.754
5056.016
5085.764
5115.082
5143.095
5168.868
5193.017
5217.785
5239.626
5256.067
5269.008
5280.824
5294.476
5307.514
5320.113
5333.748
5348.093
5362.738
5377.525
5392.212
5406.672
5420.779
5434.286
5447.089
5459.124
5470.312
5480.6
5489.972
5498.443
5506.034
5512.747
5518.6
5523.589
5527.695
5530.876
5533.056
5534.166
5534.125
5532.864
5530.318
5526.419
5521.075
5514.188
5505.645
5495.287
5482.917
5468.484
5452.157
5434.088
5414.423
5393.297
5370.684
5346.601
5321.039
5293.437
5263.168
5230.599
5197.745
5167.287
5142.962
5125.886
5112.512
5099.677
5089.074
5085.714
5092.949
5111.176
5138.049
5168.745
5198.748
5225.111
5246.386
5262.968
5274.778
5282.471
5287.826
5292.699
5297.741
5303.268
5309.557
5316.663
5324.57
5333.352
5343.212
5354.518
5368.855
5384.448
5398.306
5407.995
5414.875
5420.563
5425.678
5431.503
5437.362
5444.02
5451.227
5458.134
5464.306
5469.546
5473.93
5477.76
5481.074
5484.071
5486.968
5489.995
5493.26
5496.727
5500.233
5503.63
5506.763
5509.557
5512.106
5514.438
5516.512
5518.304
5519.894
5521.298
5522.513
5523.56
5524.458
5525.227
5525.892
5526.446
5526.871
5527.159
5527.299
5527.277
5527.072
5526.667
5526.039
5525.174
5524.06
5522.683
5521.033
5519.123
5516.914
5514.37
5511.573
5508.497
5505.105
5501.365
5497.351
5493.126
5488.61
5483.715
5478.437
5472.81
5466.831
5460.464
5453.709
5446.593
5439.141
5431.374
5423.347
5415.113
5406.727
5398.266
5389.818
5381.492
5373.487
5366.003
5359.04
5352.597
5346.78
5341.679
5337.36
5333.8
5330.957
5328.7
5326.874
5325.307
5323.796
5322.141
5320.198
5317.923
5315.424
5312.807
5310.252
5307.896
5305.87
5304.306
5303.289
5302.803
5302.722
5302.845
5302.862
5302.39
5301.288
5299.622
5297.525
5295.153
5292.73
5290.51
5288.783
5287.775
5287.595
5288.401
5290.125
5292.457
5295.192
5298.209
5301.58
5305.517
5310.213
5315.8
5322.319
5329.613
5337.3
5345.224
5352.923
5360.091
5366.709
5372.902
5378.479
5383.55
5388.168
5392.402
5396.446
5400.454
5404.523
5408.76
5413.404
5418.645
5424.436
5430.552
5436.831
5443.284
5449.843
5456.15
5461.909
5467.101
5471.777
5475.798
5479.097
5481.756
5483.927
5485.454
5486.501
5487.19
5487.534
5487.502
5487.198
5486.621
5485.626
5484.219
5482.389
5480.195
5477.731
5475.015
5471.994
5468.682
5465.142
5461.411
5457.498
5453.436
5449.303
5445.198
5441.148
5437.132
5433.205
5429.43
5425.838
5422.473
5419.356
5416.483
5413.791
5411.191
5408.977
5406.788
5404.675
5402.659
5400.721
5398.885
5397.151
5395.64
5394.284
5393.171
5391.754
2901.903
2869.211
2832.391
2783.944
2749.36
2679.685
2645.988
2612.731
2579.549
2546.176
2513.079
2480.264
2446.582
2413.162
2378.555
2279.23
2246.37
2214.87
2184.95
2156.849
2131.012
2108.015
2088.187
2072.245
2061.099
2055.392
2054.784
2062.692
2078.031
2100.518
2130.708
2170.896
2222.795
2288.045
2367.155
2460.276
2566.755
2685.945
2817.273
2959.416
3110.495
3268.733
3431.915
3598.29
3767.283
3934.257
4097.118
4250.488
4388.97
4507.144
4600.719
4666.923
4701.788
4705.38
4676.921
4616.394
4526.237
4410.33
4272.924
4118.119
3950.104
3773.117
3591.277
3408.223
3227.088
3051.607
2884.163
2726.139
2578.677
2442.156
2316.558
2201.683
2098.294
2007.347
1929.516
1865.038
1813.161
1772.096
1739.357
1712.34
1688.857
1667.827
1649.417
1633.739
1619.658
1605.833
1591.41
1574.928
1561.957
1557.73
1564.138
1583.156
1614.429
1652.473
1694.735
1740.167
1785.667
1830.37
1875.618
1920.857
1964.464
2007.695
2051.345
2094.932
2138.889
2182.804
2225.583
2267.856
2310.518
2354.441
2399.741
2446.041
2493.446
2541.726
2589.435
2634.548
2675.243
2712.535
2749.994
2789.796
2831.35
2873.079
2914.229
2954.91
2995.394
3037.939
3083.794
3133.81
3188.138
3245.546
3304.558
3363.975
3423.021
3480.824
3536.206
3588.232
3636.69
3682.253
3726.388
3770.385
3814.554
3858.624
3901.883
3943.327
3982.369
4019.081
4053.949
4087.366
4119.577
4151.063
4182.404
4213.804
4245.051
4275.846
4306.051
4335.636
4364.581
4392.939
4420.882
4448.562
4476.095
4503.638
4531.409
4559.707
4588.886
4619.21
4650.696
4683.093
4715.891
4748.295
4779.343
4808.025
4833.376
4854.849
4872.361
4886.24
4897.127
4905.689
4912.234
4916.598
4918.36
4917.203
4913.096
4906.236
4896.778
4884.796
4870.335
4853.658
4835.162
4815.364
4794.857
4773.953
4752.789
4731.458
4710.328
4690.102
4671.73
4656.309
4645.086
4639.376
4640.521
4648.782
4663.737
4684.489
4709.725
4738.325
4769.558
4802.381
4835.295
4867
4896.293
4923.006
4951.907
4981.194
5003.038
5017.625
5028.491
5038.137
5049.897
5061.48
5072.897
5085.739
5099.74
5114.464
5129.668
5145.125
5160.598
5175.881
5190.67
5204.734
5217.98
5230.316
5241.648
5251.927
5261.144
5269.324
5276.475
5282.598
5287.699
5291.788
5294.862
5296.9
5297.87
5297.716
5296.362
5293.737
5289.768
5284.327
5277.281
5268.505
5257.767
5244.73
5229.274
5211.415
5191.478
5170.014
5147.369
5123.478
5098.497
5072.422
5043.704
5010.722
4973.892
4937.312
4908.458
4888.693
4874.084
4853.992
4831.779
4815.014
4808.892
4817.651
4841.994
4879.153
4921.083
4958.435
4987.536
5008.971
5024.346
5035.227
5042.251
5046.659
5049.967
5053.221
5057.219
5062.477
5068.962
5076.864
5085.848
5096.092
5110.887
5129.095
5144.201
5156.429
5165.293
5171.475
5176.244
5179.931
5185.719
5191.207
5198.187
5206.574
5214.781
5222.404
5229.185
5234.653
5239.19
5243.018
5246.245
5249.061
5251.699
5254.353
5257.113
5259.887
5262.568
5265.063
5267.368
5269.441
5271.354
5272.98
5274.437
5275.731
5276.867
5277.859
5278.735
5279.523
5280.252
5280.918
5281.526
5282.067
5282.527
5282.892
5283.141
5283.247
5283.176
5282.884
5282.317
5281.432
5280.265
5278.781
5276.959
5274.746
5272.245
5269.357
5266.143
5262.608
5258.749
5254.578
5250.119
5245.365
5240.283
5234.859
5229.089
5222.954
5216.436
5209.548
5202.224
5194.556
5186.507
5178.17
5169.594
5160.848
5151.996
5143.107
5134.328
5126.043
5118.326
5111.08
5104.384
5098.433
5093.347
5089.15
5085.832
5083.323
5081.496
5080.147
5079.074
5078.039
5076.716
5074.869
5072.489
5069.719
5066.763
5063.793
5061.002
5058.565
5056.686
5055.533
5055.111
5055.281
5055.884
5056.55
5056.462
5055.376
5053.476
5050.96
5048.001
5044.878
5041.928
5039.509
5037.971
5037.495
5038.65
5041.09
5043.926
5046.877
5049.954
5053.25
5057.032
5061.574
5067.11
5073.867
5081.816
5090.23
5098.916
5107.677
5115.412
5122.319
5128.504
5133.967
5138.811
5143.107
5146.897
5150.348
5153.666
5157.069
5160.736
5164.883
5169.848
5175.606
5181.804
5188.321
5195.162
5202.183
5208.948
5215.13
5220.629
5225.451
5229.626
5233.258
5236.242
5238.78
5240.845
5242.252
5243.051
5243.462
5243.392
5242.89
5242.094
5240.996
5239.578
5237.819
5235.819
5233.512
5230.908
5227.998
5224.768
5221.29
5217.652
5213.87
5209.929
5205.862
5201.739
5197.633
5193.595
5189.665
5185.888
5182.309
5178.964
5175.869
5173.024
5170.412
5168.072
5165.636
5163.418
5161.39
5159.459
5157.601
5155.858
5154.171
5152.645
5151.08
5149.57
5147.234
2865.365
2819.77
2777.365
2724.312
2671.607
2624.839
2581.865
2542.466
2506.272
2470.294
2369.942
2336.79
2304.197
2271.607
2238.819
2205.826
2172.582
2138.897
2104.951
2071.452
2038.984
2006.379
1974.668
1944.154
1915.14
1887.948
1862.989
1840.35
1820.629
1804.976
1794.29
1789.893
1792.651
1803.04
1822.253
1851.163
1891.072
1943.116
2008.006
2086.161
2177.737
2282.267
2399.177
2527.871
2666.138
2811.753
2965.13
3123.073
3286.17
3451.46
3614.754
3772.302
3919.128
4049.905
4159.485
4243.365
4298.295
4321.592
4312.329
4271.492
4200.687
4102.372
3980.003
3837.833
3680.076
3510.969
3334.416
3154.621
2975.332
2799.64
2630.472
2470.069
2320.531
2182.48
2054.826
1937.79
1832.435
1738.04
1654.324
1583.34
1527.228
1485.563
1455.886
1434.508
1417.242
1400.97
1385.68
1372.59
1361.224
1350.988
1336.702
1314.636
1290.599
1268.307
1259.591
1266.346
1290.012
1330.042
1374.648
1422.541
1475.841
1526.996
1574.19
1621.649
1668.875
1711.935
1754.707
1798.949
1843.251
1888.265
1932.682
1973.517
2013.602
2055.717
2100.924
2147.737
2194.354
2242.796
2294.773
2347.192
2394.61
2432.632
2464.374
2498.085
2536.937
2578.289
2618.799
2658.313
2696.315
2731.928
2770.678
2812.973
2861.889
2918.969
2981.085
3045.044
3109.058
3172.673
3234.945
3293.815
3347.449
3395.338
3438.615
3480.055
3522.264
3565.823
3610.186
3653.777
3694.591
3731.659
3765.55
3797.581
3828.769
3859.541
3890.292
3921.591
3953.791
3986.738
4019.857
4052.539
4084.344
4115.013
4144.618
4173.515
4201.946
4229.973
4257.702
4285.355
4313.344
4342.246
4372.467
4404.064
4436.789
4470.183
4503.547
4535.967
4566.524
4594.428
4619.113
4640.264
4657.813
4671.884
4682.694
4690.389
4694.903
4696.053
4693.802
4688.201
4679.458
4667.712
4653.13
4635.774
4615.951
4594.224
4571.368
4547.981
4524.327
4500.464
4476.185
4451.671
4427.728
4405.37
4385.942
4371.509
4363.834
4364.023
4372.634
4389.939
4414.317
4443.411
4475.878
4511.431
4549.088
4586.483
4622.014
4657.104
4695.438
4727.477
4753.08
4768.752
4779.668
4788.926
4796.942
4804.956
4814.317
4825.227
4837.584
4851.425
4866.353
4881.996
4898.016
4914.209
4930.394
4946.242
4961.467
4975.903
4989.431
5001.919
5013.267
5023.424
5032.374
5040.128
5046.713
5052.14
5056.429
5059.605
5061.69
5062.676
5062.505
5061.096
5058.399
5054.343
5048.762
5041.461
5032.392
5021.46
5007.86
4991.163
4971.693
4950.136
4927.072
4902.921
4877.778
4852.424
4827.279
4798.672
4763.581
4724.569
4689.191
4661.321
4639.368
4615.752
4585.703
4554.77
4532.313
4521.824
4532.789
4565.486
4615.557
4672.031
4719.752
4752.162
4773.41
4788.149
4797.885
4803.558
4806.455
4808.002
4809.406
4811.482
4814.961
4820.219
4829.613
4842.705
4857.245
4874.459
4893.046
4905.099
4915.938
4923.85
4929.282
4932.928
4935.503
4940.892
4947.057
4954.04
4962.859
4972.171
4981.32
4989.115
4995.19
4999.904
5003.626
5006.723
5009.479
5012.061
5014.497
5016.856
5019.133
5021.296
5023.318
5025.179
5026.837
5028.281
5029.607
5030.751
5031.756
5032.644
5033.426
5034.137
5034.816
5035.504
5036.177
5036.865
5037.541
5038.177
5038.751
5039.238
5039.602
5039.8
5039.783
5039.497
5038.845
5037.954
5036.664
5034.951
5032.813
5030.234
5027.281
5023.947
5020.264
5016.245
5011.91
5007.283
5002.378
4997.177
4991.655
4985.785
4979.54
4972.888
4965.805
4958.219
4950.215
4941.885
4933.237
4924.326
4915.2
4905.908
4896.528
4887.409
4878.725
4870.447
4862.685
4855.601
4849.414
4844.236
4840.111
4837.012
4834.87
4833.519
4832.708
4832.34
4832.027
4831.177
4829.457
4826.938
4823.862
4820.482
4817.016
4813.677
4810.673
4808.353
4807.045
4806.709
4807.234
4808.549
4810.568
4811.33
4810.328
4808.09
4805.027
4801.32
4797.297
4793.409
4790.135
4788.154
4787.697
4789.287
4792.219
4795.335
4798.585
4801.806
4805.024
4808.537
4812.69
4817.836
4824.642
4833.425
4843.165
4853.231
4863.327
4871.461
4878.682
4884.986
4890.377
4894.937
4898.819
4902.118
4904.968
4907.567
4910.105
4912.942
4916.412
4921.327
4927.475
4934.065
4940.82
4947.943
4955.297
4962.516
4969.158
4975.017
4980.131
4984.564
4988.358
4991.498
4994.008
4995.951
4997.438
4998.401
4998.995
4999.258
4999.027
4998.263
4997.084
4995.571
4993.725
4991.619
4989.271
4986.706
4983.878
4980.793
4977.541
4974.074
4970.414
4966.578
4962.602
4958.536
4954.463
4950.481
4946.614
4942.889
4939.342
4936.005
4932.894
4930.018
4927.364
4924.923
4922.607
4920.494
4918.466
4916.556
4914.711
4912.995
4911.299
4909.72
4907.95
4906.078
4902.842
2607.104
2546.799
2424.122
2379.314
2335.804
2295.538
2258.084
2222.88
2189.245
2156.892
2125.763
2094.252
2062.644
2030.676
1998.395
1965.628
1932.359
1898.569
1864.263
1829.856
1796.449
1763.595
1731.489
1700.346
1670.056
1640.559
1612.437
1586.504
1563.501
1544.456
1530.863
1523.906
1524.239
1532.562
1550.008
1577.633
1616.552
1667.6
1731.355
1808.124
1898.037
2000.466
2114.491
2238.483
2370.562
2510.638
2658.907
2813.344
2971.924
3131.444
3287.76
3436.33
3572.31
3690.623
3786.477
3855.603
3894.775
3902.087
3877.205
3821.573
3737.898
3629.297
3499.451
3352.274
3192.15
3023.369
2849.548
2674.45
2500.601
2330.94
2169.093
2017.21
1877.71
1752.093
1638.627
1534.276
1440.262
1356.624
1282.114
1219.001
1172.383
1141.992
1124.741
1116.582
1112.558
1108.07
1102.264
1097.316
1090.654
1083.882
1071.73
1035.126
994.942
959.2868
943.386
950.4075
983.0871
1040.57