/*--------------------------------*- C++ -*----------------------------------*\
| =========                 |                                                 |
| \\      /  F ield         | foam-extend: Open Source CFD                    |
|  \\    /   O peration     | Version:     3.1                                |
|   \\  /    A nd           | Web:         http://www.extend-project.de       |
|    \\/     M anipulation  |                                                 |
\*---------------------------------------------------------------------------*/
FoamFile
{
    version     2.0;
    format      ascii;
    class       surfaceScalarField;
    location    "16.5";
    object      phi;
}
// * * * * * * * * * * * * * * * * * * * * * * * * * * * * * * * * * * * * * //

dimensions      [0 3 -1 0 0 0 0];

internalField   nonuniform List<scalar> 
275122
(
-0.0002375877
0.0002404857
-1.591781e-07
-2.738745e-06
-0.0002120419
0.0002023357
8.107824e-07
8.895407e-06
-0.0002098209
0.0002151439
-2.158151e-07
-5.107236e-06
-0.0002332559
0.0002395435
-2.627709e-07
-6.024867e-06
-0.0002554087
0.0002574367
-2.848172e-07
-1.743173e-06
-0.0002578471
0.0002576009
-2.436947e-07
4.899296e-07
-0.0002557893
0.0002550249
-2.216149e-07
9.860161e-07
-0.0002522724
0.0002512253
-2.045208e-07
1.251578e-06
-0.0002478122
0.0002465948
-1.892811e-07
1.406704e-06
-0.0002427492
0.0002414136
-1.832601e-07
1.518821e-06
-0.000237185
0.0002356997
-1.543143e-07
1.63963e-06
-0.0002310278
0.0002293926
-1.353216e-07
1.770485e-06
-0.0002242751
0.0002224955
-1.180285e-07
1.897684e-06
-0.0002169587
0.0002150562
-1.047621e-07
2.007247e-06
-0.0002092278
0.0002072724
-9.52087e-08
2.050568e-06
-0.0002014443
0.0001995521
-8.961601e-08
1.981794e-06
-0.0001940767
0.0001923567
-8.494621e-08
1.804949e-06
-0.0001874956
0.0001860248
-8.321544e-08
1.554033e-06
-0.0001820885
0.0001809911
-1.052326e-07
1.202635e-06
-0.000178763
0.0001789701
-3.162502e-07
1.090771e-07
-0.000197574
0.0002053929
-7.267896e-07
-7.092025e-06
-0.0002073399
0.0002072824
-1.666388e-07
2.241696e-07
-0.0002084205
0.000209549
-7.384813e-08
-1.054663e-06
-0.0002310019
0.0002391645
2.113172e-07
-8.373847e-06
-0.000239805
0.0002395092
3.298689e-07
-3.408975e-08
-0.0002410646
0.0002414648
-7.132211e-08
-3.289268e-07
-0.0002415123
0.0002411142
-8.780776e-08
4.858758e-07
-0.0002389713
0.000237057
-6.708936e-08
1.981349e-06
-0.0002236611
0.0002094249
-8.62988e-08
1.432256e-05
-0.0001259085
0.0001292173
2.733314e-09
-3.311542e-06
-0.0002139249
0.0002243012
-5.584966e-08
-1.032038e-05
-0.0002535879
0.0002634802
8.199955e-09
-9.900459e-06
-0.000293314
0.0003032909
8.496397e-09
-9.985357e-06
-0.0003334647
0.0003436154
8.858221e-09
-1.01595e-05
-0.000374446
0.000384839
8.94304e-09
-1.040199e-05
-0.0004163515
0.0004268664
9.172775e-09
-1.052411e-05
-0.0004587996
0.0004694964
8.530571e-09
-1.070539e-05
-0.0005017785
0.0005125632
7.662364e-09
-1.079238e-05
-0.0005450178
0.0005557809
7.152652e-09
-1.077018e-05
-0.000587735
0.0005993055
1.779261e-07
-1.17484e-05
9.437174e-06
-0.0004075413
0.0004090474
1.760767e-10
-1.094345e-05
9.485443e-06
-0.0004127756
0.0004138713
-6.582063e-10
-1.058048e-05
9.623964e-06
-0.0004169635
0.0004178924
-1.106081e-09
-1.055173e-05
9.775216e-06
-0.0004202528
0.0004209256
-1.057583e-09
-1.044692e-05
9.92448e-06
-0.0004225289
0.0004229289
-1.230828e-09
-1.032318e-05
9.960585e-06
-0.0004238028
0.0004239967
-1.117428e-09
-1.015336e-05
9.916511e-06
-0.0004243251
0.0004243182
-1.020362e-09
-9.908572e-06
9.875139e-06
-0.0004241609
0.0004240289
-9.680268e-10
-9.742121e-06
9.991652e-06
-0.0004231971
0.0004220373
-7.971864e-10
-8.831061e-06
7.89383e-06
-0.001721307
0.001722346
-4.898284e-11
-3.404627e-05
8.642387e-06
7.859638e-06
8.61145e-06
8.827236e-06
-0.001721386
0.001718603
-4.792742e-11
-3.292093e-05
9.05441e-06
8.798369e-06
9.023825e-06
8.694204e-06
-0.001715438
0.001711747
-3.940327e-11
-3.13835e-05
8.868669e-06
8.667686e-06
8.844747e-06
8.677688e-06
-0.001707871
0.001703524
-1.755326e-11
-3.053034e-05
8.784281e-06
8.653083e-06
8.762299e-06
8.609923e-06
-0.001698985
0.001694174
1.012767e-11
-2.968937e-05
8.662672e-06
8.588071e-06
8.640442e-06
8.513279e-06
-0.00168932
0.001684332
2.781783e-11
-2.90803e-05
8.543609e-06
8.491048e-06
8.52052e-06
8.433461e-06
-0.001679377
0.001674273
2.973028e-11
-2.865062e-05
8.461762e-06
8.417661e-06
8.441823e-06
8.359623e-06
-0.001669283
0.001664194
2.232384e-11
-2.829354e-05
8.349616e-06
8.339239e-06
8.333315e-06
8.242464e-06
-0.001659428
0.001654328
1.269113e-11
-2.778193e-05
8.220204e-06
8.217634e-06
8.201965e-06
7.349529e-06
-0.001648346
0.001646953
5.189244e-12
-2.892208e-05
7.850528e-06
7.300626e-06
7.81444e-06
8.79486e-06
-0.00164246
0.001636233
1.76429e-12
-2.749042e-05
8.262582e-06
8.44995e-06
8.210164e-06
7.974842e-06
-0.001631668
0.001627172
1.90725e-12
-2.720483e-05
7.88957e-06
7.964203e-06
7.871798e-06
7.934001e-06
-0.001622651
0.001618124
2.825853e-12
-2.706677e-05
7.873258e-06
7.923957e-06
7.862114e-06
7.893817e-06
-0.001613628
0.001609151
5.730458e-12
-2.700208e-05
7.852732e-06
7.886323e-06
7.846763e-06
7.882394e-06
-0.00160469
0.001600256
7.521159e-12
-2.70515e-05
7.865526e-06
7.876337e-06
7.861038e-06
7.940199e-06
-0.00159582
0.001591349
6.063884e-12
-2.723481e-05
7.93337e-06
7.914895e-06
7.917108e-06
8.153511e-06
-0.001586924
0.001582512
3.452866e-12
-2.798448e-05
8.180142e-06
8.012872e-06
8.049989e-06
8.948826e-06
-0.001577962
0.001572541
-2.547122e-12
-2.959596e-05
9.150017e-06
8.381197e-06
8.537503e-06
1.190369e-05
-0.001564502
0.001550172
-1.444305e-11
-3.055611e-05
1.27333e-05
1.028371e-05
9.964542e-06
1.105951e-05
-0.001533492
0.001542881
-1.594334e-11
-2.044817e-05
9.803789e-06
-0.001547575
0.001546371
-1.017297e-11
-8.599766e-06
2.14614e-05
-0.001539845
0.001533524
5.628372e-13
-1.514029e-05
1.81882e-05
-0.001528167
0.001522941
2.166259e-11
-1.296234e-05
8.633806e-06
-0.001517786
0.001515072
3.014471e-11
-5.919855e-06
8.050845e-07
-0.001514112
0.001512615
2.224688e-11
6.927247e-07
-2.560173e-06
-0.001511026
0.001509506
5.099356e-12
4.079348e-06
-4.276218e-06
-0.001507949
0.001506287
-1.872791e-11
5.937668e-06
-5.663106e-06
-0.001504633
0.001502962
-3.654684e-11
7.333716e-06
-6.788757e-06
-0.001501282
0.001499613
-4.335555e-11
8.458093e-06
-7.862742e-06
-0.001497989
0.00149642
-3.803364e-11
9.431188e-06
-8.97204e-06
-0.001494928
0.001493527
-2.373165e-11
1.037251e-05
-1.008271e-05
-0.001492199
0.001490966
-5.654654e-12
1.131553e-05
-1.112436e-05
-0.001489792
0.001488698
9.997027e-12
1.221779e-05
-1.187637e-05
-0.001487608
0.001486552
2.043477e-11
1.293237e-05
-1.214306e-05
-0.001485397
0.001484221
2.771257e-11
1.331925e-05
-1.189854e-05
-0.001482828
0.001481392
3.20229e-11
1.333454e-05
-1.114872e-05
-0.001479628
0.001477845
3.524103e-11
1.293208e-05
-9.579986e-06
-0.001475595
0.001473252
3.447176e-11
1.192327e-05
-6.654552e-06
-0.001470329
0.001466973
3.126571e-11
1.001004e-05
-1.682388e-06
-0.001460351
0.001454577
1.829174e-11
7.456954e-06
-4.585588e-06
-0.001451235
0.001447996
-5.220888e-12
7.82464e-06
2.443591e-06
-0.001443867
0.001436907
-3.518384e-11
4.516563e-06
1.36984e-05
-0.001422938
0.001410436
-6.130889e-11
-1.196697e-06
5.080627e-07
-0.001401594
0.001395473
-8.178022e-11
5.613002e-06
-6.532492e-06
-0.001389489
0.00138282
-9.13105e-11
1.320108e-05
-1.184754e-05
-0.001375982
0.001369501
-8.233421e-11
1.832822e-05
-2.199696e-05
-0.001363909
0.001359823
-5.876329e-11
2.608313e-05
-4.938883e-05
-0.001357985
0.001369283
-2.848079e-11
3.809116e-05
-9.591532e-06
-0.001383963
0.001381064
-6.132777e-13
3.537212e-05
-6.700358e-06
-9.543786e-06
-6.637708e-06
-3.755548e-06
-0.001376233
0.001374725
2.585204e-11
1.626773e-05
-3.719924e-06
-3.666938e-06
-3.617013e-06
-2.139118e-06
-0.001373516
0.001371935
3.97334e-11
9.485235e-06
-1.84431e-06
-2.10336e-06
-1.81814e-06
-9.74378e-07
-0.001370518
0.001370021
4.419128e-11
4.114468e-06
-8.403506e-07
-9.658452e-07
-8.369865e-07
-2.425442e-07
-0.001370173
0.001371223
4.486374e-11
-2.528354e-07
-1.490849e-07
-2.483314e-07
-1.573466e-07
3.625288e-07
-0.001372828
0.001375276
4.362348e-11
-4.069513e-06
4.568559e-07
3.536465e-07
4.490858e-07
8.906497e-07
-0.001378231
0.001381969
4.115436e-11
-7.430655e-06
9.663178e-07
8.793735e-07
9.567103e-07
1.317274e-06
-0.001386178
0.001391122
3.923586e-11
-1.03157e-05
1.375653e-06
1.309645e-06
1.369767e-06
1.656895e-06
-0.001396493
0.001402536
3.521933e-11
-1.27579e-05
1.70179e-06
1.654938e-06
1.700545e-06
1.940366e-06
-0.001408966
0.001415959
3.549967e-11
-1.480912e-05
1.978726e-06
1.929638e-06
1.967185e-06
2.159747e-06
-0.00142327
0.001431032
4.085037e-11
-1.644172e-05
2.187936e-06
2.15197e-06
2.180209e-06
2.300689e-06
-0.001439051
0.001447415
2.303757e-11
-1.758614e-05
2.31432e-06
2.297625e-06
2.309157e-06
2.362237e-06
-0.001455975
0.001464758
1.698644e-11
-1.822372e-05
2.362416e-06
2.357186e-06
2.358749e-06
2.34121e-06
-0.001473667
0.001482677
1.396047e-11
-1.833307e-05
2.326103e-06
2.335747e-06
2.31979e-06
2.239526e-06
-0.001491763
0.001500833
3.366267e-13
-1.797574e-05
2.217139e-06
2.235448e-06
2.21339e-06
2.09038e-06
-0.001509903
0.001518852
-6.610105e-12
-1.72443e-05
2.060696e-06
2.086861e-06
2.057295e-06
1.895048e-06
-0.001527744
0.001536425
-9.843354e-12
-1.618104e-05
1.858611e-06
1.891435e-06
1.855009e-06
1.657715e-06
-0.001545001
0.001553287
-1.134735e-11
-1.48238e-05
1.614835e-06
1.653727e-06
1.610877e-06
1.382789e-06
-0.001561428
0.001569205
-1.256727e-11
-1.320141e-05
1.333715e-06
1.378526e-06
1.329605e-06
1.075315e-06
-0.001576791
0.001583937
-1.263255e-11
-1.132757e-05
1.019921e-06
1.070442e-06
1.015275e-06
7.236371e-07
-0.001590869
0.001597313
-1.151421e-11
-9.218691e-06
6.680952e-07
7.190438e-07
6.639931e-07
3.51936e-07
-0.001603491
0.001609124
-9.546924e-12
-6.915428e-06
2.930546e-07
3.474766e-07
2.892392e-07
-3.978042e-08
-0.001614447
0.001619196
-7.282304e-12
-4.457203e-06
-1.025341e-07
-4.347527e-08
-1.057301e-07
-4.393025e-07
-0.001623621
0.001627458
-5.117687e-12
-1.936959e-06
-5.068537e-07
-4.431343e-07
-5.104714e-07
-8.367957e-07
-0.001630971
0.001633887
-2.716085e-12
5.714765e-07
-9.032483e-07
-8.402871e-07
-9.067077e-07
-1.212683e-06
0.001638453
-8.349168e-13
3.00964e-06
-1.277511e-06
-1.216397e-06
-1.281203e-06
-0.001636475
-1.586339e-06
-0.001640141
0.001641277
1.355959e-12
5.32963e-06
-1.643401e-06
-1.589573e-06
-1.646633e-06
-1.938428e-06
-0.001642112
0.001642439
3.303661e-12
7.554005e-06
-1.998516e-06
-1.941734e-06
-2.001812e-06
-2.281214e-06
-0.001642481
0.001642046
5.263569e-12
9.684485e-06
-2.340415e-06
-2.284339e-06
-2.343589e-06
-2.615291e-06
-0.001641342
0.001640188
7.031635e-12
1.173868e-05
-2.673633e-06
-2.618327e-06
-2.676842e-06
-2.94476e-06
-0.001638778
0.001636938
8.636194e-12
1.374098e-05
-3.002835e-06
-2.947841e-06
-3.006106e-06
-3.274355e-06
-0.001634856
0.001632359
1.022592e-11
1.571829e-05
-3.333233e-06
-3.27751e-06
-3.336586e-06
-3.611703e-06
-0.001629624
0.001626471
1.188894e-11
1.772915e-05
-3.672935e-06
-3.614892e-06
-3.676349e-06
-3.96719e-06
-0.001623061
0.001619193
1.387472e-11
1.987345e-05
-4.032125e-06
-3.970132e-06
-4.035275e-06
-4.347867e-06
-0.001615015
0.001610309
1.724198e-11
2.223866e-05
-4.416639e-06
-4.349416e-06
-4.41831e-06
-4.754484e-06
-0.001605221
0.001599574
2.434253e-11
2.480511e-05
-4.827957e-06
-4.751104e-06
-4.824449e-06
-5.194943e-06
-0.001593527
0.001587022
3.938207e-11
2.74236e-05
-5.281795e-06
-5.178258e-06
-5.263741e-06
-5.730447e-06
-0.001580232
0.001573254
6.772235e-11
3.005905e-05
-5.855807e-06
-5.688014e-06
-5.807285e-06
-6.480513e-06
-0.001566274
0.001559463
1.106193e-10
3.296506e-05
-6.672136e-06
-6.410097e-06
-6.591255e-06
-7.47912e-06
-0.001552953
0.001546875
1.483385e-10
3.625072e-05
-7.691658e-06
-7.395539e-06
-7.607018e-06
-8.105836e-06
-0.001541142
0.001535424
1.409355e-10
3.813499e-05
-8.08625e-06
-8.099158e-06
-8.125846e-06
-7.689448e-06
-0.001529165
0.001521955
1.080837e-10
3.781703e-05
-7.513755e-06
-7.788525e-06
-7.615617e-06
-7.016027e-06
-0.001513596
0.001504048
1.003286e-10
3.745841e-05
-6.895646e-06
-7.070148e-06
-6.928572e-06
-6.63366e-06
-0.001493386
0.001481603
1.086192e-10
3.818504e-05
-6.568876e-06
-6.636098e-06
-6.563879e-06
-6.409583e-06
-0.001468786
0.001454861
1.172882e-10
3.945873e-05
-6.356471e-06
-6.40999e-06
-6.358193e-06
-6.205083e-06
-0.001439969
0.001424165
1.158433e-10
4.053555e-05
-6.150622e-06
-6.214358e-06
-6.161965e-06
-5.987048e-06
-0.001407661
0.001390606
9.600109e-11
4.088745e-05
-5.92593e-06
-5.992551e-06
-5.926277e-06
-5.820212e-06
-0.001373327
0.00135606
4.602525e-11
4.034979e-05
-5.71216e-06
-5.833495e-06
-5.717759e-06
-5.742205e-06
-0.001338982
0.001322339
-3.525487e-11
3.926961e-05
-5.568648e-06
-5.740556e-06
-5.575705e-06
-5.552761e-06
-0.001306062
0.001289744
-1.447112e-10
3.689661e-05
-4.645891e-06
-5.631178e-06
-4.749013e-06
-4.139406e-06
-0.001274382
0.001258749
-2.430486e-10
3.218894e-05
-4.093292e-06
-4.188718e-06
-4.134816e-06
-4.130951e-06
-0.001244995
0.001231447
-3.018455e-10
2.970132e-05
-3.972905e-06
-4.131704e-06
-3.917379e-06
-3.225231e-06
-0.001218045
0.001205639
-3.053094e-10
2.514445e-05
-3.14315e-06
-3.22725e-06
-3.14276e-06
-2.722439e-06
-0.001193952
0.001183238
-2.608617e-10
2.144533e-05
-2.661208e-06
-2.704777e-06
-2.643066e-06
-2.340288e-06
-0.001173224
0.001164209
-1.783972e-10
1.82407e-05
-2.297867e-06
-2.315263e-06
-2.272667e-06
-2.075053e-06
-0.001155865
0.00114847
-8.489815e-11
1.560749e-05
-2.047427e-06
-2.057443e-06
-2.032538e-06
-1.877521e-06
-0.001141663
0.001135706
1.704123e-12
1.341052e-05
-1.853785e-06
-1.872057e-06
-1.850369e-06
-1.702074e-06
-0.001130238
0.0011255
6.710102e-11
1.150704e-05
-1.678669e-06
-1.705278e-06
-1.682795e-06
-1.526321e-06
-0.001121145
0.001117407
1.080597e-10
9.800857e-06
-1.50295e-06
-1.529269e-06
-1.504457e-06
-1.355019e-06
-0.001113992
0.001111126
1.332171e-10
8.225145e-06
-1.328501e-06
-1.351327e-06
-1.32432e-06
-1.195652e-06
-0.001108547
0.001106464
1.433386e-10
6.810972e-06
-1.172798e-06
-1.191465e-06
-1.168366e-06
-1.049306e-06
-0.001104643
0.001103257
1.465648e-10
5.534246e-06
-1.029055e-06
-1.045237e-06
-1.024779e-06
-9.1058e-07
-0.001102111
0.001101353
1.43873e-10
4.355661e-06
-8.920165e-07
-9.066189e-07
-8.881794e-07
-7.796926e-07
-0.001100814
0.001100616
1.327334e-10
3.277279e-06
-7.629072e-07
-7.765686e-07
-7.598756e-07
-6.597534e-07
-0.001100613
0.001100904
1.067024e-10
2.313686e-06
-6.448766e-07
-6.575249e-07
-6.42758e-07
-5.512044e-07
-0.001101365
0.001102084
6.139238e-11
1.457032e-06
-5.378645e-07
-5.498193e-07
-5.366025e-07
-4.506438e-07
-0.001102957
0.001104062
2.001226e-14
6.725497e-07
-4.389236e-07
-4.498645e-07
-4.381887e-07
-3.525846e-07
-0.001105312
0.001106788
-6.62199e-11
-9.02485e-08
-3.409263e-07
-3.521313e-07
-3.404756e-07
-2.526922e-07
-0.001108428
0.001110314
-1.196311e-10
-8.98877e-07
-2.410017e-07
-2.524161e-07
-2.407399e-07
-1.538455e-07
-0.001112363
0.001114678
-1.52084e-10
-1.721531e-06
-1.430991e-07
-1.53682e-07
-1.429431e-07
-5.639717e-08
-0.001117167
0.00111993
-1.61276e-10
-2.557674e-06
-4.651152e-08
-5.626814e-08
-4.640525e-08
3.611243e-08
-0.001122856
0.001126103
-1.516097e-10
-3.410918e-06
4.569152e-08
3.617877e-08
4.571485e-08
1.275491e-07
-0.001129537
0.001133312
-1.287114e-10
-4.305349e-06
1.376348e-07
1.275179e-07
1.376119e-07
2.250141e-07
-0.001137285
0.001141652
-1.012041e-10
-5.288944e-06
2.360876e-07
2.249708e-07
2.360587e-07
3.345078e-07
-0.00114624
0.001151289
-7.447405e-11
-6.411461e-06
3.470932e-07
3.344378e-07
3.471442e-07
4.595736e-07
0.001162417
-5.147185e-11
-7.694747e-06
-0.00115659
4.742561e-07
4.595665e-07
4.740917e-07
5.996539e-07
-0.001168528
0.001175223
-3.32982e-11
-9.124682e-06
6.157651e-07
5.994419e-07
6.154649e-07
7.495773e-07
-0.001182225
0.001189846
-1.936437e-11
-1.065337e-05
7.6673e-07
7.492084e-07
7.665273e-07
9.016371e-07
-0.001197788
0.001206356
-9.818009e-12
-1.220788e-05
9.188385e-07
9.012474e-07
9.184088e-07
1.045868e-06
-0.001215239
0.001224726
-4.012572e-12
-1.370107e-05
1.061442e-06
1.045636e-06
1.061241e-06
1.171465e-06
-0.001234511
0.001244859
2.116049e-12
-1.505912e-05
1.184297e-06
1.171259e-06
1.184084e-06
1.272132e-06
-0.001255483
0.001266615
3.827033e-12
-1.623905e-05
1.281889e-06
1.2718e-06
1.281523e-06
1.343799e-06
-0.001277998
0.001289822
4.722799e-12
-1.721179e-05
1.350397e-06
1.343481e-06
1.350104e-06
1.383135e-06
-0.001301867
0.001314275
6.410676e-12
-1.794516e-05
1.385932e-06
1.382822e-06
1.385652e-06
1.382534e-06
-0.001326866
0.001339713
5.542839e-12
-1.837314e-05
1.380777e-06
1.382215e-06
1.380468e-06
1.334325e-06
-0.001352687
0.001365778
4.043692e-12
-1.841348e-05
1.326914e-06
1.334014e-06
1.32661e-06
1.232199e-06
-0.001378918
0.001392007
2.121346e-12
-1.798918e-05
1.218581e-06
1.231948e-06
1.2183e-06
1.075722e-06
-0.001405043
0.00141785
5.298306e-13
-1.70702e-05
1.055941e-06
1.075489e-06
1.055689e-06
8.715394e-07
-0.001430501
0.001442768
-1.067641e-12
-1.570266e-05
8.46682e-07
8.712481e-07
8.464895e-07
6.329302e-07
-0.001454786
0.001466305
-2.519241e-12
-1.399413e-05
6.049713e-07
6.327323e-07
6.049221e-07
3.804415e-07
-0.001477513
0.001488185
-3.825154e-12
-1.213658e-05
3.517329e-07
3.80334e-07
3.518551e-07
1.430761e-07
-0.001498548
0.00150844
-4.651224e-12
-1.041287e-05
1.169248e-07
1.432155e-07
1.168921e-07
-6.955472e-08
-0.001518064
0.001527367
-5.006073e-12
-8.971305e-06
-9.610465e-08
-6.948744e-08
-9.634611e-08
-2.850993e-07
-0.001536546
0.001545389
-5.349003e-12
-7.662343e-06
-3.047315e-07
-2.855191e-07
-3.048012e-07
-5.562442e-07
-0.001554054
0.001562177
-7.192628e-12
-5.851675e-06
-5.794905e-07
-5.56126e-07
-5.79858e-07
-8.948546e-07
-0.001569879
0.001576709
-5.531572e-12
-3.186827e-06
-9.264563e-07
-8.949766e-07
-9.263766e-07
-1.367462e-06
-0.001582828
0.00158794
-1.711214e-11
4.430315e-07
-1.409307e-06
-1.370135e-06
-1.407819e-06
-1.864175e-06
-0.0015922
0.001595326
-1.046572e-12
4.415334e-06
-1.905603e-06
-1.866615e-06
-1.904981e-06
-2.280996e-06
-0.001597531
0.001598603
-4.002739e-11
8.057963e-06
-2.292901e-06
-2.267887e-06
-2.287695e-06
-2.495857e-06
-0.001598963
0.001598101
-2.686391e-12
1.006912e-05
-2.106118e-06
-2.496056e-06
-2.109638e-06
-1.218184e-06
-0.0003983214
0.0003963139
7.177518e-11
3.225577e-06
-2.681165e-06
-0.0003935726
0.0003927906
-1.78753e-10
3.463314e-06
-2.669085e-06
-0.0003903226
0.0003895092
6.336536e-11
3.482358e-06
-2.721487e-06
-0.0003870664
0.0003861919
-1.58206e-10
3.596093e-06
-2.651719e-06
-0.000383713
0.0003830052
-1.024048e-10
3.359663e-06
-2.396607e-06
-0.000381169
0.0003806486
-1.421354e-10
2.917228e-06
-2.309092e-06
-0.0003792936
0.0003789121
-1.254154e-10
2.690746e-06
-2.501749e-06
-0.0003778453
0.0003774761
-9.304472e-11
2.871024e-06
-2.885979e-06
-0.0003762098
0.0003757048
-4.595671e-12
3.390956e-06
-3.513839e-06
-0.000373855
0.000373073
1.378723e-10
4.295668e-06
-4.358741e-06
-0.0003701871
0.0003690019
5.857814e-10
5.543346e-06
-5.388787e-06
-0.0003647042
0.0003629947
1.932719e-09
7.096354e-06
-6.372173e-06
-0.0003570106
0.0003547094
5.847046e-09
8.667521e-06
-6.933379e-06
-0.0003469101
0.0003440232
1.405418e-08
9.806275e-06
-7.117039e-06
-0.000334746
0.0003314895
2.388069e-08
1.034967e-05
-6.983017e-06
-0.0003215832
0.0003182867
1.539497e-09
1.027805e-05
-5.524647e-06
-0.0003086036
0.0003054721
-2.278894e-08
8.678986e-06
-3.464484e-06
-0.0002966447
0.000293968
-1.337093e-08
6.154564e-06
-2.227883e-06
-0.0002867879
0.0002846699
-5.943999e-09
4.351895e-06
-1.808537e-06
-0.0002788681
0.0002770727
-4.698441e-09
3.608624e-06
-1.815711e-06
-0.0002718625
0.0002701527
-3.532146e-09
3.52901e-06
-1.937851e-06
-0.0002650102
0.0002632797
-1.646677e-09
3.67007e-06
-1.937526e-06
-0.0002580649
0.0002563306
-4.192127e-10
3.672219e-06
-1.784122e-06
-0.0002512428
0.0002496132
-2.498907e-10
3.413984e-06
-1.592243e-06
-0.0002450075
0.0002435939
-5.147998e-10
3.006328e-06
-1.442146e-06
-0.0002397425
0.0002386108
-6.776535e-10
2.574515e-06
-1.313036e-06
-0.0002356138
0.0002347564
-6.386358e-10
2.171153e-06
-1.201466e-06
-0.0002325289
0.0002319122
-4.704267e-10
1.818555e-06
-1.11099e-06
-0.0002303625
0.0002299562
-2.454442e-10
1.517514e-06
-1.036734e-06
-0.0002289944
0.0002287673
-3.608016e-12
1.263828e-06
-9.864632e-07
-0.000228297
0.0002282191
2.443969e-10
1.064172e-06
-9.440883e-07
-0.0002281476
0.0002281818
4.771847e-10
9.094112e-07
-9.084622e-07
-0.0002284254
0.0002285597
7.017984e-10
7.734063e-07
-8.63987e-07
-0.0002290676
0.0002292949
8.349431e-10
6.358271e-07
-7.656276e-07
-0.0002301075
0.0002304751
8.382376e-10
3.972136e-07
4.048711e-07
-0.00023173
0.0002317459
7.902187e-10
-4.214782e-07
9.841244e-07
-0.0002321297
0.000232352
5.390037e-10
-1.206957e-06
1.104531e-06
-0.0002329245
0.0002331529
2.750541e-10
-1.333192e-06
1.122828e-06
-0.0002338743
0.0002341231
-5.946622e-11
-1.371583e-06
1.077607e-06
-0.0002348749
0.0002351214
-3.500563e-10
-1.323772e-06
1.011122e-06
-0.0002358416
0.0002360701
-4.889111e-10
-1.239127e-06
9.62071e-07
-0.0002367024
0.0002368918
-6.567258e-10
-1.15089e-06
9.231718e-07
-0.0002374054
0.0002375534
-7.696536e-10
-1.070413e-06
9.134117e-07
-0.0002379377
0.0002380424
-7.16936e-10
-1.017393e-06
9.305948e-07
-0.0002382986
0.0002383606
-5.382205e-10
-9.921018e-07
9.570526e-07
-0.0002384844
0.0002385006
-3.616539e-10
-9.728435e-07
9.81338e-07
-0.0002384879
0.0002384569
-2.495959e-10
-9.500813e-07
9.888724e-07
-0.0002383085
0.000238237
-1.647489e-10
-9.17158e-07
9.879534e-07
-0.000237962
0.0002378473
-9.777443e-11
-8.731673e-07
9.831266e-07
-0.0002374443
0.0002372881
-4.703381e-11
-8.268812e-07
9.809545e-07
-0.0002367663
0.0002365738
-1.317939e-11
-7.884047e-07
9.853546e-07
-0.000235956
0.0002357364
-1.626721e-11
-7.657302e-07
9.978992e-07
-0.0002350526
0.000234813
-6.051953e-11
-7.582749e-07
1.02181e-06
-0.0002341178
0.0002338774
-1.138034e-10
-7.812761e-07
1.054326e-06
-0.0002331714
0.0002329393
-1.50196e-10
-8.220082e-07
1.083457e-06
-0.0002322731
0.000232062
-1.615243e-10
-8.721965e-07
1.105233e-06
-0.0002314671
0.0002312868
-1.513698e-10
-9.248049e-07
1.129388e-06
-0.0002308048
0.0002306724
-1.323407e-10
-9.968022e-07
1.17169e-06
-0.0002303497
0.0002302731
-1.114783e-10
-1.094932e-06
1.233658e-06
-0.0002301141
0.0002300921
-1.01094e-10
-1.211578e-06
1.298946e-06
-0.0002300961
0.0002301258
-9.076859e-11
-1.328617e-06
1.364145e-06
-0.0002302939
0.000230381
-7.091393e-11
-1.451192e-06
1.429872e-06
-0.0002307103
0.0002308504
-4.331355e-11
-1.56994e-06
1.495774e-06
-0.0002313389
0.0002315317
-1.829429e-11
-1.688619e-06
1.560511e-06
-0.0002321744
0.0002324177
3.292098e-12
-1.803745e-06
1.626433e-06
-0.0002332065
0.0002334961
3.265231e-11
-1.916063e-06
1.683933e-06
-0.0002344171
0.000234754
-8.781311e-13
-2.020753e-06
1.734664e-06
-0.0002357871
0.0002361722
1.869056e-10
-2.119937e-06
1.796973e-06
-0.0002373354
0.0002377547
8.781349e-11
-2.216374e-06
1.876506e-06
-0.0002391381
0.0002396086
2.429062e-10
-2.347248e-06
2.280682e-06
-0.0002391528
0.0009809957
-3.381512e-11
-1.092117e-05
6.715277e-07
2.282809e-06
6.485739e-07
-0.0002391569
-0.0002488237
-0.0002488247
1.430016e-06
-0.0009879511
0.0009926739
-2.951901e-12
-1.118729e-05
1.818641e-06
1.412268e-06
1.803517e-06
1.700425e-06
-0.0009968119
0.001000889
-5.679252e-13
-1.106047e-05
1.804416e-06
1.686697e-06
1.791431e-06
1.776706e-06
-0.001005303
0.001009805
2.71835e-13
-1.171418e-05
1.840768e-06
1.764708e-06
1.829189e-06
1.84919e-06
-0.001014413
0.001018963
-2.036645e-12
-1.204861e-05
1.910628e-06
1.838023e-06
1.899928e-06
1.917395e-06
-0.001023535
0.001028036
-2.330506e-12
-1.220012e-05
1.944022e-06
1.90429e-06
1.933316e-06
1.956127e-06
-0.001032524
0.001037002
5.050946e-12
-1.231945e-05
1.974893e-06
1.946142e-06
1.964661e-06
1.975826e-06
-0.001041493
0.001045945
-8.923205e-12
-1.236703e-05
1.991206e-06
1.966599e-06
1.981916e-06
1.996696e-06
-0.001050386
0.001054768
-2.083471e-12
-1.237675e-05
2.009082e-06
1.988538e-06
2.000549e-06
2.008253e-06
-0.001059139
0.001063438
1.192816e-12
-1.233491e-05
2.017073e-06
2.000682e-06
2.009239e-06
2.012148e-06
-0.001067713
0.001071903
-4.733915e-13
-1.223673e-05
2.018381e-06
2.005004e-06
2.011321e-06
2.010336e-06
-0.001076054
0.001080106
-5.400775e-13
-1.208929e-05
2.014898e-06
2.003709e-06
2.008328e-06
2.001788e-06
-0.001084109
0.001088003
-1.235472e-12
-1.189385e-05
2.004556e-06
1.995478e-06
1.998176e-06
1.98609e-06
-0.00109184
0.001095553
-1.525176e-12
-1.164745e-05
1.987209e-06
1.979761e-06
1.980856e-06
1.964198e-06
-0.001099203
0.001102716
-1.67892e-12
-1.135874e-05
1.964101e-06
1.958282e-06
1.958391e-06
1.935617e-06
-0.001106159
0.001109453
-1.53071e-12
-1.102353e-05
1.933965e-06
1.93064e-06
1.929195e-06
1.8985e-06
-0.001112668
0.001115719
-1.400092e-12
-1.063054e-05
1.89554e-06
1.894218e-06
1.891286e-06
1.852225e-06
-0.001118678
0.001121454
-9.98619e-13
-1.016918e-05
1.847929e-06
1.848352e-06
1.844191e-06
1.797117e-06
-0.001124125
0.001126599
-1.380326e-12
-9.643253e-06
1.790951e-06
1.793823e-06
1.78777e-06
1.73345e-06
-0.001128958
0.001131113
-2.511075e-12
-9.070708e-06
1.727319e-06
1.73062e-06
1.724403e-06
1.664414e-06
-0.001133152
0.001134984
-3.526015e-12
-8.46939e-06
1.656952e-06
1.661787e-06
1.654362e-06
1.590193e-06
-0.0011367
0.001138214
-3.648977e-12
-7.854832e-06
1.582153e-06
1.587833e-06
1.57982e-06
1.511205e-06
-0.001139611
0.001140812
-2.222438e-12
-7.224937e-06
1.502813e-06
1.509066e-06
1.500696e-06
1.428778e-06
-0.001141896
0.001142781
-1.806073e-12
-6.574693e-06
1.417959e-06
1.426769e-06
1.416047e-06
1.344737e-06
-0.001143556
0.001144142
-9.512794e-13
-5.937271e-06
1.332876e-06
1.342783e-06
1.330849e-06
1.258944e-06
-0.001144615
0.001144874
-7.025236e-13
-5.268196e-06
1.247485e-06
1.257129e-06
1.245622e-06
1.169567e-06
-0.001145014
0.001145008
1.749429e-13
-4.643728e-06
1.156873e-06
1.167985e-06
1.155295e-06
1.094126e-06
-0.001144889
0.001144614
1.227499e-12
-4.084371e-06
1.086772e-06
1.092618e-06
1.085292e-06
1.038788e-06
-0.001144222
0.001143692
-1.162619e-12
-3.611393e-06
1.033422e-06
1.037406e-06
1.032071e-06
1.001341e-06
-0.001143059
0.001142319
-5.46446e-13
-3.256676e-06
9.981061e-07
1.000073e-06
9.968699e-07
9.853585e-07
-0.001141498
0.001140612
-3.895615e-13
-3.051947e-06
9.850479e-07
9.84201e-07
9.83939e-07
9.937804e-07
-0.001139673
0.001138717
1.081925e-11
-3.022551e-06
9.968559e-07
9.927348e-07
9.957681e-07
1.025033e-06
-0.001137742
0.001136802
1.141278e-11
-3.168527e-06
1.030241e-06
1.023992e-06
1.029346e-06
1.069997e-06
-0.001135885
0.001135061
4.876776e-12
-3.467622e-06
1.077428e-06
1.068413e-06
1.075707e-06
1.138857e-06
-0.001134287
0.001133601
3.138011e-12
-3.899842e-06
1.154425e-06
1.138855e-06
1.153957e-06
1.222601e-06
-0.001132973
0.001132483
2.584182e-12
-4.421805e-06
1.233938e-06
1.221789e-06
1.233135e-06
1.300544e-06
-0.001132077
0.001131823
4.815133e-12
-4.968739e-06
1.311716e-06
1.299753e-06
1.310945e-06
1.3753e-06
-0.001131657
0.001131643
6.766731e-12
-5.507501e-06
1.385968e-06
1.374568e-06
1.385267e-06
1.443937e-06
-0.001131715
0.001131931
8.062532e-12
-6.010418e-06
1.453877e-06
1.443277e-06
1.453256e-06
1.50559e-06
-0.001132225
0.001132649
8.97347e-12
-6.46434e-06
1.514961e-06
1.504945e-06
1.514386e-06
1.56135e-06
-0.001133141
0.001133749
9.677159e-12
-6.869974e-06
1.570675e-06
1.56067e-06
1.569986e-06
1.613489e-06
-0.001134412
0.001135178
1.016954e-11
-7.238486e-06
1.62354e-06
1.612768e-06
1.62279e-06
1.664247e-06
-0.001135989
0.001136893
1.04555e-11
-7.581892e-06
1.67549e-06
1.663529e-06
1.674818e-06
1.710295e-06
-0.001137828
0.001138858
1.068382e-11
-7.891282e-06
1.721008e-06
1.70963e-06
1.720395e-06
1.723867e-06
-0.001139927
0.001141167
1.0888e-11
-8.131572e-06
1.72213e-06
1.723201e-06
1.721517e-06
1.664801e-06
-0.001142569
0.001144276
1.089578e-11
-8.297015e-06
1.630802e-06
1.664098e-06
1.63009e-06
1.589469e-06
-0.00114614
0.001148194
1.086147e-11
-8.399444e-06
1.583691e-06
1.588823e-06
1.583075e-06
1.655156e-06
-0.001150313
0.00115261
1.027514e-11
-8.956108e-06
1.674906e-06
1.654523e-06
1.67432e-06
1.750593e-06
-0.001154997
0.001157586
8.872263e-12
-9.624728e-06
1.768107e-06
1.749926e-06
1.767441e-06
1.82594e-06
-0.001160254
0.001163114
7.336327e-12
-1.019627e-05
1.843171e-06
1.825267e-06
1.842433e-06
1.887496e-06
-0.00116602
0.001169074
3.350822e-12
-1.06487e-05
1.910919e-06
1.886956e-06
1.909967e-06
1.922518e-06
-0.001172104
0.001175295
-1.337277e-11
-1.094316e-05
1.954676e-06
1.922307e-06
1.952826e-06
1.891959e-06
-0.001178545
0.001181912
1.791299e-11
-1.098681e-05
1.92157e-06
1.8908e-06
1.915444e-06
1.657822e-06
-0.001184931
0.00118932
1.627654e-11
-1.102967e-05
1.661042e-06
1.65792e-06
1.663863e-06
1.929031e-06
-0.00119433
0.001196468
1.765119e-11
-9.841168e-06
1.915706e-06
1.937758e-06
1.920842e-06
1.766315e-06
-0.001198588
0.00120148
1.352329e-11
-9.63208e-06
1.596839e-06
1.772743e-06
1.604675e-06
1.63222e-06
-0.001204566
0.001207565
1.211334e-11
-9.417274e-06
1.569022e-06
1.64052e-06
1.575647e-06
1.558892e-06
-0.001210433
0.001213261
9.20289e-12
-8.984625e-06
1.512407e-06
1.56574e-06
1.519458e-06
1.498128e-06
-0.001216021
0.001218754
9.48021e-12
-8.672564e-06
1.465812e-06
1.504194e-06
1.471306e-06
1.449895e-06
-0.001221437
0.001224065
9.318173e-12
-8.391001e-06
1.427559e-06
1.454007e-06
1.431496e-06
1.402279e-06
-0.001226647
0.001229161
9.463905e-12
-8.096972e-06
1.384996e-06
1.406747e-06
1.38957e-06
1.34572e-06
-0.00123163
0.001234006
9.217809e-12
-7.735426e-06
1.329515e-06
1.35039e-06
1.334055e-06
1.273009e-06
-0.001236326
0.001238509
8.705936e-12
-7.250745e-06
1.256989e-06
1.276949e-06
1.260823e-06
1.185578e-06
-0.001240608
0.001242519
8.435032e-12
-6.62757e-06
1.169613e-06
1.188967e-06
1.172979e-06
1.090911e-06
-0.001244313
0.001245879
8.050939e-12
-5.905742e-06
1.076141e-06
1.094e-06
1.079237e-06
1.002482e-06
-0.001247303
0.001248481
7.13687e-12
-5.170352e-06
9.91012e-07
1.005423e-06
9.938766e-07
9.329655e-07
-0.001249512
0.001250318
6.143311e-12
-4.529558e-06
9.261535e-07
9.357123e-07
9.287892e-07
8.929573e-07
-0.001250989
0.001251483
5.549575e-12
-4.067184e-06
8.912067e-07
8.953734e-07
8.935919e-07
8.840432e-07
-0.001251882
0.001252175
5.473236e-12
-3.838953e-06
8.870702e-07
8.862193e-07
8.89222e-07
8.969093e-07
-0.001252419
0.001252621
5.794282e-12
-3.801854e-06