/*--------------------------------*- C++ -*----------------------------------*\
| =========                 |                                                 |
| \\      /  F ield         | foam-extend: Open Source CFD                    |
|  \\    /   O peration     | Version:     3.1                                |
|   \\  /    A nd           | Web:         http://www.extend-project.de       |
|    \\/     M anipulation  |                                                 |
\*---------------------------------------------------------------------------*/
FoamFile
{
    version     2.0;
    format      ascii;
    class       volScalarField;
    location    "2";
    object      p;
}
// * * * * * * * * * * * * * * * * * * * * * * * * * * * * * * * * * * * * * //

dimensions      [1 -1 -2 0 0 0 0];

internalField   nonuniform List<scalar> 
119952
(
8027.825
7852.786
7810.475
7825.886
7846.277
7815.071
7798.714
7784.361
7771.047
7758.259
7745.777
7733.444
7721.158
7708.895
7696.551
7684.039
7671.229
7657.728
7642.249
7617.971
7653.923
7611.923
7589.089
7636.243
7611.357
7605.513
7595.421
7597.798
7639.172
7277.844
7843.5
7834.995
7830.779
7826.934
7822.968
7819.167
7815.185
7811.732
7808.419
7800.18
7779.254
7773.379
7766.422
7759.478
7752.536
7745.732
7738.918
7731.915
7725.175
7692.083
7681.766
7673.67
7666.8
7659.892
7653.182
7646.633
7639.992
7633.528
7627.51
7619.401
7612.895
7606.667
7600.228
7593.83
7587.446
7581.075
7575.426
7575.365
7586.641
7561.727
7550.818
7550.317
7545.078
7533.258
7520.229
7507.814
7495.739
7483.897
7472.226
7460.635
7449.07
7437.482
7425.796
7413.957
7401.873
7389.423
7376.625
7364.094
7354.945
7344.074
7331.352
7330.013
7331.48
7322.021
7313.63
7304.873
7287.744
7245.279
7229.019
7220.076
7209.427
7198.675
7187.459
7176.015
7164.426
7152.752
7141.036
7129.309
7117.598
7105.924
7094.305
7082.757
7071.294
7059.929
7048.674
7037.541
7026.54
7015.682
7004.974
6994.427
6984.047
6973.843
6963.821
6953.987
6944.348
6934.91
6925.677
6916.654
6907.844
6899.252
6890.881
6882.733
6874.81
6867.114
6859.647
6852.409
6845.4
6838.621
6832.071
6825.748
6819.651
6813.776
6808.12
6802.672
6797.418
6792.346
6787.632
6783.35
6779.111
6775.103
6771.241
6767.588
6764.141
6760.887
6757.821
6754.941
6752.245
6749.729
6747.39
6745.223
6743.225
6741.392
6739.718
6738.201
6736.839
6735.616
6734.528
6733.597
6732.796
6732.121
6731.571
6731.142
6730.83
6730.63
6730.539
6730.552
6730.666
6730.877
6731.18
6731.572
6732.048
6732.605
6733.24
6733.948
6734.729
6735.577
6736.489
6737.461
6738.488
6739.568
6740.695
6741.864
6743.07
6744.299
6745.525
6746.734
6748.342
6781.502
6782.048
6783.653
6785.264
6786.877
6788.499
6790.133
6791.78
6793.442
6795.116
6796.803
6798.5
6800.208
6801.924
6803.646
6805.373
6807.103
6808.835
6810.566
6812.293
6813.991
6815.718
6817.406
6819.105
6820.783
6822.435
6824.057
6825.641
6827.177
6828.646
6830.021
6831.268
6832.34
6832.915
6832.592
6831.183
6835.864
6839.401
6842.507
6845.303
6847.935
6850.45
6852.879
6855.239
6857.543
6859.797
6862.009
6864.183
6866.324
6868.434
6870.515
6872.57
6874.6
6876.606
6878.588
6880.548
6882.487
6884.404
6886.301
6888.177
6890.034
6891.871
6893.689
6895.489
6897.271
6899.037
6900.788
6902.534
6904.229
6905.901
6882.593
6880.852
6880.47
6881.919
6883.198
6884.592
6886.032
6887.445
6888.878
6890.303
6891.706
6893.088
6894.447
6895.782
6897.093
6898.381
6899.645
6900.886
6902.102
6903.295
6904.465
6905.61
6906.732
6907.83
6908.905
6909.956
6910.984
6911.988
6912.969
6913.926
6914.862
6915.774
6916.665
6917.534
6918.383
6919.211
6920.022
6920.815
6921.594
6922.362
6923.126
6923.895
6924.687
6925.533
6926.444
6927.227
6927.52
6927.627
6927.847
6928.084
6928.333
6928.594
6928.86
6928.985
6927.436
6928.424
6928.925
6929.036
6929.127
6929.2
6929.266
6929.308
6929.339
6929.352
6929.343
6929.314
6929.263
6929.191
6929.097
6928.983
6928.848
6928.693
6928.518
6928.324
6928.111
6927.879
6927.628
6927.36
6927.074
6926.77
6926.45
6926.113
6925.759
6925.389
6925.003
6924.602
6924.185
6923.754
6923.308
6922.847
6922.373
6921.884
6921.382
6920.867
6920.338
6919.797
6919.243
6918.676
6918.097
6917.505
6916.901
6916.285
6915.658
6915.018
6914.365
6913.701
6913.024
6912.334
6911.632
6910.916
6910.187
6909.444
6908.685
6907.911
6907.121
6906.313
6905.485
6904.637
6903.767
6902.871
6901.948
6900.994
6900.005
6898.976
6897.9
6896.77
6895.574
6894.299
6892.927
6891.43
6889.774
6887.9
6885.71
6883.045
6879.632
6875.091
6869.801
6870.059
6894.047
7846.815
7845.221
7842.047
7838.624
7836.032
7832.907
7829.98
7827.398
7824.348
7799.967
7796.683
7790.87
7784.407
7778.033
7771.716
7765.401
7759.012
7752.23
7716.901
7711.184
7701.465
7693.757
7686.575
7679.382
7672.288
7665.204
7658.073
7651.235
7643.356
7634.809
7627.961
7620.784
7613.462
7606.234
7599.061
7591.84
7584.915
7578.387
7568.64
7561.345
7554.706
7547.736
7540.754
7533.799
7526.759
7519.808
7512.527
7505.383
7498.534
7491.452
7484.305
7477.247
7470.304
7463.414
7456.612
7449.921
7380.004
7373.326
7366.341
7359.419
7352.636
7345.953
7339.319
7332.722
7326.124
7319.544
7313.071
7306.446
7299.823
7293.332
7287.013
7280.937
7275.318
7270.486
7266.448
7261.939
7253.521
7244.207
7236.798
7229.142
7219.584
7208.432
7196.913
7185.486
7174.131
7162.789
7151.437
7140.057
7128.625
7117.11
7105.49
7093.761
7081.979
7070.309
7059.083
7048.639
7038.851
7029.857
7022.66
7016.111
7007.32
6996.252
6982.628
6966.013
6945.657
6928.164
6915.108
6903.321
6891.611
6879.831
6868.031
6856.22
6844.398
6832.576
6820.772
6809.003
6797.286
6785.634
6774.062
6762.582
6751.205
6739.944
6728.808
6717.809
6706.955
6696.256
6685.719
6675.353
6665.164
6655.16
6645.347
6635.73
6626.316
6617.109
6608.113
6599.332
6590.771
6582.43
6574.315
6566.425
6558.763
6551.331
6544.129
6537.156
6530.414
6523.902
6517.618
6511.561
6505.728
6500.118
6494.729
6489.565
6484.642
6479.981
6475.609
6471.386
6467.36
6463.545
6459.934
6456.521
6453.302
6450.273
6447.43
6444.772
6442.293
6439.99
6437.859
6435.896
6434.097
6432.458
6430.973
6429.638
6428.449
6427.404
6426.497
6425.723
6425.077
6424.556
6424.156
6423.871
6423.699
6423.634
6423.673
6423.812
6424.047
6424.374
6424.789
6425.288
6425.866
6426.521
6427.249
6428.051
6428.92
6429.852
6430.843
6431.89
6432.988
6434.134
6435.324
6436.555
6437.822
6439.135
6440.494
6441.977
6504.754
6506.009
6507.573
6509.149
6510.744
6512.356
6513.986
6515.634
6517.299
6518.978
6520.669
6522.372
6524.085
6525.805
6527.531
6529.262
6530.994
6532.728
6534.459
6536.186
6537.907
6539.623
6541.329
6543.02
6544.692
6546.341
6547.96
6549.542
6551.076
6552.547
6553.935
6555.208
6556.319
6557.213
6557.985
6559.144
6561.611
6564.515
6567.274
6569.923
6572.465
6574.92
6577.304
6579.628
6581.902
6584.132
6586.323
6588.48
6590.606
6592.704
6594.774
6596.819
6598.84
6600.839
6602.814
6604.769
6606.702
6608.614
6610.506
6612.378
6614.231
6616.064
6617.879
6619.675
6621.453
6623.216
6624.966
6626.709
6628.465
6630.332
6571.344
6573.091
6574.213
6575.366
6576.738
6578.201
6579.663
6581.107
6582.535
6583.948
6585.342
6586.716
6588.067
6589.396
6590.701
6591.983
6593.242
6594.477
6595.688
6596.875
6598.039
6599.179
6600.295
6601.388
6602.458
6603.504
6604.526
6605.525
6606.501
6607.454
6608.384
6609.292
6610.178
6611.042
6611.886
6612.709
6613.514
6614.302
6615.074
6615.833
6616.584
6617.329
6618.071
6618.8
6619.484
6620.06
6620.467
6620.767
6621.049
6621.331
6621.609
6621.885
6622.164
6622.402
6622.384
6622.331
6622.42
6622.516
6622.578
6622.625
6622.668
6622.702
6622.721
6622.724
6622.707
6622.671
6622.613
6622.534
6622.434
6622.313
6622.172
6622.011
6621.83
6621.63
6621.411
6621.173
6620.917
6620.643
6620.352
6620.043
6619.717
6619.375
6619.017
6618.642
6618.252
6617.846
6617.425
6616.99
6616.54
6616.076
6615.597
6615.106
6614.6
6614.082
6613.55
6613.005
6612.448
6611.879
6611.297
6610.703
6610.097
6609.478
6608.848
6608.206
6607.551
6606.885
6606.206
6605.514
6604.81
6604.092
6603.361
6602.615
6601.854
6601.078
6600.285
6599.474
6598.644
6597.793
6596.92
6596.021
6595.095
6594.138
6593.145
6592.113
6591.034
6589.902
6588.708
6587.439
6586.08
6584.611
6583.008
6581.238
6579.268
6577.08
6574.781
6572.677
6571.798
6572.501
6575.669
7976.267
8034.123
8071.247
8093.024
8101.956
8100.619
8091.195
8075.625
8055.453
8030.934
7985.555
7959.675
7932.322
7906.49
7881.986
7859.042
7837.734
7818.072
7801.527
7753.683
7737.575
7722.419
7709.719
7698.336
7687.92
7678.363
7669.473
7661.249
7654.585
7644.635
7637.563
7630.743
7623.843
7617.128
7610.568
7604.05
7597.712
7592.03
7584.393
7576.493
7570.669
7564.509
7558.328
7552.105
7545.872
7539.68
7533.568
7526.966
7520.53
7514.294
7507.79
7501.269
7494.81
7488.38
7482.001
7475.845
7405.355
7398.531
7391.967
7385.125
7378.069
7370.996
7363.96
7356.91
7349.798
7342.624
7335.537
7328.317
7320.898
7313.481
7306.161
7298.916
7291.712
7284.533
7277.35
7270.183
7262.878
7255.369
7248.004
7240.81
7233.685
7226.58
7219.484
7212.384
7205.299
7198.227
7191.092
7183.982
7176.935
7169.941
7162.996
7156.104
7149.242
7142.499
7135.953
7129.004
7121.901
7115.008
7108.296
7101.661
7095.056
7088.462
7081.896
7075.337
7068.757
7062.17
7055.649
7049.23
7042.938
7036.818
7030.905
7025.234
7019.67
7014.04
7006.509
6997.899
6989.787
6981.497
6972.044
6961.6
6950.74
6939.795
6928.807
6917.759
6906.651
6895.483
6884.251
6872.948
6861.579
6850.169
6838.782
6827.529
6816.567
6806.106
6796.146
6786.537
6777.626
6768.884
6758.887
6747.157
6733.851
6718.644
6701.904
6686.346
6673.019
6660.593
6648.438
6636.358
6624.333
6612.352
6600.399
6588.473
6576.584
6564.743
6552.961
6541.251
6529.625
6518.094
6506.669
6495.361
6484.181
6473.139
6462.243
6451.502
6440.925
6430.52
6420.293
6410.252
6400.403
6390.751
6381.303
6372.062
6363.034
6354.222
6345.629
6337.26
6329.115
6321.198
6313.509
6306.051
6298.824
6291.828
6285.063
6278.53
6272.226
6266.152
6260.306
6254.687
6249.296
6244.135
6239.21
6234.524
6230.085
6225.85
6221.816
6217.987
6214.36
6210.931
6207.697
6204.654
6201.799
6199.129
6196.639
6194.326
6192.185
6190.213
6188.406
6186.758
6185.266
6183.924
6182.73
6181.678
6180.766
6179.986
6179.337
6178.812
6178.408
6178.12
6177.945
6177.879
6177.916
6178.053
6178.287
6178.613
6179.028
6179.527
6180.106
6180.759
6181.482
6182.289
6183.161
6184.095
6185.089
6186.139
6187.241
6188.393
6189.592
6190.836
6192.124
6193.461
6194.851
6196.311
6197.923
6199.485
6201.028
6202.597
6204.194
6205.812
6207.448
6209.102
6210.772
6212.456
6214.153
6215.862
6217.58
6219.305
6221.036
6222.771
6224.509
6226.246
6227.982
6229.714
6231.441
6233.16
6234.868
6236.563
6238.24
6239.894
6241.523
6243.119
6244.674
6246.175
6247.619
6249.001
6250.327
6251.644
6253.079
6254.794
6256.936
6259.361
6261.844
6264.297
6266.704
6269.064
6271.379
6273.652
6275.886
6278.085
6280.252
6282.388
6284.497
6286.58
6288.638
6290.672
6292.683
6294.673
6296.641
6298.588
6300.514
6302.42
6304.306
6306.173
6308.02
6309.847
6311.656
6313.446
6315.218
6316.973
6318.711
6320.436
6322.141
6323.842
6325.378
6326.684
6328.081
6329.609
6331.172
6332.712
6334.214
6335.685
6337.131
6338.556
6339.959
6341.338
6342.694
6344.026
6345.334
6346.618
6347.878
6349.115
6350.327
6351.516
6352.681
6353.822
6354.939
6356.032
6357.102
6358.148
6359.17
6360.17
6361.145
6362.098
6363.028
6363.935
6364.82
6365.684
6366.526
6367.348
6368.149
6368.933
6369.698
6370.447
6371.181
6371.898
6372.595
6373.262
6373.88
6374.424
6374.865
6375.221
6375.54
6375.844
6376.134
6376.407
6376.649
6376.868
6377.076
6377.176
6377.217
6377.245
6377.274
6377.305
6377.336
6377.362
6377.376
6377.375
6377.357
6377.32
6377.262
6377.184
6377.085
6376.965
6376.825
6376.665
6376.485
6376.286
6376.067
6375.83
6375.575
6375.301
6375.01
6374.701
6374.376
6374.033
6373.675
6373.3
6372.91
6372.504
6372.084
6371.648
6371.198
6370.734
6370.256
6369.764
6369.259
6368.741
6368.21
6367.666
6367.109
6366.54
6365.959
6365.365
6364.76
6364.143
6363.513
6362.872
6362.219
6361.553
6360.876
6360.186
6359.483
6358.767
6358.037
6357.294
6356.535
6355.762
6354.971
6354.164
6353.337
6352.49
6351.621
6350.728
6349.808
6348.859
6347.876
6346.855
6345.792
6344.681
6343.514
6342.283
6340.978
6339.589
6338.107
6336.526
6334.858
6333.147
6331.518
6330.165
6329.414
6329.619
6330.625
6182.809
6325.532
6464.235
6609.999
6762.918
6896.268
7040.673
7176.835
7303.136
7413.652
7513.945
7600.998
7668.896
7719.555
7753.281
7772.619
7779.664
7776.786
7766.524
7750.419
7730.381
7708.193
7684.586
7660.394
7636.153
7612.611
7590.186
7569.133
7549.615
7531.822
7516.496
7432.873
7419.741
7407.977
7396.697
7386.191
7376.575
7367.715
7359.447
7351.625
7344.163
7337.015
7329.856
7322.835
7316.041
7309.417
7302.909
7296.472
7290.087
7283.714
7277.304
7270.517
7263.82
7257.306
7250.885
7244.501
7238.135
7231.774
7225.398
7219.021
7212.563
7206.048
7199.551
7193.076
7186.605
7180.125
7173.598
7167.02
7160.237
7153.504
7146.647
7139.642
7132.649
7125.705
7118.781
7111.832
7104.84
7097.817
7090.723
7083.504
7076.249
7069.02
7061.818
7054.631
7047.452
7040.272
7033.089
7025.891
7018.576
7011.201
7003.929
6996.763
6989.635
6982.515
6975.401
6968.3
6961.193
6954.087
6947
6939.937
6932.902
6925.903
6918.947
6912.038
6905.178
6898.369
6891.54
6884.564
6877.596
6870.755
6864.018
6857.333
6850.676
6844.041
6837.43
6830.826
6824.231
6817.664
6811.14
6804.675
6798.283
6791.977
6785.749
6779.583
6773.342
6766.829
6759.345
6751.108
6742.737
6734.194
6724.918
6714.948
6704.578
6694.016
6683.331
6672.537
6661.649
6650.678
6639.633
6628.519
6617.353
6606.166
6595.007
6583.951
6573.089
6562.518
6552.227
6542.129
6532.231
6522.204
6511.353
6499.358
6486.247
6472.007
6457.135
6442.907
6429.609
6416.884
6404.449
6392.158
6379.962
6367.836
6355.763
6343.738
6331.764
6319.848
6307.999
6296.228
6284.544
6272.96
6261.484
6250.129
6238.903
6227.817
6216.879
6206.098
6195.483
6185.041
6174.779
6164.705
6154.824
6145.143
6135.667
6126.4
6117.347
6108.513
6099.899
6091.51
6083.347
6075.414
6067.711
6060.239
6053.001
6045.995
6039.222
6032.682
6026.374
6020.297
6014.451
6008.835
6003.45
5998.295
5993.373
5988.684
5984.227
5979.985
5975.949
5972.118
5968.491
5965.063
5961.831
5958.791
5955.94
5953.274
5950.788
5948.48
5946.344
5944.377
5942.574
5940.932
5939.445
5938.11
5936.921
5935.876
5934.969
5934.196
5933.553
5933.034
5932.637
5932.356
5932.188
5932.129
5932.173
5932.317
5932.558
5932.891
5933.312
5933.818
5934.403
5935.059
5935.764
5936.599
5937.486
5938.431
5939.434
5940.494
5941.606
5942.77
5943.982
5945.242
5946.548
5947.901
5949.304
5950.757
5952.258
5953.772
5955.318
5956.896
5958.498
5960.119
5961.758
5963.414
5965.086
5966.772
5968.472
5970.182
5971.903
5973.631
5975.365
5977.105
5978.846
5980.589
5982.33
5984.068
5985.801
5987.527
5989.243
5990.947
5992.635
5994.304
5995.95
5997.569
5999.16
6000.726
6002.26
6003.766
6005.268
6006.806
6008.448
6010.273
6012.35
6014.617
6016.953
6019.29
6021.608
6023.901
6026.166
6028.401
6030.607
6032.783
6034.933
6037.056
6039.154
6041.229
6043.281
6045.31
6047.317
6049.304
6051.27
6053.215
6055.14
6057.046
6058.931
6060.797
6062.643
6064.47
6066.278
6068.066
6069.835
6071.585
6073.315
6075.022
6076.696
6078.335
6079.899
6081.397
6082.912
6084.437
6085.954
6087.455
6088.937
6090.399
6091.841
6093.263
6094.664
6096.042
6097.398
6098.73
6100.039
6101.325
6102.586
6103.824
6105.039
6106.229
6107.395
6108.538
6109.656
6110.751
6111.822
6112.869
6113.892
6114.892
6115.868
6116.821
6117.751
6118.658
6119.543
6120.405
6121.245
6122.065
6122.863
6123.64
6124.398
6125.135
6125.852
6126.546
6127.212
6127.843
6128.428
6128.952
6129.404
6129.792
6130.14
6130.462
6130.761
6131.036
6131.283
6131.51
6131.706
6131.821
6131.886
6131.94
6131.993
6132.04
6132.079
6132.107
6132.121
6132.118
6132.098
6132.059
6132
6131.921
6131.821
6131.702
6131.561
6131.401
6131.222
6131.022
6130.804
6130.567
6130.312
6130.038
6129.747
6129.439
6129.113
6128.771
6128.412
6128.038
6127.647
6127.241
6126.82
6126.385
6125.935
6125.47
6124.992
6124.5
6123.995
6123.477
6122.946
6122.402
6121.845
6121.277
6120.696
6120.103
6119.498
6118.881
6118.252
6117.612
6116.96
6116.296
6115.619
6114.931
6114.23
6113.516
6112.789
6112.048
6111.293
6110.523
6109.737
6108.934
6108.114
6107.274
6106.413
6105.529
6104.62
6103.684
6102.718
6101.718
6100.681
6099.602
6098.477
6097.301
6096.07
6094.782
6093.437
6092.045
6090.633
6089.248
6087.979
6086.942
6086.287
6086.145
6086.29
5367.421
5380.265
5398.46
5402.067
5424.582
5429.658
5474.57
5531.476
5600.702
5683.941
5783.58
5891.098
6014.2
6148.183
6289.414
6437.131
6561.465
6711.528
6852.778
6981.431
7096.143
7197.21
7283.105
7351.209
7400.306
7431.853
7448.563
7453.178
7448.117
7435.649
7418.203
7397.623
7375.452
7352.325
7329.228
7307.06
7285.707
7265.15
7245.812
7227.895
7211.327
7196.145
7181.969
7169.445
7158.158
7147.638
7137.91
7128.97
7120.685
7112.897
7105.5
7098.403
7091.447
7084.587
7077.882
7071.312
7064.834
7058.413
7052.019
7045.628
7039.231
7032.744
7026.065
7019.42
7012.887
7006.415
6999.959
6993.502
6987.045
6980.587
6974.113
6967.608
6961.09
6954.569
6948.043
6941.507
6934.958
6928.376
6921.768
6915.1
6908.338
6901.477
6894.578
6887.692
6880.81
6873.909
6866.973
6859.996
6852.97
6845.879
6838.738
6831.578
6824.409
6817.233
6810.055
6802.874
6795.688
6788.491
6781.269
6774.006
6766.733
6759.499
6752.313
6745.155
6738.01
6730.876
6723.754
6716.637
6709.536
6702.454
6695.389
6688.345
6681.331
6674.353
6667.412
6660.499
6653.598
6646.698
6639.783
6632.888
6626.051
6619.276
6612.544
6605.845
6599.17
6592.516
6585.878
6579.255
6572.651
6566.07
6559.52
6553.002
6546.512
6540.025
6533.498
6526.813
6519.828
6512.29
6504.229
6495.857
6487.169
6477.992
6468.317
6458.28
6448.009
6437.569
6426.988
6416.288
6405.484
6394.59
6383.621
6372.595
6361.539
6350.492
6339.503
6328.622
6317.891
6307.296
6296.771
6286.232
6275.477
6264.164
6252.09
6239.257
6225.772
6211.918
6198.237
6184.998
6172.156
6159.566
6147.128
6134.794
6122.543
6110.36
6098.238
6086.178
6074.186
6062.269
6050.436
6038.696
6027.059
6015.536
6004.135
5992.867
5981.742
5970.768
5959.953
5949.307
5938.836
5928.548
5918.45
5908.548
5898.848
5889.355
5880.074
5871.009
5862.164
5853.542
5845.147
5836.98
5829.044
5821.341
5813.871
5806.636
5799.635
5792.87
5786.338
5780.041
5773.977
5768.145
5762.546
5757.178
5752.04
5747.134
5742.456
5738.006
5733.772
5729.749
5725.934
5722.323
5718.912
5715.699
5712.678
5709.846
5707.199
5704.733
5702.445
5700.329
5698.382
5696.599
5694.977
5693.51
5692.194
5691.025
5689.999
5689.11
5688.356
5687.731
5687.231
5686.851
5686.588
5686.438
5686.395
5686.456
5686.616
5686.874
5687.224
5687.662
5688.185
5688.79
5689.479
5690.267
5691.066
5691.946
5692.896
5693.908
5694.978
5696.103
5697.279
5698.505
5699.778
5701.098
5702.464
5703.876
5705.331
5706.828
5708.357
5709.915
5711.499
5713.106
5714.734
5716.38
5718.044
5719.724
5721.418
5723.125
5724.843
5726.569
5728.304
5730.044
5731.789
5733.537
5735.286
5737.035
5738.781
5740.522
5742.258
5743.985
5745.701
5747.405
5749.093
5750.765
5752.418
5754.051
5755.667
5757.268
5758.864
5760.474
5762.13
5763.871
5765.743
5767.775
5769.935
5772.16
5774.407
5776.653
5778.89
5781.111
5783.312
5785.491
5787.647
5789.78
5791.891
5793.979
5796.046
5798.091
5800.116
5802.119
5804.103
5806.067
5808.01
5809.934
5811.839
5813.723
5815.589
5817.434
5819.26
5821.066
5822.853
5824.619
5826.364
5828.087
5829.786
5831.455
5833.095
5834.694
5836.252
5837.784
5839.301
5840.807
5842.302
5843.781
5845.242
5846.682
5848.103
5849.502
5850.88
5852.234
5853.566
5854.874
5856.16
5857.422
5858.66
5859.874
5861.065
5862.231
5863.374
5864.493
5865.588
5866.659
5867.706
5868.729
5869.729
5870.705
5871.657
5872.586
5873.492
5874.375
5875.235
5876.072
5876.888
5877.681
5878.452
5879.2
5879.926
5880.628
5881.303
5881.948
5882.558
5883.124
5883.639
5884.099
5884.506
5884.873
5885.208
5885.515
5885.794
5886.044
5886.265
5886.447
5886.581
5886.68
5886.763
5886.833
5886.89
5886.932
5886.961
5886.973
5886.968
5886.945
5886.903
5886.842
5886.76
5886.659
5886.537
5886.395
5886.234
5886.053
5885.852
5885.633
5885.394
5885.138
5884.863
5884.571
5884.261
5883.935
5883.591
5883.231
5882.856
5882.464
5882.057
5881.635
5881.198
5880.747
5880.282
5879.803
5879.31
5878.804
5878.285
5877.753
5877.208
5876.651
5876.082
5875.501
5874.907
5874.302
5873.686
5873.057
5872.417
5871.766
5871.102
5870.427
5869.74
5869.041
5868.33
5867.605
5866.868
5866.117
5865.351
5864.571
5863.774
5862.961
5862.13
5861.28
5860.409
5859.515
5858.597
5857.653
5856.679
5855.675
5854.636
5853.561
5852.449
5851.299
5850.112
5848.897
5847.667
5846.448
5845.28
5844.223
5843.347
5842.725
5842.399
5842.215
5350.152
5322.583
5294.638
5254.321
5229.025
5173.025
5153.178
5136.035
5122.369
5112.495
5106.241
5105.639
5111.187
5123.284
5142.763
5119.211
5162.378
5216.555
5283.856
5362.9
5455.447
5565.128
5688.18
5823.804
5968.7
6118.751
6268.133
6421.155
6564.966
6696.535
6813.807
6915.72
7001.248
7069.035
7118.629
7151.302
7169.447
7175.758
7172.717
7162.529
7147.369
7128.888
7108.256
7086.331
7064.411
7043.393
7023.346
7004.35
6986.628
6970.268
6955.205
6941.475
6929
6917.661
6907.341
6897.834
6889.031
6880.858
6873.213
6865.978
6859.052
6852.336
6845.748
6839.258
6832.849
6826.496
6820.175
6813.864
6807.546
6801.202
6794.814
6788.342
6781.781
6775.211
6768.679
6762.176
6755.678
6749.172
6742.661
6736.145
6729.638
6723.13
6716.596
6710.039
6703.468
6696.884
6690.282
6683.651
6676.987
6670.271
6663.485
6656.647
6649.779
6642.89
6635.977
6629.034
6622.057
6615.043
6607.987
6600.89
6593.76
6586.604
6579.429
6572.241
6565.048
6557.85
6550.643
6543.425
6536.192
6528.944
6521.689
6514.45
6507.236
6500.046
6492.871
6485.709
6478.561
6471.424
6464.304
6457.2
6450.116
6443.056
6436.025
6429.026
6422.061
6415.124
6408.207
6401.309
6394.423
6387.553
6380.721
6373.934
6367.186
6360.469
6353.776
6347.101
6340.441
6333.792
6327.152
6320.521
6313.898
6307.274
6300.635
6293.95
6287.172
6280.225
6273.019
6265.421
6257.405
6249.045
6240.361
6231.296
6221.84
6212.056
6202.024
6191.798
6181.409
6170.878
6160.226
6149.467
6138.619
6127.7
6116.732
6105.745
6094.768
6083.83
6072.945
6062.099
6051.234
6040.272
6029.087
6017.499
6005.389
5992.754
5979.684
5966.343
5953.015
5939.904
5927.042
5914.366
5901.819
5889.373
5877.011
5864.723
5852.505
5840.357
5828.285
5816.293
5804.391
5792.588
5780.892
5769.314
5757.862
5746.548
5735.378
5724.363
5713.511
5702.831
5692.329
5682.012
5671.889
5661.964
5652.244
5642.733
5633.437
5624.36
5615.506
5606.877
5598.477
5590.308
5582.373
5574.672
5567.206
5559.977
5552.985
5546.23
5539.711
5533.428
5527.381
5521.567
5515.987
5510.639
5505.522
5500.635
5495.976
5491.541
5487.324
5483.321
5479.526
5475.937
5472.55
5469.36
5466.363
5463.556
5460.935
5458.495
5456.232
5454.143
5452.222
5450.465
5448.868
5447.427
5446.137
5444.993
5443.992
5443.129
5442.399
5441.798
5441.322
5440.966
5440.726
5440.598
5440.578
5440.661
5440.845
5441.123
5441.493
5441.951
5442.494
5443.119
5443.823
5444.605
5445.442
5446.347
5447.317
5448.348
5449.436
5450.579
5451.774
5453.018
5454.309
5455.646
5457.028
5458.453
5459.92
5461.425
5462.963
5464.53
5466.122
5467.737
5469.374
5471.03
5472.704
5474.393
5476.097
5477.813
5479.54
5481.276
5483.02
5484.77
5486.524
5488.281
5490.04
5491.799
5493.556
5495.309
5497.057
5498.799
5500.532
5502.256
5503.967
5505.667
5507.354
5509.03
5510.696
5512.359
5514.027
5515.717
5517.449
5519.249
5521.142
5523.141
5525.232
5527.382
5529.561
5531.751
5533.941
5536.123
5538.292
5540.446
5542.581
5544.698
5546.795
5548.873
5550.931
5552.97
5554.989
5556.988
5558.968
5560.929
5562.871
5564.793
5566.696
5568.579
5570.443
5572.288
5574.113
5575.917
5577.702
5579.465
5581.207
5582.926
5584.621
5586.289
5587.928
5589.535
5591.105
5592.647
5594.173
5595.686
5597.184
5598.665
5600.126
5601.567
5602.987
5604.386
5605.763
5607.117
5608.449
5609.757
5611.042
5612.304
5613.542
5614.756
5615.947
5617.113
5618.256
5619.374
5620.469
5621.54
5622.587
5623.61
5624.609
5625.584
5626.535
5627.463
5628.367
5629.248
5630.105
5630.939
5631.75
5632.537
5633.301
5634.041
5634.757
5635.446
5636.107
5636.737
5637.332
5637.886
5638.397
5638.86
5639.278
5639.656
5640.001
5640.314
5640.598
5640.851
5641.072
5641.26
5641.411
5641.532
5641.63
5641.709
5641.771
5641.817
5641.846
5641.857
5641.851
5641.826
5641.782
5641.718
5641.634
5641.53
5641.406
5641.262
5641.099
5640.916
5640.714
5640.492
5640.252
5639.994
5639.717
5639.423
5639.112
5638.783
5638.438
5638.077
5637.699
5637.306
5636.897
5636.474
5636.036
5635.583
5635.116
5634.635
5634.141
5633.634
5633.113
5632.58
5632.035
5631.477
5630.907
5630.325
5629.731
5629.126
5628.509
5627.88
5627.241
5626.59
5625.927
5625.253
5624.568
5623.871
5623.162
5622.441
5621.707
5620.96
5620.2
5619.426
5618.637
5617.833
5617.012
5616.174
5615.317
5614.441
5613.543
5612.623
5611.679
5610.709
5609.714
5608.691
5607.643
5606.57
5605.478
5604.376
5603.279
5602.208
5601.196
5600.282
5599.513
5598.92
5598.531
5598.228
5401.849
5319.591
5246.247
5177.525
5120.482
5075.56
5038.107
5006.31
4978.763
4953.11
4866.449
4846.524
4829.09
4814.8
4804.14
4797.687
4796.128
4800.074
4810.379
4828.457
4854.147
4892.19
4940.766
5001.335
5076.727
5166.25
5271.206
5391.714
5528.116
5673.982
5827.066
5980.417
6132.224
6276.165
6407.849
6524.526
6624.826
6708.157
6774.202
6823.195
6856.412
6875.976
6884.382
6883.999
6876.93
6865.066
6849.828
6832.533
6814.176
6795.124
6775.785
6757.203
6740.101
6724.405
6709.994
6696.816
6684.853
6673.979
6664.062
6655.012
6646.69
6638.959
6631.715
6624.872
6618.348
6612.042
6605.868
6599.765
6593.69
6587.619
6581.534
6575.423
6569.275
6563.084
6556.837
6550.522
6544.115
6537.637
6531.118
6524.6
6518.1
6511.592
6505.053
6498.498
6491.926
6485.343
6478.754
6472.158
6465.55
6458.934
6452.306
6445.659
6438.976
6432.25
6425.482
6418.673
6411.821
6404.93
6398.002
6391.041
6384.048
6377.021
6369.96
6362.863
6355.734
6348.574
6341.39
6334.188
6326.975
6319.755
6312.53
6305.297
6298.056
6290.808
6283.553
6276.296
6269.049
6261.82
6254.611
6247.417
6240.239
6233.075
6225.926
6218.795
6211.683
6204.593
6197.528
6190.492
6183.487
6176.515
6169.572
6162.654
6155.76
6148.884
6142.03
6135.208
6128.423
6121.67
6114.944
6108.244
6101.558
6094.883
6088.213
6081.546
6074.874
6068.191
6061.484
6054.734
6047.912
6040.974
6033.863
6026.516
6018.857
6010.855
6002.533
5993.902
5984.943
5975.653
5966.067
5956.233
5946.192
5935.972
5925.594
5915.077
5904.439
5893.694
5882.86
5871.956
5861.002
5850.016
5839.013
5827.996
5816.949
5805.829
5794.577
5783.111
5771.333
5759.175
5746.64
5733.789
5720.735
5707.642
5694.645
5681.787
5669.055
5656.425
5643.884
5631.421
5619.033
5606.719
5594.479
5582.319
5570.246
5558.266
5546.39
5534.626
5522.984
5511.472
5500.101
5488.879
5477.815
5466.917
5456.195
5445.654
5435.303
5425.147
5415.194
5405.448
5395.916
5386.601
5377.508
5368.641
5360.002
5351.595
5343.422
5335.485
5327.785
5320.323
5313.1
5306.116
5299.371
5292.865
5286.596
5280.565
5274.77
5269.21
5263.883
5258.787
5253.922
5249.283
5244.869
5240.674
5236.693
5232.922
5229.358
5225.997
5222.833
5219.865
5217.086
5214.493
5212.082
5209.849
5207.788
5205.897
5204.17
5202.602
5201.191
5199.93
5198.815
5197.843
5197.008
5196.307
5195.734
5195.285
5194.956
5194.743
5194.641
5194.647
5194.756
5194.964
5195.268
5195.662
5196.144
5196.711
5197.358
5198.083
5198.881
5199.744
5200.673
5201.665
5202.717
5203.825
5204.989
5206.203
5207.467
5208.778
5210.133
5211.532
5212.972
5214.452
5215.968
5217.516
5219.093
5220.695
5222.322
5223.97
5225.637
5227.322
5229.023
5230.738
5232.465
5234.203
5235.95
5237.705
5239.465
5241.231
5243
5244.77
5246.541
5248.311
5250.079
5251.842
5253.6
5255.352
5257.097
5258.833
5260.561
5262.282
5263.996
5265.708
5267.422
5269.148
5270.897
5272.683
5274.523
5276.431
5278.414
5280.465
5282.565
5284.695
5286.84
5288.99
5291.139
5293.279
5295.409
5297.525
5299.626
5301.71
5303.777
5305.826
5307.857
5309.871
5311.866
5313.842
5315.8
5317.739
5319.659
5321.561
5323.443
5325.306
5327.149
5328.973
5330.776
5332.559
5334.321
5336.061
5337.778
5339.47
5341.137
5342.777
5344.386
5345.966
5347.521
5349.057
5350.576
5352.077
5353.559
5355.021
5356.462
5357.883
5359.282
5360.658
5362.013
5363.344
5364.653
5365.938
5367.199
5368.438
5369.652
5370.843
5372.009
5373.152
5374.271
5375.365
5376.436
5377.482
5378.505
5379.503
5380.478
5381.428
5382.354
5383.257
5384.135
5384.99
5385.82
5386.627
5387.409
5388.167
5388.899
5389.606
5390.285
5390.935
5391.553
5392.137
5392.684
5393.19
5393.654
5394.078
5394.464
5394.815
5395.134
5395.423
5395.68
5395.906
5396.1
5396.263
5396.397
5396.505
5396.592
5396.66
5396.709
5396.739
5396.751
5396.744
5396.717
5396.671
5396.605
5396.519
5396.413
5396.287
5396.142
5395.976
5395.791
5395.587
5395.363
5395.121
5394.861
5394.582
5394.286
5393.973
5393.642
5393.295
5392.932
5392.552
5392.157
5391.747
5391.321
5390.881
5390.427
5389.958
5389.476
5388.98
5388.471
5387.949
5387.415
5386.868
5386.309
5385.738
5385.155
5384.561
5383.955
5383.338
5382.71
5382.071
5381.42
5380.759
5380.086
5379.403
5378.708
5378.002
5377.284
5376.554
5375.813
5375.059
5374.291
5373.511
5372.716
5371.907
5371.082
5370.241
5369.383
5368.507
5367.612
5366.699
5365.766
5364.813
5363.842
5362.854
5361.854
5360.846
5359.841
5358.853
5357.9
5357.007
5356.2
5355.51
5354.952
5354.554
5354.211
5105.541
5023.674
4881.264
4831.197
4787.542
4750.825
4719.362
4691.556
4666.049
4642.693
4621.068
4600.879
4582.681
4567.061
4554.659
4546.068
4542.028
4543.141
4550.249
4564.504
4587.862
4621.491
4666.505
4724.907
4798.264
4886.586
4991.024
5111.473
5246.153
5391.187
5542.717
5695.115
5843.844
5984.268
6112.221
6224.975
6321.255
6400.863
6464.164
6511.923
6545.481
6566.728
6577.834
6580.869
6577.741
6570.072
6559.067
6545.641
6530.745
6515.052
6499.025
6483.668
6469.632
6456.808
6445.065
6434.365
6424.663
6415.854
6407.823
6400.472
6393.681
6387.342
6381.33
6375.53
6369.914
6364.395
6358.901
6353.383
6347.807
6342.157
6336.421
6330.591
6324.669
6318.665
6312.562
6306.364
6299.992
6293.555
6287.054
6280.509
6273.939
6267.352
6260.744
6254.119
6247.48
6240.818
6234.153
6227.506
6220.869
6214.229
6207.576
6200.903
6194.197
6187.453
6180.668
6173.838
6166.961
6160.039