/*--------------------------------*- C++ -*----------------------------------*\
| =========                 |                                                 |
| \\      /  F ield         | foam-extend: Open Source CFD                    |
|  \\    /   O peration     | Version:     3.1                                |
|   \\  /    A nd           | Web:         http://www.extend-project.de       |
|    \\/     M anipulation  |                                                 |
\*---------------------------------------------------------------------------*/
FoamFile
{
    version     2.0;
    format      ascii;
    class       surfaceScalarField;
    location    "2";
    object      phi;
}
// * * * * * * * * * * * * * * * * * * * * * * * * * * * * * * * * * * * * * //

dimensions      [0 3 -1 0 0 0 0];

internalField   nonuniform List<scalar> 
275122
(
-0.0001301947
0.0001317341
-6.47963e-08
-1.474602e-06
-0.0001169165
0.0001115239
4.25635e-07
4.966954e-06
-0.0001162377
0.0001195268
-1.118855e-07
-3.177226e-06
-0.0001304192
0.0001341028
-1.151346e-07
-3.568478e-06
-0.0001433339
0.0001444813
-1.133789e-07
-1.033941e-06
-0.0001446127
0.0001444194
-9.199377e-08
2.852125e-07
-0.0001433036
0.0001428437
-7.881319e-08
5.387764e-07
-0.0001412167
0.0001406435
-6.851278e-08
6.416252e-07
-0.0001388424
0.0001382159
-5.75028e-08
6.840167e-07
-0.0001362773
0.0001356099
-4.792608e-08
7.153371e-07
-0.0001335583
0.0001328583
-3.946876e-08
7.394788e-07
-0.0001307178
0.0001299911
-3.202034e-08
7.587046e-07
-0.0001277759
0.0001270238
-2.358488e-08
7.757116e-07
-0.0001247494
0.0001239803
-1.664667e-08
7.857624e-07
-0.0001216632
0.0001208755
-1.241024e-08
8.000693e-07
-0.0001185105
0.0001177162
-9.929593e-09
8.04179e-07
-0.0001153157
0.0001145209
-7.385293e-09
8.021995e-07
-0.0001121225
0.0001113479
-8.940107e-09
7.83484e-07
-0.0001091251
0.0001084637
-2.409562e-08
6.855086e-07
-0.0001070278
0.0001071552
-1.381679e-07
1.074552e-08
-0.0001184835
0.0001228887
-3.668939e-07
-4.038248e-06
-0.0001241434
0.0001242958
-1.080352e-07
-4.44196e-08
-0.0001250463
0.000125779
-5.459599e-08
-6.781186e-07
-0.0001391217
0.0001442722
1.019748e-07
-5.252409e-06
-0.0001451857
0.0001451579
1.966852e-07
-1.689388e-07
-0.0001461569
0.0001462679
4.17081e-08
-1.526575e-07
-0.0001459501
0.0001456323
1.928504e-08
2.984368e-07
-0.0001441245
0.0001429165
2.536105e-08
1.182594e-06
-0.0001347602
0.0001262499
2.981589e-08
8.48051e-06
-0.0001283805
0.0001319049
3.094001e-09
-3.527551e-06
-9.587977e-05
0.0001005448
-2.6147e-08
-4.63891e-06
-0.0001139259
0.0001184244
2.664572e-09
-4.501195e-06
-0.0001321348
0.0001367753
2.794934e-09
-4.643233e-06
-0.0001509456
0.0001557206
2.948606e-09
-4.777927e-06
-0.0001702415
0.0001751446
2.871165e-09
-4.905944e-06
-0.000189993
0.0001949785
2.754803e-09
-4.988249e-06
-0.0002100319
0.0002150781
2.472299e-09
-5.048606e-06
-0.0002301864
0.0002352465
1.548017e-09
-5.061672e-06
-0.0002504188
0.0002554877
1.959449e-09
-5.070935e-06
-0.0002707191
0.0002761057
8.072889e-08
-5.467362e-06
4.414472e-06
-0.0001867273
0.0001872309
-1.112449e-10
-4.91803e-06
4.451892e-06
-0.0001887673
0.0001892338
-2.946755e-10
-4.918114e-06
4.593897e-06
-0.0001903817
0.0001906895
-4.746855e-10
-4.901276e-06
4.717575e-06
-0.0001914027
0.0001915766
-4.484073e-10
-4.891032e-06
4.805905e-06
-0.000191961
0.0001920474
-3.811453e-10
-4.891961e-06
4.860031e-06
-0.0001922236
0.0001922562
-2.386969e-10
-4.892386e-06
4.872991e-06
-0.0001922908
0.0001922794
-1.33756e-10
-4.861391e-06
4.93609e-06
-0.0001922329
0.0001921953
-2.558412e-10
-4.898194e-06
5.081295e-06
-0.000192013
0.0001917804
6.82022e-12
-4.848721e-06
4.311237e-06
-0.0007735633
0.0007744744
-4.80842e-13
-1.857725e-05
4.531612e-06
4.302741e-06
4.520521e-06
4.662808e-06
-0.0007745007
0.0007742991
-2.544024e-12
-1.869289e-05
4.7916e-06
4.656591e-06
4.783471e-06
4.712833e-06
-0.0007739852
0.0007735341
-6.956946e-13
-1.852604e-05
4.7819e-06
4.706348e-06
4.77601e-06
4.74615e-06
-0.0007730459
0.0007723965
-2.342799e-13
-1.838405e-05
4.776041e-06
4.740667e-06
4.770645e-06
4.750891e-06
-0.0007717706
0.0007710026
-8.977366e-13
-1.828399e-05
4.780037e-06
4.745705e-06
4.775326e-06
4.757929e-06
-0.0007702245
0.0007693716
-2.281841e-12
-1.818386e-05
4.765043e-06
4.753239e-06
4.760607e-06
4.72302e-06
-0.0007685276
0.0007676653
-3.610609e-12
-1.804163e-05
4.733265e-06
4.718725e-06
4.728885e-06
4.720505e-06
-0.0007667574
0.0007658033
-8.930932e-13
-1.789973e-05
4.708918e-06
4.718001e-06
4.706463e-06
4.714464e-06
-0.0007648163
0.0007636321
5.918672e-12
-1.763093e-05
4.695775e-06
4.711735e-06
4.693151e-06
4.41451e-06
-0.0007621974
0.0007619756
6.697119e-12
-1.766388e-05
4.530469e-06
4.410189e-06
4.530454e-06
4.655853e-06
-0.0007612281
0.0007598877
-5.172424e-13
-1.725471e-05
4.642112e-06
4.655535e-06
4.641596e-06
4.580874e-06
-0.0007586788
0.0007575408
4.374752e-13
-1.709989e-05
4.536577e-06
4.582549e-06
4.537879e-06
4.529483e-06
-0.0007564316
0.0007553243
1.529864e-12
-1.696509e-05
4.505723e-06
4.530485e-06
4.506683e-06
4.494432e-06
-0.0007542236
0.0007531113
3.174924e-12
-1.683476e-05
4.480305e-06
4.493308e-06
4.478985e-06
4.469253e-06
-0.0007519954
0.0007508473
1.50852e-11
-1.670786e-05
4.461977e-06
4.46615e-06
4.458559e-06
4.460209e-06
-0.0007496947
0.000748496
1.913488e-11
-1.661968e-05
4.458682e-06
4.450663e-06
4.448804e-06
4.527477e-06
-0.0007472804
0.000745998
8.512497e-12
-1.673702e-05
4.539222e-06
4.471426e-06
4.481288e-06
4.889705e-06
-0.0007445921
0.0007425946
4.769188e-12
-1.726658e-05
5.019114e-06
4.642447e-06
4.712829e-06
5.989055e-06
-0.0007394452
0.0007334661
4.814246e-12
-1.786451e-05
6.649452e-06
5.588401e-06
5.616739e-06
5.571161e-06
-0.0007255444
0.000731005
4.005317e-12
-1.103179e-05
5.589909e-06
-0.0007345211
0.0007347737
2.805282e-12
-5.84245e-06
1.1281e-05
-0.0007324315
0.000729971
8.250993e-13
-8.820525e-06
9.418333e-06
-0.000727852
0.0007257437
-6.566897e-13
-7.310036e-06
3.859764e-06
-0.0007239733
0.0007235057
-3.725335e-13
-3.392188e-06
6.596197e-08
-0.000723672
0.0007234403
6.125497e-13
1.65733e-07
-1.720459e-06
-0.0007233966
0.0007232548
8.519391e-13
1.862227e-06
-2.521254e-06
-0.0007230145
0.0007226709
5.477052e-13
2.864877e-06
-3.053484e-06
-0.0007222635
0.0007217608
2.532826e-13
3.5562e-06
-3.401058e-06
-0.000721204
0.0007205721
3.658909e-13
4.032946e-06
-3.651142e-06
-0.0007199026
0.0007191761
8.821468e-13
4.37762e-06
-3.84128e-06
-0.0007184232
0.0007176269
1.734551e-12
4.637522e-06
-3.986797e-06
-0.0007168117
0.000715963
2.331234e-12
4.835458e-06
-4.103988e-06
-0.000715104
0.0007142263
2.638637e-12
4.981702e-06
-4.182072e-06
-0.0007133439
0.0007124519
2.361695e-12
5.074074e-06
-4.209818e-06
-0.0007115626
0.0007106774
2.149672e-12
5.095084e-06
-4.152511e-06
-0.0007098057
0.0007089551
1.865818e-12
5.003042e-06
-3.897e-06
-0.0007081302
0.0007073319
1.436778e-12
4.695322e-06
-3.179105e-06
-0.0007065352
0.00070572
9.047862e-13
3.994301e-06
-1.359176e-06
-0.0007048226
0.000703516
5.427315e-13
2.665793e-06
8.248911e-07
-0.0007009074
0.0006991457
3.378924e-13
9.36786e-07
-1.174965e-07
-0.0006983539
0.0006975321
3.292849e-13
9.393199e-07
3.80298e-06
-0.0006963738
0.0006940387
4.861942e-13
-1.467833e-06
9.554712e-06
-0.0006881709
0.0006828939
5.595867e-13
-4.277679e-06
1.86261e-06
-0.000679423
0.0006774715
7.727271e-13
8.88757e-08
-2.320255e-06
-0.0006753181
0.000673315
6.921586e-13
4.323319e-06
-5.970715e-06
-0.0006712762
0.0006691659
3.188409e-13
8.081067e-06
-1.258199e-05
-0.0006673779
0.0006662465
-1.518959e-14
1.371341e-05
-2.913235e-05
-0.000666455
0.0006735688
-1.54089e-13
2.201857e-05
-5.784392e-06
-0.0006824082
0.0006821542
-1.033712e-13
2.056752e-05
-4.320447e-06
-5.822517e-06
-4.386096e-06
-2.714273e-06
-0.0006800188
0.0006782712
3.221254e-13
1.245375e-05
-2.579592e-06
-2.773143e-06
-2.639186e-06
-1.948747e-06
-0.0006762002
0.0006739603
4.659455e-13
9.924083e-06
-1.841898e-06
-2.002445e-06
-1.891103e-06
-1.589587e-06
-0.0006717449
0.0006696809
4.262316e-13
8.43896e-06
-1.560015e-06
-1.628862e-06
-1.596482e-06
-1.455014e-06
-0.0006677236
0.0006658654
6.527782e-13
7.702545e-06
-1.438662e-06
-1.484626e-06
-1.466006e-06
-1.380141e-06
-0.0006640635
0.0006623333
8.048835e-13
7.274188e-06
-1.370937e-06
-1.401764e-06
-1.391173e-06
-1.338239e-06
-0.0006606434
0.0006590048
8.582259e-13
7.013192e-06
-1.3329e-06
-1.35484e-06
-1.348616e-06
-1.312436e-06
-0.0006573935
0.0006558204
8.56808e-13
6.841242e-06
-1.308896e-06
-1.325488e-06
-1.32132e-06
-1.295158e-06
-0.0006542681
0.0006527457
9.48655e-13
6.717959e-06
-1.292732e-06
-1.305341e-06
-1.302345e-06
-1.282688e-06
-0.0006512397
0.000649758
9.51662e-13
6.623489e-06
-1.280785e-06
-1.290357e-06
-1.288005e-06
-1.272802e-06
-0.0006482898
0.0006468424
6.26997e-13
6.546775e-06
-1.271282e-06
-1.278577e-06
-1.276726e-06
-1.26448e-06
-0.0006454067
0.0006439895
1.589083e-13
6.480488e-06
-1.263073e-06
-1.268688e-06
-1.26702e-06
-1.256572e-06
-0.0006425824
0.0006411923
-1.692012e-13
6.419659e-06
-1.255271e-06
-1.25962e-06
-1.258087e-06
-1.249275e-06
-0.0006398117
0.0006384475
-2.978188e-13
6.362066e-06
-1.248107e-06
-1.250961e-06
-1.249438e-06
-1.242007e-06
-0.0006370922
0.0006357527
-4.988362e-13
6.30554e-06
-1.240721e-06
-1.242383e-06
-1.240933e-06
-1.233927e-06
-0.0006344219
0.0006331064
-9.122201e-13
6.24837e-06
-1.232464e-06
-1.233954e-06
-1.232504e-06
-1.225041e-06
-0.0006317991
0.0006305069
-1.438819e-12
6.189388e-06
-1.223465e-06
-1.225131e-06
-1.223555e-06
-1.215568e-06
-0.0006292226
0.0006279534
-2.023445e-12
6.12822e-06
-1.213917e-06
-1.215607e-06
-1.213937e-06
-1.205625e-06
-0.0006266922
0.0006254461
-2.663503e-12
6.065007e-06
-1.203919e-06
-1.205581e-06
-1.203851e-06
-1.195268e-06
-0.000624208
0.0006229854
-3.309324e-12
5.999794e-06
-1.193498e-06
-1.195105e-06
-1.193303e-06
-1.184481e-06
-0.0006217708
0.0006205718
-3.926023e-12
5.932724e-06
-1.182656e-06
-1.184228e-06
-1.182391e-06
-1.173376e-06
-0.0006193809
0.000618206
-4.582216e-12
5.864162e-06
-1.171525e-06
-1.17311e-06
-1.171258e-06
-1.162057e-06
-0.0006170393
0.000615889
-5.206641e-12
5.7943e-06
-1.160187e-06
-1.161801e-06
-1.159929e-06
-1.150517e-06
-0.000614747
0.0006136217
-5.680031e-12
5.723073e-06
-1.148616e-06
-1.15026e-06
-1.14836e-06
-1.138723e-06
-0.0006125049
0.000611405
-5.880329e-12
5.650386e-06
-1.136797e-06
-1.138464e-06
-1.136527e-06
-1.126682e-06
0.0006092398
-6.176894e-12
5.576229e-06
-1.124712e-06
-1.126413e-06
-1.12445e-06
-0.0006103137
-1.114332e-06
-0.0006081746
0.000607127
-6.809886e-12
5.500603e-06
-1.112348e-06
-1.114162e-06
-1.112197e-06
-1.101774e-06
-0.0006060884
0.0006050676
-7.644568e-12
5.423572e-06
-1.099739e-06
-1.101656e-06
-1.099615e-06
-1.089025e-06
-0.0006040558
0.0006030622
-8.516035e-12
5.34528e-06
-1.087004e-06
-1.088855e-06
-1.086823e-06
-1.076208e-06
-0.0006020779
0.0006011122
-9.293179e-12
5.266185e-06
-1.074181e-06
-1.076032e-06
-1.074004e-06
-1.063299e-06
-0.0006001558
0.0005992183
-9.915835e-12
5.186326e-06
-1.061272e-06
-1.063131e-06
-1.061104e-06
-1.050335e-06
-0.0005982904
0.0005973815
-1.037211e-11
5.105847e-06
-1.048315e-06
-1.050176e-06
-1.048157e-06
-1.037342e-06
-0.0005964824
0.0005956026
-1.070897e-11
5.024894e-06
-1.035333e-06
-1.037194e-06
-1.035186e-06
-1.024351e-06
-0.0005947326
0.0005938821
-1.089696e-11
4.943616e-06
-1.02236e-06
-1.024214e-06
-1.022224e-06
-1.011388e-06
-0.0005930416
0.0005922208
-1.087653e-11
4.862161e-06
-1.009417e-06
-1.011262e-06
-1.009293e-06
-9.984832e-07
-0.0005914101
0.0005906192
-1.062663e-11
4.780689e-06
-9.965368e-07
-9.983686e-07
-9.964244e-07
-9.856658e-07
-0.0005898385
0.0005890778
-1.031668e-11
4.699376e-06
-9.837516e-07
-9.855628e-07
-9.836509e-07
-9.729703e-07
-0.0005883273
0.0005875968
-9.973643e-12
4.618414e-06
-9.710983e-07
-9.728772e-07
-9.710073e-07
-9.604353e-07
-0.0005868767
0.0005861766
-9.552492e-12
4.53801e-06
-9.586131e-07
-9.603514e-07
-9.585322e-07
-9.480953e-07
-0.0005854869
0.0005848172
-9.027439e-12
4.45836e-06
-9.463227e-07
-9.480159e-07
-9.462453e-07
-9.360062e-07
-0.0005841579
0.0005835187
-8.397386e-12
4.37967e-06
-9.343064e-07
-9.359127e-07
-9.342055e-07
-9.241682e-07
-0.0005828898
0.000582281
-7.676294e-12
4.302016e-06
-9.225099e-07
-9.240614e-07
-9.224138e-07
-9.124909e-07
-0.0005816825
0.000581104
-6.876958e-12
4.225299e-06
-9.10907e-07
-9.124917e-07
-9.109311e-07
-9.010047e-07
-0.0005805359
0.0005799877
-6.073135e-12
4.149174e-06
-8.994333e-07
-9.010494e-07
-8.994736e-07
-8.895721e-07
-0.0005794498
0.0005789321
-5.312986e-12
4.072941e-06
-8.880669e-07
-8.895552e-07
-8.880425e-07
-8.780455e-07
-0.0005784251
0.0005779389
-4.635327e-12
3.995317e-06
-8.765106e-07
-8.780279e-07
-8.764986e-07
-8.657637e-07
-0.000577464
0.0005770114
-4.170493e-12
3.91229e-06
-8.641001e-07
-8.657633e-07
-8.640954e-07
-8.507876e-07
-0.000576572
0.0005761583
-4.268809e-12
3.812371e-06
-8.485375e-07
-8.508222e-07
-8.485582e-07
-8.21671e-07
-0.0005757569
0.0005753616
-1.519649e-12
3.664648e-06
-8.128673e-07
-8.218531e-07
-8.129529e-07
-7.353674e-07
-0.000574874
0.0005743266
4.089827e-12
3.387748e-06
-6.838934e-07
-7.360351e-07
-6.850483e-07
-7.524936e-07
-0.0005740492
0.0005735627
2.484045e-12
3.475361e-06
-7.424688e-07
-7.523144e-07
-7.415147e-07
-7.305868e-07
-0.0005730578
0.0005726095
1.681826e-12
3.3731e-06
-7.326787e-07
-7.296395e-07
-7.319101e-07
-7.272306e-07
-0.0005721821
0.0005717882
1.135284e-12
3.301633e-06
-7.274813e-07
-7.263314e-07
-7.267511e-07
-7.297478e-07
-0.0005714278
0.0005710963
1.196642e-12
3.248166e-06
-7.292435e-07
-7.290365e-07
-7.286474e-07
-7.296692e-07
-0.000570784
0.0005704989
1.603232e-12
3.203769e-06
-7.301648e-07
-7.291806e-07
-7.297277e-07
-7.307065e-07
-0.0005702319
0.0005699895
1.859571e-12
3.165128e-06
-7.309954e-07
-7.303252e-07
-7.306421e-07
-7.307246e-07
-0.000569762
0.000569556
1.836934e-12
3.128039e-06
-7.306147e-07
-7.30417e-07
-7.303272e-07
-7.29397e-07
-0.0005693626
0.0005691885
1.681751e-12
3.090455e-06
-7.290629e-07
-7.291322e-07
-7.288046e-07
-7.270885e-07
-0.0005690256
0.0005688804
1.521743e-12
3.052096e-06
-7.266425e-07
-7.268341e-07
-7.263855e-07
-7.241155e-07
-0.0005687455
0.0005686271
1.39555e-12
3.013291e-06
-7.235803e-07
-7.23888e-07
-7.233673e-07
-7.205795e-07
-0.0005685182
0.0005684251
1.313702e-12
2.974097e-06
-7.200295e-07
-7.204665e-07
-7.199404e-07
-7.166976e-07
-0.0005683408
0.0005682713
1.296022e-12
2.934833e-06
-7.160668e-07
-7.166302e-07
-7.16001e-07
-7.126123e-07
-0.0005682101
0.0005681634
1.311613e-12
2.895842e-06
-7.120295e-07
-7.125185e-07
-7.119162e-07
-7.085536e-07
-0.0005681245
0.0005680996
1.529016e-12
2.857838e-06
-7.079663e-07
-7.08463e-07
-7.078673e-07
-7.045934e-07
-0.0005680822
0.0005680782
1.693308e-12
2.821064e-06
-7.04063e-07
-7.044856e-07
-7.039578e-07
-7.003932e-07
-0.0005680815
0.0005680972
-1.807826e-12
2.785593e-06
-7.003073e-07
-7.003447e-07
-7.002309e-07
-6.967354e-07
-0.0005681206
0.0005681566
3.066081e-11
2.751357e-06
-6.970862e-07
-6.965649e-07
-6.969503e-07
-6.899374e-07
-0.0005681989
0.000568248
-9.053315e-11
2.718172e-06
-6.93159e-07
-6.906082e-07
-6.93513e-07
-6.897707e-07
-0.0005683099
0.0005683819
2.518524e-10
2.688642e-06
-6.908947e-07
-6.893543e-07
-6.909587e-07
-6.843207e-07
-0.000568458
0.0005685444
-2.780268e-11
2.658743e-06
-6.882443e-07
-6.843484e-07
-6.881732e-07
-6.837768e-07
-0.000568639
0.0005687425
8.225507e-13
2.632015e-06
-6.840418e-07
-6.836759e-07
-6.839865e-07
-6.815478e-07
-0.0005688519
0.0005689707
1.595384e-12
2.606226e-06
-6.810046e-07
-6.814797e-07
-6.809414e-07
-6.790291e-07
-0.0005690947
0.0005692279
2.636198e-12
2.581809e-06
-6.785032e-07
-6.789724e-07
-6.784539e-07
-6.767554e-07
-0.0005693661
0.0005695131
2.824628e-12
2.558886e-06
-6.762426e-07
-6.766857e-07
-6.761688e-07
-6.746995e-07
-0.000569665
0.0005698252
2.591404e-12
2.537405e-06
-6.7422e-07
-6.745904e-07
-6.741037e-07
-6.728642e-07
0.0005701631
2.911879e-12
2.517362e-06
-0.0005699902
-6.723699e-07
-6.727543e-07
-6.722761e-07
-6.711449e-07
-0.0005703406
0.0005705257
3.020992e-12
2.49856e-06
-6.70693e-07
-6.711314e-07
-6.707019e-07
-6.695634e-07
-0.0005707152
0.0005709116
2.785462e-12
2.480913e-06
-6.690814e-07
-6.695896e-07
-6.69101e-07
-6.681845e-07
-0.0005711121
0.0005713194
2.622224e-12
2.464521e-06
-6.677603e-07
-6.68152e-07
-6.677176e-07
-6.670495e-07
-0.0005715307
0.0005717483
2.748301e-12
2.449639e-06
-6.666395e-07
-6.66996e-07
-6.66585e-07
-6.661302e-07
-0.0005719698
0.0005721972
2.429163e-12
2.436194e-06
-6.657351e-07
-6.660654e-07
-6.656667e-07
-6.654153e-07
-0.0005724282
0.0005726648
2.042833e-12
2.424189e-06
-6.650349e-07
-6.653529e-07
-6.649805e-07
-6.648856e-07
-0.0005729048
0.0005731499
1.557279e-12
2.413568e-06
-6.645262e-07
-6.648249e-07
-6.644598e-07
-6.645554e-07
-0.0005733982
0.0005736512
1.3812e-12
2.404323e-06
-6.6421e-07
-6.644795e-07
-6.641297e-07
-6.644214e-07
-0.0005739073
0.0005741677
1.444925e-12
2.396447e-06
-6.640875e-07
-6.64347e-07
-6.640204e-07
-6.644396e-07
-0.0005744309
0.0005746981
1.55076e-12
2.389799e-06
-6.641215e-07
-6.643764e-07
-6.640558e-07
-6.646228e-07
-0.0005749678
0.0005752412
1.846866e-12
2.384277e-06
-6.643085e-07
-6.645413e-07
-6.642271e-07
-6.649447e-07
-0.0005755171
0.0005757963
2.289563e-12
2.379774e-06
-6.646404e-07
-6.648621e-07
-6.645683e-07
-6.653668e-07
-0.0005760778
0.0005763624
2.774224e-12
2.376165e-06
-6.650734e-07
-6.653061e-07
-6.650175e-07
-6.658901e-07
-0.0005766491
0.0005769386
3.281316e-12
2.373313e-06
-6.656187e-07
-6.658104e-07
-6.655391e-07
-6.664999e-07
-0.0005772301
0.0005775244
3.905363e-12
2.3711e-06
-6.662878e-07
-6.663803e-07
-6.661615e-07
-6.671845e-07
-0.0005778206
0.0005781193
4.572504e-12
2.36935e-06
-6.669963e-07
-6.670421e-07
-6.668839e-07
-6.67769e-07
-0.0005784199
0.0005787233
5.189978e-12
2.367599e-06
-6.677075e-07
-6.677319e-07
-6.677153e-07
-6.682805e-07
-0.0005790285
0.0005793363
5.683072e-12
2.365351e-06
-6.682936e-07
-6.682882e-07
-6.683137e-07
-6.68594e-07
-0.0005796461
0.0005799591
5.934575e-12
2.361776e-06
-6.688564e-07
-6.685274e-07
-6.688069e-07
-6.686458e-07
-0.0005802745
0.0005805944
6.013287e-12
2.355697e-06
-6.691913e-07
-6.685615e-07
-6.691235e-07
-6.680111e-07
-0.0005809179
0.0005812487
5.989251e-12
2.342689e-06
-6.688033e-07
-6.679178e-07
-6.687154e-07
-6.662652e-07
-0.0005815876
0.0005819433
5.958443e-12
2.310165e-06
-6.667091e-07
-6.662118e-07
-6.665915e-07
-6.553358e-07
-0.0005823197
0.000582704
6.239416e-12
2.218186e-06
-6.459345e-07
-6.554586e-07
-6.458242e-07
-4.240389e-07
-0.0005828691
0.0005824221
6.012762e-12
2.012025e-06
-3.579155e-07
-4.240034e-07
-3.591246e-07
-2.583115e-07
-0.0001450026
0.0001447202
1.014917e-11
5.406464e-07
-4.768968e-07
-0.0001442658
0.0001442113
-9.604318e-11
5.315525e-07
-5.541296e-07
-0.0001441822
0.0001441989
-6.956168e-11
5.375661e-07
-5.92071e-07
-0.0001442908
0.000144329
-4.076722e-11
5.53863e-07
-6.144854e-07
-0.0001444551
0.0001444991
-2.015142e-11
5.704236e-07
-6.292022e-07
-0.0001446344
0.00014468
-7.13373e-12
5.836745e-07
-6.397184e-07
-0.0001448169
0.0001448624
1.6487e-12
5.942182e-07
-6.477486e-07
-0.0001449983
0.0001450432
8.247653e-12
6.027949e-07
-6.541753e-07
-0.0001451771
0.0001452214
1.563159e-11
6.09932e-07
-6.59508e-07
-0.0001453533
0.0001453967
2.0054e-11
6.160364e-07
-6.640915e-07
-0.0001455262
0.000145569
1.422922e-11
6.212546e-07
-6.679104e-07
-0.0001456965
0.0001457386
1.107709e-11
6.258098e-07
-6.713613e-07
-0.000145864
0.0001459054
1.604998e-11
6.299274e-07
-6.745436e-07
-0.0001460289
0.0001460698
1.898254e-11
6.336955e-07
-6.774401e-07
-0.0001461915
0.0001462317
2.103965e-11
6.37163e-07
-6.801092e-07
-0.0001463518
0.0001463915
2.019814e-11
6.403803e-07
-6.826161e-07
-0.0001465099
0.0001465492
2.190641e-11
6.433916e-07
-6.849636e-07
-0.0001466661
0.0001467048
2.340945e-11
6.462209e-07
-6.872563e-07
-0.0001468204
0.0001468586
2.28197e-11
6.489894e-07
-6.908417e-07
-0.0001469728
0.0001470115
2.07972e-11
6.520868e-07
-6.925466e-07
-0.000147126
0.0001471649
-4.980545e-12
6.536906e-07
-6.921473e-07
-0.0001472769
0.0001473139
6.546874e-11
6.550067e-07
-6.937295e-07
-0.0001474233
0.0001474601
1.132072e-11
6.570125e-07
-6.957421e-07
-0.00014757
0.0001476069
2.627188e-11
6.588533e-07
-6.975095e-07
-0.0001477176
0.0001477546
2.816838e-11
6.604887e-07
-6.989307e-07
-0.0001478661
0.0001479032
3.245806e-11
6.61782e-07
-6.9982e-07
-0.0001480155
0.0001480529
2.274404e-11
6.624501e-07
-7.003849e-07
-0.000148167
0.000148205
1.876328e-11
6.623945e-07
-7.006756e-07
-0.0001483217
0.0001483611
2.519269e-11
6.613069e-07
-7.004643e-07
-0.0001484824
0.0001485241
2.852193e-11
6.587205e-07
-6.991055e-07
-0.0001486532
0.000148699
2.818514e-11
6.533369e-07
-6.887692e-07
-0.0001488407
0.0001488875
3.051733e-11
6.419501e-07
-6.898121e-07
-0.0001490494
0.0001491148
3.615997e-11
6.244225e-07
-6.646045e-07
-0.0001493295
0.0001494159
3.233179e-11
5.781651e-07
-5.976482e-07
-0.0001497327
0.0001498834
2.792541e-11
4.469594e-07
2.038415e-07
-0.0001503937
0.0001503305
3.665455e-11
-1.406385e-07
6.403178e-07
-0.0001501131
0.0001500768
1.954855e-11
-6.041006e-07
7.124277e-07
-0.0001500014
0.0001499845
1.818654e-11
-6.955059e-07
7.292772e-07
-0.0001499791
0.0001499843
1.399477e-11
-7.344476e-07
7.462335e-07
-0.0001500152
0.0001500299
9.4291e-12
-7.609698e-07
7.566692e-07
-0.0001500843
0.0001501057
4.311082e-12
-7.780466e-07
7.64292e-07
-0.0001501773
0.0001502037
2.779513e-12
-7.906344e-07
7.699358e-07
-0.0001502885
0.0001503188
3.557947e-12
-8.001506e-07
7.74377e-07
-0.000150414
0.0001504472
2.743523e-12
-8.076052e-07
7.780043e-07
-0.0001505504
0.000150586
-6.466317e-13
-8.136079e-07
7.81003e-07
-0.0001506955
0.000150733
-3.305964e-12
-8.184739e-07
7.836789e-07
-0.0001508474
0.0001508863
-2.309377e-12
-8.225426e-07
7.860609e-07
-0.0001510044
0.0001510444
-1.914058e-12
-8.259973e-07
7.882774e-07
-0.0001511653
0.0001512061
-6.425766e-13
-8.290121e-07
7.903257e-07
-0.0001513291
0.0001513704
-9.370061e-13
-8.316466e-07
7.922415e-07
-0.0001514949
0.0001515367
-7.974723e-13
-8.339852e-07
7.940696e-07
-0.0001516622
0.0001517042
6.593836e-13
-8.360883e-07
7.957941e-07
-0.0001518304
0.0001518726
8.643667e-13
-8.379858e-07
7.97452e-07
-0.0001519992
0.0001520415
2.265689e-13
-8.397276e-07
7.99042e-07
-0.0001521681
0.0001522104
1.700205e-12
-8.413286e-07
8.005685e-07
-0.000152337
0.0001523793
2.257672e-12
-8.428144e-07
8.020528e-07
-0.0001525056
0.0001525478
1.444173e-12
-8.44206e-07
8.034758e-07
-0.0001526737
0.0001527158
2.634483e-12
-8.455045e-07
8.048671e-07
-0.0001528412
0.0001528831
4.915153e-12
-8.467438e-07
8.062541e-07
-0.0001530079
0.0001530496
4.76533e-12
-8.479272e-07
8.075451e-07
-0.0001531737
0.0001532152
2.218673e-12
-8.490241e-07
8.087112e-07
-0.0001533385
0.0001533798
1.078206e-12
-8.499974e-07
8.098592e-07
-0.0001535022
0.0001535433
1.490401e-12
-8.508889e-07
8.109117e-07
-0.0001536647
0.0001537055
1.857368e-12
-8.516849e-07
8.118991e-07
-0.0001538259
0.0001538663
3.102823e-12
-8.523857e-07
8.127995e-07
-0.0001539854
0.0001540256
2.770436e-12
-8.529719e-07
8.138615e-07
-0.0001541431
0.0001541828
4.159352e-12
-8.536002e-07
8.148044e-07
-0.0001542975
0.0001543366
1.054845e-11
-8.538967e-07
8.159079e-07
-0.0001544545
0.0001544945
3.304296e-11
-8.5601e-07
8.649011e-07
-0.0001546152
0.0001546344
1.264804e-10
-8.841805e-07
8.144372e-07
-0.0001540378
0.0006232655
6.157187e-13
-3.324813e-06
5.732773e-08
8.145158e-07
5.226457e-08
-0.0001540402
-0.0001567999
-0.0001568013
4.622835e-07
-0.0006253508
0.0006261928
8.376683e-13
-3.091023e-06
6.671125e-07
4.571142e-07
6.624749e-07
6.014643e-07
-0.0006268918
0.0006275252
8.117009e-13
-3.140695e-06
6.561449e-07
5.973312e-07
6.523752e-07
6.62416e-07
-0.000628115
0.0006285857
9.519815e-13
-3.176136e-06
6.935126e-07
6.590827e-07
6.903754e-07
6.988636e-07
-0.0006290138
0.0006293996
9.549403e-13
-3.203493e-06
7.127892e-07
6.959868e-07
7.100479e-07
7.245156e-07
-0.000629776
0.0006301248
1.138641e-12
-3.257665e-06
7.322025e-07
7.22153e-07
7.299787e-07
7.416686e-07
-0.0006304688
0.0006307989
1.550999e-12
-3.307081e-06
7.486769e-07
7.397628e-07
7.468585e-07
7.68488e-07
-0.0006311016
0.0006313829
1.620018e-12
-3.35743e-06
7.710088e-07
7.669624e-07
7.696263e-07
7.859795e-07
-0.0006316523
0.0006319085
1.624157e-12
-3.400636e-06
7.873791e-07
7.848124e-07
7.862425e-07
8.001399e-07
-0.0006321553
0.0006323936
1.562447e-12
-3.439361e-06
8.013915e-07
7.991357e-07
8.003772e-07
8.111362e-07
-0.0006326261
0.0006328541
1.815827e-12
-3.47298e-06
8.122201e-07
8.102606e-07
8.113738e-07
8.196529e-07
-0.0006330788
0.0006333012
2.755406e-12
-3.501534e-06
8.207227e-07
8.18863e-07
8.199432e-07
8.262694e-07
-0.0006335219
0.0006337419
3.173931e-12
-3.525618e-06
8.272471e-07
8.25557e-07
8.26552e-07
8.313534e-07
-0.0006339615
0.0006341814
2.102405e-12
-3.545772e-06
8.322586e-07
8.307069e-07
8.31614e-07
8.353203e-07
-0.0006344016
0.0006346225
6.581208e-13
-3.562696e-06
8.361314e-07
8.34725e-07
8.355519e-07
8.384564e-07
-0.0006348442
0.0006350669
2.084673e-13
-3.577001e-06
8.391957e-07
8.379454e-07
8.386981e-07
8.409848e-07
-0.0006352906
0.0006355153
8.671333e-13
-3.589136e-06
8.416632e-07
8.405342e-07
8.412139e-07
8.430862e-07
-0.0006357409
0.0006359677
1.851486e-12
-3.599536e-06
8.437039e-07
8.426718e-07
8.432986e-07
8.448621e-07
-0.0006361953
0.000636424
2.445505e-12
-3.608578e-06
8.454433e-07
8.445166e-07
8.451122e-07
8.464169e-07
-0.0006366534
0.0006368837
2.086935e-12
-3.616524e-06
8.469606e-07
8.461275e-07
8.466768e-07
8.47814e-07
-0.0006371147
0.0006373465
1.454125e-12
-3.623581e-06
8.483294e-07
8.475497e-07
8.480641e-07
8.490854e-07
-0.0006375789
0.0006378119
9.129373e-13
-3.629946e-06
8.495776e-07
8.488639e-07
8.493655e-07
8.502797e-07
-0.0006380454
0.0006382794
1.207934e-12
-3.63576e-06
8.507479e-07
8.50109e-07
8.505869e-07
8.514314e-07
-0.0006385137
0.0006387485
1.384004e-12
-3.641135e-06
8.518843e-07
8.51292e-07
8.517745e-07
8.525293e-07
-0.0006389834
0.0006392187
1.660107e-12
-3.64594e-06
8.529437e-07
8.523773e-07
8.52773e-07
8.535015e-07
-0.0006394542
0.00063969
1.695988e-12
-3.650265e-06
8.539421e-07
8.533205e-07
8.537349e-07
8.544598e-07
-0.0006399257
0.0006401617
1.525909e-12
-3.654286e-06
8.548411e-07
8.542939e-07
8.546892e-07
8.553693e-07
-0.0006403977
0.0006406337
1.020865e-12
-3.658004e-06
8.557553e-07
8.552376e-07
8.556291e-07
8.562853e-07
-0.0006408696
0.0006411054
7.056783e-13
-3.661468e-06
8.566517e-07
8.561749e-07
8.565463e-07
8.571533e-07
-0.000641341
0.0006415764
7.283286e-13
-3.66457e-06
8.575127e-07
8.570451e-07
8.573993e-07
8.579877e-07
-0.0006418116
0.0006420465
5.260125e-13
-3.667343e-06
8.583368e-07
8.578744e-07
8.58225e-07
8.587851e-07
-0.0006422811
0.0006425152
2.653681e-13
-3.669792e-06
8.591367e-07
8.586865e-07
8.590404e-07
8.595232e-07
-0.0006427489
0.0006429821
1.764824e-13
-3.671794e-06
8.598781e-07
8.594295e-07
8.597801e-07
8.602048e-07
-0.0006432147
0.0006434467
1.073202e-13
-3.673289e-06
8.605594e-07
8.600977e-07
8.604493e-07
8.608093e-07
-0.000643678
0.0006439085
5.848477e-14
-3.67421e-06
8.611642e-07
8.607137e-07
8.610732e-07
8.61319e-07
-0.0006441382
0.0006443668
-3.506605e-13
-3.674356e-06
8.616595e-07
8.612304e-07
8.615704e-07
8.617049e-07
-0.0006445944
0.0006448207
-7.743817e-13
-3.673457e-06
8.619966e-07
8.616071e-07
8.618941e-07
8.618995e-07
-0.0006450459
0.0006452691
-1.132199e-12
-3.671161e-06
8.621398e-07
8.618088e-07
8.620525e-07
8.617932e-07
-0.000645491
0.0006457103
-8.238551e-13
-3.666827e-06
8.620128e-07
8.617252e-07
8.619516e-07
8.612697e-07
-0.0006459279
0.000646142
-7.628296e-13
-3.65934e-06
8.614316e-07
8.612001e-07
8.61384e-07
8.599987e-07
-0.0006463536
0.0006465603
-1.174121e-12
-3.646591e-06
8.600663e-07
8.599108e-07
8.599602e-07
8.573374e-07
-0.0006467636
0.0006469593
-1.783273e-12
-3.624733e-06
8.573034e-07
8.572229e-07
8.57162e-07
8.519916e-07
-0.0006471495
0.0006473276
-2.582075e-12
-3.585256e-06
8.517166e-07
8.51873e-07
8.516065e-07
8.395161e-07
-0.0006474962
0.0006476473
-2.888022e-12
-3.506315e-06
8.38193e-07
8.394244e-07
8.38103e-07
8.023407e-07
-0.0006477913
0.0006479415
-2.933044e-12
-3.34061e-06
7.929703e-07
8.022721e-07
7.928964e-07
7.040474e-07
-0.0006481382
0.0006484137
-2.96812e-12
-3.026298e-06
6.714849e-07
7.039644e-07
6.713599e-07
6.001679e-07
-0.0006487584
0.0006491087
-3.056703e-12
-2.742131e-06
5.958526e-07
6.000524e-07
5.957471e-07
5.879717e-07
-0.0006494356
0.0006497416
-2.715853e-12
-2.660729e-06
5.894509e-07
5.878825e-07
5.893642e-07
5.794769e-07
-0.0006500404
0.0006503307
-2.817999e-12
-2.606099e-06
5.785077e-07
5.793865e-07
5.784119e-07
5.724977e-07
-0.0006506152
0.0006508896
-2.749504e-12
-2.565138e-06
5.729353e-07
5.724187e-07
5.72859e-07
5.687017e-07
-0.0006511587
0.0006514209
-2.928972e-12
-2.537002e-06
5.687696e-07
5.686264e-07
5.68693e-07
5.641939e-07
-0.0006516803
0.0006519321
-3.526163e-12
-2.509315e-06
5.645793e-07
5.641481e-07
5.645405e-07
5.622284e-07
-0.000652179
0.0006524116
-2.977468e-12
-2.475651e-06
5.592382e-07
5.622411e-07
5.593007e-07
4.971627e-07
-0.0006527611
0.0006533375
-2.185934e-12
-2.601605e-06
5.147172e-07
4.975433e-07
5.157838e-07
5.10682e-07
-0.0006538071
0.0006536879
-1.840181e-12
-1.83974e-06
4.684073e-07
5.111776e-07
4.686654e-07
4.677991e-07
-0.0006536674
0.0006539647
-1.557649e-12
-2.059465e-06
4.113704e-07
4.698048e-07
4.132451e-07
4.358591e-07
-0.0006543051
0.0006546755
-9.967711e-13
-2.083841e-06
4.195664e-07
4.372789e-07
4.207693e-07
4.40328e-07
-0.0006550401
0.0006554065
-3.520443e-13
-2.121561e-06
4.363851e-07
4.412362e-07
4.371718e-07
4.550015e-07
-0.0006557522
0.0006560824
2.647524e-13
-2.154324e-06
4.565511e-07
4.555664e-07
4.570516e-07
4.717385e-07
-0.0006563919
0.0006566861
7.525401e-13
-2.187697e-06
4.746789e-07
4.720809e-07
4.749912e-07
4.864341e-07
-0.0006569643
0.0006572318
9.606436e-13
-2.218966e-06
4.891188e-07
4.866203e-07
4.892965e-07
5.006011e-07
-0.0006574849
0.000657724
1.183182e-12
-2.247498e-06
5.034562e-07
5.007501e-07
5.03594e-07
5.132857e-07
-0.0006579519
0.0006581703
1.504396e-12
-2.276681e-06
5.157758e-07
5.133667e-07
5.158531e-07
5.239433e-07
-0.0006583799
0.0006585819
1.737934e-12
-2.302012e-06
5.260206e-07
5.239915e-07
5.260706e-07
5.324814e-07
-0.0006587776
0.000658968
2.053423e-12
-2.323471e-06
5.340186e-07
5.325224e-07
5.340616e-07
5.390328e-07