/*--------------------------------*- C++ -*----------------------------------*\
| =========                 |                                                 |
| \\      /  F ield         | foam-extend: Open Source CFD                    |
|  \\    /   O peration     | Version:     3.1                                |
|   \\  /    A nd           | Web:         http://www.extend-project.de       |
|    \\/     M anipulation  |                                                 |
\*---------------------------------------------------------------------------*/
FoamFile
{
    version     2.0;
    format      ascii;
    class       surfaceScalarField;
    location    "2";
    object      phi;
}
// * * * * * * * * * * * * * * * * * * * * * * * * * * * * * * * * * * * * * //

dimensions      [0 3 -1 0 0 0 0];

internalField   nonuniform List<scalar> 
275122
(
-2.1606e-05
2.313882e-05
-3.812695e-07
-1.151555e-06
-2.886806e-05
3.169048e-05
4.438173e-07
-3.26624e-06
-4.468546e-05
4.835003e-05
1.606764e-07
-3.825245e-06
-5.834473e-05
6.014676e-05
1.238312e-07
-1.925856e-06
-6.42604e-05
6.486258e-05
7.333606e-09
-6.095068e-07
-6.618317e-05
6.607971e-05
2.041013e-08
8.305702e-08
-6.551844e-05
6.540797e-05
2.026752e-08
9.020473e-08
-6.486315e-05
6.462631e-05
2.094258e-08
2.158947e-07
-6.4095e-05
6.384326e-05
3.687312e-08
2.148746e-07
-6.328025e-05
6.301186e-05
9.26726e-09
2.591223e-07
-6.23527e-05
6.202509e-05
-7.657099e-09
3.352643e-07
-6.110453e-05
6.076073e-05
-8.730903e-09
3.52535e-07
-5.970835e-05
5.936787e-05
-1.097069e-08
3.514521e-07
-5.841156e-05
5.809596e-05
-1.290463e-08
3.285085e-07
-5.726824e-05
5.7025e-05
-1.53529e-08
2.585919e-07
-5.663754e-05
5.633672e-05
7.071514e-09
2.937501e-07
-5.57836e-05
5.544455e-05
3.02509e-08
3.087994e-07
-5.469056e-05
5.441657e-05
1.331166e-08
2.606835e-07
-5.317388e-05
5.368873e-05
4.392847e-08
-5.587808e-07
-5.304527e-05
5.526931e-05
4.205603e-08
-2.266095e-06
-5.645266e-05
5.824706e-05
-8.825726e-08
-1.706137e-06
-5.896947e-05
5.86507e-05
8.479031e-08
2.339828e-07
-5.969809e-05
6.065921e-05
1.248037e-07
-1.08593e-06
-6.689897e-05
6.845761e-05
-7.43892e-08
-1.484251e-06
-6.806989e-05
6.771733e-05
-1.476116e-07
5.001752e-07
-6.697193e-05
6.649857e-05
-8.430178e-08
5.576575e-07
-6.525297e-05
6.4766e-05
-2.425361e-09
4.893947e-07
-6.049219e-05
5.786425e-05
-8.431745e-09
2.636366e-06
-4.179719e-05
3.397677e-05
-7.806864e-08
7.898481e-06
-4.234869e-05
4.491896e-05
-1.683577e-07
-2.401908e-06
-1.715662e-05
2.078217e-05
1.854238e-07
-3.810974e-06
-2.540754e-05
2.848496e-05
3.401694e-07
-3.41759e-06
-4.411825e-05
4.669403e-05
2.944926e-07
-2.870273e-06
-5.552273e-05
5.794956e-05
9.754893e-08
-2.524379e-06
-6.448112e-05
6.721793e-05
7.927927e-08
-2.81609e-06
-7.506838e-05
7.691984e-05
9.060771e-08
-1.942067e-06
-8.208197e-05
8.378584e-05
1.959135e-08
-1.723463e-06
-8.888023e-05
9.060657e-05
-1.360613e-08
-1.712732e-06
-8.986733e-05
8.857207e-05
-1.294162e-07
1.424684e-06
-7.846683e-05
8.557961e-05
5.210918e-08
-7.16489e-06
2.075429e-06
-4.998045e-05
4.690103e-05
-3.750623e-09
1.007737e-06
2e-06
-5.319362e-05
5.690808e-05
-2.114789e-07
-5.502979e-06
2.451473e-06
-6.192291e-05
6.262817e-05
3.027177e-08
-3.187007e-06
2.548142e-06
-6.558578e-05
6.643466e-05
2.57694e-08
-3.422795e-06
2.538138e-06
-6.892886e-05
6.947004e-05
-1.548443e-08
-3.063842e-06
1.992402e-06
-7.038809e-05
7.047239e-05
-6.080769e-08
-2.015891e-06
1.473134e-06
-7.019705e-05
6.975358e-05
-8.608495e-08
-9.435749e-07
7.93684e-08
-6.864378e-05
6.753074e-05
-1.23135e-07
1.156807e-06
-1.220281e-06
-6.542108e-05
6.312766e-05
-2.772355e-07
3.790939e-06
2.471111e-06
-0.0002529013
0.0002513128
2.679009e-07
-1.366802e-05
3.658674e-06
5.13218e-06
3.726691e-06
3.555917e-06
-0.0002642691
0.0002746285
4.893244e-07
-2.568019e-05
4.076325e-06
3.70657e-06
3.49271e-06
1.926391e-06
-0.0002846491
0.0002910038
2.313193e-08
-1.620871e-05
2.321123e-06
2.436993e-06
3.146325e-06
3.324136e-06
-0.0002926983
0.0002937831
4.618531e-08
-1.501218e-05
3.31414e-06
3.667322e-06
3.575592e-06
3.179614e-06
-0.0002942569
0.0002919341
8.938685e-08
-1.088886e-05
3.267916e-06
3.24861e-06
3.426155e-06
2.346812e-06
-0.0002904425
0.0002881478
1.331195e-08
-7.441427e-06
2.382354e-06
2.420388e-06
2.573265e-06
1.636093e-06
-0.0002873747
0.0002891305
-8.674095e-09
-7.042468e-06
1.062929e-06
1.577282e-06
1.019059e-06
-7.988113e-07
-0.0002909747
0.000294726
3.175581e-08
1.504825e-06
-1.744651e-06
-8.65961e-07
-1.878445e-06
-5.227718e-06
-0.0002996859
0.0003016213
1.33081e-07
1.822881e-05
-4.464316e-06
-5.370241e-06
-5.235014e-06
-2.332425e-06
-0.0002854575
0.000310982
3.564318e-07
-2.547222e-06
-6.324604e-06
-5.598826e-06
-9.077854e-06
3.559471e-06
-0.0003304308
0.0003239015
-1.515697e-07
-1.791397e-05
6.159796e-06
4.97421e-06
9.901409e-06
5.125568e-06
-0.0003163748
0.0003112821
-3.111322e-07
-1.651219e-05
4.373948e-06
8.018067e-06
4.398432e-06
4.254383e-06
-0.0003070312
0.0003035801
-2.948268e-07
-1.238913e-05
4.183814e-06
4.236365e-06
3.460508e-06
3.746793e-06
-0.0003012957
0.0002993763
-2.230265e-07
-1.215449e-05
3.632893e-06
3.594122e-06
3.323122e-06
2.529928e-06
-0.0002979503
0.0002966214
-1.03795e-07
-8.164591e-06
2.309071e-06
2.536672e-06
2.221633e-06
1.094489e-06
-0.0002952301
0.0002952718
-1.015793e-07
-4.359958e-06
8.28001e-07
1.511401e-06
9.859975e-07
4.725495e-07
-0.0002939685
0.0002912416
-2.321136e-07
3.98279e-06
-5.160749e-07
-1.011692e-07
-8.790198e-07
-5.652036e-06
-0.0002962933
0.0003012537
-9.784531e-08
1.779612e-05
-3.680865e-06
-5.797709e-06
-7.528029e-06
-4.539165e-06
-0.0003106285
0.0003089392
1.337133e-07
1.232811e-05
1.538179e-06
-6.197429e-06
-1.57416e-06
-1.170549e-06
-0.000333127
0.0003438456
7.051151e-07
-1.025313e-05
4.537728e-05
-0.000332348
0.0003181128
1.782744e-07
-3.132029e-05
2.282634e-05
-0.0003007975
0.0002952022
-5.239126e-08
-1.717871e-05
1.462189e-05
-0.0002919349
0.0002909853
-3.81171e-09
-1.366841e-05
4.069476e-06
-0.0002928108
0.0002940154
1.832196e-07
-5.457335e-06
4.84719e-06
-0.0002943437
0.0002952776
-8.723248e-08
-5.69386e-06
3.088276e-06
-0.0002966093
0.0002979876
-5.327101e-08
-4.413346e-06
1.798107e-06
-0.0002991042
0.0003000808
-7.01061e-08
-2.70469e-06
9.768992e-07
-0.0003009023
0.0003011027
-1.036486e-07
-1.073592e-06
3.196588e-08
-0.0003014563
0.0003018533
-2.145944e-08
-4.075786e-07
-3.261565e-07
-0.0003020251
0.0003023772
7.072907e-08
-9.663277e-08
-4.116295e-07
-0.0003029487
0.0003032307
6.70186e-08
6.259441e-08
-1.239607e-06
-0.0003038764
0.0003044456
5.235805e-08
6.18009e-07
-8.42894e-07
-0.0003049196
0.0003052312
1.94974e-09
5.29386e-07
-7.775169e-07
-0.0003059908
0.0003063153
-3.336455e-08
4.863898e-07
-1.250046e-06
-0.0003057351
0.0003062348
-7.486763e-09
7.578379e-07
-1.228232e-06
-0.000306709
0.0003074028
2.487854e-08
5.095486e-07
-2.345774e-06
-0.0003069004
0.0003086436
7.164606e-08
5.309049e-07
1.043599e-06
-0.000308911
0.0003087347
8.219052e-08
-9.494604e-07
4.92177e-06
-0.0003052697
0.0003010447
6.467533e-08
-7.614212e-07
-3.895833e-06
-0.0003053316
0.0003089513
9.257279e-08
1.835196e-07
3.380997e-06
-0.00031127
0.0003095174
-1.368668e-07
-1.491611e-06
1.129018e-05
-0.000306947
0.0002970545
1.849647e-08
-1.416183e-06
-5.035163e-06
-0.0002920893
0.0002968014
-2.298479e-08
3.459886e-07
-3.778033e-06
-0.0003002206
0.0002999081
-1.016979e-07
4.192204e-06
-5.266703e-06
-0.0002995517
0.0002973203
7.910159e-08
7.41901e-06
-7.335112e-06
-0.0002929327
0.000289123
-2.28079e-07
1.137293e-05
-2.632143e-05
-0.0002883812
0.0002910432
-9.919657e-08
2.375864e-05
-8.51077e-05
-0.0003069071
0.0003516325
2.549865e-08
4.035683e-05
-4.060814e-06
-0.0003507171
0.0003488201
5.44739e-07
2.486442e-05
-6.36403e-06
-5.141399e-06
-7.945875e-06
5.170968e-06
-0.000353716
0.0003403738
-6.249084e-07
-1.151996e-05
7.688939e-06
5.236691e-06
7.390453e-06
1.071248e-05
-0.0003272463
0.0003189167
-8.031457e-07
-3.395543e-05
1.042801e-05
1.066474e-05
1.128292e-05
7.70678e-06
-0.0003095141
0.0003051109
-3.46634e-07
-1.993765e-05
4.331995e-06
6.586078e-06
6.062605e-06
1.891976e-06
-0.0003056539
0.0003073554
-9.146509e-08
-1.19063e-05
2.333964e-06
2.922049e-06
3.14833e-06
7.955237e-07
-0.0003075256
0.0003090811
-4.870739e-08
-6.148288e-06
9.162654e-07
1.575948e-06
1.353698e-06
5.858452e-07
-0.0003104584
0.0003118087
-4.844441e-08
-3.673179e-06
5.500035e-07
6.375356e-07
5.979202e-07
3.176064e-07
-0.0003131249
0.0003137747
3.848723e-08
-1.769852e-06
2.184311e-07
2.389389e-07
3.065854e-07
-8.338026e-08
-0.0003141934
0.0003148422
2.365594e-08
-4.350038e-07
-1.224154e-07
-1.723672e-08
-1.445122e-08
-1.142242e-07
-0.0003154073
0.0003162271
3.058562e-08
-3.960372e-07
-9.114998e-08
-1.314782e-07
-1.174651e-07
-8.188599e-08
-0.000317246
0.0003180497
6.424665e-09
-5.803917e-07
3.955453e-08
-2.564874e-08
-1.617714e-07
7.546527e-09
-0.0003184004
0.0003187138
-2.866525e-08
5.454335e-08
-1.148716e-07
-7.939602e-08
-1.525559e-07
1.470942e-07
-0.0003189791
0.0003191262
-5.933465e-09
-2.508693e-08
-4.307299e-08
-8.672304e-08
-1.333298e-07
3.148951e-08
-0.000319064
0.0003182113
4.723174e-08
3.34956e-07
-9.396932e-08
1.289514e-07
4.04094e-07
-8.675082e-08
-0.0003174714
0.0003166055
3.110735e-08
1.049429e-06
6.449182e-10
-5.344959e-08
-7.514599e-08
-1.708506e-07
-0.0003159427
0.0003160209
1.761722e-08
8.769998e-07
-2.020061e-07
-2.729417e-07
-3.269925e-07
-2.952816e-07
-0.0003164923
0.0003171412
1.292184e-08
2.971729e-07
-2.931191e-07
-1.579376e-07
-2.126599e-07
-4.852572e-07
-0.0003186364
0.0003211055
-2.808477e-08
-7.817667e-07
-4.580233e-07
-3.719943e-07
-3.439438e-07
-3.074508e-07
-0.0003231962
0.0003246596
-1.634822e-08
1.761163e-08
-2.784399e-07
-4.661335e-07
-4.126725e-07
-1.530793e-07
-0.0003257294
0.0003264787
-9.553352e-09
1.861855e-07
-2.289084e-07
-3.125972e-07
-2.314062e-07
-7.672226e-08
-0.0003266228
0.0003265297
-6.103705e-09
5.282165e-07
-1.520622e-07
-1.521971e-07
-4.803198e-08
-1.000917e-07
-0.0003260446
0.0003251595
9.667664e-08
1.175378e-06
-2.702406e-07
2.735569e-07
-2.902159e-07
-1.23767e-07
-0.0003245898
0.0003243556
7.193175e-08
1.336084e-06
-4.076938e-07
-2.413788e-07
-4.009726e-07
-4.492435e-07
-0.0003252822
0.0003269943
-5.483326e-08
1.252964e-07
-4.851186e-07
-4.331741e-07
-4.150798e-07
-4.250945e-07
-0.0003288043
0.0003302719
-4.512747e-08
1.853598e-07
-4.004389e-07
-4.163766e-07
-3.659325e-07
-4.09899e-07
0.0003325214
-2.532179e-08
5.952863e-07
-3.69003e-07
-3.849434e-07
-3.104583e-07
-0.000331617
-2.314099e-07
-0.0003332882
0.0003340284
-2.479963e-08
2.191203e-07
-1.884794e-07
-2.51113e-07
-2.634824e-07
-1.755684e-07
-0.0003350465
0.0003360845
-3.220686e-08
-1.140161e-07
-5.941732e-08
-3.436409e-07
-3.131965e-07
-2.118997e-08
-0.0003365743
0.0003367778
-9.742168e-08
2.103221e-07
-5.297746e-08
-2.553929e-07
1.308781e-08
-2.673242e-07
-0.0003365991
0.0003368246
2.55487e-08
7.005011e-07
-2.986538e-07
-1.830576e-07
-2.024934e-07
-3.572731e-07
-0.0003370906
0.0003377638
8.273604e-08
3.104034e-07
-3.181684e-07
-1.867183e-07
-2.042046e-07
-3.851629e-07
-0.0003385286
0.0003393695
4.241189e-08
3.431783e-07
-2.952645e-07
-2.754622e-07
-2.705157e-07
-4.075131e-08
-0.0003398396
0.0003402435
-1.608088e-08
3.995868e-07
1.413982e-07
-4.205693e-07
-4.675328e-07
-1.810541e-07
-0.0003409642
0.0003415385
-1.112219e-08
3.535613e-07
-1.315158e-07
-3.549219e-07
-2.491911e-07
-4.500722e-07
-0.0003417091
0.0003418773
-1.036741e-08
1.120344e-06
-4.811898e-07
-6.749e-08
-2.794383e-07
-4.825157e-07
-0.0003421133
0.0003425146
-4.672297e-08
1.150905e-06
-5.358856e-07
-2.143316e-07
-2.727339e-07
-4.647902e-07
-0.0003431497
0.0003442049
-2.68067e-08
5.168407e-07
-3.471773e-07
-3.586904e-07
-3.74598e-07
-3.251148e-07
-0.0003448595
0.0003455428
3.531339e-08
8.779451e-07
4.769786e-08
-7.086012e-07
-6.10543e-07
-8.557449e-07
-0.000345352
0.0003463749
7.338514e-08
1.774294e-06
-8.414743e-07
-5.80273e-07
-5.931355e-07
-1.271343e-06
-0.0003463334
0.0003478299
1.197973e-07
1.471824e-06
-7.715155e-07
-6.378205e-07
-4.074664e-07
-4.647103e-07
-0.0003472085
0.0003469907
1.825689e-07
1.640765e-06
-3.080477e-07
-6.677488e-07
-1.650718e-07
-2.579612e-06
-0.0003475562
0.0003491269
2.621756e-07
3.758227e-06
-1.419152e-06
-8.910279e-07
-7.01262e-07
-7.616964e-07
-0.000346815
0.0003464544
5.898432e-08
1.890231e-06
-4.445893e-07
-5.595511e-07
1.772554e-07
-1.37629e-06
-0.0003461394
0.0003484576
6.363538e-08
1.810648e-06
-1.414877e-06
-1.073614e-06
-3.277334e-07
-1.269098e-06
-0.0003490395
0.0003512902
7.562042e-08
2.219483e-06
-8.184445e-07
-1.94133e-06
-5.168556e-07
-1.058609e-06
-0.0003514272
0.0003523201
-1.196662e-07
3.198793e-06
-4.055687e-07
-2.198452e-06
-3.093967e-07
-1.480245e-06
-0.0003517975
0.0003523267
9.135409e-08
4.25337e-06
-9.730401e-07
-2.434709e-06
1.39969e-08
-1.471648e-06
-0.0003508796
0.0003517437
2.240677e-07
5.676778e-06
-1.38373e-06
-2.843947e-06
-1.065628e-06
-2.377153e-06
-0.0003513783
0.000359534
1.438724e-07
8.369172e-06
-2.830251e-06
-5.693153e-06
-5.768149e-06
-8.678013e-06
-0.0003626852
0.0003820244
-4.018691e-07
9.310156e-06
-1.235082e-05
-1.360287e-06
-5.858403e-06
-3.544021e-06
-0.000361169
0.0003601538
2.122532e-07
2.68007e-05
-1.178638e-05
-3.733505e-06
-6.933764e-06
-6.261525e-07
-0.0003499787
0.0003446306
-1.357334e-07
-1.732123e-07
1.601166e-06
2.114826e-06
2.567249e-06
3.82845e-06
-0.0003406775
0.0003393503
-5.216193e-07
-1.475982e-05
4.294058e-06
3.517187e-06
4.96893e-06
4.446539e-06
-0.0003410119
0.0003433788
-6.136595e-07
-1.941685e-05
4.245956e-06
4.623914e-06
4.347189e-06
2.94077e-06
-0.0003462028
0.000347983
-2.963296e-07
-1.127314e-05
2.293742e-06
2.470922e-06
2.083787e-06
8.008016e-07
-0.0003509277
0.0003542612
-1.632849e-07
-6.286088e-06
6.036839e-07
9.421546e-07
7.692329e-07
2.466947e-07
-0.0003569683
0.0003587993
-7.076853e-08
-2.703926e-06
2.124572e-07
2.578269e-07
2.267709e-07
2.574408e-08
-0.0003601589
0.0003603807
1.848688e-08
-7.215329e-07
2.508355e-07
1.206221e-07
8.408701e-08
2.169292e-07
-0.0003604971
0.0003603561
-2.811634e-08
-4.022908e-07
2.215081e-07
2.712224e-07
-1.383123e-07
2.260427e-08
-0.0003602478
0.0003601176
-7.342068e-09
3.665182e-07
-1.051611e-07
3.137776e-08
-1.777112e-07
-9.875988e-08
-0.0003607193
0.0003615449
-5.697435e-08
1.224764e-08
-1.66659e-07
-2.645519e-07
-2.509065e-07
-8.427538e-08
-0.0003623233
0.0003628284
-1.395027e-08
2.245831e-07
-2.763198e-07
-1.871919e-07
-1.679914e-07
-2.203994e-07
-0.0003635551
0.0003637254
3.320241e-08
4.486484e-07
-1.13952e-07
-8.206629e-08
-2.357495e-07
-2.688978e-07
-0.0003638115
0.0003642899
1.228391e-08
7.212655e-07
-3.162079e-07
-2.845938e-07
-3.423001e-07
-4.204923e-07
-0.0003648441
0.00036576
2.180035e-08
7.25182e-07
-4.162864e-07
-3.919068e-07
-4.342188e-07
-2.840025e-07
-0.0003668596
0.000367935
4.505899e-08
2.505008e-07
-3.374582e-07
-4.075087e-07
-3.419212e-07
-4.131889e-07
-0.0003685438
0.0003685993
8.034518e-08
1.407465e-06
-2.853031e-07
-4.795607e-07
-3.652755e-07
-5.745304e-07
-0.0003691075
0.0003703009
3.527546e-08
1.173984e-06
-6.374396e-07
-5.71655e-07
-6.190013e-07
-5.744282e-07
-0.0003719124
0.0003734774
-5.454331e-08
5.98294e-07
-5.415042e-07
-5.10337e-07
-4.824449e-07
-3.805064e-07
-0.0003746554
0.0003757795
-1.713643e-08
4.021431e-07
-3.613603e-07
-2.956897e-07
-4.715114e-07
-3.851348e-07
-0.0003762629
0.0003768036
-3.668106e-08
9.405082e-07
-3.900883e-07
-3.201505e-07
-3.491148e-07
-3.681036e-07
-0.000377684
0.000378698
-3.867705e-08
4.771797e-07
-3.660804e-07
-3.647766e-07
-3.535258e-07
-3.074214e-07
-0.00037952
0.0003800159
-1.383653e-08
7.328422e-07
-2.91461e-07
-3.120364e-07
-3.039783e-07
-2.126224e-07
-0.0003803204
0.0003802726
-1.044221e-08
1.137024e-06
-2.178394e-07
-3.798471e-07
-2.684821e-07
-5.270066e-07
-0.0003799137
0.000379918
1.84651e-08
1.483448e-06
-3.608839e-07
-2.831453e-07
-3.351306e-07
-5.024651e-07
0.000380685
1.288755e-08
1.443758e-06
-0.0003800155
-5.533831e-07
-5.259583e-07
-5.443229e-07
-5.755553e-07
-0.000381635
0.0003827064
-1.73373e-08
1.166529e-06
-5.567449e-07
-5.508552e-07
-5.374093e-07
-4.571339e-07
-0.0003834158
0.0003841828
-3.292227e-08
1.026781e-06
-4.469604e-07
-4.351615e-07
-4.215544e-07
-2.631136e-07
-0.0003843549
0.0003841095
3.375351e-09
1.250701e-06
-2.688026e-07
-2.50846e-07
-2.258756e-07
8.088066e-08
-0.0003833886
0.0003820556
8.592023e-08
1.135808e-06
1.223298e-07
1.518866e-07
-2.438177e-07
-1.683288e-07
-0.0003812064
0.0003806171
2.240884e-08
1.735632e-06
-4.303535e-07
-1.458233e-07
-4.242959e-07
-6.363864e-07
-0.0003815591
0.0003832868
-5.676853e-08
9.03658e-07
-6.53787e-07
-6.326648e-07
-6.517773e-07
-5.680413e-07
-0.0003848224
0.0003862003
-4.542971e-08
9.231541e-07
-5.564957e-07
-5.715283e-07
-5.595781e-07
-4.885098e-07
-0.0003872658
0.0003883822
-3.080804e-08
9.407311e-07
-5.50837e-07
-4.998717e-07
-4.870465e-07
-4.589318e-07
-0.0003890834
0.0003894854
1.093851e-08
1.362196e-06
-4.585342e-07
-4.327653e-07
-4.249447e-07
-3.422537e-07
-0.0003893275
0.0003892384
3.760705e-08
1.583347e-06
-3.503322e-07
-3.141119e-07
-5.251763e-07
-1.647942e-07
-0.0003886675
0.0003876438
2.842599e-08
1.830669e-06
-2.471662e-08
-3.27338e-07
-3.185752e-07
-3.668052e-08
-0.0003870487
0.0003859476
6.076079e-08
1.386225e-06
-2.560265e-07
3.681253e-08
-9.002298e-08
-2.004163e-07
-0.0003854279
0.000384655
-4.227753e-08
1.361077e-06
2.623129e-08
-4.204019e-08
-3.29654e-07
-5.339972e-07
-0.0003869679
0.0003862957
5.793134e-08
7.653913e-07
7.49293e-07
-3.595403e-08
-3.305061e-07
-2.991393e-07
-0.0003867988
0.0003858847
-5.325021e-08
1.109576e-06
5.140171e-07
-7.365609e-08
-2.834848e-07
-3.147468e-07
-0.0003863067
0.0003862578
-1.045509e-07
8.002426e-07
2.162505e-07
-1.80463e-07
-3.679062e-07
-6.700304e-07
-0.0003871432
0.0003868828
-1.026076e-07
1.925812e-06
2.812241e-08
-3.796448e-07
-5.411639e-07
-6.788932e-07
-0.0003879035
0.0003872915
-7.997459e-09
1.769507e-06
2.185979e-07
-3.020884e-07
-3.871594e-07
-5.555703e-07
-0.0003879544
0.0003863173
1.016961e-07
2.217838e-06
2.693099e-07
-1.565985e-07
-2.396026e-07
-3.110029e-07
-0.0003863805
0.0003853933
-3.181343e-08
2.563759e-06
-9.000346e-08
-4.842643e-07
-6.59479e-07
-9.27114e-07
-0.0003867961
0.0003863423
-1.49183e-07
3.129455e-06
-3.132543e-07
-5.567525e-07
-7.294057e-07
-1.049964e-06
-0.0003871421
0.000385713
-1.300044e-07
4.876681e-06
-5.426577e-07
-7.754134e-07
-9.495444e-07
-1.338451e-06
-0.0003837686
0.0003769568
1.524557e-07
1.154399e-05
-9.359853e-07
-1.189109e-06
-1.421097e-06
-3.847206e-06
-0.0003611794
0.0003336698
3.296763e-07
4.605121e-05
-4.988607e-06
-4.025677e-06
-6.00979e-06
-1.334158e-05
-7.342703e-05
8.181951e-05
-1.075997e-07
5.056693e-06
2.502172e-06
-7.499899e-05
7.250527e-05
3.662659e-08
-4.507663e-08
4.969593e-06
-7.738031e-05
7.812078e-05
1.54419e-07
-5.864483e-06
2.920794e-06
-8.412598e-05
8.477449e-05
9.530057e-08
-3.664598e-06
1.180823e-06
-9.022239e-05
9.213639e-05
5.430842e-08
-3.149129e-06
2.147673e-07
-9.43431e-05
9.482531e-05
-6.185725e-08
-6.351244e-07
-1.086114e-07
-9.612454e-05
9.650486e-05
-4.747482e-09
-2.669686e-07
-2.156563e-07
-9.75552e-05
9.763107e-05
1.708291e-08
1.227049e-07
-4.083852e-07
-9.785692e-05
9.802168e-05
1.663974e-08
2.269878e-07
-3.27123e-07
-9.827215e-05
9.842948e-05
7.537133e-09
1.622554e-07
-4.281888e-07
-9.869243e-05
9.87169e-05
7.864916e-09
3.958582e-07
-4.51043e-07
-9.878044e-05
9.879038e-05
6.303311e-09
4.347972e-07
-3.711059e-07
-9.888108e-05
9.898009e-05
3.399736e-09
2.686998e-07
-4.171918e-07
-9.918958e-05
9.917184e-05
1.403047e-09
4.33529e-07
-3.742779e-07
-9.936333e-05
9.951585e-05
1.459061e-08
2.071611e-07
-3.857516e-07
-9.984153e-05
9.986528e-05
6.224293e-09
3.557757e-07
-4.827741e-07
-9.990762e-05
9.990274e-05
4.42117e-09
4.832296e-07
-4.744349e-07
-9.984471e-05
9.989555e-05
-1.210598e-08
4.356976e-07
-5.509906e-07
-0.0001001228
0.0001002824
-4.273497e-08
4.341718e-07
-3.379334e-07
-0.000100364
0.0001006469
3.023366e-09
5.20108e-08
-4.595175e-07
-0.0001007655
0.000100748
2.35103e-08
4.535265e-07
-5.124784e-07
-0.0001007393
0.0001007506
1.332687e-08
4.878366e-07
-5.650318e-07
-0.0001006929
0.0001005986
2.528126e-10
6.590669e-07
-4.493398e-07
-0.0001003269
0.0001004513
1.512495e-08
3.098182e-07
-4.862475e-07
-0.0001006506
0.0001007547
8.763777e-09
3.733548e-07
-4.432039e-07
-0.0001008285
0.000100854
-1.975189e-09
4.197289e-07
-5.461691e-07
-0.0001009299
0.0001008356
-5.352882e-09
6.458684e-07
-5.781798e-07
-0.0001005614
0.0001004912
-9.927105e-09
6.583264e-07
-5.570357e-07
-0.000100247
0.0001001851
-1.439466e-09
6.20358e-07
-2.930539e-07
-0.0001002518
0.0001004313
1.135429e-08
1.022124e-07
-4.409178e-07
-0.0001009003
0.0001008828
3.408163e-08
4.243314e-07
-4.733846e-07
-0.0001009713
0.0001009606
2.723665e-08
4.568349e-07
-4.53033e-07
-0.0001011279
0.0001012357
-1.467772e-08
3.599837e-07
-3.564756e-07
-0.0001015035
0.0001016289
-1.735293e-08
2.483994e-07
-4.189484e-07
-0.0001019671
0.000102097
-2.134266e-08
3.104058e-07
2.576534e-07
-0.0001029035
0.0001028963
-1.94532e-08
-2.310003e-07
2.380974e-07
-0.0001027679
0.0001026334
-4.036957e-09
-9.958884e-08
3.290249e-07
-0.0001019456
0.0001017329
-1.752556e-08
-9.886445e-08
4.665558e-07
-0.0001012744
0.0001011831
-2.441616e-08
-3.508585e-07
7.401405e-07
-0.0001016651
0.0001017047
7.352068e-09
-7.871154e-07
6.317354e-07
-0.0001019456
0.000101978
5.426871e-09
-6.696127e-07
5.290147e-07
-0.0001020732
0.0001021016
-1.803555e-08
-5.39425e-07
5.275168e-07
-0.0001021365
0.0001021479
-1.19655e-08
-5.269444e-07
4.635112e-07
-0.0001021404
0.0001022036
-1.994934e-10
-5.265497e-07
4.873126e-07
-0.000102241
0.0001021988
-9.547784e-09
-4.355097e-07
4.553586e-07
-0.0001021165
0.0001020939
-2.666355e-08
-4.060572e-07
6.475308e-07
-0.0001022663
0.0001022878
-6.696643e-09
-6.62296e-07
6.160014e-07
-0.0001024401
0.0001024672
1.647436e-08
-6.596228e-07
5.647907e-07
-0.0001026002
0.0001026435
1.711122e-09
-6.097661e-07
5.296635e-07
-0.0001027511
0.0001028058
-4.203179e-09
-5.801379e-07
5.580748e-07
-0.000102927
0.000102956
-7.911624e-09
-5.791102e-07
4.564931e-07
-0.0001032693
0.0001036013
-4.016591e-08
-7.484069e-07
8.333585e-07
-0.0001035871
0.0001037562
3.488965e-08
-1.037342e-06
4.972626e-07
-0.0001038227
0.0001039379
5.742501e-08
-6.698717e-07
4.517701e-07
-0.0001039267
0.0001039204
1.170024e-08
-4.57179e-07
4.320837e-07
-0.000103773
0.0001036996
8.332833e-09
-3.670587e-07
5.051698e-07
-0.0001036138
0.0001035908
1.274974e-08
-4.949507e-07
6.236314e-07
-0.0001036354
0.0001036503
-3.444772e-09
-6.35077e-07
5.209206e-07
-0.0001037429
0.0001037494
-2.410426e-08
-5.032908e-07
5.558495e-07
-0.0001039239
0.0001040163
-3.458898e-08
-6.137415e-07
4.371006e-07
-0.0001043604
0.0001043383
-3.50138e-08
-3.799648e-07
6.135885e-07
-0.0001045467
0.000104579
2.395683e-08
-6.698567e-07
4.844128e-07
-0.0001044831
0.0001044279
2.27975e-08
-4.520079e-07
4.554807e-07
-0.0001043896
0.0001043034
1.152795e-08
-3.807943e-07
4.14622e-07
-0.0001041802
0.0001040393
5.326981e-08
-3.270236e-07
3.100773e-07
-0.000103516
0.0001033585
3.872131e-08
-1.912443e-07
3.291814e-07
-0.0001028039
0.0001026518
1.688558e-09
-1.788082e-07
3.410727e-07
-0.0001028388
0.0001024969
-8.675197e-08
8.756971e-08
-2.892896e-07
-0.0001017773
0.000101115
3.584284e-08
9.158281e-07
-7.595654e-06
-9.575398e-05
9.456527e-05
-5.439304e-08
8.838754e-06
5.822831e-06
-8.725643e-05
0.0003785032
-6.257993e-08
1.405974e-05
-2.23835e-06
7.085308e-06
-1.787283e-06
-8.509734e-05
-0.0001156105
-0.0001134187
1.019214e-06
-0.0003741318
0.0003822767
1.094233e-08
-1.166251e-05
1.146834e-06
1.083117e-06
2.574783e-07
2.620619e-06
-0.0003902148
0.0003986169
3.564631e-08
-2.37349e-05
4.580379e-06
4.340836e-06
3.755361e-06
2.867139e-06
-0.0004093625
0.0004156054
1.076666e-08
-2.057204e-05
4.744561e-06
3.638431e-06
3.068306e-06
1.912526e-06
-0.0004222063
0.000424757
-8.488287e-09
-1.240484e-05
3.551645e-06
2.438552e-06
1.960005e-06
1.127574e-06
-0.0004277376
0.0004269916
2.088671e-08
-5.518036e-06
2.538332e-06
1.471388e-06
1.105816e-06
9.933119e-07
-0.000427544
0.0004250566
7.540215e-08
-3.338368e-06
2.520953e-06
1.305498e-06
9.306267e-07
9.758146e-07
-0.0004244692
0.0004227377
4.256965e-08
-3.266441e-06
2.038462e-06
1.106488e-06
8.345319e-07
3.298863e-07
-0.0004239112
0.0004238787
-1.590989e-07
-3.219149e-06
1.703096e-06
8.130487e-07
5.647004e-07
3.898553e-07
-0.0004256006
0.0004250347
-1.798469e-07
-3.172943e-06
1.800828e-06
1.039566e-06
6.88456e-07
4.363534e-07
-0.0004265057
0.0004250875
1.34881e-07
-2.311964e-06
2.036843e-06
7.770162e-07
3.450268e-07
2.141169e-07
-0.0004258423
0.000424862
4.547943e-08
-2.490434e-06
1.54368e-06
1.232118e-06
4.353932e-07
9.208835e-08
-0.0004265982
0.0004269309
2.174224e-09
-2.282617e-06
1.105243e-06
3.766457e-07
3.73739e-07
1.948965e-07
-0.0004282668
0.00042938
-1.968336e-08
-2.406601e-06
4.361341e-07
2.846072e-07
3.973821e-07
3.475737e-07
-0.0004305904
0.0004320323
-8.919141e-08
-3.133865e-06
4.159948e-07
5.095152e-07
5.080471e-07
6.605565e-07
-0.0004329696
0.0004338083
-7.864012e-08
-3.401689e-06
6.910788e-07
6.353365e-07
6.546776e-07
1.227778e-06
-0.0004336046
0.0004330837
4.566197e-08
-3.6053e-06
6.455803e-07
1.043858e-06
1.16333e-06
1.169543e-06
-0.000431568
0.0004297391
6.083083e-08
-2.197357e-06
8.948667e-07
7.806138e-07
1.120417e-06
9.112267e-07
-0.0004288393
0.0004282345
-4.170125e-09
-2.392845e-06
5.826692e-07
9.172262e-07
5.907038e-07
9.438688e-07
-0.0004272481
0.0004266337
-2.430416e-08
-2.487684e-06
8.517021e-07
6.957525e-07
6.350546e-07
6.980215e-07
-0.0004264815
0.0004262047
-1.042826e-08
-2.38053e-06
7.927526e-07
5.815548e-07
5.954188e-07
3.530418e-07
-0.0004266566
0.0004279438
1.768343e-08
-2.692387e-06
3.109192e-07
3.740977e-07
3.494492e-07
2.789969e-07
-0.0004297284
0.0004315058
-9.758072e-08
-2.927877e-06
2.799734e-07
3.365681e-07
3.525319e-07
3.894335e-07
-0.0004329943
0.0004337987
-7.184463e-08
-2.613753e-06
4.280948e-07
5.032118e-07
5.603974e-07
7.240666e-07
-0.0004342071
0.000434126
2.379227e-08
-2.606168e-06
6.920018e-07
5.069171e-07
7.404811e-07
4.24941e-07
-0.0004338814
0.0004340225
3.377512e-09
-2.387066e-06
6.327242e-07
6.260915e-07
5.588236e-07
4.818263e-07
-0.0004342866
0.0004350326
6.548967e-08
-2.549889e-06
4.34798e-07
4.139382e-07
4.07864e-07
3.935893e-07
-0.0004360838
0.0004370947
2.502398e-08
-2.641151e-06
4.049085e-07
3.983237e-07
4.083667e-07
4.532265e-07
-0.0004379511
0.0004385457
3.744097e-08
-2.478057e-06
4.671917e-07
4.567654e-07
4.688313e-07
5.272148e-07
-0.0004390964
0.0004396056
-5.732889e-08
-2.545611e-06
5.368058e-07
5.083005e-07
5.213982e-07
5.621253e-07
-0.0004400198
0.000440452
-4.271287e-08
-2.774053e-06
5.637213e-07
6.341536e-07
6.246071e-07
6.139448e-07
-0.0004407836
0.0004409319
1.227182e-08
-2.635996e-06
6.221709e-07
6.131825e-07
6.260792e-07
8.444415e-07
-0.0004407581
0.0004403726
7.578568e-08
-2.96706e-06
7.9803e-07
8.018757e-07
8.323935e-07
1.105319e-06
-0.0004385844
0.0004366795
5.680868e-08
-2.699657e-06
1.235445e-06
1.333768e-06
8.731943e-07
7.098016e-07
-0.0004349964
0.0004343921
1.026288e-09
-2.675213e-06
8.432242e-07
1.025131e-06
7.003384e-07
4.806014e-07
-0.0004349556
0.0004355477
1.654622e-08
-2.414903e-06
4.45498e-07
4.497425e-07
4.303706e-07
2.742199e-07
-0.00043641
0.0004374494
2.731857e-08
-2.132398e-06
2.641296e-07
2.68241e-07
2.591333e-07
2.806214e-07
-0.0004385153
0.0004395242
3.948993e-09
-2.151507e-06
3.043439e-07
2.664055e-07
2.872305e-07
4.815541e-07
-0.0004400547
0.0004401044
-1.515073e-08
-1.948945e-06
5.580312e-07
4.146528e-07
4.602102e-07
3.841475e-07
-0.000439507
0.0004392792
-3.69632e-08
-2.128005e-06
6.741671e-07
6.730881e-07
6.613298e-07
5.641714e-07
-0.0004389837
0.0004393964
-7.24027e-08
-2.357132e-06
4.821818e-07
4.856825e-07
4.847388e-07
4.317344e-07
-0.000440138
0.0004408058
-5.017243e-08
-2.45684e-06
4.39548e-07
4.872861e-07
4.805583e-07
4.834223e-07
-0.000441306
0.0004414942
7.442395e-08
-2.172178e-06
4.952384e-07
4.646487e-07
4.662491e-07
7.558916e-07
-0.000441237
0.0004402251
9.75823e-08
-1.873402e-06
8.183994e-07
5.825914e-07
6.308808e-07
9.726407e-07
-0.0004394203
0.0004377179
-4.947949e-09
-1.423812e-06
7.54586e-07
6.946677e-07
7.093096e-07
4.941616e-07
-0.0004360934
0.0004348801
1.07638e-08
-1.195256e-06
6.941532e-07
5.611232e-07
6.482734e-07
2.152482e-07
-0.0004340988
0.0004344856
-2.768305e-08
-1.182942e-06
1.332004e-07
3.011832e-07
1.741764e-07
3.142704e-08
-0.0004357554
0.0004369257
-1.512866e-09
-1.301333e-06
3.215756e-08
3.6063e-08
3.288874e-08
-1.332068e-08
-0.0004378899
0.0004386866
8.17517e-08
-7.962989e-07
-2.118762e-08
-1.936976e-08
-2.817639e-08
-2.971612e-08
-0.000439002
0.0004387234
1.389288e-08
5.040211e-07
-4.121693e-08
-6.393966e-08
-1.045235e-07
-4.752599e-07
-0.0004377704
0.0004367401
1.282021e-09
2.336477e-06
-3.991581e-07
-1.670159e-07
-2.660542e-07
-1.330866e-06
-0.0004354041
0.0004346529
9.408171e-08
6.518169e-06
-1.751135e-06
-1.196241e-06
-1.582885e-06
-5.419691e-06
-0.0004360219
0.0004440436
1.702358e-07
1.704671e-05
-7.220858e-06
-5.377971e-06
-7.220055e-06
-4.969628e-06
-0.0004491294
0.0004366566
4.291006e-07
2.350466e-05
7.006964e-08
-5.360144e-06
-1.201218e-06
-8.212887e-06
-0.0004610111
0.0004634246
-5.676164e-07
-2.258589e-06
7.547291e-07
2.578238e-06
5.292648e-06
3.908277e-06
-0.0004604892
0.0004597287
-5.972505e-08
-2.335061e-05
4.228873e-06
7.651374e-06
8.382332e-06
6.702834e-06
-0.0004550061
0.0004480853
-1.118017e-08
-2.21269e-05
6.788965e-06
9.74987e-06
5.817148e-06
6.615821e-06
-0.0004390071
0.0004261307
4.263748e-07
-9.991185e-06
6.246869e-06
5.684205e-06
3.894302e-06
-2.06723e-06
-0.0004339351
0.000439372
9.70687e-07
5.250373e-06
-9.386184e-07
-6.185001e-06
-2.467151e-06
7.710424e-07
-0.0004352361
0.000430587
2.003244e-07
-1.818175e-06
-1.493882e-07
1.932827e-06
3.712488e-06
-2.360923e-07
-0.0004291267
0.0004348516
-2.393308e-07
-5.186099e-06
-4.786968e-08
-4.31729e-07
4.162164e-07
7.057664e-07
-0.0004355462
0.0004404389
-1.563587e-07
-5.85143e-06
6.390637e-07
-6.94414e-07
4.646802e-07
1.265911e-07
-0.0004416331
0.0004453335
-1.532563e-07
-3.079213e-06
2.879654e-07
-1.199453e-06
3.168813e-07
2.216338e-08
-0.0004457122
0.0004484813
-1.642918e-07
-2.733218e-06
3.230255e-07
-5.433456e-07
3.265483e-07
5.931602e-07
-0.0004460703
0.0004459977
8.399963e-08
-2.602999e-06
5.366477e-07
7.13683e-07
7.481129e-07