/*--------------------------------*- C++ -*----------------------------------*\
| =========                 |                                                 |
| \\      /  F ield         | foam-extend: Open Source CFD                    |
|  \\    /   O peration     | Version:     3.1                                |
|   \\  /    A nd           | Web:         http://www.extend-project.de       |
|    \\/     M anipulation  |                                                 |
\*---------------------------------------------------------------------------*/
FoamFile
{
    version     2.0;
    format      ascii;
    class       volScalarField;
    location    "15";
    object      alpha1;
}
// * * * * * * * * * * * * * * * * * * * * * * * * * * * * * * * * * * * * * //

dimensions      [0 0 0 0 0 0 0];

internalField   nonuniform List<scalar> 
119952
(
1
1
1
1
1
1
1
1
1
1
1
0.9999999
1
1
0.9999999
1
1
1
0.9999998
1
1
1
1
0.9999999
1
1
1
0.9999998
1
1
1
0.9999999
1
0.9999999
1
1
0.9999999
1
0.9999999
1
0.9999999
1
0.9999999
1
1
0.9999998
1
1
1
1
1
1
1
1
1
1
0.9999998
1
1
0.9999999
0.9999999
1
0.9999999
1
1
0.9999999
0.9999999
1
1
1
1
1
1
1
1
1
1
1
1
1
1
1
1
1
1
1
1
0.9999998
0.9999998
0.9999998
1
1
1
1
1
1
1
1
1
0.9999999
0.9999999
1
1
1
1
1
0.9999999
1
1
1
1
1
1
1
1
1
1
1
1
1
1
1
1
1
1
1
1
1
1
1
1
1
1
1
1
1
1
1
1
1
1
1
1
1
1
1
1
1
1
1
1
1
1
1
1
1
1
1
1
1
1
1
1
1
1
1
1
1
1
1
1
1
0.9999999
1
1
1
0.9999998
0.9999999
1
1
1
0.9999999
0.9999997
1
1
1
1
1
1
1
1
1
0.9999998
0.9999999
1
1
1
1
1
1
1
1
1
1
1
1
1
1
1
1
1
1
1
1
1
1
1
1
1
1
1
1
1
1
1
1
1
1
1
1
1
1
1
1
1
1
1
1
1
1
1
1
1
1
1
1
1
1
1
1
1
1
1
1
1
1
1
1
1
1
1
1
1
1
1
1
1
1
1
1
1
1
1
1
1
1
1
1
1
1
1
1
1
1
1
1
1
1
1
1
1
1
0.9999998
1
1
0.9999999
0.9999999
1
0.9999993
0.9999995
0.9999994
0.9999999
1
0.9999997
0.9999994
1
1
1
1
0.9999994
0.9999996
1
1
1
1
1
0.9999997
0.9999999
1
1
1
1
0.9999991
0.9999998
1
1
0.9999994
0.9999998
1
1
1
1
1
1
1
1
1
1
0.9999992
0.9999994
1
1
1
0.999998
0.9999994
1
1
0.9999998
0.9999999
1
1
1
1
1
1
1
1
1
1
1
0.9999999
0.9999973
0.9999997
1
1
0.9999989
0.9999974
0.9999998
1
1
1
1
1
1
1
1
1
1
1
0.9999969
0.9999971
0.9999999
1
1
1
0.9999967
0.9999921
0.9999993
1
1
1
0.9999979
0.9999514
0.999979
0.9999999
1
1
1
0.9999966
0.9994821
0.9993125
0.9999871
0.9999209
0.9998248
0.9999578
0.9999949
1
0.9999999
1
1
1
1
1
1
1
0.9999999
0.9999998
1
1
1
1
0.9999997
0.9999999
1
1
0.9999999
1
1
0.9999999
1
1
1
0.9999999
1
1
0.9999999
1
1
0.9999999
1
1
1
1
0.9999998
1
1
1
1
1
0.9999999
1
0.9999999
1
1
1
1
1
1
1
1
1
1
1
1
1
1
1
1
1
1
1
1
1
1
1
1
1
0.9999999
0.9999999
1
1
1
1
1
1
1
1
1
0.9999999
0.9999999
1
1
1
1
1
1
1
1
1
1
0.9999999
0.9999998
0.9999998
1
1
1
1
0.9999999
0.9999997
0.9999996
0.9999998
1
1
1
1
1
1
1
1
1
1
1
1
1
1
1
1
1
1
1
1
1
1
1
1
1
1
1
1
1
1
1
1
1
1
1
1
1
1
1
1
1
1
1
1
1
1
1
1
1
1
1
1
1
1
1
1
1
1
1
1
0.9999999
0.9999999
0.9999999
1
1
1
1
1
1
1
1
1
1
1
1
1
1
1
1
1
1
1
1
1
1
1
1
1
1
1
1
1
1
1
1
1
1
1
1
1
1
1
1
1
1
1
1
1
1
1
1
1
1
1
1
1
1
1
1
1
1
1
1
1
1
1
1
1
1
1
1
1
1
1
1
1
1
1
1
1
1
1
1
1
1
1
1
1
1
1
1
1
0.9999992
0.9999996
1
1
1
1
1
1
1
1
1
1
1
1
1
1
1
0.9999997
0.9999932
0.9999534
0.9999367
0.9999567
0.9999911
0.9999996
1
1
1
1
1
1
1
1
1
1
1
1
1
1
1
1
1
1
1
1
1
1
1
1
1
1
1
1
1
1
1
1
1
1
1
1
1
1
1
1
1
1
0.9999999
0.9999998
0.9999999
1
0.9999998
0.9999992
0.9999994
0.9999998
1
1
1
1
1
1
1
1
0.9999992
0.9999981
0.9999982
0.9999993
0.9999999
1
0.9999999
0.9999984
0.9999966
0.9999966
0.9999973
0.9999991
0.9999999
1
1
0.9999994
0.9999975
0.9999978
0.9999991
0.9999999
1
1
1
1
1
1
1
1
1
1
1
1
1
0.9999998
0.9999995
0.9999997
0.9999999
1
1
1
1
1
1
1
1
1
1
0.9999999
0.9999998
0.9999999
1
1
1
1
1
1
1
1
1
1
1
1
1
1
0.9999998
0.9999996
0.9999996
0.9999983
0.9999827
0.9997486
0.9983825
0.9980777
0.9980777
0.9986079
1
0.9999999
1
0.9999999
1
1
0.9999999
1
1
0.9999999
1
1
1
1
1
1
1
1
1
1
1
1
1
1
1
1
1
1
1
1
1
1
1
1
1
1
1
1
1
1
1
1
1
1
1
1
1
1
1
1
1
1
1
1
1
1
1
1
1
1
1
1
1
1
1
1
1
1
1
1
1
1
1
1
1
1
1
1
1
1
1
1
1
1
1
1
1
1
1
1
1
1
0.9999999
0.9999984
0.9999944
0.9999909
0.9999943
0.9999987
0.9999999
1
1
1
1
1
1
1
1
1
1
1
0.9999999
1
1
1
1
1
1
1
1
1
0.9999999
0.9999999
0.9999999
1
1
1
1
1
1
1
1
1
1
1
1
1
0.9999997
0.9999974
0.9999831
0.9999403
0.9999074
0.9999394
0.999982
0.9999974
0.9999984
0.9999974
0.999991
0.9999718
0.9999708
0.999976
0.9999857
0.9999965
0.9999998
1
1
1
1
1
1
1
1
0.9999999
0.9999996
0.9999985
0.9999978
0.9999987
0.9999997
1
1
1
1
1
1
1
1
1
1
1
1
1
1
1
1
1
1
1
1
1
1
1
1
1
1
1
1
1
1
1
0.9999998
0.9999992
0.9999972
0.9999924
0.999991
0.9999951
0.9999992
1
1
1
1
1
1
1
1
1
1
1
1
1
1
1
1
0.9999999
0.9999998
0.9999999
1
1
1
1
1
1
1
1
1
1
1
1
1
1
1
1
1
1
1
1
1
1
1
1
1
1
1
1
1
1
1
1
1
1
1
1
1
1
1
1
1
1
1
1
1
1
1
1
1
1
1
1
1
1
1
1
1
1
1
1
1
1
1
1
1
0.9999999
0.9999997
0.999999
0.9999983
0.9999986
0.9999995
0.9999999
1
1
1
1
1
1
1
1
1
1
0.9999999
0.9999997
0.9999989
0.9999951
0.999977
0.9998808
0.9995885
0.9995831
0.9998389
0.999978
0.9999987
0.9999999
1
1
1
1
1
1
1
1
1
0.9999999
0.9999998
0.9999996
0.9999997
0.9999999
1
1
1
1
1
1
1
1
1
1
1
1
1
1
1
1
1
1
1
1
1
1
1
1
1
1
1
1
1
1
1
1
0.9999999
0.9999999
1
1
1
1
1
1
0.9999996
0.9999992
0.9999993
0.9999998
0.9999999
0.9999999
0.9999992
0.9999987
0.9999995
0.9999999
1
1
1
0.9999998
0.9999982
0.9999966
0.9999966
0.9999974
0.9999994
0.9999999
0.9999994
0.999997
0.9999967
0.9999967
0.9999987
0.9999999
1
1
1
1
1
1
1
1
1
1
1
1
1
1
1
1
1
1
1
1
1
1
1
1
1
1
1
1
1
0.9999999
0.9999999
0.9999999
1
1
1
1
1
1
1
1
1
1
1
1
0.9999998
0.999999
0.9999964
0.9999896
0.9999835
0.9999817
0.9999762
0.9999178
0.9987607
1
1
1
0.9999999
0.9999999
1
1
1
1
1
1
1
1
1
1
1
1
1
1
1
1
1
1
1
1
1
1
1
1
1
1
1
1
1
1
1
1
1
1
1
1
1
1
1
1
1
1
1
1
1
1
1
1
1
1
1
1
1
1
1
1
1
1
1
1
1
1
1
1
1
0.9999999
0.9999999
0.9999999
1
1
1
1
1
1
1
1
1
1
1
1
1
1
1
1
1
1
1
1
1
1
1
1
1
1
1
1
0.9999999
0.9999988
0.9999834
0.9998885
0.9995877
0.9994595
0.9996172
0.9998697
0.9999774
0.9999975
0.9999998
0.9999999
0.9999999
0.9999999
0.9999999
0.9999999
0.9999999
0.9999999
0.9999999
0.9999999
0.9999999
1
1
1
1
1
1
1
1
1
1
1
0.9999999
0.9999999
1
1
1
1
1
1
1
1
1
1
0.9999999
0.9999987
0.9999794
0.9998331
0.9992328
0.9976812
0.9975693
0.9986101
0.9997143
0.9999226
0.999864
0.9995867
0.998544
0.9963119
0.9952964
0.9965403
0.9990477
0.9999213
0.9999982
0.9999994
0.9999995
0.9999995
0.9999995
0.9999993
0.999998
0.9999887
0.9999269
0.9995857
0.9992196
0.9995418
0.9999099
0.9999959
0.9999999
1
1
1
1
1
1
1
1
1
1
1
1
1
1
1
1
1
1
1
1
1
1
1
1
1
1
1
1
1
0.9999997
0.9999986
0.9999953
0.9999854
0.9999582
0.999919
0.9999213
0.9999686
0.9999965
0.9999999
1
1
1
1
1
1
1
1
1
1
1
1
1
1
1
0.9999999
0.9999994
0.9999992
0.9999995
0.9999999
1
1
1
1
1
1
1
1
1
1
1
1
1
1
1
1
1
1
1
1
1
1
1
1
1
1
1
1
1
1
1
1
1
1
1
1
1
1
1
1
1
1
1
1
1
1
1
1
0.9999999
0.9999998
0.9999998
0.9999999
1
1
1
0.9999999
0.9999996
0.9999985
0.9999985
0.9999992
0.9999995
0.9999994
0.9999975
0.9999883
0.9999647
0.9999604
0.9999711
0.9999917
0.9999992
0.9999999
1
1
1
1
1
1
1
1
1
0.9999999
0.9999995
0.9999972
0.999984
0.9999023
0.9993429
0.9968815
0.9964761
0.9983297
0.9997825
0.9999898
0.9999989
0.9999997
0.9999999
1
1
1
1
1
0.9999999
0.9999996
0.9999983
0.9999934
0.999988
0.9999922
0.9999983
0.9999999
1
1
1
1
1
0.9999998
0.9999996
0.9999998
1
1
1
1
1
1
1
1
1
1
1
1
1
1
1
1
1
1
1
1
1
1
1
1
1
1
1
1
1
1
1
1
1
0.9999996
0.9999992
0.9999997
0.9999999
0.9999999
0.999999
0.9999987
0.999999
0.9999997
1
1
1
1
1
0.9999999
0.9999996
0.9999996
0.9999996
0.9999998
1
1
0.9999998
0.999999
0.9999983
0.9999989
0.9999998
1
1
1
1
1
1
1
1
1
1
1
1
1
1
1
1
1
1
1
1
1
1
1
1
1
1
1
1
1
1
1
1
1
1
1
1
1
1
1
1
1
1
1
1
0.9999995
0.999991
0.9999206
0.99989
0.9999443
0.9999905
0.9999989
0.9999982
0.9999388
1
1
1
1
1
1
1
1
1
1
1
1
1
1
1
1
1
1
1
1
1
1
1
1
1
1
1
1
1
1
1
1
1
1
1
1
1
1
1
1
1
1
1
1
1
1
1
1
1
1
1
1
1
1
1
1
1
1
1
1
1
1
1
1
1
1
1
1
1
1
1
1
1
1
1
1
1
1
1
1
1
1
1
1
0.9999999
1
1
1
1
1
1
1
1
1
1
1
1
1
1
1
1
1
1
1
1
1
1
1
1
1
1
0.9999993
0.9999754
0.9996339
0.9976017
0.9926409
0.9926306
0.9960339
0.9990721
0.9998275
0.9997724
0.9997688
0.9998474
0.9999423
0.9999703
0.9999717
0.9999709
0.9999653
0.9999512
0.9999519
0.999981
0.9999984
1
1
1
1
1
1
1
1
1
1
1
1
1
1
1
1
1
1
1
1
1
1
1
0.9999998
0.9999931
0.9998747
0.9983561
0.9879854
0.9722303
0.9746836
0.9897918
0.9985627
0.999867
0.9995199
0.9957327
0.9743035
0.9254042
0.9296972
0.9747829
0.9972417
0.9998496
0.9998979
0.9998078
0.9997261
0.9997334
0.9997919
0.9998396
0.9998154
0.9994978
0.9972997
0.9927436
0.9946167
0.9985891
0.9998797
0.9999953
0.9999999
1
1
1
1
1
1
1
1
1
1
1
1
1
1
1
1
1
1
1
1
1
1
1
1
0.9999999
0.9999997
0.9999997
0.9999997
0.9999998
0.9999998
0.9999977
0.9999662
0.9997589
0.9991739
0.9990125
0.9993015
0.999817
0.9999877
0.9999998
1
1
1
1
1
1
1
1
1
1
1
1
1
1
1
0.9999999
0.9999993
0.9999974
0.9999976
0.9999992
0.9999999
1
1
1
1
1
1
1
1
1
1
1
1
1
1
1
1
1
1
1
1
1
1
1
1
1
1
1
1
1
1
1
1
1
1
1
1
1
1
1
1
1
1
1
1
1
0.9999998
0.9999986
0.9999956
0.9999939
0.9999958
0.9999989
0.9999999
0.9999999
0.9999995
0.9999963
0.9999769
0.9999428
0.9999451
0.9999739
0.9999897
0.9999835
0.9999199
0.9996337
0.9992318
0.9993065
0.9997334
0.9999648
0.9999971
0.999996
0.9999884
0.9999858
0.9999882
0.999993
0.999997
0.9999984
0.9999986
0.9999986
0.9999985
0.9999978
0.9999941
0.9999718
0.9998098
0.9983631
0.9879957
0.9807843
0.9857386
0.9962551
0.9997138
0.9999944
0.9999993
0.9999992
0.9999985
0.9999983
0.9999985
0.9999988
0.9999987
0.9999978
0.9999926
0.9999666
0.9998501
0.9997152
0.9998221
0.9999623
0.9999977
0.9999999
1
1
1
0.9999998
0.999999
0.9999966
0.9999971
0.999999
0.9999999
1
1
1
1
1
1
1
1
1
1
1
0.9999999
0.9999999
0.9999999
1
1
1
1
1
1
1
1
1
1
1
1
1
1
1
1
1
1
1
1
0.9999997
0.9999997
0.9999999
1
0.9999999
0.999999
0.9999986
0.9999988
0.9999995
0.9999999
1
1
1
1
1
1
1
1
1
1
1
1
1
1
1
1
1
1
1
1
1
1
1
1
1
1
1
1
1
1
1
1
1
1
1
1
1
1
1
1
1
1
1
1
1
1
1
1
1
1
1
1
1
1
1
1
1
1
1
0.9999991
0.9999819
0.9998795
0.9998589
0.9998848
0.9999684
0.9999979
0.9999999
0.999992
1
1
1
1
1
1
1
1
1
1
1
1
1
1
1
1
1
1
1
1
1
1
1
1
1
1
1
1
1
1
1
1
1
1
1
1
1
1
1
1
1
1
1
1
1
1
1
1
1
1
1
1
1
1
1
1
1
1
1
1
1
1
1
1
1
1
1
1
1
1
1
1
1
1
1
1
1
1
1
1
1
1
1
1
1
1
1
1
1
1
1
1
1
1
1
1
1
1
1
1
1
1
1
1
1
1
1
1
1
1
1
1
1
1
1
1
1
1
1
0.9999999
0.9999967
0.9999014
0.9982075
0.9822776
0.9531599
0.9555529
0.9825349
0.9975075
0.999721
0.999768
0.9987613
0.9961655
0.9968556
0.9982828
0.9988083
0.9986942
0.9979684
0.9975583
0.9987112
0.9998279
0.9999951
0.9999999
1
1
1
1
1
1
1
1
1
1
1
1
1
1
1
1
1
1
1
1
1
1
0.9999995
0.999989
0.9997134
0.9952854
0.9719608
0.8789236
0.8786981
0.9550111
0.994694
0.9997749
0.9998268
0.9980592
0.9527039
0.7245373
0.7271671
0.9059346
0.9907061
0.9996762
0.9997706
0.9988509
0.9921884
0.9903002
0.9934706
0.9946399
0.989957
0.9686679
0.948627
0.9506401
0.9801779
0.9976978
0.9999014
0.9999987
1
1
1
1
1
1
1
1
0.9999998
0.9999998
0.9999999
1
1
1
1
1
1
1
1
1
1
1
1
1
1
0.9999999
0.9999992
0.9999957
0.9999888
0.9999856
0.9999874
0.9999927
0.9999865
0.9998411
0.9978332
0.9942312
0.9950439
0.9982523
0.9998127
0.9999959
1
1
1
1
1
0.9999998
0.999999
0.999999
0.9999996
0.9999999
1
1
1
1
1
0.9999999
0.9999989
0.9999936
0.9999919
0.9999965
0.9999995
1
1
1
1
1
1
1
1
0.9999999
0.9999999
0.9999999
1
1
1
1
1
1
1
1
1
1
1
1
1
1
1
1
1
1
1
1
1
1
1
1
1
0.9999999
0.9999999
1
1
1
1
1
0.9999999
0.9999994
0.9999948
0.999976
0.9999357
0.9999396
0.9999777
0.9999973
0.9999994
0.9999989
0.9999933
0.9999467
0.9997122
0.9992787
0.9994169
0.9998256
0.9999665
0.9999177
0.9995275
0.9976555
0.9941309
0.9960099
0.9989509
0.9998686
0.9999163
0.9999186
0.9999233
0.9997766
0.9992372
0.9991185
0.9992487
0.9995223
0.9997715
0.9998764
0.9998916
0.9998903
0.9998676
0.9995904
0.9960782
0.9610993
0.9370832
0.954054
0.9879895
0.9986014
0.9998873
0.9999968
0.9999993
0.9999988
0.9999952
0.9999833
0.9999776
0.9999826
0.9999796
0.9999548
0.9998454
0.9992445
0.9976072
0.9978296
0.9992961
0.9999308
0.9999978
1
1
0.9999999
0.9999996
0.9999969
0.9999846
0.9999819
0.9999905
0.9999984
0.9999999
1
1
1
1
1
1
1
1
1
1
0.9999999
0.9999996
0.9999987
0.9999985
0.9999992
0.9999999
1
1
1
1
1
1
1
1
1
1
1
1
1
1
1
1
1
1
1
1
1
1
1
1
0.9999999
0.9999995
0.9999988
0.9999992
0.9999998
1
1
1
1
1
1
1
1
1
1
1
1
1
1
1
1
1
1
1
1
1
1
1
1
1
1
1
1
1
1
1
1
1
1
1
1
1
1
1
1
1
1
1
1
1
1
1
1
1
1
1
1
1
1
1
1
1
1
1
0.9999999
0.9999984
0.9999857
0.9999402
0.9999398
0.9999741
0.9999967
0.9999999
0.9999999
1
1
1
1
1
1
1
1
1
1
1
1
1
1
1
1
1
1
1
1
1
1
1
1
1
1
1
1
1
1
1
1
1
1
1
1
1
1
1
1
1
1
1
1
1
1
1
1
1
1
1
1
1
1
1
1
1
1
1
1
1
1
1
1
1
1
1
1
1
1
1
1
1
1
1
1
1
1
1
1
1
1
1
1
1
1
1
1
1
1
1
1
1
1
1
1
1
1
1
1
1
1
1
1
1
1
1
1
1
1
1
1
1
1
1
1
1
1
1
1
1
1
1
0.9999999
0.9999906
0.9996438
0.9937743
0.9647646
0.8540179
0.8663587
0.9560114
0.9943042
0.9996022
0.999738
0.9997017
0.9989601
0.9955695
0.9886281
0.9741325
0.9583114
0.9570683
0.966547
0.9904708
0.9993857
0.9999871
0.9999999
1
1
1
1
1
1
1
1
1
1
1
1
1
1
1
1
1
1
1
1
0.9999997
0.9999964
0.9999859
0.9999173
0.9995658
0.9937067
0.9427549
0.823603
0.8233729
0.8736452
0.9719704
0.9983805
0.9998454
0.9995503
0.9913379
0.8261176
0.7045379
0.7453844
0.9215369
0.9922698
0.9960591
0.9927121
0.991431
0.9908295
0.9868899
0.9281868
0.6563201
0.5646176
0.5646176
0.6190252
0.8797147
0.9891434
0.999781
0.9999993
1
1
1
0.9999999
0.9999993
0.9999939
0.9999744
0.9999765
0.9999914
0.9999989
1
1
1
1
1
1
0.9999997
0.9999996
0.9999997
0.9999999
1
1
1
0.9999999
0.9999998
0.9999995
0.9999989
0.9999962
0.999936
0.9984804
0.9962174
0.9969496
0.9991477
0.9997713
0.9986563
0.9944144
0.9942312
0.9956594
0.9989589
0.9999409
0.9999993
0.9999998
0.9999995
0.9999969
0.9999854
0.9999844
0.999993
0.9999988
0.9999998
1
1
1
1
1
1
0.9999996
0.9999965
0.999978
0.9999741
0.9999875
0.9999983
0.9999999
1
1
1
1
1
1
0.9999999
0.9999997
0.9999997
0.9999999
1
1
1
1
1
1
1
1
1
1
1
1
0.9999999
0.9999997
0.9999995
0.9999996
0.9999999
1
1
1
1
1
1
0.9999997
0.9999995
0.9999997
0.9999999
1
1
1
1
0.9999999
0.9999988
0.9999882
0.9999261
0.9997157
0.9995974
0.9997669
0.9999462
0.9999957
0.9999975
0.9999931
0.9999546
0.9996415
0.9977395
0.9962187
0.997758
0.9994977
0.9999238
0.9997871
0.9986317
0.9913359
0.9879643
0.9902967
0.9970972
0.9989014
0.996505
0.9931473
0.9939434
0.9975882
0.999368
0.9975617
0.9875796
0.9833508
0.9851081
0.9908712
0.9971983
0.998484
0.9959263
0.9619397
0.873398
0.8676716
0.9124031
0.9784922
0.9938841
0.9981273
0.9997158
0.9999877
0.9999981
0.9999939
0.9999544
0.9996666
0.9991255
0.9994182
0.9998856
0.9999544
0.9997277
0.9961253
0.986804
0.9914092
0.9980095
0.9998651
0.9999979
0.9999998
0.9999997
0.9999988
0.9999915
0.9999459
0.9999166
0.9999418
0.9999855
0.9999986
0.9999999
1
1
1
1
1
1
1
1
1
1
0.9999998
0.9999986
0.9999933
0.9999904
0.9999953
0.9999993
1
1
1
1
1
1
1
1
1
1
1
1
1
1
1
1
1
1
1
1
1
1
1
1
1
1
1
0.9999999
0.9999997
0.9999997
0.9999999
1
1
1
1
1
1
1
1
1
1
1
1
1
1
1
1
1
1
1
1
1
1
1
1
1
1
1
1
1
1
1
1
1
1
1
1
1
1
1
1
1
1
1
1
1
1
1
1
1
1
1
1
1
1
1
1
1
1
1
1
0.9999999
0.9999994
0.9999976
0.9999943
0.9999953
0.9999986
0.9999999
1
1
1
1
1
1
1
1
1
1
1
1
1
1
1
1
1
1
1
1
1
1
1
1
1
1
1
1
1
1
1
1
1
1
1
1
1
1
1
1
1
1
1
1
1
1
1
1
1
1
1
1
1
1
1
1
1
1
1
1
1
1
1
1
1
1
1
1
1
1
1
1
1
1
1
1
1
1
1
1
1
1
1
1
1
1
1
0.9999999
0.9999999
0.9999996
0.9999981
0.9999932
0.999983
0.9999773
0.9999781
0.9999827
0.9999852
0.9999832
0.9999782
0.9999762
0.9999769
0.99998
0.9999853
0.9999919
0.9999976
0.9999997
1
1
1
1
1
1
1
1
1
1
1
1
1
1
1
1
0.9999998
0.9999862
0.9993091
0.9819827
0.8956031
0.7981931
0.8141262
0.9271817
0.9891392
0.9987413
0.9975919
0.9962874
0.9956242
0.9930814
0.9833844
0.9058284
0.476828
0.245242
0.4554197
0.8634976
0.9908539
0.9998735
0.9999997
1
1
0.9999999
0.9999999
0.9999997
0.9999986
0.9999958
0.9999964
0.9999991
0.9999999
1
1
1
1
1
1
1
1
1
1
0.9999994
0.9999588
0.9992898
0.9982454
0.9960818
0.9870871
0.9584056
0.8267784
0.8394081
0.923932
0.9854099
0.9988292
0.9998069
0.9997768
0.9985449
0.9788751
0.9397667
0.9443234
0.9721975
0.9943313
0.9957576
0.9875851
0.7688331
0.5646212
0.5646212
0.7124176
0.6154072
0.5646176
0.5646176
0.5646176
0.654608
0.9226953
0.9965389
0.9999788
0.9999999
0.9999998
0.9999988
0.9999857
0.9998222
0.9997356
0.9998279
0.9999613
0.9999955
0.9999993
0.9999999
0.9999999
0.9999999
0.9999995
0.9999994
0.9999996
0.9999999
1
1
1
1
1
1
0.9999999
0.9999995
0.9999954
0.9999536
0.999575
0.9979735
0.9975033
0.9980521
0.9985841
0.9990043
0.9997366
0.9997613
0.9991874
0.996986
0.9973802
0.9991138
0.9998193
0.9999443
0.9998536
0.9994398
0.9995157
0.9998145
0.9999734
0.9999972
0.9999991
0.9999997
1
1
1
1
1
0.9999999
0.9999989
0.9999847
0.9999109
0.9999164
0.9999723
0.9999971
0.9999999
1
1
1
1
1
0.9999999
0.9999996
0.9999995
0.9999996
0.9999999
1
1
1
1
1
1
1
1
1
1
1
0.9999998
0.9999992
0.9999973
0.999997
0.9999986
0.9999998
1
1
1
1
0.9999999
0.9999992
0.9999977
0.9999983
0.9999995
0.9999999
1
1
1
0.9999999
0.9999987
0.9999844
0.9998586
0.9992692
0.9980375
0.998441
0.9995056
0.9999427
0.9999919
0.9999889
0.9999543
0.9996879
0.9977275
0.9886034
0.9879296
0.9946989
0.9994218
0.9999386
0.9999073
0.9985002
0.9878217
0.9852802
0.9904079
0.9979476
0.9985517
0.9969476
0.971059
0.9306973
0.9601913
0.9920725
0.9996337
0.9992284
0.9865352
0.8729696
0.845191
0.845191
0.9225402
0.9807333
0.9248351
0.8676716
0.8676716
0.8676716
0.933721
0.9915846
0.9995134
0.999822
0.9999377
0.9999738
0.9999514
0.9996479
0.9976
0.9968746
0.9981307
0.9996724
0.9999736
0.9998581
0.9970995
0.9859906
0.9850699
0.9892153
0.9976459
0.9998762
0.9999977
0.9999962
0.9999779
0.9998508
0.9996346
0.9997367
0.9999187
0.9999895
0.9999994
1
1
1
1
1
1
1
1
1
1
0.9999998
0.9999989
0.9999933
0.9999678
0.9999585
0.9999822
0.9999976
0.9999999
1
1
1
1
1
1
1
1
1
1
1
1
1
1
1
1
1
1
1
1
1
1
1
1
1
1
1
1
1
1
1
1
1
1
1
1
1
1
1
1
1
1
1
1
1
1
1
1
1
1
1
1
1
1
1
1
1
1
1
1
1
1
1
1
1
1
1
1
1
1
1
1
1
1
1
1
1
1
1
1
1
1
1
1
1
1
1
1
1
1
1
1
1
1
1
0.9999999
0.9999997
0.9999998
1
1
1
1
1
1
1
1
1
1
1
0.9999999
1
1
1
1
1
1
1
1
1
1
1
1
1
1
1
1
1
1
1
1
1
1
1
1
1
1
1
1
1
1
1
1
1
1
1
1
1
1
1
1
1
1
1
1
1
1
1
1
1
1
1
1
1
1
1
1
1
1
1
1
1
1
1
1
1
1
1
1
1
1
1
1
1
1
1
1
1
1
1
0.9999999
0.9999998
0.9999995
0.9999991
0.9999988
0.9999985
0.9999978
0.9999957
0.9999921
0.9999895
0.9999879
0.9999845
0.9999763
0.9999576
0.9999158
0.9997854
0.9993952
0.9981493
0.9957811
0.9952751
0.9958755
0.9966951
0.9966518
0.9947275
0.9917012
0.9912988
0.9916328
0.9930924
0.9970794
0.9996527
0.9999866
0.9999898
0.9999889
0.9999872
0.9999831
0.9999765
0.9999808
0.9999943
0.9999994
0.9999998
0.9999998
0.9999998
0.9999997
0.9999997
0.9999995
0.999999
0.9999969
0.9999952
0.9999813
0.9991527
0.9777596
0.8342105
0.7443069
0.818709
0.9527291
0.9948675
0.9930081
0.9711312
0.9095305
0.8687628
0.8631754
0.8177385
0.5443012
0.2209302
0.160475
0.160475
0.2781399
0.8031054
0.9886465
0.9998978
0.9999998
0.9999998
0.9999994
0.9999975
0.9999836
0.9999273
0.9999313
0.9999783
0.9999978
0.9999999
1
1
1
1
1
1
1
1
1
0.9999999
0.9999985
0.9999658
0.9988382
0.9809358
0.9626749
0.9670742
0.9011984
0.9205007
0.965014
0.9895139
0.997833
0.9993973
0.999273
0.9978492
0.9910731
0.9825008
0.9828524
0.9898672
0.9935884
0.9891564
0.9900902
0.9924518
0.98574
0.9756897
0.9378247
0.8719682
0.8818997
0.8987298
0.8657298
0.7885509
0.8076863
0.9107195
0.986507
0.9995874
0.9999762
0.9999013
0.9990411
0.9987545
0.9992425
0.9998091
0.999927
0.9999562
0.9999858
0.9999984
0.9999991
0.9999952
0.9999943
0.9999973
0.9999996
1
1
1
1
1
0.9999999
0.9999998
0.9999995
0.9999988
0.9999969
0.9999894
0.9999324
0.9991855
0.9953444
0.9959855
0.9985131
0.9993128
0.9993128
0.9993089
0.9993701
0.999454
0.9994867
0.9994868
0.9981588
0.9922289
0.9923173
0.996685
0.9994092
0.9998398
0.999781
0.9998367
0.9999569
0.9999969
0.9999999
1
1
1
1
1
0.9999998
0.9999967
0.9999509
0.9998289
0.9998415
0.9999334
0.9999898
0.9999996
1
1
1
1
0.9999999
0.9999994
0.9999992
0.9999994
0.9999998
0.9999999
0.9999999
0.9999999
0.9999999
0.9999999
1
1
1
0.9999999
0.9999995
0.999998
0.9999913
0.9999614
0.9999033
0.9999179
0.9999748
0.9999977
0.9999999
1
1
1
0.9999999
0.9999988
0.9999942
0.9999937
0.9999964
0.9999993
1
1
1
0.9999999
0.999999
0.9999886
0.9998709
0.9989959
0.9947366
0.9934636
0.9955766
0.9990744
0.99995
0.999991
0.99999
0.9999239
0.9988984
0.9888718
0.9557966
0.9603993
0.9875911
0.9989192
0.9999379
0.9999386
0.9999194
0.9989179
0.9909819
0.9901821
0.9961382
0.9985517
0.9985517
0.9919191
0.9351346
0.9226796
0.9526801
0.9916298
0.9995304
0.9996424
0.9975523
0.9885853
0.9827494
0.9862841
0.9861911
0.9669116
0.8710375
0.8676716
0.8707549
0.9435117
0.9915669
0.9983625
0.9981559
0.9984439
0.9995972
0.9997448
0.9989766
0.9945245
0.9939206
0.997618
0.9996817
0.9999876
0.9999899
0.9999001
0.9979943
0.9864903
0.9876595
0.9955368
0.9994941
0.9999546
0.9999164
0.9995683
0.9985086
0.9985917
0.999484
0.9999232
0.9999952
0.9999997
0.9999997
0.9999996
0.9999988
0.9999946
0.9999865
0.9999897
0.9999971
0.9999997
0.9999998
0.9999993
0.9999973
0.9999889
0.9999489
0.999833
0.9998382
0.9999453
0.9999943
0.9999998
1
1
0.9999999
0.9999999
1
1
1
0.9999999
0.9999998
0.9999998
0.9999999
1
1
1
1
1
1
1
1
1
1
1
1
1
1
1
1
1
1
1
1
1
1
1
1
1
1
1
1
1
1
1
1
1
1
1
1
1
1
1
1
1
1
1
1
1
1
1
1
1
1
1
1
1
1
1
1
1
1
1
1
1
1
1
1
1
1
1
1
1
1
1
1
1
1
1
1
1
1
1
1
1
1
1
1
1
1
1
1
1
1
1
1
1
0.9999999
1
1
0.9999999
1
1
1
0.9999999
1
1
1
1
0.9999999
1
1
1
1
1
1
1
1
1
0.9999999
1
1
1
1
1
1
1
1
1
1
1
1
1
1
1
1
1
1
1
1
1
1
1
1
1
1
1
1
1
1
1
1
1
1
1
1
1
1
1
1
1
1
1
1
1
1
1
1
1
1
1
1
1
1
1
1
1
1
1
1
1
1
1
1
1
1
1
1
1
1
1
0.9999997
0.9999987
0.9999951
0.999987
0.9999732
0.9999443
0.9998594
0.9996843
0.9995695
0.9995477
0.9995081
0.9993199
0.9988676
0.9984893
0.9984712
0.9984345
0.9982015
0.9975025
0.9942489
0.9884716
0.9852417
0.9782052
0.942092
0.8716756
0.8687125
0.9024715
0.9152165
0.897861
0.8358916
0.6931567
0.6887423
0.8097847
0.9573129
0.9972221
0.99937
0.9992753
0.9984516
0.9944999
0.9935771
0.9971327
0.9996938
0.9999837
0.9999855
0.999975
0.9999401
0.9999508
0.9999829
0.9999934
0.9999929
0.9999913
0.9999883
0.9999674
0.9998086
0.9960024
0.9704096
0.7367507
0.8101783
0.9221985
0.9837032
0.9893948
0.9705666
0.8891118
0.6628817
0.3747439
0.2707003
0.2115031
0.1142892
0.03764296
0.03572007
0.1559675
0.6185261
0.8908442
0.9690564
0.9922743
0.9990913
0.9999704
0.9999749
0.999853
0.9991589
0.9992356
0.9997498
0.9999646
0.9999963
0.9999998
1
1
1
1
1
0.9999999
0.9999999
0.9999999
1
0.9999999
0.9999966
0.9998836
0.9972461
0.9791779
0.8948524
0.8645785
0.9093136
0.982141
0.9985092
0.9991144
0.9991144
0.9988785
0.995907
0.9828772
0.9282115
0.7827929
0.7115351
0.7478672
0.8276457
0.8564595
0.8680599
0.9354474
0.9837967
0.9979845
0.9983345
0.9980601
0.9966234
0.9952624
0.9951927
0.9929203
0.9877975
0.9892952
0.9948165
0.995978
0.9946079
0.995195
0.9979401
0.9994079
0.9996457
0.9997838
0.999938
0.9999913
0.9999976
0.9999988
0.9999988
0.9999944
0.9999919
0.9999922
0.999997
0.9999997
1
1
1
0.9999997
0.9999984
0.9999943
0.9999855
0.9999615
0.9998599
0.9995136
0.9986518
0.9980081
0.9980533
0.9969395
0.9938281
0.9943604
0.9957012
0.9966863
0.992773
0.9646884
0.9613311
0.9783275
0.9960032
0.9990829
0.9952847
0.9935975
0.997077
0.9995595
0.9999634
0.9999573
0.9999249
0.9999558
0.9999918
0.9999997
1
1
1
0.9999999
0.999999
0.9999867
0.9998739
0.9997724
0.9998086
0.9999281
0.9999905
0.9999997
1
1
1
0.9999999
0.9999991
0.9999989
0.9999992
0.9999998
0.9999998
0.9999993
0.9999917
0.9999358
0.9998277
0.9998252
0.9998786
0.999959
0.9999957
0.9999988
0.9999927
0.9999296
0.999399
0.9980986
0.9984776
0.9995602
0.9999638
0.999999
0.9999995
0.9999992
0.999991
0.99996
0.9999589
0.9999802
0.9999967
0.9999997
0.9999998
0.9999997
0.9999997
0.9999994
0.9999988
0.9999978
0.9999927
0.9999343
0.999276
0.9940596
0.9790055
0.9814252
0.9933333
0.9990651
0.9999588
0.9999896
0.9999867
0.9999536
0.9993649
0.9885209
0.9099028
0.883431
0.9463929
0.9919465
0.9996819
0.9999386
0.9999386
0.9999001
0.9996931
0.9996663
0.9991021
0.9956282
0.9894067
0.9902321
0.996132
0.9983219
0.9985559
0.998532
0.9985705
0.9992912
0.9998163
0.9997211
0.9990942
0.990186
0.9036888
0.8515775
0.8760976
0.9521799
0.9738266
0.984266
0.9878709
0.9835386
0.9805264
0.9906491
0.9985556
0.9997309
0.9989819
0.9925101
0.9859009
0.9916359
0.9984174
0.9999328
0.9999973
0.9999877
0.9998089
0.9981783
0.9963664
0.9971715
0.9990673
0.9996461
0.9989559
0.9933519
0.9916228
0.9957871
0.9993395
0.9999605
0.9999983
0.9999986
0.9999979
0.9999897
0.9999213
0.9998416
0.9998836
0.9999666
0.9999968
0.9999996
0.9999996
0.9999975
0.9999726
0.9998167
0.9992829
0.9988824
0.9992666
0.9998383
0.9999895
0.9999997
0.9999999
0.9999997
0.9999996
0.9999998
0.9999999
0.9999999
0.9999997
0.9999987
0.9999985
0.9999992
0.9999999
1
1
1
1
0.9999999
0.9999998
0.9999998
1
1
1
1
1
1
1
1
1
1
1
1
1
1
1
1
1
1
1
1
1
1
1
1
1
1
1
1
1
1
1
1
1
1
1
1
1
1
1
1
1
1
1
1
1
1
1
1
1
1
1
1
1
1
1
1
1
1
1
1
1
1
1
1
1
1
1
1
1
1
1
1
1
1
1
1
1
1
1
1
1
1
1
1
0.9999999
1
1
1
0.9999998
0.9999999
1
1
1
0.9999998
0.9999999
1
1
1
1
1
1
1
1
1
1
1
1
1
1
1
1
1
1
1
1
1
1
1
1
1
0.9999999
0.9999999
1
0.9999999
1
1
1
1
1
1
1
1
1
1
1
1
1
1
1
1
1
1
1
1
1
1
1
1
1
1
1
1
1
1
1
1
1
1
1
1
1
1
1
1
1
1
1
1
1
1
1
1
1
1
1
1
1
1
1
1
1
1
1
1
1
1
1
1
1
1
0.9999998
0.9999988
0.9999922
0.999962
0.9998425
0.9994401
0.9984481
0.9969565
0.995388
0.9928208
0.9854742
0.9745141
0.9739154
0.9761731
0.9750901
0.9643259
0.9533283
0.9554403
0.9602018
0.959114
0.9538697
0.9350643
0.8402776
0.7636999
0.8672018
0.8680091
0.6489872
0.3332487
0.3475295
0.5123284
0.5854595
0.3827172
0.1895149
0.1781253
0.173659
0.4566959
0.8821586
0.972767
0.9545443
0.8579243
0.8440966
0.9402045
0.9939733
0.9992522
0.9993036
0.9986181
0.9980071
0.9989436
0.9998219
0.9999577
0.9999481
0.9999074
0.9998585
0.999803
0.9997925
0.9997089
0.9928046
0.7648122
0.6338903
0.8015844
0.9715504
0.9885204
0.9878254
0.9663805
0.8292758
0.3414973
0.05346205
0.03274109
0.03274109
0.03274109
0.03274109
0.03274109
0.03459379
0.1530281
0.2976306
0.4160292
0.7150239
0.9461151
0.9957841
0.9991502
0.9967357
0.9967678
0.9985239
0.9995967
0.9999266
0.999995
0.9999999
1
1
1
0.9999998
0.9999996
0.9999996
0.9999996
0.9999996
0.9999998
0.9999997
0.9999965
0.9998556
0.9958243
0.9406491
0.8221045
0.8459399
0.9412757
0.9873479
0.997152
0.9991144
0.9991144
0.9984035
0.9832855
0.8904647
0.7235
0.3925218
0.1330011
0.1309729
0.1643261
0.1980426
0.4514756
0.8635335
0.9884023
0.9984013
0.9984013
0.9982017
0.9977538
0.9974881
0.997484
0.9971441
0.9951781
0.9873301
0.9694655
0.9409667
0.9572378
0.9889166
0.9985309
0.9997082
0.9999193
0.9999374
0.99995
0.9999556
0.9999791
0.9999969
0.9999988
0.9999988
0.9999969
0.9999956
0.9999973
0.9999993
0.9999999
0.9999998
0.9999997
0.9999993
0.9999968
0.9999671
0.999682
0.9987494
0.9981062
0.9974031
0.9899829
0.9511023
0.951559
0.980438
0.9921106
0.9896463
0.9416816
0.8301826
0.8542104
0.947856
0.9916582
0.9949545
0.9951504
0.9972786
0.9993096
0.9989092
0.9982579
0.9986739
0.9996044
0.9999648
0.9999943
0.9999865
0.9999836
0.999992
0.9999989
1
0.9999999
0.9999993
0.9999924
0.999916
0.9996747
0.9996725
0.9998532
0.9999679
0.9999974
0.9999999
1
1
0.9999998
0.9999987
0.9999985
0.999999
0.9999998
0.9999999
0.9999997
0.9999975
0.9999808
0.999858
0.9983957
0.9936764
0.993401
0.9964556
0.9994061
0.9999736
0.9999946
0.9999208
0.9986046
0.9953916
0.9958043
0.9984393
0.9998107
0.999991
0.9999758
0.9998731
0.9998849
0.9999611
0.9999941
0.999997
0.9999983
0.999999
0.9999987
0.999995
0.9999737
0.999887
0.9997859
0.9998072
0.9998193
0.999645
0.9973383
0.9727838
0.9425488
0.9641719
0.9908765
0.9993353
0.9999446
0.9999191
0.9997901
0.9991097
0.9962026
0.9875206
0.9195031
0.883431
0.8834207
0.894051
0.9677402
0.9975399
0.9999165
0.999804
0.998982
0.9969767
0.9953966
0.9910841
0.9738995
0.972662
0.9793438
0.9951132
0.9997116
0.9999695
0.9999683
0.9999693
0.9999692
0.9998543
0.9975941
0.9584303
0.8391471
0.8333658
0.8654946
0.9616819
0.9951133
0.9945192
0.9746152
0.8984364
0.9078249
0.9718886
0.9973133
0.9995627
0.9991093
0.9952902
0.9775079
0.9691136
0.9860246
0.9981489
0.9999458
0.9999975
0.9999728
0.9998055
0.9997283
0.9998083
0.9998868
0.9997635
0.9972924
0.9853913
0.9837689
0.9908608
0.9982925
0.9998979
0.9999803
0.9999793
0.9999461
0.9996408
0.9994519
0.9995962
0.9998849
0.9999823
0.9999977
0.9999997
0.9999997
0.999999
0.9999844
0.999772
0.9973782
0.9940025
0.9966061
0.9993155
0.9999583
0.9999995
0.9999999
0.9999998
0.9999995
0.9999993
0.9999992
0.9999978
0.9999906
0.9999887
0.9999937
0.9999989
0.9999999
1
1
1
0.9999999
0.9999993
0.9999991
0.9999994
0.9999999
1
1
1
1
1
1
1
1
1
1
1
1
1
1
1
1
1
1
1
1
1
1
1
1
1
1
1
1
1
1
1
1
1
1
1
1
1
1
1
1
1
1
1
1
1
1
1
1
1
1
1
1
1
1
1
1
1
1
1
1
1
1
1
1
1
1
1
1
1
1
1
1
1
1
1
1
1
1
1
1
1
1
1
1
1
1
1
1
0.9999999
1
1
1
0.9999998
1
1
1
1
1
1
1
1
1
1
1
1
1
1
1
1
1
1
1
1
1
1
1
1
1
1
1
1
1
1
1
1
1
1
1
1
1
1
0.9999999
1
1
1
0.9999999
1
1
1
0.9999999
0.9999999
1
1
1
1
1
1
1
1
1
1
1
1
1
1
1
1
1
1
1
1
1
1
1
1
1
1
1
1
1
1
1
1
1
1
1
1
1
1
1
1
1
1
1
1
1
1
1
1
1
1
1
1
1
1
1
1
1
1
0.9999998
0.9999981
0.9999846
0.9999155
0.999601
0.9983763
0.9947686
0.9850019
0.9642167
0.9303204
0.8990318
0.8775243
0.8403207
0.7453337
0.6758559
0.6955729
0.7375087
0.71946
0.6102932
0.6001311
0.6814231
0.7106168
0.6828171
0.6249056
0.3997257
0.2761728
0.3056183
0.7889456
0.7772779
0.3879203
0.1925675
0.1925675
0.1925675
0.3357206
0.7414993
0.7478799
0.4629514
0.1505662
0.1146733
0.2137052
0.2447947
0.1989313
0.2942902
0.7515452
0.9711453
0.9914197
0.9872477
0.9805906
0.9888507
0.9975988
0.9997001
0.9998654
0.9997698
0.9995674
0.9994866
0.9994559
0.999364
0.998208
0.9658031
0.7150225
0.7290042
0.8990919
0.9773966
0.9861689
0.9780343
0.9555013
0.9259951
0.6633205
0.1332896
0.03274109
0.03274109
0.03274109
0.03274109
0.0510663
0.0819212
0.06176248
0.04044422
0.03487919
0.04017241
0.1763525
0.7311172
0.976704
0.9978648
0.9983871
0.9981225
0.9990126
0.9998371
0.9999924
0.9999999
0.9999999
0.9999999
0.9999998
0.9999994
0.9999987
0.9999986
0.9999984
0.9999966
0.9999957
0.9999978
0.999997
0.9999323
0.9964218
0.8945046
0.7756463
0.8293473
0.9508467
0.9861118
0.9882682
0.9911884
0.9981953
0.9987813
0.991685
0.8740049
0.309634
0.1145757
0.1145757
0.1145757
0.1208902
0.1452353
0.2190074
0.6130253
0.9399124
0.9972293
0.9984013
0.9983247
0.9896854
0.967742
0.9676843
0.9566714
0.8499126
0.566498
0.5099171
0.546945
0.8244214
0.976186
0.9985222
0.9999082
0.9999117
0.9999077