/*--------------------------------*- C++ -*----------------------------------*\
| =========                 |                                                 |
| \\      /  F ield         | foam-extend: Open Source CFD                    |
|  \\    /   O peration     | Version:     3.1                                |
|   \\  /    A nd           | Web:         http://www.extend-project.de       |
|    \\/     M anipulation  |                                                 |
\*---------------------------------------------------------------------------*/
FoamFile
{
    version     2.0;
    format      ascii;
    class       volScalarField;
    location    "15";
    object      k;
}
// * * * * * * * * * * * * * * * * * * * * * * * * * * * * * * * * * * * * * //

dimensions      [0 2 -2 0 0 0 0];

internalField   nonuniform List<scalar> 
119952
(
0.02813714
0.02412372
0.02345885
0.02420249
0.02490232
0.025018
0.02563614
0.02651199
0.02755997
0.02874343
0.03005175
0.0314745
0.03301576
0.03468738
0.0365002
0.03846042
0.04057107
0.04283791
0.04530113
0.04831095
0.05360986
0.05521516
0.05790848
0.0625897
0.06343631
0.06465468
0.06571634
0.06626136
0.06545069
0.01258715
0.05931481
0.05481346
0.05300559
0.05303491
0.05438228
0.05663849
0.05950991
0.06275652
0.06628696
0.07018204
0.07278865
0.07969113
0.0883179
0.09742431
0.1064462
0.115036
0.1229367
0.1298519
0.1354219
0.1544659
0.154642
0.1526311
0.148866
0.1438518
0.1382253
0.132972
0.1287206
0.1249384
0.1217107
0.1190847
0.1171008
0.1161498
0.1157172
0.1149762
0.1132059
0.1099948
0.1053247
0.1001284
0.0970255
0.09307106
0.08980469
0.08799122
0.08695344
0.08634258
0.08609565
0.08635253
0.08713264
0.08843579
0.09025544
0.09258203
0.09540579
0.098708
0.1024543
0.1065931
0.1110526
0.115741
0.1205216
0.125149
0.1295566
0.1339482
0.1375044
0.1405278
0.1440623
0.1469228
0.1487834
0.1499582
0.1507393
0.1482878
0.1444571
0.1404038
0.1363101
0.1322431
0.1282218
0.1241606
0.1199851
0.1156573
0.1111915
0.1066237
0.1019937
0.09732365
0.09261037
0.08784688
0.08302694
0.07813042
0.07380073
0.07158199
0.072064
0.07413136
0.07621029
0.07730087
0.07711665
0.07576422
0.07355584
0.07089004
0.06810305
0.06541569
0.06294008
0.06071734
0.05875372
0.05705938
0.05564456
0.05450659
0.0536308
0.05300329
0.05261291
0.05244122
0.05245626
0.05260395
0.05282369
0.05305715
0.053248
0.05334616
0.05331696
0.05312524
0.05272648
0.05208764
0.0511432
0.04974359
0.04812126
0.04691862
0.04691076
0.04818714
0.05053073
0.05342951
0.05648984
0.05920507
0.0609175
0.06128269
0.06059463
0.05936858
0.05789634
0.05639284
0.05495398
0.05353051
0.05205457
0.05050787
0.04890226
0.04729539
0.04575794
0.04433651
0.04303603
0.04184386
0.04074782
0.03974182
0.03881664
0.03796276
0.03717165
0.03643602
0.03574974
0.03510747
0.0345034
0.03392882
0.03337582
0.03284062
0.03231749
0.03180117
0.0312869
0.0307694
0.03024053
0.02969705
0.02915258
0.02862994
0.02814201
0.0277009
0.02730924
0.02696514
0.02667449
0.02658761
0.02651409
0.02631388
0.02605714
0.02576679
0.02543348
0.02508112
0.02472979
0.02439178
0.02407835
0.02379884
0.0235557
0.02334945
0.02318174
0.02305601
0.02297548
0.02294069
0.02294918
0.02299771
0.02308369
0.0232048
0.02336031
0.02355069
0.02377574
0.02403269
0.02431738
0.02462448
0.02494753
0.02527896
0.02561114
0.02593723
0.02625317
0.02655906
0.02685812
0.0271503
0.02735637
0.02784041
0.02847082
0.02911227
0.02976753
0.0304101
0.03102979
0.03161764
0.03216654
0.03267184
0.03313049
0.03353952
0.03389544
0.03419459
0.03443476
0.03461658
0.0347439
0.03483084
0.03489862
0.03493193
0.0349219
0.03487695
0.03482529
0.0347962
0.0347841
0.0347292
0.03464623
0.03453668
0.03440964
0.03427143
0.03412216
0.03395076
0.03372666
0.03342711
0.03317813
0.03276856
0.03322537
0.03347689
0.03339824
0.03311704
0.03271558
0.03225014
0.031751
0.03124917
0.03076447
0.03031207
0.02990092
0.02955608
0.0292125
0.02871968
0.02863321
0.029237
0.03027757
0.03137901
0.03223152
0.03267541
0.03268332
0.03228249
0.03150815
0.03040936
0.02908255
0.0276963
0.0263604
0.0250713
0.02382414
0.02266196
0.02165007
0.02083269
0.02020452
0.01971217
0.01928862
0.01888581
0.01849517
0.01812213
0.01776904
0.01742752
0.01709546
0.01677132
0.0164581
0.01616167
0.01588606
0.01562642
0.01538883
0.01517841
0.0149947
0.01483996
0.01471657
0.0146266
0.01458403
0.01458602
0.01454058
0.0145309
0.01455462
0.01461201
0.01470546
0.01483731
0.01500837
0.01521889
0.01546806
0.01575439
0.01607544
0.01642725
0.01680477
0.01720278
0.01761677
0.01804215
0.01847408
0.01890926
0.01934541
0.01978113
0.02021592
0.02065041
0.02108567
0.02152122
0.0219572
0.02239284
0.02282531
0.02325188
0.02367015
0.02407785
0.02447274
0.02485267
0.02521547
0.02555899
0.02588104
0.02617946
0.0264521
0.02669691
0.02691202
0.02709581
0.02724699
0.02736464
0.02744831
0.02749805
0.02751445
0.02749852
0.02745169
0.02737573
0.02727268
0.02714478
0.02699443
0.02682418
0.02663668
0.02643473
0.02622119
0.02599894
0.02577083
0.02553956
0.02530768
0.02507747
0.0248509
0.0246297
0.02441528
0.02420878
0.02401107
0.02382272
0.02364405
0.02347514
0.02331587
0.02316598
0.02302493
0.0228921
0.02276632
0.02264614
0.02253001
0.02241642
0.02230475
0.02219523
0.02209159
0.0219917
0.0218883
0.02177376
0.02168867
0.02196293
0.0965841
0.08966905
0.0928839
0.09888282
0.1048396
0.1099618
0.1142144
0.1177742
0.1209407
0.1243184
0.1343043
0.1455703
0.1561592
0.1652667
0.172703
0.1785437
0.1829481
0.186126
0.2116442
0.2107252
0.2092691
0.2071011
0.2044771
0.2016708
0.1986346
0.1953883
0.1919964
0.1884969
0.1853454
0.1819141
0.1783188
0.1748409
0.1716116
0.1687145
0.1662214
0.1641939
0.162674
0.1619697
0.1615497
0.1613252
0.1615397
0.1622825
0.163651
0.1657009
0.1685099
0.1721714
0.1767915
0.1824308
0.1890098
0.1964773
0.204629
0.2131837
0.2217183
0.2296693
0.2363809
0.2411131
0.2604816
0.2580764
0.2531
0.2463527
0.2389514
0.2316852
0.2241903
0.2163756
0.2082325
0.1998683
0.1915052
0.183574
0.1764763
0.1703905
0.1652117
0.1605798
0.1561175
0.1515771
0.1469292
0.1419569
0.1367673
0.1319441
0.1276273
0.1238282
0.1207152
0.1185468
0.1173962
0.1172066
0.1179291
0.1195318
0.1219921
0.1252801
0.1293494
0.1341374
0.1395584
0.1454977
0.1517964
0.1582201
0.1644918
0.1704322
0.1759114
0.1808312
0.1853718
0.1896208
0.1932326
0.1958566
0.1972834
0.1971192
0.1948949
0.1914522
0.187622
0.1837211
0.179749
0.1755772
0.1711938
0.1666708
0.1620224
0.1572433
0.1523456
0.1473331
0.1421661
0.1367593
0.1310113
0.1249037
0.1186835
0.1128212
0.1076593
0.1032209
0.09935379
0.09592082
0.09284487
0.09007836
0.08757639
0.08528818
0.08316192
0.08115382
0.07923771
0.07741044
0.07568965
0.07410732
0.07270047
0.07150283
0.0705593
0.06991711
0.06960596
0.0696144
0.06991108
0.07044636
0.07115575
0.07196771
0.0728083
0.07360307
0.07428613
0.07479857
0.07510845
0.0751743
0.07493813
0.07430863
0.07324899
0.07177931
0.07001177
0.06803591
0.06596587
0.06397227
0.06228475
0.06114889
0.06075341
0.0611599
0.06228457
0.06391928
0.06572129
0.06739694
0.06877611
0.06971058
0.07010396
0.06993438
0.06924137
0.0680883
0.06661599
0.06496794
0.06324356
0.06151348
0.05983572
0.05824752
0.05675631
0.05535986
0.05405344
0.05283236
0.05169273
0.05063171
0.04964695
0.04873636
0.04789741
0.04712598
0.04641529
0.04575661
0.04514001
0.04455425
0.04398651
0.04342376
0.04285368
0.0422653
0.04165178
0.04100983
0.04033662
0.03963893
0.03893105
0.03824871
0.03735641
0.03611189
0.03510903
0.03427314
0.03356423
0.03295984
0.03244644
0.03201497
0.03165898
0.03137394
0.03115713
0.03100702
0.03092299
0.03090551
0.03095625
0.03107783
0.03127373
0.03154772
0.0318956
0.03230555
0.03277374
0.0332976
0.03387444
0.03450032
0.03516865
0.0358688
0.03658573
0.03730077
0.03799354
0.03864491
0.03924077
0.03977625
0.04025922
0.0407111
0.04116211
0.04164595
0.04220204
0.04284637
0.04357062
0.04435857
0.04518446
0.04601833
0.0468316
0.0476004
0.04830498
0.04892706
0.04944861
0.04985396
0.05013274
0.05027894
0.05028562
0.05014206
0.04983788
0.04937223
0.04876127
0.04803831
0.04725426
0.04644787
0.04563969
0.04484516
0.044073
0.04332514
0.04259853
0.04188761
0.04118454
0.04047984
0.03976374
0.03902793
0.03826841
0.03752566
0.03968204
0.03908178
0.03850597
0.03793611
0.03735042
0.03674548
0.03612688
0.03550275
0.03488326
0.03427398
0.03367581
0.0330889
0.03249618
0.03186685
0.03119773
0.030546
0.02999076
0.02962264
0.02951642
0.0296826
0.03007212
0.03060667
0.03124811
0.03197626
0.03276264
0.03358733
0.0344354
0.03524733
0.03588727
0.03620278
0.03613641
0.03575407
0.03517396
0.03449179
0.03375685
0.03298463
0.03217688
0.03136236
0.03055684
0.02976433
0.02898377
0.02822098
0.02748501
0.02678731
0.02613299
0.02552141
0.02495311
0.02442986
0.02395421
0.02352875
0.02315665
0.02284094
0.02258354
0.02239236
0.02225894
0.02217332
0.02214351
0.02217381
0.02226411
0.02241285
0.02261806
0.02287722
0.0231873
0.02354506
0.02394732
0.02438766
0.02485939
0.02535874
0.02588241
0.02642654
0.02698692
0.02755911
0.02813866
0.02872141
0.02930352
0.0298816
0.03045281
0.03101496
0.0315663
0.03210514
0.0326318
0.03315022
0.03366164
0.03416231
0.03464924
0.03511995
0.03557224
0.03600407
0.03641338
0.03679805
0.03715584
0.03748442
0.0377814
0.0380444
0.03827117
0.03845966
0.03860813
0.0387153
0.03878038
0.03880319
0.03878414
0.03872424
0.03862505
0.03848854
0.03831707
0.03811326
0.03787999
0.03762037
0.03733768
0.03703539
0.03671702
0.03638612
0.03604614
0.03570036
0.03535181
0.0350032
0.03465691
0.03431499
0.03397914
0.03365073
0.03333083
0.0330202
0.03271932
0.03242843
0.03214755
0.03187648
0.03161485
0.03136205
0.03111736
0.03087971
0.03064782
0.03042003
0.03019556
0.02997268
0.02974915
0.02952121
0.02930462
0.02913623
0.02903491
0.04866494
0.05274262
0.05753933
0.0627997
0.06858876
0.07503946
0.08240324
0.09116594
0.102193
0.1159552
0.1733506
0.1896502
0.2056929
0.2208106
0.2341051
0.2467169
0.2595222
0.2729997
0.2936515
0.360978
0.3738869
0.3828953
0.3908078
0.3977233
0.4037138
0.4088522
0.4131571
0.4165869
0.41939
0.4211912
0.4232971
0.4253517
0.4267629
0.4269946
0.4259001
0.423588
0.4202802
0.4164669
0.4103472
0.4043278
0.3985387
0.3930758
0.3879913
0.3832834
0.3789338
0.3749177
0.3712286
0.3678783
0.3647111
0.3616981
0.3588016
0.3559681
0.3531229
0.350148
0.3469125
0.3432709
0.3583602
0.3535105
0.3481593
0.3424581
0.3364551
0.3301867
0.3237005
0.3170332
0.3103665
0.3038102
0.2973397
0.2909124
0.2844739
0.2780639
0.2717351
0.2655357
0.2595114
0.2536966
0.2481081
0.2428432
0.238101
0.2341771
0.2311205
0.2289579
0.2277794
0.2277207
0.2289562
0.2316693
0.2360197
0.2421403
0.2500578
0.2596486
0.2705905
0.2823317
0.2940966
0.3050011
0.3141015
0.3204131
0.3227837
0.3209662
0.3153222
0.3069716
0.2975662
0.2877343
0.2775565
0.2670312
0.2562659
0.2454962
0.2349975
0.2250661
0.2159051
0.2075769
0.2000389
0.193118
0.1866091
0.1802947
0.1740925
0.1678541
0.161704
0.1558861
0.1505441
0.1457875
0.1417246
0.1384508
0.1362218
0.1351407
0.1351975
0.1363837
0.1386872
0.1420773
0.1464996
0.1518874
0.1581486
0.1651408
0.1726831
0.1804965
0.188243
0.1956704
0.2026203
0.2090348
0.2149755
0.2203853
0.2248545
0.2279032
0.2291777
0.2285371
0.2260067
0.2224067
0.2185507
0.2147121
0.2107253
0.2063315
0.2014212
0.196188
0.1907894
0.1853169
0.1798203
0.174321
0.1688033
0.1631911
0.1573371
0.1512079
0.1450237
0.1390712
0.1334498
0.1280864
0.1229
0.117881
0.1130783
0.1085664
0.104407
0.1006301
0.09723547
0.09420227
0.09150302
0.08911639
0.08703244
0.08525204
0.08378438
0.08264412
0.08184539
0.08139391
0.08128982
0.08154911
0.08215632
0.08304513
0.08412977
0.08532246
0.08654053
0.08770248
0.08873715
0.08959053
0.09021015
0.09055424
0.09057115
0.09020377
0.08944319
0.08829224
0.08676374
0.08487417
0.08265046
0.08016167
0.07752286
0.07488157
0.07239752
0.07022413
0.06849048
0.06727952
0.06660646
0.06641948
0.06660718
0.06700893
0.06744688
0.06776662
0.06786133
0.06768108
0.06723126
0.06655364
0.06570406
0.0647354
0.06368685
0.06258547
0.06146485
0.06035312
0.05926491
0.0582103
0.05719826
0.05623719
0.05533467
0.0544972
0.05372984
0.05303434
0.05240802
0.05184413
0.05133336
0.0508637
0.05042101
0.04999006
0.04955713
0.04910918
0.04863811
0.0481363
0.04760404
0.04703934
0.04645156
0.04584137
0.04518262
0.0445599
0.0439741
0.04342766
0.04292517
0.04247256
0.04207625
0.04174241
0.04147667
0.04128396
0.04116845
0.04113356
0.04118222
0.04131705
0.04154073
0.0418565
0.04226915
0.04277679
0.04337311
0.04405306
0.04481228
0.04564592
0.04654635
0.04750099
0.04849104
0.04949151
0.05047292
0.0514046
0.05225922
0.05301835
0.05367833
0.05425521
0.05478451
0.05531381
0.05588976
0.056547
0.0573028
0.05815541
0.05908499
0.06006058
0.06104829
0.06201756
0.06294419
0.06380823
0.06458942
0.06526612
0.06581985
0.06624168
0.06653071
0.06668244
0.06668046
0.06650363
0.06614321
0.06561581
0.06496378
0.06424322
0.06350341
0.06275312
0.06200234
0.06126465
0.06054966
0.05985401
0.05916274
0.05845637
0.057716
0.05692853
0.05609274
0.05522194
0.05434609
0.05350469
0.05261689
0.05172577
0.05081753
0.04986607
0.04886121
0.04780427
0.04670252
0.04556863
0.04441458
0.04324594
0.04206876
0.04088939
0.0397049
0.03851169
0.03732106
0.03615525
0.03504858
0.03404524
0.03318145
0.03247346
0.03192185
0.03151948
0.03125972
0.03114524
0.03119792
0.03146466
0.03200265
0.03282214
0.03381662
0.03489936
0.03599639
0.03704585
0.03799603
0.03878787
0.03935704
0.03965522
0.03966857
0.03941431
0.03893052
0.03826707
0.03747689
0.03660471
0.0356791
0.03472313
0.03377564
0.03286666
0.03201405
0.0312273
0.03050119
0.02983518
0.02923484
0.0287048
0.02824752
0.02786397
0.02755374
0.02731919
0.02716433
0.02708942
0.02709197
0.02716961
0.02732054
0.0275424
0.02783172
0.02818427
0.02859149
0.02904714
0.02954674
0.03008519
0.03065688
0.03125595
0.03187643
0.03251243
0.03315831
0.03380877
0.03445899
0.03510466
0.03574202
0.03636788
0.03697963
0.03757536
0.0381538
0.03871357
0.03925683
0.03978742
0.04030264
0.04080038
0.04127894
0.04173675
0.04217219
0.04258349
0.0429687
0.04332562
0.04365186
0.0439449
0.04420216
0.04442114
0.04459951
0.04473526
0.04482684
0.04487326
0.04487418
0.04482995
0.04474156
0.04461059
0.04443906
0.04422931
0.04398403
0.04370619
0.04339904
0.04306608
0.04271098
0.04233751
0.0419494
0.04155029
0.0411436
0.04073245
0.04031964
0.03990762
0.03949851
0.03909409
0.03869583
0.03830489
0.03792219
0.03754836
0.03718385
0.03682888
0.03648352
0.03614763
0.03582084
0.03550245
0.03519119
0.0348854
0.03458392
0.03428595
0.03399003
0.03369623
0.03341094
0.03315258
0.03294846
0.03681531
0.04164082
0.04598888
0.0707524
0.09578854
0.1269205
0.1477951
0.1687767
0.1886312
0.2072826
0.2237925
0.2382603
0.252435
0.2669572
0.2816613
0.2966432
0.3118949
0.3270635
0.342052
0.3569796
0.3717038
0.3860806
0.4000563
0.4135463
0.4264388
0.4384556
0.449814
0.4606964
0.4712285
0.481161
0.4906621
0.5225335
0.5287578
0.5341723
0.5392793
0.5441561
0.5487751
0.5531136
0.5570507
0.5605312
0.5634839
0.5657235
0.567069
0.5672737
0.5655207
0.5622024
0.5576183
0.5520478
0.5457406
0.5388792
0.5316099
0.5241113
0.5164732
0.5088116
0.5012485
0.4938933
0.4868291
0.4801182
0.4738197
0.4679762
0.4625871
0.45763
0.4530723
0.4488327
0.4447567
0.440641
0.4363524
0.4317542
0.4263676
0.4205126
0.4142225
0.4075488
0.4005641
0.3933512
0.3859883
0.3786594
0.3712074
0.3634802
0.3555586
0.3475233
0.3394432
0.3313945
0.3234389
0.3156289
0.3080171
0.3006571
0.2936114
0.2869358
0.2806754
0.2748692
0.269907
0.266047
0.2634659
0.262406
0.2631625
0.2660645
0.2714457
0.2795733
0.2904928
0.3039796
0.3195409
0.3363643
0.3532785
0.3688713
0.3817475
0.3906183
0.3941878
0.391748
0.383654
0.3714944
0.3577624
0.3437746
0.3298716
0.3159457
0.3019866
0.2883328
0.2754124
0.2635053
0.2526592
0.2427191
0.2334966
0.224818
0.2165077
0.2084116
0.2004702
0.1926659
0.1850932
0.1779283
0.1713395
0.1654627
0.1604108
0.1562892
0.1532062
0.1514295
0.1510106
0.1519734
0.1543234
0.1580393
0.1630643
0.1693484
0.1768192
0.1853379
0.1946863
0.2044844
0.2143095
0.223759
0.2325774
0.2407183
0.2481737
0.254736
0.2598571
0.2629757
0.2638208
0.2624678
0.2593451
0.2553972
0.2515326
0.2478587
0.2438419
0.2390115
0.2332955
0.226966
0.2203979
0.2137777
0.2072118
0.2007811
0.1945441
0.1884768
0.1824265
0.1762607
0.1700361
0.1638895
0.1578408
0.1518611
0.1459508
0.1401413
0.1344942
0.1290902
0.124004
0.1192896
0.1149762
0.1110725
0.1075776
0.1044902
0.1018141
0.09956038
0.09774463
0.09638195
0.09548137
0.09504144
0.09504668
0.09546345
0.09625684
0.09738363
0.0987359
0.1002034
0.1016847
0.103093
0.1043648
0.1054571
0.1062961
0.1068397
0.1070431
0.1068671
0.1063019
0.1053397
0.1039679
0.1021806
0.09998618
0.09741561
0.09452609
0.09139678
0.08812533
0.08482902
0.08163995
0.07868834
0.07608365
0.07389847
0.07215179
0.07081033
0.06980063
0.06902764
0.06839387
0.06781481
0.06723167
0.0666145
0.06595577
0.06526053
0.06453853
0.06379854
0.06304622
0.06228665
0.06153625
0.06080576
0.06010039
0.05942729
0.05879524
0.05821344
0.05769029
0.05723117
0.05683622
0.05649977
0.0562125
0.05596278
0.05573663
0.05551804
0.05529202
0.05504567
0.05476984
0.05445869
0.05411091
0.05372798
0.05331616
0.0528833
0.05243807
0.05199431
0.05156396
0.05115728
0.05078504
0.05045787
0.05018584
0.04997807
0.04984242
0.04978539
0.04981201
0.04992598
0.05012989
0.05042554
0.05081438
0.05129812
0.05187955
0.05255783
0.0533291
0.05419065
0.05514007
0.05617234
0.05727552
0.05842777
0.05959809
0.06074792
0.06183492
0.06281876
0.06366811
0.0643685
0.0649301
0.06539267
0.06582148
0.06629093
0.06686278
0.06757324
0.06843096
0.06941315
0.07047256
0.07156163
0.07264175
0.07368442
0.07467143
0.07558752
0.07641197
0.077119
0.07768864
0.078119
0.07842091
0.07859155
0.07859892
0.07840133
0.07798249
0.077373
0.07664423
0.07587607
0.07510197
0.07431436
0.07352065
0.0727498
0.07203406
0.07137537
0.07073806
0.07007699
0.06935915
0.06857009
0.06771446
0.06682461
0.06593492
0.06506804
0.06419902
0.06328767
0.06230825
0.06124285
0.06008276
0.05882778
0.05748637
0.0560744
0.05460835
0.05310061
0.05156127
0.04999889
0.04842057
0.04683658
0.04526201
0.04371259
0.04220824
0.04077301
0.03942494
0.03817091
0.03701188
0.03594836
0.03498273
0.03412256
0.03338759
0.03281384
0.03244663
0.03232371
0.03246592
0.03288594
0.03358502
0.03453946
0.03566312
0.03687479
0.03812463
0.03934853
0.04047317
0.04142075
0.04211501
0.04250499
0.04257755
0.04235693
0.041892
0.04124077
0.04046032
0.0396016
0.03870266
0.03778952
0.03688698
0.03601779
0.03520798
0.03447487
0.03382018
0.03324318
0.03274747
0.03233798
0.03201799
0.03178905
0.03165134
0.03160419
0.03164639
0.03177608
0.03199032
0.03228076
0.0326411
0.03306646
0.03355094
0.03408789
0.03466998
0.03528952
0.03593874
0.03661009
0.03729638
0.03799094
0.03868763
0.03938092
0.04006595
0.04073854
0.04139526
0.04203343
0.04265105
0.04324656
0.04381886
0.04437085
0.04490459
0.04541843
0.04591127
0.04638216
0.04683009
0.04725389
0.04765211
0.04802303
0.04836458
0.04867444
0.04895009
0.0491889
0.04938827
0.04954573
0.04965918
0.04972693
0.04974796
0.04972194
0.04964926
0.04953098
0.04936866
0.04916421
0.0489199
0.04863834
0.04832249
0.04797566
0.04760142
0.04720352
0.04678579
0.04635201
0.04590577
0.04545046
0.04498913
0.04452452
0.04405903
0.04359478
0.04313359
0.042677
0.04222632
0.04178261
0.04134674
0.04091938
0.04050101
0.04009193
0.03969216
0.03930135
0.03891864
0.03854294
0.03817337
0.03780952
0.03745062
0.03709764
0.03675405
0.03643261
0.03616757
0.01865411
0.02075901
0.02279168
0.03034011
0.04035944
0.05727967
0.06912574
0.08169452
0.09521564
0.1089513
0.1231899
0.1388703
0.1556661
0.172935
0.1910081
0.2113848
0.242742
0.2577384
0.2731031
0.2886829
0.3047643
0.3207891
0.3363404
0.3514951
0.3664074
0.3808341
0.3949772
0.4089853
0.4228346
0.4364778
0.4498209
0.4627124
0.4750183
0.486651
0.4974497
0.5072953
0.5159678
0.5230514
0.5292176
0.5349889
0.5401101
0.5443906
0.546242
0.5488809
0.5523263
0.5564357
0.5611621
0.5663836
0.5719337
0.5775421
0.5829598
0.5878615
0.5920173
0.595133
0.5969028
0.5966402
0.5948837
0.5919175
0.587971
0.5832223
0.5778401
0.5719406
0.5656308
0.5590056
0.5521642
0.5452404
0.5383691
0.5316454
0.5251467
0.5189682
0.513208
0.5079136
0.5030914
0.4987648
0.4948714
0.4911838
0.4874253
0.483401
0.4789378
0.4738534
0.4681102
0.4617387
0.4548105
0.447455
0.4398468
0.4322367
0.4244679
0.4163733
0.4079157
0.3991477
0.3901916
0.3811689
0.3721574
0.3632111
0.354381
0.3457283
0.3373247
0.3292538
0.3216012
0.3144561
0.3079244
0.3021256
0.2975705
0.2946793
0.2938672
0.2956371
0.3005891
0.3093493
0.3222626
0.3392616
0.3598418
0.383024
0.4072265
0.43041
0.4507187
0.4667277
0.4772741
0.481065
0.4769725
0.4649547
0.4469467
0.426512
0.4062292
0.3869424
0.3683373
0.3499387
0.3320286
0.3154196
0.300566
0.2874064
0.2755793
0.2646561
0.2543193
0.2443351
0.2345745
0.2250233
0.2157279
0.2067957
0.1983927
0.1906887
0.1838292
0.1779412
0.173143
0.1695425
0.1673463
0.1667472
0.1677925
0.1705045
0.1749062
0.1810107
0.1888173
0.1982576
0.2091781
0.2212053
0.2337539
0.2461694
0.2578773
0.2685339
0.2780834
0.2864408
0.2932427
0.2978676
0.2999682
0.2996733
0.2974071
0.2938728
0.2901193
0.2869492
0.2840514
0.280284
0.275013
0.2683786
0.2608445
0.2529554
0.2448926
0.2367871
0.2288473
0.2213161
0.2142989
0.2076679
0.2010831
0.1943389
0.1875214
0.180774
0.1741615
0.1677043
0.1614117
0.1552893
0.1493918
0.1437873
0.1385339
0.1336697
0.1292182
0.1251954
0.1216193
0.1185144
0.115911
0.1138404
0.112327
0.1113816
0.1109979
0.1111499
0.1117888
0.1128367
0.1142033
0.1157999
0.1174885
0.1191512
0.120719
0.1221606
0.1233956
0.1243699
0.1250411
0.1253591
0.125281
0.1247842
0.1238475
0.1224516
0.1205931
0.1182856
0.1155428
0.1124076
0.1089443
0.1052248
0.1013387
0.0973941
0.09350607
0.08978662
0.08632999
0.08320118
0.08043707
0.07804584
0.07600226
0.07425486
0.0727447
0.07141815
0.07023322
0.0691608
0.06818147
0.0672823
0.06645424
0.06568955
0.06497983
0.06431498
0.06369958
0.06314811
0.06265821
0.06223047
0.06186803
0.06157456
0.06135167
0.06119662
0.06110116
0.06105307
0.0610391
0.0610439
0.06105007
0.06104172
0.06100621
0.06093481
0.06082281
0.06066972
0.06047913
0.06025845
0.06001788
0.05976963
0.05952182
0.0592824
0.05906396
0.05887919
0.05874035
0.05865864
0.05864377
0.05870368
0.05884438
0.05907004
0.05938319
0.05978501
0.06027576
0.06085534
0.06152447
0.06228621
0.0631435
0.06409549
0.06514375
0.06628987
0.06752888
0.06884088
0.07018392
0.07150943
0.07276463
0.07389352
0.07484703
0.07559313
0.0761271
0.07648172
0.07673217
0.0769862
0.07735402
0.0779123
0.07869242
0.07968402
0.08083058
0.08205421
0.08328903
0.08448939
0.08563061
0.08670333
0.08769713
0.08858624
0.08933363
0.08991435
0.09033947
0.09064271
0.09082358
0.09081805
0.09054531
0.08997448
0.0891572
0.08821527
0.08728018
0.08638693
0.08549936
0.08459875
0.0837335
0.08297844
0.08235146
0.08178076
0.08116116
0.08043112
0.07958833
0.07867363
0.07775002
0.07685985
0.07600817
0.07516012
0.07425753
0.07325343
0.07212008
0.07084579
0.069432
0.06789284
0.06625283
0.06453964
0.06277569
0.06097485
0.05914718
0.0573037
0.05545865
0.05362611
0.05181812
0.05004722
0.04832557
0.04666042
0.04505401
0.043507
0.04202043
0.04059638
0.03923905
0.03795942
0.03677915
0.03572757
0.03483533
0.03413173
0.03364478
0.03339874
0.03341001
0.03368336
0.03421924
0.03501083
0.03603229
0.03721532
0.03844434
0.03966152
0.04080145
0.04180031
0.04260506
0.04317246
0.04347925
0.04352685
0.0433399
0.04295847
0.04242775
0.04179257
0.04109347
0.04036293
0.03962757
0.03891421
0.03823922
0.03761989
0.03707397
0.03661335
0.03624405
0.03596763
0.03578795
0.03570625
0.0357204
0.03582556
0.03601864
0.03629639
0.0366541
0.03708584
0.03758446
0.03814175
0.03874873
0.03939623
0.04007526
0.04077721
0.04149398
0.04221804
0.04294246
0.04366103
0.04436826
0.04505956
0.04573118
0.04638014
0.04700419
0.04760163
0.0481715
0.04871766
0.04923971
0.04973717
0.05020975
0.05065714
0.05107891
0.05147438
0.05184257
0.05218213
0.05249138
0.05276829
0.05301059
0.05321585
0.05338163
0.05350557
0.05358564
0.05362029
0.0536086
0.05355041
0.05344628
0.05329721
0.05310457
0.05287004
0.05259567
0.05228395
0.05193774
0.05156028
0.05115506
0.05072571
0.05027589
0.04980918
0.04932894
0.04883827
0.04834002
0.04783673
0.0473307
0.04682403
0.04631854
0.0458159
0.04531756
0.04482479
0.04433869
0.04386017
0.04338991
0.04292832
0.0424755
0.04203115
0.04159482
0.04116602
0.04074469
0.04033067
0.03992538
0.03953107
0.03915888
0.03885119
0.008047882
0.009431522
0.01048016
0.01566326
0.02158677
0.0293431
0.03564013
0.04273119
0.05036802
0.0584716
0.0673402
0.07775962
0.089154
0.1018595
0.1170737
0.140645
0.1529686
0.1659453
0.1791616
0.1925881
0.2061756
0.2198396
0.2334494
0.2469253
0.2601547
0.2730359
0.2857407
0.2996221
0.3138601
0.3284852
0.3436214
0.3588866
0.3738833
0.3884976
0.4024603
0.4160453
0.429282
0.4421734
0.4546592
0.4666447
0.4779927
0.4884865
0.4979846
0.5063645
0.5130779
0.5180551
0.521468
0.5231025
0.5235328
0.5232042
0.5226069
0.522401
0.522719
0.5243513
0.5275432
0.5323228
0.5385878
0.5460864
0.5544456
0.5632203
0.5719563
0.580182
0.58761
0.5934761
0.5977684
0.6006435
0.6022364
0.6026459
0.6019348
0.6001784
0.5975468
0.5941338
0.5900197
0.5853003
0.5801125
0.5746145
0.5689856
0.563363
0.5578654
0.5526404
0.547878
0.5436486
0.5399846
0.5369841
0.5345157
0.5321309
0.5293849
0.5260243
0.5218664
0.5167448
0.5106076
0.5035355
0.4956969
0.4873353
0.478814
0.4703677
0.461814
0.4530221
0.4438859
0.4344241
0.4247623
0.4150419
0.4053589
0.3957683
0.3863192
0.377078
0.3681295
0.3595807
0.3515595
0.344209
0.3377022
0.3322617
0.3281988
0.3264021
0.3275616
0.3324921
0.3421613
0.357422
0.3785488
0.4050452
0.4355603
0.4679271
0.4991653
0.5262217
0.5474085
0.5625507
0.5717015
0.5739732
0.5677141
0.551872
0.5278053
0.4995642
0.4718916
0.4467756
0.4238613
0.4015239
0.3791113
0.3578168
0.3387921
0.322226
0.3076544
0.2944532
0.2821133
0.2703077
0.2588706
0.2477855
0.2371155
0.2269698
0.2175124
0.2089121
0.2013199
0.1948714
0.1896933
0.185907
0.1836755
0.183306
0.184912
0.1885831
0.1944142
0.202493
0.2128166
0.2252397
0.2394541
0.2548637
0.2705675
0.2856348
0.2993245
0.3112451
0.3212671
0.3291364
0.3343609
0.3366681
0.3364349
0.3343898
0.3312867
0.3280276
0.3256187
0.3242682
0.3226679
0.3191963
0.313391
0.3057386
0.2969748
0.2877795
0.2783176
0.2686378
0.2590367
0.2499958
0.2417008
0.2339656
0.2262732
0.2183614
0.2104325
0.2027439
0.1953834
0.1883306
0.1815619
0.1750518
0.1688218
0.1629204
0.1573846
0.1522359
0.1475081
0.1432306
0.1394374
0.1361707
0.1334792
0.1314093
0.1299931
0.1292391
0.1291301
0.1296205
0.1306503
0.1321164
0.1338771
0.1357967
0.1377683
0.1396959
0.1415171
0.1431506
0.1445537
0.1456883
0.1464935
0.146888
0.1467963
0.146169
0.1449754
0.1432056
0.140881
0.1380553
0.1347922
0.1311566
0.1272105
0.1230017
0.1185864
0.1140616
0.1095284
0.1050847
0.1008192
0.09680918
0.09311102
0.0897582
0.08675401
0.08407978
0.08170817
0.07960904
0.07775067
0.07610138
0.07463427
0.07332846
0.07216756
0.0711379
0.0702273
0.06942383
0.06871367
0.06809082
0.06757915
0.06717676
0.06688017
0.06668622
0.06658959
0.06658102
0.06664685
0.06677039
0.06693311
0.06711511
0.06729713
0.06746248
0.06759816
0.06769557
0.06775088
0.06776526
0.0677446
0.06769863
0.06763962
0.06757982
0.06751766
0.0674664
0.06744046
0.067454
0.06752023
0.06765036
0.06785315
0.06813475
0.0684989
0.06894741
0.06948063
0.07009798
0.070798
0.07157742
0.07243304
0.07337195
0.07440421
0.07553483
0.07677306
0.07812721
0.0795923
0.08113759
0.08270383
0.08421446
0.08558632
0.08674215
0.08762409
0.0882044
0.08849685
0.08856944
0.08854879
0.08860198
0.08888665
0.08948736
0.09041715
0.09163398
0.09301858
0.0944584
0.09587751
0.09722734
0.09849207
0.09967488
0.100769
0.1017367
0.1025226
0.1030964
0.1034917
0.1037785
0.1039589
0.1039177
0.1035208
0.1027211
0.1015931
0.1003192
0.09910195
0.09799036
0.09689986
0.09575836
0.09463464
0.09367402
0.09293279
0.09229995
0.09159108
0.0907318
0.08978165
0.08882153
0.08790966
0.08707178
0.08629
0.08550089
0.08462724
0.08360494
0.08239969
0.08100325
0.07942545
0.07769063
0.07583562
0.07390214
0.07192545
0.06992442
0.06790707
0.06588292
0.06386444
0.06186223
0.05988376
0.05793494
0.05601994
0.05414151
0.05230192
0.05050313
0.0487468
0.04703425
0.04536754
0.04375214
0.0421981
0.04071913
0.03933114
0.03805254
0.03690649
0.03592035
0.03512396
0.03454627
0.03421138
0.03413336
0.03431415
0.03474129
0.03538941
0.03622927
0.03721838
0.03829465
0.03936213
0.04036634
0.04126709
0.0420275
0.04262176
0.04303731
0.04327004
0.04332753
0.04322743
0.04299532
0.04266156
0.04225741
0.04181246
0.04135298
0.04090197
0.04047958
0.04010049
0.03977604
0.03952195
0.03934978
0.03926661
0.03927446
0.03937359
0.03956359
0.03984192
0.04020413
0.04064392
0.0411534
0.0417236
0.04234499
0.04300799
0.04370319
0.04442145
0.04515407
0.0458928
0.04663003
0.04735891
0.04807351
0.04876881
0.04944066
0.05008568
0.05070113
0.05128484
0.05183731
0.05236027
0.05285352
0.0533173
0.05375198
0.05415794
0.05453543
0.05488443
0.0552046
0.05549523
0.05575524
0.05598317
0.05617724
0.05633547
0.05645575
0.056536
0.05657444
0.05656973
0.05652126
0.05642912
0.0562938
0.05611604
0.05589685
0.05563762
0.05534021
0.0550069
0.05464038
0.05424362
0.05381982
0.05337226
0.0529042
0.05241876
0.05191883
0.05140712
0.05088613
0.0503582
0.04982553
0.04929017
0.04875403
0.04821889
0.04768638
0.04715799
0.04663502
0.04611852
0.04560926
0.04510777
0.04461435
0.04412917
0.04365224
0.0431839
0.04272452
0.04227559
0.04183936
0.04142632
0.04108689
0.001810034
0.007393198
0.01128687
0.01585853
0.02095762
0.02677121
0.03337841
0.04060676
0.04865784
0.0583067
0.07294794
0.08150111
0.09069256
0.1002857
0.1103055
0.1206964
0.1314072
0.1423497
0.1533943
0.1644555
0.1755609
0.188081
0.2008062
0.2135908
0.2263636
0.239077
0.2516851
0.2641228
0.2764363
0.2886056
0.3006104
0.312694
0.3252076
0.337994
0.3511561
0.3645784
0.3779647
0.3910046
0.4034836
0.4155927
0.4274132
0.4389759
0.4502154
0.4609911
0.4711471
0.4804765
0.4885818
0.4949731
0.4994545
0.5017831
0.5019237
0.5001983
0.4968937
0.4926855
0.4883283
0.4846168
0.4823294
0.4821228
0.4845793
0.4899247
0.4980785
0.5086708
0.521163
0.5349154
0.5492091
0.5634087
0.5761867
0.5879597
0.5986573
0.6080881
0.6159491
0.6221767
0.626691
0.6294402
0.630553
0.6302278
0.6286504
0.6259902
0.6224405
0.6182447