/*--------------------------------*- C++ -*----------------------------------*\
| =========                 |                                                 |
| \\      /  F ield         | foam-extend: Open Source CFD                    |
|  \\    /   O peration     | Version:     3.1                                |
|   \\  /    A nd           | Web:         http://www.extend-project.de       |
|    \\/     M anipulation  |                                                 |
\*---------------------------------------------------------------------------*/
FoamFile
{
    version     2.0;
    format      ascii;
    class       volScalarField;
    location    "15";
    object      omega;
}
// * * * * * * * * * * * * * * * * * * * * * * * * * * * * * * * * * * * * * //

dimensions      [0 0 -1 0 0 0 0];

internalField   nonuniform List<scalar> 
119952
(
238.9782
289.6442
273.3833
244.974
226.0288
230.9841
238.7318
247.9793
258.3649
269.758
282.1377
295.4922
309.8849
325.4187
342.1971
360.3083
379.8351
400.8827
423.7283
450.1022
390.5935
400.565
414.522
357.0285
359.4124
362.8204
365.7456
367.2092
364.5173
159.9436
637.9468
522.0307
440.0244
385.1572
346.7041
318.5118
296.7814
279.3814
265.0558
247.857
199.3405
167.2171
146.4525
132.1722
121.8607
114.1324
108.1603
103.4134
99.53947
78.02368
75.63001
73.73971
72.50565
71.9425
71.93124
72.12173
72.36238
73.53444
76.18201
80.0871
84.40508
87.83141
89.04417
87.52798
83.65703
78.35897
72.4178
66.26614
61.11913
56.11343
51.56291
47.70247
44.42737
41.64944
39.26865
37.24374
35.528
34.07812
32.86142
31.85072
31.02295
30.35825
29.83875
29.44794
29.16953
28.98558
28.87188
28.78864
28.71443
28.72259
28.66989
28.54521
28.592
28.74905
28.97334
29.38611
30.98153
34.73798
35.94625
36.72907
37.32284
37.83311
38.33293
38.91003
39.63891
40.56973
41.73191
43.14878
44.85915
46.93261
49.49786
52.80524
57.2863
63.13728
69.09206
72.96338
74.45382
74.74616
74.42478
73.4549
71.69315
69.13217
65.92406
62.29918
58.51121
54.784
51.27751
48.08639
45.25365
42.77427
40.61994
38.77491
37.21422
35.91128
34.83863
33.97352
33.30072
32.81949
32.53416
32.44052
32.54264
32.84614
33.36965
34.17701
35.38057
37.22517
40.14207
44.96878
51.77947
58.24251
64.44788
70.71659
76.67579
81.51643
84.35837
84.82877
83.06201
79.52792
74.88886
69.83145
64.88816
60.36071
56.3843
52.95991
50.01145
47.46087
45.24896
43.32574
41.63993
40.14561
38.82535
37.66822
36.66618
35.79929
35.04958
34.40661
33.86339
33.41479
33.05682
32.78653
32.60316
32.51541
32.5471
32.69655
32.96222
33.34411
33.84372
34.46488
35.21003
36.11971
37.18421
38.33842
39.56372
40.83934
42.1237
43.36749
44.44429
47.22577
52.22082
56.13157
59.15022
61.38297
62.96963
64.06682
64.80307
65.29101
65.62497
65.85814
66.03947
66.21178
66.40316
66.62652
66.88787
67.19491
67.55787
67.98572
68.48478
69.05925
69.71093
70.44328
71.2652
72.19392
73.25176
74.45969
75.83549
77.39058
79.12572
81.025
83.05161
85.14019
87.18967
88.99712
89.01929
87.45754
86.05711
84.67392
83.37386
82.16305
81.05934
80.07174
79.19761
78.43015
77.76437
77.19985
76.73933
76.38626
76.14609
76.03317
76.07866
76.34243
76.82493
77.46618
78.22627
79.05291
79.87839
80.53394
80.97232
81.21552
81.42388
81.74325
82.11687
82.50697
82.87469
83.21379
83.67194
84.74143
86.29435
70.17355
69.15263
67.68046
65.88089
64.00836
62.18153
60.46324
58.88953
57.4988
56.39053
55.61151
55.23863
55.50143
57.18056
60.17678
63.18612
65.63988
66.78821
66.38671
64.83769
62.69549
60.28244
57.68341
54.85957
51.76421
48.39664
44.87606
41.4656
38.42868
35.83535
33.62598
31.7053
29.99709
28.47607
27.14088
25.99329
25.0219
24.17296
23.40573
22.69877
22.05183
21.46336
20.92952
20.44711
20.01447
19.63147
19.29378
18.99793
18.74378
18.52927
18.35156
18.20816
18.09814
18.02474
18.00941
17.94984
17.88998
17.82741
17.76206
17.69616
17.6328
17.57441
17.52276
17.4781
17.43883
17.403
17.36853
17.33367
17.29649
17.25526
17.2096
17.16094
17.11022
17.05832
17.00605
16.9538
16.90085
16.84592
16.78995
16.7331
16.67582
16.6189
16.56277
16.50771
16.45391
16.40154
16.35073
16.30157
16.25413
16.20846
16.16458
16.12252
16.08227
16.0438
16.00706
15.97197
15.93845
15.90637
15.87559
15.84591
15.81716
15.78915
15.76172
15.73467
15.70784
15.68102
15.65399
15.62649
15.59819
15.56876
15.53782
15.50499
15.46987
15.4321
15.39136
15.34739
15.29997
15.24891
15.19412
15.1355
15.07308
15.00696
14.93732
14.86433
14.7882
14.70908
14.62723
14.54329
14.45811
14.3729
14.28904
14.20755
14.12649
14.04081
13.94821
13.83739
13.67881
13.43784
13.52499
754.6914
615.8853
543.2264
494.5505
455.6185
422.1794
392.8479
367.0115
343.1849
286.1377
226.5114
191.2838
169.0885
154.1363
143.3731
135.1291
128.4618
122.8433
97.363
92.99352
88.8926
85.14143
81.80927
78.91609
76.3969
74.20026
72.25853
70.50052
68.96052
67.42705
65.81405
64.13093
62.38238
60.57556
58.72075
56.82928
54.91487
53.28276
51.83033
50.21442
48.51643
46.79865
45.10497
43.47232
41.93353
40.51654
39.24815
38.15052
37.21422
36.43607
35.80237
35.29839
34.90852
34.61249
34.38706
34.213
32.32664
32.25441
32.23164
32.29488
32.46889
32.80639
33.35306
34.07783
34.99501
36.15413
37.5928
39.23832
40.90244
42.32423
43.25596
43.52709
43.07876
41.9713
40.35567
38.41964
36.2874
34.13031
32.08579
30.20037
28.47844
26.91866
25.5309
24.32185
23.28752
22.41861
21.70339
21.1287
20.68054
20.3449
20.10821
19.95682
19.87582
19.848
19.85689
19.89042
19.93866
19.99041
20.05429
20.14325
20.24433
20.34279
20.434
20.50294
20.53933
20.54061
20.54295
20.55812
20.59039
20.65422
20.76298
20.92721
21.1619
21.48158
21.89961
22.43137
23.09405
23.90497
24.88386
26.03691
27.2913
28.47459
29.45368
30.25255
30.95873
31.60804
32.16451
32.54657
32.67148
32.48754
31.9873
31.20359
30.19505
29.03106
27.78047
26.50451
25.25302
24.063
22.94969
21.91894
20.97425
20.12341
19.37025
18.71463
18.15358
17.68266
17.29776
16.99685
16.78269
16.66608
16.65372
16.76242
17.02704
17.49715
18.19492
19.14139
20.31974
21.78167
23.55767
25.62121
27.88738
30.24794
32.59837
34.80435
36.70747
38.162
39.07189
39.40393
39.17945
38.45952
37.3347
35.91718
34.32577
32.66511
31.01264
29.42093
27.92226
26.52838
25.23603
24.03701
22.9297
21.90987
20.97226
20.11154
19.32271
18.60132
17.94336
17.34534
16.80423
16.31735
15.88205
15.49573
15.15602
14.86104
14.60929
14.39987
14.23233
14.1067
14.02316
13.98197
13.98387
14.02836
14.1037
14.18063
14.61034
15.19874
15.67705
16.06102
16.3606
16.58191
16.72951
16.8082
16.82357
16.78191
16.69045
16.55751
16.39163
16.2008
15.99229
15.77278
15.54815
15.32245
15.10395
14.90346
14.72043
14.55485
14.40763
14.27976
14.17172
14.08391
14.01686
13.97098
13.9462
13.9418
13.95614
13.98662
14.02902
14.07636
14.11968
14.15018
14.16527
14.17049
14.16926
14.16539
14.16305
14.16556
14.17509
14.19268
14.21871
14.2534
14.29726
14.35104
14.41571
14.49264
14.58424
14.69446
14.82804
14.98926
15.18148
15.40591
15.66458
15.97133
16.32183
16.70814
17.12215
17.55439
17.99458
18.4362
18.87774
19.32062
19.76685
20.21616
20.65202
21.00314
18.68995
18.68762
18.68703
18.7048
18.75059
18.82146
18.91285
19.02154
19.14836
19.30294
19.50148
19.76662
20.14029
20.65207
21.27543
21.99426
22.76276
23.52793
24.28289
25.06284
25.91061
26.84715
27.86029
28.89513
29.84754
30.60285
31.09772
31.30676
31.1723
30.60338
29.57405
28.17048
26.5424
24.83543
23.15972
21.58677
20.15211
18.86514
17.72032
16.70514
15.80559
15.00731
14.29731
13.66539
13.10198
12.5988
12.1495
11.74918
11.39402
11.08079
10.80674
10.56943
10.36647
10.19701
10.05713
9.941098
9.847996
9.776355
9.723568
9.686596
9.66244
9.64819
9.640999
9.638095
9.636964
9.636483
9.635823
9.633022
9.626491
9.615354
9.599216
9.578067
9.552218
9.522224
9.488826
9.452897
9.415381
9.377168
9.33912
9.302213
9.266478
9.230674
9.194518
9.158897
9.124376
9.091281
9.059779
9.029932
9.001729
8.9751
8.949931
8.926072
8.90334
8.881536
8.860441
8.839833
8.819488
8.799191
8.778739
8.757954
8.736684
8.714808
8.692234
8.668891
8.644726
8.619686
8.593717
8.566754
8.538722
8.509535
8.479094
8.447296
8.414032
8.379195
8.34268
8.304389
8.264232
8.222138
8.178055
8.13196
8.083863
8.033804
7.981855
7.928129
7.872781
7.816009
7.758073
7.699294
7.640044
7.580684
7.521413
7.462094
7.402432
7.342019
7.279897
7.214445
7.145932
7.080646
7.029619
577.7467
511.839
458.1256
418.7292
388.9415
366.1641
348.7653
336.2574
328.6225
318.1137
172.8577
161.1757
151.1165
142.9404
138.231
135.0509
131.8803
129.3236
125.7266
82.22291
80.29908
79.66898
79.08836
78.4861
77.85259
77.18725
76.48493
75.70752
74.69382
72.6512
70.41722
68.56055
67.10902
65.93184
64.91193
63.97583
63.08275
62.19925
62.29477
61.61768
60.57918
59.39528
58.18491
57.00555
55.88123
54.81851
53.8179
52.88198
51.99072
51.12518
50.28055
49.46067
48.67537
47.93324
47.23939
46.6012
43.37675
42.89407
42.45188
42.04332
41.66192
41.30292
40.96279
40.63277
40.29239
39.92542
39.53287
39.12341
38.69332
38.23023
37.72506
37.17215
36.57094
35.92736
35.25179
34.54382
33.8032
33.02882
32.23809
31.45141
30.69031
29.97665
29.33303
28.78223
28.34595
28.0395
27.87073
27.83877
27.93144
28.12522
28.38485
28.66547
28.91987
29.09642
29.20097
29.17132
29.04155
28.87978
28.77943
28.81786
28.96829
29.20688
29.54145
30.01563
30.6796
31.53947
32.53009
33.52081
34.34869
34.86253
34.95637
34.59212
33.79818
32.65151
31.25785
29.72356
28.14896
26.61278
25.17178
23.86729
22.70243
21.67936
20.80221
20.06963
19.47665
19.01549
18.67631
18.44872
18.32259
18.28706
18.32706
18.4244
18.55919
18.71522
18.8809
19.04982
19.22277
19.3968
19.55066
19.65917
19.70314
19.67505
19.57233
19.43306
19.29571
19.17212
19.05649
18.94522
18.8503
18.79138
18.78073
18.82688
18.93887
19.12676
19.39807
19.75357
20.18667
20.68281
21.21461
21.74005
22.22872
22.68344
23.12232
23.54996
23.94445
24.26261
24.45556
24.48328
24.32449
23.98005
23.46953
22.82497
22.08419
21.2851
20.46211
19.64442
18.85582
18.11526
17.43541
16.81685
16.26049
15.76908
15.34202
14.97649
14.66917
14.41705
14.21825
14.07449
13.99163
13.97388
14.03193
14.17989
14.42559
14.78114
15.26084
15.88388
16.66959
17.6247
18.73862
19.98623
21.3298
22.71471
24.06721
25.30381
26.34898
27.15165
27.68643
27.94391
27.92881
27.66134
27.17511
26.51201
25.71878
24.84113
23.91899
22.9845
22.06291
21.17169
20.31072
19.47783
18.67926
17.9187
17.19841
16.51971
15.88326
15.28932
14.73792
14.22875
13.76109
13.33371
12.94521
12.59408
12.27882
11.99782
11.74966
11.53298
11.34683
11.19008
11.06227
10.96179
10.8879
10.83834
10.8263
10.81882
10.81358
10.80817
10.79979
10.78551
10.76258
10.72882
10.68275
10.62374
10.55206
10.46876
10.37554
10.27456
10.16828
10.05939
9.950695
9.845441
9.745359
9.65165
9.565254
9.486904
9.417144
9.356291
9.304376
9.2611
9.225838
9.197714
9.175737
9.158966
9.14668
9.138476
9.13423
9.133877
9.137156
9.143473
9.152281
9.163581
9.177467
9.193958
9.213091
9.23489
9.259336
9.286287
9.315438
9.346467
9.379306
9.414332
9.452181
9.493372
9.53836
9.588121
9.644724
9.711366
9.791767
9.88937
10.00792
10.14813
10.30878
10.48878
10.68573
10.89507
11.11129
11.32933
11.54469
11.75283
11.94933
12.12918
12.2873
12.41644
12.58535
12.7268
12.84633
12.95322
13.05261
13.14763
13.24087
13.3342
13.42983
13.53213
13.64712
13.7838
13.95579
14.17331
14.43717
14.74479
15.08551
15.44772
15.83518
16.26837
16.77137
17.36146
18.05034
18.83696
19.69647
20.59148
21.4991
22.40897
23.28766
24.06108
24.64155
24.9683
25.01573
24.77646
24.25723
23.48717
22.51939
21.42051
20.25654
19.0848
17.94997
16.88115
15.89217
14.98622
14.16365
13.42255
12.75863
12.16602
11.63596
11.16164
10.73827
10.36176
10.02839
9.734671
9.47727
9.253657
9.061856
8.899365
8.763284
8.650781
8.559185
8.485807
8.427859
8.382572
8.347626
8.320035
8.296915
8.275983
8.255437
8.233924
8.210514
8.184652
8.15612
8.124982
8.091533
8.05624
8.019688
7.982525
7.945428
7.909088
7.874187
7.841509
7.811006
7.781893
7.754311
7.728344
7.704001
7.681221
7.659891
7.639848
7.620893
7.602795
7.585302
7.568143
7.551045
7.533732
7.515942
7.49743
7.477979
7.457407
7.435574
7.412384
7.387783
7.361751
7.334291
7.305416
7.275145
7.243495
7.210479
7.176107
7.140387
7.103318
7.064899
7.025121
6.983971
6.941434
6.897492
6.852131
6.805346
6.757145
6.707553
6.656617
6.604409
6.551029
6.496608
6.441312
6.38534
6.328922
6.272299
6.215681
6.159179
6.102781
6.046439
5.990097
5.933492
5.876455
5.819387
5.764494
5.716868
334.015
242.8364
345.062
155.8079
121.9107
89.20298
77.29578
67.24665
58.99241
55.02496
53.41933
52.58004
51.84851
51.27579
50.71952
50.23848
49.83619
49.58618
49.45552
49.35716
49.29587
49.31394
49.61428
50.1222
50.69282
51.33363
52.01617
52.73036
53.4824
54.18304
54.69327
53.66418
54.08522
54.41341
54.65784
54.8099
54.86243
54.81796
54.67293
54.43475
54.11016
53.69021
53.17547
52.57322
51.91678
51.22878
50.52164
49.80556
49.08859
48.37697
47.6791
46.99595
46.32263
45.65732
45.001
44.35617
43.72576
43.11278
42.52107
41.95504
41.41772
40.91126
40.43779
39.99824
39.58999
39.20681
38.84406
38.48943
38.18679
37.87985
37.57216
37.26613
36.96481
36.67125
36.38486
36.09519
35.8048
35.51422
35.2127
34.89146
34.54418
34.16527
33.74905
33.2909
32.78845
32.24235
31.65675
31.03989
30.40505
29.77284
29.14515
28.5332
27.95727
27.44159
27.01387
26.7035
26.53909
26.54592
26.73618
27.10426
27.62727
28.26213
28.9446
29.59927
30.15063
30.53009
30.67277
30.54615
30.17933
29.6711
29.1791
28.78784
28.49134
28.26651
28.11318
28.07121
28.19439
28.51016
28.99565
29.57564
30.13813
30.5595
30.7331
30.59231
30.12089
29.34774
28.33443
27.15824
25.89853
24.62565
23.39623
22.25407
21.2321
20.33811
19.5797
18.95964
18.47666
18.12628
17.90206
17.79664
17.80209
17.9082
18.10002
18.35485
18.64651
18.951
19.25304
19.54824
19.83405
20.09716
20.30601
20.42824
20.44695
20.36413
20.20067
20.00535
19.82463
19.66198
19.48985
19.28864
19.06429
18.84362
18.65015
18.49632
18.39221
18.34809
18.3713
18.45946
18.59741
18.76544
18.94902
19.13972
19.33486
19.53855
19.7569
19.98865
20.21902
20.42113
20.56177
20.60915
20.54043
20.34595
20.02984
19.6075
19.10162
18.53814
17.94296
17.33966
16.74852
16.18607
15.66473
15.19342
14.77591
14.41102
14.09727
13.83122
13.6085
13.42469
13.27652
13.163
13.085
13.04275
13.03863
13.07691
13.16256
13.30199
13.50365
13.77788
14.13585
14.58645
15.13368
15.77561
16.50362
17.29935
18.13176
18.9587
19.73346
20.41463
20.97143
21.38093
21.62915
21.71234
21.63679
21.41682
21.07292
20.62959
20.11242
19.54552
18.94994
18.34306
17.74008
17.15132
16.57225
16.00336
15.44868
14.91138
14.39412
13.89926
13.42891
12.98484
12.56831
12.17982
11.8194
11.4868
11.18155
10.90279
10.64956
10.42092
10.21609
10.03432
9.875035
9.737503
9.621107
9.52496
9.448499
9.389346
9.343576
9.307335
9.276927
9.248928
9.220322
9.188644
9.152081
9.109537
9.060644
9.005705
8.945603
8.881675
8.815613
8.749388
8.685254
8.624914
8.56913
8.518601
8.473938
8.435577
8.403668
8.377951
8.357706
8.341778
8.328716
8.317008
8.305374
8.293106
8.280388
8.268449
8.259322
8.255132
8.257316
8.266341
8.281761
8.302386
8.326778
8.353661
8.382114
8.41168
8.442215
8.47351
8.504978
8.535834
8.565695
8.595061
8.624871
8.655282
8.685308
8.714121
8.742737
8.774715
8.815377
8.87009
8.943103
9.033465
9.140286
9.264248
9.405256
9.560014
9.72245
9.886217
10.04569
10.19593
10.33322
10.45603
10.56445
10.66001
10.74648
10.82427
10.89421
10.95656
11.01122
11.05858
11.09985
11.13667
11.17073
11.20387
11.23838
11.27778
11.32757
11.39341
11.47887
11.58534
11.71177
11.85707
12.02491
12.22479
12.46929
12.77227
13.14738
13.60388
14.142
14.7556
15.44034
16.19394
17.00396
17.842
18.66254
19.41686
20.06623
20.5839
20.95066
21.15304
21.18339
21.03707
20.70882
20.20465
19.54652
18.77051
17.91897
17.03246
16.14573
15.28554
14.46914
13.70603
13.00229
12.35913
11.77571
11.24986
10.77637
10.35041
9.968399
9.627483
9.32495
9.058172
8.824565
8.62159
8.446769
8.297642
8.17167
8.065996
7.977468
7.902939
7.839562
7.784809
7.736473
7.692685
7.651931
7.613055
7.575238
7.53797
7.501
7.46429
7.427965
7.392271
7.357535
7.324138
7.292483
7.262961
7.235968
7.211403
7.188819
7.168026
7.148836
7.131045
7.114426
7.098732
7.083695
7.069033
7.054451
7.039647
7.024323
7.008186
6.990963
6.972403
6.952291
6.930453
6.906764
6.881152
6.853599
6.824126
6.792786
6.75964
6.724757
6.688208
6.650064
6.610398
6.569282
6.526783
6.482966
6.437889
6.3916
6.344137
6.295532
6.24581
6.194998
6.143128
6.090239
6.036388
5.981648
5.926112
5.869898
5.813147
5.756023
5.698708
5.641382
5.584204
5.527275
5.47065
5.414363
5.358458
5.302906
5.247814
5.193465
5.141042
5.094703
302.9652
203.6485
153.6614
136.0815
110.2372
91.66281
78.44612
73.18143
67.39208
63.99794
61.09787
57.28107
53.51744
49.99011
46.79927
43.31864
37.86677
36.65182
35.77128
35.31678
35.24152
35.42629
35.73409
36.11267
36.55555
37.08723
37.70202
38.37607
39.10209
39.88024
40.71201
41.59837
42.54242
43.54712
44.60233
45.68959
46.80805
47.91887
48.99395
50.09819
51.06687
51.85812
52.30361
52.63146
52.87992
53.02288
53.05824
52.9856
52.81038
52.53333
52.16194
51.703
51.17177
50.58758
49.96451
49.32557
48.68187
48.03638
47.39163
46.74884
46.11024
45.47626
44.84724
44.22323
43.60493
42.99562
42.39956
41.81979
41.25891
40.72117
40.21215
39.73594
39.29472
38.89221
38.52924
38.19782
37.88571
37.58379
37.28351
36.9781
36.66372
36.34011
36.00925
35.67653
35.34939
35.03217
34.72674
34.42446
34.11445
33.78976
33.44697
33.08377
32.69688
32.28178
31.83446
31.35283
30.83733
30.29142
29.72154
29.13726
28.55291
27.99043
27.46886
27.01225
26.65262
26.42825
26.38279
26.5605
26.99051
27.67369
28.58133
29.65822
30.81676
31.94358
32.93575
33.71523
34.22042
34.38421
34.14921
33.51818
32.60638
31.63079
30.74203
29.97511
29.29956
28.68815
28.1741
27.827
27.68939
27.75114
27.95465
28.2108
28.4187
28.48573
28.34429
27.96251
27.34526
26.52698
25.56135
24.50883
23.42723
22.36697
21.36969
20.46919
19.68878
19.03907
18.52714
18.15533
17.92286
17.82763
17.86679
18.03424
18.31903
18.70026
19.14478
19.61488
20.07717
20.51107
20.91187
21.27254
21.56987
21.76681
21.84272
21.80374
21.67192
21.48402
21.29517
21.14625
21.01725
20.84424
20.59519
20.28359
19.94332
19.60894
19.29358
19.00837
18.76959
18.5941
18.48636
18.43019
18.39514
18.36144
18.332
18.31959
18.3343
18.38043
18.45457
18.54467
18.63042
18.68686
18.68917
18.61722
18.45925
18.21342
17.88728
17.49556
17.05739
16.59331
16.12304
15.664
15.23059
14.83375
14.4807
14.17513
13.91703
13.70262
13.52645
13.38263
13.26625
13.1744
13.1045
13.0543
13.02216
13.00726
13.01023
13.03329
13.07946
13.15303
13.26021
13.4085
13.60544
13.85736
14.16822
14.53871
14.96482
15.43576
15.93303
16.43215
16.90637
17.3289
17.6754
17.92719
18.07343
18.1104
18.0409
17.87377
17.62245
17.30316
16.93265
16.52665
16.09904
15.6614
15.22324
14.79374
14.37386
13.96021
13.55437
13.1579
12.7725
12.40001
12.04231
11.70104
11.37742
11.07222
10.78593
10.51885
10.27087
10.04171
9.83102
9.638489
9.463834
9.306807
9.167154
9.044595
8.93873
8.849002
8.774647
8.713666
8.663569
8.621815
8.585918
8.55356
8.522725
8.491798
8.459651
8.425672
8.389762
8.352279
8.313964
8.275854
8.239237
8.205634
8.176124
8.15125
8.131634
8.117853
8.110177
8.108261
8.110956
8.116431
8.122383
8.126344
8.126114
8.120213
8.10839
8.09211
8.074722
8.060886
8.055053
8.059919
8.076244
8.102834
8.136697
8.17443
8.213545
8.252692
8.291524
8.330264
8.368825
8.406165
8.440666
8.471468
8.499638
8.527194
8.554091
8.577113
8.592772
8.60087
8.605939
8.616071
8.639295
8.678683
8.731397
8.796274
8.876186
8.974516
9.089742
9.214194
9.338524
9.455504
9.561129
9.655003
9.739598
9.817815
9.891348
9.959855
10.02129
10.07346
10.11458
10.14364
10.1607
10.16716
10.16522
10.1572
10.14479
10.12904
10.11153
10.09529
10.08416
10.08135
10.08887
10.10779
10.13927
10.18592
10.25257
10.34611
10.47489
10.64802
10.87408
11.1597
11.50969
11.92866
12.42058
12.98463
13.60884
14.26761
14.92764
15.55733
16.13583
16.65148
17.09703
17.46839
17.76014
17.96118
18.05725
18.03744
17.89808
17.63861
17.26506
16.79142
16.23856
15.63078
14.99147
14.34114
13.6967
13.07088
12.47306
11.91114
11.38913
10.90798
10.46743
10.06671
9.704327
9.378121
9.086383
8.827144
8.598125
8.396919
8.22122
8.068564
7.936365
7.822036
7.723049
7.63699
7.561626
7.494982
7.435382
7.381462
7.332151
7.286641
7.244354
7.204896
7.16803
7.133638
7.101694
7.072233
7.045316
7.021012
6.999384
6.980116
6.962767
6.946948
6.932298
6.918475
6.905145
6.89198
6.87866
6.864871
6.850307
6.834675
6.817702
6.799133
6.778745
6.756349
6.731799
6.705
6.675912
6.644555
6.610996
6.575331
6.537662
6.498094
6.456734
6.413689
6.36907
6.322985
6.27554
6.226836
6.176965
6.126007
6.074031
6.021091
5.967234
5.912503
5.856939
5.800593
5.743523
5.685803
5.627522
5.568789
5.509729
5.450482
5.3912
5.33203
5.273106
5.214536
5.156401
5.098767
5.041717
4.985311
4.929717
4.875127
4.822405
4.775898
156.116
115.4497
176.6303
86.75394
74.05877
63.0812
59.72722
57.29115
54.64935
53.50518
52.08099
50.08494
48.22417
46.263
43.98524
39.55151
38.51233
37.54654
36.62928
35.76191
34.90246
34.09164
33.37954
32.79213
32.34819
32.05105
31.82747
31.6124
31.568
31.72223
32.06243
32.54295
33.10963
33.73789
34.44462
35.20511
36.01236
36.86378
37.75958
38.70275
39.69667
40.73917
41.83604
42.99499
44.195
45.38307
46.56676
47.60044
48.46391
49.16659
49.704
50.11093
50.35154
50.47878
50.49746
50.40868
50.2241
49.95494
49.61249
49.211
48.76066
48.29939
47.8397
47.39299
46.96841
46.55184
46.13761
45.72085
45.29602
44.85903
44.41236
43.95525
43.48662
43.00669
42.51851
42.02692
41.53907
41.06083
40.59736
40.15605
39.7478
39.37782
39.04935
38.76989
38.53572
38.32441
38.11132
37.88141
37.62356
37.32754
36.98947
36.61315
36.20769
35.78667
35.37008
34.97743
34.60479
34.24005
33.87011
33.4882
33.09401
32.6887
32.2709
31.8368
31.38252
30.90607
30.40793
29.8917
29.36431
28.83574
28.32046
27.84012
27.42713
27.1282
26.9895
27.06734
27.42745
28.12463
29.17237
30.52801
32.09382
33.74581
35.32615
36.67059
37.69426
38.39857
38.79927
38.86128
38.50496
37.6743
36.43306
34.99271
33.61564
32.41762
31.37998
30.41241
29.48887
28.70003
28.13191
27.79764
27.64595
27.59298
27.54791
27.4311
27.18253
26.76822
26.18312
25.44677
24.59581
23.67526
22.73101
21.80549
20.93562
20.15249
19.48333
18.94669
18.55319
18.30921
18.21989
18.28893
18.51555
18.89153
19.39881
20.00273
20.65127
21.291
21.88008
22.39668
22.83258
23.17054
23.37952
23.44388
23.38734
23.25291
23.08308
22.92624
22.83307
22.80696
22.76903
22.62729
22.3581
21.99263
21.57615
21.14934
20.72201
20.29864
19.89949
19.55561
19.27817
19.05101
18.83651
18.61693
18.40877
18.23321
18.10046
18.01079
17.95768
17.92871
17.90724
17.87409
17.80997
17.69851
17.52897
17.29815
17.01067
16.67772
16.31492
15.9397
15.56889
15.21721
14.89656
14.61541
14.37827
14.18538
14.0333
13.9164
13.8279
13.76146
13.7128
13.67775
13.65361
13.63799
13.62788
13.61986
13.61157
13.60251
13.59364
13.58777
13.59005
13.60763
13.64803
13.71844
13.82485
13.97125
14.15932
14.3869
14.64677
14.92662
15.21003
15.47792
15.71128
15.89346
16.01105
16.05508
16.02257
15.91637
15.74383
15.51511
15.2417
14.93537
14.60708
14.26628
13.92065
13.57622
13.2382
12.90964
12.58786
12.2731
11.96602
11.66755
11.37881
11.10094
10.83498
10.58177
10.34188
10.11563
9.903169
9.704571
9.519852
9.349029
9.192137
9.049239
8.92041
8.805694
8.705043
8.618277
8.544831
8.483325
8.432216
8.389863
8.354582
8.324731
8.298799
8.275497
8.253839
8.233192
8.213288
8.19421
8.176339
8.160266
8.146764
8.136891
8.131555
8.131298
8.136939
8.149272
8.16844
8.193348
8.221503
8.249436
8.273264
8.289299
8.294706
8.288081
8.270095
8.244192
8.216745
8.195995
8.189373
8.200351
8.229004
8.272598
8.324669
8.379708
8.43458
8.487811
8.539539
8.590631
8.641026
8.688713
8.730664
8.765438
8.7953
8.824332
8.852386
8.872748
8.878128
8.866785
8.844386
8.822883
8.81496
8.82363
8.843057
8.869449
8.907603
8.965559
9.044144
9.133218
9.2189
9.294131
9.35996
9.420089
9.47828
9.53716
9.596838
9.654344
9.704681
9.743111
9.766579
9.773886
9.765533
9.743549
9.711025
9.671169
9.626237
9.577106
9.524577
9.470742
9.418432
9.369997
9.326963
9.290369
9.261306
9.241491
9.23375
9.242136
9.271722
9.328349
9.418165
9.547157
9.720998
9.945062
10.22413
10.56082
10.95277
11.38999
11.85531
12.32986
12.79767
13.2462
13.66642
14.05264
14.40071
14.70891
14.97205
15.18361
15.33701
15.42431
15.43752
15.37182
15.22797
15.01157
14.72922
14.38967
14.00333
13.58172
13.13668
12.67915
12.21862
11.76317
11.31982
10.89469
10.49241
10.11567
9.765622
9.443186
9.148776
8.882006
8.642025
8.427685
8.237479
8.069625
7.922137
7.792897
7.679768
7.580693
7.493782
7.417348
7.349919
7.290238
7.237239
7.190038
7.14791
7.110279
7.076683
7.046749
7.020164
6.996651
6.975964
6.957851
6.941765
6.927121
6.913401
6.900138
6.886906
6.873322
6.859032
6.843717
6.827087
6.808881
6.788868
6.766848
6.742652
6.716148
6.68724
6.655882
6.62208
6.585901
6.547464
6.506911
6.464381
6.42001
6.373931
6.326274
6.277167
6.226733
6.17509
6.122344
6.068594
6.013924
5.9584
5.902077
5.844996
5.787195
5.728712
5.669591
5.609886
5.549665
5.48901
5.428019
5.366804
5.305491
5.244207
5.18308
5.122228
5.061762
5.00178
4.942368
4.883625
4.825649
4.768603
4.71266
4.658549
4.61106
61.6377
47.22768
46.16409
43.75171
42.63118
41.28036
40.15867
39.18586
38.34462
37.1186
34.3116
34.02522
33.75328
33.49912
33.23105
32.93913
32.65987
32.42289
32.23943
32.09779
31.87091
31.43538
31.01531
30.61822
30.24983
29.91416
29.63038
29.41551
29.27288
29.20417
29.20545
29.26972
29.41239
29.6616
30.02963
30.51272
31.087
31.72467
32.44364
33.22097
34.04784
34.92564
35.85313
36.82732
37.85523
38.95018
40.09932
41.29324
42.55416
43.767
44.80873
45.68936
46.36674
46.84653
47.13931
47.26494
47.25047
47.12558
46.92631
46.67688
46.39532
46.09855
45.80462
45.54024
45.32811
45.16485
45.06313
45.01156
44.98727
44.96926
44.93352
44.86979
44.76746
44.61674
44.41765
44.17479
43.89308
43.57668
43.23149
42.86689
42.49442
42.12873
41.78058
41.45854
41.17503
40.9433
40.76945
40.66518
40.6381
40.65597
40.65963
40.60871
40.48493
40.26891
39.94286
39.50771
38.97787
38.37707
37.73591
37.10643
36.50199
35.92406
35.36734
34.82232
34.28314
33.75117
33.23028
32.72103
32.21993
31.72247
31.22608
30.73108
30.24148
29.76602
29.31731
28.91274
28.57825
28.34994
28.28679
28.48352
29.02238
30.00135
31.46122
33.32272
35.41833
37.53259
39.48721
41.01804
41.96359
42.38913
42.51716
42.49402
42.29844
41.82576
40.97688
39.7199
38.17371
36.67069
35.41371
34.25379
32.95067
31.58511
30.3529
29.36493
28.64272
28.14117
27.77575
27.46191
27.12829
26.7219
26.2118
25.59081
24.87045
24.07569
23.23953
22.3974
21.58378
20.83047
20.16538
19.61431
19.20379
18.94998
18.86566
18.9604
19.23992
19.70142
20.32753
21.083
21.9085
22.72572
23.46814
24.09563
24.59245
24.9388
25.10454
25.08512
24.92342
24.69432
24.46802
24.29377
24.21944
24.28061
24.43035
24.51484
24.43481
24.18693
23.81173
23.35596
22.85405
22.32768
21.7757
21.22906
20.73501
20.30609
19.92929
19.58459
19.24916
18.92804
18.64371
18.40377
18.2066
18.04553
17.91075
17.78987
17.66884
17.53352
17.37154
17.17464
16.94046
16.67295
16.38186
16.0811
15.78622
15.51186
15.27009
15.07014
14.91778
14.81392
14.75277
14.72346
14.71473
14.71824
14.72835
14.74092
14.75457
14.76946
14.78448
14.79458
14.79193
14.76983
14.72518
14.65851
14.57338
14.47639
14.37677
14.28492
14.21015
14.16009
14.14047
14.15494
14.20489
14.28804
14.39824
14.5254
14.65629
14.77625
14.87121
14.92858
14.93859
14.89597
14.80007
14.65402
14.46366
14.23678
13.98209
13.70815
13.42263
13.13185
12.84069
12.55281
12.27104
11.99764
11.73149
11.47265
11.22156
10.9788
10.74502
10.52088
10.30692
10.10353
9.910942
9.729256
9.558543
9.398878
9.250374
9.113199
8.987595
8.873854
8.772257
8.682984
8.605751
8.53993
8.484767
8.439372
8.402727
8.373754
8.351303
8.334224
8.321445
8.312065
8.30543
8.301179
8.299262
8.299899
8.303493
8.310535
8.321757
8.3382
8.360691
8.390604
8.429286
8.476671
8.530194
8.585001
8.634892
8.67376
8.69673
8.700851
8.68556
8.653358
8.610719
8.568288
8.539092
8.533955
8.556498
8.604425
8.671495
8.746398
8.821434
8.893985
8.96309
9.029546
9.094797
9.158458
9.217213
9.266836
9.305703
9.337451
9.36838
9.397843
9.415203
9.41022
9.380705
9.333115
9.282017
9.243947
9.222784
9.209343
9.195378
9.186694
9.196428
9.229074
9.275807
9.322523
9.363346
9.40163
9.440555
9.481677
9.526719
9.575243
9.622375
9.660328
9.682265
9.684745
9.667415
9.631929
9.58135
9.519721
9.451176
9.378693
9.303357
9.225709
9.147333
9.070315
8.996062
8.925183
8.858027
8.795201
8.737886
8.687981
8.648121
8.621562
8.612017
8.623477
8.660102
8.726151
8.825898
8.963385
9.141864
9.362566
9.62275
9.915008
10.22919
10.55476
10.8817
11.20217
11.51204
11.80986
12.09434
12.36235
12.60891
12.82725
13.01271
13.16018
13.26447
13.32237
13.33253
13.29433
13.2084
13.07723
12.90517
12.69804
12.46081
12.1977
11.91284
11.6106
11.29585
10.97365
10.649
10.32664
10.01148
9.708238
9.42066
9.151073
8.900991
8.671411
8.462684
8.274506
8.10603
7.956148
7.823523
7.706685
7.604118
7.514335
7.435912
7.367525
7.307964
7.256139
7.211086
7.171951
7.137971
7.108454
7.082763
7.0603
7.040546
7.022927
7.006679
6.991123
6.975668
6.959799
6.943072
6.925112
6.905601
6.88428
6.860937
6.83541
6.807576
6.777351
6.744683
6.709558
6.671994
6.632057
6.589869
6.545608
6.499472
6.451642
6.402284
6.351551
6.299587
6.246526
6.192483
6.137561
6.081847
6.025414
5.968317
5.910595
5.85227
5.793352
5.73385
5.673778
5.613159
5.552026
5.490431
5.428441
5.366138
5.30362
5.240998
5.178387
5.115892
5.053617
4.991676
4.930183
4.869242
4.808963
4.749458
4.69088
4.63341
4.577734
4.529029
86.01668
36.78025
30.92703
29.55209
28.73505
28.29206
28.12596
28.12448
28.24304
28.44867
28.60645
28.57745
28.54816
28.50873
28.46156
28.40305
28.34262
28.28333
28.21638
28.12452
27.98707
27.81462
27.65524
27.51601
27.40318
27.3219
27.28019
27.28499
27.33435
27.42802
27.56666
27.75488
28.00302
28.32098
28.71792
29.19514
29.74338
30.40021
31.13948
31.95128
32.83531
33.79516
34.82526
35.89936
37.03125
38.27551
39.54476
40.76026
41.87971
42.83696
43.5789
44.09064
44.36205
44.41494
44.27853
44.00854
43.66076
43.3007
42.96167
42.6891
42.5168
42.48081
42.59396
42.85149
43.23054
43.70326
44.22417
44.74966
45.25518
45.70676
46.08105
46.35888
46.53247
46.60143
46.57716
46.47762
46.32086
46.11556
45.8732
45.61022
45.34938
45.11353
44.91713
44.77504
44.71317
44.74568
44.89053
45.19314
45.63908
46.09864
46.43399
46.59892
46.59565
46.40295
45.99297
45.37416
44.56653
43.61076