/*--------------------------------*- C++ -*----------------------------------*\
| =========                 |                                                 |
| \\      /  F ield         | foam-extend: Open Source CFD                    |
|  \\    /   O peration     | Version:     3.1                                |
|   \\  /    A nd           | Web:         http://www.extend-project.de       |
|    \\/     M anipulation  |                                                 |
\*---------------------------------------------------------------------------*/
FoamFile
{
    version     2.0;
    format      ascii;
    class       volScalarField;
    location    "20";
    object      alpha1;
}
// * * * * * * * * * * * * * * * * * * * * * * * * * * * * * * * * * * * * * //

dimensions      [0 0 0 0 0 0 0];

internalField   nonuniform List<scalar> 
119952
(
1
1
1
1
1
1
1
1
1
1
1
1
1
1
1
1
1
1
1
1
1
1
1
1
1
1
1
1
1
1
1
1
1
1
1
1
1
1
1
1
1
1
1
1
1
1
1
1
1
1
1
1
1
1
1
1
1
1
1
1
1
1
1
1
1
1
1
1
1
1
1
1
1
1
1
1
1
1
1
1
1
1
1
1
1
1
1
1
1
1
1
1
1
1
1
1
1
1
1
1
1
0.9999999
1
1
1
1
1
1
1
1
1
0.9999999
1
1
1
1
1
0.9999999
1
1
1
0.9999999
1
1
1
0.9999999
1
1
1
0.9999999
1
1
1
0.9999999
0.9999999
1
1
1
1
1
1
0.9999999
1
1
1
1
1
1
1
0.9999999
1
1
1
1
1
1
1
0.9999999
0.9999999
1
1
1
1
1
0.9999999
1
1
1
1
1
0.9999999
1
1
1
1
0.9999999
0.9999999
1
1
1
1
0.9999999
1
1
1
0.9999999
1
1
1
1
0.9999999
1
1
1
1
1
0.9999999
0.9999999
0.9999999
1
1
0.9999999
1
1
0.9999999
1
1
1
0.9999999
1
1
1
0.9999999
1
0.9999999
0.9999999
1
1
0.9999999
1
1
1
0.9999999
1
1
1
0.9999999
1
1
0.9999999
1
1
0.9999999
1
0.9999999
1
1
0.9999999
1
1
0.9999999
1
1
1
0.9999998
1
1
0.9999998
1
1
0.9999999
0.9999999
1
1
1
0.9999999
1
0.9999999
1
1
1
0.9999999
1
0.9999999
1
0.9999999
1
0.9999999
1
0.9999998
0.9999999
1
0.9999998
0.9999999
0.9999999
0.9999999
1
1
0.9999999
0.9999998
1
1
0.9999998
0.9999999
1
1
1
1
0.9999998
0.9999998
1
0.9999998
0.9999999
1
1
1
1
1
1
0.9999999
0.9999996
1
1
1
1
1
0.9999999
0.9999999
1
1
1
1
1
1
1
0.9999997
1
1
0.9999999
1
1
1
1
1
0.9999999
1
1
1
0.9999997
0.9999999
1
1
1
1
1
1
1
1
1
1
0.9999999
0.9999999
1
1
1
1
1
1
1
1
1
1
1
1
1
1
1
1
1
1
1
1
1
1
1
1
1
1
1
1
1
1
1
1
1
1
1
1
1
1
1
1
1
1
1
1
1
1
1
1
1
1
1
1
1
1
1
1
1
1
1
0.9999999
1
1
1
0.9999999
1
1
1
1
1
1
1
1
1
1
1
1
1
1
1
1
1
1
1
1
1
1
1
1
1
1
1
1
1
1
1
1
1
1
1
1
1
1
1
1
1
1
1
1
1
1
1
1
1
1
1
1
1
1
1
1
1
1
1
1
1
1
1
1
1
1
1
1
1
1
1
1
1
1
1
1
1
1
1
1
1
1
1
1
1
1
1
1
1
1
1
1
1
1
1
1
1
1
1
1
1
1
1
1
1
1
1
1
1
1
1
1
1
1
1
1
1
1
1
1
1
1
1
1
1
1
1
1
1
1
1
1
1
1
1
1
1
1
1
1
1
1
1
1
1
1
1
1
1
1
1
1
1
1
1
1
1
1
1
1
1
1
1
1
1
1
1
1
1
1
1
1
1
1
1
1
1
1
1
1
1
1
1
1
1
1
1
1
1
1
1
1
1
1
1
1
1
1
1
0.9999999
1
1
1
1
1
1
1
1
1
0.9999999
1
1
1
0.9999999
1
1
1
1
1
1
1
1
1
1
1
1
1
1
1
1
1
1
1
1
1
1
1
1
0.9999999
1
1
1
1
1
1
1
1
1
1
0.9999999
0.9999999
1
1
1
1
1
0.9999999
1
1
1
1
0.9999998
1
1
1
0.9999998
0.9999999
1
1
0.9999999
0.9999999
1
1
1
1
1
1
1
1
1
1
1
1
1
1
1
1
0.9999999
1
1
1
1
1
0.9999999
0.9999999
1
1
1
0.9999999
0.9999999
0.9999999
1
1
1
1
1
1
1
1
0.9999999
0.9999999
1
1
1
1
1
1
1
1
1
1
1
1
1
1
1
1
1
1
0.9999999
0.9999998
0.9999998
0.9999998
0.9999999
1
1
1
1
1
1
1
1
1
1
1
1
1
1
1
1
1
1
1
1
1
1
1
1
1
1
1
1
1
1
1
1
1
1
1
0.9999999
0.9999999
1
1
1
1
0.9999999
1
1
1
1
1
1
1
1
1
1
1
1
1
1
1
1
1
1
1
1
1
0.9999999
0.9999999
0.9999999
1
1
1
1
1
1
1
1
1
1
1
1
1
1
1
1
1
1
1
1
1
1
1
1
1
1
1
1
1
1
1
1
1
1
1
1
1
1
1
1
1
1
1
1
1
1
1
1
1
1
1
1
1
1
1
1
1
1
1
1
1
1
1
1
1
1
1
1
1
1
1
1
1
1
1
1
1
1
1
1
1
1
1
1
1
1
1
1
1
1
1
1
1
1
1
1
1
1
1
1
1
1
1
1
1
1
1
1
1
1
1
1
1
1
1
1
1
1
1
1
1
1
1
1
1
1
1
1
1
1
1
1
1
1
1
1
1
1
1
1
1
1
1
1
1
1
1
1
1
1
1
1
1
1
1
1
1
1
1
1
1
1
1
1
1
1
1
1
1
1
1
1
1
1
1
1
1
1
1
1
1
1
1
1
1
1
1
1
1
1
1
1
1
1
1
1
1
1
1
1
1
1
1
1
1
1
1
1
1
1
1
1
1
1
1
1
1
1
1
1
1
1
1
1
1
1
1
1
1
1
1
1
1
1
1
1
1
1
1
1
1
1
1
1
1
1
1
1
1
1
1
1
1
1
1
1
1
1
1
1
1
1
1
1
1
1
1
1
1
1
1
1
1
1
1
1
1
1
1
1
1
1
1
1
1
1
1
1
1
1
1
1
1
1
1
1
1
1
1
1
1
1
1
1
1
1
1
1
1
0.9999999
1
1
1
1
1
1
1
0.9999999
0.9999999
1
1
0.9999999
0.9999999
0.9999999
1
1
1
1
1
1
1
1
1
1
1
1
1
1
1
1
1
1
1
1
1
1
0.9999999
0.9999999
1
1
1
1
0.9999999
0.9999999
0.9999999
1
1
1
1
1
0.9999999
0.9999999
1
1
1
1
1
1
1
1
1
1
1
1
1
1
1
0.9999999
0.9999994
0.9999979
0.9999965
0.9999978
0.9999995
1
1
1
1
1
1
1
1
1
1
1
1
1
1
1
1
1
1
1
1
1
1
1
1
0.9999999
0.9999998
0.9999996
0.9999996
0.9999998
1
1
1
1
1
1
1
1
1
0.9999999
0.9999999
1
1
1
1
1
1
1
1
1
1
1
1
1
1
1
1
1
1
1
1
1
1
1
0.9999999
0.9999996
0.9999995
0.9999997
1
1
1
1
1
1
1
1
1
1
1
1
1
1
1
1
1
1
1
1
1
1
1
1
1
1
1
1
1
1
1
1
1
1
1
1
1
1
1
1
1
1
1
1
1
1
1
1
1
1
1
1
1
1
1
1
1
1
1
1
1
1
1
1
1
1
1
1
1
1
1
1
1
1
1
1
1
1
1
1
1
1
1
1
1
1
1
1
1
1
1
1
1
1
1
1
1
1
1
1
1
1
1
1
1
1
1
1
1
1
1
1
1
1
1
1
1
1
1
1
1
1
1
1
1
1
1
1
1
1
1
1
1
1
1
1
1
1
1
1
1
1
1
1
1
1
1
1
1
1
1
1
1
1
1
1
1
1
1
1
1
1
1
1
1
1
1
1
1
1
1
1
1
1
1
1
1
1
1
1
1
1
1
1
1
1
1
1
1
1
1
1
1
1
1
1
1
1
1
1
1
1
1
1
1
1
1
1
1
1
1
1
1
1
1
1
1
1
1
1
1
1
1
1
1
1
1
1
1
1
1
1
1
1
1
1
1
1
1
1
1
1
1
1
1
1
1
1
1
1
1
1
1
1
1
1
1
1
1
1
1
1
1
1
1
1
1
1
1
1
1
1
1
1
1
1
1
1
1
1
1
1
1
1
1
1
1
1
1
1
1
1
1
1
1
1
1
1
1
1
1
1
1
1
1
1
1
1
1
1
1
1
1
1
1
1
1
1
1
1
1
1
1
1
1
1
1
1
1
1
0.9999999
0.9999999
1
1
1
0.9999999
0.9999999
1
1
1
1
1
1
1
1
1
1
1
1
1
1
1
1
1
1
1
1
1
1
1
1
1
1
1
1
1
1
1
1
1
1
1
1
1
1
0.9999999
0.9999999
1
1
1
1
1
1
1
1
1
1
1
0.9999999
0.9999993
0.999996
0.9999852
0.9999842
0.9999921
0.9999987
0.9999999
1
1
1
1
1
1
1
1
1
1
1
0.9999999
0.9999998
0.9999998
0.9999998
0.9999999
1
1
0.9999999
0.9999997
0.9999992
0.999998
0.9999948
0.999988
0.9999789
0.999977
0.9999855
0.9999973
0.9999999
1
1
1
1
1
1
1
1
1
1
1
1
1
0.9999999
0.9999999
0.9999999
1
1
1
1
1
1
1
1
1
1
1
1
1
1
1
1
0.9999999
0.9999996
0.999998
0.9999976
0.999999
0.9999999
1
1
1
1
1
0.9999999
0.9999999
0.9999999
0.9999999
1
1
1
1
0.9999999
1
1
1
1
1
1
1
1
1
1
1
1
1
1
1
1
1
1
1
1
1
1
1
1
1
1
1
1
1
1
1
1
1
1
1
1
1
1
1
1
1
1
1
1
1
1
1
1
1
1
1
1
1
1
1
1
1
1
1
1
1
1
1
1
1
1
1
1
1
1
1
1
1
1
1
1
1
1
1
1
1
1
1
1
1
1
1
1
1
1
1
1
1
1
1
1
1
1
1
1
1
1
1
1
1
1
1
1
1
1
1
1
1
1
1
1
1
1
1
1
1
1
1
1
1
1
1
1
1
1
1
1
1
1
1
1
1
1
1
1
1
1
1
1
1
1
1
1
1
1
1
1
1
1
1
1
1
1
1
1
1
1
1
1
1
1
1
1
1
1
1
1
1
1
1
1
1
1
1
1
1
1
1
1
1
1
1
1
1
1
1
1
1
1
1
1
1
1
1
1
1
1
1
1
1
1
1
1
1
1
1
1
1
1
1
1
1
1
1
1
1
1
1
1
1
1
1
1
1
1
1
1
1
1
1
1
1
1
1
1
1
1
1
1
1
1
1
1
1
1
1
1
1
1
1
1
1
1
1
1
1
1
1
1
1
1
1
1
1
1
1
1
1
1
1
1
1
1
1
1
1
1
1
1
1
1
1
1
1
1
1
1
1
1
1
1
1
1
1
1
1
1
1
1
1
1
1
1
1
1
1
1
1
1
1
1
1
1
1
1
1
1
1
1
1
1
1
1
1
1
1
1
1
0.9999999
0.9999999
1
1
1
1
1
1
1
1
1
1
1
1
1
1
1
1
1
1
1
1
1
1
1
1
1
1
1
1
1
1
1
1
1
1
1
1
1
1
1
1
1
1
1
1
1
1
1
1
1
0.9999996
0.999997
0.9999823
0.9999463
0.9999625
0.9999888
0.9999987
0.9999999
0.9999999
0.9999999
1
1
1
1
1
1
0.9999998
0.9999989
0.999995
0.9999833
0.9999705
0.99997
0.9999838
0.9999963
0.9999985
0.999999
0.9999993
0.9999993
0.9999952
0.999952
0.9997466
0.9993308
0.9992973
0.999502
0.9998467
0.9999875
0.9999998
1
1
1
1
1
1
1
1
1
1
1
1
1
1
1
1
1
0.9999999
0.9999999
1
1
1
1
1
1
1
1
1
1
1
1
1
0.9999999
0.9999986
0.9999926
0.9999923
0.9999968
0.9999996
1
1
1
0.9999999
0.9999997
0.9999997
0.9999999
1
1
1
1
1
1
0.9999999
0.9999952
1
1
1
1
1
1
1
1
1
1
1
1
1
1
1
1
1
1
1
1
1
1
1
1
1
1
1
1
1
1
1
1
1
1
1
1
1
1
1
1
1
1
1
1
1
1
1
1
1
1
1
1
1
1
1
1
1
1
1
1
1
1
1
1
1
1
1
1
1
1
1
1
1
1
1
1
1
1
1
1
1
1
1
1
1
1
1
1
1
1
1
1
1
1
1
1
1
1
1
1
1
1
1
1
1
1
1
1
1
1
1
1
1
1
1
1
1
1
1
1
1
1
1
1
1
1
1
1
1
1
1
1
1
1
1
1
1
1
1
1
1
1
1
1
1
1
1
1
1
1
1
1
1
1
1
1
1
1
1
1
1
1
1
1
1
1
1
1
1
1
1
1
1
1
1
1
1
1
1
1
1
1
1
1
1
1
1
1
1
1
1
1
1
1
1
1
1
1
1
1
1
1
1
1
1
1
1
1
1
1
1
1
1
1
1
1
1
1
1
1
1
1
1
1
1
1
1
1
1
1
1
1
1
1
1
1
1
1
1
1
1
1
1
1
1
1
1
1
1
1
1
1
1
1
1
1
1
1
1
1
1
1
1
1
1
1
1
1
1
1
1
1
1
1
1
1
1
1
1
1
1
1
1
1
1
1
1
1
1
1
1
1
1
1
1
1
1
1
1
1
1
1
1
1
1
1
1
1
1
1
1
1
1
1
1
1
1
1
1
1
1
1
1
1
1
1
1
1
1
1
1
1
1
1
1
1
1
1
1
1
1
1
1
1
1
1
1
1
1
1
1
1
1
1
1
1
1
1
1
1
1
1
1
1
1
1
1
1
1
1
1
1
1
1
1
1
1
1
1
1
1
1
1
1
1
1
1
1
1
1
1
1
1
0.9999999
0.9999977
0.9999604
0.9999243
0.9999345
0.9999773
0.9999972
0.9999979
0.9999971
0.9999974
0.9999989
0.9999998
1
1
0.9999999
0.9999991
0.9999943
0.9999698
0.9998649
0.9995323
0.9993009
0.9995722
0.9999084
0.9999899
0.999981
0.9999481
0.9999305
0.9999351
0.9999602
0.9999693
0.9997983
0.9972708
0.9949587
0.9949587
0.9973852
0.9996061
0.9999863
0.9999999
1
1
1
1
1
1
1
1
1
1
1
1
1
1
1
1
1
1
0.9999999
1
1
1
1
1
1
1
1
1
1
1
1
0.9999998
0.9999971
0.9999812
0.999981
0.9999931
0.9999991
1
1
1
0.9999999
0.999999
0.999999
0.9999996
1
1
1
1
1
0.9999998
0.9999986
0.9999868
0.9998669
1
1
1
1
1
1
1
1
1
1
1
1
1
1
1
1
1
1
1
1
1
1
1
1
1
1
1
1
1
1
1
1
1
1
1
1
1
1
1
1
1
1
1
1
1
1
1
1
1
1
1
1
1
1
1
1
1
1
1
1
1
1
1
1
1
1
1
1
1
1
1
1
1
1
1
1
1
1
1
1
1
1
1
1
1
1
1
1
1
1
1
1
1
1
1
1
1
1
1
1
1
1
1
1
1
1
1
1
1
1
1
1
1
1
1
1
1
1
1
1
1
1
1
1
1
1
1
1
1
1
1
1
1
1
1
1
1
1
1
1
1
0.9999999
0.9999999
0.9999999
0.9999998
0.9999998
0.9999998
0.9999999
0.9999999
0.9999999
0.9999999
0.9999998
0.9999997
0.9999994
0.9999991
0.9999991
0.9999992
0.9999996
0.9999998
0.9999998
0.9999998
0.9999997
0.9999994
0.9999989
0.9999984
0.9999984
0.9999985
0.9999991
0.9999996
0.9999997
0.9999997
0.9999997
0.9999994
0.9999989
0.9999986
0.9999985
0.9999986
0.9999989
0.9999994
0.9999997
0.9999997
0.9999996
0.9999995
0.9999991
0.9999989
0.9999989
0.9999989
0.9999991
0.9999994
0.9999997
0.9999997
0.9999997
0.9999996
0.9999994
0.9999992
0.9999992
0.9999992
0.9999993
0.9999995
0.9999997
0.9999997
0.9999997
0.9999996
0.9999995
0.9999994
0.9999993
0.9999993
0.9999994
0.9999996
0.9999997
0.9999997
0.9999997
0.9999997
0.9999996
0.9999995
0.9999995
0.9999995
0.9999995
0.9999996
0.9999997
0.9999997
0.9999997
0.9999997
0.9999996
0.9999996
0.9999996
0.9999996
0.9999997
0.9999997
0.9999998
0.9999998
0.9999998
0.9999997
0.9999997
0.9999997
0.9999997
0.9999997
0.9999997
0.9999998
0.9999998
0.9999998
0.9999998
0.9999998
0.9999998
0.9999998
0.9999998
0.9999998
0.9999998
0.9999998
0.9999998
0.9999998
0.9999998
0.9999998
0.9999998
0.9999998
0.9999998
0.9999999
0.9999999
0.9999999
0.9999999
0.9999999
0.9999999
0.9999999
0.9999999
0.9999999
0.9999999
0.9999999
0.9999999
0.9999999
0.9999999
0.9999999
0.9999999
1
1
1
1
1
1
1
1
1
1
1
1
1
1
1
1
1
1
1
1
1
1
1
1
1
1
1
1
1
1
1
1
1
1
1
1
1
1
1
1
1
1
1
1
1
1
1
1
1
1
1
1
1
1
1
1
1
1
1
1
1
1
1
1
1
1
1
1
1
1
1
1
1
1
1
1
1
1
1
1
1
1
1
1
1
1
1
1
1
1
1
1
1
1
1
1
1
1
1
1
1
1
1
1
1
1
1
1
1
1
1
1
1
1
1
1
1
1
1
1
1
1
1
1
1
1
0.9999998
0.9999966
0.999961
0.9999243
0.9999654
0.9999656
0.9999483
0.9999389
0.9999585
0.9999896
0.9999992
1
1
1
0.9999994
0.9999875
0.9998341
0.9986419
0.9950391
0.9949857
0.9979882
0.9997701
0.9999875
0.9999902
0.9999238
0.9988214
0.9896538
0.984551
0.9914714
0.9984272
0.9998235
0.9993377
0.9966372
0.9965511
0.9985138
0.9998032
0.9999941
1
1
1
1
1
1
1
0.9999999
0.9999997
0.9999992
0.9999992
0.9999997
1
1
1
1
1
0.9999999
0.9999999
1
1
1
1
1
1
1
0.9999999
0.9999999
1
1
1
0.9999998
0.9999961
0.9999663
0.9999623
0.9999837
0.999998
0.9999999
1
1
1
0.9999992
0.9999986
0.9999987
0.9999995
0.9999999
1
1
0.9999999
0.9999989
0.9999902
0.9999072
0.9993452
0.998568
1
1
1
1
1
1
1
1
1
1
1
1
1
1
1
1
1
1
1
1
1
1
1
1
1
1
1
1
1
1
1
1
1
1
1
1
1
1
1
1
1
1
1
1
1
1
1
1
1
1
1
1
1
1
1
1
1
1
1
1
1
1
1
1
1
1
1
1
1
1
1
1
1
1
1
1
1
1
1
1
1
1
1
1
1
1
1
1
1
1
1
1
1
1
1
1
1
1
1
1
1
1
1
1
1
1
1
1
0.9999999
0.9999999
0.9999997
0.9999996
0.9999995
0.9999994
0.9999992
0.9999992
0.9999994
0.9999996
0.9999995
0.9999993
0.9999988
0.999998
0.9999964
0.9999939
0.9999927
0.9999934
0.9999963
0.999998
0.9999981
0.9999975
0.9999952
0.9999889
0.9999768
0.9999655
0.999964
0.9999677
0.9999799
0.9999899
0.9999909
0.9999883
0.9999752
0.9999419
0.9998891
0.9998441
0.9998359
0.9998538
0.9999138
0.9999634
0.9999711
0.999967
0.9999441
0.9998833
0.9997593
0.9995808
0.9994972
0.9995379
0.9997172
0.9998918
0.9999302
0.9999281
0.9999103
0.9998465
0.9996869
0.9994333
0.999306
0.9993359
0.9995192
0.999789
0.9999082
0.9999152
0.999907
0.9998636
0.9997382
0.9995252
0.9994
0.9994012
0.9994762
0.9996751
0.9998635
0.9999076
0.9999049
0.999879
0.9997943
0.9996481
0.9995527
0.9995466
0.9995748
0.9996822
0.9998391
0.9999123
0.9999155
0.999905
0.9998593
0.9997628
0.9996697
0.9996496
0.9996582
0.9997114
0.9998276
0.9999137
0.9999233
0.999916
0.9998818
0.9998084
0.9997395
0.9997251
0.9997306
0.9997656
0.9998503
0.9999221
0.9999313
0.9999253
0.9998999
0.9998454
0.9997775
0.9997416
0.9997453
0.999812
0.9999103
0.9999438
0.9999425
0.9999313
0.9999008
0.9998545
0.9998234
0.9998192
0.9998259
0.9998663
0.9999241
0.999943
0.9999421
0.9999334
0.9998993
0.9998146
0.9997581
0.9998119
0.9999308
0.9999725
0.9999716
0.9999664
0.9999555
0.9999371
0.9999065
0.9998683
0.9998648
0.9998965
0.9999415
0.9999556
0.9999554
0.9999516
0.9999346
0.9998874
0.9998506
0.999875
0.9999528
0.9999873
0.9999882
0.9999867
0.9999803
0.9999597
0.9999108
0.9998792
0.9999129
0.9999781
0.9999913
0.9999895
0.9999862
0.9999824
0.9999769
0.9999686
0.9999641
0.9999649
0.9999741
0.9999896
0.999995
0.9999949
0.999993
0.9999857
0.9999715
0.9999672
0.9999804
0.9999966
0.9999996
0.9999994
0.9999989
0.9999979
0.9999971
0.9999971
0.9999972
0.9999977
0.9999985
0.9999988
0.9999988
0.9999983
0.9999969
0.9999957
0.999997
0.9999993
0.9999999
0.9999999
0.9999999
0.9999999
0.9999997
0.9999988
0.9999969
0.9999956
0.9999951
0.9999947
0.999994
0.9999936
0.9999941
0.9999973
0.9999997
1
1
1
1
1
0.9999999
0.9999999
0.9999998
0.9999995
0.9999987
0.9999987
0.9999994
0.9999999
1
1
1
1
1
1
1
1
1
1
1
1
1
1
1
1
1
1
1
1
1
1
1
1
1
1
1
1
1
1
1
1
1
1
1
1
1
1
1
1
1
1
1
1
1
1
1
1
1
1
1
1
1
1
1
1
1
1
1
1
1
1
1
1
1
1
1
1
1
1
1
1
1
0.9999996
0.9999956
0.9999782
0.999891
0.999573
0.9994352
0.9996918
0.9999436
0.9999972
0.9999998
0.9999996
0.999999
0.9999974
0.9999901
0.9998912
0.9983299
0.9861696
0.9818934
0.9918186
0.998827
0.9999615
0.9999898
0.9999804
0.9996962
0.9935972
0.9757968
0.9753829
0.9835109
0.9964731
0.9997256
0.9998795
0.9996839
0.9995747
0.9996641
0.9998791
0.9999881
0.9999998
1
1
1
0.9999998
0.9999993
0.999997
0.9999894
0.9999873
0.9999945
0.9999993
1
1
1
0.9999999
0.9999997
0.9999995
0.9999997
1
1
1
1
1
1
1
0.9999999
0.9999998
0.9999999
1
1
0.9999998
0.9999963
0.9999594
0.9999196
0.9999609
0.9999935
0.9999997
1
1
1
1
0.9999997
0.9999986
0.9999991
0.9999998
1
1
0.9999997
0.9999959
0.9999546
0.9995542
0.9964934
0.9929781
0.9967209
1
1
1
1
1
1
1
1
1
1
1
1
1
1
1
1
1
1
1
1
1
1
1
1
1
1
1
1
1
1
1
1
1
1
1
1
1
1
1
1
1
1
1
1
1
1
1
1
1
1
1
1
1
1
1
1
1
1
1
1
1
1
1
1
1
1
1
1
1
1
1
1
1
1
1
1
1
1
1
1
1
1
1
1
1
1
1
1
1
1
1
1
1
1
1
1
1
1
1
1
1
1
1
1
1
1
0.9999999
0.9999994
0.9999981
0.9999962
0.9999949
0.9999947
0.9999951
0.9999969
0.9999983
0.9999981
0.9999959
0.9999875
0.9999672
0.9999381
0.9999226
0.999923
0.9999364
0.9999665
0.999983
0.9999827
0.9999702
0.9999151
0.999787
0.9996058
0.9994631
0.9994473
0.999554
0.9998078
0.9999263
0.9999259
0.999876
0.9996862
0.9992158
0.9983827
0.9978367
0.9979082
0.9985575
0.9994132
0.9997087
0.999707
0.9996054
0.9991239
0.9975437
0.9943824
0.9925855
0.9929909
0.9953949
0.9982783
0.9990824
0.9990618
0.9987896
0.9973237
0.992044
0.9815699
0.9761736
0.9782048
0.987203
0.995396
0.9968893
0.9970915
0.9970771
0.9956157
0.9887456
0.973137
0.9606896
0.9622864
0.9747348
0.9882872
0.9937035
0.9950667
0.9950291
0.9933941
0.9877506
0.9751907
0.9624491
0.961533
0.9685095
0.981823
0.9915957
0.9948719
0.9950191
0.9942682
0.991543
0.9843419
0.9718449
0.9653841
0.967397
0.9768922
0.9892632
0.9950123
0.995474
0.9952076
0.994027
0.9901855
0.9816418
0.9740994
0.9741079
0.9787808
0.9882768
0.9953179
0.9966038
0.9964699
0.9959144
0.9939422
0.9882793
0.9790482
0.9773729
0.9821305
0.9915375
0.9970786
0.9975945
0.9974932
0.9970695
0.9955919
0.9911087
0.9829309
0.9813238
0.9849734
0.9927661
0.9976506
0.9981204
0.9979769
0.9969843
0.9920134
0.9806614
0.981098
0.9915861
0.9983852
0.9990929
0.9990163
0.9988749
0.9986184
0.9978496
0.9944966
0.9844857
0.983842
0.9914794
0.997907
0.9988053
0.9986561
0.9979565
0.9953284
0.989436
0.987841
0.9924644
0.998273
0.9996633
0.9996679
0.9995935
0.9992277
0.997305
0.9897915
0.9850119
0.9915238
0.998243
0.9996365
0.9996023
0.9994302
0.9989322
0.9975322
0.994548
0.9928505
0.9943711
0.9981626
0.9997458
0.9998126
0.9997218
0.9991893
0.9969373
0.9916857
0.9901379
0.9938839
0.9988595
0.9999313
0.9999436
0.9998948
0.9997542
0.9994809
0.9990272
0.9985571
0.9984577
0.9986437
0.9993561
0.9998488
0.9998658
0.9997591
0.9992418
0.9981453
0.9979455
0.9987669
0.9997746
0.9999883
0.9999934
0.9999907
0.9999797
0.999949
0.9998957
0.999871
0.9998752
0.9999037
0.9999494
0.9999557
0.9999376
0.9998674
0.9998203
0.9998629
0.9999626
0.9999976
0.9999995
0.9999988
0.9999959
0.9999931
0.9999934
0.9999961
0.9999959
0.9999736
0.9998263
0.9995985
0.9995869
0.9996769
0.9998513
0.9999708
0.999998
0.9999997
0.9999997
0.9999998
0.9999998
0.9999998
0.9999995
0.999999
0.9999972
0.9999915
0.9999876
0.9999901
0.9999964
0.9999996
1
1
0.9999999
0.9999997
0.9999991
0.9999985
0.9999984
0.9999985
0.9999988
0.9999993
0.9999997
0.9999999
1
1
1
0.9999999
0.9999997
0.9999995
0.9999997
0.9999999
1
1
1
1
1
1
1
1
1
1
1
1
1
1
1
1
1
1
1
1
1
1
1
1
1
1
1
1
1
0.9999999
0.9999999
0.9999999
1
1
1
1
1
1
1
1
1
1
1
1
1
1
1
1
1
1
1
1
1
0.999999
0.9999876
0.999889
0.9993344
0.9976302
0.997176
0.9986739
0.9997992
0.9999912
0.9999979
0.9999938
0.999973
0.9998773
0.9995731
0.999115
0.9975176
0.9862043
0.981198
0.981198
0.9850611
0.996219
0.9997796
0.9999867
0.9999676
0.999851
0.9981897
0.9817048
0.9753829
0.9753829
0.9810381
0.9955309
0.9997662
0.9999918
0.9999925
0.9999848
0.9999844
0.9999924
0.9999964
0.9999959
0.9999933
0.9999844
0.9999554
0.9998722
0.9998173
0.9998959
0.9999816
0.9999991
1
1
0.9999999
0.9999994
0.9999977
0.9999975
0.999999
0.9999999
1
1
1
1
1
1
1
0.9999998
0.9999998
0.9999999
1
0.9999999
0.9999981
0.9999679
0.999845
0.9998791
0.9999668
0.9999974
1
1
1
1
1
1
0.9999997
0.9999993
0.9999994
0.9999997
0.9999997
0.9999965
0.9999266
0.9988619
0.9888562
0.977455
0.9883697
0.9983993
1
1
1
1
1
1
1
1
1
1
1
1
1
1
1
1
1
1
1
1
1
1
1
1
1
1
1
1
1
1
1
1
1
1
1
1
1
1
1
1
1
1
1
1
1
1
1
1
1
1
1
1
1
1
1
1
1
1
1
1
1
1
1
1
1
1
1
1
1
1
1
1
1
1
1
1
1
1
1
1
1
1
1
1
1
1
1
1
1
1
1
1
1
1
1
1
1
1
1
1
1
1
1
1
1
1
1
1
1
0.9999999
0.999999
0.9999945
0.9999818
0.9999644
0.9999592
0.9999609
0.9999696
0.9999808
0.9999823
0.9999705
0.9998858
0.9995274
0.9986522
0.9978331
0.997763
0.9980666
0.9988927
0.9995938
0.9997092
0.9996168
0.998932
0.9961751
0.9897924
0.9855931
0.9861676
0.9905961
0.9965549
0.9986465
0.9986952
0.9984416
0.9961504
0.9852343
0.9601409
0.9463968
0.9523385
0.975491
0.9931153
0.9957501
0.9959257
0.99498
0.9858616
0.9512885
0.8981492
0.8888617
0.9149088
0.9579228
0.976183
0.9833786
0.9855878
0.9828206
0.9666159
0.9141578
0.8008143
0.750702
0.7790553
0.8808649
0.9674529
0.9765349
0.9662307
0.9467092
0.9300942
0.8535519
0.589237
0.4966386
0.6016686
0.8305078
0.9340411
0.92188
0.8912081
0.9001357
0.9173285
0.8288359
0.4145637
0.322019
0.5392146
0.8137539
0.8267388
0.8153955
0.8413476
0.9148454
0.9136104
0.6479
0.2346965
0.2834356
0.6310823
0.7777351
0.7503926
0.7542933
0.8327265
0.9365199
0.9389269
0.7260122
0.2897037
0.3158958
0.6221871
0.7638244
0.7527688
0.7826725
0.8875444
0.9545393
0.9300873
0.6321593
0.3632517
0.4891849
0.7514015
0.7828779
0.7778357
0.8205306
0.9194121
0.9668363
0.9473231
0.695918
0.4346238
0.5589126
0.8264685
0.9045042
0.9099584
0.9278387
0.9581052
0.9588907
0.8720591
0.595983
0.5944587
0.7749162
0.9040247
0.9105296
0.9157724
0.9400185
0.9622461
0.951511
0.8058773
0.6238255
0.6988607
0.8780804
0.9693942
0.9799903
0.9804292
0.980456
0.9745362
0.9126966
0.7279544
0.7194039
0.8365686
0.9458829
0.973053
0.9774553
0.9788236
0.9773578
0.9473892
0.7777332
0.7352136
0.8373983
0.9505454
0.9868318
0.9894452
0.9894113
0.9873886
0.9641831
0.8392838
0.7587132
0.8500214
0.9703269
0.9916686
0.9915019
0.991239
0.9889882
0.9655685
0.8451981
0.80627
0.8519218
0.9421363
0.9873101
0.9942053
0.9942236
0.9930793
0.9855389
0.951826
0.8893693
0.8872238
0.9449771
0.9927135
0.9982165
0.9981715
0.9980476
0.9975503
0.9922969
0.956839
0.93878
0.9460803
0.9673126
0.9899773
0.9978137
0.9979534
0.996991
0.9920829
0.9816751
0.9809204
0.9900584
0.9979071
0.9995939
0.9996587
0.999644
0.9995497
0.9992057
0.9983325
0.9970905
0.9967794
0.9975436
0.9990812
0.9995442
0.9994646
0.9990509
0.9986487
0.9989481
0.9997028
0.999976
0.9999909
0.999988
0.9999712
0.9999113
0.9998353
0.9998324
0.9998668
0.9999177
0.9998962
0.999425
0.9976004
0.9971848
0.9976662
0.9987615
0.9996713
0.9998599
0.9998867
0.9999569
0.9999942
0.9999996
0.9999995
0.9999978
0.9999823
0.9999411
0.9999333
0.9999408
0.9999627
0.9999868
0.9999975
0.9999992
0.9999992
0.9999989
0.9999968
0.9999871
0.9999657
0.9999583
0.9999626
0.9999756
0.9999903
0.9999956
0.9999949
0.999985
0.9999246
0.9999017
0.9999471
0.9999914
0.9999996
1
1
1
1
0.9999998
0.9999996
0.9999998
1
1
1
1
1
1
1
1
1
1
1
1
1
1
1
1
1
1
1
1
1
1
1
0.9999998
0.9999994
0.9999995
0.9999998
1
1
1
1
1
1
1
1
1
1
1
1
1
1
1
1
0.9999999
0.9999999
1
1
0.9999996
0.9999901
0.9997879
0.9974357
0.9881605
0.9877108
0.9949538
0.9993893
0.9999791
0.9999941
0.9999703
0.9997446
0.9987023
0.9966669
0.988835
0.980658
0.980658
0.980658
0.9832357
0.99403
0.999303
0.9998316
0.9997961
0.9996751
0.9984707
0.9847576
0.977702
0.977702
0.9867608
0.995574
0.9986958
0.9993285
0.9995399
0.9995142
0.999644
0.9999111
0.9999922
0.9999925
0.9999471
0.9996083
0.998447
0.9968703
0.9965337
0.9975647
0.9994243
0.9999648
0.9999993
0.9999999
0.9999999
0.9999989
0.9999903
0.9999796
0.9999883
0.9999977
0.9999999
1
1
1
0.9999996
0.9999986
0.9999986
0.9999993
0.9999999
1
1
1
1
0.9999997
0.9999913
0.9998641
0.9997378
0.9998215
0.9999602
0.9999979
1
1
1
1
0.9999999
0.9999993
0.9999965
0.9999927
0.9999931
0.9999969
0.9999966
0.9999689
0.9992482
0.9848388
0.9564465
0.9673727
0.9913092
0.9995069
1
1
1
1
1
1
1
1
1
1
1
1
1
1
1
1
1
1
1
1
1
1
1
1
1
1
1
1
1
1
1
1
1
1
1
1
1
1
1
1
1
1
1
1
1
1
1
1
1
1
1
1
1
1
1
1
1
1
1
1
1
1
1
1
1
1
1
1
1
1
1
1
1
1
1
1
1
1
1
1
1
1
1
1
1
1
1
1
1
1
1
1
1
1
1
1
1
1
1
1
1
1
1
1
1
1
1
1
1
1
1
1
1
1
0.9999999
0.9999996
0.9999984
0.999997
0.999996
0.9999953
0.9999941
0.9999914
0.9999798
0.9998895
0.9992877
0.9969696
0.9934052
0.9923707
0.992665
0.9940689
0.9961878
0.9972039
0.9972361
0.9955502
0.9827679
0.9366628
0.8902794
0.8900866
0.9147092
0.9535081
0.9780344
0.9865736
0.9863531
0.97613
0.9247753
0.7676015
0.6525925
0.6764547
0.7944357
0.9316178
0.9668752
0.9588979
0.9407514
0.9289148
0.8379488
0.4241329
0.2734197
0.4428202
0.7867296
0.8901385
0.8740006
0.868127
0.8809135
0.818541
0.3906618
0.09434953
0.1302232
0.4385896
0.6646936
0.6548097
0.6834859
0.7780926
0.7513538
0.4259365
0.09330113
0.02906201
0.02817071
0.04087603
0.207024
0.669627
0.7915974
0.6514177
0.2547092
0.04702657
0.01806741
0.01400995
0.01216803
0.01672503
0.1052019
0.4631694
0.4935954
0.2650324
0.05336471
0.01579037
0.01740723
0.01621638
0.01646398
0.03279907
0.11246
0.1758701
0.1531073
0.08101146
0.04009676
0.04189719
0.04072011
0.03222033
0.03246691
0.04333475
0.07072539
0.08026733
0.07391844
0.06089873
0.06102971
0.07011235
0.06995749
0.05750261
0.05390399
0.05435308
0.05311631
0.0508573
0.05063932
0.05582433
0.08069341
0.1063998
0.09984685
0.08184869
0.08143991
0.0815723
0.07319221
0.05617509
0.05191867
0.05996078
0.09993722
0.1437073
0.1391309
0.116494
0.1126536
0.1101267
0.09365521
0.06921669
0.0662585
0.08083707
0.1337346
0.1689683
0.1665985
0.1664574
0.1674996
0.1571159
0.120626
0.08493202
0.08028927
0.09016378
0.1463396
0.2488255
0.2694515
0.2432893
0.1883563
0.134916
0.1130306
0.11147
0.1103145
0.110497
0.1353593
0.2672662
0.390405
0.3790478
0.3190955
0.2281039
0.1446182
0.08796694
0.07430316
0.1336349
0.5043424
0.5961989
0.3783155
0.1729628
0.178313
0.2414211
0.2642549
0.2224854
0.1089366
0.07383
0.2516264
0.7721364
0.8848074
0.7048533
0.2502609
0.07589839
0.06805552
0.1556896
0.648438
0.80952
0.6639587
0.2270231
0.1661606
0.3859672
0.6704275
0.5927251
0.2742578
0.09055193
0.1263556
0.5260648
0.9152151
0.9650628
0.8940564
0.423855
0.2327603
0.4948511
0.8901157
0.9195476
0.6508442
0.3271053
0.4903448
0.8539852
0.9648991
0.9290955
0.6968746
0.6321234
0.7800897
0.947359
0.9710198
0.9598758
0.9331114
0.9327449
0.9546058
0.967284
0.9612176
0.9327279
0.9293618
0.9688347
0.9937422
0.9946443
0.9940479
0.9914325
0.9889802
0.9920473
0.9979486
0.999599
0.9995551
0.9994111
0.9992858
0.9990386
0.9986568
0.9981608
0.9972224
0.9959715
0.9959258
0.9970471
0.9968503
0.9936797
0.9784141
0.9575257
0.9607936
0.9787786
0.9961073
0.9998322
0.9999933
0.9999952
0.9999941
0.9999867
0.9999631
0.9999252
0.9998184
0.9991095
0.9975581
0.998012
0.9993189
0.9999254
0.9999912
0.9999851
0.9999669
0.9999302
0.9998494
0.9996777
0.9996064
0.9996565
0.9996936
0.9993879
0.9963989
0.9954429
0.9975566
0.9995942
0.9999661
0.9999942
0.999999
0.9999999
0.9999999
0.9999998
0.999999
0.9999967
0.9999973
0.9999992
0.9999999
1
1
1
1
1
1
1
1
0.9999998
0.9999996
0.9999997
0.9999999
1
1
1
1
1
1
1
1
1
1
0.9999999
0.999999
0.9999977
0.9999985
0.9999996
0.9999999
1
1
1
1
1
1
1
1
1
1
1
1
1
0.9999999
0.9999997
0.9999993
0.9999991
0.9999991
0.9999989
0.9999927
0.9998765
0.9979392
0.9807284
0.970942
0.9798501
0.9957206
0.9997799
0.9999847
0.9999186
0.9994539
0.9970522
0.9776216
0.9651196
0.9651196
0.981057
0.9965232
0.9997994
0.9999777
0.9999786
0.9999683
0.9995088
0.992691
0.9780493
0.9851477
0.9965549
0.9994476
0.9996907
0.9997056
0.9973701
0.9753684
0.9694881
0.981144
0.9965961
0.9998342
0.9999898
0.9999917
0.9999691
0.9997402
0.9968022
0.9707472
0.9550341
0.9775988
0.996098
0.9998147
0.9999983
0.9999999
0.9999998
0.9999973
0.9999728
0.9999605
0.9999714
0.9999929
0.9999995
0.9999998
0.9999995
0.9999976
0.9999973
0.9999983
0.9999997
0.9999999
0.9999999
1
1
0.9999999
0.9999999
0.9999998
0.999999
0.9999757
0.9997864
0.9997378
0.9997669
0.9999256
0.9999936
0.9999972
0.9999955
0.999994
0.9999962
0.9999964
0.9999882
0.999943
0.9998866
0.999902
0.9999672
0.9999603
0.9996772
0.9941983
0.96269
0.9564465
0.9640215
0.9900247
0.9994207
1
1
1
1
1
1
1
1
1
1
1
1
1
1
1
1
1
1
1
1
1
1
1
1
1
1
1
1
1
1
1
1
1
1
1
1
1
1
1
1
1
1
1
1
1
1
1
1
1
1
1
1
1
1
1
1
1
1
1
1
1
1
1
1
1
1
1
1
1
1
1
1
1
1
1
1
1
1
1
1
1
1
1
1
1
1
1
1
1
1
1
1
1
1
1
1
1
1
1
1
1
1
1
1
1
1
1
1
1
1
1
1
1
1
1
1
1
1
1
1
1
1
1
1
0.9999999
0.999999
0.9999868
0.9998762
0.9993701
0.9986748
0.9984592
0.9983759
0.9982031
0.9977632
0.9970138
0.9946518
0.9792084
0.9132515
0.8255252
0.8103814
0.8191204
0.8498714
0.8967154
0.9113473
0.9074433
0.8947077
0.8088631
0.4518732
0.2128487
0.237411
0.3959973
0.5917932
0.6879848
0.7658839
0.7861465
0.6475196
0.2446299
0.04549383
0.02962479
0.03084652
0.07303742
0.3900186
0.7070591
0.6385545
0.30681
0.06322323
0.01236011
0.009838971
0.009504329
0.01445243
0.07284463
0.2617805
0.2792941
0.1704453
0.04687581
0.01066475
0.008538122
0.00870855
0.01135079
0.0212141
0.04005422
0.04699641
0.04458074
0.03447207
0.01832298
0.008294854
0.006733044
0.00750839
0.01013427
0.01000513
0.00905069
0.009147786
0.01004616
0.01041033
0.009815847
0.00903293
0.009851981
0.009238061
0.005887165
0.002883172
0.002166894
0.002204543
0.002535016
0.003667604
0.009024887
0.01542962
0.01013537
0.003266847
0.0007717866
0.0006027671
0.0006108555
0.0007515383
0.001559663
0.005082026
0.01066181
0.01003637
0.005732195
0.001747936
0.000616825
0.0005519526
0.0006039072
0.0009681276
0.002403902
0.00577878
0.007727842
0.007268243
0.00526924
0.002670831
0.001043297
0.0006563772
0.0006659198
0.0008825485
0.00185941
0.004453907
0.007182616
0.007592008
0.007195443
0.005450081
0.002799204
0.001426349
0.001305374
0.00143585
0.002184931
0.00411438
0.006697781
0.008388457
0.008699619
0.008144639
0.005882552
0.003004697
0.001939092
0.001940071
0.002369061
0.004034276
0.007603643
0.01128462
0.01197089
0.01115061
0.008256395
0.004546902
0.002837524
0.00273759
0.003078623
0.004923664
0.009910431
0.0159431
0.0170078
0.01556573
0.01089027
0.005440263
0.003524798
0.003513522
0.00406003
0.006841016
0.01427825
0.02097247
0.02119729
0.01913535
0.01399501
0.007950725
0.005011451
0.004869174
0.006447656
0.01263914
0.02203313
0.02686919
0.02634618
0.02071893
0.01190237
0.008441841
0.008363202
0.008570738
0.01070402
0.01740431
0.01894689
0.01831874
0.01785091
0.01774567
0.01526992
0.00922896
0.007846984
0.009185919
0.01417264
0.02659937
0.03488878
0.03202638
0.02781437
0.02875615
0.03285824
0.03410828
0.02931127
0.01906619
0.01693941
0.01697336
0.01856412
0.02914525
0.04332817
0.03598257
0.03457034
0.05726351
0.1127282
0.1218432
0.09126027
0.05767532
0.07929172
0.2011581
0.2981257
0.2584192
0.1300231
0.1111333
0.2438146
0.4391536
0.3835524
0.2717901
0.3774758
0.7133894
0.7200423
0.4212083
0.2085705
0.4133944
0.8555999
0.9750397
0.9495628
0.7195229
0.5951087
0.7358701
0.9310815
0.9897146
0.9953663
0.9953826
0.9956486
0.9962306
0.9973518
0.9976695
0.9937511
0.9713068
0.8987213
0.8510382
0.8872632
0.9729393
0.9873214
0.9227802
0.7610174
0.7598912
0.7997027
0.9448391
0.9958839
0.9999072
0.9999532
0.9999422
0.9999152
0.99987
0.9996675
0.9971216
0.9904208
0.9915194
0.9965924
0.9994847
0.9999363
0.9999506
0.9998354
0.9981054
0.9909333
0.9857237
0.9874635
0.9943487
0.9970646
0.9924808
0.975039
0.9762512
0.9908673
0.9982505
0.9995861
0.9999163
0.9999939
0.999999
0.999999
0.9999987
0.9999965
0.9999886
0.999984
0.999991
0.9999983
0.9999997
0.9999997
0.9999994
0.9999994
0.9999997
0.9999999
0.9999999
0.9999996
0.9999979
0.9999974
0.9999984
0.9999997
1
1
1
1
1
0.9999999
0.9999999
1
1
1
1
0.9999999
0.9999995
0.9999982
0.9999966
0.9999965
0.999997
0.999997
0.9999981
0.9999993
0.9999998
1
1
1
1
1
0.9999999
0.9999999
1
1
0.9999999
0.999999
0.9999907
0.999958
0.9999338
0.9999374
0.9999369
0.999797
0.9978953
0.9820528
0.970942
0.970942
0.9811374
0.9962209
0.999827
0.9999361
0.9991607
0.9868463
0.965888
0.9674371
0.98333
0.995929
0.9996279
0.9999703
0.999974
0.9999651
0.9998968
0.9995973
0.9980258
0.9806389
0.9716514
0.9765571
0.9932135
0.9995222
0.999906
0.9998682
0.9986819
0.9881598
0.9819783
0.9902297
0.9982477
0.9999216
0.9999835
0.99992
0.9993518
0.9931677
0.9614133
0.9533996
0.9533996
0.9676488
0.9936699
0.9997462
0.9999984
0.9999998
0.9999956
0.9999688
0.9999642
0.9999765
0.999993
0.9999935
0.9999899
0.9999903
0.9999957
0.9999993
0.9999999
1
1
1
1
1
0.9999999
0.9999981
0.9999836
0.9999664
0.9999737
0.999963