/*--------------------------------*- C++ -*----------------------------------*\
| =========                 |                                                 |
| \\      /  F ield         | foam-extend: Open Source CFD                    |
|  \\    /   O peration     | Version:     3.1                                |
|   \\  /    A nd           | Web:         http://www.extend-project.de       |
|    \\/     M anipulation  |                                                 |
\*---------------------------------------------------------------------------*/
FoamFile
{
    version     2.0;
    format      ascii;
    class       volScalarField;
    location    "20";
    object      p;
}
// * * * * * * * * * * * * * * * * * * * * * * * * * * * * * * * * * * * * * //

dimensions      [1 -1 -2 0 0 0 0];

internalField   nonuniform List<scalar> 
119952
(
4812.904
3047.959
2780.815
3015.681
3268.079
3033.078
2955.572
2890.967
2845.224
2807.628
2774.637
2745.757
2720.217
2697.127
2675.698
2654.11
2631.956
2605.262
2558.867
2429.515
2841.596
2589.909
2467.419
3024.166
2964.316
3001.92
3046.76
3185.946
3661.683
7309.626
2708.781
2655.453
2654.113
2646.459
2640.048
2632.925
2627.956
2624.722
2618.376
2589.975
2561.156
2574.192
2563.405
2555.482
2548.65
2543.001
2538.338
2533.713
2529.873
2519.654
2510.925
2486.038
2479.095
2478.584
2477.355
2477.166
2477.801
2477.561
2485.116
2479.078
2477.603
2488.056
2498.704
2509.593
2522.346
2537.11
2562.483
2651.079
2839.978
2681.659
2615.692
2705.866
2743.051
2708.692
2644.215
2596.529
2558.597
2523.998
2493.2
2466.415
2442.716
2421.267
2401.372
2382.204
2362.559
2341.574
2320.36
2306.239
2327.684
2352.532
2342.449
2461.392
2645.708
2681.697
2692.051
2703.363
2606.078
2260.575
2169.7
2244.974
2264.25
2279.668
2297.264
2309.188
2318.144
2325.878
2332.517
2338.269
2343.286
2347.707
2351.745
2355.599
2359.367
2363.049
2366.584
2369.908
2372.959
2375.701
2378.185
2380.527
2382.848
2385.225
2387.674
2390.165
2392.657
2395.108
2397.46
2399.682
2401.82
2403.961
2406.181
2408.516
2410.954
2413.452
2415.965
2418.44
2420.826
2423.123
2425.365
2427.586
2429.783
2431.919
2433.904
2435.567
2436.637
2437.476
2442.137
2453.622
2465.063
2465.572
2464.927
2467.164
2469.83
2472.498
2475.46
2478.656
2482.093
2485.758
2489.599
2493.565
2497.618
2501.755
2506.043
2510.553
2515.344
2520.464
2525.947
2531.834
2538.174
2545.033
2552.488
2560.633
2569.584
2579.489
2590.5
2602.727
2616.198
2630.869
2646.664
2663.522
2681.445
2700.516
2720.846
2742.562
2765.771
2790.602
2817.159
2845.548
2875.779
2907.86
2941.704
2977.287
3014.444
3052.957
3092.15
3131.272
3173.101
3253.015
3320.275
3346.931
3396.401
3440.913
3486.397
3531.98
3577.734
3623.262
3668.461
3713.169
3757.254
3800.31
3842.247
3882.712
3921.49
3958.434
3993.402
4026.423
4057.717
4087.535
4115.911
4143.334
4170.256
4196.941
4223.669
4250.589
4277.735
4305.053
4332.359
4359.327
4385.547
4410.256
4432.334
4448.477
4464.517
4527.105
4584.796
4637.512
4687.41
4735.51
4782.596
4828.905
4874.814
4920.351
4966.193
5012.585
5059.858
5108.254
5157.883
5210.323
5264.665
5319.176
5367.868
5404.926
5420.316
5439.988
5482.62
5534.691
5583.273
5626.398
5663.285
5692.468
5715.743
5739.628
5766.854
5794.255
5820.981
5847.647
5876.061
5901.311
5912.321
5934.07
5962.69
5990.282
6018.227
6046.26
6073.636
6100.059
6125.545
6150.132
6173.851
6196.725
6218.773
6239.996
6260.388
6279.935
6298.606
6316.353
6333.111
6348.825
6363.459
6376.982
6389.379
6400.664
6410.892
6420.167
6428.64
6436.443
6443.658
6450.359
6456.619
6462.501
6468.038
6473.238
6478.08
6482.518
6486.492
6489.931
6492.766
6494.937
6496.41
6497.198
6497.377
6496.908
6494.707
6489.279
6482.098
6474.542
6466.336
6457.396
6448.161
6438.953
6428.532
6411.769
6398.092
6389.928
6378.758
6367.107
6356.09
6345.564
6335.66
6326.55
6318.305
6311.041
6304.905
6299.966
6296.287
6294.086
6293.606
6294.859
6297.698
6295.193
6283.386
6274.116
6280.954
6284.307
6281.92
6279.971
6283.465
6291.898
6301.47
6308.909
6313.049
6313.341
6309.618
6303.308
6297.295
6293.648
6292.713
6293.654
6295.582
6298.113
6301.373
6305.35
6311.166
6318.127
6326.287
6335.427
6345.348
6355.877
6366.861
6378.155
6389.614
6401.08
6412.397
6423.433
6434.074
6444.216
6453.764
6462.624
6470.709
6477.942
6484.253
6489.588
6493.905
6497.181
6499.407
6500.59
6500.752
6499.924
6498.147
6495.466
6491.929
6487.584
6482.472
6476.626
6470.059
6462.769
6454.696
6445.768
6435.772
6424.466
6411.182
6394.915
6374.623
6355.578
6370.587
6485.695
5060.762
4910.199
4731.288
4564.187
4404.685
4253.283
4110.446
3975.852
3850.508
3705.234
3593.369
3491.638
3394.895
3305.572
3224.145
3149.745
3082.473
3017.273
2923.163
2892.654
2835.249
2782.642
2740.812
2703.816
2669.906
2639.182
2610.627
2586.291
2567.523
2532.859
2513.079
2496.563
2479.069
2462.966
2447.841
2433.274
2421.507
2417.808
2389.082
2370.638
2363.17
2355.602
2346.695
2338.214
2329.717
2321.333
2312.975
2298.706
2294.172
2289.31
2282.431
2275.291
2268.787
2262.787
2258.015
2261.107
2172.414
2169.636
2172.054
2172.973
2171.412
2169.237
2167.878
2167.464
2167.619
2167.522
2170.846
2177.332
2184.49
2192.959
2204.331
2220.233
2242.644
2274.665
2313.75
2346.005
2347.998
2331.701
2329.177
2329.097
2317.175
2290.404
2256.471
2223.069
2193.293
2167.103
2143.784
2122.911
2104.105
2087.095
2071.693
2057.749
2045.988
2038.783
2038.266
2049.593
2074.709
2112.707
2164.835
2224.838
2264.929
2267.382
2232.575
2161.437
2066.187
1993.201
1971.924
1978.512
1992.111
2003.772
2011.824
2018.117
2023.978
2029.619
2034.799
2039.29
2043.205
2046.865
2050.508
2054.196
2057.858
2061.372
2064.692
2067.695
2070.265
2072.544
2074.721
2076.949
2079.301
2081.77
2084.291
2086.812
2089.326
2091.672
2093.796
2095.823
2097.893
2100.102
2102.476
2104.972
2107.511
2110.091
2112.643
2115.027
2117.296
2119.534
2121.789
2124.065
2126.337
2128.59
2130.9
2133.52
2136.903
2141.227
2146.358
2151.228
2154.944
2157.813
2160.489
2163.203
2166.063
2169.126
2172.418
2175.954
2179.727
2183.648
2187.659
2191.726
2195.834
2200.077
2204.575
2209.394
2214.557
2220.084
2226.011
2232.394
2239.308
2246.822
2255.018
2264.01
2273.987
2285.16
2297.665
2311.481
2326.507
2342.629
2359.731
2377.842
2397.12
2417.694
2439.685
2463.196
2488.396
2515.423
2544.403
2575.323
2608.127
2642.734
2679.075
2717.148
2756.898
2798.586
2842.589
2889.051
2994.132
3040.382
3083.04
3125.695
3172.051
3217.605
3263.572
3309.774
3355.997
3402.01
3447.517
3492.276
3535.958
3578.217
3618.72
3657.21
3693.478
3727.439
3759.236
3789.101
3817.263
3844.113
3870.261
3896.123
3921.946
3947.989
3974.575
4001.788
4029.583
4057.796
4086.142
4114.248
4141.718
4168.672
4197.092
4230.963
4275.265
4326.683
4375.824
4423.461
4469.999
4515.644
4560.574
4605.07
4649.529
4694.216
4739.512
4785.726
4833.198
4882.16
4932.689
4983.764
5033.233
5078.012
5115.686
5145.573
5178.927
5222.298
5270.339
5316.338
5357.544
5393.26
5422.956
5448.888
5474.423
5501.151
5527.595
5554.069
5580.213
5609.501
5590.955
5624.983
5645.719
5666.93
5692.871
5721.274
5749.487
5776.557
5802.466
5827.46
5851.641
5874.984
5897.466
5919.097
5939.881
5959.82
5978.911
5997.123
6014.395
6030.658
6045.859
6059.966
6072.959
6084.83
6095.586
6105.276
6113.988
6121.995
6129.38
6136.13
6142.345
6148.124
6153.529
6158.59
6163.31
6167.663
6171.598
6175.051
6177.95
6180.22
6181.795
6182.615
6182.61
6181.67
6179.588
6176.092
6170.959
6164.34
6156.702
6148.354
6139.385
6129.84
6119.673
6109.001
6098.423
6086.77
6074.27
6062.109
6050.765
6040.114
6030.008
6020.483
6011.681
6003.723
5996.682
5990.626
5985.602
5981.531
5978.397
5976.346
5974.828
5972.868
5969.462
5965.332
5962.128
5963.175
5965.629
5966.78
5968.13
5973.083
5980.912
5988.967
5996.192
6000.949
6002.453
6001.143
5998.46
5996.33
5995.623
5995.662
5995.412
5995.132
5995.652
5997.659
6001.555
6007.124
6014.189
6022.464
6031.655
6041.551
6051.979
6062.793
6073.88
6085.102
6096.261
6107.201
6117.831
6128.056
6137.778
6146.905
6155.346
6163.018
6169.843
6175.756
6180.704
6184.65
6187.572
6189.468
6190.348
6190.24
6189.181
6187.208
6184.374
6180.725
6176.317
6171.183
6165.372
6158.886
6151.762
6143.934
6135.442
6126.133
6116.145
6105.514
6095.414
6087.925
6087.406
6095.898
6114.468
2874.96
2944.608
3037.031
3148.732
3277.775
3422.915
3583.868
3759.798
3948.776
4145.791
4336.327
4550.684
4768.555
4989.674
5211.442
5428.33
5638.591
5836.474
6018.121
6167.268
6305.969
6419.167
6505.364
6562.527
6589.212
6584.967
6550.269
6486.831
6400.003
6285.755
6151.804
5999.495
5834.09
5658.945
5477.28
5292.011
5106.182
4922.821
4730.08
4552.903
4379.803
4212.951
4054.113
3902.772
3759.868
3626.062
3502.234
3386.637
3275.364
3175.37
3082.781
2996.277
2916.983
2844.363
2778.83
2729.198
2574.896
2525.507
2487.329
2449.817
2412.262
2376.545
2343.672
2313.723
2286.558
2261.246
2237.996
2218.507
2200.341
2182.304
2164.855
2148.478
2133.105
2118.577
2104.634
2091.092
2079.36
2068.517
2057.862
2047.66
2038.036
2028.634
2019.096
2009.362
1999.601
1991.148
1984.14
1977.404
1970.941
1964.813
1958.618
1952.065
1944.793
1937.474
1930.688
1926.96
1925.304
1922.972
1920.439
1918.496
1917.285
1916.575
1916.292
1917.091
1919.703
1923.844
1929.986
1939.16
1951.664
1967.393
1986.338
2007.349
2029.37
2050.165
2058.232
2049.673
2040.406
2037.063
2029.544
2011.187
1984.907
1957.08
1931.175
1907.833
1886.876
1868.257
1851.838
1837.73
1825.927
1816.292
1809.35
1805.504
1806.469
1817.852
1837.874
1862.538
1895.243
1931.745
1955.763
1956.919
1934.068
1892.022
1834.549
1779.941
1752.137
1750.602
1759.348
1767.486
1773.14
1777.85
1782.482
1787.436
1792.23
1796.094
1799.32
1802.499
1805.9
1809.516
1813.178
1816.627
1820.069
1823.328
1825.759
1827.768
1829.716
1831.798
1834.087
1836.547
1839.038
1841.542
1844.322
1846.836
1848.829
1850.678
1852.607
1854.739
1857.104
1859.641
1862.196
1864.921
1867.719
1870.099
1872.321
1874.568
1876.886
1879.277
1881.718
1884.256
1886.993
1890.003
1893.213
1896.663
1900.534
1904.884
1908.961
1912.176
1914.808
1917.445
1920.309
1923.379
1926.664
1930.234
1934.106
1938.104
1942.143
1946.188
1950.149
1954.218
1958.604
1963.368
1968.479
1973.928
1979.727
1985.951
1992.692
2000.016
2007.975
2016.664
2026.317
2037.26
2049.695
2063.547
2078.609
2094.787
2111.799
2129.684
2148.709
2169.067
2190.827
2214.132
2239.123
2266.12
2295.199
2326.459
2359.621
2394.728
2431.528
2470.343
2510.84
2553.196
2596.526
2640.751
2686.052
2734.029
2781.54
2828.047
2874.222
2920.563
2967.415
3014.803
3062.512
3110.25
3157.665
3204.313
3249.7
3293.293
3334.552
3373.046
3408.532
3440.965
3470.491
3497.542
3522.691
3546.504
3569.541
3592.793
3616.548
3640.972
3666.443
3693.513
3722.122
3752.12
3783.275
3815.349
3848.309
3882.504
3918.72
3957.96
4000.852
4046.521
4092.741
4137.975
4181.889
4224.652
4266.607
4308.075
4349.351
4390.925
4433.205
4476.414
4520.866
4566.751
4613.837
4661.375
4707.974
4751.906
4792.889
4832.998
4874.671
4919.315
4965.258
5009.851
5050.941
5087.791
5120.445
5150.489
5179.092
5207.502
5235.15
5262.623
5289.352
5319.114
5354.65
5382.948
5405.843
5429.717
5456.595
5484.824
5512.384
5538.71
5563.957
5588.34
5611.892
5634.668
5656.663
5677.856
5698.241
5717.829
5736.626
5754.612
5771.715
5787.842
5802.927
5816.931
5829.832
5841.616
5852.269
5861.827
5870.151
5877.769
5884.797
5891.142
5896.941
5902.301
5907.283
5911.918
5916.209
5920.124
5923.614
5926.609
5929.033
5930.807
5931.85
5932.083
5931.417
5929.755
5926.998
5923.037
5917.762
5911.174
5903.514
5895.053
5885.957
5876.274
5866.157
5855.587
5844.31
5832.585
5821.059
5809.814
5798.861
5788.284
5778.195
5768.701
5759.925
5751.965
5744.858
5738.576
5733.12
5728.457
5724.485
5720.892
5717.116
5715.467
5712.41
5708.217
5705.489
5706.049
5707.939
5709.87
5712.785
5717.779
5724.678
5732.236
5739.595
5746.168
5751.182
5753.951
5754.269
5753.096
5751.753
5751.315
5751.971
5753.389
5755.549
5758.592
5762.841
5768.297
5774.759
5782.279
5790.832
5800.195
5810.153
5820.518
5831.151
5841.942
5852.705
5863.256
5873.507
5883.371
5892.753
5901.559
5909.702
5917.095
5923.659
5929.33
5934.055
5937.797
5940.535
5942.264
5943.001
5942.777
5941.632
5939.607
5936.752
5933.126
5928.781
5923.765
5918.12
5911.885
5905.07
5897.721
5889.839
5881.578
5873.082
5864.968
5857.792
5852.923
5850.871
5854.357
5862.104
2585.094
2557.331
2532.749
2496.191
2475.794
2436.993
2443.695
2468.384
2508.269
2529.23
2534.055
2558.215
2605.614
2673.179
2760.64
2865.611
2987.282
3125.635
3276.943
3442.605
3621.635
3811.65
4010.15
4216.034
4427.225
4641.258
4855.468
5067.05
5272.166
5466.51
5646.818
5789.232
5927.576
6038.062
6119.087
6170.109
6190.322
6179.667
6139.252
6071.065
5977.744
5861.152
5723.742
5569.343
5402.099
5225.873
5044.075
4859.628
4674.942
4491.88
4311.966
4136.882
3967.304
3804.573
3649.396
3502.716
3365.008
3236.321
3116.772
3005.936
2902.953
2807.294
2718.724
2636.786
2561.131
2491.492
2427.661
2369.026
2312.647
2265.547
2226.592
2189.148
2152.23
2117.353
2085.229
2055.826
2028.877
2004.703
1983.572
1964.422
1946.585
1929.909
1913.929
1898.298
1882.958
1867.916
1853.581
1840.878
1829.456
1818.691
1808.738
1799.538
1790.502
1781.082
1771.1
1761.322
1751.802
1741.825
1734.335
1728.765
1723.586
1718.178
1712.038
1705.001
1697.294
1689.898
1683.262
1677.217
1673.695
1671.819
1670.784
1670.066
1669.156
1667.84
1666.475
1665.706
1666.03
1669.289
1675.45
1684.501
1696.802
1710.376
1724.644
1738.827
1752.526
1764.103
1768.618
1764.118
1757.503
1753.525
1746.126
1732.125
1712.76
1690.699
1668.676
1647.787
1629.006
1612.817
1598.653
1587.453
1578.838
1572.396
1568.411
1566.428
1567.915
1576.447
1589.704
1607.157
1628.657
1650.161
1665.044
1667.283
1652.706
1625.259
1588.634
1552.736
1528.685
1521.09
1524.299
1529.235
1533.35
1537.507
1541.703
1545.492
1549.724
1553.02
1555.335
1557.977
1561.226
1564.894
1568.701
1572.487
1575.756
1578.906
1581.321
1582.94
1584.571
1586.512
1588.82
1591.397
1594.024
1596.532
1599.31
1601.945
1603.837
1605.391
1607.153
1609.261
1611.696
1614.327
1616.813
1619.585
1622.801
1625.188
1627.256
1629.489
1631.91
1634.475
1637.098
1639.792
1642.653
1645.68
1648.776
1652.004
1655.488
1659.221
1662.802
1665.886
1668.609
1671.351
1674.287
1677.345
1680.589
1684.23
1688.328
1692.414
1696.487
1700.55
1704.135
1707.864
1712.101
1716.819
1721.844
1727.147
1732.716
1738.665
1745.135
1752.173
1759.767
1767.935
1777.019
1787.588
1800.001
1814.063
1829.232
1845.518
1862.212
1879.581
1898.155
1918.089
1939.408
1962.211
1986.746
2013.494
2042.665
2074.238
2107.925
2143.549
2181.037
2220.528
2261.8
2304.513
2348.246
2392.807
2438.59
2486.239
2533.947
2580.633
2626.907
2673.699
2721.413
2770.1
2819.556
2869.449
2919.326
2968.562
3016.425
3062.129
3104.892
3144.063
3179.276
3210.512
3238.014
3262.299
3284.034
3304.066
3324.324
3344.795
3364.733
3386.718
3411.361
3438.321
3467.837
3499.866
3534.105
3570.166
3607.733
3646.609
3686.75
3728.259
3771.188
3815.259
3859.511
3902.718
3944.302
3984.336
4023.249
4061.484
4099.284
4137.071
4175.435
4214.817
4255.625
4298.264
4342.681
4388.423
4434.874
4481.077
4526.091
4570.284
4615.443
4662.577
4710.203
4756.129
4799.153
4838.784
4875.074
4908.488
4940.382
4971.187
5001.537
5030.899
5061.088
5090.258
5118.396
5146.296
5173.141
5199.569
5226.441
5253.4
5279.572
5304.735
5329.132
5352.761
5375.501
5397.429
5418.673
5439.232
5459.06
5478.151
5496.503
5514.095
5530.865
5546.729
5561.605
5575.431
5588.188
5599.867
5610.453
5619.896
5628.153
5635.551
5642.405
5648.434
5653.91
5658.931
5663.549
5667.8
5671.683
5675.166
5678.196
5680.704
5682.609
5683.828
5684.278
5683.882
5682.56
5680.238
5676.852
5672.344
5666.67
5659.85
5652.031
5643.401
5634.117
5624.272
5613.951
5603.153
5591.933
5580.565
5569.248
5557.997
5546.905
5536.166
5525.985
5516.516
5507.809
5499.887
5492.741
5486.294
5480.505
5475.324
5470.664
5466.517
5463.397
5458.561
5454.306
5450.38
5447.938
5447.726
5449.173
5451.587
5455.129
5460.248
5466.817
5474.19
5481.68
5488.64
5494.35
5498.454
5501.318
5503.77
5506.305
5509.343
5512.427
5515.37
5518.288
5521.561
5525.721
5531.044
5537.57
5545.128
5553.542
5562.626
5572.169
5582.034
5592.054
5602.139
5612.224
5622.2
5631.935
5641.325
5650.267
5658.662
5666.419
5673.448
5679.668
5685.01
5689.424
5692.875
5695.344
5696.824
5697.331
5696.914
5695.613
5693.463
5690.527
5686.867
5682.543
5677.609
5672.117
5666.12
5659.646
5652.768
5645.543
5638.168
5630.844
5624.033
5618.082
5613.728
5611.305
5611.931
5614.177
2848.385
2815.946
2783.699
2726.783
2678.258
2595.398
2546.656
2498.074
2450.757
2404.906
2360.619
2319.82
2281.575
2248.003
2220.36
2198.434
2123.773
2122.497
2130.684
2144.605
2160.904
2185.182
2223.634
2278.769
2350.347
2439.034
2545.681
2669.056
2808.33
2962.385
3129.847
3309.265
3499.449
3698.663
3904.773
4115.774
4329.061
4541.58
4750.656
4953.432
5146.764
5321.842
5471.765
5608.136
5718.067
5798.268
5848.018
5866.785
5854.742
5813.002
5743.407
5648.386
5530.506
5392.478
5237.772
5070.435
4894.538
4713.607
4530.677
4348.327
4168.206
3991.169
3818.564
3651.454
3490.813
3337.58
3192.472
3056.319
2930.13
2814.049
2707.329
2608.739
2517.368
2432.555
2353.754
2280.469
2212.705
2150.154
2093.625
2043.38
1999.451
1960.883
1925.127
1890.907
1858.283
1827.473
1798.655
1772.156
1748.681
1728.214
1710.236
1694.286
1679.508
1664.782
1649.544
1633.877
1618.302
1603.711
1590.742
1578.897
1569.581
1561.659
1553.711
1545.006
1535.097
1523.88
1512.434
1502.28
1492.687
1485.592
1481.432
1477.391
1472.616
1466.562
1459.025
1450.396
1440.873
1432.568
1426.745
1423.16
1422.609
1423.213
1423.281
1421.92
1419.151
1415.697
1412.554
1410.768
1412.405
1418.25
1427.836
1439.046
1450.301
1461.016
1470.205
1477.561
1482.199
1482.449
1478.592
1476.228
1473.319
1465.87
1455.22
1441.59
1424.253
1405.296
1386.155
1368.214
1353.654
1343.55
1335.806
1329.686
1326.045
1323.922
1323.429
1324.633
1329.285
1336.944
1348.166
1362.477
1376.538
1387.488
1390.2
1380.891
1363.426
1339.729
1314.852
1295.333
1287.398
1286.815
1289.075
1292.455
1296.463
1300.817
1304.247
1307.264
1309.609
1310.92
1312.984
1316.312
1320.308
1324.407
1328.698
1332.05
1334.583
1336.8
1337.936
1339.114
1340.94
1343.376
1345.994
1348.948
1352.04
1354.559
1356.742
1358.576
1359.801
1361.34
1363.503
1366.136
1368.952
1371.816
1374.564
1377.656
1380.067
1381.989
1384.219
1386.797
1389.571
1392.321
1395.062
1397.982
1401.063
1404.121
1407.233
1410.393
1413.536
1416.591
1419.516
1422.292
1425.126
1428.138
1431.086
1434.156
1437.896
1442.568
1446.985
1450.761
1454.87
1457.842
1460.877
1464.919
1469.745
1474.751
1479.886
1485.039
1490.55
1496.661
1503.345
1510.499
1517.894
1526.064
1536.062
1548.505
1562.88
1577.923
1595.094
1611.346
1627.606
1645.438
1664.761
1685.415
1707.378
1730.995
1757.219
1786.479
1818.557
1852.929
1889.126
1927.287
1967.719
2010.131
2053.944
2098.741
2144.279
2190.454
2237.107
2283.632
2329.788
2376.147
2423.42
2472.034
2522.099
2573.522
2626.068
2679.2
2732.03
2783.452
2832.308
2877.481
2918.024
2953.378
2983.461
3008.61
3029.583
3047.465
3063.574
3079.484
3095.191
3111.175
3130.137
3152.846
3179.053
3209.259
3243.428
3281.045
3321.368
3363.604
3407.016
3451.038
3495.339
3539.664
3583.635
3626.606
3667.884
3707.12
3744.336
3779.854
3814.157
3847.637
3880.956
3914.596
3949.046
3985.15
4023.938
4065.579
4109.921
4156.483
4204.272
4252.426
4301.008
4350.579
4400.936
4450.876
4499.091
4544.813
4587.547
4627.257
4664.293
4699.548
4733.307
4766.019
4797.527
4828.401
4857.939
4886.823
4915.919
4944.496
4971.843
4998.255
5024.089
5049.288
5073.726
5097.376
5120.21
5142.235
5163.419
5183.797
5203.477
5222.511
5240.854
5258.498
5275.443
5291.648
5307.035
5321.508
5334.994
5347.486
5359.015
5369.586
5378.947
5386.965
5394.611
5401.573
5407.401
5412.696
5417.513
5421.866
5425.785
5429.268
5432.284
5434.781
5436.694
5437.946
5438.458
5438.153
5436.966
5434.839
5431.715
5427.559
5422.347
5416.076
5408.797
5400.619
5391.684
5382.134
5372.086
5361.591
5350.676
5339.424
5328.004
5316.516
5305.119
5293.995
5283.315
5273.224
5263.827
5255.183
5247.303
5240.14
5233.588
5227.571
5222.019
5216.767
5211.654
5206.64
5201.339
5196.431
5192.182
5189.197
5188.217
5189.262
5191.85
5195.831
5201.223
5207.869
5215.41
5223.278
5230.788
5237.745
5244.385
5250.663
5256.459
5261.706
5266.678
5271.387
5276.139
5280.957
5285.919
5291.465
5297.494
5304.296
5311.787
5319.878
5328.48
5337.451
5346.657
5355.99
5365.326
5374.671
5383.95
5393.02
5401.772
5410.104
5417.914
5425.112
5431.611
5437.326
5442.187
5446.139
5449.149
5451.207
5452.311
5452.473
5451.763
5450.221
5447.869
5444.783
5441.045
5436.72
5431.858
5426.515
5420.757
5414.604
5408.128
5401.424
5394.685
5388.096
5381.982
5376.591
5372.407
5369.602
5368.549
5367.968
3054.101
3013.886
2969.973
2914.626
2873.444
2796.34
2755.539
2714.592
2673.128
2630.779
2588.056
2545.012
2499.871
2454.253
2405.935
2289.621
2240.851
2192.716
2145.273
2098.924
2054.205
2011.833
1972.344
1936.84
1905.792
1880.425
1861.8
1852.235
1850.971
1857.33
1871.854
1897.289
1935.896
1989.809
2061.027
2149.236
2254.248
2375.771
2513.087
2665.116
2830.559
3007.883
3195.724
3392.258
3595.237
3801.928
4009.964
4218.84
4423.281
4622.317
4813.284
4989.989
5144.99
5277.51
5382.82
5458.144
5502.387
5515.505
5498.249
5452.037
5378.776
5280.745
5160.536
5020.973
4865.514
4698.072
4522.812
4343.563
4163.193
3984.505
3809.272
3638.078
3471.593
3310.521
3154.84
3005.136
2862.97
2730.032
2608.005
2497.024
2396.038
2303.448
2217.833
2137.977
2063.169
1993.067
1927.84
1867.876
1814.433
1768.138
1727.823
1691.892
1658.911
1627.677
1597.297
1567.572
1539.012
1512.7
1490.315
1471.018
1454.547
1441.132
1428.764
1415.254
1400.258
1384.177
1367.751
1351.153
1337.647
1328.396
1321.069
1315.271
1308.476
1299.918
1289.421
1277.168
1263.811
1251.399
1242.944
1237.371
1234.35
1231.395
1227.323
1221.38
1213.05
1202.551
1190.789
1180.683
1174.789
1171.931
1173.138
1175.671
1176.519
1174.366
1169.531
1163.332
1157.283
1152.924
1152.391
1157.475
1168.324
1179.831
1189.483
1197.078
1201.968
1204.305
1203.556
1199.095
1192.989
1193.023
1194.849
1187.745
1180.008
1171.07
1157.477
1140.928
1122.7
1104.919
1091.755
1085.087
1081.682
1079.03
1077.787
1077.499
1077.676
1078.021
1078.78
1080.847
1086.517
1096.266
1108.159
1118.48
1119.566
1114.713
1105.161
1089.368
1069.849
1053.816
1047.032
1045.452
1047.282
1050.789
1055.149
1059.863
1063.808
1065.945
1066.427
1066.052
1067.347
1071.203
1075.95
1080.524
1084.933
1088.618
1091.186
1092.69
1092.831
1093.308
1095.094
1097.957
1100.931
1103.965
1107.356
1110.129
1112.022
1113.308
1113.937
1115.165
1117.526
1120.528
1123.508
1126.924
1129.821
1132.322
1134.561
1136.407
1138.72
1141.623
1144.725
1147.495
1150.015
1152.904
1156.295
1159.363
1162.351
1165.217
1167.838
1170.386
1173.127
1175.821
1178.646
1181.789
1184.39
1187.041
1190.912
1196.538
1202.633
1205.943
1208.388
1210.684
1212.988
1216.882
1222.058
1226.97
1232.225
1236.819
1241.592
1247.255
1253.47
1260.034
1266.081
1272.709
1282.01
1295.165
1310.969
1326.071
1342.944
1359.05
1373.701
1390.581
1409.146
1428.87
1449.501
1471.503
1496.835
1526.078
1558.696
1594.025
1630.844
1669.636
1711.368
1755.541
1801.08
1847.338
1893.816
1939.958
1985.58
2030.745
2075.914
2121.862
2169.225
2218.587
2270.095
2323.733
2379.548
2437.023
2494.911
2551.528
2605.116
2654.045
2696.919
2732.882
2761.762
2784.035
2800.794
2813.48
2823.816
2833.472
2843.562
2855.118
2869.903
2889.138
2913.753
2944.457
2981.125
3022.839
3068.285
3116.04
3164.795
3213.529
3261.531
3308.201
3352.945
3395.286
3434.911
3471.746
3505.93
3537.803
3567.647
3595.306
3622.81
3651.004
3679.797
3709.72
3743.577
3781.922
3824.756
3871.642
3921.61
3973.649
4027.008
4081.139
4135.371
4188.783
4240.399
4289.532
4335.783
4379.161
4419.9
4458.507
4495.262
4530.477
4564.21
4596.7
4628.078
4658.661
4688.644
4717.648
4745.281
4771.725
4797.352
4822.248
4846.279
4869.338
4891.422
4912.579
4932.814
4952.178
4970.795
4988.727
5006.021
5022.666
5038.667
5054.008
5068.629
5082.448
5095.397
5107.498
5118.79
5129.155
5138.502
5146.735
5154.57
5161.623
5167.689
5173.044
5177.848
5182.089
5185.777
5188.906
5191.449
5193.361
5194.587
5195.064
5194.727
5193.512
5191.368
5188.245
5184.107
5178.977
5172.89
5165.852
5157.907
5149.162
5139.738
5129.745
5119.379
5108.728
5097.803
5086.562
5075.051
5063.408
5051.86
5040.635
5029.94
5019.917
5010.636
5002.145
4994.428
4987.338
4980.689
4974.512
4968.824
4963.184
4957.211
4950.985
4944.716
4938.773
4933.477
4929.313
4927.544
4928.568
4931.628
4936.163
4942.075
4949.075
4956.77
4964.894
4973.503
4982.283
4991.052
4999.736
5008.31
5016.718
5024.558
5031.382
5038.25
5045.283
5051.756
5058.306
5065.218
5072.561
5080.249
5088.337
5096.758
5105.296
5113.947
5122.645
5131.311
5139.893
5148.376
5156.668
5164.643
5172.201
5179.252
5185.718
5191.512
5196.553
5200.769
5204.103
5206.523
5208.022
5208.601
5208.282
5207.194
5205.329
5202.675
5199.372
5195.503
5191.134
5186.339
5181.173
5175.682
5169.859
5163.749
5157.441
5151.08
5144.82
5138.949
5133.694
5129.421
5126.214
5124.451
5122.494
3057.218
3006.683
2955.477
2892.687
2830.83
2775.88
2725.539
2679.31
2636.597
2593.949
2485.799
2445.612
2405.56
2364.9
2323.31
2280.743
2237.058
2191.919
2145.462
2098.511
2051.959
2003.878
1955.734
1907.846
1860.625
1814.471
1769.542
1726.127
1685.58
1649.046
1617.739
1593.681
1577.574
1570.433
1573.204
1586.473
1612.04
1651.271
1705.606
1776.052
1862.991
1966.453
2086.183
2221.486
2371.333
2534.541
2709.438
2894.535
3087.21
3285.132
3486.494
3689.925
3894.261
4096.116
4291.597
4476.869
4646.818
4795.667
4919.655
5015.948
5082.121
5117.027
5121.088
5095.727
5042.878
4964.674
4863.181
4740.862
4600.193
4444.57
4277.985
4104.178
3927.581
3751.366
3578.218
3410.202
3247.391
3089.349
2936.176
2787.299
2643.217
2506.718
2380.004
2264.612
2161.032
2067.885
1983.047
1904.896
1831.647
1762.208
1696.259
1634.201
1576.954
1526.205
1483.851
1448.69
1417.774
1388.877
1361.015
1332.894
1304.098
1275.469
1248.365
1224.933
1209.476
1196.841
1186.276
1177.348
1165.281
1150.27
1133.329
1115.415
1097.102
1082.41
1075.485
1072.13
1069.257
1063.89
1055.491
1044.176
1030.232
1014.421
998.9932
989.4392
987.0707
987.1198
985.9983
982.9428
977.204
967.792
954.9102
940.249
927.2357
919.2212
917.7685
922.755
928.9881
931.1541
927.765
919.9395
909.9638
899.9664
891.6097
887.97
893.213
906.8985
920.9553
930.1287
934.1243
934.3392
932.0531
926.8457
917.2054
908.5154
909.4197
916.314
913.524
909.0726
902.3556
891.3174
876.571
858.0203
837.5285
823.5891
823.1112
825.3004
826.4447
827.858
829.6642
830.3883
829.6739
826.255
821.6208
822.2466
831.7231
843.5434
853.3071
855.2689
854.9447
851.1601
839.9074
823.6797
808.4877
800.9324
801.1647
804.3085
808.4334
813.6408
819.4304
824.2949
825.8627
823.3878
819.7718
819.9437
825.6858
831.9521
837.0873
841.6844
845.8054
849.0353
849.0976
847.1616
846.6218
848.6459
852.5956
855.9841
858.8845
862.5189
865.7803
868.3729
868.2478
867.4127
868.2247
871.2781
875.1047
878.3458
881.9197
885.0694
887.5574
888.9205
890.3066
892.7602
896.4205
900.2308
902.9218
904.9679
907.6979
911.1817
914.5302
917.5181
920.1461
922.2067
924.1254
926.7695
929.1083
931.8045
935.6476
937.4434
938.7702
942.6602
950.9784
959.445
962.5771
961.7218
962.1365
963.6566
967.9365
974.6829
979.5698
983.751
987.8751
991.7911
997.1277
1002.969
1009.584
1013.071
1016.607
1024.601
1038.92
1058.355
1076.62
1090.392
1104.011
1117.277
1133.513
1151.427
1170.33
1188.882
1207.429
1231.496
1261.309
1294.722
1331.309
1368.341
1407.686
1451.568
1498.559
1546.514
1594.609
1642.108
1688.01
1732.46
1775.961
1819.69
1864.749
1911.288
1960.511
2013.145
2069.279
2129.31
2192.635
2257.424
2321.174
2381.411
2435.805
2482.148
2519.158
2546.66
2565.306
2576.543
2582.484
2585.514
2587.662
2590.596
2595.298
2604.07
2618.629
2640.835
2671.859
2711.581
2758.531
2810.547
2865.259
2920.606
2975.08
3027.642
3077.515
3123.975
3166.464
3204.877
3239.408
3270.304
3297.991
3323.07
3345.149
3365.487
3385.516
3406.107
3428.864
3456.787
3490.949
3532.011
3579.847
3633.062
3689.882
3748.671
3808.198
3867.462
3925.48
3981.344
4034.474
4084.611
4131.776
4176.144
4218.077
4257.861
4295.752
4331.901
4366.517
4399.804
4431.85
4462.682
4492.242
4520.457
4547.419
4573.297
4598.133
4621.843
4644.364
4665.718
4685.965
4705.185
4723.468
4740.886
4757.547
4773.538
4788.922
4803.718
4817.936
4831.559
4844.531
4856.721
4868.17
4879.207
4889.538
4898.845
4907.384
4915.316
4922.611
4929.068
4934.787
4939.82
4944.146
4947.75
4950.607
4952.688
4953.959
4954.381
4953.915
4952.525
4950.182
4946.878
4942.589
4937.237
4930.891
4923.693
4915.692
4906.953
4897.569
4887.67
4877.345
4866.706
4855.872
4844.869
4833.601
4822.015
4810.229
4798.521
4787.153
4776.324
4766.221
4756.975
4748.666
4741.226
4734.365
4727.864
4722.069
4716.65
4710.612
4703.669
4696.25
4688.735
4681.471
4674.832
4669.567
4667.218
4667.798
4670.909
4675.947
4682.667
4690.62
4699.262
4708.337
4717.852
4727.768
4738.021
4748.605
4759.385
4770.032
4780.457
4790.464
4800.373
4810.014
4818.6
4826.557
4834.282
4842.171
4850.142
4858.196
4866.374
4874.631
4882.923
4891.18
4899.333
4907.311
4915.01
4922.489
4929.639
4936.35
4942.522
4948.122
4953.079
4957.306
4960.737
4963.314
4965.011
4965.828
4965.74
4964.734
4963.206
4960.98
4957.873
4954.269
4950.248
4945.866
4941.177
4936.182
4930.849
4925.22
4919.372
4913.329
4907.202
4901.135
4895.319
4889.921
4885.304
4881.698
4879.715
4877.233
2794.669
2727.969
2593.771
2540.753
2489.614
2442.479
2398.673
2357.386
2317.743
2279.342
2242.042
2203.87
2165.085
2125.306
2084.508
2042.388
1998.835
1953.725
1906.953
1859.02
1811.378
1763.248
1714.761
1666.196
1617.141
1567.602
1518.713
1471.337
1426.539
1386.254
1352.141
1325.155
1306.32
1296.628
1297.261
1309.256
1333.954
1372.618
1426.232
1495.55
1581.035
1682.794
1800.616
1933.785
2081.27
2241.967
2413.422
2593.219
2779.335
2970.941
3167.412
3366.913
3566.516
3762.629
3951.074
4127.504
4287.198
4425.166
4537.249
4620.762
4673.926
4696.128
4688.392
4652.836
4591.89
4508.216
4403.661
4280.273
4140.266
3986.198
3822.194
3651.718
3478.2
3306.477
3140.706
2982.156
2829.578
2681.356
2536.962
2396.559
2260.919
2131.953
2011.931
1903.481
1808.855
1725.866
1650.539
1581.448
1515.993
1452.904
1391.785
1332.925
1277.558
1229.411
1193.209
1164.098