/*--------------------------------*- C++ -*----------------------------------*\
| =========                 |                                                 |
| \\      /  F ield         | foam-extend: Open Source CFD                    |
|  \\    /   O peration     | Version:     3.1                                |
|   \\  /    A nd           | Web:         http://www.extend-project.de       |
|    \\/     M anipulation  |                                                 |
\*---------------------------------------------------------------------------*/
FoamFile
{
    version     2.0;
    format      ascii;
    class       surfaceScalarField;
    location    "20";
    object      phi;
}
// * * * * * * * * * * * * * * * * * * * * * * * * * * * * * * * * * * * * * //

dimensions      [0 3 -1 0 0 0 0];

internalField   nonuniform List<scalar> 
275122
(
-0.0004103604
0.0004162304
-3.846561e-07
-5.485306e-06
-0.0003674184
0.0003504845
1.407929e-06
1.552597e-05
-0.0003648501
0.0003743113
-3.989192e-07
-9.06226e-06
-0.0004061714
0.00041717
-4.826381e-07
-1.05159e-05
-0.0004446145
0.0004479233
-5.610844e-07
-2.747692e-06
-0.0004480815
0.0004474255
-4.958348e-07
1.151878e-06
-0.0004436083
0.0004421264
-4.615862e-07
1.943475e-06
-0.0004370646
0.0004352071
-4.350165e-07
2.29251e-06
-0.0004293059
0.0004272587
-4.127795e-07
2.459992e-06
-0.0004209678
0.0004188253
-3.902078e-07
2.532672e-06
-0.0004122857
0.00041007
-3.662036e-07
2.581892e-06
-0.0004033355
0.0004010651
-3.414513e-07
2.611773e-06
-0.0003941933
0.0003918862
-3.167031e-07
2.623786e-06
-0.000384923
0.0003825912
-2.923404e-07
2.624138e-06
-0.000375562
0.0003732166
-2.753257e-07
2.62077e-06
-0.000366178
0.0003638321
-2.545875e-07
2.600453e-06
-0.0003567878
0.0003544532
-2.277388e-07
2.562263e-06
-0.0003475143
0.0003452611
-2.159504e-07
2.469115e-06
-0.0003389555
0.0003371487
-2.683188e-07
2.075116e-06
-0.0003334298
0.000333854
-6.737835e-07
2.495638e-07
-0.0003701548
0.0003847893
-1.352438e-06
-1.328205e-05
-0.0003887339
0.0003885601
-2.9485e-07
4.686551e-07
-0.0003924105
0.0003946571
-1.632143e-07
-2.083422e-06
-0.000437501
0.0004533857
3.418494e-07
-1.622649e-05
-0.0004557037
0.0004550195
6.441449e-07
4.00739e-08
-0.0004576859
0.0004584633
-2.890647e-07
-4.88358e-07
-0.0004585088
0.0004575346
-2.700015e-07
1.244187e-06
-0.0004529187
0.0004489912
-2.310141e-07
4.158514e-06
-0.0004228571
0.0003952741
-3.04709e-07
2.788763e-05
-0.0002769192
0.000284587
4.594924e-09
-7.672367e-06
-0.0002688658
0.0002826332
-7.136346e-08
-1.369604e-05
-0.0003218491
0.0003348819
8.266006e-09
-1.304112e-05
-0.0003747051
0.000388189
9.28442e-09
-1.34932e-05
-0.000429028
0.0004428111
1.029012e-08
-1.379339e-05
-0.0004848799
0.0004990313
1.058982e-08
-1.416194e-05
-0.0005424202
0.0005570244
9.653462e-09
-1.461391e-05
-0.0006013111
0.000616227
1.031365e-08
-1.492617e-05
-0.0006612166
0.0006763117
8.8508e-09
-1.510389e-05
-0.000721691
0.000736908
8.991157e-09
-1.522605e-05
-0.0007820366
0.0007985451
2.366447e-07
-1.674506e-05
1.315556e-05
-0.0005423401
0.0005445566
9.763242e-10
-1.537306e-05
1.346191e-05
-0.0005510966
0.0005531064
-6.597334e-10
-1.547111e-05
1.3692e-05
-0.0005587929
0.0005606272
-1.397488e-09
-1.552493e-05
1.406753e-05
-0.0005657021
0.0005672696
-1.606012e-09
-1.563341e-05
1.446647e-05
-0.0005715246
0.0005727949
-1.87442e-09
-1.573497e-05
1.477887e-05
-0.0005763066
0.0005773468
-1.376372e-09
-1.581777e-05
1.500592e-05
-0.0005802934
0.0005811799
-1.276243e-09
-1.589119e-05
1.515589e-05
-0.000583698
0.0005845179
-1.421746e-09
-1.59744e-05
1.569888e-05
-0.0005867593
0.0005864893
-7.717192e-10
-1.542808e-05
1.389544e-05
-0.002388878
0.00239867
-4.072546e-11
-6.582324e-05
1.41772e-05
1.384674e-05
1.411235e-05
1.485492e-05
-0.002405848
0.002411792
-2.135604e-11
-6.64127e-05
1.541269e-05
1.4825e-05
1.537609e-05
1.525204e-05
-0.00241667
0.00242132
-1.000699e-10
-6.611589e-05
1.551463e-05
1.52171e-05
1.548252e-05
1.540405e-05
-0.002426183
0.002430926
7.202572e-11
-6.656237e-05
1.553493e-05
1.537468e-05
1.550588e-05
1.546133e-05
-0.002435598
0.002440121
9.687221e-11
-6.672093e-05
1.566726e-05
1.542893e-05
1.563968e-05
1.569689e-05
-0.002444284
0.002448257
-1.453774e-11
-6.694873e-05
1.581877e-05
1.56688e-05
1.579034e-05
1.577775e-05
-0.002452175
0.002455714
1.042196e-11
-6.672958e-05
1.584307e-05
1.575118e-05
1.581884e-05
1.578545e-05
-0.002459314
0.002462643
7.565467e-11
-6.639647e-05
1.577092e-05
1.576336e-05
1.574797e-05
1.573299e-05
-0.002466482
0.002469973
3.660157e-11
-6.638745e-05
1.574621e-05
1.56978e-05
1.571945e-05
1.511684e-05
-0.002469883
0.002474203
-2.627591e-11
-6.514141e-05
1.531452e-05
1.508884e-05
1.5301e-05
1.602764e-05
-0.002478547
0.002481296
1.246108e-11
-6.705191e-05
1.613395e-05
1.601873e-05
1.612258e-05
1.597128e-05
-0.002483466
0.002485499
9.668503e-12
-6.563847e-05
1.583838e-05
1.596401e-05
1.583185e-05
1.588197e-05
-0.002487698
0.002489956
2.803618e-12
-6.557722e-05
1.578469e-05
1.587382e-05
1.57781e-05
1.58884e-05
-0.002492194
0.002494299
-1.267122e-11
-6.552042e-05
1.582589e-05
1.587918e-05
1.582149e-05
1.591287e-05
-0.002496357
0.002498306
-8.323499e-12
-6.547064e-05
1.585811e-05
1.589715e-05
1.585356e-05
1.597071e-05
-0.00250018
0.002501924
-3.781479e-14
-6.544391e-05
1.591211e-05
1.592182e-05
1.589519e-05
1.624183e-05
-0.002503662
0.002505501
-9.353637e-12
-6.63471e-05
1.620619e-05
1.601351e-05
1.604709e-05
1.75836e-05
-0.002506634
0.002505146
-2.841406e-11
-6.740723e-05
1.787377e-05
1.659988e-05
1.683777e-05
2.220246e-05
-0.002499208
0.002484471
-3.959275e-11
-6.956732e-05
2.364609e-05
1.951008e-05
1.89457e-05
2.932969e-05
-0.002464967
0.002488197
-4.371616e-11
-5.256019e-05
2.222136e-05
-0.002510024
0.002512915
-4.148881e-11
-2.511272e-05
4.285435e-05
-0.002506158
0.002503196
-3.574394e-11
-3.989294e-05
3.744781e-05
-0.002501244
0.002499997
-2.784146e-11
-3.620023e-05
2.136445e-05
-0.002498314
0.002500667
-2.034899e-11
-2.371729e-05
5.815223e-06
-0.002506045
0.002511572
-1.288938e-11
-1.134209e-05
9.383899e-07
-0.002516014
0.002519911
-8.388237e-12
-4.835276e-06
-2.089453e-06
-0.00252372
0.002527098
-5.89331e-12
-1.288501e-06
-4.013674e-06
-0.002530136
0.002532784
-3.684383e-12
1.365419e-06
-5.53258e-06
-0.002535219
0.002537301
1.812743e-12
3.450994e-06
-6.539062e-06
-0.002539205
0.002540879
1.115293e-11
4.864923e-06
-7.165567e-06
-0.002542452
0.002543922
2.265867e-11
5.69596e-06
-7.536157e-06
-0.00254534
0.002546738
3.157653e-11
6.13836e-06
-7.751677e-06
-0.002548104
0.002549496
3.428916e-11
6.360119e-06
-7.869266e-06
-0.002550847
0.00255225
2.808643e-11
6.465771e-06
-7.872262e-06
-0.002553594
0.002555029
3.321518e-11
6.436852e-06
-7.596214e-06
-0.002556391
0.002557888
5.761419e-11
6.099845e-06
-6.647456e-06
-0.002559296
0.002560869
6.891339e-11
5.074626e-06
-4.255093e-06
-0.002562274
0.002563766
6.908705e-11
2.763012e-06
1.596493e-06
-0.002565035
0.002565307
6.883102e-11
-1.867756e-06
1.167356e-05
-0.002560356
0.002556455
7.200008e-11
-7.773163e-06
5.484753e-06
-0.002558344
0.002560639
6.320398e-11
-7.78004e-06
1.775241e-05
-0.002561316
0.002559175
6.511481e-11
-1.561144e-05
4.270581e-05
-0.002543197
0.002525953
5.867691e-11
-2.546144e-05
1.25139e-05
-0.002517886
0.002517784
4.1896e-11
-1.241186e-05
-2.648543e-06
-0.002518091
0.002515288
2.6379e-11
5.452012e-06
-1.52337e-05
-0.002510581
0.002507808
9.950658e-12
1.800702e-05
-3.677559e-05
-0.002505977
0.002507205
-9.796161e-12
3.554778e-05
-9.155119e-05
-0.002509655
0.00254011
-2.593645e-11
6.109615e-05
-2.003343e-05
-0.002576226
0.00257531
-3.537056e-11
6.649633e-05
-1.297857e-05
-1.988069e-05
-1.268751e-05
-6.973534e-06
-0.002565707
0.00256369
-4.360096e-11
2.997431e-05
-7.370262e-06
-6.631971e-06
-6.980868e-06
-6.43787e-06
-0.002565441
0.002565043
-4.83544e-11
2.488122e-05
-6.083534e-06
-6.155274e-06
-5.807176e-06
-4.720028e-06
-0.0025622
0.002559106
-4.796927e-11
2.102069e-05
-4.469643e-06
-4.487001e-06
-4.249518e-06
-4.096969e-06
-0.002556473
0.002554449
-4.405496e-11
1.796504e-05
-4.062233e-06
-3.905959e-06
-3.875627e-06
-3.866393e-06
-0.002552787
0.002551323
-3.676744e-11
1.65048e-05
-3.81789e-06
-3.700724e-06
-3.655779e-06
-3.619854e-06
-0.002549902
0.002548587
-2.743141e-11
1.540646e-05
-3.571792e-06
-3.471679e-06
-3.428126e-06
-3.460603e-06
-0.00254734
0.002546186
-1.776428e-11
1.46905e-05
-3.436307e-06
-3.330194e-06
-3.309587e-06
-3.382217e-06
-0.002545056
0.002543956
-9.773714e-12
1.437405e-05
-3.368465e-06
-3.267192e-06
-3.256279e-06
-3.338299e-06
-0.002542839
0.002541721
-4.488663e-12
1.425156e-05
-3.328619e-06
-3.23676e-06
-3.229663e-06
-3.310146e-06
-0.002540583
0.002539436
-1.69778e-12
1.419714e-05
-3.302984e-06
-3.221102e-06
-3.21644e-06
-3.288348e-06
-0.002538275
0.002537113
-1.180888e-13
1.414936e-05
-3.282223e-06
-3.210471e-06
-3.206521e-06
-3.264252e-06
-0.002535949
0.002534807
1.75128e-12
1.405214e-05
-3.258026e-06
-3.19606e-06
-3.191633e-06
-3.233832e-06
-0.002533681
0.0025326
3.7591e-12
1.388592e-05
-3.227329e-06
-3.174259e-06
-3.169359e-06
-3.200149e-06
-0.002531549
0.00253055
5.15994e-12
1.368562e-05
-3.194225e-06
-3.148325e-06
-3.143801e-06
-3.170553e-06
-0.002529583
0.002528659
5.107854e-12
1.350869e-05
-3.166189e-06
-3.125541e-06
-3.122353e-06
-3.150487e-06
-0.002527759
0.002526884
3.549691e-12
1.339437e-05
-3.147985e-06
-3.11135e-06
-3.109822e-06
-3.140987e-06
-0.002526022
0.002525165
8.439701e-13
1.335147e-05
-3.140095e-06
-3.106873e-06
-3.106779e-06
-3.140572e-06
-0.002524309
0.002523443
-2.569959e-12
1.337065e-05
-3.140907e-06
-3.110749e-06
-3.111744e-06
-3.147072e-06
-0.002522566
0.002521668
-5.63151e-12
1.343739e-05
-3.148132e-06
-3.120975e-06
-3.122599e-06
-3.155831e-06
-0.002520754
0.002519818
-7.554743e-12
1.351537e-05
-3.156635e-06
-3.13307e-06
-3.134374e-06
-3.160097e-06
-0.002518872
0.00251792
-7.741022e-12
1.355264e-05
-3.159831e-06
-3.140428e-06
-3.140621e-06
-3.156334e-06
-0.002516971
0.002516037
-6.144503e-12
1.352257e-05
-3.154936e-06
-3.139224e-06
-3.138178e-06
-3.145988e-06
-0.002515119
0.002514231
-3.014986e-12
1.34377e-05
-3.144088e-06
-3.130649e-06
-3.129151e-06
-3.133493e-06
-0.002513366
0.002512535
7.357138e-13
1.333472e-05
-3.1318e-06
-3.11998e-06
-3.118595e-06
-3.123502e-06
0.002510944
4.257916e-12
1.325147e-05
-3.122565e-06
-3.111566e-06
-3.110815e-06
-0.002511727
-3.118637e-06
-0.002510176
0.002509419
7.175443e-12
1.321011e-05
-3.118491e-06
-3.108224e-06
-3.108358e-06
-3.119184e-06
-0.002508669
0.002507916
9.288772e-12
1.321285e-05
-3.119655e-06
-3.110182e-06
-3.110907e-06
-3.124266e-06
-0.002507159
0.002506389
1.066518e-11
1.325365e-05
-3.125357e-06
-3.116402e-06
-3.117616e-06
-3.133288e-06
-0.002505608
0.002504804
1.18109e-11
1.33263e-05
-3.134697e-06
-3.12651e-06
-3.128096e-06
-3.142514e-06
-0.002503985
0.002503149
1.314336e-11
1.339735e-05
-3.143479e-06
-3.136831e-06
-3.137977e-06
-3.147042e-06
-0.002502303
0.002501456
1.442558e-11
1.342619e-05
-3.147112e-06
-3.142289e-06
-3.142492e-06
-3.145222e-06
-0.002500612
0.002499783
1.495289e-11
1.340082e-05
-3.144532e-06
-3.141177e-06
-3.140566e-06
-3.139166e-06
-0.002498966
0.002498174
1.436536e-11
1.334047e-05
-3.138227e-06
-3.135654e-06
-3.134759e-06
-3.132789e-06
-0.002497397
0.002496642
1.258194e-11
1.327884e-05
-3.132141e-06
-3.129733e-06
-3.129125e-06
-3.12938e-06
-0.002495898
0.002495167
9.884159e-12
1.324408e-05
-3.129326e-06
-3.1268e-06
-3.126795e-06
-3.130126e-06
-0.002494438
0.00249371
6.263947e-12
1.324596e-05
-3.13064e-06
-3.128061e-06
-3.12864e-06
-3.134494e-06
-0.002492976
0.002492233
2.835308e-12
1.328059e-05
-3.135467e-06
-3.132944e-06
-3.133984e-06
-3.141751e-06
-0.002491476
0.002490701
-8.542637e-14
1.334238e-05
-3.143054e-06
-3.140661e-06
-3.142016e-06
-3.149549e-06
-0.002489908
0.002489097
-2.595411e-12
1.340929e-05
-3.150676e-06
-3.148814e-06
-3.149974e-06
-3.153816e-06
-0.00248827
0.00248744
-3.961218e-12
1.344558e-05
-3.154357e-06
-3.153296e-06
-3.153838e-06
-3.15243e-06
-0.002486601
0.002485774
-4.336237e-12
1.343546e-05
-3.152538e-06
-3.152089e-06
-3.152142e-06
-3.146259e-06
-0.002484945
0.002484142
-4.724613e-12
1.33885e-05
-3.146363e-06
-3.146319e-06
-3.14652e-06
-3.137898e-06
-0.002483336
0.002482561
-4.281993e-12
1.332872e-05
-3.138699e-06
-3.138339e-06
-3.13925e-06
-3.128797e-06
-0.002481778
0.002481027
-3.385252e-12
1.32712e-05
-3.131229e-06
-3.129307e-06
-3.131694e-06
-3.118499e-06
-0.002480259
0.002479527
-2.736911e-12
1.32176e-05
-3.123302e-06
-3.119033e-06
-3.123851e-06
-3.103499e-06
-0.002478773
0.002478069
-3.849876e-12
1.313642e-05
-3.11201e-06
-3.104154e-06
-3.112691e-06
-3.073242e-06
-0.002477371
0.002476757
-5.454242e-13
1.293022e-05
-3.084313e-06
-3.07386e-06
-3.084985e-06
-2.948534e-06
-0.002476132
0.002475397
-8.797396e-12
1.250336e-05
-2.93426e-06
-2.949748e-06
-2.93575e-06
-2.59864e-06
-0.002474148
0.002472377
1.678323e-11
1.170191e-05
-2.366094e-06
-2.596976e-06
-2.369576e-06
-2.118809e-06
-0.002471647
0.002469023
-9.126812e-12
1.131441e-05
-2.235221e-06
-2.109048e-06
-2.22727e-06
-3.006838e-06
-0.002468377
0.002467793
-1.675561e-12
1.259104e-05
-3.004448e-06
-3.000068e-06
-2.995994e-06
-3.05867e-06
-0.002467182
0.00246625
-5.914074e-12
1.297503e-05
-2.971226e-06
-3.049773e-06
-2.963438e-06
-3.000969e-06
-0.002465159
0.002464119
-6.42078e-12
1.302739e-05
-2.999966e-06
-2.993618e-06
-2.992644e-06
-3.039382e-06
-0.002463132
0.002462112
-7.700334e-12
1.315748e-05
-3.036544e-06
-3.032382e-06
-3.029435e-06
-3.042432e-06
-0.002461044
0.002459923
-1.017429e-11
1.325709e-05
-3.033342e-06
-3.034275e-06
-3.025482e-06
-3.039803e-06
-0.002458767
0.002457584
-1.24625e-11
1.331458e-05
-3.033033e-06
-3.03278e-06
-3.026343e-06
-3.043735e-06
-0.002456398
0.002455201
-1.399775e-11
1.335373e-05
-3.040903e-06
-3.037426e-06
-3.034781e-06
-3.046039e-06
-0.002453997
0.002452783
-1.522502e-11
1.337809e-05
-3.042022e-06
-3.040088e-06
-3.036002e-06
-3.044544e-06
-0.002451576
0.002450378
-1.67447e-11
1.335955e-05
-3.041749e-06
-3.038907e-06
-3.036132e-06
-3.045455e-06
-0.00244919
0.002448004
-1.827979e-11
1.335292e-05
-3.043293e-06
-3.040161e-06
-3.037984e-06
-3.04978e-06
-0.002446826
0.002445642
-1.906481e-11
1.337037e-05
-3.048688e-06
-3.044768e-06
-3.043816e-06
-3.059771e-06
-0.002444455
0.002443246
-1.898838e-11
1.34378e-05
-3.059445e-06
-3.055065e-06
-3.054743e-06
-3.074491e-06
-0.002442026
0.00244077
-1.846537e-11
1.354644e-05
-3.075027e-06
-3.070036e-06
-3.070563e-06
-3.090528e-06
-0.002439491
0.002438168
-1.769186e-11
1.367881e-05
-3.091526e-06
-3.086368e-06
-3.087353e-06
-3.107615e-06
-0.002436821
0.002435434
-1.634895e-11
1.381203e-05
-3.108608e-06
-3.103715e-06
-3.104758e-06
-3.123133e-06
-0.002434027
0.002432584
-1.470738e-11
1.392805e-05
-3.123364e-06
-3.119401e-06
-3.119705e-06
-3.136685e-06
-0.002431125
0.002429634
-1.330309e-11
1.402945e-05
-3.136359e-06
-3.132983e-06
-3.13269e-06
-3.149902e-06
-0.002428128
0.002426588
-1.186116e-11
1.413123e-05
-3.149361e-06
-3.146123e-06
-3.14561e-06
-3.164058e-06
-0.002425029
0.00242343
-1.040069e-11
1.4246e-05
-3.163486e-06
-3.160188e-06
-3.159643e-06
-3.179557e-06
-0.002421808
0.002420139
-9.083778e-12
1.437849e-05
-3.179033e-06
-3.175759e-06
-3.17525e-06
-3.196315e-06
-0.002418442
0.002416692
-8.08614e-12
1.452807e-05
-3.195898e-06
-3.192865e-06
-3.192489e-06
-3.214272e-06
-0.002414908
0.002413067
-7.263011e-12
1.469256e-05
-3.214e-06
-3.211307e-06
-3.211103e-06
-3.23343e-06
-0.002411188
0.002409248
-6.480625e-12
1.486931e-05
-3.233394e-06
-3.230867e-06
-3.230851e-06
-3.25354e-06
-0.002407268
0.002405227
-5.657701e-12
1.505143e-05
-3.25376e-06
-3.251197e-06
-3.251352e-06
-3.273456e-06
0.002401011
-5.049305e-12
1.522676e-05
-0.002403148
-3.273763e-06
-3.271296e-06
-3.271529e-06
-3.291555e-06
-0.002398842
0.002396626
-4.699269e-12
1.537969e-05
-3.292006e-06
-3.289707e-06
-3.290083e-06
-3.307873e-06
-0.002394384
0.002392102
-4.537188e-12
1.550952e-05
-3.307742e-06
-3.306209e-06
-3.306356e-06
-3.325451e-06
-0.002389799
0.002387456
-5.025499e-12
1.563899e-05
-3.324367e-06
-3.323335e-06
-3.322854e-06
-3.345991e-06
-0.002385086
0.002382661
-5.526659e-12
1.580566e-05
-3.345772e-06
-3.344227e-06
-3.343871e-06
-3.372761e-06
-0.002380192
0.002377644
-6.124905e-12
1.603578e-05
-3.37305e-06
-3.370965e-06
-3.371213e-06
-3.405119e-06
-0.002375032
0.002372316
-6.228381e-12
1.633499e-05
-3.405785e-06
-3.403411e-06
-3.404086e-06
-3.441267e-06
-0.002369514
0.002366589
-5.666025e-12
1.668832e-05
-3.442017e-06
-3.439674e-06
-3.4404e-06
-3.478078e-06
-0.002363563
0.002360404
-5.184393e-12
1.706856e-05
-3.478557e-06
-3.476568e-06
-3.477018e-06
-3.513219e-06
-0.002357134
0.002353734
-5.335506e-12
1.744999e-05
-3.51326e-06
-3.511816e-06
-3.511878e-06
-3.546251e-06
-0.002350212
0.002346561
-5.324311e-12
1.783335e-05
-3.546006e-06
-3.544956e-06
-3.544742e-06
-3.578301e-06
-0.002342773
0.002338864
-4.879356e-12
1.821939e-05
-3.577863e-06
-3.577049e-06
-3.57662e-06
-3.609453e-06
-0.002334803
0.002330622
-4.355381e-12
1.861567e-05
-3.608944e-06
-3.60827e-06
-3.607771e-06
-3.639264e-06
-0.002326272
0.002321825
-3.544925e-12
1.90003e-05
-3.638437e-06
-3.638193e-06
-3.637336e-06
-3.665898e-06
-0.002317195
0.002312482
-2.313783e-12
1.937153e-05
-3.664697e-06
-3.664893e-06
-3.663514e-06
-3.688951e-06
-0.002307566
0.002302616
-1.099975e-12
1.969968e-05
-3.686798e-06
-3.687932e-06
-3.685453e-06
-3.706566e-06
-0.00229744
0.002292255
-7.032655e-13
2.000159e-05
-3.70275e-06
-3.705577e-06
-3.701429e-06
-3.717642e-06
-0.00228681
0.002281435
-2.150016e-12
2.02311e-05
-3.711225e-06
-3.717038e-06
-3.710252e-06
-3.719046e-06
-0.002275766
0.002270211
-4.807905e-12
2.041163e-05
-3.709574e-06
-3.718791e-06
-3.70872e-06
-3.710382e-06
-0.002264308
0.002258652
-8.113888e-12
2.047147e-05
-3.697589e-06
-3.710259e-06
-3.696485e-06
-3.68952e-06
-0.002252588
0.002246839
-8.459451e-12
2.04726e-05
-3.673072e-06
-3.689493e-06
-3.671924e-06
-3.659121e-06
-0.002240594
0.002234863
5.385879e-12
2.032269e-05
-3.637187e-06
-3.659176e-06
-3.635789e-06
-3.619843e-06
-0.00222857
0.002222958
1.472194e-11
2.003375e-05
-3.591856e-06
-3.620412e-06
-3.589761e-06
-3.490323e-06
-0.002216664
0.002211069
-1.840488e-11
1.942847e-05
-3.426154e-06
-3.491726e-06
-3.426112e-06
-2.956651e-06
-0.002205096
0.002196734
2.977131e-11
1.835337e-05
-2.031575e-06
-2.966289e-06
-2.037119e-06
-1.273486e-06
-0.0005444445
0.0005413986
-1.094146e-09
4.320433e-06
-3.59588e-06
-0.0005371605
0.0005355695
-1.076967e-09
5.187963e-06
-3.445872e-06
-0.0005308168
0.0005292595
-3.449741e-10
5.003452e-06
-3.381978e-06
-0.0005247463
0.0005233394
-6.364137e-10
4.789463e-06
-3.609781e-06
-0.0005193536
0.000518043
-4.195809e-10
4.920801e-06
-3.567586e-06
-0.0005141532
0.0005128883
-6.148536e-10
4.83313e-06
-3.622344e-06
-0.0005091767
0.0005079422
-4.94759e-10
4.857347e-06
-3.605492e-06
-0.0005042869
0.0005030771
-5.387337e-10
4.815842e-06
-3.55967e-06
-0.0004994814
0.0004982954
-5.590615e-10
4.746258e-06
-3.489565e-06
-0.0004947937
0.0004936445
-5.7418e-10
4.639273e-06
-3.372822e-06
-0.0004902656
0.0004891688
-5.839107e-10
4.470299e-06
-3.235916e-06
-0.0004859831
0.0004849628
-6.288149e-10
4.256921e-06
-3.067201e-06
-0.0004820298
0.0004811041
-6.866501e-10
3.993545e-06
-2.886908e-06
-0.0004784858
0.0004776741
-6.962369e-10
3.699269e-06
-2.699817e-06
-0.0004754157
0.0004747312
-6.593987e-10
3.384935e-06
-2.518472e-06
-0.0004728651
0.0004723143
-6.035038e-10
3.069894e-06
-2.354572e-06
-0.0004708526
0.0004704363
-5.396881e-10
2.771419e-06
-2.215632e-06
-0.0004693678
0.0004690776
-4.870385e-10
2.506307e-06
-2.108941e-06
-0.0004683661
0.0004681837
-4.758859e-10
2.291818e-06
-2.035634e-06
-0.0004677625
0.0004676571
-4.197825e-10
2.141405e-06
-2.025911e-06
-0.000467456
0.0004674178
-2.553367e-10
2.064459e-06
-2.037245e-06
-0.0004673477
0.000467328
-3.042844e-10
2.057236e-06
-2.104039e-06
-0.0004672466
0.0004672065
-3.918853e-10
2.144592e-06
-2.209444e-06
-0.000467015
0.0004669163
-3.143032e-10
2.308484e-06
-2.343696e-06
-0.0004665018
0.0004663129
-2.362138e-10
2.532853e-06
-2.506381e-06
-0.0004655832
0.0004652723
-1.715354e-10
2.817465e-06
-2.691405e-06
-0.0004641284
0.0004636641
-1.424038e-10
3.155853e-06
-2.880916e-06
-0.0004620258
0.000461388
-1.154774e-10
3.51886e-06
-3.053778e-06
-0.000459217
0.0004584014
-8.56664e-11
3.869531e-06
-3.189977e-06
-0.0004557089
0.0004547283
-6.214222e-11
4.170628e-06
-3.267183e-06
-0.0004515776
0.0004504612
-3.486594e-11
4.383662e-06
-3.287052e-06
-0.0004469625
0.0004457712
-3.898872e-11
4.478406e-06
-3.194539e-06
-0.0004420827
0.0004408667
-5.930522e-11
4.410589e-06
-2.915953e-06
-0.000437259
0.0004360394
-1.96273e-10
4.135787e-06
-2.53551e-06
-0.0004329219
0.0004319462
-3.271524e-10
3.511525e-06
-4.643768e-07
-0.0004295957
0.000428165
-3.794259e-10
1.895433e-06
9.289474e-07
-0.0004246801
0.0004237646
-5.728206e-10
-1.290108e-08
1.308052e-06
-0.0004210826
0.0004202953
-5.378935e-10
-5.202416e-07
1.545276e-06
-0.0004182524
0.0004176737
-5.253644e-10
-9.660772e-07
1.69604e-06
-0.000416156
0.0004157214
-4.558559e-10
-1.26099e-06
1.782416e-06
-0.0004146077
0.000414287
-4.828774e-10
-1.46125e-06
1.829007e-06
-0.0004134272
0.0004131712
-4.273226e-10
-1.572523e-06
1.815961e-06
-0.0004124691
0.0004122446
-3.630166e-10
-1.591075e-06
1.722245e-06
-0.0004115714
0.0004113375
-2.945695e-10
-1.488044e-06
1.595284e-06
-0.0004105772
0.0004102895
-2.771777e-10
-1.307334e-06
1.42115e-06
-0.0004093164
0.0004089358
-2.476215e-10
-1.040299e-06
1.189209e-06
-0.0004076267
0.0004071106
-1.887568e-10
-6.729408e-07
9.022043e-07
-0.000405347
0.0004046612
-1.645802e-10
-2.162097e-07
5.715088e-07
-0.00040232
0.0004014225
-1.549182e-10
3.261775e-07
2.415513e-07
-0.0003983813
0.0003972117
-1.69411e-10
9.282102e-07
-8.799815e-08
-0.0003932357
0.0003917406
-7.887208e-11
1.58319e-06
-6.55505e-07
-0.0003867048
0.0003848215
3.512557e-10
2.538452e-06
-1.64527e-06
-0.0003785372
0.0003762472
1.502602e-09
3.933708e-06
-3.016816e-06
-0.0003686955
0.0003659047
3.36252e-09
5.804326e-06
-4.97031e-06
-0.0003568955
0.0003537657
2.765385e-09
8.097366e-06
-5.328627e-06
-0.0003442503
0.0003409584
-4.21956e-09
8.62473e-06
-2.472047e-06
-0.000330547
0.0003269751
-3.626255e-09
6.04756e-06
-2.208766e-07
-0.0003165567
0.0003132878
-3.549922e-10
3.490129e-06
6.330936e-07
-0.000303864
0.0003009521
5.412307e-10
2.278317e-06
3.769133e-07
-0.0002928165
0.0002902619
5.849912e-10
2.177122e-06
1.61051e-08
-0.000282919
0.000280607
1.45921e-09
2.294461e-06
-5.145769e-07
-0.0002738641
0.0002716937
1.597527e-09
2.683371e-06
-1.281901e-06
-0.0002657021
0.0002637931
-4.089901e-09
3.195025e-06
-9.872552e-07
-0.0002581231
0.0002562658
-4.565996e-09
2.849076e-06
-1.452266e-07
-0.000250943
0.0002492705
-2.138451e-09
1.819903e-06
3.989529e-07
-0.0002445216
0.0002431266
-6.718216e-10
9.966852e-07
3.683175e-07
-0.0002394176
0.0002383327
-3.810783e-10
7.169586e-07
3.789011e-07
-0.0002354179
0.0002345602
-3.571874e-10
4.791472e-07
4.726148e-07
-0.0002322636
0.0002315968
-2.913874e-10
1.944773e-07
6.729359e-07
-0.0002297373
0.0002290497
-3.986722e-12
1.464842e-08
2.593878e-07
-0.0002246035
0.0009450115
-6.873399e-11
1.113653e-06
-6.500687e-07
2.857798e-07
-7.408948e-07
-0.0002246219
-0.0002480192
-0.0002480347
2.380633e-07
-0.0009453265
0.000943071
-4.18446e-11
3.559715e-07
7.266159e-07
2.205494e-07
7.143802e-07
7.681484e-07
-0.0009416243
0.000940687
-1.309828e-11
-2.319635e-06
8.728417e-07
7.552401e-07
8.606845e-07
1.142307e-06
-0.0009401069
0.0009398693
2.512641e-11
-4.471377e-06
1.223623e-06
1.130579e-06
1.21239e-06
1.348967e-06
-0.0009398067
0.0009399002
4.373516e-11
-5.535121e-06
1.382204e-06
1.33872e-06
1.371666e-06
1.459763e-06
-0.0009401943
0.0009408257
6.630761e-11
-6.50457e-06
1.488161e-06
1.448217e-06
1.477011e-06
1.599845e-06
-0.0009416707
0.000942828
7.397417e-11
-7.582437e-06
1.621808e-06
1.59042e-06
1.612985e-06
1.71817e-06
-0.0009441993
0.0009458638
6.771578e-11
-8.551263e-06
1.732385e-06
1.710683e-06
1.725436e-06
1.81235e-06
-0.0009477278
0.000949861
4.758373e-11
-9.390797e-06
1.82228e-06
1.806354e-06
1.816562e-06
1.893547e-06
-0.0009521707
0.0009547301
2.159919e-11
-1.014024e-05
1.901725e-06
1.888603e-06
1.896927e-06
1.973342e-06
-0.0009574514
0.0009604155
-2.967223e-12
-1.086643e-05
1.981836e-06
1.969222e-06
1.977917e-06
2.057523e-06
-0.0009635384
0.000966901
-2.310444e-11
-1.16045e-05
2.06684e-06
2.05406e-06
2.06351e-06
2.144826e-06
-0.00097042
0.0009741744
-3.46253e-11
-1.234723e-05
2.154585e-06
2.141819e-06
2.151693e-06
2.231855e-06
-0.0009780799
0.0009822122
-3.745497e-11
-1.307418e-05
2.24173e-06
2.229178e-06
2.239128e-06
2.317075e-06
-0.0009864865
0.0009909756
-3.598379e-11
-1.377236e-05
2.326974e-06
2.314615e-06
2.32458e-06
2.399947e-06
-0.0009955951
0.001000417
-3.118514e-11
-1.443693e-05
2.409782e-06
2.397671e-06
2.407563e-06
2.479293e-06
-0.001005358
0.001010485
-2.163014e-11
-1.505886e-05
2.488671e-06
2.477157e-06
2.486568e-06
2.552153e-06
-0.001015716
0.00102111
-9.087122e-12
-1.561557e-05
2.560609e-06
2.550129e-06
2.558614e-06
2.616123e-06
-0.001026587
0.001032201
-1.958298e-12
-1.60889e-05
2.623554e-06
2.61424e-06
2.621711e-06
2.67266e-06
-0.001037877
0.001043663
-6.254594e-12
-1.648764e-05
2.679653e-06
2.67089e-06
2.67791e-06
2.724837e-06
-0.001049494
0.00105541
-2.082178e-11
-1.682588e-05
2.731402e-06
2.723134e-06
2.7297e-06
2.770812e-06
-0.001061353
0.001067359
-3.730702e-11
-1.70968e-05
2.776295e-06
2.769174e-06
2.774674e-06
2.807964e-06
-0.001073373
0.001079429
-4.445605e-11
-1.729322e-05
2.812208e-06
2.806416e-06
2.810688e-06
2.838016e-06
-0.001085476
0.001091549
-3.863592e-11
-1.742944e-05
2.841584e-06
2.836498e-06
2.84015e-06
2.866537e-06
-0.001097603
0.001103678
-2.447688e-11
-1.754616e-05
2.870415e-06
2.865005e-06
2.86885e-06
2.901127e-06
-0.001109733
0.001115825
-7.230292e-12
-1.77035e-05
2.906435e-06
2.899557e-06
2.904803e-06
2.949001e-06
-0.00112191
0.001128063
8.712607e-12
-1.796073e-05
2.956227e-06
2.947416e-06
2.954692e-06
3.012611e-06
-0.001134233
0.00114051
1.888814e-11
-1.834211e-05
3.021711e-06
3.011077e-06
3.020214e-06
3.088087e-06
-0.001146824
0.001153272
2.390585e-11
-1.881823e-05
3.098331e-06
3.08657e-06
3.09685e-06
3.171617e-06
-0.00115977
0.001166425
2.543176e-11
-1.936056e-05
3.182814e-06
3.17008e-06
3.181298e-06
3.263835e-06
-0.00117314
0.001180036
2.449535e-11
-1.997292e-05
3.276298e-06
3.262266e-06
3.274755e-06
3.366279e-06
-0.001187005
0.001194179
2.089818e-11
-2.06639e-05
3.380141e-06
3.364698e-06
3.378591e-06
3.478712e-06
-0.00120144
0.001208928
1.532868e-11
-2.142911e-05
3.493798e-06
3.477093e-06
3.492204e-06
3.59948e-06
-0.001216514
0.001224341
9.343116e-12
-2.225428e-05
3.615511e-06
3.597808e-06
3.613856e-06
3.726091e-06
-0.001232276
0.00124046
5.030697e-12
-2.311845e-05
3.742634e-06
3.724383e-06
3.740957e-06
3.855615e-06
-0.001248756
0.001257302
2.620283e-12
-2.399872e-05
3.872349e-06
3.853878e-06
3.870634e-06
3.985097e-06
-0.00126596
0.001274862
4.224397e-13
-2.487201e-05
4.001843e-06
3.983306e-06
4.000044e-06
4.111638e-06
-0.001283872
0.001293112
-1.100224e-12
-2.571648e-05
4.128324e-06
4.109807e-06
4.126488e-06
4.232711e-06
-0.001302454
0.001312007
-1.839326e-12
-2.651192e-05
4.248945e-06
4.230887e-06
4.24714e-06
4.346215e-06
-0.001321651
0.00133148
-2.107912e-12
-2.723993e-05
4.360977e-06
4.344343e-06
4.359124e-06
4.44911e-06
-0.00134139
0.001351455
-1.811446e-12
-2.788288e-05
4.462129e-06
4.447151e-06
4.460111e-06
4.538296e-06
-0.001361585
0.001371834
-1.040112e-12
-2.842155e-05
4.550083e-06
4.536236e-06
4.547967e-06
4.609447e-06
-0.001382131
0.001392502
2.925747e-13
-2.882667e-05
4.620413e-06
4.607267e-06
4.618273e-06
4.652013e-06
-0.001402891
0.001413307
1.383298e-12
-2.903612e-05
4.660422e-06
4.649768e-06
4.658227e-06
4.62268e-06
-0.001423717
0.001434184
2.463199e-12
-2.892754e-05
4.609691e-06
4.620586e-06
4.607595e-06
4.439306e-06
-0.001444805
0.001455601
2.986661e-12
-2.844101e-05
4.386362e-06
4.436491e-06
4.383547e-06
4.238281e-06
-0.001466477
0.001477296
2.931962e-12
-2.771346e-05
4.211028e-06
4.236013e-06
4.208773e-06
4.173707e-06
-0.001488044
0.001498675
1.899952e-12
-2.732423e-05
4.174454e-06
4.17173e-06
4.17244e-06
4.12841e-06
-0.001509245
0.001519693
-4.971623e-14
-2.695498e-05
4.126749e-06
4.126448e-06
4.124728e-06
4.060523e-06
-0.001530058
0.001540274
-1.915373e-12
-2.64574e-05
4.06183e-06
4.058535e-06
4.059891e-06
3.987066e-06
-0.001550372
0.001560288
-3.050851e-12
-2.589278e-05
4.003251e-06
3.984918e-06
4.001295e-06
3.916042e-06
-0.001570018
0.001579509
-3.922851e-12
-2.525272e-05
3.966659e-06
3.913739e-06
3.964534e-06
3.749915e-06
-0.001588806
0.001598182
-3.938789e-12
-2.451096e-05
3.818726e-06
3.747841e-06
3.817982e-06
3.542318e-06
-0.00160688
0.001615938
-5.631451e-12
-2.31115e-05
3.487483e-06
3.539614e-06
3.483599e-06
3.4359e-06
-0.001627084
0.001635375
-5.164351e-12
-2.230099e-05
3.5666e-06
3.439917e-06
3.56847e-06
3.452205e-06
-0.001642657
0.001650281
-5.171993e-12
-2.103349e-05
3.245537e-06
3.459143e-06
3.252813e-06
3.169106e-06
-0.001658196
0.001665881
-5.516721e-12
-2.020768e-05
3.084777e-06
3.176874e-06
3.09201e-06
3.032433e-06
-0.001673357
0.001680585
-5.556253e-12
-1.923472e-05
2.964453e-06
3.039214e-06
2.970738e-06
2.87385e-06
-0.001687661
0.001694468
-5.072788e-12
-1.821378e-05
2.823399e-06
2.879769e-06
2.828998e-06
2.722317e-06
-0.001701105
0.001707437
-4.022649e-12
-1.715315e-05
2.683402e-06
2.727526e-06
2.688347e-06
2.574196e-06
-0.001713587
0.001719403
-2.949255e-12
-1.605957e-05
2.542968e-06
2.578755e-06
2.547365e-06
2.421874e-06
-0.001725038
0.001730339
-2.465454e-12
-1.49367e-05
2.392097e-06
2.426187e-06
2.396168e-06
2.258759e-06
-0.001735468
0.001740256
-2.409636e-12
-1.377437e-05
2.230677e-06
2.262719e-06
2.234395e-06
2.08215e-06
-0.001744879
0.001749147
-3.098389e-12
-1.254693e-05
2.053639e-06
2.085788e-06
2.057037e-06
1.882498e-06
-0.00175325
0.001756979
-3.522644e-12
-1.120285e-05
1.851252e-06
1.885801e-06
1.854327e-06
1.647199e-06
-0.001760533
0.001763708
-3.418953e-12
-9.697113e-06
1.611073e-06
1.650118e-06
1.613763e-06
1.362484e-06
-0.00176671
0.001769336
-3.348125e-12
-7.992318e-06
1.318429e-06
1.364988e-06
1.320692e-06
1.004375e-06
-0.001771782
0.001773804
-3.063303e-12
-5.926254e-06
9.456994e-07
1.006524e-06
9.47602e-07
5.308459e-07
-0.001775608
0.001776938