/*--------------------------------*- C++ -*----------------------------------*\
| =========                 |                                                 |
| \\      /  F ield         | foam-extend: Open Source CFD                    |
|  \\    /   O peration     | Version:     3.1                                |
|   \\  /    A nd           | Web:         http://www.extend-project.de       |
|    \\/     M anipulation  |                                                 |
\*---------------------------------------------------------------------------*/
FoamFile
{
    version     2.0;
    format      ascii;
    class       volScalarField;
    location    "10";
    object      k;
}
// * * * * * * * * * * * * * * * * * * * * * * * * * * * * * * * * * * * * * //

dimensions      [0 2 -2 0 0 0 0];

internalField   nonuniform List<scalar> 
119952
(
0.04091958
0.03812693
0.03908262
0.04114158
0.04323145
0.04480506
0.04703495
0.04962761
0.05241404
0.05526541
0.05805863
0.06069583
0.06310895
0.06527383
0.06710601
0.06857826
0.06968771
0.07045186
0.07092305
0.0713385
0.07258678
0.06982657
0.06822313
0.06757505
0.06296706
0.05901605
0.05479464
0.04956427
0.042348
0.01297516
0.07373197
0.07007067
0.07001662
0.07223799
0.0759361
0.08041809
0.08521972
0.09002588
0.09462171
0.09892234
0.09831901
0.1021486
0.107008
0.1115265
0.1151247
0.1175745
0.1189235
0.1192977
0.1187659
0.1292288
0.1261781
0.1230441
0.1202992
0.1179723
0.1159729
0.1141143
0.1123021
0.1103549
0.1083222
0.1059112
0.1029822
0.1002362
0.09798427
0.09631091
0.09537202
0.09518918
0.09573493
0.09717657
0.1009874
0.1039527
0.1071026
0.1116467
0.1171922
0.1232114
0.1292883
0.1353777
0.1412681
0.1466859
0.1513912
0.1551974
0.157994
0.1597501
0.1605106
0.1603779
0.1594412
0.1577338
0.1552456
0.1519712
0.1481719
0.1438722
0.1391071
0.1348241
0.1309858
0.1262216
0.1210494
0.115715
0.1098522
0.1031453
0.09811333
0.0945108
0.09212491
0.09065832
0.08969985
0.08880419
0.08763347
0.08605471
0.08409811
0.08190379
0.07965085
0.07744068
0.07533487
0.07337331
0.07156895
0.06994066
0.06854769
0.0674014
0.06649228
0.06582029
0.06539082
0.06520968
0.06527877
0.06560298
0.06618526
0.06702316
0.06810804
0.06942199
0.07093598
0.07260754
0.07438084
0.07619003
0.07795843
0.07960353
0.08104799
0.08222993
0.08310761
0.08366178
0.08387718
0.08371685
0.08313695
0.08218562
0.08090299
0.07930644
0.07743183
0.07533169
0.07307166
0.0707174
0.06835938
0.06617478
0.06422305
0.06233965
0.06075961
0.05937938
0.05801211
0.05742188
0.06014581
0.06575636
0.0720447
0.07777026
0.07958339
0.07652334
0.07141504
0.06587331
0.06083316
0.05711907
0.05450569
0.05249785
0.05066085
0.04851628
0.04594272
0.04315283
0.04054033
0.0383246
0.03651211
0.03504513
0.03388671
0.03300691
0.0323643
0.03190841
0.03158962
0.03137015
0.03122854
0.03115312
0.03113278
0.03115471
0.03120658
0.03127881
0.03136528
0.03146249
0.03156819
0.03168064
0.03179711
0.03189418
0.03192936
0.03189928
0.03180898
0.03165855
0.03143075
0.02947391
0.02713528
0.02610601
0.02534015
0.0246734
0.02406766
0.02350838
0.02298577
0.02248982
0.02201322
0.02155613
0.02111844
0.02068973
0.02026421
0.01984953
0.01944555
0.01905468
0.01867733
0.01831349
0.01796385
0.01763223
0.01731714
0.01701572
0.01672845
0.01645639
0.01619866
0.01595267
0.01571754
0.01549322
0.01527979
0.01507735
0.0148859
0.01470552
0.01453647
0.01437818
0.01422737
0.01427489
0.01435549
0.01442856
0.01448225
0.01451748
0.01453546
0.01453851
0.01452943
0.01451095
0.01448545
0.01445496
0.01442122
0.01438564
0.0143493
0.01431305
0.01427746
0.014243
0.01420996
0.01417853
0.01414882
0.01412086
0.01409459
0.01406993
0.01404675
0.01402492
0.01400424
0.01398453
0.0139656
0.01394729
0.01392944
0.01391188
0.01389451
0.01387808
0.01385984
0.01492468
0.01495226
0.01492197
0.0148499
0.01477256
0.01470413
0.01465403
0.01462555
0.01461762
0.01462676
0.01464869
0.01467986
0.01471677
0.01475613
0.01479559
0.01483353
0.01486894
0.0149013
0.01493046
0.01495648
0.01497954
0.01499994
0.01501798
0.01503398
0.01504826
0.01506107
0.01507267
0.01508326
0.01509302
0.0151021
0.01511064
0.01511875
0.0151265
0.01513398
0.01514124
0.01514834
0.01515533
0.01516224
0.0151691
0.01517593
0.01518278
0.01518967
0.01519672
0.01520428
0.01521358
0.01522448
0.01522971
0.01523112
0.01523237
0.01523315
0.0152336
0.01523453
0.01523636
0.01525298
0.01529963
0.01525578
0.01521128
0.01516576
0.01511979
0.01507538
0.01503446
0.01499871
0.01496918
0.01494655
0.01493094
0.01492196
0.01491895
0.01492108
0.01492743
0.01493706
0.01494906
0.01496257
0.01497686
0.01499124
0.01500517
0.01501817
0.01502987
0.01503997
0.01504822
0.01505448
0.01505862
0.01506058
0.01506032
0.01505783
0.01505317
0.01504636
0.01503747
0.01502659
0.01501381
0.01499922
0.01498293
0.01496506
0.01494569
0.01492496
0.01490297
0.01487982
0.01485563
0.01483049
0.01480448
0.01477771
0.01475025
0.01472217
0.01469355
0.01466444
0.01463491
0.01460501
0.01457477
0.01454424
0.01451345
0.01448243
0.0144512
0.01441977
0.01438818
0.01435642
0.0143245
0.01429243
0.01426021
0.01422783
0.01419529
0.01416258
0.01412968
0.01409659
0.01406327
0.01402973
0.01399593
0.01396187
0.01392752
0.01389285
0.0138577
0.01382213
0.0137859
0.0137489
0.01371042
0.01366938
0.01362212
0.01356111
0.01346435
0.01332866
0.0134738
0.08654181
0.08526348
0.09419792
0.1033737
0.1106439
0.11612
0.1202466
0.1233774
0.1259108
0.1296222
0.1409482
0.1521756
0.1617987
0.1693521
0.1749685
0.1789636
0.1816782
0.183438
0.2075945
0.2061858
0.204677
0.202886
0.2010416
0.1992926
0.1976731
0.1961597
0.1947526
0.1934202
0.1924531
0.1912236
0.1900017
0.1890239
0.1884673
0.1884268
0.1889927
0.1902134
0.1921363
0.1947706
0.1978749
0.2015843
0.2059432
0.2108761
0.2162144
0.2217107
0.2270586
0.2319094
0.2359438
0.2388745
0.2404168
0.240487
0.2391268
0.236509
0.2328709
0.2284748
0.2235751
0.218474
0.2268159
0.2217551
0.2164953
0.2109475
0.205054
0.1988672
0.1925332
0.1862302
0.1801164
0.1742804
0.1687668
0.1635576
0.1585724
0.1537544
0.149102
0.1450423
0.1420989
0.1403992
0.1401515
0.1413149
0.1436969
0.1475522
0.1528801
0.1594101
0.1667696
0.1745544
0.1823695
0.1898083
0.1965553
0.2023296
0.2069158
0.2101997
0.2121903
0.2130056
0.212806
0.2117142
0.2097786
0.2070009
0.2034312
0.1992119
0.1945055
0.1896629
0.1848819
0.1798039
0.1741384
0.1679496
0.1612855
0.1542488
0.1473294
0.1408739
0.1348947
0.1293942
0.1243836
0.1198729
0.1158429
0.1122423
0.1089997
0.1060408
0.1033044
0.1007461
0.0983368
0.09606404
0.09392879
0.09193984
0.0901045
0.08843671
0.08702818
0.08593058
0.08516472
0.0847524
0.08471428
0.08506749
0.08582295
0.08698346
0.08854211
0.09047971
0.0927613
0.09533327
0.09812237
0.1010355
0.1039608
0.1067745
0.1093592
0.111619
0.1134881
0.1149346
0.1159517
0.1165355
0.1166658
0.1163132
0.1154646
0.1142469
0.1127247
0.1109487
0.1089667
0.1068139
0.1045162
0.1020938
0.09953876
0.09674815
0.09367964
0.09024606
0.08628764
0.08195695
0.077905
0.0746258
0.07236858
0.07148328
0.072302
0.07490705
0.07878418
0.08343485
0.08818431
0.092569
0.0961077
0.09814676
0.09835949
0.09689435
0.09410759
0.09039058
0.08616199
0.0818199
0.07761867
0.07363611
0.07004067
0.06694933
0.06440088
0.06236693
0.06076866
0.05950256
0.05850252
0.05772598
0.05713567
0.05669404
0.05636296
0.05610742
0.05589962
0.05572063
0.05555915
0.05540983
0.05527242
0.05515358
0.05503927
0.0548953
0.05469876
0.05444089
0.05410501
0.05373704
0.05127596
0.04953656
0.04859429
0.0478529
0.04713618
0.04640365
0.0456521
0.04488731
0.04411577
0.04334252
0.04257233
0.04181107
0.04106374
0.04033359
0.03962258
0.03893125
0.03825957
0.03760736
0.03697433
0.0363601
0.03576414
0.03518573
0.03462393
0.03407763
0.03354572
0.03302729
0.03252205
0.03202959
0.03154928
0.03108048
0.03062253
0.03017484
0.02973699
0.02930829
0.02888754
0.02848061
0.02811118
0.02777556
0.02746054
0.02716102
0.02687449
0.02659957
0.02633538
0.02608135
0.02583706
0.02560219
0.02537646
0.02515963
0.02495148
0.02475177
0.02456026
0.02437669
0.02420078
0.02403223
0.02387072
0.02371588
0.02356736
0.02342476
0.02328767
0.02315567
0.02302835
0.02290529
0.02278607
0.02267031
0.02255766
0.02244777
0.0223404
0.02223537
0.02213258
0.0220309
0.02323043
0.02314455
0.0230714
0.02299704
0.02291693
0.02283171
0.02274312
0.02265257
0.02256129
0.0224704
0.02238069
0.02229288
0.02220749
0.02212493
0.02204545
0.02196923
0.02189636
0.02182686
0.0217607
0.02169782
0.02163811
0.02158147
0.02152776
0.02147682
0.02142852
0.02138269
0.02133918
0.02129785
0.02125852
0.02122108
0.02118536
0.02115126
0.02111863
0.02108737
0.02105737
0.02102853
0.02100076
0.02097399
0.02094816
0.02092322
0.02089917
0.02087604
0.02085401
0.02083322
0.02081351
0.02079386
0.02077278
0.02075047
0.02072785
0.02070536
0.02068289
0.02066084
0.02063906
0.02062328
0.02060837
0.02058373
0.02055471
0.02052546
0.02049709
0.02046936
0.02044182
0.02041407
0.0203858
0.0203568
0.020327
0.02029639
0.02026496
0.02023272
0.02019965
0.02016578
0.02013107
0.02009551
0.02005906
0.02002166
0.01998324
0.01994375
0.0199031
0.01986122
0.01981803
0.01977345
0.01972741
0.01967985
0.01963072
0.01957996
0.01952754
0.01947345
0.01941766
0.01936019
0.01930105
0.01924025
0.01917785
0.01911388
0.01904842
0.01898151
0.01891323
0.01884367
0.01877289
0.01870098
0.01862801
0.01855407
0.01847924
0.01840359
0.01832718
0.0182501
0.01817239
0.01809413
0.01801538
0.01793618
0.01785659
0.01777665
0.01769641
0.01761592
0.01753521
0.01745432
0.01737329
0.01729215
0.01721093
0.01712966
0.01704839
0.01696711
0.01688589
0.01680472
0.01672366
0.01664266
0.01656185
0.01648109
0.01640058
0.01631999
0.01623962
0.01615887
0.01607817
0.0159962
0.01591331
0.01582648
0.01573547
0.0156369
0.01554321
0.01548095
0.0154553
0.05152692
0.0548637
0.05881747
0.06321275
0.06806548
0.07344943
0.07948336
0.0863233
0.09415796
0.1026508
0.1468146
0.1612288
0.1758716
0.1906466
0.2059359
0.2217396
0.2381738
0.2560091
0.2831752
0.3333622
0.3446724
0.3546653
0.3639434
0.3727729
0.380946
0.388526
0.3949218
0.4003818
0.4060737
0.4122253
0.4179971
0.4223796
0.4255375
0.4277671
0.429255
0.4300636
0.4301565
0.429927
0.4265426
0.42343
0.4201471
0.4165115
0.4124511
0.4079462
0.4030246
0.3977379
0.3921704
0.3864365
0.3804301
0.3742549
0.3680095
0.3617827
0.355658
0.3496819
0.3438655
0.3381923
0.3501521
0.3447754
0.3393649
0.3339789
0.3285952
0.3232028
0.3178184
0.3124599
0.3071587
0.3019337
0.2968337
0.2919538
0.2873508
0.2831017
0.279305
0.2760778
0.2735482
0.2718555
0.2711418
0.2715142
0.2730435
0.275758
0.2795862
0.2843611
0.2898256
0.2956312
0.3013377
0.3065087
0.310716
0.3135443
0.3147051
0.3141138
0.3118681
0.3082249
0.3035136
0.2981663
0.2927154
0.2871708
0.2811682
0.2748426
0.2682208
0.2613176
0.2541233
0.246631
0.2388885
0.2310474
0.2232675
0.2156848
0.2083571
0.20133
0.1946523
0.1883603
0.1825232
0.1771972
0.1725731
0.1693059
0.1676397
0.1677293
0.1696666
0.173445
0.1789814
0.1859934
0.1940675
0.2027148
0.2114648
0.2198672
0.2275469
0.2341376
0.2393571
0.2430627
0.2452747
0.2461706
0.2459987
0.2449254
0.2429688
0.2400703
0.2362164
0.2315185
0.2262038
0.2205595
0.2147571
0.208701
0.2022601
0.195435
0.1883446
0.1811441
0.1740715
0.1672775
0.1607651
0.1545033
0.1485042
0.1428025
0.1374372
0.1324358
0.1278048
0.123535
0.1196083
0.1160034
0.112701
0.1096882
0.1069581
0.1045064
0.1023311
0.1004346
0.09882023
0.09758029
0.09676198
0.09638562
0.09647496
0.09705178
0.09813092
0.09971708
0.1018019
0.1043609
0.1073488
0.1106954
0.1143064
0.1180601
0.1218104
0.125394
0.1286636
0.1315173
0.1338892
0.1357576
0.137129
0.1379997
0.1383292
0.1380647
0.1371983
0.1358394
0.1341247
0.1321458
0.1299759
0.1276528
0.1251792
0.1225417
0.1197066
0.1166032
0.1131829
0.1093799
0.1051547
0.1006665
0.09619752
0.0918706
0.0877318
0.08396441
0.08089227
0.07882648
0.07794708
0.07838427
0.080227
0.08339319
0.08718052
0.09111507
0.09478178
0.09784659
0.1000368
0.1011477
0.1011281
0.1000848
0.09822874
0.09579911
0.09302342
0.09011083
0.0872225
0.08449401
0.08200412
0.07976404
0.07781289
0.07618496
0.07487437
0.07384503
0.07304362
0.07241282
0.07190057
0.07146364
0.07106631
0.07068101
0.07029788
0.06991108
0.06954388
0.06916403
0.06873924
0.068252
0.0676771
0.06701536
0.06623911
0.06546155
0.06463764
0.06374861
0.06280427
0.06181924
0.06080794
0.05978241
0.05875164
0.05772282
0.0567028
0.05569792
0.05471354
0.053754
0.05282221
0.05191955
0.05104616
0.05020167
0.04938552
0.04859697
0.04783495
0.04709808
0.04638477
0.04569334
0.04502205
0.04436921
0.04373321
0.04311254
0.04250577
0.04191154
0.04132848
0.04075526
0.04019049
0.03963357
0.03908616
0.03855484
0.03804623
0.03755869
0.0370884
0.03663307
0.03619114
0.0357616
0.03534384
0.03493753
0.03454256
0.03415892
0.03378667
0.03342589
0.03307668
0.0327391
0.0324132
0.03209898
0.03179638
0.03150527
0.03122546
0.03095669
0.03069863
0.0304509
0.03021306
0.02998463
0.02976509
0.02955389
0.02935046
0.02915425
0.02896472
0.02878136
0.02860375
0.02843142
0.02826401
0.02810255
0.02794336
0.02778711
0.02762941
0.02747165
0.02731735
0.02716805
0.02702351
0.02688297
0.02674599
0.02661238
0.02648212
0.02635523
0.02623175
0.02611175
0.0259953
0.0258825
0.02577343
0.02566814
0.02556667
0.02546903
0.02537522
0.0252852
0.0251989
0.02511625
0.02503714
0.02496145
0.02488905
0.02481978
0.02475349
0.02469002
0.0246292
0.02457087
0.02451486
0.02446101
0.02440916
0.02435918
0.02431092
0.02426426
0.02421909
0.02417534
0.02413294
0.02409188
0.02405214
0.02401367
0.02397624
0.02393934
0.02390227
0.02386472
0.02382695
0.0237892
0.02375162
0.02371424
0.02367701
0.02363944
0.02360138
0.02356279
0.02352487
0.02348748
0.02344977
0.02341127
0.02337192
0.02333182
0.02329102
0.02324954
0.02320733
0.02316435
0.02312054
0.02307582
0.02303012
0.02298337
0.02293549
0.02288642
0.02283607
0.02278438
0.02273129
0.02267674
0.02262065
0.02256297
0.02250364
0.02244262
0.02237985
0.02231529
0.0222489
0.02218066
0.02211055
0.02203855
0.02196466
0.0218889
0.02181128
0.02173184
0.02165061
0.02156766
0.02148304
0.02139683
0.02130909
0.02121993
0.02112941
0.02103763
0.02094468
0.02085063
0.02075558
0.0206596
0.02056276
0.02046515
0.02036683
0.02026786
0.02016829
0.0200682
0.01996763
0.01986663
0.01976524
0.01966351
0.01956148
0.01945919
0.01935667
0.01925397
0.0191511
0.01904811
0.01894502
0.01884187
0.01873868
0.0186355
0.01853232
0.01842923
0.01832616
0.01822324
0.01812032
0.01801756
0.01791464
0.0178118
0.01770834
0.01760457
0.01749916
0.01739279
0.01728382
0.01717542
0.01706833
0.01697201
0.01689221
0.04076356
0.04506584
0.04886767
0.07258604
0.0968119
0.1262868
0.1461568
0.1659128
0.1844659
0.2014868
0.2161279
0.2287129
0.2410273
0.2535264
0.2660513
0.2786956
0.29154
0.3045511
0.3177165
0.3308284
0.3436259
0.3560828
0.3683737
0.380548
0.3925601
0.4044046
0.4161448
0.4278072
0.4392841
0.450557
0.4624027
0.4929334
0.4995583
0.5056674
0.5108298
0.5155035
0.5191221
0.5219688
0.524154
0.526037
0.5280082
0.52973
0.5311691
0.5323365
0.5331925
0.5337119
0.533861
0.5335882
0.5328489
0.5314321
0.5287142
0.5249875
0.5203677
0.5150406
0.5091696
0.502885
0.4962877
0.4894616
0.4824823
0.4753988
0.4682349
0.4610267
0.4538161
0.4466552
0.4395965
0.432665
0.4258843
0.4192252
0.4123819
0.4057284
0.3992246
0.39282
0.3864609
0.3801085
0.3737432
0.3673522
0.3609381
0.3545048
0.3480846
0.3417605
0.3356179
0.329777
0.3243824
0.3195988
0.3156125
0.312629
0.3108562
0.3104703
0.3115967
0.3143142
0.3185997
0.3242806
0.331048
0.3384698
0.3460123
0.3530548
0.3589312
0.3629972
0.3648106
0.364254
0.3614741
0.3568416
0.3508872
0.3442575
0.3374962
0.3305518
0.3235013
0.3162949
0.3089172
0.301373
0.2936236
0.2856155
0.2773204
0.2688259
0.2602436
0.251677
0.2431884
0.2348644
0.2268104
0.2191305
0.2119622
0.2054713
0.1998524
0.1954854
0.1929755
0.1925777
0.1944334
0.1985502
0.2047575
0.2127018
0.2218898
0.2317418
0.2417139
0.2513298
0.2600823
0.2675266
0.2733252
0.277311
0.2795732
0.2804134
0.2801877
0.2790883
0.2770452
0.2738748
0.269476
0.2639348
0.2575394
0.2506666
0.2435568
0.2362993
0.2288785
0.2212669
0.2135505
0.2058831
0.1984273
0.1912623
0.1843788
0.1777268
0.1712508
0.1649677
0.1589159
0.1531315
0.147642
0.1424668
0.1376187
0.1331071
0.1289397
0.1251246
0.1216699
0.118583
0.1158722
0.1135478
0.1116211
0.1101152
0.1091394
0.1087236
0.1088952
0.1096775
0.1110843
0.1131168
0.1157589
0.1189765
0.1227126
0.1268699
0.1313348
0.13596
0.1405634
0.1449555
0.14897
0.1524853
0.1554272
0.1577873
0.1595895
0.1608167
0.1613665
0.1611121
0.1600301
0.1582957
0.1561233
0.1536627
0.1510202
0.1482533
0.1453732
0.1423569
0.1391586
0.1357154
0.1319785
0.1278982
0.1235004
0.1189069
0.1142424
0.109514
0.1046971
0.09985583
0.09513451
0.09074125
0.08694919
0.08404387
0.08223598
0.08162547
0.0821894
0.08383934
0.08639332
0.08943989
0.09252837
0.09540561
0.09784494
0.09969434
0.100888
0.101451
0.101467
0.1010339
0.100238
0.09914784
0.09782051
0.09632804
0.09475225
0.0931817
0.09169852
0.09035984
0.08918994
0.08818385
0.08731758
0.08655798
0.08586584
0.08519611
0.08452763
0.08383964
0.08313561
0.08243457
0.08169669
0.08089787
0.08002012
0.07906344
0.07802999
0.07691526
0.07572987
0.07448996
0.07321135
0.07190867
0.0705962
0.06928625
0.06798795
0.06670858
0.06545477
0.06423154
0.06304237
0.06189156
0.06078186
0.05971419
0.05868813
0.05770281
0.05675698
0.05584914
0.05497732
0.0541392
0.05333216
0.05255348
0.05180044
0.0510704
0.05036086
0.04966948
0.0489941
0.04833273
0.04768351
0.04704481
0.04641534
0.04579467
0.04518388
0.04458613
0.04400521
0.04344171
0.04289388
0.04235986
0.04183819
0.04132797
0.04082864
0.04033993
0.03986181
0.03939437
0.03893782
0.03849242
0.0380585
0.03763642
0.03722649
0.03682902
0.03644425
0.03607236
0.03571346
0.03536754
0.03503453
0.03471424
0.03440642
0.0341107
0.03382665
0.03355377
0.03329154
0.03303931
0.03279658
0.03256253
0.03233695
0.03211854
0.03190802
0.03170249
0.03150272
0.03130704
0.0311158
0.03092937
0.03074761
0.0305701
0.03039643
0.03022635
0.03005977
0.02989672
0.02973729
0.02958157
0.02942962
0.02928153
0.02913738
0.02899723
0.02886117
0.02872927
0.02860157
0.02847811
0.02835892
0.02824399
0.0281333
0.02802678
0.02792437
0.02782597
0.02773147
0.02764072
0.02755358
0.02746988
0.02738944
0.0273121
0.02723766
0.02716593
0.02709674
0.02702991
0.02696526
0.02690265
0.02684193
0.02678297
0.02672567
0.02666992
0.02661562
0.02656263
0.02651074
0.02645962
0.02640882
0.02635799
0.02630711
0.02625628
0.02620559
0.02615502
0.02610438
0.02605375
0.02600341
0.0259529
0.02590195
0.02585055
0.02579877
0.02574662
0.02569411
0.02564125
0.025588
0.02553432
0.0254801
0.02542527
0.02536974
0.0253134
0.02525618
0.02519797
0.0251387
0.02507827
0.02501659
0.0249536
0.02488921
0.02482334
0.02475593
0.02468691
0.02461622
0.02454378
0.02446956
0.02439351
0.02431557
0.02423572
0.02415394
0.02407019
0.02398448
0.02389681
0.0238072
0.02371567
0.02362226
0.02352703
0.02343004
0.02333137
0.02323108
0.02312928
0.02302606
0.0229215
0.02281571
0.02270876
0.02260076
0.02249178
0.02238191
0.02227122
0.02215978
0.02204766
0.02193491
0.0218216
0.02170777
0.02159347
0.02147875
0.02136364
0.02124819
0.02113241
0.02101636
0.02090005
0.02078351
0.02066677
0.02054984
0.02043276
0.02031554
0.02019821
0.02008077
0.01996327
0.01984569
0.01972808
0.01961037
0.01949261
0.01937464
0.0192565
0.0191379
0.01901885
0.01889902
0.01877854
0.0186576
0.01853683
0.01841805
0.0183032
0.01820362
0.02104637
0.0232264
0.02526265
0.03287656
0.04324101
0.06046174
0.07268215
0.08564603
0.09955857
0.1136525
0.1281686
0.1440815
0.1609829
0.1781984
0.1961373
0.2163562
0.2471853
0.2612645
0.2755123
0.2898043
0.3043841
0.3186156
0.3321403
0.3450894
0.3576516
0.3699451
0.3821707
0.3941489
0.4058295
0.417368
0.4287194
0.4398476
0.4507203
0.4612926
0.4715231
0.4813867
0.4908507
0.4998271
0.5083336
0.5162344
0.5234857
0.5280787
0.5296406
0.5315913
0.5332085
0.5340144
0.5343078
0.5341653
0.5338227
0.5334438
0.5332411
0.5333944
0.5338371
0.5344682
0.535259
0.5361202
0.5369724
0.5376869
0.5381851
0.5383635
0.5380516
0.536739
0.5345789
0.5317747
0.5284327
0.524626
0.5204119
0.5158347
0.5109383
0.5057754
0.50039
0.4948004
0.4890232
0.4830995
0.4770918
0.4710725
0.4650844
0.459164
0.4532835
0.4474156
0.441569
0.4357172
0.4298192
0.4238396
0.4177646
0.4116093
0.405316
0.3988337
0.3921491
0.3852894
0.3782988
0.3713088
0.3645671
0.3582862
0.3526806
0.3480077
0.3445611
0.3426517
0.3425685
0.3445746
0.3488671
0.3554268
0.3639739
0.3740374
0.3849663
0.3959166
0.4059461
0.4140722
0.4193848
0.421302
0.4197477
0.4151582
0.4082566
0.3998462
0.39087
0.3816934
0.3724931
0.3633801
0.354353
0.3453923
0.3364835
0.3275954
0.3186915
0.3097365
0.3006868
0.2915336
0.282306
0.2730481
0.2638539
0.2548618
0.2462286
0.23815
0.2308671
0.2246743
0.2199217
0.2172985
0.2171628
0.2197248
0.2249837
0.2326756
0.2423332
0.2532764
0.2647527
0.276118
0.2868269
0.29636
0.3042787
0.3102733
0.3142272
0.3163375
0.3170657
0.316883
0.3159364
0.3139509
0.3105359
0.305456
0.2987706
0.2908601
0.2823342
0.2735868
0.2648677
0.2562296
0.2476012
0.2389646
0.2304182
0.2221298
0.2141983
0.2066323
0.1994004
0.1924368
0.185704
0.1791992
0.1729167
0.1668691
0.1610863
0.1555964
0.1504267
0.1456049
0.1411599
0.1371183
0.1335043
0.13034
0.1276474
0.1254504
0.1237745
0.1227054
0.1223182
0.1226441
0.1237102
0.1255306
0.1280921
0.1313642
0.1353224
0.1399176
0.1450604
0.1506111
0.156363
0.1620705
0.1675066
0.1724827
0.176847
0.1805267
0.1835406
0.1859384
0.1876616
0.1884741
0.1881048
0.1865015
0.1839669
0.1808783
0.1774829
0.1739371
0.1703203
0.1666751
0.1629806
0.1591794
0.1551983
0.1509877
0.1465233
0.1418412
0.1370247
0.1321176
0.1270731
0.1218745
0.1165384
0.111116
0.1057195
0.1005173
0.09571105
0.0915186
0.08814757
0.08574684
0.0843901
0.08407311
0.08469979
0.08612274
0.08814177
0.09047709
0.09272476
0.09472843
0.09641247
0.0977749
0.09886742
0.09975465
0.100492
0.1011108
0.1016105
0.1019642
0.1021361
0.1021074
0.1018837
0.1014919
0.1009701
0.1003563
0.09968285
0.09897066
0.09822577
0.09743476
0.09657198
0.09560135
0.09456145
0.09346597
0.09229818
0.09104829
0.08971451
0.088299
0.08680525
0.08524707
0.08364194
0.08200684
0.08035877
0.07871503
0.07709087
0.0754972
0.07394201
0.07243333
0.07097709
0.06957507
0.06823068
0.0669456
0.06571903
0.06454884
0.06343427
0.06237369
0.06136458
0.06040373
0.05948738
0.05861155
0.05777219
0.0569653
0.05618707
0.05543389
0.05470246
0.05398972
0.05329296
0.05260977
0.05193812
0.05127653
0.05062426
0.04998154
0.04934975
0.04873093
0.04812576
0.04753321
0.04695191
0.04638085
0.04581925
0.04526663
0.04472274
0.04418752
0.04366111
0.0431438
0.04263602
0.04213827
0.04165114
0.04117525
0.0407112
0.04025958
0.0398209
0.03939561
0.03898406
0.0385865
0.03820304
0.0378337
0.03747837
0.0371368
0.03680867
0.03649354
0.03619086
0.03590009
0.03562049
0.03535155
0.03509229
0.03484226
0.03460017
0.03436537
0.03413722
0.03391532
0.0336992
0.03348849
0.03328292
0.03308225
0.03288623
0.03269463
0.03250733
0.03232425
0.03214537
0.03197067
0.03180018
0.03163394
0.03147202
0.03131447
0.03116136
0.03101276
0.03086873
0.03072929
0.03059448
0.03046429
0.0303387
0.03021765
0.03010107
0.02998887
0.02988091
0.02977706
0.02967715
0.02958101
0.02948845
0.02939927
0.02931326
0.02923023
0.02914996
0.02907226
0.02899695
0.02892384
0.02885276
0.02878355
0.02871606
0.02865013
0.02858556
0.02852215
0.02845959
0.02839757
0.02833578
0.02827411
0.02821255
0.0281511
0.02808975
0.02802845
0.02796724
0.02790614
0.02784476
0.02778281
0.02772037
0.02765756
0.02759446
0.02753107
0.02746737
0.02740331
0.02733886
0.02727393
0.02720847
0.02714242
0.02707568
0.0270082
0.02693989
0.02687066
0.02680045
0.02672916
0.02665672
0.02658304
0.02650806
0.0264317
0.02635387
0.02627452
0.02619356
0.02611095
0.02602662
0.02594051
0.02585258
0.0257628
0.02567112
0.02557753
0.02548202
0.02538459
0.02528526
0.02518406
0.02508104
0.02497625
0.02486976
0.02476166
0.02465203
0.02454096
0.02442857
0.02431492
0.02420014
0.02408429
0.02396748
0.02384978
0.02373126
0.023612
0.02349206
0.02337149
0.02325036
0.02312871
0.02300657
0.022884
0.02276102
0.02263767
0.02251397
0.02238995
0.02226561
0.02214099
0.02201609
0.02189092
0.02176549
0.02163982
0.02151391
0.02138777
0.0212614
0.02113481
0.02100799
0.02088093
0.02075361
0.02062597
0.02049798
0.02036956
0.02024067
0.02011131
0.01998154
0.01985177
0.01972215
0.01959428
0.01946877
0.01935866
0.008540837
0.01014248
0.0113129
0.01684574
0.02316381
0.03136156
0.03811489
0.04576852
0.05403089
0.06284298
0.07253749
0.08391946
0.09639284
0.1103012
0.1269125
0.1523742
0.1652302
0.1786557
0.1921679
0.2057237
0.2192597
0.2326769
0.2458854
0.2587975
0.2713087
0.2833995
0.2953546
0.3083935
0.3216459
0.3351228
0.3488971
0.362531
0.3756853
0.3883022
0.4004415
0.4121593
0.4232506
0.4339752
0.4443679
0.4544425
0.4641799
0.4735303
0.4824347
0.4908181
0.4986065
0.5057272
0.5120727
0.5175542
0.5221078
0.5251087
0.5267802
0.5265376
0.524424
0.5219163
0.51869
0.515082
0.5114703
0.5081084
0.5052589
0.5031183
0.5018186
0.5014137
0.5018628
0.5030463
0.5048282
0.50702
0.5094765
0.5120484
0.5146324
0.5169498
0.5185717
0.5197013
0.520398
0.5206824
0.5204949
0.5197895
0.5185409
0.5167383
0.514396
0.511573
0.5083263
0.504676
0.5006324
0.496242
0.4915952
0.4867997
0.4819379
0.4770584
0.4721738
0.4672749
0.4623439
0.4573519
0.4522714
0.4471157
0.4418486
0.4363686
0.4306393
0.4246343
0.4183536
0.4118329
0.4051451
0.398392
0.3916725
0.3853409
0.3798172
0.375474
0.3727404
0.3720796
0.3739721
0.3788723
0.3870025
0.3981848
0.4118835
0.427322
0.4434595
0.458979
0.4724972
0.4826258
0.4881914
0.4886615
0.4843375
0.4761355
0.4651779
0.4526068
0.4396282
0.4267168
0.4141644
0.4020992
0.3905246
0.3793825
0.3686218
0.3582242
0.3481527
0.3383099
0.3285656
0.3188079
0.3089862
0.2991377
0.2893615
0.2798033
0.2706616
0.2621896
0.2547
0.2485701
0.2442346
0.2423717
0.243509
0.2478832
0.2553913
0.2655684
0.277634
0.2906302
0.3036505
0.3160608
0.3273941
0.3371914
0.3450931
0.3508784
0.3545457
0.356459
0.3572684
0.3575568
0.3573144
0.3558827
0.3525452
0.3468249
0.3386783
0.3286379
0.3177058
0.3066031
0.2958299
0.2856054
0.2757739
0.2660449
0.2563467
0.2468452
0.2377161
0.2290418
0.2208279
0.2130488
0.2056349
0.1985452
0.191747
0.1852188
0.1789659
0.1730075
0.1673667
0.1620738
0.1571757
0.152717
0.1487384
0.1452767
0.1423675
0.140049
0.1383634
0.1373736
0.1371757
0.1378159
0.1393347
0.1417531
0.1450654
0.1492554
0.1543089
0.1601883
0.1668056
0.1739422
0.1812706
0.188442
0.195161
0.201222
0.2065014
0.2109603
0.2146736
0.2177334
0.2199942
0.2209743
0.2201695
0.2175303
0.2136161
0.2091173
0.2044312
0.1997413
0.1950953
0.1904976
0.1859271
0.1813219
0.1765975
0.1716941
0.1666141
0.1613788
0.1560361
0.1506122
0.1450789
0.1394199
0.1336299
0.1277128
0.1217385
0.1157992
0.1100162
0.1045431
0.0995352
0.09514993
0.09151965
0.08873601
0.08684095
0.0858283
0.08563339
0.0861226
0.08710357
0.08839214
0.08981743
0.09123779
0.09251802
0.09365994
0.09473105
0.09581243
0.09697138
0.0982352
0.09958939
0.1009808
0.1023363
0.1035794
0.1046384
0.1054571
0.1060043
0.1062749
0.106277
0.1060218
0.1055174
0.1047626
0.1037452
0.1025248
0.1011538
0.09965492
0.09804398
0.09633442
0.09453903
0.09267512
0.09076214
0.088819
0.08686417
0.0849164
0.08299404
0.08111346
0.07928885
0.07752943
0.075843
0.07423488
0.07270716
0.07126028
0.06989156
0.06859532
0.06737096
0.06621653
0.06512855
0.06410239
0.06313284
0.06221446
0.0613418
0.06050955
0.05971267
0.05894638
0.05820628
0.05748838
0.05678908
0.05610526
0.05543429
0.05477415
0.05412351
0.05348181
0.05284921
0.05222637
0.05161353
0.05100988
0.05041434
0.04982603
0.04924425
0.04866853
0.04809863
0.04753448
0.04697623
0.04642419
0.04587889
0.04534097
0.0448112
0.04429043
0.04377957
0.0432795
0.0427911
0.04231518
0.04185245
0.04140356
0.04096899
0.04054911
0.04014414
0.03975414
0.03937903
0.03901858
0.03867241
0.03834008
0.03802098
0.03771448
0.03741979
0.03713614
0.03686268
0.03659861
0.03634306
0.03609517
0.03585425
0.03561983
0.0353916
0.03516923
0.03495238
0.03474073
0.03453402
0.03433207
0.03413477
0.03394203
0.03375382
0.03357016
0.03339106
0.03321658
0.03304677
0.0328817
0.03272144
0.03256603
0.03241552
0.03226992
0.03212924
0.03199345
0.03186249
0.03173628
0.03161472
0.03149768
0.031385
0.0312765
0.031172
0.03107128
0.03097414
0.03088035
0.03078968
0.03070192
0.03061685
0.03053424
0.0304539
0.03037561
0.03029918
0.0302244
0.03015105
0.0300789
0.03000766
0.02993707
0.02986687
0.0297969
0.02972708
0.02965736
0.02958771
0.02951809
0.02944843
0.02937867
0.02930863
0.02923819
0.02916735
0.02909617
0.02902465
0.02895281
0.02888062
0.02880806
0.02873512
0.02866176
0.02858794
0.02851362
0.02843873
0.02836322
0.02828704
0.02821011
0.02813237
0.02805376
0.0279742
0.02789362
0.02781195
0.02772912
0.02764505
0.02755967
0.02747292
0.02738471
0.02729499
0.02720369
0.02711074
0.02701611
0.02691974
0.02682159
0.02672163
0.02661987
0.02651629
0.02641092
0.02630379
0.02619495
0.02608447
0.02597242
0.02585888
0.02574396
0.02562774
0.02551032
0.02539179
0.02527225
0.02515177
0.02503044
0.02490833
0.0247855
0.02466201
0.02453792
0.02441327
0.0242881
0.02416246
0.02403637
0.02390985
0.02378294
0.02365565
0.02352799
0.02339997
0.02327159
0.02314285
0.02301376
0.0228843
0.02275448
0.02262428
0.0224937
0.02236274
0.02223138
0.02209961
0.02196742
0.02183479
0.02170168
0.02156809
0.02143399
0.02129938
0.02116435
0.02102898
0.02089363
0.02075843
0.02062457
0.02049277
0.02037706
0.001890153
0.008084329
0.01221403
0.01712263
0.02267016
0.0290767
0.03642932
0.0445936
0.05375911
0.06485983
0.08179009
0.09144022
0.1017851
0.1125401
0.1236915
0.1351416
0.146819
0.1586224
0.1703906
0.1820378
0.1936007
0.2065918
0.2196245
0.2325187
0.2452464
0.2577653
0.2700272
0.2820673
0.2939072
0.3055184
0.3169362
0.3284331
0.3402848
0.3523109
0.3645701
0.3768656
0.3888768
0.4003264
0.4111054
0.421165
0.4305139
0.4394037
0.4479637
0.4562636
0.4643091
0.4720652
0.4794661
0.4864195
0.4927882
0.4984373
0.5032153
0.5069006
0.5089578
0.509362
0.5079757
0.505033
0.5004787
0.4946774
0.488275
0.4816468
0.475247
0.4695103
0.4648099
0.4614357
0.4595682
0.4592757
0.4605143
0.4631461
0.466985
0.4717962
0.4773005
0.4832878
0.4890857
0.4947023
0.5002861
0.5057194
0.5108313
0.5154918
0.5195468
0.5228034
0.525171
0.5265831
0.5270214
0.5265337
0.5252313
0.523217
0.5205403
0.5172356