/*--------------------------------*- C++ -*----------------------------------*\
| =========                 |                                                 |
| \\      /  F ield         | foam-extend: Open Source CFD                    |
|  \\    /   O peration     | Version:     3.1                                |
|   \\  /    A nd           | Web:         http://www.extend-project.de       |
|    \\/     M anipulation  |                                                 |
\*---------------------------------------------------------------------------*/
FoamFile
{
    version     2.0;
    format      ascii;
    class       volScalarField;
    location    "10";
    object      omega;
}
// * * * * * * * * * * * * * * * * * * * * * * * * * * * * * * * * * * * * * //

dimensions      [0 0 -1 0 0 0 0];

internalField   nonuniform List<scalar> 
119952
(
288.4212
364.2636
352.9684
319.5165
297.9334
309.2094
323.4274
339.2966
356.2716
373.9546
391.9817
410.0827
428.0892
445.9633
463.4559
480.4996
497.0933
513.2961
529.2895
545.97
453.658
449.5406
448.9366
370.1264
357.201
345.7078
332.9465
316.4082
291.9032
162.3659
711.6205
590.5452
505.9484
449.6417
409.7374
379.4955
355.0511
334.4631
316.4682
294.0062
236.2713
198.6044
174.4237
157.9551
146.1942
137.4603
130.7422
125.4245
121.1352
96.88384
95.40466
93.99492
92.71401
91.68694
90.92966
90.24794
89.09714
87.21855
84.7748
81.56563
77.52434
72.76366
67.43485
62.01545
56.8576
52.14732
47.94824
44.26689
41.94727
40.09976
38.30132
36.87188
35.80874
35.03798
34.44544
34.00745
33.70483
33.51199
33.40828
33.37687
33.4052
33.48605
33.61382
33.7881
34.01516
34.31341
34.69487
35.15941
35.73904
36.56602
37.42902
38.34927
39.74285
42.00128
45.00142
49.31623
55.6265
63.02347
67.3925
70.60101
72.94458
74.46915
75.08473
74.69527
73.31869
71.09589
68.24367
65.00282
61.60229
58.21774
54.96078
51.8973
49.07444
46.50533
44.153
42.02406
40.1103
38.39832
36.87474
35.52903
34.34902
33.32284
32.43955
31.68878
31.06086
30.547
30.13941
29.83125
29.61644
29.49003
29.44769
29.48527
29.59874
29.78454
30.04002
30.36955
30.79056
31.35863
32.16755
33.20328
34.48268
36.04488
37.9173
40.10868
42.6088
45.37942
48.26433
51.3455
55.07383
59.35055
65.10456
73.84282
86.4256
98.96536
109.3379
118.5273
123.782
123.367
116.3027
103.8553
90.25424
78.20963
68.62787
61.37154
55.84841
51.28799
47.25785
43.74639
40.80813
38.40345
36.42581
34.79233
33.46819
32.42294
31.60641
30.96281
30.44268
30.01046
29.64398
29.32335
29.0266
28.73669
28.4455
28.15206
27.85977
27.57425
27.30218
27.04997
26.82203
26.61905
26.43802
26.28366
26.187
26.14101
26.12427
26.13446
26.23669
32.08026
37.89672
39.49296
39.97162
40.1212
40.17986
40.22978
40.29963
40.40025
40.5391
40.72381
40.95952
41.27382
41.68734
42.13915
42.62705
43.14226
43.68115
44.2411
44.81702
45.39668
45.98591
46.59023
47.20931
47.84195
48.48805
49.14973
49.82845
50.52498
51.23952
51.97157
52.71933
53.47714
54.22675
54.89653
54.70396
53.74318
52.93697
52.21183
51.53249
50.88343
50.25376
49.63723
49.03121
48.43477
47.84807
47.27173
46.70615
46.15195
45.60974
45.07992
44.56281
44.05863
43.56738
43.08904
42.6235
42.17051
41.72979
41.30089
40.88347
40.47704
40.08117
39.69553
39.31951
38.95259
38.59438
38.24428
37.90176
37.56827
37.23678
30.0153
29.47121
28.86784
28.22904
27.62843
27.08754
26.61461
26.20853
25.85961
25.561
25.30512
25.0836
24.88588
24.70447
24.53395
24.37034
24.21084
24.05358
23.89737
23.74153
23.58575
23.42996
23.27423
23.11872
22.96364
22.8092
22.6556
22.50306
22.35175
22.20182
22.05339
21.90657
21.76144
21.61807
21.4765
21.33678
21.19894
21.063
20.92901
20.79703
20.66718
20.53963
20.41485
20.29392
20.17961
20.07505
19.9775
19.88301
19.7916
19.70302
19.61695
19.534
19.45527
19.38607
19.36205
19.27227
19.16708
19.04826
18.91743
18.77953
18.63897
18.49995
18.36588
18.23926
18.1217
18.014
17.91641
17.82868
17.75023
17.68029
17.61797
17.56237
17.51259
17.46781
17.42729
17.39036
17.35648
17.32518
17.29607
17.26883
17.24322
17.21904
17.19615
17.17444
17.15383
17.13427
17.1157
17.09811
17.08147
17.06578
17.05102
17.03718
17.02427
17.01227
17.00119
16.991
16.98169
16.97326
16.96569
16.95897
16.95308
16.94797
16.94364
16.94004
16.93713
16.93486
16.93319
16.93204
16.93136
16.93107
16.93109
16.93133
16.93168
16.93204
16.93229
16.93228
16.93189
16.93095
16.9293
16.92675
16.9231
16.91813
16.91162
16.90331
16.89292
16.88015
16.86467
16.8461
16.82388
16.79739
16.76578
16.72786
16.68166
16.6236
16.54584
16.43181
16.24454
15.94246
15.89581
714.4193
600.5248
546.9673
505.5428
467.9346
433.707
402.9532
375.5057
350.0346
287.7788
223.9378
187.8602
165.9256
151.5212
141.2768
133.4168
126.9921
121.4822
96.38753
91.71032
87.28638
83.22443
79.59259
76.38832
73.55911
71.04162
68.77291
66.69348
64.82285
62.93689
60.99596
59.01262
57.02255
55.05178
53.13188
51.28862
49.54511
48.24559
47.22397
46.11694
45.00632
43.94573
42.97005
42.09654
41.32964
40.66673
40.10459
39.63963
39.25205
38.9377
38.69721
38.53818
38.47117
38.50714
38.65589
38.90646
36.42008
36.79181
37.32569
38.00637
38.78966
39.59606
40.32191
40.85003
41.07024
40.90966
40.34835
39.39539
38.12662
36.66187
35.12577
33.52943
31.88367
30.26853
28.75933
27.41194
26.23734
25.25803
24.48704
23.91169
23.50311
23.22666
23.05277
22.95467
22.90612
22.88444
22.87151
22.85488
22.82847
22.79203
22.7489
22.70336
22.65946
22.62265
22.6038
22.62176
22.69923
22.85647
23.12216
23.52287
24.05995
24.75189
25.64222
26.76338
28.02965
29.3623
30.74556
32.11434
33.37995
34.44976
35.23553
35.67491
35.74291
35.45192
34.84462
33.98142
32.92719
31.74373
30.48672
29.20645
27.94953
26.7497
25.59585
24.49423
23.45843
22.49759
21.61738
20.82085
20.10886
19.48047
18.93331
18.46387
18.06774
17.73957
17.4731
17.26127
17.09639
16.97048
16.87597
16.80628
16.75642
16.72337
16.70621
16.70596
16.72623
16.7766
16.88129
17.05331
17.30239
17.63793
18.06605
18.5896
19.20891
19.92797
20.75314
21.73959
22.95402
24.55577
26.76201
29.6058
32.81776
36.46032
40.77667
45.61928
50.73097
55.71651
60.09012
63.4535
65.44697
66.00225
65.21682
63.10523
59.82429
55.73449
51.25559
46.74798
42.47389
38.60001
35.195
32.25131
29.73015
27.58905
25.78203
24.26008
22.97421
21.87864
20.93655
20.11761
19.3975
18.7575
18.18376
17.66665
17.19997
16.78024
16.40555
16.07464
15.78644
15.5399
15.32547
15.13325
14.95698
14.79323
14.63733
14.48542
14.75951
14.88744
14.89518
14.85779
14.80007
14.73268
14.66102
14.58845
14.51719
14.4484
14.38242
14.31958
14.26015
14.20418
14.1516
14.1022
14.05575
14.0121
13.97112
13.93267
13.89653
13.86236
13.83002
13.79959
13.77112
13.7442
13.71796
13.69187
13.66567
13.63924
13.61239
13.58461
13.55438
13.51856
13.47232
13.41153
13.34221
13.26946
13.19351
13.11527
13.03565
12.9554
12.87512
12.79528
12.71624
12.63828
12.56163
12.48642
12.4128
12.34084
12.27063
12.2022
12.13559
12.07084
12.00794
11.9469
11.88772
11.83037
11.77482
11.72105
11.669
11.61862
11.56985
11.52262
11.47686
11.4325
11.38949
11.34782
11.30766
11.2707
10.18954
10.13065
10.08321
10.04129
10.00176
9.963421
9.925761
9.888436
9.851238
9.8141
9.777026
9.740067
9.70329
9.666758
9.630519
9.594612
9.55906
9.523875
9.48906
9.454608
9.42051
9.38675
9.353313
9.320179
9.28733
9.254745
9.222406
9.190291
9.158382
9.126657
9.095096
9.06368
9.03239
9.001207
8.970114
8.939097
8.908143
8.877247
8.846411
8.815647
8.78499
8.754505
8.724307
8.694545
8.665323
8.636576
8.607978
8.579358
8.550792
8.522336
8.494014
8.465889
8.438087
8.411381
8.385755
8.35833
8.329907
8.301382
8.272996
8.244662
8.216253
8.187696
8.158963
8.130059
8.101031
8.071954
8.042917
8.014017
7.985356
7.957033
7.929142
7.901772
7.874998
7.848889
7.823501
7.798882
7.775068
7.752089
7.729964
7.708707
7.688325
7.668819
7.650186
7.63242
7.61551
7.599444
7.584207
7.569782
7.556153
7.543301
7.531208
7.519855
7.509226
7.499302
7.490066
7.481502
7.473596
7.466333
7.459701
7.453685
7.448275
7.443457
7.43922
7.435551
7.432436
7.429861
7.42781
7.426267
7.425213
7.424627
7.424485
7.424761
7.425424
7.42644
7.427772
7.429375
7.431203
7.433199
7.435303
7.437444
7.439549
7.441526
7.443288
7.444715
7.445702
7.44609
7.445749
7.444447
7.442002
7.438056
7.43231
7.424115
7.412817
7.397111
7.375689
7.347162
7.3125
7.278583
7.248481
594.4908
522.0448
463.2071
420.1265
387.477
362.2849
342.5505
327.2239
315.4575
299.3256
180.0576
167.9338
157.7975
149.167
141.5252
134.9292
129.6956
126.1363
115.0782
78.36201
76.77938
76.24398
75.78643
75.3433
74.87659
74.33762
73.72832
72.97239
71.05739
67.88156
66.33757
65.48428
64.81921
64.18406
63.54244
62.88611
62.21865
61.53789
61.73955
60.94134
59.80616
58.61099
57.46502
56.39778
55.40809
54.48469
53.61699
52.80195
52.00673
51.20748
50.39878
49.58613
48.78149
47.99662
47.2406
46.52883
43.12504
42.52557
41.96606
41.43485
40.92001
40.41197
39.90389
39.38944
38.86305
38.31861
37.75213
37.16272
36.54804
35.90889
35.24945
34.57721
33.90287
33.24001
32.6044
32.01365
31.48287
31.02389
30.64308
30.34102
30.11295
29.94901
29.83525
29.75592
29.69385
29.63173
29.55746
29.46803
29.3687
29.27184
29.19239
29.14644
29.14106
29.20163
29.45539
29.80486
30.22679
30.71548
31.25663
31.81819
32.35092
32.7903
33.06837
33.12629
32.92261
32.44285
31.70451
30.74954
29.63681
28.44644
27.25791
26.08617
24.98292
23.99413
23.15279
22.47334
21.9621
21.61272
21.40307
21.30254
21.28232
21.3149
21.37439
21.43628
21.48047
21.49402
21.47244
21.41978
21.34496
21.25498
21.15193
21.03653
20.91383
20.79765
20.71175
20.68098
20.71386
20.81338
20.97654
21.20593
21.51528
21.92538
22.44221
23.04906
23.73335
24.47284
25.22037
25.91556
26.4956
26.90589
27.10991
27.0936
26.86405
26.44423
25.86629
25.16598
24.37881
23.53792
22.67345
21.81402
20.99047
20.20339
19.45678
18.75891
18.11622
17.53358
17.01421
16.55975
16.1703
15.84457
15.57996
15.37246
15.21649
15.10494
15.02959
14.98184
14.95311
14.93564
14.92374
14.9142
14.90585
14.89812
14.89054
14.88483
14.88975
14.92458
14.99894
15.12025
15.29372
15.52235
15.80761
16.14957
16.54892
17.01594
17.57681
18.28269
19.20848
20.39974
21.85874
23.65728
25.90033
28.62189
31.77971
35.18874
38.58391
41.76177
44.55384
46.84224
48.58673
49.70146
50.12449
49.86085
48.96088
47.48964
45.57018
43.33675
40.91853
38.41552
35.90545
33.45688
31.12256
28.95484
26.9888
25.23998
23.69712
22.34661
21.17053
20.14809
19.25809
18.48108
17.8005
17.20291
16.67738
16.21515
15.81006
15.45761
15.15109
14.87556
14.62046
14.37962
14.14723
13.92204
13.71124
13.49667
13.2884
13.08736
12.8943
12.70951
12.5331
12.36507
12.20503
12.05251
11.90711
11.76856
11.63658
11.51087
11.3911
11.27687
11.16769
11.06313
10.96274
10.86614
10.77299
10.68294
10.59567
10.51089
10.42829
10.34759
10.26854
10.19091
10.11447
10.03902
9.964276
9.889897
9.815429
9.740409
9.664615
9.588571
9.513249
9.438792
9.364996
9.291765
9.219072
9.146953
9.07548
9.004748
8.934871
8.865986
8.798208
8.731659
8.666453
8.602696
8.540484
8.479901
8.421017
8.363888
8.308559
8.255059
8.203402
8.153589
8.105611
8.059443
8.015049
7.972386
7.931394
7.892017
7.85418
7.817824
7.78287
7.749276
7.716808
7.683424
7.670923
7.655998
7.638587
7.619233
7.598782
7.577752
7.556314
7.534493
7.512299
7.48976
7.466913
7.443792
7.420429
7.39686
7.37312
7.349248
7.32528
7.301254
7.277204
7.253163
7.229162
7.205229
7.181386
7.157654
7.13405
7.110585
7.087267
7.064099
7.041082
7.018212
6.99548
6.972876
6.950388
6.928001
6.905699
6.883464
6.861283
6.839142
6.817031
6.794946
6.772892
6.750883
6.728946
6.707102
6.685355
6.66366
6.641915
6.620028
6.598004
6.575862
6.553642
6.531339
6.508978
6.486448
6.463874
6.441251
6.41868
6.396153
6.373565
6.350848
6.328008
6.305083
6.282111
6.259124
6.236149
6.213218
6.190359
6.167602
6.144979
6.122522
6.100261
6.078228
6.056456
6.034974
6.013811
5.992994
5.972549
5.952499
5.932865
5.913664
5.894913
5.876625
5.85881
5.841478
5.824633
5.80828
5.792421
5.777056
5.762185
5.747806
5.733915
5.720508
5.707583
5.695133
5.683155
5.671645
5.660599
5.650013
5.639883
5.630206
5.620978
5.612197
5.603858
5.595957
5.58849
5.581453
5.574839
5.568642
5.562854
5.557467
5.55247
5.547851
5.543597
5.53969
5.536112
5.532841
5.52985
5.527113
5.524591
5.522251
5.520043
5.517924
5.515828
5.513701
5.511453
5.50902
5.50627
5.503127
5.499384
5.494948
5.489473
5.482834
5.474451
5.464225
5.451394
5.436373
5.418636
5.400236
5.382197
351.467
252.6345
364.0055
161.8971
125.9681
92.36535
79.52229
68.95797
60.30798
56.22418
54.5859
53.73096
52.88871
52.09074
51.31972
50.61881
49.96762
49.35029
48.75436
48.22465
47.82745
47.58925
47.59503
47.76617
48.01274
48.31545
48.65652
49.01636
49.36641
49.65929
49.8085
48.66054
49.2805
49.94294
50.511
51.03718
51.41081
51.6679
51.80936
51.86144
51.83157
51.68871
51.46514
51.18163
50.84235
50.45041
50.00872
49.52007
48.98792
48.4135
47.82163
47.22193
46.61088
45.99228
45.37134
44.75272
44.13996
43.53577
42.94251
42.36133
41.79171
41.2335
40.68687
40.15292
39.63332
39.12896
38.64036
38.15859
37.73789
37.32309
36.91548
36.51372
36.11478
35.71504
35.31052
34.897
34.46987
34.02535
33.56149
33.07609
32.56939
32.04378
31.5046
30.95988
30.42071
29.90105
29.41717
28.98609
28.62354
28.34397
28.15726
28.0652
28.06094
28.12919
28.24603
28.38251
28.50733
28.58877
28.60445
28.54791
28.42621
28.25812
28.07048
27.89365
27.76245
27.69116
27.69271
27.76707
27.91179
28.12303
28.38979
28.69127
28.99574
29.26154
29.44029
29.48466
29.35658
29.03384
28.51319
27.81109
26.96216
26.01643
25.037
24.08535
23.19919
22.42313
21.7906
21.31798
21.00766
20.8489
20.81912
20.88721
21.0208
21.18913
21.36251
21.51379
21.6209
21.67047
21.66263
21.60896
21.52482
21.41889
21.28834
21.12625
20.93147
20.7145
20.49969
20.31396
20.1692
20.06844
20.00702
19.98311
20.00426
20.08543
20.23955
20.47118
20.77775
21.14733
21.55591
21.96634
22.33536
22.62075
22.78854
22.81799
22.70296
22.45015
22.07541
21.6
21.04736
20.44099
19.80317
19.15475
18.51575
17.90569
17.3277
16.78945
16.29768
15.85791
15.47435
15.14971
14.88508
14.67999
14.53271
14.43987
14.39554
14.39123
14.41671
14.46111
14.51403
14.56687
14.61358
14.65156
14.68029
14.69785
14.69914
14.67949
14.64233
14.60614
14.58578
14.59043
14.62618
14.69589
14.79983
14.93668
15.104
15.30142
15.53612
15.82719
16.20591
16.70715
17.36351
18.22441
19.35224
20.79388
22.56848
24.63771
26.90846
29.25834
31.55792
33.68729
35.57243
37.1802
38.47526
39.42932
40.02602
40.24208
40.0897
39.60222
38.82893
37.83272
36.67538
35.40353
34.04486
32.61369
31.11806
29.57614
28.01855
26.48729
25.02639
23.67037
22.43871
21.33688
20.36075
19.50102
18.74566
18.08052
17.49174
16.96751
16.50202
16.08618
15.70332
15.34308
14.99865
14.6673
14.34838
14.03842
13.7376
13.44719
13.16835
12.90186
12.64832
12.40804
12.18068
11.96575
11.76276
11.57122
11.39053
11.22003
11.05908
10.90695
10.76289
10.62612
10.49595
10.37174
10.25289
10.13889
10.02918
9.923282
9.820765
9.721231
9.624304
9.529652
9.436972
9.345974
9.256386
9.167947
9.080392
8.993537
8.90736
8.822093
8.738136
8.655635
8.5745
8.494585
8.41576
8.337961
8.261168
8.185389
8.11067
8.037078
7.964672
7.893524
7.823727
7.755373
7.688544
7.623323
7.559787
7.498007
7.438043
7.379943
7.323745
7.26947
7.217127
7.166712
7.118206
7.071573
7.026781
6.983766
6.942478
6.902819
6.864765
6.828152
6.793048
6.758999
6.727045
6.696643
6.667569
6.63964
6.612659
6.586437
6.560812
6.53566
6.510886
6.486424
6.462226
6.438251
6.414468
6.390853
6.367389
6.344068
6.320886
6.297844
6.274948
6.252206
6.229629
6.207229
6.185016
6.163
6.141191
6.119595
6.098215
6.077053
6.056105
6.035366
6.014828
5.994478
5.974302
5.954283
5.934403
5.914643
5.894983
5.875404
5.85589
5.836426
5.817001
5.797606
5.778233
5.758875
5.739513
5.720117
5.700631
5.681
5.661206
5.641256
5.621159
5.600917
5.580519
5.559979
5.539365
5.518636
5.497753
5.476725
5.455575
5.434328
5.413008
5.391639
5.370248
5.348857
5.327486
5.306155
5.284885
5.263698
5.242614
5.221653
5.200836
5.180184
5.159716
5.139451
5.119409
5.099607
5.080061
5.060787
5.041801
5.023114
5.004738
4.986684
4.96896
4.951575
4.934533
4.917839
4.901497
4.88551
4.869878
4.854603
4.839685
4.825124
4.810919
4.797071
4.783579
4.770443
4.757663
4.74524
4.733175
4.721467
4.710118
4.699128
4.688497
4.678226
4.668314
4.65876
4.649563
4.640722
4.632235
4.624097
4.616305
4.608853
4.601735
4.594942
4.588463
4.582288
4.576399
4.570781
4.565412
4.560269
4.555321
4.550539
4.545882
4.54131
4.536767
4.532201
4.527534
4.522699
4.517579
4.512085
4.506048
4.499349
4.491766
4.483193
4.473415
4.462466
4.450273
4.4373
4.424344
321.7425
215.4026
161.7776
145.1569
117.3469
98.18533
83.86836
78.03269
71.63054
67.73938
64.35011
60.01592
55.74815
51.78128
48.19242
44.34469
38.69098
37.35114
36.36273
35.7972
35.59196
35.61985
35.74593
35.92088
36.1376
36.39308
36.68926
37.04471
37.46779
37.93662
38.44301
38.98593
39.56497
40.17821
40.82289
41.50001
42.21155
42.96445
43.76799
44.62326
45.52983
46.41311
47.07024
47.78061
48.47662
49.00366
49.413
49.69003
49.84532
49.88229
49.81681
49.66595
49.42543
49.09321
48.68315
48.20469
47.67043
47.08923
46.47666
45.84718
45.21871
44.6035
44.01164
43.44316
42.89512
42.36426
41.84766
41.34265
40.84726
40.36063
39.88215
39.41017
38.94306
38.48077
38.02491
37.57825
37.14245
36.71921
36.30661
35.90639
35.51777
35.13829
34.76439
34.39219
34.0172
33.63369
33.23836
32.82817
32.40012
31.95226
31.48544
31.00079
30.49969
29.9892
29.48092
28.98959
28.53355
28.13449
27.81533
27.59929
27.50761
27.55083
27.72418
28.00988
28.37773
28.78461
29.18023
29.51114
29.72687
29.79379
29.70528
29.48331
29.16636
28.79827
28.43299
28.10943
27.83909
27.62925
27.48252
27.40023
27.38224
27.42362
27.51101
27.62094
27.7216
27.77477
27.74171
27.59008
27.29791
26.85643
26.27226
25.56788
24.77991
23.95697
23.15834
22.43495
21.82907
21.3733
21.08597
20.96706
20.99931
21.1513
21.38398
21.66038
21.94743
22.2135
22.43155
22.58177
22.65465
22.65712
22.6101
22.53537
22.43887
22.30625
22.11849
21.86589
21.55585
21.21543
20.88205
20.57651
20.31013
20.08192
19.88492
19.71887
19.59443
19.5264
19.52575
19.59563
19.7291
19.9087
20.10952
20.30109
20.4524
20.53585
20.53126
20.4286
20.22765
19.93604
19.56681
19.13588
18.6602
18.1565
17.64079
17.12838
16.63506
16.17263
15.74758
15.36721
15.03759
14.76364
14.54872
14.39438
14.30085
14.26721
14.29017
14.3632
14.47576
14.61428
14.76465
14.91427
15.053
15.17468
15.27819
15.36441
15.42863
15.4567
15.43338
15.35769
15.25342
15.14484
15.04635
14.96698
14.91107
14.87993
14.87202
14.88375
14.91143
14.95524
15.02207
15.12777
15.29472
15.54824
15.91965
16.44741
17.16838
18.10956
19.27804
20.65268
22.18396
23.80451
25.42532
26.97835
28.43212
29.74965
30.89474
31.8435
32.57717
33.07943
33.3466
33.38677
33.22357
32.89798
32.4583
31.94204
31.37138
30.75308
30.0813
29.34317
28.52708
27.63233
26.67039
25.66316
24.63867
23.62622
22.65217
21.73562
20.88596
20.10295
19.38005
18.70731
18.08986
17.52149
16.99003
16.48691
16.00685
15.54662
15.10386
14.67866
14.27183
13.88411
13.51614
13.16861
12.8418
12.53529
12.24828
11.98005
11.72992
11.49681
11.27945
11.07666
10.88728
10.71011
10.54398
10.38779
10.24051
10.10118
9.968904
9.842867
9.722326
9.606603
9.495107
9.387289
9.282662
9.180792
9.081293
8.98382
8.888074
8.793806
8.700846
8.609123
8.518688
8.429695
8.342206
8.256124
8.171339
8.087749
8.005277
7.923873
7.843513
7.7642
7.685956
7.608822
7.532853
7.458117
7.384699
7.312691
7.242188
7.173271
7.106026
7.040535
6.976871
6.915097
6.855265
6.797412
6.741559
6.687706
6.635858
6.585995
6.538066
6.492027
6.447807
6.40535
6.364549
6.325342
6.287573
6.251198
6.216144
6.182333
6.149663
6.118034
6.087354
6.057537
6.028493
6.000136
5.972392
5.945196
5.918491
5.892229
5.86637
5.840883
5.815742
5.79093
5.766434
5.742247
5.718367
5.694793
5.671528
5.648574
5.625935
5.603613
5.58161
5.559924
5.538552
5.517488
5.496725
5.476248
5.456046
5.436099
5.416389
5.396894
5.377592
5.358458
5.339469
5.320602
5.301834
5.283143
5.264509
5.24591
5.227326
5.20873
5.190089
5.171364
5.152517
5.133525
5.114382
5.095086
5.075634
5.05603
5.036279
5.016399
4.996359
4.976136
4.955747
4.935218
4.914576
4.89384
4.873032
4.852171
4.831276
4.81037
4.789472
4.768603
4.747783
4.727033
4.706373
4.685822
4.665398
4.645121
4.625006
4.605071
4.585331
4.565801
4.546494
4.527423
4.508599
4.490031
4.471728
4.453699
4.435948
4.418482
4.401303
4.384416
4.367822
4.351522
4.335519
4.319812
4.304402
4.28929
4.274477
4.259964
4.245752
4.231843
4.218238
4.204941
4.191953
4.179276
4.166911
4.154862
4.143129
4.131714
4.120618
4.109841
4.099385
4.089248
4.07943
4.069929
4.060743
4.051868
4.043301
4.035035
4.027062
4.019374
4.011958
4.004801
3.997886
3.991194
3.984702
3.978382
3.972204
3.966131
3.960121
3.954124
3.948086
3.941935
3.935601
3.928991
3.922021
3.914582
3.906601
3.897987
3.88872
3.878789
3.86832
3.857997
160.8064
119.7176
183.6673
91.78751
78.78706
67.8548
64.44583
61.94437
59.18191
57.96168
56.41543
54.19468
52.05418
49.77531
47.12155
42.23547
40.94337
39.7266
38.56742
37.47387
36.4088
35.41735
34.55298
33.84077
33.29394
32.90539
32.59149
32.27854
32.13207
32.16711
32.36385
32.67196
33.03814
33.43823
33.8641
34.31625
34.81398
35.34296
35.89766
36.47558
37.0768
37.70143
38.35024
39.0248
39.72909
40.46859
41.24441
42.06787
42.94173
43.84249
44.73478
45.58215
46.22266
46.79646
47.21664
47.48789
47.62575
47.62982
47.51142
47.28224
46.95744
46.55121
46.07549
45.53936
44.95673
44.3421
43.71462
43.10272
42.52796
41.99782
41.52387
41.09728
40.709
40.35134
40.01364
39.68687
39.36406
39.03979
38.71053
38.37588
38.03611
37.68982
37.33508
36.97207
36.6039
36.23531
35.87029
35.51134
35.15922
34.8137
34.4739
34.13815
33.80409
33.46788
33.12651
32.77817
32.41762
32.03973
31.64058
31.21823
30.77333
30.30981
29.83638
29.36302
28.90492
28.48334
28.12477
27.86023
27.72447
27.75324
27.97028
28.37533
28.94484
29.63829
30.39812
31.15058
31.81859
32.32543
32.60596
32.62925
32.40926
31.99329
31.44022
30.81206
30.18232
29.58944
29.05268
28.58284
28.18447
27.85867
27.60583
27.42535
27.31004
27.24151
27.19085
27.12279
27.00163
26.79693
26.488
26.06631
25.53629
24.91578
24.23524
23.53645
22.87161
22.29983
21.86674
21.60608
21.53207
21.63415
21.87851
22.21633
22.5974
22.984
23.34729
23.65993
23.90125
24.05906
24.13285
24.1401
24.11202
24.07545
24.02677
23.93049
23.74955
23.46008
23.0621
22.58837
22.09599
21.62301
21.19495
20.82008
20.48571
20.17498
19.88875
19.64487
19.46142
19.34727
19.2999
19.30567
19.34388
19.39016
19.41954
19.40958
19.34307
19.21002
19.00808
18.74127
18.41799
18.04948
17.64833
17.22745
16.79956
16.37718
15.97312
15.60066
15.26836
14.9836
14.75296
14.58184
14.47397
14.4319
14.45793
14.55283
14.71359
14.93034
15.18637
15.46171
15.73767
15.99963
16.23745
16.44615
16.628
16.78679
16.91256
16.97486
16.9412
16.80709
16.60936
16.3914
16.17751
15.98003
15.80334
15.64872
15.51524
15.39885
15.29416
15.19833
15.11385
15.04945
15.01939
15.04019
15.13055
15.31457
15.61835
16.06455
16.66747
17.43018
18.34066
19.36682
20.46941
21.60007
22.71942
23.79636
24.80293
25.71729
26.51933
27.18828
27.70578
28.06668
28.27302
28.33629
28.28051
28.13634
27.93492
27.70427
27.46274
27.21404
26.9506
26.65632
26.31408
25.91123
25.44104
24.90386
24.3077
23.66645
22.99469
22.30472
21.60504
20.89906
20.18572
19.48213
18.8004
18.14331
17.51112
16.90347
16.32003
15.76143
15.22877
14.72296
14.24468
13.79446
13.37266
12.97937
12.61424
12.27595
11.9631
11.67412
11.40733
11.16113
10.93397
10.72409
10.52967
10.3491
10.18089
10.02364
9.876115
9.737147
9.605697
9.480825
9.361686
9.247523
9.137657
9.031489
8.928486
8.828185
8.730188
8.634169
8.539882
8.447161
8.355921
8.266146
8.177804
8.090783
8.004955
7.920215
7.836473
7.753662
7.671734
7.590663
7.510444
7.431094
7.35265
7.275169
7.198725
7.123401
7.049308
6.976542
6.905211
6.835421
6.767274
6.700865
6.636282
6.573597
6.512864
6.454133
6.397436
6.342773
6.290131
6.239485
6.190792
6.143999
6.099032
6.055811
6.014242
5.974231
5.935674
5.898456
5.862469
5.827625
5.793847
5.761054
5.729166
5.6981
5.667781
5.63814
5.60912
5.580667
5.552739
5.525298
5.498315
5.471767
5.445637
5.419913
5.394589
5.369661
5.345127
5.320988
5.297246
5.273901
5.250952
5.228399
5.206237
5.184461
5.16306
5.142023
5.121335
5.100978
5.080931
5.061172
5.041676
5.022416
5.003366
4.984498
4.965785
4.947197
4.928707
4.910287
4.891908
4.873537
4.855141
4.836686
4.818137
4.799472
4.780673
4.761732
4.742643
4.7234
4.704
4.684443
4.664718
4.64482
4.624759
4.60455
4.584209
4.563752
4.543195
4.522558
4.501858
4.481117
4.460354
4.439589
4.418843
4.398134
4.377485
4.356912
4.336436
4.316075
4.295847
4.275767
4.255853
4.236119
4.216579
4.197244
4.178128
4.159239
4.140586
4.122177
4.104019
4.086115
4.068471
4.051089
4.033971
4.017119
4.000534
3.984216
3.968167
3.952387
3.936878
3.921642
3.90668
3.891996
3.87759
3.863467
3.849628
3.836077
3.822815
3.809845
3.797169
3.78479
3.772707
3.760923
3.749439
3.738255
3.727371
3.716787
3.706501
3.696513
3.686819
3.677415
3.668297
3.659457
3.650889
3.642581
3.634522
3.626696
3.619088
3.611676
3.604437
3.597344
3.590366
3.583466
3.576604
3.56973
3.562795
3.55574
3.548506
3.541031
3.533265
3.525157
3.516683
3.507838
3.498661
3.4898
62.96537
48.63969
49.15599
46.90423
45.88524
44.61486
43.59509
42.69624
41.90727
40.65535
37.71391
37.39271
37.062
36.72847
36.35633
35.93944
35.52051
35.13895
34.81102
34.52464
34.14371
33.52243
32.92778
32.36329
31.84334
31.3739
30.97513
30.65826
30.42672
30.27724
30.19873
30.1798
30.23253
30.38008
30.62621
30.95971
31.35156
31.77299
32.20918
32.65998
33.14102
33.64378
34.16857
34.71854
35.29541
35.90078
36.53598
37.20131
37.89714
38.63204
39.42001
40.24566
41.1146
42.03051
42.86383
43.57365
44.12942
44.52255
44.77441
44.87217
44.82316
44.64002
44.33756
43.93484
43.45121
42.90811
42.32552
41.7237
41.12801
40.55738
40.04993
39.61794
39.26967
39.00629
38.817
38.68289
38.58602
38.51202
38.44647
38.37322
38.28215
38.16499
38.01649
37.83541
37.62466
37.38754
37.12476
36.83611
36.52407
36.19488
35.85636
35.5148
35.17363
34.83385
34.49507
34.15691
33.8193
33.48483
33.15437
32.82461
32.49169
32.15113
31.79807
31.42869
31.04154
30.63819
30.22359
29.80649
29.40135
29.03707
28.74789
28.57045
28.54984
28.73751
29.17818
29.88119
30.81143
31.90445
33.07883
34.23859
35.27383
36.08764
36.5922
36.73429
36.52815
36.04184
35.35263
34.52591
33.62366
32.71301
31.83313
31.00983
30.25802
29.58522
28.99352
28.48373
28.05935
27.72322
27.46583
27.2609
27.07153
26.85973
26.59369
26.25287
25.8297
25.3294
24.76935
24.17834
23.59602
23.07308
22.67405
22.44999
22.42883
22.61058
22.96164
23.42082
23.91693
24.39147
24.81674
25.17947
25.46695
25.67572
25.80742
25.87146
25.89829
25.92716
25.99288
26.07627
26.09852
25.983
25.69052
25.21374
24.59045
23.90961
23.24091
22.62924
22.09934
21.62705
21.16912
20.72454
20.3156
19.96588
19.68939
19.48408
19.33758
19.23195
19.14683
19.06131
18.95642
18.81751
18.63573
18.40833
18.13749
17.82911
17.49164
17.13483
16.76901
16.40462
16.05228
15.72322
15.43002
15.18336
14.99123
14.86122
14.79965
14.81139
14.90089
15.07253
15.32798
15.66092
16.05278
16.47526
16.90001
17.30602
17.68055
18.01652
18.31164
18.57214
18.8062
18.99386
19.07841
19.00496
18.7738
18.448
18.09999
17.76655
17.45819
17.17285
16.90935
16.66828
16.44562
16.23262
16.02266
15.8157
15.61806
15.43998
15.29311
15.19139
15.15138
15.19054
15.32463
15.567
15.92557
16.40056
16.98285
17.65426
18.38987
19.16317
19.94789
20.71862
21.45505
22.1402
22.75618
23.28719
23.72153
24.05162
24.27579
24.39884
24.43538
24.40603
24.33431
24.24161
24.14334
24.0497
23.96247
23.8748
23.77482
23.64817
23.48095
23.26413
22.99331
22.66674
22.28625
21.85536
21.37778
20.85678
20.29359
19.69319
19.0672
18.42885
17.7872
17.15203
16.53043
15.9275
15.34757
14.79399
14.2692
13.77506
13.31333
12.88454
12.48774
12.12151
11.78431
11.4744
11.18992
10.929
10.68953
10.46934
10.26649
10.07916
9.90571
9.744605
9.594453
9.453979
9.32202
9.197519
9.079517
8.967148
8.859633
8.756279
8.656473
8.559687
8.465472
8.373464
8.283377
8.194996
8.108161
8.022744
7.938604
7.855589
7.773543
7.692332
7.611856
7.532039
7.452821
7.374164
7.296053
7.218496
7.141525
7.065194
6.989578
6.914773
6.840887
6.768041
6.69636
6.625973
6.557008
6.489587
6.423824
6.359816
6.297661
6.237423
6.17915
6.122868
6.068587
6.016296
5.965969
5.917561
5.871012
5.826247
5.783181
5.741713
5.701736
5.66315
5.62586
5.589776
5.554807
5.520864
5.487858
5.455707
5.424338
5.393685
5.363689
5.3343
5.305474
5.277176
5.249378
5.222058
5.195199
5.168792
5.14283
5.117309
5.09223
5.067592
5.043396
5.019643
4.996332
4.97346
4.951024
4.929014
4.907422
4.886233
4.865431
4.844997
4.824908
4.805139
4.785664
4.766455
4.747483
4.728715
4.710121
4.691668
4.673324
4.655054
4.636824
4.618598
4.600342
4.582024
4.563616
4.545097
4.526452
4.507667
4.488733
4.469641
4.450386
4.430963
4.41137
4.39161
4.371693
4.351629
4.331433
4.311117
4.2907
4.270197
4.249629
4.229012
4.208368
4.187714
4.167072
4.14646
4.125898
4.105406
4.085003
4.064706
4.044534
4.024503
4.00463
3.984928
3.965412
3.946093
3.926982
3.908089
3.889423
3.870989
3.852795
3.834843
3.817137
3.79968
3.782472
3.765516
3.748812
3.732361
3.716165
3.700224
3.684543
3.669121
3.653963
3.639071
3.624449
3.610097
3.596021
3.582222
3.568702
3.555463
3.542508
3.529838
3.517453
3.505355
3.493544
3.482021
3.470785
3.459837
3.449173
3.438794
3.428696
3.418875
3.409326
3.400043
3.391019
3.382243
3.373705
3.36539
3.357283
3.349367
3.341619
3.334016
3.32653
3.319131
3.311785
3.304454
3.297098
3.289677
3.28215
3.27448
3.266637
3.258594
3.25035
3.24192
3.233932
94.87492
38.82205
33.55747
32.35177
31.63797
31.27591
31.18179
31.23534
31.3919
31.62148
31.78419
31.72872
31.64984
31.54122
31.40653
31.24511
31.07121
30.8925
30.70278
30.48498
30.21531
29.90471
29.6129
29.34984
29.12538
28.94485
28.81692
28.74196
28.71809
28.74211
28.80962
28.92037
29.07905
29.28896
29.55039
29.85557
30.18775
30.53223
30.89331
31.29515
31.73018
32.20033
32.70882
33.25752
33.84781
34.48164
35.16242
35.88394
36.63632
37.43686
38.33005
39.21481
40.05686
40.81741
41.44369
41.91115
42.20759
42.33313
42.27486
42.05087
41.68592
41.2089
40.65306
40.0523
39.4383
38.84532
38.30281
37.84396
37.50212
37.28313
37.19385
37.22706
37.35529
37.55218
37.79533
38.05994
38.32354
38.57133
38.78356
38.94351
39.03923
39.06621
39.02553
38.92349
38.77139
38.57726
38.34244
38.06662
37.75457
37.41628
37.06214
36.69852
36.32726
35.94709
35.55536
35.15298
34.74606