/*--------------------------------*- C++ -*----------------------------------*\
| =========                 |                                                 |
| \\      /  F ield         | foam-extend: Open Source CFD                    |
|  \\    /   O peration     | Version:     3.1                                |
|   \\  /    A nd           | Web:         http://www.extend-project.de       |
|    \\/     M anipulation  |                                                 |
\*---------------------------------------------------------------------------*/
FoamFile
{
    version     2.0;
    format      ascii;
    class       volScalarField;
    location    "10";
    object      p;
}
// * * * * * * * * * * * * * * * * * * * * * * * * * * * * * * * * * * * * * //

dimensions      [1 -1 -2 0 0 0 0];

internalField   nonuniform List<scalar> 
119952
(
7129.887
6584.299
6495.78
6582.702
6658.329
6586.338
6532.184
6491.521
6444.961
6397.172
6348.691
6299.575
6251.811
6203.007
6156.945
6114.785
6076.205
6038.64
5991.422
5882.163
6199.993
6016.952
5922.105
6350.895
6330.881
6389.132
6442.282
6561.155
6771.594
8094.786
5732.08
5695.681
5705.597
5690.311
5660.513
5616.341
5556.857
5484.369
5401.655
5317.513
5183.153
5104.183
5019.716
4954.118
4908.758
4886.477
4888.516
4915.688
4964.608
5074.212
5132.838
5207.155
5312.903
5415.729
5513.022
5603.647
5686.311
5762.143
5829.646
5885.923
5945.991
6000.83
6049.16
6093.345
6132.843
6166.799
6198.465
6246.017
6330.561
6264.403
6252.338
6283.763
6288.187
6263.473
6218.939
6175.924
6130.289
6082.444
6033.965
5985.689
5938.656
5893.739
5852.065
5814.693
5781.619
5752.121
5726.721
5712.521
5731.095
5753.678
5749.184
5869.164
6015.683
6071.357
6111.583
6148.732
6120.778
5985.337
6001.393
6057.167
6113.481
6166.408
6217.156
6263.613
6305.317
6343.214
6378.186
6410.99
6442.234
6471.978
6499.914
6525.917
6549.85
6571.523
6590.961
6607.958
6622.346
6634.044
6642.995
6649.1
6652.381
6652.681
6649.865
6643.763
6634.41
6621.773
6605.915
6586.767
6564.596
6539.833
6513.058
6485.095
6457.018
6430.117
6405.859
6385.862
6371.318
6363.804
6364.4
6373.916
6393.047
6422.031
6460.625
6507.972
6562.686
6623.201
6690.488
6775.063
6860.465
6937.095
7021.561
7100.07
7145.333
7135.12
7138.327
7184.335
7231.088
7281.259
7313.648
7320.77
7323.185
7323.951
7322.922
7326.962
7336.708
7348.538
7360.948
7373.633
7386.096
7397.801
7408.774
7419.439
7430.123
7440.854
7451.579
7462.253
7472.805
7483.153
7493.194
7502.791
7511.84
7520.332
7528.352
7536.053
7543.628
7551.305
7559.326
7567.928
7577.321
7587.675
7599.053
7611.726
7625.459
7640.283
7656.052
7672.613
7689.998
7737.505
7754.118
7772.13
7789.658
7806.817
7823.453
7839.453
7854.735
7869.236
7882.926
7895.742
7907.687
7918.77
7928.946
7938.285
7946.82
7954.573
7961.576
7967.864
7973.478
7978.454
7982.818
7986.621
7989.897
7992.682
7994.999
7996.873
7998.328
7999.383
8000.044
8000.309
8000.155
7999.519
7998.24
7995.842
7992.442
7995.407
7996.951
7997.927
7998.427
7998.632
7998.589
7998.35
7997.94
7997.383
7996.693
7995.884
7994.967
7993.953
7992.852
7991.671
7990.417
7989.098
7987.719
7986.286
7984.804
7983.278
7981.71
7980.105
7978.466
7976.797
7975.097
7973.371
7971.62
7969.847
7968.053
7966.243
7964.442
7962.603
7960.599
7935.1
7929.339
7923.422
7921.518
7919.297
7916.874
7914.643
7912.449
7910.236
7908.031
7905.823
7903.608
7901.384
7899.15
7896.904
7894.646
7892.381
7890.109
7887.832
7885.555
7883.278
7881.004
7878.735
7876.474
7874.222
7871.981
7869.753
7867.538
7865.34
7863.158
7860.995
7858.851
7856.728
7854.628
7852.551
7850.5
7848.476
7846.482
7844.521
7842.599
7840.723
7838.903
7837.16
7835.521
7833.97
7832.259
7830.053
7827.636
7825.39
7823.257
7821.188
7819.202
7817.208
7814.768
7809.919
7809.287
7808.261
7806.249
7804.322
7802.439
7800.571
7798.739
7796.94
7795.169
7793.421
7791.7
7790.001
7788.321
7786.656
7785.003
7783.362
7781.73
7780.105
7778.486
7776.871
7775.261
7773.652
7772.045
7770.438
7768.83
7767.22
7765.606
7763.989
7762.366
7760.736
7759.1
7757.455
7755.8
7754.136
7752.46
7750.772
7749.072
7747.358
7745.63
7743.886
7742.128
7740.353
7738.561
7736.753
7734.927
7733.082
7731.22
7729.338
7727.437
7725.516
7723.575
7721.613
7719.63
7717.626
7715.599
7713.549
7711.475
7709.377
7707.253
7705.102
7702.922
7700.712
7698.468
7696.189
7693.869
7691.506
7689.092
7686.622
7684.087
7681.476
7678.775
7675.966
7673.021
7669.908
7666.583
7662.989
7659.037
7654.599
7649.445
7643.216
7635.62
7628.203
7631.364
7664.806
6492.603
6371.615
6227.484
6087.941
5950.997
5818.621
5692.052
5571.858
5458.253
5328.534
5230.146
5139.082
5056.856
4984.018
4920.849
4867.21
4823.569
4787.321
4736.527
4734.555
4719.538
4722.577
4739.469
4765.562
4800.734
4844.436
4894.615
4951.374
5007.603
5062.595
5125.735
5185.611
5242.334
5294.78
5341.357
5380.545
5412.204
5432.692
5430.113
5418.722
5395.219
5355.69
5301.207
5232.034
5150.24
5059.443
4964.474
4865.743
4771.922
4693.861
4632.306
4592.023
4575.746
4584.543
4617.532
4676.147
4710.674
4807.414
4899.305
4998.475
5104.253
5209.326
5308.49
5399.499
5482.454
5558.655
5627.449
5687.007
5739.799
5788.293
5829.889
5868.167
5899.474
5927.619
5952.454
5970.69
5969.383
5957.471
5948.685
5934.073
5906.27
5866.372
5820.16
5771.182
5721.149
5671.233
5622.511
5576.167
5533.432
5495.535
5463.548
5437.745
5418.342
5406.385
5404.413
5415.251
5441.118
5480.192
5541.077
5612.374
5671.023
5709.955
5730.818
5733.12
5727.548
5744.302
5783.421
5834.455
5887.246
5937.346
5983.325
6025.196
6063.556
6098.936
6131.728
6162.234
6190.555
6216.72
6240.758
6262.609
6282.387
6299.029
6313.646
6325.902
6335.52
6342.373
6346.377
6347.446
6345.428
6340.177
6331.58
6319.575
6304.119
6285.216
6262.982
6237.716
6209.919
6180.301
6149.811
6119.762
6091.623
6066.974
6047.39
6034.31
6028.93
6032.304
6045.18
6068.246
6101.58
6144.808
6196.826
6256.274
6321.97
6392.527
6466.434
6541.929
6613.521
6680.134
6736.905
6779.971
6809.125
6835.961
6875.067
6916.7
6953.408
6984.368
7000.427
7005.396
7011.663
7023.349
7037.853
7049.827
7058.404
7066.383
7075.294
7085.182
7095.513
7105.979
7116.577
7127.269
7138.011
7148.832
7159.664
7170.384
7180.94
7191.177
7200.813
7209.744
7218.033
7225.794
7233.193
7240.436
7247.761
7255.434
7263.725
7272.856
7282.992
7294.229
7306.685
7320.313
7335.055
7350.75
7367.236
7383.953
7461.265
7476.437
7494.499
7512.049
7529.213
7545.86
7561.879
7577.19
7591.729
7605.445
7618.302
7630.285
7641.393
7651.638
7661.039
7669.628
7677.433
7684.485
7690.819
7696.472
7701.485
7705.896
7709.742
7713.058
7715.875
7718.227
7720.133
7721.621
7722.706
7723.4
7723.707
7723.617
7723.117
7722.207
7721.047
7720.27
7720.772
7721.716
7722.308
7722.657
7722.771
7722.673
7722.392
7721.951
7721.366
7720.652
7719.82
7718.883
7717.85
7716.729
7715.53
7714.259
7712.922
7711.526
7710.077
7708.579
7707.037
7705.455
7703.836
7702.184
7700.501
7698.79
7697.053
7695.291
7693.508
7691.705
7689.89
7688.064
7686.287
7685.076
7621.364
7619.962
7617.371
7614.4
7611.775
7609.488
7607.316
7605.135
7602.929
7600.715
7598.502
7596.285
7594.059
7591.82
7589.569
7587.309
7585.04
7582.766
7580.488
7578.209
7575.931
7573.657
7571.388
7569.126
7566.874
7564.633
7562.405
7560.191
7557.994
7555.813
7553.651
7551.509
7549.387
7547.288
7545.213
7543.163
7541.14
7539.146
7537.184
7535.256
7533.368
7531.52
7529.71
7527.919
7526.102
7524.194
7522.133
7519.968
7517.811
7515.712
7513.66
7511.643
7509.629
7507.524
7505.054
7502.641
7500.686
7498.938
7497.139
7495.262
7493.373
7491.514
7489.694
7487.903
7486.141
7484.403
7482.688
7480.992
7479.314
7477.649
7475.996
7474.354
7472.72
7471.093
7469.471
7467.854
7466.239
7464.627
7463.015
7461.402
7459.788
7458.172
7456.551
7454.926
7453.294
7451.656
7450.01
7448.355
7446.69
7445.014
7443.327
7441.627
7439.914
7438.188
7436.446
7434.689
7432.917
7431.128
7429.322
7427.498
7425.657
7423.798
7421.919
7420.022
7418.105
7416.167
7414.209
7412.23
7410.23
7408.207
7406.162
7404.093
7402
7399.881
7397.736
7395.562
7393.359
7391.122
7388.851
7386.541
7384.188
7381.787
7379.332
7376.814
7374.225
7371.549
7368.777
7365.878
7362.838
7359.612
7356.183
7352.482
7348.526
7344.322
7340.233
7336.883
7335.512
7336.519
7340.51
3382.407
3420.237
3476.741
3545.74
3629.001
3725.167
3833.864
3954.805
4087.451
4230.608
4366.276
4528.73
4699.085
4877.006
5061.334
5250.732
5442.979
5633.973
5826.026
6003.237
6182.706
6351.267
6506.299
6644.974
6763.916
6860.709
6933.4
6980.244
7007.65
7004.05
6975.143
6924.605
6854.149
6766.125
6663.165
6547.985
6423.301
6292.498
6146.2
6008.411
5867.218
5727.566
5591.162
5459.569
5334.191
5216.113
5106.477
5004.9
4908.886
4823.229
4745.524
4676.362
4616.395
4565.696
4524.937
4498.445
4397.347
4387.01
4388.579
4400.31
4421.611
4452.471
4492.494
4540.407
4594.752
4653.972
4717.113
4781.152
4844.476
4905.857
4964.095
5017.334
5063.672
5101.173
5127.697
5141.145
5139.655
5122.567
5088.988
5038.627
4971.922
4890.225
4795.757
4692.225
4584.439
4478.073
4379.546
4295.978
4233.297
4195.033
4183.526
4199.934
4243.158
4309.345
4399.173
4498.07
4599.924
4708.13
4822.225
4936.903
5046.813
5148.964
5242.694
5327.586
5403.292
5469.986
5528.179
5578.42
5620.569
5655.076
5688.737
5707.665
5722.478
5731.316
5729.028
5712.903
5692.067
5667.016
5632.966
5588.814
5538.308
5485.518
5432.816
5381.43
5332.222
5286.349
5245.139
5209.6
5181.402
5161.087
5147.784
5140.682
5140.571
5149.932
5170.964
5202.568
5247.532
5303.091
5356.411
5399.195
5431.917
5458.151
5479.832
5506.689
5546.914
5597.734
5651.646
5703.588
5751.805
5796.089
5836.694
5873.825
5907.653
5938.436
5966.422
5991.787
6014.646
6035.054
6053.111
6068.76
6082.031
6092.776
6100.849
6106.182
6108.649
6108.108
6104.378
6097.274
6086.658
6072.471
6054.655
6033.167
6008.109
5979.827
5948.879
5916.101
5882.564
5849.667
5818.996
5792.22
5770.997
5756.821
5750.932
5754.32
5767.79
5792.111
5827.591
5873.791
5929.199
5991.816
6059.301
6129.531
6200.874
6271.552
6338.421
6399.917
6454.728
6499.712
6533.793
6565.342
6602.077
6641.218
6678.23
6707.661
6729.394
6750.085
6767.799
6778.245
6785.795
6796.294
6808.877
6821.895
6835.198
6847.237
6857.701
6867.47
6877.032
6886.68
6896.695
6907.07
6917.701
6928.352
6938.838
6948.965
6958.49
6967.317
6975.447
6982.978
6990.073
6996.931
7003.799
7010.971
7018.772
7027.442
7037.121
7047.93
7060.018
7073.342
7087.874
7103.454
7119.967
7137.249
7155.477
7173.364
7190.894
7208.288
7225.393
7241.98
7257.916
7273.125
7287.545
7301.128
7313.846
7325.69
7336.655
7346.752
7356.008
7364.453
7372.116
7379.027
7385.225
7390.749
7395.639
7399.935
7403.674
7406.892
7409.621
7411.892
7413.732
7415.164
7416.211
7416.891
7417.225
7417.237
7416.973
7416.526
7416.063
7415.813
7415.921
7416.245
7416.523
7416.639
7416.577
7416.349
7415.971
7415.452
7414.802
7414.031
7413.151
7412.169
7411.096
7409.938
7408.704
7407.4
7406.033
7404.608
7403.131
7401.607
7400.04
7398.435
7396.794
7395.121
7393.418
7391.689
7389.933
7388.154
7386.351
7384.529
7382.679
7380.814
7378.898
7377.025
7374.93
7372.443
7370.034
7367.855
7365.803
7363.765
7361.692
7359.571
7357.411
7355.229
7353.034
7350.826
7348.604
7346.368
7344.118
7341.858
7339.589
7337.314
7335.034
7332.753
7330.472
7328.194
7325.922
7323.656
7321.4
7319.155
7316.923
7314.705
7312.502
7310.317
7308.15
7306.002
7303.876
7301.771
7299.689
7297.632
7295.6
7293.595
7291.618
7289.672
7287.754
7285.863
7283.989
7282.118
7280.228
7278.291
7276.278
7274.19
7272.081
7269.996
7267.946
7265.909
7263.869
7261.809
7259.909
7257.987
7255.974
7253.922
7251.886
7249.889
7247.938
7246.033
7244.175
7242.356
7240.569
7238.81
7237.075
7235.362
7233.668
7231.989
7230.324
7228.67
7227.025
7225.389
7223.758
7222.133
7220.512
7218.893
7217.276
7215.659
7214.041
7212.421
7210.798
7209.171
7207.538
7205.899
7204.253
7202.599
7200.935
7199.261
7197.576
7195.879
7194.17
7192.447
7190.71
7188.958
7187.191
7185.408
7183.608
7181.791
7179.957
7178.104
7176.234
7174.344
7172.435
7170.506
7168.557
7166.587
7164.596
7162.583
7160.549
7158.491
7156.41
7154.304
7152.172
7150.013
7147.826
7145.608
7143.357
7141.07
7138.744
7136.374
7133.955
7131.48
7128.944
7126.334
7123.641
7120.852
7117.951
7114.925
7111.767
7108.488
7105.138
7101.846
7098.827
7096.39
7094.832
7094.641
7095.986
3209.233
3180.86
3152.588
3114.367
3091.002
3048.415
3048.763
3066.882
3097.996
3106.193
3094.077
3095.305
3115.71
3152.248
3204.039
3269.078
3347.209
3437.554
3539.646
3653.568
3778.935
3914.582
4060.507
4216.469
4381.574
4554.663
4733.896
4918.162
5105.684
5294.019
5481.738
5642.875
5826.084
5992.062
6143.409
6279.332
6393.766
6485.941
6554.197
6598.196
6618.278
6612.116
6580.128
6525.241
6450.393
6358.281
6251.702
6133.379
6006.531
5874.213
5737.482
5598.926
5460.651
5324.643
5192.586
5065.871
4945.603
4832.581
4727.31
4629.897
4540.101
4458.121
4384.261
4318.738
4261.716
4213.419
4173.878
4143.675
4122.407
4113.192
4114.815
4126.627
4149.293
4182.734
4226.029
4277.912
4336.905
4401.72
4471.151
4539.411
4608.582
4676.179
4740.072
4798.153
4848.29
4888.419
4916.575
4930.736
4928.231
4907.586
4868.184
4810.003
4733.391
4639.705
4531.25
4412.198
4288.377
4166.303
4053.267
3957.439
3886.942
3844.386
3831.801
3848.611
3893.713
3963.68
4055.144
4160.475
4274.479
4395.18
4520.369
4646.05
4768.03
4883.15
4989.616
5086.498
5173.301
5249.572
5315.095
5370.217
5415.103
5449.947
5474.052
5496.564
5507.188
5508.742
5499.39
5478.082
5448.699
5412.741
5368.968
5317.438
5260.719
5202.349
5145.129
5090.451
5039.286
4992.588
4952.035
4919.332
4895.546
4881.016
4873.584
4869.971
4869.836
4875.09
4888.533
4911.502
4946.2
4991.388
5040.821
5088.746
5133.436
5175.107
5213.92
5254.62
5301.972
5355.363
5410.855
5464.879
5515.653
5562.703
5606.013
5645.501
5681.191
5713.277
5742.019
5767.654
5790.388
5810.392
5827.793
5842.603
5854.793
5864.291
5871.001
5874.914
5875.904
5873.813
5868.396
5859.395
5846.695
5830.179
5809.767
5785.404
5757.2
5725.51
5690.916
5654.251
5616.704
5579.835
5545.362
5515.088
5490.881
5474.416
5466.968
5469.215
5481.882
5506.228
5543.15
5592.125
5651.155
5717.341
5787.632
5859.434
5930.664
5999.608
6064.298
6123.291
6175.555
6220.174
6257.929
6293.374
6330.197
6366.93
6400.858
6430.91
6457.673
6480.851
6499.103
6512.952
6527.693
6545.243
6561.939
6576.226
6589.499
6601.967
6613.5
6624.381
6634.566
6644.655
6655.163
6666.142
6677.178
6687.857
6698.023
6707.682
6716.82
6725.355
6733.241
6740.513
6747.295
6753.773
6760.195
6766.882
6774.167
6782.33
6791.591
6802.105
6813.972
6827.129
6841.586
6857.212
6873.831
6891.204
6908.993
6926.683
6944.341
6961.892
6979.093
6995.741
7011.728
7026.992
7041.473
7055.106
7067.87
7079.776
7090.812
7100.971
7110.283
7118.786
7126.5
7133.452
7139.684
7145.24
7150.162
7154.489
7158.259
7161.509
7164.273
7166.582
7168.464
7169.948
7171.06
7171.824
7172.273
7172.442
7172.388
7172.185
7171.939
7171.767
7171.76
7171.88
7171.982
7171.966
7171.806
7171.505
7171.07
7170.507
7169.821
7169.021
7168.114
7167.109
7166.013
7164.835
7163.58
7162.256
7160.869
7159.424
7157.928
7156.384
7154.798
7153.174
7151.515
7149.824
7148.104
7146.357
7144.584
7142.789
7140.968
7139.125
7137.253
7135.358
7133.413
7131.418
7129.345
7127.246
7125.147
7123.018
7120.859
7118.692
7116.523
7114.347
7112.156
7109.952
7107.737
7105.513
7103.277
7101.029
7098.771
7096.503
7094.227
7091.945
7089.659
7087.373
7085.087
7082.804
7080.526
7078.256
7075.995
7073.744
7071.507
7069.284
7067.076
7064.886
7062.713
7060.56
7058.427
7056.316
7054.227
7052.161
7050.118
7048.101
7046.108
7044.14
7042.194
7040.266
7038.35
7036.435
7034.507
7032.548
7030.543
7028.493
7026.424
7024.364
7022.323
7020.296
7018.286
7016.301
7014.357
7012.362
7010.293
7008.234
7006.23
7004.277
7002.367
7000.493
6998.653
6996.843
6995.059
6993.299
6991.561
6989.842
6988.141
6986.455
6984.782
6983.121
6981.469
6979.826
6978.189
6976.558
6974.931
6973.308
6971.686
6970.065
6968.444
6966.821
6965.195
6963.566
6961.931
6960.292
6958.645
6956.99
6955.327
6953.654
6951.97
6950.275
6948.567
6946.846
6945.112
6943.363
6941.599
6939.82
6938.024
6936.211
6934.382
6932.534
6930.668
6928.784
6926.881
6924.958
6923.015
6921.052
6919.068
6917.064
6915.037
6912.989
6910.918
6908.823
6906.704
6904.559
6902.388
6900.189
6897.959
6895.697
6893.4
6891.065
6888.688
6886.265
6883.791
6881.26
6878.666
6876.003
6873.268
6870.464
6867.601
6864.712
6861.86
6859.141
6856.701
6854.685
6853.313
6852.729
6853.014
3551.392
3509.576
3468.247
3402.642
3345.082
3254.087
3198.652
3142.882
3089.316
3037.563
2988.519
2944.417
2903.087
2866.496
2836.369
2812.053
2732.331
2726.238
2728.81
2734.778
2738.989
2746.4
2762.661
2790.753
2831.938
2886.282
2952.073
3029.974
3121.124
3224.327
3339.169
3465.209
3601.912
3748.656
3904.759
4069.469
4242.025
4421.332
4606.32
4794.446
4982.221
5167.057
5339.914
5515.651
5680.318
5831.917
5967.057
6081.732
6173.755
6241.386
6283.921
6301.472
6293.7
6260.789
6204.962
6128.998
6035.978
5928.737
5809.992
5683.254
5549.893
5411.158
5271.999
5135.399
5002.393
4873.927
4751.081
4634.775
4525.643
4424.111
4330.264
4243.863
4164.822
4093.192
4029.131
3972.875
3924.762
3884.956
3854.177
3833.128
3822.759
3823.575
3836.16
3860.957
3897.639
3945.197
4002.279
4067.478
4138.978
4214.017
4294.198
4373.84
4451.451
4524.843
4591.621
4649.317
4695.492
4727.623
4743.424
4739.941
4716.135
4670.294
4601.605
4510.767
4399.689
4270.986
4129.398
3981.743
3836.348
3702.633
3589.354
3505.08
3454.523
3438.55
3455.051
3502.451
3578.254
3676.813
3792.124
3919.025
4053.779
4193.258
4333.665
4471.271
4602.754
4725.556
4837.968
4938.934
5027.617
5103.508
5166.676
5217.396
5256.119
5283.451
5301.212
5307.186
5301.96
5285.16
5256.376
5216.864
5168.092
5111.099
5047.595
4980.63
4913.834
4849.886
4790.074
4735.515
4687.463
4647.549
4617.938
4600.428
4595.404
4596.173
4595.22
4592.852
4591.397
4595.494
4608.225
4634.691
4673.962
4722.284
4775.594
4831.275
4886.666
4940.036
4993.25
5048.906
5107.006
5165.866
5223.344
5277.789
5328.396
5374.936
5417.255
5455.273
5489.14
5519.175
5545.644
5568.78
5588.793
5605.854
5620.051
5631.42
5639.982
5645.65
5648.301
5647.784
5643.965
5636.695
5625.696
5610.773
5591.871
5568.854
5541.566
5510.028
5474.493
5435.415
5393.66
5350.599
5308.024
5267.913
5232.383
5203.642
5183.584
5173.603
5173.764
5184.512
5208.009
5246.075
5298.318
5362.189
5433.735
5508.844
5584.159
5657.392
5726.926
5791.25
5849.321
5900.796
5945.993
5985.722
6022.244
6057.909
6092.631
6125.621
6156.518
6184.319
6207.924
6228.653
6248.254
6268.459
6289.382
6308.442
6325.348
6341.375
6356.287
6369.426
6381.334
6392.696
6403.716
6414.547
6425.359
6435.954
6446.269
6456.466
6466.543
6476.152
6484.905
6492.695
6499.648
6506.012
6512.035
6517.974
6524.163
6530.944
6538.626
6547.502
6557.738
6569.336
6582.403
6596.796
6612.406
6629.009
6646.319
6664.028
6681.877
6699.713
6717.35
6734.584
6751.248
6767.234
6782.494
6796.983
6810.627
6823.381
6835.253
6846.243
6856.368
6865.659
6874.166
6881.888
6888.83
6895.044
6900.581
6905.487
6909.8
6913.561
6916.805
6919.568
6921.883
6923.779
6925.288
6926.438
6927.26
6927.789
6928.065
6928.138
6928.069
6927.933
6927.802
6927.73
6927.707
6927.656
6927.514
6927.255
6926.876
6926.377
6925.761
6925.031
6924.193
6923.253
6922.219
6921.097
6919.893
6918.614
6917.267
6915.858
6914.392
6912.874
6911.31
6909.705
6908.061
6906.383
6904.673
6902.935
6901.171
6899.381
6897.567
6895.729
6893.866
6891.976
6890.057
6888.099
6886.105
6884.085
6882.03
6879.924
6877.765
6875.584
6873.407
6871.235
6869.059
6866.87
6864.665
6862.448
6860.217
6857.975
6855.72
6853.454
6851.179
6848.896
6846.608
6844.315
6842.022
6839.73
6837.44
6835.156
6832.879
6830.612
6828.356
6826.112
6823.882
6821.668
6819.471
6817.292
6815.132
6812.992
6810.872
6808.774
6806.698
6804.645
6802.614
6800.604
6798.616
6796.645
6794.689
6792.742
6790.796
6788.84
6786.865
6784.863
6782.835
6780.794
6778.754
6776.727
6774.711
6772.711
6770.718
6768.727
6766.718
6764.698
6762.699
6760.738
6758.812
6756.916
6755.048
6753.207
6751.392
6749.602
6747.836
6746.09
6744.363
6742.654
6740.96
6739.279
6737.611
6735.952
6734.302
6732.66
6731.023
6729.391
6727.763
6726.137
6724.512
6722.887
6721.261
6719.633
6718.001
6716.365
6714.724
6713.076
6711.421
6709.757
6708.085
6706.401
6704.707
6703.001
6701.282
6699.55
6697.804
6696.043
6694.266
6692.474
6690.665
6688.839
6686.996
6685.135
6683.255
6681.357
6679.44
6677.503
6675.546
6673.57
6671.572
6669.554
6667.515
6665.454
6663.371
6661.265
6659.135
6656.981
6654.802
6652.596
6650.361
6648.097
6645.801
6643.472
6641.106
6638.701
6636.256
6633.769
6631.242
6628.677
6626.087
6623.491
6620.927
6618.447
6616.132
6614.073
6612.386
6611.184
6610.538
6610.468
3829.583
3786.085
3737.736
3676.088
3627.179
3542.74
3494.309
3444.795
3393.735
3342.139
3290.017
3237.498
3183.774
3129.452
3072.275
2945.529
2889.104
2834.13
2780.264
2728.26
2678.703
2632.51
2589.968
2551.804
2519.017
2492.336
2471.883
2459.188
2453.153
2452.038
2455.4
2465.605
2484.677
2514.115
2554.68
2606.917
2672.129
2749.509
2838.921
2940.25
3053.142
3177.112
3311.619
3456.049
3609.783
3772.23
3942.419
4118.736
4299.515
4483.121
4667.561
4852.186
5030.442
5203.554
5366.274
5515.37
5647.229
5758.436
5846.577
5909.993
5947.935
5960.365
5947.925
5911.225
5852.561
5774.283
5679.793
5572.149
5453.78
5326.887
5193.199
5055.659
4918.927
4785.647
4656.73
4533.036
4415.384
4304.424
4200.532
4104.09
4015.025
3932.966
3857.578
3788.65
3726.267
3670.795
3622.659
3582.113
3549.742
3526.459
3513.791
3513.574
3527.083
3554.684
3595.67
3648.952
3713.431
3787.722
3869.998
3958.094
4050.321
4143.376
4234.701
4321.533
4400.813
4469.723
4525.419
4563.939
4581.977
4577.315
4548.312
4492.602
4409.406
4299.514
4165.22
4009.143
3836.746
3656.068
3478.018
3315.378
3180.756
3082.121
3021.677
3000.79
3018.355
3071.436
3156.028
3266.436
3395.763
3538.213
3689.707
3846.774
4005.261
4161.18
4310.973
4451.819
4581.651
4699.014
4802.697
4891.807
4966.089
5025.62
5070.672
5101.627
5119.107
5122.622
5111.678
5086.473
5047.407
4994.88
4930.336
4856.284
4776.18
4694.588
4616.378
4544.341
4479.032
4420.799
4370.951
4332.345
4308.595
4304.185
4312.496
4320.954
4322.007
4317.479
4306.607
4295.519
4296.074
4313.329
4348.887
4398.619
4459.065
4527.682
4597.575
4663.7
4726.957
4790.249
4853.755
4917.148
4979.025
5037.866
5092.778
5143.263
5188.954
5229.722
5265.704
5297.293
5324.873
5348.712
5369.069
5386.171
5400.187
5411.158
5419.06
5423.837
5425.399
5423.616
5418.326
5409.395
5396.637
5379.722
5358.485
5332.769
5302.234
5266.684
5226.166
5181.077
5132.538
5082.202
5032.083
4984.651
4942.342
4907.774
4883.071
4870.43
4868.454
4876.353
4897.66
4936.5
4993.494
5064.995
5144.873
5227.114
5307.435
5383.697
5454.891
5520.021
5578.402
5630.016
5675.487
5715.766
5752.576
5787.158
5820.038
5851.728
5882.025
5910.618
5937.706
5963.335
5987.222
6009.556
6030.941
6051.386
6070.915
6090.155
6107.974
6123.851
6138.196
6151.489
6163.785
6175.195
6186.072
6196.654
6206.996
6217.076
6226.747
6235.911
6244.568
6252.515
6259.662
6266.187
6272.256
6278.075
6284.014
6290.479
6297.798
6306.292
6316.153
6327.445
6340.177
6354.33
6369.753
6386.215
6403.428
6421.115
6438.997
6456.823
6474.395
6491.55
6508.142
6524.057
6539.272
6553.698
6567.233
6579.877
6591.662
6602.555
6612.587
6621.782
6630.184
6637.812
6644.678
6650.83
6656.317
6661.18
6665.458
6669.19
6672.412
6675.16
6677.468
6679.367
6680.889
6682.066
6682.931
6683.518
6683.867
6684.024
6684.037
6683.963
6683.849
6683.729
6683.603
6683.438
6683.194
6682.849
6682.394
6681.831
6681.16
6680.383
6679.504
6678.528
6677.462
6676.31
6675.078
6673.774
6672.402
6670.968
6669.479
6667.939
6666.352
6664.725
6663.06
6661.361
6659.631
6657.873
6656.089
6654.28
6652.447
6650.589
6648.707
6646.799
6644.862
6642.895
6640.896
6638.866
6636.794
6634.677
6632.527
6630.363
6628.197
6626.027
6623.846
6621.65
6619.437
6617.21
6614.97
6612.717
6610.452
6608.176
6605.891
6603.599
6601.301
6599.001
6596.699
6594.398
6592.101
6589.809
6587.524
6585.249
6582.985
6580.733
6578.496
6576.275
6574.07
6571.883
6569.715
6567.566
6565.438
6563.33
6561.243
6559.178
6557.132
6555.107
6553.1
6551.109
6549.13
6547.159
6545.189
6543.214
6541.228
6539.227
6537.212
6535.188
6533.165
6531.148
6529.141
6527.143
6525.15
6523.16
6521.175
6519.195
6517.229
6515.286
6513.369
6511.477
6509.611
6507.77
6505.954
6504.162
6502.391
6500.642
6498.91
6497.196
6495.496
6493.81
6492.136
6490.472
6488.817
6487.17
6485.529
6483.892
6482.26
6480.63
6479.002
6477.374
6475.745
6474.114
6472.481
6470.843
6469.2
6467.551
6465.896
6464.232
6462.559
6460.876
6459.183
6457.478
6455.761
6454.031
6452.287
6450.528
6448.754
6446.965
6445.16
6443.337
6441.498
6439.641
6437.766
6435.872
6433.96
6432.029
6430.079
6428.108
6426.119
6424.109
6422.078
6420.028
6417.956
6415.863
6413.749
6411.613
6409.455
6407.273
6405.068
6402.839
6400.584
6398.305
6395.999
6393.667
6391.311
6388.933
6386.538
6384.134
6381.739
6379.374
6377.076
6374.888
6372.877
6371.106
6369.665
6368.607
6367.997
6367.827
3784.526
3747.412
3714.319
3662.834
3605.794
3550.694
3497.164
3446.448
3397.966
3348.783
3230.875
3182.126
3133.352
3083.507
3032.361
2980.114
2926.874
2872.426
2816.998
2761.429
2707.086
2651.259
2595.863
2541.199
2488.003
2436.828
2388.155
2342.254
2300.048
2262.485
2230.522
2205.589
2187.661
2176.238
2171.602
2174.242
2185.115
2205.314
2235.733
2276.911
2329.41
2393.74
2469.977
2558.026
2657.753
2768.819
2890.754
3023.064
3165.13
3316.285
3475.857
3642.11
3813.551
3989.553
4168.926
4350.548
4531.512
4707.741
4876.633
5034.891
5178.595
5304.254
5408.81
5489.909
5546.049
5576.616
5581.79
5562.698
5520.53
5458.142
5378.069
5282.546
5174.069
5055.824
4929.886
4798.63
4665.765
4534.37
4406.306
4282.738
4165.18
4054.273
3950.328
3853.327
3763.527
3680.662
3604.194
3533.476
3468.051
3407.906
3353.456
3305.091
3262.992
3227.641
3200.406
3184.122
3182.139
3196.505
3227.487
3274.165
3335.269
3409.67
3496.039
3592.537
3696.756
3805.926
3916.715
4025.81
4130.016
4226.272
4310.268
4377.255
4423.263
4445.394
4441.055
4406.29
4337.624
4235.466
4101.736
3938.885
3749.026
3538.422
3316.154
3096.15
2895.662
2731.87
2616.436
2548.692
2525.468
2545.453
2605.468
2701.571
2826.658
2973.022
3134.511
3306.507
3484.94
3664.845
3841.703
4012.017
4173.05
4322.335
4457.959
4578.488
4682.83
4770.438
4841.088
4894.726
4931.392
4950.987
4953.012
4937.245
4903.384
4851.572
4782.553
4698.239
4602.581
4501.278
4401.41
4309.921
4229.233
4158.489
4097.921
4048.123
4014.231
4005.605
4020.68
4041.283
4052.901
4056.559
4049.625
4030.514
4003.787
3985.238
3989.535
4018.934
4065.585
4130.569
4220.711
4311.314
4388.233
4458.979
4530.623
4599.315
4666.704
4732.697
4795.792
4855.012
4909.581
4958.898
5002.797
5041.446
5075.18
5104.341
5129.29
5150.391
5167.922
5182.066
5192.949
5200.58
5204.854
5205.774
5203.193
5196.957
5186.792
5172.364
5153.392
5129.677
5100.962
5066.69
5026.506
4980.142
4927.791
4870.973
4811.843
4752.523
4696.1
4645.48
4603.863
4574.58
4564.167
4560.77
4561.008
4575.856
4614.427
4677.833
4760.718
4853.08
4945.602
5032.917
5113.574
5187.476
5253.83
5312.484
5363.743
5408.398
5447.706
5484.297
5518.583
5550.519
5581.552
5611.448
5640.366
5668.714
5696.353
5722.754
5748.601
5773.443
5796.769
5818.486
5838.951
5858.285
5876.331
5893.479
5909.037
5923.112
5935.971
5947.812
5959.01
5969.698
5979.827
5989.412
5998.462
6006.929
6014.729
6021.849
6028.384
6034.476
6040.392
6046.581
6053.256
6060.542
6068.798
6078.305
6089.193
6101.507
6115.249
6130.282
6146.39
6163.304
6180.733
6198.365
6215.933
6233.238
6250.123
6266.45
6282.094
6297.067
6311.322
6324.619
6337.059
6348.706
6359.48
6369.398
6378.447
6386.651
6394.081
6400.81
6406.866
6412.277
6417.078
6421.306
6424.997
6428.189
6430.914
6433.209
6435.105
6436.634
6437.831
6438.726
6439.356
6439.758
6439.97
6440.035
6439.995
6439.885
6439.729
6439.532
6439.282
6438.955
6438.534
6438.012
6437.389
6436.665
6435.842
6434.922
6433.91
6432.81
6431.628
6430.368
6429.037
6427.639
6426.18
6424.666
6423.102
6421.492
6419.841
6418.153
6416.432
6414.68
6412.9
6411.094
6409.264
6407.409
6405.531
6403.628
6401.701
6399.746
6397.764
6395.751
6393.706
6391.626
6389.514
6387.376
6385.222
6383.054
6380.875
6378.682
6376.473
6374.249
6372.01
6369.757
6367.492
6365.215
6362.928
6360.632
6358.329
6356.021
6353.71
6351.398
6349.088
6346.781
6344.48
6342.186
6339.902
6337.629
6335.369
6333.124
6330.894
6328.68
6326.485
6324.307
6322.15
6320.011
6317.893
6315.795
6313.717
6311.658
6309.617
6307.593
6305.584
6303.586
6301.596
6299.609
6297.621
6295.627
6293.626
6291.618
6289.605
6287.594
6285.587
6283.588
6281.597
6279.613
6277.636
6275.668
6273.709
6271.761
6269.832
6267.924
6266.04
6264.18
6262.344
6260.531
6258.739
6256.968
6255.217
6253.483
6251.765
6250.062
6248.373
6246.694
6245.026
6243.367
6241.716
6240.071
6238.431
6236.795
6235.162
6233.531
6231.9
6230.269
6228.636
6227
6225.361
6223.717
6222.068
6220.411
6218.747
6217.074
6215.392
6213.7
6211.996
6210.28
6208.552
6206.81
6205.053
6203.282
6201.496
6199.694
6197.875
6196.039
6194.186
6192.315
6190.426
6188.519
6186.593
6184.648
6182.684
6180.701
6178.699
6176.678
6174.637
6172.577
6170.498
6168.399
6166.282
6164.145
6161.988
6159.813
6157.619
6155.407
6153.178
6150.933
6148.674
6146.405
6144.131
6141.861
6139.605
6137.381
6135.213
6133.133
6131.179
6129.404
6127.854
6126.597
6125.662
6125.106
6124.922
3537.615
3482.78
3363.117
3314.473
3264.666
3216.037
3168.791
3122.656
3077.097
3031.892
2987.261
2940.869
2893.246
2844.219
2793.824
2741.909
2688.547
2633.776
2577.688
2521.038
2465.356
2409.412
2353.34
2297.501
2242.129
2187.742
2135.467
2086.114
2040.497
1999.536
1964.59
1936.681
1915.949
1902.384
1896.381
1898.466
1909.302
1929.576
1959.898
2000.888
2052.927
2116.362
2191.383
2278.018
2376.124
2485.346
2605.221
2735.338
2874.854
3022.644
3177.412
3337.739
3503.899
3675.883
3851.722
4029.286
4205.493
4376.549
4539.044
4689.721
4824.86
4941.085
5035.622
5106.395
5152.297
5173.098
5169.577
5143.417
5096.636
5030.549
4947.123
4850.17
4741.819
4625.2
4502.884
4376.691
4249.344
4123.663
4001.148
3883.401
3772.317
3668.816
3573.021
3484.752
3403.748
3328.794
3259.408
3194.511
3133.379
3076.082
3023.147
2974.476
2929.583
2888.903
2854.824
2832.363
2827.091