/*--------------------------------*- C++ -*----------------------------------*\
| =========                 |                                                 |
| \\      /  F ield         | foam-extend: Open Source CFD                    |
|  \\    /   O peration     | Version:     3.1                                |
|   \\  /    A nd           | Web:         http://www.extend-project.de       |
|    \\/     M anipulation  |                                                 |
\*---------------------------------------------------------------------------*/
FoamFile
{
    version     2.0;
    format      ascii;
    class       volScalarField;
    location    "10";
    object      pd;
}
// * * * * * * * * * * * * * * * * * * * * * * * * * * * * * * * * * * * * * //

dimensions      [1 -1 -2 0 0 0 0];

internalField   nonuniform List<scalar> 
119952
(
7160.582
6621.713
6532.574
6616.229
6689.042
6617.69
6564.148
6524.099
6478.152
6430.976
6383.108
6334.606
6287.454
6239.263
6193.814
6152.267
6114.3
6077.349
6030.744
5922.098
6235.282
6052.502
5957.914
6381.557
6361.543
6419.794
6472.944
6591.817
6802.288
8125.481
6022.565
5982.626
5989.275
5970.721
5937.656
5890.212
5827.465
5751.71
5665.728
5579.438
5459.059
5380.089
5295.622
5230.025
5184.664
5162.384
5164.422
5191.595
5240.515
5380.774
5439.4
5513.718
5619.465
5722.292
5819.584
5910.209
5992.874
6068.706
6136.209
6192.485
6252.553
6307.393
6355.723
6399.907
6439.405
6473.362
6505.027
6552.58
6637.123
6570.966
6558.9
6590.326
6594.749
6570.036
6525.501
6482.487
6436.851
6389.007
6340.527
6292.252
6245.219
6200.301
6158.627
6121.256
6088.181
6058.684
6033.284
6019.083
6037.658
6060.241
6055.746
6175.727
6322.245
6377.919
6418.145
6455.295
6427.34
6291.899
6307.956
6363.729
6420.043
6472.971
6523.719
6570.176
6611.88
6649.776
6684.748
6717.553
6748.797
6778.54
6806.476
6832.479
6856.412
6878.086
6897.523
6914.521
6928.908
6940.607
6949.558
6955.662
6958.943
6959.244
6956.427
6950.326
6940.973
6928.336
6912.478
6893.33
6871.159
6846.395
6819.621
6791.658
6763.58
6736.68
6712.421
6692.425
6677.88
6670.367
6670.963
6680.479
6699.61
6728.593
6767.188
6814.535
6869.248
6929.763
6997.051
7081.625
7167.028
7243.657
7328.124
7406.632
7451.896
7441.682
7444.889
7490.897
7537.65
7587.821
7620.211
7627.333
7629.748
7630.513
7629.484
7633.525
7643.271
7655.101
7667.511
7680.196
7692.659
7704.364
7715.336
7726.002
7736.686
7747.416
7758.142
7768.815
7779.367
7789.716
7799.756
7809.353
7818.402
7826.894
7834.915
7842.615
7850.191
7857.868
7865.888
7874.491
7883.884
7894.237
7905.616
7918.289
7932.021
7946.846
7962.614
7979.176
7996.561
8013.411
8030.025
8048.037
8065.564
8082.724
8099.359
8115.359
8130.641
8145.142
8158.832
8171.649
8183.593
8194.677
8204.852
8214.191
8222.726
8230.479
8237.482
8243.77
8249.385
8254.361
8258.724
8262.528
8265.804
8268.588
8270.905
8272.779
8274.235
8275.289
8275.95
8276.215
8276.061
8275.425
8274.147
8271.748
8268.348
8271.313
8272.857
8273.833
8274.333
8274.539
8274.495
8274.256
8273.847
8273.289
8272.599
8271.789
8270.873
8269.859
8268.758
8267.576
8266.323
8265.004
8263.626
8262.193
8260.711
8259.184
8257.616
8256.011
8254.373
8252.702
8251.003
8249.278
8247.526
8245.752
8243.959
8242.15
8240.349
8238.51
8236.504
8241.662
8235.901
8229.985
8228.08
8225.859
8223.436
8221.205
8219.012
8216.798
8214.593
8212.385
8210.171
8207.946
8205.712
8203.466
8201.209
8198.943
8196.671
8194.394
8192.117
8189.84
8187.566
8185.298
8183.036
8180.785
8178.543
8176.315
8174.101
8171.902
8169.72
8167.557
8165.413
8163.291
8161.19
8159.113
8157.062
8155.038
8153.044
8151.084
8149.162
8147.285
8145.466
8143.722
8142.084
8140.533
8138.822
8136.615
8134.198
8131.953
8129.819
8127.75
8125.765
8123.77
8121.33
8116.482
8115.849
8114.823
8112.811
8110.885
8109.001
8107.133
8105.302
8103.502
8101.731
8099.983
8098.263
8096.564
8094.883
8093.218
8091.566
8089.924
8088.292
8086.667
8085.048
8083.434
8081.823
8080.215
8078.608
8077
8075.392
8073.782
8072.169
8070.551
8068.928
8067.299
8065.662
8064.017
8062.363
8060.698
8059.023
8057.335
8055.634
8053.92
8052.192
8050.449
8048.69
8046.915
8045.124
8043.315
8041.489
8039.645
8037.782
8035.901
8034
8032.079
8030.138
8028.176
8026.193
8024.188
8022.161
8020.111
8018.038
8015.939
8013.815
8011.664
8009.485
8007.274
8005.031
8002.751
8000.432
7998.068
7995.655
7993.185
7990.65
7988.038
7985.337
7982.528
7979.584
7976.47
7973.145
7969.551
7965.6
7961.161
7956.008
7949.778
7942.183
7934.766
7937.926
7971.368
7026.445
6902.176
6754.777
6611.967
6471.756
6336.112
6206.276
6082.815
5966.106
5849.69
5751.302
5660.239
5578.012
5505.174
5442.005
5388.366
5344.725
5308.477
5288.34
5286.368
5271.35
5274.39
5291.281
5317.374
5352.546
5396.249
5446.428
5503.186
5559.416
5614.407
5677.548
5737.423
5794.147
5846.593
5893.17
5932.357
5964.016
5984.504
5981.926
5970.534
5947.031
5907.502
5853.02
5783.846
5702.052
5611.255
5516.286
5417.556
5323.734
5245.673
5184.119
5143.836
5127.558
5136.355
5169.345
5227.96
5323.799
5420.539
5512.43
5611.6
5717.378
5822.451
5921.615
6012.624
6095.579
6171.78
6240.574
6300.132
6352.924
6401.418
6443.014
6481.292
6512.599
6540.744
6565.579
6583.815
6582.508
6570.596
6561.81
6547.198
6519.395
6479.497
6433.285
6384.307
6334.274
6284.358
6235.636
6189.292
6146.557
6108.66
6076.673
6050.87
6031.467
6019.51
6017.538
6028.376
6054.243
6093.317
6154.202
6225.499
6284.148
6323.08
6343.943
6346.245
6340.673
6357.427
6396.546
6447.58
6500.371
6550.471
6596.45
6638.321
6676.681
6712.061
6744.853
6775.359
6803.68
6829.845
6853.883
6875.734
6895.512
6912.154
6926.771
6939.027
6948.645
6955.498
6959.502
6960.571
6958.553
6953.302
6944.705
6932.7
6917.244
6898.341
6876.107
6850.841
6823.044
6793.426
6762.936
6732.887
6704.748
6680.099
6660.515
6647.435
6642.055
6645.429
6658.305
6681.371
6714.705
6757.933
6809.951
6869.399
6935.095
7005.652
7079.559
7155.054
7226.646
7293.259
7350.03
7393.096
7422.25
7449.086
7488.192
7529.825
7566.533
7597.493
7613.552
7618.521
7624.788
7636.474
7650.978
7662.952
7671.529
7679.508
7688.419
7698.307
7708.638
7719.104
7729.702
7740.394
7751.136
7761.957
7772.789
7783.509
7794.065
7804.302
7813.938
7822.869
7831.158
7838.919
7846.318
7853.561
7860.886
7868.559
7876.85
7885.981
7896.117
7907.354
7919.81
7933.438
7948.18
7963.875
7980.361
7997.078
8013.078
8028.25
8046.311
8063.862
8081.025
8097.672
8113.692
8129.003
8143.541
8157.257
8170.115
8182.097
8193.206
8203.451
8212.852
8221.441
8229.245
8236.297
8242.631
8248.285
8253.297
8257.709
8261.555
8264.87
8267.688
8270.039
8271.946
8273.433
8274.519
8275.213
8275.519
8275.43
8274.929
8274.02
8272.859
8272.082
8272.585
8273.528
8274.12
8274.47
8274.583
8274.485
8274.205
8273.764
8273.179
8272.464
8271.633
8270.696
8269.662
8268.542
8267.342
8266.071
8264.735
8263.339
8261.89
8260.392
8258.85
8257.267
8255.648
8253.996
8252.314
8250.603
8248.865
8247.104
8245.321
8243.518
8241.702
8239.877
8238.099
8236.888
8234.489
8233.087
8230.496
8227.525
8224.899
8222.613
8220.441
8218.26
8216.053
8213.84
8211.627
8209.41
8207.184
8204.945
8202.694
8200.434
8198.165
8195.891
8193.613
8191.334
8189.056
8186.782
8184.513
8182.251
8179.999
8177.758
8175.53
8173.316
8171.119
8168.938
8166.776
8164.634
8162.512
8160.413
8158.338
8156.288
8154.265
8152.271
8150.309
8148.381
8146.493
8144.645
8142.835
8141.044
8139.227
8137.319
8135.258
8133.093
8130.936
8128.837
8126.785
8124.768
8122.754
8120.649
8118.179
8115.766
8113.811
8112.063
8110.264
8108.387
8106.498
8104.639
8102.819
8101.028
8099.266
8097.528
8095.813
8094.117
8092.439
8090.774
8089.121
8087.479
8085.845
8084.218
8082.596
8080.979
8079.364
8077.752
8076.14
8074.527
8072.913
8071.297
8069.676
8068.051
8066.419
8064.781
8063.135
8061.48
8059.815
8058.139
8056.452
8054.752
8053.039
8051.313
8049.571
8047.814
8046.042
8044.253
8042.447
8040.623
8038.782
8036.923
8035.044
8033.147
8031.23
8029.292
8027.334
8025.355
8023.355
8021.332
8019.287
8017.218
8015.125
8013.006
8010.861
8008.687
8006.484
8004.247
8001.976
7999.666
7997.313
7994.912
7992.457
7989.939
7987.35
7984.674
7981.902
7979.003
7975.963
7972.737
7969.308
7965.607
7961.651
7957.447
7953.358
7950.008
7948.637
7949.644
7953.635
4163.392
4197.682
4250.919
4316.65
4396.643
4489.538
4594.972
4712.646
4842.024
4983.033
5132.682
5295.136
5465.491
5643.412
5827.74
6017.138
6209.385
6400.38
6592.432
6800.3
6979.769
7148.329
7303.362
7442.037
7560.978
7657.771
7730.462
7777.307
7804.712
7801.113
7772.205
7721.667
7651.211
7563.188
7460.228
7345.048
7220.363
7089.56
6943.263
6805.474
6664.281
6524.629
6388.225
6256.632
6131.253
6013.175
5903.539
5801.962
5705.949
5620.291
5542.586
5473.425
5413.458
5362.758
5322
5295.507
5255.722
5245.385
5246.954
5258.685
5279.986
5310.846
5350.869
5398.782
5453.127
5512.347
5575.488
5639.527
5702.851
5764.232
5822.47
5875.709
5922.047
5959.548
5986.072
5999.52
5998.03
5980.942
5947.363
5897.002
5830.297
5748.6
5654.132
5550.6
5442.814
5336.448
5237.921
5154.353
5091.672
5053.408
5041.901
5058.309
5101.533
5167.72
5257.548
5356.445
5458.299
5566.505
5680.6
5795.278
5905.188
6007.339
6101.069
6185.961
6261.667
6328.361
6386.554
6436.795
6478.944
6513.451
6547.112
6566.04
6580.853
6589.691
6587.403
6571.278
6550.442
6525.391
6491.341
6447.189
6396.683
6343.893
6291.191
6239.805
6190.597
6144.724
6103.514
6067.975
6039.777
6019.461
6006.157
5999.052
5998.937
6008.299
6029.335
6060.943
6105.907
6161.466
6214.786
6257.57
6290.292
6316.526
6338.207
6365.064
6405.289
6456.109
6510.021
6561.963
6610.18
6654.464
6695.069
6732.2
6766.028
6796.811
6824.797
6850.162
6873.021
6893.429
6911.486
6927.135
6940.406
6951.151
6959.224
6964.557
6967.024
6966.483
6962.753
6955.649
6945.033
6930.846
6913.03
6891.542
6866.484
6838.202
6807.254
6774.476
6740.939
6708.042
6677.371
6650.595
6629.372
6615.196
6609.307
6612.695
6626.165
6650.486
6685.966
6732.166
6787.574
6850.191
6917.676
6987.906
7059.249
7129.927
7196.796
7258.292
7313.103
7358.087
7392.168
7423.717
7460.452
7499.593
7536.605
7566.036
7587.769
7608.46
7626.174
7636.62
7644.17
7654.669
7667.252
7680.27
7693.573
7705.612
7716.076
7725.845
7735.407
7745.055
7755.07
7765.445
7776.077
7786.727
7797.213
7807.34
7816.866
7825.692
7833.822
7841.354
7848.448
7855.307
7862.174
7869.346
7877.148
7885.817
7895.496
7906.305
7918.393
7931.717
7946.249
7961.829
7978.342
7995.624
8013.852
8031.739
8049.269
8066.663
8083.768
8100.355
8116.291
8131.5
8145.92
8159.503
8172.221
8184.065
8195.03
8205.127
8214.383
8222.828
8230.491
8237.402
8243.6
8249.124
8254.014
8258.31
8262.05
8265.267
8267.996
8270.268
8272.107
8273.539
8274.586
8275.267
8275.6
8275.612
8275.348
8274.901
8274.438
8274.188
8274.296
8274.62
8274.898
8275.014
8274.952
8274.724
8274.346
8273.827
8273.177
8272.406
8271.526
8270.544
8269.471
8268.313
8267.079
8265.775
8264.408
8262.983
8261.506
8259.982
8258.415
8256.81
8255.169
8253.496
8251.793
8250.064
8248.308
8246.529
8244.726
8242.904
8241.054
8239.189
8237.273
8235.4
8233.305
8230.817
8228.409
8226.23
8224.178
8222.14
8220.067
8217.946
8215.786
8213.604
8211.409
8209.201
8206.979
8204.743
8202.493
8200.233
8197.964
8195.689
8193.409
8191.128
8188.847
8186.569
8184.297
8182.031
8179.775
8177.53
8175.298
8173.08
8170.877
8168.692
8166.525
8164.377
8162.251
8160.146
8158.064
8156.007
8153.975
8151.97
8149.993
8148.047
8146.129
8144.238
8142.364
8140.493
8138.603
8136.666
8134.653
8132.565
8130.456
8128.371
8126.321
8124.284
8122.244
8120.184
8118.284
8116.362
8114.349
8112.297
8110.261
8108.264
8106.313
8104.408
8102.55
8100.731
8098.944
8097.184
8095.45
8093.737
8092.043
8090.364
8088.699
8087.045
8085.4
8083.764
8082.133
8080.508
8078.887
8077.268
8075.651
8074.034
8072.416
8070.796
8069.173
8067.546
8065.913
8064.274
8062.628
8060.974
8059.31
8057.636
8055.951
8054.254
8052.545
8050.822
8049.085
8047.333
8045.566
8043.783
8041.983
8040.166
8038.332
8036.479
8034.609
8032.719
8030.81
8028.881
8026.932
8024.962
8022.971
8020.958
8018.924
8016.866
8014.785
8012.679
8010.547
8008.388
8006.201
8003.983
8001.732
7999.445
7997.119
7994.749
7992.33
7989.855
7987.319
7984.709
7982.016
7979.227
7976.326
7973.3
7970.142
7966.863
7963.513
7960.221
7957.202
7954.765
7953.207
7953.016
7954.361
4226.437
4186.51
4154.765
4126.023
4102.658
4090.727
4091.075
4109.195
4140.309
4148.505
4136.39
4137.618
4158.023
4194.561
4246.351
4311.39
4389.521
4479.867
4581.959
4695.88
4821.248
4956.894
5102.819
5258.781
5423.887
5596.975
5776.208
5960.475
6147.996
6336.332
6524.051
6746.5
6929.709
7095.687
7247.034
7382.957
7497.391
7589.566
7657.822
7701.821
7721.903
7715.741
7683.753
7628.866
7554.018
7461.906
7355.327
7237.004
7110.156
6977.838
6841.107
6702.551
6564.276
6428.268
6296.211
6169.496
6049.228
5936.206
5830.935
5733.522
5643.726
5561.746
5487.886
5422.363
5365.341
5317.044
5277.503
5247.3
5226.032
5216.817
5218.44
5230.252
5252.918
5286.359
5329.654
5381.537
5440.53
5505.345
5574.776
5643.036
5712.207
5779.804
5843.697
5901.778
5951.915
5992.044
6020.2
6034.361
6031.856
6011.211
5971.809
5913.628
5837.016
5743.33
5634.875
5515.823
5392.002
5269.928
5156.892
5061.064
4990.567
4948.011
4935.426
4952.236
4997.338
5067.305
5158.769
5264.1
5378.104
5498.805
5623.994
5749.675
5871.655
5986.775
6093.241
6190.123
6276.926
6353.197
6418.72
6473.842
6518.728
6553.572
6577.677
6600.189
6610.813
6612.367
6603.015
6581.707
6552.324
6516.366
6472.593
6421.063
6364.344
6305.974
6248.754
6194.076
6142.911
6096.213
6055.659
6022.948
5999.122
5984.426
5976.557
5972.845
5972.915
5978.562
5992.145
6015.126
6049.825
6095.013
6144.446
6192.371
6237.061
6278.732
6317.544
6358.245
6405.596
6458.985
6514.477
6568.502
6619.277
6666.328
6709.638
6749.126
6784.816
6816.902
6845.644
6871.279
6894.013
6914.017
6931.418
6946.228
6958.418
6967.916
6974.626
6978.539
6979.529
6977.438
6972.021
6963.02
6950.32
6933.804
6913.392
6889.029
6860.825
6829.135
6794.541
6757.876
6720.329
6683.46
6648.987
6618.713
6594.506
6578.041
6570.592
6572.839
6585.503
6609.841
6646.752
6695.715
6754.746
6820.951
6891.252
6963.054
7034.285
7103.232
7167.923
7226.916
7279.179
7323.799
7361.554
7396.999
7433.822
7470.555
7504.482
7534.535
7561.298
7584.476
7602.728
7616.577
7631.318
7648.868
7665.564
7679.851
7693.124
7705.592
7717.125
7728.006
7738.191
7748.28
7758.788
7769.767
7780.803
7791.482
7801.648
7811.307
7820.445
7828.98
7836.866
7844.138
7850.92
7857.398
7863.82
7870.507
7877.792
7885.955
7895.216
7905.73
7917.597
7930.754
7945.211
7960.837
7977.456
7994.829
8012.618
8030.308
8047.967
8065.517
8082.718
8099.366
8115.353
8130.617
8145.098
8158.731
8171.495
8183.401
8194.437
8204.596
8213.909
8222.411
8230.125
8237.077
8243.309
8248.865
8253.787
8258.114
8261.884
8265.134
8267.898
8270.207
8272.09
8273.573
8274.685
8275.449
8275.898
8276.067
8276.013
8275.81
8275.564
8275.392
8275.385
8275.505
8275.607
8275.591
8275.431
8275.13
8274.695
8274.132
8273.446
8272.646
8271.739
8270.734
8269.638
8268.46
8267.205
8265.881
8264.494
8263.05
8261.553
8260.009
8258.424
8256.799
8255.14
8253.449
8251.729
8249.982
8248.209
8246.414
8244.593
8242.75
8240.878
8238.983
8237.038
8235.043
8232.97
8230.871
8228.772
8226.643
8224.484
8222.317
8220.148
8217.972
8215.781
8213.577
8211.362
8209.138
8206.902
8204.654
8202.396
8200.128
8197.852
8195.57
8193.284
8190.997
8188.712
8186.429
8184.151
8181.881
8179.62
8177.369
8175.132
8172.909
8170.701
8168.511
8166.338
8164.185
8162.052
8159.941
8157.851
8155.785
8153.743
8151.726
8149.733
8147.765
8145.819
8143.891
8141.975
8140.06
8138.132
8136.173
8134.168
8132.118
8130.049
8127.989
8125.948
8123.921
8121.911
8119.926
8117.982
8115.987
8113.918
8111.859
8109.855
8107.902
8105.992
8104.118
8102.278
8100.468
8098.684
8096.924
8095.186
8093.467
8091.766
8090.08
8088.407
8086.746
8085.094
8083.451
8081.814
8080.183
8078.556
8076.933
8075.311
8073.69
8072.069
8070.446
8068.82
8067.191
8065.556
8063.916
8062.27
8060.615
8058.952
8057.279
8055.595
8053.9
8052.192
8050.471
8048.737
8046.988
8045.224
8043.445
8041.649
8039.836
8038.007
8036.159
8034.293
8032.409
8030.506
8028.583
8026.64
8024.677
8022.693
8020.689
8018.662
8016.614
8014.543
8012.448
8010.329
8008.184
8006.013
8003.814
8001.584
7999.322
7997.025
7994.69
7992.313
7989.89
7987.416
7984.885
7982.291
7979.628
7976.893
7974.089
7971.226
7968.337
7965.485
7962.766
7960.326
7958.31
7956.938
7956.354
7956.639
4819.737
4766.203
4713.85
4659.548
4601.988
4541.65
4486.214
4430.445
4376.878
4325.125
4276.082
4231.979
4190.649
4154.058
4123.932
4099.616
4081.206
4075.113
4077.685
4083.653
4087.864
4095.275
4111.536
4139.629
4180.813
4235.157
4300.948
4378.849
4469.999
4573.202
4688.044
4814.084
4950.787
5097.531
5253.634
5418.344
5590.9
5770.207
5955.195
6143.321
6331.096
6515.932
6688.789
6864.526
7029.193
7180.792
7315.932
7430.607
7522.63
7590.261
7632.796
7650.347
7642.575
7609.664
7553.837
7477.873
7384.853
7277.612
7158.867
7032.129
6898.768
6760.033
6620.874
6484.274
6351.268
6222.802
6099.956
5983.65
5874.518
5772.986
5679.139
5592.738
5513.697
5442.067
5378.006
5321.75
5273.637
5233.831
5203.052
5182.003
5171.634
5172.45
5185.035
5209.832
5246.514
5294.072
5351.154
5416.353
5487.853
5562.892
5643.073
5722.714
5800.326
5873.717
5940.496
5998.192
6044.367
6076.498
6092.299
6088.816
6065.01
6019.169
5950.48
5859.642
5748.564
5619.861
5478.273
5330.618
5185.223
5051.507
4938.226
4853.953
4803.396
4787.425
4803.926
4851.326
4927.129
5025.688
5140.999
5267.9
5402.654
5542.133
5682.54
5820.146
5951.629
6074.431
6186.843
6287.809
6376.492
6452.383
6515.551
6566.271
6604.994
6632.326
6650.087
6656.061
6650.835
6634.035
6605.251
6565.739
6516.967
6459.974
6396.47
6329.505
6262.709
6198.761
6138.948
6084.389
6036.326
5996.305
5965.691
5943.134
5929.353
5930.027
5937.227
5940.689
5940.23
5944.369
5957.1
5983.565
6022.837
6071.159
6124.468
6180.145
6235.518
6288.809
6341.815
6397.443
6455.74
6514.726
6572.219
6626.664
6677.271
6723.811
6766.13
6804.148
6838.015
6868.05
6894.519
6917.655
6937.668
6954.729
6968.926
6980.295
6988.857
6994.525
6997.176
6996.659
6992.84
6985.57
6974.571
6959.648
6940.746
6917.729
6890.441
6858.903
6823.368
6784.29
6742.534
6699.474
6656.898
6616.788
6581.258
6552.517
6532.457
6522.465
6522.567
6533.076
6555.883
6593.845
6646.717
6711.001
6782.606
6857.717
6933.027
7006.262
7075.8
7140.125
7198.196
7249.671
7294.867
7334.59
7371.09
7406.745
7441.488
7474.493
7505.393
7533.194
7556.799
7577.528
7597.129
7617.334
7638.257
7657.317
7674.223
7690.25
7705.161
7718.301
7730.209
7741.571
7752.591
7763.422
7774.234
7784.829
7795.144
7805.341
7815.418
7825.027
7833.78
7841.57
7848.523
7854.887
7860.91
7866.849
7873.038
7879.819
7887.501
7896.377
7906.613
7918.211
7931.278
7945.671
7961.281
7977.884
7995.194
8012.903
8030.752
8048.589
8066.225
8083.459
8100.123
8116.109
8131.369
8145.858
8159.502
8172.256
8184.128
8195.118
8205.243
8214.534
8223.041
8230.763
8237.705
8243.919
8249.457
8254.362
8258.675
8262.436
8265.68
8268.443
8270.758
8272.654
8274.163
8275.313
8276.135
8276.664
8276.94
8277.013
8276.944
8276.808
8276.677
8276.605
8276.582
8276.532
8276.389
8276.13
8275.751
8275.252
8274.636
8273.906
8273.068
8272.129
8271.094
8269.972
8268.768
8267.489
8266.142
8264.733
8263.267
8261.749
8260.185
8258.58
8256.936
8255.258
8253.548
8251.81
8250.046
8248.256
8246.442
8244.604
8242.741
8240.851
8238.932
8236.974
8234.981
8232.96
8230.905
8228.799
8226.64
8224.459
8222.282
8220.11
8217.934
8215.745
8213.54
8211.323
8209.092
8206.85
8204.595
8202.329
8200.054
8197.771
8195.483
8193.19
8190.897
8188.604
8186.315
8184.031
8181.754
8179.487
8177.231
8174.987
8172.757
8170.543
8168.346
8166.167
8164.007
8161.867
8159.747
8157.649
8155.573
8153.52
8151.488
8149.479
8147.491
8145.52
8143.564
8141.617
8139.671
8137.715
8135.74
8133.738
8131.71
8129.669
8127.629
8125.601
8123.586
8121.586
8119.593
8117.602
8115.593
8113.573
8111.574
8109.613
8107.687
8105.791
8103.923
8102.082
8100.267
8098.477
8096.711
8094.965
8093.238
8091.529
8089.835
8088.154
8086.486
8084.827
8083.177
8081.535
8079.898
8078.266
8076.638
8075.012
8073.387
8071.762
8070.136
8068.508
8066.876
8065.24
8063.599
8061.951
8060.296
8058.632
8056.959
8055.276
8053.582
8051.876
8050.157
8048.425
8046.679
8044.918
8043.141
8041.349
8039.54
8037.714
8035.871
8034.01
8032.13
8030.232
8028.315
8026.378
8024.421
8022.445
8020.447
8018.429
8016.39
8014.329
8012.246
8010.14
8008.01
8005.856
8003.677
8001.471
7999.236
7996.972
7994.676
7992.347
7989.981
7987.576
7985.131
7982.644
7980.117
7977.552
7974.962
7972.366
7969.802
7967.322
7965.007
7962.948
7961.261
7960.059
7959.413
7959.343
5337.218
5282.171
5230.374
5178.244
5129.335
5075.553
5027.121
4977.608
4926.547
4874.952
4822.83
4770.31
4716.586
4662.264
4605.087
4539.654
4483.229
4428.255
4374.389
4322.385
4272.828
4226.635
4184.093
4145.929
4113.142
4086.461
4066.008
4053.313
4047.278
4046.163
4049.525
4059.73
4078.802
4108.24
4148.805
4201.042
4266.254
4343.634
4433.046
4534.375
4647.267
4771.237
4905.744
5050.174
5203.908
5366.355
5536.544
5712.861
5893.64
6077.246
6261.686
6446.311
6624.567
6797.679
6960.399
7109.495
7241.354
7352.561
7440.702
7504.118
7542.06
7554.49
7542.05
7505.35
7446.686
7368.408
7273.918
7166.274
7047.905
6921.012
6787.324
6649.784
6513.052
6379.772
6250.855
6127.161
6009.509
5898.549
5794.657
5698.215
5609.15
5527.09
5451.703
5382.775
5320.392
5264.92
5216.784
5176.238
5143.867
5120.584
5107.916
5107.699
5121.208
5148.809
5189.795
5243.077
5307.556
5381.847
5464.123
5552.219
5644.446
5737.501
5828.826
5915.658
5994.938
6063.848
6119.544
6158.064
6176.102
6171.44
6142.437
6086.727
6003.531
5893.639
5759.345
5603.266
5430.841
5250.049
5071.815
4909.001
4774.492
4676.072
4615.712
4594.865
4612.46
4665.555
4750.152
4860.56
4989.887
5132.337
5283.83
5440.897
5599.383
5755.302
5905.093
6045.938
6175.772
6293.138
6396.822
6485.932
6560.214
6619.745
6664.797
6695.752
6713.232
6716.747
6705.803
6680.598
6641.532
6589.005
6524.461
6450.409
6370.302
6288.69
6210.433
6138.36
6073.074
6014.872
5964.849
5923.742
5879.954
5789.097
5801.528
5877.937
5912.23
5911.505
5900.73
5889.643
5890.196
5907.446
5942.995
5992.702
6053.057
6121.27
6189.444
6253.122
6317.736
6383.611
6447.833
6511.272
6573.15
6631.991
6686.903
6737.388
6783.079
6823.847
6859.829
6891.418
6918.998
6942.837
6963.193
6980.296
6994.312
7005.283
7013.185
7017.962
7019.524
7017.741
7012.451
7003.52
6990.762
6973.847
6952.61
6926.894
6896.359
6860.809
6820.29
6775.194
6726.639
6676.299
6626.193
6578.771
6536.46
6501.865
6476.953
6463.075
6456.626
6459.459
6484.533
6528.863
6587.478
6659.116
6738.996
6821.237
6901.558
6977.82
7049.014
7114.143
7172.513
7224.038
7269.072
7309.14
7346.329
7381.224
7414.159
7445.852
7476.15
7504.743
7531.831
7557.46
7581.347
7603.68
7625.064
7645.499
7665.025
7684.273
7702.098
7717.976
7732.321
7745.614
7757.91
7769.32
7780.197
7790.779
7801.121
7811.201
7820.872
7830.036
7838.693
7846.64
7853.787
7860.312
7866.381
7872.2
7878.139
7884.604
7891.924
7900.417
7910.278
7921.57
7934.302
7948.455
7963.878
7980.34
7997.553
8015.24
8033.122
8050.948
8068.52
8085.676
8102.267
8118.182
8133.397
8147.823
8161.358
8174.002
8185.787
8196.68
8206.712
8215.907
8224.309
8231.937
8238.803
8244.955
8250.442
8255.305
8259.583
8263.315
8266.537
8269.286
8271.593
8273.492
8275.014
8276.191
8277.056
8277.643
8277.992
8278.149
8278.162
8278.088
8277.974
8277.854
8277.728
8277.563
8277.319
8276.974
8276.519
8275.956
8275.285
8274.508
8273.629
8272.653
8271.587
8270.435
8269.203
8267.899
8266.527
8265.093
8263.604
8262.064
8260.477
8258.85
8257.185
8255.486
8253.756
8251.998
8250.214
8248.405
8246.572
8244.714
8242.832
8240.924
8238.987
8237.02
8235.021
8232.991
8230.919
8228.802
8226.652
8224.488
8222.322
8220.152
8217.971
8215.775
8213.562
8211.335
8209.095
8206.842
8204.577
8202.301
8200.016
8197.724
8195.426
8193.126
8190.824
8188.523
8186.225
8183.933
8181.649
8179.374
8177.11
8174.858
8172.621
8170.4
8168.195
8166.008
8163.84
8161.691
8159.563
8157.455
8155.368
8153.303
8151.257
8149.232
8147.225
8145.234
8143.255
8141.283
8139.313
8137.339
8135.353
8133.352
8131.337
8129.313
8127.29
8125.273
8123.266
8121.268
8119.274
8117.285
8115.3
8113.32
8111.354
8109.411
8107.494
8105.602
8103.735
8101.894
8100.079
8098.287
8096.516
8094.767
8093.035
8091.32
8089.621
8087.935
8086.261
8084.597
8082.942
8081.295
8079.654
8078.017
8076.385
8074.755
8073.127
8071.499
8069.87
8068.239
8066.605
8064.968
8063.325
8061.676
8060.021
8058.357
8056.684
8055.001
8053.308
8051.603
8049.886
8048.156
8046.412
8044.653
8042.879
8041.09
8039.285
8037.462
8035.623
8033.766
8031.891
8029.997
8028.085
8026.154
8024.203
8022.233
8020.243
8018.234
8016.203
8014.153
8012.081
8009.988
8007.874
8005.738
8003.58
8001.398
7999.193
7996.964
7994.709
7992.43
7990.124
7987.792
7985.436
7983.058
7980.663
7978.259
7975.864
7973.499
7971.201
7969.013
7967.002
7965.231
7963.79
7962.732
7962.122
7961.952
5532.775
5525.475
5492.381
5440.896
5383.857
5328.757
5275.226
5224.511
5176.029
5126.846
5070.25
5021.501
4972.727
4922.882
4871.736
4819.489
4766.249
4711.801
4656.373
4600.804
4546.461
4490.634
4435.238
4380.574
4327.378
4276.203
4227.53
4181.629
4139.423
4101.86
4069.897
4044.964
4027.036
4015.613
4010.977
4013.617
4024.49
4044.689
4075.108
4116.286
4168.785
4233.115
4309.352
4397.401
4497.128
4608.194
4730.129
4862.439
5004.505
5155.66
5315.232
5481.485
5652.926
5828.928
6008.301
6189.923
6370.887
6547.116
6716.008
6874.266
7017.97
7143.629
7248.185
7329.284
7385.424
7415.99
7421.164
7402.073
7359.904
7297.517
7217.444
7121.921
7013.444
6895.199
6769.261
6638.005
6505.14
6373.745
6245.681
6122.113
6004.555
5893.648
5789.703
5692.702
5602.902
5520.037
5443.569
5372.851
5307.426
5247.281
5192.831
5144.466
5102.367
5067.016
5039.781
5023.497
5021.514
5035.88
5066.862
5113.54
5174.644
5249.045
5335.414
5431.912
5536.131
5645.301
5756.09
5865.185
5969.391
6065.647
6149.643
6216.63
6262.638
6284.769
6280.43
6245.665
6176.999
6074.841
5941.11
5778.242
5587.997
5373.609
5142.017
4919.188
4723.567
4567.865
4455.398
4387.246
4363.012
4383.026
4443.439
4540.168
4665.754
4812.275
4973.769
5145.742
5323.989
5503.12
5679.514
5850.628
6012.332
6161.708
6297.334
6417.863
6522.205
6609.813
6680.463
6734.101
6770.767
6790.362
6792.387
6776.62
6742.759
6690.947
6621.928
6537.614
6441.943
6340.399
6238.323
6143.183
6062.627
5995.045
5936.752
5885.951
5824.658
5654.638
5641.756
5724.308
5860.156
5894.413
5888.958
5869.814
5843.079
5824.508
5828.588
5856.62
5897.892
5949.033
6018.509
6105.016
6206.659
6295.613
6369.897
6438.689
6506.079
6572.072
6635.167
6694.387
6748.956
6798.273
6842.17
6880.814
6914.547
6943.712
6968.665
6989.766
7007.297
7021.441
7032.324
7039.955
7044.229
7045.149
7042.568
7036.332
7026.167
7011.739
6992.767
6969.052
6940.337
6906.065
6865.868
6819.359
6766.445
6709.493
6650.731
6591.797
6535.376
6484.446
6439.543
6392.421
6332.236
6324.966
6367.759
6410.665
6453.594
6517.205
6600.09
6692.452
6784.974
6872.289
6952.943
7026.82
7092.953
7149.858
7198.033
7244.168
7286.05
7323.562
7357.953
7389.894
7420.927
7450.823
7479.741
7508.089
7535.724
7562.095
7587.8
7612.644
7636.078
7657.849
7678.325
7697.66
7715.706
7732.854
7748.412
7762.487
7775.346
7787.187
7798.385
7809.073
7819.202
7828.787
7837.837
7846.304
7854.104
7861.224
7867.759
7873.851
7879.767
7885.956
7892.631
7899.917
7908.173
7917.681
7928.568
7940.882
7954.624
7969.657
7985.765
8002.679
8020.108
8037.74
8055.308
8072.613
8089.498
8105.825
8121.469
8136.442
8150.697
8163.994
8176.434
8188.081
8198.855
8208.773
8217.822
8226.026
8233.456
8240.185
8246.241
8251.652
8256.453
8260.681
8264.373
8267.564
8270.29
8272.584
8274.48
8276.009
8277.206
8278.101
8278.731
8279.133
8279.345
8279.411
8279.37
8279.26
8279.104
8278.907
8278.657
8278.33
8277.909
8277.387
8276.764
8276.04
8275.217
8274.297
8273.285
8272.185
8271.003
8269.743
8268.412
8267.014
8265.555
8264.041
8262.477
8260.867
8259.216
8257.528
8255.807
8254.055
8252.275
8250.469
8248.639
8246.784
8244.906
8243.004
8241.076
8239.121
8237.139
8235.126
8233.081
8231.001
8228.889
8226.751
8224.597
8222.429
8220.25
8218.057
8215.848
8213.624
8211.385
8209.132
8206.867
8204.59
8202.303
8200.007
8197.704
8195.396
8193.085
8190.773
8188.463
8186.156
8183.855
8181.561
8179.277
8177.004
8174.744
8172.499
8170.269
8168.055
8165.86
8163.682
8161.525
8159.386
8157.268
8155.169
8153.091
8151.033
8148.992
8146.968
8144.959
8142.961
8140.971
8138.984
8136.995
8135.002
8133.001
8130.993
8128.98
8126.969
8124.962
8122.963
8120.971
8118.987
8117.011
8115.043
8113.084
8111.136
8109.207
8107.299
8105.415
8103.555
8101.719
8099.905
8098.114
8096.343
8094.592
8092.858
8091.14
8089.437
8087.747
8086.069
8084.401
8082.742
8081.091
8079.446
8077.806
8076.17
8074.537
8072.906
8071.275
8069.644
8068.011
8066.375
8064.736
8063.092
8061.443
8059.786
8058.122
8056.449
8054.767
8053.074
8051.371
8049.655
8047.926
8046.184
8044.428
8042.657
8040.871
8039.068
8037.25
8035.414
8033.561
8031.69
8029.801
8027.894
8025.968
8024.023
8022.059
8020.076
8018.074
8016.053
8014.012
8011.952
8009.873
8007.774
8005.657
8003.52
8001.363
7999.188
7996.994
7994.782
7992.553
7990.308
7988.049
7985.78
7983.506
7981.235
7978.979
7976.756
7974.588
7972.508
7970.554
7968.779
7967.229
7965.972
7965.037
7964.481
7964.297
5530.268
5506.093
5447.742
5399.098
5349.291
5300.662
5253.417
5207.281
5161.722
5116.517
5071.886
5025.494
4977.871
4928.844
4878.449
4826.534
4773.172
4718.401
4662.313
4605.663
4549.981
4494.037
4437.965
4382.126
4326.754
4272.367
4220.092
4170.739
4125.122
4084.161
4049.215
4021.306
4000.574
3987.009
3981.006
3983.091
3993.927
4014.201
4044.523
4085.513
4137.552
4200.987
4276.008
4362.643
4460.749
4569.971
4689.846
4819.963
4959.479
5107.269
5262.037
5422.364
5588.524
5760.508
5936.347
6113.911
6290.118
6461.174
6623.669
6774.346
6909.485
7025.71
7120.247
7191.02
7236.922
7257.723
7254.202
7228.041
7181.26
7115.174
7031.748
6934.795
6826.444
6709.825
6587.509
6461.316
6333.969
6208.288
6085.773
5968.026
5856.942
5753.441
5657.646
5569.377
5488.373
5413.419
5344.033
5279.136
5218.004
5160.707
5107.772
5059.101
5014.208
4973.528
4939.449
4916.988