/*--------------------------------*- C++ -*----------------------------------*\
| =========                 |                                                 |
| \\      /  F ield         | foam-extend: Open Source CFD                    |
|  \\    /   O peration     | Version:     3.1                                |
|   \\  /    A nd           | Web:         http://www.extend-project.de       |
|    \\/     M anipulation  |                                                 |
\*---------------------------------------------------------------------------*/
FoamFile
{
    version     2.0;
    format      ascii;
    class       volScalarField;
    location    "15";
    object      alpha1;
}
// * * * * * * * * * * * * * * * * * * * * * * * * * * * * * * * * * * * * * //

dimensions      [0 0 0 0 0 0 0];

internalField   nonuniform List<scalar> 
119952
(
1
1
1
1
1
1
1
1
1
1
1
0.9999999
1
1
0.9999999
1
1
1
1
1
1
1
0.9999999
1
1
1
1
1
1
1
1
1
1
1
1
1
1
1
1
1
1
1
1
1
1
1
1
1
1
1
0.9999999
1
1
1
1
1
1
1
1
1
1
1
1
1
1
1
1
1
1
1
1
1
1
1
1
1
1
1
1
1
1
1
1
0.9999999
1
1
1
1
0.9999998
1
1
1
1
1
1
0.9999998
0.9999998
1
1
1
1
0.9999999
1
1
1
1
1
1
1
1
1
1
1
1
1
1
1
1
1
1
1
1
1
1
1
1
1
1
1
1
1
1
1
1
1
0.9999999
0.9999999
1
1
1
1
1
1
1
1
0.9999996
0.9999992
0.9999999
1
1
1
1
0.9999999
0.9999998
1
1
1
1
1
1
1
1
1
1
1
1
1
1
1
1
1
1
1
1
1
1
0.9999999
0.9999999
1
1
1
1
1
1
0.9999999
1
1
1
1
1
1
1
1
1
1
1
1
1
1
1
1
1
1
1
1
1
1
1
1
1
1
1
1
1
1
1
1
1
1
1
1
1
1
1
1
1
1
1
1
1
1
1
1
1
1
1
1
1
1
1
1
1
1
1
1
1
1
1
1
1
1
1
1
1
1
1
1
1
1
1
1
1
1
1
1
1
1
1
1
1
1
1
1
1
1
1
1
1
1
1
1
1
1
1
1
1
1
1
1
1
1
1
1
1
1
1
1
1
1
1
1
1
1
1
1
1
1
1
1
1
1
1
1
1
1
1
1
1
1
1
1
1
1
1
1
1
1
1
1
1
1
1
1
1
1
1
1
1
1
1
1
1
1
1
1
1
1
1
1
1
1
1
1
1
1
1
1
1
1
0.9999999
1
1
1
0.9999999
1
1
1
1
1
0.9999998
0.9999999
1
1
1
1
1
0.9999999
0.9999999
1
0.9999999
0.9999998
1
1
0.9999998
0.9999998
1
1
1
1
1
1
1
1
1
1
1
1
1
1
1
1
1
1
1
1
1
1
1
1
1
1
1
1
1
1
0.9999999
1
1
0.9999999
0.9999998
1
1
0.9999999
1
0.9999999
0.9999998
1
1
1
1
0.9999999
1
1
1
0.9999999
1
1
1
1
1
1
0.9999999
1
1
1
1
1
1
1
1
1
1
1
1
1
1
1
1
1
1
1
1
1
1
1
1
1
1
1
0.9999999
0.9999999
1
1
1
1
1
1
1
1
1
1
1
1
1
1
1
1
1
1
1
1
1
1
1
1
1
1
1
1
1
1
1
1
1
1
1
1
1
1
1
1
1
1
1
1
1
1
0.9999999
0.9999999
1
1
1
1
1
1
0.9999999
1
1
1
1
1
1
1
1
1
1
1
1
1
1
1
1
1
1
1
1
1
1
1
1
1
1
1
1
1
0.9999999
0.9999999
0.9999999
0.9999999
0.9999999
1
1
1
1
1
1
1
1
1
1
1
1
0.9999999
0.9999999
0.9999999
1
1
1
1
1
1
1
1
0.9999999
0.9999999
1
1
1
1
0.9999999
0.9999999
1
1
1
1
1
1
1
1
1
0.9999999
0.9999999
1
1
1
1
1
1
1
1
1
1
1
1
1
1
1
1
1
1
0.9999999
0.9999999
1
1
1
1
1
1
1
1
1
1
1
1
1
1
1
1
1
1
1
1
1
1
1
1
1
1
1
1
1
1
1
1
1
1
1
1
1
1
1
1
1
1
1
1
1
1
1
1
1
1
1
1
1
1
1
1
1
0.9999999
1
1
1
1
1
1
1
1
1
1
1
1
1
1
1
1
1
1
1
1
1
1
1
1
1
1
1
1
1
1
1
1
1
1
1
1
1
1
1
1
1
1
1
1
1
1
1
1
1
1
1
1
1
1
1
1
1
1
1
1
1
1
1
1
1
1
1
1
1
1
1
1
1
1
1
1
1
1
1
1
1
1
1
1
1
1
1
1
1
1
1
1
1
1
0.9999999
0.9999999
1
1
1
1
1
1
1
0.9999999
0.9999999
1
1
1
1
1
1
1
1
1
1
1
0.9999999
0.9999999
1
1
1
1
0.9999999
0.9999995
0.9999996
0.9999998
1
1
1
1
1
1
1
1
1
1
1
1
1
1
1
1
1
1
1
1
1
1
1
1
1
1
1
1
1
1
1
1
1
1
1
1
1
1
1
1
1
1
1
1
1
1
1
1
1
1
1
1
1
1
1
1
1
1
1
1
1
1
1
1
1
1
1
1
1
1
1
1
1
1
1
0.9999999
1
1
1
1
1
1
1
1
0.9999999
0.9999999
1
1
1
1
1
0.9999999
1
1
1
1
1
1
1
1
1
1
1
1
1
1
1
1
1
1
1
1
1
1
0.9999998
0.9999998
0.9999999
0.9999999
1
1
1
1
1
1
1
1
1
1
1
1
1
1
1
1
1
1
1
1
1
1
1
1
1
1
1
1
1
1
1
1
1
1
1
1
1
1
1
1
1
1
1
1
1
1
1
1
1
1
1
1
1
1
1
1
1
1
1
1
1
1
1
1
1
1
1
1
1
1
0.9999999
1
1
1
1
1
1
1
1
1
0.9999999
0.9999994
0.999998
0.9999949
0.9999949
0.9999961
0.9999983
0.9999998
1
1
1
1
1
1
1
1
1
1
1
0.9999999
0.9999999
0.9999999
1
1
1
1
1
1
1
1
0.9999999
0.9999999
1
1
1
1
1
1
1
1
0.9999999
0.9999999
0.9999999
1
1
1
1
1
1
1
1
0.9999999
0.9999999
1
1
1
1
1
1
1
1
1
1
1
1
1
1
1
1
0.9999999
1
1
1
1
1
1
1
1
1
1
1
1
1
1
1
1
1
1
1
1
1
1
1
1
1
1
1
1
1
1
1
1
1
1
1
1
1
1
1
1
1
1
1
1
1
1
1
1
1
1
1
1
1
1
1
1
1
1
1
1
1
1
1
0.9999999
0.9999999
1
1
1
1
1
1
1
1
1
1
1
1
0.9999999
0.9999999
1
1
1
1
1
1
1
1
1
1
1
1
1
1
1
1
1
1
1
1
1
1
1
1
1
1
1
1
1
1
1
1
1
1
1
1
1
0.9999999
0.9999999
0.9999999
1
1
1
1
1
0.9999999
0.9999999
1
1
1
1
1
1
1
1
1
1
1
1
1
1
1
1
1
1
1
1
0.9999999
0.9999996
0.9999997
0.9999999
1
1
1
1
1
1
1
1
0.9999999
0.9999999
0.9999999
0.9999999
1
1
1
1
1
0.9999999
0.9999997
0.9999988
0.9999948
0.9999917
0.9999951
0.999999
1
1
1
1
1
0.9999999
0.9999993
0.9999992
0.9999992
0.9999997
1
1
1
1
1
1
1
1
1
1
1
1
1
1
1
1
1
1
1
1
1
1
1
1
1
1
1
1
1
1
1
1
1
1
1
1
1
1
1
1
1
1
1
1
1
1
1
1
1
1
1
1
1
1
1
1
1
1
1
1
1
1
1
1
1
1
1
1
0.9999999
0.9999999
0.9999999
0.9999999
1
1
1
1
1
1
1
1
1
1
1
1
1
1
1
1
1
1
1
1
1
1
1
1
1
1
1
1
1
1
0.9999999
0.9999999
0.9999999
1
1
1
1
1
1
1
0.9999999
0.9999999
0.9999999
0.9999999
0.9999999
1
1
1
1
1
1
1
1
0.9999998
0.9999987
0.9999986
0.9999991
0.9999997
1
1
1
1
1
1
1
1
1
1
1
1
1
1
1
1
1
1
1
1
1
1
1
1
1
1
1
1
1
1
1
1
1
1
1
0.9999999
0.9999998
0.9999999
1
1
1
1
1
1
1
1
1
1
1
1
1
1
1
1
0.9999999
0.9999995
0.9999986
0.9999983
0.9999992
0.9999999
1
1
1
1
1
1
1
1
1
0.9999999
1
1
1
1
1
1
0.9999999
0.999999
0.9999931
0.9999557
0.9997998
0.9996123
0.9996109
0.9997823
0.9999575
0.9999976
1
1
1
1
1
1
1
1
0.9999999
0.9999998
0.9999997
0.9999997
0.9999999
1
1
1
1
1
1
1
1
1
1
0.9999999
0.9999999
0.9999999
0.9999999
1
1
1
1
1
1
1
1
0.9999999
1
1
1
1
1
1
0.9999999
0.9999998
0.9999999
1
1
1
1
1
1
1
1
1
1
1
1
1
1
1
0.9999999
0.9999998
0.9999999
1
1
1
1
1
1
1
1
1
1
1
1
1
1
1
1
1
1
1
1
1
1
1
1
1
1
1
1
1
1
1
1
1
1
1
1
1
1
1
1
1
1
1
1
1
1
1
1
1
1
1
1
1
1
1
1
1
1
1
1
1
1
1
1
1
1
1
1
1
1
1
1
1
1
1
1
1
1
0.9999999
0.9999999
0.9999999
1
1
1
1
1
1
1
1
1
1
1
1
1
1
1
1
0.9999999
0.9999999
0.9999999
1
1
1
1
1
1
1
1
1
1
1
1
1
1
1
1
0.9999999
0.9999999
0.9999999
1
1
1
1
0.9999999
0.9999999
1
1
1
1
1
1
0.9999999
0.9999999
0.9999999
1
1
1
1
1
1
1
1
1
0.9999999
0.9999997
0.9999987
0.9999976
0.9999986
0.9999997
1
1
1
1
1
1
0.9999998
0.9999993
0.9999978
0.9999975
0.9999988
0.9999998
1
1
1
1
0.9999998
0.9999993
0.999997
0.9999865
0.9999569
0.9999517
0.9999782
0.9999971
0.9999999
1
1
1
1
1
1
0.9999997
0.9999993
0.9999996
0.9999999
1
1
1
1
1
1
1
1
1
1
1
1
1
1
1
1
1
1
1
1
1
1
1
1
1
1
1
1
1
1
1
1
1
1
1
1
1
1
1
1
1
1
1
1
1
1
1
1
1
1
1
1
1
1
1
1
1
1
1
1
1
1
1
1
1
1
1
1
1
1
1
1
1
1
1
1
1
1
1
1
1
1
0.9999999
0.9999999
0.9999999
1
1
1
1
1
1
1
1
1
1
1
1
1
1
1
1
1
1
1
1
1
1
1
1
1
1
1
1
0.9999999
0.9999999
1
1
1
1
1
1
1
1
1
1
1
1
0.9999999
1
1
1
1
1
1
1
1
0.9999999
0.9999988
0.9999917
0.9999905
0.9999935
0.999998
0.9999998
1
1
1
1
1
1
1
1
1
0.9999999
0.9999997
0.9999988
0.9999972
0.9999975
0.9999992
0.9999999
1
1
1
1
1
1
1
1
1
1
1
1
1
0.9999999
0.9999995
0.9999972
0.9999921
0.9999924
0.9999958
0.9999991
0.9999999
0.9999999
0.9999998
0.9999997
0.9999994
0.9999992
0.9999989
0.9999986
0.9999981
0.9999976
0.9999983
0.9999996
0.9999999
0.9999998
0.9999996
0.9999985
0.9999933
0.9999821
0.999983
0.9999944
0.9999996
1
1
1
1
1
1
1
1
1
1
1
1
1
1
1
0.9999999
0.9999983
0.9999837
0.9998497
0.9989461
0.9961975
0.9932046
0.9951576
0.9986844
0.9998818
0.9999972
0.9999998
0.9999998
0.9999998
0.9999996
0.9999993
0.9999989
0.9999979
0.9999942
0.9999826
0.9999796
0.999989
0.9999984
0.9999999
1
1
1
1
1
1
1
1
1
1
1
1
0.9999999
0.9999999
0.9999999
1
1
1
1
1
1
1
1
1
1
1
1
1
0.9999999
0.9999997
0.9999993
0.9999996
0.9999999
1
1
1
1
1
1
1
1
1
0.9999998
0.999999
0.9999974
0.9999935
0.9999853
0.9999868
0.9999954
0.9999994
1
1
1
1
1
1
1
1
1
1
1
1
1
1
1
1
1
1
1
1
1
1
1
1
1
1
1
1
1
1
1
1
1
1
1
1
1
1
1
1
1
1
1
1
1
1
1
1
1
1
1
1
1
1
1
1
1
1
1
1
1
1
1
1
1
1
1
1
1
1
1
1
1
1
1
1
1
1
1
1
1
1
1
1
1
1
1
1
1
1
1
1
1
1
1
1
0.9999999
0.9999997
0.9999996
0.9999997
0.9999999
1
1
1
1
1
1
1
1
1
1
1
1
1
1
1
1
0.9999999
0.9999999
1
0.9999999
0.9999999
0.9999996
0.9999992
0.9999995
0.9999999
1
1
1
1
1
0.9999998
0.9999997
0.9999998
1
1
1
1
1
1
1
1
0.9999999
0.9999995
0.9999974
0.9999894
0.9999869
0.9999941
0.9999992
1
1
1
1
0.9999998
0.9999989
0.9999947
0.9999793
0.999967
0.9999799
0.9999957
0.9999995
0.9999995
0.9999995
0.9999995
0.9999993
0.9999984
0.9999931
0.9999658
0.9998411
0.9996455
0.9996996
0.9999027
0.9999913
0.9999998
1
1
1
1
1
1
1
1
0.9999999
0.9999998
0.9999998
0.9999998
0.9999996
0.9999995
0.9999998
1
1
1
1
1
1
1
1
1
1
1
1
1
1
1
1
1
1
1
1
1
1
1
1
1
1
1
1
1
1
1
1
1
1
1
1
1
1
1
1
1
1
1
1
1
1
1
1
1
1
1
1
1
1
1
1
1
1
1
1
1
1
1
1
1
1
1
1
1
1
1
1
1
1
1
1
1
1
1
1
1
1
1
1
1
1
1
1
1
1
1
1
1
1
1
1
1
1
1
1
1
1
1
1
1
1
1
1
1
1
1
1
1
1
1
1
1
1
1
1
1
1
1
1
1
1
1
1
1
1
1
1
1
1
1
1
1
1
1
1
1
1
1
0.9999997
0.9999931
0.9999577
0.99995
0.9999654
0.9999887
0.9999986
0.9999997
0.9999997
0.9999997
0.9999996
0.9999994
0.9999978
0.999988
0.9999303
0.9996956
0.9996204
0.9997869
0.9999681
0.9999989
1
1
1
1
1
1
1
1
1
0.9999998
0.9999998
0.9999999
0.9999999
0.9999998
0.9999984
0.9999853
0.9999286
0.99987
0.9998969
0.999966
0.9999958
0.9999997
0.9999996
0.9999985
0.9999931
0.9999761
0.9999282
0.9998035
0.9996559
0.9996654
0.9998375
0.9999775
0.9999989
0.9999991
0.9999976
0.999993
0.9999779
0.9999255
0.9998524
0.9998887
0.9999738
0.9999985
1
1
1
1
1
1
1
1
1
1
1
1
1
0.9999999
0.9999999
0.9999996
0.9999961
0.9999377
0.9992942
0.9948542
0.9727926
0.9634177
0.9803018
0.9963913
0.9998342
0.9999961
0.9999972
0.9999961
0.9999927
0.9999808
0.9999282
0.9996714
0.9985151
0.9978863
0.9986095
0.9997082
0.999984
0.9999994
0.9999999
0.9999999
0.9999999
0.9999998
0.9999988
0.9999976
0.9999983
0.9999995
1
1
1
1
1
1
0.9999999
0.9999999
1
1
1
1
1
1
1
1
1
1
1
1
1
0.9999997
0.9999983
0.9999974
0.9999987
0.9999998
1
1
1
1
1
1
1
0.9999997
0.9999978
0.9999874
0.9999485
0.999814
0.9996686
0.999781
0.9999413
0.9999951
0.9999999
1
1
1
1
1
1
1
1
1
1
1
1
1
1
1
0.9999999
0.9999999
0.9999999
1
1
1
1
1
1
1
1
1
1
1
1
1
1
1
1
1
1
1
1
1
1
1
1
1
1
1
1
1
1
1
1
1
1
1
1
1
1
1
1
1
1
1
1
1
1
1
1
1
1
1
0.9999999
0.9999999
1
1
1
1
1
0.9999999
0.9999999
1
1
1
1
1
1
1
1
1
1
1
1
1
1
1
1
1
1
1
0.9999997
0.9999987
0.9999984
0.9999989
0.9999997
0.9999999
0.9999999
0.9999999
0.9999999
1
1
1
1
1
1
1
0.9999999
0.9999999
0.9999999
1
1
1
0.9999999
0.9999996
0.9999978
0.9999936
0.9999941
0.9999979
0.9999998
1
1
1
1
1
1
0.9999999
0.9999996
0.9999997
0.9999999
1
1
1
1
1
0.9999999
0.9999994
0.9999964
0.9999767
0.9999193
0.9999319
0.9999797
0.9999982
0.9999999
1
0.9999999
0.9999991
0.999995
0.9999736
0.9998812
0.9996989
0.9997333
0.9999125
0.9999903
0.999994
0.9999857
0.9999577
0.9999268
0.9999261
0.9999394
0.9999447
0.9998476
0.9988906
0.9982604
0.9985142
0.999454
0.9999273
0.9999971
1
1
1
1
1
1
1
1
0.9999998
0.9999994
0.9999977
0.9999923
0.9999896
0.9999946
0.9999991
1
1
1
1
1
1
1
1
1
1
1
1
1
1
1
1
1
1
1
1
1
1
1
1
1
1
1
1
1
1
1
1
1
1
1
1
1
1
1
1
1
1
1
1
1
1
1
1
1
1
1
1
1
1
1
1
1
1
1
1
1
1
1
1
1
1
1
1
1
1
1
1
1
1
1
1
1
1
1
1
1
1
1
1
1
1
1
1
1
1
1
1
1
1
1
1
1
1
1
1
1
1
1
1
1
1
1
1
1
1
1
1
0.9999999
0.9999996
0.999999
0.9999988
0.9999989
0.9999994
0.9999998
1
1
1
0.9999999
0.9999998
0.9999997
0.9999996
0.9999996
0.9999997
0.9999998
0.9999999
1
1
1
1
1
1
1
1
1
1
0.9999999
0.9999998
0.9999993
0.9999987
0.9999986
0.9999987
0.9999992
0.9999997
0.9999998
0.9999995
0.9999939
0.9999348
0.9997903
0.9997855
0.9998533
0.9999449
0.999988
0.9999933
0.9999917
0.9999769
0.9998551
0.9988315
0.9941251
0.9933245
0.9968976
0.9995896
0.9999785
0.999999
1
1
1
1
1
1
1
0.9999997
0.9999983
0.9999977
0.9999984
0.9999996
0.9999996
0.9999979
0.9999777
0.9998307
0.9993058
0.9990268
0.9994477
0.9998751
0.9999879
0.9999934
0.9999912
0.9999866
0.9999689
0.9998775
0.9993637
0.9971674
0.9955521
0.9966379
0.998795
0.9998564
0.9999953
0.9999984
0.9999799
0.9998623
0.9994761
0.9988346
0.998686
0.9992955
0.9998963
0.9999963
1
1
1
0.9999997
0.9999996
0.9999998
1
1
1
1
1
0.9999999
0.9999983
0.9999867
0.9999621
0.9999618
0.9999795
0.9999448
0.9993492
0.9904559
0.9334133
0.9230851
0.9570172
0.9926396
0.9994343
0.999884
0.9998967
0.9998851
0.9997431
0.998434
0.9865567
0.9506587
0.9535597
0.9828135
0.9977324
0.9998659
0.9999885
0.9999986
0.9999986
0.9999973
0.9999853
0.9999407
0.9999408
0.999977
0.9999967
0.9999998
1
1
1
1
1
1
1
1
1
1
1
1
1
1
1
1
1
1
1
1
1
0.9999996
0.9999956
0.9999921
0.9999957
0.999999
0.9999997
0.9999998
0.9999997
0.9999997
0.9999997
0.9999995
0.9999988
0.9999957
0.9999722
0.9998238
0.999126
0.9974584
0.9979998
0.9994276
0.99995
0.9999987
1
1
1
1
1
1
1
1
1
1
0.9999998
0.999999
0.9999942
0.9999661
0.9999291
0.9999445
0.9999823
0.9999984
1
1
1
1
1
1
1
1
1
1
0.9999999
0.9999999
0.9999999
1
1
1
1
1
1
1
1
1
1
1
1
1
1
1
1
1
1
1
1
1
1
1
1
1
1
1
1
1
1
1
1
1
1
1
1
1
1
1
0.9999998
0.9999998
0.9999999
1
1
1
1
0.9999999
0.9999998
0.9999998
1
1
1
1
1
1
1
1
1
1
1
1
1
1
1
1
1
1
1
0.9999997
0.9999972
0.9999939
0.9999966
0.9999993
1
1
1
1
1
1
1
1
0.9999999
0.9999996
0.9999988
0.9999987
0.9999993
0.9999999
1
1
1
0.9999994
0.9999931
0.9999682
0.9999765
0.9999937
0.9999995
1
1
1
1
1
1
1
0.9999999
0.9999996
0.9999994
0.9999994
0.9999994
0.9999996
0.9999997
0.9999997
0.9999996
0.9999983
0.9999754
0.9997689
0.9996804
0.9997642
0.9999422
0.9999961
0.9999999
1
0.9999996
0.9999941
0.9999519
0.9996815
0.9984185
0.9974628
0.9985026
0.9997072
0.9999763
0.9999759
0.9999292
0.9997056
0.9990114
0.9980359
0.9980196
0.9983303
0.9983488
0.9982596
0.9982596
0.9982611
0.9982596
0.9982596
0.9982596
0.9986703
0.9996895
0.999984
0.9999999
1
0.9999999
0.9999996
0.9999987
0.9999956
0.999985
0.9999481
0.9998943
0.9999172
0.9999774
0.9999982
1
1
1
1
1
0.9999999
0.9999996
0.9999996
0.9999999
1
1
1
1
1
1
1
1
1
1
1
1
1
1
1
1
1
1
1
1
1
1
1
1
1
1
1
1
1
1
1
1
1
1
1
1
1
1
1
1
1
1
1
1
1
1
1
1
1
1
1
1
1
1
1
1
1
1
1
1
1
1
1
1
1
1
1
1
1
1
1
1
1
1
1
1
1
1
1
1
1
1
1
1
1
1
1
1
1
1
1
1
1
1
0.9999999
0.9999998
0.9999998
0.9999998
0.9999998
0.9999996
0.9999993
0.9999992
0.9999991
0.9999947
0.9999427
0.9997663
0.9996065
0.9996623
0.999804
0.9999326
0.9999857
0.9999919
0.999991
0.9999839
0.9999572
0.9998875
0.9997517
0.999525
0.9992603
0.9992569
0.9996915
0.9999674
0.9999994
1
1
1
1
0.9999995
0.9999981
0.9999985
0.9999994
0.999999
0.999995
0.9999757
0.9999432
0.9999395
0.9999445
0.9999572
0.9999735
0.9999751
0.9999705
0.9999591
0.9999196
0.9997527
0.9993038
0.9989459
0.9989498
0.9990979
0.9994818
0.9998451
0.9998143
0.9979006
0.9755648
0.9630454
0.9759976
0.9949944
0.999614
0.9999853
0.9999999
1
1
1
1
0.9999999
0.9999994
0.9999938
0.9999485
0.9999236
0.9999404
0.9999842
0.9999988
0.9999983
0.9999854
0.9998316
0.9989011
0.9962396
0.9959914
0.9981294
0.9996561
0.9997107
0.9994359
0.9987525
0.9971251
0.9958207
0.9951242
0.9926242
0.9871169
0.9851978
0.9859972
0.9892674
0.995238
0.9993007
0.9999776
0.9999912
0.9998932
0.9979085
0.9861319
0.9872144
0.9953814
0.9995204
0.999988
0.9999999
0.9999999
0.9999991
0.9999973
0.999998
0.9999995
1
1
1
1
1
0.9999989
0.9999764
0.9996826
0.9984575
0.9978534
0.9987907
0.9997348
0.9995631
0.9967551
0.9597268
0.8849707
0.938239
0.9732857
0.9728273
0.9728798
0.9781948
0.9905232
0.9934945
0.9742049
0.8466669
0.8280261
0.9135067
0.9856091
0.9986583
0.9999205
0.9999689
0.999968
0.9999262
0.9995899
0.9992715
0.9994998
0.9998704
0.9999849
0.9999978
0.9999997
1
1
1
1
1
1
1
1
1
1
1
1
1
1
1
1
0.9999998
0.9999993
0.9999991
0.9999993
0.9999998
0.9999997
0.9999987
0.9999919
0.9999906
0.9999909
0.9999884
0.9999824
0.9999808
0.9999808
0.9999792
0.9999687
0.999922
0.9997966
0.9996458
0.9992419
0.9955438
0.9929845
0.9941636
0.9982028
0.999848
0.9999975
1
1
1
0.9999999
0.9999999
0.9999999
0.9999998
0.9999994
0.9999972
0.999985
0.9999135
0.9994775
0.9982878
0.9983359
0.9993641
0.9999118
0.9999936
0.999999
0.9999999
1
1
1
1
1
1
1
0.9999998
0.9999995
0.9999995
0.9999998
1
1
1
1
1
1
1
1
1
1
1
1
1
1
1
1
1
1
1
1
1
1
1
1
1
1
1
1
1
1
1
1
1
1
1
1
1
1
1
0.9999999
0.9999996
0.9999993
0.9999997
0.9999999
1
1
1
0.9999999
0.9999993
0.9999994
0.9999998
1
1
1
1
1
1
0.9999999
0.9999999
0.9999999
0.9999999
1
1
1
1
1
1
1
1
0.9999998
0.999997
0.9999878
0.9999916
0.9999973
0.9999997
1
1
1
1
1
1
0.9999999
0.9999993
0.9999961
0.9999883
0.9999895
0.9999965
0.9999996
1
1
1
0.9999999
0.9999965
0.9999704
0.9999642
0.9999765
0.9999929
0.9999979
0.9999982
0.9999985
0.9999992
0.9999995
0.9999994
0.9999982
0.9999925
0.9999733
0.9999275
0.9999283
0.9999726
0.9999968
0.9999997
0.9999979
0.999971
0.9997219
0.9995671
0.9996931
0.9999186
0.9999601
0.9999544
0.9999661
0.999991
0.9999994
0.9999998
0.9999985
0.9999614
0.9991475
0.9935719
0.9919897
0.9940351
0.9985891
0.9998578
0.9997734
0.9994885
0.9986744
0.9951343
0.9939713
0.9939713
0.9939713
0.9946444
0.9983019
0.9998492
0.9999526
0.9999437
0.9999137
0.9998409
0.9998174
0.9998471
0.9999277
0.9999889
0.9999996
0.9999998
0.9999976
0.9999792
0.9998934
0.9995606
0.998927
0.9989037
0.9995077
0.9999338
0.9999975
0.9999999
0.9999999
0.9999999
0.9999996
0.9999986
0.999995
0.9999936
0.999997
0.9999996
1
1
1
1
1
1
1
1
1
1
1
1
1
1
1
1
1
1
1
1
1
1
1
1
1
1
1
1
1
1
1
1
1
1
1
1
1
1
1
1
1
1
1
1
1
1
1
1
1
1
1
1
1
1
1
1
1
1
1
1
1
1
1
1
1
1
1
1
1
1
1
1
1
1
1
1
1
1
1
1
1
1
1
1
1
1
1
1
1
1
1
1
0.9999999
0.9999998
0.9999997
0.9999996
0.9999993
0.9999993
0.9999993
0.9999995
0.9999995
0.9999986
0.9999941
0.9999814
0.9999624
0.9999542
0.9999547
0.999961
0.9999774
0.9999894
0.9999897
0.999984
0.9999609
0.99992
0.9998974
0.9998888
0.9998586
0.999739
0.9996955
0.9997624
0.999743
0.9989856
0.9940035
0.9885324
0.9895852
0.9940412
0.9979561
0.9992381
0.9992787
0.9992599
0.9991069
0.998398
0.9956263
0.9826566
0.9441437
0.9418583
0.9789842
0.998109
0.9999602
0.9999989
0.9999995
0.9999995
0.9999992
0.9999977
0.9999899
0.9999695
0.9999708
0.999989
0.9999977
0.9999944
0.9999473
0.9996624
0.9992375
0.9992204
0.9992319
0.9991518
0.9988115
0.9975325
0.9935965
0.9910862
0.9914531
0.9911575
0.9877792
0.9795918
0.9761573
0.97875
0.9896357
0.9963073
0.9918871
0.9619288
0.9591574
0.978495
0.9946832
0.9995223
0.9999899
0.9999986
0.9999987
0.9999986
0.9999985
0.9999967
0.9999759
0.9997653
0.99959
0.9996996
0.9999216
0.9999945
0.9999986
0.9999979
0.9999893
0.9998938
0.9991132
0.9960721
0.9874324
0.988544
0.9947493
0.9968755
0.9956012
0.9855957
0.9503773
0.9313748
0.9065086
0.8454043
0.8399106
0.8445914
0.7396027
0.5588711
0.6240619
0.8481825
0.9764103
0.9987988
0.9999808
0.999934
0.9983574
0.982681
0.9749693
0.9777582
0.9930422
0.9994722
0.9999926
0.9999986
0.9999907
0.999988
0.9999941
0.9999991
1
1
1
1
1
0.9999996
0.9999791
0.9992793
0.9917824
0.9798899
0.9854826
0.996163
0.9987632
0.9962384
0.9828321
0.9467752
0.8851915
0.8371168
0.7539602
0.6103717
0.6228759
0.7675343
0.8456463
0.7932433
0.7210595
0.8195915
0.9596788
0.9953092
0.9996791
0.9997784
0.9995919
0.9980071
0.9936628
0.9931921
0.9966371
0.999424
0.9999321
0.9999897
0.9999993
0.9999999
0.9999999
0.9999999
0.9999999
0.9999999
0.9999999
1
1
1
1
1
1
1
1
0.9999999
0.9999998
0.9999996
0.9999992
0.9999951
0.9999823
0.9999852
0.9999953
0.9999994
0.9999995
0.9999989
0.9999947
0.9999605
0.9998005
0.9995841
0.9995929
0.9996927
0.9996907
0.9994874
0.9986942
0.9973317
0.9941525
0.9929161
0.992938
0.992952
0.9929845
0.9955496
0.9990684
0.9999488
0.9999993
0.9999997
0.9999983
0.9999941
0.999988
0.9999859
0.9999862
0.9999866
0.9999693
0.9996328
0.9947431
0.9796074
0.9840715
0.9952417
0.9995209
0.9999622
0.9999967
0.9999999
1
1
1
1
1
1
0.9999997
0.9999981
0.9999975
0.9999984
0.9999996
0.9999999
1
1
1
1
1
1
1
1
1
1
1
1
1
0.9999999
0.9999997
0.9999995
0.9999997
0.9999999
1
1
1
1
1
1
1
1
1
0.9999999
1
1
1
1
1
1
1
1
1
1
1
0.9999999
0.9999994
0.9999983
0.9999988
0.9999997
1
1
1
0.9999999
0.9999992
0.9999988
0.999999
0.9999997
0.9999999
0.9999999
0.9999999
0.9999998
0.9999997
0.9999997
0.9999997
0.9999999
1
1
0.9999999
0.9999998
0.9999996
0.9999998
0.9999999
1
0.9999999
0.9999994
0.9999938
0.9999786
0.9999863
0.9999958
0.9999995
0.9999999
0.9999999
0.9999999
0.9999999
0.9999999
0.9999997
0.9999983
0.9999928
0.9999716
0.9999412
0.999958
0.9999894
0.9999992
1
1
1
1
1
0.9999996
0.9999971
0.999988
0.9999574
0.9998913
0.9998543
0.9998663
0.9999327
0.9999828
0.9999819
0.9999604
0.9998188
0.9992278
0.9991806
0.9996133
0.9999464
0.9999978
0.9999993
0.9999985
0.9999772
0.9996835
0.9991738
0.9995538
0.9999174
0.9999844
0.999984
0.9999833
0.999984
0.9999872
0.9999916
0.9999918
0.9999872
0.9999119
0.9983888
0.9924511
0.9919897
0.9960869
0.9994931
0.9993523
0.9949862
0.9874148
0.9873952
0.9934197
0.9987739
0.9999186
0.9999847
0.9999844
0.9999796
0.9999609
0.9999079
0.9997314
0.9991881
0.9988752
0.9994148
0.9998963
0.9999953
0.9999999
0.9999999
0.9999996
0.999992
0.9998426
0.9976092
0.9921993
0.9932344
0.9976009
0.9997362
0.999993
0.9999993
0.9999989
0.9999967
0.9999878
0.9999557
0.9999215
0.99995
0.9999893
0.9999993
1
1
1
1
1
1
1
1
1
1
1
0.9999999
1
1
1
1
1
1
1
1
1
1
1
1
1
1
1
1
1
1
1
1
1
1
1
1
1
1
1
1
1
1
1
1
1
1
1
1
1
1
1
1
1
1
1
1
1
1
1
1
1
1
1
1
1
1
1
1
1
1
1
1
1
1
1
1
1
1
1
1
1
1
1
1
1
1
1
1
1
1
1
1
1
1
1
1
1
1
1
1
1
1
1
1
0.9999997
0.9999961
0.9999721
0.9998947
0.999798
0.9997263
0.9996083
0.9995174
0.9995452
0.9996713
0.9998281
0.9998285
0.9995762
0.9983522
0.9952781
0.9928384
0.9928867
0.9945631
0.9977398
0.9992471
0.9991951
0.998432
0.9961308
0.9938733
0.9931371
0.9917514
0.9853103
0.9830411
0.987876
0.9922735
0.9866851
0.9592882
0.9322542
0.9446053
0.9736767
0.9851653
0.9854106
0.9842933
0.9757599
0.9612195
0.9615744
0.9373175
0.585025
0.3039904
0.5795735
0.9291508
0.9969036
0.9998566
0.9999154
0.9999352
0.999958
0.9999569
0.9998764
0.9993543
0.9992317
0.9995877
0.9999464
0.9999749
0.9999629
0.9999317
0.9997269
0.9986599
0.996612
0.9933685
0.985652
0.9711839
0.9491535
0.9037614
0.7863551
0.729382
0.7642318
0.7667467
0.5883462
0.4338319
0.5576446
0.8376836
0.948229
0.9487058
0.9300922
0.940822
0.9820465
0.9976173
0.9996197
0.9999156
0.9999743
0.9999864
0.9999874
0.9999737
0.9995261
0.9978272
0.9980745
0.9992522
0.9998803
0.9999844
0.9999976
0.9999983
0.9999957
0.9999321
0.9992533
0.9963141
0.9848635
0.97329
0.9792924
0.9786654
0.9666413
0.9454732
0.8972259
0.7588883
0.4732879
0.4862286
0.6348903
0.3675878
0.2105511
0.2105511
0.2110997
0.210555
0.210555
0.2407982
0.6946026
0.9661072
0.999089
0.9997988
0.9981275
0.9808149
0.9749693
0.9862541
0.9974757
0.9998651
0.999984
0.999978
0.9999831
0.9999931
0.9999987
0.9999999
1
1
1
1
0.9999996
0.9999923
0.9997502
0.9925638
0.9534578
0.9523264
0.9816935
0.9928867
0.988447
0.9429062
0.8211399
0.7159767
0.5068224
0.180514
0.06183435
0.06177182
0.09250762
0.1690608
0.1669308
0.1305579
0.2449427
0.7288304
0.9734148
0.9994155
0.999896
0.9996202
0.9938519
0.974279
0.9728204
0.9850443
0.9975253
0.9998838
0.9999987
0.9999999
0.9999999
0.9999999
0.9999999
0.9999995
0.9999991
0.9999995
0.9999999
1
1
1
1
1
0.9999999
0.9999995
0.9999993
0.9999993
0.9999988
0.9999903
0.9999493
0.9999423
0.9999621
0.9999927
0.9999983
0.999997
0.9999781
0.9998321
0.9994173
0.9980924
0.9972804
0.9977283
0.9987404
0.9984781
0.996992
0.9921518
0.9821859
0.9814913
0.9814913
0.991604
0.9987103
0.9999382
0.9999965
0.9999974
0.9999978
0.9999985
0.9999986
0.9999966
0.9999625
0.9996455
0.9980076
0.9940289
0.9932628
0.9968435
0.9977401
0.9907298
0.9708118
0.9705693
0.9761094
0.9938194
0.9996194
0.9999961
1
1
1
1
0.9999999
0.9999995
0.999995
0.999987
0.9999895
0.9999963
0.9999993
0.9999998
1
1
1
1
1
1
1
1
1
0.9999999
0.9999999
0.9999999
1
0.9999999
0.9999994
0.9999978
0.9999979
0.9999992
0.9999999
1
1
1
1
1
0.9999997
0.9999994
0.9999995
0.9999998
1
1
1
1
1
1
1
1
0.9999999
0.9999999
1
1
1
0.9999998
0.9999978
0.9999967
0.9999981
0.9999997
1
1
1
0.9999999
0.9999993
0.9999988
0.9999993
0.9999995
0.9999991
0.9999984
0.9999988
0.9999996
0.9999999
1
1
1
0.9999999
0.9999996
0.9999982
0.9999978
0.9999989
0.9999998
0.9999999
0.9999998
0.9999978
0.9999816
0.9999606
0.9999752
0.9999932
0.9999984
0.9999977
0.9999954
0.9999954
0.9999976
0.9999997
0.9999997
0.9999981
0.9999742
0.9998366
0.9997481
0.9998304
0.9999558
0.999997
0.9999999
0.9999998
0.9999993
0.9999968
0.9999913
0.9999879
0.9999819
0.9999457
0.9997468
0.9989908
0.9976539
0.9982487
0.9995027
0.9999215
0.9998997
0.9995832
0.9974385
0.9965811
0.9975263
0.9994083
0.999961
0.999995
0.9999944
0.999988
0.9999524
0.9997509
0.9989796
0.998787
0.9994845
0.9999093
0.999853
0.9993664
0.9984122
0.9986489
0.9995451
0.999869
0.9996114
0.997729
0.9949123
0.9964645
0.9990967
0.9999098
0.9999654
0.9997925
0.9961492
0.9882161
0.9935949
0.9987947
0.9999039
0.9999919
0.999993
0.9999928
0.9999618
0.9996586
0.995885
0.967432
0.9593274
0.9821663
0.9977113
0.999932
0.9999993
0.9999996
0.9999996
0.9999997
0.9999987
0.9999762
0.9995189
0.9944871
0.9921295
0.993039
0.9976598
0.9997871
0.9999912
0.9999762
0.9998784
0.99953
0.9991221
0.9992593
0.9997637
0.9999771
0.9999992
1
1
1
1
1
1
1
1
1
1
0.9999999
1
1
1
1
1
1
1
1
1
1
1
1
1
1
1
1
1
1
1
1
1
1
1
1
1
1
1
1
1
1
1
1
1
1
1
1
1
1
1
1
1
1
1
1
1
1
1
1
1
1
1
1
1
1
1
1
1
1
1
1
1
1
1
1
1
1
1
1
1
1
1
1
1
1
1
1
1
1
1
1
1
1
1
1
1
1
1
1
1
1
1
1
1
1
1
1
1
1
1
1
0.9999999
0.9999997
0.9999996
0.9999995
0.999999
0.9999969
0.9999894
0.9999657
0.9997739
0.9981871
0.9911066
0.9816089
0.9779438
0.9730538
0.9658932
0.9664633
0.9733199
0.9858843
0.9922124
0.9899455
0.9675158
0.8861305
0.8045953
0.8117226
0.8884898
0.9726003
0.9886928
0.983115
0.9526902
0.9004522
0.8999467
0.9010118
0.8403253
0.7568749
0.8467222
0.948334
0.9274498
0.7809128
0.7714824
0.9108516
0.9554128
0.9267916
0.8082629
0.7837269
0.8163444
0.7844341
0.4932792
0.1579131
0.1483146
0.1417992
0.138592
0.4938684
0.9048053
0.9814457
0.9878457
0.9915424
0.9961105
0.9991749
0.9985709
0.9966546
0.9975151
0.999329
0.9998584
0.9996728
0.9987044
0.9987421
0.9986517
0.9978105
0.9939529
0.971427
0.8926556
0.7498399
0.6128744
0.467374
0.265649
0.0983937
0.03386996
0.03179223
0.03222236
0.0334133
0.03900028
0.07448851
0.1773227
0.2585662
0.3620248
0.6715618
0.9288007
0.993751
0.9996427
0.9997854
0.9997891
0.9993445
0.9955183
0.9930537
0.9958556
0.9989448
0.9993328
0.9991988
0.9995437
0.9999223
0.9999887
0.9999827
0.9999554
0.9998499
0.9990692
0.9893853
0.9550426
0.9602821
0.9604361
0.9160675
0.7866992
0.6003016
0.5476288
0.4324071
0.1855257
0.1765318
0.228316
0.5674364
0.8214877
0.7187687
0.6028443
0.7030473
0.888451
0.892546
0.5577355
0.3636757
0.7297387
0.9649828
0.9979346
0.9985787
0.9929959
0.9918212
0.9957367
0.9992114
0.999931
0.9999752
0.9999875
0.9999947
0.999999
0.9999999
1
1
1
0.9999999
0.9999957
0.9998984
0.9988555
0.9960619
0.9642711
0.9469179
0.9732983
0.9710673
0.9115852
0.8176206
0.5593074
0.1664643
0.1569065
0.3228297
0.3242351
0.1735042
0.03471852
0.01864359
0.01864359
0.01864359
0.01864359
0.02418723
0.2128737
0.800036
0.9886244
0.9998296
0.9996483
0.9946044
0.9739919
0.979986
0.9937631
0.9993868
0.9999874
0.9999999
0.9999999
0.9999999
0.9999994
0.9999973
0.9999974
0.9999989
0.9999998
1
1
1
1
1
0.9999997
0.9999991
0.9999985
0.9999959
0.9999647
0.9999022
0.9999084
0.9999592
0.999993
0.9999972
0.9999955
0.9999714
0.9998195
0.9991638
0.9932564
0.9880465
0.9900547
0.997076
0.9982458
0.9968944
0.9814273
0.9294034
0.9418322
0.9834978
0.9985613
0.9999587
0.999992
0.9999956
0.999996
0.9999965
0.9999979
0.999998
0.9999975
0.9999878
0.9999373
0.9996423
0.9963345
0.9525326
0.8794531
0.9310417
0.9858401
0.9989859
0.9973166
0.9852067
0.9802656
0.9890903
0.9978284
0.9998952
0.9999992
1
1
0.9999998
0.9999969
0.9999729
0.9999601
0.9999719
0.9999921
0.9999982
0.9999996
0.9999999
1
1
1
1
1
1
1
0.9999999
0.9999995
0.9999985
0.9999986
0.9999996
1
0.9999999
0.9999991
0.9999972
0.9999975
0.999999
0.9999998
0.9999999
0.9999999
0.9999996
0.999997
0.9999939
0.9999951
0.9999984
0.9999998
1
1
1
1
1
1
1
1
1
0.9999999
0.9999999
0.9999999
0.9999999
0.9999998
0.9999998
0.9999996
0.9999975
0.9999967
0.9999969
0.9999988
0.9999997
0.9999998
0.9999999
0.9999999
0.9999999
0.9999997
0.9999985
0.9999965
0.9999965
0.9999978
0.9999996
1
1
1
1
0.9999996
0.9999974
0.9999921
0.9999933
0.9999976
0.9999997
0.9999997
0.9999986
0.9999889
0.9999352
0.9999208
0.99995
0.9999881
0.999987
0.9999684
0.9999323
0.9999375
0.9999763
0.9999971
0.9999998
0.9999997
0.9999967
0.9999457
0.99953
0.9993373
0.9995538
0.9998551
0.999985
0.9999926
0.9999714
0.9998444
0.9993611
0.9988179
0.9990916
0.9996874
0.9993746
0.995973
0.9942534
0.9947889
0.998236
0.9994097
0.9989974
0.9950395
0.9919199
0.9926399
0.9970831
0.9996172
0.999984
0.9999898
0.9999781
0.999858
0.9992767
0.9967445
0.9917719
0.9926718
0.9976293
0.99975
0.9995241
0.998082
0.9957137
0.9955494
0.9971876
0.9995558
0.9994911
0.9946846
0.9860586
0.9863978
0.9941901
0.9991922
0.9999643
0.9999735
0.9999336
0.9993747
0.9908836
0.9834098
0.9916449
0.9986768
0.9999511
0.999993
0.9999834
0.9996884
0.9920428
0.9452288
0.9372969
0.9492593
0.9865465
0.9990983
0.9999874
0.9999965
0.9999902
0.999973
0.999966
0.9999666
0.9998454
0.9981148
0.9944011
0.9959913
0.9985947
0.9997932
0.9999889
0.9999773
0.9997236
0.9968589
0.9936865
0.9957623
0.9989404
0.9999206
0.9999987
1
1
1
1
1
1
1
0.9999999
1
1
1
1
0.9999999
1
1
1
1
1
0.9999999
1
1
1
1
1
1
1
1
1
1
1
1
1
1
1
1
1
1
1
1
1
1
1
1
1
1
1
1
1
1
1
1
1
1
1
1
1
1
1
1
1
1
1
1
1
1
1
1
1
1
1
1
1
1
1
1
1
1
1
1
1
1
1
1
1
1
1
1
1
1
1
1
1
1
1
1
1
1
1
1
1
1
1
1
1
1
1
1
1
1
1
1
1
1
1
1
1
1
1
1
1
1
0.9999999
0.9999993
0.9999927
0.9999481
0.9998068
0.9996918
0.9996465
0.9995349
0.9990536
0.9975179
0.9951055
0.989915
0.9601332
0.8400578
0.7051808
0.6902233
0.6698279
0.6160406
0.6164697
0.673567
0.7790917
0.8584817
0.859352
0.6598248
0.2100259
0.0709999
0.1094142
0.4454737
0.8412769
0.875303
0.7168206
0.4315209
0.4388701
0.4251828
0.227275
0.1625633
0.4816991
0.8243174
0.5856233
0.3953644
0.5285997
0.8958889
0.9416277
0.8676051
0.4579725
0.09031206
0.03631248
0.03571652
0.03597259
0.1486017
0.7330136
0.8100918
0.5613559
0.1082211
0.08091473
0.1274318
0.1724295
0.3514471
0.7758032
0.9734995
0.9950386
0.9946414
0.9969746
0.9993449
0.9996665
0.9987112
0.9910015
0.9894451
0.9946173
0.9934807
0.974591
0.8945231
0.6314543
0.1975005
0.04026226
0.0427719
0.04199867
0.03191708
0.03179223
0.03179223
0.03179223
0.04041399
0.0463196
0.03664022
0.03227206
0.03227206
0.03227206
0.03826185
0.1011018
0.4910087
0.9090064
0.9956386
0.9997837
0.9993573
0.992239
0.9863537
0.9879453
0.9958719
0.999576
0.999892
0.999887
0.9998724
0.9999075
0.999825
0.9948954
0.9076236
0.8769267
0.9344457
0.9670271
0.9507296
0.9049305
0.7800398
0.3494139
0.08477636
0.09166159
0.1925789
0.6458447
0.9338098
0.9882652
0.9971664
0.9963248
0.9962732
0.9909339
0.9253477
0.8755699
0.9282823
0.9585184
0.8979202
0.2908357
0.4100999