/*--------------------------------*- C++ -*----------------------------------*\
| =========                 |                                                 |
| \\      /  F ield         | foam-extend: Open Source CFD                    |
|  \\    /   O peration     | Version:     3.1                                |
|   \\  /    A nd           | Web:         http://www.extend-project.de       |
|    \\/     M anipulation  |                                                 |
\*---------------------------------------------------------------------------*/
FoamFile
{
    version     2.0;
    format      ascii;
    class       volScalarField;
    location    "15";
    object      k;
}
// * * * * * * * * * * * * * * * * * * * * * * * * * * * * * * * * * * * * * //

dimensions      [0 2 -2 0 0 0 0];

internalField   nonuniform List<scalar> 
119952
(
0.06018598
0.05384514
0.0501206
0.04684528
0.04400814
0.04185841
0.04083476
0.04054552
0.04073813
0.04124909
0.04196705
0.04281945
0.04374647
0.04466599
0.0456198
0.04666831
0.04783654
0.04913749
0.05060653
0.05248179
0.05589236
0.05633915
0.0581305
0.06128839
0.06098395
0.06166749
0.06228543
0.06265181
0.06182647
0.01166472
0.08491212
0.07970729
0.07565326
0.07269809
0.07064333
0.06930233
0.06852515
0.06820877
0.06828092
0.06875319
0.06784545
0.07047234
0.0746935
0.07958243
0.08456753
0.08951719
0.09439944
0.09923234
0.1039983
0.1203651
0.1247878
0.1287822
0.1322806
0.1353969
0.1381241
0.140401
0.1421768
0.143426
0.1440618
0.1444471
0.1440337
0.1429611
0.1413777
0.1393358
0.1368915
0.1340764
0.130955
0.1277916
0.1266138
0.12288
0.1194379
0.1170169
0.1150187
0.1130245
0.1110543
0.1091647
0.1073516
0.1055911
0.1039043
0.1023412
0.1009681
0.09986035
0.09915922
0.09892264
0.0991305
0.09974227
0.1006889
0.1018872
0.1034267
0.1052817
0.1069483
0.1088371
0.1114518
0.1137353
0.1155399
0.1172799
0.1189691
0.1178593
0.1161141
0.1144779
0.1127173
0.1107522
0.1085333
0.106107
0.1034987
0.1007303
0.09784086
0.09489631
0.09198198
0.08917827
0.08663291
0.08476006
0.08418215
0.0850266
0.08653195
0.08798946
0.08887788
0.08889085
0.0879821
0.08629706
0.08403863
0.08153537
0.07908398
0.07698401
0.0753724
0.07424539
0.07359081
0.07341483
0.07373298
0.07454894
0.07584471
0.07758004
0.07968521
0.08205424
0.08455528
0.08703524
0.08935048
0.09139579
0.09309592
0.09440477
0.09530113
0.09575029
0.09567283
0.09494639
0.09358567
0.09160512
0.08902671
0.08599684
0.08259957
0.07869938
0.07479162
0.07144142
0.06951499
0.06935791
0.07053237
0.07212415
0.0735052
0.07421639
0.07405349
0.07309695
0.07154989
0.06965844
0.06770123
0.0658169
0.06404395
0.06237496
0.06080583
0.05933494
0.05795503
0.05665416
0.05542506
0.05426935
0.05319635
0.05219961
0.05126895
0.05040082
0.04959546
0.04885424
0.04817837
0.04756836
0.04702353
0.0465419
0.04612032
0.04575492
0.04544145
0.04517566
0.04495332
0.04477051
0.04462307
0.04450682
0.04441682
0.04434832
0.044295
0.04425043
0.04420503
0.04414729
0.0440709
0.04407586
0.04403821
0.04383811
0.04349634
0.04306754
0.04258166
0.04205688
0.04150462
0.04093243
0.04035996
0.03980112
0.03927219
0.03878898
0.03836481
0.03800902
0.03773383
0.03755012
0.03746047
0.03740799
0.03732807
0.03724189
0.03714248
0.03700912
0.03682311
0.03656813
0.03622262
0.03575074
0.03510934
0.03423359
0.03308521
0.03323071
0.03592996
0.03843113
0.03904163
0.03830651
0.0371141
0.03603548
0.03477314
0.03336
0.03193018
0.03062002
0.02949258
0.02855415
0.02784353
0.02735343
0.02705963
0.02691159
0.02686878
0.02688807
0.02689697
0.02684613
0.02672441
0.02653943
0.02631655
0.02608929
0.02588743
0.02572797
0.02561522
0.02554273
0.02549991
0.02547722
0.02546642
0.02546029
0.0254528
0.02543988
0.02541962
0.02539118
0.02535353
0.02530827
0.02524638
0.02748106
0.02744426
0.02732276
0.02710951
0.02687637
0.0266513
0.02644741
0.02626804
0.02611136
0.02597244
0.02584587
0.02572703
0.02561212
0.02549856
0.0253847
0.02526975
0.02515349
0.02503612
0.02491812
0.02480013
0.02468284
0.02456695
0.02445321
0.02434229
0.02423486
0.02413148
0.02403273
0.02393908
0.02385095
0.02376867
0.02369243
0.02362227
0.02355812
0.0234998
0.023447
0.02339926
0.02335603
0.02331663
0.02328034
0.02324654
0.02321467
0.02318433
0.02315544
0.02312855
0.0231059
0.02308935
0.02306853
0.02304327
0.0230204
0.02300048
0.02298333
0.02297033
0.02296431
0.02296784
0.0230529
0.02301957
0.02296795
0.02291257
0.02285119
0.02278456
0.02271361
0.02263933
0.02256258
0.02248425
0.02240536
0.02232715
0.02225112
0.02217896
0.02211229
0.02205257
0.02200108
0.0219585
0.02192331
0.02189646
0.02187631
0.02186126
0.02184977
0.02184052
0.02183272
0.02182602
0.02182037
0.02181454
0.02180528
0.02179231
0.02177474
0.02175244
0.02172826
0.02170701
0.02169363
0.0216927
0.02170773
0.02174115
0.02179396
0.02186602
0.02195627
0.02206291
0.02218323
0.0223134
0.02244857
0.02258348
0.0227132
0.0228338
0.02294082
0.02303126
0.0231044
0.02316013
0.02320002
0.02323198
0.02326476
0.02331154
0.02338211
0.02344789
0.02345029
0.02344686
0.02361192
0.02406604
0.02482963
0.02579277
0.02684608
0.02799205
0.02920546
0.03039445
0.0314041
0.03203249
0.03212443
0.03172745
0.03101264
0.03013501
0.02916793
0.02808712
0.02685785
0.02551306
0.0241299
0.02278813
0.02156142
0.02049259
0.01958266
0.01884395
0.01869755
0.1020046
0.09479063
0.0967478
0.1017063
0.1070417
0.1118083
0.1157893
0.1190398
0.1217059
0.1233341
0.1301316
0.1387599
0.1473261
0.1550869
0.1616161
0.1669821
0.1713594
0.1748536
0.1993518
0.1999155
0.2003685
0.2005004
0.2005877
0.2008261
0.2013183
0.2020627
0.2029974
0.2038817
0.2048785
0.2055159
0.2055395
0.2051301
0.204404
0.203416
0.2021979
0.2007183
0.1989256
0.1970879
0.1948577
0.1918736
0.188503
0.1849229
0.1812561
0.1776675
0.1743264
0.1713809
0.1689455
0.1671269
0.1659462
0.1655379
0.165902
0.1670417
0.168953
0.1716065
0.174919
0.1787448
0.1971226
0.2010955
0.2048955
0.2083482
0.2112871
0.2135759
0.2151232
0.2159036
0.2159411
0.2152596
0.2139395
0.2120881
0.2097584
0.2069789
0.2037971
0.200255
0.1965191
0.1926544
0.188646
0.1841092
0.1790532
0.1741235
0.1693438
0.1646749
0.1601364
0.1558303
0.1518243
0.1481187
0.1447038
0.14158
0.138765
0.1362987
0.1342387
0.1326613
0.1317208
0.1314381
0.1317911
0.1327302
0.1341891
0.1360962
0.1383184
0.1407499
0.1434534
0.1463268
0.1491109
0.1517165
0.1540666
0.1556519
0.1560787
0.1557207
0.1548036
0.1533508
0.1515801
0.1495116
0.1471606
0.1445259
0.1415794
0.1382681
0.1345369
0.1303661
0.1258185
0.121096
0.1165308
0.1124526
0.1090468
0.1063462
0.1042971
0.1027885
0.1016522
0.100683
0.09968534
0.0985254
0.09715662
0.09561939
0.09401445
0.09260419
0.09164624
0.09130566
0.09171497
0.09296304
0.09508475
0.09805206
0.1017628
0.1060384
0.1106382
0.1152938
0.1197488
0.123794
0.1272869
0.1301579
0.1324039
0.1340506
0.1351013
0.1355104
0.1352043
0.13411
0.1323244
0.1299034
0.1268774
0.1232156
0.118966
0.1142757
0.1094084
0.1046459
0.1002026
0.09623171
0.09284941
0.09012603
0.08805833
0.08655816
0.08547069
0.08461498
0.08382885
0.08299652
0.0820538
0.08098011
0.07978791
0.07850986
0.07718483
0.07584802
0.07452547
0.07323287
0.07197519
0.07075265
0.06957892
0.0684685
0.06742485
0.06645115
0.06555161
0.06473077
0.06399269
0.0633402
0.06277449
0.06229506
0.0618996
0.06158472
0.06134571
0.06117786
0.06107539
0.06103261
0.06104215
0.06109765
0.06119083
0.06131467
0.06145724
0.06160618
0.06174816
0.06187227
0.06101351
0.06008755
0.05943788
0.05890818
0.05839453
0.05782792
0.0571992
0.05649597
0.05571064
0.05484168
0.05389286
0.05287317
0.05179593
0.05067693
0.04953377
0.04838541
0.0472517
0.04615158
0.0451029
0.04412167
0.0432214
0.0424126
0.04170285
0.04109888
0.0406083
0.04023477
0.03997209
0.03979185
0.03960857
0.03926268
0.03871958
0.03833216
0.03834884
0.038743
0.03940549
0.04020806
0.0410513
0.04190309
0.04274851
0.0435949
0.04445464
0.04532175
0.04616158
0.04693768
0.04763538
0.04825343
0.04878479
0.04920203
0.04945228
0.04950622
0.0493708
0.0490962
0.04869227
0.0481781
0.04760576
0.04702908
0.04648733
0.04599838
0.04555852
0.04515555
0.04477816
0.04441558
0.04405831
0.04369824
0.04332969
0.04295061
0.04256061
0.04216146
0.04175433
0.04133848
0.04306254
0.04260363
0.04215601
0.04170515
0.04124212
0.04076703
0.04028353
0.03979455
0.03930268
0.03881037
0.03831978
0.03783284
0.03735127
0.03687662
0.03641032
0.03595369
0.03550794
0.03507414
0.03465325
0.03424611
0.03385346
0.03347592
0.03311403
0.03276825
0.03243904
0.0321268
0.03183189
0.03155464
0.03129527
0.0310539
0.03083047
0.03062478
0.0304364
0.03026472
0.03010891
0.02996789
0.0298404
0.02972509
0.02962062
0.02952569
0.02943915
0.02936018
0.02928827
0.02922341
0.02916543
0.02911401
0.02906798
0.02902779
0.02899444
0.02896943
0.02895238
0.02894442
0.02894292
0.02894908
0.02896421
0.02897982
0.0289938
0.02900646
0.02901656
0.02902165
0.02901875
0.02900521
0.02897937
0.02894088
0.02889083
0.0288316
0.02876641
0.02869869
0.02863142
0.0285667
0.02850553
0.02844766
0.0283917
0.0283355
0.02827676
0.02821369
0.02814574
0.02807417
0.02800236
0.02793197
0.02786389
0.02780119
0.02774757
0.02770669
0.02768186
0.02767564
0.02769016
0.02772939
0.0277988
0.0279049
0.02804774
0.02822496
0.02843282
0.02866638
0.02891967
0.0291856
0.02945597
0.02972182
0.02997408
0.03020431
0.03040492
0.03056913
0.03069088
0.0307649
0.03078664
0.03075219
0.03065938
0.03051247
0.03031727
0.03007384
0.02977873
0.02942987
0.02903707
0.02862339
0.02821285
0.02782081
0.02745121
0.02711395
0.02684177
0.02668419
0.0267005
0.02695532
0.02750218
0.02836502
0.02949522
0.03077832
0.03213496
0.0334749
0.03467745
0.03560026
0.03607288
0.03600103
0.03537487
0.03433635
0.03301358
0.03160928
0.03020622
0.02910722
0.02816444
0.05495534
0.05960769
0.06500961
0.07087703
0.07727141
0.08432993
0.0923566
0.1019439
0.1140927
0.1294432
0.1937194
0.2110027
0.2277644
0.2433066
0.2566075
0.269491
0.2822237
0.2953218
0.3150529
0.3860126
0.3974397
0.4042383
0.4095037
0.4133302
0.415854
0.417346
0.4179092
0.4174599
0.4162776
0.413991
0.4119962
0.4101703
0.4082356
0.40601
0.4034466
0.4005681
0.3974255
0.394301
0.3893705
0.3844879
0.3796557
0.3748613
0.3701334
0.365496
0.3609832
0.356613
0.3523775
0.3482787
0.3441552
0.339997
0.3358417
0.3317382
0.3277568
0.3239631
0.3203883
0.3170118
0.3299872
0.3268243
0.3236296
0.3204997
0.3174821
0.3146231
0.3119966
0.3096572
0.3076116
0.3057704
0.3039752
0.3021343
0.300187
0.2980769
0.2957908
0.2933322
0.2906955
0.2878615
0.284776
0.2813773
0.2776721
0.2737505
0.2696821
0.2653721
0.2607485
0.2558066
0.2506034
0.2452692
0.240051
0.2353633
0.2314382
0.2284308
0.2264815
0.2256891
0.2260938
0.2276298
0.2301755
0.233545
0.2373485
0.2413591
0.2453026
0.2488993
0.2519176
0.2541847
0.2555968
0.256118
0.2557696
0.2546155
0.2527635
0.2503243
0.2473914
0.2440494
0.2403895
0.2365331
0.2323594
0.227788
0.2228865
0.2175376
0.2118654
0.2061082
0.2003677
0.1947004
0.1891687
0.1838586
0.1788349
0.1741344
0.1697822
0.1658034
0.1622341
0.1591255
0.1565393
0.1545415
0.1532389
0.1527315
0.1530181
0.1540624
0.1557953
0.1581244
0.1609347
0.1640863
0.167477
0.1710019
0.174477
0.1777198
0.1805348
0.1827068
0.1838918
0.1841031
0.1834738
0.1820951
0.180171
0.1778482
0.17518
0.1721973
0.1688891
0.1651864
0.1610345
0.1564182
0.1513945
0.1461215
0.1408261
0.1357142
0.1309149
0.1265014
0.1225265
0.1190237
0.1159909
0.1133822
0.1111167
0.1091009
0.1072572
0.1055523
0.1040208
0.1027598
0.1020659
0.1021992
0.1033189
0.1055415
0.1089113
0.1133734
0.1187564
0.1247785
0.1310826
0.1373013
0.1431115
0.1482715
0.1526346
0.1561491
0.1588588
0.1608543
0.1621742
0.1627689
0.1625433
0.1614396
0.1595138
0.1568636
0.1535354
0.1495796
0.1450823
0.140179
0.1350173
0.1297277
0.1244216
0.1192055
0.1141904
0.1094894
0.1051997
0.1013827
0.09805153
0.09517179
0.09267652
0.0904863
0.08852564
0.08673333
0.08506732
0.08350384
0.08203239
0.08064963
0.07935431
0.07814361
0.07701241
0.07595345
0.07495665
0.07401634
0.07314476
0.0723473
0.07162599
0.07098536
0.07043103
0.06996788
0.06959939
0.06932694
0.06915023
0.06906689
0.06907364
0.06916558
0.0693377
0.0695825
0.06989263
0.07025853
0.07067318
0.07112504
0.0716042
0.0720892
0.07256285
0.07298614
0.07326549
0.0734977
0.07364358
0.07367134
0.07355882
0.07329124
0.07286314
0.07230562
0.07162451
0.07082608
0.06992029
0.06891908
0.06783492
0.06668027
0.06546747
0.0642085
0.06291432
0.06159483
0.06025927
0.05891645
0.05757483
0.05624225
0.05492676
0.05363818
0.05238512
0.05117293
0.05000629
0.04888051
0.04777319
0.04667959
0.04564931
0.04473336
0.04394751
0.0432941
0.04277704
0.04240289
0.04217945
0.04211452
0.04222322
0.04253516
0.04309003
0.0439273
0.0450561
0.04643311
0.04802981
0.04978813
0.05162892
0.05346171
0.05519347
0.05673988
0.05802723
0.05900235
0.05964921
0.05998718
0.06005673
0.05991003
0.0595989
0.05916427
0.05863219
0.05803857
0.05740879
0.05675422
0.05607936
0.05538781
0.05468456
0.05397289
0.05325913
0.05254386
0.05183511
0.05112064
0.05038999
0.04968149
0.04899146
0.04830871
0.04763184
0.04696409
0.04630772
0.04566295
0.04502917
0.0444058
0.04379257
0.04318953
0.04259699
0.0420155
0.04144581
0.04088886
0.04034569
0.03981741
0.03930512
0.03880989
0.03833273
0.03787453
0.03743616
0.0370184
0.03662203
0.03624779
0.03589643
0.0355686
0.03526491
0.0349858
0.03473156
0.03450221
0.03429747
0.03411676
0.03395914
0.03382337
0.03370788
0.03361095
0.03353085
0.03346588
0.03341449
0.03337539
0.03334773
0.03333099
0.03332499
0.03332959
0.03334474
0.03337035
0.03340701
0.03345493
0.03351429
0.0335838
0.03366263
0.03374734
0.03383717
0.03392909
0.03401909
0.03410345
0.03417824
0.03423936
0.03428299
0.03430644
0.03430886
0.03429168
0.0342585
0.03421438
0.03416491
0.03411511
0.03406864
0.03402729
0.03399092
0.03395771
0.0339246
0.03388817
0.0338455
0.03379515
0.03373794
0.03367742
0.03361637
0.03355747
0.03350606
0.03346807
0.0334496
0.03345619
0.03349233
0.03356103
0.03366369
0.03380012
0.03396831
0.03416517
0.03439518
0.03465954
0.03495291
0.03526873
0.03559914
0.03593485
0.0362654
0.03657994
0.03686834
0.03712179
0.03733268
0.03749423
0.03760024
0.03764502
0.03762379
0.03753328
0.03737255
0.03714356
0.03685615
0.0365142
0.03612051
0.0356805
0.03520296
0.03469499
0.03415746
0.03358599
0.03297715
0.03233452
0.03166888
0.03099946
0.03035616
0.02978097
0.02932377
0.02903598
0.02896232
0.02914124
0.02960177
0.03035795
0.03138423
0.03258116
0.03380309
0.03496299
0.03592669
0.03661391
0.03689321
0.03680524
0.0363121
0.03567305
0.03483608
0.04198755
0.04771354
0.05286759
0.08179306
0.1109279
0.1472006
0.1713768
0.1955611
0.2182925
0.2395899
0.2583423
0.2746127
0.290438
0.3065514
0.3228097
0.3392619
0.355598
0.3715405
0.3872621
0.4027357
0.4177863
0.4322708
0.4460467
0.4591357
0.4714893
0.4828351
0.4931475
0.5025803
0.5111135
0.5185863
0.5252349
0.5518476
0.5528948
0.5523535
0.5507557
0.5482835
0.5451024
0.5413536
0.5371512
0.5326244
0.5279412
0.5231143
0.5182065
0.513294
0.5084508
0.5037323
0.4991665
0.4947577
0.4904881
0.4862097
0.4814836
0.4762923
0.470562
0.4643485
0.457815
0.4511703
0.4446173
0.4383063
0.4322977
0.4265748
0.4210875
0.4157608
0.4105372
0.4054041
0.4003957
0.3955667
0.3909783
0.3866071
0.3821517
0.3778929
0.373801
0.3698601
0.3660712
0.3624783
0.3591895
0.3563192
0.3538932
0.3518146
0.3499013
0.3479771
0.3459172
0.3436691
0.3412393
0.3386561
0.335935
0.3330561
0.3299594
0.3266034
0.3230598
0.3192371
0.3149966
0.3103144
0.3051538
0.2995293
0.2935302
0.2873127
0.2810776
0.2750084
0.2695971
0.2652394
0.2621559
0.2605116
0.2603894
0.2617486
0.2644197
0.2681184
0.2724719
0.2771041
0.2816507
0.285755
0.2891242
0.291548
0.2929076
0.293175
0.2924061
0.2907072
0.2882142
0.2850765
0.281447
0.2774806
0.2733539
0.2688884
0.2640253
0.2587361
0.2530445
0.2469663
0.2405918
0.2340899
0.2275955
0.2211929
0.2149481
0.208929
0.2031992
0.1978107
0.1928059
0.1882228
0.1841209
0.1805745
0.177668
0.1754926
0.1741562
0.1737895
0.1744057
0.1759792
0.1784416
0.1816846
0.1855626
0.189902
0.194528
0.1992738
0.2039403
0.2082802
0.2120421
0.2150044
0.2169196
0.2176175
0.2170825
0.2154315
0.2129557
0.209932
0.2064604
0.2026188
0.1984509
0.1939418
0.189059
0.1837937
0.1781921
0.1723487
0.166406
0.160517
0.154782
0.1492732
0.1440697
0.139255
0.1348976
0.1310324
0.1276542
0.1247263
0.122203
0.1200632
0.118338
0.1171196
0.1165801
0.1171453
0.1190208
0.1223322
0.1270915
0.1331596
0.1402485
0.1479488
0.1557716
0.1632646
0.1700802
0.1759784
0.1808345
0.1846467
0.1875367
0.1896598
0.191065
0.1916505
0.1912599
0.1898412
0.1875214
0.1844223
0.1806379
0.17625
0.1713534
0.1660584
0.1604629
0.1546315
0.1486577
0.1426339
0.1366546
0.1308247
0.1252491
0.1200169
0.1151871
0.1107846
0.1068048
0.1032218
0.0999983
0.09709445
0.09447288
0.09210231
0.08995773
0.08801925
0.08627015
0.08469515
0.0832794
0.08200847
0.0808682
0.07984513
0.07892679
0.07812289
0.07744428
0.07689029
0.07646194
0.07616041
0.07598585
0.07593687
0.07601067
0.07620306
0.07650894
0.07692213
0.07743528
0.07803863
0.07872127
0.07947222
0.080281
0.08113453
0.08201506
0.08289586
0.08374363
0.08451964
0.08518338
0.08570558
0.08606159
0.08623292
0.08620748
0.0859793
0.08554957
0.08493899
0.08417518
0.08327564
0.08226055
0.081149
0.0799563
0.07869373
0.07737065
0.07599593
0.07457745
0.07312173
0.07163373
0.07011758
0.068577
0.06701587
0.06543924
0.06385259
0.06226057
0.06067073
0.05909078
0.05752173
0.05596867
0.05445486
0.05301264
0.05166379
0.05041507
0.04926694
0.04821969
0.04727397
0.04643041
0.04569013
0.04505909
0.04455096
0.04419089
0.0440116
0.044045
0.04431875
0.04485831
0.0456772
0.04677231
0.04811703
0.04965779
0.0513079
0.05296318
0.05456994
0.05607004
0.05741041
0.05855134
0.05946949
0.06015591
0.06061377
0.06085354
0.06088688
0.06073237
0.0604115
0.0599434
0.05936264
0.05870049
0.05798108
0.05722597
0.05644855
0.0556642
0.05487554
0.05408867
0.05331182
0.05254995
0.05180384
0.05107387
0.05036079
0.04966468
0.04898472
0.04831953
0.04766783
0.0470286
0.04640127
0.04578562
0.0451818
0.04459026
0.04401185
0.04344767
0.04289899
0.04236716
0.04185358
0.04135959
0.04088648
0.04043549
0.04000779
0.03960455
0.03922691
0.03887603
0.03855298
0.03825878
0.03799431
0.03776022
0.03755682
0.03738395
0.03724099
0.03712688
0.03704012
0.03697879
0.03694074
0.03692374
0.03692564
0.03694452
0.03697886
0.03702766
0.03709028
0.03716647
0.03725626
0.03735992
0.03747775
0.03761011
0.03775686
0.03791715
0.03808879
0.03826875
0.03845296
0.0386376
0.03881856
0.03899161
0.03915224
0.03929511
0.03941432
0.03950452
0.03956253
0.03958863
0.03958706
0.03956529
0.03953241
0.03949725
0.03946656
0.0394441
0.03943028
0.03942265
0.03941664
0.03940672
0.03938787
0.03935694
0.03931388
0.0392624
0.03920894
0.03915765
0.03911569
0.03909106
0.0390921
0.03912681
0.03920172
0.03932078
0.03948477
0.03969151
0.03993679
0.04021552
0.04052248
0.04085183
0.04120435
0.04157937
0.04196924
0.04236451
0.04275374
0.04312417
0.04346356
0.04376183
0.04401117
0.04420508
0.04433731
0.04440167
0.04439242
0.04430537
0.04413927
0.04389688
0.04358412
0.04321429
0.04279617
0.04233594
0.04183943
0.04131055
0.04074794
0.0401454
0.03949603
0.03879576
0.0380433
0.03723938
0.03638807
0.03549867
0.03458776
0.03368075
0.03281263
0.03202614
0.03136953
0.03089238
0.03064372
0.03066131
0.03097118
0.03156847
0.03244848
0.03353089
0.03470683
0.03585274
0.03690966
0.03774022
0.03833585
0.03857951
0.02071708
0.02315672
0.0255333
0.03418158
0.04567808
0.06517124
0.07894485
0.09360825
0.1094064
0.1254746
0.1421351
0.1604498
0.1800582
0.2001799
0.2211716
0.2447591
0.2810468
0.2982006
0.3156583
0.3334079
0.3516767
0.3697537
0.3870884
0.4037574
0.419851
0.43528
0.4503872
0.4651611
0.4795701
0.4935421
0.5069444
0.5196187
0.5314209
0.5422314
0.5518778
0.5601617
0.5669389
0.5714797
0.5744388
0.575755
0.5759063
0.5742767
0.5688747
0.5631594
0.5570564
0.5505233
0.5437206
0.5368583
0.5301394
0.5237321
0.5177462
0.5122547
0.5072451
0.5026691
0.4984667
0.4946056
0.4910865
0.4879071
0.4851021
0.4826718
0.4805126
0.4782447
0.4753795
0.471843
0.4676267
0.4628759
0.4578442
0.4528174
0.4480344
0.4436282
0.4396078
0.4358893
0.4323401
0.428834
0.4252875
0.421699
0.418131
0.4146953
0.4114164
0.4082546
0.4051584
0.4020974
0.3990641
0.3960638
0.3931614
0.3905286
0.3883526
0.3866834
0.3853885
0.3842131
0.3828998
0.3812946
0.3793688
0.3771737
0.3747873
0.3722625
0.3695944
0.3667342
0.3636871
0.360225
0.3563075
0.3519538
0.3471253
0.3417501
0.3357811
0.3292758
0.3224099
0.3154539
0.3087221
0.3025271
0.2975035
0.2940435
0.2923925
0.2926727
0.2948396
0.2986438
0.3036609
0.309375
0.3152463
0.3207732
0.3255564
0.3293083
0.33182
0.3329924
0.3328365
0.3314451
0.3289618
0.3255653
0.3214655
0.3169002
0.3121711
0.3071589
0.3017984
0.2960408
0.2898373
0.2831903
0.2761464
0.2688095
0.261341
0.2539092
0.2466196
0.2395505
0.2327738
0.2263592
0.22037
0.2148668
0.2099087
0.2055663
0.2019269
0.1990945
0.1971885
0.1963462
0.1967446
0.1984084
0.2013114
0.2053689
0.2104327
0.216297
0.2227338
0.2295238
0.2364509
0.243222
0.2494705
0.2548652
0.2591325
0.2619941
0.2631221
0.262364
0.2598509
0.256026
0.2513943
0.2461238
0.2403659
0.2342554
0.2279049
0.2213458
0.2145781
0.2076417
0.2006202
0.1936126
0.1867145
0.1799825
0.1734435
0.1671892
0.161327
0.1559534
0.1511401
0.1469272
0.1433237
0.1403234
0.1379309
0.1361932
0.1352222
0.1351999
0.1364979
0.1394523
0.1441625
0.1505612
0.1583651
0.1671697
0.1764704
0.1857123
0.1943915
0.2021236
0.2086675
0.2139099
0.2179006
0.2208533
0.2229965
0.224381
0.2248154
0.2240589
0.2221074
0.2192111
0.2154937
0.2110609
0.2059614
0.2002608
0.1940573
0.187478
0.1806442
0.1736728
0.1666719
0.1597188
0.1528995
0.1463121
0.1400344
0.1341254
0.1286233
0.1235449
0.1188887
0.1146391
0.1107738
0.1072675
0.1040942
0.1012291
0.09864916
0.096333
0.09426058
0.09241325
0.0907739
0.08932734
0.08806071
0.08696307
0.08602307
0.08525366
0.08467003
0.08426989
0.08405057
0.0840082
0.08413743
0.08443173
0.08488366
0.08548497
0.08622606
0.08709475
0.08807531
0.08915054
0.09030502
0.09152458
0.09279138
0.09407756
0.09534229
0.09653362
0.09759571
0.09848696
0.09917207
0.09962497
0.09982949
0.09977794
0.0994712
0.09892195
0.09816179
0.09722968
0.09615833
0.09498052
0.09372199
0.09239638
0.09100384
0.08954653
0.08803185
0.08646861
0.08486379
0.08322063
0.08154006
0.07982281
0.07807071
0.07628791
0.0744789
0.07264811
0.07080223
0.06894855
0.06709413
0.06525239
0.06344623
0.06170017
0.06002969
0.05844095
0.05693557
0.05551342
0.05417304
0.05291176
0.05172674
0.05061704
0.04958623
0.04864336
0.04780335
0.0470866
0.04651833
0.04612674
0.04593742
0.04597139
0.04624082
0.04674639
0.04747186
0.04838868
0.04946552
0.05065893
0.05191662
0.05318069
0.05439319
0.05550299
0.05646981
0.0572648
0.05787148
0.05828456
0.05850731
0.05855029
0.05842242
0.05814081
0.0577369
0.05723954
0.05667352
0.05606031
0.0554171
0.0547568
0.05408989
0.05342592
0.05277113
0.05212836
0.05149886
0.05088305
0.0502806
0.04969052
0.04911162
0.04854274
0.04798302
0.04743206
0.04688987
0.04635688
0.04583404
0.04532274
0.04482462
0.04434147
0.0438752
0.04342769
0.04300073
0.04259608
0.0422154
0.04186034
0.04153249
0.04123344
0.04096474
0.04072787
0.04052415
0.04035456
0.04021955
0.04011894
0.040052
0.04001746
0.04001346
0.04003762
0.04008729
0.04015979
0.04025257
0.0403635
0.04049096
0.04063394
0.04079206
0.04096543
0.04115457
0.04136035
0.04158362
0.04182485
0.04208339
0.04235706
0.04264181
0.04293228
0.04322257
0.04350719
0.04378153
0.044041
0.04427959
0.0444892
0.04466087
0.04478722
0.0448652
0.04489802
0.04489524
0.04487074
0.04483951
0.04481419
0.04480262
0.04480695
0.04482421
0.04484768
0.04486853
0.04487783
0.04486883
0.04483893
0.04479113
0.04473411
0.04467803
0.04463196
0.04460647
0.04461211
0.04465967
0.04475914
0.04491777
0.04513781
0.04541555
0.04574247
0.04610807
0.04650262
0.04691837
0.04734944
0.04779046
0.04824288
0.0486997
0.04914985
0.04957909
0.04997182
0.05031476
0.0505994
0.05082078
0.05097446
0.05105473
0.05105498
0.05096932
0.05079467
0.05053294
0.05019228
0.049786
0.04933134
0.04884214
0.04832432
0.04777992
0.04720739
0.04660106
0.04595267
0.04525509
0.04450443
0.04369854
0.04283589
0.04191601
0.04094071
0.03991525
0.03884976
0.03775985
0.03666802
0.03560369
0.03460521
0.03371838
0.03299324
0.03247816
0.03220966
0.03221379
0.03249761
0.0330537
0.03387893
0.03491294
0.03607964
0.03724098
0.03830933
0.008680987
0.01013658
0.01126059
0.01676538
0.02314102
0.03155854
0.03854415
0.04648939
0.05513864
0.06439311
0.07458036
0.0866111
0.09983885
0.1146459
0.132392
0.1597111
0.174372
0.1898267
0.2055654
0.2215401
0.2376751
0.2538522
0.2699104
0.2857295
0.3011524
0.3161176
0.3307599
0.3466545
0.362774
0.3793553
0.3964228
0.4134937
0.4300708
0.445858
0.4607706
0.4750619
0.4888134
0.5020232
0.5146047
0.5264269
0.5372834
0.5469651
0.5553306
0.5621467
0.5670473
0.5696369
0.5699484
0.5679696
0.5639784
0.5581229
0.550759
0.5422633
0.5326394
0.5225277
0.5122114
0.5019296
0.4919746
0.4826415
0.4741986
0.4668571
0.4607426
0.4558688
0.4521286
0.4493277
0.4472505
0.445743
0.4447537
0.4443728
0.4446572
0.4454662
0.4464475
0.4474669
0.4480855
0.4479561
0.4469413
0.4451583
0.4429157
0.4405927
0.4385175
0.4368825
0.4357094
0.4348771
0.43419
0.4334475
0.4325021
0.4313173
0.4299842
0.4286578
0.4274234
0.4262478
0.4250476
0.4237889
0.4224751
0.421103
0.4197715
0.418755
0.4182983
0.4183717
0.4186603
0.4187272
0.4182346
0.4170883
0.4153839
0.4132715
0.4108873
0.4083284
0.4056261
0.4028281
0.3996473
0.395873
0.3915526
0.3867923
0.3816
0.3758918
0.3695867
0.3627037
0.3554144
0.3480339
0.3409658
0.334648
0.3296447
0.3266827
0.3260899
0.3279896
0.3322182
0.3383025
0.3455651
0.3532743
0.3607458
0.3674433
0.3730201
0.3772252
0.3798481
0.3807659
0.3799957
0.3776606
0.3739564
0.3691573
0.3636126
0.3577946
0.3517279
0.3453676
0.338745
0.3318157
0.3244859
0.3166941
0.3084617
0.2998976
0.2911719
0.2824697
0.2739546
0.2657606
0.257998
0.2507628
0.2441413
0.238216
0.2330763
0.228808
0.2255095
0.223305
0.2223466
0.2228099
0.2249356
0.2287487
0.2342163
0.2412004
0.2494704
0.2586974
0.2685737
0.2788349
0.2891516
0.2990631
0.3080189
0.3156261
0.3215994
0.3255812
0.326967
0.3254482
0.3212395
0.314948
0.3074738
0.2991102
0.2901136
0.2807317
0.2711743
0.261563
0.2519537
0.242409
0.2330548
0.2240088
0.215313
0.206992
0.1990488
0.1915549
0.1846068
0.178282
0.1726488
0.1677749
0.1637017
0.160456
0.1580729
0.1566276
0.1562624
0.157197
0.1597535
0.1642744
0.1708237
0.1792532
0.1891927
0.2001136
0.2113769
0.2223545
0.2324732
0.2413082
0.2486334
0.2542942
0.2583262
0.2610614
0.2629159
0.2640142
0.264052
0.2626929
0.2601197
0.2566697
0.2524031
0.2472629
0.2411546
0.2340926
0.2262309
0.2178248
0.2091714
0.2004875
0.1919401
0.1836323
0.1756246
0.1679676
0.1606943
0.1538324
0.1474151
0.1414549
0.1359474
0.1308808
0.12624
0.1220055
0.1181561
0.1146692
0.1115223
0.1086928
0.1061595
0.1039028
0.101906
0.1001554
0.09864028
0.09735253
0.09628523
0.09542881
0.0948064
0.0944276
0.09428683
0.09437643
0.0946868
0.09520803
0.09592996
0.09684146
0.0979284
0.09917053
0.1005392
0.1020018
0.1035446
0.1051552
0.1068111
0.1084702
0.1100721
0.1115482
0.1128334
0.1138729
0.1146242
0.1150619
0.115175
0.1149616
0.1144299
0.1136053
0.1125387
0.1112855
0.1099
0.1084337
0.1069213
0.1053722
0.1037761
0.1021218
0.1004106
0.09865387
0.09686188
0.09503664
0.09317445
0.09127192
0.08932447
0.08733909
0.08532426
0.08328658
0.08123282
0.07917023
0.07710799
0.07506081
0.0730487
0.07109024
0.06919671
0.06737315
0.06562154
0.06394263
0.06233588
0.06079925
0.05932968
0.05792403
0.05658084
0.05530147
0.05409039
0.05295619
0.05191193
0.05097431
0.05016194
0.04949337
0.04898517
0.04864956
0.04849181
0.04850966
0.04869478
0.04903192
0.04949953
0.05007018
0.05071189
0.05139064
0.05207273
0.05272566
0.05331975
0.05383069
0.0542403
0.05454009
0.05473006
0.05481482
0.05478881
0.05465857
0.05444007
0.05415006
0.05380531
0.0534207
0.05300903
0.05258132
0.05214587
0.051708
0.05127093
0.05083647
0.05040535
0.04997746
0.04955222
0.0491289
0.04870697
0.04828638
0.04786757
0.04745151
0.04703968
0.04663403
0.04623688
0.04585077
0.04547831
0.04512206
0.04478447
0.04446782
0.0441743
0.04390601
0.04366503
0.04345348
0.04327349
0.04312704
0.04301582
0.042941
0.04290303
0.0429016
0.04293562
0.04300321
0.0431018
0.04322837
0.04337961
0.04355227
0.04374365
0.04395182
0.04417569
0.04441498
0.04467015
0.04494221
0.04523261
0.04554312
0.04587535
0.04622979
0.04660468
0.0469957
0.04739589
0.0477968
0.04819036
0.04857037
0.04893251
0.04927225
0.04958182
0.04984857
0.05005877
0.05020287
0.05027885
0.05029524
0.05027024
0.05022737
0.05018936
0.05017259
0.05018407
0.05022138
0.05027517
0.05033219
0.05037798
0.05039965
0.05038898
0.05034523
0.05027673
0.05020016
0.05013178
0.05008657
0.05007732
0.05011633
0.05021679
0.05039136
0.0506483
0.05098714
0.0513968
0.0518586
0.05235284
0.05286453
0.05338503
0.05390983
0.0544352
0.0549584
0.05547447
0.05596943
0.05642477
0.05682104
0.05714468
0.05739132
0.05756144
0.05765341
0.05766118
0.05757675
0.0573938
0.05711101
0.05673479
0.05628071
0.05577189
0.05523326
0.05468058
0.05411554
0.05353254
0.05292417
0.0522828
0.0515998
0.05086593
0.05007871
0.04923679
0.0483384
0.04738197
0.04636736
0.04529695
0.044175
0.04300653
0.04179971
0.0405673
0.03933144
0.03812149
0.03697536
0.03593167
0.03503197
0.03431352
0.03381807
0.03357152
0.03360689
0.03391311
0.03450233
0.03530005
0.03627697
0.002074522
0.008080285
0.0120864
0.01676509
0.02202654
0.02808849
0.03505567
0.04275768
0.05142971
0.061911
0.07773711
0.08733503
0.09776801
0.1087767
0.1204011
0.13258
0.1452506
0.1582989
0.1715555
0.1848903
0.1982826
0.2133999
0.2287726
0.2442119
0.2595974
0.2748536
0.2898944
0.3046733
0.3191955
0.3333788
0.3473098
0.3612548
0.3755912
0.3900948
0.4047799
0.4195526
0.4340619
0.4478748
0.4609586
0.4735176
0.4856329
0.4972909
0.5084394
0.5189388
0.5286033
0.5370108
0.5439085
0.5489312
0.5512296
0.5510131
0.5482448
0.5429806
0.5353182
0.5256271
0.5143165
0.5018465
0.4886808
0.4752246
0.4619159
0.4491073
0.4370925
0.4261412
0.4165356
0.4085614
0.4024784
0.3984453
0.3964184
0.3961444
0.3971717
0.3990666
0.4015659
0.4045386
0.4076148
0.4112644
0.4158811
0.421315
0.4269647
0.4319603
0.4356318
0.4377672
0.4386148
0.43874
0.4387806
0.4392291
0.4403192
0.4420175
0.4440952
0.4462317
0.4481146
0.4495448
0.4505127
0.4512217
0.4519532
0.4528464
0.4538411