/*--------------------------------*- C++ -*----------------------------------*\
| =========                 |                                                 |
| \\      /  F ield         | foam-extend: Open Source CFD                    |
|  \\    /   O peration     | Version:     3.1                                |
|   \\  /    A nd           | Web:         http://www.extend-project.de       |
|    \\/     M anipulation  |                                                 |
\*---------------------------------------------------------------------------*/
FoamFile
{
    version     2.0;
    format      ascii;
    class       volScalarField;
    location    "15";
    object      p;
}
// * * * * * * * * * * * * * * * * * * * * * * * * * * * * * * * * * * * * * //

dimensions      [1 -1 -2 0 0 0 0];

internalField   nonuniform List<scalar> 
119952
(
6046.444
5073.189
4876.387
5033.434
5188.864
5113.262
5105.049
5111.524
5127.314
5146.132
5166.327
5186.639
5205.978
5223.563
5237.95
5249.165
5256.13
5256.729
5243.795
5171.165
5439.573
5242.317
5176.063
5508.472
5432.267
5441.637
5452.858
5530.119
5919.708
7112.289
3585.668
3612.244
3647.973
3695.057
3743.614
3793.004
3842.994
3892.941
3942.216
3965.164
3998.843
4041.056
4069.006
4096.135
4119.782
4139.752
4155.662
4166.976
4179.142
4150.382
4151.998
4140.439
4131.617
4124.429
4117.711
4113.087
4112.214
4114.714
4128.759
4137.943
4154.16
4186.781
4224.978
4269.029
4320.483
4377.317
4444.902
4553.344
4722.937
4648.334
4674.799
4756.691
4808.065
4827.758
4830.119
4843.058
4861.422
4880.547
4900.743
4920.646
4939.334
4956.303
4970.551
4981.239
4987.855
4989.387
4986.085
4983.157
4988.99
4992.276
4983.749
5029.373
5116.75
5117.723
5106.858
5099.102
5024.489
4744.87
4665.436
4702.417
4711.319
4734.329
4768.063
4811.622
4868.347
4937.025
5015.826
5100.887
5186.403
5264.839
5328.954
5378.456
5424.632
5479.467
5543.112
5608.928
5671.704
5729.197
5780.938
5827.776
5870.845
5910.659
5947.416
5980.513
6009.456
6034.431
6054.882
6070.324
6080.376
6084.714
6083.085
6075.338
6061.451
6041.601
6016.271
5986.092
5952.253
5916.747
5881.612
5849.034
5821.11
5799.097
5784.203
5776.771
5776.38
5782.898
5797.612
5825.623
5857.973
5881.314
5907.257
5922.559
5932.351
5946.893
5969.09
5995.315
6022.055
6047.366
6070.523
6091.842
6112.171
6132.328
6152.702
6173.393
6194.303
6215.145
6235.612
6255.588
6274.935
6293.612
6311.46
6328.522
6344.709
6359.828
6373.979
6387.094
6399.155
6410.136
6420.013
6428.769
6436.389
6442.856
6448.158
6452.279
6455.211
6456.947
6457.492
6456.865
6455.101
6452.262
6448.436
6443.732
6438.265
6432.124
6425.387
6418.416
6412.509
6441.818
6439.958
6434.198
6430.07
6427.047
6425.207
6425.055
6426.343
6429.163
6433.517
6439.466
6446.813
6455.542
6465.484
6476.474
6488.319
6500.862
6513.966
6527.536
6541.443
6555.822
6570.774
6586.231
6602.069
6618.19
6634.488
6650.771
6666.499
6680.171
6687.913
6676.117
6674.899
6689.866
6703.723
6713.796
6721.906
6741.684
6758.215
6771.8
6782.961
6792.198
6799.711
6805.65
6810.252
6813.785
6816.73
6819.654
6823.106
6827.545
6832.988
6839.297
6846.089
6852.947
6859.561
6865.775
6871.569
6877.001
6882.214
6887.357
6892.54
6897.843
6903.322
6909.002
6914.88
6920.935
6927.132
6933.425
6939.845
6946.431
6952.364
6936.652
6939.075
6939.905
6945.084
6950.069
6954.436
6958.732
6962.863
6966.702
6970.223
6973.433
6976.347
6978.976
6981.328
6983.415
6985.252
6986.853
6988.233
6989.404
6990.38
6991.172
6991.79
6992.242
6992.536
6992.679
6992.674
6992.525
6992.235
6991.804
6991.234
6990.523
6989.668
6988.669
6987.52
6986.218
6984.761
6983.146
6981.37
6979.434
6977.345
6975.11
6972.754
6970.321
6967.88
6965.381
6962.181
6957.461
6951.967
6946.579
6941.198
6935.685
6930.176
6924.281
6917.631
6906.148
6900.066
6896.147
6889.77
6882.979
6876.524
6870.208
6864.043
6858.151
6852.596
6847.417
6842.65
6838.317
6834.422
6830.954
6827.886
6825.203
6822.798
6820.691
6818.848
6817.191
6815.711
6814.386
6813.199
6812.134
6811.176
6810.299
6809.478
6808.669
6807.88
6807.092
6806.27
6805.357
6804.323
6803.143
6801.809
6800.306
6798.623
6796.766
6794.749
6792.594
6790.333
6788.005
6785.658
6783.344
6781.121
6779.048
6777.19
6775.567
6774.203
6773.188
6772.576
6772.384
6772.687
6773.578
6775.115
6777.158
6778.741
6778.256
6775.614
6773.967
6775.9
6780.329
6784.555
6786.382
6787.286
6787.751
6787.264
6785.856
6783.08
6777.946
6770.75
6762.247
6753.362
6745.331
6739.057
6734.022
6729.05
6723.232
6715.921
6706.729
6695.351
6683.058
6679.875
6703.562
4429.737
4315.819
4181.008
4061.14
3952.444
3854.459
3767.362
3691.342
3630.975
3525.132
3488.548
3450.079
3415.786
3390.78
3370.771
3357.218
3347.997
3339.315
3311.219
3323.314
3309.884
3300.838
3295.069
3290.039
3283.492
3275.569
3266.018
3257.035
3251.215
3231.194
3224.348
3221.755
3222.532
3228.566
3240.484
3258.201
3283.448
3320.763
3341.607
3376.188
3423.958
3473.079
3522.447
3572.195
3620.771
3666.582
3707.368
3742.834
3780.546
3811.748
3836.307
3856.475
3872.291
3883.757
3891.759
3899.253
3822.543
3815.512
3813.115
3806.378
3796.873
3788.214
3782.753
3781.77
3785.949
3795.099
3812.327
3837.732
3869.781
3909.091
3956.665
4012.632
4077.456
4149.654
4226.179
4295.768
4343.528
4379.703
4421.7
4463.719
4497.439
4522.623
4544.587
4566.606
4589.16
4611.425
4632.38
4651.213
4667.483
4681.08
4691.23
4698.012
4701.342
4701.982
4701.441
4701.655
4703.573
4708.687
4720.387
4732.026
4727.895
4701.93
4652.057
4573.054
4477.389
4406.872
4380.123
4383.553
4404.149
4435.13
4478.393
4535.189
4604.49
4683.528
4768.126
4853.483
4934.911
5009.601
5077.982
5143.558
5209.821
5277.266
5343.386
5405.562
5462.35
5513.458
5559.339
5600.827
5638.178
5671.291
5700.61
5725.694
5746.526
5762.635
5773.607
5779.078
5778.63
5772.049
5759.301
5740.383
5715.526
5685.312
5650.816
5613.509
5575.411
5538.828
5506.213
5479.597
5460.306
5448.713
5445.049
5448.918
5460.516
5479.159
5503.329
5530.425
5556.809
5581.898
5604.47
5624.687
5646.265
5671.189
5698.245
5725.469
5751.558
5775.93
5798.609
5820.094
5840.968
5861.507
5881.81
5901.88
5921.647
5940.996
5959.861
5978.178
5995.877
6012.864
6029.066
6044.453
6059.04
6072.45
6084.934
6096.393
6106.778
6116.063
6124.231
6131.263
6137.139
6141.847
6145.369
6147.699
6148.826
6148.758
6147.506
6145.126
6141.671
6137.279
6132.036
6126.175
6119.727
6113.103
6106.031
6100.023
6161.488
6154.748
6150.982
6147.791
6145.322
6144.079
6144.267
6146.132
6149.543
6154.521
6161.047
6169.028
6178.316
6188.774
6200.207
6212.44
6225.308
6238.713
6252.559
6266.808
6281.488
6296.603
6312.108
6327.893
6343.774
6359.565
6374.851
6388.569
6399.704
6406.237
6406.681
6411.754
6423.254
6435.571
6447.269
6459.286
6473.356
6488.171
6500.946
6511.774
6520.943
6528.44
6534.199
6538.437
6541.576
6544.126
6546.683
6549.804
6553.908
6559.136
6565.322
6571.996
6578.736
6585.227
6591.367
6597.043
6602.293
6607.32
6612.278
6617.255
6622.343
6627.612
6633.084
6638.76
6644.63
6650.653
6656.814
6663.055
6669.443
6677.593
6620.033
6626.861
6633.482
6638.515
6642.761
6646.935
6651.127
6655.179
6658.963
6662.435
6665.602
6668.477
6671.074
6673.399
6675.464
6677.282
6678.866
6680.232
6681.391
6682.355
6683.136
6683.742
6684.182
6684.462
6684.589
6684.566
6684.397
6684.083
6683.625
6683.023
6682.275
6681.38
6680.333
6679.133
6677.776
6676.259
6674.58
6672.736
6670.729
6668.56
6666.231
6663.742
6661.077
6658.182
6654.943
6651.22
6646.865
6641.929
6636.674
6631.27
6625.694
6619.917
6613.881
6607.661
6601.117
6593.587
6586.126
6579.302
6572.879
6566.557
6560.274
6554.143
6548.303
6542.85
6537.836
6533.283
6529.197
6525.564
6522.357
6519.539
6517.053
6514.882
6512.937
6511.215
6509.691
6508.341
6507.153
6506.123
6505.232
6504.465
6503.797
6503.194
6502.619
6502.041
6501.425
6500.727
6499.871
6498.837
6497.58
6496.108
6494.425
6492.524
6490.422
6488.14
6485.706
6483.161
6480.553
6477.938
6475.376
6472.933
6470.665
6468.627
6466.864
6465.406
6464.296
6463.601
6463.355
6463.548
6464.198
6465.184
6466.236
6466.939
6467.206
6467.107
6467.339
6468.952
6471.363
6473.809
6475.578
6476.609
6477.026
6476.644
6475.033
6472.134
6467.693
6461.471
6454.348
6447.6
6442.045
6437.793
6433.369
6427.819
6420.616
6412.632
6404.131
6396.18
6388.077
6380.728
6369.499
3023.878
3094.869
3190.074
3301.122
3427.161
3567.563
3721.89
3888.805
4066.798
4250.88
4427.941
4626.555
4827.379
5029.118
5226.648
5417.943
5599.042
5763.896
5906.162
6006.549
6097.745
6159.201
6189.998
6189.702
6158.878
6099.344
6013.371
5903.821
5777.907
5629.856
5471.004
5300.471
5124.114
4945.442
4767.927
4594.684
4428.677
4272.889
4116.471
3977.659
3848.921
3729.962
3622.406
3525.284
3438.721
3362.702
3297.637
3240.678
3191.632
3154.285
3123.829
3100.131
3082.619
3070.37
3063.067
3065.33
2987.295
2985.078
2987.372
2987.918
2985.207
2979.572
2971.7
2961.894
2950.504
2937.67
2924.612
2914.241
2906.42
2901.774
2901.933
2908.068
2920.563
2939.83
2965.459
2997.349
3035.389
3077.584
3124.878
3177.049
3231.87
3286.465
3338.817
3387.671
3432.299
3472.283
3506.981
3535.775
3558.657
3575.674
3587.036
3592.909
3593.375
3588.631
3577.487
3565.498
3555.821
3544.495
3531.647
3520.069
3512.102
3509.011
3511.571
3520.857
3537.413
3561.306
3593.475
3634.602
3684.477
3742.611
3806.642
3875.217
3944.197
4012.197
4068.759
4112.732
4155.409
4199.473
4239.783
4273.065
4301.368
4328.129
4354.402
4379.564
4402.683
4423.085
4440.482
4454.763
4465.698
4472.931
4476.576
4477.047
4475.088
4471.76
4468.057
4462.927
4456.569
4448.848
4431.342
4396.324
4344.886
4281.915
4210.41
4147.368
4112.696
4107.042
4117.349
4143.012
4183.633
4239.424
4309.369
4390.67
4479.106
4570.142
4659.766
4745.149
4825.451
4902.024
4976.814
5050.066
5120.221
5185.601
5245.273
5298.951
5346.75
5388.971
5425.864
5457.749
5485.17
5507.8
5525.445
5537.948
5545.082
5546.618
5541.954
5530.727
5513.141
5489.372
5459.681
5424.679
5385.585
5344.079
5302.326
5262.858
5228.378
5201.154
5182.645
5172.871
5171.429
5177.893
5191.815
5212.284
5237.579
5265.92
5294.83
5322.174
5347.363
5371.493
5396.698
5423.955
5452.578
5481.341
5509.225
5535.749
5560.582
5583.828
5605.811
5626.845
5647.161
5666.894
5686.096
5704.772
5722.914
5740.496
5757.478
5773.797
5789.394
5804.24
5818.163
5831.362
5843.481
5854.58
5864.633
5873.59
5881.422
5888.109
5893.633
5897.978
5901.129
5903.073
5903.8
5903.304
5901.596
5898.718
5894.742
5889.8
5884.065
5877.719
5870.932
5864.015
5857.225
5851.684
5846.792
5841.901
5837.22
5833.34
5830.815
5829.872
5830.479
5832.754
5836.67
5842.264
5849.499
5858.272
5868.403
5879.66
5891.788
5904.584
5917.91
5931.678
5945.831
5960.316
5975.099
5990.146
6005.388
6020.715
6035.957
6050.867
6065.006
6077.894
6088.546
6097.21
6105.295
6114.084
6124.917
6136.929
6149.107
6161.412
6174.024
6186.544
6198.158
6208.405
6217.128
6224.358
6230.242
6234.896
6238.622
6241.899
6245.242
6249.105
6253.835
6259.547
6265.882
6272.253
6278.387
6284.233
6289.338
6294.252
6299.009
6303.655
6308.324
6313.05
6317.975
6323.147
6328.499
6334.066
6339.802
6345.692
6351.696
6357.751
6363.779
6369.743
6375.296
6380.723
6386.009
6390.981
6395.659
6400.138
6404.449
6408.54
6412.345
6415.833
6419.01
6421.893
6424.496
6426.831
6428.908
6430.74
6432.339
6433.721
6434.897
6435.878
6436.675
6437.297
6437.751
6438.045
6438.184
6438.171
6438.009
6437.7
6437.242
6436.636
6435.88
6434.971
6433.907
6432.684
6431.299
6429.749
6428.032
6426.144
6424.084
6421.851
6419.439
6416.832
6414.005
6410.914
6407.505
6403.701
6399.434
6394.678
6389.551
6384.156
6378.562
6372.703
6366.615
6360.134
6353.357
6346.691
6340.017
6333.251
6326.462
6319.744
6313.184
6306.883
6300.944
6295.455
6290.467
6286.001
6282.055
6278.601
6275.591
6272.967
6270.663
6268.629
6266.82
6265.213
6263.791
6262.548
6261.484
6260.624
6259.881
6259.308
6258.857
6258.488
6258.155
6257.807
6257.388
6256.837
6256.095
6255.118
6253.873
6252.313
6250.493
6248.37
6246.04
6243.504
6240.785
6237.934
6235.014
6232.091
6229.233
6226.507
6223.976
6221.699
6219.716
6218.057
6216.76
6215.881
6215.464
6215.486
6215.896
6216.586
6217.477
6218.392
6219.07
6219.422
6219.991
6221.192
6223.039
6224.805
6225.995
6226.683
6226.935
6226.599
6225.454
6223.406
6220.293
6216.164
6211.218
6205.452
6199.35
6193.723
6188.786
6184.526
6180.248
6175.317
6168.267
6159.749
6149.235
6136.673
6117.725
2647.976
2631.097
2614.8
2586.621
2574.536
2543.87
2557.117
2585.627
2628.543
2655.175
2668.342
2699.929
2752.381
2823.844
2912.657
3016.728
3135.806
3267.69
3412.279
3568.885
3736.377
3913.597
4098.094
4287.863
4481.398
4675.409
4866.229
5050.761
5226.365
5387.127
5530.085
5620.363
5710.623
5769.19
5793.499
5785.715
5747.689
5681.597
5590.277
5477.171
5345.885
5198.745
5038.299
4867.967
4691.757
4513.618
4337.363
4166.376
4003.621
3850.464
3707.441
3575.203
3453.279
3341.502
3240.129
3149.114
3068.348
2997.744
2937.065
2886.077
2844.387
2811.223
2785.894
2767.46
2754.611
2746.241
2741.307
2739.432
2738.452
2740.027
2743.074
2743.831
2741.363
2735.814
2727.202
2715.46
2700.784
2684.508
2668.52
2653.926
2642.245
2635.26
2633.968
2638.928
2650.434
2668.766
2694.247
2726.785
2766.041
2812.103
2864.771
2922.987
2984.149
3045.499
3104.853
3160.664
3211.3
3255.344
3292.533
3322.312
3344.564
3359.222
3366.455
3366.693
3360.526
3349.283
3334.341
3317.589
3300.876
3283.912
3267.038
3251.754
3239.857
3232.876
3232.065
3238.313
3252.036
3274.141
3305.828
3347.511
3398.794
3458.19
3523.488
3592.458
3661.97
3729.38
3789.521
3841.442
3889.66
3936.582
3980.463
4019.501
4054.456
4087.111
4118.216
4147.412
4173.997
4197.394
4217.335
4233.66
4245.956
4253.899
4257.37
4256.64
4252.243
4244.653
4233.998
4219.84
4202.072
4180.027
4149.594
4107.212
4053.596
3992.511
3928.019
3869.587
3829.294
3811.31
3813.038
3833.085
3870.907
3926.564
3998.855
4084.775
4180.067
4279.882
4379.71
4476.274
4568.108
4655.324
4738.526
4817.857
4892.641
4962.059
5025.608
5083.031
5134.229
5179.259
5218.235
5251.293
5278.5
5299.672
5314.471
5324.059
5327.079
5323.696
5313.834
5297.262
5273.942
5244.152
5208.365
5167.309
5122.207
5074.815
5027.416
4982.955
4945.121
4916.826
4899.149
4891.484
4892.674
4901.782
4918.394
4941.697
4969.941
5000.765
5031.614
5061.105
5089.143
5116.721
5145.019
5174.249
5203.997
5233.916
5263.243
5291.467
5318.28
5343.552
5367.345
5389.875
5411.275
5431.632
5451.068
5469.676
5487.532
5504.684
5521.157
5536.944
5552.019
5566.345
5579.859
5592.556
5604.29
5615.016
5624.712
5633.364
5640.899
5647.273
5652.464
5656.456
5659.231
5660.772
5661.059
5660.074
5657.818
5654.332
5649.693
5644.016
5637.558
5630.518
5623.117
5615.634
5608.355
5601.675
5595.382
5589.197
5583.767
5579.648
5577.113
5576.257
5577.04
5579.535
5583.78
5589.847
5597.677
5607.114
5617.935
5629.865
5642.609
5655.914
5669.628
5683.682
5698.037
5712.646
5727.466
5742.456
5757.536
5772.594
5787.524
5802.094
5815.99
5829.131
5841.284
5852.001
5861.712
5871.962
5883.578
5895.844
5907.993
5919.937
5931.72
5943.242
5954.184
5964.186
5973.05
5980.694
5987.093
5992.468
5997.127
6001.278
6005.207
6009.255
6013.72
6018.779
6024.478
6030.57
6036.665
6042.504
6047.949
6053.022
6057.726
6062.139
6066.423
6070.833
6075.424
6080.416
6085.258
6090.51
6095.946
6101.583
6107.336
6113.168
6118.943
6124.673
6130.214
6135.469
6140.654
6145.764
6150.609
6155.125
6159.351
6163.315
6167.005
6170.401
6173.504
6176.322
6178.871
6181.164
6183.206
6185.012
6186.594
6187.965
6189.135
6190.115
6190.913
6191.538
6191.998
6192.298
6192.443
6192.438
6192.285
6191.981
6191.527
6190.922
6190.163
6189.246
6188.168
6186.928
6185.519
6183.939
6182.185
6180.253
6178.141
6175.841
6173.344
6170.631
6167.689
6164.489
6160.985
6157.121
6152.855
6148.17
6143.116
6137.747
6132.106
6126.169
6119.948
6113.426
6106.728
6099.955
6093.039
6085.991
6078.944
6072.038
6065.363
6058.997
6053.028
6047.549
6042.626
6038.29
6034.53
6031.302
6028.535
6026.147
6024.061
6022.217
6020.569
6019.089
6017.774
6016.631
6015.676
6014.884
6014.334
6013.952
6013.712
6013.573
6013.482
6013.381
6013.198
6012.854
6012.27
6011.384
6010.155
6008.555
6006.574
6004.32
6001.768
5998.97
5995.955
5992.782
5989.53
5986.276
5983.087
5980.038
5977.21
5974.662
5972.431
5970.548
5969.048
5967.978
5967.369
5967.221
5967.482
5968.088
5968.938
5969.864
5970.707
5971.445
5972.289
5973.407
5974.722
5975.918
5976.794
5977.3
5977.379
5976.976
5975.955
5974.234
5971.695
5968.225
5964.064
5959.222
5954.418
5950.627
5947.192
5943.589
5938.583
5932.924
5926.166
5919.179
5909.869
5894.343
5866.16
2843.352
2814.975
2787.015
2735.169
2691.642
2615.189
2572.787
2531.193
2491.197
2453.185
2417.064
2384.346
2354.665
2329.631
2310.245
2296.8
2231.053
2236.941
2251.713
2271.897
2294.631
2325.277
2369.228
2427.964
2501.597
2592.027
2697.526
2817.468
2950.993
3097.126
3254.734
3422.421
3598.667
3782.157
3971.036
4162.211
4353.397
4541.769
4724.621
4898.426
5058.232
5196.492
5303.983
5391.588
5448.816
5471.833
5461.795
5420.931
5352.107
5258.811
5144.562
5012.75
4866.048
4706.732
4537.687
4362.121
4184.455
4008.659
3838.043
3676.373
3525.19
3384.345
3254.754
3136.829
3029.938
2933.408
2846.832
2770.046
2703.037
2645.853
2598.414
2560.5
2531.791
2511.277
2497.581
2489.033
2484.484
2483.23
2485.047
2489.203
2494.572
2499.913
2503.481
2503.638
2499.406
2490.394
2476.246
2457.097
2434.743
2411.616
2390.14
2373.015
2362.127
2357.789
2359.877
2368.687
2384.758
2408.563
2440.128
2480.382
2530.565
2589.682
2655.246
2724.728
2795.565
2865.083
2930.801
2990.494
3042.513
3085.355
3118.337
3141.148
3154.273
3158.15
3152.831
3139.426
3120.403
3097.901
3073.125
3047.532
3021.986
2997.698
2975.715
2957.611
2945.658
2940.546
2942.909
2953.451
2973.293
3003.932
3046.197
3099.656
3162.125
3230.897
3303.359
3376.148
3446.013
3510.319
3568.373
3621.879
3672.517
3720.366
3764.915
3806.317
3845.199
3881.888
3916.119
3947.299
3974.911
3998.499
4017.667
4032.073
4041.276
4044.775
4042.69
4035.366
4023.008
4005.523
3982.872
3955.038
3921.191
3879.394
3828.165
3768.208
3702.87
3636.679
3575.285
3526.457
3497.027
3489.388
3503.02
3537.412
3593.208
3669.69
3763.41
3869.318
3981.552
4094.462
4204.005
4308.113
4406.119
4498.013
4584.08
4664.369
4738.685
4806.897
4868.959
4924.634
4973.662
5015.826
5050.961
5078.977
5099.891
5113.992
5119.889
5118.695
5110.014
5093.91
5070.701
5040.608
5003.878
4960.909
4912.428
4859.71
4804.448
4748.776
4696.224
4652.746
4623.124
4607.576
4602.945
4607.106
4619.191
4639.337
4666.981
4699.699
4734.402
4768.331
4800.618
4831.033
4860.694
4890.601
4921.428
4952.933
4984.711
5016.181
5046.624
5075.676
5103.198
5128.991
5153.135
5175.785
5197.025
5216.951
5235.712
5253.468
5270.341
5286.415
5301.734
5316.307
5330.133
5343.188
5355.447
5366.837
5377.255
5386.653
5394.978
5402.2
5408.247
5413.079
5416.68
5419.036
5420.123
5419.907
5418.345
5415.415
5411.146
5405.657
5399.116
5391.749
5383.784
5375.463
5367.024
5358.684
5350.672
5343.122
5336.231
5330.401
5325.982
5323.186
5322.115
5322.781
5325.274
5329.69
5336.082
5344.418
5354.524
5366.086
5378.751
5392.156
5406.005
5420.124
5434.438
5448.948
5463.647
5478.48
5493.402
5508.375
5523.329
5538.191
5552.811
5567.005
5580.67
5593.567
5605.532
5617.019
5628.713
5640.817
5653.064
5665.138
5676.926
5688.389
5699.463
5709.972
5719.683
5728.44
5736.184
5742.951
5748.906
5754.195
5759.001
5763.602
5768.291
5773.257
5778.532
5784.21
5790.179
5796.13
5801.838
5807.161
5812.08
5816.657
5821.001
5825.241
5829.513
5833.855
5838.192
5843.139
5848.291
5853.374
5858.75
5864.268
5869.865
5875.446
5880.981
5886.384
5891.597
5896.682
5901.62
5906.297
5910.658
5914.726
5918.533
5922.081
5925.361
5928.365
5931.097
5933.574
5935.811
5937.804
5939.576
5941.135
5942.49
5943.651
5944.626
5945.424
5946.052
5946.517
5946.823
5946.977
5946.983
5946.842
5946.549
5946.103
5945.506
5944.751
5943.829
5942.737
5941.475
5940.036
5938.417
5936.618
5934.62
5932.444
5930.087
5927.533
5924.763
5921.751
5918.472
5914.898
5910.992
5906.719
5902.065
5897.045
5891.678
5885.983
5879.959
5873.616
5866.98
5860.109
5853.06
5845.879
5838.637
5831.435
5824.369
5817.524
5810.99
5804.882
5799.325
5794.413
5790.186
5786.625
5783.659
5781.183
5779.085
5777.263
5775.644
5774.179
5772.843
5771.639
5770.605
5769.8
5769.118
5768.712
5768.526
5768.517
5768.629
5768.801
5768.965
5769.035
5768.915
5768.512
5767.742
5766.547
5764.909
5762.845
5760.403
5757.627
5754.551
5751.205
5747.668
5744.046
5740.425
5736.861
5733.437
5730.262
5727.413
5724.918
5722.797
5721.083
5719.826
5719.064
5718.807
5718.998
5719.566
5720.454
5721.54
5722.643
5723.649
5724.616
5725.617
5726.621
5727.499
5728.1
5728.363
5728.244
5727.722
5726.678
5725.069
5722.829
5720.048
5716.915
5713.577
5710.254
5706.825
5703.356
5699.854
5695.737
5691.285
5685.977
5679.213
5669.107
5651.455
5621.013
3014.1
2978.339
2938.104
2886.955
2848.406
2774.437
2736.437
2698.715
2660.524
2621.541
2582.562
2543.46
2502.689
2461.786
2418.867
2309.14
2266.844
2225.617
2185.583
2147.085
2110.592
2076.781
2046.046
2019.233
1997.163
1980.732
1970.19
1968.427
1974.526
1987.972
2009.282
2040.997
2084.948
2143.051
2216.626
2305.403
2409.061
2526.984
2658.284
2802.039
2957.243
3122.365
3295.663
3474.983
3658.413
3844.442
4031.082
4215.552
4395.494
4565.848
4722.224
4859.501
4970.354
5053.782
5105.492
5122.934
5106.546
5058.879
4983.694
4885.476
4768.227
4635.185
4489.026
4331.328
4164.928
3991.98
3816.46
3643.29
3475.309
3315.191
3166.446
3030.627
2907.473
2796.675
2697.21
2607.745
2527.503
2456.346
2394.387
2341.754
2298.68
2265.645
2242.767
2228.626
2221.412
2218.848
2219.435
2223.364
2230.861
2240.67
2251.109
2261.091
2269.306
2273.302
2270.828
2260.723
2242.127
2215.191
2182.938
2149.259
2118.172
2093.451
2077.386
2069.444
2068.202
2073.422
2085.946
2106.912
2136.194
2176.709
2232.001
2299.793
2375.882
2457.366
2541.341
2624.837
2704.635
2777.386
2840.325
2891.373
2929.315
2953.793
2964.847
2963.254
2950.334
2927.54
2897.169
2862.207
2825.568
2789.359
2754.372
2721.296
2691.194
2665.748
2647.04
2636.542
2634.39
2640.64
2656.862
2686.465
2730.239
2787.66
2855.641
2930.906
3010.111
3089.15
3164.245
3233.356
3296.161
3354.094
3408.651
3460.532
3509.934
3556.974
3601.8
3644.42
3684.495
3721.312
3754.172
3782.549
3805.827
3823.195
3834.375
3838.194
3834.808
3824.54
3807.217
3782.61
3751.297
3713.996
3669.832
3617.155
3555.281
3485.561
3411.766
3338.363
3268.294
3207.357
3164.963
3146.509
3153.002
3184.089
3240.588
3322.615
3427.192
3547.682
3675.934
3804.5
3928.417
4045.237
4154.064
4255.184
4349.089
4435.993
4516.036
4589.409
4656.357
4716.747
4770.111
4815.998
4854.013
4883.871
4905.42
4918.418
4922.257
4917.376
4904.079
4882.348
4852.379
4814.774
4769.973
4718.306
4660.392
4597.693
4532.186
4465.739
4402.301
4352.869
4322.57
4308.422
4306.487
4314.828
4331.145
4356.085
4390.107
4429.891
4470.431
4507.45
4542.663
4574.764
4605.651
4636.454
4668.369
4701.472
4735.183
4768.717
4801.349
4832.614
4862.284
4890.053
4915.89
4939.851
4962.076
4982.725
5001.922
5019.832
5036.632
5052.465
5067.429
5081.6
5095.016
5107.681
5119.574
5130.645
5140.821
5150
5158.098
5165.021
5170.741
5175.205
5178.403
5180.335
5180.974
5180.261
5178.12
5174.482
5169.325
5162.784
5155.136
5146.674
5137.638
5128.207
5118.606
5109.006
5099.656
5090.915
5083.101
5076.486
5071.385
5068.066
5066.682
5067.174
5069.57
5074.02
5080.62
5089.373
5100.151
5112.642
5126.365
5140.735
5155.296
5169.868
5184.452
5199.134
5213.999
5228.937
5243.847
5258.758
5273.67
5288.527
5303.26
5317.774
5331.928
5345.628
5358.868
5371.763
5384.511
5397.218
5409.782
5422.048
5433.945
5445.388
5456.299
5466.546
5475.98
5484.558
5492.335
5499.369
5505.727
5511.55
5517.018
5522.293
5527.526
5532.831
5538.292
5544.044
5549.87
5555.618
5561.161
5566.417
5571.366
5576.024
5580.454
5584.724
5588.939
5593.184
5597.531
5602.14
5606.841
5611.984
5617.172
5622.426
5627.755
5633.097
5638.383
5643.557
5648.575
5653.424
5658.083
5662.505
5666.657
5670.541
5674.173
5677.556
5680.686
5683.561
5686.179
5688.56
5690.732
5692.65
5694.374
5695.9
5697.233
5698.381
5699.35
5700.146
5700.776
5701.246
5701.561
5701.725
5701.747
5701.625
5701.344
5700.905
5700.315
5699.56
5698.635
5697.53
5696.248
5694.779
5693.12
5691.28
5689.253
5687.036
5684.619
5682.005
5679.187
5676.138
5672.82
5669.208
5665.276
5660.998
5656.356
5651.342
5645.956
5640.201
5634.072
5627.575
5620.736
5613.612
5606.286
5598.849
5591.382
5583.953
5576.634
5569.511
5562.699
5556.355
5550.65
5545.711
5541.596
5538.272
5535.629
5533.517
5531.777
5530.279
5528.936
5527.686
5526.516
5525.425
5524.466
5523.669
5523.191
5522.957
5522.99
5523.239
5523.625
5524.076
5524.519
5524.852
5524.977
5524.785
5524.162
5523.019
5521.342
5519.172
5516.57
5513.589
5510.234
5506.512
5502.57
5498.572
5494.603
5490.625
5486.737
5483.149
5479.975
5477.209
5474.857
5472.937
5471.516
5470.632
5470.294
5470.457
5471.107
5472.199
5473.542
5474.861
5476.031
5477.097
5478.098
5478.99
5479.697
5480.125
5480.231
5479.961
5479.299
5478.217
5476.766
5474.89
5472.71
5470.284
5467.724
5464.897
5461.922
5458.831
5455.952
5452.622
5448.625
5443.902
5437.427
5427.905
5412.753
5388.657
2986.392
2939.995
2896.378
2841.294
2786.095
2736.314
2690.296
2647.826
2608.382
2568.879
2463.993
2426.681
2389.61
2352.092
2313.88
2274.97
2235.28
2194.55
2152.959
2111.272
2070.285
2028.444
1987.101
1946.562
1907.206
1869.372
1833.401
1799.432
1768.292
1741.203
1719.258
1704.123
1696.496
1697.145
1707.202
1727.316
1758.999
1803.487
1861.801
1934.692
2022.227
2124.235
2240.208
2369.28
2510.544
2662.858
2824.051
2992.011
3165.731
3343.844
3525.689
3708.858
3889.537
4064.272
4228.463
4377.327
4506.098
4609.335
4683.223
4724.966
4732.537
4706.053
4648.26
4563.817
4458.124
4336.385
4201.462
4056.163
3901.811
3740.067
3573.455
3403.503
3233.029
3067.094
2910.079
2766.541
2638.979
2525.908
2425.663
2336.882
2257.874
2187.171
2124.02
2068.656
2021.696
1983.832
1956.502
1941.002
1935.242
1937.174
1942.914
1950.157
1960.122
1974.261
1991.825
2010.794
2028.591
2043.058
2051.618
2052.147
2041.814
2016.866
1977.339
1928.576
1878.656
1834.491
1801.106
1780.097
1768.416
1763.438
1764.298
1771.695
1789.449
1814.993
1853.874
1915.508
1994.717
2084.311
2181.653
2283.101
2385.151
2483.855
2574.135
2651.35
2712.889
2757.598
2784.536
2793.427
2784.815
2760.481
2723.897
2679.029
2629.427
2578.707
2529.764
2484.074
2441.795
2402.043
2366.919
2340.013
2323.707
2316.984
2317.839
2327.319
2355.618
2400.659
2463.369
2538.988
2623.708
2713.709
2802.772
2885.042
2959.599
3027.153
3088.836
3146.359
3201.594
3255.268
3307.473
3358.129
3406.896
3453.153
3496.123
3535.01
3569.133
3597.74
3619.601
3632.768
3636.843
3631.947
3618.529
3595.919
3563.618
3523.654
3478.093
3425.4
3362.691
3288.83
3205.915
3119.206
3034.402
2951.649
2874.773
2817.486
2786.176
2782.888
2809.421
2869.17
2959.883
3077.947
3216.79
3365.877
3513.682
3653.076
3781.787
3900.161
4009.986
4111.691
4205.187
4291.141
4370.295
4442.866
4508.558
4566.852
4617.175
4658.901
4691.468
4714.471
4727.665
4730.806
4723.885
4706.642
4679.052
4641.721
4595.619
4541.437
4479.617
4410.86
4336.373
4257.935
4179.411
4106.373
4051.839
4017.817
4001.237
4002.713
4018.457
4041.005
4072.286
4113.66
4161.507
4214.511
4259.749
4294.126
4323.039
4352.555
4382.931
4415.318
4449.839
4485.474
4521.099
4555.967
4589.51
4621.154
4650.545
4677.946
4703.289
4726.546
4747.934
4767.664
4785.91
4802.848
4818.662
4833.486
4847.421
4860.555
4872.932
4884.559
4895.401
4905.384
4914.395
4922.32
4928.995
4934.439
4938.578
4941.402
4942.952
4943.214
4942.088
4939.431
4935.106
4929.055
4921.334
4912.244
4902.389
4892.141
4881.428
4870.493
4859.511
4848.737
4838.618
4829.533
4821.767
4815.826
4812.027
4810.289
4810.42
4812.542
4816.858
4823.513
4832.597
4844.057
4857.642
4872.751
4888.414
4903.866
4918.944
4933.78
4948.623
4963.755
4979.001
4994.138
5009.187
5024.216
5039.248
5054.249
5069.107
5083.776
5098.24
5112.409
5126.244
5139.793
5153.117
5166.15
5178.722
5190.779
5202.256
5213.121
5223.34
5232.84
5241.555
5249.517
5256.841
5263.593
5269.847
5275.756
5281.461
5287.067
5292.647
5298.206
5303.822
5309.463
5315.074
5320.54
5325.792
5330.8
5335.563
5340.177
5344.61
5348.955
5353.298
5357.703
5362.234
5366.892
5371.749
5376.691
5381.695
5386.715
5391.748
5396.735
5401.609
5406.326
5410.864
5415.206
5419.332
5423.22
5426.863
5430.265
5433.431
5436.362
5439.061
5441.531
5443.792
5445.848
5447.697
5449.371
5450.86
5452.168
5453.299
5454.257
5455.048
5455.677
5456.148
5456.47
5456.65
5456.697
5456.618
5456.365
5455.932
5455.362
5454.627
5453.708
5452.592
5451.28
5449.775
5448.081
5446.198
5444.135
5441.892
5439.441
5436.785
5433.916
5430.821
5427.474
5423.85
5419.917
5415.646
5411.018
5406.01
5400.6
5394.786
5388.552
5381.884
5374.808
5367.396
5359.755
5352.006
5344.25
5336.547
5328.924
5321.44
5314.235
5307.525
5301.549
5296.5
5292.472
5289.417
5287.177
5285.527
5284.235
5283.13
5282.145
5281.182
5280.176
5279.195
5278.302
5277.57
5277.106
5276.983
5277.229
5277.753
5278.422
5279.156
5279.883
5280.506
5280.915
5280.995
5280.595
5279.574
5277.901
5275.644
5272.901
5269.737
5266.128
5262.001
5257.75
5253.471
5249.085
5244.493
5239.975
5235.889
5232.388
5229.368
5226.867
5224.819
5223.237
5222.212
5221.815
5221.93
5222.643
5224.012
5225.775
5227.41
5228.763
5229.96
5231.012
5231.886
5232.529
5232.866
5232.842
5232.433
5231.679
5230.617
5229.37
5227.889
5226.159
5224.027
5221.655
5219.157
5216.939
5214.826
5212.654
5209.796
5206.203
5201.88
5196.299
5188.592
5177.518
5161.354
2727.619
2666.155
2540.981
2493.833
2447.858
2405.013
2364.864
2326.813
2290.144
2254.519
2219.882
2184.447
2148.529
2111.807
2074.295
2035.75
1996.126
1955.364
1913.423
1870.783
1828.765
1786.754
1745.05
1703.913
1663.162
1622.698
1583.194
1545.559
1510.687
1479.99
1455.111
1437.208
1427.045
1425.464
1433.637
1452.557
1483.438
1527.272
1584.807
1656.547
1742.615
1842.815
1956.749
2083.37
2221.576
2369.038
2523.887
2685.507
2853.834
3027.761
3204.854
3382.136
3555.77
3721.668
3875.398
4012.47
4128.594
4219.302
4280.653
4309.666
4304.452
4265.408
4195.367
4099.989
3984.981
3857.021
3720.156
3576.484
3428.455
3274.778
3114.677
2949.924
2783.37
2621.451
2470.128
2334.674
2217.905
2116.983
2028.528
1951.468
1884.989
1827.544
1776.461
1730.084
1688.907
1656.165
1635.365
1628.642
1631.96
1645.549
1662.078
1676.212
1693.748