/*--------------------------------*- C++ -*----------------------------------*\
| =========                 |                                                 |
| \\      /  F ield         | foam-extend: Open Source CFD                    |
|  \\    /   O peration     | Version:     3.1                                |
|   \\  /    A nd           | Web:         http://www.extend-project.de       |
|    \\/     M anipulation  |                                                 |
\*---------------------------------------------------------------------------*/
FoamFile
{
    version     2.0;
    format      ascii;
    class       volScalarField;
    location    "15";
    object      pd;
}
// * * * * * * * * * * * * * * * * * * * * * * * * * * * * * * * * * * * * * //

dimensions      [1 -1 -2 0 0 0 0];

internalField   nonuniform List<scalar> 
119952
(
6077.139
5110.603
4913.181
5066.961
5219.576
5144.614
5137.014
5144.102
5160.505
5179.936
5200.744
5221.669
5241.621
5259.819
5274.82
5286.648
5294.225
5295.437
5283.117
5211.1
5474.861
5277.867
5211.871
5539.134
5462.929
5472.299
5483.52
5560.781
5950.403
7142.984
3876.154
3899.189
3931.651
3975.467
4020.757
4066.875
4113.602
4160.282
4206.289
4227.088
4274.749
4316.962
4344.912
4372.041
4395.689
4415.659
4431.568
4442.882
4455.048
4456.944
4458.56
4447.002
4438.179
4430.992
4424.274
4419.649
4418.776
4421.276
4435.321
4444.506
4460.723
4493.344
4531.54
4575.591
4627.045
4683.88
4751.465
4859.907
5029.499
4954.897
4981.362
5063.253
5114.628
5134.321
5136.682
5149.62
5167.985
5187.109
5207.305
5227.209
5245.897
5262.866
5277.114
5287.802
5294.418
5295.95
5292.648
5289.719
5295.553
5298.838
5290.311
5335.936
5423.312
5424.286
5413.421
5405.664
5331.051
5051.432
4971.998
5008.979
5017.882
5040.891
5074.625
5118.185
5174.91
5243.588
5322.388
5407.449
5492.966
5571.401
5635.517
5685.018
5731.194
5786.03
5849.675
5915.491
5978.267
6035.759
6087.501
6134.338
6177.408
6217.221
6253.978
6287.076
6316.019
6340.994
6361.445
6376.887
6386.938
6391.277
6389.648
6381.9
6368.013
6348.163
6322.833
6292.654
6258.815
6223.31
6188.174
6155.596
6127.673
6105.66
6090.766
6083.333
6082.943
6089.46
6104.175
6132.185
6164.535
6187.877
6213.82
6229.121
6238.913
6253.455
6275.652
6301.877
6328.617
6353.928
6377.086
6398.404
6418.734
6438.891
6459.264
6479.956
6500.866
6521.708
6542.174
6562.151
6581.498
6600.175
6618.022
6635.085
6651.272
6666.39
6680.541
6693.657
6705.718
6716.698
6726.575
6735.332
6742.951
6749.419
6754.72
6758.842
6761.773
6763.51
6764.055
6763.427
6761.664
6758.825
6754.998
6750.294
6744.827
6738.687
6731.95
6724.979
6719.071
6717.724
6715.864
6710.104
6705.976
6702.954
6701.113
6700.961
6702.249
6705.069
6709.423
6715.372
6722.719
6731.448
6741.391
6752.38
6764.225
6776.769
6789.872
6803.442
6817.349
6831.728
6846.681
6862.137
6877.975
6894.096
6910.394
6926.677
6942.405
6956.077
6963.82
6952.023
6950.805
6965.772
6979.629
6989.703
6997.813
7017.591
7034.121
7047.706
7058.867
7068.104
7075.617
7081.557
7086.158
7089.691
7092.636
7095.56
7099.013
7103.451
7108.894
7115.204
7121.996
7128.854
7135.467
7141.681
7147.475
7152.907
7158.12
7163.264
7168.447
7173.75
7179.228
7184.908
7190.786
7196.841
7203.039
7209.331
7215.751
7222.337
7228.27
7243.215
7245.637
7246.467
7251.647
7256.631
7260.998
7265.294
7269.426
7273.265
7276.786
7279.996
7282.91
7285.538
7287.89
7289.977
7291.814
7293.416
7294.795
7295.967
7296.943
7297.734
7298.352
7298.804
7299.098
7299.241
7299.236
7299.088
7298.797
7298.367
7297.797
7297.085
7296.231
7295.231
7294.082
7292.781
7291.324
7289.708
7287.932
7285.997
7283.907
7281.673
7279.317
7276.884
7274.442
7271.944
7268.743
7264.024
7258.529
7253.141
7247.761
7242.248
7236.738
7230.843
7224.193
7212.71
7206.628
7202.71
7196.332
7189.541
7183.087
7176.771
7170.606
7164.714
7159.159
7153.979
7149.212
7144.879
7140.985
7137.516
7134.449
7131.765
7129.361
7127.253
7125.411
7123.754
7122.274
7120.949
7119.761
7118.697
7117.739
7116.862
7116.04
7115.232
7114.443
7113.654
7112.832
7111.92
7110.885
7109.706
7108.372
7106.868
7105.186
7103.329
7101.311
7099.156
7096.895
7094.568
7092.22
7089.906
7087.683
7085.611
7083.753
7082.129
7080.765
7079.751
7079.139
7078.946
7079.249
7080.141
7081.677
7083.72
7085.304
7084.819
7082.177
7080.529
7082.463
7086.892
7091.118
7092.945
7093.848
7094.314
7093.827
7092.419
7089.643
7084.509
7077.313
7068.809
7059.925
7051.893
7045.619
7040.585
7035.613
7029.795
7022.483
7013.292
7001.914
6989.62
6986.437
7010.124
4963.58
4846.38
4708.302
4585.167
4473.204
4371.951
4281.586
4202.299
4138.828
4046.288
4009.705
3971.235
3936.942
3911.937
3891.928
3878.374
3869.153
3860.471
3863.031
3875.127
3861.696
3852.651
3846.881
3841.852
3835.304
3827.382
3817.83
3808.848
3803.028
3783.007
3776.16
3773.567
3774.344
3780.378
3792.297
3810.013
3835.261
3872.576
3893.42
3928
3975.771
4024.892
4074.259
4124.007
4172.584
4218.394
4259.18
4294.647
4332.359
4363.561
4388.119
4408.288
4424.103
4435.569
4443.572
4451.065
4435.668
4428.637
4426.24
4419.503
4409.998
4401.339
4395.878
4394.895
4399.073
4408.224
4425.452
4450.857
4482.906
4522.216
4569.79
4625.757
4690.581
4762.779
4839.304
4908.893
4956.653
4992.828
5034.825
5076.844
5110.564
5135.748
5157.712
5179.731
5202.285
5224.55
5245.505
5264.338
5280.608
5294.205
5304.355
5311.137
5314.467
5315.106
5314.566
5314.78
5316.698
5321.812
5333.512
5345.151
5341.02
5315.055
5265.182
5186.179
5090.514
5019.997
4993.248
4996.678
5017.274
5048.255
5091.518
5148.314
5217.615
5296.653
5381.251
5466.608
5548.036
5622.726
5691.107
5756.683
5822.946
5890.391
5956.511
6018.687
6075.475
6126.583
6172.464
6213.952
6251.303
6284.416
6313.735
6338.819
6359.651
6375.76
6386.732
6392.203
6391.755
6385.174
6372.426
6353.508
6328.651
6298.437
6263.941
6226.634
6188.536
6151.953
6119.338
6092.722
6073.431
6061.838
6058.174
6062.043
6073.641
6092.284
6116.454
6143.55
6169.934
6195.023
6217.595
6237.812
6259.39
6284.314
6311.37
6338.594
6364.683
6389.055
6411.734
6433.219
6454.093
6474.632
6494.935
6515.005
6534.772
6554.121
6572.986
6591.303
6609.002
6625.989
6642.191
6657.578
6672.165
6685.575
6698.059
6709.518
6719.903
6729.188
6737.356
6744.388
6750.264
6754.972
6758.494
6760.824
6761.951
6761.883
6760.631
6758.251
6754.796
6750.404
6745.161
6739.3
6732.852
6726.228
6719.156
6713.148
6713.301
6706.561
6702.795
6699.604
6697.135
6695.891
6696.08
6697.945
6701.355
6706.334
6712.86
6720.84
6730.129
6740.587
6752.019
6764.253
6777.121
6790.525
6804.372
6818.621
6833.301
6848.415
6863.92
6879.706
6895.587
6911.378
6926.663
6940.382
6951.516
6958.05
6958.493
6963.567
6975.066
6987.383
6999.082
7011.099
7025.168
7039.983
7052.758
7063.586
7072.755
7080.253
7086.012
7090.25
7093.389
7095.938
7098.496
7101.617
7105.721
7110.948
7117.135
7123.809
7130.548
7137.04
7143.18
7148.856
7154.106
7159.132
7164.091
7169.067
7174.155
7179.424
7184.896
7190.573
7196.443
7202.465
7208.627
7214.867
7221.255
7229.406
7233.158
7239.986
7246.607
7251.64
7255.886
7260.06
7264.252
7268.304
7272.088
7275.56
7278.727
7281.602
7284.199
7286.524
7288.589
7290.407
7291.991
7293.357
7294.516
7295.48
7296.261
7296.867
7297.307
7297.587
7297.714
7297.691
7297.522
7297.208
7296.75
7296.148
7295.4
7294.505
7293.458
7292.258
7290.901
7289.384
7287.705
7285.861
7283.854
7281.685
7279.356
7276.867
7274.202
7271.307
7268.068
7264.345
7259.99
7255.054
7249.799
7244.395
7238.819
7233.042
7227.006
7220.786
7214.242
7206.712
7199.251
7192.427
7186.004
7179.682
7173.399
7167.268
7161.428
7155.975
7150.961
7146.408
7142.322
7138.689
7135.482
7132.664
7130.178
7128.007
7126.062
7124.34
7122.816
7121.466
7120.278
7119.248
7118.357
7117.59
7116.922
7116.319
7115.744
7115.166
7114.55
7113.852
7112.996
7111.962
7110.705
7109.233
7107.55
7105.649
7103.547
7101.265
7098.831
7096.285
7093.678
7091.063
7088.501
7086.058
7083.79
7081.752
7079.989
7078.531
7077.421
7076.726
7076.48
7076.673
7077.323
7078.309
7079.361
7080.064
7080.331
7080.232
7080.464
7082.077
7084.488
7086.934
7088.703
7089.734
7090.15
7089.769
7088.158
7085.259
7080.818
7074.596
7067.473
7060.725
7055.17
7050.918
7046.494
7040.944
7033.741
7025.757
7017.256
7009.305
7001.202
6993.854
6982.624
3804.864
3872.314
3964.251
4072.032
4194.804
4331.934
4482.998
4646.646
4821.371
5003.304
5194.347
5392.962
5593.785
5795.524
5993.054
6184.349
6365.448
6530.302
6672.569
6803.612
6894.807
6956.264
6987.061
6986.764
6955.941
6896.407
6810.433
6700.884
6574.969
6426.919
6268.067
6097.533
5921.176
5742.505
5564.99
5391.747
5225.74
5069.952
4913.533
4774.721
4645.984
4527.024
4419.469
4322.347
4235.783
4159.764
4094.7
4037.741
3988.695
3951.347
3920.891
3897.193
3879.681
3867.432
3860.13
3862.393
3845.67
3843.453
3845.747
3846.293
3843.582
3837.947
3830.075
3820.269
3808.879
3796.045
3782.987
3772.616
3764.795
3760.149
3760.308
3766.443
3778.938
3798.205
3823.834
3855.724
3893.764
3935.959
3983.253
4035.424
4090.245
4144.84
4197.192
4246.046
4290.674
4330.658
4365.356
4394.15
4417.032
4434.049
4445.411
4451.284
4451.75
4447.006
4435.862
4423.873
4414.196
4402.87
4390.022
4378.444
4370.477
4367.386
4369.945
4379.232
4395.788
4419.681
4451.85
4492.977
4542.852
4600.986
4665.017
4733.592
4802.572
4870.572
4927.134
4971.107
5013.784
5057.848
5098.158
5131.44
5159.743
5186.504
5212.777
5237.939
5261.058
5281.46
5298.857
5313.138
5324.073
5331.306
5334.951
5335.422
5333.463
5330.135
5326.432
5321.302
5314.944
5307.223
5289.717
5254.699
5203.261
5140.29
5068.785
5005.743
4971.071
4965.417
4975.724
5001.387
5042.008
5097.799
5167.744
5249.045
5337.481
5428.517
5518.141
5603.524
5683.826
5760.398
5835.189
5908.441
5978.596
6043.976
6103.648
6157.326
6205.125
6247.346
6284.239
6316.124
6343.545
6366.175
6383.82
6396.323
6403.457
6404.993
6400.329
6389.101
6371.516
6347.747
6318.056
6283.054
6243.96
6202.454
6160.701
6121.233
6086.753
6059.529
6041.02
6031.245
6029.8
6036.263
6050.186
6070.658
6095.953
6124.295
6153.205
6180.549
6205.738
6229.868
6255.073
6282.33
6310.953
6339.716
6367.6
6394.124
6418.957
6442.203
6464.186
6485.22
6505.536
6525.269
6544.471
6563.147
6581.289
6598.871
6615.853
6632.172
6647.769
6662.615
6676.538
6689.737
6701.856
6712.955
6723.008
6731.965
6739.797
6746.484
6752.007
6756.353
6759.504
6761.448
6762.175
6761.679
6759.971
6757.093
6753.117
6748.175
6742.44
6736.094
6729.307
6722.39
6715.6
6710.059
6705.167
6700.276
6695.595
6691.715
6689.19
6688.247
6688.854
6691.129
6695.045
6700.639
6707.874
6716.647
6726.778
6738.035
6750.163
6762.959
6776.285
6790.053
6804.206
6818.691
6833.474
6848.521
6863.763
6879.09
6894.332
6909.242
6923.381
6936.269
6946.921
6955.585
6963.67
6972.459
6983.292
6995.304
7007.482
7019.787
7032.399
7044.919
7056.533
7066.78
7075.503
7082.733
7088.617
7093.271
7096.997
7100.274
7103.617
7107.481
7112.21
7117.922
7124.257
7130.628
7136.762
7142.608
7147.713
7152.627
7157.384
7162.03
7166.699
7171.425
7176.35
7181.522
7186.874
7192.441
7198.177
7204.067
7210.071
7216.126
7222.154
7228.118
7233.671
7239.098
7244.384
7249.356
7254.034
7258.513
7262.824
7266.915
7270.72
7274.208
7277.385
7280.268
7282.871
7285.206
7287.283
7289.115
7290.714
7292.096
7293.272
7294.253
7295.05
7295.672
7296.126
7296.42
7296.559
7296.546
7296.384
7296.075
7295.617
7295.011
7294.255
7293.346
7292.282
7291.059
7289.674
7288.124
7286.407
7284.519
7282.459
7280.226
7277.814
7275.207
7272.38
7269.289
7265.88
7262.076
7257.809
7253.053
7247.926
7242.531
7236.937
7231.078
7224.99
7218.509
7211.732
7205.066
7198.392
7191.626
7184.837
7178.119
7171.559
7165.258
7159.319
7153.83
7148.842
7144.376
7140.43
7136.976
7133.965
7131.342
7129.038
7127.004
7125.195
7123.588
7122.166
7120.923
7119.859
7118.999
7118.256
7117.683
7117.232
7116.863
7116.53
7116.182
7115.763
7115.212
7114.47
7113.493
7112.248
7110.688
7108.868
7106.745
7104.415
7101.879
7099.16
7096.309
7093.389
7090.466
7087.608
7084.882
7082.351
7080.073
7078.091
7076.431
7075.135
7074.256
7073.839
7073.861
7074.271
7074.961
7075.852
7076.767
7077.443
7077.793
7078.359
7079.562
7081.414
7083.18
7084.37
7085.058
7085.31
7084.974
7083.829
7081.781
7078.668
7074.538
7069.593
7063.827
7057.725
7052.098
7047.161
7042.901
7038.623
7033.692
7026.642
7018.124
7007.61
6995.048
6976.1
3665.18
3636.747
3616.976
3598.277
3586.193
3586.183
3599.43
3627.939
3670.855
3697.488
3710.654
3742.241
3794.694
3866.156
3954.97
4059.04
4178.119
4310.003
4454.591
4611.197
4778.69
4955.91
5140.406
5330.176
5523.711
5717.722
5908.541
6093.074
6268.678
6429.439
6572.397
6723.988
6814.248
6872.815
6897.124
6889.34
6851.314
6785.222
6693.902
6580.796
6449.51
6302.37
6141.924
5971.592
5795.382
5617.243
5440.988
5270.001
5107.246
4954.089
4811.066
4678.828
4556.904
4445.127
4343.754
4252.739
4171.973
4101.369
4040.689
3989.702
3948.012
3914.848
3889.519
3871.085
3858.236
3849.866
3844.932
3843.057
3842.077
3843.652
3846.699
3847.456
3844.988
3839.439
3830.827
3819.085
3804.409
3788.132
3772.145
3757.551
3745.87
3738.885
3737.593
3742.553
3754.059
3772.391
3797.872
3830.41
3869.666
3915.728
3968.396
4026.612
4087.774
4149.124
4208.478
4264.289
4314.925
4358.969
4396.158
4425.937
4448.189
4462.847
4470.08
4470.318
4464.151
4452.908
4437.966
4421.214
4404.501
4387.537
4370.663
4355.379
4343.482
4336.501
4335.688
4341.936
4355.66
4377.766
4409.453
4451.136
4502.419
4561.815
4627.113
4696.083
4765.595
4833.005
4893.146
4945.067
4993.285
5040.207
5084.088
5123.126
5158.081
5190.736
5221.841
5251.037
5277.622
5301.019
5320.96
5337.285
5349.581
5357.524
5360.995
5360.265
5355.868
5348.278
5337.623
5323.465
5305.697
5283.652
5253.219
5210.837
5157.221
5096.136
5031.643
4973.212
4932.919
4914.935
4916.663
4936.71
4974.531
5030.189
5102.48
5188.4
5283.692
5383.507
5483.335
5579.899
5671.733
5758.949
5842.15
5921.482
5996.266
6065.684
6129.231
6186.655
6237.853
6282.884
6321.86
6354.918
6382.125
6403.297
6418.096
6427.684
6430.704
6427.321
6417.459
6400.887
6377.567
6347.777
6311.99
6270.934
6225.832
6178.44
6131.04
6086.579
6048.739
6020.403
6002.554
5994.682
5995.87
6005.167
6021.972
6045.319
6073.566
6104.39
6135.239
6164.73
6192.768
6220.346
6248.644
6277.874
6307.622
6337.54
6366.868
6395.091
6421.905
6447.177
6470.97
6493.5
6514.9
6535.257
6554.693
6573.301
6591.157
6608.309
6624.782
6640.569
6655.644
6669.969
6683.484
6696.181
6707.915
6718.641
6728.337
6736.989
6744.524
6750.898
6756.089
6760.081
6762.856
6764.397
6764.684
6763.699
6761.443
6757.957
6753.318
6747.641
6741.183
6734.143
6726.742
6719.259
6711.98
6705.3
6699.007
6692.822
6687.392
6683.273
6680.738
6679.882
6680.665
6683.16
6687.405
6693.472
6701.302
6710.739
6721.56
6733.49
6746.234
6759.539
6773.253
6787.307
6801.662
6816.271
6831.091
6846.081
6861.161
6876.219
6891.149
6905.719
6919.615
6932.756
6944.909
6955.626
6965.337
6975.587
6987.203
6999.469
7011.618
7023.562
7035.345
7046.867
7057.809
7067.811
7076.675
7084.319
7090.718
7096.093
7100.752
7104.903
7108.832
7112.88
7117.345
7122.404
7128.103
7134.195
7140.29
7146.129
7151.574
7156.647
7161.351
7165.764
7170.048
7174.458
7179.049
7184.041
7188.883
7194.135
7199.571
7205.208
7210.961
7216.793
7222.568
7228.298
7233.839
7239.094
7244.279
7249.389
7254.234
7258.75
7262.976
7266.94
7270.63
7274.026
7277.129
7279.947
7282.496
7284.789
7286.831
7288.637
7290.219
7291.59
7292.76
7293.74
7294.538
7295.163
7295.623
7295.923
7296.068
7296.063
7295.91
7295.606
7295.152
7294.547
7293.788
7292.871
7291.793
7290.553
7289.144
7287.564
7285.81
7283.878
7281.766
7279.466
7276.969
7274.256
7271.314
7268.114
7264.61
7260.746
7256.48
7251.795
7246.741
7241.372
7235.731
7229.794
7223.573
7217.051
7210.353
7203.58
7196.664
7189.616
7182.569
7175.662
7168.988
7162.622
7156.653
7151.174
7146.251
7141.914
7138.155
7134.927
7132.16
7129.772
7127.686
7125.842
7124.194
7122.714
7121.398
7120.256
7119.301
7118.509
7117.959
7117.577
7117.337
7117.198
7117.107
7117.006
7116.823
7116.479
7115.895
7115.009
7113.779
7112.178
7110.197
7107.945
7105.393
7102.595
7099.58
7096.407
7093.155
7089.901
7086.712
7083.663
7080.832
7078.284
7076.055
7074.173
7072.673
7071.603
7070.994
7070.846
7071.107
7071.712
7072.559
7073.474
7074.284
7075.017
7075.89
7077.029
7078.347
7079.543
7080.419
7080.925
7081.004
7080.601
7079.58
7077.858
7075.32
7071.85
7067.689
7062.847
7058.043
7054.252
7050.817
7047.214
7042.208
7036.549
7029.791
7022.804
7013.494
6997.968
6969.785
4111.697
4071.602
4032.618
3992.075
3948.549
3902.751
3860.349
3818.756
3778.759
3740.747
3704.627
3671.909
3642.227
3617.193
3597.808
3584.363
3579.928
3585.816
3600.588
3620.772
3643.506
3674.152
3718.103
3776.839
3850.472
3940.902
4046.401
4166.343
4299.868
4446.001
4603.609
4771.296
4947.542
5131.032
5319.911
5511.086
5702.272
5890.644
6073.496
6247.301
6407.107
6545.367
6652.858
6740.463
6797.691
6820.708
6810.67
6769.806
6700.982
6607.686
6493.437
6361.625
6214.923
6055.607
5886.562
5710.996
5533.33
5357.534
5186.918
5025.248
4874.065
4733.22
4603.629
4485.704
4378.813
4282.283
4195.707
4118.921
4051.912
3994.728
3947.288
3909.375
3880.666
3860.152
3846.456
3837.908
3833.359
3832.105
3833.922
3838.078
3843.447
3848.788
3852.356
3852.513
3848.281
3839.269
3825.121
3805.972
3783.618
3760.491
3739.015
3721.89
3711.002
3706.664
3708.752
3717.562
3733.633
3757.438
3789.003
3829.257
3879.44
3938.557
4004.121
4073.603
4144.44
4213.958
4279.676
4339.369
4391.388
4434.23
4467.212
4490.023
4503.148
4507.025
4501.706
4488.3
4469.278
4446.776
4422
4396.407
4370.861
4346.573
4324.59
4306.486
4294.533
4289.42
4291.773
4302.313
4322.159
4352.804
4395.072
4448.531
4511
4579.772
4652.234
4725.023
4794.888
4859.194
4917.248
4970.754
5021.392
5069.241
5113.789
5155.189
5194.07
5230.762
5264.994
5296.174
5323.786
5347.374
5366.542
5380.948
5390.151
5393.65
5391.565
5384.241
5371.883
5354.398
5331.747
5303.913
5270.066
5228.269
5177.036
5117.072
5051.735
4985.549
4924.159
4875.332
4845.902
4838.263
4851.895
4886.286
4942.082
5018.564
5112.283
5218.19
5330.423
5443.335
5552.88
5656.988
5754.994
5846.888
5932.953
6013.235
6087.536
6155.749
6217.827
6273.508
6322.537
6364.701
6399.836
6427.852
6448.766
6462.867
6468.764
6467.57
6458.889
6442.785
6419.576
6389.483
6352.753
6309.784
6261.303
6208.585
6153.321
6097.629
6044.896
6000.201
5966.876
5947.296
5945.297
5954.208
5967.907
5988.208
6015.856
6048.574
6083.277
6117.205
6149.492
6179.906
6209.566
6239.468
6270.28
6301.781
6333.571
6365.054
6395.498
6424.551
6452.073
6477.866
6502.01
6524.66
6545.9
6565.826
6584.587
6602.343
6619.216
6635.29
6650.608
6665.182
6679.008
6692.063
6704.322
6715.712
6726.13
6735.528
6743.853
6751.075
6757.122
6761.954
6765.555
6767.911
6768.998
6768.782
6767.22
6764.29
6760.02
6754.531
6747.99
6740.624
6732.659
6724.338
6715.899
6707.559
6699.547
6691.997
6685.106
6679.276
6674.857
6672.061
6670.989
6671.653
6674.14
6678.545
6684.94
6693.287
6703.398
6714.961
6727.626
6741.031
6754.88
6768.999
6783.313
6797.823
6812.522
6827.355
6842.277
6857.25
6872.204
6887.066
6901.686
6915.88
6929.545
6942.442
6954.407
6965.894
6977.588
6989.692
7001.939
7014.013
7025.801
7037.264
7048.338
7058.847
7068.558
7077.315
7085.059
7091.826
7097.781
7103.07
7107.876
7112.477
7117.166
7122.132
7127.407
7133.085
7139.054
7145.005
7150.713
7156.036
7160.955
7165.532
7169.876
7174.116
7178.388
7182.73
7187.067
7192.014
7197.166
7202.249
7207.625
7213.143
7218.74
7224.321
7229.856
7235.259
7240.472
7245.557
7250.495
7255.172
7259.533
7263.601
7267.408
7270.956
7274.236
7277.24
7279.972
7282.449
7284.686
7286.679
7288.451
7290.01
7291.365
7292.526
7293.501
7294.299
7294.927
7295.392
7295.698
7295.852
7295.858
7295.717
7295.424
7294.978
7294.381
7293.626
7292.704
7291.612
7290.35
7288.911
7287.292
7285.493
7283.495
7281.319
7278.962
7276.408
7273.637
7270.626
7267.347
7263.773
7259.866
7255.594
7250.94
7245.92
7240.553
7234.858
7228.834
7222.491
7215.855
7208.984
7201.935
7194.754
7187.512
7180.31
7173.244
7166.399
7159.864
7153.757
7148.2
7143.287
7139.06
7135.499
7132.534
7130.058
7127.96
7126.138
7124.519
7123.054
7121.717
7120.514
7119.479
7118.675
7117.993
7117.587
7117.401
7117.392
7117.504
7117.676
7117.84
7117.91
7117.79
7117.383
7116.603
7115.404
7113.776
7111.719
7109.278
7106.502
7103.426
7100.08
7096.543
7092.92
7089.293
7085.708
7082.268
7079.11
7076.283
7073.792
7071.672
7069.958
7068.7
7067.939
7067.68
7067.863
7068.395
7069.115
7069.938
7071.114
7072.392
7073.479
7074.492
7075.496
7076.374
7076.975
7077.238
7077.119
7076.597
7075.553
7073.944
7071.704
7068.922
7065.79
7062.451
7059.128
7055.699
7052.231
7048.729
7044.612
7040.16
7034.852
7028.088
7017.982
7000.33
6969.888
4521.735
4474.425
4430.741
4389.111
4350.562
4307.25
4269.25
4231.527
4193.336
4154.354
4115.375
4076.273
4035.501
3994.598
3951.68
3903.265
3860.969
3819.742
3779.708
3741.21
3704.717
3670.906
3640.171
3613.358
3591.288
3574.857
3564.315
3562.552
3568.651
3582.097
3603.407
3635.122
3679.073
3737.176
3810.751
3899.528
4003.186
4121.109
4252.409
4396.164
4551.368
4716.49
4889.788
5069.108
5252.538
5438.567
5625.207
5809.677
5989.619
6159.973
6316.349
6453.626
6564.479
6647.907
6699.617
6717.059
6700.671
6653.004
6577.819
6479.601
6362.352
6229.31
6083.151
5925.453
5759.053
5586.105
5410.585
5237.415
5069.434
4909.316
4760.571
4624.751
4501.598
4390.8
4291.335
4201.87
4121.628
4050.471
3988.512
3935.879
3892.805
3859.77
3836.892
3822.75
3815.537
3812.973
3813.56
3817.489
3824.986
3834.795
3845.234
3855.216
3863.431
3867.427
3864.953
3854.848
3836.252
3809.316
3777.063
3743.384
3712.297
3687.576
3671.511
3663.569
3662.327
3667.547
3680.071
3701.037
3730.319
3770.834
3826.126
3893.918
3970.007
4051.491
4135.466
4218.962
4298.76
4371.511
4434.45
4485.498
4523.44
4547.918
4558.972
4557.379
4544.459
4521.665
4491.294
4456.332
4419.693
4383.484
4348.497
4315.421
4285.319
4259.873
4241.165
4230.667
4228.505
4234.698
4250.907
4280.535
4324.346
4381.783
4449.765
4525.031
4604.236
4683.274
4758.369
4827.478
4890.266
4948.108
5002.292
5054.053
5103.72
5151.048
5195.924
5238.545
5278.62
5315.437
5348.297
5376.674
5399.952
5417.32
5428.5
5432.319
5428.932
5418.665
5401.341
5376.735
5345.422
5308.119
5263.933
5211.166
5149.199
5079.522
5005.837
4932.482
4862.419
4801.481
4759.086
4740.623
4747.089
4778.099
4834.4
4916.192
5020.785
5141.548
5270.023
5398.623
5522.541
5639.358
5748.178
5849.274
5943.096
6029.883
6109.984
6183.492
6250.48
6310.872
6364.236
6410.123
6448.138
6477.996
6499.545
6512.543
6516.382
6511.501
6498.204
6476.473
6446.504
6408.899
6364.098
6312.43
6254.517
6191.812
6126.211
6058.74
5988.233
5903.675
5858.448
5871.183
5894.866
5908.689
5925.264
5950.206
5984.226
6024.005
6064.525
6101.46
6136.265
6166.525
6196.411
6228.365
6262.03
6295.572
6329.307
6362.842
6395.474
6426.739
6456.409
6484.176
6510.012
6533.973
6556.2
6576.85
6596.047
6613.957
6630.757
6646.59
6661.554
6675.725
6689.141
6701.806
6713.699
6724.77
6734.946
6744.125
6752.223
6759.146
6764.866
6769.33
6772.528
6774.46
6775.099
6774.386
6772.245
6768.604
6763.446
6756.907
6749.26
6740.799
6731.763
6722.332
6712.731
6703.131
6693.781
6685.04
6677.226
6670.607
6665.49
6662.109
6660.511
6660.771
6663.347
6668.052
6674.738
6683.497
6694.276
6706.767
6720.49
6734.86
6749.421
6763.993
6778.577
6793.259
6808.124
6823.062
6837.972
6852.883
6867.795
6882.652
6897.385
6911.899
6926.053
6939.753
6952.993
6965.888
6978.636
6991.343
7003.907
7016.173
7028.07
7039.513
7050.424
7060.671
7070.105
7078.683
7086.46
7093.494
7099.852
7105.675
7111.143
7116.418
7121.651
7126.956
7132.417
7138.169
7143.995
7149.743
7155.286
7160.542
7165.491
7170.149
7174.579
7178.849
7183.064
7187.309
7191.656
7196.265
7200.966
7206.109
7211.297
7216.551
7221.88
7227.222
7232.508
7237.682
7242.7
7247.549
7252.208
7256.63
7260.782
7264.666
7268.298
7271.681
7274.811
7277.686
7280.304
7282.685
7284.857
7286.775
7288.499
7290.025
7291.358
7292.506
7293.475
7294.271
7294.901
7295.371
7295.686
7295.85
7295.872
7295.75
7295.469
7295.03
7294.44
7293.685
7292.76
7291.655
7290.373
7288.904
7287.245
7285.405
7283.378
7281.161
7278.742
7276.128
7273.311
7270.262
7266.945
7263.333
7259.401
7255.123
7250.481
7245.467
7240.081
7234.326
7228.197
7221.7
7214.861
7207.737
7200.411
7192.974
7185.507
7178.078
7170.759
7163.636
7156.823
7150.477
7144.764
7139.827
7135.718
7132.396
7129.754
7127.642
7125.902
7124.404
7123.061
7121.811
7120.641
7119.549
7118.59
7117.794
7117.316
7117.082
7117.115
7117.364
7117.75
7118.201
7118.643
7118.971
7119.065
7118.781
7118.178
7117.112
7115.464
7113.296
7110.695
7107.714
7104.358
7100.629
7096.653
7092.508
7088.249
7084.325
7080.722
7077.258
7074.091
7071.312
7068.914
7066.946
7065.524
7064.661
7064.331
7064.34
7063.466
7063.554
7065.302
7068.116
7070.04
7071.217
7072.223
7073.115
7073.822
7074.25
7074.356
7074.086
7073.424
7072.342
7070.89
7069.014
7066.831
7064.397
7061.833
7059.013
7056.046
7052.956
7050.077
7046.747
7042.75
7038.027
7031.552
7022.03
7006.878
6982.782
4734.641
4718.057
4674.441
4619.357
4564.158
4514.376
4468.358
4425.888
4386.444
4346.942
4303.368
4266.056
4228.985
4191.467
4153.255
4114.345
4074.655
4033.925
3992.334
3950.647
3909.66
3867.819
3826.476
3785.937
3746.581
3708.747
3672.776
3638.807
3607.667
3580.578
3558.633
3543.498
3535.871
3536.52
3546.577
3566.691
3598.374
3642.862
3701.176
3774.067
3861.602
3963.61
4079.583
4208.655
4349.919
4502.233
4663.426
4831.386
5005.106
5183.219
5365.064
5548.233
5728.912
5903.647
6067.838
6216.702
6345.473
6448.71
6522.598
6564.341
6571.912
6545.428
6487.635
6403.192
6297.499
6175.76
6040.837
5895.538
5741.186
5579.442
5412.83
5242.878
5072.404
4906.469
4749.454
4605.916
4478.354
4365.283
4265.038
4176.257
4097.249
4026.546
3963.395
3908.031
3861.071
3823.207
3795.877
3780.377
3774.617
3776.549
3782.289
3789.532
3799.497
3813.636
3831.2
3850.169
3867.966
3882.433
3890.993
3891.522
3881.189
3856.241
3816.714
3767.951
3718.03
3673.864
3640.479
3619.47
3607.79
3602.813
3603.673
3611.07
3628.824
3654.368
3693.248
3754.882
3834.091
3923.685
4021.028
4122.476
4224.526
4323.23
4413.51
4490.725
4552.264
4596.973
4623.911
4632.802
4624.19
4599.855
4563.272
4518.404
4468.801
4418.08
4369.137
4323.446
4281.167
4241.416
4206.294
4179.388
4163.081
4156.348
4157.094
4166.309
4194.599
4239.764
4302.643
4378.341
4463.07
4553.069
4642.105
4724.151
4796.827
4855.735
4915.947
4980.034
5040.215
5094.604
5146.846
5197.504
5246.271
5292.528
5335.498
5374.385
5408.508
5437.115
5458.975
5472.139
5476.214
5471.32
5457.904
5435.294
5402.989
5362.988
5317.157
5263.499
5200.278
5127.19
5045.061
4958.559
4873.765
4791.008
4714.124
4656.804
4625.326
4621.094
4643.592
4700.373
4793.081
4915.108
5055.901
5205.243
5353.054
5492.414
5620.909
5738.573
5847.22
5948.652
6043.268
6130.325
6209.663
6282.241
6347.933
6406.227
6456.55
6498.275
6530.843
6553.846
6567.04
6570.181
6563.26
6546.017
6518.426
6481.093
6434.97
6380.742
6318.922
6250.198
6175.647
6096.115
6001.252
5823.417
5749.909
5778.225
5827.09
5841.048
5857.619
5880.19
5911.45
5952.563
5998.005
6029.188
6008.476
6048.182
6130.84
6187.764
6222.06
6254.672
6289.211
6324.846
6360.469
6395.315
6428.776
6460.421
6489.878
6517.315
6542.664
6565.921
6587.309
6607.039
6625.285
6642.223
6658.037
6672.861
6686.796
6699.93
6712.307
6723.934
6734.776
6744.759
6753.77
6761.695
6768.37
6773.814
6777.953
6780.777
6782.327
6782.589
6781.463
6778.798
6774.467
6768.422
6760.707
6751.619
6741.763
6731.516
6720.802
6709.867
6698.885
6688.11
6677.985
6668.856
6660.818
6653.596
6646.732
6645.99
6648.744
6651.826
6656.23
6662.888
6671.972
6683.432
6697.017
6712.126
6727.789
6743.241
6758.319
6773.155
6787.998
6803.13
6818.374
6833.502
6848.5
6863.46
6878.522
6893.592
6908.479
6923.151
6937.615
6951.784
6965.619
6979.168
6992.492
7005.525
7018.097
7030.154
7041.631
7052.496
7062.715
7072.215
7080.93
7088.892
7096.216
7102.968
7109.222
7115.131
7120.836
7126.442
7132.022
7137.581
7143.197
7148.838
7154.449
7159.915
7165.167
7170.175
7174.938
7179.552
7183.985
7188.33
7192.673
7197.078
7201.609
7206.267
7211.124
7216.066
7221.07
7226.09
7231.123
7236.11
7240.984
7245.701
7250.239
7254.581
7258.707
7262.595
7266.238
7269.64
7272.806
7275.737
7278.436
7280.906
7283.167
7285.223
7287.072
7288.746
7290.235
7291.542
7292.673
7293.632
7294.423
7295.052
7295.523
7295.845
7296.025
7296.072
7295.993
7295.74
7295.307
7294.737
7294.002
7293.083
7291.967
7290.655
7289.15
7287.456
7285.573
7283.51
7281.266
7278.81
7276.149
7273.285
7270.194
7266.849
7263.225
7259.292
7255.021
7250.393
7245.385
7239.975
7234.161
7227.927
7221.258
7214.18
7206.768
7199.129
7191.38
7183.625
7175.922
7168.299
7160.814
7153.598
7146.842
7140.881
7135.863
7131.846
7128.792
7126.552
7124.902
7123.61
7122.505
7121.52
7120.557
7119.551
7118.569
7117.676
7116.943
7116.48
7116.357
7116.603
7117.128
7117.796
7118.528
7119.212
7119.456
7119.703
7119.937
7119.863
7118.942
7117.276
7115.019
7112.275
7109.101
7105.415
7100.791
7094.22
7088.185
7085.709
7083.33
7079.307
7075.22
7071.633
7068.202
7064.426
7060.586
7058.973
7058.52
7058.157
7058.107
7058.821
7060.192
7061.952
7063.588
7064.941
7066.892
7069.816
7071.232
7071.904
7072.241
7072.217
7071.807
7071.052
7069.984
7068.717
7067.168
7065.34
7063.249
7060.989
7058.529
7056.314
7054.201
7052.029
7049.171
7045.578
7041.255
7035.674
7027.966
7016.893
7000.729
4720.273
4689.468
4625.606
4578.458
4532.483
4489.638
4449.489
4411.438
4374.769
4339.144
4304.507
4269.072
4233.154
4196.432
4158.92
4120.375
4080.751
4039.989
3998.048
3955.408
3913.39
3871.379
3829.675
3788.538
3747.787
3707.323
3667.819
3630.184
3595.312
3564.615
3539.736
3521.833
3511.67
3510.089
3518.262
3537.182
3568.063
3611.897
3669.432
3741.172
3827.24
3927.44
4041.374
4167.995
4306.201
4453.663
4608.512
4770.132
4938.459
5112.386
5289.479
5466.761
5640.395
5806.293
5960.023
6097.095
6213.219
6303.927
6365.278
6394.291
6389.077
6350.033
6279.992
6184.614
6069.606
5941.646
5804.781
5661.109
5513.08
5359.403
5199.302
5034.549
4867.995
4706.076
4554.753
4419.299
4302.53
4201.608
4113.153
4036.093
3969.614
3912.169
3861.086
3814.708
3773.532
3740.79
3719.99
3713.267
3716.585
3730.174
3746.703
3760.837
3778.373
3800.603
3826.147
3854.032
3882.782
3908.858
3925.095
3929.128