/*--------------------------------*- C++ -*----------------------------------*\
| =========                 |                                                 |
| \\      /  F ield         | foam-extend: Open Source CFD                    |
|  \\    /   O peration     | Version:     3.1                                |
|   \\  /    A nd           | Web:         http://www.extend-project.de       |
|    \\/     M anipulation  |                                                 |
\*---------------------------------------------------------------------------*/
FoamFile
{
    version     2.0;
    format      ascii;
    class       surfaceScalarField;
    location    "15";
    object      phi;
}
// * * * * * * * * * * * * * * * * * * * * * * * * * * * * * * * * * * * * * //

dimensions      [0 3 -1 0 0 0 0];

internalField   nonuniform List<scalar> 
275122
(
-0.0003220903
0.0003236029
-3.16704e-07
-1.195897e-06
-0.0002799477
0.0002626597
1.183893e-06
1.610412e-05
-0.0002656119
0.0002700822
-3.200928e-07
-4.150176e-06
-0.0002855697
0.0002908737
-3.99775e-07
-4.904153e-06
-0.0003036749
0.0003044451
-4.22011e-07
-3.482387e-07
-0.0002997519
0.0002978231
-3.579063e-07
2.286713e-06
-0.0002923553
0.0002907221
-3.219494e-07
1.955118e-06
-0.0002861855
0.0002847924
-2.732716e-07
1.66636e-06
-0.0002810252
0.0002799109
-2.454924e-07
1.359824e-06
-0.0002769037
0.0002759972
-2.208054e-07
1.127276e-06
-0.0002734839
0.0002727067
-1.975801e-07
9.747836e-07
-0.0002705099
0.0002698155
-1.720768e-07
8.664725e-07
-0.0002677818
0.0002671128
-1.499558e-07
8.190317e-07
-0.000265101
0.0002644366
-1.303373e-07
7.947234e-07
-0.0002624364
0.0002617783
-1.145101e-07
7.72603e-07
-0.0002598225
0.000259199
-1.022234e-07
7.257773e-07
-0.0002573474
0.0002567752
-9.162827e-08
6.638653e-07
-0.0002550653
0.0002545897
-8.629732e-08
5.618625e-07
-0.0002532647
0.0002530944
-1.211271e-07
2.914561e-07
-0.0002534725
0.0002546833
-4.134958e-07
-7.973702e-07
-0.0002870671
0.0002975555
-7.184594e-07
-9.769959e-06
-0.0003055601
0.0003075972
-2.64894e-07
-1.772222e-06
-0.0003162551
0.0003195047
-1.380854e-07
-3.111492e-06
-0.0003597186
0.0003747885
2.714973e-07
-1.534139e-05
-0.0003831682
0.0003846456
4.785795e-07
-1.955918e-06
-0.0003928602
0.0003953494
-1.515947e-07
-2.337609e-06
-0.0004008523
0.0004016948
-1.745825e-08
-8.249848e-07
-0.0004023997
0.0004008885
-6.131878e-08
1.572535e-06
-0.0003820463
0.0003586349
-7.002053e-08
2.34814e-05
-0.0001378629
0.0001411683
3.606599e-09
-3.309042e-06
-0.0002355104
0.0002464333
-6.299687e-08
-1.085991e-05
-0.0002772982
0.0002875419
7.676099e-09
-1.02514e-05
-0.0003180239
0.000328019
8.366436e-09
-1.000343e-05
-0.0003578161
0.0003676791
8.2422e-09
-9.871211e-06
-0.0003971908
0.0004070008
8.046923e-09
-9.818088e-06
-0.0004364103
0.0004462007
7.882454e-09
-9.798302e-06
-0.0004756141
0.0004854466
7.249446e-09
-9.83978e-06
-0.0005150917
0.0005250495
7.10823e-09
-9.96486e-06
-0.0005551875
0.0005653594
6.701979e-09
-1.017854e-05
-0.0005955352
0.000607
1.812944e-07
-1.164607e-05
9.605801e-06
-0.0004123686
0.0004134291
5.485443e-12
-1.066634e-05
1.004983e-05
-0.0004174971
0.0004188227
-9.94829e-10
-1.13744e-05
1.048764e-05
-0.0004231524
0.0004246174
-1.495352e-09
-1.195111e-05
1.121215e-05
-0.0004290545
0.0004305611
-1.025305e-09
-1.271777e-05
1.195621e-05
-0.0004351506
0.0004366718
-8.571847e-10
-1.347656e-05
1.267479e-05
-0.0004413878
0.0004429759
-4.046571e-10
-1.426245e-05
1.338003e-05
-0.0004479192
0.0004496078
-2.404872e-11
-1.50687e-05
1.398801e-05
-0.0004548482
0.000456685
-5.883509e-10
-1.582422e-05
1.533345e-05
-0.0004625351
0.0004631294
-6.81299e-11
-1.592761e-05
1.400142e-05
-0.001901495
0.001920656
9.376501e-10
-7.476505e-05
1.381916e-05
1.395507e-05
1.382741e-05
1.505386e-05
-0.00193843
0.001954811
-5.90735e-11
-7.736723e-05
1.545198e-05
1.504087e-05
1.543987e-05
1.554859e-05
-0.001970913
0.001986571
2.409724e-11
-7.830022e-05
1.580084e-05
1.551935e-05
1.577333e-05
1.58853e-05
-0.002002116
0.002017366
-4.48221e-11
-7.904135e-05
1.602383e-05
1.58705e-05
1.601193e-05
1.608039e-05
-0.002032382
0.002046731
-5.160317e-11
-7.885843e-05
1.618526e-05
1.606914e-05
1.617389e-05
1.612282e-05
-0.002060667
0.002073675
-4.231015e-11
-7.760868e-05
1.618907e-05
1.611099e-05
1.617752e-05
1.599798e-05
-0.002086167
0.002097499
-1.868974e-11
-7.537431e-05
1.603591e-05
1.598542e-05
1.602329e-05
1.568615e-05
-0.002108219
0.002117677
4.78637e-12
-7.216195e-05
1.567909e-05
1.567186e-05
1.566654e-05
1.535234e-05
-0.002126995
0.002134448
2.336404e-11
-6.843334e-05
1.515505e-05
1.533512e-05
1.513771e-05
1.430331e-05
-0.002138743
0.002145057
3.109479e-11
-6.316224e-05
1.414028e-05
1.427367e-05
1.413059e-05
1.386717e-05
-0.002151458
0.002154526
3.022244e-11
-5.861231e-05
1.390957e-05
1.386362e-05
1.390376e-05
1.308241e-05
-0.002156415
0.002157086
2.438942e-11
-5.254934e-05
1.285816e-05
1.308142e-05
1.285692e-05
1.206943e-05
-0.002157109
0.002155804
1.760358e-11
-4.654977e-05
1.18589e-05
1.20679e-05
1.185773e-05
1.097868e-05
-0.002153843
0.002150901
1.133619e-11
-4.051588e-05
1.075133e-05
1.097555e-05
1.075192e-05
9.958795e-06
-0.002147057
0.002142154
6.47089e-12
-3.441904e-05
9.70696e-06
9.951153e-06
9.704615e-06
8.81693e-06
-0.002136683
0.00213015
2.272326e-12
-2.820133e-05
8.581199e-06
8.776974e-06
8.559469e-06
7.840591e-06
-0.002123011
0.002114903
7.554497e-14
-2.247655e-05
7.614354e-06
7.656699e-06
7.472734e-06
7.600185e-06
-0.002105885
0.002094984
2.941182e-12
-1.786516e-05
7.567848e-06
6.830659e-06
6.767684e-06
1.027377e-05
-0.002080234
0.00205633
1.484026e-11
-1.264313e-05
1.092613e-05
8.109069e-06
7.238362e-06
-1.248345e-05
-0.002025765
0.002030119
1.095848e-11
8.12993e-06
-1.711245e-05
-0.00203478
0.002026199
9.118131e-12
2.569386e-05
-6.552542e-06
-0.002012574
0.001997388
-2.18715e-12
2.173851e-05
-9.206308e-06
-0.001982272
0.001967138
-2.137587e-11
2.434122e-05
-1.725767e-05
-0.001951895
0.001938462
-4.149848e-11
3.069005e-05
-2.420897e-05
-0.001927312
0.001915787
-5.236393e-11
3.573395e-05
-2.214226e-05
-0.001903512
0.001891016
-5.00584e-11
3.463769e-05
-1.873412e-05
-0.001878556
0.001866291
-4.671018e-11
3.099838e-05
-1.504828e-05
-0.001854239
0.001842678
-4.737395e-11
2.660858e-05
-1.13203e-05
-0.001831531
0.001821198
-5.272149e-11
2.165372e-05
-7.796483e-06
-0.001811517
0.001802893
-6.045769e-11
1.642053e-05
-4.515749e-06
-0.00179506
0.001788447
-6.642931e-11
1.112841e-05
-1.423393e-06
-0.001782702
0.001778249
-6.036274e-11
5.876409e-06
1.313581e-06
-0.001774678
0.001772547
-4.177512e-11
8.173553e-07
4.164444e-06
-0.001771239
0.001771428
-1.078163e-11
-4.353389e-06
6.953631e-06
-0.001772342
0.001774808
9.573705e-12
-9.419745e-06
9.745398e-06
-0.001777881
0.001782625
8.422249e-12
-1.448976e-05
1.282416e-05
-0.00178782
0.001794835
-1.381953e-11
-1.983875e-05
1.70079e-05
-0.001801924
0.001810767
-4.117228e-11
-2.585093e-05
2.294154e-05
-0.001818781
0.001828552
-6.113331e-11
-3.27124e-05
3.226998e-05
-0.001836281
0.001844752
-6.689229e-11
-4.074116e-05
3.085657e-05
-0.001856594
0.001870056
-5.975664e-11
-4.431887e-05
4.011552e-05
-0.00188073
0.001892698
-4.826812e-11
-5.208373e-05
6.103401e-05
-0.001896692
0.001897784
-3.190343e-11
-6.212657e-05
4.232933e-05
-0.001903064
0.001913438
-2.273794e-11
-5.270288e-05
2.717946e-05
-0.001927451
0.001939716
-1.369408e-11
-3.944396e-05
1.663761e-05
-0.001951305
0.001962506
-7.298804e-12
-2.783771e-05
-2.894977e-06
-0.001974498
0.001987138
-3.582766e-12
-9.745192e-06
-5.569704e-05
-0.00200168
0.00204062
7.907509e-13
1.675649e-05
-1.224004e-05
-0.002086446
0.002099444
2.652089e-12
2.539787e-05
-6.991671e-06
-1.22047e-05
-6.959947e-06
-2.420097e-06
-0.002104311
0.002112345
1.627044e-11
2.69798e-06
-2.949208e-06
-2.418512e-06
-2.944362e-06
-2.285337e-06
-0.002121415
0.002126709
-9.407108e-12
3.53841e-06
-2.136384e-06
-2.282295e-06
-2.128077e-06
-2.580941e-06
-0.002130678
0.002132973
-3.554364e-11
8.200007e-06
-2.677676e-06
-2.567438e-06
-2.669441e-06
-3.740604e-06
-0.002134474
0.002134502
-1.280853e-11
1.541114e-05
-3.998231e-06
-3.72528e-06
-3.97468e-06
-5.353403e-06
-0.00213359
0.002130771
-6.017836e-13
2.465749e-05
-5.603186e-06
-5.318384e-06
-5.563379e-06
-7.026519e-06
-0.002126682
0.002120664
5.203157e-12
3.46277e-05
-7.337203e-06
-6.973556e-06
-7.272574e-06
-8.984417e-06
-0.002113352
0.002104093
9.517333e-12
4.575255e-05
-9.355341e-06
-8.898048e-06
-9.255492e-06
-1.110589e-05
-0.002093362
0.002080709
1.35729e-11
5.761055e-05
-1.152563e-05
-1.096638e-05
-1.135947e-05
-1.344199e-05
-0.002066545
0.002050544
1.75557e-11
7.014085e-05
-1.389934e-05
-1.31877e-05
-1.361038e-05
-1.595312e-05
-0.002033019
0.00201384
2.185192e-11
8.300281e-05
-1.64528e-05
-1.548693e-05
-1.593109e-05
-1.858829e-05
-0.001993251
0.001971256
2.715356e-11
9.580814e-05
-1.913428e-05
-1.782878e-05
-1.826188e-05
-2.116381e-05
-0.001948155
0.001924002
2.864135e-11
0.0001074115
-2.167288e-05
-2.0024e-05
-2.039829e-05
-2.27744e-05
-0.00189906
0.001873134
1.874914e-11
0.0001152026
-2.29302e-05
-2.169422e-05
-2.187757e-05
-2.198522e-05
-0.001846174
0.001817691
4.351999e-12
0.0001153078
-2.148163e-05
-2.178492e-05
-2.157272e-05
-1.850548e-05
-0.001787466
0.001755247
2.919312e-12
0.0001064699
-1.764573e-05
-1.938532e-05
-1.871518e-05
-1.41964e-05
-0.001721268
0.001686063
1.685759e-11
9.269518e-05
-1.345478e-05
-1.531672e-05
-1.452292e-05
-1.055246e-05
-0.001650081
0.001614059
3.149586e-11
7.86685e-05
-1.0026e-05
-1.134868e-05
-1.071921e-05
-7.820222e-06
-0.001578412
0.001543871
2.327842e-11
6.587777e-05
-7.42876e-06
-8.259569e-06
-7.82828e-06
-5.744278e-06
-0.001510612
0.001479318
-7.320488e-12
5.419831e-05
-5.485021e-06
-5.99783e-06
-5.677229e-06
-4.207514e-06
-0.001449986
0.001423306
-4.460026e-11
4.329777e-05
-4.004429e-06
-4.311336e-06
-4.095022e-06
-3.004262e-06
-0.001399029
0.00137779
-6.098883e-11
3.304799e-05
-2.857901e-06
-3.049605e-06
-2.897231e-06
-1.972287e-06
-0.00135901
0.001343283
-5.558257e-11
2.338419e-05
-1.838123e-06
-1.99298e-06
-1.853505e-06
-9.780847e-07
-0.00132974
0.001319053
-3.575275e-11
1.431671e-05
-8.374148e-07
-9.773761e-07
-8.365392e-07
-1.602124e-09
-0.001310264
0.001304008
-1.57913e-11
5.995112e-06
1.268188e-07
1.178775e-09
1.340957e-07
8.621401e-07
0.0012972
-4.124981e-12
-1.416035e-06
9.803591e-07
8.712475e-07
9.894809e-07
-0.001299487
1.695308e-06
-0.001296371
0.001297673
-4.4452e-14
-8.345879e-06
1.825487e-06
1.697197e-06
1.826462e-06
2.483378e-06
-0.001300147
0.001304465
2.207974e-12
-1.446991e-05
2.589856e-06
2.486166e-06
2.592019e-06
3.13875e-06
-0.001309811
0.001316785
4.50024e-12
-1.970785e-05
3.22373e-06
3.142502e-06
3.228447e-06
3.675791e-06
-0.001324667
0.001334009
6.560626e-12
-2.419276e-05
3.744776e-06
3.680338e-06
3.749611e-06
4.124929e-06
-0.001344135
0.001355589
7.670291e-12
-2.807657e-05
4.182476e-06
4.12885e-06
4.186326e-06
4.508345e-06
-0.001367733
0.001381074
7.341798e-12
-3.147445e-05
4.555906e-06
4.511011e-06
4.558426e-06
4.825408e-06
-0.001395016
0.001410002
5.624326e-12
-3.436189e-05
4.861269e-06
4.82687e-06
4.862582e-06
5.064286e-06
-0.001425495
0.001441865
3.150797e-12
-3.667304e-05
5.086914e-06
5.064695e-06
5.087175e-06
5.217841e-06
-0.001458653
0.001476136
1.501047e-13
-3.837085e-05
5.226504e-06
5.217315e-06
5.225823e-06
5.277399e-06
-0.001493946
0.001512239
-4.058455e-12
-3.938658e-05
5.270711e-06
5.276033e-06
5.269233e-06
5.22375e-06
-0.001530743
0.001549474
-8.132611e-12
-3.957084e-05
5.197941e-06
5.221674e-06
5.195884e-06
5.028593e-06
-0.001568292
0.001587068
-1.218519e-11
-3.878517e-05
4.97844e-06
5.026134e-06
4.976093e-06
4.655444e-06
-0.001605797
0.001624199
-1.650467e-11
-3.687005e-05
4.581005e-06
4.652664e-06
4.578291e-06
4.169104e-06
-0.001642373
0.001659899
-2.034926e-11
-3.401628e-05
4.07938e-06
4.16611e-06
4.076456e-06
3.567913e-06
-0.001677037
0.001693271
-2.330475e-11
-3.028804e-05
3.461973e-06
3.564838e-06
3.459104e-06
2.869992e-06
-0.001708987
0.001723611
-2.536924e-11
-2.586098e-05
2.751553e-06
2.866974e-06
2.748901e-06
2.112864e-06
-0.001737615
0.001750417
-2.666832e-11
-2.099734e-05
1.988134e-06
2.109635e-06
1.985181e-06
1.323778e-06
-0.001762569
0.001773578
-2.675491e-11
-1.606038e-05
1.20502e-06
1.320673e-06
1.20226e-06
5.543256e-07
-0.001783947
0.001793204
-2.685182e-11
-1.125158e-05
4.459458e-07
5.509415e-07
4.438626e-07
-1.942939e-07
-0.001801847
0.001809394
-2.449094e-11
-6.559832e-06
-2.99787e-07
-1.933333e-07
-2.99955e-07
-9.927644e-07
-0.001816323
0.001822155
-2.295576e-11
-1.589569e-06
-1.114939e-06
-1.002882e-06
-1.132306e-06
-1.920103e-06
-0.001827328
0.001831256
-2.078898e-11
4.084369e-06
-2.040232e-06
-1.926583e-06
-2.125806e-06
-3.107092e-06
-0.001834583
0.001836521
-2.142712e-11
1.068569e-05
-3.237798e-06
-3.065134e-06
-3.213275e-06
-4.098149e-06
-0.001837519
0.001835652
-2.264699e-11
1.800537e-05
-3.991948e-06
-4.073249e-06
-3.975509e-06
-5.127937e-06
-0.001832402
0.001827236
-2.176607e-11
2.53776e-05
-5.034992e-06
-5.05465e-06
-4.993685e-06
-7.820336e-06
-0.001823789
0.001818774
-1.483611e-11
3.725299e-05
-8.504444e-06
-7.660823e-06
-8.252391e-06
-9.972345e-06
-0.001810873
0.001801447
-3.806525e-12
4.884983e-05
-1.014926e-05
-9.58329e-06
-9.71874e-06
-1.278565e-05
-0.001792504
0.001782952
1.261288e-12
6.07891e-05
-1.335857e-05
-1.225529e-05
-1.283757e-05
-1.418309e-05
-0.001772428
0.001760583
-2.816539e-11
6.850368e-05
-1.419825e-05
-1.40696e-05
-1.420834e-05
-1.315151e-05
-0.001746879
0.00173048
-5.641194e-11
6.88973e-05
-1.273762e-05
-1.347255e-05
-1.313677e-05
-1.090887e-05
-0.001711373
0.001689521
-6.112292e-11
6.525206e-05
-1.051082e-05
-1.121315e-05
-1.076763e-05
-8.887683e-06
-0.001665373
0.001639354
-5.747875e-11
6.111702e-05
-8.583672e-06
-8.984911e-06
-8.641896e-06
-7.245308e-06
-0.001611896
0.001583378
-5.324443e-11
5.706379e-05
-7.001948e-06
-7.273919e-06
-7.024189e-06
-5.920577e-06
-0.001554302
0.001525169
-4.516648e-11
5.256453e-05
-5.747509e-06
-5.96665e-06
-5.796666e-06
-4.950279e-06
-0.001496484
0.001468771
-4.89878e-11
4.743576e-05
-4.845059e-06
-5.015463e-06
-4.911175e-06
-4.300453e-06
-0.001442355
0.001417668
-6.459202e-11
4.188295e-05
-4.234846e-06
-4.364498e-06
-4.296263e-06
-3.819357e-06
-0.001394728
0.001373868
-7.742968e-11
3.610463e-05
-3.757524e-06
-3.867026e-06
-3.800311e-06
-3.367906e-06
-0.001354794
0.001337789
-8.225467e-11
3.039922e-05
-3.302736e-06
-3.396043e-06
-3.328006e-06
-2.907916e-06
-0.001322338
0.001308767
-8.093977e-11
2.509781e-05
-2.845077e-06
-2.92003e-06
-2.85431e-06
-2.449835e-06
-0.001296488
0.001285875
-6.23632e-11
2.029096e-05
-2.388052e-06
-2.451777e-06
-2.388358e-06
-2.008439e-06
-0.001276313
0.00126819
-5.701073e-11
1.603679e-05
-1.951309e-06
-2.006175e-06
-1.948165e-06
-1.634019e-06
-0.001260924
0.001254909
-4.482053e-11
1.246394e-05
-1.594768e-06
-1.629838e-06
-1.58985e-06
-1.358597e-06
-0.001249637
0.001245425
-3.386061e-11
9.57615e-06
-1.327622e-06
-1.354284e-06
-1.323417e-06
-1.128031e-06
-0.001241811
0.001239061
-2.421227e-11
7.207838e-06
-1.104115e-06
-1.124819e-06
-1.100968e-06
-9.443606e-07
-0.001236796
0.001235263
-1.724631e-11
5.261939e-06
-9.224901e-07
-9.418248e-07
-9.200873e-07
-7.891171e-07
-0.001234141
0.001233619
-1.26636e-11
3.64251e-06
-7.728175e-07
-7.871972e-07
-7.709567e-07
-6.659397e-07
-0.001233449
0.00123377
-1.04117e-11
2.315316e-06
-6.538462e-07
-6.645135e-07
-6.524364e-07
-5.734588e-07
-0.0012344
0.001235454
-9.26004e-12
1.219946e-06
-5.646799e-07
-5.723721e-07
-5.63584e-07
-4.999383e-07
-0.001236766
0.001238426
-9.264399e-12
3.273083e-07
-4.946278e-07
-4.991008e-07
-4.937362e-07
-4.409933e-07
0.001242527
-8.773889e-12
-4.693941e-07
-0.001240306
-4.353257e-07
-4.402777e-07
-4.347611e-07
-3.990001e-07
-0.001244936
0.001247616
-7.989675e-12
-1.089272e-06
-3.964486e-07
-3.985961e-07
-3.96158e-07
-3.697378e-07
-0.001250466
0.001253557
-7.007458e-12
-1.615149e-06
-3.682162e-07
-3.695907e-07
-3.680095e-07
-3.492615e-07
-0.001256794
0.001260249
-5.48444e-12
-2.060309e-06
-3.48623e-07
-3.490836e-07
-3.484738e-07
-3.345315e-07
-0.001263836
0.001267626
-3.412372e-12
-2.451574e-06
-3.345075e-07
-3.343714e-07
-3.343662e-07
-3.238442e-07
-0.001271535
0.001275634
-1.062238e-12
-2.802779e-06
-3.242016e-07
-3.23711e-07
-3.240657e-07
-3.160615e-07
-0.001279844
0.001284233
1.047786e-12
-3.123422e-06
-3.166223e-07
-3.159892e-07
-3.165826e-07
-3.103489e-07
-0.001288727
0.00129339
2.312204e-12
-3.42045e-06
-3.111068e-07
-3.103274e-07
-3.110566e-07
-3.0643e-07
-0.001298154
0.001303078
3.233873e-12
-3.696262e-06
-3.073863e-07
-3.064345e-07
-3.073429e-07
-3.046477e-07
-0.001308097
0.001313267
4.223275e-12
-3.949453e-06
-3.057598e-07
-3.046744e-07
-3.057782e-07
-3.05307e-07
-0.001318528
0.001323929
5.288006e-12
-4.176359e-06
-3.066182e-07
-3.05361e-07
-3.066669e-07
-3.090296e-07
-0.001329414
0.001335025
6.144853e-12
-4.372559e-06
-3.105096e-07
-3.090594e-07
-3.105645e-07
-3.164121e-07
-0.001340715
0.001346517
6.539797e-12
-4.532518e-06
-3.181514e-07
-3.164468e-07
-3.182112e-07
-3.278275e-07
-0.001352389
0.001358357
6.819177e-12
-4.651963e-06
-3.299235e-07
-3.279533e-07
-3.299675e-07
-3.440442e-07
-0.001364386
0.001370493
7.205433e-12
-4.725919e-06
-3.464598e-07
-3.441276e-07
-3.46413e-07
-3.653729e-07
-0.001376652
0.001382871
7.416724e-12
-4.751635e-06
-3.683146e-07
-3.653793e-07
-3.681426e-07
-3.928607e-07
-0.001389128
0.001395428
7.328858e-12
-4.722551e-06
-3.959392e-07
-3.926303e-07
-3.959275e-07
-4.259575e-07
-0.00140175
0.0014081
7.391755e-12
-4.636736e-06
-4.303517e-07
-4.259698e-07
-4.305005e-07
-4.653306e-07
-0.001414446
0.001420812
7.482346e-12
-4.49098e-06
-4.716831e-07
-4.655981e-07
-4.717673e-07
-5.099834e-07
-0.00142715
0.001433505
7.450266e-12
-4.296236e-06
-5.194276e-07
-5.10028e-07
-5.194768e-07
-5.601112e-07
-0.001439796
0.001446115
7.495914e-12
-4.051241e-06
-5.734445e-07
-5.60086e-07
-5.734403e-07
-6.135423e-07
-0.00145234
0.00145861
7.67353e-12
-3.779272e-06
-6.31753e-07
-6.1345e-07
-6.31713e-07
-6.689137e-07
-0.00146474
0.001470953
7.672998e-12
-3.486211e-06
-6.943714e-07
-6.687722e-07
-6.9432e-07
-6.864474e-07
-0.001476966
0.001483001
7.461516e-12
-3.279585e-06
-6.919744e-07
-6.862045e-07
-6.911186e-07
-6.012796e-07
-0.001488396
0.001493631
6.774268e-12
-3.257535e-06
-3.878003e-07
-6.004367e-07
-3.881562e-07
2.202437e-07
-0.0003732241
0.0003728351
-1.356335e-11
1.687767e-07
-6.472639e-07
-0.0003730324
0.0003731127
-7.285285e-11
5.670883e-07
-9.681142e-07
-0.0003736289
0.0003738446
-4.898573e-11
7.525328e-07
-1.226555e-06
-0.0003745753
0.000374821
-3.019419e-11
9.808036e-07
-1.455616e-06
-0.0003755432
0.0003757595
2.271403e-11
1.239243e-06
-1.654853e-06
-0.0003763342
0.000376468
9.016595e-11
1.520979e-06
-1.869364e-06
-0.0003767566
0.0003768034
6.031892e-11
1.822505e-06
-2.104618e-06
-0.0003767898
0.0003767169
-1.444764e-11
2.177471e-06
-2.334052e-06
-0.0003763165
0.000376109
-7.637605e-11
2.541665e-06
-2.553643e-06
-0.0003752859
0.0003749312
-9.195699e-11
2.908467e-06
-2.762435e-06
-0.0003736526
0.0003731463
-7.549281e-11
3.268808e-06
-2.951046e-06
-0.0003714134
0.0003707553
-7.78563e-11
3.609228e-06
-3.104738e-06
-0.0003685679
0.0003677625
-8.921707e-11
3.910151e-06
-3.23243e-06
-0.0003651459
0.0003642017
-8.819866e-11
4.176687e-06
-3.32957e-06
-0.0003611765
0.0003601022
-5.950265e-11
4.403935e-06
-3.400009e-06
-0.0003567032
0.0003555098
2.107698e-11
4.593438e-06
-3.436477e-06
-0.0003517709
0.0003504722
1.554559e-10
4.734953e-06
-3.43864e-06
-0.0003464381
0.0003450468
3.071597e-10
4.829601e-06
-3.432565e-06
-0.0003407751
0.0003393236
2.987566e-10
4.883863e-06
-3.38671e-06
-0.000334904
0.0003334091
6.112965e-11
4.881521e-06
-3.290834e-06
-0.0003288679
0.0003273346
-2.131518e-10
4.824398e-06
-3.180162e-06
-0.0003226826
0.0003211131
-4.211871e-10
4.750132e-06
-3.078346e-06
-0.0003163519
0.0003147452
-5.74448e-10
4.685579e-06
-2.990355e-06
-0.0003098695
0.0003082228
-6.695661e-10
4.637759e-06
-2.920151e-06
-0.0003032183
0.0003015259
-6.648504e-10
4.613225e-06
-2.882359e-06
-0.0002963657
0.0002946112
-6.268364e-10
4.637557e-06
-2.921719e-06
-0.0002892231
0.0002873817
-4.618953e-10
4.763541e-06
-3.110652e-06
-0.0002816364
0.0002796515
-7.531229e-10
5.096332e-06
-3.466084e-06
-0.0002733557
0.0002710727
-5.679281e-10
5.749657e-06
-5.045982e-06
-0.000263815
0.0002614601
-4.516254e-09
7.405419e-06
-4.845918e-06
-0.0002545084
0.0002520039
1.850792e-11
7.350417e-06
-1.738639e-06
-0.0002440992
0.0002415471
-3.656401e-10
4.291072e-06
-6.765692e-07
-0.0002349054
0.0002331175
-1.199752e-09
2.465708e-06
-7.04839e-07
-0.0002286705
0.0002274256
-3.305533e-10
1.950147e-06
-8.630057e-07
-0.0002241945
0.0002232857
1.231528e-09
1.770616e-06
-8.304493e-08
-0.000220845
0.00021973
1.509046e-09
1.196475e-06
4.533032e-07
-0.0002165956
0.0002156231
8.59472e-10
5.183631e-07
4.981311e-07
-0.0002127153
0.0002117735
1.455577e-10
4.434739e-07
5.040645e-07
-0.0002090257
0.0002081339
-2.69547e-10
3.880418e-07
5.23937e-07
-0.0002055214
0.0002046736
-3.772207e-10
3.242229e-07
5.484032e-07
-0.0002022025
0.0002014099
-3.616006e-10
2.445171e-07
5.565612e-07
-0.0001991325
0.0001984082
-3.323505e-10
1.679995e-07
5.588341e-07
-0.0001963122
0.00019564
-3.178472e-10
1.13638e-07
5.596563e-07
-0.0001936918
0.0001930671
-3.077832e-10
6.539917e-08
5.609712e-07
-0.0001912599
0.0001906842
-2.928938e-10
1.500996e-08
5.779305e-07
-0.0001890432
0.000188535
-2.560318e-10
-6.953818e-08
6.219387e-07
-0.0001871257
0.0001867067
-2.013232e-10
-2.027194e-07
7.014044e-07
-0.0001856019
0.0001852976
-1.566096e-10
-3.970106e-07
7.942243e-07
-0.000184584
0.0001844272
-1.258075e-10
-6.372708e-07
9.166388e-07
-0.0001841153
0.000184073
-9.961557e-11
-8.743041e-07
9.998054e-07
-0.0001840934
0.0001841489
-6.733812e-11
-1.055248e-06
1.053742e-06
-0.0001844134
0.0001845304
-4.038968e-11
-1.170718e-06
1.080987e-06
-0.0001849295
0.0001850747
-2.684868e-11
-1.226097e-06
1.088784e-06
-0.0001855207
0.0001856698
-2.000938e-11
-1.237864e-06
1.089266e-06
-0.0001861085
0.0001862516
-1.304553e-11
-1.232307e-06
1.091392e-06
-0.0001866708
0.0001868082
-7.368711e-12
-1.228765e-06
1.102081e-06
-0.0001872184
0.0001873578
-1.161671e-12
-1.241481e-06
1.125429e-06
-0.0001877904
0.0001879438
7.868229e-12
-1.278897e-06
1.159508e-06
-0.0001884332
0.0001886107
2.075832e-11
-1.336966e-06
1.201394e-06
-0.0001891811
0.0001893887
3.141004e-11
-1.409089e-06
1.249546e-06
-0.0001900562
0.0001902988
3.711703e-11
-1.492107e-06
1.302566e-06
-0.0001910752
0.0001913556
4.519043e-11
-1.582995e-06
1.358223e-06
-0.0001922475
0.0001925667
6.195031e-11
-1.67741e-06
1.414273e-06
-0.0001935735
0.0001939298
7.353942e-11
-1.770703e-06
1.468717e-06
-0.0001950444
0.0001954353
7.979506e-11
-1.859734e-06
1.520758e-06
-0.0001966492
0.0001970719
8.307644e-11
-1.943523e-06
1.571602e-06
-0.0001983758
0.0001988269
8.92355e-11
-2.022883e-06
1.635543e-06
-0.000200205
0.0002006716
1.06295e-10
-2.102178e-06
1.634125e-06
-0.0002020818
0.0002026013
1.754629e-11
-2.15373e-06
1.729836e-06
-0.0002041955
0.0002047121
4.133559e-10
-2.246942e-06
2.05518e-06
-0.0002047503
0.0008415862
3.036538e-11
-1.077438e-05
5.643338e-07
2.056768e-06
5.437617e-07
-0.0002047533
-0.0002132636
-0.0002132648
1.251608e-06
-0.0008487848
0.0008539242
2.072698e-11
-1.082643e-05
1.606424e-06
1.236118e-06
1.592853e-06
1.502261e-06
-0.0008585588
0.0008631146
1.52923e-11
-1.074089e-05
1.602205e-06
1.489946e-06
1.590649e-06
1.591732e-06
-0.0008678288
0.0008725215
9.452402e-12
-1.116009e-05
1.652219e-06
1.581003e-06
1.6424e-06
1.665235e-06
-0.0008772224
0.0008818326
8.972952e-12
-1.133691e-05
1.708396e-06
1.654256e-06
1.698756e-06
1.722966e-06
-0.0008864019
0.0008909346
6.682894e-12
-1.144841e-05
1.744169e-06
1.713546e-06
1.735024e-06
1.757186e-06
-0.000895461
0.000899951
4.464944e-12
-1.15301e-05
1.770962e-06
1.748954e-06
1.763027e-06
1.788786e-06
-0.0009044207
0.0009088477
4.949993e-12
-1.158799e-05
1.799125e-06
1.78122e-06
1.791898e-06
1.813566e-06
-0.0009132517
0.0009176111
6.270156e-12
-1.161443e-05
1.820588e-06
1.80678e-06
1.81407e-06
1.83226e-06
-0.0009219457
0.0009262295
6.548198e-12
-1.161054e-05
1.837069e-06
1.826312e-06
1.83113e-06
1.84679e-06
-0.0009304854
0.0009346873
4.885033e-12
-1.158608e-05
1.850512e-06
1.841508e-06
1.845337e-06
1.858361e-06
-0.0009388585
0.0009429746
2.083993e-12
-1.154663e-05
1.861462e-06
1.853803e-06
1.856952e-06
1.866593e-06
-0.000947059
0.0009510867
4.240134e-13
-1.149175e-05
1.869415e-06
1.862546e-06
1.865467e-06
1.87359e-06
-0.0009550819
0.0009590227
3.986062e-13
-1.143232e-05
1.875777e-06
1.869961e-06
1.872221e-06
1.879635e-06
-0.0009629305
0.0009667856
1.137764e-12
-1.137113e-05
1.881629e-06
1.876348e-06
1.878398e-06
1.885274e-06
-0.0009706086
0.0009743819
1.798656e-12
-1.131223e-05
1.887141e-06
1.882314e-06
1.884241e-06
1.890849e-06
-0.0009781244
0.0009818206
2.174913e-12
-1.125795e-05
1.892707e-06
1.888175e-06
1.890078e-06
1.896913e-06
-0.0009854877
0.0009891124
2.459041e-12
-1.121128e-05
1.898809e-06
1.894469e-06
1.896399e-06
1.903863e-06
-0.00099271
0.0009962695
2.748187e-12
-1.11744e-05
1.905847e-06
1.901623e-06
1.903647e-06
1.911851e-06
-0.000999804
0.001003305
2.993423e-12
-1.114819e-05
1.913944e-06
1.909766e-06
1.911884e-06
1.920915e-06
-0.001006783
0.001010232
3.041724e-12
-1.113303e-05
1.923099e-06
1.918933e-06
1.921123e-06
1.931091e-06
-0.001013661
0.001017065
2.739902e-12
-1.112934e-05
1.933403e-06
1.929227e-06
1.931567e-06
1.942519e-06
-0.001020451
0.001023817
2.233126e-12
-1.113753e-05
1.944972e-06
1.940807e-06
1.943294e-06
1.955316e-06
-0.001027168
0.001030502
1.93181e-12
-1.11577e-05
1.957908e-06
1.953664e-06
1.956317e-06
1.969412e-06
-0.001033824
0.001037134
2.045423e-12
-1.11898e-05
1.972148e-06
1.96773e-06
1.970424e-06
1.984708e-06
-0.001040433
0.001043726
2.394984e-12
-1.123369e-05
1.987643e-06
1.982982e-06
1.985855e-06
2.001369e-06
-0.00104701
0.001050292
2.70691e-12
-1.128998e-05
2.004401e-06
1.999656e-06
2.002722e-06
2.019321e-06
-0.001053568
0.001056846
2.864261e-12
-1.135835e-05
2.022531e-06
2.017698e-06
2.020934e-06
2.038567e-06
-0.00106012
0.001063401
2.865764e-12
-1.143838e-05
2.041917e-06
2.03703e-06
2.040406e-06
2.05888e-06
-0.00106668
0.001069969
2.72352e-12
-1.15288e-05
2.062354e-06
2.057421e-06
2.060914e-06
2.080013e-06
-0.00107326
0.001076563
2.476072e-12
-1.162786e-05
2.083633e-06
2.078641e-06
2.082283e-06
2.101665e-06
-0.001079869
0.001083191
2.204013e-12
-1.173339e-05
2.105494e-06
2.100403e-06
2.104261e-06
2.12358e-06
-0.001086517
0.00108986
1.971104e-12
-1.184294e-05
2.127547e-06
2.122404e-06
2.126389e-06
2.145534e-06
-0.001093208
0.001096575
1.811041e-12
-1.195417e-05
2.149429e-06
2.144424e-06
2.14833e-06
2.167118e-06
-0.001099947
0.001103338
1.700098e-12
-1.206457e-05
2.170948e-06
2.166087e-06
2.169939e-06
2.187907e-06
-0.001106735
0.001110149
1.615131e-12
-1.217124e-05
2.191757e-06
2.186934e-06
2.190799e-06
2.207593e-06
-0.001113569
0.001117004
1.594396e-12
-1.227066e-05
2.211356e-06
2.20665e-06
2.210408e-06
2.225716e-06
-0.001120444
0.001123895
1.617017e-12
-1.235952e-05
2.2294e-06
2.224811e-06
2.228503e-06
2.241973e-06
-0.001127351
0.001130813
1.619496e-12
-1.243507e-05
2.245612e-06
2.241132e-06
2.244793e-06
2.256081e-06
-0.001134278
0.001137742
1.691959e-12
-1.249477e-05
2.259735e-06
2.255249e-06
2.258964e-06
2.267544e-06
-0.00114121
0.001144669
1.814687e-12
-1.253517e-05
2.271357e-06
2.266682e-06
2.270479e-06
2.27554e-06
-0.001148128
0.00115157
1.747053e-12
-1.255106e-05
2.279733e-06
2.274647e-06
2.278797e-06
2.277838e-06
-0.001155008
0.001158416
1.573544e-12
-1.25261e-05
2.282264e-06
2.276943e-06
2.281397e-06
2.266796e-06
-0.001161806
0.001165155
1.463108e-12
-1.242018e-05
2.269287e-06
2.265964e-06
2.268485e-06
2.20931e-06
-0.001168488
0.001171838
1.132123e-12
-1.216138e-05
2.197095e-06
2.208483e-06
2.196304e-06
2.061893e-06
-0.001175294
0.001178878
1.04739e-12
-1.17368e-05
2.015349e-06
2.061029e-06
2.01447e-06
1.88981e-06
-0.001182542
0.001186182
9.319204e-13
-1.115521e-05
1.868702e-06
1.889076e-06
1.867973e-06
1.85542e-06
-0.001189789
0.001193359
1.027703e-12
-1.100205e-05
1.861383e-06
1.854735e-06
1.86073e-06
1.856693e-06
-0.001196915
0.001200457
1.452977e-12
-1.097686e-05
1.861415e-06
1.855967e-06
1.860736e-06
1.851441e-06
-0.001203972
0.001207486
2.325164e-12
-1.093063e-05
1.857852e-06
1.85069e-06
1.857189e-06
1.852458e-06
-0.001210948
0.001214396
6.112022e-12
-1.088304e-05
1.865898e-06
1.851725e-06
1.865141e-06
1.848312e-06
-0.001217737
0.00122114
1.028046e-11
-1.083066e-05
1.866025e-06
1.847909e-06
1.86462e-06
1.810282e-06
-0.00122455
0.001227987
-1.447477e-11
-1.068216e-05
1.815364e-06
1.808631e-06
1.81113e-06
1.605423e-06
-0.001231029
0.00123534
-5.935944e-12
-1.077479e-05
1.624818e-06
1.607041e-06
1.626961e-06
1.84345e-06
-0.001240436
0.001242661
-2.776344e-12
-9.60289e-06
1.841886e-06
1.849738e-06
1.842617e-06
1.736654e-06
-0.001244821
0.001247738
-1.25162e-13
-9.594431e-06
1.592465e-06
1.743942e-06
1.604124e-06
1.638434e-06
-0.001250887
0.001254062
-3.757593e-13
-9.601541e-06
1.570242e-06
1.642642e-06
1.575609e-06
1.588686e-06
-0.001257103
0.001260105
-4.066072e-13
-9.282049e-06
1.543788e-06
1.596342e-06
1.551548e-06
1.531041e-06
-0.001263056
0.00126598
5.523156e-13
-8.99352e-06
1.497106e-06
1.538242e-06
1.503802e-06
1.477229e-06
-0.00126885
0.001271636
-4.606652e-13
-8.65618e-06
1.452372e-06
1.482931e-06
1.457767e-06
1.421306e-06
-0.001274352
0.001276958
-8.866165e-13
-8.261972e-06
1.401735e-06
1.42622e-06
1.406455e-06
1.357922e-06
-0.001279489
0.001281893
-4.037349e-13
-7.809203e-06
1.340431e-06
1.362389e-06
1.344784e-06
1.285719e-06
-0.001284216
0.001286397
1.621872e-13
-7.300035e-06
1.269897e-06
1.289702e-06
1.273825e-06
1.209176e-06
-0.001288488
0.001290424
6.093179e-13
-6.751179e-06
1.194854e-06
1.212766e-06
1.198419e-06
1.132303e-06
-0.001292266
0.001293945
5.152705e-13
-6.188904e-06
1.119222e-06
1.135569e-06
1.122492e-06
1.058504e-06
-0.001295529
0.001296951
-9.026682e-15
-5.638352e-06
1.046677e-06
1.061515e-06
1.049722e-06
9.904705e-07
-0.001298281
0.001299454
-6.292502e-13
-5.120859e-06
9.803695e-07
9.933975e-07
9.831069e-07
9.305492e-07
-0.001300542
0.001301488
-1.141435e-12
-4.656017e-06
9.223458e-07
9.331893e-07
9.24839e-07
8.781276e-07
-0.001302355
0.001303098
-1.418139e-12
-4.246375e-06
8.712319e-07
8.804902e-07