/*--------------------------------*- C++ -*----------------------------------*\
| =========                 |                                                 |
| \\      /  F ield         | foam-extend: Open Source CFD                    |
|  \\    /   O peration     | Version:     3.1                                |
|   \\  /    A nd           | Web:         http://www.extend-project.de       |
|    \\/     M anipulation  |                                                 |
\*---------------------------------------------------------------------------*/
FoamFile
{
    version     2.0;
    format      ascii;
    class       regIOobject;
    location    "9/uniform";
    object      profilingInfo;
}
// * * * * * * * * * * * * * * * * * * * * * * * * * * * * * * * * * * * * * //

profilingInfo
(

    {
        id              19;
        parentId        17;
        description     "Foam::Time::writeObject - outputTime";
        calls           18;
        totalTime       99.66877;
        childTime       0;
        onStack         1;
    }

    {
        id              17;
        parentId        1;
        description     "Foam::Time::writeObject";
        calls           9018;
        totalTime       99.69996;
        childTime       99.66877;
        onStack         1;
    }

    {
        id              1;
        description     "application::main";
        calls           1;
        totalTime       2367.801;
        childTime       518.9896;
        onStack         1;
    }

    {
        id              6;
        parentId        1;
        description     "MULES::explicitSolve";
        calls           18036;
        totalTime       49.24634;
        childTime       0;
        onStack         0;
    }

    {
        id              5;
        parentId        4;
        description     "functionObjectList::read";
        calls           1;
        totalTime       2e-06;
        childTime       0;
        onStack         0;
    }

    {
        id              18;
        parentId        1;
        description     "functionObjects_.execute()";
        calls           9017;
        totalTime       0.026824;
        childTime       0;
        onStack         0;
    }

    {
        id              4;
        parentId        1;
        description     "functionObjects_.start()";
        calls           1;
        totalTime       7e-06;
        childTime       2e-06;
        onStack         0;
    }

    {
        id              7;
        parentId        1;
        description     "fvMatrix::solve_U";
        calls           9018;
        totalTime       58.93233;
        childTime       47.9658;
        onStack         0;
    }

    {
        id              15;
        parentId        1;
        description     "fvMatrix::solve_k";
        calls           9018;
        totalTime       10.65598;
        childTime       9.141049;
        onStack         0;
    }

    {
        id              13;
        parentId        1;
        description     "fvMatrix::solve_omega";
        calls           9018;
        totalTime       15.52137;
        childTime       8.075078;
        onStack         0;
    }

    {
        id              2;
        parentId        1;
        description     "fvMatrix::solve_pcorr";
        calls           1;
        totalTime       0.175603;
        childTime       0.175422;
        onStack         0;
    }

    {
        id              11;
        parentId        1;
        description     "fvMatrix::solve_pd";
        calls           36072;
        totalTime       284.7311;
        childTime       276.5494;
        onStack         0;
    }

    {
        id              8;
        parentId        7;
        description     "lduMatrix::solver_Ux";
        calls           9018;
        totalTime       15.96028;
        childTime       0;
        onStack         0;
    }

    {
        id              9;
        parentId        7;
        description     "lduMatrix::solver_Uy";
        calls           9018;
        totalTime       16.8524;
        childTime       0;
        onStack         0;
    }

    {
        id              10;
        parentId        7;
        description     "lduMatrix::solver_Uz";
        calls           9018;
        totalTime       15.15312;
        childTime       0;
        onStack         0;
    }

    {
        id              16;
        parentId        15;
        description     "lduMatrix::solver_k";
        calls           9018;
        totalTime       9.141049;
        childTime       0;
        onStack         0;
    }

    {
        id              14;
        parentId        13;
        description     "lduMatrix::solver_omega";
        calls           9018;
        totalTime       8.075078;
        childTime       0;
        onStack         0;
    }

    {
        id              3;
        parentId        2;
        description     "lduMatrix::solver_pcorr";
        calls           1;
        totalTime       0.175422;
        childTime       0;
        onStack         0;
    }

    {
        id              12;
        parentId        11;
        description     "lduMatrix::solver_pd";
        calls           36072;
        totalTime       276.5494;
        childTime       0;
        onStack         0;
    }
);


// ************************************************************************* //
