/*--------------------------------*- C++ -*----------------------------------*\
| =========                 |                                                 |
| \\      /  F ield         | foam-extend: Open Source CFD                    |
|  \\    /   O peration     | Version:     3.1                                |
|   \\  /    A nd           | Web:         http://www.extend-project.de       |
|    \\/     M anipulation  |                                                 |
\*---------------------------------------------------------------------------*/
FoamFile
{
    version     2.0;
    format      ascii;
    class       volScalarField;
    location    "19";
    object      alpha1;
}
// * * * * * * * * * * * * * * * * * * * * * * * * * * * * * * * * * * * * * //

dimensions      [0 0 0 0 0 0 0];

internalField   nonuniform List<scalar> 
119952
(
1
0.9999999
1
1
0.9999999
1
1
1
1
1
1
1
1
1
1
1
1
1
1
1
1
1
1
1
1
0.9999999
1
0.9999999
1
1
1
1
1
1
1
1
1
1
1
1
1
1
1
1
1
1
1
1
1
1
1
1
1
1
1
1
1
1
1
1
1
1
1
1
1
1
0.9999999
1
1
1
1
1
1
1
1
1
1
0.9999999
1
1
1
1
0.9999999
1
1
1
1
1
0.9999999
1
0.9999999
0.9999999
1
0.9999999
0.9999999
1
0.9999999
0.9999998
1
1
1
1
0.9999999
1
1
1
1
1
1
0.9999999
1
1
1
0.9999999
1
1
1
1
1
1
1
1
1
1
1
1
1
1
1
1
1
0.9999999
0.9999999
1
1
1
1
1
0.9999999
1
1
1
1
1
1
1
1
1
1
1
1
1
1
1
1
1
1
1
1
1
1
1
1
1
1
1
1
1
1
1
1
1
1
1
1
1
1
1
1
1
1
1
1
1
1
1
1
1
1
1
1
1
1
1
1
1
1
1
1
1
1
1
1
1
1
1
1
1
1
1
1
1
1
1
1
1
1
1
1
1
1
1
1
1
1
1
1
1
1
1
1
1
1
1
1
1
1
1
1
1
1
1
1
1
1
1
1
1
1
1
1
1
1
1
1
1
1
1
1
1
1
1
1
1
1
1
1
1
1
1
1
1
1
1
1
1
1
1
1
1
1
1
1
1
1
1
1
1
1
1
1
1
1
1
1
1
1
1
1
1
1
1
1
1
1
1
1
1
1
1
1
1
1
1
1
1
1
1
1
1
1
1
1
1
1
1
1
1
1
1
1
1
1
1
1
1
1
1
1
1
1
1
1
1
1
0.9999999
1
1
1
1
1
1
0.9999998
0.9999994
0.9999998
1
1
1
1
1
1
1
1
1
1
1
1
1
1
1
1
1
1
1
1
1
1
1
1
1
1
1
1
1
1
1
1
1
1
1
1
1
1
1
1
1
1
1
1
1
1
1
0.9999965
0.9999987
1
1
1
0.9999999
1
1
1
1
0.9999999
1
1
1
1
1
1
1
1
1
1
1
1
1
1
1
1
1
1
1
1
1
1
1
1
1
1
1
1
1
1
1
1
1
1
1
1
1
1
1
1
1
1
1
1
1
1
1
1
1
1
1
1
1
1
1
1
1
1
1
1
1
1
1
1
1
1
1
1
1
0.9999999
0.9999996
0.9999986
0.9999959
0.9999888
0.9999743
0.9999715
0.9999869
0.9999983
1
1
1
1
1
1
1
1
1
1
1
1
1
1
1
1
1
1
1
1
1
0.9999999
0.9999999
1
1
1
1
1
1
1
1
1
1
1
1
1
1
1
1
1
1
1
1
1
1
1
1
1
1
1
1
1
1
1
1
1
1
1
1
1
1
1
1
1
1
1
1
1
1
1
1
1
1
1
1
1
1
1
1
1
1
1
1
1
1
1
0.9999999
0.9999999
0.9999999
1
1
1
1
1
1
1
1
0.9999999
0.9999999
0.9999999
1
1
1
1
1
1
1
1
1
1
1
1
1
1
1
1
1
1
0.9999999
0.9999998
0.9999961
0.9999365
0.9999365
0.9999749
0.9999999
1
1
1
1
1
1
1
1
1
1
1
1
1
1
1
1
1
1
1
1
1
1
1
1
1
1
1
1
1
1
1
1
1
1
1
1
1
1
1
1
1
1
1
1
1
1
1
1
1
1
1
1
1
1
1
1
1
1
1
1
0.9999997
0.9999998
1
1
0.9999999
1
1
1
1
0.9999999
0.9999997
0.9999991
0.9999972
0.9999922
0.9999847
0.9999864
0.9999953
0.9999995
1
1
1
1
0.9999998
0.9999988
0.9999894
0.9999733
0.9999733
0.9999792
0.9999949
0.9999997
1
1
1
1
0.9999997
0.9999981
0.9999979
0.9999983
0.9999994
0.9999999
1
1
1
1
0.9999999
0.9999998
0.9999995
0.9999985
0.9999969
0.9999972
0.999999
0.9999999
1
1
1
1
1
1
0.9999998
0.9999969
0.9999935
0.9999954
0.9999987
0.9999999
1
1
1
1
1
1
1
1
0.9999999
0.9999995
0.9999984
0.9999978
0.9999981
0.9999994
0.9999996
0.9999982
0.9999871
0.9999812
0.99999
0.9999982
0.9999999
1
1
0.9999996
0.9999955
0.9999934
0.9999946
0.9999985
0.9999998
0.9999999
0.9999999
1
1
1
1
0.9999999
0.9999996
0.9999991
0.9999988
0.999999
0.9999995
0.9999999
1
1
0.9999999
0.9999996
0.9999982
0.9999956
0.9999962
0.9999987
0.9999999
1
1
1
1
1
1
1
1
1
1
1
0.9999997
0.9999958
0.9999919
0.9999919
0.9999953
0.9999992
1
1
1
1
1
1
1
1
1
1
0.9999999
0.9999999
0.9999999
1
1
1
1
1
1
1
1
1
1
1
1
1
0.9999999
1
1
1
1
1
1
1
1
1
1
1
1
1
0.9999999
1
1
1
1
1
0.9999999
1
1
1
1
1
1
1
1
1
1
1
1
1
1
1
1
1
1
1
1
1
1
1
1
1
1
1
1
1
1
1
1
1
1
1
1
1
1
0.9999999
0.9999999
0.9999999
1
1
1
1
1
1
1
1
1
1
1
1
1
1
1
1
1
1
1
1
1
1
1
1
1
1
0.9999999
0.9999999
0.9999999
0.9999997
0.9999997
0.9999997
0.9999998
0.9999999
0.9999998
0.9999996
0.9999981
0.9999912
0.9999542
0.999728
0.9989402
0.9989099
0.9995864
0.9999561
0.9999988
1
1
1
1
1
1
1
1
1
0.9999999
0.9999994
0.9999982
0.999998
0.9999989
0.9999999
1
1
1
1
1
1
1
1
1
1
1
1
1
1
1
1
1
1
1
1
1
1
0.9999999
0.9999997
0.9999991
0.9999984
0.9999986
0.9999996
1
1
1
1
1
1
1
1
1
1
1
1
1
1
1
1
1
1
1
1
1
1
1
1
1
1
1
1
1
1
1
1
1
1
1
1
1
0.9999999
0.9999994
0.999998
0.9999979
0.9999988
0.9999998
1
1
1
1
1
0.9999999
0.9999996
0.9999983
0.9999979
0.9999984
0.9999996
1
1
1
1
1
1
1
1
1
1
1
1
1
1
0.9999999
0.9999995
0.9999971
0.9999781
0.9998315
0.9997213
0.9997689
0.9999271
0.9999932
0.9999989
0.9999933
0.9999746
0.9999738
0.9999872
0.9999982
1
1
1
1
1
0.9999998
0.9999993
0.9999962
0.999981
0.9999767
0.9999843
0.9999967
0.9999998
1
1
1
0.9999999
0.9999999
0.9999999
0.9999999
1
1
1
1
1
1
1
1
0.9999999
0.9999998
0.9999991
0.9999978
0.9999957
0.9999955
0.9999975
0.9999996
1
1
1
1
1
1
1
1
0.9999999
0.9999995
0.9999988
0.9999983
0.9999981
0.9999981
0.999999
0.9999998
1
1
1
1
1
0.9999998
0.9999996
0.9999996
0.9999999
1
1
1
1
1
1
1
1
0.9999998
0.9999966
0.9999174
0.9997935
0.9998031
0.9999144
0.9999874
0.9999995
0.9999999
0.9999999
0.9999999
0.9999997
0.9999972
0.9999761
0.9999649
0.9999697
0.9999891
0.9999985
0.9999999
1
1
1
1
1
1
1
1
1
0.9999997
0.999998
0.9999939
0.9999911
0.9999916
0.9999949
0.9999991
0.9999988
0.9999878
0.9999732
0.9999732
0.9999834
0.9999969
0.9999999
1
1
1
1
1
0.9999999
0.9999997
0.9999984
0.9999944
0.9999934
0.9999971
0.9999996
1
0.9999999
0.9999998
0.9999993
0.9999985
0.9999982
0.9999983
0.999999
0.9999997
0.9999994
0.9999931
0.9999676
0.9999716
0.9999898
0.9999991
0.9999996
0.9999958
0.9999771
0.9999746
0.9999823
0.9999963
0.9999998
1
1
1
1
0.9999998
0.9999995
0.9999984
0.9999959
0.999995
0.9999974
0.9999996
1
1
1
0.9999994
0.9999953
0.9999939
0.999994
0.9999952
0.9999973
0.9999992
0.9999999
0.9999998
0.9999964
0.9999799
0.999978
0.9999827
0.9999956
0.9999997
1
1
0.9999997
0.9999953
0.9999916
0.9999923
0.9999971
0.9999997
1
1
1
1
0.9999999
0.9999996
0.9999985
0.9999979
0.9999984
0.9999995
0.9999999
0.9999999
0.9999998
0.9999995
0.9999993
0.9999993
0.9999993
0.9999993
0.9999995
0.9999998
1
1
1
0.9999999
1
1
0.9999999
1
1
0.9999999
1
1
1
1
1
1
1
1
1
1
1
1
1
1
1
1
1
1
1
1
1
1
1
1
1
1
1
1
1
1
1
1
1
1
1
1
1
1
1
1
1
1
1
1
1
1
1
1
1
1
1
1
1
1
1
1
1
1
1
1
1
1
1
1
1
1
1
1
1
1
0.9999998
0.9999996
0.9999996
0.9999996
0.9999993
0.9999934
0.9999678
0.9999299
0.9999452
0.9999771
0.9999955
0.9999995
0.9999997
0.9999997
0.9999997
0.9999997
0.9999997
0.9999997
0.9999998
0.9999999
1
1
1
1
1
1
1
1
1
1
1
0.9999999
0.9999998
0.9999996
0.9999994
0.999999
0.9999982
0.9999962
0.9999912
0.9999866
0.9999865
0.9999881
0.9999924
0.9999953
0.9999946
0.9999844
0.9999047
0.9991631
0.9940442
0.9916027
0.9946567
0.9989816
0.9999487
0.9999988
0.9999995
0.9999995
0.9999995
0.9999996
0.9999996
0.9999996
0.9999989
0.9999943
0.9999637
0.9998203
0.9997619
0.9998459
0.9999697
0.9999985
0.9999999
0.9999999
0.9999999
0.9999999
0.9999999
0.9999998
0.9999995
0.9999995
0.9999998
1
1
1
1
1
1
1
1
1
1
1
1
0.9999999
0.9999998
0.999999
0.9999957
0.9999861
0.9999822
0.9999903
0.9999983
0.9999999
1
1
1
1
1
1
0.9999999
0.9999999
0.9999999
1
1
1
1
1
1
0.9999999
0.9999996
0.9999996
0.9999998
1
1
1
1
1
1
1
1
1
1
1
1
1
1
0.9999998
0.9999988
0.9999915
0.9999803
0.9999807
0.9999913
0.9999986
0.9999999
0.9999999
0.9999999
0.9999999
0.9999998
0.999999
0.9999931
0.9999758
0.9999743
0.9999854
0.9999973
0.9999998
1
1
1
1
1
1
1
1
1
1
1
1
1
0.9999999
0.9999994
0.9999965
0.9999777
0.9998257
0.999244
0.9991406
0.9994878
0.999899
0.9999887
0.9999983
0.9999995
0.9999995
0.9999992
0.9999984
0.9999981
0.9999985
0.999999
0.9999991
0.9999988
0.9999967
0.9999702
0.9996727
0.9995011
0.9996011
0.9998872
0.9999908
0.9999983
0.9999982
0.9999981
0.9999965
0.9999873
0.9999839
0.9999886
0.9999973
0.9999998
1
1
1
1
1
1
1
0.9999999
0.9999995
0.9999968
0.9999858
0.9999429
0.9998659
0.9998922
0.9999665
0.9999966
0.9999999
1
1
0.9999997
0.9999981
0.9999922
0.9999889
0.9999902
0.9999951
0.9999991
0.9999982
0.9999778
0.9999191
0.9999169
0.9999541
0.9999928
0.9999997
1
1
1
1
1
1
0.9999998
0.9999997
0.9999998
0.9999999
0.9999999
0.9999998
0.9999991
0.9999941
0.9999194
0.9994551
0.9993459
0.9995165
0.9998862
0.9999874
0.9999878
0.999986
0.999987
0.9999949
0.9999967
0.9999948
0.9999657
0.9999525
0.99996
0.9999657
0.999961
0.9999649
0.999987
0.9999979
0.9999999
1
1
1
1
1
1
1
1
0.9999997
0.9999986
0.9999971
0.9999959
0.9999903
0.9999365
0.9999094
0.99991
0.9999625
0.9999951
0.9999998
0.9999998
0.9999997
0.9999989
0.9999973
0.9999975
0.9999991
0.9999999
1
1
1
0.9999999
0.999997
0.99996
0.9999373
0.9999457
0.9999823
0.9999983
0.9999998
0.9999995
0.9999983
0.9999949
0.9999834
0.9999537
0.9999385
0.9999481
0.9999744
0.999996
0.9999981
0.9999861
0.9999551
0.9999546
0.9999722
0.9999952
0.9999998
0.9999999
0.9999999
0.9999998
0.9999994
0.9999982
0.9999966
0.9999967
0.999998
0.9999985
0.999997
0.9999877
0.9999466
0.9999109
0.9999431
0.9999876
0.9999993
1
1
1
1
1
1
0.9999993
0.9999942
0.9999644
0.9999279
0.9999525
0.9999891
0.9999993
0.9999997
0.9999994
0.9999986
0.9999983
0.9999985
0.9999995
0.9999999
1
1
0.9999999
0.9999999
0.9999997
0.999999
0.999997
0.9999957
0.9999965
0.9999977
0.9999987
0.9999992
0.9999995
0.9999996
0.9999998
0.9999998
0.9999998
0.999999
0.9999965
0.9999933
0.9999898
0.9999794
0.999931
0.9998998
0.999905
0.9999623
0.9999953
0.9999999
1
1
1
1
1
1
1
1
1
1
0.9999999
1
1
1
1
1
1
1
1
1
1
1
1
1
1
1
1
1
1
1
1
1
1
1
1
1
1
1
1
1
1
1
1
1
1
1
1
1
1
1
1
0.9999999
0.9999999
0.9999998
0.9999998
0.9999999
0.9999999
0.9999999
1
1
0.9999999
0.9999999
0.9999997
0.9999993
0.999999
0.9999991
0.9999994
0.9999995
0.9999994
0.9999983
0.9999939
0.9999846
0.9999801
0.9999852
0.9999944
0.9999988
0.9999991
0.9999988
0.9999981
0.9999977
0.9999978
0.9999983
0.9999986
0.9999985
0.9999973
0.9999941
0.999992
0.9999916
0.999989
0.9999698
0.9999157
0.9999193
0.9999479
0.9999469
0.9998054
0.9989281
0.9978262
0.9981574
0.9991811
0.9997989
0.9998972
0.9998951
0.9998807
0.9998411
0.9998066
0.9998036
0.9998423
0.999942
0.999985
0.9999918
0.9999935
0.9999946
0.9999955
0.9999964
0.9999972
0.9999974
0.9999973
0.9999971
0.9999969
0.9999964
0.999993
0.9999827
0.9999787
0.9999837
0.9999944
0.9999938
0.9999834
0.999948
0.9998808
0.999815
0.9998018
0.9998162
0.9998549
0.9998892
0.9998716
0.9994773
0.9939722
0.9709603
0.9749101
0.9918691
0.9990554
0.9999592
0.9999774
0.9999655
0.9999263
0.9999402
0.999981
0.9999944
0.9999918
0.9999565
0.9995486
0.9977948
0.9976295
0.9988716
0.9998254
0.9999889
0.9999979
0.9999979
0.9999978
0.9999974
0.9999962
0.9999919
0.9999849
0.9999864
0.9999948
0.9999994
1
1
1
1
1
1
1
1
1
1
1
0.9999998
0.9999994
0.999998
0.9999931
0.9999721
0.9999021
0.9998935
0.9999553
0.9999945
0.9999998
1
0.9999999
0.9999998
0.9999985
0.9999952
0.9999955
0.9999982
0.9999998
0.9999999
0.9999999
0.9999999
0.9999998
0.9999986
0.9999911
0.99998
0.9999825
0.9999934
0.9999992
1
1
1
1
1
1
1
1
1
1
0.9999999
0.9999998
0.9999997
0.9999996
0.9999973
0.9999452
0.9998712
0.9998764
0.9999461
0.999992
0.9999995
0.9999996
0.9999995
0.9999991
0.9999969
0.9999832
0.9998783
0.9997615
0.9997785
0.9999096
0.9999875
0.9999993
0.9999997
0.9999998
0.9999998
0.9999997
0.9999994
0.9999976
0.9999814
0.999962
0.9999659
0.9999869
0.9999978
0.9999994
0.9999995
0.9999995
0.9999996
0.9999998
0.9999996
0.9999915
0.9997712
0.9980728
0.997594
0.9983525
0.9996211
0.9999445
0.9999927
0.9999989
0.9999995
0.9999995
0.9999995
0.9999994
0.999999
0.9999974
0.9999868
0.9997703
0.9976406
0.9968055
0.9975821
0.999391
0.9999482
0.9999652
0.9999635
0.9999738
0.9999899
0.9999909
0.9999379
0.999885
0.9999005
0.9999656
0.9999961
0.9999995
0.9999995
0.9999994
0.9999986
0.9999938
0.9999631
0.9997638
0.9994861
0.9995413
0.9998199
0.9999033
0.9998386
0.9992811
0.9989003
0.998983
0.9996141
0.9999549
0.9999989
1
0.9999999
0.9999999
0.9999995
0.999995
0.9999458
0.9996413
0.9995604
0.9996984
0.9999364
0.9999969
0.9999981
0.999986
0.9999327
0.9999438
0.9999812
0.9999982
1
1
1
1
1
1
1
1
1
1
0.9999997
0.9999973
0.9999696
0.9996935
0.9990055
0.9993089
0.9998246
0.9999814
0.999997
0.9999932
0.9998764
0.9995111
0.9994976
0.9997388
0.9999579
0.9999965
0.9999966
0.9999961
0.9999928
0.9999373
0.9998249
0.9998233
0.9999157
0.9999861
0.9999994
1
1
1
1
1
1
1
1
0.9999999
0.9999988
0.9999704
0.9997763
0.9997315
0.9998076
0.999957
0.9999964
0.9999972
0.9999962
0.9999966
0.9999989
0.9999999
1
1
1
1
1
1
1
1
0.9999998
0.9999985
0.9999945
0.999989
0.9999871
0.9999876
0.9999906
0.9999966
0.999998
0.9999897
0.9998662
0.9997054
0.9997054
0.9997054
0.9997054
0.9997054
0.999801
0.9999613
0.9999948
0.9999945
0.9999958
0.9999973
0.9999991
0.9999997
0.9999996
0.9999988
0.9999953
0.999979
0.9999063
0.999707
0.9996888
0.99987
0.9999846
0.9999972
0.9999805
0.9998263
0.9996304
0.9997641
0.9999468
0.999997
1
1
1
1
1
1
0.9999997
0.9999943
0.9999166
0.9997441
0.9998339
0.9999596
0.9999973
1
1
1
1
1
0.9999999
0.9999999
1
1
1
1
0.9999997
0.9999962
0.9999868
0.999986
0.9999901
0.9999903
0.9999471
0.999885
0.999885
0.9999105
0.9999778
0.9999985
0.9999991
0.9999983
0.9999938
0.9999665
0.9997616
0.9993842
0.9993758
0.9996818
0.9999456
0.9999972
0.9999998
0.9999999
1
1
1
1
1
1
1
1
1
1
1
1
1
1
1
1
1
1
1
1
1
1
1
1
1
1
1
1
1
1
1
1
1
1
1
1
1
1
1
1
1
1
1
1
1
1
1
1
1
1
1
1
0.9999999
0.9999997
0.9999982
0.9999939
0.9999904
0.9999908
0.9999935
0.9999972
0.9999975
0.9999948
0.9999813
0.9999435
0.9998912
0.9998728
0.999875
0.999892
0.9999295
0.9999674
0.9999769
0.9999741
0.9999492
0.9998125
0.999542
0.9995401
0.9997019
0.999864
0.9998701
0.9997513
0.9990393
0.9971088
0.9964807
0.9972153
0.9990004
0.9998004
0.9998038
0.9997177
0.9994919
0.9992655
0.9992648
0.9995387
0.9997893
0.999795
0.9997277
0.9995024
0.9993247
0.9993119
0.999237
0.9985194
0.9968568
0.9970822
0.9984697
0.9986878
0.9966258
0.9862479
0.9792087
0.9864009
0.9961916
0.9988911
0.9984213
0.997042
0.9939072
0.9872253
0.9812912
0.9854124
0.9960456
0.9996603
0.999777
0.9996481
0.9995518
0.9995158
0.9995169
0.9996434
0.9998452
0.9998687
0.999784
0.9994663
0.999492
0.9998251
0.9998559
0.9997018
0.9995533
0.9996525
0.999883
0.9999871
0.9999731
0.9998422
0.9993159
0.9985688
0.9973966
0.9957685
0.9951612
0.9948528
0.9949697
0.9938892
0.9757603
0.9296356
0.9540409
0.9880878
0.9990438
0.999686
0.9992941
0.998972
0.9992813
0.9998277
0.9999722
0.9999706
0.9999136
0.9992312
0.9955103
0.9945949
0.9967414
0.9992944
0.9999128
0.9999792
0.9999792
0.9999723
0.9999627
0.9999453
0.9998779
0.9997929
0.9998208
0.9999084
0.9999746
0.9999945
0.9999984
0.9999995
0.9999999
1
1
1
1
1
1
0.9999999
0.9999994
0.9999979
0.9999921
0.9999648
0.9998137
0.9992687
0.9991154
0.9994072
0.9998761
0.9999927
0.9999978
0.9999971
0.9999901
0.9999601
0.9999524
0.9999708
0.9999943
0.9999995
0.9999996
0.9999996
0.9999992
0.9999956
0.9999593
0.9998186
0.9998075
0.9999038
0.9999841
0.9999988
0.9999997
0.9999997
0.9999997
0.9999998
0.9999999
0.9999999
0.9999997
0.9999972
0.9999955
0.9999965
0.9999974
0.9999968
0.9999903
0.999932
0.9998316
0.9998355
0.999928
0.9999886
0.9999954
0.9999953
0.9999956
0.9999958
0.9999957
0.9999935
0.9999505
0.9992268
0.998552
0.9986665
0.9994903
0.9999377
0.999996
0.9999981
0.9999982
0.9999981
0.9999965
0.9999848
0.9998654
0.9995603
0.9995557
0.9997953
0.9999672
0.9999888
0.9999886
0.9999856
0.9999472
0.9994181
0.9986091
0.9987082
0.9994666
0.999927
0.9999976
0.9999959
0.9999498
0.9996173
0.9993921
0.9993436
0.998613
0.9968071
0.9971592
0.9988546
0.999833
0.9999492
0.999935
0.9996519
0.9964219
0.9942016
0.9952989
0.998588
0.9997115
0.9996503
0.99968
0.9998893
0.9999709
0.9999671
0.9997412
0.9995037
0.9995619
0.9998418
0.9999792
0.9999882
0.9999833
0.999986
0.999996
0.9999967
0.9999928
0.999961
0.9996968
0.9981686
0.9973791
0.9980588
0.9995468
0.9997878
0.9997337
0.9983815
0.9972115
0.9978883
0.9993761
0.9999437
0.9999985
0.9999996
0.9999995
0.9999977
0.9999898
0.9999884
0.9999882
0.9999237
0.9995651
0.9995129
0.9996099
0.999881
0.999985
0.9999934
0.9999882
0.9999919
0.9999973
0.9999996
1
1
1
1
1
1
1
1
1
1
0.9999999
0.9999989
0.9999878
0.9999027
0.999365
0.9980481
0.998358
0.9995178
0.9999598
0.9999982
0.9999982
0.9999912
0.9999045
0.9998565
0.9999273
0.9999751
0.999988
0.9999797
0.9997959
0.9996463
0.9996463
0.9997731
0.9999512
0.9999812
0.9999788
0.9999856
0.9999967
0.9999998
0.9999999
0.9999997
0.999999
0.9999896
0.9998021
0.9995173
0.9995395
0.9998003
0.9999714
0.9999837
0.9999597
0.9999344
0.9999613
0.9999911
0.9999991
0.9999992
0.9999991
0.9999992
0.9999996
0.9999999
0.9999999
0.9999999
0.9999999
0.9999999
0.9999999
1
1
1
0.9999997
0.9999956
0.9999329
0.9994027
0.9982091
0.9983354
0.9991483
0.9998063
0.9999823
0.9999956
0.9999931
0.9999846
0.9999784
0.9999787
0.9999789
0.9999699
0.9999202
0.9999035
0.9999035
0.9999314
0.9999848
0.9999993
0.9999999
0.9999998
0.999998
0.9999767
0.9997824
0.9984249
0.9967848
0.9979784
0.9995639
0.9999746
0.9999947
0.9999818
0.9998743
0.9994813
0.9993275
0.9995928
0.9999178
0.9999961
1
1
1
1
1
1
0.9999992
0.9999839
0.9998053
0.9997091
0.9997091
0.9998678
0.9999822
0.9999995
1
0.9999999
0.9999998
0.9999983
0.9999767
0.9998591
0.9998375
0.999891
0.9999774
0.9999977
0.9999971
0.9999914
0.9999504
0.9998062
0.9997739
0.9998337
0.9999619
0.9999889
0.9999889
0.9999888
0.9999863
0.9999763
0.999938
0.9995917
0.9979735
0.9976082
0.9981664
0.9995336
0.999966
0.9999964
0.9999963
0.9999955
0.9999953
0.9999954
0.9999983
1
1
1
0.9999999
1
1
1
1
1
1
1
1
1
1
1
1
1
1
1
1
1
1
1
1
1
1
1
1
1
1
1
1
1
1
1
1
1
1
1
1
1
1
1
1
1
1
1
1
1
1
1
0.9999999
0.9999999
0.9999997
0.9999994
0.9999981
0.9999917
0.9999482
0.9996467
0.9984001
0.9969164
0.9969117
0.9976525
0.998968
0.999597
0.9995675
0.998965
0.9963499
0.9908311
0.9871021
0.9868516
0.9878917
0.9917886
0.9968732
0.9984668
0.9980815
0.9946098
0.9811346
0.9736186
0.9803352
0.9916947
0.9954703
0.9931612
0.9747893
0.9208078
0.9024316
0.9405587
0.9880838
0.9981031
0.9971862
0.9916465
0.9702308
0.9599996
0.9792192
0.9966439
0.9985015
0.9977393
0.9926752
0.9768119
0.9767662
0.9895835
0.9924578
0.9867016
0.9642587
0.9658272
0.987698
0.9912181
0.9698695
0.8961893
0.8837184
0.9471466
0.991413
0.995104
0.9912257
0.9814002
0.9258354
0.7244996
0.7097074
0.8712441
0.9851459
0.9988686
0.9986276
0.9967256
0.9893271
0.9754405
0.9781481
0.9932804
0.998725
0.9979305
0.993091
0.9928181
0.9971465
0.9996418
0.9997987
0.9990046
0.9981477
0.9981379
0.9987306
0.9996221
0.9998971
0.9997393
0.9966833
0.9690802
0.9474361
0.9641775
0.9629301
0.9408982
0.9170136
0.8262001
0.6674124
0.7214639
0.8950579
0.9795067
0.9936212
0.992963
0.9944309
0.9981769
0.9997421
0.9999319
0.9999322
0.9999059
0.9994142
0.9948688
0.9871442
0.9922328
0.9981713
0.9997379
0.9998349
0.9998486
0.9998966
0.999828
0.9984258
0.9965365
0.9974734
0.998961
0.9993858
0.9993303
0.9996002
0.9999065
0.9999922
0.9999993
0.9999995
0.9999994
0.9999995
0.9999997
0.9999997
0.9999997
0.9999994
0.9999974
0.9999846
0.9999016
0.9992795
0.993871
0.9884436
0.9896932
0.9962041
0.9995703
0.9999543
0.9999543
0.9999417
0.9998211
0.9995619
0.9996601
0.9998927
0.9999868
0.9999984
0.9999986
0.9999986
0.9999972
0.9999787
0.9997298
0.9994028
0.9994961
0.9998164
0.9999702
0.9999955
0.9999982
0.9999982
0.9999959
0.9999819
0.9999736
0.999981
0.9999917
0.9999966
0.999997
0.999997
0.999997
0.999997
0.9999844
0.9998017
0.9993873
0.9995587
0.9998824
0.9999902
0.9999942
0.9999941
0.9999929
0.9999853
0.9999302
0.9994566
0.9981028
0.9979595
0.9987194
0.9997479
0.9999116
0.9998893
0.9998885
0.9999484
0.9999706
0.9999702
0.9999375
0.9993968
0.9981376
0.9981229
0.9991314
0.9998481
0.9999831
0.9999855
0.9999855
0.9999715
0.9995347
0.9974355
0.997173
0.9982915
0.9996832
0.9999127
0.9999191
0.9999337
0.9999676
0.9999862
0.9999282
0.9984289
0.9876575
0.9852783
0.9905446
0.9981604
0.9992166
0.9992166
0.9989085
0.9939582
0.9892206
0.9907742
0.9967331
0.9994212
0.999874
0.9999679
0.9999313
0.9991697
0.9984083
0.9985387
0.9994333
0.999926
0.9999717
0.9999268
0.9998885
0.9999286
0.9999795
0.9999916
0.9999923
0.9999923
0.9999879
0.999944
0.9995009
0.9956428
0.9908141
0.9936424
0.9982286
0.9997563
0.9997715
0.9996543
0.9977739
0.9968902
0.9971819
0.9989242
0.9998788
0.9999972
0.9999996
0.9999985
0.9999865
0.9998773
0.9994517
0.9994209
0.9997178
0.9999572
0.9999972
0.999999
0.999999
0.9999986
0.9999841
0.9999566
0.9999587
0.999981
0.9999967
0.9999995
0.9999988
0.9999988
0.9999996
0.9999999
0.9999999
0.9999999
0.9999998
0.9999999
1
1
0.9999997
0.9999921
0.9998555
0.9981163
0.9917789
0.9930994
0.9978813
0.9998171
0.9999962
0.9999982
0.999998
0.9999958
0.9999806
0.9998266
0.999182
0.9990724
0.9993775
0.999874
0.999976
0.999974
0.9999405
0.9999402
0.9999604
0.999989
0.9999984
0.9999984
0.9999985
0.9999978
0.9999745
0.999647
0.9994202
0.9995017
0.999836
0.9999738
0.999978
0.999976
0.9999677
0.9999354
0.9998399
0.9997966
0.9998889
0.9999807
0.9999989
0.9999992
0.9999992
0.9999992
0.999999
0.9999988
0.9999982
0.999997
0.9999939
0.9999898
0.9999912
0.9999973
0.9999998
0.9999999
0.9999991
0.9999864
0.9998184
0.9979294
0.9957575
0.9957575
0.9957575
0.997101
0.9994529
0.9999787
0.9999985
0.9999985
0.9999985
0.9999985
0.9999984
0.9999939
0.9999822
0.9999717
0.9999704
0.9999725
0.9999795
0.9999906
0.9999987
0.9999988
0.999989
0.9997599
0.9962285
0.9932942
0.9939276
0.9977865
0.9997669
0.9999923
0.9999884
0.9998821
0.9990089
0.9972358
0.9977304
0.9991397
0.9998926
0.9999971
1
1
1
1
1
1
0.9999993
0.9999862
0.9998493
0.9997792
0.9998838
0.9999776
0.9999985
0.9999989
0.9999964
0.9999781
0.9998712
0.9997372
0.9998346
0.9999626
0.999993
0.999994
0.999994
0.9999817
0.9996539
0.9991717
0.9992002
0.9996554
0.99995
0.9999872
0.9999872
0.9999851
0.9999766
0.9999476
0.9997033
0.9970295
0.9954266
0.9955619
0.9981643
0.9997218
0.9999063
0.9998926
0.9999286
0.999984
0.999999
0.9999996
0.9999996
0.9999992
0.9999962
1
1
1
1
1
1
1
1
1
1
1
1
1
1
1
1
1
1
1
1
1
1
1
1
1
1
1
1
1
1
1
1
1
1
1
1
1
1
1
1
1
1
1
1
1
1
1
0.9999997
0.9999984
0.9999897
0.9999561
0.9998981
0.9998438
0.9997744
0.9996537
0.999459
0.9989893
0.9971762
0.9860752
0.9375453
0.8834941
0.8846003
0.9131051
0.9574093
0.9833925
0.9848061
0.9768383
0.9394316
0.8417056
0.7575844
0.7493825
0.7801492
0.8871205
0.969765
0.9762465
0.9621846
0.8395057
0.7202171
0.8080199
0.9051522
0.9102417
0.9174121
0.8495046
0.4368561
0.3812346
0.6498655
0.9404296
0.9834407
0.9765169
0.8481736
0.6002046
0.7065808
0.9198377
0.9861067
0.9874951
0.9643543
0.8236256
0.8124856
0.8935473
0.9731122
0.9705228
0.8846855
0.8145479
0.8500439
0.9454239
0.9620371
0.9038851
0.577289
0.5807333
0.8633721
0.9843461
0.981716
0.9343184
0.8290486
0.4235757
0.1782683
0.1769583
0.3307182
0.8310065
0.9843138
0.9879922
0.9550535
0.6879614
0.6459228
0.843402
0.9793913
0.9909659
0.977615
0.9601805
0.9749792
0.9937483
0.9989099
0.9998053
0.999764
0.9990165
0.991907
0.989155
0.9915192
0.99608
0.9967367
0.9916314
0.9366465
0.6618147
0.6341647
0.8809064
0.9376762
0.6969574
0.2116962
0.1596483
0.292957
0.5623875
0.7350742
0.8409212
0.9230359
0.9792117
0.9978302
0.9998281
0.999859
0.9998561
0.9997963
0.9989307
0.9855634
0.9747647
0.9798333
0.9942631
0.9990009
0.9988564
0.9952888
0.9913436
0.9936569
0.9985015
0.999168
0.9980651
0.9918479
0.9909295
0.9935106
0.9983475
0.9998629
0.999993
0.9999983
0.9999981
0.9999963
0.9999953
0.9999956
0.9999957
0.9999945
0.9999829
0.999879
0.9989047
0.9848551
0.9491953
0.9535547
0.9809041
0.9971317
0.9998136
0.9999301
0.9999312
0.9998846
0.9991561
0.9968471
0.9973981
0.9991566
0.9999006
0.9999941
0.9999965
0.999996
0.9999879
0.9998924
0.999254
0.9990095
0.9993083
0.9997989
0.9999515
0.9999897
0.9999957
0.9999957
0.9999949
0.9999888
0.999966
0.9999454
0.9999454
0.9999279
0.9997596
0.9996656
0.999747
0.9999343
0.9999955
0.9999952
0.9999483
0.9995629
0.9990934
0.999275
0.9997177
0.9999665
0.9999942
0.9999846
0.9997892
0.998331
0.9949358
0.9949591
0.9977175
0.9996926
0.999962
0.9999621
0.9999598
0.9999482
0.9999213
0.999689
0.9971467
0.9943704
0.9947919
0.9979113
0.9996873
0.9999443
0.9999636
0.9999661
0.9999584
0.9997068
0.9983904
0.9981916
0.9988353
0.9995792
0.9995871
0.9995871
0.9994019
0.9957617
0.9909039
0.9914822
0.996505
0.9995486
0.9999067
0.9991933
0.9945716
0.9928952
0.9965782
0.9981756
0.99655
0.9842301
0.9786497
0.9840687
0.9953931
0.9991102
0.9997595
0.9999457
0.9999906
0.9999915
0.9999827
0.9999164
0.9996805
0.9995324
0.9996805
0.9999237
0.9999804
0.9999777
0.9999597
0.9999067
0.9997684
0.9996637
0.9997228
0.9998155
0.9996645
0.9967762
0.9813318
0.9786961
0.9883076
0.9981343
0.9989857
0.9977411
0.9947292
0.996174
0.9988069
0.9998535
0.9999942
0.9999999
1
1
0.9999994
0.9999826
0.9996564
0.9986274
0.9990353
0.9997207
0.9999713
0.9999988
0.999999
0.999999
0.999999
0.999999
0.9999983
0.9999953
0.9999856
0.999972
0.9999636
0.9998937
0.9988729
0.9978442
0.9979966
0.9992139
0.9999031
0.9999973
0.9999996
0.9999996
0.9999996
0.9999994
0.9999982
0.9999578
0.9987957
0.9894593
0.9865747
0.9898172
0.9974975
0.9998403
0.9999968
0.9999979
0.9999699
0.9994548
0.9982333
0.9982113
0.9991741
0.9998623
0.9999849
0.9999853
0.999962
0.9997339
0.9995267
0.9996095
0.9998766
0.9999841
0.999986
0.9999384
0.9996508
0.9995839
0.9997181
0.9999297
0.9999521
0.9999485
0.9999438
0.9999329
0.9998789
0.9994971
0.9980487
0.9978154
0.9980488
0.9993693
0.9999437
0.9999987
0.9999992
0.9999992
0.9999941
0.999946
0.9996796
0.998338
0.9953618
0.9957326
0.9984659
0.9998426
0.9999966
0.9999998
0.9999997
0.9999992
0.9999943
0.9999099
0.9985137
0.9965573
0.9975086
0.9992564
0.9999212
0.9999941
0.9999955
0.9999952
0.9999942
0.9999917
0.9999886
0.9999866
0.9999826
0.9999426
0.9996293
0.997274
0.9929474
0.9938186
0.9976967
0.9997152
0.9999918
0.999999
0.9999911
0.9999434
0.9998494
0.9998037
0.9998111
0.9998554
0.9999434
0.9999778
0.9999378
0.9993603
0.9956025
0.9947279
0.9947279
0.9963398
0.9992729
0.9999691
0.9999992
0.9999987
0.9999974
0.9999972
0.999998
0.9999992
0.9999978
0.9999824
0.9999573
0.9999598
0.9999784
0.9999955
0.9999921
0.9999691
0.9998432
0.9993635
0.9991156
0.999476
0.9998498
0.9999785
0.9999937
0.999994
0.999994
0.9999916
0.9999711
0.9999082
0.9998601
0.9998846
0.9999638
0.9999872
0.9999823
0.999823
0.9977356
0.9921914
0.9941212
0.9983179
0.9997179
0.9996564
0.9995358
0.9996928
0.9999313
0.9999945
0.9999956
0.9999956
0.9999955
0.9999939
0.9999823
0.9999655
0.9999743
1
1
1
1
1
1
1
1
1
1
1
1
1
1
1
1
1
1
1
1
1
1
1
1
1
1
1
1
1
1
1
1
1
1
1
1
1
1
1
1
1
1
1
1
1
1
0.9999999
0.9999999
0.9999999
0.9999999
1
1
1
1
1
1
1
1
1
1
1
1
1
0.9999996
0.9999933
0.9999157
0.9991357
0.9949069
0.9874872
0.9831723
0.9795976
0.9729569
0.9644339
0.9470345
0.906783
0.7979292
0.4797711
0.2886468
0.3198429
0.4481142
0.6348777
0.7831661
0.8000097
0.6481164
0.2743801
0.160329
0.1339743
0.114539
0.2116739
0.6642806
0.7815971
0.5111547
0.1182012
0.0807132
0.2748974
0.8609525
0.6853486
0.168824
0.04157693
0.04157693
0.06270141
0.4314795
0.5755297
0.3684156
0.1298568
0.0704401
0.08185473
0.4259525
0.7735509
0.6461191
0.2346607
0.1821765
0.4914376
0.7247001
0.5019554
0.2955747
0.5274989
0.8551819
0.6894668
0.2716431
0.3750222
0.6163459
0.4217778
0.2205075
0.3004732
0.7532585
0.9640872
0.9703065
0.9348106
0.6013454
0.1287333
0.1020136
0.1536568
0.5116297
0.5323984
0.4667283
0.2443915
0.1197233
0.1354206
0.4387589
0.7876558
0.8046671
0.8188171
0.8351854
0.8812989
0.9565559
0.9841929
0.9935634
0.9978069
0.999595
0.9997558
0.998942
0.9963946
0.993278
0.9858438
0.9387136
0.8970165
0.8696921
0.5083438
0.3809308
0.4823814
0.8293609
0.8016928
0.4509294
0.07856921
0.04159251
0.07281645
0.1302564
0.1477744
0.2196387
0.6257365
0.9443281
0.9974664
0.999551
0.9981102
0.9779453
0.9635989
0.971615
0.9912657
0.9961557
0.9951639
0.9914143
0.9653733
0.9568341
0.9735297
0.9946797
0.9992634
0.9993189
0.9990659
0.9937387
0.9909295
0.9909295
0.9916988
0.9972789
0.999781
0.9999947
0.9999955
0.9999905
0.999976
0.9999551
0.9999387
0.9998913
0.9992324
0.9851709
0.8655907
0.8433911
0.9186835
0.9864486
0.9981956
0.9996962
0.9999274
0.999933
0.999933
0.9996974
0.9967847
0.9946636
0.9954801
0.9984128
0.9998164
0.9999879
0.999988
0.9999738
0.9998236
0.9988998
0.9982096
0.9989759
0.9997563
0.9999525
0.9999831
0.9999831
0.9999846
0.9999853
0.9999688
0.9998249
0.9997558
0.9997876
0.9997365
0.9992612
0.9988544
0.9993229
0.9998597
0.9999646
0.9999646
0.9999609
0.9999377
0.9997838
0.9985156
0.9969128
0.9970863
0.9987451
0.9998126
0.9999671
0.9999039
0.9992265
0.9920101
0.9805951
0.9875625
0.9966119
0.9996621
0.9996889
0.9996056
0.9989217
0.9905708
0.9845444
0.9849235
0.9937024
0.9990322
0.9998707
0.999952
0.9999617
0.9999557
0.9998722
0.9991286
0.9976099
0.9982663
0.9994803
0.9995826
0.9995826
0.9993086
0.9945041
0.980937
0.9802728
0.9894477
0.9980454
0.9997466
0.9998929
0.9999185
0.999919
0.9999082
0.999834
0.9993584
0.9959428
0.9637477
0.9374029
0.963585
0.9916999
0.9983676
0.998582
0.9991922
0.9997597
0.9999663
0.9999915
0.9999915
0.9999915
0.9999906
0.9999857
0.9999768
0.9999739
0.9999715
0.9999277
0.9996505
0.9979735
0.9896349
0.9791455
0.9865813
0.9974748
0.9992958
0.9943429
0.978078
0.9770345
0.9892642
0.9947538
0.993433
0.9873093
0.9869913
0.9928854
0.9985986
0.9999133
0.9999989
1
1
1
0.9999999
0.9999977
0.9999539
0.9992459
0.9982444
0.9992443
0.9998775
0.9999942
0.999999
0.999999
0.9999988
0.999996
0.9999767
0.9999233
0.9998842
0.9993617
0.9954022
0.9943682
0.9956786
0.9989147
0.9999157
0.9999673
0.9999671
0.9999612
0.9999101
0.9993482
0.9963244
0.9954113
0.9967868
0.9993033
0.9999275
0.9996277
0.9968809
0.992257
0.9943966
0.9984277
0.9998786
0.9999979
0.9999917
0.9998459
0.998865
0.9988598
0.9995375
0.9996125
0.9992688
0.9990237
0.9990237
0.9990237
0.9990452
0.9996331
0.9999116
0.9998966
0.9996082
0.9992426
0.9993967
0.9997981
0.9999574
0.9999596
0.9999589
0.9999521
0.9998143
0.9967583
0.9887276
0.9885599
0.993778
0.9989192
0.9999438
0.9999985
0.9999992
0.9999992
0.9999992
0.9999992
0.9999986
0.999982
0.9996187
0.9925655
0.978368
0.9820139
0.9936012
0.9992179
0.9999733
0.9999967
0.999995
0.999981
0.9999024
0.999519
0.9988424
0.9991821
0.9996279
0.9998895
0.9999861
0.9999985
0.9999985
0.9999896
0.9997878
0.9962648
0.9835111
0.9830214
0.9920857
0.9992108
0.9987899
0.9885152
0.9790622
0.9899102
0.9984033
0.99993
0.9999985
0.9999992
0.999999
0.9999962