/*--------------------------------*- C++ -*----------------------------------*\
| =========                 |                                                 |
| \\      /  F ield         | foam-extend: Open Source CFD                    |
|  \\    /   O peration     | Version:     3.1                                |
|   \\  /    A nd           | Web:         http://www.extend-project.de       |
|    \\/     M anipulation  |                                                 |
\*---------------------------------------------------------------------------*/
FoamFile
{
    version     2.0;
    format      ascii;
    class       volScalarField;
    location    "19";
    object      k;
}
// * * * * * * * * * * * * * * * * * * * * * * * * * * * * * * * * * * * * * //

dimensions      [0 2 -2 0 0 0 0];

internalField   nonuniform List<scalar> 
119952
(
0.05818232
0.05451907
0.05265882
0.05024739
0.04757017
0.04487041
0.04252347
0.04022852
0.03805875
0.03619767
0.03474838
0.03361695
0.03260125
0.0315452
0.03046596
0.02956872
0.02907924
0.02905575
0.02941505
0.0300494
0.03286057
0.03164167
0.03162265
0.03328618
0.03145678
0.03049998
0.02974726
0.02912543
0.02797781
0.01074629
0.08174585
0.08030814
0.07830887
0.07663586
0.07541071
0.07453995
0.07385441
0.0731691
0.0723729
0.07148903
0.0666767
0.06519887
0.06542878
0.06636916
0.06752598
0.06866187
0.06969799
0.07063043
0.07144888
0.07781533
0.07837847
0.07880876
0.07922274
0.07984719
0.08087044
0.08242382
0.08453332
0.08716239
0.09016753
0.0935948
0.09707694
0.1004573
0.1035484
0.1061494
0.1081541
0.1095678
0.1104944
0.1112943
0.1128493
0.1119182
0.1108027
0.1097047
0.1081416
0.1055369
0.1021447
0.09827521
0.09421456
0.09026391
0.08660928
0.0832895
0.08024108
0.07740173
0.0747871
0.07248807
0.07059543
0.06913742
0.06805731
0.06724234
0.06666737
0.06617184
0.06553149
0.06498633
0.06482827
0.06440725
0.06376243
0.06316082
0.06241785
0.06043783
0.0587468
0.0573659
0.05621
0.0552503
0.05444656
0.05378166
0.05324208
0.0528144
0.05247155
0.05218323
0.05191136
0.05160757
0.05122022
0.05070681
0.0500469
0.04924198
0.0483265
0.04736171
0.04641545
0.04553894
0.04475189
0.04404448
0.04339106
0.04276477
0.04214611
0.04152549
0.04090352
0.04028794
0.03968615
0.03910372
0.03854493
0.03801233
0.03750697
0.03702885
0.03657722
0.036151
0.03574898
0.03537004
0.03501323
0.03467808
0.03436476
0.03407347
0.03380445
0.03355733
0.03333158
0.03312487
0.03293452
0.03275641
0.03259062
0.03245412
0.03236004
0.03227329
0.03218306
0.03207573
0.031946
0.03179094
0.03161087
0.03140451
0.03117213
0.03091707
0.03064342
0.03035487
0.03005491
0.02974707
0.02943496
0.02912211
0.02881181
0.02850693
0.02820994
0.02792288
0.0276475
0.02738532
0.02713775
0.02690598
0.02669101
0.02649382
0.02631524
0.02615618
0.02601685
0.02589555
0.0257946
0.02571352
0.02565156
0.02560772
0.02557884
0.02556056
0.02554678
0.02552953
0.02549982
0.02544848
0.02536772
0.0252532
0.02510492
0.02492745
0.02472935
0.0245213
0.02431462
0.02411927
0.02395064
0.02396639
0.0240905
0.02406142
0.02394419
0.02372354
0.02345454
0.02316241
0.02286908
0.02258256
0.02230542
0.02203746
0.02177745
0.02152398
0.0212775
0.02103909
0.02081046
0.02059298
0.02038723
0.0201926
0.02000777
0.01983177
0.01966491
0.01950833
0.01936302
0.01922935
0.01910759
0.01899866
0.0189047
0.01882957
0.01877745
0.01874698
0.01874414
0.01876762
0.01881068
0.01886898
0.01887009
0.01902106
0.01919982
0.0193678
0.01951626
0.01964263
0.01974583
0.01982641
0.01988532
0.01992422
0.01994477
0.01994877
0.01993789
0.01991342
0.01987629
0.01982722
0.01976704
0.01969693
0.01961849
0.01953381
0.01944517
0.01935487
0.01925688
0.01915144
0.0190442
0.01893956
0.01884082
0.01874963
0.01866665
0.01859169
0.01852352
0.01845998
0.01839812
0.01833369
0.01826544
0.01834301
0.01834828
0.01828701
0.01816715
0.01803037
0.01788944
0.01775759
0.01764165
0.017541
0.01745425
0.01737897
0.0173109
0.01724804
0.01718816
0.01712965
0.0170712
0.0170117
0.01695021
0.01688631
0.01681959
0.01674999
0.01667712
0.01660273
0.01652791
0.01645408
0.01638259
0.01631459
0.01625111
0.0161928
0.01613921
0.0160897
0.01604373
0.0160007
0.01596011
0.01592138
0.01588388
0.01584681
0.01580912
0.01576976
0.01572744
0.01568073
0.01562968
0.01557558
0.01551991
0.01546531
0.01541594
0.0153623
0.01530637
0.01524973
0.01519083
0.01512952
0.01506564
0.0149996
0.01494497
0.01493083
0.01484064
0.0147505
0.01465798
0.01456271
0.0144644
0.01436308
0.01425932
0.01415452
0.0140507
0.01394989
0.01385358
0.01376268
0.0136784
0.01360191
0.0135351
0.01347977
0.01343706
0.01340703
0.01338859
0.0133797
0.01337797
0.01338137
0.01338874
0.01339971
0.01341404
0.01343096
0.01344911
0.01346694
0.01348321
0.01349726
0.01350898
0.01351841
0.01352537
0.01352926
0.01352926
0.01352458
0.01351462
0.01349934
0.01347861
0.01345242
0.01342103
0.0133845
0.0133427
0.0132956
0.01324336
0.01318652
0.01312593
0.01306264
0.01299677
0.01292768
0.01285507
0.01277904
0.01270006
0.01261898
0.0125369
0.01245512
0.01237505
0.01229811
0.01222559
0.01215854
0.01209734
0.01204219
0.01199331
0.01195101
0.01191568
0.01188772
0.01186704
0.01185369
0.01184793
0.01185064
0.01186305
0.01188671
0.01192306
0.01197299
0.01203705
0.01211437
0.01220295
0.01229988
0.01240076
0.01249902
0.01257893
0.01261167
0.01256868
0.01277628
0.1031274
0.09686637
0.09524433
0.09599484
0.09782399
0.100008
0.1021999
0.1042355
0.1060436
0.1051673
0.1065233
0.1103686
0.1149558
0.1195452
0.1238454
0.1276845
0.1309193
0.1334814
0.1519583
0.1521767
0.1523414
0.1522494
0.152213
0.1523659
0.1527565
0.1532284
0.1538576
0.1546354
0.1557906
0.1570732
0.1583338
0.159805
0.1616488
0.163852
0.1661344
0.1680387
0.1691214
0.1693412
0.168731
0.1673753
0.165704
0.1639687
0.1621729
0.1602243
0.1580172
0.1555204
0.1528348
0.1500647
0.1472974
0.1446297
0.1419755
0.1392545
0.1364411
0.133583
0.1308352
0.1282946
0.1374705
0.1357071
0.1346355
0.1343329
0.1348643
0.1362876
0.1386109
0.1417703
0.1456502
0.1500824
0.1548332
0.1595602
0.1638127
0.1671823
0.1695073
0.1708665
0.1714988
0.1716697
0.1716174
0.1713267
0.1706691
0.1697608
0.1682397
0.1659336
0.1628239
0.1590037
0.1545922
0.1497585
0.1446963
0.1395785
0.1345361
0.1296611
0.1250211
0.1206603
0.1165942
0.1128105
0.1092826
0.1059881
0.1029246
0.1001036
0.09752054
0.09522095
0.09323427
0.09142252
0.08971289
0.08810086
0.08654763
0.08495006
0.08346336
0.08226865
0.08129602
0.08050537
0.07988549
0.07943017
0.0791329
0.07897984
0.07894669
0.07899756
0.0790851
0.07914896
0.07912479
0.07895291
0.07858282
0.07797731
0.07711968
0.07601634
0.07469384
0.07319396
0.07156757
0.0698693
0.06815315
0.06646838
0.06485591
0.06334616
0.06195905
0.06070453
0.05958192
0.05858328
0.05769799
0.05691467
0.05622216
0.05561004
0.05506887
0.05459025
0.05416693
0.05379269
0.0534624
0.0531721
0.0529191
0.05270128
0.05251668
0.05236306
0.05223765
0.0521372
0.05205811
0.05199652
0.05194788
0.05190755
0.05186663
0.05181608
0.0517497
0.05166097
0.05154333
0.05139163
0.0512019
0.05097154
0.05069962
0.05038638
0.050033
0.04964142
0.04921442
0.04875563
0.04826953
0.04776137
0.04723701
0.04670293
0.04616601
0.04563349
0.04511275
0.04461114
0.04413574
0.04369323
0.04328966
0.04293033
0.04261966
0.04236107
0.04215681
0.04200792
0.0419141
0.04187366
0.04188311
0.04193686
0.04202656
0.04214155
0.04226884
0.04239331
0.04249891
0.0425703
0.04259498
0.04256513
0.04247795
0.04233529
0.04214233
0.04190729
0.0416397
0.04135094
0.04105161
0.04075932
0.03962012
0.03827558
0.03734423
0.03666159
0.03613128
0.03569473
0.03531429
0.03496382
0.03462414
0.0342802
0.03392028
0.03353592
0.03312212
0.03267755
0.03220478
0.03170994
0.03120214
0.03069197
0.03019003
0.02970592
0.02924793
0.0288233
0.0284386
0.02809989
0.02781229
0.02757887
0.02739959
0.02727069
0.02718479
0.02713204
0.02710053
0.02707862
0.02705626
0.02702653
0.02699026
0.02695066
0.02690378
0.02684291
0.02676153
0.02665991
0.026541
0.02640902
0.02626853
0.02612372
0.02597817
0.02583489
0.02569627
0.02556389
0.0254387
0.02532143
0.02521279
0.02511381
0.02502571
0.02494973
0.02488684
0.02483754
0.02480183
0.02477929
0.02476911
0.02477019
0.02478141
0.02480157
0.0248291
0.02486173
0.02489653
0.02493035
0.02496089
0.02498793
0.02501351
0.02504085
0.02723882
0.02727
0.02730273
0.02733282
0.02735438
0.02736133
0.0273488
0.02731336
0.02725265
0.02716524
0.0270512
0.02691308
0.02675325
0.02657322
0.02637558
0.02616361
0.02594095
0.02571137
0.02547862
0.0252463
0.02501776
0.02479595
0.02458354
0.02438306
0.02419722
0.02402894
0.02387763
0.02374145
0.02361836
0.02350594
0.02340155
0.02330274
0.02320733
0.02311343
0.02301931
0.02292331
0.0228239
0.02271979
0.02261022
0.02249531
0.02237622
0.02225487
0.02213332
0.02201291
0.02189405
0.021776
0.02165782
0.02153931
0.02142075
0.02130239
0.02118557
0.02107124
0.02096187
0.02085902
0.02076048
0.02066569
0.02057486
0.02048551
0.02039543
0.0203033
0.02020885
0.02011279
0.02001645
0.01992134
0.01982888
0.01974061
0.01965831
0.01958387
0.01951822
0.01946183
0.01941601
0.01938074
0.01935465
0.01933564
0.0193214
0.01931013
0.0193009
0.01929347
0.01928758
0.01928247
0.01927685
0.0192693
0.01925875
0.01924457
0.01922649
0.01920428
0.01917746
0.01914525
0.01910671
0.01906097
0.01900737
0.01894548
0.01887495
0.01879532
0.01870605
0.01860651
0.01849613
0.01837474
0.01824282
0.01810135
0.01794983
0.01778877
0.01761968
0.01744444
0.01726524
0.01708439
0.01690407
0.01672617
0.01655216
0.01638303
0.01621932
0.01606109
0.01590804
0.01575951
0.01561457
0.01547213
0.01533096
0.0151898
0.01504739
0.01490265
0.01475459
0.01460259
0.01444624
0.01428573
0.01412134
0.01395393
0.01378436
0.01361416
0.01344513
0.01327941
0.01311957
0.01296909
0.01282988
0.0127049
0.0125937
0.01249985
0.01242845
0.01239902
0.01240912
0.07239905
0.08146071
0.09178654
0.1029998
0.113359
0.1235181
0.1338037
0.1439517
0.1540801
0.1696225
0.2541792
0.2860913
0.3015555
0.3122316
0.3204357
0.3269719
0.3323138
0.3368347
0.3404962
0.3863938
0.3876797
0.3873524
0.3859163
0.3832953
0.3794532
0.3747599
0.3698284
0.365182
0.3610092
0.3571593
0.3530165
0.3485182
0.3436709
0.3384907
0.3330012
0.3273193
0.3217636
0.3168335
0.3124024
0.3088761
0.3060425
0.3034977
0.3008676
0.2980757
0.2952706
0.2926156
0.2901069
0.287573
0.284572
0.280984
0.2769472
0.2727868
0.2688191
0.2651485
0.2616808
0.2582835
0.2731162
0.2696231
0.2663688
0.263373
0.2606649
0.2582458
0.2560489
0.254027
0.252293
0.2510131
0.2502552
0.2500685
0.2506283
0.2521585
0.2545744
0.2573301
0.2595202
0.2603135
0.2593486
0.2568145
0.253273
0.249365
0.2454867
0.2417436
0.2380586
0.2344234
0.2308197
0.2271914
0.2234598
0.2196729
0.2158587
0.2120238
0.2081533
0.2042432
0.2003235
0.1964556
0.1927061
0.1891378
0.1857154
0.1829743
0.1811402
0.1803632
0.1807954
0.1825439
0.1856019
0.1898396
0.1950119
0.2008726
0.2070613
0.2129926
0.2178819
0.2211115
0.222592
0.2226884
0.2219348
0.2209014
0.2201085
0.2189865
0.217594
0.2159099
0.2135909
0.2104049
0.2063296
0.2014792
0.1960174
0.1901343
0.18401
0.177839
0.1717932
0.1659882
0.1604871
0.1553074
0.1504284
0.1458039
0.141383
0.137135
0.1330642
0.1291945
0.125542
0.1221556
0.1190507
0.1161672
0.1134738
0.1109884
0.1087017
0.1066094
0.1048033
0.1033485
0.1021987
0.1013205
0.1007015
0.1003276
0.1001777
0.1002172
0.1003952
0.100648
0.1009033
0.1010803
0.1010979
0.1008959
0.1004327
0.09967334
0.09860457
0.09724207
0.0956191
0.09378029
0.0917782
0.08967078
0.08751831
0.08537922
0.08330561
0.08133992
0.07951337
0.07784523
0.07634279
0.07500433
0.0738224
0.07278601
0.07188219
0.07109734
0.07041813
0.06983221
0.06932864
0.06889819
0.0685334
0.06822846
0.06797862
0.06777928
0.06762551
0.06751185
0.06743263
0.06738229
0.06735535
0.06734602
0.06734759
0.06735168
0.06734766
0.0673239
0.06727125
0.0671824
0.06704944
0.0668666
0.06663114
0.06634235
0.06600076
0.0656073
0.06516312
0.06466994
0.06413057
0.0635493
0.06293185
0.06228514
0.06161722
0.06093728
0.06025542
0.05958213
0.05892782
0.05830233
0.05771465
0.05717263
0.056683
0.0562513
0.05588181
0.05557772
0.05534107
0.05517277
0.05507222
0.05503665
0.05506019
0.05513334
0.05524296
0.05537312
0.05550545
0.05561981
0.05569618
0.0557187
0.05567975
0.05558144
0.05543235
0.05524488
0.05503144
0.054804
0.05456895
0.05433028
0.05408408
0.05382328
0.05348547
0.05318766
0.05290383
0.05261517
0.05230934
0.05197853
0.05161765
0.05122269
0.05078942
0.05031391
0.04979414
0.04923116
0.04862966
0.04799777
0.0473458
0.04668384
0.04602049
0.04536329
0.04472023
0.04410102
0.04351715
0.04298048
0.04250078
0.04208377
0.04173049
0.04143811
0.04120093
0.04101118
0.04085958
0.04073613
0.0406313
0.04053707
0.04044838
0.04036753
0.04028265
0.04018511
0.04006794
0.03992862
0.03976819
0.03958908
0.03939421
0.03918651
0.03896864
0.03874317
0.03851269
0.03827982
0.0380471
0.03781704
0.03759225
0.03737543
0.03716916
0.03697571
0.03679677
0.03663324
0.03648527
0.03635251
0.03623437
0.03613037
0.03604035
0.03596426
0.03590166
0.03585118
0.03581065
0.03577763
0.03575069
0.03573031
0.03571707
0.03571174
0.03571333
0.03572305
0.03571861
0.03571503
0.0357092
0.03569463
0.03566429
0.03561383
0.03554095
0.03544331
0.03531844
0.03516458
0.03498104
0.03476743
0.03452686
0.03426572
0.03399048
0.03370693
0.03341979
0.03313276
0.03284879
0.03257039
0.03229972
0.03203844
0.03178758
0.03154717
0.03131596
0.03109152
0.03087467
0.03066715
0.0304707
0.03028392
0.03010427
0.02992986
0.02975917
0.02959076
0.0294231
0.02925459
0.02908367
0.02890917
0.02873071
0.02854924
0.02836695
0.02818635
0.02800915
0.02783555
0.02766474
0.02749557
0.02732753
0.0271611
0.02699816
0.02684002
0.02668753
0.02654111
0.02640142
0.02626755
0.02613742
0.02600922
0.02588218
0.02575462
0.02562509
0.02549344
0.02536058
0.02522805
0.02509737
0.02496979
0.02484701
0.02473105
0.02462396
0.02452754
0.02444313
0.02437069
0.02430774
0.02425206
0.0242027
0.02415903
0.02411881
0.02408101
0.02404575
0.02401335
0.02398329
0.023954
0.02392352
0.02389033
0.02385356
0.02381293
0.02376828
0.02371915
0.02366464
0.02360358
0.02353499
0.02345825
0.02337313
0.02327945
0.02317676
0.02306424
0.02294081
0.02280534
0.02265692
0.02249527
0.02232054
0.02213196
0.02193063
0.02171853
0.02149847
0.02127385
0.02104816
0.02082442
0.02060487
0.02039098
0.02018347
0.01998249
0.01978773
0.01959853
0.01941396
0.01923293
0.01905414
0.01887623
0.01869771
0.01851714
0.01833309
0.01814442
0.01795019
0.01774981
0.01754268
0.01732862
0.01710722
0.01687845
0.01664225
0.01639932
0.01615046
0.01589705
0.01564074
0.01538367
0.01512776
0.01487505
0.01462723
0.01438747
0.01415739
0.01393976
0.01374715
0.052578
0.06196741
0.07075541
0.1155245
0.1577434
0.2113239
0.2445581
0.2772085
0.3074135
0.3364619
0.3630073
0.3862297
0.4067502
0.4253417
0.4426882
0.4591218
0.4741357
0.4873785
0.4990866
0.5087459
0.516826
0.5243806
0.5323921
0.5402843
0.5479194
0.5549142
0.5608599
0.5654456
0.5685369
0.5700595
0.5693855
0.5882577
0.5851104
0.5806218
0.5745443
0.5664967
0.55654
0.545329
0.5338226
0.5228917
0.5130383
0.5043759
0.4966719
0.489441
0.4822386
0.4747161
0.4666485
0.4580606
0.4493666
0.4412841
0.4345515
0.4294363
0.4253432
0.42148
0.4173842
0.4130144
0.4085985
0.404325
0.4001082
0.3956426
0.3906035
0.3848997
0.3787685
0.3726024
0.3666645
0.3610022
0.355513
0.3502324
0.3449584
0.3399479
0.3352396
0.330903
0.3270373
0.3236564
0.3206641
0.3180779
0.3161411
0.315066
0.3148781
0.3156929
0.3179562
0.322086
0.3276954
0.3333762
0.3372558
0.3379542
0.3352167
0.3298417
0.3231226
0.316236
0.3098728
0.304039
0.298424
0.2927965
0.2871004
0.2813962
0.2757741
0.2703054
0.2650382
0.2599921
0.2551432
0.2504624
0.2459454
0.2416421
0.2376196
0.2339988
0.2308516
0.2282338
0.2267505
0.2266959
0.2283213
0.2317387
0.2368478
0.243426
0.2511639
0.2597148
0.2685674
0.2767163
0.2827132
0.2855452
0.2853789
0.2832147
0.2801667
0.2773983
0.2747687
0.2723111
0.2699012
0.2672286
0.2638066
0.2592893
0.2536264
0.2469971
0.2396902
0.2320284
0.2242973
0.2167301
0.2094912
0.2026582
0.1962412
0.1902082
0.1844965
0.1790295
0.1737339
0.1685786
0.1635845
0.1587925
0.154246
0.1499851
0.1460292
0.1423561
0.1389559
0.1358482
0.1330481
0.1305597
0.128428
0.1266872
0.1253219
0.1243172
0.1236653
0.1233436
0.1233065
0.1234835
0.1237825
0.1241018
0.1243415
0.1244083
0.1242208
0.1237278
0.1229102
0.1217537
0.1202574
0.1184558
0.1164007
0.1141446
0.1117428
0.1092536
0.1067363
0.1042483
0.1018419
0.09955947
0.0974313
0.09547546
0.09370091
0.09210849
0.0906925
0.08944295
0.08834717
0.08739118
0.08656077
0.08584257
0.08522499
0.08469898
0.08425794
0.08389654
0.08360873
0.08338681
0.08322154
0.08310312
0.08302265
0.082973
0.08294834
0.08294237
0.08294622
0.08294786
0.08293314
0.08288809
0.08280153
0.08266401
0.08246705
0.08220597
0.08188068
0.08149363
0.08104735
0.08054307
0.07998111
0.07936194
0.0786879
0.07796397
0.07719754
0.07639776
0.07557551
0.07474365
0.07391649
0.07310855
0.07233328
0.07160231
0.0709251
0.070309
0.06975967
0.06928109
0.06887574
0.06854531
0.06829105
0.06811355
0.06801178
0.06798134
0.06801298
0.06809192
0.06819889
0.06831231
0.0684091
0.06846502
0.06845739
0.0683723
0.06821192
0.06799472
0.06774658
0.06749288
0.06725354
0.06703947
0.06684746
0.06666553
0.06647889
0.06627641
0.0660472
0.0657862
0.06549361
0.06516696
0.06479953
0.06438511
0.06392097
0.06340622
0.06283886
0.06221617
0.0615381
0.0608095
0.0600413
0.05925003
0.05845344
0.05766442
0.05688884
0.05612909
0.05538932
0.05467886
0.05401243
0.05340673
0.05287434
0.05241893
0.0520353
0.05171333
0.0514414
0.05120812
0.05100273
0.05081572
0.05063986
0.05047071
0.05030721
0.05014581
0.04997596
0.04979309
0.04959363
0.04937697
0.0491455
0.04890226
0.04864935
0.04838774
0.04811784
0.04784023
0.04755599
0.04726693
0.0469756
0.04668534
0.04640011
0.04612395
0.04586041
0.04561213
0.04538039
0.04516503
0.04496497
0.04477877
0.04460544
0.0444451
0.04429925
0.04416969
0.04405679
0.04395661
0.04386461
0.04377685
0.04369126
0.04360938
0.04353781
0.04348352
0.04344885
0.04343035
0.04341684
0.04339777
0.0433664
0.04331843
0.04324902
0.04315283
0.04302553
0.04286397
0.04266603
0.04243127
0.04216187
0.04186336
0.04154427
0.04121414
0.04088128
0.04055141
0.0402273
0.03990964
0.03959833
0.03929357
0.03899615
0.03870705
0.03842673
0.03815456
0.03788881
0.03762746
0.03736884
0.03711124
0.03685246
0.03659428
0.03634022
0.03609049
0.03584497
0.0356031
0.03536368
0.03512512
0.03488574
0.03464423
0.03440051
0.03415638
0.03391538
0.03368095
0.03345404
0.03323282
0.03301461
0.03279783
0.03258276
0.0323715
0.03216604
0.03196839
0.03177996
0.03160103
0.03143169
0.03127076
0.03111621
0.03096485
0.03081034
0.03065099
0.03048654
0.03031821
0.03014863
0.02998063
0.02981584
0.02965386
0.0294949
0.02934251
0.02920249
0.0290793
0.02897394
0.02888402
0.02880541
0.02873362
0.02866414
0.02859408
0.02852489
0.02845727
0.02839304
0.0283334
0.02827733
0.02822202
0.02816477
0.02810414
0.02803969
0.02797145
0.02789926
0.02782228
0.02773901
0.02764795
0.02754836
0.0274404
0.02732464
0.02720123
0.02706934
0.02692742
0.02677363
0.02660618
0.02642373
0.02622573
0.02601141
0.02578149
0.02553788
0.0252839
0.02502424
0.0247642
0.0245085
0.0242603
0.02402097
0.02379052
0.02356811
0.02335251
0.02314228
0.02293597
0.02273219
0.02252966
0.02232714
0.02212343
0.02191727
0.02170743
0.02149272
0.02127217
0.0210452
0.02081165
0.02057135
0.02032381
0.02006813
0.01980367
0.01953014
0.0192481
0.01895844
0.01866271
0.01836224
0.01805872
0.01775291
0.017446
0.01713916
0.01683211
0.0165242
0.01621705
0.0159281
0.02759291
0.03120932
0.03482992
0.04805684
0.06471714
0.09327952
0.1126681
0.1327104
0.1537002
0.1747085
0.1961669
0.2192015
0.2436634
0.268352
0.2934786
0.3209028
0.3632956
0.3831796
0.4028348
0.4209269
0.4384439
0.4558114
0.4711846
0.483606
0.4937111
0.5015379
0.5076418
0.5116784
0.5150325
0.5187704
0.5236474
0.5302046
0.5388222
0.5496574
0.562582
0.577203
0.5925068
0.6070327
0.619173
0.6278826
0.6334874
0.6356394
0.6356685
0.6359883
0.6361659
0.6349158
0.6309457
0.6237199
0.61386
0.6027366
0.591802
0.5821255
0.5741724
0.5677552
0.5622347
0.5568664
0.5509467
0.5439612
0.5358407
0.5273179
0.5198081
0.5145636
0.5114912
0.5091925
0.5064215
0.5027327
0.4983805
0.4938885
0.4895524
0.4851219
0.4800277
0.4737815
0.4664554
0.4586954
0.4510941
0.4439081
0.4370815
0.4305575
0.4242821
0.4182481
0.4125625
0.4073372
0.4026004
0.3984061
0.3949333
0.3919722
0.3898081
0.3890828
0.3899871
0.392258
0.3962012
0.4029246
0.4130866
0.4253652
0.4363993
0.4426988
0.4423167
0.4355055
0.4242646
0.4113874
0.3995045
0.3893312
0.3799183
0.3707131
0.3614585
0.3522044
0.3431846
0.3346164
0.3266061
0.3192147
0.3124882
0.306388
0.300795
0.2956021
0.2908054
0.2864905
0.282819
0.2799537
0.2780584
0.2774727
0.2790309
0.2831575
0.2898413
0.2986812
0.3092652
0.3211657
0.3338623
0.3467262
0.3581117
0.3654369
0.3670814
0.3637663
0.3578613
0.3516161
0.3456433
0.3403086
0.335946
0.3322077
0.328257
0.3231763
0.3164244
0.3079973
0.2982849
0.2878538
0.2772652
0.266992
0.257323
0.2483678
0.240106
0.232448
0.2252891
0.2185193
0.2120354
0.205761
0.1996682
0.1937832
0.1881595
0.1828524
0.1779044
0.1733281
0.1691049
0.1652259
0.1617163
0.158598
0.1558602
0.1534975
0.151522
0.1499621
0.1488548
0.1482128
0.1479915
0.1480964
0.1483968
0.1487414
0.1489872
0.1490176
0.1487406
0.1480928
0.1470522
0.1456394
0.1438712
0.1417615
0.1393693
0.1367698
0.1340217
0.131181
0.1283046
0.1254456
0.1226502
0.1199719
0.117449
0.1151055
0.1129533
0.1109966
0.1092328
0.1076547
0.1062518
0.105011
0.1039177
0.1029571
0.1021157
0.101383
0.1007531
0.1002239
0.09979324
0.09945476
0.09919588
0.09900014
0.09885152
0.09873825
0.09865434
0.09859737
0.09856279
0.09853916
0.09850865
0.09845131
0.098349
0.09818882
0.09796145
0.09765856
0.09727692
0.09682039
0.09629651
0.09571091
0.09506489
0.09435687
0.09358389
0.09274786
0.0918549
0.09091481
0.08994011
0.08894573
0.08794964
0.08697224
0.08603331
0.08514923
0.08433217
0.0835902
0.0829279
0.08234795
0.08185092
0.08143585
0.08110214
0.08085013
0.08068024
0.08059103
0.08057596
0.08062061
0.08070244
0.08079402
0.08086832
0.08089892
0.08085945
0.08072618
0.08048892
0.08016346
0.0797911
0.07942176
0.079096
0.07883828
0.07865228
0.07851642
0.07839619
0.07826295
0.07810014
0.07789723
0.07764645
0.07734612
0.07699269
0.0765768
0.07609001
0.07553094
0.07490326
0.07420816
0.07344568
0.07261929
0.07173732
0.07081795
0.06988902
0.06897757
0.06809633
0.06724214
0.0664069
0.06558971
0.06480179
0.06406467
0.06340249
0.0628302
0.06234567
0.06193274
0.06157157
0.0612459
0.06094376
0.0606557
0.0603746
0.06009702
0.059823
0.05955519
0.05928524
0.05900956
0.05872651
0.05843553
0.05813763
0.05783533
0.05753054
0.05722287
0.05691016
0.05658996
0.05626056
0.05592147
0.05557389
0.05522123
0.05486903
0.05452381
0.05419148
0.05387656
0.05358169
0.05330687
0.05304968
0.0528066
0.05257437
0.05235133
0.05213893
0.05194169
0.05176119
0.05159514
0.05144124
0.05129478
0.05115088
0.05100803
0.05087149
0.05075333
0.05066558
0.05060942
0.05057262
0.05053854
0.05049565
0.05043702
0.05035586
0.05024414
0.05009449
0.04990208
0.04966447
0.04938113
0.04905431
0.04869081
0.04830251
0.04790456
0.04751167
0.04713414
0.04677565
0.04643384
0.04610328
0.04577885
0.04545789
0.04514044
0.04482775
0.04452059
0.04421782
0.04391638
0.04361271
0.04330441
0.04299017
0.04266947
0.04234332
0.04201473
0.04169026
0.04137261
0.04106203
0.04075731
0.04045648
0.04015716
0.03985726
0.03955628
0.03925645
0.03896301
0.0386811
0.03841092
0.03814662
0.03788283
0.03761747
0.03735209
0.03709166
0.0368426
0.03660922
0.03639227
0.03619053
0.03600274
0.03582634
0.03565547
0.03548211
0.03529998
0.03510752
0.03490687
0.03470148
0.03449581
0.03429415
0.03409564
0.03389772
0.03370112
0.03351191
0.03333993
0.03319229
0.03306866
0.032963
0.03286774
0.03277653
0.03268494
0.03259045
0.03249284
0.03239627
0.03230446
0.03221933
0.032139
0.03205915
0.03197644
0.03188975
0.031799
0.03170421
0.03160496
0.03149982
0.03138662
0.0312639
0.03113195
0.03099236
0.03084709
0.0306964
0.03053844
0.03037039
0.03018936
0.02999286
0.0297791
0.02954686
0.02929597
0.02902792
0.0287457
0.02845449
0.02816155
0.02787466
0.02759986
0.02733979
0.02709382
0.02685943
0.02663354
0.02641323
0.02619598
0.02597969
0.02576276
0.02554399
0.02532251
0.02509757
0.02486839
0.02463422
0.02439419
0.02414751
0.02389387
0.02363368
0.02336736
0.02309432
0.02281277
0.02252141
0.02221984
0.02190911
0.02159124
0.02126867
0.02094325
0.02061651
0.02028901
0.01996108
0.01963031
0.01929562
0.01895388
0.01860791
0.01827931
0.01280908
0.01476153
0.01633449
0.02439717
0.03368378
0.04593033
0.055755
0.06670846
0.07834146
0.09058685
0.1037215
0.1190179
0.1354757
0.1534822
0.1745246
0.2066793
0.2240344
0.2421848
0.2606344
0.2793454
0.2982876
0.317427
0.3365163
0.3553642
0.3737803
0.3911035
0.4066997
0.421914
0.4350726
0.4466274
0.4570535
0.4661709
0.4729614
0.4767332
0.4774036
0.4759503
0.4736172
0.4716387
0.4714824
0.4742472
0.4805952
0.4907619
0.504765
0.5226768
0.5445164
0.570033
0.5974694
0.6241098
0.6460512
0.6609738
0.6701551
0.6762599
0.6822024
0.6898266
0.6983851
0.7053832
0.7080184
0.7047502
0.6963102
0.6850242
0.6737063
0.6646645
0.6590134
0.656456
0.6557762
0.6555005
0.6539664
0.6496905
0.6426874
0.6350598
0.6302702
0.6303402
0.6333099
0.6351801
0.6340733
0.6301399
0.6247996
0.6194632
0.6146653
0.6094685
0.6023946
0.5927711
0.5815904
0.5711151
0.5613932
0.552201
0.5435476
0.5355084
0.5280449
0.5208691
0.5140231
0.5079768
0.5032118
0.4992991
0.495488
0.4924691
0.4914072
0.4936335
0.4986808
0.5052883
0.5145036
0.5287791
0.5485441
0.5699591
0.5863909
0.5930565
0.5881839
0.5730351
0.5512877
0.5280961
0.5082672
0.4917421
0.4768096
0.4622799
0.4478359
0.433455
0.4195044
0.4064967
0.3947325
0.3843398
0.3753704
0.3676871
0.3609533
0.3548581
0.3493361
0.3445717
0.340867
0.3384903
0.3376733
0.3387815
0.3431941
0.3517721
0.3639785
0.3785432
0.3946179
0.4114094
0.428456
0.4454613
0.4601325
0.4681966
0.4675346
0.4596208
0.4491725
0.4392681
0.4292167
0.4198658
0.4128793
0.4080496
0.4029194
0.3952551
0.384446
0.3711277
0.3563575
0.3412097
0.3265311
0.3128508
0.3004074
0.2891969
0.279042
0.2697331
0.2611099
0.2530335
0.245368
0.2380277
0.2309826
0.2242413
0.2178532
0.2118817
0.2063778
0.2013412
0.1967211
0.1924926
0.1887048
0.1853998
0.1825187
0.1799764
0.1777712
0.1760068
0.174828
0.1742884
0.1742852
0.1746276
0.1750891
0.1754261
0.175453
0.1750698
0.1742153
0.172861
0.1710327
0.1688077
0.1662395
0.1633478
0.1602143
0.1569375
0.1535774
0.1501894
0.1468352
0.1435777
0.140466
0.13754
0.1348228
0.1323221
0.1300359
0.1279575
0.1260792
0.1243916
0.1228828
0.1215379
0.1203403
0.1192731
0.118322
0.1174788
0.1167444
0.1161265
0.1156308
0.1152497
0.1149598
0.1147309
0.1145374
0.1143663
0.1142186
0.1141021
0.1140177
0.1139489
0.1138668
0.1137436
0.1135599
0.1133035
0.1129635
0.1125282
0.1119934
0.1113677
0.1106667
0.1099014
0.1090742
0.1081837
0.1072268
0.1062035
0.1051191
0.1039848
0.1028168
0.1016358
0.100467
0.09933941
0.09828028
0.09730827
0.09643332
0.0956587
0.09498336
0.09440562
0.09392058
0.09352234
0.09320783
0.09297723
0.09283139
0.09276803
0.09277721
0.09283755
0.09291621
0.09297539
0.09298372
0.09291613
0.09274691
0.0924538
0.09203276
0.09151571
0.0909703
0.09047519
0.09008867
0.08983679
0.08970804
0.08964944
0.08959553
0.08950435
0.08936097
0.08916093
0.08890116
0.08857968
0.08818924
0.08771549
0.08714672
0.08648244
0.08573254
0.08490444
0.08400062
0.08302861
0.08200001
0.08093904
0.07988541
0.0788791
0.07792963
0.07701663
0.07611674
0.0752261
0.07436255
0.073557
0.07284111
0.07222969
0.0717105
0.07125405
0.07083338
0.07043226
0.07004137
0.06965373
0.06926457
0.06887426
0.06848733
0.06810738
0.06772654
0.06734517
0.06696517
0.0665885
0.06621733
0.06585345
0.06549596
0.06514027
0.06478032
0.06441093
0.06402837
0.06363053
0.06321833
0.06279753
0.06237811
0.06197098
0.06158456
0.06122405
0.06089147
0.06058429
0.06029593
0.06001876
0.05974649
0.05947644
0.05921223
0.05896037
0.05872713
0.05851395
0.05831571
0.05812442
0.05793361
0.05774248
0.05756001
0.0574052
0.05729625
0.05723252
0.05719202
0.05714918
0.05708776
0.05699821
0.05687251
0.05670299
0.05648344
0.05620997
0.05588118
0.05549833
0.05506727
0.05460104
0.05411994
0.05364771
0.05320516
0.0528033
0.05243988
0.05210233
0.05177506
0.05144628
0.05111133
0.05077181
0.05043166
0.05009329
0.0497553
0.04941248
0.04905892
0.04869166
0.04831053
0.04791674
0.04751406
0.0471097
0.04671195
0.04632746
0.04595674
0.04559759
0.04524696
0.04490098
0.04455562
0.04420856
0.04386165
0.04352221
0.04319876
0.04288794
0.04257978
0.04226706
0.04194849
0.04162867
0.04131808
0.04102895
0.04076723
0.04053109
0.0403153
0.0401152
0.03992577
0.03973913
0.03954625
0.03934077
0.03912
0.03888662
0.03864679
0.03840779
0.0381756
0.0379468
0.03771473
0.03747892
0.0372488
0.03704136
0.03686806
0.03672625
0.03660444
0.03649076
0.03637747
0.03626095
0.03614013
0.03601615
0.03589315
0.03577713
0.03566993
0.03556832
0.03546707
0.03536237
0.03525329
0.03513951
0.03502045
0.03489506
0.03476125
0.03461636
0.03445982
0.034294
0.03412298
0.03395039
0.03377608
0.03359613
0.03340571
0.0332007
0.03297807
0.03273567
0.03247197
0.03218737
0.03188397
0.03156614
0.03124144
0.03092036
0.03061388
0.03032942
0.03006816
0.02982591
0.0295964
0.02937381
0.02915361
0.02893263
0.02870869
0.02848043
0.02824707
0.02800827
0.02776392
0.02751402
0.0272586
0.02699726
0.02672909
0.02645353
0.02617119
0.02588337
0.02558983
0.02528739
0.02497313
0.02464704
0.02431146
0.02396997
0.02362657
0.02328464
0.02294593
0.02260981
0.02227452
0.02193619
0.02159185
0.0212368
0.02087402
0.02053002
0.003416502
0.01266956
0.0186158
0.02551551
0.03298598
0.04134863
0.05074661
0.06083749
0.0719417
0.08505535
0.1044635
0.1161289
0.1286367
0.141646
0.1552255
0.1693227
0.1838681
0.1987322
0.2137694
0.2287846
0.243664
0.2602676
0.2771018
0.2940316
0.3109618
0.327839
0.3446052
0.3610575
0.3768914
0.3918566
0.4054372
0.4173503
0.4280906
0.4367749
0.4435415
0.4484347
0.451018
0.4503681
0.4468103
0.4411066
0.4344035
0.4283885
0.4249504
0.4259675
0.4328176
0.4460471
0.4652749
0.4898551
0.5195354
0.5546493
0.5956891
0.6410196
0.6874477
0.7277479
0.7563411
0.7738579
0.7858889
0.7987793
0.815756
0.8356142
0.8541823
0.8660242
0.8676725
0.8594891
0.8450854
0.8297419
0.8183201
0.8137321
0.8158006
0.8223866