/*--------------------------------*- C++ -*----------------------------------*\
| =========                 |                                                 |
| \\      /  F ield         | foam-extend: Open Source CFD                    |
|  \\    /   O peration     | Version:     3.1                                |
|   \\  /    A nd           | Web:         http://www.extend-project.de       |
|    \\/     M anipulation  |                                                 |
\*---------------------------------------------------------------------------*/
FoamFile
{
    version     2.0;
    format      ascii;
    class       volScalarField;
    location    "19";
    object      nut;
}
// * * * * * * * * * * * * * * * * * * * * * * * * * * * * * * * * * * * * * //

dimensions      [0 2 -1 0 0 0 0];

internalField   nonuniform List<scalar> 
119952
(
4.860118e-05
3.282691e-05
3.365876e-05
3.708955e-05
3.913825e-05
3.661557e-05
3.459906e-05
3.291249e-05
3.141135e-05
3.014126e-05
2.909434e-05
2.819383e-05
2.731414e-05
2.639102e-05
2.54651e-05
2.466219e-05
2.408961e-05
2.374194e-05
2.349704e-05
2.321921e-05
3.077722e-05
2.891435e-05
2.831502e-05
3.719542e-05
3.540717e-05
3.446488e-05
3.369839e-05
3.340668e-05
3.303499e-05
2.226352e-05
2.946287e-05
3.257177e-05
3.700833e-05
4.132895e-05
4.576639e-05
5.032575e-05
5.504328e-05
5.979875e-05
6.454243e-05
7.301463e-05
0.0003118707
0.0003461808
0.0003840869
0.0004233471
0.0004628311
0.0005021482
0.0005417704
0.0005826946
0.0006255468
0.0008721685
0.0009269232
0.000989642
0.001061578
0.001144926
0.001241499
0.00135265
0.001478534
0.001618145
0.001767875
0.001926406
0.002088058
0.002247453
0.002397449
0.002530454
0.002641695
0.002730404
0.002799912
0.00285913
0.002869062
0.002801271
0.002759125
0.002721039
0.002661676
0.002539632
0.002385698
0.002219452
0.002058918
0.001919985
0.001808636
0.001722555
0.001654573
0.00159773
0.001548475
0.001506887
0.001474024
0.001450296
0.00143516
0.001428809
0.001435277
0.001444262
0.00146235
0.001488453
0.001523426
0.001553325
0.001577884
0.001592067
0.001569139
0.001489644
0.00147043
0.001465774
0.001471372
0.001482354
0.001496756
0.001513746
0.001532513
0.001551942
0.00157062
0.001586492
0.001596917
0.001598569
0.001588038
0.001563006
0.001522943
0.001469548
0.001407163
0.001341693
0.001278818
0.001222565
0.001174935
0.001136444
0.001106829
0.001085469
0.001071532
0.001064042
0.00106194
0.001064063
0.001069144
0.001075982
0.001083548
0.00109103
0.001097839
0.001103593
0.001108079
0.001111225
0.001113057
0.001113676
0.001113243
0.001111972
0.001110093
0.001107789
0.001105246
0.001102488
0.001099571
0.001096462
0.001093123
0.001089711
0.001087163
0.001083442
0.001077868
0.001070996
0.001063132
0.001053847
0.001043111
0.001030923
0.001017413
0.001002676
0.0009867946
0.0009699948
0.0009525167
0.0009345741
0.0009163619
0.0008980783
0.0008799336
0.0008621443
0.0008449212
0.0008284626
0.0008129479
0.0007985337
0.0007853496
0.0007734954
0.0007630355
0.0007539869
0.000746318
0.0007399608
0.0007348126
0.0007307169
0.0007276397
0.0007251195
0.0007230761
0.0007213599
0.0007197845
0.0007181299
0.0007160872
0.0007132946
0.0007092898
0.0007035366
0.0006954952
0.0006847583
0.0006711814
0.0006549676
0.0006366344
0.0006169349
0.0005968161
0.0005773784
0.0005596703
0.0005447451
0.0005343008
0.0004357284
0.0004349706
0.0004302011
0.0004175065
0.0004012359
0.0003878277
0.0003763419
0.0003661063
0.000356673
0.0003476488
0.000338787
0.0003299624
0.0003211446
0.0003124021
0.0003038962
0.0002958306
0.0002883994
0.0002817169
0.0002757819
0.0002705012
0.0002657602
0.0002614923
0.0002577005
0.0002544084
0.0002515836
0.0002491226
0.000246848
0.0002445739
0.0002421538
0.0002395422
0.0002366823
0.0002336599
0.0002305548
0.0002274929
0.000224661
0.0002244963
0.0002257159
0.0002285816
0.0002311281
0.0002343809
0.0002377365
0.0002412331
0.000244859
0.0002486408
0.000252565
0.0002566342
0.000260878
0.0002652441
0.0002697588
0.0002744093
0.0002792177
0.0002841967
0.0002893739
0.0002947738
0.0003004155
0.0003063178
0.000312457
0.0003165673
0.0003203132
0.0003240018
0.0003276665
0.0003313383
0.0003350253
0.0003387191
0.0003423946
0.0003460179
0.000349567
0.0003530614
0.0003565638
0.0003601632
0.0004626524
0.0004708605
0.0004789452
0.0004869271
0.0004945222
0.0005015264
0.0005079868
0.0005140036
0.000519435
0.0005241532
0.0005280721
0.0005311181
0.000533329
0.0005348124
0.0005357558
0.0005363943
0.000536976
0.0005377287
0.0005388336
0.0005404313
0.000542619
0.0005454353
0.0005488759
0.0005529135
0.000557505
0.0005625794
0.0005680507
0.0005738265
0.000579803
0.0005858945
0.0005919785
0.0005979367
0.0006036742
0.0006091207
0.0006142211
0.0006189294
0.0006232059
0.0006270154
0.0006303362
0.0006331749
0.0006355676
0.0006376252
0.0006395051
0.0006413283
0.0006431468
0.0006449242
0.0006463175
0.0006475218
0.0006485875
0.0006494953
0.0006503004
0.0006510886
0.0006519961
0.0006536424
0.0006557032
0.0006565999
0.0006579266
0.0006594095
0.0006609212
0.0006622987
0.0006634613
0.0006644001
0.0006651914
0.0006659656
0.0006668532
0.0006679592
0.0006693831
0.0006712553
0.0006737262
0.0006769433
0.0006809879
0.000685826
0.0006913044
0.0006971774
0.0007031655
0.0007090318
0.0007146446
0.0007199967
0.0007251543
0.000730168
0.0007350191
0.0007396308
0.0007439194
0.0007478415
0.0007514097
0.00075467
0.0007576559
0.00076035
0.0007626862
0.0007645773
0.0007659444
0.0007667376
0.0007669403
0.0007665302
0.0007654964
0.0007638203
0.0007614625
0.0007583822
0.0007545588
0.0007500095
0.0007448104
0.0007391049
0.0007331723
0.0007272067
0.0007212557
0.0007154235
0.0007098402
0.0007046302
0.000699888
0.0006956652
0.0006919665
0.0006887551
0.0006859627
0.0006835044
0.0006812814
0.0006790645
0.000676616
0.0006737566
0.0006703638
0.0006664038
0.0006618843
0.0006566549
0.0006504734
0.0006431447
0.0006348928
0.0006259824
0.0006167143
0.0006074551
0.000598594
0.0005905008
0.000583485
0.0005778085
0.0005736474
0.0005710923
0.0005698728
0.0005700964
0.0005721313
0.0005763097
0.0004726687
3.955375e-05
4.369266e-05
4.913011e-05
5.545769e-05
6.242013e-05
6.979683e-05
7.745606e-05
8.526912e-05
9.399612e-05
0.000381668
0.0004663168
0.0005578986
0.0006504574
0.0007417548
0.0008312003
0.0009179691
0.001000765
0.00107885
0.001557532
0.001634658
0.00171769
0.00180248
0.001890775
0.001982607
0.002078223
0.00217448
0.002273058
0.002375242
0.00248305
0.002595755
0.002713944
0.002841172
0.002979407
0.00312607
0.003272069
0.003404288
0.003510755
0.003568236
0.003583368
0.003587926
0.003591445
0.003598059
0.003605127
0.003606683
0.00359733
0.003575702
0.003545992
0.003513313
0.003482063
0.003454859
0.003428847
0.003402151
0.003374733
0.003349064
0.00333179
0.003326179
0.004002297
0.004045827
0.004118684
0.004223809
0.004363268
0.004538113
0.004746867
0.004985158
0.005246718
0.005523415
0.005804999
0.006077764
0.006324506
0.006529884
0.00668723
0.006798245
0.00687044
0.006912522
0.006934776
0.006942885
0.006928036
0.006899498
0.006838215
0.006732315
0.006577022
0.006377271
0.00614298
0.005889683
0.005635508
0.00539584
0.005180406
0.004992991
0.004832921
0.004696536
0.004578353
0.004472232
0.00437296
0.004277858
0.004187778
0.004105833
0.004034508
0.003979842
0.003944033
0.003916825
0.003895682
0.003880604
0.003867214
0.003850495
0.003844179
0.003858413
0.003884454
0.003920869
0.003966525
0.004020569
0.00408213
0.004149669
0.004220722
0.004291786
0.004358327
0.004414508
0.004454224
0.004472073
0.004463593
0.004425968
0.004359126
0.004265816
0.004151056
0.004021323
0.003883691
0.003745169
0.003612239
0.003490416
0.003383868
0.003295242
0.003225733
0.003175205
0.003142295
0.003124916
0.003120705
0.003127249
0.003142257
0.003163659
0.003189657
0.003218739
0.003249681
0.003281536
0.003313614
0.003345483
0.00337694
0.00340791
0.003438379
0.003468334
0.003497722
0.003526449
0.003554404
0.003581469
0.003607436
0.00363214
0.003654633
0.003673877
0.003689451
0.003700825
0.003707442
0.003708949
0.003705116
0.003695865
0.003681331
0.003661779
0.00363757
0.003609119
0.003576889
0.003541407
0.003503265
0.003463117
0.003421669
0.003379673
0.003337919
0.003297225
0.003258415
0.003222293
0.00318961
0.003161031
0.003137108
0.003118266
0.003104788
0.003096802
0.003094271
0.003096995
0.003104635
0.003116726
0.003132645
0.003151561
0.003172312
0.003193499
0.003213442
0.003230142
0.003241425
0.003245145
0.003239554
0.003223703
0.003197607
0.003162229
0.003119324
0.003071351
0.003021207
0.002971947
0.002926471
0.002891336
0.002722956
0.002535953
0.00241626
0.002337455
0.002284228
0.00224711
0.002219925
0.002198338
0.002179169
0.00215993
0.002138712
0.00211416
0.002085504
0.002052592
0.002015955
0.00197676
0.001936615
0.00189722
0.00186004
0.001826153
0.001796302
0.001771072
0.001751063
0.001736903
0.00172911
0.001727818
0.001732602
0.001742445
0.001755837
0.001771046
0.001786255
0.001799945
0.001811075
0.001819361
0.00182597
0.001831869
0.001836174
0.001838228
0.001837703
0.001834958
0.001830553
0.00182512
0.001819261
0.001813477
0.001808164
0.001803631
0.001800097
0.001797682
0.001796428
0.001796361
0.001797516
0.001799969
0.001803826
0.001809191
0.001816128
0.00182464
0.001834655
0.001846049
0.001858651
0.001872263
0.001886698
0.001901767
0.001917237
0.001932779
0.001947966
0.001962349
0.001975638
0.001987893
0.001999577
0.002011318
0.002437968
0.002460437
0.002481654
0.00250132
0.002518939
0.002533873
0.002545604
0.002553795
0.002558245
0.002558874
0.002555789
0.002549495
0.002540412
0.002528778
0.002514997
0.002499595
0.002483166
0.002466327
0.002449678
0.002433778
0.002419122
0.002406129
0.002395157
0.002386531
0.002380604
0.002377774
0.002377808
0.002380264
0.002384678
0.002390543
0.002397339
0.002404592
0.002411891
0.002418882
0.002425241
0.002430659
0.002434854
0.002437583
0.0024387
0.002438225
0.002436397
0.002433614
0.00243031
0.002426789
0.002423169
0.002419338
0.002415148
0.002410568
0.002405653
0.002400486
0.002395396
0.002390653
0.002386814
0.002384104
0.002382121
0.002381148
0.002381119
0.002381376
0.002381375
0.002380788
0.002379527
0.002377718
0.002375622
0.00237352
0.002371671
0.00237037
0.002369995
0.002370965
0.002373505
0.002377741
0.002383975
0.002392182
0.002401999
0.002412882
0.002424254
0.002435673
0.002446927
0.002457985
0.002468834
0.002479351
0.002489303
0.002498439
0.002506587
0.002513695
0.002519801
0.002524953
0.002529134
0.002532242
0.002534122
0.002534624
0.002533643
0.002531125
0.002527029
0.002521293
0.002513814
0.002504456
0.00249308
0.002479608
0.00246411
0.002446685
0.002426878
0.002404634
0.002380325
0.002354503
0.002327884
0.002301263
0.002275398
0.00225091
0.002228222
0.00220753
0.002188807
0.002171833
0.002156232
0.002141521
0.002127159
0.002112586
0.002097219
0.002080469
0.002061749
0.002040518
0.002016307
0.001988789
0.001957722
0.001923055
0.001884799
0.001843139
0.001798314
0.001750815
0.001701264
0.001650396
0.001599115
0.001548438
0.001499282
0.00145273
0.00140967
0.001370348
0.001335153
0.001305546
0.001281285
6.079276e-05
8.522193e-05
0.0001284302
0.0001920927
0.0002267242
0.0002629359
0.0003010762
0.0003406763
0.0003818205
0.0004408187
0.001286386
0.001571724
0.001717393
0.001842979
0.001958952
0.002067871
0.002171506
0.002272175
0.002371914
0.00342604
0.003663164
0.0038718
0.004044485
0.004177627
0.004274487
0.004344674
0.004400324
0.004451543
0.004502362
0.004556079
0.004616099
0.00467867
0.004739056
0.004793394
0.004839581
0.004879272
0.004918987
0.004970117
0.004967395
0.005000798
0.005056891
0.005120856
0.005182851
0.005241226
0.005299178
0.005359355
0.00541928
0.005471881
0.005507793
0.005525637
0.005531654
0.005536338
0.005547586
0.005566359
0.005588759
0.005610569
0.006482253
0.006509852
0.006541077
0.006578188
0.006622866
0.006674403
0.006730201
0.006789635
0.006856842
0.006935999
0.007027657
0.007132102
0.007253144
0.007395096
0.0075537
0.007714108
0.007854049
0.007953853
0.008004849
0.0080112
0.007986905
0.007949072
0.007909109
0.007869608
0.007826581
0.007778766
0.007725292
0.007663657
0.007589715
0.00750794
0.007421971
0.007334239
0.007246769
0.007162268
0.007084047
0.007015371
0.006958258
0.006913065
0.006866021
0.006851757
0.006878769
0.006951444
0.007073223
0.007244885
0.007462078
0.007715528
0.007992039
0.008279896
0.008565635
0.008831294
0.009055456
0.009222483
0.009330827
0.009390387
0.009415472
0.009422301
0.009426728
0.0094067
0.009368024
0.009315858
0.009239596
0.009127006
0.008971675
0.008774506
0.008542304
0.008286442
0.008020698
0.007760453
0.007518866
0.007303709
0.007117081
0.006956295
0.006815321
0.006686538
0.006562825
0.006439693
0.00631675
0.006196845
0.006083301
0.005982029
0.00589699
0.005825953
0.00576653
0.005719893
0.005684821
0.005659917
0.00565086
0.005663148
0.00569353
0.005739087
0.005799061
0.005872539
0.00595813
0.006053423
0.006154645
0.006256696
0.006353482
0.006438014
0.006502803
0.006541785
0.006550752
0.00652611
0.006466397
0.006373291
0.006250801
0.006104703
0.00594205
0.005770671
0.005598626
0.005433562
0.005282064
0.005149159
0.005038086
0.004950276
0.004885569
0.004842617
0.004819294
0.004813039
0.004821137
0.004840918
0.004869886
0.004905808
0.004946769
0.0049912
0.005037893
0.005085992
0.005134923
0.005184287
0.005233766
0.005283052
0.005331827
0.005379785
0.005426623
0.005472038
0.005515672
0.005557045
0.005595361
0.005629521
0.005658752
0.005682472
0.005699925
0.005710547
0.005714097
0.005710577
0.005700181
0.005683209
0.005660015
0.005630995
0.005596604
0.0055574
0.005514055
0.005467342
0.005418135
0.005367417
0.005316265
0.005265831
0.005217293
0.005171811
0.005130472
0.005094235
0.005063916
0.005040156
0.005023404
0.005013906
0.005011706
0.00501666
0.005028454
0.005046556
0.005070161
0.00509811
0.005128825
0.005160348
0.005190368
0.005216227
0.005235068
0.005244194
0.005241664
0.005226732
0.005199878
0.00516259
0.005117166
0.005066506
0.005013765
0.004961859
0.004913067
0.004868391
0.004819418
0.004785969
0.004763056
0.004747206
0.004735705
0.004726313
0.004717132
0.004706479
0.004692784
0.004674585
0.004650647
0.004620127
0.004582711
0.00453874
0.004489283
0.004435977
0.004380731
0.004325439
0.004271818
0.0042214
0.004175637
0.00413601
0.004104011
0.004080942
0.004067615
0.0040641
0.004069636
0.004082709
0.004101257
0.004122943
0.004145484
0.004166955
0.004186146
0.004203227
0.004216139
0.004224288
0.004227411
0.004225498
0.004218948
0.004208511
0.004195067
0.004179494
0.004162584
0.004145036
0.004127465
0.004110407
0.004094306
0.004079529
0.004066413
0.004055283
0.004046462
0.004040253
0.004036901
0.00403655
0.004039222
0.004044827
0.00405319
0.004064087
0.004077303
0.004092643
0.004109888
0.004128729
0.004148737
0.004169394
0.004190247
0.004211062
0.004231605
0.00425189
0.004272062
0.004293465
0.004303359
0.004314268
0.004325508
0.004336184
0.00434537
0.004352281
0.00435627
0.004356757
0.004353222
0.004345223
0.004332334
0.00431392
0.004290208
0.004262338
0.004231591
0.004199287
0.00416667
0.004134828
0.004104656
0.004076855
0.004051942
0.00403024
0.004011871
0.003996694
0.003984217
0.003973614
0.003965014
0.003958775
0.003955211
0.003953917
0.00395419
0.003955444
0.003957196
0.003959018
0.003960493
0.003961203
0.00396074
0.003958754
0.003955038
0.003949636
0.003942891
0.003935344
0.003927506
0.003919655
0.003911801
0.003903773
0.003895396
0.003886637
0.003877809
0.003869169
0.003860925
0.003853291
0.003846508
0.003840675
0.003835708
0.003831565
0.00382818
0.003825041
0.003821544
0.003817339
0.003812372
0.003806839
0.003801052
0.003795309
0.003789963
0.003785362
0.003781861
0.003779947
0.003780312
0.003783405
0.003788823
0.003796159
0.003805236
0.00381583
0.003827161
0.003838696
0.003850241
0.003861813
0.003873377
0.003884686
0.003895348
0.003904999
0.003913418
0.003920553
0.003926449
0.003931138
0.003934552
0.003936517
0.003936832
0.003935337
0.003931964
0.003926701
0.003919514
0.003910297
0.003898867
0.003884988
0.003868426
0.003849017
0.003826579
0.003800506
0.00377084
0.003737818
0.003701945
0.003664025
0.003625093
0.003586271
0.003548608
0.003512948
0.003479866
0.00344964
0.003422261
0.00339747
0.003374804
0.003353655
0.003333311
0.003313013
0.003291963
0.003269377
0.003244478
0.003216599
0.003185165
0.003149771
0.003110033
0.003065789
0.003016804
0.002963024
0.002904336
0.002841023
0.002773377
0.002702029
0.002627747
0.002551588
0.002474534
0.002397714
0.002321976
0.002248787
0.002177823
0.002109526
0.002046993
4.835111e-05
8.364843e-05
0.0001765233
0.0006319969
0.001112065
0.002110683
0.002824202
0.003679227
0.004596343
0.005325901
0.00579671
0.006151197
0.006432797
0.006586866
0.00671938
0.006826999
0.006765144
0.006457341
0.006261373
0.006153123
0.006158622
0.006218716
0.006290248
0.006474462
0.00668995
0.006933507
0.007215757
0.007552501
0.007974508
0.008575986
0.008942188
0.009798729
0.009896509
0.009966036
0.01
0.01
0.01
0.009993675
0.009967119
0.009947023
0.009937676
0.009937863
0.009942391
0.00994432
0.009938359
0.009921147
0.009892092
0.009855136
0.009819605
0.009797311
0.009796644
0.009816379
0.009843584
0.009866276
0.009879653
0.00988569
0.009889422
0.009893533
0.00989522
0.009888205
0.009866836
0.009830873
0.009786501
0.009741901
0.009701582
0.009665469
0.009631616
0.009603197
0.009559483
0.009523524
0.009496071
0.009479224
0.009474901
0.009481651
0.00949572
0.009517237
0.009551729
0.009602988
0.009670014
0.009753395
0.00985968
0.009994281
0.01
0.01
0.01
0.01000001
0.01000001
0.01000001
0.01
0.01
0.01
0.01
0.01
0.01
0.009988049
0.009895872
0.009795077
0.009689739
0.009583228
0.009478311
0.009377368
0.009283085
0.00919838
0.009126716
0.009071127
0.009035402
0.009020803
0.009024924
0.009067217
0.009155654
0.00929486
0.009483683
0.009713207
0.009970371
0.01
0.01
0.01
0.01
0.01
0.01
0.01
0.01
0.01
0.01
0.01
0.01000002
0.01000014
0.01000099
0.0100014
0.01000089
0.01000017
0.01000001
0.01
0.01
0.009894774
0.009648376
0.009417739
0.009209928
0.009026961
0.008866488
0.008722913
0.008589022
0.008457628
0.008324262
0.008188545
0.00805306
0.007922048
0.007800508
0.007692663
0.007599859
0.007522242
0.007460624
0.007415416
0.007386346
0.007375415
0.007384623
0.007413074
0.00745946
0.007523149
0.007603123
0.007697247
0.007801893
0.007911869
0.008020861
0.008122056
0.008208603
0.008273958
0.008312765
0.008321802
0.008298746
0.008242103
0.008152919
0.008034467
0.007891339
0.007729379
0.007555447
0.007377023
0.007201708
0.007036612
0.006887659
0.006759117
0.00665348
0.00657168
0.006513259
0.006476686
0.006459752
0.006459864
0.006474292
0.006500355
0.006535559
0.006577716
0.006625025
0.006676107
0.006729947
0.006785763
0.006842889
0.006900687
0.006958529
0.007015837
0.007072138
0.007127061
0.007180259
0.007231275
0.00727945
0.007323925
0.007363714
0.007397944
0.00742587
0.007446777
0.007460178
0.007465942
0.007464218
0.007455299
0.007439502
0.007417095
0.007388342
0.007353591
0.007313343
0.007268266
0.007219174
0.007167025
0.007112947
0.007058221
0.007004229
0.006952358
0.006903937
0.006860165
0.006822072
0.006790509
0.006766121
0.006749331
0.006740357
0.006739237
0.006745853
0.006759901
0.006780805
0.006807615
0.00683891
0.006872792
0.006906982
0.006938908
0.006965723
0.006984442
0.006992439
0.006988189
0.006971711
0.006944317
0.006908127
0.006865753
0.00682003
0.006773544
0.006728445
0.006686375
0.006648519
0.006615008
0.00658651
0.006563192
0.006544425
0.006528716
0.006514194
0.006499062
0.006481717
0.006460618
0.006434224
0.006401217
0.006360766
0.006312747
0.006257939
0.006197956
0.006134829
0.006070523
0.006006715
0.005944835
0.005886281
0.005832656
0.005785897
0.005748046
0.005720771
0.005704911
0.005700278
0.005705737
0.005719383
0.005738813
0.005761452
0.005784909
0.005807312
0.005827595
0.005844386
0.005855949
0.005861937
0.005862259
0.00585715
0.005847219
0.005833311
0.005816299
0.005796975
0.005776025
0.005754054
0.005731632
0.005709304
0.005687597
0.005667039
0.005648186
0.005631602
0.005617808
0.005607248
0.005600224
0.005596846
0.005597046
0.005600628
0.005607335
0.00561694
0.005629322
0.005644441
0.005662147
0.005681686
0.00570223
0.005722973
0.005743181
0.005762417
0.005781132
0.005800183
0.005820471
0.00584237
0.005864412
0.005885699
0.005905512
0.005923106
0.005937454
0.005947407
0.005952026
0.005950655
0.00594284
0.005928302
0.005906995
0.005879249
0.005845945
0.00580838
0.005768058
0.005726475
0.005684959
0.005644595
0.005606239
0.005570567
0.005538116
0.005509276
0.00548425
0.005462994
0.005445207
0.005430425
0.005418146
0.005407767
0.005398505
0.005390463
0.005384012
0.005378748
0.005374263
0.005370177
0.005366063
0.005361454
0.005355875
0.005348906
0.005340302
0.00533013
0.005318841
0.005307108
0.005295451
0.00528399
0.00527254
0.00526088
0.0052489
0.005236646
0.005224063
0.005211409
0.005199164
0.005187772
0.005177724
0.005169385
0.005162807
0.005157505
0.005152173
0.005146508
0.005140012
0.00513241
0.005123785
0.005114466
0.005104821
0.005094888
0.005084688
0.005074816
0.005066404
0.005060649
0.005058456
0.005060177
0.005065553
0.00507385
0.005083851
0.005094443
0.005105565
0.005116774
0.005128002
0.005139382
0.005150882
0.005162125
0.005172576
0.005181804
0.005189589
0.005195891
0.005200763
0.00520421
0.005206105
0.005206213
0.005204329
0.005200356
0.005194322
0.005186291
0.005176224
0.005163942
0.005149154
0.00513151
0.005110654
0.005086286
0.005057833
0.00502514
0.004988261
0.004947518
0.004903599
0.004857563
0.004810701
0.004764324
0.004719575
0.004677318
0.004638106
0.004602182
0.004569493
0.004539736
0.004512406
0.004486861
0.004462369
0.004438151
0.004413397
0.004387306
0.004359097
0.004328072
0.004293654
0.004255443
0.004213095
0.004166319
0.004114751
0.004058071
0.003996003
0.003928536
0.003855815
0.003778272
0.003696434
0.003611073
0.003522823
0.003432478
0.003341106
0.003248773
0.003155813
0.003062508
0.002974407
2.577019e-05
4.27539e-05
6.644301e-05
0.0002922792
0.0004864391
0.0008614578
0.001226568
0.001562533
0.001981495
0.002383701
0.002810825
0.00334892
0.003972649
0.004649662
0.00536089
0.006194895
0.007729503
0.008240588
0.008662138
0.008918426
0.009031957
0.009063225
0.008701783
0.007972023
0.007300968
0.00672706
0.006270768
0.005917681
0.005680226
0.005536388
0.005487642
0.005532485
0.005674398
0.005920068
0.006268898
0.006691653
0.007164225
0.007667004
0.008254465
0.009001174
0.009915823
0.01
0.01
0.01
0.01
0.01
0.01
0.01
0.01
0.01
0.01
0.01
0.01
0.01
0.01
0.01
0.01
0.01
0.01
0.01
0.01
0.01
0.01
0.01
0.01
0.01
0.01
0.01
0.01
0.01
0.01
0.01
0.01
0.01
0.01
0.01
0.01
0.01
0.01
0.01
0.01
0.01
0.01
0.01
0.01
0.01
0.01
0.01
0.01
0.01000001
0.01000001
0.01000001
0.01000001
0.01000001
0.01000003
0.01000018
0.01000036
0.01000031
0.01000014
0.01000003
0.01000002
0.01000002
0.01000002
0.01000003
0.01000003
0.01000003
0.01000003
0.01000001
0.01
0.01
0.01
0.01
0.01
0.01
0.01
0.01
0.01
0.01
0.01
0.01
0.01
0.01
0.01
0.01
0.01
0.01
0.01
0.01000001
0.01000002
0.01000003
0.01000003
0.01000003
0.01000002
0.01000002
0.01000002
0.01000009
0.010001
0.01000495
0.01000426
0.01000136
0.01000016
0.01000001
0.01
0.01000001
0.01000001
0.01000001
0.01
0.01
0.01
0.01000001
0.01000007
0.01000037
0.01000039
0.009962419
0.009831573
0.009699105
0.009567426
0.009440404
0.00932231
0.009216657
0.009125267
0.00904899
0.00898892
0.00894598
0.008920032
0.008910921
0.008918801
0.00894401
0.008987135
0.009048371
0.009126269
0.009217437
0.009316778
0.009417889
0.009514054
0.009599066
0.009667403
0.009714389
0.009736655
0.009732646
0.009701406
0.009641947
0.009555295
0.009444375
0.009312721
0.009164799
0.009005978
0.008842082
0.008679029
0.008523567
0.008381424
0.008256911
0.008152812
0.008070466
0.008009913
0.007970153
0.007949437
0.007945525
0.007955921
0.007978077
0.008009584
0.008048344
0.008092707
0.00814149
0.008193837
0.008248969
0.008306011
0.008363979
0.008421919
0.008479074
0.008534984
0.008589426
0.008642166
0.008692693
0.008740169
0.008783569
0.008821845
0.008854188
0.008880002
0.008898686
0.008909872
0.008913612
0.008910277
0.008900292
0.008883953
0.008861378
0.008832511
0.008797591
0.008757064
0.008711594
0.00866203
0.008609409
0.008554996
0.008500279
0.008446835
0.008396153
0.008349557
0.008308159
0.008272832
0.008244257
0.008222891
0.008208955
0.008202521
0.008203559
0.008211928
0.008227318
0.008249098
0.008276149
0.008306779
0.008338821
0.008369895
0.008397505
0.008419
0.008431658
0.008433269
0.008423055
0.008402136
0.008372966
0.008338357
0.008301045
0.008263443
0.008227173
0.008193161
0.008162173
0.008134938
0.008111806
0.008092598
0.008076924
0.008063855
0.008051717
0.008038509
0.008022533
0.008002558
0.007977411
0.00794583
0.007906744
0.007859551
0.007804522
0.007743065
0.007677429
0.007609828
0.007541868
0.007474623
0.007409065
0.007346466
0.007288665
0.007238045
0.007197021
0.007167273
0.007149285
0.007142405
0.007145163
0.007155499
0.007170994
0.007189168
0.007207871
0.007225532
0.007241262
0.007252926
0.007259729
0.007261379
0.007257916
0.007249695
0.00723735
0.007221637
0.007203226
0.007182656
0.007160373
0.007136786
0.00711232
0.007087455
0.007062776
0.007039006
0.00701695
0.006997403
0.006981051
0.006968417
0.006959761
0.006955043
0.006953998
0.006956245
0.006961411
0.006969298
0.006979976
0.006993102
0.007008039
0.007024521
0.007041969
0.0070596
0.00707675
0.007093296
0.007109962
0.007128013
0.007148372
0.007170879
0.007194436
0.007217732
0.007239456
0.007258257
0.00727273
0.007281586
0.007283854
0.00727891
0.007266393
0.007246206
0.007218649
0.007184564
0.007145325
0.007102625
0.007058159
0.007013339
0.006969182
0.006926371
0.006885418
0.006846807
0.00681106
0.006778662
0.00674994
0.006724947
0.006703409
0.006684828
0.006668644
0.006654291
0.006641202
0.0066289
0.00661713
0.006606418
0.0065967
0.006587699
0.006579013
0.006570151
0.006560579
0.006549795
0.00653748
0.006523679
0.006508932
0.006494095
0.006479756
0.006465587
0.00645107
0.006435826
0.00641973
0.006403001
0.006386188
0.00636993
0.006354752
0.006341081
0.006329357
0.006319813
0.006312143
0.006305482
0.006298706
0.00629091
0.006281709
0.006271048
0.006259186
0.006246644
0.00623347
0.0062196
0.006205328
0.006191508
0.006179628
0.006171264
0.00616738
0.006168104
0.0061729
0.006180836
0.006190777
0.00620154
0.006212178
0.00622277
0.006233392
0.00624427
0.006255353
0.006266122
0.006275921
0.00628431
0.006291089
0.006296216
0.006299721
0.00630156
0.006301535
0.00629939
0.006294994
0.006288393
0.006279792
0.006269338
0.006256924
0.006242238
0.006224852
0.006204295
0.0061801
0.006151743
0.006118804
0.006081186
0.006039
0.005992718
0.00594329
0.005892086
0.00584065
0.005790383
0.00574235
0.005697253
0.005655468
0.005617096
0.005581988
0.005549781
0.005519947
0.005491857
0.005464827
0.005438147
0.00541109
0.005382935
0.005352968
0.005320522
0.005285051
0.005246195
0.005203704
0.005157268
0.005106379
0.005050536
0.004989297
0.004922514
0.004850373
0.004773281
0.004691684
0.004606132
0.00451719
0.00442534
0.004330496
0.004232541
0.004131562
0.00402803
0.003929227
2.347447e-05
3.649252e-05
7.411851e-05
0.0002280736
0.000370193
0.0005979162
0.000770738
0.0009674915
0.001197976
0.001422012
0.00168248
0.002019008
0.002398471
0.002841498
0.003403661
0.004497481
0.005001485
0.00552927
0.006069385
0.006615218
0.00716899
0.007717679
0.008239052
0.008714542
0.009129547
0.009467576
0.009733604
0.009910085
0.009950467
0.009564611
0.009001697
0.008289392
0.007562968
0.006909922
0.006344889
0.005868839
0.00550455
0.005244949
0.005073991
0.004998102
0.005026025
0.005175822
0.005480361
0.005974536
0.00671202
0.007642995
0.008637659
0.009579954
0.01
0.01
0.01
0.01
0.01
0.01
0.01
0.01
0.01
0.01
0.01
0.01
0.01
0.01
0.01000001
0.01000002
0.01000002
0.01000002
0.01000002
0.01000001
0.01000001
0.01
0.01
0.01000001
0.01000003
0.01000008
0.01000008
0.01000005
0.01000002
0.01000002
0.01000004
0.01000016
0.01000048
0.01000058
0.01000046
0.01000017
0.01000003
0.01000003
0.01000005
0.01000008
0.01000012
0.01000012
0.01000008
0.01000003
0.01000003
0.01000005
0.01000008
0.01000011
0.01000011
0.01000013
0.01000025
0.01000052
0.01000048
0.01000025
0.01000022
0.01000056
0.01000231
0.01000352
0.01000228
0.01000063
0.01000018
0.01000026
0.01000049
0.01000102
0.01000214
0.01000316
0.01000245
0.01000066
0.01000006
0.01000004
0.01000006
0.01000007
0.01000008
0.01000008
0.01000006
0.01000003
0.01000002
0.01000004
0.01000009
0.01000008
0.01000003
0.01000002
0.01000005
0.01000007
0.01000006
0.01000002
0.01
0.01
0.01000003
0.01000011
0.01000024
0.01000043
0.0100007
0.01000081
0.01000086
0.01000084
0.01000102
0.01000411
0.01001253
0.01000798
0.010002
0.01000016
0.01000005
0.01000012
0.01000017
0.01000012
0.01000003
0.01
0.01
0.01000001
0.01000013
0.01000075
0.0100009
0.01000054
0.01000012
0.01000001
0.01
0.01
0.01
0.01000001
0.01000001
0.01000002
0.01000003
0.01000003
0.01000002
0.01
0.01
0.01
0.01
0.01
0.01
0.01
0.01
0.01
0.01
0.01
0.01
0.01
0.01
0.01
0.01000001
0.01000003
0.01000012
0.01000015
0.0100001
0.01000002
0.01
0.01
0.01
0.01
0.009868188
0.009733641
0.009610884
0.009503293
0.009413051
0.009341243
0.009287995
0.009252613
0.00923372
0.009229436
0.009237585
0.0092559
0.00928226
0.009314934
0.009352754
0.009395094
0.009441538
0.009491382
0.009543431
0.009596227
0.00964849
0.009699436
0.009748891
0.009797062
0.009843975
0.009889024
0.009931078
0.009968967
0.01000001
0.01000003
0.01000003
0.01000001
0.01
0.01
0.01
0.01
0.01
0.01
0.009978045
0.009943215
0.009903184
0.009858515
0.009810066
0.009758959
0.009706611
0.009654729
0.00960507
0.009559114
0.009517983
0.00948248
0.009453137
0.009430349
0.009414255
0.009404782
0.009401821
0.009405278
0.009415007
0.00943068
0.009451588
0.009476453
0.009503358
0.009529975
0.009554063
0.009573587
0.00958638
0.009590232
0.009583529
0.009566286
0.009540673
0.009510235
0.009478422
0.009447914
0.009420403
0.00939612
0.009374534
0.009355565
0.009339666
0.009327073
0.009317398
0.009309828
0.009303045
0.009295102
0.00928392
0.009267956
0.009246416
0.009218695
0.009183934
0.009141439
0.009090873
0.009032762
0.008968878
0.008902191
0.008834925
0.008767926
0.008701423
0.008636007
0.008573011
0.008514537
0.008463291
0.008421821
0.008391536
0.008372402
0.008363378
0.008362868
0.008368869
0.008379121
0.008391393
0.008403892
0.00841542
0.008424999
0.00843075
0.008432249
0.008429454