/*--------------------------------*- C++ -*----------------------------------*\
| =========                 |                                                 |
| \\      /  F ield         | foam-extend: Open Source CFD                    |
|  \\    /   O peration     | Version:     3.1                                |
|   \\  /    A nd           | Web:         http://www.extend-project.de       |
|    \\/     M anipulation  |                                                 |
\*---------------------------------------------------------------------------*/
FoamFile
{
    version     2.0;
    format      ascii;
    class       volScalarField;
    location    "19";
    object      omega;
}
// * * * * * * * * * * * * * * * * * * * * * * * * * * * * * * * * * * * * * //

dimensions      [0 0 -1 0 0 0 0];

internalField   nonuniform List<scalar> 
119952
(
343.5163
434.9151
409.0102
352.4432
311.8494
308.6697
306.6888
304.6172
302.7628
301.9288
302.6622
304.6966
307.2328
309.5968
311.9064
315.2801
321.0611
329.7734
341.1324
354.6977
305.5049
302.9558
306.0518
260.1057
252.8808
249.0262
245.9514
243.3812
238.2991
147.7743
748.3365
631.2628
534.2106
462.3851
407.6978
364.8446
330.0886
301.1494
276.4491
249.6793
213.796
188.3376
170.3489
156.7724
145.8977
136.7363
128.6486
121.2135
114.2183
89.22052
84.55767
79.63361
74.62735
69.74004
65.13934
60.93506
57.17373
53.86561
51.00335
48.58519
46.4915
44.69831
43.19107
41.94875
40.94118
40.12877
39.46352
38.92594
39.33316
39.95265
40.15865
40.31722
40.62912
41.55598
42.81544
44.27905
45.75925
47.01281
47.88652
48.35231
48.49656
48.44482
48.29727
48.10451
47.89299
47.67125
47.42142
47.0618
46.44913
45.81706
44.81246
43.66031
42.55427
41.46412
40.41008
39.67221
39.77841
40.57199
39.95213
39.13693
38.20244
37.272
36.37636
35.52885
34.74168
34.03117
33.40818
32.8922
32.50723
32.2836
32.25377
32.44185
32.86196
33.50824
34.3432
35.29996
36.29558
37.24867
38.0888
38.75639
39.20302
39.39749
39.33256
39.02617
38.51774
37.86235
37.11954
36.34237
35.57289
34.84077
34.16435
33.55301
33.00958
32.53258
32.11784
31.75972
31.45156
31.18611
30.95665
30.75809
30.58546
30.43782
30.31326
30.2107
30.12882
30.05972
29.97767
29.95464
30.02228
30.13389
30.27192
30.43679
30.62568
30.83737
31.06985
31.32069
31.58928
31.87344
32.17101
32.4799
32.79808
33.12303
33.45134
33.7787
34.09999
34.40944
34.70079
34.96769
35.20406
35.40464
35.56551
35.68494
35.76359
35.80435
35.81217
35.79523
35.75512
35.71211
35.67342
35.6459
35.63783
35.65889
35.72029
35.8345
36.01741
36.28742
36.66427
37.16417
37.79562
38.55641
39.43381
40.40532
41.43546
42.47008
43.44454
44.27626
44.82614
47.08778
51.45615
54.84851
57.35047
59.12617
60.4767
61.54618
62.46567
63.31448
64.16078
65.04813
65.99979
67.02271
68.10934
69.23116
70.34585
71.40437
72.36778
73.21944
73.96555
74.6228
75.2026
75.70154
76.10999
76.43324
76.69955
76.96503
77.29649
77.75869
78.38891
79.20738
80.21977
81.40202
82.68692
83.98865
84.05525
82.86352
81.79907
80.80998
79.85877
78.92239
77.97652
77.00995
76.01652
74.99602
73.95117
72.88605
71.80513
70.71296
69.6135
68.50861
67.39878
66.28558
65.17199
64.06321
62.96621
61.88939
60.83028
59.78971
58.77808
57.80133
56.8628
55.96481
55.10954
54.29901
53.5334
52.80814
52.11024
51.4177
50.71436
39.64749
38.96756
38.18185
37.3098
36.46018
35.66998
34.95679
34.32204
33.76938
33.29991
32.91023
32.59331
32.34034
32.13867
31.97287
31.82585
31.68055
31.52187
31.33864
31.12253
30.8688
30.5758
30.24861
29.89241
29.51378
29.12049
28.7203
28.32059
27.9281
27.54628
27.17953
26.83181
26.50553
26.20188
25.92125
25.66348
25.42789
25.21329
25.01801
24.83901
24.67202
24.51232
24.35568
24.19963
24.04632
23.90349
23.76896
23.63839
23.51222
23.38867
23.26543
23.13915
23.00565
22.86414
22.77071
22.60226
22.41968
22.22895
22.03395
21.83969
21.64871
21.46195
21.27887
21.09824
20.91899
20.74016
20.56024
20.37734
20.18908
19.99443
19.79444
19.59253
19.39381
19.20399
19.02781
18.86795
18.72451
18.59555
18.47842
18.37117
18.27294
18.18355
18.10269
18.0295
17.96258
17.90051
17.84242
17.78834
17.73895
17.69509
17.65739
17.62613
17.60155
17.58393
17.57345
17.57093
17.57736
17.59364
17.62037
17.65759
17.70453
17.75923
17.8166
17.87218
17.92385
17.96848
18.0027
18.02373
18.03
18.02145
17.99959
17.96727
17.92825
17.88663
17.84658
17.81471
17.79767
17.80066
17.82764
17.88058
17.96041
18.07196
18.22318
18.42187
18.66557
18.95109
19.27425
19.62789
20.00185
20.38448
20.76209
21.11937
21.44154
21.7141
21.933
22.06457
22.04331
21.8089
21.82269
779.9579
640.2304
550.1598
487.2875
440.0698
402.5576
371.5553
345.2257
321.3008
275.5465
228.4355
197.8291
176.7307
161.1654
148.9959
139.0946
130.8192
123.7256
97.56353
93.0939
88.68967
84.46664
80.50296
76.85131
73.50341
70.4667
67.6875
65.10302
62.74164
60.51158
58.34086
56.24613
54.25536
52.41469
50.77348
49.36089
48.17238
47.45797
47.08727
46.6496
46.13852
45.57144
44.98397
44.42428
43.92625
43.49367
43.10072
42.71316
42.30177
41.86268
41.4062
40.93131
40.43019
39.88668
39.26874
38.57117
34.34791
33.54248
32.68896
31.80373
30.90902
30.03177
29.2005
28.43847
27.76025
27.17202
26.67238
26.25311
25.90127
25.60264
25.34791
25.13392
24.96184
24.8346
24.74737
24.67659
24.63456
24.6048
24.60287
24.64733
24.75647
24.93287
25.16567
25.42725
25.67582
25.8678
25.97019
25.96862
25.86863
25.69134
25.4664
25.22465
24.99053
24.77597
24.57739
24.38083
24.17161
23.92581
23.63932
23.34098
23.0288
22.70287
22.37984
22.06212
21.71162
21.32189
20.92856
20.53253
20.13992
19.75595
19.3852
19.0328
18.70455
18.40668
18.14574
17.92928
17.76399
17.65466
17.60528
17.61814
17.69155
17.81988
17.99394
18.20146
18.42772
18.65585
18.86729
19.04311
19.16621
19.22352
19.20774
19.1183
18.96128
18.74715
18.48877
18.1996
17.89229
17.57776
17.26482
16.96014
16.66838
16.39253
16.13417
15.8937
15.67073
15.4644
15.27367
15.09747
14.93476
14.78462
14.64609
14.51821
14.40022
14.29118
14.19202
14.10393
14.0264
13.95931
13.90267
13.85612
13.81924
13.7915
13.77209
13.76008
13.75451
13.75445
13.759
13.76731
13.77844
13.79144
13.80525
13.81877
13.83078
13.83997
13.845
13.84453
13.83735
13.82246
13.79922
13.76737
13.72708
13.67897
13.62415
13.56409
13.50049
13.43514
13.36989
13.3067
13.24793
13.19604
13.15376
13.12429
13.11118
13.11815
13.14841
13.2038
13.28429
13.3878
13.51008
13.64458
13.78247
13.91375
14.02768
14.09705
14.55041
15.09318
15.45538
15.6844
15.81772
15.88473
15.90787
15.90466
15.88869
15.87098
15.86014
15.86252
15.88207
15.92014
15.97495
16.04137
16.11169
16.17734
16.23085
16.26694
16.2823
16.27449
16.24076
16.17816
16.08474
15.96168
15.81413
15.65082
15.48253
15.31978
15.1717
15.04414
14.93934
14.85496
14.78133
14.71211
14.65209
14.6026
14.56249
14.52889
14.4989
14.46974
14.43913
14.40533
14.36715
14.32382
14.27494
14.22047
14.16071
14.09596
14.02646
13.95236
13.87368
13.79055
13.70324
13.6123
13.51853
13.42287
13.32639
13.23008
13.1348
13.04133
12.95046
12.86321
12.78079
12.70434
12.63434
12.57006
12.5094
12.44997
11.17276
11.0834
11.00183
10.92736
10.85949
10.79823
10.74354
10.69521
10.65287
10.61609
10.58428
10.55624
10.53107
10.50832
10.48732
10.46714
10.44672
10.42497
10.40081
10.3733
10.34167
10.30533
10.26385
10.21695
10.16432
10.10565
10.04187
9.974291
9.904214
9.832888
9.76147
9.690932
9.622045
9.555418
9.491557
9.430901
9.373825
9.320621
9.271427
9.2261
9.184142
9.144782
9.107197
9.070793
9.035297
9.000809
8.967492
8.935367
8.90434
8.874197
8.844287
8.814009
8.782366
8.749208
8.715123
8.678877
8.640834
8.60238
8.564561
8.527976
8.492801
8.45886
8.425771
8.393164
8.360723
8.328069
8.294665
8.259874
8.223373
8.185009
8.144386
8.101699
8.057727
8.013505
7.970041
7.928048
7.887812
7.849301
7.812426
7.777226
7.743873
7.712538
7.683258
7.655889
7.630162
7.605797
7.582619
7.560592
7.539773
7.520233
7.501992
7.485007
7.469226
7.454637
7.441303
7.429362
7.418991
7.410338
7.403411
7.398316
7.396262
7.397703
7.402214
7.408967
7.416709
7.423918
7.429062
7.430848
7.428415
7.421432
7.410117
7.395178
7.377704
7.359027
7.340575
7.323787
7.310138
7.30114
7.298362
7.303368
7.31763
7.342455
7.37911
7.428667
7.492226
7.570744
7.665156
7.775894
7.903026
8.046197
8.204271
8.375593
8.557351
8.745534
8.933793
9.121656
9.308637
9.497189
9.684901
704.4475
635.9543
578.5263
536.1985
499.9864
469.7649
444.4181
422.5469
403.5406
384.7896
197.5916
182.0239
175.5891
169.4168
163.575
158.1201
153.0338
148.2433
143.5533
112.7815
105.8319
100.0445
95.41791
91.74954
88.77163
86.25731
84.04571
82.03492
80.18217
78.39182
76.47507
74.49087
72.51886
70.61609
68.80786
67.08364
65.41258
63.7477
62.89058
61.76538
60.51989
59.26698
58.05059
56.87137
55.72008
54.59904
53.53238
52.55468
51.66716
50.85096
50.06588
49.27207
48.45695
47.6341
46.8227
46.03517
42.13292
41.4177
40.72248
40.03731
39.35832
38.69196
38.04477
37.41394
36.79434
36.1899
35.61005
35.06238
34.55444
34.09807
33.70195
33.35837
33.04286
32.72798
32.39894
32.05693
31.71103
31.37032
31.03848
30.71863
30.41668
30.13632
29.87845
29.64529
29.44245
29.25874
29.08374
28.90877
28.7236
28.51655
28.27812
28.00359
27.69459
27.35947
27.04848
26.70472
26.33322
25.94616
25.56054
25.19624
24.87268
24.60487
24.40077
24.26029
24.1735
24.11794
24.06085
23.97527
23.85555
23.71451
23.57128
23.44453
23.3494
23.27984
23.22731
23.1766
23.11691
23.05301
22.99789
22.96188
22.94667
22.94523
22.9419
22.91606
22.84829
22.72656
22.54956
22.32617
22.0721
21.80559
21.54301
21.29528
21.0653
20.84843
20.63715
20.42043
20.18839
19.93961
19.678
19.40393
19.12139
18.83586
18.54644
18.2493
17.94997
17.65447
17.36514
17.08419
16.81362
16.55545
16.3121
16.08645
15.88157
15.70053
15.54682
15.4233
15.33148
15.27301
15.24876
15.25775
15.2971
15.36198
15.44555
15.53906
15.63211
15.71331
15.77141
15.79674
15.78246
15.72543
15.62618
15.48839
15.3181
15.12267
14.9098
14.68675
14.45991
14.2346
14.01493
13.80393
13.60358
13.41498
13.23849
13.07398
12.921
12.77895
12.64719
12.52509
12.41202
12.3073
12.21022
12.12005
12.03634
11.95908
11.888
11.82274
11.76321
11.70932
11.66083
11.61745
11.57871
11.54406
11.51289
11.48464
11.45884
11.43508
11.41299
11.39221
11.3724
11.35319
11.33416
11.31486
11.29471
11.2731
11.24939
11.22301
11.19351
11.16063
11.12429
11.08472
11.04236
10.99791
10.95212
10.90578
10.85965
10.81447
10.77108
10.7305
10.69393
10.66284
10.63906
10.62484
10.62253
10.63407
10.66032
10.701
10.75428
10.81692
10.88383
10.94958
11.00821
11.05566
11.09791
11.11325
11.10712
11.0834
11.04574
10.99769
10.94259
10.88344
10.82288
10.76329
10.70693
10.6558
10.61155
10.57513
10.5464
10.52391
10.50521
10.48756
10.46866
10.44701
10.42168
10.39177
10.35591
10.31227
10.2592
10.19613
10.12398
10.04509
9.962695
9.880354
9.801342
9.728222
9.662439
9.603937
9.554393
9.51287
9.478127
9.449447
9.426091
9.406909
9.390603
9.3759
9.361648
9.346884
9.330835
9.312903
9.292686
9.269951
9.244575
9.216481
9.185595
9.151831
9.115103
9.075383
9.032747
8.987407
8.939717
8.890157
8.839262
8.787539
8.735434
8.683346
8.6317
8.581015
8.531879
8.48487
8.440549
8.399026
8.359741
8.320329
8.300171
8.278352
8.255494
8.231808
8.207422
8.182798
8.158574
8.135251
8.113172
8.092698
8.07441
8.059358
8.047828
8.039184
8.032552
8.026821
8.020744
8.013093
8.002812
7.989097
7.971418
7.949512
7.923381
7.893316
7.860003
7.824494
7.786774
7.746625
7.70394
7.659221
7.613259
7.566752
7.520269
7.474269
7.429151
7.385279
7.34299
7.302592
7.264332
7.228322
7.194454
7.162361
7.131535
7.101531
7.072123
7.043331
7.015341
6.988329
6.96222
6.936895
6.91221
6.887905
6.863735
6.839306
6.814237
6.788146
6.760964
6.733162
6.705428
6.678328
6.652179
6.627034
6.602743
6.579119
6.556002
6.533339
6.511069
6.488858
6.465904
6.441471
6.415643
6.388578
6.360367
6.331264
6.302009
6.273227
6.245259
6.218154
6.19183
6.166264
6.141562
6.117883
6.095327
6.073871
6.053377
6.033659
6.01457
5.996058
5.978156
5.960926
5.94439
5.928501
5.913172
5.898335
5.883969
5.870117
5.856885
5.84442
5.833027
5.823423
5.815847
5.810483
5.807343
5.806143
5.806242
5.806705
5.806466
5.804519
5.800069
5.79263
5.782063
5.768565
5.752619
5.734916
5.71628
5.697601
5.679804
5.663813
5.650551
5.640873
5.635562
5.635271
5.640673
5.652256
5.670644
5.696361
5.73014
5.77233
5.82339
5.883375
5.952149
6.029055
6.113378
6.203846
6.299474
6.39788
6.500707
6.608007
6.715776
399.0842
296.2067
400.8276
182.7929
141.8472
100.1211
86.59368
75.34422
66.88219
63.17464
62.62299
62.78935
63.2307
64.57422
65.88231
67.2509
68.50805
69.58229
70.36437
70.81453
70.95814
70.83876
70.4074
69.80025
69.17221
68.50395
67.75066
66.88419
65.90238
64.82027
63.67407
60.03409
59.12291
58.26006
57.40052
56.50658
55.55955
54.56741
53.55837
52.56766
51.62558
50.75296
49.95497
49.21814
48.52296
47.84892
47.1739
46.47938
45.76219
45.04135
44.35718
43.74691
43.2102
42.71926
42.24685
41.77901
41.31672
40.8676
40.43449
40.01157
39.58751
39.15214
38.70316
38.2474
37.7943
37.34969
36.91104
36.47039
36.08546
35.6956
35.30298
34.90824
34.51616
34.13502
33.76933
33.42124
33.09779
32.80917
32.56232
32.36749
32.24813
32.22703
32.28864
32.36715
32.37153
32.23424
31.94467
31.54403
31.09378
30.64453
30.22182
29.82443
29.44349
29.08145
28.74439
28.43571
28.15435
27.89605
27.65647
27.43021
27.2084
26.98052
26.7379
26.47635
26.19516
25.898
25.59103
25.28928
25.00773
24.76021
24.56426
24.43551
24.3841
24.41494
24.52518
24.70537
24.93318
25.15699
25.29942
25.30446
25.17773
24.96802
24.73106
24.52851
24.36407
24.23272
24.11996
24.0046
23.86484
23.69265
23.4951
23.28554
23.0753
22.87005
22.66826
22.46286
22.24432
22.00431
21.73945
21.45249
21.15079
20.84399
20.54168
20.25147
19.97724
19.71828
19.47047
19.2276
18.98291
18.73141
18.47268
18.2087
17.9421
17.67581
17.41298
17.15554
16.90552
16.66571
16.43797
16.22276
16.01956
15.82738
15.64517
15.47238
15.30911
15.15584
15.01347
14.88407
14.76966
14.67133
14.59062
14.52924
14.48767
14.46454
14.45689
14.46025
14.46875
14.4755
14.47314
14.45476
14.4148
14.3497
14.25829
14.14169
14.00292
13.84619
13.67632
13.49818
13.31631
13.13469
12.95662
12.7847
12.62082
12.46615
12.3212
12.18591
12.05989
11.94263
11.8336
11.73238
11.63851
11.55145
11.47048
11.3948
11.32359
11.25629
11.19251
11.1319
11.07419
11.0193
10.96723
10.91791
10.87111
10.82641
10.78335
10.74151
10.70061
10.66051
10.62118
10.58262
10.54489
10.50811
10.4724
10.43777
10.40414
10.37123
10.33869
10.30611
10.27311
10.23941
10.20482
10.16939
10.13335
10.0971
10.06106
10.02556
9.99072
9.956545
9.923026
9.890327
9.858769
9.828846
9.801412
9.778034
9.761029
9.752945
9.755687
9.770069
9.795507
9.829791
9.868905
9.908016
9.942441
9.968596
9.984447
9.988021
9.978928
9.95763
9.925309
9.883819
9.835414
9.782319
9.726448
9.669569
9.6135
9.560091
9.511121
9.467978
9.431083
9.399514
9.371323
9.344391
9.317217
9.289204
9.260348
9.230503
9.198663
9.162913
9.121142
9.072071
9.015733
8.953435
8.887331
8.819951
8.753787
8.69089
8.632586
8.580168
8.534219
8.494305
8.459815
8.430204
8.404937
8.383277
8.364314
8.347067
8.330616
8.314177
8.297112
8.278929
8.259305
8.238048
8.215047
8.190202
8.163399
8.134494
8.103316
8.06973
8.033696
7.995312
7.954837
7.912689
7.869375
7.825344
7.780933
7.736545
7.692536
7.649319
7.607503
7.567896
7.531019
7.496921
7.464834
7.433688
7.403443
7.373426
7.343377
7.313464
7.284101
7.255738
7.228721
7.203236
7.179401
7.157406
7.137617
7.120528
7.106511
7.095633
7.087529
7.081391
7.076094
7.070417
7.063261
7.053783
7.041412
7.025796
7.006743
6.984186
6.958195
6.929009
6.896981
6.862581
6.82642
6.788709
6.749655
6.70983
6.669746
6.629782
6.590247
6.551417
6.513545
6.476881
6.441679
6.408169
6.376461
6.346386
6.317505
6.289342
6.261615
6.234285
6.20754
6.181725
6.157284
6.134308
6.112513
6.091446
6.070561
6.049222
6.026995
6.003844
5.980067
5.955687
5.931219
5.907208
5.884054
5.861928
5.840722
5.820317
5.80073
5.781985
5.763947
5.746162
5.727822
5.708105
5.686527
5.663079
5.638274
5.612799
5.58702
5.561564
5.536861
5.512997
5.489803
5.467132
5.445019
5.42362
5.403066
5.383379
5.364456
5.346111
5.32817
5.310568
5.293355
5.276638
5.260483
5.244832
5.229553
5.21451
5.199617
5.184863
5.170322
5.156166
5.142797
5.130502
5.119596
5.110422
5.103239
5.098071
5.094581
5.092076
5.089648
5.086359
5.081408
5.074225
5.064518
5.05227
5.03771
5.021251
5.003427
4.984831
4.966077
4.947782
4.930544
4.914931
4.901465
4.890596
4.882716
4.878121
4.877118
4.88007
4.887418
4.899559
4.916845
4.939483
4.967556
5.000929
5.039399
5.082626
5.129786
5.181065
5.236114
5.295349
5.355052
368.1944
249.6201
189.9204
164.421
133.0426
108.281
91.8564
84.93285
77.56781
73.29293
69.78979
65.45439
61.33525
57.7143
54.74438
51.80116
47.00116
46.49906
46.50524
47.19745
48.54361
50.2924
52.21796
54.22589
56.21394
58.01211
59.7157
60.86068
61.58631
61.96801
62.04895
61.88149
61.53339
61.07039
60.55327
60.03187
59.50267
58.90756
58.17248
57.29225
56.341
55.41508
54.62001
53.96609
53.42443
52.91405
52.34673
51.66478
50.86801
50.00322
49.1343
48.31964
47.5985
46.98129
46.45043
45.97386
45.5132
45.03228
44.51273
43.97835
43.49842
43.14578
42.92153
42.74483
42.53718
42.26797
41.95166
41.62175
41.29893
40.97051
40.60327
40.16751
39.66763
39.14301
38.62982
38.14324
37.67886
37.23232
36.7991
36.38086
35.9829
35.61071
35.26523
34.95131
34.68103
34.44112
34.24708
34.13839
34.12922
34.20181
34.3693
34.6959
35.21477
35.83235
36.34768
36.57118
36.40537
35.87621
35.10554
34.25421
33.4692
32.78947
32.16109
31.55389
30.96026
30.3891
29.85495
29.36672
28.92473
28.52725
28.17206
27.85114
27.55085
27.25839
26.96753
26.67792
26.39383
26.12129
25.87051
25.66803
25.55572
25.56508
25.70894
25.98052
26.36918
26.85679
27.41769
28.01589
28.55435
28.87931
28.89152
28.62841
28.2213
27.80212
27.41685
27.08549
26.82096
26.59911
26.37557
26.10761
25.77367
25.37853
24.94381
24.49574
24.05544
23.63513
23.23723
22.85668
22.485
22.11535
21.74537
21.37617
21.01087
20.65371
20.30888
19.9795
19.66668
19.36913
19.08372
18.80597
18.5315
18.25904
17.99063
17.72841
17.47305
17.22577
16.98906
16.76676
16.5631
16.38005
16.216
16.06698
15.92791
15.79349
15.6597
15.52417
15.38579
15.24468
15.10295
14.964
14.82993
14.70258
14.58556
14.48162
14.39125
14.31357
14.2466
14.18734
14.13179
14.07531
14.01302
13.9405
13.85453
13.75343
13.6372
13.50723
13.36595
13.21637
13.06168
12.905
12.74919
12.59676
12.44987
12.31026
12.17906
12.05663
11.94266
11.83649
11.73741
11.64493
11.55882
11.47892
11.40487
11.33586
11.27079
11.20858
11.14835
11.08953
11.03169
10.97449
10.91788
10.86208
10.80735
10.75368
10.70074
10.6481
10.59539
10.54242
10.48924
10.43607
10.38326
10.33122
10.2805
10.23169
10.18527
10.14146
10.1002
10.06122
10.02413
9.988523
9.954033
9.920368
9.887465
9.855494
9.824762
9.795542
9.767851
9.741319
9.715251
9.688903
9.661809
9.633684
9.604401
9.574177
9.544213
9.517148
9.496525
9.485499
9.485802
9.497391
9.518101
9.543548
9.568491
9.588495
9.600582
9.602945
9.594749
9.576186
9.547877
9.510617
9.465688
9.41485
9.359915
9.302286
9.243298
9.184475
9.127406
9.073964
9.026015
8.984462
8.948472
8.915846
8.884315
8.85263
8.820811
8.78963
8.759615
8.730029
8.69866
8.662789
8.620566
8.571659
8.517051
8.458479
8.397995
8.337694
8.27939
8.224421
8.173976
8.128341
8.087515
8.051282
8.019321
7.99123
7.966413
7.944062
7.923275
7.903215
7.883179
7.86262
7.841164
7.81863
7.794997
7.7703
7.744513
7.717544
7.68922
7.659296
7.627513
7.593703
7.557866
7.520218
7.481231
7.441529
7.40175
7.36228
7.323096
7.284153
7.245577
7.207833
7.17177
7.13834
7.107952
7.079853
7.052499
7.02467
6.996055
6.966962
6.937735
6.908567
6.879613
6.851054
6.823064
6.795824
6.769655
6.745141
6.723095
6.704322
6.68931
6.677965
6.669527
6.662739
6.656196
6.648667
6.639283
6.627519
6.613068
6.595701
6.575193
6.551351
6.524134
6.493735
6.460518
6.424963
6.387685
6.349389
6.31057
6.271713
6.233136
6.19505
6.157619
6.120978
6.085269
6.050692
6.017532
5.986084
5.95635
5.927834
5.899948
5.872334
5.845011
5.818328
5.792855
5.769106
5.747194
5.726781
5.707312
5.688215
5.668892
5.648711
5.627184
5.604323
5.580674
5.556907
5.533602
5.511229
5.490011
5.46977
5.450144
5.430997
5.41256
5.395135
5.378523
5.361865
5.344106
5.324522
5.302929
5.279619
5.255218
5.230507
5.206085
5.182484
5.159824
5.13784
5.116266
5.095099
5.074503
5.05461
5.035438
5.016883
4.998734
4.980789
4.963005
4.945509
4.928502
4.91212
4.896274
4.880744
4.865305
4.849811
4.83421
4.818547
4.803006
4.787859
4.773398
4.760009
4.748178
4.738377
4.730864
4.725477
4.721586
4.718246
4.714453
4.709342
4.702293
4.692948
4.681211
4.667211
4.651248
4.633726
4.615095
4.595819
4.576354
4.557133
4.53856
4.521029
4.504918
4.490525
4.478014
4.467505
4.459211
4.453502
4.450797
4.45146
4.455776
4.463909
4.475883
4.491511
4.510631
4.53304
4.558874
4.587583
4.619606
4.652138
196.7173
144.3581
220.3834
106.9706
90.9898
76.81734
72.33976
68.94992
65.39484
63.70328
61.64799
58.9487
56.48418
54.01453
51.27555
45.95446
44.79357
43.80051
42.94247
42.22769
41.60803
41.12986
40.84405
40.77831
40.94183
41.30978
41.78305
42.57421
43.72384
45.18363
46.93365
48.92452
50.90704
52.78901
54.4682
55.64215
56.4316
56.84227
56.94987
56.80973
56.46158
55.93383
55.27672
54.58729
54.0044
53.66292
53.57795
53.62021
53.6014
53.43365
53.13398
52.79393
52.55011
52.49338
52.58281
52.67918
52.61588
52.28214
51.68764
50.936
50.17237
49.53612
49.11745
48.92973
48.92323
49.01713
49.0987
49.05393
48.8659
48.66063
48.67215
49.02941
49.55564
49.93351
50.02251
49.84374
49.51691
49.16291
48.83208
48.46662
47.96374
47.26844
46.44621
45.67327
44.95663
44.28615
43.66593
43.10002
42.57824
42.07037
41.58531
41.15514
40.81446
40.5379
40.28003
40.08109
40.01093
40.17103
40.52913
40.97395
41.5422
42.37231
43.44722
44.48281
45.13011
45.20652
44.64346
43.52252
42.05241
40.51743
39.1898
38.06444
37.03844
36.04272
35.064
34.10902
33.2049
32.38166
31.6527
31.01893
30.47711
30.01492
29.60938
29.2375
28.88854
28.56574
28.2799
28.04148
27.86246
27.77218
27.86314
28.20725
28.78966
29.53531
30.39183
31.30741
32.25055
33.20068
34.02092
34.45675
34.38714
33.91174
33.2987
32.71309
32.09619
31.49131
30.99777
30.61859
30.23534
29.74825
29.12497
28.3958
27.61328
26.8308
26.08781
25.4046
24.78518
24.22134
23.69801
23.20213
22.7269
22.269
21.82611
21.39782
20.98558
20.59133
20.21705
19.8638
19.53114
19.21584
18.91302
18.62082
18.34255
18.08102
17.83351
17.59653
17.3718
17.16688
16.99116
16.84822
16.73282
16.63536
16.54455
16.44858
16.33958
16.21467
16.07287
15.91497
15.74484
15.56878
15.39086
15.21318
15.04096
14.87882
14.72807
14.58889
14.46096
14.34341
14.23423
14.13037
14.02813
13.92382
13.81442
13.69812
13.57442
13.44395
13.30805
13.16851
13.02725
12.88618
12.74711
12.61188
12.48236
12.36034
12.24703
12.14256
12.04596
11.95583
11.87102
11.79103
11.71606
11.64656
11.58249
11.52276
11.4657
11.40976
11.35395
11.29767
11.24038
11.18157
11.12114
11.0596
10.99769
10.93569
10.87338
10.81035
10.74628
10.68101
10.61468
10.54771
10.48075
10.41462
10.35037
10.2892
10.23213
10.17963
10.1317
10.08794
10.04781
10.01083
9.976422
9.944126
9.913806
9.885645
9.859938
9.836834
9.816045
9.796656
9.777198
9.756101
9.732375
9.705467
9.674863
9.640413
9.603223
9.566483
9.534999
9.513455
9.504606
9.508637
9.52274
9.541113
9.557332
9.566964
9.567898
9.559369
9.541414
9.514642
9.47961
9.436743
9.386845
9.331339
9.271975
9.210029
9.146474
9.082663
9.020037
8.960608
8.906957
8.860639
8.820633
8.783905
8.74762
8.71075
8.674029
8.638989
8.606711
8.576493
8.545575
8.510587
8.46947
8.422023
8.369276
8.312773
8.25424
8.195519
8.138314
8.083963
8.033276
7.98662
7.944189
7.905952
7.87172
7.84114
7.813586
7.788173
7.763971
7.740172
7.716122
7.691322
7.665507
7.638722
7.611243
7.583353
7.555159
7.526619
7.497545
7.46758
7.436271
7.403271
7.368446
7.331977
7.294461
7.256805
7.219688
7.18327
7.147318
7.11152
7.075803
7.040559
7.00677
6.975788
6.948411
6.923833
6.900048
6.875464
6.849624
6.822674
6.794788
6.766055
6.736562
6.706426
6.675804
6.644937
6.61432
6.584879
6.557921
6.534796
6.516425
6.502848
6.493059
6.485323
6.477781
6.468966
6.458038
6.444686
6.428828
6.410348
6.388968
6.364298
6.336085
6.30443
6.269694
6.232389
6.193249
6.153227
6.113226
6.073763
6.03506
5.997187
5.960168
5.923977
5.888575
5.854013
5.820565
5.788731
5.758715
5.730036
5.701825
5.673566
5.645346
5.617732
5.591645
5.567903
5.546607
5.527181
5.508813
5.490791
5.472448
5.453068
5.432183
5.409836
5.386493
5.36284
5.339585
5.317333
5.296392
5.276242
5.256142
5.23595
5.216242
5.197908
5.181082
5.16476
5.147565
5.128553
5.107496
5.084707
5.060778
5.036439
5.01245
4.989367
4.967344
4.946057
4.925135
4.904542
4.884418
4.86484
4.845779
4.827097
4.808567
4.789988
4.771407
4.753101
4.735415
4.718554
4.702366
4.686479
4.670551
4.654376
4.637882
4.621099
4.604185
4.587371
4.570985
4.555492
4.541528
4.529787
4.520756
4.514389
4.509984
4.506406
4.502473
4.497228
4.490022
4.480509
4.468601
4.454418
4.438227
4.420382
4.401272
4.3813
4.360855
4.340276
4.319832
4.299788
4.280503
4.262288
4.245198
4.229186
4.214402
4.201218
4.190139
4.18165
4.176109
4.173693
4.174423
4.178181
4.184816
4.193991
4.20561
4.219262
4.235248
4.251668
84.31691
60.70852
56.43727
53.29722
51.86867
50.0777
48.53095
47.1353
45.86311
44.08208
40.34732
39.83652
39.36424
38.9292
38.50077
38.07672
37.70392
37.41156
37.21454
37.09493
36.90157
36.56504
36.2896
36.10652
36.02456
36.05564
36.21502
36.52054
36.9883
37.61983
38.42758
39.49661
40.86754
42.4619
44.2022
46.05683
48.10641
49.78404
51.06825
51.9225
52.33559
52.36393
52.09853
51.65988
51.1474
50.62155
50.07513
49.52712
49.08815
49.01387
49.50607
50.57512
52.00706
53.43776
54.52845
55.22814
55.75384
56.38392
57.2705
58.3474
59.40334
60.15552
60.40534
60.14124
59.52596
58.84043
58.40621
58.47212
59.07827
60.09544
61.34475
62.52436
63.30507
63.72306
64.11977
64.93131
66.1557
67.16695
67.45497
67.12654
66.48623
65.77176
65.09089
64.46843
63.75456
62.75346
61.48251
60.1669
58.93343
57.81247
56.76277
55.77878
54.9442
54.27047
53.62314
52.94039
52.31252
51.91302
51.74471
51.62435
51.52705
51.69383
52.1435
52.72929
53.20346
53.71437
54.48561
55.45228
56.19129
56.294
55.70772
54.48839
52.70581
50.52756
48.34766
46.47698
44.81614
43.28599
41.9097
40.62238
39.36556
38.13841
36.97906
35.9051
34.97088
34.22171
33.62262
33.10331
32.61155
32.14996
31.75165
31.44626
31.24844
31.1772
31.29091
31.73083
32.60399
33.75296
34.9646
36.19816
37.37643
38.50053
39.6369
40.64545
41.16497
41.07368
40.57033
40.09476
39.58761
38.78631
37.83732
37.01596
36.39956
35.73198
34.76257
33.52699
32.17857
30.84199
29.5996
28.49127
27.52303
26.6809
25.93848
25.2653
24.64062
24.05759
23.51141
22.99397
22.49973
22.02802
21.57887
21.15385
20.75555
20.38697
20.04551
19.72287
19.41568
19.13135
18.87559
18.63859
18.40789
18.18494
17.98622
17.83304
17.7322
17.66758
17.61655
17.56165
17.48485
17.37324
17.2262
17.04864
16.84636
16.62704
16.39999
16.17023
15.93921
15.71269
15.496
15.29023
15.09599
14.91427
14.74609
14.59132
14.44783
14.31225
14.18084
14.05043
13.91909
13.78631
13.65244
13.51819
13.38441
13.25191
13.12141
12.99378
12.87032
12.75303
12.64436
12.54604
12.45772
12.37702
12.30099
12.22767
12.1567
12.08928
12.0272
11.97098
11.91878
11.86755
11.81499
11.76038
11.70368
11.64444
11.58159
11.51462
11.44428
11.37197
11.29857
11.22418
11.14866
11.07162
10.99268
10.91184
10.82962
10.74708
10.66561
10.58698
10.51325
10.44615
10.3864
10.33378
10.28741
10.2464
10.21005
10.17744
10.14781
10.12097
10.09719
10.07688
10.06007
10.04598
10.03298
10.01865
10.00053
9.977202
9.948139
9.912914
9.871383
9.824841
9.777199
9.734664
9.703648
9.688186
9.688588
9.700626
9.715677
9.725297
9.725682
9.716756
9.699352
9.674163
9.641699
9.601986
9.554729
9.500115
9.439299
9.37406
9.305924
9.236187
9.166083
9.096609
9.029804
8.969292
8.917506
8.872891
8.831012
8.788353
8.744536
8.7013
8.660687
8.623763
8.58944
8.554519
8.515669
8.471217
8.421202
8.366653
8.308939
8.249578
8.190278
8.132611
8.077667
8.025996
7.978025
7.934038
7.894111
7.858121
7.825681
7.795995
7.767968
7.740592
7.71311
7.684903
7.655473
7.624642
7.592762
7.560584
7.528793
7.497666
7.467189
7.437159
7.407034
7.376028
7.343479
7.309041
7.272844
7.235705
7.198905
7.163346
7.129013
7.095299
7.061633
7.027863
6.99444
6.962524
6.933811
6.909444
6.888554
6.868618
6.847507
6.824455
6.799423
6.772473
6.743618
6.712861
6.680261
6.646003
6.610473
6.574461
6.539418
6.507331
6.480223
6.459451
6.445
6.435225
6.427452
6.419068
6.408327
6.394576
6.377963
6.358865
6.33741
6.313301
6.28591
6.254722
6.21978
6.181571
6.140745
6.098257
6.055417
6.013436
5.972937
5.933944
5.896289
5.859826
5.824342
5.789545
5.755233
5.721527
5.6891
5.658537
5.629228
5.600009
5.570328
5.540493
5.511286
5.484001
5.459915
5.439107
5.420558
5.403051
5.385741
5.36802
5.349213
5.328794
5.306661
5.283202
5.25923
5.23553
5.212905
5.191754
5.171157
5.149924
5.1279
5.106034
5.085963
5.068199
5.051404
5.033879
5.014551
4.993215
4.970291
4.946418
4.922301
4.898684
4.876146
4.854766
4.834191
4.813984
4.794008
4.774349
4.755016
4.735897
4.716812
4.697502
4.677833
4.658004
4.638528
4.619985
4.602597
4.586069
4.56983
4.5534
4.536522
4.519131
4.501269
4.483058
4.464727
4.446628
4.429309
4.413564
4.400326
4.390334
4.383629
4.379312
4.375904
4.371967
4.36644
4.358696
4.348471
4.335774
4.32079
4.303799
4.285137
4.265166
4.244272
4.222845
4.201175
4.179387
4.157627
4.136226
4.115521
4.095542
4.076101
4.057254
4.039408
4.023179
4.0092
3.99799
3.989804
3.984601
3.982118
3.981988
3.983739
3.987065
3.991646
3.997692
4.004033
108.0919
45.79901
36.87376
34.95192
33.86102
33.20109
32.85644
32.71222
32.72492
32.85576
32.92528
32.78167
32.64368
32.51448
32.39565
32.28856
32.20301
32.14336
32.10331
32.06779
32.02286
32.0003
32.03776
32.16187
32.37609
32.69638
33.13327
33.69853
34.40687
35.35065
36.58917
38.08127
39.82988
41.83577
43.78943
45.58508
47.14239
48.2968
48.93516
49.03488
48.65209
47.90962
47.02295
46.22998
45.70331
45.50435
45.56918
45.87097
46.48753
47.68815
49.83164
52.95937
56.76166
60.60064
63.74703
66.06936
67.93538
69.7194
71.59407
73.50884
75.41424
77.12674
78.44551
79.16979
79.335
79.30634
79.5061
80.28375
81.53569
83.00102
84.50887
85.85598
86.6475
87.13781
87.66195
88.36933
89.00866
88.7492
87.41613
85.66276
84.16107
83.03326
82.2466
81.52797
80.52941
79.01469
77.1214
75.24141
73.53791
72.0098
70.61767
69.45193
68.61481
67.95506
67.18901
66.1887
65.26473
64.828
64.73384
64.60497