/*--------------------------------*- C++ -*----------------------------------*\
| =========                 |                                                 |
| \\      /  F ield         | foam-extend: Open Source CFD                    |
|  \\    /   O peration     | Version:     3.1                                |
|   \\  /    A nd           | Web:         http://www.extend-project.de       |
|    \\/     M anipulation  |                                                 |
\*---------------------------------------------------------------------------*/
FoamFile
{
    version     2.0;
    format      ascii;
    class       volScalarField;
    location    "19";
    object      p;
}
// * * * * * * * * * * * * * * * * * * * * * * * * * * * * * * * * * * * * * //

dimensions      [1 -1 -2 0 0 0 0];

internalField   nonuniform List<scalar> 
119952
(
5440.51
4421.097
4310.9
4494.149
4675.436
4612.355
4608.188
4626.36
4641.485
4659.927
4679.412
4702.44
4725.105
4745.813
4763.221
4778.045
4792.333
4806.172
4816.837
4804.578
4957.882
4900.769
4897.912
5087.26
5085.778
5131.834
5162.576
5227.758
5390.77
5674.983
3057.284
2956.594
2925.227
2909.561
2918.364
2945.903
2987.634
3044.737
3113.491
3169.148
3239.941
3329.415
3413.257
3496.522
3576.32
3650.899
3718.635
3778.682
3829.393
3877.38
3893.46
3909.112
3922.408
3930.827
3932.773
3928.106
3918.389
3903.443
3887.895
3863.64
3840.715
3825.752
3815.553
3813.7
3822.943
3845.096
3885.393
3972.439
4128.494
4071.162
4118.98
4214.841
4281.319
4315.705
4328.946
4349.707
4372.194
4393.931
4416.525
4439.371
4461.484
4481.871
4500.278
4517.246
4533.776
4550.407
4567.822
4587.871
4616.641
4648.785
4671.579
4731.48
4808.267
4841.553
4868.74
4896.786
4893.334
4812.503
4822.799
4869.2
4900.92
4932.769
4963.187
4991.01
5016.841
5040.766
5062.298
5081.785
5099.167
5114.516
5128.134
5140.17
5150.718
5159.999
5168.211
5175.659
5182.764
5189.95
5197.534
5205.667
5214.372
5223.605
5233.305
5243.402
5253.826
5264.513
5275.362
5286.296
5297.234
5308.094
5318.802
5329.293
5339.505
5349.386
5358.89
5367.977
5376.615
5384.776
5392.439
5399.601
5406.216
5412.402
5418.009
5423.104
5427.661
5431.764
5436.469
5442.204
5447.522
5449.869
5452.13
5454.5
5456.581
5458.461
5460.111
5461.682
5463.167
5464.57
5465.923
5467.25
5468.572
5469.904
5471.263
5472.664
5474.119
5475.629
5477.191
5478.789
5480.394
5481.972
5483.482
5484.882
5486.13
5487.195
5488.05
5488.659
5489.048
5489.205
5489.128
5488.827
5488.319
5487.644
5486.814
5485.883
5484.904
5483.91
5482.949
5482.074
5481.342
5480.796
5480.451
5480.288
5480.224
5480.129
5479.837
5479.114
5477.888
5512.085
5513.636
5512.485
5510.767
5509.339
5507.598
5505.818
5503.956
5502.225
5500.579
5499.166
5498.044
5497.267
5496.903
5496.973
5497.498
5498.475
5499.887
5501.707
5503.897
5506.409
5509.179
5512.143
5515.238
5518.397
5521.547
5524.597
5527.444
5529.994
5532.139
5533.743
5534.646
5534.605
5533.45
5529.401
5523.491
5533.312
5539.801
5544.429
5548.025
5550.947
5553.395
5555.474
5557.251
5558.804
5560.163
5561.366
5562.443
5563.408
5564.286
5565.061
5565.754
5566.362
5566.879
5567.3
5567.622
5567.844
5567.948
5567.953
5567.857
5567.662
5567.37
5566.983
5566.496
5565.909
5565.22
5564.43
5563.534
5562.452
5561.051
5545.655
5535.927
5525.448
5524.188
5522.243
5519.447
5517.015
5514.709
5512.347
5510.043
5507.666
5505.495
5503.355
5501.311
5499.357
5497.496
5495.717
5494.009
5492.346
5490.692
5489.065
5487.436
5485.856
5484.283
5482.719
5481.174
5479.646
5478.137
5476.664
5475.198
5473.787
5472.419
5471.1
5469.838
5468.636
5467.495
5466.421
5465.416
5464.497
5463.644
5462.916
5462.317
5461.869
5461.619
5461.693
5461.547
5460.412
5459.057
5458.073
5457.348
5456.709
5456.182
5455.575
5453.066
5447.73
5450.727
5451.454
5450.534
5449.859
5449.036
5448.04
5446.981
5445.862
5444.686
5443.455
5442.171
5440.84
5439.468
5438.033
5436.556
5435.017
5433.403
5431.698
5429.887
5427.962
5425.922
5423.768
5421.505
5419.137
5416.668
5414.1
5411.433
5408.671
5405.821
5402.891
5399.891
5396.835
5393.733
5390.598
5387.439
5384.264
5381.081
5377.9
5374.722
5371.55
5368.398
5365.275
5362.189
5359.149
5356.164
5353.242
5350.398
5347.646
5344.991
5342.439
5339.994
5337.652
5335.406
5333.246
5331.159
5329.131
5327.149
5325.2
5323.274
5321.361
5319.454
5317.544
5315.626
5313.693
5311.736
5309.753
5307.735
5305.675
5303.55
5301.35
5299.061
5296.656
5294.114
5291.399
5288.461
5285.272
5281.711
5277.65
5272.853
5267.023
5259.993
5253.043
5255.279
5280.782
2532.233
2540.82
2540.993
2536.219
2530.59
2522.25
2516.251
2515.857
2515.43
2472.921
2498.054
2513.123
2533.26
2560.836
2595.737
2637.149
2683.93
2735.314
2787.79
2848.159
2884.272
2939.242
2996.458
3050.884
3101.545
3146.855
3184.654
3212.97
3230.264
3220.306
3202.893
3171.241
3121.054
3054.946
2976.253
2891.19
2809.538
2741.443
2672.327
2630.263
2619.207
2628.337
2655.813
2699.796
2757.035
2825.494
2901.153
2982.08
3071.381
3157.942
3242.573
3323.681
3399.335
3467.829
3528.073
3580.76
3575.097
3608.034
3627.723
3640.053
3644.087
3639.79
3627.828
3609.801
3587.522
3562.094
3536.141
3512.399
3492.62
3479.503
3477.551
3491.129
3523.535
3575.24
3643.078
3715.93
3775.162
3827.926
3887.434
3942.797
3985.158
4016.102
4042.713
4068.581
4094.379
4119.799
4144.201
4166.896
4187.644
4206.717
4224.774
4242.667
4261.282
4281.519
4304.435
4330.924
4361.251
4395.785
4434.912
4476.116
4510.654
4534.866
4549.192
4552.819
4551.617
4560.947
4584.083
4613.39
4643.59
4672.324
4699.037
4723.761
4746.429
4766.831
4784.881
4800.559
4814.183
4826.146
4836.634
4845.847
4854.195
4861.81
4869.135
4876.54
4884.293
4892.575
4901.466
4910.952
4920.944
4931.322
4941.965
4952.741
4963.621
4974.519
4985.421
4996.241
5006.927
5017.43
5027.7
5037.687
5047.344
5056.631
5065.509
5073.953
5081.92
5089.377
5096.305
5102.713
5108.609
5114.031
5119.032
5123.69
5128.112
5132.394
5136.547
5140.289
5143.47
5145.998
5148.184
5150.173
5151.935
5153.543
5155.04
5156.459
5157.831
5159.181
5160.521
5161.869
5163.244
5164.668
5166.156
5167.719
5169.36
5171.069
5172.822
5174.58
5176.293
5177.91
5179.378
5180.655
5181.704
5182.5
5183.036
5183.31
5183.31
5183.073
5182.609
5181.948
5181.103
5180.141
5179.056
5177.911
5176.767
5175.693
5174.766
5174.077
5173.684
5173.623
5173.839
5174.251
5174.705
5175.15
5175.631
5176.726
5237.873
5238.59
5237.377
5235.769
5234.141
5232.28
5230.256
5228.237
5226.296
5224.53
5223.013
5221.827
5221.045
5220.731
5220.924
5221.644
5222.857
5224.515
5226.561
5228.943
5231.614
5234.53
5237.634
5240.855
5244.098
5247.263
5250.251
5252.97
5255.347
5257.286
5258.727
5259.583
5259.763
5259.246
5258.415
5258.558
5261.666
5266.244
5269.9
5272.997
5275.697
5278.001
5279.993
5281.729
5283.248
5284.588
5285.779
5286.844
5287.806
5288.694
5289.494
5290.209
5290.837
5291.369
5291.797
5292.115
5292.321
5292.419
5292.408
5292.303
5292.109
5291.824
5291.441
5290.954
5290.357
5289.657
5288.867
5288.008
5287.143
5286.468
5228.23
5228.106
5223.647
5218.763
5215.341
5212.903
5210.546
5208.028
5205.509
5203.095
5200.787
5198.599
5196.485
5194.513
5192.665
5190.92
5189.253
5187.632
5186.031
5184.43
5182.825
5181.21
5179.6
5177.988
5176.366
5174.766
5173.16
5171.574
5170.024
5168.508
5167.042
5165.629
5164.277
5162.991
5161.771
5160.616
5159.525
5158.507
5157.572
5156.733
5156
5155.382
5154.876
5154.447
5154.02
5153.493
5152.779
5151.939
5151.142
5150.448
5149.832
5149.114
5148.005
5146.226
5144.257
5143.475
5143.693
5143.829
5143.438
5142.638
5141.631
5140.535
5139.391
5138.201
5136.97
5135.686
5134.362
5133.006
5131.6
5130.133
5128.586
5126.936
5125.177
5123.29
5121.292
5119.186
5116.973
5114.659
5112.245
5109.733
5107.119
5104.404
5101.594
5098.698
5095.725
5092.686
5089.592
5086.457
5083.293
5080.108
5076.91
5073.707
5070.508
5067.318
5064.139
5060.978
5057.845
5054.751
5051.712
5048.731
5045.831
5043.021
5040.314
5037.726
5035.257
5032.903
5030.655
5028.495
5026.404
5024.366
5022.365
5020.389
5018.428
5016.474
5014.524
5012.574
5010.618
5008.653
5006.675
5004.679
5002.649
5000.618
4998.556
4996.419
4994.231
4991.974
4989.623
4987.158
4984.554
4981.768
4978.8
4975.597
4972.054
4968.265
4964.603
4961.335
4959.408
4958.878
4959.899
3751.18
4001.477
4258.94
4506.244
4741.273
4948.131
5114.694
5231.873
5291.826
5283.932
5201.368
5090.391
4939.914
4758.848
4554.119
4332.741
4102.046
3869.311
3646.894
3356.517
3164.191
2985.471
2827.175
2691.121
2575.86
2479.256
2399.19
2334.801
2290.194
2249.042
2224.119
2215.368
2216.527
2224.998
2237.364
2250.636
2262.554
2275.549
2276.921
2265.581
2259.556
2251.192
2241.265
2231.356
2223.15
2217.206
2215.752
2216.176
2220.967
2237.431
2260.23
2289.809
2326.312
2368.86
2416.669
2469.986
2475.427
2534.283
2592.496
2651.742
2711.299
2769.098
2822.352
2869.26
2907.513
2934.266
2945.746
2941.212
2918.806
2877.042
2815.946
2735.529
2640.02
2537.824
2439.942
2357.846
2301.233
2271.907
2267.728
2286.16
2323.207
2375.041
2439.218
2513.285
2596.024
2684.866
2777.76
2871.687
2963.768
3051.216
3131.604
3203.56
3265.972
3319.404
3362.928
3394.679
3413.117
3422.098
3422.521
3413.797
3395.889
3370.553
3340.575
3308.425
3275.786
3244.799
3217.85
3198.37
3191.582
3203.165
3235.434
3287.577
3353.244
3429.897
3502.713
3567.197
3628.321
3684.333
3730.306
3766.067
3796.01
3824.166
3851.753
3878.581
3904.099
3927.861
3949.71
3969.76
3988.623
4007.163
4026.215
4046.58
4068.89
4093.81
4121.973
4152.166
4183.866
4216.92
4247.419
4271.249
4289.08
4303.266
4314.493
4328.122
4350.154
4378.601
4408.353
4436.881
4463.507
4488.028
4510.222
4529.888
4546.909
4561.401
4573.854
4584.517
4593.314
4601.354
4609.015
4615.901
4622.765
4630.018
4637.874
4646.461
4655.821
4665.895
4676.542
4687.577
4698.816
4710.08
4721.267
4732.338
4743.336
4754.188
4764.856
4775.304
4785.498
4795.397
4804.964
4814.161
4822.954
4831.312
4839.189
4846.547
4853.354
4859.619
4865.375
4870.676
4875.587
4880.161
4884.44
4888.46
4892.24
4895.67
4898.635
4901.069
4903.138
4904.983
4906.623
4908.107
4909.506
4910.868
4912.211
4913.544
4914.877
4916.226
4917.613
4919.067
4920.609
4922.255
4924.01
4925.865
4927.787
4929.725
4931.614
4933.389
4934.984
4936.352
4937.453
4938.26
4938.765
4938.978
4938.911
4938.586
4938.025
4937.245
4936.269
4935.137
4933.886
4932.574
4931.262
4930.047
4929.035
4928.338
4928.056
4928.253
4928.894
4929.845
4930.906
4931.93
4932.74
4933.126
4932.73
4932.409
4931.574
4930.097
4928.155
4925.935
4923.577
4921.229
4919.022
4917.042
4915.343
4914.038
4913.239
4913.026
4913.443
4914.48
4916.07
4918.115
4920.524
4923.24
4926.237
4929.486
4932.928
4936.468
4939.976
4943.312
4946.362
4949.047
4951.317
4953.146
4954.525
4955.476
4956.09
4956.529
4957.109
4958.299
4960.389
4963.134
4965.93
4968.474
4970.723
4972.716
4974.485
4976.053
4977.442
4978.678
4979.793
4980.813
4981.757
4982.634
4983.445
4984.181
4984.827
4985.372
4985.798
4986.098
4986.271
4986.328
4986.284
4986.153
4985.957
4985.676
4985.293
4984.796
4984.184
4983.474
4982.675
4981.783
4980.679
4979.069
4976.467
4973.587
4971.491
4969.97
4968.456
4966.677
4964.618
4962.385
4960.087
4957.782
4955.526
4953.334
4951.32
4949.436
4947.685
4946.045
4944.479
4942.945
4941.412
4939.858
4938.276
4936.666
4935.033
4933.384
4931.728
4930.05
4928.388
4926.724
4925.102
4923.492
4921.953
4920.48
4919.078
4917.751
4916.496
4915.308
4914.187
4913.137
4912.171
4911.303
4910.536
4909.864
4909.274
4908.743
4908.227
4907.679
4907.062
4906.37
4905.683
4905.096
4904.63
4904.325
4904.262
4904.524
4904.788
4904.181
4902.874
4901.273
4899.828
4898.506
4897.253
4896.016
4894.763
4893.503
4892.258
4890.943
4889.617
4888.266
4886.889
4885.457
4883.932
4882.292
4880.53
4878.581
4876.541
4874.402
4872.157
4869.807
4867.36
4864.825
4862.191
4859.451
4856.612
4853.684
4850.677
4847.598
4844.467
4841.303
4838.113
4834.906
4831.685
4828.461
4825.243
4822.033
4818.834
4815.653
4812.499
4809.38
4806.313
4803.316
4800.406
4797.604
4794.923
4792.376
4789.965
4787.68
4785.504
4783.412
4781.378
4779.38
4777.401
4775.43
4773.458
4771.482
4769.498
4767.507
4765.51
4763.506
4761.496
4759.475
4757.433
4755.388
4753.304
4751.176
4749.035
4746.835
4744.573
4742.239
4739.809
4737.306
4734.684
4731.902
4729.01
4726.144
4723.451
4721.062
4719.36
4718.508
4718.935
2086.206
2125.258
2170.401
2213.803
2282.047
2345.515
2451.336
2577.804
2727.328
2875.841
3035.283
3226.554
3437.127
3662.774
3898.023
4129.107
4346.213
4537.251
4689.695
4791.891
4837.104
4826.869
4762.817
4645.896
4491.018
4308.62
4105.892
3888.326
3661.479
3435.659
3224.232
2861.418
2684.86
2531.466
2391.701
2272.488
2174.185
2092.469
2024.048
1968.586
1926.461
1898.81
1885.068
1883.306
1891.937
1908.423
1928.576
1946.973
1961.222
1971.042
1973.704
1970.447
1959.919
1943.941
1926.687
1913.308
1903.735
1896.74
1892.386
1892.549
1899.45
1913.727
1937.761
1971.809
2013.814
2061.487
2112.754
2168.805
2230.376
2291.22
2350.301
2412.033
2476.62
2539.977
2598.268
2650.503
2695.382
2728.319
2743.489
2739.011
2715.377
2670.614
2601.733
2506.416
2389.481
2263.384
2143.865
2045.653
1980.035
1950.756
1953.533
1981.461
2028.314
2087.606
2157.209
2235.916
2323.455
2419.331
2521.177
2624.894
2726.551
2822.632
2910.299
2987.936
3055.125
3111.25
3155.617
3187.338
3206.144
3213.463
3210.519
3196.703
3171.816
3138.454
3099.554
3057.468
3015.286
2975.98
2939.876
2909.48
2891.864
2896.572
2926.639
2979.386
3052.133
3136.36
3222.553
3303.338
3373.959
3432.555
3479.683
3517.49
3549.476
3578.934
3607.395
3634.91
3661.01
3685.301
3707.71
3728.495
3748.242
3767.572
3786.935
3806.91
3828.127
3851.091
3876.033
3902.669
3930.556
3959.111
3986.474
4010.751
4031.997
4051.377
4069.475
4089.005
4113.105
4141.446
4171.288
4200.507
4227.991
4253.096
4275.401
4294.699
4310.966
4324.426
4335.48
4344.741
4352.122
4358.609
4365.112
4371.163
4377.189
4383.89
4391.419
4399.843
4409.187
4419.404
4430.34
4441.756
4453.423
4465.165
4476.901
4488.432
4499.761
4510.873
4521.746
4532.355
4542.673
4552.667
4562.306
4571.557
4580.392
4588.768
4596.632
4603.953
4610.683
4616.826
4622.432
4627.58
4632.351
4636.803
4640.959
4644.819
4648.359
4651.526
4654.276
4656.597
4658.56
4660.248
4661.716
4663.043
4664.314
4665.58
4666.85
4668.129
4669.421
4670.732
4672.088
4673.529
4675.088
4676.786
4678.637
4680.633
4682.735
4684.873
4686.962
4688.921
4690.665
4692.144
4693.312
4694.14
4694.623
4694.78
4694.635
4694.214
4693.54
4692.625
4691.495
4690.191
4688.768
4687.286
4685.79
4684.395
4683.226
4682.42
4682.179
4682.634
4683.715
4685.175
4686.771
4688.236
4689.281
4689.73
4689.621
4689.221
4688.201
4686.425
4684.125
4681.523
4678.733
4675.994
4673.483
4671.268
4669.338
4667.829
4666.905
4666.673
4667.185
4668.414
4670.246
4672.539
4675.183
4678.133
4681.382
4684.913
4688.658
4692.493
4696.263
4699.803
4702.988
4705.745
4708.048
4709.906
4711.351
4712.44
4713.302
4714.089
4714.989
4716.198
4717.898
4720.035
4722.325
4724.506
4726.492
4728.289
4729.911
4731.364
4732.659
4733.82
4734.888
4735.89
4736.841
4737.746
4738.603
4739.395
4740.097
4740.686
4741.139
4741.446
4741.614
4741.667
4741.63
4741.512
4741.357
4741.099
4740.742
4740.264
4739.664
4738.959
4738.16
4737.25
4736.214
4735.144
4734.152
4733.018
4731.284
4728.919
4726.246
4723.539
4720.85
4718.163
4715.529
4712.991
4710.581
4708.32
4706.238
4704.347
4702.645
4701.089
4699.615
4698.165
4696.69
4695.164
4693.582
4691.951
4690.287
4688.596
4686.886
4685.152
4683.412
4681.678
4679.953
4678.299
4676.702
4675.176
4673.734
4672.382
4671.113
4669.912
4668.77
4667.69
4666.683
4665.77
4664.954
4664.214
4663.56
4662.985
4662.453
4661.853
4661.252
4660.661
4660.114
4659.663
4659.301
4658.988
4658.611
4658.004
4657.14
4656.239
4655.384
4654.706
4653.973
4653.032
4652.041
4650.938
4649.741
4648.541
4647.264
4646.008
4644.721
4643.407
4642.073
4640.693
4639.214
4637.592
4635.795
4633.9
4631.851
4629.68
4627.396
4625.001
4622.521
4619.98
4617.346
4614.588
4611.713
4608.74
4605.68
4602.544
4599.364
4596.169
4592.945
4589.717
4586.461
4583.203
4579.959
4576.726
4573.502
4570.29
4567.102
4563.953
4560.847
4557.812
4554.877
4552.06
4549.378
4546.847
4544.471
4542.241
4540.132
4538.11
4536.14
4534.194
4532.253
4530.306
4528.345
4526.366
4524.372
4522.363
4520.347
4518.324
4516.294
4514.26
4512.233
4510.176
4508.07
4505.973
4503.876
4501.748
4499.587
4497.385
4495.129
4492.856
4490.552
4488.222
4485.906
4483.658
4481.626
4479.874
4478.628
4478.021
4478.131
1977.29
1958.182
1943.242
1906.799
1881.293
1829.033
1813.082
1801.493
1795.522
1796.011
1803.655
1817.484
1842.529
1878.115
1924.625
1986.537
2017.629
2118.07
2231.856
2361.721
2509.57
2680.617
2875.042
3088.17
3315.648
3549.825
3784.267
3998.056
4181.92
4322.814
4409.216
4433.816
4395.318
4300.283
4160.043
3988.974
3798.056
3596.109
3384.12
3164.382
2940.918
2716.354
2497.896
2312.64
2160.266
2031.77
1927.832
1845.709
1778.171
1719.592
1670.477
1633.726
1610.96
1602.568
1607.181
1623.806
1650.7
1678.364
1706.611
1726.319
1738.227
1744.532
1743.269
1725.815
1699.408
1671.327
1655.097
1646.428
1637.573
1627.845
1620.715
1623.424
1636.7
1662.68
1700.44
1747.09
1799.303
1854.447
1913.174
1975.453
2037.365
2099.498
2166.801
2240.205
2312.87
2378.472
2438.151
2494.445
2539.824
2562.518
2560.68
2538.335
2491.556
2413.846
2298.893
2150.521
1986.648
1831.761
1707.92
1628.182
1596.84
1609.38
1651.451
1712.368
1780.922
1857.175
1941.513
2034.557
2137.578
2249.198
2365.021
2479.662
2587.709
2685.261
2770.823
2844.392
2905.485
2953.366
2987.17
3006.767
3013.297
3007.775
2988.735
2955.367
2912.066
2862.596
2808.372
2754.11
2704.316
2656.226
2610.802
2576.111
2569.331
2596.961
2656.637
2740.704
2838.816
2944.467
3043.694
3124.988
3187.244
3234.784
3272.528
3304.49
3333.877
3362.357
3389.973
3416.228
3440.798
3463.654
3485.183
3505.851
3525.864
3545.38
3564.856
3584.823
3605.72
3627.907
3651.508
3676.337
3701.882
3727.258
3751.672
3775.001
3797.774
3820.491
3844.344
3870.973
3900.686
3932.073
3963.234
3992.528
4018.868
4041.832
4061.143
4076.76
4089.157
4098.89
4106.626
4112.532
4117.309
4122.25
4127.214
4132.117
4137.977
4144.959
4153.076
4162.288
4172.553
4183.734
4195.523
4207.614
4219.772
4231.836
4243.696
4255.333
4266.74
4277.895
4288.767
4299.328
4309.543
4319.373
4328.79
4337.771
4346.276
4354.243
4361.599
4368.28
4374.289
4379.708
4384.661
4389.261
4393.584
4397.639
4401.378
4404.745
4407.712
4410.286
4412.478
4414.305
4415.809
4417.058
4418.159
4419.243
4420.393
4421.591
4422.815
4424.056
4425.302
4426.595
4428
4429.566
4431.309
4433.244
4435.378
4437.683
4440.067
4442.41
4444.601
4446.518
4448.137
4449.394
4450.251
4450.704
4450.79
4450.549
4450.01
4449.201
4448.127
4446.832
4445.333
4443.7
4442.04
4440.355
4438.775
4437.427
4436.541
4436.286
4436.9
4438.349
4440.331
4442.547
4444.607
4446.094
4446.817
4446.809
4446.128
4444.659
4442.502
4439.9
4437.012
4433.913
4430.748
4427.752
4425.161
4422.949
4421.162
4420.023
4419.677
4420.207
4421.585
4423.658
4426.22
4429.114
4432.296
4435.79
4439.589
4443.624
4447.785
4451.892
4455.747
4459.211
4462.204
4464.699
4466.685
4468.236
4469.443
4470.462
4471.479
4472.567
4473.788
4475.261
4477.011
4478.897
4480.76
4482.515
4484.134
4485.605
4486.926
4488.105
4489.18
4490.174
4491.117
4492.032
4492.939
4493.83
4494.671
4495.426
4496.055
4496.524
4496.821
4496.961
4496.977
4496.909
4496.779
4496.591
4496.371
4496.057
4495.623
4495.058
4494.376
4493.597
4492.705
4491.711
4490.68
4489.49
4487.852
4485.739
4483.341
4480.825
4478.247
4475.624
4472.969
4470.313
4467.714
4465.23
4462.92
4460.83
4458.993
4457.397
4455.98
4454.65
4453.309
4451.897
4450.392
4448.798
4447.135
4445.428
4443.685
4441.915
4440.123
4438.311
4436.492
4434.703
4432.98
4431.319
4429.749
4428.283
4426.925
4425.652
4424.442
4423.286
4422.184
4421.137
4420.181
4419.317
4418.489
4417.761
4417.138
4416.552
4416.023
4415.485
4414.986
4414.524
4414.16
4413.9
4413.689
4413.448
4413.138
4412.792
4412.386
4411.723
4410.882
4409.79
4408.583
4407.515
4406.392
4405.141
4403.885
4402.602
4401.313
4399.978
4398.619
4397.297
4395.973
4394.564
4392.997
4391.245
4389.332
4387.271
4385.067
4382.724
4380.256
4377.731
4375.239
4372.64
4369.851
4366.916
4363.886
4360.757
4357.544
4354.317
4351.082
4347.808
4344.54
4341.249
4337.948
4334.675
4331.417
4328.165
4324.922
4321.7
4318.506
4315.358
4312.281
4309.302
4306.45
4303.75
4301.221
4298.871
4296.693
4294.658
4292.718
4290.824
4288.939
4287.046
4285.131
4283.187
4281.213
4279.212
4277.191
4275.162
4273.128
4271.091
4269.052
4267.018
4264.97
4262.888
4260.803
4258.752
4256.7
4254.641
4252.578
4250.473
4248.477
4246.518
4244.652
4242.814
4241.068
4239.484
4238.203
4237.334
4236.983
4237.296
2160.809
2113.63
2067.094
2008.48
1966.555
1890.365
1852.503
1816.458
1782.173
1748.975
1717.45
1687.348
1658.85
1632.528
1607.609
1523.859
1507.614
1495.691
1489.008
1488.172
1494.019
1507.489
1529.917
1562.042
1604.848
1661.184
1727.53
1814.676
1917.738
2038.428
2179.57
2344.209
2531.443
2739.62
2964.12
3192.836
3417.499
3624.219
3800.68
3933.626
4010.428
4021.74
3964.533
3847.106
3684.61
3496.535
3298.571
3100.682
2899.819
2692.267
2479.445
2267.034
2066.769
1892.513
1749.677
1637.055
1551.395
1486.351
1433.953
1387.771
1350.909
1325.568
1311.552
1312.224
1326.849
1353.352
1393.821
1431.835
1467.102
1499.891
1513.908
1520.67
1524.825
1501.433
1462.049
1416.483
1391.928
1381.068
1371.992
1359.416
1344.577
1337.479
1342.277
1368.348
1413.243
1469.707
1530.616
1587.509
1646.944
1711.356
1776.399
1843.426
1918.029
2001.087
2087.154
2161.578
2230.964
2303.813
2365.945
2399.318
2403.596
2386.224
2340.311
2256.39
2117.008
1922.034
1698.817
1485.765
1323.924
1235.131
1216.316
1237.223
1300.431
1389.006
1467.07
1545.948
1632.508
1731.027
1843.923
1967.444
2096.884
2227.257
2350.4
2460.145
2554.969
2636.381
2704.305
2757.151
2793.549
2813.729
2819.707
2812.59
2788.359
2744.404
2688.275
2625.565
2556.67
2489.48
2428.729
2367.68
2297.228
2242.692
2223.37
2243.044
2309.784
2418.512
2546.205
2676.106
2793.007
2885.701
2951.624
2998.361
3033.992
3063.866
3091.575
3118.754
3145.361
3170.867
3195.044
3218.034
3239.704
3260.661
3281.115
3300.863
3319.897
3338.566
3357.369
3377.022
3397.924
3420.323
3443.957
3468.147
3492.582
3517.349
3542.851
3568.923
3595.78
3624.841
3656.861
3690.962
3725.212
3757.346
3785.538
3809.465
3829.022
3844.117
3855.511
3863.799
3869.723
3874.074
3877.339
3880.291
3883.462
3887.037
3891.826
3898.037
3905.676
3914.742
3925.135
3936.594
3948.754
3961.248
3973.79
3986.199
3998.389
4010.353
4022.099
4033.608
4044.832
4055.716
4066.217
4076.302
4085.949
4095.137
4103.83
4111.951
4119.387
4126.027
4131.869
4137.042
4141.737
4146.124
4150.309
4154.298
4157.981
4161.252
4164.116
4166.59
4168.674
4170.359
4171.644
4172.595
4173.368
4174.184
4175.203
4176.359
4177.6
4178.856
4180.11
4181.364
4182.655
4184.109
4185.82
4187.817
4190.1
4192.646
4195.325
4197.973
4200.472
4202.63
4204.428
4205.791
4206.662
4207.062
4207.05
4206.674
4205.979
4205.039
4203.846
4202.474
4200.797
4198.884
4196.932
4195.014
4193.234
4191.656
4190.532
4189.969
4190.678
4192.689
4195.465
4198.366
4201.043
4202.995
4203.891
4203.872
4203.121
4201.612
4199.232
4196.128
4192.64
4189.072
4185.466
4181.933
4178.797
4176.166
4174.088
4172.696
4172.177
4172.635
4174.119
4176.458
4179.348
4182.53
4185.953
4189.684
4193.73
4198.022
4202.517
4207.082
4211.552
4215.501
4218.746
4221.384
4223.532
4225.207
4226.577
4227.768
4228.881
4229.965
4231.108
4232.404
4233.892
4235.501
4237.125
4238.695
4240.168
4241.508
4242.706
4243.776
4244.742
4245.621
4246.457
4247.305
4248.21
4249.147
4250.048
4250.867
4251.554
4252.054
4252.338
4252.438
4252.41
4252.279
4252.125
4251.957
4251.773
4251.517
4251.14
4250.619
4249.962
4249.182
4248.223
4247.159
4246.295
4245.292
4243.69
4241.609
4239.245
4236.659
4233.905
4231.06
4228.192
4225.321
4222.524
4219.877
4217.463
4215.338
4213.541
4212.047
4210.775
4209.6
4208.382
4207.036
4205.54
4203.913
4202.193
4200.42
4198.608
4196.777
4194.938
4193.071
4191.169
4189.294
4187.494
4185.773
4184.161
4182.685
4181.344
4180.095
4178.895
4177.738
4176.627
4175.535
4174.538
4173.671
4172.693
4171.874
4171.258
4170.722
4170.164
4169.66
4169.276
4168.862
4168.575
4168.465
4168.447
4168.4
4168.211
4167.877
4167.383
4166.666
4165.821
4164.982
4163.884
4162.769
4161.571
4160.347
4159.138
4157.868
4156.6
4155.223
4153.751
4152.436
4151.209
4149.921
4148.446
4146.745
4144.849
4142.781
4140.574
4138.183
4135.725
4133.266
4130.8
4128.137
4125.267
4122.251
4119.133
4115.925
4112.627
4109.351
4106.086
4102.756
4099.382
4096.018
4092.686
4089.386
4086.106
4082.828
4079.549
4076.278
4073.046
4069.855
4066.731
4063.695
4060.783
4058.038
4055.488
4053.141
4051.004
4049.051
4047.208
4045.408
4043.605
4041.771
4039.893
4037.968
4036.003
4033.998
4031.969
4029.945
4027.926
4025.893
4023.851
4021.822
4019.798
4017.715
4015.62
4013.638
4011.683
4009.748
4007.887
4006.173
4004.425
4002.705
4001.042
3999.519
3998.14
3996.98
3996.088
3995.563
3995.435
3996.026
2260.231
2186.451
2107.134
2022.806
1946.019
1881.82
1825.121
1774.807
1730.067
1687.024
1580.165
1543.128
1507.789
1473.882
1441.185
1409.882
1379.952
1351.257
1324.374
1300.442
1279.042
1261.549
1247.893
1238.799
1234.977
1236.94
1245.408
1261.936
1288.129
1325.704
1376.071
1439.221
1517.663
1611.592
1724.384
1859.14
2019.814
2201.558
2402.754
2616.558
2832.807
3041.314
3230.607
3389.093
3504.058
3562.279
3553.047
3473.141
3330.128
3142.799
2929.912
2720.02
2531.009
2345.764
2149.373
1950.596
1762.587
1589.737
1433.46
1300.678
1202.077
1143.851
1107.617
1075.094
1033.672
1003.401
991.8331
991.9603
1004.085
1030.058
1074.204
1144.942
1201.944
1226.091
1276.69
1305.69
1320.579
1331.087
1287.037
1209.496
1156.862
1144.597
1121.775
1094.331
1087.735
1075.127
1049.867
1051.076
1072.609
1120.337
1182.319
1259.61
1325.629
1387.916
1454.416
1510.799
1568.203
1656.028
1767.002
1873.048
1944.176
2020.122
2122.032
2213.844
2252.311
2256.908
2251.333
2214.627
2149.581
1983.489
1713.33
1405.443
1113.326
888.4033
766.4268
750.589
842.317
951.1643
1067.478
1152.405
1239.373
1321.499
1411.06
1531.121
1676.818
1827.289
1975.936
2114.774
2237.124
2342.236
2432.178
2507.259
2565.699
2604.865
2624.863
2629.651
2621.17
2591.347
2535.424
2465.137
2385.133
2295.947
2220.06
2162.183
2099.493
1987.924
1889.307
1871.137
1889.737
1992.039
2114.581
2252.336
2409.889
2557.197
2665.414
2729.952
2771.125
2801.856
2827.621
2852.304
2877.468
2902.578
2927.134
2950.409
2972.009
2992.567
3013.596
3034.713
3054.789
3073.405
3090.816
3107.371
3124.29
3142.188
3162.263
3184.566
3207.947
3232.173
3257.507
3285.194
3314.074
3343.159
3374.446
3409.195
3447.051
3485.577
3521.626
3552.677
3578.582
3598.516
3612.514
3623.282
3631.028
3635.333
3637.576
3638.664
3638.977
3639.716
3641.822
3645.365
3650.617
3657.601
3666.348
3676.756
3688.456
3700.997
3713.906
3726.833
3739.577
3752.085
3764.399
3776.543
3788.456
3800.088
3811.383
3822.275
3832.713
3842.677
3852.158
3861.128
3869.51
3877.128
3883.775
3889.421
3894.269
3898.624
3902.737
3906.782
3910.781
3914.526
3917.804
3920.605
3923.007
3925.044
3926.658
3927.735
3928.282
3928.578
3929.032
3930.031
3931.331
3932.656
3933.867
3935.033
3936.202
3937.31
3938.588
3940.205
3942.207
3944.624
3947.504
3950.672
3953.815
3956.654
3959.046
3961.043
3962.533
3963.44
3963.774
3963.668
3963.226
3962.481
3961.435
3960.024
3958.4
3956.434
3954.19
3951.949
3949.794
3947.748
3945.921
3944.624
3944.205
3945.027
3947.082
3950.098
3953.702
3957.218
3960.002
3961.702
3962.167
3961.152
3959.076
3956.123
3952.387
3948.166
3943.866
3939.788
3935.787
3932.034
3928.876
3926.442
3924.825
3924.08
3924.33
3925.863
3928.555
3931.922
3935.475
3939.168
3943.135
3947.364
3951.826
3957.095
3962.665
3967.668
3971.763
3975.171
3977.971
3980.404
3982.386
3983.94
3985.167
3986.149
3987.079
3988.12
3989.318
3990.663
3992.098
3993.562
3995.044
3996.415
3997.613
3998.667
3999.607
4000.428
4001.164
4001.874
4002.645
4003.556
4004.569
4005.555
4006.466
4007.243
4007.785
4008.048
4008.092
4007.986
4007.766
4007.523
4007.352
4007.238
4007.086
4006.815
4006.388
4005.794
4005.037
4004.056
4003.274
4002.598
4001.601
3999.91
3997.718
3995.199
3992.419
3989.436
3986.353
3983.285
3980.252
3977.284
3974.44
3971.857
3969.663
3967.892
3966.512
3965.42
3964.442
3963.385
3962.123
3960.63
3958.938
3957.123
3955.269
3953.398
3951.514
3949.618
3947.675
3945.664
3943.697
3941.827
3940.036
3938.378
3936.911
3935.624
3934.444
3933.285
3932.151
3931.06
3929.955
3928.908
3928.001
3926.777
3925.804
3925.274
3924.845
3924.383
3923.852
3923.481
3923.105
3922.883
3922.958
3923.2
3923.409
3923.502
3923.491
3923.196
3922.573
3921.698
3920.714
3919.558
3918.234
3916.84
3915.612
3914.466
3913.232
3911.945
3910.55
3908.782
3907.411
3906.356
3905.313
3903.988
3902.353
3900.497
3898.478
3896.346
3894.149
3891.868
3889.412
3886.708
3883.807
3880.818
3877.726
3874.533
3871.245
3867.961
3864.618
3861.213
3857.802
3854.261
3850.774
3847.401
3844.086
3840.794
3837.496
3834.179
3830.861
3827.583
3824.347
3821.156
3818.047
3815.058
3812.246
3809.645
3807.261
3805.144
3803.293
3801.588
3799.898
3798.179
3796.409
3794.579
3792.685
3790.745
3788.774
3786.778
3784.76
3782.726
3780.676
3778.629
3776.631
3774.626
3772.518
3770.368
3768.549
3766.95
3765.297
3763.56
3761.882
3760.242
3758.673
3757.223
3755.986
3754.946
3754.161
3753.604
3753.387
3753.448
3754.286
1972.329
1886.839
1726.476
1660.769
1599.802
1545.49
1496.626
1452.043
1410.676
1372.034
1335.662
1300.115
1265.656
1232.109
1199.549
1167.948
1137.389
1108.012
1080.207
1054.591
1032.183
1013.381
998.1154
986.4822
978.9343
976.778
981.249
993.6124
1015.651
1049.3
1095.007
1152.565
1224.192
1312.917
1421.112
1551.267
1704.743
1879.097
2069.884
2268.875
2465.298
2648.294
2808.533
2936.995
3023.318
3054.334
3020.569
2920.212
2753.775
2534.465
2287.547
2060.505
1881.652
1719.053
1555.719
1379.385
1205.198
1053.806
924.2708
801.527
720.3474
718.367
727.1012
716.8705
682.419
651.8636
627.9744
610.6585
651.1034
710.293
777.4491
930.4637
1021.665
1017.861
1009.51
1066.523
1154.741
1247.025
1130.078
899.1475
800.0958
877.6983
934.5276
965.946
936.2143
828.9524
679.6308
631.5063
709.243
825.5855
959.8434
1026.224
1036.285
1077.404
1186.181
1278.789
1323.876
1379.357
1494.605
1662.496
1736.636
1803.251