/*--------------------------------*- C++ -*----------------------------------*\
| =========                 |                                                 |
| \\      /  F ield         | foam-extend: Open Source CFD                    |
|  \\    /   O peration     | Version:     3.1                                |
|   \\  /    A nd           | Web:         http://www.extend-project.de       |
|    \\/     M anipulation  |                                                 |
\*---------------------------------------------------------------------------*/
FoamFile
{
    version     2.0;
    format      ascii;
    class       volScalarField;
    location    "19";
    object      pd;
}
// * * * * * * * * * * * * * * * * * * * * * * * * * * * * * * * * * * * * * //

dimensions      [1 -1 -2 0 0 0 0];

internalField   nonuniform List<scalar> 
119952
(
5471.205
4458.511
4347.694
4527.675
4706.149
4643.706
4640.153
4658.938
4674.676
4693.731
4713.829
4737.47
4760.748
4782.07
4800.09
4815.527
4830.429
4844.881
4856.159
4844.513
4993.17
4936.319
4933.72
5117.922
5116.44
5162.496
5193.238
5258.42
5421.464
5705.677
3347.77
3243.539
3208.904
3189.972
3195.507
3219.774
3258.242
3312.078
3377.564
3431.072
3515.847
3605.322
3689.163
3772.428
3852.226
3926.805
3994.542
4054.588
4105.299
4183.943
4200.023
4215.675
4228.97
4237.39
4239.335
4234.668
4224.951
4210.006
4194.457
4170.203
4147.278
4132.314
4122.116
4120.262
4129.505
4151.659
4191.956
4279.001
4435.056
4377.724
4425.543
4521.403
4587.882
4622.267
4635.508
4656.27
4678.756
4700.494
4723.087
4745.933
4768.047
4788.433
4806.84
4823.809
4840.338
4856.97
4874.384
4894.433
4923.203
4955.347
4978.142
5038.042
5114.83
5148.115
5175.302
5203.348
5199.896
5119.066
5129.361
5175.762
5207.482
5239.331
5269.749
5297.572
5323.403
5347.328
5368.86
5388.348
5405.73
5421.079
5434.696
5446.732
5457.28
5466.562
5474.774
5482.222
5489.327
5496.513
5504.096
5512.23
5520.934
5530.168
5539.867
5549.964
5560.389
5571.075
5581.924
5592.859
5603.796
5614.656
5625.365
5635.855
5646.067
5655.948
5665.452
5674.539
5683.177
5691.338
5699.001
5706.163
5712.779
5718.965
5724.572
5729.666
5734.223
5738.326
5743.032
5748.767
5754.084
5756.432
5758.693
5761.063
5763.144
5765.024
5766.673
5768.244
5769.729
5771.133
5772.486
5773.813
5775.134
5776.466
5777.825
5779.227
5780.681
5782.192
5783.754
5785.351
5786.957
5788.535
5790.045
5791.444
5792.693
5793.758
5794.612
5795.221
5795.61
5795.768
5795.691
5795.39
5794.882
5794.207
5793.376
5792.446
5791.466
5790.473
5789.511
5788.637
5787.904
5787.358
5787.014
5786.85
5786.786
5786.691
5786.399
5785.676
5784.45
5787.991
5789.543
5788.391
5786.674
5785.245
5783.504
5781.724
5779.862
5778.131
5776.485
5775.072
5773.95
5773.173
5772.809
5772.879
5773.405
5774.382
5775.794
5777.613
5779.804
5782.316
5785.085
5788.049
5791.144
5794.304
5797.453
5800.503
5803.35
5805.9
5808.046
5809.649
5810.552
5810.512
5809.356
5805.307
5799.397
5809.218
5815.707
5820.335
5823.932
5826.853
5829.301
5831.38
5833.157
5834.71
5836.069
5837.272
5838.35
5839.315
5840.193
5840.967
5841.661
5842.268
5842.785
5843.206
5843.529
5843.75
5843.854
5843.859
5843.763
5843.568
5843.277
5842.889
5842.403
5841.815
5841.126
5840.336
5839.44
5838.359
5836.957
5852.217
5842.49
5832.011
5830.751
5828.806
5826.01
5823.577
5821.271
5818.909
5816.606
5814.229
5812.058
5809.917
5807.873
5805.92
5804.058
5802.279
5800.571
5798.908
5797.254
5795.628
5793.999
5792.418
5790.845
5789.282
5787.736
5786.208
5784.7
5783.227
5781.76
5780.35
5778.981
5777.663
5776.401
5775.198
5774.058
5772.984
5771.979
5771.059
5770.207
5769.478
5768.88
5768.432
5768.182
5768.255
5768.11
5766.974
5765.619
5764.635
5763.911
5763.271
5762.745
5762.137
5759.628
5754.293
5757.29
5758.017
5757.097
5756.421
5755.599
5754.603
5753.543
5752.425
5751.249
5750.017
5748.734
5747.403
5746.03
5744.596
5743.119
5741.58
5739.966
5738.261
5736.449
5734.524
5732.485
5730.331
5728.068
5725.7
5723.231
5720.662
5717.995
5715.234
5712.384
5709.454
5706.454
5703.397
5700.296
5697.161
5694.002
5690.826
5687.643
5684.463
5681.285
5678.112
5674.961
5671.838
5668.752
5665.712
5662.726
5659.805
5656.96
5654.209
5651.554
5649.002
5646.556
5644.214
5641.968
5639.808
5637.721
5635.693
5633.711
5631.762
5629.837
5627.923
5626.016
5624.107
5622.189
5620.255
5618.299
5616.316
5614.298
5612.238
5610.112
5607.913
5605.623
5603.219
5600.676
5597.962
5595.023
5591.835
5588.274
5584.212
5579.416
5573.585
5566.555
5559.605
5561.841
5587.345
3066.075
3071.381
3068.287
3060.245
3051.349
3039.742
3030.475
3026.814
3023.283
2994.078
3019.21
3034.279
3054.416
3081.992
3116.893
3158.306
3205.086
3256.47
3339.602
3399.972
3436.084
3491.055
3548.271
3602.697
3653.357
3698.668
3736.467
3764.782
3782.077
3772.119
3754.705
3723.054
3672.867
3606.758
3528.066
3443.002
3361.351
3293.255
3224.139
3182.076
3171.02
3180.149
3207.625
3251.609
3308.848
3377.307
3452.966
3533.893
3623.194
3709.754
3794.385
3875.494
3951.148
4019.641
4079.885
4132.573
4188.222
4221.159
4240.848
4253.178
4257.212
4252.915
4240.953
4222.926
4200.647
4175.219
4149.266
4125.524
4105.745
4092.628
4090.676
4104.254
4136.66
4188.365
4256.203
4329.055
4388.287
4441.051
4500.559
4555.92
4598.276
4629.212
4655.821
4681.698
4707.503
4732.924
4757.326
4780.021
4800.769
4819.842
4837.899
4855.792
4874.407
4894.644
4917.56
4944.049
4974.376
5008.91
5048.037
5089.241
5123.779
5147.991
5162.317
5165.944
5164.742
5174.072
5197.208
5226.515
5256.715
5285.449
5312.162
5336.886
5359.554
5379.956
5398.006
5413.684
5427.308
5439.271
5449.759
5458.972
5467.32
5474.935
5482.26
5489.665
5497.418
5505.7
5514.591
5524.077
5534.069
5544.447
5555.09
5565.866
5576.746
5587.644
5598.546
5609.366
5620.052
5630.555
5640.825
5650.812
5660.469
5669.756
5678.634
5687.078
5695.045
5702.502
5709.43
5715.838
5721.734
5727.156
5732.157
5736.815
5741.237
5745.519
5749.672
5753.415
5756.595
5759.123
5761.309
5763.298
5765.06
5766.668
5768.165
5769.584
5770.956
5772.306
5773.646
5774.994
5776.37
5777.793
5779.281
5780.844
5782.485
5784.194
5785.947
5787.705
5789.418
5791.035
5792.503
5793.78
5794.829
5795.625
5796.161
5796.435
5796.435
5796.198
5795.734
5795.073
5794.228
5793.266
5792.181
5791.036
5789.892
5788.818
5787.891
5787.202
5786.809
5786.748
5786.964
5787.376
5787.83
5788.275
5788.756
5789.851
5789.686
5790.401
5789.155
5787.546
5785.939
5784.093
5782.069
5780.05
5778.109
5776.343
5774.825
5773.639
5772.858
5772.544
5772.737
5773.457
5774.67
5776.327
5778.373
5780.755
5783.427
5786.342
5789.447
5792.667
5795.911
5799.076
5802.064
5804.783
5807.159
5809.099
5810.54
5811.395
5811.575
5811.059
5810.228
5810.37
5813.479
5818.056
5821.713
5824.81
5827.51
5829.814
5831.806
5833.541
5835.061
5836.401
5837.591
5838.657
5839.618
5840.506
5841.306
5842.022
5842.649
5843.182
5843.61
5843.927
5844.133
5844.231
5844.221
5844.116
5843.922
5843.637
5843.254
5842.766
5842.169
5841.469
5840.68
5839.82
5838.955
5838.28
5841.355
5841.231
5836.772
5831.888
5828.466
5826.028
5823.671
5821.153
5818.632
5816.215
5813.903
5811.715
5809.607
5807.638
5805.79
5804.045
5802.378
5800.757
5799.156
5797.554
5795.943
5794.319
5792.709
5791.1
5789.488
5787.891
5786.285
5784.699
5783.149
5781.633
5780.167
5778.753
5777.401
5776.115
5774.896
5773.741
5772.65
5771.632
5770.697
5769.858
5769.125
5768.507
5768
5767.571
5767.143
5766.616
5765.903
5765.064
5764.267
5763.573
5762.957
5762.239
5761.13
5759.351
5757.382
5756.598
5756.814
5756.951
5756.562
5755.763
5754.756
5753.66
5752.516
5751.326
5750.095
5748.811
5747.487
5746.131
5744.724
5743.257
5741.71
5740.06
5738.301
5736.414
5734.417
5732.31
5730.09
5727.772
5725.364
5722.857
5720.244
5717.529
5714.719
5711.823
5708.848
5705.807
5702.714
5699.582
5696.418
5693.233
5690.035
5686.832
5683.633
5680.443
5677.264
5674.103
5670.97
5667.876
5664.836
5661.855
5658.956
5656.146
5653.439
5650.851
5648.382
5646.028
5643.779
5641.617
5639.527
5637.49
5635.49
5633.514
5631.553
5629.599
5627.649
5625.699
5623.743
5621.778
5619.8
5617.804
5615.774
5613.743
5611.681
5609.541
5607.351
5605.094
5602.745
5600.283
5597.679
5594.893
5591.925
5588.722
5585.179
5581.39
5577.728
5574.46
5572.533
5572.003
5573.024
4532.165
4778.921
5033.118
5277.154
5508.915
5712.502
5875.802
5989.714
6046.399
6036.357
5967.774
5856.798
5706.32
5525.254
5320.526
5099.147
4868.453
4635.717
4413.301
4153.579
3961.254
3782.534
3624.237
3488.183
3372.922
3276.319
3196.253
3131.864
3087.256
3046.105
3021.182
3012.43
3013.589
3022.061
3034.426
3047.699
3059.617
3072.612
3073.984
3062.644
3056.618
3048.254
3038.328
3028.419
3020.213
3014.269
3012.815
3013.238
3018.029
3034.493
3057.292
3086.872
3123.374
3165.922
3213.732
3267.049
3333.802
3392.658
3450.871
3510.117
3569.674
3627.473
3680.727
3727.635
3765.888
3792.641
3804.121
3799.587
3777.181
3735.417
3674.321
3593.904
3498.395
3396.199
3298.317
3216.22
3159.608
3130.282
3126.103
3144.535
3181.582
3233.416
3297.593
3371.66
3454.399
3543.241
3636.135
3730.062
3822.143
3909.591
3989.979
4061.935
4124.347
4177.779
4221.303
4253.054
4271.492
4280.473
4280.896
4272.172
4254.264
4228.928
4198.95
4166.8
4134.161
4103.174
4076.224
4056.745
4049.957
4061.54
4093.809
4145.952
4211.618
4288.271
4361.08
4425.532
4486.463
4541.799
4587.746
4624.088
4654.347
4682.54
4710.128
4736.956
4762.474
4786.236
4808.085
4828.135
4846.998
4865.538
4884.59
4904.955
4927.264
4952.184
4980.346
5010.54
5042.241
5075.295
5105.794
5129.624
5147.455
5161.641
5172.868
5186.497
5208.529
5236.976
5266.728
5295.256
5321.882
5346.403
5368.597
5388.263
5405.284
5419.776
5432.229
5442.892
5451.689
5459.729
5467.39
5474.276
5481.14
5488.393
5496.248
5504.835
5514.196
5524.27
5534.917
5545.952
5557.191
5568.455
5579.642
5590.713
5601.711
5612.563
5623.231
5633.679
5643.873
5653.772
5663.339
5672.536
5681.329
5689.687
5697.564
5704.922
5711.729
5717.994
5723.75
5729.051
5733.962
5738.536
5742.815
5746.835
5750.615
5754.045
5757.01
5759.444
5761.513
5763.358
5764.998
5766.482
5767.881
5769.243
5770.586
5771.918
5773.251
5774.599
5775.987
5777.441
5778.984
5780.63
5782.385
5784.24
5786.162
5788.1
5789.989
5791.762
5793.357
5794.725
5795.828
5796.635
5797.14
5797.353
5797.286
5796.961
5796.4
5795.62
5794.644
5793.512
5792.262
5790.949
5789.637
5788.422
5787.41
5786.713
5786.431
5786.626
5787.25
5788.075
5789.042
5790.107
5791.052
5791.495
5791.104
5790.778
5789.927
5788.449
5786.519
5784.308
5781.952
5779.604
5777.397
5775.417
5773.718
5772.413
5771.614
5771.398
5771.802
5772.835
5774.432
5776.487
5778.899
5781.615
5784.612
5787.861
5791.303
5794.843
5798.351
5801.687
5804.737
5807.422
5809.692
5811.521
5812.9
5813.851
5814.465
5814.904
5815.484
5816.674
5818.764
5821.507
5824.302
5826.845
5829.096
5831.09
5832.86
5834.428
5835.817
5837.053
5838.168
5839.188
5840.132
5841.009
5841.82
5842.555
5843.201
5843.745
5844.171
5844.471
5844.645
5844.702
5844.659
5844.528
5844.332
5844.051
5843.668
5843.171
5842.558
5841.849
5841.05
5840.158
5839.054
5837.444
5834.842
5831.962
5829.866
5828.345
5826.831
5825.052
5822.99
5820.69
5818.285
5815.988
5813.828
5811.698
5809.694
5807.811
5806.06
5804.42
5802.854
5801.318
5799.766
5798.203
5796.625
5795.032
5793.407
5791.759
5790.103
5788.425
5786.763
5785.099
5783.477
5781.867
5780.328
5778.855
5777.453
5776.126
5774.87
5773.678
5772.554
5771.505
5770.541
5769.677
5768.91
5768.229
5767.626
5767.095
5766.588
5766.051
5765.437
5764.745
5764.058
5763.471
5763.005
5762.7
5762.637
5762.899
5763.161
5762.551
5761.243
5759.645
5758.203
5756.881
5755.628
5754.391
5753.137
5751.877
5750.631
5749.316
5747.991
5746.641
5745.264
5743.826
5742.279
5740.643
5738.896
5736.956
5734.916
5732.773
5730.512
5728.16
5725.72
5723.196
5720.566
5717.826
5714.987
5712.059
5709.052
5705.973
5702.842
5699.676
5696.484
5693.277
5690.058
5686.836
5683.618
5680.408
5677.209
5674.027
5670.869
5667.75
5664.682
5661.687
5658.779
5655.978
5653.298
5650.751
5648.337
5646.038
5643.86
5641.772
5639.749
5637.755
5635.776
5633.805
5631.833
5629.852
5627.866
5625.876
5623.883
5621.881
5619.871
5617.85
5615.808
5613.763
5611.679
5609.551
5607.409
5605.208
5602.946
5600.613
5598.184
5595.68
5593.058
5590.276
5587.384
5584.519
5581.825
5579.436
5577.735
5576.882
5577.31
3103.411
3130.908
3172.577
3225.459
3293.704
3387.828
3493.649
3620.116
3769.641
3918.153
4077.596
4268.866
4479.44
4705.086
4940.336
5171.419
5388.525
5579.564
5732.008
5834.204
5879.417
5869.182
5805.129
5688.208
5533.33
5350.933
5148.204
4930.639
4703.791
4477.972
4266.544
3965.043
3788.485
3635.091
3495.326
3376.113
3277.81
3196.094
3127.673
3072.211
3030.086
3002.435
2988.693
2986.931
2995.562
3012.048
3032.201
3050.598
3064.847
3074.667
3077.329
3074.072
3063.544
3047.566
3030.312
3016.933
3007.36
3000.365
2996.011
2996.174
3003.075
3017.352
3041.386
3075.434
3117.439
3165.112
3216.379
3272.43
3334.001
3394.845
3453.926
3515.658
3580.245
3643.602
3701.893
3754.128
3799.007
3831.944
3847.114
3842.635
3819.001
3774.239
3705.357
3610.04
3493.099
3366.973
3247.413
3149.218
3083.635
3054.376
3057.157
3085.086
3131.939
3191.23
3260.833
3339.54
3427.08
3522.955
3624.802
3728.518
3830.176
3926.257
4013.924
4091.561
4158.75
4214.875
4259.242
4290.963
4309.769
4317.088
4314.144
4300.328
4275.441
4242.079
4203.178
4161.091
4118.906
4079.595
4043.487
4013.09
3995.476
4000.188
4030.259
4083.005
4155.74
4239.88
4325.255
4400.398
4468.328
4530.29
4582.186
4621.058
4653.1
4682.559
4711.019
4738.535
4764.634
4788.925
4811.335
4832.119
4851.86
4871.157
4890.362
4910.273
4931.582
4954.682
4979.656
5006.294
5034.181
5062.736
5090.099
5114.376
5135.622
5155.002
5173.1
5192.629
5216.73
5245.071
5274.913
5304.132
5331.616
5356.721
5379.026
5398.324
5414.591
5428.051
5439.105
5448.366
5455.747
5462.234
5468.735
5474.784
5480.799
5487.495
5495.033
5503.466
5512.812
5523.029
5533.965
5545.381
5557.048
5568.79
5580.526
5592.057
5603.386
5614.498
5625.371
5635.98
5646.298
5656.292
5665.931
5675.182
5684.017
5692.393
5700.257
5707.577
5714.308
5720.451
5726.057
5731.205
5735.976
5740.428
5744.584
5748.444
5751.984
5755.151
5757.901
5760.222
5762.185
5763.873
5765.341
5766.667
5767.929
5769.183
5770.454
5771.744
5773.044
5774.357
5775.713
5777.153
5778.713
5780.411
5782.261
5784.251
5786.334
5788.469
5790.571
5792.543
5794.29
5795.769
5796.937
5797.765
5798.248
5798.405
5798.26
5797.839
5797.165
5796.25
5795.12
5793.816
5792.393
5790.911
5789.415
5788.019
5786.847
5786.02
5785.611
5785.426
5786.392
5788.235
5790.285
5791.849
5792.904
5793.354
5793.245
5792.845
5791.824
5790.048
5787.749
5785.146
5782.357
5779.618
5777.104
5774.86
5772.602
5770.904
5770.091
5770.174
5770.8
5772.037
5773.869
5776.162
5778.804
5781.744
5784.989
5788.526
5792.28
5796.118
5799.888
5803.428
5806.613
5809.37
5811.673
5813.531
5814.976
5816.065
5816.926
5817.711
5818.598
5819.76
5821.375
5823.541
5825.913
5828.127
5830.117
5831.914
5833.536
5834.989
5836.282
5837.437
5838.501
5839.504
5840.461
5841.37
5842.226
5842.996
5843.633
5844.219
5844.713
5845.063
5845.239
5845.292
5845.255
5845.137
5844.982
5844.724
5844.367
5843.889
5843.289
5842.583
5841.785
5840.875
5839.838
5838.768
5837.771
5836.554
5834.309
5831.823
5829.338
5827.039
5824.461
5821.775
5819.138
5816.601
5814.2
5811.941
5809.857
5807.934
5806.218
5804.67
5803.203
5801.747
5800.276
5798.775
5797.204
5795.576
5793.912
5792.221
5790.511
5788.777
5787.037
5785.303
5783.578
5781.924
5780.327
5778.8
5777.356
5776.003
5774.727
5773.467
5772.295
5771.216
5770.267
5769.39
5768.578
5767.839
5767.185
5766.608
5766.075
5765.475
5764.876
5764.286
5763.739
5763.288
5762.926
5762.613
5762.233
5761.585
5760.696
5759.804
5758.989
5758.329
5757.598
5756.656
5755.664
5754.558
5753.347
5752.115
5750.821
5749.576
5748.318
5747.028
5745.696
5744.303
5742.789
5741.167
5739.389
5737.519
5735.476
5733.305
5731.021
5728.626
5726.145
5723.603
5720.967
5718.209
5715.336
5712.364
5709.302
5706.155
5702.93
5699.696
5696.508
5693.328
5690.086
5686.828
5683.584
5680.351
5677.127
5673.915
5670.727
5667.577
5664.466
5661.398
5658.422
5655.632
5652.991
5650.471
5648.096
5645.865
5643.755
5641.733
5639.763
5637.818
5635.878
5633.931
5631.97
5629.991
5627.996
5625.988
5623.971
5621.946
5619.915
5617.881
5615.856
5613.799
5611.694
5609.597
5607.501
5605.373
5603.212
5601.009
5598.753
5596.477
5594.17
5591.835
5589.508
5587.207
5585.14
5583.394
5582.211
5581.641
5581.756
3245.636
3214.809
3188.845
3163.705
3138.199
3116.596
3100.644
3089.056
3083.085
3083.573
3091.217
3105.047
3130.091
3165.677
3212.188
3274.1
3366.504
3466.945
3580.731
3710.596
3858.445
4029.492
4223.917
4437.045
4664.523
4898.7
5133.142
5346.931
5530.795
5671.689
5758.091
5782.691
5744.193
5649.158
5508.918
5337.849
5146.931
4944.984
4732.995
4513.257
4289.793
4065.229
3846.771
3661.515
3509.141
3380.645
3276.707
3194.584
3127.046
3068.467
3019.352
2982.601
2959.835
2951.442
2956.056
2972.68
2999.575
3027.239
3055.486
3075.194
3087.102
3093.407
3092.144
3074.689
3048.282
3020.201
3003.971
2995.302
2986.447
2976.718
2969.582
2972.278
2985.548
3011.535
3049.308
3095.964
3148.177
3203.32
3262.047
3324.325
3386.237
3448.371
3515.675
3589.078
3661.742
3727.339
3787.016
3843.309
3888.685
3911.352
3909.441
3887.102
3840.36
3762.649
3647.506
3497.952
3332.594
3178.154
3055.692
2976.786
2945.576
2958.114
3000.166
3061.029
3129.536
3205.785
3290.176
3383.354
3486.433
3598.062
3713.888
3828.53
3936.577
4034.131
4119.694
4193.264
4254.357
4302.237
4336.041
4355.637
4362.162
4356.627
4337.581
4304.22
4260.934
4211.463
4157.225
4102.915
4053.031
4004.852
3959.41
3924.739
3918.011
3945.687
4005.339
4088.875
4179.57
4254.218
4358.767
4462.908
4534.847
4583.604
4621.372
4653.319
4682.653
4711.152
4738.822
4765.096
4789.662
4812.47
4833.45
4851.755
4871.545
4892.735
4913.496
4933.683
4954.592
4976.779
5000.38
5025.209
5050.752
5076.122
5100.526
5123.858
5146.642
5169.365
5193.219
5219.848
5249.561
5280.948
5312.109
5341.403
5367.743
5390.707
5410.018
5425.635
5438.032
5447.765
5455.5
5461.404
5466.175
5471.088
5475.957
5480.848
5486.792
5493.827
5501.95
5511.163
5521.428
5532.609
5544.396
5556.482
5568.641
5580.709
5592.57
5604.208
5615.615
5626.77
5637.642
5648.201
5658.406
5668.221
5677.642
5686.637
5695.15
5703.118
5710.474
5717.155
5723.164
5728.583
5733.535
5738.136
5742.459
5746.514
5750.253
5753.62
5756.587
5759.161
5761.353
5763.177
5764.61
5765.759
5766.867
5768.045
5769.257
5770.465
5771.69
5772.93
5774.176
5775.466
5776.852
5778.277
5779.863
5781.821
5784.132
5786.542
5788.941
5791.284
5793.476
5795.393
5797.012
5798.268
5799.122
5799.554
5799.614
5799.378
5798.867
5798.073
5797.001
5795.706
5794.208
5792.575
5790.914
5789.229
5787.638
5785.994
5782.82
5781.919
5783.555
5786.714
5789.132
5791.413
5793.481
5794.968
5795.691
5795.683
5795.002
5793.533
5791.373
5788.758
5785.578
5779.609
5775.319
5773.369
5773.215
5771.754
5769.99
5768.849
5768.517
5769.068
5770.448
5772.449
5774.94
5777.855
5781.124
5784.659
5788.463
5792.498
5796.659
5800.766
5804.614
5808.036
5810.761
5812.882
5814.942
5816.868
5818.187
5819.119
5819.386
5819.96
5821.293
5823.616
5825.825
5827.771
5829.635
5831.39
5833.009
5834.48
5835.795
5836.907
5837.572
5838.457
5839.586
5840.821
5841.81
5842.703
5843.527
5844.21
5844.854
5845.374
5845.693
5845.836
5845.852
5845.784
5845.654
5845.466
5845.246
5844.932
5844.498
5843.933
5843.251
5842.472
5841.576
5840.545
5839.142
5837.025
5835.796
5834.378
5832.191
5829.696
5827.113
5824.333
5821.185
5818.511
5816.237
5814.049
5811.79
5809.7
5807.862
5806.262
5804.77
5803.289
5801.946
5800.659
5799.248
5797.672
5796.01
5794.303
5792.56
5790.79
5788.998
5787.186
5785.367
5783.578
5781.855
5780.192
5778.584
5776.857
5775.439
5774.268
5773.259
5772.156
5771.055
5770.006
5769.051
5768.19
5767.364
5766.636
5766.013
5765.427
5764.898
5764.36
5763.861
5763.399
5763.035
5762.775
5762.562
5762.316
5761.999
5761.65
5761.244
5760.585
5759.752
5758.663
5757.444
5756.209
5754.87
5753.619
5752.363
5751.081
5749.791
5748.585
5747.442
5746.165
5744.84
5743.434
5741.869
5740.119
5738.207
5736.146
5733.941
5731.593
5729.103
5726.48
5723.719
5721.096
5718.551
5715.77
5712.757
5709.605
5706.185
5702.694
5699.639
5696.612
5693.411
5690.124
5686.823
5683.55
5680.292
5677.04
5673.796
5670.574
5667.373
5664.12
5660.811
5657.953
5655.271
5652.621
5650.096
5647.746
5645.568
5643.533
5641.593
5639.699
5637.814
5635.921
5634.006
5632.062
5630.088
5628.086
5626.061
5624.019
5621.984
5619.952
5617.914
5615.821
5613.69
5611.608
5609.557
5607.597
5605.573
5603.515
5601.451
5599.34
5597.306
5595.072
5592.697
5590.848
5589.514
5588.286
5587.075
5586.208
5585.858
5586.171
3668.444
3609.716
3559.731
3510.636
3468.711
3423.177
3385.316
3349.27
3314.986
3281.787
3250.262
3220.16
3191.663
3165.341
3140.421
3117.984
3101.739
3089.816
3083.133
3082.297
3088.144
3101.614
3124.042
3156.167
3198.973
3255.309
3321.655
3408.801
3511.863
3632.553
3773.695
3938.334
4125.568
4333.745
4558.245
4786.961
5011.624
5218.344
5394.805
5527.751
5604.553
5615.865
5558.658
5441.231
5278.735
5090.66
4892.696
4694.807
4493.944
4286.392
4073.57
3861.159
3660.893
3486.635
3343.792
3231.164
3145.505
3080.466
3028.073
2981.892
2945.025
2919.663
2905.588
2906.175
2920.771
2947.278
2987.774
3025.847
3061.175
3093.979
3107.992
3114.714
3118.651
3094.828
3055.442
3010.133
2985.836
2974.986
2965.722
2952.011
2934.099
2926.001
2931.968
2960.881
3007.05
3063.52
3124.291
3180.825
3239.9
3304.31
3369.789
3437.215
3511.828
3594.778
3680.487
3754.628
3823.994
3896.723
3957.713
3988.438
3993.075
3977.913
3932.347
3845.142
3689.237
3483.055
3271.289
3073.826
2916.283
2826.742
2805.731
2821.647
2874.216
2953.343
3037.968
3133.777
3226.092
3324.797
3437.488
3560.855
3690.239
3820.613
3943.958
4054.024
4148.885
4230.162
4297.581
4350.467
4387.396
4407.624
4413.357
4406.004
4381.931
4338.342
4282.38
4219.647
4150.543
4082.515
4020.575
3957.66
3884.615
3829.113
3809.299
3829.159
3894.179
3974.042
4028.295
4197.055
4368.165
4478.304
4545.249
4591.362
4626.48
4656.847
4685.426
4712.835
4739.439
4764.855
4787.945
4805.01
4825.223
4849.597
4874.117
4894.849
4913.989
4932.658
4951.45
4971.087
4991.962
5014.253
5037.752
5061.986
5086.561
5111.434
5136.967
5163.046
5189.904
5218.966
5250.986
5285.087
5319.337
5351.471
5379.663
5403.59
5423.147
5438.242
5449.633
5457.911
5463.792
5467.903
5470.3
5473.008
5476.643
5480.965
5485.939
5492.159
5499.796
5508.852
5519.196
5530.643
5542.832
5555.364
5567.914
5580.323
5592.514
5604.477
5616.217
5627.668
5638.668
5649.534
5660.189
5670.402
5680.072
5689.261
5697.954
5706.076
5713.511
5720.152
5725.994
5731.166
5735.857
5740.241
5744.429
5748.419
5752.101
5755.362
5758.133
5760.447
5762.537
5764.369
5765.751
5766.713
5767.486
5768.302
5769.321
5770.477
5771.714
5772.903
5773.004
5773.184
5774.657
5777.422
5779.846
5781.936
5784.222
5786.768
5789.447
5792.092
5794.573
5796.541
5797.853
5799.209
5800.461
5801.135
5801.158
5800.781
5800.081
5799.08
5797.045
5794.384
5792.866
5792.16
5790.941
5789.135
5787.353
5785.701
5784.047
5783.126
5783.758
5784.606
5784.506
5787.968
5793.344
5796.854
5797.935
5797.894
5796.692
5790.04
5784.125
5782.768
5784.517
5782.738
5779.034
5775.549
5772.745
5770.244
5768.16
5766.409
5765.512
5766.063
5767.992
5770.55
5773.454
5776.628
5780.056
5783.803
5787.85
5792.136
5796.58
5800.724
5802.761
5805.453
5809.78
5814.787
5817.319
5818.908
5818.126
5817.453
5819.643
5823.097
5825.144
5826.526
5828.016
5829.626
5831.246
5832.804
5834.275
5835.615
5836.71
5837.208
5838.091
5839.125
5840.392
5841.406
5842.325
5843.253
5844.16
5844.987
5845.679
5846.179
5846.463
5846.563
5846.535
5846.404
5846.25
5846.082
5845.898
5845.642
5845.265
5844.744
5844.086
5843.287
5842.193
5840.273
5837.312
5836.803
5837.047
5835.67
5833.367
5830.782
5828.016
5825.033
5822.088
5819.33
5816.609
5813.983
5811.556
5809.139
5807.103
5805.609
5804.539
5803.647
5802.477
5801.127
5799.643
5798.033
5796.317
5794.544
5792.732
5790.9
5789.046
5786.881
5784.526
5782.685
5781.301
5779.853
5778.26
5776.746
5775.365
5774.159
5773.006
5771.862
5770.75
5769.658
5768.662
5767.795
5766.818
5765.999
5765.383
5764.847
5764.289
5763.785
5763.401
5762.987
5762.7
5762.59
5762.565
5762.418
5761.385
5759.151
5758.857
5759.435
5759.637
5759.079
5758.002
5756.883
5755.671
5754.438
5753.229
5751.959
5750.677
5749.221
5747.722
5746.407
5745.225
5744.022
5742.57
5740.87
5738.973
5736.902
5734.662
5731.961
5727.342
5722.272
5721.706
5721.568
5719.351
5716.368
5713.229
5709.85
5705.926
5702.405
5699.562
5696.75
5693.5
5690.143
5686.811
5683.511
5680.231
5676.953
5673.673
5670.402
5667.146
5663.67
5660.393
5657.357
5654.697
5652.135
5649.612
5647.266
5645.129
5643.175
5641.33
5639.496
5637.506
5635.637
5633.844
5632.057
5630.125
5628.119
5626.081
5623.991
5621.742
5619.658
5617.712
5615.887
5613.905
5611.823
5609.727
5607.741
5605.77
5603.774
5601.362
5597.071
5594.742
5593.911
5594.424
5593.59
5592.259
5591.099
5590.206
5589.68
5589.552
5590.149
4008.48
3964.513
3885.197
3800.869
3724.082
3659.883
3603.184
3552.869
3508.129
3465.087
3419.54
3382.503
3347.164
3313.257
3280.56
3249.257
3219.327
3190.632
3163.749
3139.816
3118.417
3100.924
3087.268
3078.174
3074.352
3076.315
3084.783
3101.311
3127.504
3165.079
3215.446
3278.596
3357.038
3450.967
3563.759
3698.515
3859.189
4040.933
4242.129
4455.933
4672.182
4880.689
5069.982
5228.468
5343.433
5401.654
5392.422
5312.516
5169.503
4982.174
4769.287
4559.394
4370.383
4185.139
3988.746
3789.967
3601.947
3429.017
3272.186
3137.114
3035.787
2977.552
2942.679
2912.573
2872.306
2841.981
2829.307
2824.629
2826.615
2845.737
2889.423
2962.072
3026.234
3059.721
3113.249
3141.54
3150.052
3135.803
3077.945
3012.743
2980.979
2975.65
2948.586
2887.39
2781.62
2735.252
2780.038
2868.559
2908.499
2954.542
3006.347
3044.294
3091.517
3189.113
3287.625
3347.421
3403.425
3481.946
3563.776
3669.739
3764.414
3845.641
3936.976
3987.557
4028.905
4073.683
4074.574
3998.647
3798.238
3609.235
3455.605
3229.042
2943.707
2711.658
2571.631
2453.711
2175.552
2257.223
2670.307
2964.491
3076.67
3158.353
3244.419
3350.888
3471.073
3626.518
3802.966
3951.806
4072.697
4168.918
4258.359
4341.392
4404.416
4443.87
4462.409
4465.623
4457.124
4428.39
4374.105
4304.323
4224.029
4129.229
4002.63
3904.989
3873.056
3759.196
3620.102
3558.052
3409.813
3220.395
3442.238
3898.914
4211.614
4384.853
4491.861
4559.095
4607.15
4640.758
4666.871
4691.555
4716.67
4740.877
4757.082
4766.166
4797.114
4828.583
4852.489
4873.784
4893.886
4912.59
4929.875
4943.854
4957.302
4976.921
4999.729
5022.812
5046.092
5070.813
5096.71
5124.555
5153.448
5182.533
5213.82
5248.569
5286.425
5324.951
5361.001
5392.051
5417.952
5437.863
5451.708
5461.334
5459.143
5453.477
5458.016
5471.065
5477.562
5479.007
5481.113
5484.633
5489.664
5496.171
5505.099
5515.934
5527.807
5540.369
5553.278
5566.206
5578.947
5591.421
5603.278
5614.82
5626.905
5639.126
5650.704
5661.642
5672.085
5682.048
5691.525
5700.47
5708.836
5716.468
5723.135
5728.789
5733.639
5737.993
5742.107
5746.152
5750.127
5753.537
5756.054
5759.169
5762.166
5764.401
5766.023
5767.099
5767.644
5767.926
5768.278
5768.408
5767.221
5768.282
5770.89
5773.945
5775.415
5776.482
5777.758
5779.486
5781.528
5783.944
5786.765
5788.939
5789.769
5792.58
5796.826
5800.139
5801.877
5802.789
5803.122
5802.99
5801.747
5797.145
5795.616
5796.26
5797.193
5795.649
5793.416
5791.202
5789.109
5787.098
5785.165
5781.112
5760.905
5757.356
5769.086
5786.093
5791.637
5795.154
5797.372
5789.977
5781.738
5783.577
5792.449
5794.435
5791.53
5787.482
5783.115
5777.638
5772.238
5768.724
5767.21
5765.681
5764.148
5763.32
5763.5
5765.106
5767.893
5771.282
5774.836
5778.528
5782.488
5786.636
5790.285
5788.465
5785.164
5795.363
5807.884
5814.099
5816.926
5819.143
5817.671
5817.602
5819.365
5823.548
5826.231
5827.49
5828.693
5830.035
5831.449
5832.712
5833.412
5834.727
5836.469
5837.964
5838.977
5839.801
5840.537
5841.246
5841.991
5842.851
5843.868
5844.895
5845.835
5846.617
5847.158
5847.421
5847.467
5847.361
5847.141
5846.898
5846.727
5846.613
5846.461
5846.19
5845.762
5845.155
5844.146
5839.971
5827.545
5829.295
5837.083
5838.949
5837.086
5834.571
5831.79
5828.803
5825.693
5822.341
5818.124
5814.955
5812.671
5811.001
5808.994
5807.219
5805.777
5804.685
5803.744
5802.74
5801.495
5800.003
5798.31
5796.494
5794.597
5792.125
5789.824
5788.078
5786.749
5784.991
5783.031
5781.158
5779.352
5777.634
5775.992
5774.625
5773.615
5772.625
5771.524
5770.434
5769.329
5768.281
5767.374
5766.149
5765.175
5764.643
5764.209
5763.739
5763.21
5762.851
5762.48
5762.257
5762.332
5762.55
5762.45
5759.073
5755.072
5754.776
5754.154
5755.747
5759.084
5758.894
5757.606
5756.212
5754.985
5753.839
5752.604
5751.308
5749.892
5748.105
5746.732
5745.68
5744.65
5743.346
5741.726
5739.87
5737.832
5735.28
5726.595
5718.924
5717.631
5722.016
5722.754
5720.179
5717.08
5713.692
5708.799
5702.257
5699.824
5699.007
5696.979
5693.631
5690.149
5686.776
5683.461
5680.169
5676.871
5673.554
5670.235
5666.933
5663.446
5660.125
5657.208
5654.392
5651.619
5649.018
5646.63
5644.479
5642.431
5640.48
5638.969
5637.485
5635.771
5633.943
5632.049
5630.087
5627.513
5624.631
5622.666
5621.468
5619.959
5617.98
5615.982
5613.974
5611.85
5609.647
5607.379
5600.867
5596.27
5594.781
5597.885
5599.106
5597.875
5596.401
5595.23
5594.292
5593.534
5592.978
5592.761
5592.822
5593.654
3964.983
3910.151
3811.101
3745.394
3684.427
3630.115
3581.251
3536.668
3495.301
3456.659
3420.287
3384.74
3350.281
3316.734
3284.174
3252.573
3222.014
3192.637
3164.832
3139.216
3116.808
3098.006
3082.74
3071.107
3063.559
3061.403
3065.874
3078.237
3100.276
3133.925
3179.631
3237.19
3308.817
3397.542
3505.737
3635.892
3789.368
3963.722
4154.509
4353.5
4549.923
4732.919
4893.158
5021.62
5107.943
5138.959
5105.194
5004.837
4838.397
4619.069
4372.08
4144.918
3965.952
3803.208
3639.623
3462.884
3287.719
3132.552
2979.903
2756.114
2562.393
2562.715
2630.8
2712.816
2732.465
2704.853
2664.374
2569.173
2406.14
2290.179
2340.258
2557.332
2871.261
3039.533
3044.678
3072.412
2905.197
2749.108
2814.977
2786.288
2697.833
2790.365
2705.803
1878.036
1732.493
2184.554
2640.223
2681.653
2744.973
2594.089
2212.045
2499.914
2954.002
3133.102
3244.769
3289.195