/*--------------------------------*- C++ -*----------------------------------*\
| =========                 |                                                 |
| \\      /  F ield         | foam-extend: Open Source CFD                    |
|  \\    /   O peration     | Version:     3.1                                |
|   \\  /    A nd           | Web:         http://www.extend-project.de       |
|    \\/     M anipulation  |                                                 |
\*---------------------------------------------------------------------------*/
FoamFile
{
    version     2.0;
    format      ascii;
    class       volScalarField;
    location    "6";
    object      omega;
}
// * * * * * * * * * * * * * * * * * * * * * * * * * * * * * * * * * * * * * //

dimensions      [0 0 -1 0 0 0 0];

internalField   nonuniform List<scalar> 
119952
(
126.1215
151.6044
157.8957
151.0702
142.1034
144.9918
148.7087
152.6009
156.5847
160.6371
164.779
169.0545
173.468
178.0335
182.7757
187.7251
192.9214
198.4274
204.3974
212.0554
185.8213
185.3629
187.7429
163.6278
161.715
160.7903
159.9539
158.4058
154.5904
164.9878
220.444
165.355
148.3321
138.7098
129.3129
120.1481
111.7535
104.3701
97.94514
91.0513
64.53144
52.88674
47.85566
45.32127
43.64079
42.25343
40.99605
39.82876
38.72341
30.5628
28.51842
26.92937
25.83162
25.09436
24.5764
24.18291
23.85983
23.57602
23.31223
22.81436
22.16029
21.53876
21.04054
20.66375
20.37211
20.12928
19.90473
19.69222
19.97592
19.81331
19.43832
19.07459
18.78785
18.56207
18.38456
18.25052
18.15078
18.07703
18.02239
17.9815
17.9504
17.92606
17.90617
17.88877
17.87186
17.85252
17.82473
17.77681
17.72127
17.6649
17.55867
17.44261
17.39262
17.35666
17.34605
17.43306
18.08353
19.20597
19.34438
19.32417
19.25262
19.16004
19.05957
18.95813
18.85942
18.76522
18.67636
18.59344
18.51773
18.45133
18.39367
18.34373
18.30138
18.26678
18.2401
18.22174
18.21298
18.21687
18.23445
18.26486
18.30902
18.37463
18.46228
18.56424
18.67566
18.79481
18.91642
19.0369
19.15699
19.27577
19.39119
19.5026
19.60957
19.71159
19.80865
19.90078
19.98726
20.06885
20.14595
20.21899
20.28855
20.35543
20.42041
20.484
20.5455
20.59965
20.62699
20.68632
20.80148
20.92498
21.04912
21.1687
21.28322
21.3933
21.49967
21.60358
21.70639
21.80931
21.91345
22.01981
22.12925
22.24245
22.36003
22.48255
22.61024
22.74347
22.88246
23.02731
23.1783
23.33557
23.4992
23.66921
23.84564
24.02852
24.21787
24.41381
24.61648
24.82604
25.04273
25.26678
25.49854
25.73837
25.98672
26.24411
26.51112
26.78841
27.07671
27.37688
27.68959
28.01422
28.35155
28.70235
29.06728
29.44669
29.83997
30.23864
30.56916
32.1994
35.38616
38.06637
40.26666
42.08519
43.61345
44.90651
46.03182
47.0436
47.9811
48.87187
49.73604
50.58866
51.44107
52.30099
53.16985
54.04963
54.94611
55.87433
56.82769
57.80593
58.81029
59.84158
60.90043
61.98734
63.10275
64.24688
65.4199
66.62223
67.85191
69.10599
70.38497
71.68444
72.97763
74.16003
74.2647
73.22926
72.26632
71.34093
70.44311
69.55953
68.68204
67.80845
66.93636
66.06527
65.19578
64.32901
63.46633
62.60939
61.76001
60.91968
60.0897
59.27122
58.46515
57.67242
56.8938
56.1298
55.38064
54.64644
53.92737
53.22347
52.53478
51.86124
51.20269
50.55891
49.9296
49.31455
48.71549
48.13257
47.56657
37.26918
36.92423
36.48415
35.92334
35.34054
34.75255
34.17202
33.6164
33.09492
32.61071
32.1631
31.75033
31.36943
31.01655
30.6879
30.37988
30.08918
29.81288
29.54846
29.29382
29.0472
28.80721
28.57276
28.34301
28.11734
27.89525
27.67634
27.46032
27.247
27.03626
26.82805
26.62231
26.419
26.21812
26.01967
25.82368
25.63021
25.43932
25.25111
25.06569
24.8833
24.70428
24.52933
24.36005
24.19975
24.05176
23.91555
23.78596
23.66115
23.54108
23.42543
23.31485
23.20937
23.11064
23.08196
22.97702
22.8678
22.74993
22.62019
22.48033
22.33229
22.17851
22.02197
21.86541
21.71103
21.56049
21.41496
21.27517
21.14147
21.0139
20.89227
20.77642
20.6662
20.56093
20.46014
20.36332
20.26998
20.17998
20.09298
20.00839
19.92586
19.84511
19.7658
19.68788
19.61112
19.5355
19.46085
19.38702
19.31388
19.24127
19.16907
19.09714
19.02537
18.95367
18.88196
18.81014
18.73815
18.66592
18.59337
18.52045
18.4471
18.37327
18.29892
18.22402
18.14853
18.07244
17.99574
17.91842
17.84052
17.76204
17.68299
17.60337
17.5232
17.4425
17.36131
17.27966
17.19754
17.11494
17.03187
16.94828
16.86412
16.77933
16.69386
16.60763
16.52052
16.43242
16.34312
16.25242
16.15997
16.06536
15.96791
15.86665
15.75983
15.64423
15.51298
15.35061
15.12272
14.79148
14.69512
393.8337
312.879
263.0973
229.588
205.0344
185.6626
169.5401
155.6815
143.137
122.5053
103.0375
91.43434
83.79111
78.15901
73.58914
69.63445
66.08455
62.83335
51.93866
49.26367
46.6585
44.26523
42.1565
40.31145
38.6733
37.18412
35.80331
34.52803
33.32924
32.00588
30.70012
29.46982
28.34427
27.32236
26.39396
25.54557
24.76744
24.21536
23.62174
22.922
22.21827
21.55398
20.94646
20.39809
19.90475
19.46111
19.06417
18.6944
18.32638
17.96003
17.60944
17.28762
17.00115
16.75088
16.53487
16.35689
15.33966
15.16787
15.00646
14.85172
14.7052
14.56888
14.44384
14.33007
14.22708
14.13269
14.04008
13.9446
13.8456
13.74537
13.64673
13.55177
13.46191
13.38018
13.31403
13.26149
13.20351
13.14414
13.08507
13.02489
12.96179
12.89693
12.83188
12.76782
12.7055
12.64522
12.58697
12.5305
12.47547
12.4214
12.36773
12.31367
12.25824
12.20033
12.13999
12.07869
12.01439
11.94889
11.89152
11.84415
11.80411
11.77374
11.75474
11.74245
11.72169
11.6952
11.66388
11.62673
11.58361
11.53476
11.48076
11.42235
11.36028
11.29524
11.22791
11.15888
11.08864
11.01765
10.94637
10.87524
10.80463
10.73491
10.66644
10.59958
10.53469
10.47208
10.41205
10.3549
10.30084
10.24998
10.20235
10.15802
10.11716
10.0799
10.04618
10.01635
9.991276
9.969214
9.948264
9.926523
9.902562
9.876402
9.848003
9.817316
9.784261
9.748776
9.710838
9.67047
9.627761
9.582855
9.535856
9.486723
9.435516
9.382434
9.328948
9.276206
9.223899
9.172214
9.121421
9.071674
9.023124
8.97588
8.930032
8.885659
8.842821
8.801553
8.761877
8.723804
8.687338
8.652505
8.619327
8.587802
8.557914
8.529632
8.502922
8.477736
8.454022
8.431722
8.410775
8.391116
8.372677
8.355389
8.339188
8.324012
8.309801
8.296505
8.284079
8.272486
8.261697
8.251696
8.242472
8.234029
8.226379
8.219547
8.213568
8.208484
8.204344
8.201171
8.198988
8.197632
8.196855
8.195853
8.194351
8.180082
8.458761
8.801382
9.059176
9.253667
9.403
9.52027
9.615178
9.694884
9.764571
9.827942
9.88762
9.945456
10.00276
10.06039
10.11883
10.17836
10.23927
10.30175
10.3658
10.43135
10.49833
10.56663
10.63614
10.70667
10.77802
10.84993
10.92208
10.99412
11.06559
11.13593
11.20434
11.26958
11.3294
11.3793
11.41093
11.41369
11.40359
11.3878
11.36779
11.34382
11.31667
11.28691
11.25494
11.22114
11.18581
11.14925
11.1117
11.0734
11.03454
10.99529
10.95582
10.91625
10.8767
10.83726
10.79803
10.75908
10.72046
10.68221
10.64435
10.60692
10.56994
10.53342
10.49735
10.46176
10.42663
10.39199
10.35786
10.32427
10.29139
10.26075
8.837852
8.784983
8.741655
8.704211
8.670193
8.638735
8.609358
8.581589
8.554993
8.529245
8.50412
8.479463
8.455167
8.431163
8.407409
8.38388
8.360566
8.337467
8.314589
8.291939
8.269529
8.247372
8.225479
8.20386
8.182523
8.161472
8.140708
8.120231
8.100044
8.080145
8.060532
8.041205
8.022161
8.003399
7.984918
7.966723
7.948818
7.931214
7.913929
7.896994
7.88046
7.864409
7.84896
7.834251
7.820385
7.807363
7.794988
7.783034
7.771462
7.760315
7.749613
7.739296
7.72939
7.721145
7.714422
7.7062
7.696908
7.687539
7.678407
7.669439
7.660499
7.651489
7.642315
7.632889
7.623141
7.613022
7.602493
7.591523
7.580101
7.568238
7.555945
7.543238
7.530137
7.516683
7.502917
7.488878
7.474606
7.460151
7.445552
7.430846
7.416068
7.401244
7.386404
7.371575
7.356782
7.342046
7.327379
7.312783
7.298261
7.28381
7.269423
7.255092
7.24081
7.226572
7.212377
7.198221
7.184105
7.170029
7.155991
7.141994
7.128037
7.114104
7.100176
7.086232
7.072254
7.058221
7.044111
7.029863
7.015377
7.000574
6.985406
6.96985
6.953906
6.937588
6.92092
6.903916
6.886574
6.868905
6.850931
6.832672
6.814143
6.795353
6.776309
6.757003
6.737424
6.71754
6.697312
6.676671
6.655532
6.633753
6.611146
6.587393
6.562038
6.534347
6.50336
6.468276
6.428821
6.38854
6.35553
624.2976
552.4962
494.651
450.1647
412.7789
381.5568
354.2977
330.5569
309.351
288.2868
150.7247
131.8318
124.5198
118.7337
113.4024
108.4237
103.7922
99.49545
95.45374
75.22933
70.65363
66.74382
63.52035
60.90077
58.75853
56.97406
55.44608
54.1022
52.94059
51.82744
50.6362
49.4132
48.19681
47.01341
45.8828
44.81339
43.79545
42.81474
42.33445
41.62022
40.80529
39.95235
39.09931
38.25807
37.44009
36.65398
35.9058
35.1966
34.52954
33.90008
33.29195
32.70049
32.12469
31.56323
31.01584
30.49399
28.26424
27.76029
27.27325
26.79013
26.3005
25.80176
25.29569
24.78544
24.27439
23.76686
23.2601
22.75307
22.25147
21.75779
21.27462
20.8045
20.34581
19.89805
19.46235
19.03949
18.62917
18.2323
17.848
17.47675
17.11909
16.77579
16.44769
16.13572
15.84024
15.56016
15.29535
15.04577
14.81107
14.59094
14.38523
14.19371
14.01655
13.85036
13.72396
13.60197
13.48482
13.37277
13.26607
13.16492
13.0694
12.97956
12.8954
12.81643
12.74135
12.66917
12.5992
12.53112
12.46483
12.40048
12.33861
12.28044
12.2277
12.17829
12.12816
12.07931
12.03276
11.98696
11.94005
11.8916
11.84191
11.79137
11.74031
11.68896
11.63741
11.58568
11.53368
11.48126
11.42815
11.37401
11.31847
11.26121
11.20247
11.14287
11.08221
11.02185
10.96531
10.91313
10.86369
10.81635
10.76967
10.71842
10.65802
10.59402
10.52973
10.46531
10.40009
10.33351
10.26521
10.19504
10.12293
10.04893
9.973166
9.895873
9.817283
9.737646
9.657238
9.576344
9.495251
9.414246
9.33361
9.253621
9.174541
9.096616
9.020074
8.945124
8.87195
8.800699
8.731499
8.664468
8.599693
8.537228
8.477121
8.419417
8.36406
8.310876
8.259778
8.210982
8.164475
8.11889
8.073016
8.02657
7.979379
7.931276
7.882119
7.8318
7.780257
7.727502
7.673606
7.61858
7.56247
7.505502
7.448081
7.390576
7.333119
7.275729
7.218598
7.161914
7.105843
7.050534
6.996112
6.942681
6.890324
6.839101
6.789047
6.740176
6.692463
6.645864
6.600513
6.556494
6.51384
6.472545
6.432583
6.393913
6.356488
6.32025
6.285142
6.251105
6.21808
6.186009
6.154837
6.12451
6.094977
6.066188
6.0381
6.010665
5.983853
5.957623
5.93196
5.906833
5.882251
5.858187
5.834689
5.811717
5.789381
5.7676
5.746587
5.726193
5.706838
5.68822
5.670686
5.653814
5.650242
5.640178
5.626433
5.610894
5.594879
5.579283
5.564701
5.551504
5.539915
5.530056
5.52198
5.515702
5.511207
5.508465
5.507451
5.508179
5.510739
5.515067
5.520999
5.528393
5.537115
5.547032
5.55801
5.569906
5.582567
5.595823
5.609484
5.623338
5.637138
5.650596
5.663351
5.674912
5.684602
5.691644
5.696684
5.699677
5.700979
5.700978
5.699856
5.697715
5.694651
5.690744
5.686065
5.680677
5.674642
5.66802
5.660868
5.653244
5.645204
5.636803
5.628093
5.619126
5.609952
5.600617
5.591164
5.581633
5.572061
5.562482
5.552923
5.543411
5.533969
5.524617
5.515372
5.506248
5.497259
5.488422
5.479745
5.471262
5.462895
5.452965
5.463682
5.472185
5.478248
5.482167
5.48451
5.48573
5.486075
5.485684
5.484657
5.483072
5.481
5.478505
5.475643
5.472459
5.468994
5.46528
5.461347
5.457223
5.452931
5.448493
5.443932
5.439266
5.434515
5.429694
5.424819
5.419904
5.414961
5.410001
5.405034
5.400071
5.395119
5.390187
5.385283
5.380415
5.37559
5.370816
5.366104
5.361464
5.356911
5.352463
5.348144
5.343984
5.340019
5.33628
5.33279
5.329553
5.326525
5.323654
5.320893
5.318251
5.315708
5.313256
5.310857
5.3085
5.306279
5.304243
5.302407
5.300716
5.299032
5.297278
5.295432
5.293495
5.291464
5.289336
5.287104
5.284755
5.282276
5.279651
5.276866
5.273909
5.27077
5.267439
5.263909
5.260177
5.256241
5.2521
5.247758
5.243216
5.238475
5.23354
5.228415
5.223107
5.217624
5.211978
5.206184
5.200259
5.194224
5.188127
5.18203
5.175957
5.169921
5.163924
5.157962
5.152022
5.146087
5.140136
5.134143
5.128083
5.121928
5.115646
5.109207
5.102601
5.095819
5.088854
5.081703
5.074361
5.06683
5.05915
5.051415
5.043688
5.036015
5.028412
5.020867
5.013338
5.005738
4.99786
4.989669
4.981193
4.972456
4.963485
4.954311
4.944964
4.935468
4.92584
4.916085
4.906204
4.89618
4.885994
4.875596
4.86494
4.853921
4.842447
4.830306
4.817362
4.80329
4.788059
4.771391
4.754101
4.737772
412.5974
297.5748
411.7476
176.4434
132.5247
91.93305
78.10087
67.48216
60.18697
57.33038
57.17581
57.23518
57.32818
57.82786
58.09533
58.21515
58.12809
57.78313
57.16959
56.40113
55.46605
54.38806
53.13671
51.7799
50.45463
49.19882
48.01686
46.91776
45.89559
44.9407
44.04628
41.69864
41.00684
40.35817
39.74333
39.15804
38.59939
38.06437
37.55085
37.05558
36.57563
36.10982
35.64554
35.18138
34.72179
34.27153
33.82702
33.38547
32.94563
32.50803
32.07244
31.63379
31.19305
30.74933
30.30132
29.84926
29.39448
28.93919
28.48718
28.04175
27.60395
27.17821
26.76765
26.37493
25.99987
25.64333
25.29678
24.95418
24.69749
24.4311
24.14812
23.85414
23.55093
23.23759
22.91361
22.5796
22.23691
21.88733
21.53196
21.17243
20.81127
20.45038
20.09106
19.7346
19.38222
19.03451
18.6919
18.35438
18.02182
17.69531
17.37593
17.06372
16.75882
16.46158
16.17245
15.89211
15.62118
15.35988
15.10868
14.86815
14.63872
14.42065
14.21407
14.01887
13.83548
13.66267
13.50354
13.35624
13.21975
13.09318
12.97568
12.86648
12.76489
12.67031
12.58221
12.49999
12.42291
12.35038
12.28192
12.21708
12.1555
12.09693
12.04128
11.98874
11.93952
11.89249
11.84603
11.80059
11.75671
11.71374
11.67065
11.62691
11.58244
11.53727
11.4914
11.44484
11.39756
11.34947
11.30045
11.25034
11.19894
11.14603
11.09141
11.03496
10.97683
10.91735
10.85674
10.79571
10.73566
10.67691
10.61847
10.55935
10.49828
10.43262
10.36049
10.28417
10.20613
10.12719
10.04733
9.966364
9.884165
9.800625
9.715683
9.629314
9.5416
9.452728
9.362909
9.272335
9.181208
9.089753
8.998211
8.906825
8.815826
8.725432
8.635844
8.547245
8.459801
8.373663
8.288968
8.205839
8.124388
8.044714
7.966892
7.890975
7.816999
7.744985
7.674922
7.606784
7.540544
7.476184
7.413662
7.352935
7.293918
7.235786
7.178112
7.120696
7.063354
7.005933
6.948317
6.890431
6.832239
6.773751
6.715
6.656061
6.597081
6.53821
6.479525
6.421085
6.363001
6.305402
6.248405
6.192114
6.13662
6.081999
6.02831
5.975593
5.923858
5.87313
5.823572
5.775296
5.728222
5.682278
5.637407
5.593561
5.550694
5.50876
5.467714
5.427512
5.388112
5.349472
5.311556
5.274329
5.23776
5.20182
5.166485
5.13173
5.097539
5.063893
5.030782
4.998197
4.966135
4.934596
4.903589
4.87312
4.843214
4.813881
4.785161
4.757067
4.729653
4.702925
4.676962
4.651762
4.627435
4.604017
4.582107
4.561313
4.541394
4.522258
4.5039
4.486348
4.469644
4.453839
4.438964
4.425067
4.412181
4.400334
4.389547
4.379833
4.371202
4.363665
4.35722
4.351846
4.347511
4.344172
4.341783
4.340289
4.339635
4.339758
4.340594
4.342076
4.34413
4.346675
4.349614
4.352826
4.356155
4.359419
4.362395
4.364856
4.366655
4.367727
4.368132
4.367986
4.367367
4.366309
4.364838
4.362975
4.360746
4.358172
4.355281
4.352095
4.34864
4.344939
4.34102
4.336908
4.332628
4.328208
4.323671
4.319041
4.314341
4.309594
4.304819
4.300033
4.295254
4.290496
4.285771
4.281091
4.276467
4.271904
4.267416
4.263006
4.258685
4.254456
4.250333
4.246257
4.243009
4.240398
4.238326
4.236655
4.235263
4.234046
4.23295
4.231933
4.230962
4.230011
4.229062
4.228107
4.22714
4.226159
4.225163
4.22415
4.223121
4.222077
4.22102
4.21995
4.21887
4.217784
4.216694
4.215604
4.214515
4.213432
4.212356
4.21129
4.210238
4.209201
4.208182
4.207185
4.20621
4.205262
4.204344
4.203458
4.202609
4.201803
4.201046
4.200346
4.199712
4.199157
4.19869
4.198323
4.198063
4.197909
4.197848
4.19786
4.197922
4.198031
4.198178
4.198365
4.198595
4.198895
4.19927
4.199671
4.200031
4.200342
4.200624
4.200882
4.201114
4.201309
4.201461
4.201564
4.201611
4.201593
4.201503
4.20133
4.201067
4.200707
4.200244
4.199673
4.19899
4.198193
4.197282
4.196255
4.195112
4.193851
4.192473
4.190978
4.189366
4.187653
4.185889
4.1841
4.182304
4.180517
4.178749
4.176974
4.175149
4.17326
4.171299
4.169258
4.167127
4.164896
4.162552
4.160085
4.157482
4.154735
4.151834
4.148773
4.145545
4.142148
4.138577
4.134833
4.130913
4.126821
4.12256
4.118142
4.113583
4.108906
4.104132
4.09928
4.094366
4.089411
4.084463
4.079705
4.075116
4.070568
4.065866
4.061001
4.055987
4.050844
4.045596
4.040264
4.034864
4.029405
4.023887
4.018305
4.01264
4.006872
4.000956
3.994851
3.988476
3.981776
3.97463
3.967024
3.958817
3.950303
3.941887
393.0032
262.9468
197.6565
176.6594
141.2832
115.5873
96.37439
87.79729
78.95283
73.53083
69.0701
63.98794
59.52601
55.96825
53.35088
51.2085
48.79545
48.80899
49.15484
49.70343
50.42039
51.17256
51.76622
52.14871
52.37152
52.42528
52.24736
51.84729
51.2557
50.50288
49.60833
48.60428
47.53178
46.42164
45.30185
44.2015
43.14391
42.13876
41.19643
40.32023
39.51725
38.76903
38.07113
37.43652
36.86256
36.33926
35.85966
35.41828
35.0095
34.6274
34.2668
33.91832
33.56541
33.21656
32.87092
32.52779
32.18621
31.84523
31.50363
31.15993
30.81258
30.45908
30.09696
29.72596
29.34591
28.95617
28.55656
28.14776
27.73125
27.30931
26.88455
26.46001
26.03953
25.62707
25.22615
24.83972
24.46955
24.11713
23.78169
23.47254
23.1795
22.89668
22.62263
22.35529
22.09143
21.82804
21.5631
21.29542
21.02441
20.74982
20.4717
20.19063
19.90741
19.62292
19.33808
19.05372
18.77043
18.48871
18.20885
17.93102
17.65566
17.38326
17.11414
16.8486
16.58693
16.32942
16.07632
15.82805
15.58505
15.34785
15.11711
14.89341
14.6775
14.4699
14.27093
14.08111
13.90052
13.72946
13.56793
13.41606
13.2738
13.14088
13.0169
12.90143
12.79397
12.69398
12.60091
12.51415
12.43315
12.3574
12.28646
12.21991
12.15738
12.09857
12.04327
11.99123
11.94171
11.89382
11.84739
11.80243
11.75852
11.71505
11.67156
11.62783
11.58368
11.539
11.49363
11.44741
11.40018
11.35171
11.30181
11.25025
11.1968
11.14131
11.08367
11.02393
10.96226
10.89883
10.83404
10.76846
10.70222
10.63479
10.56539
10.49312
10.41667
10.33522
10.24964
10.16132
10.07103
9.979089
9.885633
9.790773
9.694646
9.597354
9.49896
9.399591
9.29947
9.198863
9.098023
8.99717
8.896524
8.796303
8.696703
8.597894
8.500024
8.403212
8.30756
8.213155
8.120072
8.028381
7.938146
7.84943
7.762289
7.676772
7.592917
7.510753
7.430304
7.351581
7.274586
7.199311
7.125741
7.053849
6.983602
6.914977
6.847943
6.782111
6.717225
6.653117
6.589642
6.526682
6.464151
6.402001
6.340187
6.27868
6.217506
6.156725
6.096397
6.036564
5.977268
5.918574
5.860557
5.803291
5.746842
5.69127
5.63663
5.582962
5.530299
5.478658
5.428122
5.378668
5.330264
5.282868
5.236432
5.190905
5.146237
5.10238
5.059286
5.016911
4.97521
4.934142
4.893669
4.853756
4.814374
4.775495
4.737097
4.699163
4.661678
4.624632
4.588021
4.551842
4.516099
4.480798
4.445951
4.411573
4.377683
4.344305
4.311463
4.279188
4.247508
4.216461
4.186077
4.156399
4.127464
4.099326
4.072031
4.045655
4.020228
3.99576
3.972253
3.949711
3.928139
3.907539
3.887912
3.86926
3.851581
3.834875
3.819139
3.804368
3.790555
3.777694
3.765773
3.754781
3.7447
3.735505
3.72717
3.719666
3.712958
3.707011
3.701789
3.69725
3.693353
3.690052
3.687294
3.68502
3.683157
3.681622
3.680318
3.679142
3.677993
3.676788
3.675475
3.674045
3.672515
3.670899
3.669193
3.667388
3.665477
3.663457
3.661328
3.65909
3.656748
3.654308
3.651778
3.649167
3.646485
3.643745
3.640956
3.638132
3.635283
3.632421
3.629556
3.626698
3.623856
3.621037
3.61825
3.615501
3.612794
3.610135
3.607528
3.604977
3.602485
3.600055
3.597689
3.59539
3.593155
3.591027
3.589033
3.587182
3.58546
3.58386
3.582379
3.58102
3.579781
3.578652
3.577623
3.576683
3.575826
3.575046
3.574336
3.573692
3.573109
3.572585
3.572115
3.571698
3.571331
3.571014
3.570744
3.570521
3.570344
3.570212
3.570125
3.570083
3.570085
3.57013
3.570219
3.570351
3.570526
3.570744
3.571005
3.57131
3.57166
3.572055
3.572497
3.572988
3.573531
3.574129
3.574787
3.575507
3.576292
3.577143
3.57806
3.579033
3.580055
3.581114
3.582204
3.583324
3.58447
3.585642
3.586837
3.588045
3.589257
3.590464
3.591662
3.592846
3.594008
3.595138
3.596232
3.597285
3.598295
3.599257
3.600168
3.601024
3.601822
3.602559
3.603234
3.603846
3.604395
3.604881
3.605305
3.605669
3.605975
3.606221
3.606412
3.606578
3.606748
3.606937
3.607142
3.607321
3.607457
3.607542
3.60757
3.607535
3.60743
3.607247
3.606983
3.606632
3.606189
3.605646
3.604998
3.604238
3.603358
3.602355
3.601222
3.599954
3.598547
3.596998
3.595306
3.593467
3.591482
3.589352
3.587078
3.584666
3.582119
3.579448
3.576661
3.573771
3.570791
3.567736
3.564623
3.56148
3.558342
3.555239
3.552226
3.549408
3.546645
3.543805
3.540891
3.537915
3.534892
3.531835
3.528756
3.525661
3.522551
3.519421
3.516264
3.513061
3.509791
3.506418
3.502914
3.499223
3.495335
3.491163
3.486863
3.482511
188.5285
138.9299
217.7357
108.2259
94.00884
81.81578
78.09226
75.31639
71.86754
70.22348
67.9523
64.7804
61.75299
58.64098
55.28468
49.76782
48.39669
47.33811
46.55677
46.06725
45.82831
45.87378
46.21002
46.80286
47.5731
48.33895
48.91067
49.5905
50.10871
50.44766
50.69215
50.85132
50.8353
50.58334
50.18025
49.69106
49.06749
48.28273
47.36525
46.33591
45.21531
44.03273
42.82467
41.62075
40.44486
39.31756
38.25327
37.26037
36.34506
35.50954
34.75102
34.06814
33.45853
32.92109
32.45056
32.03886
31.67904
31.36534
31.09215
30.85372
30.64212
30.4285
30.22672
30.03355
29.84629
29.66252
29.48021
29.29756
29.1127
28.92352
28.72762
28.5223
28.30495
28.07348
27.82625
27.56186
27.27939
26.97868
26.66035
26.32583
25.97727
25.61747
25.24988
24.87851
24.50753
24.14115
23.78298
23.43657
23.10388
22.78698
22.48506
22.19743
21.92374
21.66294
21.41302
21.17156
20.9363
20.70527
20.47679
20.2494
20.02199
19.79381
19.5645
19.33392
19.10211
18.86924
18.63552
18.40121
18.16656
17.9318
17.69739
17.4637
17.23111
16.99993
16.77045
16.54303
16.31791
16.09527
15.87532
15.65849
15.44528
15.2361
15.03126
14.8314
14.63705
14.4488
14.26713
14.09257
13.9255
13.7662
13.61491
13.47173
13.33663
13.20951
13.09014
12.97823
12.87343
12.77534
12.68354
12.59763
12.5172
12.44186
12.37125
12.30501
12.2428
12.18426
12.12881
12.07585
12.02497
11.97592
11.92828
11.88156
11.8353
11.78916
11.74287
11.69617
11.64879
11.6005
11.55103
11.50011
11.44747
11.39285
11.33603
11.27682
11.21509
11.15083
11.08418
11.01527
10.94424
10.87135
10.79659
10.71958
10.63974
10.55641
10.46886
10.37671
10.28045
10.18103
10.07921
9.975464
9.870109
9.763423
9.655774
9.547404
9.438442
9.32907
9.219629
9.110529
9.002041
8.894383
8.787745
8.682271
8.578065
8.475201
8.373721
8.273647
8.174983
8.077724
7.981861
7.887387
7.794298
7.702594
7.612282
7.523371
7.435872
7.349799
7.265166
7.181989
7.100276
7.020037
6.941273
6.86398
6.788152
6.713777
6.640848
6.569312
6.498986
6.429757
6.361527
6.294212
6.227744
6.162073
6.097151
6.032951
5.969472
5.90673
5.844751
5.783553
5.723164
5.663617
5.604956
5.547224
5.490463
5.434711
5.38
5.326358
5.273805
5.222355
5.171983
5.122654
5.074329
5.026963
4.980506
4.934907
4.890112
4.846069
4.802724
4.760025
4.717923
4.676371
4.635324
4.594744
4.554595
4.514847
4.475475
4.43646
4.397787
4.359446
4.321435
4.283754
4.246409
4.209412
4.172779
4.13653
4.100689
4.065285
4.030347
3.995909
3.962007
3.928679
3.895962
3.863899
3.832531
3.801903
3.772056
3.743033
3.714871
3.687594
3.661225
3.63578
3.611274
3.587719
3.565121
3.543482
3.522802
3.503078
3.484304
3.466472
3.449573
3.433594
3.418524
3.404348
3.391047
3.378601
3.366985
3.356173
3.346142
3.336857
3.328294
3.320419
3.3132
3.306603
3.300588
3.29511
3.29012
3.28556
3.281369
3.277487
3.273858
3.270432
3.267175
3.264064
3.261092
3.25825
3.255521
3.252888
3.250334
3.247844
3.245405
3.243008
3.240645
3.23831
3.236
3.233714
3.231451
3.229213
3.227001
3.224818
3.222668
3.220552
3.218475
3.216439
3.214448
3.212503
3.210606
3.20876
3.206967
3.205226
3.203541
3.20191
3.200335
3.198817
3.197355
3.19595
3.194601
3.19331
3.192077
3.1909
3.189779
3.188719
3.187723
3.186796
3.185936
3.185144
3.184419
3.183763
3.183173
3.18265
3.182192
3.181799
3.18147
3.181203
3.180997
3.180852
3.180767
3.18074
3.180771
3.180861
3.181006
3.181209
3.181466
3.181779
3.182146
3.182566
3.18304
3.183565
3.184143
3.184771
3.18545
3.186178
3.186957
3.187785
3.188663
3.189591
3.190571
3.191601
3.192684
3.19382
3.19501
3.196251
3.197542
3.198878
3.200255
3.201665
3.203105
3.20457
3.206058
3.207565
3.209087
3.21062
3.212159
3.213699
3.215234
3.216758
3.218267
3.219755
3.221218
3.222653
3.224057
3.225427
3.226762
3.22806
3.22932
3.230542
3.231727
3.232876
3.233991
3.235074
3.236128
3.237153
3.238161
3.239185
3.240242
3.241309
3.242362
3.243389
3.24438
3.245325
3.246221
3.247061
3.247842
3.248561
3.249213
3.249796
3.250305
3.250736
3.251086
3.251349
3.251521
3.251598
3.251575
3.251447
3.25121
3.250862
3.250398
3.249816
3.249114
3.248291
3.247348
3.246284
3.245102
3.243805
3.242397
3.240885
3.239275
3.237575
3.235797
3.233951
3.232051
3.230112
3.228153
3.226197
3.22427
3.222409
3.220675
3.219062
3.21743
3.215774
3.214102
3.212422
3.210743
3.209074
3.207418
3.205777
3.204148
3.202524
3.200894
3.199239
3.197542
3.195772
3.19392
3.191928
3.189893
3.187746
74.58394
56.12193
53.71688
52.17737
52.03759
51.35111
50.80873
50.23769
49.63422
48.33713
44.88673
44.64324
44.35818
44.03692
43.65879
43.24037
42.86343
42.59711
42.473
42.48345
42.45868
42.3624
42.45111
42.74413
43.2381
43.91148
44.73033
45.63541
46.57528
47.50248
48.31328
48.91541
49.45571
49.68349
49.68972
49.50753
49.20157
48.74333
48.08618
47.26502
46.33652
45.29863
44.14536
42.90142
41.59925
40.28255
38.97871
37.7127
36.50143
35.35511
34.28122
33.28284
32.3616
31.51479
30.74757
30.0577
29.4408
28.89312
28.40987
27.98463
27.61249
27.28964
27.01283
26.77882
26.58371
26.4107
26.27127
26.15951
26.07033
25.99907
25.94162
25.89442
25.85428
25.81812
25.78281
25.74482
25.70041
25.64613
25.57837
25.49394
25.39012
25.26468
25.11612
24.94365
24.74733
24.52805
24.28746
24.02804
23.75306
23.46632
23.17202
22.87432
22.57728
22.28466
22.00009
21.7244
21.45899
21.20489
20.96256
20.73168
20.51132
20.3002
20.09684
19.89974
19.70731
19.51818
19.33107
19.1449
18.95881
18.77215
18.58436
18.39513
18.20424
18.01131
17.81644
17.62034
17.42328
17.2256
17.02766
16.82984
16.63252
16.43603
16.24056
16.04655
15.85432
15.66415
15.47636
15.29124
15.10914
14.93045
14.75557
14.58489
14.4186
14.25696
14.10042
13.94942
13.8045
13.6659
13.5337
13.40795
13.2886
13.17554
13.06862
12.96765
12.8724
12.78263
12.69806
12.61842
12.5434
12.47267
12.40586
12.34252
12.28212
12.22421
12.16843
12.11433
12.06143
12.00925
11.95739
11.90547
11.85314
11.80009
11.74598
11.69049
11.63331
11.57414
11.5127
11.44873
11.38204
11.31251
11.24009
11.1648
11.08671
11.00591
10.9225
10.83644
10.74752
10.65536
10.55963
10.46006
10.3566
10.24961
10.13978
10.02778
9.91419
9.799461
9.683951
9.568009
9.451981
9.336112
9.22067
9.106243
8.993371
8.882123
8.77259
8.664855
8.558939
8.454833
8.3525
8.251887
8.152922
8.055526
7.959618
7.865115
7.771944
7.680037
7.589341
7.499811
7.411416
7.324136
7.237959
7.152884
7.068918
6.98607
6.904355
6.823787
6.744381
6.666146
6.589093
6.513229
6.438559
6.365046
6.292649
6.22133
6.151054
6.081791
6.013515
5.946203
5.879843
5.814434
5.749983
5.686505
5.624016
5.562534
5.502081
5.442686
5.384375
5.327178
5.271115
5.216207
5.162467
5.109903
5.058519
5.008257
4.959074
4.910924
4.863761
4.817532
4.772179
4.727645
4.68387
4.640793
4.598353
4.556493
4.515156
4.47429
4.433847
4.393782
4.354059
4.314643
4.275509
4.236637
4.198012
4.159627
4.121481
4.083577
4.045927
4.008547
3.971458
3.934686
3.898261
3.862217
3.826589
3.791419
3.756745
3.722612
3.689062
3.656139
3.623888
3.59235
3.561565
3.531569
3.502391
3.474054
3.446581
3.41999
3.394296
3.369508
3.345633
3.322675
3.300635
3.279509
3.259295
3.239987
3.221575
3.204051
3.187404
3.171623
3.156688
3.142577
3.129266
3.116733
3.104946
3.093885
3.083524
3.073836
3.064798
3.056383
3.048566
3.041319
3.03458
3.028297
3.022426
3.016925
3.011763
3.00691
3.002347
2.998057
2.994024
2.990232
2.98666
2.983289
2.980101
2.977079
2.974208
2.971473
2.968864
2.96637
2.963982
2.961694
2.959498
2.957392
2.95537
2.953429
2.951567
2.949781
2.948069
2.946429
2.944859
2.943358
2.941924
2.940556
2.939252
2.938011
2.936831
2.935712
2.934651
2.933648
2.932701
2.931808
2.930968
2.930178
2.929435
2.928739
2.928091
2.927491
2.926939
2.926435
2.925982
2.925578
2.925224
2.924922
2.924672
2.924474
2.924329
2.924237
2.924198
2.924212
2.92428
2.924401
2.924576
2.924804
2.925086
2.925421
2.925809
2.926251
2.926745
2.927291
2.927889
2.928539
2.929239
2.92999
2.930791
2.931641
2.932539
2.933486
2.934481
2.935524
2.936614
2.937752
2.938937
2.940168
2.941447
2.942771
2.944139
2.94555
2.947
2.948485
2.950002
2.951546
2.953115
2.954706
2.956315
2.957939
2.959575
2.961219
2.962867
2.964514
2.966155
2.967788
2.96941
2.971017
2.972607
2.974178
2.97573
2.97726
2.97877
2.980259
2.981728
2.983179
2.984613
2.986032
2.987437
2.988834
2.990251
2.991698
2.993151
2.994598
2.996028
2.997432
2.998804
3.000139
3.001433
3.002683
3.003885
3.005036
3.006135
3.007177
3.008161
3.009082
3.009938
3.010725
3.011439
3.012076
3.012633
3.013106
3.013491
3.013785
3.013985
3.014088
3.014092
3.013995
3.013796
3.013496
3.013095
3.012595
3.011998
3.011308
3.010531
3.009671
3.008737
3.007735
3.006676
3.00557
3.004429
3.003266
3.002096
3.000938
2.999813
2.998749
2.997786
2.996931
2.996076
2.995225
2.994383
2.993557
2.992757
2.991986
2.991249
2.990546
2.989874
2.989226
2.988592
2.98796
2.987309
2.986631
2.985885
2.985135
2.984223
95.14869
42.41616
35.51444
34.74997
34.62151
34.70626
35.0517
35.50937
36.06476
36.70063
37.20676
37.37623
37.5124
37.60686
37.68727
37.76663
37.88118
38.05694
38.29333
38.57947
38.90776
39.33696
39.89881
40.59889
41.40273
42.25924
43.09203
43.97874
44.88231
45.70488
46.38671
46.99365
47.35672
47.46914
47.35066
47.05115
46.57464
45.90976
45.00827
43.88381
42.59526
41.18185
39.69377
38.18938
36.7164
35.31999
34.021
32.82902
31.74391
30.75933
29.8678
29.06094
28.3344
27.67749
27.08244
26.54228
26.04826
25.59204
25.17047
24.78168
24.42455
24.09843
23.80316
23.53883
23.30547
23.10236
22.93784
22.80838
22.71057
22.64107
22.59659
22.57402
22.57027
22.58225
22.60669
22.63973
22.67712
22.71471
22.74794
22.77243
22.78417
22.77959
22.75569
22.7101
22.64121
22.54818
22.43096
22.29042
22.12826
21.94699
21.74972
21.53998
21.32152
21.0984
20.87526
20.65317
20.43467
20.22179
20.01609
19.81853