/*--------------------------------*- C++ -*----------------------------------*\
| =========                 |                                                 |
| \\      /  F ield         | foam-extend: Open Source CFD                    |
|  \\    /   O peration     | Version:     3.1                                |
|   \\  /    A nd           | Web:         http://www.extend-project.de       |
|    \\/     M anipulation  |                                                 |
\*---------------------------------------------------------------------------*/
FoamFile
{
    version     2.0;
    format      ascii;
    class       volScalarField;
    location    "6";
    object      pd;
}
// * * * * * * * * * * * * * * * * * * * * * * * * * * * * * * * * * * * * * //

dimensions      [1 -1 -2 0 0 0 0];

internalField   nonuniform List<scalar> 
119952
(
8633.933
8623.339
8620.832
8629.297
8639.785
8642.558
8647.208
8652.082
8657.241
8662.611
8668.133
8673.827
8679.63
8685.554
8691.572
8697.657
8703.761
8709.765
8715.257
8717.124
8740.113
8735.463
8738.316
8768.15
8769.286
8778.379
8786.977
8800.825
8836.083
9055.495
8390.617
8398.645
8408.112
8417.49
8426.579
8435.326
8443.727
8451.775
8459.482
8465.783
8472.862
8479.882
8486.314
8492.521
8498.482
8504.177
8509.603
8514.78
8519.899
8526.78
8529.666
8533.821
8537.999
8542.187
8546.345
8550.475
8554.594
8558.729
8563.065
8566.977
8571.333
8575.695
8580.246
8584.976
8589.868
8594.91
8600.183
8606.552
8615.735
8617.303
8622.389
8628.986
8635.357
8640.418
8645.316
8650.367
8655.556
8660.905
8666.403
8672.037
8677.791
8683.651
8689.6
8695.613
8701.657
8707.683
8713.65
8719.734
8727.207
8734.181
8740.68
8751.761
8764.455
8772.959
8781.874
8790.702
8795.199
8784.78
8787.58
8795.114
8802.057
8808.736
8815.094
8821.173
8826.99
8832.547
8837.845
8842.882
8847.66
8852.155
8856.344
8860.248
8863.872
8867.216
8870.281
8873.07
8875.589
8877.845
8879.841
8881.597
8883.122
8884.438
8885.55
8886.471
8887.221
8887.826
8888.29
8888.604
8888.792
8888.879
8888.893
8888.822
8888.679
8888.482
8888.24
8887.955
8887.619
8887.261
8886.876
8886.468
8886.042
8885.595
8885.127
8884.624
8884.062
8883.472
8883.285
8883.8
8884.402
8883.695
8883.243
8882.836
8882.459
8882.112
8881.776
8881.453
8881.138
8880.827
8880.518
8880.209
8879.898
8879.581
8879.253
8878.9
8878.549
8878.189
8877.81
8877.413
8876.991
8876.542
8876.064
8875.558
8875.023
8874.458
8873.864
8873.242
8872.59
8871.907
8871.195
8870.454
8869.683
8868.884
8868.058
8867.204
8866.323
8865.416
8864.484
8863.527
8862.541
8861.526
8860.48
8859.397
8858.266
8857.056
8855.717
8854.225
8852.963
8854.077
8853.781
8852.404
8851.161
8849.959
8848.755
8847.535
8846.3
8845.038
8843.749
8842.432
8841.083
8839.702
8838.282
8836.796
8835.311
8833.774
8832.177
8830.538
8828.84
8827.083
8825.262
8823.374
8821.411
8819.366
8817.229
8814.988
8812.625
8810.12
8807.432
8804.502
8801.246
8797.489
8792.879
8786.831
8779.617
8783.613
8785.724
8786.726
8786.94
8786.823
8786.481
8785.946
8785.275
8784.498
8783.636
8782.705
8781.718
8780.684
8779.613
8778.51
8777.383
8776.237
8775.076
8773.907
8772.732
8771.557
8770.386
8769.223
8768.072
8766.938
8765.824
8764.734
8763.674
8762.648
8761.663
8760.742
8759.897
8759.037
8758.086
8769.739
8763.183
8754.912
8754.671
8754.313
8753.158
8752.364
8751.88
8751.479
8751.146
8750.9
8750.785
8750.762
8750.837
8751.009
8751.278
8751.64
8752.097
8752.647
8753.293
8754.033
8754.871
8755.806
8756.839
8757.973
8759.207
8760.541
8761.977
8763.516
8765.157
8766.901
8768.748
8770.698
8772.752
8774.91
8777.173
8779.541
8782.016
8784.601
8787.301
8790.125
8793.086
8796.21
8799.531
8803.001
8806.263
8808.89
8811.213
8813.786
8816.598
8819.524
8822.559
8825.533
8827.399
8825.937
8832.269
8836.426
8839.376
8842.592
8845.778
8848.899
8852.05
8855.219
8858.388
8861.55
8864.702
8867.833
8870.936
8874.008
8877.046
8880.045
8882.999
8885.9
8888.747
8891.533
8894.257
8896.913
8899.494
8902.005
8904.437
8906.781
8909.043
8911.207
8913.285
8915.253
8917.141
8918.919
8920.589
8922.148
8923.595
8924.929
8926.145
8927.244
8928.223
8929.08
8929.815
8930.428
8930.92
8931.29
8931.532
8931.646
8931.637
8931.505
8931.253
8930.883
8930.397
8929.795
8929.08
8928.259
8927.337
8926.318
8925.203
8923.999
8922.709
8921.336
8919.883
8918.358
8916.766
8915.105
8913.38
8911.593
8909.741
8907.825
8905.842
8903.784
8901.642
8899.402
8897.042
8894.534
8891.833
8888.88
8885.581
8881.799
8877.306
8871.728
8864.693
8857.703
8861.261
8895.815
7444.376
7484.335
7526.348
7569.263
7612.398
7655.5
7698.103
7739.828
7780.278
7814.042
7855.771
7892.107
7926.756
7959.779
7991.247
8021.133
8049.442
8076.371
8113.124
8131.039
8150.576
8171.115
8190.354
8208.739
8226.111
8242.508
8258.032
8272.716
8285.9
8299.563
8312.387
8324.73
8336.699
8348.271
8359.438
8370.263
8380.769
8390.857
8400.179
8409.877
8419.134
8428.041
8436.669
8444.947
8452.917
8460.588
8467.991
8475.085
8481.61
8487.911
8493.977
8499.807
8505.386
8510.725
8515.878
8521.096
8526.775
8531.205
8535.453
8539.606
8543.709
8547.771
8551.81
8555.858
8559.949
8564.119
8568.265
8572.471
8576.815
8581.321
8585.992
8590.845
8595.925
8601.321
8607.078
8612.846
8617.79
8622.932
8628.615
8634.283
8639.569
8644.652
8649.764
8654.983
8660.322
8665.782
8671.362
8677.054
8682.848
8688.735
8694.704
8700.748
8706.878
8713.152
8719.712
8726.742
8734.109
8741.973
8750.901
8760.197
8768.5
8775.696
8781.378
8784.545
8785.519
8788.575
8794.017
8800.196
8806.349
8812.35
8818.196
8823.863
8829.322
8834.553
8839.546
8844.29
8848.773
8852.982
8856.919
8860.587
8863.987
8867.119
8869.986
8872.593
8874.949
8877.059
8878.935
8880.587
8882.028
8883.271
8884.331
8885.22
8885.952
8886.543
8887
8887.346
8887.568
8887.718
8887.766
8887.718
8887.659
8887.517
8887.307
8887.047
8886.749
8886.42
8886.062
8885.681
8885.278
8884.858
8884.433
8884.021
8883.683
8883.471
8883.381
8883.332
8883.139
8882.803
8882.444
8882.098
8881.762
8881.437
8881.117
8880.801
8880.487
8880.173
8879.857
8879.537
8879.211
8878.87
8878.516
8878.152
8877.773
8877.376
8876.96
8876.522
8876.062
8875.576
8875.065
8874.526
8873.958
8873.361
8872.735
8872.078
8871.392
8870.676
8869.931
8869.156
8868.353
8867.522
8866.663
8865.778
8864.865
8863.928
8862.962
8861.972
8860.949
8859.904
8858.818
8857.723
8856.587
8855.5
8854.404
8853.378
8853.753
8852.865
8851.625
8850.512
8849.354
8848.158
8846.938
8845.694
8844.424
8843.126
8841.802
8840.447
8839.06
8837.639
8836.178
8834.677
8833.137
8831.552
8829.916
8828.223
8826.473
8824.66
8822.78
8820.826
8818.793
8816.669
8814.444
8812.101
8809.619
8806.969
8804.108
8800.981
8797.522
8793.722
8789.886
8786.979
8786.407
8787.182
8787.451
8787.361
8787.102
8786.648
8786.045
8785.329
8784.521
8783.636
8782.687
8781.686
8780.64
8779.559
8778.448
8777.313
8776.161
8774.995
8773.821
8772.643
8771.465
8770.291
8769.126
8767.973
8766.837
8765.721
8764.63
8763.569
8762.542
8761.558
8760.621
8759.736
8758.944
8758.775
8759.817
8760.206
8758.332
8755.792
8753.948
8752.903
8752.269
8751.784
8751.37
8751.036
8750.804
8750.683
8750.672
8750.761
8750.946
8751.225
8751.599
8752.068
8752.632
8753.294
8754.052
8754.908
8755.862
8756.917
8758.071
8759.327
8760.684
8762.144
8763.705
8765.37
8767.138
8769.009
8770.983
8773.061
8775.242
8777.527
8779.917
8782.412
8785.014
8787.725
8790.549
8793.483
8796.52
8799.625
8802.732
8805.754
8808.611
8811.333
8814.081
8816.938
8819.879
8822.848
8825.741
8828.26
8830.143
8832.569
8836.206
8840.025
8843.473
8846.696
8849.854
8853.02
8856.194
8859.364
8862.525
8865.668
8868.789
8871.882
8874.945
8877.974
8880.963
8883.906
8886.799
8889.637
8892.415
8895.129
8897.775
8900.349
8902.85
8905.27
8907.608
8909.853
8912.006
8914.065
8916.029
8917.896
8919.665
8921.318
8922.861
8924.292
8925.608
8926.807
8927.887
8928.846
8929.683
8930.396
8930.986
8931.454
8931.82
8932.023
8932.106
8932.066
8931.904
8931.623
8931.223
8930.709
8930.082
8929.32
8928.464
8927.508
8926.455
8925.307
8924.069
8922.743
8921.333
8919.848
8918.293
8916.67
8914.982
8913.231
8911.418
8909.543
8907.607
8905.606
8903.535
8901.387
8899.151
8896.807
8894.338
8891.705
8888.882
8885.806
8882.474
8878.886
8875.375
8872.559
8871.807
8873.657
8878.681
6738.681
6996.164
7252.015
7493.081
7718.637
7917.411
8082.689
8209.057
8293.95
8332.981
8334.365
8307.558
8255.474
8184.132
8099.174
8005.668
7908.367
7811.015
7718.767
7616.169
7535.554
7461.295
7396.964
7342.036
7296.926
7261.575
7235.381
7219.258
7212.103
7206.73
7214.38
7227.726
7246.953
7271.551
7300.531
7333.596
7370.168
7409.493
7447.543
7488.485
7532.79
7577.348
7621.117
7664.442
7707.098
7748.829
7789.378
7829.075
7866.67
7902.23
7936.12
7968.651
7999.748
8029.331
8057.39
8084.33
8117.035
8140.619
8160.361
8179.724
8198.814
8216.985
8234.023
8250.043
8265.201
8279.574
8293.149
8306.047
8318.553
8330.659
8342.33
8353.636
8364.553
8375.148
8385.42
8395.346
8404.849
8414.106
8423.141
8431.911
8440.38
8448.537
8456.386
8463.927
8471.158
8478.043
8484.594
8490.858
8496.853
8502.585
8508.053
8513.268
8518.203
8523.039
8527.704
8532.045
8536.24
8540.36
8544.411
8548.404
8552.364
8556.322
8560.305
8564.339
8568.413
8572.565
8576.841
8581.263
8585.843
8590.597
8595.546
8600.703
8606.047
8611.451
8616.541
8621.653
8627.032
8632.442
8637.668
8642.775
8647.902
8653.11
8658.416
8663.826
8669.343
8674.967
8680.693
8686.517
8692.44
8698.467
8704.62
8710.947
8717.525
8724.461
8731.727
8739.313
8747.369
8755.545
8763.059
8769.633
8775.131
8779.353
8782.397
8786.152
8791.3
8797.097
8802.96
8808.75
8814.449
8820.021
8825.424
8830.629
8835.62
8840.383
8844.905
8849.171
8853.18
8856.931
8860.424
8863.659
8866.639
8869.369
8871.854
8874.101
8876.121
8877.922
8879.517
8880.916
8882.133
8883.179
8884.07
8884.817
8885.431
8885.923
8886.289
8886.55
8886.723
8886.835
8886.819
8886.773
8886.659
8886.497
8886.283
8886.029
8885.74
8885.422
8885.083
8884.734
8884.374
8884.02
8883.727
8883.484
8883.296
8883.14
8882.923
8882.613
8882.264
8881.923
8881.592
8881.267
8880.944
8880.62
8880.296
8879.971
8879.643
8879.31
8878.975
8878.618
8878.262
8877.894
8877.511
8877.111
8876.693
8876.252
8875.788
8875.3
8874.785
8874.243
8873.673
8873.075
8872.448
8871.792
8871.107
8870.393
8869.649
8868.876
8868.074
8867.245
8866.388
8865.504
8864.594
8863.658
8862.697
8861.71
8860.701
8859.667
8858.615
8857.54
8856.469
8855.392
8854.398
8853.523
8852.855
8852.033
8850.961
8849.756
8848.544
8847.34
8846.12
8844.872
8843.594
8842.289
8840.956
8839.592
8838.195
8836.762
8835.294
8833.787
8832.229
8830.651
8829.018
8827.329
8825.583
8823.777
8821.907
8819.966
8817.949
8815.849
8813.655
8811.358
8808.944
8806.399
8803.713
8800.891
8797.979
8795.103
8792.537
8790.573
8789.426
8788.922
8788.601
8788.187
8787.637
8786.977
8786.233
8785.417
8784.534
8783.59
8782.595
8781.555
8780.479
8779.372
8778.24
8777.088
8775.92
8774.741
8773.556
8772.368
8771.181
8770
8768.828
8767.669
8766.527
8765.406
8764.31
8763.244
8762.21
8761.217
8760.262
8759.355
8758.455
8757.701
8756.48
8754.455
8753.071
8752.4
8752.025
8751.684
8751.365
8751.076
8750.825
8750.618
8750.471
8750.402
8750.42
8750.525
8750.717
8750.997
8751.37
8751.835
8752.394
8753.05
8753.802
8754.652
8755.601
8756.65
8757.8
8759.051
8760.404
8761.859
8763.417
8765.079
8766.844
8768.712
8770.684
8772.758
8774.936
8777.217
8779.6
8782.086
8784.675
8787.365
8790.153
8793.031
8795.983
8798.983
8802.002
8805.001
8807.935
8810.798
8813.639
8816.536
8819.492
8822.502
8825.558
8828.833
8832.46
8835.88
8838.841
8841.587
8844.401
8847.331
8850.34
8853.401
8856.501
8859.624
8862.756
8865.884
8868.999
8872.094
8875.162
8878.198
8881.193
8884.144
8887.045
8889.894
8892.684
8895.41
8898.069
8900.658
8903.173
8905.612
8907.973
8910.228
8912.395
8914.472
8916.453
8918.338
8920.149
8921.803
8923.354
8924.795
8926.122
8927.332
8928.422
8929.391
8930.236
8930.957
8931.55
8932.014
8932.327
8932.552
8932.647
8932.613
8932.453
8932.169
8931.763
8931.236
8930.592
8929.862
8929.011
8928.051
8926.988
8925.828
8924.577
8923.239
8921.813
8920.309
8918.726
8917.076
8915.369
8913.601
8911.773
8909.886
8907.942
8905.939
8903.876
8901.747
8899.546
8897.262
8894.885
8892.4
8889.8
8887.088
8884.315
8881.583
8879.134
8877.241
8876.278
8876.632
8878.692
4326.728
4442.353
4578.558
4743.986
4921.658
5134.201
5342.597
5562.315
5793.149
6007.332
6219.327
6447.83
6684.43
6928.108
7172.264
7408.359
7627.971
7822.183
7983.632
8107.273
8191.081
8237.101
8247.733
8224.521
8175.24
8107.019
8025.931
7937.352
7845.738
7755.091
7671.095
7551.008
7478.907
7415.112
7356.236
7305.397
7264.342
7233.071
7211.017
7197.577
7192.517
7194.989
7204.267
7219.886
7241.288
7267.879
7298.934
7333.784
7371.842
7412.386
7454.419
7496.976
7540.571
7584.9
7629.209
7672.992
7715.962
7757.897
7798.592
7837.771
7875.207
7911.023
7945.25
7977.916
8008.966
8038.47
8066.334
8093.321
8119.798
8142.828
8163.401
8183.193
8202.385
8220.571
8237.588
8253.553
8268.619
8282.905
8296.486
8309.42
8321.798
8333.711
8345.212
8356.371
8367.195
8377.692
8387.861
8397.715
8407.226
8416.451
8425.432
8434.136
8442.55
8450.664
8458.472
8465.947
8473.112
8479.963
8486.492
8492.717
8498.659
8504.331
8509.736
8514.887
8519.783
8524.504
8529.032
8533.302
8537.429
8541.467
8545.428
8549.329
8553.196
8557.058
8560.941
8564.871
8568.859
8572.931
8577.12
8581.446
8585.925
8590.566
8595.375
8600.348
8605.459
8610.624
8615.686
8620.769
8625.98
8631.225
8636.402
8641.531
8646.68
8651.895
8657.194
8662.587
8668.078
8673.671
8679.367
8685.165
8691.07
8697.093
8703.254
8709.588
8716.144
8722.974
8730.054
8737.343
8744.833
8752.281
8759.274
8765.598
8771.165
8775.935
8780.082
8784.5
8789.617
8795.165
8800.825
8806.47
8812.059
8817.552
8822.899
8828.07
8833.046
8837.813
8842.352
8846.645
8850.69
8854.485
8858.028
8861.32
8864.364
8867.162
8869.722
8872.049
8874.153
8876.042
8877.727
8879.219
8880.53
8881.671
8882.655
8883.493
8884.195
8884.769
8885.225
8885.577
8885.836
8886.012
8886.098
8886.109
8886.072
8885.975
8885.833
8885.644
8885.417
8885.16
8884.878
8884.579
8884.264
8883.965
8883.706
8883.458
8883.233
8883.022
8882.783
8882.492
8882.171
8881.848
8881.528
8881.208
8880.887
8880.564
8880.241
8879.916
8879.588
8879.254
8878.908
8878.565
8878.201
8877.825
8877.433
8877.026
8876.599
8876.152
8875.682
8875.189
8874.671
8874.126
8873.555
8872.956
8872.328
8871.672
8870.986
8870.271
8869.526
8868.753
8867.951
8867.121
8866.263
8865.378
8864.466
8863.529
8862.567
8861.58
8860.571
8859.542
8858.495
8857.435
8856.378
8855.338
8854.333
8853.379
8852.422
8851.399
8850.317
8849.188
8848.03
8846.849
8845.642
8844.403
8843.13
8841.828
8840.496
8839.134
8837.739
8836.312
8834.849
8833.349
8831.805
8830.22
8828.586
8826.902
8825.166
8823.375
8821.524
8819.611
8817.63
8815.575
8813.442
8811.225
8808.919
8806.523
8804.046
8801.513
8798.978
8796.539
8794.333
8792.488
8791.128
8790.231
8789.572
8788.922
8788.2
8787.414
8786.575
8785.688
8784.751
8783.766
8782.737
8781.672
8780.574
8779.449
8778.302
8777.136
8775.956
8774.767
8773.571
8772.373
8771.177
8769.986
8768.803
8767.634
8766.481
8765.347
8764.238
8763.156
8762.104
8761.086
8760.102
8759.15
8758.218
8757.305
8756.359
8755.581
8754.916
8754.132
8753.283
8752.516
8751.892
8751.394
8750.994
8750.682
8750.458
8750.329
8750.297
8750.361
8750.519
8750.772
8751.121
8751.565
8752.107
8752.747
8753.485
8754.323
8755.262
8756.301
8757.443
8758.687
8760.034
8761.484
8763.037
8764.695
8766.456
8768.321
8770.289
8772.361
8774.534
8776.81
8779.186
8781.663
8784.236
8786.904
8789.661
8792.497
8795.398
8798.35
8801.331
8804.315
8807.278
8810.209
8813.134
8816.093
8819.107
8822.179
8825.313
8828.493
8831.592
8834.535
8837.47
8840.525
8843.685
8846.881
8850.075
8853.264
8856.455
8859.644
8862.826
8865.994
8869.141
8872.263
8875.354
8878.41
8881.425
8884.395
8887.315
8890.182
8892.99
8895.731
8898.405
8901.013
8903.547
8906.01
8908.427
8910.664
8912.837
8914.925
8916.916
8918.803
8920.558
8922.258
8923.841
8925.306
8926.654
8927.882
8928.99
8929.974
8930.833
8931.566
8932.171
8932.645
8932.984
8933.203
8933.295
8933.26
8933.098
8932.811
8932.4
8931.87
8931.224
8930.469
8929.6
8928.621
8927.539
8926.359
8925.085
8923.725
8922.288
8920.775
8919.193
8917.531
8915.808
8914.024
8912.185
8910.29
8908.344
8906.349
8904.304
8902.209
8900.062
8897.859
8895.602
8893.29
8890.937
8888.566
8886.242
8884.044
8882.134
8880.624
8879.772
8879.644
8880.51
4372.521
4309.347
4252.835
4197.764
4150.523
4113.961
4096.363
4096.09
4118.023
4162.151
4229.33
4316.468
4429.954
4564.463
4715.226
4887.147
5120.409
5317.832
5527.124
5741.756
5959.863
6183.917
6415.506
6653.815
6895.441
7134.724
7367.049
7582.095
7771.962
7929.335
8049.195
8129.349
8170.851
8176.943
8152.164
8102.403
8034.081
7953.059
7864.704
7773.637
7682.86
7594.502
7509.724
7435.844
7372.208
7315.821
7267.588
7228.794
7199.607
7179.543
7168.078
7164.683
7168.819
7179.624
7196.915
7219.932
7248.064
7280.695
7317.131
7356.653
7398.523
7442.081
7486.681
7532.017
7577.746
7623.329
7668.3
7712.351
7755.248
7796.771
7836.77
7875.095
7911.667
7946.51
7979.678
8011.201
8041.137
8069.592
8096.504
8121.701
8144.793
8166.108
8186.245
8205.43
8223.572
8240.61
8256.618
8271.721
8286.025
8299.608
8312.528
8324.88
8336.76
8348.229
8359.329
8370.08
8380.498
8390.594
8400.38
8409.85
8419.028
8427.936
8436.571
8444.917
8452.967
8460.724
8468.211
8475.383
8482.227
8488.744
8494.948
8500.844
8506.453
8511.789
8516.866
8521.693
8526.308
8530.708
8534.903
8538.948
8542.885
8546.739
8550.532
8554.292
8558.046
8561.822
8565.643
8569.531
8573.506
8577.596
8581.819
8586.188
8590.708
8595.381
8600.196
8605.126
8610.121
8615.114
8620.137
8625.235
8630.374
8635.505
8640.63
8645.785
8651.002
8656.296
8661.677
8667.153
8672.725
8678.399
8684.176
8690.064
8696.072
8702.217
8708.523
8715.02
8721.741
8728.658
8735.7
8742.8
8749.794
8756.443
8762.594
8768.193
8773.277
8778.019
8782.852
8788.03
8793.477
8799.021
8804.559
8810.057
8815.481
8820.778
8825.912
8830.874
8835.658
8840.22
8844.527
8848.586
8852.401
8855.972
8859.297
8862.379
8865.222
8867.832
8870.214
8872.378
8874.331
8876.083
8877.646
8879.029
8880.244
8881.303
8882.215
8882.992
8883.642
8884.177
8884.606
8884.939
8885.184
8885.343
8885.427
8885.456
8885.435
8885.36
8885.238
8885.075
8884.878
8884.654
8884.411
8884.156
8883.902
8883.656
8883.415
8883.184
8882.955
8882.71
8882.435
8882.138
8881.83
8881.518
8881.203
8880.886
8880.565
8880.242
8879.915
8879.581
8879.241
8878.892
8878.538
8878.174
8877.796
8877.402
8876.992
8876.563
8876.113
8875.641
8875.146
8874.625
8874.079
8873.506
8872.905
8872.276
8871.618
8870.931
8870.215
8869.469
8868.695
8867.892
8867.061
8866.203
8865.317
8864.405
8863.468
8862.507
8861.523
8860.518
8859.494
8858.455
8857.406
8856.356
8855.312
8854.278
8853.255
8852.227
8851.186
8850.111
8848.989
8847.828
8846.636
8845.416
8844.168
8842.891
8841.585
8840.25
8838.885
8837.49
8836.062
8834.598
8833.098
8831.558
8829.977
8828.354
8826.683
8824.964
8823.193
8821.368
8819.486
8817.544
8815.54
8813.471
8811.335
8809.136
8806.878
8804.576
8802.257
8799.97
8797.779
8795.768
8794.018
8792.592
8791.476
8790.553
8789.69
8788.814
8787.911
8786.981
8786.018
8785.021
8783.988
8782.921
8781.823
8780.698
8779.55
8778.383
8777.199
8776.002
8774.797
8773.587
8772.375
8771.165
8769.96
8768.763
8767.579
8766.411
8765.262
8764.135
8763.033
8761.96
8760.917
8759.903
8758.921
8757.961
8757.037
8756.157
8755.299
8754.394
8753.496
8752.711
8752.052
8751.496
8751.031
8750.648
8750.347
8750.131
8750.003
8749.966
8750.021
8750.168
8750.409
8750.745
8751.177
8751.706
8752.334
8753.061
8753.888
8754.817
8755.848
8756.982
8758.219
8759.559
8761.004
8762.553
8764.207
8765.965
8767.827
8769.792
8771.86
8774.03
8776.301
8778.672
8781.139
8783.701
8786.352
8789.087
8791.897
8794.771
8797.697
8800.659
8803.639
8806.622
8809.604
8812.596
8815.617
8818.681
8821.787
8824.923
8828.056
8831.176
8834.318
8837.482
8840.657
8843.838
8847.023
8850.212
8853.406
8856.606
8859.808
8863.005
8866.189
8869.354
8872.495
8875.605
8878.679
8881.714
8884.703
8887.644
8890.533
8893.366
8896.125
8898.817
8901.448
8903.989
8906.444
8908.779
8911.121
8913.345
8915.466
8917.485
8919.4
8921.203
8922.908
8924.502
8925.981
8927.343
8928.586
8929.706
8930.703
8931.573
8932.315
8932.928
8933.409
8933.759
8933.981
8934.074
8934.037
8933.872
8933.58
8933.164
8932.625
8931.967
8931.194
8930.309
8929.314
8928.215
8927.017
8925.726
8924.347
8922.887
8921.346
8919.731
8918.054
8916.314
8914.525
8912.667
8910.759
8908.813
8906.827
8904.804
8902.746
8900.657
8898.54
8896.402
8894.254
8892.116
8890.02
8888.021
8886.181
8884.609
8883.38
8882.656
8882.415
8882.846
5018.388
4956.191
4897.847
4837.646
4780.136
4710.262
4647.135
4581.692
4513.998
4445.016
4377.174
4311.884
4248.7
4192.583
4142.738
4097.872
4077.66
4076.656
4096.92
4140.274
4207.18
4297.931
4413.49
4551.902
4703.863
4872.979
5059.546
5258.011
5463.734
5674.301
5888.792
6108.485
6332.698
6560.559
6790.606
7020.643
7245.749
7457.228
7646.096
7804.443
7926.584
8009.835
8054.964
8065.163
8045.156
8000.599
7937.613
7861.878
7778.544
7692.066
7605.426
7521.938
7443.792
7373.151
7311.03
7257.319
7212.215
7176.262
7149.621
7131.999
7122.859
7121.576
7127.855
7141.082
7160.658
7185.938
7216.32
7251.162
7289.769
7331.444
7375.505
7421.331
7468.281
7515.843
7563.6
7611.104
7657.923
7703.707
7748.194
7791.17
7832.485
7871.998
7909.639
7945.425
7979.402
8011.616
8042.091
8070.862
8097.841
8123.132
8146.73
8168.674
8189.211
8208.574
8226.83
8243.989
8260.112
8275.3
8289.657
8303.27
8316.216
8328.583
8340.451
8351.884
8362.924
8373.603
8383.945
8393.967
8403.682
8413.094
8422.217
8431.065
8439.636
8447.924
8455.922
8463.627
8471.034
8478.139
8484.936
8491.404
8497.542
8503.384
8508.935
8514.198
8519.188
8523.925
8528.433
8532.722
8536.821
8540.765
8544.59
8548.327
8552.004
8555.647
8559.284
8562.944
8566.65
8570.426
8574.293
8578.275
8582.387
8586.64
8591.038
8595.579
8600.252
8605.033
8609.891
8614.792
8619.74
8624.752
8629.811
8634.895
8640.001
8645.151
8650.364
8655.653
8661.027
8666.491
8672.05
8677.707
8683.467
8689.335
8695.321
8701.436
8707.693
8714.106
8720.677
8727.382
8734.178
8740.994
8747.711
8754.178
8760.286
8765.995
8771.345
8776.451
8781.532
8786.755
8792.127
8797.567
8803.001
8808.385
8813.685
8818.875
8823.925
8828.828
8833.614
8838.208
8842.527
8846.593
8850.419
8854.006
8857.353
8860.464
8863.343
8865.994
8868.425
8870.641
8872.651
8874.465
8876.092
8877.543
8878.828
8879.957
8880.941
8881.791
8882.515
8883.124
8883.627
8884.032
8884.348
8884.582
8884.742
8884.84
8884.88
8884.87
8884.813
8884.715
8884.579
8884.414
8884.226
8884.02
8883.806
8883.588
8883.369
8883.149
8882.922
8882.683
8882.423
8882.144
8881.852
8881.552
8881.247
8880.937
8880.622
8880.302
8879.976
8879.644
8879.303
8878.956
8878.601
8878.233
8877.852
8877.455
8877.042
8876.609
8876.156
8875.682
8875.184
8874.661
8874.112
8873.537
8872.935
8872.304
8871.645
8870.956
8870.239
8869.493
8868.718
8867.915
8867.083
8866.225
8865.339
8864.427
8863.491
8862.531
8861.548
8860.546
8859.525
8858.49
8857.444
8856.392
8855.338
8854.285
8853.233
8852.177
8851.108
8850.008
8848.87
8847.697
8846.497
8845.271
8844.018
8842.738
8841.43
8840.094
8838.728
8837.332
8835.904
8834.441
8832.943
8831.408
8829.834
8828.218
8826.559
8824.853
8823.102
8821.3
8819.449
8817.546
8815.59
8813.583
8811.526
8809.424
8807.285
8805.127
8802.974
8800.864
8798.844
8796.968
8795.284
8793.822
8792.57
8791.471
8790.446
8789.443
8788.438
8787.421
8786.386
8785.328
8784.244
8783.135
8782.001
8780.845
8779.67
8778.478
8777.272
8776.055
8774.831
8773.602
8772.372
8771.144
8769.922
8768.708
8767.506
8766.319
8765.151
8764.003
8762.88
8761.783
8760.714
8759.675
8758.666
8757.686
8756.742
8755.824
8754.913
8754.018
8753.188
8752.452
8751.807
8751.24
8750.75
8750.341
8750.017
8749.78
8749.632
8749.575
8749.61
8749.738
8749.961
8750.28
8750.696
8751.21
8751.824
8752.538
8753.353
8754.271
8755.293
8756.417
8757.647
8758.981
8760.42
8761.965
8763.614
8765.369
8767.228
8769.191
8771.257
8773.425
8775.692
8778.058
8780.52
8783.073
8785.714
8788.437
8791.233
8794.094
8797.009
8799.965
8802.951
8805.958
8808.982
8812.027
8815.1
8818.206
8821.345
8824.508
8827.687
8830.887
8834.106
8837.325
8840.534
8843.747
8846.971
8850.207
8853.447
8856.69
8859.929
8863.16
8866.375
8869.57
8872.738
8875.875
8878.976
8882.037
8885.051
8888.017
8890.933
8893.809
8896.573
8899.287
8901.924
8904.498
8906.987
8909.388
8911.721
8913.96
8916.101
8918.143
8920.081
8921.912
8923.637
8925.252
8926.752
8928.133
8929.394
8930.531
8931.543
8932.427
8933.181
8933.803
8934.294
8934.651
8934.876
8934.969
8934.931
8934.762
8934.463
8934.037
8933.486
8932.814
8932.024
8931.119
8930.104
8928.983
8927.761
8926.444
8925.038
8923.548
8921.98
8920.341
8918.639
8916.873
8915.05
8913.209
8911.281
8909.33
8907.353
8905.35
8903.328
8901.294
8899.256
8897.226
8895.219
8893.259
8891.378
8889.623
8888.044
8886.721
8885.702
8885.092
8884.846
8885.147
5325.466
5287.579
5219.05
5143.813
5072.402
5008.964
4948.996
4891.144
4834.6
4774.555
4703.558
4639.035
4572.536
4503.769
4433.189
4362.343
4292.778
4226.105
4164.919
4112.664
4072.924
4047.869
4040.918
4055.13
4092.752
4154.963
4242.112
4353.564
4488.69
4648.944
4825.836
5014.682
5213.673
5418.824
5627.062
5837.01
6048.944
6262.46
6476.62
6691.454
6906.905
7119.357
7320.91
7502.289
7655.381
7774.411
7856.694
7902.849
7915.88
7900.374
7861.696
7805.403
7736.746
7660.515
7580.98
7501.268
7423.946
7351.188
7284.792
7226.243
7176.38
7135.34
7103.285
7080.245
7065.95
7060.045
7062.253
7071.843
7088.236
7110.91
7139.272
7172.693
7210.523
7252.095
7296.74
7343.795
7392.624
7442.59
7493.125
7543.739
7593.966
7643.366
7691.561
7738.261
7783.246
7826.354
7867.473
7906.548
7943.587
7978.628
8011.719
8042.896
8072.208
8099.686
8125.43
8149.483
8171.878
8192.777
8212.378
8230.799
8248.097
8264.341
8279.625
8294.05
8307.71
8320.69
8333.069
8344.923
8356.316
8367.298
8377.905
8388.168
8398.105
8407.732
8417.059
8426.098
8434.856
8443.333
8451.525
8459.426
8467.029
8474.331
8481.346
8488.063
8494.45
8500.511
8506.262
8511.713
8516.875
8521.761
8526.392
8530.792
8534.989
8538.996
8542.843
8546.565
8550.194
8553.759
8557.29
8560.815
8564.363
8567.957
8571.62
8575.374
8579.24
8583.231
8587.359
8591.627
8596.032
8600.565
8605.211
8609.948
8614.754
8619.624
8624.561
8629.557
8634.6
8639.686
8644.827
8650.034
8655.318
8660.685
8666.142
8671.691
8677.338
8683.085
8688.937
8694.899
8700.977
8707.175
8713.491
8719.897
8726.382
8732.937
8739.51
8746.021
8752.378
8758.502
8764.357
8769.952
8775.335
8780.604
8785.877
8791.206
8796.569
8801.917
8807.198
8812.378
8817.461
8822.418
8827.221
8831.887
8836.363
8840.607
8844.64
8848.459
8852.048
8855.406
8858.537
8861.443
8864.129
8866.601
8868.865
8870.929
8872.801
8874.49
8876.006
8877.359
8878.558
8879.614
8880.537
8881.336
8882.02
8882.598
8883.079
8883.47
8883.78
8884.016
8884.186
8884.296
8884.354
8884.364
8884.331
8884.259
8884.154
8884.022
8883.868
8883.699
8883.519
8883.328
8883.129
8882.919
8882.694
8882.452
8882.192
8881.919
8881.635
8881.342
8881.043
8880.736
8880.421
8880.1
8879.772
8879.432
8879.085
8878.727
8878.358
8877.974
8877.574
8877.158
8876.722
8876.266
8875.788
8875.287
8874.762
8874.211
8873.633
8873.028
8872.396
8871.735
8871.045
8870.327
8869.58
8868.805
8868.001
8867.169
8866.31
8865.424
8864.513
8863.577
8862.618
8861.637
8860.636
8859.617
8858.583
8857.537
8856.482
8855.42
8854.354
8853.282
8852.202
8851.105
8849.984
8848.833
8847.653
8846.448
8845.218
8843.962
8842.68
8841.371
8840.034
8838.668
8837.272
8835.845
8834.384
8832.889
8831.359
8829.793
8828.186
8826.537
8824.845
8823.11
8821.332
8819.509
8817.643
8815.733
8813.783
8811.796
8809.78
8807.743
8805.701
8803.675
8801.695
8799.794
8798.008
8796.364
8794.878
8793.544
8792.328
8791.185
8790.078
8788.982
8787.886
8786.782
8785.665
8784.529
8783.375
8782.203
8781.013
8779.806
8778.586
8777.354
8776.114
8774.867
8773.616
8772.365
8771.116
8769.873
8768.638
8767.415
8766.206
8765.015
8763.845
8762.697
8761.575
8760.48
8759.414
8758.38
8757.375
8756.403
8755.461
8754.548
8753.681
8752.874
8752.137
8751.471
8750.881
8750.369
8749.94
8749.596
8749.338
8749.17
8749.092
8749.106
8749.215
8749.419
8749.719
8750.118
8750.615
8751.214
8751.914
8752.717
8753.623
8754.634
8755.75
8756.972
8758.299
8759.733
8761.273
8762.919
8764.671
8766.528
8768.49
8770.554
8772.721
8774.988
8777.352
8779.812
8782.362
8784.999
8787.717
8790.509
8793.366
8796.281
8799.244
8802.245
8805.279
8808.341
8811.431
8814.551
8817.702
8820.885
8824.093
8827.325
8830.574
8833.834
8837.095
8840.358
8843.629
8846.911
8850.2
8853.491
8856.778
8860.058
8863.326
8866.577
8869.806
8873.007
8876.175
8879.307
8882.397
8885.44
8888.431
8891.364
8894.218
8897.058
8899.812
8902.486
8905.083
8907.601
8910.035
8912.388
8914.651
8916.818
8918.886
8920.85
8922.709
8924.459
8926.097
8927.619
8929.021
8930.302
8931.458
8932.486
8933.384
8934.151
8934.784
8935.283
8935.646
8935.874
8935.968
8935.926
8935.751
8935.443
8935.006
8934.441
8933.751
8932.941
8932.013
8930.973
8929.825
8928.575
8927.228
8925.79
8924.269
8922.67
8921.001
8919.266
8917.472
8915.624
8913.722
8911.822
8909.874
8907.903
8905.918
8903.928
8901.942
8899.973
8898.036
8896.148
8894.334
8892.623
8891.055
8889.673
8888.535
8887.671
8887.165
8886.951
8887.262
5285.109
5237.32
5149.116
5089.853
5032.14
4977.722
4924.846
4871.985
4817.737
4761.417
4703.122
4640.409
4573.979
4504.036
4431.51
4357.367
4283.347
4211.564
4144.48
4085.49
4039.421
4008.451
3995.697
4005.031
4039.104
4099.752
4187.78
4302.476
4442.514
4606.222
4788.042
4982.228
5184.077
5389.887
5596.142
5800.909
6003.835
6205.111
6404.258
6601.739
6799.023
6993.903
7179.32
7346.414
7487.602
7597.793
7674.809
7719.213
7733.621
7722.085
7689.584
7640.92
7580.717
7513.024
7441.268
7368.862
7298.297
7231.81
7171.584
7118.92
7074.556
7038.754
7011.661
6993.302
6983.47
6981.92
6988.29
7001.924
7022.262
7048.804
7080.978
7118.159
7159.708
7204.987
7253.349
7304.146
7356.738
7410.487
7464.779
7519.047
7572.767
7625.461
7676.726
7726.248
7773.789
7819.186
7862.339
7903.203
7941.788
7978.136
8012.31
8044.379
8074.425
8102.528
8128.779
8153.258
8176.048