/*--------------------------------*- C++ -*----------------------------------*\
| =========                 |                                                 |
| \\      /  F ield         | foam-extend: Open Source CFD                    |
|  \\    /   O peration     | Version:     3.1                                |
|   \\  /    A nd           | Web:         http://www.extend-project.de       |
|    \\/     M anipulation  |                                                 |
\*---------------------------------------------------------------------------*/
FoamFile
{
    version     2.0;
    format      ascii;
    class       volScalarField;
    location    "11";
    object      k;
}
// * * * * * * * * * * * * * * * * * * * * * * * * * * * * * * * * * * * * * //

dimensions      [0 2 -2 0 0 0 0];

internalField   nonuniform List<scalar> 
119952
(
0.06109789
0.05716953
0.05658102
0.05627533
0.05556325
0.05440273
0.05389145
0.05357281
0.05314886
0.05245405
0.05138567
0.04988566
0.04791702
0.04550387
0.04273072
0.03976307
0.03684269
0.03422741
0.03215517
0.03089067
0.03330065
0.03099927
0.03018415
0.03293808
0.02988886
0.02817576
0.02693823
0.02580739
0.02405475
0.01590271
0.09191058
0.08780628
0.08515366
0.08388212
0.08365188
0.08414605
0.0850617
0.08618283
0.08736786
0.08861371
0.08572749
0.08718443
0.0906038
0.09469752
0.09878407
0.1024712
0.105625
0.1082646
0.1103507
0.1218783
0.1225825
0.122724
0.1224431
0.1219265
0.1213069
0.1206834
0.1201075
0.1196185
0.1193142
0.1194132
0.1192788
0.1191851
0.1191913
0.1194158
0.1198784
0.1205328
0.1212772
0.1222407
0.1254804
0.1266351
0.1268566
0.1277465
0.1286669
0.1290711
0.1287544
0.1278148
0.1265496
0.1250785
0.123475
0.1217961
0.1200957
0.1184208
0.1168215
0.1153471
0.1140362
0.1129283
0.1120574
0.111479
0.1113988
0.1114448
0.1113813
0.1116087
0.111782
0.1113752
0.1104561
0.1092104
0.1072024
0.1031011
0.09986088
0.09686118
0.09412279
0.091601
0.08927269
0.08715525
0.08525296
0.08356159
0.08206783
0.08076188
0.07962094
0.07861946
0.0777367
0.07695465
0.07626768
0.07567361
0.07515712
0.07469802
0.07428105
0.07389392
0.07352674
0.07317148
0.07282179
0.07247258
0.07211969
0.07175959
0.07138909
0.07100517
0.0706047
0.07018426
0.06973991
0.06926721
0.06876149
0.06821802
0.06763302
0.06700558
0.06633478
0.06561994
0.06486004
0.06406225
0.063247
0.06243158
0.06163028
0.06085498
0.06011621
0.05942236
0.05877041
0.05815793
0.05760803
0.05717056
0.05679835
0.05647539
0.05618704
0.05593162
0.05571238
0.05553615
0.05541381
0.05535954
0.05538988
0.05552306
0.05577838
0.05617589
0.05673551
0.05747603
0.05841312
0.05955713
0.06091106
0.06246944
0.06421842
0.06613718
0.06820413
0.07040368
0.07272072
0.07514595
0.07767707
0.08031396
0.08305156
0.08587977
0.08878722
0.09175572
0.09474639
0.09769197
0.1005035
0.1030922
0.1053938
0.1073795
0.1090441
0.1103816
0.1113757
0.1120068
0.1122378
0.11198
0.1111402
0.1095994
0.1072105
0.1038703
0.09957369
0.09409377
0.08715065
0.08131232
0.07656344
0.07554632
0.07641315
0.07771507
0.07803122
0.07505285
0.06903894
0.06250246
0.0571615
0.05352261
0.05105716
0.04900515
0.04689786
0.04478837
0.04286529
0.04123448
0.03992982
0.03893052
0.03819215
0.03765638
0.03725798
0.03693212
0.0366258
0.0362194
0.03559406
0.03448554
0.03270208
0.03239452
0.04332932
0.05153326
0.05033645
0.04637851
0.04094751
0.03430718
0.02820748
0.0240475
0.02139118
0.01974958
0.01866172
0.01786258
0.01725353
0.01679916
0.01649518
0.01632424
0.01625221
0.01629399
0.01645866
0.01671556
0.0170498
0.01744737
0.01789495
0.01838122
0.01889595
0.01943018
0.01997649
0.02052946
0.02109867
0.02169252
0.02230512
0.02291803
0.02352516
0.0241249
0.02471773
0.02530458
0.0258858
0.02646177
0.02703251
0.02759853
0.02815604
0.03320044
0.03395297
0.03464121
0.03537578
0.03619443
0.03705402
0.03790136
0.03869846
0.03942525
0.04007442
0.04064567
0.04114168
0.04156608
0.04192241
0.04221379
0.04244293
0.04261218
0.04272371
0.04277966
0.04278225
0.04273392
0.04263726
0.04249511
0.04231043
0.04208628
0.0418259
0.04153283
0.04121094
0.0408643
0.04049659
0.04011042
0.03970713
0.03928713
0.03885081
0.0383993
0.03793462
0.03745956
0.03697725
0.03649082
0.03600315
0.03551676
0.03503371
0.03455565
0.03408409
0.0336214
0.03316772
0.03271106
0.03225626
0.0318101
0.0313729
0.03094532
0.03052839
0.0301241
0.0297473
0.02940951
0.02896198
0.02851862
0.02808721
0.02766958
0.0272701
0.02689293
0.02654038
0.02621288
0.02590966
0.02562923
0.02536965
0.02512877
0.02490446
0.02469465
0.02449739
0.02431084
0.02413331
0.02396322
0.0237992
0.02363995
0.02348434
0.02333136
0.02318008
0.02302972
0.02287959
0.02272918
0.02257815
0.0224262
0.02227293
0.02211823
0.0219629
0.02180698
0.02165017
0.02149297
0.02133571
0.02117866
0.02102217
0.0208666
0.0207123
0.02055961
0.02040882
0.02026024
0.02011415
0.01997079
0.01983043
0.01969331
0.01955975
0.01943011
0.01930464
0.01918391
0.01906831
0.01895823
0.01885406
0.01875612
0.01866465
0.01857975
0.01850143
0.01842966
0.01836429
0.01830502
0.01825154
0.0182035
0.01816047
0.01812201
0.01808765
0.0180569
0.01802932
0.01800443
0.0179818
0.01796098
0.01794159
0.01792322
0.0179056
0.01788825
0.01787093
0.01785311
0.01783449
0.01781402
0.01779015
0.01775834
0.01770868
0.01761105
0.01746139
0.01767849
0.08662539
0.08521671
0.09410461
0.1034186
0.1110116
0.1169846
0.1217658
0.1256857
0.1291099
0.1335422
0.1459301
0.1585568
0.1695147
0.1784808
0.1855113
0.1909071
0.1949992
0.1981182
0.2244895
0.2243938
0.2241276
0.223487
0.2227188
0.2219951
0.2213668
0.2208054
0.2202609
0.2195723
0.2190441
0.2182306
0.2170012
0.2155979
0.2141607
0.2127606
0.2114255
0.2101539
0.2089191
0.207886
0.2068375
0.2054708
0.2040113
0.202575
0.2011931
0.1998806
0.1986422
0.1974747
0.19638
0.1953842
0.1943776
0.1934252
0.1925155
0.1916138
0.1906938
0.1897143
0.1886382
0.1874844
0.1972927
0.1955732
0.1938147
0.192037
0.1902138
0.1883322
0.1863925
0.1843672
0.1822358
0.1800052
0.1777901
0.1756801
0.1737228
0.171978
0.1705056
0.1693509
0.1685468
0.1681469
0.1683293
0.1689016
0.1693837
0.1700235
0.1709361
0.171818
0.1723545
0.1724251
0.1720117
0.1711958
0.1700687
0.1686724
0.1670568
0.1652641
0.1633183
0.1612223
0.1589694
0.1565605
0.1540293
0.1514527
0.1489401
0.1466118
0.1445081
0.1426965
0.1413001
0.1401094
0.1389776
0.13786
0.136659
0.1350313
0.1329837
0.1310078
0.1290722
0.1270645
0.1249925
0.1228916
0.1208083
0.1187846
0.1168554
0.1150485
0.113383
0.1118679
0.1105029
0.109281
0.1081901
0.1072018
0.106307
0.1055229
0.1048326
0.1042189
0.1036667
0.1031627
0.1026955
0.1022554
0.1018344
0.1014257
0.1010236
0.1006228
0.1002186
0.09980609
0.09938036
0.09893604
0.09846749
0.09796893
0.09743452
0.09685854
0.09623572
0.09556157
0.09483277
0.09404783
0.09320739
0.0923145
0.0913742
0.0903933
0.0893799
0.08834322
0.08729333
0.08624204
0.08520392
0.08419848
0.083232
0.08230473
0.08142969
0.08062075
0.07989168
0.07925733
0.07873371
0.07833859
0.07809179
0.07801498
0.07813127
0.07846431
0.07903711
0.07987064
0.08098233
0.08238501
0.08408594
0.08608689
0.08838413
0.09096926
0.093832
0.09696256
0.1003531
0.1040003
0.1079073
0.1120806
0.1165215
0.1212247
0.1261823
0.1313758
0.1367496
0.1421898
0.1475624
0.1527219
0.1575447
0.1619534
0.1659019
0.1693385
0.1721977
0.1744424
0.1760482
0.1769793
0.1771595
0.176474
0.1748173
0.1721084
0.1682446
0.1630538
0.1565851
0.1491192
0.1414513
0.1292839
0.1180926
0.1077824
0.09896315
0.09242358
0.08857581
0.08712102
0.08711644
0.08740717
0.08701583
0.08558105
0.08303628
0.0795641
0.07567796
0.07187711
0.06849102
0.06567086
0.06344078
0.06176039
0.06056674
0.05978298
0.05933223
0.05914461
0.05915352
0.05928664
0.05927305
0.05837334
0.05571843
0.05343203
0.0529124
0.05465019
0.05864294
0.06337322
0.0668673
0.06694488
0.06286048
0.05655789
0.05052024
0.04581732
0.04240545
0.03999164
0.03833448
0.03725081
0.03659601
0.03625384
0.03615266
0.03625444
0.03653202
0.03696467
0.03753428
0.03822339
0.03901447
0.03988945
0.04083033
0.04182036
0.04284464
0.0438905
0.0449477
0.04600792
0.04706478
0.04811929
0.04915272
0.05015851
0.05113511
0.05208209
0.05299936
0.05388712
0.05474606
0.05557466
0.06096051
0.06176054
0.06250473
0.06319275
0.06383254
0.06443063
0.06498872
0.06550491
0.06597505
0.06639407
0.06675692
0.06705915
0.06729713
0.06746808
0.06757007
0.0676019
0.06756311
0.06745391
0.06727517
0.06702841
0.0667158
0.06634016
0.06590483
0.06541353
0.06487006
0.06427824
0.06364207
0.06296596
0.06225497
0.06151433
0.06074861
0.05996106
0.0591539
0.05832916
0.05748952
0.05663844
0.05578
0.05491847
0.05405801
0.05320239
0.05235488
0.05151824
0.05069491
0.04988682
0.04909507
0.04831859
0.04755494
0.04680456
0.04606901
0.04534904
0.04464467
0.04395683
0.04328415
0.0426322
0.04199848
0.04137207
0.04075671
0.04015622
0.03957205
0.03900414
0.03845229
0.03791633
0.03739616
0.0368917
0.03640288
0.03592959
0.03547157
0.03502846
0.03459975
0.0341848
0.03378285
0.03339301
0.03301431
0.03264568
0.03228597
0.03193401
0.03158861
0.03124858
0.03091277
0.03058012
0.03024969
0.02992065
0.02959238
0.02926442
0.02893651
0.02860862
0.02828102
0.02795413
0.02762853
0.027305
0.02698442
0.0266678
0.02635617
0.02605062
0.02575227
0.02546232
0.02518217
0.02491273
0.02465384
0.02440531
0.02416691
0.02393842
0.02371964
0.02351041
0.02331063
0.0231203
0.02293944
0.02276816
0.02260666
0.02245532
0.02231439
0.02218344
0.02206204
0.02194969
0.0218459
0.02175019
0.021662
0.02158073
0.02150577
0.02143643
0.02137211
0.02131209
0.02125584
0.02120258
0.02115191
0.02110299
0.0210556
0.02100871
0.02096238
0.02091512
0.02086738
0.02081658
0.02076333
0.02070238
0.02063378
0.02055098
0.02047287
0.02043608
0.020451
0.04911624
0.05303412
0.0576043
0.06262715
0.06814834
0.07425215
0.08109718
0.08891142
0.0980134
0.1081875
0.1569934
0.1722651
0.1875609
0.2028844
0.2185597
0.23428
0.2502542
0.2676579
0.2956112
0.3503593
0.3618573
0.3724132
0.3818718
0.3903
0.3979508
0.4045227
0.4097173
0.4139968
0.4184981
0.4233547
0.4278166
0.4306615
0.4319965
0.4321685
0.4314349
0.4299602
0.4278852
0.4256531
0.4205839
0.416298
0.4124663
0.4088978
0.4054472
0.401994
0.3984535
0.3947599
0.3908989
0.3869108
0.3826136
0.3781392
0.3734987
0.3687608
0.3639928
0.359243
0.3545368
0.3498462
0.3598425
0.3553178
0.3506632
0.3459859
0.3413399
0.3367419
0.3322154
0.3277719
0.3234282
0.3191644
0.3149287
0.310746
0.3066437
0.3026127
0.2986689
0.2948358
0.2911241
0.287533
0.2840515
0.2806189
0.2772141
0.2738878
0.2706531
0.2675159
0.2644987
0.2616151
0.2588645
0.256236
0.2537109
0.2513072
0.2490417
0.2469238
0.2449711
0.2431994
0.2415734
0.2400428
0.2384816
0.2367622
0.2349084
0.2329157
0.2307813
0.2285852
0.2263277
0.2239944
0.2215321
0.218926
0.2161387
0.2131556
0.2099725
0.206664
0.2033997
0.2003756
0.197688
0.1954251
0.1936432
0.1924169
0.191766
0.1917365
0.1921421
0.1928926
0.1939418
0.1951151
0.1961157
0.1967145
0.196809
0.1963818
0.1955284
0.1943105
0.1928071
0.1911111
0.1892843
0.187334
0.1852101
0.1828365
0.1801619
0.1772003
0.1740303
0.1707674
0.1674955
0.1643201
0.1613595
0.1585839
0.1559689
0.1534871
0.1511155
0.1487493
0.1464084
0.144189
0.1420956
0.1400765
0.1380913
0.1361282
0.1341962
0.1323135
0.130501
0.1287798
0.1271684
0.1256806
0.1243243
0.1231021
0.1220101
0.1210363
0.1201543
0.1193534
0.1186524
0.1180357
0.1174877
0.116995
0.1165458
0.1161302
0.1157396
0.1153667
0.1150055
0.1146506
0.1142968
0.1139394
0.1135731
0.1131924
0.1127911
0.112363
0.1119012
0.1113987
0.1108486
0.1102437
0.1095777
0.1088451
0.1080422
0.1071671
0.1062201
0.1052037
0.1041228
0.1029842
0.1017975
0.1005745
0.09933005
0.09808122
0.09684362
0.09563061
0.09445766
0.09334257
0.09230647
0.09137265
0.09056498
0.08990834
0.08942939
0.08915623
0.08911771
0.08934231
0.08985675
0.09068455
0.09184486
0.09335181
0.09521378
0.09743482
0.1000146
0.102949
0.1062353
0.1098744
0.1138708
0.1182331
0.1229743
0.1281237
0.1337013
0.1397141
0.1461638
0.1530354
0.1602564
0.1676679
0.1750445
0.1821433
0.1887678
0.1947931
0.2001375
0.2046996
0.2083643
0.2111002
0.2129305
0.2138467
0.2137836
0.2126534
0.2104086
0.2070442
0.2025441
0.1968948
0.190077
0.1823412
0.173747
0.1645779
0.1548848
0.1448375
0.134732
0.1249688
0.1160269
0.108384
0.1023398
0.09785613
0.09458755
0.0920407
0.0897374
0.08736493
0.08482977
0.08220672
0.07964895
0.07730968
0.07530764
0.07371682
0.07257096
0.0718794
0.07162039
0.07173656
0.07216852
0.07280191
0.07334321
0.07340993
0.07292321
0.07210558
0.0711214
0.0702093
0.06979791
0.07038515
0.07231067
0.07542521
0.07896441
0.08143831
0.08106874
0.07764322
0.07259621
0.06741683
0.06304092
0.05969287
0.05725402
0.05554663
0.05440145
0.05369451
0.05334459
0.05329956
0.05352293
0.05398579
0.05466005
0.0555148
0.05651743
0.05763572
0.05883925
0.06010069
0.06139681
0.06270882
0.06402231
0.06533027
0.06661217
0.06785498
0.069053
0.07020389
0.0713074
0.07236364
0.07338109
0.07435859
0.07522857
0.07605048
0.07681988
0.07753178
0.07818686
0.07878524
0.07932518
0.07980405
0.08021892
0.08056671
0.08084429
0.08104875
0.08117757
0.08122882
0.08120117
0.08109399
0.08090727
0.0806417
0.08029862
0.07988001
0.07938848
0.07882738
0.07820073
0.07751302
0.0767688
0.07597231
0.0751275
0.07423845
0.07331008
0.07234824
0.07135887
0.07034679
0.06931548
0.06826799
0.06720798
0.06613997
0.06506902
0.06400022
0.06293832
0.06188752
0.06085131
0.05983252
0.05883336
0.05785538
0.05689926
0.0559645
0.05504959
0.05415382
0.05327754
0.05242099
0.05158425
0.05076727
0.04996996
0.04919182
0.04843293
0.04769088
0.04696655
0.04626056
0.04557272
0.04490278
0.04425073
0.0436167
0.0430007
0.0424027
0.04182254
0.04126001
0.04071482
0.04018656
0.03967474
0.03917874
0.03869785
0.03823122
0.03777792
0.03733691
0.03690703
0.03648709
0.03607578
0.03567181
0.03527387
0.03488065
0.03449094
0.0341036
0.03371764
0.03333225
0.03294681
0.03256091
0.03217441
0.03178738
0.03140017
0.03101331
0.03062758
0.03024397
0.02986358
0.0294877
0.02911763
0.02875479
0.02840054
0.02805651
0.0277237
0.02740282
0.02709439
0.02679881
0.0265163
0.02624695
0.02599073
0.0257475
0.02551702
0.02529894
0.0250928
0.02489808
0.02471442
0.02454209
0.02438148
0.02423269
0.02409494
0.02396744
0.0238494
0.02374008
0.02363868
0.02354447
0.02345663
0.02337447
0.02329716
0.02322405
0.0231543
0.02308733
0.02302227
0.02295864
0.02289542
0.02283223
0.0227677
0.02270144
0.02263143
0.02255747
0.02247769
0.02239484
0.02231199
0.02224008
0.0221883
0.03562957
0.04024834
0.04436897
0.0678974
0.09201401
0.1219995
0.1424589
0.1630934
0.1828084
0.201234
0.2172936
0.2312546
0.2449348
0.2590205
0.2732364
0.2877066
0.3024897
0.3175678
0.3328519
0.348098
0.3628827
0.3772
0.3911362
0.40469
0.4180403
0.4312015
0.4441243
0.4567769
0.469136
0.4812204
0.4938305
0.5288033
0.5359364
0.5428929
0.5486309
0.5530371
0.5560515
0.557438
0.5575851
0.5568214
0.5555098
0.5534531
0.5507245
0.54739
0.5434925
0.5390872
0.5342407
0.5290193
0.5234899
0.5177119
0.5117151
0.5056192
0.4994513
0.4932777
0.487152
0.4811056
0.4750518
0.4690153
0.4629955
0.4569662
0.4508704
0.44468
0.4383817
0.4319975
0.4255841
0.4191854
0.4128841
0.4066514
0.4000595
0.3937024
0.3875653
0.3815989
0.375784
0.3701331
0.3646722
0.359419
0.3543642
0.3494682
0.3446769
0.3399542
0.3352787
0.3306543
0.3261161
0.3217099
0.31747
0.3133986
0.3094619
0.3056061
0.3017807
0.2979732
0.2942073
0.2905231
0.2869759
0.2836073
0.2804235
0.2774139
0.2745658
0.2718752
0.2693556
0.2670444
0.2650017
0.2632667
0.2618316
0.2606057
0.2594689
0.2582576
0.2568926
0.2553068
0.2534846
0.2513993
0.2491432
0.2467747
0.244286
0.2416175
0.2386936
0.2354656
0.2319407
0.2281868
0.224303
0.2204616
0.216941
0.2138932
0.2114338
0.209653
0.2086205
0.2083898
0.208914
0.210058
0.2116532
0.2134501
0.2150611
0.2161923
0.2167448
0.2167169
0.2161869
0.2152115
0.2139049
0.2124492
0.2109887
0.2095684
0.2080912
0.2063641
0.2041854
0.2014519
0.1982041
0.1945558
0.1906279
0.1865523
0.1824676
0.1784581
0.17458
0.1708591
0.167322
0.1639638
0.1607972
0.1578474
0.1551188
0.1525812
0.1501913
0.1479187
0.1457503
0.1436844
0.1417249
0.1398791
0.1381551
0.1365612
0.1351031
0.1337834
0.1326007
0.1315492
0.1306166
0.1297766
0.1290231
0.1283646
0.127785
0.1272697
0.1268059
0.126383
0.1259918
0.1256251
0.1252764
0.1249403
0.124612
0.1242868
0.1239597
0.1236252
0.1232772
0.1229093
0.1225144
0.1220849
0.1216125
0.1210883
0.1205035
0.1198495
0.1191186
0.1183048
0.1174039
0.1164141
0.1153358
0.1141722
0.1129296
0.111618
0.1102508
0.1088454
0.1074214
0.105998
0.1045958
0.1032384
0.1019548
0.1007753
0.09973007
0.09885116
0.09817244
0.09772919
0.0975571
0.0976908
0.09816212
0.09899837
0.1002215
0.1018481
0.1038888
0.1063502
0.1092345
0.1125383
0.1162671
0.1204425
0.1250927
0.1302564
0.1359882
0.1423473
0.1493723
0.1570854
0.1654954
0.1745783
0.1842142
0.1941329
0.2039296
0.2132057
0.2216581
0.2290994
0.2354045
0.2404316
0.2440528
0.2463161
0.2473747
0.2473094
0.2461258
0.2438287
0.2404546
0.2360387
0.2306099
0.2241905
0.2168086
0.2085682
0.1996603
0.1901384
0.1800476
0.1694913
0.158675
0.1478916
0.1375092
0.1279126
0.1194132
0.1121717
0.1061824
0.1012711
0.09717365
0.09363537
0.09047405
0.08759847
0.08499551
0.08270445
0.08078518
0.07928749
0.07824392
0.07766984
0.07755177
0.0778434
0.07847389
0.07934288
0.0802823
0.0810324
0.08142817
0.0814866
0.08124376
0.08073861
0.08009604
0.07954927
0.07941026
0.08016797
0.08232862
0.08551777
0.08880477
0.09068909
0.08981958
0.08635792
0.08165624
0.07698688
0.07301694
0.06995841
0.06771648
0.06615407
0.06514188
0.06458141
0.06440606
0.06457126
0.06503967
0.06577091
0.06672171
0.0678482
0.06910722
0.07045831
0.07186601
0.07330116
0.07474097
0.07617012
0.07757235
0.07893324
0.08024526
0.08150429
0.08270836
0.0838551
0.08494671
0.08597348
0.08693214
0.08782661
0.08865541
0.08941462
0.09010193
0.09071529
0.09125203
0.09170918
0.09208392
0.09237364
0.09257589
0.09268859
0.09271011
0.0926395
0.09247652
0.09222167
0.09187619
0.09144202
0.09092182
0.09031883
0.08963682
0.08888023
0.08805423
0.08716456
0.08621705
0.08521698
0.08416877
0.08307629
0.08194382
0.08077679
0.07958122
0.07836294
0.07712736
0.07587906
0.07462291
0.07336461
0.07211017
0.07086532
0.06963512
0.06842376
0.06723459
0.06607009
0.064932
0.06382131
0.06273828
0.06168233
0.0606522
0.05964677
0.05866546
0.05770796
0.05677381
0.05586252
0.0549734
0.05410567
0.05325932
0.05243354
0.05162775
0.05084177
0.05007555
0.04932906
0.04860236
0.04789548
0.04720841
0.04654106
0.04589331
0.04526496
0.04465577
0.04406541
0.04349346
0.04293942
0.04240265
0.04188242
0.04137786
0.04088797
0.04041166
0.03994771
0.03949479
0.03905151
0.03861644
0.0381881
0.03776504
0.03734588
0.03692933
0.03651423
0.0360996
0.03568464
0.03526882
0.03485183
0.03443362
0.0340144
0.03359461
0.03317497
0.03275639
0.03233998
0.03192698
0.03151868
0.03111631
0.03072159
0.03033661
0.02996261
0.02960065
0.02925165
0.02891632
0.0285952
0.02828866
0.0279969
0.02771993
0.02745758
0.02720955
0.02697547
0.02675492
0.02654741
0.02635237
0.02616953
0.02599933
0.02584131
0.02569459
0.02555831
0.0254316
0.02531361
0.02520349
0.0251004
0.02500345
0.02491186
0.02482471
0.02474128
0.02466061
0.02458205
0.02450457
0.02442756
0.02434986
0.0242709
0.02418949
0.02410544
0.02401824
0.02392881
0.02383894
0.0237517
0.02367767
0.01726278
0.01927628
0.02122506
0.02831216
0.03779771
0.05385365
0.06528145
0.07753346
0.09084988
0.1045098
0.118766
0.134593
0.1516889
0.1693863
0.1880519
0.2092702
0.2419964
0.2575911
0.2735501
0.2896734
0.3060945
0.3222255
0.3377042
0.3526746
0.3673402
0.3818197
0.3963604
0.4109753
0.4253364
0.4395736
0.4536866
0.4676184
0.4813105
0.4946862
0.5076445
0.5200117
0.5317332
0.542793
0.5531889
0.5629626
0.5720533
0.5789371
0.581391
0.5848577
0.5873647
0.5881571
0.587638
0.5858143
0.5827597
0.5786016
0.5735761
0.5679674
0.5618293
0.5552476
0.5483535
0.5412686
0.534085
0.5268683
0.519659
0.5124852
0.5053655
0.4983112
0.4913693
0.4845756
0.4779784
0.4716262
0.4655542
0.4597656
0.4542319
0.4489035
0.4437102
0.4385337
0.4331832
0.4276779
0.4220439
0.4163416
0.4106373
0.4050123
0.3994897
0.3940489
0.3887294
0.3835374
0.3784266
0.3733797
0.3684293
0.3636343
0.3590462
0.3546749
0.3504782
0.3463755
0.3422825
0.3381504
0.3339845
0.3298391
0.3257947
0.321922
0.3182435
0.3147193
0.3112677
0.3077949
0.3042519
0.3006583
0.297093
0.2936529
0.2904048
0.2873671
0.2845316
0.2818811
0.2793992
0.2770985
0.275044
0.2733396
0.2720691
0.2712382
0.270741
0.2703965
0.2699867
0.2693409
0.2683614
0.2669591
0.2652043
0.2632274
0.2611379
0.2589522
0.2565844
0.2538965
0.2507758
0.2471978
0.2432427
0.2390653
0.2348583
0.2308872
0.227444
0.2247076
0.2228215
0.221911
0.2220641
0.2232707
0.2253789
0.2280756
0.2308957
0.233314
0.2348855
0.2355375
0.2354177
0.2347154
0.2335222
0.2320304
0.230499
0.2291886
0.2282361
0.2275335
0.2267635
0.2255004
0.2234059
0.2204317
0.2167046
0.2123846
0.207658
0.202721
0.1977468
0.1928566
0.1881281
0.1836198
0.1793617
0.1753692
0.1716554
0.1682196
0.1650384
0.1620774
0.1593076
0.1567109
0.1542773
0.1520016
0.1498816
0.1479172
0.1461092
0.1444584
0.1429639
0.1416225
0.1404277
0.1393692
0.1384302
0.1375813
0.1368286
0.136165
0.1355744
0.1350429
0.1345589
0.1341128
0.1336972
0.133306
0.132934
0.1325768
0.13223
0.1318891
0.1315495
0.131206
0.1308529
0.1304834
0.1300899
0.1296636
0.1291948
0.1286726
0.1280863
0.1274251
0.1266796
0.1258419
0.1249059
0.1238679
0.1227268
0.1214849
0.1201483
0.1187284
0.1172416
0.1157086
0.1141529
0.1126
0.1110773
0.1096187
0.1082627
0.1070464
0.1060084
0.1051905
0.1046359
0.1043886
0.1044912
0.1049826
0.1058953
0.1072547
0.109078
0.1113782
0.1141672
0.1174517
0.1212424
0.1255677
0.1304741
0.1360238
0.1423054
0.1494305
0.1574955
0.1665668
0.1766708
0.1877992
0.1998716
0.2126104
0.2254658
0.2377554
0.2488883
0.2584628
0.2662648
0.2721756
0.2760736
0.2779623
0.2781056
0.2768695
0.2745419
0.2713222
0.2673327
0.2626171
0.2571717
0.2509742
0.2440095
0.2362851
0.2277877
0.2186636
0.2090237
0.1989534
0.1885235
0.1778123
0.1669936
0.1563285
0.146121
0.1366514
0.1281288
0.1206409
0.1141616
0.1085931
0.1037952
0.09963275
0.0960078
0.09286674
0.09019779
0.08801759
0.08634797
0.08520033
0.08456998
0.08443157
0.08473282
0.08540049
0.08635087
0.08745655
0.08852643
0.08941062
0.09005571
0.09041983
0.09044153
0.0901173
0.08956569
0.08895681
0.08846144
0.08841222
0.08938867
0.09178364
0.0950373
0.09806433
0.09930427
0.09789341
0.09436964
0.09001804
0.08587186
0.08238729
0.07970933
0.07776974
0.07645064
0.07566105
0.07532797
0.07539617
0.07581357
0.07652761
0.07748557
0.07863349
0.07991867
0.081294
0.08272013
0.08416579
0.08560894
0.087032
0.08841985
0.08976469
0.0910618
0.09230722
0.09349575
0.09462347
0.09568827
0.09668744
0.09761873
0.09847811
0.09926013
0.09995986
0.1005729
0.101095
0.101522
0.1018502
0.1020762
0.1021976
0.1022122
0.1021191
0.1019178
0.1016093
0.1011953
0.1006786
0.1000627
0.09935212
0.09855194
0.09766774
0.09670558
0.0956722
0.09457496
0.09342137
0.09221838
0.09097168
0.08968586
0.08836519
0.08701462
0.08563902
0.08424176
0.08282965
0.08140993
0.07998956
0.07857547
0.07717432
0.07579193
0.07443305
0.07310138
0.07179962
0.07052964
0.06929248
0.06808853
0.0669175
0.06577851
0.06467019
0.06359116
0.06254025
0.06151651
0.060519
0.05954676
0.05859886
0.05767442
0.05677288
0.05589343
0.05503528
0.05419803
0.05338155
0.05258577
0.05181064
0.05105611
0.05032214
0.0496087
0.04891572
0.04824311
0.04759073
0.04695839
0.04634583
0.04575266
0.04517843
0.04462254
0.04408425
0.04356269
0.04305683
0.04256552
0.04208745
0.0416212
0.04116528
0.04071809
0.04027803
0.03984352
0.03941303
0.03898514
0.03855855
0.03813215
0.03770505
0.03727659
0.03684633
0.03641412
0.03598005
0.0355445
0.03510808
0.03467164
0.0342362
0.03380296
0.03337314
0.03294792
0.03252963
0.03212005
0.03172064
0.0313327
0.0309574
0.03059568
0.03024835
0.02991603
0.0295991
0.0292977
0.02901178
0.02874118
0.02848569
0.02824497
0.02801851
0.02780572
0.02760599
0.02741942
0.02724563
0.02708373
0.02693288
0.02679217
0.02666071
0.0265376
0.02642191
0.02631273
0.02620913
0.02611023
0.02601508
0.02592284
0.02583255
0.02574342
0.02565448
0.02556507
0.02547434
0.02538198
0.02528768
0.02519163
0.02509498
0.02499846
0.0249137
0.007171838
0.008433341
0.00939015
0.01403418
0.01939281
0.02643843
0.03226874
0.03890101
0.04611683
0.053864
0.06243296
0.07258049
0.08381572
0.09647745
0.1117776
0.1355606
0.1483278
0.1618918
0.1758094
0.1900353
0.2044979
0.2190689
0.2336127
0.248005
0.2621287
0.2758804
0.2894101
0.3043291
0.3196289
0.3353179
0.3513926
0.3674662
0.3831723
0.398459
0.4133967
0.4280883
0.4423873
0.4561307
0.469567
0.4827179
0.4955644
0.5080486
0.5200915
0.5315866
0.5423741
0.5523382
0.5613844
0.5694729
0.5764601
0.5824024
0.5872429
0.5898892
0.5894571
0.5880231
0.585022
0.5803926
0.5743337
0.5670361
0.5586784
0.5495143
0.5398061
0.5297996
0.5196916
0.5096423
0.4997945
0.4902705
0.4811556
0.4724871
0.4642615
0.4564424
0.4489799
0.4418339
0.4349917
0.4284827
0.4223709
0.4167282
0.4116693
0.4071725
0.4031575
0.3995188
0.3960472
0.3925525
0.3889409
0.385185
0.3812947
0.3773133
0.3733093
0.3693646
0.365549
0.3618884
0.3583669
0.3549315
0.351513
0.3480788
0.344659
0.3413321
0.3381841
0.3352525
0.3324926
0.3297904
0.3270192
0.3241002
0.3210309
0.3178834
0.3147803
0.311845
0.3091346
0.3066055
0.3041417
0.3016019
0.2988964
0.2960385
0.2931326
0.2903275
0.2877329
0.2853814
0.2832611
0.2813417
0.2795934
0.2780339
0.2767635
0.2759348
0.2756597
0.2759088
0.276486
0.2771124
0.2775323
0.277604
0.2771926
0.2762247
0.2747852
0.2730661
0.2712661
0.2694672
0.267578
0.2653872
0.262687
0.2593871
0.255551
0.2513661
0.2471038
0.2430757
0.239722
0.2373215
0.2361214
0.2363927
0.238315
0.2417952
0.2465224
0.251795
0.2565942
0.2599603
0.2613763
0.2609697
0.2594258
0.2573361
0.2548567
0.2521728
0.2495931
0.2475296
0.2462941
0.2458631
0.2458047
0.2454399
0.2441137
0.2415388
0.2377885
0.2331106
0.2277534
0.2219858
0.2160874
0.2102596
0.2046296
0.1992761
0.1942356
0.1895199
0.185128
0.181048
0.1772565
0.1737257
0.1704317
0.1673577
0.1644929
0.1618294
0.1593616
0.1570852
0.1549969
0.1530932
0.1513701
0.1498213
0.1484382
0.147209
0.1461183
0.1451443
0.1442614
0.1434756
0.1427704
0.1421304
0.1415431
0.1409986
0.1404896
0.1400101
0.1395558
0.1391226
0.1387067
0.1383032
0.1379092
0.137521
0.137134
0.1367423
0.1363385
0.1359139
0.1354583
0.13496
0.1344066
0.1337855
0.1330849
0.1322946
0.1314054
0.1304105
0.1293048
0.1280868
0.1267588
0.1253291
0.1238125
0.1222296
0.1206056
0.1189696
0.1173538
0.1157966
0.1143412
0.1130311
0.111913
0.1110364
0.1104534
0.1102171
0.110379
0.1109866
0.1120785
0.1136859
0.1158335
0.1185395
0.1218209
0.125698
0.1302006
0.1353805
0.1413167
0.1481257
0.155963
0.1650052
0.1754041
0.1872359
0.2004847
0.2150562
0.2306988
0.246789
0.2623028
0.276191
0.2877449
0.2966162
0.3027188
0.3060423
0.306577
0.3046143
0.3008211
0.2959463
0.2905863
0.2850282
0.2793109
0.2733772
0.2671574
0.2605902
0.2536243
0.2462108
0.2382688
0.2297242
0.2206391
0.211107
0.2012563
0.1911858
0.1809981
0.1708481
0.1609607
0.1515673
0.1428475
0.1349058
0.1278049
0.1215465
0.1160644
0.1112802
0.1071304
0.1035739
0.1005924
0.09818247
0.09634615
0.09507713
0.09434923
0.09411719
0.09432032
0.09488324
0.0957205
0.0967289
0.09776973
0.09871404
0.09948324
0.1000172
0.1002522
0.1001402
0.09967352
0.09887141
0.09780045
0.09666987
0.0958545
0.09583776
0.09715438
0.09982291
0.1030705
0.1056724
0.1063808
0.1048299
0.1016854
0.09798488
0.09450918
0.0916041
0.08935198
0.08774984
0.08671501
0.08617709
0.08607767
0.08635299
0.08693951
0.08777419
0.08879455
0.08994427
0.09117573
0.09245042
0.09373976
0.09502571
0.09629286
0.09753424
0.09874929
0.09993352
0.1010785
0.1021729
0.1032149
0.1042005
0.105123
0.1059747
0.1067474
0.1074335
0.1080257
0.1085175
0.1089029
0.1091766
0.1093342
0.1093724
0.1092887
0.109082
0.1087525
0.1083017
0.1077325
0.107049
0.1062567
0.1053618
0.1043715
0.1032935
0.1021358
0.100907
0.09961625
0.09827289
0.09688573
0.09546218
0.09400811
0.09252854
0.09102865
0.08951398
0.08798458
0.08644567
0.08490494
0.08337145
0.08185338
0.08035756
0.07888928
0.07745252
0.07605008
0.07468387
0.07335499
0.07206384
0.07081023
0.06959344
0.06841228
0.06726519
0.06615054
0.06506678
0.06401247
0.06298627
0.06198687
0.06101311
0.06006386
0.0591382
0.05823524
0.05735418
0.05649448
0.05565582
0.05483797
0.05404076
0.0532641
0.05250793
0.05177226
0.0510571
0.05036243
0.04968826
0.04903453
0.04840112
0.04778786
0.04719446
0.04662048
0.04606537
0.04552839
0.04500866
0.04450511
0.04401649
0.04354141
0.04307835
0.04262566
0.04218165
0.04174459
0.04131277
0.04088458
0.04045849
0.04003314
0.03960737
0.03918019
0.03875088
0.03831896
0.0378842
0.03744664
0.0370066
0.03656463
0.03612154
0.03567833
0.03523611
0.03479609
0.03435966
0.03392922
0.03350645
0.0330929
0.03269002
0.03229911
0.03192131
0.03155762
0.03120882
0.03087539
0.03055755
0.03025544
0.0299691
0.02969838
0.02944298
0.02920246
0.02897627
0.02876385
0.02856515
0.02837948
0.02820603
0.02804393
0.02789231
0.02775022
0.02761674
0.02749091
0.02737175
0.02725833
0.02714966
0.02704482
0.02694287
0.02684293
0.02674411
0.02664569
0.02654695
0.02644742
0.02634683
0.02624498
0.02614269
0.02603998
0.02594917
0.001645802
0.006504629
0.009872835
0.01385508
0.01835594
0.02355009
0.02951663
0.03612394
0.04355755
0.05254092
0.06616609
0.07437439
0.08330402
0.09274663
0.1027372
0.1132304
0.1241841
0.1355152
0.1470813
0.1587798
0.1706096
0.1840474
0.1978242
0.2117726
0.2258005
0.2398157
0.2537326
0.2675004
0.281086
0.2945582
0.3079435
0.3213941
0.3354528
0.3499212
0.3648657
0.3801255
0.3953001
0.4100647
0.4242748
0.4378773
0.4507839
0.4630466
0.474904
0.4864808
0.4978158
0.5088574
0.5195363
0.529762
0.5394373
0.5482854
0.5561165
0.5628076
0.5683842
0.5722259
0.5740827
0.5737452
0.5711816
0.5662094
0.5594099
0.5508848
0.5407967
0.5294674
0.5172404
0.5044403
0.4913689
0.4782951
0.4654505
0.4530341
0.4412148
0.4301293
0.4198841
0.4105422
0.4020979
0.3944829
0.3875695
0.3812161
0.3753221
0.3698349
0.3648492
0.3604758
0.3567648
0.3535395
0.3508813
0.3487757
0.3470758
0.3455584
0.3440081
0.3422962
0.3403789
0.3382702
0.3360209
0.3337131
0.3314499
0.3293229
0.3273706
0.3255595
0.3238002
0.3219936
0.3200933
0.3181357
0.316222
0.3144695
0.3129324
0.3115594
0.3102063
0.3087051
0.3069566
0.3049646
0.3028296
0.3007209
0.2988199
0.2972183