/*--------------------------------*- C++ -*----------------------------------*\
| =========                 |                                                 |
| \\      /  F ield         | foam-extend: Open Source CFD                    |
|  \\    /   O peration     | Version:     3.1                                |
|   \\  /    A nd           | Web:         http://www.extend-project.de       |
|    \\/     M anipulation  |                                                 |
\*---------------------------------------------------------------------------*/
FoamFile
{
    version     2.0;
    format      ascii;
    class       volScalarField;
    location    "11";
    object      p;
}
// * * * * * * * * * * * * * * * * * * * * * * * * * * * * * * * * * * * * * //

dimensions      [1 -1 -2 0 0 0 0];

internalField   nonuniform List<scalar> 
119952
(
6522.162
5508.365
5361.879
5510.183
5676.282
5527.48
5477.121
5432.3
5404.445
5385.73
5379.958
5385.623
5403.104
5430.969
5467.606
5510.833
5558.822
5609.495
5658.693
5689.021
5870.962
5890.355
5944.96
6134.907
6190.574
6261.354
6322.548
6395.624
6501.714
7928.977
3444.38
3427.257
3459.426
3487.487
3518.041
3547.354
3578.026
3604.6
3633.675
3635.747
3633.863
3663.196
3673.616
3684.32
3694.808
3708.031
3724.904
3746.092
3773.557
3825.84
3832.375
3866.127
3920.419
3982.058
4051.051
4127.463
4209.57
4295.435
4385.093
4464.571
4551.462
4640.314
4723.965
4803.03
4876.01
4943.62
5010.101
5105.729
5268.57
5172.591
5156.866
5218.313
5239.691
5216.858
5170.003
5135.601
5111.161
5096.276
5092.959
5101.502
5121.515
5152.061
5191.845
5239.02
5292.191
5350.063
5412.691
5481.929
5560.305
5645.234
5721.141
5816.743
5924.601
5992.42
6048.798
6101.739
6130.59
6127.534
6170.904
6231.733
6288.545
6345.154
6400.438
6454.451
6507.379
6559.281
6610.2
6660.177
6709.204
6757.241
6804.276
6850.306
6895.303
6939.251
6982.067
7023.733
7064.199
7103.402
7141.275
7177.755
7212.782
7246.302
7278.268
7308.643
7337.399
7364.522
7390.006
7413.855
7436.087
7456.729
7475.816
7493.395
7509.512
7524.24
7537.649
7549.816
7560.825
7570.756
7579.699
7587.75
7595.004
7601.554
7607.488
7612.836
7617.691
7622.253
7627.821
7633.647
7639.073
7643.68
7648.508
7653.671
7659.223
7665.261
7671.853
7679.061
7686.94
7695.542
7704.906
7715.068
7726.047
7737.852
7750.479
7763.905
7778.08
7792.92
7808.296
7823.982
7839.875
7855.591
7870.757
7884.966
7897.757
7908.648
7917.169
7922.891
7925.423
7924.365
7919.321
7909.984
7896.221
7878.129
7856.078
7830.658
7802.583
7772.628
7741.679
7710.652
7680.349
7651.569
7624.231
7598.802
7576.173
7557.92
7544.629
7537.348
7535.553
7582.992
7599.805
7585.294
7588.976
7593.884
7614.097
7637.585
7651.202
7656.575
7660.368
7667.618
7680.225
7697.433
7716.938
7736.382
7754.917
7772.555
7789.53
7806.016
7822.276
7838.45
7854.854
7871.749
7889.495
7909.497
7932.631
7961.646
7998.504
7934.357
7916.107
7939.608
7951.243
7959.877
7974.47
7986.492
7992.911
8004.754
8011.701
8013.313
8008.524
7997.206
7980.002
7958.174
7932.63
7904.534
7874.849
7844.373
7813.915
7784.223
7755.933
7729.608
7705.692
7684.567
7666.499
7651.629
7640.003
7631.58
7626.216
7623.645
7623.619
7625.777
7629.841
7635.415
7642.227
7649.989
7658.456
7667.419
7676.7
7686.197
7695.78
7679.713
7686.214
7694.175
7703.175
7712.018
7720.839
7729.57
7738.164
7746.605
7754.88
7762.976
7770.878
7778.566
7786.018
7793.211
7800.116
7806.705
7812.949
7818.82
7824.289
7829.331
7833.924
7838.05
7841.694
7844.846
7847.502
7849.658
7851.318
7852.49
7853.185
7853.418
7853.2
7852.545
7851.464
7849.97
7848.081
7845.819
7843.211
7840.288
7837.082
7833.631
7829.976
7826.172
7822.293
7818.364
7814.028
7808.745
7803.044
7797.44
7791.823
7786.173
7780.562
7774.876
7768.88
7759.689
7754.611
7749.784
7743.71
7737.683
7731.68
7725.688
7719.732
7713.818
7707.934
7702.085
7696.281
7690.524
7684.817
7679.163
7673.564
7668.022
7662.539
7657.118
7651.76
7646.467
7641.24
7636.08
7630.988
7625.964
7621.009
7616.121
7611.301
7606.545
7601.852
7597.221
7592.672
7588.163
7583.723
7579.349
7575.038
7570.791
7566.609
7562.492
7558.443
7554.462
7550.552
7546.715
7542.953
7539.268
7535.663
7532.138
7528.698
7525.341
7522.067
7518.88
7515.78
7512.764
7509.836
7506.993
7504.233
7501.538
7498.915
7496.367
7493.885
7491.465
7489.102
7486.788
7484.515
7482.273
7480.052
7477.837
7475.617
7473.373
7471.089
7468.741
7466.308
7463.76
7461.061
7458.147
7454.97
7451.454
7447.485
7442.899
7437.421
7430.615
7422.107
7413.774
7418.509
7460.976
5909.103
5769.637
5605.138
5443.965
5284.055
5127.383
4975.106
4827.65
4685.353
4522.069
4389.613
4267.027
4145.828
4034.117
3929.457
3832.236
3743.257
3658.411
3535.96
3488.606
3418.417
3352.972
3301.247
3256.14
3216.982
3183.774
3155.74
3134.663
3121.186
3096.199
3087.323
3083.691
3083.272
3087.516
3096.357
3109.284
3127.988
3157.041
3164.309
3183.201
3211.695
3239.932
3267.301
3293.798
3319.008
3342.135
3362.234
3374.094
3389.536
3402.109
3411.202
3419.99
3430.907
3445.487
3465.471
3494.149
3462.479
3509.508
3559.126
3615.23
3680.237
3753.147
3833.495
3919.5
4009.348
4101.245
4194.448
4285.105
4372.928
4456.621
4536.078
4610.853
4681.845
4749.082
4812.713
4859.356
4872.642
4870.555
4868.978
4861.14
4840.139
4808.441
4775.641
4750.397
4736.315
4734.641
4745.175
4767.439
4800.973
4845.011
4898.416
4959.788
5027.844
5101.685
5180.713
5264.409
5350.728
5437.158
5523.858
5606.468
5678.088
5737.357
5786.252
5825.971
5861.23
5903.633
5955.408
6010.728
6065.894
6119.707
6172.28
6223.935
6274.778
6324.768
6373.845
6421.982
6469.158
6515.364
6560.581
6604.782
6647.898
6689.88
6730.751
6770.424
6808.818
6845.873
6881.532
6915.736
6948.435
6979.584
7009.152
7037.115
7063.463
7088.194
7111.319
7132.859
7152.845
7171.318
7188.334
7203.95
7218.234
7231.26
7243.11
7253.867
7263.62
7272.461
7280.477
7287.757
7294.387
7300.456
7306.06
7311.348
7316.513
7321.744
7326.981
7331.948
7336.78
7341.634
7346.697
7352.124
7358.007
7364.422
7371.448
7379.161
7387.627
7396.898
7407.016
7418.013
7429.905
7442.686
7456.316
7470.723
7485.798
7501.368
7517.204
7533.031
7548.484
7563.135
7576.486
7588.026
7597.268
7603.748
7607.077
7606.97
7603.09
7595.094
7582.812
7566.277
7545.738
7521.67
7494.712
7465.657
7435.129
7403.931
7373.237
7343.798
7316.11
7290.177
7266.297
7244.873
7227.031
7214.74
7207.249
7205.852
7279.553
7282.734
7288.274
7299.336
7315.293
7337.897
7360.789
7376.665
7386.476
7393.689
7403.185
7416.477
7432.891
7450.593
7468.284
7485.325
7501.688
7517.515
7532.986
7548.252
7563.496
7578.953
7594.916
7611.647
7629.627
7648.43
7665.493
7677.374
7664.531
7657.775
7671.235
7683.523
7694.207
7706.636
7721.105
7731.073
7737.32
7743.415
7744.872
7739.32
7726.735
7708.125
7684.895
7658.205
7629.164
7598.694
7567.631
7536.743
7506.726
7478.2
7451.704
7427.7
7406.557
7388.537
7373.785
7362.338
7354.123
7348.975
7346.646
7346.834
7349.198
7353.454
7359.217
7366.166
7374.023
7382.543
7391.518
7400.79
7410.279
7420.258
7369.803
7379.222
7388.418
7397.221
7405.881
7414.454
7422.894
7431.175
7439.292
7447.243
7455.02
7462.61
7469.996
7477.157
7484.07
7490.71
7497.048
7503.059
7508.712
7513.982
7518.844
7523.275
7527.258
7530.779
7533.828
7536.399
7538.489
7540.099
7541.233
7541.904
7542.126
7541.911
7541.27
7540.21
7538.746
7536.897
7534.684
7532.133
7529.273
7526.134
7522.746
7519.139
7515.337
7511.339
7507.103
7502.539
7497.567
7492.283
7486.872
7481.406
7475.882
7470.307
7464.669
7458.971
7452.958
7446.502
7440.304
7434.365
7428.46
7422.513
7416.554
7410.622
7404.727
7398.871
7393.055
7387.282
7381.556
7375.878
7370.251
7364.679
7359.163
7353.705
7348.31
7342.977
7337.71
7332.509
7327.377
7322.314
7317.32
7312.397
7307.544
7302.759
7298.046
7293.4
7288.818
7284.305
7279.863
7275.485
7271.172
7266.925
7262.745
7258.631
7254.585
7250.607
7246.697
7242.857
7239.087
7235.395
7231.776
7228.232
7224.764
7221.373
7218.06
7214.825
7211.671
7208.598
7205.609
7202.702
7199.882
7197.175
7194.45
7191.836
7189.303
7186.824
7184.411
7182.055
7179.747
7177.479
7175.242
7173.023
7170.813
7168.595
7166.358
7164.081
7161.748
7159.331
7156.809
7154.141
7151.3
7148.225
7144.886
7141.198
7137.168
7132.808
7128.542
7125.171
7124.257
7126.562
7132.642
3170.94
3199.44
3244.285
3303.037
3376.492
3463.996
3565.43
3680.603
3808.974
3949.326
4082.962
4243.913
4411.801
4586.452
4766.524
4949.7
5133.468
5314.072
5494.22
5656.155
5819.291
5972.035
6112.344
6236.356
6341.097
6424.351
6484.182
6519.229
6535.786
6523.141
6485.904
6427.387
6348.854
6252.133
6139.244
6012.311
5873.877
5726.668
5561.862
5404.356
5241.642
5078.704
4917.391
4759.447
4606.256
4458.818
4318.323
4184.178
4053.983
3933.583
3818.08
3709.397
3607.977
3513.772
3427.685
3354.366
3183.464
3116.181
3061.209
3010.049
2962.284
2919.447
2882.559
2851.674
2826.415
2805.599
2789.017
2777.7
2770.123
2765.976
2766.193
2771.46
2781.782
2796.807
2815.728
2837.467
2861.931
2887.96
2914.764
2942.376
2970.41
2997.913
3023.43
3045.8
3064.245
3079.039
3089.729
3096.597
3101.253
3105.802
3112.066
3122.233
3137.584
3161.447
3195.229
3237.418
3284.989
3340.78
3408.074
3486.448
3572.563
3664.489
3760.517
3858.77
3956.493
4053.411
4147.089
4235.314
4318.018
4394.142
4462.776
4522.388
4571.513
4607.374
4621.815
4614.879
4598.132
4577.031
4548.448
4511.876
4474.46
4445
4428.104
4424.846
4434.869
4457.509
4492.622
4539.734
4597.822
4665.379
4740.718
4822.222
4908.188
4996.862
5086.951
5175.912
5261.304
5342.737
5417.021
5481.03
5535.93
5585.147
5630.676
5676.399
5726.985
5781.283
5835.827
5889.068
5940.99
5991.953
6042.117
6091.441
6139.852
6187.316
6233.821
6279.358
6323.897
6367.438
6409.937
6451.451
6491.721
6530.826
6568.685
6605.211
6640.345
6674.034
6706.226
6736.88
6765.963
6793.455
6819.346
6843.639
6866.346
6887.488
6907.101
6925.229
6941.93
6957.269
6971.317
6984.154
6995.863
7006.531
7016.248
7025.104
7033.186
7040.582
7047.374
7053.647
7059.492
7065.003
7070.276
7075.4
7080.503
7085.497
7090.331
7095.097
7099.965
7105.156
7110.751
7116.835
7123.506
7130.859
7138.978
7147.941
7157.809
7168.633
7180.446
7193.258
7207.022
7221.657
7237.042
7252.988
7269.228
7285.437
7301.201
7316.053
7329.429
7340.754
7349.556
7355.346
7357.65
7356.4
7351.332
7342.145
7328.641
7310.86
7289.058
7263.676
7235.372
7205.087
7173.529
7141.143
7109.799
7080.203
7053.397
7028.325
7003.998
6981.799
6963.04
6948.201
6938.045
6934.098
6937.139
6941.407
6948.741
6961.058
6979.679
7002.594
7026.118
7048.006
7068.594
7087.183
7106.499
7126.3
7144.953
7162.716
7179.186
7194.434
7208.787
7222.544
7235.941
7249.158
7262.228
7275.414
7288.853
7302.322
7315.519
7328.2
7337.905
7342.305
7344.636
7345.242
7352.836
7364.533
7378.141
7392.036
7403.498
7421.104
7442.066
7455.054
7453.067
7440.648
7422.798
7400.487
7374.104
7344.891
7313.827
7281.733
7249.587
7218.045
7187.709
7159.144
7132.848
7109.278
7088.79
7071.622
7057.893
7047.6
7040.621
7036.74
7035.666
7037.064
7040.59
7045.79
7052.404
7060.077
7068.515
7077.476
7086.757
7096.204
7105.642
7115.081
7124.115
7133.149
7142.067
7150.792
7159.354
7167.77
7176.024
7184.102
7192.008
7199.743
7207.304
7214.682
7221.863
7228.829
7235.561
7242.032
7248.219
7254.093
7259.629
7264.8
7269.58
7273.947
7277.884
7281.375
7284.412
7286.988
7289.098
7290.742
7291.921
7292.647
7292.936
7292.799
7292.241
7291.27
7289.895
7288.134
7286.011
7283.551
7280.779
7277.722
7274.406
7270.851
7267.071
7263.066
7258.821
7254.309
7249.499
7244.42
7239.171
7233.825
7228.401
7222.89
7217.293
7211.536
7205.73
7199.917
7194.028
7188.074
7182.089
7176.104
7170.142
7164.22
7158.341
7152.504
7146.707
7140.952
7135.242
7129.579
7123.965
7118.404
7112.897
7107.448
7102.058
7096.731
7091.468
7086.272
7081.144
7076.087
7071.1
7066.184
7061.341
7056.57
7051.871
7047.243
7042.688
7038.203
7033.789
7029.445
7025.172
7020.968
7016.835
7012.771
7008.776
7004.852
7000.998
6997.214
6993.504
6989.859
6986.286
6982.786
6979.36
6976.007
6972.73
6969.529
6966.405
6963.358
6960.389
6957.494
6954.669
6951.882
6949.268
6946.689
6944.196
6941.694
6939.28
6936.926
6934.622
6932.358
6930.127
6927.916
6925.717
6923.517
6921.303
6919.059
6916.768
6914.411
6911.968
6909.412
6906.721
6903.867
6900.839
6897.638
6894.332
6891.062
6888.124
6885.867
6884.724
6885.214
6887.707
3073.778
3051.044
3024.169
2984.512
2958.208
2908.644
2899.998
2905.342
2922.352
2920.36
2902.348
2895.616
2906.865
2932.818
2973.641
3027.723
3095.248
3176.486
3270.733
3378.287
3498.546
3630.712
3774.605
3928.765
4091.465
4261.234
4436.328
4614.782
4794.381
4972.81
5150.162
5296.944
5464.415
5615.324
5751.162
5869.967
5969.419
6047.415
6102.978
6135.953
6146.24
6131.177
6091.11
6028.596
5946.159
5845.996
5730.212
5600.914
5460.227
5310.517
5154.076
4993.673
4831.125
4668.729
4508.794
4353.12
4202.858
4058.974
3922.059
3791.853
3668.102
3550.84
3439.861
3335.307
3237.461
3146.428
3062.052
2984.043
2910.027
2845.228
2790.486
2740.035
2693.091
2651.225
2615.338
2585.476
2561.085
2541.708
2526.93
2515.683
2507.824
2504.084
2504.992
2510.93
2522.086
2538.152
2558.558
2582.896
2609.759
2637.446
2666.529
2697.481
2728.513
2758.324
2785.703
2809.379
2828.237
2841.352
2848.788
2851.375
2850.436
2848.074
2847.137
2850.482
2861.005
2880.39
2908.86
2947.15
2995.239
3054.894
3126.296
3209.148
3301.304
3400.493
3504.728
3611.778
3719.089
3824.717
3925.931
4021.945
4109.033
4187.107
4254.621
4309.914
4351.343
4376.86
4382.288
4367.247
4337.879
4299.299
4253.48
4203.987
4157.815
4122.104
4100.731
4094.287
4102.419
4124.832
4161.393
4211.773
4274.939
4348.959
4431.495
4520.241
4612.994
4707.848
4802.993
4896.135
4985.507
5070.144
5148.152
5218.105
5280.487
5337.415
5390.547
5442.352
5495.571
5550.351
5605.034
5658.461
5710.494
5761.395
5811.334
5860.323
5908.325
5955.328
6001.334
6046.348
6090.363
6133.367
6175.336
6216.205
6255.967
6294.476
6331.756
6367.729
6402.311
6435.446
6467.085
6497.188
6525.724
6552.673
6578.028
6601.795
6623.986
6644.626
6663.753
6681.418
6697.68
6712.61
6726.284
6738.787
6750.207
6760.634
6770.162
6778.882
6786.883
6794.251
6801.065
6807.401
6813.331
6818.925
6824.256
6829.402
6834.434
6839.336
6844.126
6848.84
6853.466
6858.462
6863.805
6869.572
6875.889
6882.871
6890.625
6899.255
6908.854
6919.503
6931.267
6944.191
6958.227
6973.285
6989.234
7005.924
7023.08
7040.306
7057.088
7072.883
7087.119
7099.151
7108.358
7114.227
7116.525
7114.999
7109.474
7099.691
7085.234
7066.035
7042.438
7014.923
6984.449
6952.244
6919.142
6884.903
6854.123
6826.473
6800.137
6773.096
6746.34
6721.867
6700.813
6683.799
6671.837
6664.769
6663.692
6666.727
6674.604
6687.367
6705.443
6729.171
6757.62
6788.081
6817.101
6842.798
6867.193
6890.542
6911.919
6931.151
6947.879
6962.539
6975.685
6987.767
6999.107
7009.919
7020.378
7030.668
7040.908
7050.941
7060.317
7068.943
7076.297
7080.613
7081.925
7083.974
7091.172
7101.369
7112.715
7126.62
7144.213
7164.562
7181.031
7189.092
7197.59
7200.89
7183.279
7156.686
7127.758
7096.97
7064.727
7031.829
6998.97
6966.713
6935.78
6906.79
6880.186
6856.459
6835.972
6818.954
6805.529
6795.69
6789.286
6786.067
6785.71
6787.845
6792.08
6797.992
6805.232
6813.454
6822.353
6831.676
6841.225
6850.857
6860.417
6869.854
6879.083
6888.151
6897.044
6905.722
6914.185
6922.458
6930.549
6938.461
6946.199
6953.767
6961.163
6968.381
6975.407
6982.226
6988.818
6995.159
7001.225
7006.989
7012.425
7017.506
7022.208
7026.507
7030.386
7033.831
7036.833
7039.386
7041.482
7043.121
7044.308
7045.059
7045.398
7045.32
7044.809
7043.871
7042.522
7040.784
7038.683
7036.243
7033.49
7030.449
7027.142
7023.587
7019.796
7015.777
7011.524
7007.029
7002.286
6997.315
6992.172
6986.906
6981.54
6976.075
6970.521
6964.872
6959.181
6953.417
6947.544
6941.609
6935.67
6929.751
6923.856
6917.986
6912.147
6906.339
6900.565
6894.828
6889.131
6883.477
6877.871
6872.313
6866.809
6861.36
6855.97
6850.641
6845.376
6840.177
6835.046
6829.985
6824.995
6820.076
6815.231
6810.458
6805.76
6801.135
6796.584
6792.106
6787.702
6783.371
6779.114
6774.93
6770.819
6766.781
6762.815
6758.923
6755.103
6751.356
6747.682
6744.083
6740.554
6737.098
6733.715
6730.408
6727.174
6724.016
6720.932
6717.922
6714.987
6712.125
6709.332
6706.608
6703.976
6701.406
6698.87
6696.464
6694.093
6691.766
6689.487
6687.249
6685.043
6682.863
6680.698
6678.538
6676.372
6674.186
6671.967
6669.7
6667.371
6664.964
6662.468
6659.876
6657.201
6654.468
6651.764
6649.182
6646.936
6645.138
6644.132
6643.984
6645.091
3259.58
3236
3211.94
3163.33
3123.905
3049.844
3009.242
2968.253
2927.682
2887.412
2848.072
2810.939
2774.738
2740.836
2710.492
2683.245
2598.112
2583.311
2575.358
2570.593
2564.862
2562.131
2567.604
2584.174
2613.336
2655.486
2710.411
2777.593
2858.962
2954.055
3062.5
3183.827
3317.229
3461.814
3616.796
3780.744
3951.745
4127.925
4307.293
4487.411
4665.744
4840.122
4999.683
5161.823
5310.401
5445.377
5564.4
5664.23
5742.59
5798.361
5830.452
5838.59
5822.025
5780.976
5717.405
5633.976
5533.151
5417.127
5287.966
5147.577
4998.002
4841.198
4680.056
4517.248
4354.825
4195.198
4039.883
3890.201
3747.654
3612.814
3485.18
3364.039
3249.262
3140.877
3038.942
2943.465
2854.552
2771.997
2696.232
2627.56
2566.696
2512.911
2464.042
2419.288
2379.264
2344.723
2316.029
2293.008
2274.975
2260.777
2249.695
2242.049
2238.534
2239.692
2246.086
2258.234
2276.004
2298.561
2325.133
2354.57
2385.706
2418.984
2454.256
2489.575
2523.228
2553.907
2579.869
2599.239
2610.724
2614.248
2610.461
2600.829
2588.15
2576.217
2568.876
2569.611
2580.693
2603.393
2638.77
2687.047
2748.88
2824.358
2912.955
3013.076
3122.52
3238.769
3358.938
3479.887
3598.584
3711.929
3817.011
3912.226
3994.723
4063.538
4117.094
4153.229
4169.015
4161.976
4132.761
4084.79
4022.318
3951.159
3880.514
3819.836
3775.11
3747.875
3737.522
3743.759
3766.369
3804.978
3859.167
3927.857
4009.026
4099.617
4197.071
4298.497
4401.156
4503.449
4603.756
4700.119
4790.912
4875.133
4952.266
5022.55
5087.209
5147.728
5205.746
5262.815
5319.48
5375.258
5429.566
5482.279
5533.573
5583.626
5632.519
5680.277
5726.926
5772.496
5817.011
5860.482
5902.903
5944.256
5984.516
6023.621
6061.5
6098.115
6133.427
6167.35
6199.813
6230.77
6260.184
6288.026
6314.28
6338.945
6362.032
6383.549
6403.516
6421.981
6439.004
6454.651
6468.999
6482.132
6494.14
6505.119
6515.166
6524.38
6532.856
6540.686
6547.954
6554.734
6561.093
6567.088
6572.771
6578.189
6583.39
6588.41
6593.254
6597.98
6602.637
6607.172
6611.919
6616.948
6622.327
6628.196
6634.69
6641.945
6650.098
6659.286
6669.631
6681.261
6694.316
6708.751
6724.493
6741.276
6758.921
6777.344
6796.254
6814.876
6832.442
6848.303
6861.775
6871.931
6878.165
6880.331
6878.288
6872.136
6861.655
6846.048
6825.014
6799.155
6768.897
6735.819
6702.23
6671.083
6639.062
6608.981
6579.419
6547.725
6516.299
6486.978
6460.623
6437.512
6418.169
6403.518
6394.354
6391.063
6393.645
6402.126
6416.28
6436.045
6461.171
6490.23
6521.707
6554.792
6588.31
6620.499
6648.821
6673.227
6695.122
6714.019
6729.821
6742.982
6754.13
6763.776
6772.261
6779.902
6786.955
6793.614
6799.865
6805.453
6810.486
6814.811
6817.098
6818.064
6820.265
6825.245
6832.808
6843.164
6856.459
6871.186
6886.211
6901.063
6914.907
6923.848
6925.448
6920.124
6904.189
6875.953
6842.471
6808.625
6775.174
6742.057
6709.765
6678.958
6650.016
6623.391
6599.783
6579.606
6563.068
6550.321
6541.343
6535.931
6533.79
6534.556
6537.817
6543.14
6550.08
6558.228
6567.248
6576.809
6586.643
6596.582
6606.52
6616.337
6625.937
6635.257
6644.319
6653.14
6661.714
6670.055
6678.186
6686.124
6693.881
6701.463
6708.876
6716.121
6723.191
6730.073
6736.754
6743.212
6749.425
6755.368
6761.015
6766.34
6771.316
6775.916
6780.117
6783.901
6787.257
6790.178
6792.659
6794.688
6796.258
6797.376
6798.073
6798.415
6798.4
6797.958
6797.046
6795.691
6793.94
6791.825
6789.374
6786.61
6783.558
6780.238
6776.667
6772.859
6768.822
6764.56
6760.074
6755.369
6750.464
6745.39
6740.183
6734.864
6729.444
6723.934
6718.34
6712.674
6706.929
6701.111
6695.255
6689.39
6683.53
6677.68
6671.843
6666.026
6660.235
6654.474
6648.747
6643.056
6637.407
6631.803
6626.246
6620.74
6615.289
6609.895
6604.562
6599.291
6594.085
6588.947
6583.877
6578.879
6573.952
6569.099
6564.319
6559.614
6554.984
6550.429
6545.95
6541.547
6537.221
6532.97
6528.796
6524.699
6520.678
6516.733
6512.865
6509.073
6505.358
6501.719
6498.157
6494.671
6491.258
6487.92
6484.659
6481.473
6478.361
6475.324
6472.361
6469.472
6466.655
6463.908
6461.231
6458.632
6456.1
6453.63
6451.236
6448.892
6446.604
6444.359
6442.159
6439.994
6437.859
6435.743
6433.639
6431.537
6429.426
6427.296
6425.138
6422.941
6420.699
6418.41
6416.079
6413.727
6411.388
6409.13
6407.027
6405.216
6403.776
6402.923
6402.654
6403.268
3372.333
3343.022
3309.65
3263.83
3231.461
3164.055
3131.896
3099.494
3066.497
3032.561
2998.372
2963.825
2927.537
2890.449
2850.772
2743.974
2703.214
2662.674
2622.21
2582.055
2542.373
2503.888
2466.844
2431.456
2398.512
2369.722
2345.156
2324.812
2309.107
2297.346
2289.568
2288.025
2294.764
2311.341
2338.853
2378.339
2430.826
2496.916
2576.348
2669.27
2775.605
2894.932
3026.531
3169.429
3322.463
3484.26
3653.13
3827.291
4004.81
4183.372
4360.36
4532.531
4696.675
4856.085
5003.939
5137.751
5255.572
5354.124
5430.589
5483.367
5511.39
5514.412
5492.734
5447.246
5379.891
5293.422
5190.484
5073.351
4943.952
4803.795
4654.771
4498.628
4337.968
4175.845
4014.085
3855.476
3702.216
3555.331
3416.039
3284.684
3160.773
3043.429
2932.213
2827.36
2728.983
2636.915
2551.174
2471.958
2399.962
2335.501
2278.067
2226.688
2180.165
2137.727
2099.558
2066.449
2039.18
2017.991
2001.747
1988.382
1977.525
1969.876
1966.318
1967.611
1974.597
1988.176
2008.337
2033.64
2063.558
2097.079
2132.946
2171.51
2212.198
2253.393
2292.896
2328.591
2358.258
2379.159
2389.106
2387.5
2374.657
2352.24
2324.326
2296.337
2273.48
2260.356
2260.714
2276.165
2307.661
2355.374
2419.568
2500.272
2597.124
2708.428
2831.646
2963.92
3101.684
3240.799
3377.128
3506.854
3626.289
3732.057
3821.631
3893.704
3946.763
3978.487
3984.815
3962.915
3913.736
3839.432
3743.694
3637.043
3535.934
3453.626
3396.102
3361.853
3348.297
3354.254
3378.667
3421.23
3480.961
3556.113
3645.558
3744.853
3851.802
3964.386
4078.439
4191.023
4300.883
4406.421
4505.919
4598.537
4684.104
4762.825
4835.521
4903.377
4967.575
5029.176
5088.84
5146.664
5202.514
5256.389
5308.463
5358.942
5407.975
5455.659
5502.068
5547.268
5591.314
5634.241
5676.064
5716.772
5756.349
5794.761
5831.947
5867.821
5902.37
5935.515
5967.175
5997.305
6025.872
6052.851
6078.231
6102.014
6124.236
6144.908
6164.03
6181.654
6197.856
6212.71
6226.301
6238.722
6250.073
6260.458
6269.983
6278.756
6286.879
6294.449
6301.55
6308.252
6314.61
6320.667
6326.453
6331.992
6337.303
6342.407
6347.333
6351.997
6356.48
6361.1
6365.59
6370.183
6375.072
6380.37
6386.229
6392.816
6400.312
6408.907
6418.77
6430.075
6443.004
6457.688
6473.995
6491.797
6511.112
6531.662
6552.872
6574.013
6594.325
6612.734
6627.988
6639.319
6646.168
6647.99
6645.027
6637.964
6626.69
6609.982
6587.304
6559.344
6527.334
6497.259
6468.48
6438.588
6403.553
6364.109
6325.514
6288.475
6255.547
6225.809
6198.448
6173.826
6152.746
6136.251
6125.247
6120.54
6122.327
6131.026
6146.25
6167.263
6193.34
6223.906
6258.42
6295.464
6332.695
6368.332
6401.503
6431.246
6457.829
6479.77
6497.495
6511.351
6521.947
6530.032
6536.159
6540.799
6544.334
6547.135
6549.413
6550.748
6551.812
6553.07
6553.308
6552.322
6552.48
6554.821
6559.845
6567.504
6577.264
6588.777
6602.356
6617.057
6629.964
6638.968
6643.905
6640.217
6627.449
6608.942
6582.625
6549.806
6514.949
6480.97
6448.812
6418.382
6389.819
6363.752
6340.856
6321.399
6305.608
6293.799
6285.965
6281.81
6281.007
6283.148
6287.771
6294.405
6302.565
6311.779
6321.756
6332.129
6342.562
6352.933
6363.154
6373.142
6382.852
6392.252
6401.342
6410.137
6418.653
6426.909
6434.933
6442.749
6450.374
6457.822
6465.101
6472.213
6479.153
6485.91
6492.47
6498.81
6504.908
6510.738
6516.273
6521.488
6526.355
6530.847
6534.938
6538.609
6541.847
6544.65
6547.017
6548.935
6550.392
6551.392
6551.962
6552.134
6551.959
6551.467
6550.551
6549.159
6547.365
6545.213
6542.728
6539.937
6536.861
6533.518
6529.927
6526.1
6522.048
6517.779
6513.299
6508.62
6503.755
6498.73
6493.568
6488.289
6482.907
6477.433
6471.874
6466.238
6460.536
6454.78
6448.986
6443.171
6437.349
6431.528
6425.715
6419.917
6414.141
6408.392
6402.673
6396.988
6391.343
6385.74
6380.183
6374.676
6369.221
6363.823
6358.483
6353.205
6347.991
6342.844
6337.764
6332.755
6327.818
6322.953
6318.162
6313.446
6308.806
6304.242
6299.756
6295.348
6291.018
6286.767
6282.596
6278.504
6274.492
6270.561
6266.709
6262.938
6259.248
6255.636
6252.105
6248.651
6245.281
6241.988
6238.772
6235.634
6232.572
6229.586
6226.674
6223.838
6221.075
6218.379
6215.755
6213.206
6210.723
6208.305
6205.955
6203.662
6201.424
6199.226
6197.076
6194.966
6192.888
6190.835
6188.8
6186.775
6184.753
6182.726
6180.687
6178.633
6176.562
6174.478
6172.391
6170.324
6168.31
6166.403
6164.662
6163.183
6162.025
6161.323
6161.062
6161.505
3296.73
3257.857
3226.466
3182.764
3137.118
3095.115
3055.967
3019.907
2986.372
2952.827
2854.361
2822.523
2790.793
2758.459
2725.272
2691.204
2656.126
2619.726
2582.05
2543.669
2505.4
2465.35
2424.902
2384.239
2343.701
2303.391
2263.598
2224.75
2186.823
2150.063
2115.915
2086.178
2060.825
2039.914
2024.114
2014.58
2012.718
2019.617
2036.376
2063.882
2102.979
2154.431
2218.845
2296.473
2387.482
2491.811
2609.092
2738.652
2879.589
3030.628
3190.35
3356.985
3528.801
3703.014
3877.645
4050.758
4219.512
4381.792
4537.583
4682.955
4813.823
4927.424
5021.035
5092.12
5138.778
5159.975
5155.6
5126.441
5074.134
5001.042
4910.205
4804.388
4685.872
4556.57
4417.46
4270.212
4116.365
3957.72
3797.675
3638.64
3482.186
3331.011
3187.882
3053.852
2928.297
2810.245
2698.749
2593.241
2493.919
2400.804
2313.632
2232.393
2157.514
2089.806
2029.739
1976.758
1929.475
1886.458
1846.831
1810.785
1779.485
1754.16
1735.627
1722.328
1709.83
1698.634
1690.498
1686.62
1687.962
1695.769
1711.562
1734.975
1762.476
1796.55
1836.581
1877.492
1922.011
1970.095
2020.046
2068.504
2111.905
2147.255
2170.765
2179.261
2171.515
2146.747
2106.496
2056.959
2005.821
1961.185
1929.743
1916.041
1921.959
1948.21
1995.71
2063.73
2151.846
2259.868
2385.82
2526.732
2679.589
2840.194
3003.101
3162.681
3313.91
3451.765
3571.987
3672.089
3750.186
3804.704
3833.006
3828.642
3788.552
3714.304
3605.368
3463.424
3303.685
3156.25
3045.783
2976.299
2938.167
2923.65
2931.1
2958.302
3006.081
3074.129
3159.087
3260.581
3368.722
3485.337
3610.081
3737.971
3864.41
3986.869
4103.98
4214.466
4317.513
4412.959
4500.997
4582.283
4657.783
4728.47
4795.232
4858.758
4919.43
4977.424
5032.909
5086.125
5137.332
5186.746
5234.535
5280.831
5325.746
5369.372
5411.78
5453.01
5493.06
5531.921
5569.569
5605.939
5640.996
5674.701
5706.969
5737.7
5766.861
5794.429
5820.384
5844.717
5867.436
5888.56
5908.119
5926.162
5942.747
5957.938
5971.814
5984.466
5995.998
6006.519
6016.146
6024.999
6033.198
6040.858
6048.083
6054.96
6061.553
6067.908
6074.048
6079.982
6085.706
6091.212
6096.486
6101.509
6106.212
6110.713
6115.188
6119.382
6123.548
6127.844
6132.406
6137.417
6143.083
6149.641
6157.351
6166.392
6177.083
6189.694
6204.477
6221.384
6240.475
6262.061
6285.524
6309.929
6334.606
6358.479
6380.051
6397.973
6410.922
6417.934
6418.911
6414.548
6406.769
6395.558
6377.843
6353.639
6328.547
6305.558
6279.533
6244.555
6201.487
6154.143
6104.649
6060.941
6024.778
5993.477
5964.437
5936.886
5911.427
5889.113
5871.187
5858.837
5852.948
5853.979
5862.163
5877.421
5899.526
5927.766
5961.045
5998.297
6038.341
6079.473
6118.947
6155.389
6188.894
6218.963
6244.127
6263.885
6278.861
6289.526
6296.571
6300.734
6302.641
6302.777
6301.647
6299.716
6296.928
6294.392
6291.339
6287.188
6283.474
6281.045
6280.45
6282.347
6286.886
6293.888
6303.324
6314.751
6326.783
6338.239
6348.259
6354.209
6353.652
6346.784
6331.442
6308.737
6282.6
6252.896
6220.381
6188.034
6157.186
6128.796
6103.381
6081.203
6062.566
6047.802
6037.29
6030.913
6028.208
6028.875
6032.499
6038.576
6046.629
6056.125
6066.376
6077.146
6088.147
6099.149
6109.994
6120.546
6130.742
6140.602
6150.113
6159.256
6168.046
6176.512
6184.683
6192.593
6200.273
6207.749
6215.04
6222.159
6229.111
6235.892
6242.493
6248.9
6255.092
6261.045
6266.734
6272.132
6277.212
6281.95
6286.322
6290.305
6293.871
6297.006
6299.707
6301.976
6303.806
6305.185
6306.119
6306.613
6306.624
6306.217
6305.485
6304.366
6302.841
6300.958
6298.741
6296.207
6293.377
6290.268
6286.899
6283.285
6279.44
6275.374
6271.1
6266.625
6261.963
6257.128
6252.137
6247.01
6241.766
6236.417
6230.974
6225.449
6219.85
6214.189
6208.478
6202.727
6196.95
6191.16
6185.366
6179.577
6173.799
6168.038
6162.3
6156.59
6150.912
6145.271
6139.67
6134.113
6128.604
6123.146
6117.743
6112.397
6107.111
6101.887
6096.729
6091.637
6086.615
6081.664
6076.785
6071.979
6067.248
6062.593
6058.016
6053.518
6049.099
6044.76
6040.503
6036.329
6032.237
6028.228
6024.303
6020.463
6016.706
6013.034
6009.446
6005.942
6002.524
5999.186
5995.935
5992.764
5989.675
5986.665
5983.733
5980.877
5978.098
5975.391
5972.752
5970.182
5967.7
5965.279
5962.922
5960.629
5958.393
5956.208
5954.081
5951.996
5949.951
5947.943
5945.964
5944.01
5942.074
5940.15
5938.234
5936.323
5934.416
5932.514
5930.624
5928.76
5926.942
5925.202
5923.583
5922.129
5920.914
5919.973
5919.406
5919.183
5919.562
3045.472
2992.311
2880.687
2841.645
2803.144
2766.966
2732.985
2700.766
2669.723
2639.556
2610.203
2580.06
2549.342
2517.759
2485.274
2451.64
2416.748
2380.459
2342.64
2303.62
2264.472
2224.411
2183.701
2142.724
2101.629
2060.214
2018.298
1976.28
1935.025
1895.133
1857.548
1824.035
1795.621
1772.425
1755.181
1744.868
1742.527
1749.055
1765.33
1792.202
1830.499
1880.846
1943.816
2019.812
2109.044
2211.447
2326.687
2454.07
2592.823
2741.438
2898.395
3061.43
3228.261
3397.07
3566.461
3735.159
3900.707
4059.795
4210.336
4349.544
4473.802
4579.935
4665.347
4727.854
4765.595
4777.547
4763.748
4725.301
4664.533
4584.28
4488.041
4378.9
4259.006
4130.369
3993.988
3850.448
3701.319
3547.787
3391.028
3234.322
3080.61
2932.931
2794.902
2667.47
2549.51
2439.306
2335.383
2236.99
2144.306
2057.425
1976.048
1899.998
1829.801
1766.955
1712.592
1665.768
1623.818
1584.824
1548.047
1514.073
1484.603
1461.645