/*--------------------------------*- C++ -*----------------------------------*\
| =========                 |                                                 |
| \\      /  F ield         | foam-extend: Open Source CFD                    |
|  \\    /   O peration     | Version:     3.1                                |
|   \\  /    A nd           | Web:         http://www.extend-project.de       |
|    \\/     M anipulation  |                                                 |
\*---------------------------------------------------------------------------*/
FoamFile
{
    version     2.0;
    format      ascii;
    class       volScalarField;
    location    "11";
    object      pd;
}
// * * * * * * * * * * * * * * * * * * * * * * * * * * * * * * * * * * * * * //

dimensions      [1 -1 -2 0 0 0 0];

internalField   nonuniform List<scalar> 
119952
(
6552.857
5545.78
5398.673
5543.709
5706.995
5558.831
5509.086
5464.878
5437.636
5419.534
5414.375
5420.653
5438.747
5467.226
5504.475
5548.315
5596.918
5648.204
5698.015
5728.956
5906.25
5925.905
5980.768
6165.569
6221.236
6292.016
6353.21
6426.286
6532.409
7959.672
3734.866
3714.202
3743.104
3767.897
3795.184
3821.225
3848.634
3871.94
3897.748
3897.672
3909.769
3939.102
3949.523
3960.226
3970.714
3983.937
4000.81
4021.999
4049.463
4132.402
4138.938
4172.689
4226.981
4288.621
4357.613
4434.026
4516.132
4601.998
4691.655
4771.133
4858.025
4946.876
5030.528
5109.592
5182.573
5250.183
5316.664
5412.291
5575.132
5479.153
5463.428
5524.875
5546.253
5523.42
5476.565
5442.164
5417.724
5402.839
5399.522
5408.065
5428.078
5458.624
5498.407
5545.582
5598.754
5656.626
5719.253
5788.492
5866.867
5951.796
6027.704
6123.305
6231.163
6298.983
6355.361
6408.301
6437.152
6434.096
6477.466
6538.295
6595.107
6651.716
6707.001
6761.014
6813.941
6865.843
6916.763
6966.739
7015.766
7063.803
7110.838
7156.868
7201.865
7245.813
7288.629
7330.296
7370.762
7409.964
7447.837
7484.317
7519.344
7552.864
7584.831
7615.205
7643.962
7671.085
7696.568
7720.418
7742.65
7763.291
7782.379
7799.958
7816.074
7830.803
7844.212
7856.379
7867.387
7877.318
7886.261
7894.313
7901.567
7908.117
7914.051
7919.398
7924.253
7928.816
7934.384
7940.21
7945.636
7950.243
7955.07
7960.233
7965.785
7971.823
7978.415
7985.623
7993.503
8002.104
8011.468
8021.63
8032.61
8044.415
8057.042
8070.467
8084.642
8099.482
8114.858
8130.544
8146.437
8162.153
8177.32
8191.528
8204.319
8215.211
8223.731
8229.454
8231.985
8230.927
8225.883
8216.547
8202.784
8184.692
8162.64
8137.22
8109.133
8079.065
8048.214
8017.214
7986.911
7958.132
7930.793
7905.364
7882.735
7864.483
7851.192
7843.91
7842.116
7858.899
7875.712
7861.2
7864.882
7869.79
7890.003
7913.491
7927.108
7932.482
7936.274
7943.525
7956.132
7973.339
7992.844
8012.288
8030.824
8048.462
8065.436
8081.922
8098.182
8114.357
8130.76
8147.655
8165.401
8185.403
8208.537
8237.552
8274.41
8210.263
8192.013
8215.514
8227.149
8235.783
8250.376
8262.399
8268.817
8280.661
8287.608
8289.219
8284.43
8273.112
8255.909
8234.08
8208.536
8180.44
8150.755
8120.28
8089.822
8060.13
8031.839
8005.514
7981.598
7960.474
7942.405
7927.536
7915.91
7907.487
7902.122
7899.551
7899.525
7901.683
7905.748
7911.321
7918.133
7925.895
7934.362
7943.325
7952.606
7962.103
7971.687
7986.275
7992.776
8000.737
8009.738
8018.58
8027.402
8036.132
8044.726
8053.167
8061.442
8069.539
8077.44
8085.128
8092.581
8099.773
8106.678
8113.268
8119.512
8125.382
8130.851
8135.894
8140.487
8144.612
8148.256
8151.409
8154.064
8156.22
8157.881
8159.053
8159.748
8159.98
8159.763
8159.108
8158.026
8156.532
8154.643
8152.382
8149.774
8146.85
8143.645
8140.193
8136.538
8132.735
8128.855
8124.927
8120.59
8115.307
8109.607
8104.003
8098.386
8092.735
8087.125
8081.438
8075.443
8066.252
8061.174
8056.346
8050.272
8044.245
8038.243
8032.251
8026.295
8020.381
8014.496
8008.648
8002.843
7997.087
7991.38
7985.726
7980.126
7974.584
7969.102
7963.68
7958.322
7953.029
7947.802
7942.642
7937.551
7932.527
7927.571
7922.684
7917.863
7913.108
7908.415
7903.784
7899.234
7894.726
7890.285
7885.911
7881.6
7877.353
7873.171
7869.054
7865.005
7861.025
7857.115
7853.277
7849.515
7845.831
7842.225
7838.701
7835.261
7831.903
7828.629
7825.442
7822.342
7819.327
7816.399
7813.556
7810.795
7808.1
7805.478
7802.93
7800.448
7798.027
7795.664
7793.351
7791.078
7788.836
7786.614
7784.4
7782.179
7779.935
7777.651
7775.304
7772.87
7770.322
7767.623
7764.71
7761.532
7758.017
7754.047
7749.462
7743.984
7737.177
7728.669
7720.337
7725.071
7767.538
6442.946
6300.198
6132.431
5967.991
5804.814
5644.875
5489.33
5338.607
5193.206
5043.225
4910.769
4788.183
4666.985
4555.273
4450.613
4353.392
4264.413
4179.568
4087.772
4040.418
3970.229
3904.785
3853.06
3807.953
3768.795
3735.587
3707.553
3686.476
3672.998
3648.012
3639.136
3635.503
3635.085
3639.328
3648.17
3661.097
3679.8
3708.854
3716.122
3735.014
3763.508
3791.745
3819.113
3845.611
3870.82
3893.948
3914.046
3925.906
3941.348
3953.922
3963.014
3971.802
3982.72
3997.299
4017.283
4045.962
4075.604
4122.633
4172.251
4228.355
4293.362
4366.272
4446.62
4532.625
4622.473
4714.37
4807.573
4898.23
4986.053
5069.746
5149.203
5223.978
5294.97
5362.207
5425.838
5472.481
5485.767
5483.68
5482.103
5474.265
5453.264
5421.566
5388.766
5363.522
5349.44
5347.766
5358.3
5380.564
5414.097
5458.136
5511.541
5572.913
5640.969
5714.81
5793.838
5877.534
5963.853
6050.283
6136.983
6219.593
6291.213
6350.482
6399.377
6439.096
6474.355
6516.758
6568.533
6623.853
6679.019
6732.832
6785.405
6837.06
6887.903
6937.893
6986.97
7035.107
7082.283
7128.489
7173.706
7217.907
7261.023
7303.005
7343.876
7383.549
7421.943
7458.998
7494.657
7528.861
7561.56
7592.709
7622.277
7650.24
7676.588
7701.319
7724.444
7745.984
7765.97
7784.443
7801.459
7817.075
7831.359
7844.385
7856.235
7866.992
7876.745
7885.586
7893.602
7900.882
7907.512
7913.581
7919.185
7924.473
7929.638
7934.869
7940.106
7945.073
7949.905
7954.759
7959.822
7965.249
7971.132
7977.547
7984.573
7992.286
8000.752
8010.023
8020.141
8031.138
8043.03
8055.811
8069.441
8083.848
8098.923
8114.493
8130.329
8146.156
8161.609
8176.26
8189.611
8201.151
8210.393
8216.873
8220.202
8220.095
8216.215
8208.218
8195.934
8179.389
8158.822
8134.61
8107.48
8078.425
8047.897
8016.766
7986.28
7956.902
7929.201
7903.172
7879.176
7857.739
7839.941
7827.786
7820.363
7818.976
7831.366
7834.547
7840.086
7851.148
7867.106
7889.71
7912.602
7928.477
7938.289
7945.5
7954.99
7968.289
7984.703
8002.405
8020.097
8037.137
8053.501
8069.328
8084.799
8100.065
8115.309
8130.765
8146.728
8163.46
8181.44
8200.243
8217.305
8229.187
8216.343
8209.587
8223.048
8235.335
8246.019
8258.449
8272.917
8282.885
8289.132
8295.228
8296.684
8291.133
8278.548
8259.937
8236.708
8210.017
8180.977
8150.507
8119.443
8088.555
8058.539
8030.012
8003.517
7979.513
7958.37
7940.349
7925.598
7914.15
7905.935
7900.787
7898.459
7898.646
7901.011
7905.266
7911.029
7917.978
7925.836
7934.355
7943.33
7952.602
7962.092
7972.071
7982.928
7992.347
8001.543
8010.346
8019.006
8027.579
8036.019
8044.3
8052.417
8060.368
8068.145
8075.735
8083.121
8090.282
8097.195
8103.835
8110.173
8116.184
8121.837
8127.107
8131.969
8136.4
8140.383
8143.904
8146.953
8149.524
8151.614
8153.224
8154.358
8155.029
8155.251
8155.036
8154.395
8153.335
8151.871
8150.022
8147.809
8145.258
8142.398
8139.259
8135.871
8132.264
8128.462
8124.464
8120.228
8115.664
8110.692
8105.408
8099.997
8094.531
8089.007
8083.432
8077.794
8072.096
8066.083
8059.627
8053.429
8047.49
8041.585
8035.638
8029.679
8023.747
8017.852
8011.996
8006.18
8000.407
7994.681
7989.003
7983.376
7977.804
7972.288
7966.83
7961.435
7956.102
7950.835
7945.634
7940.502
7935.439
7930.445
7925.522
7920.669
7915.884
7911.171
7906.525
7901.943
7897.43
7892.988
7888.61
7884.297
7880.05
7875.87
7871.757
7867.71
7863.732
7859.822
7855.982
7852.212
7848.52
7844.901
7841.357
7837.889
7834.498
7831.185
7827.95
7824.796
7821.723
7818.734
7815.827
7813.007
7810.3
7807.575
7804.961
7802.428
7799.949
7797.536
7795.18
7792.872
7790.604
7788.367
7786.148
7783.938
7781.72
7779.483
7777.206
7774.873
7772.456
7769.934
7767.266
7764.425
7761.35
7758.011
7754.323
7750.293
7745.933
7741.667
7738.296
7737.382
7739.687
7745.767
3951.926
3976.885
4018.463
4073.947
4144.135
4228.368
4326.538
4438.444
4563.547
4701.751
4849.368
5010.319
5178.207
5352.858
5532.93
5716.106
5899.875
6080.478
6260.627
6453.217
6616.353
6769.097
6909.406
7033.418
7138.16
7221.414
7281.244
7316.292
7332.848
7320.203
7282.967
7224.45
7145.917
7049.195
6936.306
6809.374
6670.939
6523.73
6358.924
6201.419
6038.705
5875.767
5714.454
5556.509
5403.319
5255.881
5115.385
4981.241
4851.045
4730.645
4615.143
4506.459
4405.039
4310.835
4224.748
4151.428
4041.839
3974.556
3919.584
3868.424
3820.659
3777.822
3740.934
3710.049
3684.79
3663.974
3647.392
3636.075
3628.498
3624.351
3624.568
3629.835
3640.157
3655.182
3674.103
3695.842
3720.306
3746.335
3773.139
3800.751
3828.785
3856.288
3881.805
3904.175
3922.62
3937.414
3948.104
3954.972
3959.628
3964.177
3970.441
3980.608
3995.959
4019.822
4053.604
4095.792
4143.364
4199.155
4266.449
4344.823
4430.938
4522.864
4618.892
4717.145
4814.868
4911.786
5005.464
5093.689
5176.393
5252.517
5321.151
5380.763
5429.888
5465.749
5480.19
5473.254
5456.507
5435.405
5406.823
5370.251
5332.835
5303.375
5286.479
5283.221
5293.244
5315.884
5350.997
5398.109
5456.197
5523.754
5599.093
5680.597
5766.563
5855.237
5945.326
6034.287
6119.679
6201.112
6275.396
6339.405
6394.305
6443.522
6489.051
6534.774
6585.36
6639.658
6694.202
6747.443
6799.365
6850.328
6900.492
6949.816
6998.227
7045.691
7092.196
7137.733
7182.272
7225.813
7268.312
7309.826
7350.096
7389.201
7427.06
7463.586
7498.72
7532.409
7564.601
7595.255
7624.338
7651.83
7677.721
7702.014
7724.721
7745.863
7765.476
7783.604
7800.305
7815.644
7829.692
7842.529
7854.238
7864.906
7874.623
7883.479
7891.561
7898.957
7905.749
7912.022
7917.867
7923.378
7928.651
7933.775
7938.878
7943.872
7948.706
7953.472
7958.34
7963.531
7969.126
7975.21
7981.881
7989.234
7997.353
8006.316
8016.184
8027.008
8038.821
8051.633
8065.397
8080.032
8095.417
8111.363
8127.603
8143.812
8159.576
8174.428
8187.804
8199.129
8207.93
8213.719
8216.022
8214.772
8209.701
8200.501
8186.964
8168.987
8146.936
8121.552
8093.248
8063.184
8031.815
7999.408
7967.843
7937.263
7908.278
7879.355
7856.543
7838.158
7821.134
7806.564
7796.42
7792.473
7795.514
7799.782
7807.116
7819.433
7838.054
7860.969
7884.493
7906.378
7926.946
7945.453
7964.624
7984.403
8003.158
8021.06
8037.56
8052.809
8067.162
8080.919
8094.316
8107.533
8120.603
8133.788
8147.227
8160.696
8173.893
8186.575
8196.28
8200.68
8203.011
8203.617
8211.211
8222.904
8236.506
8250.402
8261.87
8279.479
8300.441
8313.429
8311.442
8299.023
8281.173
8258.862
8232.479
8203.266
8172.202
8140.108
8107.962
8076.42
8046.084
8017.519
7991.223
7967.653
7947.166
7929.997
7916.268
7905.975
7898.996
7895.115
7894.041
7895.439
7898.965
7904.165
7910.779
7918.452
7926.89
7935.851
7945.132
7954.579
7964.017
7973.456
7982.49
7991.524
8000.442
8009.167
8017.729
8026.145
8034.399
8042.477
8050.383
8058.118
8065.679
8073.057
8080.238
8087.204
8093.936
8100.407
8106.594
8112.468
8118.004
8123.175
8127.955
8132.322
8136.259
8139.75
8142.787
8145.363
8147.473
8149.117
8150.296
8151.022
8151.311
8151.174
8150.616
8149.645
8148.27
8146.509
8144.386
8141.926
8139.154
8136.097
8132.781
8129.226
8125.446
8121.441
8117.196
8112.684
8107.874
8102.795
8097.546
8092.2
8086.776
8081.265
8075.668
8069.911
8064.105
8058.292
8052.403
8046.449
8040.464
8034.479
8028.517
8022.595
8016.716
8010.879
8005.082
7999.327
7993.617
7987.954
7982.34
7976.779
7971.272
7965.823
7960.433
7955.106
7949.843
7944.647
7939.519
7934.462
7929.475
7924.559
7919.716
7914.945
7910.246
7905.618
7901.063
7896.578
7892.164
7887.82
7883.547
7879.343
7875.21
7871.146
7867.151
7863.227
7859.373
7855.589
7851.879
7848.234
7844.661
7841.161
7837.735
7834.382
7831.105
7827.904
7824.78
7821.733
7818.764
7815.869
7813.044
7810.257
7807.643
7805.064
7802.571
7800.07
7797.655
7795.301
7792.997
7790.733
7788.502
7786.291
7784.092
7781.892
7779.678
7777.434
7775.143
7772.786
7770.343
7767.787
7765.096
7762.242
7759.214
7756.013
7752.707
7749.437
7746.499
7744.242
7743.099
7743.589
7746.082
4090.983
4056.695
4026.346
3996.168
3969.864
3950.957
3942.31
3947.654
3964.664
3962.672
3944.66
3937.928
3949.177
3975.13
4015.953
4070.036
4137.56
4218.798
4313.045
4420.599
4540.858
4673.025
4816.917
4971.078
5133.777
5303.546
5478.64
5657.094
5836.693
6015.123
6192.475
6400.569
6568.04
6718.949
6854.787
6973.592
7073.044
7151.04
7206.603
7239.578
7249.865
7234.802
7194.735
7132.221
7049.784
6949.621
6833.837
6704.539
6563.852
6414.142
6257.701
6097.298
5934.75
5772.354
5612.419
5456.745
5306.483
5162.599
5025.684
4895.478
4771.727
4654.465
4543.486
4438.932
4341.086
4250.053
4165.677
4087.668
4013.652
3948.853
3894.111
3843.66
3796.716
3754.85
3718.963
3689.101
3664.71
3645.333
3630.555
3619.308
3611.449
3607.709
3608.617
3614.555
3625.711
3641.777
3662.183
3686.521
3713.384
3741.071
3770.154
3801.106
3832.138
3861.948
3889.328
3913.004
3931.862
3944.977
3952.413
3955
3954.061
3951.699
3950.762
3954.107
3964.63
3984.015
4012.485
4050.775
4098.864
4158.519
4229.921
4312.772
4404.929
4504.118
4608.353
4715.403
4822.714
4928.342
5029.556
5125.57
5212.657
5290.732
5358.246
5413.538
5454.968
5480.485
5485.913
5470.872
5441.504
5402.924
5357.104
5307.612
5261.44
5225.729
5204.356
5197.912
5206.044
5228.457
5265.018
5315.398
5378.564
5452.584
5535.12
5623.866
5716.619
5811.473
5906.618
5999.76
6089.132
6173.769
6251.777
6321.73
6384.112
6441.04
6494.172
6545.977
6599.196
6653.976
6708.659
6762.086
6814.119
6865.02
6914.959
6963.948
7011.95
7058.953
7104.959
7149.973
7193.988
7236.992
7278.961
7319.83
7359.592
7398.101
7435.381
7471.354
7505.936
7539.071
7570.71
7600.813
7629.349
7656.298
7681.653
7705.42
7727.611
7748.251
7767.378
7785.043
7801.305
7816.235
7829.909
7842.412
7853.832
7864.259
7873.787
7882.506
7890.508
7897.876
7904.69
7911.026
7916.956
7922.55
7927.881
7933.027
7938.059
7942.96
7947.751
7952.465
7957.091
7962.087
7967.43
7973.197
7979.514
7986.496
7994.25
8002.88
8012.479
8023.128
8034.892
8047.816
8061.852
8076.91
8092.859
8109.549
8126.705
8143.931
8160.713
8176.508
8190.744
8202.775
8211.971
8217.764
8220.005
8218.528
8213.035
8203.072
8188.28
8169.14
8145.837
8118.432
8087.936
8055.596
8021.444
7983.022
7940.877
7882.72
7859.023
7858.945
7846.947
7825.319
7804.436
7787.424
7775.462
7768.394
7767.317
7770.352
7778.229
7790.992
7809.068
7832.796
7861.244
7891.691
7920.436
7943.807
7966.997
7992.017
8015.166
8034.763
8051.503
8066.164
8079.31
8091.392
8102.732
8113.544
8124.002
8134.292
8144.529
8154.563
8163.941
8172.568
8179.922
8184.238
8185.55
8187.598
8194.796
8204.985
8216.309
8230.213
8247.808
8268.175
8284.655
8292.717
8301.215
8304.515
8286.904
8260.311
8231.383
8200.595
8168.352
8135.454
8102.595
8070.338
8039.405
8010.415
7983.811
7960.084
7939.597
7922.579
7909.154
7899.315
7892.911
7889.692
7889.335
7891.47
7895.705
7901.617
7908.857
7917.079
7925.978
7935.301
7944.85
7954.482
7964.042
7973.479
7982.708
7991.776
8000.669
8009.347
8017.81
8026.083
8034.174
8042.086
8049.824
8057.392
8064.788
8072.006
8079.032
8085.851
8092.443
8098.784
8104.85
8110.614
8116.05
8121.131
8125.833
8130.132
8134.011
8137.456
8140.458
8143.011
8145.107
8146.746
8147.933
8148.684
8149.023
8148.945
8148.434
8147.496
8146.147
8144.409
8142.308
8139.868
8137.115
8134.074
8130.767
8127.212
8123.421
8119.402
8115.149
8110.654
8105.911
8100.94
8095.797
8090.531
8085.165
8079.7
8074.146
8068.497
8062.806
8057.042
8051.169
8045.234
8039.295
8033.376
8027.481
8021.611
8015.772
8009.964
8004.19
7998.453
7992.756
7987.102
7981.496
7975.938
7970.434
7964.985
7959.595
7954.266
7949.001
7943.802
7938.671
7933.61
7928.62
7923.701
7918.856
7914.083
7909.385
7904.76
7900.209
7895.731
7891.327
7886.996
7882.739
7878.555
7874.444
7870.406
7866.44
7862.548
7858.728
7854.981
7851.307
7847.708
7844.179
7840.723
7837.34
7834.033
7830.8
7827.641
7824.557
7821.547
7818.612
7815.75
7812.957
7810.233
7807.601
7805.031
7802.495
7800.089
7797.718
7795.391
7793.113
7790.874
7788.668
7786.488
7784.323
7782.163
7779.997
7777.811
7775.592
7773.325
7770.996
7768.589
7766.093
7763.501
7760.826
7758.093
7755.389
7752.807
7750.561
7748.763
7747.757
7747.609
7748.716
4527.925
4492.627
4457.543
4420.236
4380.811
4337.407
4296.805
4255.815
4215.244
4174.975
4135.634
4098.501
4062.3
4028.399
3998.055
3970.807
3946.987
3932.186
3924.233
3919.468
3913.737
3911.006
3916.479
3933.05
3962.211
4004.361
4059.286
4126.468
4207.837
4302.93
4411.375
4532.702
4666.104
4810.689
4965.671
5129.619
5300.62
5476.8
5656.168
5836.286
6014.619
6188.997
6348.558
6510.698
6659.276
6794.252
6913.275
7013.105
7091.465
7147.236
7179.327
7187.465
7170.9
7129.851
7066.28
6982.851
6882.026
6766.002
6636.841
6496.452
6346.877
6190.073
6028.931
5866.122
5703.7
5544.073
5388.758
5239.076
5096.529
4961.689
4834.055
4712.914
4598.137
4489.752
4387.817
4292.34
4203.427
4120.872
4045.107
3976.435
3915.57
3861.785
3812.917
3768.163
3728.139
3693.598
3664.904
3641.883
3623.85
3609.652
3598.57
3590.924
3587.409
3588.567
3594.961
3607.109
3624.879
3647.436
3674.008
3703.445
3734.581
3767.859
3803.131
3838.45
3872.103
3902.782
3928.744
3948.114
3959.598
3963.123
3959.336
3949.704
3937.025
3925.092
3917.751
3918.486
3929.568
3952.268
3987.645
4035.922
4097.755
4173.233
4261.829
4361.951
4471.395
4587.644
4707.813
4828.762
4947.459
5060.804
5165.886
5261.101
5343.598
5412.413
5465.969
5502.104
5517.89
5510.851
5481.636
5433.665
5371.193
5300.034
5229.389
5168.711
5123.985
5096.75
5086.397
5092.634
5115.244
5153.853
5208.042
5276.732
5357.901
5448.492
5545.946
5647.372
5750.031
5852.324
5952.631
6048.994
6139.787
6224.008
6301.141
6371.425
6436.083
6496.603
6554.621
6611.69
6668.355
6724.133
6778.441
6831.154
6882.448
6932.501
6981.394
7029.152
7075.801
7121.371
7165.886
7209.357
7251.778
7293.131
7333.391
7372.496
7410.375
7446.99
7482.302
7516.225
7548.688
7579.645
7609.059
7636.901
7663.155
7687.82
7710.907
7732.424
7752.391
7770.856
7787.879
7803.526
7817.874
7831.007
7843.015
7853.994
7864.041
7873.255
7881.731
7889.561
7896.829
7903.609
7909.968
7915.963
7921.646
7927.064
7932.265
7937.285
7942.129
7946.854
7951.512
7956.047
7960.794
7965.823
7971.202
7977.071
7983.565
7990.82
7998.973
8008.161
8018.506
8030.136
8043.191
8057.626
8073.368
8090.151
8107.796
8126.219
8145.129
8163.751
8181.317
8197.176
8210.636
8220.734
8226.534
8228.48
8226.464
8220.728
8210.495
8194.91
8173.865
8147.902
8117.003
8079.925
8037.418
7984.553
7871.273
7827.374
7821.636
7866.598
7862.72
7835.804
7809.498
7786.387
7767.044
7752.393
7743.229
7739.938
7742.52
7751.001
7765.155
7784.92
7810.046
7839.099
7870.447
7901.159
7927.005
7958.793
7992.191
8021.304
8043.971
8062.894
8078.696
8091.857
8103.005
8112.651
8121.135
8128.774
8135.811
8142.472
8148.734
8154.327
8159.359
8163.68
8165.925
8166.782
8168.98
8174.05
8181.673
8192.033
8205.304
8220.028
8235.074
8249.936
8263.782
8272.723
8274.323
8268.999
8253.064
8224.828
8191.346
8157.5
8124.05
8090.932
8058.64
8027.833
7998.891
7972.266
7948.658
7928.481
7911.943
7899.196
7890.218
7884.806
7882.665
7883.431
7886.692
7892.015
7898.955
7907.103
7916.123
7925.684
7935.518
7945.457
7955.395
7965.212
7974.812
7984.132
7993.194
8002.015
8010.589
8018.93
8027.061
8034.999
8042.756
8050.338
8057.751
8064.996
8072.066
8078.948
8085.629
8092.087
8098.3
8104.243
8109.89
8115.215
8120.191
8124.791
8128.992
8132.776
8136.132
8139.053
8141.534
8143.563
8145.133
8146.251
8146.948
8147.29
8147.275
8146.833
8145.921
8144.566
8142.815
8140.7
8138.249
8135.485
8132.433
8129.113
8125.542
8121.734
8117.697
8113.435
8108.949
8104.244
8099.339
8094.265
8089.058
8083.739
8078.319
8072.809
8067.215
8061.549
8055.804
8049.986
8044.13
8038.265
8032.405
8026.555
8020.718
8014.901
8009.11
8003.349
7997.622
7991.931
7986.282
7980.678
7975.121
7969.615
7964.164
7958.77
7953.437
7948.166
7942.96
7937.822
7932.752
7927.754
7922.827
7917.974
7913.194
7908.489
7903.859
7899.304
7894.825
7890.422
7886.096
7881.845
7877.671
7873.574
7869.553
7865.608
7861.74
7857.948
7854.233
7850.594
7847.032
7843.546
7840.133
7836.795
7833.534
7830.348
7827.236
7824.199
7821.236
7818.347
7815.53
7812.783
7810.106
7807.507
7804.975
7802.505
7800.111
7797.767
7795.479
7793.234
7791.034
7788.869
7786.734
7784.618
7782.514
7780.412
7778.301
7776.171
7774.013
7771.816
7769.574
7767.285
7764.954
7762.603
7760.263
7758.005
7755.902
7754.091
7752.651
7751.799
7751.529
7752.143
4879.968
4839.108
4802.288
4765.986
4733.618
4696.868
4664.709
4632.306
4599.31
4565.373
4531.184
4496.638
4460.35
4423.262
4383.585
4338.099
4297.339
4256.799
4216.335
4176.18
4136.498
4098.013
4060.969
4025.581
3992.637
3963.847
3939.281
3918.937
3903.232
3891.471
3883.693
3882.15
3888.889
3905.466
3932.978
3972.464
4024.951
4091.041
4170.473
4263.395
4369.73
4489.057
4620.656
4763.554
4916.588
5078.385
5247.255
5421.416
5598.935
5777.497
5954.485
6126.656
6290.8
6450.21
6598.064
6731.876
6849.697
6948.249
7024.714
7077.492
7105.515
7108.537
7086.859
7041.371
6974.015
6887.547
6784.609
6667.476
6538.077
6397.92
6248.896
6092.753
5932.093
5769.97
5608.209
5449.601
5296.341
5149.456
5010.164
4878.809
4754.898
4637.554
4526.338
4421.485
4323.108
4231.04
4145.299
4066.083
3994.087
3929.626
3872.192
3820.813
3774.289
3731.852
3693.683
3660.574
3633.305
3612.116
3595.872
3582.507
3571.65
3564.001
3560.443
3561.736
3568.722
3582.301
3602.462
3627.765
3657.683
3691.204
3727.071
3765.635
3806.323
3847.518
3887.021
3922.716
3952.383
3973.284
3983.231
3981.625
3968.782
3946.365
3918.451
3890.462
3867.605
3854.481
3854.839
3870.29
3901.786
3949.499
4013.693
4094.397
4191.249
4302.552
4425.77
4558.044
4695.809
4834.924
4971.253
5100.979
5220.414
5326.182
5415.756
5487.829
5540.888
5572.612
5578.94
5557.04
5507.861
5433.557
5337.819
5231.168
5130.059
5047.751
4990.227
4955.978
4942.422
4948.379
4972.792
5015.355
5075.086
5150.238
5239.683
5338.978
5445.927
5558.511
5672.564
5785.148
5895.008
6000.546
6100.044
6192.662
6278.229
6356.95
6429.646
6497.502
6561.7
6623.301
6682.965
6740.789
6796.639
6850.514
6902.588
6953.066
7002.1
7049.784
7096.193
7141.393
7185.439
7228.366
7270.189
7310.897
7350.474
7388.886
7426.072
7461.946
7496.495
7529.639
7561.3
7591.43
7619.997
7646.976
7672.356
7696.139
7718.361
7739.033
7758.155
7775.779
7791.981
7806.835
7820.426
7832.847
7844.198
7854.582
7864.107
7872.88
7881.004
7888.574
7895.675
7902.377
7908.735
7914.792
7920.578
7926.117
7931.428
7936.532
7941.458
7946.122
7950.605
7955.225
7959.715
7964.308
7969.197
7974.495
7980.354
7986.941
7994.437
8003.032
8012.895
8024.2
8037.129
8051.812
8068.119
8085.921
8105.237
8125.787
8146.997
8168.138
8188.45
8206.851
8221.937
8232.685
8239.527
8241.756
8239.081
8232.082
8220.808
8204.074
8181.083
8149.512
8099.191
7998.045
7859.494
7829.162
7798.687
7867.429
7903.673
7881.719
7849.661
7819.934
7792.573
7767.951
7746.871
7730.376
7719.372
7714.665
7716.452
7725.151
7740.375
7761.388
7787.464
7818.017
7852.12
7881.915
7914.268
7951.009
7991.497
8024.963
8051.946
8073.895
8091.62
8105.476
8116.072
8124.156
8130.274
8134.873
8138.405
8141.236
8143.532
8144.863
8145.86
8146.785
8146.941
8146.134
8146.536
8148.939
8153.965
8161.624
8171.383
8182.882
8196.464
8211.176
8224.088
8233.093
8238.03
8234.342
8221.574
8203.067
8176.75
8143.931
8109.074
8075.095
8042.937
8012.507
7983.944
7957.877
7934.981
7915.524
7899.733
7887.924
7880.09
7875.935
7875.132
7877.273
7881.896
7888.53
7896.691
7905.904
7915.881
7926.254
7936.687
7947.058
7957.279
7967.267
7976.977
7986.377
7995.467
8004.262
8012.778
8021.034
8029.058
8036.874
8044.499
8051.947
8059.226
8066.338
8073.278
8080.035
8086.595
8092.935
8099.033
8104.863
8110.398
8115.613
8120.48
8124.972
8129.063
8132.734
8135.972
8138.775
8141.142
8143.06
8144.517
8145.517
8146.087
8146.259
8146.084
8145.592
8144.676
8143.284
8141.49
8139.338
8136.853
8134.062
8130.986
8127.643
8124.052
8120.225
8116.173
8111.904
8107.424
8102.745
8097.88
8092.855
8087.693
8082.414
8077.032
8071.558
8065.999
8060.363
8054.661
8048.905
8043.111
8037.296
8031.474
8025.653
8019.84
8014.042
8008.266
8002.517
7996.798
7991.113
7985.468
7979.865
7974.308
7968.801
7963.346
7957.948
7952.608
7947.33
7942.116
7936.969
7931.889
7926.88
7921.943
7917.078
7912.287
7907.571
7902.931
7898.367
7893.881
7889.473
7885.143
7880.892
7876.721
7872.629
7868.617
7864.686
7860.834
7857.063
7853.373
7849.761
7846.23
7842.776
7839.406
7836.113
7832.897
7829.759
7826.697
7823.711
7820.799
7817.963
7815.2
7812.504
7809.88
7807.331
7804.848
7802.43
7800.08
7797.787
7795.549
7793.351
7791.201
7789.091
7787.013
7784.96
7782.925
7780.9
7778.878
7776.851
7774.812
7772.758
7770.687
7768.603
7766.516
7764.449
7762.435
7760.528
7758.787
7757.308
7756.15
7755.448
7755.187
7755.63
5044.979
5035.919
5004.528
4960.827
4915.181
4873.177
4834.029
4797.969
4764.435
4730.89
4693.736
4661.898
4630.168
4597.834
4564.647
4530.579
4495.501
4459.101
4421.425
4383.044
4344.775
4304.725
4264.277
4223.614
4183.076
4142.766
4102.973
4064.125
4026.198
3989.438
3955.29
3925.553
3900.2
3879.289
3863.489
3853.955
3852.093
3858.992
3875.751
3903.257
3942.354
3993.806
4058.22
4135.848
4226.857
4331.186
4448.467
4578.027
4718.964
4870.003
5029.725
5196.36
5368.176
5542.389
5717.02
5890.133
6058.887
6221.167
6376.958
6522.33
6653.198
6766.799
6860.41
6931.495
6978.153
6999.35
6994.975
6965.816
6913.508
6840.416
6749.58
6643.763
6525.247
6395.945
6256.835
6109.587
5955.74
5797.095
5637.05
5478.014
5321.561
5170.385
5027.256
4893.227
4767.671
4649.62
4538.124
4432.616
4333.294
4240.179
4153.007
4071.768
3996.889
3929.181
3869.114
3816.133
3768.85
3725.833
3686.206
3650.16
3618.86
3593.535
3575.002
3561.703
3549.205
3538.009
3529.873
3525.995
3527.337
3535.144
3550.937
3574.35
3601.851
3635.925
3675.956
3716.867
3761.386
3809.47
3859.421
3907.879
3951.28
3986.63
4010.14
4018.636
4010.89
3986.122
3945.871
3896.334
3845.196
3800.56
3769.118
3755.416
3761.334
3787.585
3835.085
3903.105
3991.221
4099.243
4225.195
4366.107
4518.964
4679.569
4842.476
5002.056
5153.285
5291.14
5411.362
5511.464
5589.561
5644.079
5672.381
5668.017
5627.927
5553.679
5444.743
5302.799
5143.06
4995.625
4885.158
4815.674
4777.542
4763.025
4770.475
4797.677
4845.456
4913.504
4998.462
5099.956
5208.097
5324.712
5449.456
5577.346
5703.785
5826.244
5943.355
6053.841
6156.888
6252.334
6340.371
6421.657
6497.158
6567.845
6634.607
6698.133
6758.805
6816.799
6872.284
6925.5
6976.706
7026.121
7073.91
7120.206
7165.121
7208.747
7251.155
7292.385
7332.435
7371.296
7408.944
7445.314
7480.371
7514.076
7546.344
7577.074
7606.236
7633.804
7659.759
7684.092
7706.811
7727.935
7747.494
7765.537
7782.121
7797.313
7811.189
7823.841
7835.373
7845.894
7855.52
7864.373
7872.572
7880.233
7887.458
7894.335
7900.928
7907.283
7913.423
7919.357
7925.081
7930.587
7935.861
7940.884
7945.587
7950.088
7954.563
7958.757
7962.923
7967.219
7971.781
7976.792
7982.457
7989.016
7996.726
8005.767
8016.458
8029.067
8043.845
8060.753
8079.849
8101.436
8124.899
8149.303
8173.981
8197.853
8219.421
8237.282
8250.054
8257.088
8258.052
8253.578
8245.524
8234.134
8214.932
8184.664
8137.84
7905.801
7783.153
7813.964
7956.809
7984.55
7943.662
7900.306
7864.151
7832.849
7803.806
7776.252
7750.797
7728.486
7710.562
7698.212
7692.323
7693.354
7701.538
7716.796
7738.901
7767.14
7800.398
7837.197
7872.804
7909.707
7952.641
7993.418
8028.191
8058.337
8083.502
8103.26
8118.236
8128.901
8135.944
8140.073
8141.953
8142.124
8141.006
8139.062
8136.057
8132.55
8129.728
8126.261
8122.81
8120.41
8119.815
8121.711
8126.249
8133.237
8142.641
8154.076
8166.143
8177.613
8187.634
8193.584
8193.027
8186.159
8170.817
8148.112
8121.975
8092.271
8059.756
8027.409
7996.561
7968.171
7942.756
7920.578
7901.941
7887.177
7876.665
7870.288
7867.583
7868.25
7871.874
7877.951
7886.004
7895.5
7905.751
7916.521
7927.522
7938.525
7949.369
7959.921
7970.117
7979.977
7989.488
7998.631
8007.421
8015.887
8024.058
8031.968
8039.648
8047.124
8054.415
8061.534
8068.486
8075.267
8081.868
8088.275
8094.467
8100.42
8106.109
8111.507
8116.587
8121.325
8125.697
8129.68
8133.247
8136.381
8139.082
8141.351
8143.181
8144.56
8145.494
8145.988
8145.999
8145.592
8144.86
8143.741
8142.216
8140.333
8138.116
8135.582
8132.752
8129.643
8126.274
8122.66
8118.815
8114.749
8110.475
8106
8101.338
8096.503
8091.512
8086.385
8081.141
8075.792
8070.349
8064.824
8059.225
8053.564
8047.853
8042.102
8036.325
8030.535
8024.741
8018.952
8013.174
8007.413
8001.675
7995.965
7990.287
7984.646
7979.045
7973.488
7967.979
7962.521
7957.118
7951.772
7946.486
7941.262
7936.104
7931.012
7925.99
7921.039
7916.16
7911.354
7906.623
7901.968
7897.391
7892.893
7888.474
7884.135
7879.878
7875.704
7871.612
7867.603
7863.678
7859.838
7856.081
7852.409
7848.821
7845.317
7841.899
7838.561
7835.31
7832.139
7829.05
7826.04
7823.108
7820.252
7817.473
7814.766
7812.127
7809.557
7807.075
7804.654
7802.297
7800.004
7797.768
7795.583
7793.456
7791.371
7789.326
7787.318
7785.339
7783.385
7781.449
7779.525
7777.609
7775.698
7773.791
7771.889
7769.999
7768.135
7766.318
7764.577
7762.958
7761.504
7760.289
7759.348
7758.782
7758.558
7758.937
5038.125
5015.623
4965.312
4926.27
4887.769
4851.591
4817.61
4785.391
4754.348
4724.181
4694.828
4664.685
4633.967
4602.384
4569.899
4536.265
4501.373
4465.084
4427.265
4388.245
4349.097
4309.037
4268.326
4227.349
4186.254
4144.839
4102.923
4060.905
4019.65
3979.758
3942.173
3908.66
3880.246
3857.05
3839.806
3829.493
3827.152
3833.68
3849.955
3876.827
3915.124
3965.471
4028.441
4104.437
4193.669
4296.072
4411.312
4538.695
4677.448
4826.063
4983.02
5146.055
5312.886
5481.695
5651.086
5819.784
5985.332
6144.42
6294.961
6434.169
6558.427
6664.56
6749.972
6812.479
6850.22
6862.172
6848.373
6809.926
6749.158
6668.904
6572.665
6463.525
6343.631
6214.994
6078.613
5935.073
5785.944
5632.412
5475.653
5318.947
5165.235
5017.555
4879.526
4752.095
4634.135
4523.931
4420.008
4321.615
4228.931
4142.05
4060.673
3984.623
3914.426
3851.58
3797.217
3750.393
3708.443