/*--------------------------------*- C++ -*----------------------------------*\
| =========                 |                                                 |
| \\      /  F ield         | foam-extend: Open Source CFD                    |
|  \\    /   O peration     | Version:     3.1                                |
|   \\  /    A nd           | Web:         http://www.extend-project.de       |
|    \\/     M anipulation  |                                                 |
\*---------------------------------------------------------------------------*/
FoamFile
{
    version     2.0;
    format      ascii;
    class       surfaceScalarField;
    location    "11";
    object      phi;
}
// * * * * * * * * * * * * * * * * * * * * * * * * * * * * * * * * * * * * * //

dimensions      [0 3 -1 0 0 0 0];

internalField   nonuniform List<scalar> 
275122
(
-0.0003149933
0.0003199741
-2.605304e-07
-4.720254e-06
-0.0002847449
0.000272353
1.074975e-06
1.131691e-05
-0.0002857001
0.0002936296
-2.924668e-07
-7.6371e-06
-0.000321893
0.000331105
-3.193818e-07
-8.892587e-06
-0.000354951
0.0003581495
-3.744272e-07
-2.824055e-06
-0.000359555
0.0003593506
-3.659345e-07
5.703821e-07
-0.0003566801
0.0003553984
-3.381585e-07
1.619813e-06
-0.000350575
0.0003486322
-3.26549e-07
2.26944e-06
-0.0003417437
0.0003390876
-2.961522e-07
2.952315e-06
-0.0003304963
0.0003273401
-2.719523e-07
3.428138e-06
-0.0003170919
0.0003133848
-2.45655e-07
3.952742e-06
-0.0003015892
0.0002973899
-2.151606e-07
4.41446e-06
-0.0002841544
0.0002795118
-1.837444e-07
4.826426e-06
-0.000265052
0.000260051
-1.491847e-07
5.150256e-06
-0.0002446953
0.0002394508
-1.123058e-07
5.356837e-06
-0.0002237066
0.0002184332
-8.451231e-08
5.357924e-06
-0.0002030733
0.0001980459
-6.893458e-08
5.096339e-06
-0.0001838058
0.000179334
-7.813373e-08
4.549875e-06
-0.0001670932
0.0001633434
-1.049844e-07
3.854842e-06
-0.0001547605
0.0001528213
-3.144158e-07
2.253658e-06
-0.0001630116
0.0001677082
-7.349358e-07
-3.961654e-06
-0.0001642004
0.000162833
-1.845575e-07
1.551881e-06
-0.0001603682
0.0001600694
-8.077236e-08
3.794888e-07
-0.0001723593
0.0001773122
2.096088e-07
-5.162472e-06
-0.0001745483
0.0001735574
2.464443e-07
7.444529e-07
-0.0001711955
0.0001702847
-4.479086e-08
9.555901e-07
-0.0001675122
0.0001661414
-8.079554e-08
1.451593e-06
-0.0001620183
0.0001596965
-6.802504e-08
2.389802e-06
-0.0001484285
0.0001385192
-7.701905e-08
9.986392e-06
-0.0001656325
0.0001700019
3.729299e-09
-4.373063e-06
-0.0002450641
0.000257447
-6.614038e-08
-1.231676e-05
-0.0002926959
0.0003043631
6.717351e-09
-1.167387e-05
-0.000339916
0.000351926
7.205201e-09
-1.201727e-05
-0.000388446
0.0004006798
7.887837e-09
-1.224172e-05
-0.000438151
0.0004508058
8.025309e-09
-1.266276e-05
-0.000489368
0.0005023477
8.989992e-09
-1.298867e-05
-0.0005417506
0.0005550053
8.421791e-09
-1.326312e-05
-0.000595121
0.0006086004
4.361188e-09
-1.348382e-05
-0.0006492593
0.0006629109
8.690957e-09
-1.366032e-05
-0.0007035804
0.000718446
2.118109e-07
-1.507742e-05
1.180613e-05
-0.0004878932
0.0004898192
4.378645e-10
-1.373261e-05
1.204855e-05
-0.0004956679
0.0004974869
-8.67319e-10
-1.386668e-05
1.231626e-05
-0.0005025139
0.0005040714
-2.258446e-09
-1.387147e-05
1.255478e-05
-0.000508492
0.0005098116
-1.689969e-09
-1.387268e-05
1.282387e-05
-0.0005132518
0.0005142479
-1.516364e-09
-1.381839e-05
1.293226e-05
-0.0005167828
0.0005175155
-1.32031e-09
-1.366363e-05
1.290695e-05
-0.0005192555
0.0005197305
-1.14867e-09
-1.33808e-05
1.28377e-05
-0.0005208419
0.0005210279
-1.01154e-10
-1.302365e-05
1.270595e-05
-0.0005211419
0.0005203021
-8.846032e-10
-1.186519e-05
1.009428e-05
-0.002113519
0.002116236
7.596282e-11
-4.479675e-05
1.095751e-05
1.004082e-05
1.098668e-05
1.116543e-05
-0.002115533
0.002112153
2.553931e-11
-4.184488e-05
1.148386e-05
1.112972e-05
1.144629e-05
1.070336e-05
-0.002107891
0.002102749
5.439525e-12
-3.786239e-05
1.082591e-05
1.067408e-05
1.080117e-05
1.020656e-05
-0.002097085
0.002090865
-1.878152e-11
-3.47789e-05
1.029551e-05
1.020337e-05
1.029317e-05
9.953256e-06
-0.002083758
0.00207586
-4.009066e-11
-3.192739e-05
9.980612e-06
9.933293e-06
9.957789e-06
9.597858e-06
-0.0020676
0.002058865
-4.817049e-11
-2.96189e-05
9.600247e-06
9.577369e-06
9.578142e-06
9.319554e-06
-0.002049928
0.002040677
-4.725437e-11
-2.797837e-05
9.315635e-06
9.298069e-06
9.296067e-06
9.121582e-06
-0.002031284
0.002021789
-4.548661e-11
-2.697469e-05
9.132886e-06
9.100998e-06
9.11514e-06
8.962942e-06
-0.002012523
0.002003085
-4.280119e-11
-2.672518e-05
9.138655e-06
8.942703e-06
9.118723e-06
8.178735e-06
-0.001992141
0.00198616
-4.127616e-11
-2.796347e-05
8.805215e-06
8.161125e-06
8.799413e-06
9.545678e-06
-0.001978814
0.001970018
-1.179228e-11
-2.946147e-05
9.582076e-06
9.548562e-06
9.581813e-06
9.722204e-06
-0.001962018
0.001955186
-8.022345e-12
-3.197624e-05
9.67326e-06
9.731842e-06
9.680942e-06
1.019616e-05
-0.001948941
0.001943678
3.128689e-11
-3.573772e-05
1.036118e-05
1.01316e-05
1.031086e-05
1.100432e-05
-0.001938482
0.001934825
2.696108e-11
-4.004986e-05
1.084965e-05
1.099187e-05
1.086107e-05
1.160119e-05
-0.00193206
0.001930499
-1.016511e-11
-4.505631e-05
1.171336e-05
1.159499e-05
1.170716e-05
1.250492e-05
-0.001929706
0.0019301
-3.415834e-11
-5.058695e-05
1.260873e-05
1.247418e-05
1.260445e-05
1.35888e-05
-0.001931353
0.001933658
-4.295732e-11
-5.659544e-05
1.369206e-05
1.343153e-05
1.35774e-05
1.549302e-05
-0.001936585
0.001938577
-3.167767e-11
-6.30606e-05
1.581683e-05
1.474379e-05
1.501438e-05
1.950425e-05
-0.001937794
0.00193195
-1.452649e-11
-6.977422e-05
2.081261e-05
1.768006e-05
1.762201e-05
3.819578e-05
-0.001923901
0.001944041
-5.323685e-12
-5.833617e-05
3.28404e-05
-0.001969145
0.001978508
-5.525465e-12
-4.220336e-05
4.831611e-05
-0.001980672
0.001986039
-1.217101e-11
-5.368354e-05
4.349071e-05
-0.00199297
0.00199845
-1.408131e-11
-4.897075e-05
2.840129e-05
-0.002003818
0.002011907
-1.107023e-11
-3.649053e-05
1.214154e-05
-0.002022332
0.002031686
-9.250075e-12
-2.149623e-05
3.218855e-06
-0.002039823
0.002046442
-6.285306e-12
-9.837155e-06
-4.865712e-06
-0.002052007
0.002055706
-4.323045e-12
1.166859e-06
-1.320564e-05
-0.002058259
0.002058934
-5.016737e-12
1.253101e-05
-2.149149e-05
-0.002058334
0.002055747
-5.66912e-12
2.407877e-05
-2.976064e-05
-0.002051875
0.00204614
-8.791921e-12
3.54959e-05
-3.773325e-05
-0.002039087
0.002030268
-1.191698e-11
4.655181e-05
-4.53395e-05
-0.002020137
0.00200837
-1.53924e-11
5.710668e-05
-5.244788e-05
-0.001995277
0.001980664
-1.74707e-11
6.706054e-05
-5.88546e-05
-0.001964668
0.001947268
-1.87802e-11
7.62547e-05
-6.406202e-05
-0.001928364
0.001908112
-1.696107e-11
8.431403e-05
-6.761007e-05
-0.001886174
0.001862984
-1.017655e-11
9.080037e-05
-6.892895e-05
-0.001837892
0.001811735
4.461574e-12
9.508567e-05
-6.744854e-05
-0.001783357
0.0017542
2.508862e-11
9.660562e-05
-6.34898e-05
-0.001722495
0.001690916
3.569381e-11
9.506922e-05
-5.348135e-05
-0.001655908
0.001619542
3.130846e-11
8.984682e-05
-5.393764e-05
-0.001584779
0.001551593
1.565462e-11
8.712288e-05
-4.505281e-05
-0.001515009
0.001480342
4.142065e-12
7.971896e-05
-3.014484e-05
-0.001440063
0.001400382
3.828084e-12
6.982593e-05
-3.632512e-05
-0.001364205
0.001331624
1.841189e-12
6.890653e-05
-3.831871e-05
-0.001300607
0.00127014
-1.619708e-11
6.878514e-05
-3.882137e-05
-0.001240583
0.001212998
-4.850404e-11
6.640692e-05
-4.326413e-05
-0.001186682
0.001164501
-8.101264e-11
6.544464e-05
-5.347373e-05
-0.001142964
0.001129538
-1.044905e-10
6.689988e-05
-1.080431e-05
-0.001120771
0.001100757
-1.090555e-10
5.987354e-05
-9.184378e-06
-1.074824e-05
-9.122431e-06
-7.337168e-06
-0.00108226
0.001066604
-9.847137e-11
4.440243e-05
-7.089698e-06
-7.279931e-06
-7.039543e-06
-5.834049e-06
-0.001051212
0.001036759
-8.88554e-11
3.721711e-05
-5.568629e-06
-5.809999e-06
-5.551566e-06
-4.747218e-06
-0.001022968
0.001010386
-7.879502e-11
3.127492e-05
-4.596446e-06
-4.74743e-06
-4.601652e-06
-4.009208e-06
-0.0009986177
0.0009879444
-6.966191e-11
2.650133e-05
-3.89398e-06
-4.019755e-06
-3.904955e-06
-3.382728e-06
-0.0009779331
0.0009688771
-5.951616e-11
2.240965e-05
-3.282209e-06
-3.394561e-06
-3.29408e-06
-2.847079e-06
-0.0009603934
0.0009527627
-4.787334e-11
1.887237e-05
-2.76333e-06
-2.857746e-06
-2.77349e-06
-2.383328e-06
-0.0009456232
0.0009392365
-3.787129e-11
1.578837e-05
-2.308319e-06
-2.392717e-06
-2.317332e-06
-1.970071e-06
-0.0009332782
0.0009280028
-3.042942e-11
1.303973e-05
-1.903646e-06
-1.978555e-06
-1.911989e-06
-1.595405e-06
-0.0009231086
0.0009188368
-2.337593e-11
1.054796e-05
-1.534833e-06
-1.60353e-06
-1.542337e-06
-1.248256e-06
-0.0009149126
0.0009115583
-1.778094e-11
8.248267e-06
-1.191376e-06
-1.256272e-06
-1.198035e-06
-9.395104e-07
-0.000908529
0.0009060439
-1.498231e-11
6.152664e-06
-8.892308e-07
-9.447855e-07
-8.939883e-07
-6.604827e-07
-0.0009038662
0.0009022017
-1.24819e-11
4.221145e-06
-6.140343e-07
-6.644676e-07
-6.177351e-07
-4.043957e-07
-0.000900823
0.0008999283
-1.123185e-11
2.433373e-06
-3.618875e-07
-4.075564e-07
-3.648492e-07
-1.667215e-07
-0.0008992997
0.0008991212
-1.204208e-11
7.76294e-07
-1.296468e-07
-1.693073e-07
-1.320918e-07
5.353339e-08
-0.0008992137
0.0008997142
-1.329228e-11
-7.734245e-07
8.492711e-08
5.152536e-08
8.291247e-08
2.526235e-07
-0.0009004627
0.0009016141
-1.417292e-11
-2.218699e-06
2.828276e-07
2.50853e-07
2.810129e-07
4.334309e-07
-0.000903003
0.0009047595
-1.403312e-11
-3.541496e-06
4.607959e-07
4.316779e-07
4.590922e-07
5.936165e-07
-0.0009067393
0.0009090621
-1.300609e-11
-4.742436e-06
6.177218e-07
5.920809e-07
6.162162e-07
7.33573e-07
-0.0009115933
0.0009144454
-1.151759e-11
-5.825589e-06
7.545751e-07
7.321873e-07
7.531988e-07
8.538133e-07
-0.0009174903
0.0009208333
-9.864407e-12
-6.791551e-06
8.717575e-07
8.525099e-07
8.704444e-07
9.545103e-07
-0.0009243536
0.0009281474
-8.252455e-12
-7.639001e-06
9.693687e-07
9.532281e-07
9.680593e-07
1.03577e-06
-0.0009321027
0.0009363059
-6.598092e-12
-8.367169e-06
1.047565e-06
1.03446e-06
1.046217e-06
1.097891e-06
-0.0009406546
0.0009452247
-4.629218e-12
-8.976538e-06
1.10668e-06
1.096533e-06
1.105279e-06
1.141271e-06
-0.0009499244
0.0009548187
-2.266792e-12
-9.468168e-06
1.14712e-06
1.139866e-06
1.145683e-06
1.166371e-06
0.0009650012
6.830545e-13
-9.843495e-06
1.169422e-06
1.164929e-06
1.167907e-06
-0.0009598264
1.173834e-06
-0.0009702734
0.0009756851
3.239205e-12
-1.010433e-05
1.17409e-06
1.172229e-06
1.172427e-06
1.164113e-06
-0.0009811781
0.0009867825
5.602368e-12
-1.025282e-05
1.161789e-06
1.162411e-06
1.160085e-06
1.137803e-06
-0.000992452
0.0009982053
7.944151e-12
-1.029138e-05
1.132913e-06
1.136159e-06
1.13126e-06
1.095475e-06
-0.001004008
0.001009866
1.003686e-11
-1.022222e-05
1.088136e-06
1.093855e-06
1.086517e-06
1.037651e-06
-0.001015758
0.001021677
1.187782e-11
-1.00474e-05
1.027926e-06
1.036077e-06
1.026365e-06
9.64718e-07
-0.001027615
0.001033551
1.361363e-11
-9.768574e-06
9.526358e-07
9.632144e-07
9.511596e-07
8.771016e-07
-0.001039491
0.001045402
1.540297e-11
-9.388154e-06
8.627106e-07
8.756869e-07
8.61337e-07
7.75721e-07
-0.001051301
0.001057145
1.737344e-11
-8.91079e-06
7.592043e-07
7.744114e-07
7.579749e-07
6.606235e-07
-0.001062961
0.001068694
1.971794e-11
-8.339545e-06
6.436994e-07
6.59571e-07
6.427131e-07
5.365924e-07
-0.001074381
0.001079956
2.240988e-11
-7.682491e-06
5.180427e-07
5.356603e-07
5.171908e-07
4.039928e-07
-0.00108547
0.001090845
2.521807e-11
-6.950004e-06
3.844533e-07
4.03131e-07
3.837124e-07
2.657938e-07
-0.001096142
0.001101275
2.831824e-11
-6.154075e-06
2.455396e-07
2.650801e-07
2.45241e-07
1.263893e-07
-0.001106314
0.001111164
3.012007e-11
-5.310944e-06
1.045813e-07
1.255967e-07
1.040006e-07
-1.374318e-08
-0.001115905
0.001120441
3.274877e-11
-4.441192e-06
-3.309168e-08
-1.435045e-08
-3.405715e-08
-1.473457e-07
-0.001124859
0.001129054
3.386487e-11
-3.570015e-06
-1.648033e-07
-1.480255e-07
-1.655344e-07
-2.706134e-07
-0.001133121
0.001136958
3.36887e-11
-2.723239e-06
-2.856733e-07
-2.712055e-07
-2.863297e-07
-3.795348e-07
-0.001140659
0.001144129
3.243001e-11
-1.925369e-06
-3.919383e-07
-3.802373e-07
-3.926868e-07
-4.72009e-07
-0.001147459
0.001150566
3.051585e-11
-1.198453e-06
-4.815065e-07
-4.72721e-07
-4.821879e-07
-5.465335e-07
-0.001153535
0.0011563
2.828451e-11
-5.649563e-07
-5.530253e-07
-5.470196e-07
-5.534811e-07
-6.009224e-07
-0.001158935
0.001161402
2.591192e-11
-5.630785e-08
-6.041594e-07
-6.012971e-07
-6.044867e-07
-6.354069e-07
-0.001163745
0.001165951
2.390319e-11
3.353247e-07
-6.34936e-07
-6.357076e-07
-6.351469e-07
-6.397344e-07
-0.001168067
0.001170096
2.227972e-11
5.17303e-07
-6.331065e-07
-6.400508e-07
-6.332507e-07
-5.80467e-07
-0.001172047
0.001173886
2.067697e-11
4.160068e-07
-5.466187e-07
-5.812749e-07
-5.471052e-07
-4.080201e-07
-0.001175434
0.001176894
1.861667e-11
-1.553586e-07
-2.416921e-07
-4.09411e-07
-2.462679e-07
-4.219958e-07
-0.001178561
0.001179989
1.763476e-11
3.096643e-07
-4.531658e-07
-4.169038e-07
-4.45808e-07
-4.983516e-07
-0.001181614
0.001183384
1.759594e-11
2.209894e-07
-4.9962e-07
-4.960064e-07
-4.975494e-07
-4.577423e-07
-0.001185133
0.00118695
1.84358e-11
-4.488822e-09
-4.495717e-07
-4.564257e-07
-4.484176e-07
-4.058649e-07
-0.001188834
0.001190833
1.915875e-11
-3.948307e-07
-3.968198e-07
-4.05135e-07
-3.961262e-07
-3.46254e-07
-0.001192909
0.001195126
2.011426e-11
-8.534e-07
-3.363382e-07
-3.455654e-07
-3.355914e-07
-2.85492e-07
-0.00119744
0.00119992
2.153781e-11
-1.358073e-06
-2.763583e-07
-2.84642e-07
-2.754791e-07
-2.281256e-07
-0.001202513
0.001205287
2.346602e-11
-1.879156e-06
-2.201378e-07
-2.272654e-07
-2.192502e-07
-1.764133e-07
-0.001208182
0.001211264
2.549065e-11
-2.391675e-06
-1.696641e-07
-1.755779e-07
-1.687974e-07
-1.322742e-07
-0.001214469
0.001217856
2.731682e-11
-2.870777e-06
-1.270317e-07
-1.3148e-07
-1.26174e-07
-9.788658e-08
-0.001221362
0.001225035
2.887721e-11
-3.291091e-06
-9.420793e-08
-9.712395e-08
-9.354055e-08
-7.49808e-08
-0.001228814
0.001232741
3.00566e-11
-3.630053e-06
-7.360498e-08
-7.444202e-08
-7.315373e-08
-6.517846e-08
-0.001236754
0.001240889
3.09784e-11
-3.872499e-06
-6.606576e-08
-6.48794e-08
-6.572349e-08
-6.838471e-08
-0.001245091
0.001249386
3.179328e-11
-4.016671e-06
-7.108719e-08
-6.814316e-08
-7.086433e-08
-8.196127e-08
-0.001253728
0.001258138
3.241103e-11
-4.076267e-06
-8.548748e-08
-8.181627e-08
-8.535414e-08
-1.006805e-07
-0.001262577
0.001267067
3.283353e-11
-4.079607e-06
-1.044457e-07
-1.006387e-07
-1.044022e-07
-1.187337e-07
-0.001271571
0.001276118
3.339568e-11
-4.064986e-06
-1.219797e-07
-1.18833e-07
-1.220979e-07
-1.300258e-07
-0.001280672
0.001285274
3.409625e-11
-4.0768e-06
-1.320778e-07
-1.30227e-07
-1.322418e-07
-1.289605e-07
-0.001289886
0.001294563
3.490313e-11
-4.160433e-06
-1.291919e-07
-1.292165e-07
-1.293848e-07
-1.11163e-07
-0.001299263
0.00130406
3.541167e-11
-4.356323e-06
-1.091829e-07
-1.114594e-07
-1.09442e-07
-7.346378e-08
-0.001308901
0.001313883
3.609356e-11
-4.696092e-06
-6.921619e-08
-7.377386e-08
-6.948023e-08
-7.834818e-09
-0.001318931
0.001324163
3.746756e-11
-5.214642e-06
-1.08433e-09
-8.01057e-09
-1.239358e-09
6.74437e-08
-0.001329514
0.00133515
3.847285e-11
-5.925464e-06
7.744569e-08
6.726978e-08
7.726388e-08
1.735955e-07
-0.001340932
0.001347069
3.874599e-11
-6.857151e-06
1.864322e-07
1.733342e-07
1.862236e-07
3.021531e-07
-0.001353393
0.00136015
3.85483e-11
-7.995656e-06
3.174389e-07
3.018978e-07
3.172636e-07
4.497013e-07
-0.001367133
0.001374626
3.808026e-11
-9.325672e-06
4.670566e-07
4.494723e-07
4.669666e-07
6.138616e-07
0.001390728
3.759746e-11
-1.083681e-05
-0.001382386
6.335542e-07
6.137272e-07
6.332739e-07
7.911216e-07
-0.001399379
0.001408666
3.764588e-11
-1.2492e-05
8.11978e-07
7.907073e-07
8.114817e-07
9.719155e-07
-0.001418287
0.001428563
3.714046e-11
-1.420441e-05
9.931186e-07
9.712524e-07
9.926335e-07
1.145929e-06
-0.001439179
0.001450446
3.649299e-11
-1.589081e-05
1.16635e-06
1.14542e-06
1.16584e-06
1.307872e-06
-0.001462053
0.001474305
3.534079e-11
-1.752145e-05
1.327123e-06
1.307371e-06
1.326656e-06
1.452821e-06
-0.001486901
0.001500118
3.352253e-11
-1.906235e-05
1.470161e-06
1.452302e-06
1.469729e-06
1.569472e-06
-0.001513672
0.001527781
3.100801e-11
-2.041326e-05
1.583284e-06
1.56894e-06
1.582768e-06
1.642319e-06
-0.001542195
0.001557042
2.801491e-11
-2.143163e-05
1.650398e-06
1.641802e-06
1.649946e-06
1.654904e-06
-0.001572127
0.001587474
2.487911e-11
-2.196535e-05
1.65502e-06
1.654424e-06
1.654615e-06
1.596452e-06
-0.00160296
0.001618509
2.197461e-11
-2.191701e-05
1.587703e-06
1.596016e-06
1.587311e-06
1.469589e-06
-0.001634085
0.001649549
1.94725e-11
-2.130806e-05
1.453015e-06
1.469225e-06
1.452687e-06
1.290392e-06
-0.001664943
0.001680102
1.734408e-11
-2.027646e-05
1.268657e-06
1.290161e-06
1.268394e-06
1.077645e-06
-0.001695133
0.001709854
1.525204e-11
-1.898102e-05
1.052625e-06
1.077474e-06
1.052417e-06
8.432694e-07
-0.001724413
0.001738588
1.279243e-11
-1.749374e-05
8.163864e-07
8.430576e-07
8.162784e-07
5.939668e-07
-0.001752556
0.001766083
1.03509e-11
-1.584567e-05
5.654369e-07
5.938674e-07
5.6551e-07
3.36656e-07
-0.001779385
0.001792227
7.875522e-12
-1.413188e-05
3.081652e-07
3.366641e-07
3.084681e-07
8.389849e-08
-0.001804835
0.001816933
6.210525e-12
-1.238499e-05
5.943765e-08
8.415013e-08
5.954838e-08
-1.961704e-07
-0.001828809
0.001840282
7.517867e-12
-1.065334e-05
-2.137091e-07
-1.961462e-07
-2.137494e-07
-4.790043e-07
-0.001851562
0.001862329
9.497013e-12
-8.818708e-06
-4.955159e-07
-4.795862e-07
-4.950969e-07
-8.139473e-07
-0.001872865
0.001882698
1.176807e-11
-6.543495e-06
-8.308423e-07
-8.142715e-07
-8.304788e-07
-1.21905e-06
-0.001892118
0.001900462
1.608242e-11
-3.384725e-06
-1.259936e-06
-1.218017e-06
-1.262359e-06
-1.887974e-06
-0.00190809
0.001914685
5.94473e-11
1.009303e-06
-1.915232e-06
-1.88429e-06
-1.916326e-06
-2.664528e-06
-0.001920478
0.001924665
1.000913e-10
6.896457e-06
-2.854916e-06
-2.679916e-06
-2.884367e-06
-4.427217e-06
-0.001927621
0.001929876
1.7345e-10
1.538961e-05
-4.341249e-06
-4.460657e-06
-4.415571e-06
-7.544538e-06
-0.001931572
0.001929537
3.442023e-10
3.155472e-05
-7.031092e-06
-7.714796e-06
-7.229045e-06
-8.188299e-06
-0.0004801854
0.0004742441
-1.532827e-08
1.41449e-05
-1.35006e-05
-0.0004698408
0.0004672489
-5.560097e-09
1.609812e-05
-1.148877e-05
-0.0004572715
0.0004534954
-5.454111e-09
1.527028e-05
-1.071579e-05
-0.0004403223
0.0004354315
1.011319e-09
1.560567e-05
-8.374888e-06
-0.0004193193
0.0004133966
1.425434e-08
1.428334e-05
-5.604402e-06
-0.0003944801
0.0003879468
1.091138e-08
1.212682e-05
-4.602672e-06
-0.0003685567
0.0003623417
4.93228e-09
1.081273e-05
-4.519565e-06
-0.0003450657
0.000339867
1.345216e-09
9.716958e-06
-4.24892e-06
-0.0003260099
0.0003219822
-1.229599e-10
8.276718e-06
-3.607524e-06
-0.0003114057
0.000308406
4.560972e-11
6.607113e-06
-2.82357e-06
-0.0003007212
0.0002986277
4.221127e-10
4.916584e-06
-2.077034e-06
-0.0002934646
0.0002921376
1.902065e-10
3.403817e-06
-1.472582e-06
-0.000289017
0.0002882561
-5.724096e-10
2.234098e-06
-1.184583e-06
-0.0002865116
0.0002861226
-8.7351e-10
1.574467e-06
-1.061655e-06
-0.0002852943
0.0002851269
-8.936486e-10
1.229941e-06
-9.820037e-07
-0.0002848317
0.0002848083
-6.880613e-10
1.006115e-06
-9.284033e-07
-0.0002848941
0.0002849845
-4.313936e-10
8.384084e-07
-8.890193e-07
-0.0002853895
0.0002855769
-2.266528e-10
7.018393e-07
-8.702083e-07
-0.0002862464
0.0002865092
-9.538624e-11
6.075479e-07
-8.753529e-07
-0.0002873838
0.0002877023
-1.941166e-11
5.568928e-07
-9.160798e-07
-0.0002887064
0.0002890491
2.111445e-11
5.732828e-07
-1.000572e-06
-0.0002900805
0.0002904126
4.775356e-11
6.683917e-07
-1.14251e-06
-0.0002913532
0.0002916231
9.07464e-11
8.724863e-07
-1.272982e-06
-0.0002923012
0.0002924042
1.45024e-10
1.169848e-06
-1.640678e-06
-0.0002924584
0.0002923086
3.275956e-11
1.790442e-06
-2.399645e-06
-0.0002913823
0.000290872
-5.25487e-10
2.910448e-06
-4.390273e-06
-0.0002875979
0.0002865239
-9.850452e-10
5.465239e-06
-8.065173e-06
-0.0002780813
0.0002747726
-9.548927e-10
1.137491e-05
-1.429108e-05
-0.0002685313
0.0002643557
-5.070637e-09
1.847173e-05
-1.207568e-06
-0.0002426466
0.000234841
-5.40367e-09
9.018586e-06
-9.562752e-08
-0.0002162602
0.0002119048
7.503885e-09
4.443483e-06
-1.170254e-06
-0.0002018524
0.0001991212
5.305546e-09
3.896171e-06
-9.639728e-07
-0.0001927566
0.0001913244
1.73936e-09
2.39435e-06
-6.639569e-07
-0.0001887009
0.0001881821
6.102347e-10
1.182139e-06
-7.493143e-07
-0.0001868462
0.000186443
1.553933e-10
1.152402e-06
-1.09965e-07
-0.0001851502
0.000184405
-1.075348e-10
8.552945e-07
3.776387e-07
-0.0001821983
0.000181515
-2.367633e-10
3.059176e-07
4.726847e-07
-0.0001795403
0.0001789258
-3.14179e-10
1.420362e-07
4.520014e-07
-0.0001770872
0.0001764312
-3.783055e-10
2.043064e-07
3.386867e-07
-0.0001742583
0.0001734417
-4.039134e-10
4.78294e-07
1.901744e-07
-0.0001707402
0.0001697461
-4.067684e-10
8.042841e-07
3.74827e-08
-0.0001665494
0.000165415
-3.942912e-10
1.097285e-06
-1.036164e-07
-0.0001618723
0.00016064
-3.79478e-10
1.336339e-06
-2.279052e-07
-0.0001568552
0.000155566
-2.96765e-10
1.517435e-06
-3.280459e-07
-0.0001516509
0.000150336
-3.397358e-10
1.643213e-06
-4.210879e-07
-0.0001463696
0.0001450485
-3.833557e-10
1.742633e-06
-4.932191e-07
-0.0001411228
0.0001398242
-3.010895e-10
1.792156e-06
-5.070654e-07
-0.0001359809
0.0001347232
-2.820509e-10
1.765003e-06
-5.061895e-07
-0.0001310369
0.0001298436
-2.554011e-10
1.699695e-06
-4.846092e-07
-0.000126373
0.0001252594
-2.13437e-10
1.598407e-06
-4.449145e-07
-0.0001220461
0.0001210246
-2.130098e-10
1.466625e-06
-3.888379e-07
-0.0001180996
0.000117179
-1.778703e-10
1.309634e-06
-3.188793e-07
-0.0001145647
0.0001137508
-1.50289e-10
1.133005e-06
-2.375036e-07
-0.0001114596
0.0001107548
-1.288827e-10
9.424285e-07
-1.469689e-07
-0.0001087895
0.000108193
-1.037713e-10
7.435732e-07
-5.239921e-08
-0.0001065489
0.0001060576
-7.787171e-11
5.437337e-07
4.356987e-08
-0.0001047263
0.0001043344
-5.895896e-11
3.484117e-07
1.328185e-07
-0.000103297
0.0001030015
-4.458972e-11
1.62732e-07
2.236848e-07
-0.0001022361
0.0001020275
-2.893744e-11
-1.500623e-08
3.119715e-07
-0.0001015133
0.000101384
-1.388274e-11
-1.826015e-07
3.950777e-07
-0.0001010943
0.0001010344
-3.335184e-12
-3.351764e-07
4.688747e-07
-0.0001009436
0.0001009475
7.833648e-12
-4.728076e-07
5.418981e-07
-0.0001010257
0.0001010816
1.540045e-11
-5.97752e-07
6.06136e-07
-0.0001013088
0.0001014107
2.445258e-11
-7.080393e-07
6.660219e-07
-0.000101768
0.0001019088
3.342612e-11
-8.069131e-07
7.207267e-07
-0.0001023786
0.0001025538
3.768384e-11
-8.959759e-07
7.719011e-07
-0.000103123
0.0001033288
4.560552e-11
-9.777919e-07
8.232679e-07
-0.0001039869
0.0001042207
5.990027e-11
-1.057153e-06
8.801367e-07
-0.0001049489
0.0001052082
1.257559e-10
-1.139564e-06
9.897739e-07
-0.0001060268
0.000106282
2.326156e-10
-1.245229e-06
9.12493e-07
-0.0001063884
0.0004398385
1.863729e-11
-6.095528e-06
2.30777e-08
9.171265e-07
1.747865e-08
-0.0001063906
-0.0001114162
-0.000111418
7.449916e-07
-0.000444403
0.0004474531
7.5837e-12
-6.426445e-06
9.529124e-07
7.342254e-07
9.44278e-07
9.764123e-07
-0.0004503671
0.0004532793
1.0359e-11
-6.917374e-06
1.032731e-06
9.69368e-07
1.026662e-06
1.100283e-06
-0.0004562242
0.0004592349
9.681945e-12
-7.459373e-06
1.128656e-06
1.095419e-06
1.124329e-06
1.19459e-06
-0.0004623208
0.0004655436
7.722163e-12
-8.020518e-06
1.207556e-06
1.191087e-06
1.204527e-06
1.270622e-06
-0.0004688423
0.0004722944
6.110871e-12
-8.54243e-06
1.276548e-06
1.268523e-06
1.274661e-06
1.33392e-06
-0.0004758254
0.000479515
4.645736e-12
-9.032554e-06
1.338878e-06
1.332528e-06
1.337584e-06
1.392995e-06
-0.0004832843
0.0004872109
3.449575e-12
-9.507654e-06
1.398508e-06
1.391984e-06
1.397565e-06
1.451299e-06
-0.0004912142
0.0004953713
2.693315e-12
-9.972813e-06
1.457417e-06
1.450452e-06
1.456594e-06
1.509891e-06
-0.0004996018
0.0005039818
1.952032e-12
-1.043127e-05
1.516529e-06
1.509132e-06
1.515772e-06
1.569061e-06
-0.000508432
0.0005130272
1.131311e-12
-1.088394e-05
1.575989e-06
1.568396e-06
1.575348e-06
1.628683e-06
-0.0005176896
0.0005224914
4.592472e-13
-1.132967e-05
1.635831e-06
1.628083e-06
1.635244e-06
1.68838e-06
-0.0005273572
0.0005323559
-1.489823e-13
-1.176558e-05
1.695619e-06
1.687822e-06
1.695069e-06
1.747537e-06
-0.0005374149
0.000542599
-7.179948e-13
-1.218766e-05
1.754789e-06
1.746985e-06
1.75423e-06
1.805523e-06
-0.0005478392
0.0005531955
-1.219748e-12
-1.259153e-05
1.812686e-06
1.804959e-06
1.812123e-06
1.861674e-06
-0.000558603
0.000564116
-1.666388e-12
-1.297263e-05
1.868672e-06
1.861119e-06
1.868116e-06
1.915316e-06
-0.000569675
0.0005753278
-2.021867e-12
-1.332639e-05
1.922067e-06
1.914753e-06
1.921496e-06
1.965841e-06
-0.0005810205
0.0005867941
-2.29073e-12
-1.364866e-05
1.972262e-06
1.965253e-06
1.971671e-06
2.012689e-06
-0.0005926012
0.0005984755
-2.488853e-12
-1.393592e-05
2.018723e-06
2.012106e-06
2.018141e-06
2.055402e-06
-0.0006043764
0.0006103301
-2.620743e-12
-1.418527e-05
2.060986e-06
2.054815e-06
2.060394e-06
2.093637e-06
-0.0006163034
0.0006223148
-2.712288e-12
-1.439485e-05
2.098735e-06
2.093026e-06
2.098112e-06
2.127167e-06
-0.0006283386
0.0006343859
-2.770275e-12
-1.456386e-05
2.131748e-06
2.126555e-06
2.131135e-06
2.155902e-06
-0.0006404386
0.0006465005
-2.783619e-12
-1.469237e-05
2.159938e-06
2.155304e-06
2.159343e-06
2.179813e-06
-0.000652561
0.0006586169
-2.714001e-12
-1.478087e-05
2.183301e-06
2.179206e-06
2.182708e-06
2.198857e-06
-0.0006646648
0.0006706947
-2.493959e-12
-1.482986e-05
2.201767e-06
2.198218e-06
2.201106e-06
2.2131e-06
-0.0006767104
0.0006826952
-2.112995e-12
-1.484061e-05
2.215484e-06
2.212428e-06
2.214781e-06
2.222941e-06
-0.0006886596
0.0006945815
-1.639146e-12
-1.481605e-05
2.224799e-06
2.222257e-06
2.224118e-06
2.229079e-06
-0.0007004776
0.0007063218
-1.173213e-12
-1.476218e-05
2.23058e-06
2.228417e-06
2.229919e-06
2.232627e-06
-0.000712136
0.0007178921
-8.487046e-13
-1.46878e-05
2.233898e-06
2.231979e-06
2.233248e-06
2.234531e-06
-0.000723616
0.0007292782
-7.477877e-13
-1.460131e-05
2.23568e-06
2.233874e-06
2.23501e-06
2.235071e-06
-0.0007349076
0.0007404725
-8.143567e-13
-1.450584e-05
2.236046e-06
2.234403e-06
2.235373e-06
2.233504e-06
-0.0007460039
0.0007514666
-9.764314e-13
-1.43966e-05
2.234132e-06
2.232846e-06
2.233468e-06
2.228461e-06
-0.0007568937
0.0007622452
-1.117297e-12
-1.426425e-05
2.228591e-06
2.227791e-06
2.227911e-06
2.218856e-06
-0.0007675575
0.0007727856
-1.316341e-12
-1.410116e-05
2.218353e-06
2.218176e-06
2.217665e-06
2.204316e-06
-0.00077797
0.0007830614
-1.423987e-12
-1.390497e-05
2.203169e-06
2.203651e-06
2.202501e-06
2.185151e-06
-0.0007881045
0.0007930468
-1.3956e-12
-1.367822e-05
2.183432e-06
2.184492e-06
2.182766e-06
2.162075e-06
-0.0007979371
0.0008027208
-1.208577e-12
-1.342626e-05
2.159892e-06
2.161411e-06
2.159216e-06
2.135904e-06
-0.0008074494
0.0008120672
-8.696064e-13
-1.315515e-05
2.133382e-06
2.13526e-06
2.132738e-06
2.107395e-06
-0.000816628
0.0008210755
-4.879107e-13
-1.287027e-05
2.104632e-06
2.106794e-06
2.10404e-06
2.077125e-06
-0.0008254645
0.0008297383
-1.863035e-13
-1.25753e-05
2.074199e-06
2.076536e-06
2.073627e-06
2.04507e-06
-0.0008339531
0.0008380517
-6.730258e-14
-1.22715e-05
2.042001e-06
2.044466e-06
2.041373e-06
2.010777e-06
-0.0008420909
0.0008460121
-1.229877e-13
-1.195681e-05
2.00767e-06
2.010156e-06
2.007018e-06
1.972898e-06
-0.0008498724
0.0008536106
-3.564555e-13
-1.162226e-05
1.969769e-06
1.972284e-06
1.96916e-06
1.925851e-06
-0.0008572832
0.0008608283
-5.72224e-13
-1.123898e-05
1.921652e-06
1.925281e-06
1.921085e-06
1.845545e-06
-0.0008643104
0.0008677043
-7.523853e-13
-1.07455e-05
1.830813e-06
1.844987e-06
1.830246e-06
1.689872e-06
-0.0008711206
0.0008745357
-8.703734e-13
-1.00881e-05
1.647219e-06
1.689305e-06
1.646613e-06
1.523723e-06
-0.0008779766
0.0008813261
-9.202063e-13
-9.412499e-06
1.508273e-06
1.523234e-06
1.507778e-06
1.467263e-06
-0.0008846066
0.0008877739
-9.235093e-13
-9.03185e-06
1.465467e-06
1.466805e-06
1.465003e-06
1.426542e-06
-0.0008908882
0.0008939038
-6.546301e-13
-8.713204e-06
1.422732e-06
1.426085e-06
1.422265e-06
1.38641e-06
-0.0008968671
0.000899735
1.213982e-13
-8.407557e-06
1.383876e-06
1.385968e-06
1.383436e-06
1.352094e-06
-0.000902551
0.0009052715
2.307148e-12
-8.127969e-06
1.352061e-06
1.351665e-06
1.351641e-06
1.320737e-06
-0.0009079283
0.0009105004
1.625354e-11
-7.860995e-06
1.324173e-06
1.320291e-06
1.323716e-06
1.274934e-06
-0.0009130491
0.0009155302
-3.809441e-11
-7.567587e-06
1.267856e-06
1.275571e-06
1.268173e-06
1.1458e-06
-0.0009179329
0.0009209813
4.580596e-12
-7.674878e-06
1.167732e-06
1.144966e-06
1.16795e-06
1.198341e-06
-0.0009241157
0.0009256327
2.403477e-12
-6.253721e-06
1.166955e-06
1.202002e-06
1.169369e-06
1.129288e-06
-0.0009272412
0.0009293463
4.410765e-13
-6.408353e-06
1.017817e-06
1.133629e-06
1.022574e-06
1.044524e-06
-0.000931523
0.0009336529
7.346017e-13
-6.240173e-06
1.005982e-06
1.04943e-06
1.010324e-06
1.013817e-06
-0.0009357283
0.0009377979
4.745622e-13
-6.081059e-06
9.88337e-07
1.017529e-06
9.918115e-07
9.93061e-07
-0.0009398316
0.0009418217
5.003975e-13
-5.943642e-06
9.807019e-07
9.961591e-07
9.835783e-07
9.835881e-07
-0.0009437634
0.0009456487
4.324555e-13
-5.813662e-06
9.778389e-07
9.863621e-07
9.805099e-07
9.766705e-07
-0.0009474916
0.0009492805
5.95677e-13
-5.693915e-06
9.738597e-07
9.787407e-07
9.757411e-07
9.705799e-07
-0.0009510278
0.0009527237
7.953231e-13
-5.575966e-06
9.681076e-07
9.719731e-07
9.69396e-07
9.614107e-07
-0.0009543876
0.0009560032
8.127242e-13
-5.460686e-06
9.598333e-07
9.626839e-07
9.611087e-07
9.52317e-07
-0.0009575898
0.0009591315
8.34074e-13
-5.352067e-06
9.515867e-07
9.536069e-07
9.528633e-07
9.440831e-07
-0.000960646
0.0009621185
8.085037e-13
-5.249869e-06
9.434767e-07
9.452352e-07
9.445985e-07
9.354927e-07
-0.0009635661
0.0009649747
7.609301e-13
-5.150934e-06
9.347376e-07
9.364334e-07
9.356492e-07
9.26164e-07
-0.0009663607
0.0009677107
7.785407e-13
-5.054227e-06
9.252134e-07
9.26937e-07
9.25959e-07
9.159688e-07
-0.0009690402
0.0009703363
8.111421e-13
-4.958974e-06
9.148006e-07
9.16616e-07
9.154242e-07
9.049016e-07
-0.0009716139
0.0009728607
7.918515e-13