/*--------------------------------*- C++ -*----------------------------------*\
| =========                 |                                                 |
| \\      /  F ield         | foam-extend: Open Source CFD                    |
|  \\    /   O peration     | Version:     3.1                                |
|   \\  /    A nd           | Web:         http://www.extend-project.de       |
|    \\/     M anipulation  |                                                 |
\*---------------------------------------------------------------------------*/
FoamFile
{
    version     2.0;
    format      ascii;
    class       volScalarField;
    location    "18";
    object      k;
}
// * * * * * * * * * * * * * * * * * * * * * * * * * * * * * * * * * * * * * //

dimensions      [0 2 -2 0 0 0 0];

internalField   nonuniform List<scalar> 
119952
(
0.04002418
0.03781584
0.03746756
0.03703573
0.03646713
0.03585382
0.03562822
0.03554651
0.03548133
0.03537403
0.03520487
0.03496792
0.03467715
0.03435661
0.03403175
0.03372256
0.03343745
0.03318087
0.03297928
0.03297315
0.03393013
0.03277503
0.0326734
0.03369096
0.03238836
0.03177006
0.03124781
0.03075351
0.0296691
0.009022192
0.0643304
0.06314533
0.06272307
0.06317821
0.06426895
0.06565911
0.06706817
0.06826934
0.06908899
0.06950324
0.06544608
0.06457597
0.06509155
0.06616991
0.06738608
0.0685282
0.06948822
0.07022183
0.07071509
0.07729317
0.07701898
0.07657495
0.07601326
0.0754324
0.07489988
0.07444166
0.07406393
0.07375796
0.07357392
0.07366966
0.07366872
0.07373126
0.07390419
0.07421068
0.07465253
0.07522106
0.07587611
0.07672366
0.07872146
0.07924195
0.07943519
0.07984821
0.0801292
0.08002685
0.07951294
0.07870553
0.07772344
0.07659285
0.07533926
0.073993
0.07258853
0.0711625
0.0697505
0.0683828
0.06708204
0.06586419
0.06474322
0.0637393
0.06296984
0.06229364
0.06163135
0.06130566
0.06124403
0.0609562
0.06049832
0.06001699
0.05941052
0.05787011
0.0565663
0.05543844
0.05442857
0.05351003
0.05265124
0.05183996
0.05106725
0.05032825
0.04962178
0.04894923
0.04831315
0.04771573
0.04715852
0.04664289
0.04617108
0.04574649
0.04537397
0.04505813
0.04480374
0.04461564
0.04449518
0.04444092
0.04444725
0.04450415
0.04459821
0.04471363
0.04483215
0.04493344
0.04499653
0.04500419
0.04493487
0.04476569
0.04447802
0.04405614
0.04348807
0.04276755
0.04189815
0.04089935
0.03981453
0.03872211
0.037739
0.03696942
0.03643379
0.03606939
0.03578628
0.03551285
0.03521077
0.03486657
0.03448564
0.03408723
0.03371005
0.03333791
0.0329793
0.03264223
0.03233821
0.03207522
0.03185646
0.03168442
0.03156314
0.03149746
0.03148418
0.03151688
0.0315844
0.03167056
0.0317543
0.03181547
0.03183029
0.03176522
0.03158939
0.03127924
0.03082886
0.03026257
0.02964016
0.02904313
0.02854051
0.02815606
0.02786588
0.02762464
0.02739327
0.02714969
0.02688645
0.02660468
0.02630997
0.02601012
0.02571328
0.0254262
0.02515265
0.02489291
0.02464451
0.02440371
0.02416709
0.02393254
0.02369981
0.02347059
0.0232477
0.02303465
0.02283427
0.02264837
0.02248313
0.02246558
0.02249148
0.02241301
0.02226245
0.02207193
0.0218756
0.02168648
0.02150798
0.02133959
0.02117963
0.02102683
0.02088175
0.02074476
0.02061399
0.02048893
0.0203687
0.02024986
0.02012974
0.02000687
0.01988168
0.01975588
0.01963224
0.01951442
0.01940646
0.01931181
0.01923258
0.01916913
0.01912061
0.01908467
0.0190581
0.01903761
0.01902051
0.01900496
0.01898912
0.01896442
0.01887233
0.01890672
0.01895434
0.01898909
0.01900922
0.01901542
0.01900888
0.01899069
0.01896177
0.01892259
0.01887263
0.01881392
0.0187517
0.01868349
0.01861206
0.01854132
0.01847511
0.01841633
0.0183638
0.01831415
0.01826681
0.01821876
0.01816643
0.01810743
0.0180417
0.0179712
0.01789865
0.01782639
0.01775499
0.01767933
0.01760029
0.01751716
0.01742878
0.01733548
0.01723772
0.0171172
0.01708122
0.01697639
0.01680657
0.01661546
0.01641959
0.01623412
0.01606654
0.01591965
0.0157943
0.01569049
0.01560817
0.01554681
0.01550497
0.01548015
0.0154693
0.01546945
0.01547851
0.01549553
0.01552014
0.01555163
0.01558852
0.01562873
0.0156701
0.015711
0.01575009
0.01578626
0.01581818
0.01584459
0.01586431
0.01587668
0.01588129
0.01587793
0.01586637
0.01584645
0.01581813
0.01578159
0.01573731
0.01568597
0.01562845
0.01556603
0.0155004
0.01543186
0.01536191
0.015293
0.01522588
0.01515458
0.01508202
0.01500901
0.01493694
0.01486503
0.01479214
0.01471697
0.01465734
0.01464006
0.01454123
0.01443668
0.01432689
0.01421091
0.01408998
0.01396627
0.0138424
0.01372093
0.01360413
0.01349385
0.01339132
0.01329712
0.01321134
0.01313384
0.0130642
0.01300243
0.01294952
0.01290663
0.01287563
0.0128601
0.01286605
0.01290147
0.0129739
0.01308697
0.01323843
0.01342013
0.01362056
0.0138289
0.01403762
0.01424186
0.01443703
0.01461714
0.01477484
0.0149022
0.01499124
0.01503431
0.01502477
0.0149576
0.01482963
0.01464092
0.01439622
0.01410394
0.0137747
0.01342079
0.01305486
0.01268993
0.01233685
0.01200369
0.01169595
0.01141733
0.01116885
0.01094888
0.01075561
0.01058734
0.01044157
0.0103161
0.01020931
0.01011991
0.01004687
0.009989144
0.009945572
0.00991505
0.009896745
0.009890069
0.009894509
0.009909492
0.009934292
0.009968021
0.01000965
0.01005804
0.01011196
0.01017014
0.01023124
0.01029392
0.01035687
0.01041874
0.01047831
0.01053423
0.01058508
0.01062804
0.01065802
0.01066129
0.01064322
0.01083731
0.09798026
0.09120807
0.08884302
0.08881995
0.09002454
0.09172912
0.09347274
0.09503979
0.09643793
0.09579594
0.09768079
0.1021541
0.1073575
0.1124034
0.1169817
0.120915
0.1241611
0.1267513
0.1437229
0.1438856
0.1437209
0.1431232
0.1422814
0.1412957
0.1402352
0.1391854
0.1381856
0.1371918
0.1365399
0.1357649
0.1349526
0.1343469
0.1341386
0.1344799
0.1354018
0.1369171
0.1390141
0.1417605
0.1448419
0.1478973
0.1507106
0.1531232
0.1550194
0.1563021
0.1568415
0.1565111
0.1552994
0.1532939
0.1506886
0.1477766
0.1447579
0.1417576
0.1388552
0.1360698
0.133403
0.1308532
0.1390432
0.1365795
0.1342847
0.1321649
0.1301575
0.1282166
0.1263184
0.1244677
0.1226873
0.1210233
0.1195354
0.1182664
0.1172456
0.1164909
0.1160063
0.1157802
0.1157843
0.1159966
0.1163898
0.1167912
0.1170617
0.1172751
0.1173953
0.1172943
0.1169198
0.1163038
0.1155059
0.1145292
0.1133847
0.1120878
0.1106596
0.1091272
0.1075238
0.1058869
0.1042567
0.1026745
0.1011809
0.09981231
0.09859315
0.097523
0.09657229
0.09574244
0.09495317
0.0940992
0.09312163
0.09203484
0.09080955
0.08946793
0.08814976
0.08692641
0.08572184
0.08454942
0.08340091
0.08227789
0.08118622
0.08013199
0.07912158
0.0781616
0.07725866
0.07641899
0.07564841
0.07495233
0.07433593
0.07380445
0.07336338
0.07301825
0.07277418
0.07263444
0.07259857
0.07266102
0.07281046
0.07303043
0.07330051
0.07359688
0.07389218
0.07415625
0.07435867
0.0744701
0.07446074
0.07430161
0.07396742
0.07344009
0.07271217
0.0717897
0.07069185
0.06944706
0.06808928
0.06665774
0.06519372
0.06372905
0.06227831
0.06084451
0.05942911
0.05803775
0.05668155
0.05537584
0.05413811
0.05298669
0.05193663
0.05099789
0.05018212
0.04949915
0.04895418
0.04854881
0.0482823
0.04815208
0.04815397
0.04828152
0.04852423
0.04886577
0.04928338
0.04974917
0.05023264
0.05070288
0.05112843
0.05147871
0.0517268
0.05185256
0.05184576
0.05170844
0.05145624
0.05111611
0.05071859
0.05028798
0.04983712
0.04936948
0.04888362
0.04837548
0.04783975
0.04727063
0.04666311
0.04601426
0.04532417
0.04459632
0.04383753
0.0430575
0.04226799
0.04148194
0.04071248
0.03997225
0.03927254
0.03862325
0.038032
0.03750497
0.03704578
0.03665713
0.03633924
0.03609144
0.03516566
0.03412701
0.03348446
0.03309583
0.03287121
0.03275127
0.03269587
0.03267777
0.03267911
0.03268922
0.03270255
0.0327163
0.03272793
0.03273318
0.0327254
0.03269638
0.03263777
0.03254257
0.03240593
0.03222528
0.03200047
0.03173385
0.03142998
0.0310952
0.03073685
0.03036251
0.02997949
0.02959408
0.02921113
0.02883421
0.02846594
0.02810827
0.02776307
0.02743316
0.02712358
0.02684372
0.02660358
0.02638752
0.02618748
0.02600071
0.02582443
0.02565779
0.02550095
0.02535429
0.02521854
0.02509453
0.02498306
0.02488538
0.02480435
0.02473869
0.02468612
0.02464453
0.02460907
0.02457339
0.02453162
0.02447948
0.02441508
0.02433918
0.02425415
0.02416233
0.02406432
0.0239586
0.02384247
0.02371367
0.02357138
0.02341668
0.02325263
0.02308334
0.02291287
0.02274402
0.02445324
0.02428434
0.02413127
0.02399407
0.02386996
0.02375739
0.02365504
0.02356183
0.02347754
0.02340301
0.02333967
0.0232886
0.02324971
0.02322181
0.02320331
0.02319329
0.02319201
0.02320045
0.02321914
0.02324713
0.02328176
0.02331939
0.0233564
0.02338983
0.02341736
0.02343703
0.02344718
0.02344653
0.02343429
0.02341026
0.02337464
0.02332771
0.02326968
0.0232008
0.02312146
0.02303233
0.02293432
0.02282858
0.02271643
0.02259919
0.02247804
0.02235388
0.02222725
0.02209824
0.0219664
0.02183067
0.02168976
0.021543
0.02138962
0.0212294
0.02106317
0.02089358
0.02071954
0.02054316
0.02036705
0.02018865
0.0200085
0.01982931
0.01965331
0.01948144
0.01931386
0.01915017
0.01898962
0.01883126
0.01867393
0.0185164
0.01835741
0.01819582
0.01803054
0.01786063
0.01768519
0.01750336
0.0173144
0.01711783
0.01691363
0.01670228
0.01648486
0.01626298
0.01603868
0.01581409
0.01559124
0.01537217
0.01515958
0.01495759
0.01477213
0.01461096
0.01448312
0.01439784
0.01436284
0.01438249
0.01445621
0.01457779
0.01473549
0.01491295
0.01509041
0.01524636
0.01536026
0.01541998
0.01542254
0.01536914
0.01526384
0.01511309
0.01492777
0.01471895
0.01449682
0.01427007
0.01404538
0.01382751
0.01362043
0.01342825
0.01325398
0.01309963
0.01296641
0.01285377
0.01276088
0.01268706
0.0126317
0.01259404
0.01257314
0.01256793
0.01257722
0.0125997
0.01263392
0.0126783
0.01273123
0.01279097
0.01285589
0.01292415
0.01299416
0.013064
0.01313222
0.01319663
0.01325575
0.01330634
0.01334653
0.01337294
0.01339493
0.01343488
0.01349551
0.06586513
0.07418016
0.08339265
0.09340698
0.1037402
0.1132857
0.122691
0.1322421
0.1424012
0.159623
0.2502086
0.2717451
0.2823849
0.2904441
0.2971492
0.3025196
0.3066872
0.3098262
0.3118121
0.3520667
0.3530329
0.3534274
0.3536224
0.3533358
0.3522961
0.3504457
0.3478704
0.3447291
0.3411476
0.3371621
0.3326138
0.3279009
0.323271
0.3187253
0.3142145
0.3097309
0.3052779
0.3009209
0.2962613
0.2912411
0.2861673
0.2814235
0.2770954
0.2730661
0.2691808
0.2653584
0.2616583
0.2582632
0.2551358
0.252255
0.2494848
0.2467736
0.2442108
0.2418161
0.2395019
0.2371475
0.2503119
0.2473532
0.2444023
0.2414329
0.2383681
0.2351766
0.2318793
0.2285225
0.2251534
0.2217976
0.2185086
0.2154025
0.2126093
0.2102794
0.2085598
0.2075735
0.2074112
0.2081706
0.2099059
0.2124738
0.2154959
0.2185044
0.2211073
0.2230982
0.2243644
0.2247412
0.2240591
0.2222717
0.2195435
0.2161941
0.2125978
0.2090068
0.2053985
0.2017625
0.1981429
0.1945791
0.1910906
0.1877239
0.1842943
0.1809839
0.1777442
0.1745356
0.1713735
0.1682801
0.1653055
0.1624585
0.1597473
0.1572084
0.1548868
0.152828
0.1510726
0.1496506
0.1485738
0.1478315
0.1473895
0.1471948
0.147164
0.1471832
0.1471632
0.1470452
0.1467659
0.1462642
0.145528
0.1446176
0.1435295
0.1422756
0.1408682
0.1393232
0.1376631
0.1359173
0.1341215
0.1323161
0.130545
0.1288522
0.1272789
0.1258561
0.1245966
0.1234808
0.1224542
0.1214761
0.1204621
0.1193135
0.1180038
0.1165636
0.1150001
0.1133599
0.1117439
0.1101856
0.1086544
0.1071359
0.1056502
0.1042163
0.102848
0.1015572
0.1003543
0.09924885
0.09824867
0.09736001
0.09658764
0.09593449
0.09540148
0.09498801
0.09469327
0.09451775
0.09446312
0.09452854
0.09470559
0.09497615
0.09531539
0.09569633
0.09609197
0.09647366
0.09680795
0.0970579
0.09718889
0.09717026
0.09696989
0.09655527
0.09590084
0.0949941
0.09384363
0.09248513
0.09097643
0.08937917
0.08773988
0.08608456
0.08442234
0.08274995
0.08105795
0.07933954
0.07759751
0.07584601
0.07410803
0.0724111
0.07078445
0.06925708
0.06785483
0.06659736
0.0655006
0.06457638
0.06383223
0.06327293
0.06290113
0.06271756
0.06271805
0.06288843
0.06320262
0.06362512
0.06411624
0.06463752
0.06515481
0.0656383
0.06606079
0.06639912
0.06663919
0.06677996
0.06683059
0.06680208
0.06670091
0.06652994
0.06629012
0.0659803
0.06559812
0.0651423
0.06461349
0.0640136
0.06334577
0.06261392
0.06182251
0.06097683
0.06008325
0.05914956
0.0581854
0.05720235
0.05621347
0.05523252
0.05427344
0.05335022
0.05247607
0.05166334
0.05092164
0.05025932
0.04968005
0.04918717
0.04877642
0.04844183
0.04809939
0.04786373
0.04770567
0.04760184
0.04753394
0.04748822
0.04745545
0.04743118
0.04741495
0.0474079
0.04740961
0.04741603
0.04741989
0.04741209
0.04738317
0.04732505
0.04723181
0.04709984
0.04692765
0.04671572
0.04646638
0.04618327
0.04587058
0.04553241
0.04517258
0.04479452
0.04440119
0.04399497
0.04357797
0.0431524
0.04272109
0.04228791
0.041858
0.0414374
0.04103211
0.04064518
0.04027347
0.03991336
0.0395651
0.03922978
0.03890901
0.03860481
0.03831907
0.03805329
0.03780852
0.03758507
0.03738199
0.03719663
0.0370248
0.03686104
0.03669894
0.036534
0.03636507
0.03619185
0.03601452
0.03583185
0.03564495
0.0354555
0.0352635
0.03506633
0.03485971
0.03463968
0.03440394
0.03415251
0.03388804
0.03361551
0.03334069
0.0330685
0.03280301
0.0325519
0.03229627
0.03205726
0.03183762
0.03163474
0.03144359
0.03126082
0.03108554
0.03091837
0.03076134
0.03061758
0.03049003
0.03037962
0.03028513
0.03020466
0.03013723
0.03008368
0.03004624
0.03002652
0.0300234
0.03003258
0.03004793
0.03006344
0.03007464
0.03007866
0.0300735
0.03005737
0.03002893
0.02998759
0.02993351
0.02986747
0.02979023
0.02970206
0.02960286
0.02949258
0.02937148
0.02924018
0.02909964
0.02895111
0.02879598
0.0286355
0.02847059
0.02830176
0.02812898
0.02795177
0.02776922
0.02758009
0.02738298
0.02717667
0.02696027
0.02673393
0.02649944
0.02625724
0.02600965
0.02575967
0.02550773
0.02525821
0.0250141
0.02477728
0.02454858
0.02432787
0.02411407
0.02390557
0.0237005
0.02349697
0.02329323
0.02308792
0.02288022
0.02266955
0.02245522
0.02223608
0.02201065
0.02177736
0.02153481
0.02128172
0.02101686
0.02073919
0.02044795
0.02014281
0.01982376
0.01949089
0.0191444
0.01878472
0.01841282
0.01803058
0.0176412
0.01724952
0.01686218
0.01648745
0.01613483
0.01581439
0.01553601
0.01530829
0.01513753
0.01502659
0.01497404
0.01497377
0.01501542
0.01508595
0.01517133
0.01525781
0.01533324
0.01538843
0.01541766
0.01541859
0.01539163
0.01533923
0.01526525
0.01517452
0.01507226
0.01496335
0.014852
0.0147416
0.01463492
0.01453548
0.01444631
0.01436962
0.01430691
0.01425926
0.01422703
0.01420981
0.0142069
0.01421738
0.01424013
0.01427385
0.01431702
0.01436806
0.01442521
0.01448683
0.01455101
0.01461614
0.01468014
0.0147415
0.01479775
0.01484772
0.01488894
0.01492282
0.01495021
0.0149797
0.01501223
0.04795332
0.05644543
0.06437393
0.1049343
0.1434707
0.1925087
0.2232212
0.2535562
0.2818284
0.3090768
0.3345309
0.3565311
0.3763631
0.3947581
0.4117263
0.4278619
0.4431224
0.4567763
0.4683693
0.4778489
0.4844226
0.490215
0.4957429
0.4999834
0.5033537
0.50601
0.5081328
0.509827
0.5111228
0.5119261
0.5116113
0.5290691
0.5289875
0.526973
0.5231006
0.5177314
0.5112284
0.5038986
0.4960292
0.4878912
0.4796407
0.4713868
0.4632877
0.4554109
0.4477026
0.4400247
0.4322886
0.4245577
0.416967
0.409471
0.4018839
0.3942533
0.3868798
0.3800314
0.3737144
0.3677531
0.3619094
0.3560611
0.3503474
0.3450261
0.3401944
0.3357229
0.3314898
0.3275446
0.3239219
0.3205236
0.3171666
0.3136682
0.3098006
0.3057997
0.3017906
0.297797
0.2937988
0.2898306
0.2858276
0.2817831
0.2777244
0.273676
0.2696689
0.2657645
0.2621769
0.2592405
0.2571476
0.2560581
0.2561387
0.2575799
0.2604345
0.2643572
0.2686202
0.2724916
0.2755563
0.2777057
0.2788273
0.2786344
0.276862
0.2735683
0.2692379
0.2645916
0.2599493
0.2551702
0.2503499
0.2455701
0.2408962
0.2363881
0.2320582
0.2279328
0.2239636
0.2201336
0.2164178
0.2127818
0.2091981
0.2056516
0.2021191
0.1986484
0.1953015
0.1921353
0.1892289
0.1866456
0.1844328
0.1826311
0.1812537
0.1802801
0.1796608
0.1793113
0.1791026
0.1788984
0.1786054
0.1781317
0.177403
0.1764053
0.1751904
0.17386
0.1723684
0.1707285
0.1689527
0.1670606
0.165081
0.1630488
0.1610037
0.1589896
0.1570527
0.1552372
0.1535824
0.1521122
0.1508195
0.149656
0.1485391
0.1473829
0.1461024
0.1446389
0.1429906
0.141196
0.1392871
0.1373099
0.1353335
0.1333821
0.1314405
0.129519
0.1276639
0.1259079
0.1242722
0.1227718
0.1214198
0.1202282
0.1192053
0.1183554
0.1176799
0.1171753
0.1168323
0.1166363
0.1165726
0.1166327
0.1168159
0.1171197
0.1175252
0.1179917
0.1184723
0.1189323
0.1193454
0.1196874
0.1199265
0.1200219
0.1199348
0.1196359
0.1190978
0.1182856
0.117174
0.1157566
0.1140637
0.1121755
0.1102037
0.108247
0.1063487
0.1044941
0.1026422
0.1007573
0.09882277
0.09683931
0.09482099
0.09279314
0.09078894
0.08884432
0.08699489
0.08527311
0.08370525
0.0823094
0.08109423
0.08006375
0.07922416
0.07858492
0.07815833
0.07795801
0.07798495
0.07821198
0.07858595
0.07904343
0.07952711
0.07999545
0.0804217
0.08078855
0.08108219
0.08129306
0.08142682
0.08150847
0.08156766
0.08161284
0.08162144
0.08155736
0.08139161
0.08110795
0.08070004
0.0801687
0.07951985
0.07876367
0.07791356
0.07698427
0.07599043
0.07494589
0.07386309
0.07275291
0.07162589
0.07049343
0.06936757
0.06826035
0.06718401
0.06615173
0.06517716
0.06427332
0.06345032
0.0627154
0.06207174
0.06151943
0.06105396
0.06066748
0.06034409
0.06007359
0.05984531
0.05964627
0.05946382
0.05928856
0.05911652
0.05895097
0.05880058
0.05867341
0.05857021
0.05848261
0.05839735
0.0583001
0.05817891
0.05802573
0.05783615
0.05760915
0.0573463
0.05705132
0.0567294
0.05638607
0.05602585
0.05565159
0.05526469
0.0548656
0.054454
0.05402898
0.0535895
0.05313525
0.05266754
0.05218996
0.05170819
0.05122927
0.05075946
0.05030207
0.04985579
0.04941802
0.04898954
0.0485739
0.04817545
0.04779833
0.0474455
0.04711847
0.04681769
0.0465427
0.04629117
0.04605822
0.04583681
0.04561918
0.04539809
0.04516776
0.04492455
0.04466726
0.04439828
0.04412508
0.04385399
0.04358706
0.04332039
0.04304608
0.04275714
0.04245084
0.04212722
0.04178848
0.04144082
0.04109381
0.04075546
0.04042992
0.04011933
0.03982632
0.03955045
0.03929091
0.03904441
0.0388055
0.03856928
0.03833311
0.03809718
0.0378647
0.03764153
0.03743484
0.03724923
0.03708418
0.03693594
0.03680162
0.03668181
0.03658091
0.03650461
0.03645505
0.03642769
0.03641269
0.03639913
0.03637889
0.03634793
0.036305
0.03624949
0.03618044
0.03609741
0.03600129
0.03589403
0.03577786
0.03565392
0.03552186
0.03538068
0.03522967
0.03506879
0.03489847
0.03471963
0.03453359
0.03434178
0.03414529
0.03394459
0.03373945
0.03352903
0.033312
0.03308667
0.032851
0.032603
0.03234108
0.03206444
0.03177364
0.03147081
0.03115862
0.03084226
0.03052715
0.03021833
0.02992031
0.02963521
0.02936291
0.02910199
0.0288503
0.02860527
0.02836428
0.02812484
0.0278847
0.02764209
0.02739624
0.02714753
0.02689684
0.02664433
0.02638854
0.02612674
0.02585625
0.0255751
0.02528162
0.02497406
0.02465094
0.02431121
0.02395427
0.02357993
0.02318818
0.02277893
0.02235203
0.02190735
0.02144503
0.02096575
0.02047118
0.0199641
0.01944868
0.01893057
0.01841697
0.01791646
0.01743861
0.01699334
0.01659014
0.01623711
0.01594018
0.01570267
0.01552484
0.01540389
0.01533428
0.01530836
0.01531706
0.01535061
0.01539938
0.01545461
0.01550888
0.0155565
0.01559372
0.01561859
0.01563069
0.0156307
0.01562011
0.015601
0.01557594
0.01554779
0.01551937
0.01549323
0.01547138
0.01545575
0.01544794
0.01544889
0.01545901
0.01547839
0.01550701
0.01554408
0.01558854
0.01563905
0.01569424
0.0157525
0.01581235
0.015872
0.01593002
0.01598449
0.01603449
0.01607841
0.01611683
0.01614959
0.0161802
0.01620832
0.0250128
0.02828944
0.03156714
0.04353866
0.05864614
0.08457018
0.1021912
0.1204687
0.1396829
0.1589648
0.1787213
0.2000378
0.2227479
0.2457936
0.2693979
0.2953304
0.3357048
0.3549837
0.3742978
0.3929593
0.4110214
0.4288032
0.4454914
0.4600957
0.4722847
0.4822512
0.4898415
0.4954024
0.4979989
0.4987272
0.498523
0.4981809
0.498547
0.4999219
0.5026597
0.5069154
0.5128077
0.5200703
0.528318
0.5369549
0.5454469
0.5530941
0.5582739
0.5620397
0.563576
0.5626119
0.5596553
0.5551426
0.5494499
0.5429624
0.5360571
0.5290055
0.5219587
0.5150608
0.5083846
0.50181
0.495088
0.4880741
0.4808884
0.473723
0.4665196
0.459081
0.4514738
0.4441628
0.437565
0.4315809
0.4258365
0.4199725
0.4139419
0.4080892
0.4028008
0.3981284
0.3938301
0.389794
0.3861364
0.3828437
0.3796089
0.3760875
0.3719931
0.3673964
0.362604
0.3578905
0.3533073
0.3487817
0.3441305
0.3393279
0.3344229
0.329529
0.3247797
0.3203081
0.3162352
0.3126222
0.3096373
0.3079028
0.3076396
0.3091737
0.3128955
0.3187657
0.3258415
0.3326685
0.3381669
0.3420719
0.3446376
0.3457663
0.3448253
0.3412656
0.3353393
0.3282954
0.3213852
0.3144682
0.3075931
0.3008158
0.2942127
0.2878883
0.2819376
0.2763866
0.27121
0.2663309
0.2616711
0.25716
0.2527334
0.2483518
0.2440168
0.2397724
0.2356908
0.2318367
0.2282484
0.2249378
0.2219686
0.2194414
0.2174517
0.2160295
0.2151261
0.2146605
0.2144877
0.2143772
0.214122
0.2136043
0.2127059
0.2113795
0.2097108
0.2078979
0.2059454
0.2038434
0.2015976
0.1992221
0.196751
0.1942309
0.1917085
0.1892294
0.1868435
0.1846008
0.182549
0.1807301
0.1791614
0.1778074
0.1765734
0.1753245
0.1739266
0.1722853
0.1703779
0.168248
0.1659622
0.1635714
0.1611161
0.1586407
0.1561728
0.1537353
0.1513693
0.1491364
0.1470806
0.1452268
0.1435889
0.1421793
0.1410111
0.1400918
0.1394218
0.1389936
0.1387895
0.1387772
0.1389136
0.1391587
0.1394915
0.1399171
0.1404456
0.1410563
0.1416849
0.1422519
0.142704
0.1430215
0.1431973
0.1432075
0.1430054
0.1425451
0.1417998
0.140747
0.1393546
0.1376012
0.1355033
0.1331306
0.1306138
0.1281236
0.1257963
0.1236531
0.1216059
0.1195492
0.1174269
0.1152322
0.1129875
0.1107219
0.1084721
0.1062817
0.1041951
0.1022511
0.1004808
0.0989062
0.09753372
0.09635242
0.09534861
0.09452211
0.09388787
0.09347874
0.09333848
0.09347351
0.09382458
0.09428828
0.09476346
0.09517872
0.09550054
0.09572588
0.09586847
0.09594149
0.09595208
0.09592428
0.09591004
0.09595716
0.09605817
0.09614005
0.09611437
0.09592671
0.09556027
0.09501861
0.09431433
0.09346433
0.09248929
0.09141348
0.09026148
0.08905671
0.08782046
0.08656936
0.08531401
0.08406195
0.08282148
0.08160163
0.08041128
0.07926026
0.07816143
0.07713028
0.07618137
0.07532473
0.07456509
0.07390301
0.0733344
0.07284993
0.07243633
0.07207728
0.07175618
0.07145717
0.07116527
0.07086885
0.07056289
0.07024585
0.0699314
0.06964396
0.06939828
0.06919259
0.06900896
0.06882537
0.0686237
0.06839269
0.06812559
0.06782085
0.06748104
0.06711185
0.06672136
0.06631831
0.06590996
0.06550029
0.06508961
0.06467581
0.06425589
0.06382617
0.06338203
0.06291855
0.06243209
0.06192222
0.06139271
0.06085081
0.06030619
0.0597678
0.0592398
0.05872099
0.05820957
0.057708
0.05722247
0.05675997
0.05632604
0.05592344
0.05555214
0.05521067
0.05489688
0.05460653
0.05433151
0.05406076
0.05378323
0.05349068
0.05317856
0.05284576
0.05249452
0.05213131
0.05176684
0.05141239
0.05107298
0.05074181
0.05040278
0.0500411
0.04965157
0.04923915
0.04881437
0.04838962
0.0479772
0.04758691
0.04722406
0.04688885
0.04657882
0.0462897
0.04601505
0.0457475
0.045481
0.04520637
0.04491926
0.04462225
0.04432334
0.04403341
0.04376622
0.04352829
0.04331444
0.04311591
0.04292865
0.04275636
0.04260912
0.0424976
0.04242334
0.04237498
0.04233435
0.04228491
0.04221749
0.04213038
0.04202573
0.04190531
0.04176944
0.0416191
0.0414578
0.04129032
0.04111998
0.04094749
0.04077116
0.0405885
0.04039789
0.04019884
0.03999147
0.03977662
0.03955587
0.03933088
0.0391026
0.03887086
0.03863442
0.03839129
0.03813913
0.03787526
0.03759674
0.03730088
0.03698575
0.03665054
0.03629638
0.03592702
0.03554902
0.0351711
0.0348017
0.03444722
0.03411154
0.03379568
0.0334982
0.03321577
0.03294401
0.03267827
0.03241448
0.03214944
0.03188064
0.03160641
0.03132674
0.03104367
0.03076031
0.03047821
0.0301952
0.02990614
0.02960643
0.02929377
0.02896655
0.0286227
0.02826058
0.02787966
0.02747997
0.0270623
0.02662774
0.02617711
0.02571045
0.02522701
0.0247256
0.02420513
0.02366504
0.02310563
0.02252829
0.02193565
0.02133185
0.02072258
0.02011489
0.01951683
0.01893691
0.01838369
0.01786535
0.01738935
0.0169622
0.01658903
0.01627329
0.01601654
0.01581832
0.01567585
0.01558457
0.0155384
0.01553003
0.01555151
0.01559486
0.01565266
0.01571841
0.0157867
0.01585335
0.01591538
0.01597109
0.01601989
0.01606218
0.01609907
0.01613212
0.01616305
0.01619364
0.0162255
0.01625993
0.01629769
0.01633898
0.01638414
0.0164334
0.0164866
0.01654306
0.01660179
0.0166618
0.01672181
0.0167808
0.01683734
0.01689079
0.01693991
0.01698491
0.0170254
0.01706258
0.01709559
0.011599
0.01339326
0.01483071
0.02220774
0.03067406
0.04183453
0.05075742
0.06071168
0.07129307
0.08243336
0.09441131
0.1083744
0.1234225
0.1399159
0.1592637
0.188992
0.205013
0.2218174
0.2389697
0.2564224
0.2741771
0.2921915
0.3102765
0.3282785
0.3460307
0.3630559
0.3788933
0.3949934
0.4096021
0.4230429
0.4358185
0.4474737
0.4575091
0.4649889
0.4696142
0.4710388
0.4696583
0.4663976
0.4618607
0.4571025
0.4530328
0.4505048
0.450301
0.4531008
0.4594146
0.4692617
0.4824757
0.4981794
0.5154176
0.5329219
0.5495746
0.5643551
0.5757484
0.5844507
0.5904895
0.5939196
0.5950846
0.5944518
0.5925401
0.5898664
0.5869843
0.5841738
0.5813989
0.5787252
0.5760505
0.5728698
0.5686483
0.5634156
0.55778
0.5520721
0.5458507
0.5387696
0.5314582
0.525181
0.5203685
0.5159966
0.5109164
0.5046101
0.4976628
0.4913731
0.4863054
0.4821334
0.4781393
0.474397
0.4714696
0.4691288
0.4661349
0.4616067
0.4552594
0.4480386
0.4412867
0.4345468
0.4276788
0.420743
0.4138358
0.4069344
0.4000154
0.3932442
0.3869445
0.3814685
0.3770631
0.3738261
0.3717384
0.3710006
0.3724683
0.3768281
0.3849217
0.3963265
0.408591
0.4189262
0.4260991
0.4304668
0.4332272
0.4342878
0.4321899
0.4257921
0.4155652
0.404299
0.393505
0.3831154
0.3729732
0.3630577
0.3535068
0.3445519
0.3363805
0.3289974
0.3222566
0.3159611
0.3099464
0.3040979
0.2983484
0.2926828
0.2871496
0.2818596
0.2769434
0.2724696
0.2684125
0.264752
0.2615722
0.2590158
0.2571345
0.2558814
0.2552798
0.2552573
0.2555563
0.2557443
0.2554792
0.2546096
0.2529758
0.2506426
0.2479418
0.2451925
0.2423247
0.2393195
0.2361582
0.2328667
0.2295222
0.2262111
0.2229858
0.2198803
0.2169439
0.2142353
0.2118113
0.2097273
0.207997
0.2065357
0.205167
0.203678
0.2018825
0.1996827
0.197105
0.1942721
0.1913086
0.188286
0.185223
0.1821401
0.1790776
0.1760891
0.1732513
0.1706491
0.1683356
0.1663349
0.1646602
0.1633256
0.1623455
0.161723
0.1614461
0.1614877
0.1618005
0.162309
0.1629161
0.1635356
0.1641329
0.1647393
0.1654064
0.1661256
0.1668006
0.1673018
0.167551
0.167553
0.1673407
0.1669106
0.1662068
0.1651664
0.1637665
0.161995
0.1598309
0.1572652
0.1543386
0.1511622
0.1479275
0.1448599
0.1421147
0.1396687
0.1373542
0.1350268
0.1326338
0.1301866
0.1277162
0.1252568
0.1228502
0.1205504
0.1184142
0.1164863
0.1147937
0.1133487
0.1121381
0.1111161
0.1102393
0.1095044
0.1089409
0.1086129
0.1086132
0.1089507
0.1095012
0.1100757
0.1105239
0.1107796
0.1108449
0.1107625
0.1106017
0.1104083
0.1101916
0.1099819
0.1098608
0.1098993
0.110061
0.1101941
0.1101421
0.1098367
0.109283
0.108511
0.1075536
0.1064412
0.1052051
0.1038793
0.1024949
0.1010839
0.099676
0.09828879
0.0969268
0.09558902
0.09427733
0.09299653
0.09175174
0.09055061
0.08940768
0.08834368
0.08737655
0.08651608
0.0857632
0.08511391
0.0845587
0.0840804
0.08365803
0.08327007
0.08289638
0.08251857
0.08212186
0.08169862
0.08124074
0.08076445
0.08029789
0.07987535
0.07951758
0.07921436
0.07893497
0.07864736
0.07833255
0.07798066
0.07758851
0.07715798
0.07669585
0.07621225
0.07572114
0.07523568
0.07476413
0.07430833
0.07386464
0.07342685
0.07298868
0.07254336
0.07208216
0.07159498
0.07107346
0.07051523
0.06992522
0.06931391
0.0686959
0.06808495
0.06748596
0.06689574
0.06631231
0.06574121
0.06519315
0.06467796
0.06420113
0.06376312
0.06336053
0.06298872
0.06264356
0.06231902
0.06200337
0.06168083
0.06133735
0.06096518
0.06056323
0.06013445
0.05968444
0.05922308
0.05876586
0.05832958
0.05792125
0.05752855
0.05712403
0.05668532
0.05621056
0.05571183
0.05520458
0.05470679
0.05423688
0.05380868
0.05342694
0.05308796
0.05278309
0.05250065
0.05222608
0.05194462
0.05164607
0.051324
0.05097676
0.05061098
0.05024019
0.04988282
0.04956021
0.04927933
0.04902579
0.04878335
0.04854684
0.04832507
0.04813722
0.04800035
0.04791019
0.04784355
0.04777386
0.04768094
0.04755594
0.04740112
0.04722315
0.04702682
0.04681425
0.04658891
0.04635814
0.04612928
0.04590578
0.04568699
0.04546924
0.04524815
0.04502094
0.04478653
0.04454452
0.04429571
0.04404227
0.04378648
0.04352927
0.04326957
0.04300481
0.0427318
0.04244706
0.04214681
0.04182729
0.04148537
0.04111901
0.04072764
0.04031297
0.03988076
0.03944133
0.03900744
0.03859099
0.03820004
0.03783816
0.03750458
0.03719491
0.03690258
0.03662033
0.03634135
0.03606036
0.03577405
0.03548036
0.0351781
0.03486805
0.03455414
0.03424222
0.03393591
0.03363202
0.03332159
0.0329969
0.03265554
0.03229688
0.03191904
0.03152051
0.03110111
0.0306622
0.03020669
0.0297375
0.02925676
0.02876496
0.02826058
0.02774087
0.02720278
0.0266438
0.02606227
0.02545762
0.02483077
0.02418437
0.02352274
0.02285162
0.0221776
0.02150759
0.02084838
0.02020665
0.01958905
0.0190022
0.0184526
0.01794622
0.01748826
0.01708303
0.01673364
0.01644162
0.01620697
0.01602806
0.01590159
0.01582283
0.01578603
0.01578471
0.01581209
0.01586145
0.01592644
0.01600143
0.01608176
0.01616383
0.01624512
0.01632411
0.01640013
0.01647319
0.01654379
0.01661263
0.01668053
0.01674813
0.01681587
0.01688385
0.01695206
0.01702075
0.01708976
0.01715877
0.01722714
0.0172944
0.01735968
0.01742268
0.0174825
0.01753933
0.01759272
0.01764301
0.017688
0.003085713
0.01157343
0.01709651
0.02346066
0.03034554
0.03803527
0.04666619
0.0559305
0.06612444
0.07817815
0.09614346
0.1068289
0.1182866
0.1302109
0.142663
0.1555995
0.1689616
0.1826344
0.1964923
0.2103744
0.2241914
0.239629
0.2553735
0.2712588
0.2872264
0.3032502
0.3192832
0.3352047
0.3508129
0.3658891
0.3801914
0.3935018
0.405993
0.4170321
0.4265104
0.4346273
0.4410928
0.4452663
0.445936
0.4434896
0.4384066
0.4313326
0.4233097
0.4152903
0.4083781
0.4037142
0.4024721
0.4057858
0.414773
0.4299942
0.4511534
0.4773437
0.5065273
0.5370602
0.5664287
0.5933609
0.6180315
0.6400691
0.6586213
0.6731215
0.6837787
0.6912953
0.6968207
0.7014491
0.7059847
0.7110544
0.7163331
0.7211518
0.7255416