/*--------------------------------*- C++ -*----------------------------------*\
| =========                 |                                                 |
| \\      /  F ield         | foam-extend: Open Source CFD                    |
|  \\    /   O peration     | Version:     3.1                                |
|   \\  /    A nd           | Web:         http://www.extend-project.de       |
|    \\/     M anipulation  |                                                 |
\*---------------------------------------------------------------------------*/
FoamFile
{
    version     2.0;
    format      ascii;
    class       volScalarField;
    location    "18";
    object      nut;
}
// * * * * * * * * * * * * * * * * * * * * * * * * * * * * * * * * * * * * * //

dimensions      [0 2 -1 0 0 0 0];

internalField   nonuniform List<scalar> 
119952
(
4.186487e-05
2.802388e-05
2.887545e-05
3.226307e-05
3.467856e-05
3.305074e-05
3.198382e-05
3.116748e-05
3.04821e-05
2.982662e-05
2.917919e-05
2.853178e-05
2.788107e-05
2.723094e-05
2.658421e-05
2.593621e-05
2.528464e-05
2.46275e-05
2.395133e-05
2.320362e-05
2.907504e-05
2.752266e-05
2.689054e-05
3.462089e-05
3.352127e-05
3.292753e-05
3.250558e-05
3.242333e-05
3.228172e-05
2.035136e-05
2.794524e-05
3.050694e-05
3.482584e-05
3.932006e-05
4.416301e-05
4.927926e-05
5.461493e-05
5.998331e-05
6.528021e-05
7.424194e-05
0.0003173892
0.0003609648
0.0004063289
0.0004517494
0.000496478
0.0005402208
0.0005828741
0.0006246078
0.0006654871
0.0009287053
0.0009684168
0.001009304
0.001050504
0.00109144
0.001132016
0.001172369
0.001213051
0.001255123
0.001300531
0.00135244
0.001408182
0.001470734
0.001540925
0.001618825
0.001703905
0.001795468
0.001892656
0.001997724
0.002093611
0.002142344
0.002192815
0.002244075
0.002283317
0.002304158
0.002307814
0.002293511
0.002266248
0.002228016
0.00218116
0.002128413
0.002072821
0.002017507
0.001965287
0.001918373
0.001878302
0.001846219
0.001823756
0.001813359
0.001820782
0.001827971
0.001840963
0.001865623
0.00189033
0.001901721
0.001896058
0.001866738
0.001779355
0.001629621
0.001575311
0.001538905
0.001514086
0.001494064
0.001476171
0.001459574
0.00144384
0.001428948
0.001415127
0.001402742
0.001392162
0.001383662
0.00137741
0.001373511
0.001372064
0.001373182
0.001376995
0.0013836
0.001393065
0.001405305
0.001420059
0.001436893
0.001455162
0.001474053
0.001492653
0.001509964
0.001524898
0.001536345
0.001543323
0.001544971
0.001539987
0.001526988
0.001504891
0.001472848
0.001430343
0.00137741
0.001314927
0.001244956
0.00117146
0.001101352
0.001043293
0.0010022
0.0009760847
0.0009593548
0.0009471324
0.0009369204
0.0009282677
0.0009217958
0.0009187882
0.0009181648
0.0009195091
0.0009235052
0.0009298949
0.0009381808
0.0009478151
0.0009582199
0.0009689247
0.0009795645
0.0009898496
0.0009997404
0.001008933
0.00101684
0.001022704
0.001025713
0.001025159
0.001020499
0.001010338
0.0009932845
0.0009680422
0.0009340301
0.0008922479
0.0008460277
0.0008009127
0.0007629795
0.0007361576
0.0007205782
0.0007133386
0.000710513
0.0007086523
0.000705378
0.0006993804
0.0006902277
0.0006781704
0.0006639392
0.0006485148
0.0006328922
0.0006178962
0.000604091
0.0005917819
0.0005810702
0.0005719319
0.0005642646
0.0005579326
0.0005527872
0.0005486719
0.0005454356
0.000542911
0.0005411251
0.0005409851
0.0004479421
0.0004539439
0.0004525151
0.0004309873
0.0004143017
0.0004008391
0.0003894453
0.0003793599
0.0003701254
0.0003614907
0.0003533432
0.0003456404
0.000338408
0.00033152
0.0003247452
0.0003179444
0.0003110044
0.0003038562
0.0002965054
0.0002890218
0.0002815159
0.000274122
0.0002669914
0.0002602719
0.00025408
0.0002484774
0.0002434697
0.0002390184
0.0002350384
0.0002314255
0.000228075
0.0002249015
0.0002218556
0.0002189454
0.0002164058
0.0002164807
0.0002151247
0.0002178033
0.0002210889
0.0002247636
0.0002286589
0.000232727
0.0002369409
0.0002413302
0.0002459426
0.0002509076
0.0002560241
0.0002612754
0.0002670653
0.0002731331
0.0002793288
0.0002854854
0.0002914133
0.0002959996
0.0002997898
0.0003033593
0.0003067377
0.0003099665
0.0003130928
0.000316153
0.0003191587
0.0003220902
0.0003249142
0.0003276208
0.0003301739
0.0003326115
0.0003349864
0.0003373521
0.0003397668
0.000342271
0.0004325737
0.0004386894
0.0004445287
0.0004502462
0.0004558114
0.000461241
0.0004667682
0.0004724254
0.0004781519
0.000483934
0.0004897943
0.000495774
0.0005018852
0.0005080892
0.0005143104
0.0005204774
0.0005265659
0.0005326194
0.0005387264
0.000544959
0.0005513194
0.0005577337
0.0005640894
0.0005702814
0.0005762468
0.0005819374
0.0005873225
0.0005923895
0.0005971231
0.0006015123
0.000605578
0.0006093549
0.0006128748
0.0006161628
0.0006192427
0.0006221433
0.000624901
0.0006275602
0.0006301684
0.0006327706
0.0006354061
0.000638105
0.0006408453
0.0006435771
0.0006462209
0.0006485744
0.0006502876
0.0006514995
0.0006521451
0.0006521551
0.0006514613
0.0006500225
0.000647954
0.0006459677
0.0006439803
0.0006406303
0.000637506
0.0006346917
0.000632183
0.0006299997
0.0006281456
0.0006265977
0.000625306
0.0006241977
0.0006231842
0.0006221641
0.0006210254
0.0006196434
0.0006178493
0.0006153108
0.0006114693
0.0006061348
0.0005991718
0.0005905512
0.0005805566
0.00056976
0.0005589045
0.0005487448
0.0005398877
0.0005326312
0.0005268392
0.0005220587
0.0005178737
0.0005141708
0.00051114
0.0005091196
0.0005084482
0.0005093953
0.0005121448
0.0005167904
0.000523347
0.0005317624
0.0005418351
0.0005530956
0.0005648486
0.0005763293
0.0005868484
0.0005959187
0.0006033112
0.0006091359
0.0006138693
0.0006179356
0.0006216682
0.0006253423
0.0006292333
0.000633457
0.0006378413
0.0006423114
0.0006468175
0.0006512726
0.0006556354
0.0006599234
0.0006642049
0.000668589
0.0006732047
0.0006781831
0.0006836376
0.0006896471
0.0006962655
0.0007035329
0.000711472
0.000720083
0.0007293397
0.0007391912
0.0007495626
0.0007603596
0.0007714689
0.0007827657
0.0007941154
0.0008053856
0.000816447
0.0008271951
0.0008375506
0.0008475045
0.0008571442
0.0008668669
0.0008774633
0.0008919564
0.0007634139
3.873309e-05
4.255597e-05
4.760944e-05
5.35978e-05
6.027217e-05
6.736979e-05
7.467531e-05
8.203734e-05
9.029373e-05
0.0003640645
0.0004468463
0.0005392818
0.0006345381
0.0007284171
0.0008193919
0.0009062581
0.0009880122
0.001064104
0.001525652
0.001595927
0.001665715
0.001732005
0.001794398
0.001852535
0.001907064
0.001959427
0.002010727
0.002061145
0.002114473
0.002169136
0.00223001
0.002301662
0.002387464
0.002489948
0.002609796
0.002747148
0.002901361
0.003055931
0.003203614
0.003354822
0.00350171
0.003638099
0.003759134
0.003859923
0.003934224
0.003976272
0.003984807
0.003964502
0.003923691
0.003873433
0.003821615
0.003773136
0.003730428
0.003693826
0.003663566
0.003639827
0.004291863
0.004285142
0.004285217
0.004292039
0.004302229
0.004312981
0.004322767
0.004331976
0.004342395
0.004357277
0.004380232
0.004414227
0.004461526
0.00452347
0.004600282
0.004690977
0.004793441
0.004905295
0.005023156
0.005137191
0.00524104
0.00533664
0.005420572
0.005485916
0.005530502
0.005555618
0.00556235
0.00555052
0.005521264
0.005476327
0.005418077
0.005349596
0.005274639
0.005197401
0.005122246
0.005053405
0.00499475
0.004949466
0.004919637
0.004905159
0.004902357
0.00491071
0.004921646
0.004924713
0.004913411
0.00488723
0.004841442
0.004775872
0.004708855
0.00465317
0.004598216
0.004545239
0.004493525
0.00444297
0.004394232
0.004348106
0.004305424
0.004267011
0.004233626
0.004205898
0.004184321
0.004169275
0.004161066
0.004159971
0.004166259
0.004180188
0.004202004
0.004231831
0.004269479
0.00431428
0.004365011
0.004419966
0.004477126
0.004534234
0.004588761
0.004637953
0.004679089
0.004709627
0.004726968
0.004728472
0.004711626
0.00467432
0.004615206
0.004534171
0.004432806
0.004314555
0.00418459
0.004049581
0.003916723
0.003791472
0.003675814
0.003568943
0.003469275
0.00337596
0.003289366
0.003210826
0.003142089
0.003084955
0.003040665
0.0030097
0.002992729
0.002989925
0.003000851
0.003024706
0.003060476
0.003107067
0.003163355
0.00322806
0.003299462
0.003375206
0.003452266
0.00352712
0.003596064
0.003655464
0.003701537
0.003730378
0.003738315
0.003722638
0.003682771
0.003621392
0.003544843
0.003462072
0.003382257
0.003312221
0.003255117
0.003210833
0.003177143
0.003150715
0.003127914
0.003105323
0.003080153
0.003050485
0.003015375
0.002974831
0.00292968
0.002881383
0.002831795
0.002782917
0.002736675
0.002694769
0.002658578
0.002629141
0.002607117
0.002592881
0.002586458
0.002587783
0.002596541
0.002614747
0.002501431
0.002389361
0.002327178
0.002295765
0.002283192
0.002281584
0.002285604
0.002291641
0.002297405
0.002301675
0.002304035
0.002304527
0.00230325
0.002300002
0.002294164
0.002284851
0.002271162
0.002252434
0.002228367
0.002199023
0.002164825
0.002126555
0.002085292
0.002042326
0.001998904
0.001956266
0.001915395
0.001877003
0.001841469
0.001808934
0.001779389
0.001752764
0.001729067
0.001708653
0.001692485
0.001682253
0.001679087
0.001679586
0.001682312
0.001686651
0.001691912
0.001697786
0.001704201
0.001711133
0.001718621
0.001726758
0.001735681
0.001745615
0.00175706
0.001769892
0.001783783
0.00179836
0.001812911
0.001826574
0.001838564
0.001848343
0.001855745
0.001861001
0.001864592
0.001866989
0.001868411
0.001868759
0.001867762
0.001865206
0.001861064
0.001855571
0.001849216
0.001842607
0.001836304
0.00183066
0.002198585
0.002201438
0.002205061
0.002209868
0.00221569
0.002222447
0.00223001
0.002238242
0.002247113
0.002256728
0.002267281
0.002278893
0.002291487
0.002304798
0.002318509
0.002332431
0.002346602
0.002361228
0.002376478
0.002392294
0.002408353
0.002424174
0.00243929
0.002453342
0.002466081
0.002477312
0.002486871
0.002494648
0.002500607
0.002504813
0.002507398
0.002508497
0.002508228
0.002506695
0.002504022
0.002500359
0.002495893
0.002490835
0.002485416
0.002479854
0.002474332
0.002468967
0.002463801
0.002458777
0.002453724
0.002448348
0.002442307
0.002435349
0.00242718
0.002417604
0.00240662
0.002394527
0.002380351
0.002364306
0.002347586
0.002330279
0.002312275
0.002294454
0.002277603
0.002262057
0.002247859
0.002234827
0.002222652
0.002210916
0.002199123
0.002186751
0.002173314
0.002158392
0.002141599
0.00212254
0.002100764
0.002075779
0.002047125
0.00201445
0.001977537
0.001936332
0.001890972
0.001841782
0.001789205
0.001733639
0.001675349
0.001614566
0.001551712
0.001487573
0.001423352
0.001360618
0.001301149
0.001246714
0.00119885
0.001158744
0.001127168
0.001104435
0.001090326
0.001084064
0.001084411
0.001089913
0.001097685
0.001100429
0.001113005
0.001133487
0.001159784
0.001181503
0.001202942
0.001225569
0.001249186
0.001273545
0.001298334
0.001323174
0.001347842
0.001372399
0.001396912
0.00142148
0.001446232
0.00147109
0.001496008
0.001521029
0.001546255
0.00157181
0.001597826
0.001624424
0.001651704
0.001679733
0.001708539
0.001738098
0.001768344
0.001799155
0.001830373
0.001861785
0.001893166
0.001924243
0.001954776
0.001984471
0.002013133
0.002040473
0.002066405
0.002090779
0.002114618
0.002139473
0.002163609
5.378001e-05
7.382523e-05
0.0001076044
0.0001586329
0.0002168892
0.0002518067
0.000288303
0.0003265336
0.0003670813
0.0004276584
0.001369199
0.001552216
0.001665316
0.001775762
0.001886429
0.001991073
0.002089548
0.002182764
0.002271509
0.003264887
0.003491838
0.003697323
0.003874915
0.004020562
0.004135873
0.00422584
0.004296309
0.004352653
0.004397559
0.004436926
0.004479707
0.004528029
0.004579931
0.004631485
0.004679658
0.004723432
0.004762618
0.00480009
0.004768484
0.004752279
0.004751166
0.004765469
0.004791451
0.00482319
0.004856032
0.004888484
0.004922749
0.004962175
0.005005703
0.005051436
0.005096695
0.005141967
0.005189315
0.005237751
0.005283872
0.00532285
0.006134712
0.006156492
0.00617272
0.006182511
0.006184724
0.006180057
0.006170673
0.006158968
0.006147168
0.006137399
0.006133084
0.006139137
0.006160875
0.006203417
0.006270819
0.006365439
0.006488621
0.006641753
0.006824055
0.007027833
0.007238911
0.007441767
0.007624161
0.007779821
0.007905073
0.007993905
0.008039682
0.008039858
0.007999824
0.007931784
0.007852324
0.00777329
0.007693353
0.007610422
0.007526892
0.007445604
0.007368943
0.00730203
0.007224613
0.007160627
0.007104741
0.007052607
0.007003941
0.006958554
0.006918159
0.006882617
0.00685233
0.006829444
0.00681683
0.006817348
0.006833516
0.006867138
0.006918845
0.006987751
0.007071528
0.007166653
0.007267998
0.007368561
0.007462784
0.007547215
0.007618284
0.007672487
0.007708892
0.007730106
0.007732988
0.007718294
0.007687022
0.007640562
0.007580953
0.007510976
0.007434161
0.007354642
0.007276914
0.007205417
0.007144159
0.007096222
0.00706335
0.007045017
0.007037644
0.0070382
0.007040504
0.007035401
0.007017745
0.006987205
0.006942728
0.006884826
0.006823307
0.006763916
0.006704885
0.006644484
0.006583915
0.006524512
0.006467597
0.006414535
0.006366636
0.00632511
0.006290992
0.006265085
0.006247975
0.006240051
0.006241522
0.006252439
0.006272741
0.006302333
0.006341131
0.006388924
0.006445034
0.006508065
0.006575958
0.006646291
0.006716552
0.006784145
0.006846188
0.006899541
0.006941244
0.006968727
0.00697941
0.006970534
0.006939489
0.006884221
0.006803848
0.006699436
0.006574469
0.006434443
0.006285745
0.006134501
0.005985564
0.005841655
0.00570328
0.005569616
0.005439788
0.005313792
0.005192803
0.005078966
0.00497503
0.004883933
0.004808301
0.004750016
0.004710476
0.004690381
0.004689628
0.004707619
0.004743558
0.004796437
0.004865178
0.004948158
0.005042733
0.005145115
0.005250673
0.005354502
0.005451872
0.005538338
0.00560949
0.005660853
0.005688371
0.005689447
0.005664046
0.005615339
0.005549129
0.00547334
0.005396037
0.005323835
0.005260819
0.005208374
0.00516564
0.005130059
0.005098433
0.005067427
0.005034152
0.004996417
0.004952918
0.004903261
0.004847946
0.004788272
0.004726156
0.004663865
0.00460377
0.004548148
0.004499063
0.004458242
0.004427004
0.004406264
0.004396326
0.004397348
0.00440845
0.004428823
0.004443908
0.004473076
0.004511423
0.004554991
0.00460052
0.004645378
0.004687566
0.004725779
0.004759429
0.004788506
0.004813262
0.004833844
0.00485005
0.004861264
0.00486656
0.004864958
0.004855653
0.004838176
0.004812426
0.004778686
0.004737646
0.004690375
0.004638252
0.00458268
0.004525216
0.00446725
0.004409978
0.004354323
0.004300936
0.004250259
0.004202605
0.00415827
0.004117636
0.004081263
0.004049846
0.004023921
0.004003115
0.003986506
0.003973584
0.003963999
0.003957457
0.003953766
0.003952808
0.00395453
0.003958924
0.003966014
0.003975776
0.003987998
0.004002189
0.00401753
0.004032763
0.004046871
0.004059501
0.004070344
0.004079084
0.004085178
0.004088628
0.004089813
0.004089133
0.004086687
0.004082209
0.004075259
0.004065484
0.004052795
0.00403749
0.004020269
0.004002079
0.003983825
0.003966361
0.003951796
0.003928261
0.003908693
0.003893264
0.00388175
0.003873456
0.003867686
0.003863946
0.003861973
0.003861753
0.003863515
0.003867599
0.003874126
0.003882847
0.003893275
0.00390496
0.003917737
0.0039318
0.003947481
0.003964872
0.003983589
0.004002833
0.004021683
0.004039363
0.004055357
0.004069337
0.004081038
0.004090253
0.004096874
0.004100913
0.004102532
0.004101963
0.004099391
0.004094933
0.004088688
0.004080785
0.004071409
0.004060795
0.004049229
0.00403703
0.004024504
0.004011907
0.003999414
0.003987092
0.003974888
0.003962624
0.003949999
0.003936614
0.003922049
0.003905889
0.003887817
0.003867684
0.003844788
0.003819239
0.00379155
0.003761781
0.003731509
0.003701868
0.003673559
0.00364706
0.003622647
0.003600331
0.003579855
0.003560751
0.003542404
0.00352412
0.003505225
0.003485176
0.003463574
0.003440102
0.003414418
0.003386062
0.003354449
0.003318955
0.003278972
0.003233921
0.003183274
0.003126605
0.003063631
0.002994177
0.002918094
0.002835222
0.002745474
0.002648982
0.002546241
0.002438241
0.002326533
0.002213196
0.002100681
0.00199162
0.001888694
0.001794446
0.001710994
0.001639738
0.00158119
0.001535049
0.001500437
0.001476204
0.001461133
0.00145407
0.00145399
0.001460008
0.001471379
0.001487458
0.001507684
0.001531557
0.001558608
0.001588401
0.001620536
0.001654651
0.001690393
0.001727397
0.001765277
0.001803666
0.001842537
0.001881935
0.001921892
0.001962449
0.002003695
0.002045671
0.002088357
0.002131745
0.002175827
0.002220581
0.00226596
0.00231188
0.002358219
0.002404806
0.002451439
0.002497869
0.002543836
0.002589032
0.002633184
0.002675952
0.002717123
0.002756399
0.002793847
0.002829523
0.002864026
0.002895933
4.618705e-05
7.962064e-05
0.000167824
0.0005988002
0.001052665
0.001992635
0.002669123
0.003485664
0.004379011
0.005105739
0.00562336
0.006002845
0.006307543
0.00649578
0.00665325
0.006777428
0.006875674
0.006924013
0.006584831
0.006358438
0.006271725
0.006153064
0.006079591
0.006140256
0.006235603
0.006385456
0.006585723
0.006836509
0.007134446
0.007517886
0.008164345
0.008293043
0.008879154
0.009103817
0.009181222
0.009236658
0.009273914
0.009296462
0.009307726
0.009310856
0.009307718
0.009299756
0.009288934
0.009275886
0.00925972
0.009239017
0.009213567
0.009184912
0.009154631
0.009121739
0.009084232
0.009044764
0.009008917
0.008979825
0.008956002
0.00893424
0.008911697
0.00888859
0.008868945
0.008856668
0.008851847
0.008851574
0.008854427
0.00886168
0.008873089
0.008885841
0.008896279
0.008902677
0.008885288
0.008865897
0.008845924
0.008824463
0.008800815
0.008777201
0.008752638
0.008727086
0.008701204
0.00867613
0.008653745
0.008637258
0.008634566
0.008656546
0.008707649
0.008790449
0.008907101
0.009059953
0.009246931
0.009455439
0.009664826
0.009856564
0.01
0.01
0.01
0.01
0.01
0.01
0.01
0.01
0.01
0.01
0.00992243
0.009820524
0.009719277
0.009621549
0.009529584
0.009446594
0.009372395
0.00930805
0.009252816
0.00920462
0.009160829
0.009118744
0.009074709
0.009029809
0.008986835
0.008948814
0.008920016
0.008903813
0.008902649
0.00891862
0.008952564
0.009003531
0.009068971
0.009144813
0.009225058
0.009303109
0.009374224
0.009434197
0.009479829
0.009510134
0.009526596
0.009531978
0.009522656
0.009499412
0.009463018
0.009414598
0.009355854
0.009289105
0.009217312
0.009144005
0.009073067
0.009008348
0.00895327
0.008910304
0.008880324
0.008862059
0.008852058
0.008845919
0.00883848
0.0088245
0.00880095
0.008767254
0.008723675
0.008671198
0.008613777
0.008554157
0.008491911
0.0084275
0.008363205
0.008301117
0.008243131
0.00819094
0.008146098
0.00810999
0.008083711
0.008068004
0.008063289
0.008069636
0.008086717
0.008113833
0.008150057
0.008194519
0.008246596
0.008305661
0.008370426
0.008438522
0.008507118
0.008573838
0.008636588
0.008693444
0.008742187
0.008780215
0.008805015
0.008814646
0.008807318
0.008780667
0.008732311
0.008660278
0.00856418
0.008446403
0.008311993
0.008167541
0.008019097
0.007870732
0.007724398
0.007580517
0.00743875
0.007298565
0.007159753
0.007022957
0.006889932
0.006763383
0.006646608
0.006543064
0.006455949
0.006387785
0.006340093
0.006313381
0.006307542
0.006322234
0.006357046
0.00641166
0.006485338
0.006576069
0.006679904
0.006791554
0.006905237
0.007015606
0.007118122
0.00720887
0.007284047
0.007339808
0.007372848
0.007381706
0.007367362
0.007332949
0.007283097
0.007223466
0.007160145
0.007098563
0.007042458
0.006993433
0.006951092
0.006913614
0.006878429
0.00684289
0.006804689
0.006762103
0.006714091
0.006660314
0.006601165
0.006537781
0.006471914
0.006405699
0.006341448
0.006281505
0.00622813
0.006183343
0.006148766
0.006125523
0.00611415
0.006114682
0.006126471
0.006148473
0.006178045
0.006213787
0.006254083
0.006296749
0.006339526
0.006380342
0.006417584
0.006450588
0.006479434
0.00650476
0.006527096
0.006546382
0.006561918
0.006572525
0.006576868
0.006573732
0.006562262
0.006542058
0.006513163
0.00647604
0.006431601
0.006380991
0.006325676
0.006267143
0.006206835
0.006145943
0.006085582
0.006026529
0.005969311
0.005914277
0.005861713
0.005811859
0.005765171
0.005722225
0.005683636
0.005649888
0.005620953
0.00559633
0.005575607
0.00555861
0.005545221
0.005535396
0.005529122
0.005526388
0.005527191
0.005531621
0.00553964
0.005550992
0.005565032
0.005580796
0.005596974
0.005612194
0.005625145
0.005634719
0.005640372
0.005642626
0.005642071
0.005639132
0.005633889
0.005626099
0.005615452
0.005601809
0.005585001
0.005564969
0.005542242
0.005517983
0.005493396
0.005469313
0.005446441
0.005425509
0.005406338
0.0053896
0.005375597
0.005364091
0.00535457
0.005346477
0.005339457
0.005333554
0.005329149
0.005326922
0.005327575
0.005331277
0.005337608
0.005345935
0.005355848
0.00536742
0.005381171
0.005397596
0.005416595
0.005437296
0.00545834
0.005478401
0.005496537
0.005512246
0.005525264
0.005535363
0.005542357
0.005546222
0.005547113
0.005545349
0.005541257
0.00553502
0.005526699
0.005516336
0.005504043
0.005490006
0.005474487
0.005457824
0.005440399
0.005422578
0.00540465
0.005386791
0.005369042
0.005351312
0.005333373
0.005314852
0.005295255
0.005274029
0.005250628
0.005224599
0.005195532
0.005163115
0.005127863
0.005090646
0.005052486
0.005014584
0.004977936
0.004943248
0.004910957
0.004881229
0.004853959
0.004828788
0.004805166
0.0047824
0.004759741
0.004736525
0.004712292
0.00468681
0.00465994
0.004631423
0.004600756
0.004567255
0.004530189
0.004488818
0.004442359
0.004390037
0.004331145
0.004265071
0.004191307
0.004109401
0.004018927
0.003919508
0.003810894
0.003693057
0.003566293
0.003431338
0.003289426
0.00314231
0.002992264
0.002842042
0.002694742
0.002553543
0.002421333
0.00230038
0.002192174
0.002097521
0.002016697
0.001949585
0.001895757
0.001854542
0.001825089
0.001806428
0.001797525
0.001797329
0.001804811
0.001818998
0.001838997
0.00186402
0.001893378
0.001926473
0.001962784
0.002001857
0.00204332
0.002086885
0.002132338
0.002179515
0.002228275
0.002278454
0.002329962
0.002382763
0.002436786
0.002491938
0.002548137
0.002605339
0.002663366
0.002722018
0.002781067
0.002840264
0.00289933
0.002957983
0.003015905
0.003072807
0.003128362
0.00318234
0.003234461
0.003284665
0.003332847
0.003379101
0.003421533
2.467395e-05
4.089763e-05
6.347048e-05
0.0002782116
0.0004631259
0.0008205863
0.001168103
0.001488067
0.001887558
0.002271947
0.002681111
0.003197535
0.003799125
0.004457192
0.005156881
0.005991759
0.007564564
0.008115069
0.008592641
0.008937049
0.009122227
0.009205948
0.009222272
0.008894595
0.008167828
0.007503513
0.006932367
0.006451261
0.006068259
0.005796921
0.005602879
0.00548123
0.005411748
0.005433291
0.005526404
0.005699042
0.005927362
0.006223765
0.006577908
0.007010677
0.007496863
0.008116598
0.00895933
0.009686788
0.01
0.01
0.01
0.01
0.01
0.01
0.01
0.01
0.01
0.01
0.01
0.01
0.01
0.01
0.01
0.01
0.01
0.01
0.01
0.01
0.01
0.01
0.01
0.01
0.01
0.01
0.01
0.01
0.01
0.01
0.01
0.01
0.01
0.01
0.01
0.01
0.01
0.01
0.01
0.01
0.01
0.01
0.01
0.01
0.01
0.01
0.01
0.01
0.01
0.01
0.01
0.01
0.01
0.01
0.01
0.01
0.01
0.01
0.01
0.01
0.01
0.01000001
0.01000006
0.01000014
0.01000017
0.01000009
0.01000002
0.01
0.01
0.01
0.01
0.01
0.01
0.01
0.01
0.01
0.01
0.01
0.01000001
0.01000003
0.01000006
0.01000005
0.01000002
0.01
0.01
0.01
0.01
0.01
0.01
0.01
0.01
0.01
0.01
0.01
0.01
0.01
0.01
0.01
0.01
0.01
0.01
0.01
0.01
0.01
0.01000002
0.01000007
0.01000008
0.01000004
0.01000001
0.01
0.01
0.01
0.01
0.01
0.01
0.01
0.01000001
0.01000007
0.01000018
0.01000015
0.01000006
0.01000001
0.009971866
0.009908467
0.009844266
0.009781834
0.009723625
0.00967171
0.009627797
0.00959338
0.009569772
0.009557889
0.009558125
0.00957036
0.009593887
0.009627305
0.009668621
0.009715705
0.009766924
0.00982155
0.009879266
0.009938942
0.009997998
0.01000005
0.01000051
0.01000066
0.01000049
0.01000012
0.01000001
0.01
0.01
0.01
0.01
0.01
0.009974667
0.009869217
0.009747326
0.009614939
0.009479007
0.009344342
0.009212136
0.009081408
0.008950791
0.008819464
0.008687605
0.008555703
0.008424994
0.008297784
0.008177265
0.008067014
0.007970554
0.007891041
0.007830706
0.007790322
0.007769543
0.007767844
0.007785031
0.007821478
0.00787809
0.007954641
0.008048058
0.008152558
0.008261351
0.008368192
0.008468304
0.008558471
0.008636493
0.00870006
0.008746337
0.008773174
0.008780627
0.008770926
0.008747063
0.00871179
0.008668205
0.008620347
0.008572359
0.008527209
0.008486111
0.00844864
0.00841327
0.008378046
0.008341079
0.008300866
0.008256427
0.008207248
0.008153218
0.008094703
0.00803269
0.007968709
0.007904623
0.007842493
0.007784525
0.007732984
0.007689955
0.00765709
0.007635464
0.007625559
0.007627248
0.007639708
0.00766156
0.00769086
0.007725432
0.007762986
0.007801217
0.007837968
0.007871508
0.007900185
0.007923979
0.007944368
0.007962548
0.007979089
0.007993472
0.008004428
0.008010464
0.008010213
0.008002534
0.007986746
0.007962676
0.007930596
0.007891204
0.007845551
0.007794916
0.007740649
0.007684028
0.007626194
0.007568147
0.007510655
0.007454224
0.007399108
0.007345407
0.007293215
0.007242775
0.007194533
0.007149162
0.007107399
0.007069748
0.007036268
0.007006722
0.006980929
0.006958879
0.006940639
0.006926292
0.00691588
0.006909387
0.006906799
0.006908154
0.006913403
0.006922153
0.006933537
0.006946302
0.006959004
0.006970259
0.006978769
0.006983599
0.006984387
0.006981506
0.006975877
0.006968424
0.006959375
0.006948033
0.006933291
0.006914377
0.006891457
0.006865392
0.006837277
0.006808245
0.006779549
0.006752372
0.006727412
0.006705046
0.006685411
0.006668366
0.006653737
0.006641494
0.006630637
0.006620354
0.006610357
0.006600967
0.0065929
0.006587423
0.006585588
0.006587333
0.006591841
0.006598294
0.006606438
0.006616734
0.006630093
0.006647028
0.006666993
0.006688507
0.006709663
0.00672888
0.006745258
0.006758501
0.006768535
0.006775243
0.006778509
0.006778477
0.006775559
0.006770228
0.006762827
0.006753462
0.006742073
0.006728612
0.006713152
0.006695858
0.006676998
0.006656953
0.006636162
0.006615025
0.006593825
0.006572691
0.006551586
0.006530342
0.006508645
0.006486022
0.006461874
0.006435546
0.006406397
0.006373901
0.006337746
0.006298175
0.006256029
0.006212497
0.006168852
0.006126285
0.006085736
0.006047839
0.006012893
0.005980866
0.005951446
0.005924111
0.005898217
0.005873036
0.005847821
0.00582197
0.005795185
0.005767489
0.005738986
0.005709496
0.005678388
0.005644801
0.005607936
0.00556702
0.005521187
0.005469553
0.005411333
0.005345835
0.005272512
0.005190917
0.005100637
0.005001243
0.004892314
0.004773503
0.004644599
0.004505637
0.004356991
0.00419945
0.004034284
0.003863331
0.003689
0.003514155
0.003341842
0.003175008
0.003016275
0.002867824
0.002731386
0.002608286
0.002499437
0.002405342
0.002326126
0.00226154
0.002211009
0.002173703
0.002148601
0.002134562
0.002130391
0.002134919
0.002147041
0.00216576
0.002190193
0.002219579
0.002253284
0.002290794
0.002331707
0.002375714
0.002422581
0.002472124
0.002524188
0.002578644
0.002635358
0.00269418
0.002754894
0.0028172
0.002880894
0.002945824
0.00301179
0.003078482
0.003145575
0.003212746
0.003279659
0.003346007
0.003411464
0.003475782
0.003538678
0.003600016
0.003659625
0.003717317
0.003770453
2.261101e-05
3.516012e-05
7.07809e-05
0.0002183437
0.0003548776
0.0005741338
0.0007398233
0.0009284817
0.001149744
0.001364633
0.001614523
0.001937837
0.00230279
0.002729716
0.003273278
0.004337811
0.004828593
0.005345224
0.005876702
0.006417816
0.006971677
0.007526491
0.008062018
0.008560853
0.009007993
0.009389337
0.009710297
0.009977484
0.01
0.01
0.009860486
0.009192781
0.008458797
0.007757994
0.00710964
0.006531831
0.006042249
0.005645922
0.005353677
0.005137053
0.004996403
0.004933531
0.00494674
0.005053262
0.005240436
0.005547377
0.005943231
0.006487337
0.007184913
0.008034208
0.008991876
0.01
0.01
0.01
0.01
0.01
0.01
0.01
0.01
0.01
0.01
0.01
0.01
0.01
0.01
0.01
0.01
0.01
0.01
0.01
0.01000001
0.01000001
0.01
0.01
0.01
0.01000001
0.01000001
0.01000001
0.01000001
0.01000001
0.01000001
0.01000001
0.01000001
0.01000002
0.01000002
0.01000002
0.01000002
0.01000002
0.01000003
0.01000002
0.01000002
0.01000002
0.01000002
0.01000002
0.01000002
0.01000002
0.01000001
0.01000001
0.01000001
0.01
0.01
0.01
0.01
0.01
0.01
0.01
0.01
0.01000001
0.01000001
0.01000001
0.01000001
0.01000001
0.01000002
0.01000005
0.0100002
0.01000084
0.01000191
0.01000138
0.01000038
0.01000003
0.01
0.01000001
0.01000001
0.01000001
0.01000001
0.01000001
0.01000001
0.01
0.01
0.01000001
0.01000011
0.01000064
0.01000088
0.01000064
0.01000015
0.01000001
0.01
0.01
0.01
0.01
0.01
0.01
0.01000001
0.01000002
0.01000003
0.01000002
0.01000001
0.01000001
0.01000001
0.01000001
0.01000001
0.01000001
0.01
0.01
0.01
0.01000002
0.01000016
0.01000025
0.01000017
0.01000005
0.01000001
0.01
0.01
0.01
0.01
0.01
0.01
0.01
0.01000003
0.01000034
0.01000067
0.01000058
0.0100002
0.01000003
0.01
0.01
0.01
0.01
0.01
0.01
0.01
0.01
0.01000002
0.0100002
0.01000074
0.01000067
0.01000027
0.01000004
0.01
0.01
0.01
0.01
0.01000001
0.01000021
0.01000082
0.01000082
0.01000035
0.01000006
0.01000004
0.01000006
0.01000006
0.01000004
0.01000001
0.01
0.01
0.01000001
0.01000011
0.01000142
0.01000251
0.01000219
0.0100007
0.01000027
0.01000028
0.01000049
0.01000212
0.01000368
0.01000233
0.009889503
0.009775378
0.00966077
0.009547317
0.009437803
0.009335832
0.009245106
0.009168894
0.009109741
0.00906887
0.009045528
0.009037933
0.009045099
0.009067215
0.009105705
0.009163223
0.009240014
0.009331286
0.009428823
0.00952468
0.009613452
0.00969214
0.00975965
0.009816051
0.009860663
0.009891256
0.009906469
0.009907937
0.009899264
0.009883032
0.009859554
0.009829187
0.009794385
0.0097585
0.009723841
0.009691064
0.009659468
0.009627654
0.009594171
0.009557804
0.009517885
0.00947428
0.009426989
0.009376036
0.009321667
0.009264668
0.009206324
0.009148185
0.009091997
0.009039786
0.0089938
0.008956027
0.008928003
0.008910591
0.008904021
0.008907892
0.008921034
0.008941702
0.008967794
0.008997136
0.00902755
0.009056973
0.009083671
0.009105418
0.009122118
0.009134716
0.009145102
0.009154982
0.009164548
0.009172615
0.009177356
0.009177227
0.009170982
0.009157792
0.009137279
0.00910953
0.009074969
0.009034573
0.008989603
0.008941335
0.008890925
0.008839338
0.008787367
0.008735673
0.008684724
0.00863469
0.008585447
0.008536731
0.008488413
0.008440682
0.008394063
0.008349413
0.008307685
0.008269423
0.008234615
0.008203069
0.008174808
0.008150095
0.008129189
0.008112235
0.008099257
0.008090181
0.008084941
0.008083562
0.008085977
0.00809164
0.00809942
0.008107845
0.00811544
0.008120919