/*--------------------------------*- C++ -*----------------------------------*\
| =========                 |                                                 |
| \\      /  F ield         | foam-extend: Open Source CFD                    |
|  \\    /   O peration     | Version:     3.1                                |
|   \\  /    A nd           | Web:         http://www.extend-project.de       |
|    \\/     M anipulation  |                                                 |
\*---------------------------------------------------------------------------*/
FoamFile
{
    version     2.0;
    format      ascii;
    class       volScalarField;
    location    "18";
    object      omega;
}
// * * * * * * * * * * * * * * * * * * * * * * * * * * * * * * * * * * * * * //

dimensions      [0 0 -1 0 0 0 0];

internalField   nonuniform List<scalar> 
119952
(
285.0392
362.4493
345.254
302.8214
273.3106
276.2616
281.1325
286.7863
292.7543
298.8121
304.8818
310.9383
317.0432
323.3101
329.8703
336.8424
344.2997
352.3062
361.0549
371.4055
310.3946
308.3178
311.1128
261.7423
256.6423
254.1827
252.0836
250.0795
245.3685
135.4758
664.6124
560.4539
478.6996
420.32
376.7652
342.7254
314.7958
291.0738
270.2337
246.2601
206.2013
178.8983
160.1942
146.4748
135.7282
126.8522
119.2165
112.4255
106.2606
83.22681
79.53082
75.86906
72.35882
69.11275
66.16505
63.49676
61.05592
58.76553
56.57223
54.47166
52.31476
50.1323
47.96094
45.8423
43.81262
41.89495
40.08975
38.40554
37.6008
36.98843
36.22522
35.5818
35.09333
34.73149
34.45379
34.31661
34.29608
34.37715
34.54091
34.76439
35.0192
35.27249
35.49125
35.64626
35.71419
35.67518
35.49994
35.14986
34.58395
34.07802
33.47777
32.8607
32.39859
32.05317
31.90742
32.15074
33.3888
35.51139
35.90802
36.02459
35.94814
35.81508
35.66744
35.51718
35.36904
35.22049
35.06524
34.8954
34.70369
34.48511
34.23709
33.95887
33.65081
33.31422
32.95145
32.56586
32.16198
31.74802
31.33334
30.92848
30.54454
30.19169
29.87849
29.61238
29.40009
29.24696
29.15562
29.12948
29.17874
29.31633
29.55565
29.9122
30.40394
31.04924
31.86349
32.85204
33.98709
35.15872
36.17296
36.88827
37.32646
37.59755
37.78382
37.9038
37.93169
37.82461
37.53383
37.1254
36.66092
36.09932
35.46562
34.79311
34.11869
33.47376
32.87816
32.34541
31.88681
31.50564
31.20541
30.99493
30.88324
30.87663
30.97499
31.17639
31.50459
31.97998
32.63224
33.48847
34.5519
35.77019
37.00798
38.06541
38.76956
39.07426
39.06403
38.87986
38.65544
38.48957
38.44324
38.54478
38.79552
39.17545
39.64949
40.17461
40.70692
41.20722
41.64458
41.99787
42.25519
42.41368
42.4779
42.45864
42.37085
42.23166
42.05896
41.85423
41.55961
43.23923
46.72987
49.52985
51.65455
53.27502
54.5745
55.68554
56.69544
57.65503
58.5897
59.50824
60.41467
61.30104
62.18021
63.09234
64.06371
65.11118
66.24759
67.47557
68.78954
70.17679
71.61861
73.09005
74.56224
76.00679
77.40171
78.73311
79.9964
81.19808
82.35091
83.47081
84.57263
85.66368
86.72995
87.6336
87.17789
85.42516
83.76596
82.1646
80.62219
79.13672
77.7
76.30005
74.92296
73.55439
72.18054
70.80633
69.43747
68.07056
66.72649
65.43135
64.20887
63.07691
62.03995
61.08998
60.21508
59.39524
58.6077
57.83407
57.06636
56.30804
55.5703
54.86491
54.19373
53.54552
52.91546
52.29217
51.66349
51.02171
50.36278
39.57061
38.93694
38.18964
37.32751
36.45249
35.59873
34.77985
34.00863
33.29413
32.63731
32.03486
31.48242
30.97683
30.51624
30.09885
29.72137
29.37799
29.06111
28.76327
28.47946
28.20802
27.94976
27.70612
27.47785
27.26436
27.06492
26.87836
26.70232
26.53488
26.37405
26.2174
26.06246
25.90729
25.75029
25.59005
25.42521
25.25455
25.07698
24.89171
24.69845
24.49776
24.29131
24.08048
23.86957
23.66529
23.47593
23.30443
23.1497
23.01483
22.90396
22.81798
22.75635
22.71299
22.69051
22.73371
22.69832
22.64556
22.57299
22.47911
22.36506
22.23413
22.09137
21.94275
21.79458
21.65306
21.52378
21.41155
21.32087
21.25735
21.23187
21.26425
21.3641
21.54079
21.80273
22.15132
22.58152
23.0835
23.64286
24.24017
24.85478
25.47292
26.0901
26.70323
27.30148
27.86294
28.35685
28.74853
29.00467
29.09763
29.00834
28.72722
28.25467
27.60544
26.81206
25.92008
24.97915
24.03336
23.11506
22.24522
21.43177
20.67204
19.96463
19.30884
18.70328
18.14483
17.63159
17.16552
16.74517
16.36836
16.03257
15.73451
15.47044
15.23613
15.02698
14.8382
14.66503
14.50337
14.35045
14.20445
14.06403
13.92815
13.79604
13.66719
13.54136
13.41854
13.29892
13.18282
13.07063
12.96276
12.85952
12.76107
12.66727
12.57742
12.4897
12.39936
12.29487
12.15012
11.93244
11.93379
760.0806
621.0725
531.2127
468.6584
422.1491
385.5308
355.3177
329.6192
306.3955
263.1291
218.6004
189.4261
169.19
154.3118
142.7665
133.4223
125.6676
119.1155
94.20431
90.15796
86.28186
82.63439
79.29198
76.27155
73.5346
71.03374
68.72421
66.56097
64.57399
62.58938
60.5166
58.36953
56.18453
54.00913
51.88215
49.83975
47.91342
46.38864
45.21202
44.085
43.03915
42.08881
41.23805
40.49358
39.86592
39.36127
38.97287
38.66661
38.40481
38.15133
37.87873
37.57022
37.22232
36.83708
36.41343
35.95039
32.39694
31.8728
31.33672
30.79303
30.2535
29.72806
29.22165
28.73231
28.25337
27.77499
27.28974
26.79211
26.27926
25.75256
25.21721
24.68147
24.15473
23.64723
23.17064
22.73444
22.33558
21.97546
21.65736
21.38099
21.1409
20.93445
20.76566
20.63396
20.536
20.4677
20.42414
20.39914
20.38505
20.37306
20.35371
20.31788
20.25745
20.16628
20.04074
19.88172
19.69915
19.49666
19.29297
19.10755
18.95254
18.8317
18.75672
18.73332
18.72
18.68111
18.64241
18.60176
18.56024
18.51867
18.47563
18.42917
18.37719
18.31765
18.24882
18.16948
18.07902
17.97731
17.86463
17.74158
17.60893
17.46769
17.31892
17.16383
17.00408
16.84198
16.68048
16.52285
16.37222
16.23138
16.10286
15.989
15.8917
15.81231
15.75233
15.71366
15.69892
15.71139
15.75492
15.83304
15.94743
16.096
16.27143
16.4604
16.64497
16.80853
16.94272
17.04833
17.13012
17.19148
17.23175
17.2466
17.22997
17.17584
17.08068
16.94451
16.76801
16.55532
16.31343
16.05075
15.77607
15.4976
15.22244
14.95682
14.70671
14.47786
14.27566
14.10476
13.96879
13.87044
13.81275
13.79986
13.83693
13.92898
14.07792
14.27861
14.5158
14.7646
14.99549
15.18256
15.31039
15.37591
15.38603
15.35381
15.29446
15.22245
15.14961
15.08424
15.03102
14.99121
14.96325
14.94335
14.92622
14.90592
14.87662
14.83327
14.77201
14.69044
14.58776
14.46459
14.32298
14.16546
13.99525
13.80303
14.05822
14.2829
14.38844
14.41603
14.39705
14.35462
14.30513
14.25955
14.22436
14.20236
14.1936
14.19654
14.20946
14.2318
14.26463
14.31007
14.37052
14.44774
14.54246
14.65436
14.78201
14.92265
15.07222
15.22539
15.37685
15.52065
15.65186
15.76667
15.86295
15.93989
15.99759
16.03654
16.05668
16.05543
16.02589
15.95701
15.84408
15.71072
15.56636
15.41559
15.26346
15.1125
14.96358
14.81725
14.67371
14.53275
14.39381
14.25593
14.11696
13.97751
13.83919
13.70389
13.57434
13.45327
13.34282
13.24402
13.15648
13.07854
13.00775
12.94187
12.87957
12.8206
12.76526
12.7137
12.66554
12.61966
12.57432
12.52754
12.47772
12.42394
11.12226
11.03113
10.94359
10.85769
10.77315
10.68975
10.60759
10.52693
10.44787
10.37033
10.29412
10.21926
10.14613
10.07542
10.00786
9.943829
9.883231
9.825584
9.770403
9.717507
9.667089
9.619518
9.575083
9.533866
9.495777
9.460671
9.428387
9.398734
9.371439
9.346109
9.322271
9.299476
9.277341
9.255533
9.233732
9.211609
9.188825
9.165032
9.139892
9.113115
9.084491
9.053943
9.021529
8.987491
8.952267
8.916487
8.880848
8.845961
8.812538
8.781172
8.75218
8.725557
8.704407
8.688874
8.675745
8.663621
8.653168
8.64228
8.628947
8.61227
8.592116
8.56897
8.543677
8.517399
8.491536
8.467541
8.446738
8.430265
8.419195
8.414744
8.418454
8.432191
8.45791
8.497519
8.552875
8.625733
8.717667
8.830026
8.964138
9.121905
9.306266
9.520929
9.769582
10.05503
10.37841
10.73848
11.13102
11.54863
11.98051
12.41214
12.82525
13.19931
13.51475
13.75651
13.91577
13.9886
13.9745
13.87569
13.69757
13.44919
13.14263
12.79141
12.40939
12.00989
11.60502
11.205
10.818
10.45026
10.10536
9.784508
9.488054
9.215484
8.965648
8.737581
8.529954
8.341103
8.169224
8.012445
7.868905
7.736853
7.614698
7.501014
7.394577
7.29435
7.199517
7.109429
7.023644
6.941805
6.863721
6.789164
6.71802
6.649946
6.584636
6.521202
6.458818
6.396153
6.334444
6.279528
6.237502
671.9582
606.8981
551.458
510.632
478.3098
449.8915
425.5628
404.9877
387.9283
373.2488
182.7409
175.0691
169.5683
163.5602
157.5194
151.938
146.772
141.9421
137.2709
107.8343
101.1023
95.59008
91.25941
87.8822
85.18059
82.92926
80.96961
79.19976
77.57657
75.99003
74.249
72.41581
70.58424
68.81708
67.14475
65.57328
64.09876
62.69069
62.12904
61.28452
60.23097
59.05472
57.83121
56.61524
55.43225
54.28236
53.15289
52.04637
50.96903
49.9373
48.95032
47.99206
47.06031
46.16792
45.32698
44.55273
40.80255
40.17762
39.59394
39.05096
38.54142
38.05411
37.57763
37.10403
36.62718
36.1387
35.62785
35.08677
34.50959
33.89735
33.25878
32.60945
31.96538
31.34273
30.7597
30.23318
29.76911
29.36189
29.00087
28.67652
28.38233
28.11407
27.86915
27.64622
27.44355
27.25668
27.0745
26.88782
26.69818
26.51134
26.32466
26.13341
25.93189
25.70845
25.50923
25.27487
25.01768
24.74767
24.46816
24.18319
23.89443
23.60418
23.31285
23.0192
22.72124
22.41751
22.10759
21.79228
21.47379
21.15581
20.84266
20.53885
20.24822
19.97449
19.71962
19.48338
19.26495
19.06347
18.87793
18.70835
18.56068
18.43356
18.32546
18.23468
18.15908
18.09583
18.04124
17.99083
17.93961
17.88268
17.8158
17.73566
17.63988
17.5274
17.39988
17.25954
17.10987
16.95902
16.81506
16.68243
16.5641
16.46517
16.37679
16.29021
16.20525
16.12404
16.04672
15.97303
15.90205
15.83236
15.76254
15.69124
15.61736
15.5401
15.45903
15.37399
15.28497
15.19215
15.09599
14.99726
14.89689
14.79569
14.69435
14.59361
14.49453
14.39846
14.30674
14.22046
14.14042
14.0673
14.00165
13.94376
13.89371
13.85192
13.81958
13.79882
13.79273
13.80491
13.83784
13.89074
13.95855
14.03285
14.10433
14.1655
14.21251
14.24507
14.2648
14.27343
14.2713
14.25706
14.22794
14.18059
14.11202
14.02045
13.9053
13.76783
13.61136
13.44054
13.26033
13.07587
12.89121
12.70946
12.53341
12.36612
12.21105
12.07162
11.95091
11.85162
11.77661
11.72953
11.71499
11.73751
11.79909
11.89636
12.02007
12.15527
12.28496
12.39338
12.46918
12.50722
12.50832
12.47814
12.42456
12.35616
12.28062
12.20411
12.13088
12.06331
12.00207
11.94635
11.89412
11.84265
11.78891
11.7301
11.66378
11.58828
11.50251
11.40633
11.30036
11.18564
11.0643
10.93786
10.82367
10.70041
10.57442
10.45048
10.3323
10.22268
10.12369
10.03669
9.962318
9.900353
9.849787
9.809177
9.777197
9.753039
9.73648
9.727742
9.72718
9.735041
9.751349
9.775849
9.807905
9.846393
9.889625
9.935761
9.982415
10.02732
10.06835
10.10375
10.13221
10.15289
10.16538
10.16959
10.16554
10.15308
10.13177
10.10089
10.06053
10.01212
9.957032
9.896515
9.831819
9.764063
9.694138
9.622709
9.5502
9.476788
9.40244
9.327144
9.251136
9.175051
9.100198
9.027717
8.958013
8.891595
8.829072
8.771184
8.718072
8.669223
8.623711
8.580625
8.539423
8.499993
8.462447
8.426902
8.393345
8.361506
8.330845
8.300692
8.270304
8.237241
8.221519
8.201529
8.177617
8.149609
8.117709
8.082564
8.045026
8.005848
7.965642
7.9248
7.883453
7.841669
7.799722
7.758164
7.717678
7.67884
7.641855
7.606501
7.572349
7.539078
7.506664
7.475337
7.445391
7.417019
7.39027
7.36513
7.341584
7.319629
7.299232
7.280252
7.262432
7.245481
7.229144
7.213214
7.197506
7.181832
7.165996
7.149784
7.132963
7.115287
7.096523
7.076476
7.055011
7.03209
7.007787
6.982305
6.955973
6.929201
6.902466
6.876335
6.851502
6.829308
6.810165
6.793967
6.780759
6.7689
6.757157
6.744761
6.731062
6.715495
6.697737
6.677804
6.656041
6.633058
6.609659
6.586715
6.56501
6.545133
6.527486
6.512407
6.500367
6.492082
6.488432
6.490363
6.498878
6.515048
6.539984
6.574817
6.620769
6.679323
6.752348
6.84207
6.950906
7.081254
7.235217
7.414261
7.618926
7.848623
8.101359
8.373186
8.657828
8.947017
9.231679
9.503338
9.754766
9.979611
10.17164
10.32483
10.4337
10.49375
10.50217
10.45851
10.36511
10.22667
10.04966
9.841619
9.610454
9.363892
9.109026
8.851997
8.59791
8.35087
8.113983
7.888836
7.676307
7.476812
7.290334
7.11648
6.9547
6.804302
6.664445
6.534241
6.412797
6.299252
6.192803
6.092758
5.998494
5.909519
5.825369
5.745707
5.670127
5.598356
5.5299
5.464499
5.401593
5.341316
5.28365
5.230296
5.183899
381.146
282.7062
383.5799
175.241
136.2928
96.61012
83.63092
72.74259
64.35891
60.53518
59.48951
59.39368
59.66873
60.77147
61.88348
63.13043
64.44785
65.64902
66.67279
67.3998
67.71275
67.81339
67.54637
67.15127
66.7342
66.2459
65.67102
65.01559
64.29476
63.51709
62.66409
59.64292
58.77468
57.88484
56.97506
56.05181
55.12542
54.20327
53.2922
52.40024
51.5315
50.68808
49.87523
49.09622
48.34948
47.62679
46.9187
46.22339
45.54711
44.88958
44.23972
43.58912
42.9441
42.32058
41.72782
41.16221
40.6106
40.05822
39.50272
38.95665
38.43203
37.92804
37.43774
36.96191
36.50611
36.07127
35.6516
35.23302
34.86669
34.49169
34.11635
33.74676
33.38314
33.02084
32.65616
32.28834
31.91793
31.54355
31.1621
30.76954
30.36364
29.94734
29.53123
29.12913
28.75669
28.4306
28.16443
27.95821
27.79359
27.6457
27.49684
27.33947
27.16744
26.96988
26.73876
26.47885
26.20737
25.94325
25.69519
25.45992
25.2307
25.0058
24.78541
24.56861
24.35134
24.12857
23.89609
23.64981
23.38939
23.11684
22.83615
22.55263
22.27279
21.99918
21.73196
21.47047
21.21396
20.96243
20.71662
20.4775
20.24601
20.02326
19.81049
19.60798
19.41479
19.22995
19.05282
18.88149
18.71373
18.54919
18.38961
18.23965
18.10087
17.97253
17.85399
17.74485
17.64468
17.55269
17.46753
17.38731
17.30977
17.23259
17.15378
17.07149
16.98356
16.88728
16.78018
16.66112
16.53026
16.39061
16.24718
16.10493
15.96656
15.83517
15.71128
15.59267
15.47831
15.36862
15.26495
15.16758
15.07585
14.98873
14.90527
14.82471
14.74636
14.66972
14.59452
14.52052
14.44743
14.375
14.30329
14.23302
14.16534
14.10118
14.04052
13.9825
13.92626
13.87154
13.81858
13.76755
13.71813
13.66958
13.62119
13.5724
13.5226
13.47115
13.41844
13.36638
13.31869
13.28086
13.25839
13.25332
13.26193
13.27628
13.28805
13.29162
13.28486
13.26827
13.24361
13.21283
13.17704
13.13608
13.08861
13.0326
12.9656
12.88544
12.7907
12.6816
12.56023
12.42993
12.29475
12.15879
12.02481
11.89342
11.76453
11.63849
11.51693
11.4025
11.29816
11.20683
11.13148
11.07564
11.04415
11.04196
11.07149
11.12961
11.20697
11.29061
11.36731
11.42597
11.45907
11.46343
11.43991
11.39255
11.32723
11.25026
11.16736
11.08322
11.00121
10.92335
10.85049
10.78247
10.71825
10.65619
10.59443
10.53119
10.46497
10.39459
10.3192
10.23837
10.15214
10.06094
9.965601
9.86708
9.767506
9.667791
9.568999
9.472549
9.379852
9.29238
9.211648
9.138853
9.074957
9.020073
8.973395
8.933576
8.899433
8.870273
8.84599
8.826908
8.813447
8.805967
8.804678
8.8096
8.820416
8.836569
8.856895
8.879898
8.903843
8.927124
8.948035
8.965191
8.977501
8.984234
8.985008
8.979908
8.969064
8.952685
8.930807
8.903197
8.869634
8.830435
8.786404
8.738497
8.687742
8.635034
8.58102
8.526088
8.470432
8.413935
8.35635
8.297294
8.236575
8.174314
8.111184
8.048147
7.98638
7.92715
7.871515
7.819954
7.772676
7.729393
7.689252
7.651142
7.614192
7.57806
7.542921
7.509202
7.477266
7.447253
7.418992
7.392138
7.366156
7.340569
7.315572
7.290134
7.263269
7.23431
7.203059
7.169788
7.135028
7.099338
7.063329
7.02748
6.99178
6.955965
6.919942
6.884039
6.848928
6.815362
6.783767
6.753942
6.725201
6.696838
6.668534
6.640422
6.612879
6.586244
6.560679
6.536236
6.513006
6.491138
6.47076
6.451868
6.434266
6.417657
6.401774
6.386426
6.37146
6.356728
6.34208
6.327356
6.312364
6.296874
6.280627
6.263367
6.24488
6.225016
6.203704
6.180981
6.157021
6.13214
6.106781
6.081546
6.057283
6.03485
6.014642
5.996714
5.980883
5.966659
5.953312
5.940003
5.925932
5.910457
5.893183
5.873995
5.853043
5.830692
5.807477
5.784038
5.761004
5.738837
5.717741
5.697717
5.678792
5.661223
5.645482
5.632132
5.621801
5.6152
5.613114
5.616382
5.625915
5.642716
5.667914
5.702765
5.748612
5.806849
5.878864
5.965946
6.069175
6.189294
6.326505
6.480191
6.648674
6.829181
7.018175
7.211914
7.406851
7.599536
7.786332
7.963153
8.125455
8.268497
8.387733
8.479198
8.539857
8.567925
8.563007
8.526058
8.459231
8.36564
8.249061
8.113627
7.963537
7.802809
7.635121
7.463726
7.291427
7.120564
6.953015
6.790299
6.633478
6.483205
6.339863
6.203609
6.074394
5.952013
5.836254
5.726831
5.623399
5.525626
5.43315
5.345654
5.262766
5.184192
5.109541
5.038586
4.97097
4.90669
4.845584
4.788314
4.737152
350.6127
237.6708
180.8116
156.4948
126.6311
103.0607
87.4847
80.95651
74.0019
69.96855
66.65943
62.55999
58.63136
55.14538
52.24048
49.28944
44.37861
43.74376
43.56028
43.96969
45.05713
46.57892
48.30603
50.15078
52.09512
54.01717
55.7622
57.46325
58.61459
59.34469
59.7402
59.8576
59.77997
59.50877
59.09743
58.58325
58.02458
57.43826
56.83822
56.21883
55.58882
54.91293
54.20604
53.51146
52.8187
52.11249
51.3934
50.66494
49.93163
49.20199
48.48879
47.80349
47.15198
46.53943
45.96812
45.4298
44.90693
44.38595
43.86875
43.36362
42.86563
42.36021
41.84704
41.35137
40.89795
40.47984
40.0715
39.64742
39.20314
38.76096
38.34571
37.95949
37.58547
37.21686
36.86255
36.52269
36.17871
35.80985
35.39884
34.95486
34.49928
34.04963
33.6115
33.18416
32.76328
32.34279
31.92181
31.5033
31.09041
30.68301
30.27919
29.88099
29.50093
29.16463
28.88618
28.68721
28.59387
28.61275
28.70586
28.8062
28.86124
28.85727
28.80624
28.70285
28.51462
28.21417
27.8164
27.38693
26.99111
26.62019
26.26401
25.91726
25.58056
25.25774
24.95146
24.65942
24.3758
24.09326
23.80635
23.51209
23.20988
22.90187
22.59261
22.288
21.99307
21.71039
21.44022
21.18297
20.94084
20.71729
20.51552
20.33638
20.17867
20.04045
19.91684
19.79909
19.67965
19.55417
19.41752
19.26767
19.10856
18.94984
18.79489
18.64303
18.49376
18.34717
18.20438
18.06688
17.93571
17.81132
17.69382
17.58295
17.47835
17.37983
17.28654
17.19555
17.10173
16.99885
16.88184
16.74856
16.6012
16.44499
16.28514
16.12492
15.96657
15.81191
15.66135
15.51555
15.37639
15.24626
15.12611
15.01563
14.91399
14.82057
14.73505
14.65719
14.58673
14.52334
14.46645
14.41495
14.36747
14.32307
14.28203
14.24593
14.2162
14.19229
14.17133
14.14985
14.12584
14.09907
14.06976
14.03706
13.99888
13.95323
13.89913
13.83572
13.76181
13.67734
13.58474
13.48948
13.39997
13.32547
13.27104
13.23294
13.20062
13.16418
13.11916
13.06567
13.0056
12.9413
12.87503
12.80844
12.74205
12.67521
12.60651
12.53399
12.45529
12.36822
12.2721
12.16838
12.06005
11.95154
11.84786
11.75081
11.65804
11.56548
11.4707
11.37387
11.27741
11.18493
11.10039
11.02768
10.97054
10.93382
10.92291
10.94037
10.98176
11.03563
11.08815
11.12794
11.14749
11.14299
11.11396
11.06265
10.99326
10.91107
10.82132
10.7286
10.63662
10.54792
10.46384
10.38481
10.31055
10.24026
10.17269
10.10651
10.04062
9.974194
9.906608
9.837253
9.765625
9.691487
9.614792
9.535696
9.454514
9.371811
9.288307
9.204856
9.122328
9.041737
8.964342
8.891672
8.825288
8.766456
8.715588
8.671741
8.633165
8.598412
8.566757
8.538186
8.513002
8.491674
8.474669
8.462397
8.455156
8.452984
8.455506
8.46186
8.470766
8.480746
8.490307
8.498083
8.502834
8.503532
8.499472
8.490387
8.476408
8.457924
8.435421
8.409237
8.379337
8.345473
8.307676
8.266521
8.222944
8.177917
8.132207
8.086237
8.040097
7.993669
7.946678
7.898646
7.848933
7.796996
7.742714
7.686543
7.629352
7.572361
7.516829
7.463978
7.414853
7.370025
7.329201
7.291144
7.254252
7.21751
7.180917
7.144955
7.110209
7.077323
7.046927
7.019186
6.993699
6.969819
6.946831
6.923988
6.900499
6.87546
6.848007
6.817801
6.785024
6.750355
6.714675
6.678914
6.643907
6.609629
6.575414
6.540799
6.506022
6.471922
6.4396
6.409805
6.382302
6.355936
6.329418
6.302092
6.274074
6.245926
6.218203
6.191193
6.16501
6.13986
6.116094
6.09401
6.073648
6.054789
6.037075
6.020181
6.003896
5.988072
5.972568
5.957261
5.942038
5.926751
5.91118
5.89504
5.878022
5.859847
5.840296
5.819223
5.796579
5.772456
5.747104
5.720929
5.694532
5.668738
5.644337
5.621952
5.601886
5.584058
5.568062
5.553261
5.53887
5.524092
5.508233
5.490812
5.47162
5.450704
5.428306
5.404819
5.38078
5.356804
5.333397
5.310732
5.288592
5.26666
5.244903
5.223627
5.203241
5.184156
5.166891
5.152089
5.140446
5.132715
5.129679
5.132125
5.140812
5.156456
5.179761
5.211458
5.252318
5.303117
5.364581
5.43731
5.521623
5.617397
5.723963
5.840141
5.964365
6.094832
6.229585
6.366494
6.503197
6.63711
6.765477
6.885501
6.994488
7.089906
7.169594
7.231868
7.275515
7.299835
7.304662
7.290341
7.257686
7.207905
7.142501
7.063194
6.971857
6.870458
6.76099
6.64542
6.525614
6.403268
6.279905
6.156848
6.035205
5.915902
5.799725
5.687174
5.57854
5.47402
5.373771
5.277825
5.186156
5.098644
5.01517
4.935518
4.859566
4.787072
4.718009
4.652225
4.590026
4.534095
187.2369
137.5195
209.5298
101.71
86.43559
72.86546
68.60749
65.38813
62.00776
60.40697
58.47629
55.92542
53.59695
51.2566
48.65572
43.56852
42.45811
41.49824
40.66391
39.95477
39.32727
38.82175
38.48621
38.34647
38.41374
38.66684
39.01974
39.58848
40.48462
41.73015
43.28732
45.1202
47.12736
49.07392
50.94814
52.65585
53.86253
54.6956
55.10336
55.15901
54.92813
54.48635
53.9181
53.29639
52.69914
52.15107
51.69496
51.31474
51.00113
50.74784
50.54496
50.35713
50.18075
50.00896
49.81149
49.56591
49.27361
48.94756
48.60634
48.27274
47.99011
47.79047
47.66549
47.60493
47.58274
47.54474
47.43886
47.26305
47.06455
46.86653
46.63161
46.32702
45.99943
45.75355
45.61794
45.49454
45.28041
44.92485
44.47306
44.04342
43.6916
43.38402
43.05496
42.70973
42.39795
42.10597
41.74083
41.23929
40.57623
39.81897
39.09077
38.36558
37.63825
36.91774
36.21249
35.52389
34.85111
34.20162
33.58878
33.02518
32.5169
32.06464
31.66767
31.3473
31.15288
31.12479
31.31695
31.71024
32.16668
32.52881
32.72857
32.79246
32.79308
32.72666
32.51107
32.07767
31.44489
30.77304
30.15206
29.56481
28.99337
28.433
27.88917
27.37362
26.89633
26.45678
26.04561
25.65083
25.26294
24.87618
24.4887
24.10263
23.72382
23.36076
23.02152
22.7093
22.42168
22.15729
21.92082
21.71985
21.55711
21.42983
21.33873
21.28028
21.24106
21.19789
21.13271
21.0373
20.90191
20.7293
20.53782
20.34656
20.15302
19.9558
19.75386
19.54872
19.34483
19.14702
18.95792
18.77869
18.61072
18.45545
18.31421
18.18867
18.07874
17.97918
17.87998
17.76956
17.6385
17.48311
17.30694
17.11846
16.92547
16.73212
16.53934
16.34813
16.16038
15.97881
15.80741
15.65001
15.50817
15.38171
15.2701
15.17338
15.09194
15.02588
14.97483
14.93794
14.91349
14.89836
14.88839
14.88009
14.87287
14.86955
14.87341
14.88376
14.89474
14.8989
14.89208
14.87475
14.84878
14.81381
14.7665
14.70334
14.62326
14.5259
14.41058
14.27766
14.13049
13.97682
13.82906
13.70015
13.59663
13.51265
13.43427
13.35101
13.26029
13.16412
13.06509
12.96551
12.86751
12.77314
12.68384
12.59978
12.51991
12.44258
12.36517
12.2841
12.1974
12.10649
12.01482
11.928
11.85317
11.79118
11.73485
11.67439
11.60395
11.5234
11.43657
11.34903
11.26743
11.19684
11.1403
11.10202
11.08817
11.10176
11.13636
11.17638
11.20562
11.21425
11.19875
11.15928
11.09822
11.01936
10.92739
10.82734
10.72369
10.62041
10.52069
10.42632
10.33772
10.2545
10.17601
10.10137
10.0295
9.959375
9.890464
9.822731
9.756174
9.690418
9.624861
9.559042
9.49256
9.424961
9.355941
9.285458
9.213641
9.140748
9.067253
8.994009
8.922242
8.853695
8.790408
8.734222
8.685717
8.643564
8.605503
8.569719
8.535535
8.502978
8.472404
8.444306
8.419298
8.398073
8.381264
8.369188
8.361629
8.357773
8.356354
8.355956
8.355244
8.352985
8.347973
8.339109
8.325606
8.307233
8.284309
8.257492
8.227633
8.195418
8.160903
8.123724
8.083842
8.041927
7.999067
7.956263
7.91411
7.872712
7.831781
7.790869
7.749499
7.707049
7.662645
7.615463
7.565186
7.512247
7.457682
7.402755
7.34874
7.296916
7.248548
7.204518
7.164647
7.127357
7.090383
7.052359
7.013554
6.975051
6.937897
6.903142
6.871655
6.843743
6.819047
6.796752
6.775815
6.75503
6.733078
6.708768
6.681332
6.6505
6.6166
6.580517
6.543458
6.506805
6.471771
6.438257
6.40502
6.371091
6.336645
6.3028
6.271144
6.242824
6.217487
6.193331
6.168274
6.141298
6.112634
6.083112
6.053539
6.024363
5.995818
5.96828
5.942321
5.918339
5.896348
5.876057
5.857018
5.838829
5.82124
5.80409
5.787225
5.770549
5.754012
5.737531
5.720906
5.703816
5.685893
5.66681
5.646297
5.624151
5.600275
5.574725
5.547713
5.519619
5.491027
5.462755
5.435725
5.410806
5.388525
5.368928
5.351633
5.335953
5.321003
5.305862
5.289724
5.272021
5.252495
5.23118
5.208296
5.184181
5.159331
5.13441
5.110048
5.086483
5.063322
5.039863
5.015786
4.991352
4.966965
4.942954
4.919742
4.897868
4.878001
4.860907
4.847318
4.837859
4.832985
4.832996
4.838117
4.848613
4.864849
4.887284
4.916456
4.952948
4.997306
5.049908
5.110845
5.179845
5.256288
5.339273
5.427678
5.520187
5.615297
5.711312
5.806394
5.89874
5.986732
6.068913
6.14403
6.211085
6.269298
6.318046
6.356837
6.385282
6.403068
6.409954
6.405782
6.390503
6.364214
6.3272
6.279948
6.223159
6.157714
6.084652
6.005121
5.920328
5.831486
5.739771
5.646277
5.551991
5.457843
5.364567
5.27259
5.182374
5.094335
5.008749
4.925831
4.845664
4.768356
4.693873
4.622309
4.553631
4.48813
4.428876
80.17639
57.60914
53.6682
50.63743
49.22621
47.49659
46.00463
44.66601
43.45649
41.77547
38.22375
37.73924
37.29066
36.87855
36.47139
36.06585
35.70688
35.42211
35.22591
35.10157
34.90628
34.56677
34.28
34.07521
33.95857
33.94121
34.03972
34.26729
34.63814
35.15608
35.81092
36.65845
37.78862
39.14005
40.74735
42.52934
44.43883
46.52937
48.21445
49.5405
50.48888
50.98429
51.06513
50.7442
50.10796
49.27467
48.38135
47.55199
46.91173
46.5289
46.41154
46.55086
46.91328
47.46161
48.14023
48.8879
49.69999
50.53233
51.31029
51.96792
52.49533
52.92678
53.33756
53.7914
54.33858
55.10578
56.11686
57.22158
58.32569
59.30056
59.99461
60.33465
60.41149
60.4328
60.46861
60.3996
60.18644
59.9804
59.98581
60.15866
60.18193
59.84833
59.17054
58.35828
57.67186
57.04474
56.43646
55.79742
55.18771
54.70141
54.25158
53.57612
52.58186
51.31006
49.93698
48.59923
47.28879
45.96653
44.64435
43.37413
42.18523
41.05992
39.98977
39.01064
38.17851
37.51489
36.99758
36.59528
36.28367
36.12759
36.25093
36.7579
37.54776
38.29148
38.7534
38.92418
38.90614
38.88421
38.85551
38.64891
38.135
37.31249
36.40611
35.54747
34.69674
33.80546
32.87435
31.95885
31.10922
30.34608
29.66204
29.03263
28.43419
27.85501
27.293
26.75117
26.23343
25.74594
25.30028
24.90925
24.57496
24.28334
24.02209
23.79765
23.6279
23.52269
23.47096
23.45655
23.47905
23.52146
23.53596
23.48741
23.36443
23.16104
22.89561
22.61563
22.33927
22.06501
21.78559
21.49737
21.20454
20.91788
20.64695
20.393
20.15345
19.92927
19.72406
19.5417
19.38646
19.25817
19.14595
19.03175
18.89827
18.73333
18.5331
18.30553
18.06597
17.82694
17.59281
17.36218
17.13407
16.91061
16.69552
16.49487
16.31479
16.15796
16.025
15.91651
15.8332
15.77542
15.74277
15.73389
15.7464
15.77603
15.81551
15.85525
15.88726
15.90995
15.92948
15.95392
15.9836
16.00795
16.01322
15.99354
15.95296
15.89782
15.82941
15.74313
15.63444
15.5034
15.35118
15.17787
14.98501
14.77728
14.56402
14.36067
14.18218
14.0331
13.90552
13.78604
13.66467
13.5383
13.40881
13.27839
13.14958
13.02506
12.90795
12.80098
12.70566
12.62164
12.54685
12.47721
12.40694
12.33257
12.25518
12.1792
12.11389
12.06985
12.04539
12.02507
11.99151
11.93723
11.86442
11.77981
11.69177
11.61024
11.54076
11.48396
11.44327
11.42683
11.43913
11.47106
11.50026
11.50633
11.48251
11.43143
11.35768
11.26601
11.16117
11.048
10.93103
10.81401
10.70079
10.59444
10.49592
10.40442
10.31842
10.23672
10.15838
10.08238
10.00797
9.935331
9.865475
9.79925
9.736372
9.675809
9.616753
9.558495
9.499935
9.440038
9.378236
9.31424
9.247906
9.179444
9.109298
9.039027
8.971231
8.908801
8.853923
8.806885
8.765587
8.727155
8.689581
8.652159
8.615012
8.578556
8.543325
8.510188
8.480334
8.454868
8.434343
8.418518
8.406425
8.396706
8.387981
8.379033
8.3687
8.35571
8.338748
8.316797
8.289602
8.257638
8.221917
8.18392
8.144829
8.104617
8.062632
8.01882
7.974236
7.930377
7.888264
7.848119
7.809512
7.771682
7.733822
7.695318
7.655557
7.613518
7.568094
7.518892
7.466559
7.412415
7.357845
7.304024
7.252099
7.2034
7.159029
7.118853
7.080903
7.042285
7.001423
6.959164
6.917281
6.877218
6.840358
6.807825
6.780015
6.756475
6.736037
6.717067
6.697729
6.676226
6.651183
6.621967
6.588724
6.55223
6.51363
6.474282
6.436023
6.400539
6.367579
6.335119
6.301651
6.267359
6.233763
6.203022
6.176595
6.153577
6.131284
6.107073
6.079801
6.049971
6.018715
5.987052
5.955572
5.924653
5.894856
5.866913
5.84126
5.817828
5.796254
5.776007
5.756603
5.737719
5.719143
5.700687
5.682287
5.664001
5.645843
5.627637
5.609019
5.589552
5.568847
5.546614
5.522634
5.496802
5.469169
5.439947
5.409488
5.378336
5.347304
5.317451
5.289897
5.265409
5.244197
5.225956
5.209893
5.194844
5.179614
5.163256
5.145149
5.125049
5.103063
5.079473
5.054612
5.028948
5.003161
4.977979
4.953716
4.929845
4.90533
4.879625
4.853019
4.825998
4.798864
4.771938
4.74573
4.720945
4.698351
4.678716
4.662647
4.650414
4.641973
4.637143
4.635812
4.638029
4.644018
4.654172
4.669043
4.689265
4.715455
4.748078
4.787323
4.833018
4.884641
4.941396
5.002292
5.066201
5.1319
5.198082
5.263452
5.326908
5.387461
5.444267
5.496737
5.544525
5.587469
5.625536
5.658724
5.686993
5.710205
5.7281
5.7403
5.746338
5.745718
5.73798
5.722765
5.699872
5.669292
5.631219
5.586046
5.534336
5.47679
5.414196
5.347407
5.277294
5.204716
5.130566
5.055345
4.979525
4.903701
4.828405
4.754029
4.680954
4.609405
4.53968
4.471933
4.40658
4.346957
103.6206
43.53872
35.1259
33.26377
32.19347
31.54629
31.20194
31.05241
31.05336
31.16767
31.2301
31.08979
30.95551
30.82892
30.71095
30.60272
30.51373
30.44792
30.39989
30.35408
30.2981
30.25537
30.26518
30.3511
30.51705
30.77616
31.13978
31.61602
32.21732
32.96925
33.96346
35.2218
36.71836
38.42359
40.40743
42.34956
44.16379
45.75569
46.94023
47.65406
47.88842
47.63003
46.93302
45.89617
44.67314
43.4514
42.43369
41.8226
41.77722
42.32004
43.39477
44.8942
46.72349
48.805
51.05021
53.4174
55.99355
58.61167
61.00501
63.01745
64.72401
66.35054
68.29333
70.68249
73.36154
76.1631
78.66517
80.67533
82.22535
83.17643
83.44071
83.14548
82.54215
82.05606
81.75805
81.38877
80.93825
80.69137
80.65231
80.41056
79.63532
78.31961
76.70134
75.19083
74.04346
73.00673
71.84644
70.75615
69.83024
69.06842
68.24515
66.99057
65.30754
63.34887
61.33266
59.46314