/*--------------------------------*- C++ -*----------------------------------*\
| =========                 |                                                 |
| \\      /  F ield         | foam-extend: Open Source CFD                    |
|  \\    /   O peration     | Version:     3.1                                |
|   \\  /    A nd           | Web:         http://www.extend-project.de       |
|    \\/     M anipulation  |                                                 |
\*---------------------------------------------------------------------------*/
FoamFile
{
    version     2.0;
    format      ascii;
    class       volScalarField;
    location    "18";
    object      pd;
}
// * * * * * * * * * * * * * * * * * * * * * * * * * * * * * * * * * * * * * //

dimensions      [1 -1 -2 0 0 0 0];

internalField   nonuniform List<scalar> 
119952
(
5776.669
5115
5011.126
5105.905
5219.644
5137.325
5120.719
5110.506
5109.404
5113.781
5120.462
5129.931
5141.338
5154.185
5167.989
5182.193
5196.022
5207.854
5211.86
5186.482
5349.733
5270.99
5251.146
5454.083
5436.529
5468.594
5491.063
5552.195
5728.55
5880.313
4019.19
3982.217
3978.609
3967.325
3959.152
3954.374
3954.963
3962.607
3979.335
3984.077
4020.53
4057.583
4100.347
4148.747
4201.345
4256.995
4314.024
4371.282
4426.731
4518.371
4552.785
4587.906
4630.893
4671.075
4707.861
4742.22
4774.118
4802.771
4829.075
4847.912
4872.046
4894.831
4915.496
4934.898
4953.462
4971.17
4991.852
5036.019
5119.365
5060.752
5050.245
5094.083
5118.132
5115.826
5104.912
5102.723
5104.813
5110.436
5118.99
5129.953
5142.675
5156.646
5171.404
5186.388
5200.969
5214.522
5227.191
5241.547
5267.023
5289.624
5302.946
5356.879
5429.232
5450.709
5468.361
5485.913
5468.44
5364.82
5355.852
5390.363
5409.301
5428.275
5446.358
5463.21
5479.694
5495.823
5511.515
5526.726
5541.372
5555.354
5568.587
5580.996
5592.531
5603.171
5612.926
5621.825
5629.943
5637.337
5644.003
5649.966
5655.259
5659.932
5664.048
5667.664
5670.837
5673.645
5676.18
5678.579
5680.938
5683.36
5685.966
5688.906
5692.309
5696.246
5700.676
5705.395
5710.045
5714.239
5718.011
5721.989
5726.623
5731.591
5736.268
5740.285
5743.573
5746.334
5749.515
5754.359
5758.644
5760.286
5761.671
5763.358
5765
5766.655
5768.371
5770.134
5772.019
5773.828
5775.753
5777.711
5779.75
5781.933
5784.32
5787.05
5790.174
5793.538
5797.184
5801.041
5804.967
5808.719
5812.03
5814.731
5816.912
5818.801
5820.524
5822.059
5823.321
5824.312
5825.082
5825.711
5826.282
5826.871
5827.537
5828.33
5829.282
5830.409
5831.709
5833.163
5834.737
5836.393
5838.085
5839.767
5841.377
5842.822
5844.013
5844.748
5845.102
5850.565
5851.181
5851.485
5851.62
5851.626
5851.462
5851.167
5850.772
5850.326
5849.875
5849.452
5849.049
5848.742
5848.463
5848.268
5848.086
5847.923
5847.783
5847.664
5847.562
5847.47
5847.376
5847.256
5847.088
5846.843
5846.485
5845.979
5845.287
5844.368
5843.16
5841.584
5839.521
5836.752
5832.779
5826.441
5819.352
5826.728
5832.068
5835.33
5837.763
5839.711
5841.351
5842.732
5843.911
5844.912
5845.753
5846.467
5846.867
5847.147
5847.254
5847.184
5846.943
5846.541
5845.994
5845.337
5844.614
5843.867
5843.14
5842.467
5841.867
5841.356
5840.937
5840.597
5840.29
5840.158
5840.136
5840.227
5840.455
5840.795
5841.004
5856.461
5849.942
5842.28
5843.33
5844.205
5844.451
5845.011
5845.81
5846.684
5847.648
5848.722
5849.906
5851.184
5852.533
5853.934
5855.376
5856.847
5858.333
5859.817
5861.279
5862.694
5864.037
5865.295
5866.46
5867.538
5868.52
5869.415
5870.217
5870.942
5871.577
5872.136
5872.608
5873
5873.299
5873.51
5873.624
5873.644
5873.57
5873.411
5873.176
5872.882
5872.537
5872.188
5871.886
5871.627
5871.025
5869.422
5867.354
5865.616
5863.928
5862.262
5860.713
5858.929
5854.94
5850.076
5850.849
5851.23
5849.813
5848.318
5846.952
5845.519
5844.056
5842.603
5841.152
5839.682
5838.182
5836.652
5835.089
5833.493
5831.86
5830.202
5828.493
5826.729
5824.919
5823.08
5821.253
5819.473
5817.748
5816.068
5814.431
5812.844
5811.314
5809.832
5808.374
5806.924
5805.468
5803.999
5802.51
5801.003
5799.479
5797.941
5796.396
5794.899
5793.509
5792.262
5791.212
5790.356
5789.623
5789.007
5788.455
5787.923
5787.427
5786.976
5786.58
5786.232
5785.97
5785.778
5785.639
5785.626
5785.66
5785.74
5785.857
5785.992
5786.128
5786.25
5786.341
5786.389
5786.387
5786.325
5786.193
5785.983
5785.688
5785.302
5784.82
5784.234
5783.54
5782.727
5781.783
5780.689
5779.42
5777.937
5776.186
5774.083
5771.478
5768.136
5763.835
5759.423
5761.403
5783.468
3037.91
3057.552
3070.725
3083.154
3096.827
3113.25
3129.157
3147.768
3164.812
3152.366
3189.703
3208.196
3224.598
3237.299
3248.906
3260.021
3271.931
3282.805
3316.363
3348.563
3354.871
3387.511
3429.178
3476.283
3529.72
3586.752
3645.672
3705.206
3760.185
3805.708
3855.538
3896.733
3930.416
3955.507
3974.105
3985.803
3992.376
3995.226
3978.111
3963.404
3952.092
3943.088
3938.633
3940.274
3949.062
3965.845
3989.06
4019.132
4060.942
4106.697
4157.165
4211.99
4269.146
4327.36
4385.456
4442.678
4515.705
4569.224
4612.005
4650.854
4689.013
4725.019
4758.054
4788.231
4815.764
4841.199
4865.68
4888.043
4908.363
4927.613
4946.475
4965.504
4985.395
5007.292
5029.931
5049.434
5056.43
5057.08
5065.579
5076.288
5082.857
5085.452
5088.454
5094.165
5103.198
5114.879
5128.529
5143.675
5159.901
5176.792
5193.971
5211.187
5228.462
5246.262
5265.402
5286.691
5310.531
5337.06
5367.793
5399.711
5423.06
5435.118
5435.866
5426.643
5407.876
5396.783
5406.016
5422.853
5438.883
5454.62
5470.658
5486.936
5503.127
5518.99
5534.373
5549.133
5563.133
5576.265
5588.451
5599.645
5609.845
5619.096
5627.481
5635.076
5641.949
5648.115
5653.561
5658.311
5662.428
5666.004
5669.112
5671.806
5674.16
5676.247
5678.274
5680.307
5682.404
5684.746
5687.555
5690.997
5695.177
5700.087
5705.535
5711.172
5716.637
5721.734
5726.529
5731.173
5735.636
5739.779
5743.539
5746.983
5750.263
5753.494
5756.601
5759.387
5761.654
5763.495
5765.053
5766.49
5767.964
5769.539
5771.217
5772.968
5774.725
5776.476
5778.243
5780.103
5782.167
5784.551
5787.263
5790.386
5793.861
5797.668
5801.785
5806.086
5810.365
5814.33
5817.724
5820.433
5822.49
5823.99
5824.998
5825.639
5826.044
5826.324
5826.588
5826.931
5827.424
5828.11
5829.007
5830.114
5831.421
5832.91
5834.542
5836.285
5838.084
5839.901
5841.675
5843.355
5844.914
5846.337
5847.789
5849.208
5850.307
5851.37
5851.688
5851.692
5851.52
5851.176
5850.722
5850.212
5849.702
5849.239
5848.85
5848.537
5848.284
5848.062
5847.86
5847.67
5847.503
5847.372
5847.282
5847.234
5847.221
5847.229
5847.234
5847.203
5847.097
5846.871
5846.45
5845.873
5845.037
5843.885
5842.374
5840.433
5837.979
5835.029
5832.094
5830.413
5831.67
5834.769
5837.215
5839.253
5841.077
5842.612
5843.939
5845.092
5846.077
5846.89
5847.521
5847.931
5848.149
5848.162
5847.968
5847.608
5847.064
5846.388
5845.627
5844.83
5844.045
5843.308
5842.642
5842.049
5841.529
5841.083
5840.724
5840.454
5840.298
5840.284
5840.405
5840.672
5841.112
5841.918
5846.119
5848.229
5846.517
5844.497
5844.417
5844.951
5845.491
5846.141
5846.959
5847.934
5849.043
5850.263
5851.567
5852.933
5854.352
5855.821
5857.326
5858.852
5860.369
5861.84
5863.238
5864.547
5865.757
5866.873
5867.892
5868.831
5869.695
5870.477
5871.181
5871.808
5872.361
5872.834
5873.222
5873.518
5873.716
5873.816
5873.816
5873.722
5873.537
5873.268
5872.921
5872.507
5872.016
5871.425
5870.665
5869.637
5868.269
5866.657
5864.952
5863.264
5861.558
5859.736
5857.502
5854.921
5852.19
5850.537
5849.975
5849.482
5848.579
5847.303
5845.864
5844.402
5842.937
5841.443
5839.897
5838.305
5836.679
5835.024
5833.343
5831.628
5829.878
5828.087
5826.257
5824.395
5822.525
5820.669
5818.843
5817.062
5815.329
5813.648
5812.024
5810.456
5808.94
5807.467
5806.027
5804.609
5803.205
5801.813
5800.438
5799.072
5797.72
5796.392
5795.108
5793.904
5792.838
5791.911
5791.109
5790.405
5789.749
5789.114
5788.514
5787.956
5787.441
5786.99
5786.617
5786.322
5786.114
5786.023
5785.862
5785.85
5785.945
5786.076
5786.207
5786.339
5786.459
5786.551
5786.6
5786.599
5786.537
5786.404
5786.192
5785.893
5785.501
5785.008
5784.411
5783.704
5782.88
5781.927
5780.834
5779.579
5778.144
5776.496
5774.624
5772.536
5770.416
5768.679
5768.165
5769.444
5772.82
4389.146
4603.332
4828.461
5058.878
5281.694
5494.903
5683.141
5837.4
5949.619
6003.627
6002.877
5953.633
5856.276
5715.105
5539.358
5338.443
5121.693
4897.636
4679.165
4419.798
4227.468
4045.654
3879.625
3732.251
3604.224
3494.763
3401.868
3323.79
3260.93
3198.722
3145.658
3105.405
3072.886
3048.758
3033.618
3026.982
3028.362
3040.092
3047.931
3049.046
3063.376
3078.608
3093.174
3109.14
3126.17
3143.996
3162.859
3181.145
3197.82
3216.833
3232.032
3243.969
3253.861
3262.474
3271.749
3284.563
3297.404
3319.58
3349.016
3386.243
3430.954
3482.584
3539.77
3600.642
3663.22
3725.47
3785.855
3841.776
3890.006
3929.627
3960.371
3982.766
3997.401
4004.464
4003.317
3993.578
3976.75
3956.418
3936.889
3922.277
3915.337
3916.731
3926.528
3944.601
3971.329
4007.331
4051.372
4102.287
4158.486
4218.101
4279.961
4342.883
4404.992
4465.633
4523.986
4574.29
4618.045
4659.913
4698.952
4734.735
4767.371
4797.044
4824.357
4849.401
4872.5
4894.038
4914.348
4933.772
4952.556
4970.726
4988.106
5004.29
5019.184
5032.616
5040.082
5042.204
5045.978
5053.802
5061.477
5067.514
5073.884
5082.585
5094.126
5108.122
5124.001
5141.297
5159.586
5178.506
5197.779
5217.248
5236.854
5256.676
5276.917
5298.019
5320.188
5342.56
5365.486
5388.265
5406.381
5416.82
5420.629
5418.789
5412.465
5407.637
5414.794
5428.732
5443.153
5458.043
5473.774
5490.092
5506.542
5522.776
5538.559
5553.69
5567.985
5581.299
5593.532
5604.628
5614.597
5623.525
5631.546
5638.785
5645.326
5651.171
5656.283
5660.648
5664.332
5667.414
5669.869
5672.1
5674.185
5676.204
5677.881
5679.42
5681.133
5683.089
5685.634
5689.032
5693.401
5698.775
5704.983
5711.614
5718.1
5724.015
5729.272
5734.028
5738.381
5742.358
5746.019
5749.432
5752.631
5755.679
5758.587
5761.27
5763.466
5765.096
5766.375
5767.548
5768.817
5770.275
5771.9
5773.619
5775.316
5776.91
5778.455
5780.062
5781.909
5784.156
5786.845
5790.016
5793.638
5797.727
5802.287
5807.186
5812.136
5816.725
5820.584
5823.537
5825.59
5826.859
5827.5
5827.678
5827.59
5827.428
5827.342
5827.443
5827.804
5828.455
5829.393
5830.589
5832.015
5833.641
5835.423
5837.316
5839.27
5841.239
5843.165
5844.981
5846.673
5848.14
5849.435
5850.337
5851.199
5852.004
5852.293
5852.12
5851.67
5851.069
5850.394
5849.723
5849.127
5848.646
5848.298
5848.064
5847.899
5847.741
5847.541
5847.297
5846.974
5846.84
5846.89
5846.995
5847.096
5847.237
5847.402
5847.548
5847.621
5847.558
5847.291
5846.851
5846.135
5845.108
5843.773
5842.164
5840.372
5838.609
5837.218
5836.648
5837.201
5838.594
5840.217
5841.757
5843.166
5844.465
5845.667
5846.755
5847.7
5848.475
5849.057
5849.429
5849.554
5849.425
5849.09
5848.444
5847.659
5846.771
5845.818
5844.881
5844.018
5843.254
5842.576
5841.977
5841.446
5840.982
5840.586
5840.298
5840.143
5840.136
5840.288
5840.602
5840.974
5841.129
5840.632
5839.941
5840.164
5841.2
5842.509
5843.663
5844.624
5845.542
5846.546
5847.656
5848.859
5850.159
5851.526
5852.942
5854.404
5855.923
5857.485
5859.069
5860.632
5862.131
5863.546
5864.854
5866.04
5867.114
5868.098
5869.013
5869.866
5870.646
5871.362
5871.997
5872.56
5873.052
5873.462
5873.778
5873.992
5874.101
5874.106
5874.007
5873.81
5873.521
5873.14
5872.658
5872.061
5871.328
5870.428
5869.341
5868.026
5866.483
5864.806
5863.085
5861.403
5859.782
5858.443
5857.463
5856.666
5855.382
5853.685
5851.883
5850.156
5848.521
5846.943
5845.388
5843.823
5842.226
5840.589
5838.915
5837.21
5835.478
5833.718
5831.928
5830.107
5828.251
5826.356
5824.428
5822.485
5820.553
5818.649
5816.788
5814.978
5813.227
5811.541
5809.923
5808.363
5806.857
5805.399
5803.978
5802.587
5801.228
5799.912
5798.636
5797.399
5796.198
5795.041
5793.954
5792.979
5792.11
5791.342
5790.683
5790.101
5789.548
5789.008
5788.485
5787.99
5787.551
5787.173
5786.863
5786.632
5786.487
5786.375
5786.316
5786.371
5786.485
5786.609
5786.735
5786.854
5786.952
5787.011
5787.025
5786.969
5786.848
5786.65
5786.369
5785.997
5785.516
5784.938
5784.257
5783.466
5782.558
5781.524
5780.358
5779.053
5777.614
5776.072
5774.498
5773.043
5771.895
5771.334
5771.631
5772.962
3226.313
3246.296
3280.298
3320.448
3374.324
3450.289
3536.319
3640.066
3763.768
3885.263
4013.485
4171.038
4349.443
4545.933
4755.343
4969.562
5180.169
5377.729
5552.686
5695.365
5796.911
5855.207
5860.688
5807.425
5704.945
5560.405
5382.356
5180.571
4964.796
4745.521
4538.7
4235.959
4062.177
3904.077
3751.369
3615.332
3500.764
3405.695
3326.281
3259.058
3200.817
3149.696
3105.123
3067.345
3037.458
3016.698
3005.704
3004.379
3011.675
3024.177
3038.879
3053.819
3068.202
3082.624
3096.581
3110.183
3127.118
3145.613
3165.293
3187.216
3209.011
3227.636
3241.764
3251.831
3258.63
3261.751
3265.465
3273.456
3283.994
3302.483
3329.182
3366.381
3413.81
3469.124
3530.774
3597.112
3666.045
3735.19
3801.789
3863.029
3916.24
3958.741
3990.41
4011.883
4024.556
4028.681
4023.002
4006.367
3979.82
3948.678
3919.541
3897.653
3886.696
3886.398
3895.784
3914.047
3941.294
3979.175
4026.658
4081.222
4141.7
4206.658
4274.487
4343.011
4410.31
4473.959
4532.404
4584.974
4632.025
4674.706
4713.27
4748.074
4779.494
4808.086
4834.263
4858.238
4880.312
4900.931
4920.664
4939.734
4957.994
4974.967
4990.05
5002.806
5013.009
5020.245
5024.444
5026.134
5027.968
5032.827
5039.951
5048.092
5057.567
5069.133
5083.158
5099.493
5117.719
5137.317
5157.761
5178.658
5199.787
5221.168
5242.632
5263.962
5285.08
5305.939
5326.358
5345.99
5364.643
5381.847
5395.832
5405.323
5410.534
5412.309
5411.928
5413.172
5420.088
5431.657
5444.882
5459.338
5475.015
5491.575
5508.502
5525.333
5541.751
5557.485
5572.289
5585.98
5598.416
5609.512
5619.283
5627.881
5635.525
5642.416
5648.695
5654.315
5659.158
5663.032
5665.198
5667.217
5670.745
5673.592
5675.309
5676.68
5677.847
5678.902
5680.157
5681.72
5683.913
5687.114
5691.472
5697.149
5704.027
5711.727
5719.343
5726.088
5731.786
5736.7
5740.825
5744.114
5747.517
5751.133
5754.553
5757.61
5760.35
5762.729
5764.628
5766.031
5767.072
5767.999
5769.12
5770.534
5772.177
5773.966
5775.701
5777.159
5778.439
5779.724
5781.258
5783.309
5785.911
5789.155
5792.829
5797.248
5802.421
5808.075
5813.75
5818.958
5823.21
5826.337
5828.275
5829.185
5829.34
5829.006
5828.443
5827.869
5827.446
5827.323
5827.607
5828.293
5829.327
5830.585
5832.021
5833.755
5835.718
5837.802
5839.915
5842.043
5844.14
5846.129
5847.949
5849.505
5850.794
5851.747
5852.489
5852.989
5853.014
5852.589
5851.882
5851.031
5850.15
5849.343
5848.678
5848.17
5847.83
5847.6
5847.148
5846.646
5846.528
5846.868
5847.002
5846.919
5846.897
5846.995
5847.212
5847.517
5847.865
5848.202
5848.429
5848.573
5848.559
5848.308
5847.742
5846.883
5845.757
5844.426
5843.018
5841.704
5840.69
5840.182
5840.351
5841.161
5842.323
5843.559
5844.785
5845.991
5847.155
5848.241
5849.205
5849.995
5850.573
5850.906
5850.946
5850.626
5850.097
5849.359
5848.458
5847.404
5846.307
5845.248
5844.276
5843.419
5842.677
5842.037
5841.477
5840.993
5840.525
5840.184
5840
5839.98
5840.083
5840.34
5840.843
5841.604
5842.579
5843.628
5844.049
5844.085
5844.229
5844.644
5845.246
5845.905
5846.763
5847.797
5848.943
5850.226
5851.593
5852.99
5854.459
5856.022
5857.644
5859.282
5860.923
5862.506
5863.962
5865.259
5866.405
5867.426
5868.364
5869.249
5870.103
5870.895
5871.6
5872.247
5872.832
5873.349
5873.782
5874.107
5874.34
5874.475
5874.494
5874.39
5874.177
5873.859
5873.433
5872.89
5872.217
5871.394
5870.398
5869.197
5867.849
5866.352
5864.718
5863.023
5861.35
5859.736
5858.209
5856.723
5855.243
5853.734
5852.288
5850.954
5849.686
5848.405
5847.066
5845.651
5844.157
5842.587
5840.947
5839.25
5837.507
5835.728
5833.911
5832.064
5830.194
5828.288
5826.321
5824.321
5822.31
5820.317
5818.348
5816.406
5814.506
5812.676
5810.925
5809.192
5807.442
5805.913
5804.551
5803.186
5801.795
5800.42
5799.073
5797.776
5796.547
5795.383
5794.271
5793.267
5792.418
5791.687
5791.056
5790.508
5790.028
5789.569
5789.127
5788.7
5788.291
5787.916
5787.582
5787.306
5787.1
5786.966
5786.886
5786.863
5786.884
5786.969
5787.091
5787.22
5787.342
5787.446
5787.518
5787.542
5787.516
5787.418
5787.245
5786.994
5786.674
5786.202
5785.657
5785.019
5784.281
5783.44
5782.495
5781.447
5780.304
5779.084
5777.826
5776.587
5775.474
5774.559
5774.031
5773.906
5774.347
3379.927
3350.739
3325.84
3301.547
3276.831
3255.325
3238.687
3225.992
3218.205
3215.826
3219.674
3228.709
3247.104
3274.347
3310.711
3359.655
3433.998
3515.077
3607.418
3712.422
3832.808
3972.346
4133.032
4313.314
4509.798
4718.003
4930.565
5142.918
5336.216
5502.913
5634.147
5721.261
5759.033
5743.887
5674.637
5555.436
5395.543
5204.963
4994.176
4773.545
4550.653
4333.234
4123.588
3939.507
3779.847
3637.075
3514.155
3413.259
3331.654
3264.464
3207.497
3157.361
3111.123
3068.617
3032.17
3003.342
2983.715
2974.817
2977.536
2991.547
3011.623
3031.492
3049.091
3064.929
3080.282
3094.2
3104.595
3121.031
3139.905
3162.44
3190.22
3217.53
3239.185
3253.187
3260.68
3263.682
3260.893
3255.233
3254.611
3254.507
3267.003
3293.594
3334.044
3385.089
3444.84
3511.594
3585.039
3662.617
3740.855
3816.926
3887.616
3948.239
3995.581
4028.25
4048.882
4060.459
4063.462
4054.955
4030.895
3990.969
3943.659
3900.137
3867.589
3851.875
3850.116
3858.937
3874.958
3898.03
3935.374
3986.133
4045.576
4111.928
4184.119
4259.557
4335.273
4408.729
4477.249
4539.407
4594.992
4644.177
4687.781
4726.422
4760.687
4790.998
4818.153
4843.292
4866.524
4887.624
4907.129
4926.002
4944.778
4963.035
4979.645
4993.495
5003.825
5010.105
5011.562
5010.61
5009.389
5008.796
5010.987
5017.51
5027.25
5039.192
5053.252
5069.648
5088.396
5109.18
5131.255
5153.604
5176.515
5199.875
5223.364
5246.605
5269.431
5291.502
5312.394
5331.768
5349.402
5365.026
5378.484
5389.071
5396.72
5402.662
5407.326
5410.819
5414.937
5421.816
5431.958
5444.424
5458.824
5474.859
5492.052
5509.748
5527.378
5544.651
5561.096
5576.315
5590.547
5603.48
5614.729
5624.278
5632.44
5639.548
5645.963
5652.056
5657.705
5662.198
5662.488
5664.327
5668.016
5672.867
5675.27
5676.498
5677.306
5678.051
5678.713
5679.212
5680.255
5682.115
5684.166
5685.162
5691.158
5700.82
5710.951
5720.25
5727.039
5728.091
5732.491
5739.944
5747.179
5751.083
5753.996
5756.777
5759.671
5762.271
5764.317
5765.72
5766.802
5767.515
5768.074
5768.979
5770.394
5772.054
5773.95
5775.84
5777.226
5778.206
5778.946
5779.642
5779.131
5776.285
5782.019
5790.973
5797.407
5802.541
5806.083
5812.346
5820.003
5826.289
5829.541
5831.074
5831.47
5831.046
5830.139
5829.056
5828.041
5826.864
5825.746
5825.96
5826.934
5828.814
5830.432
5832.055
5833.859
5835.891
5838.079
5840.34
5842.643
5844.938
5847.128
5849.109
5850.793
5852.154
5853.141
5853.743
5853.947
5853.71
5853.069
5852.139
5851.062
5849.977
5849.005
5848.238
5847.633
5847.042
5845.498
5845.197
5846.59
5847.23
5847.148
5846.828
5846.246
5846.251
5846.706
5847.352
5847.858
5848.38
5848.917
5849.397
5849.754
5849.913
5849.798
5849.222
5848.462
5847.545
5846.509
5845.301
5844.135
5843.196
5842.651
5842.616
5843.074
5843.868
5844.845
5845.927
5847.069
5848.226
5849.348
5850.354
5850.948
5851.365
5851.764
5852.046
5851.844
5851.206
5850.265
5849.117
5847.861
5846.579
5845.355
5844.244
5843.277
5842.463
5841.803
5841.252
5840.703
5840.235
5839.837
5839.563
5839.418
5839.498
5839.906
5840.544
5841.165
5841.458
5841.63
5842.129
5842.658
5843.226
5844.022
5844.809
5845.475
5846.346
5847.414
5848.534
5849.867
5851.385
5852.937
5854.458
5856.064
5857.709
5859.407
5861.154
5862.867
5864.412
5865.732
5866.848
5867.79
5868.64
5869.424
5870.162
5870.989
5871.842
5872.534
5873.051
5873.4
5874.007
5874.578
5874.895
5875.027
5875.016
5874.891
5874.656
5874.309
5873.847
5873.258
5872.524
5871.598
5870.37
5869.145
5867.883
5866.403
5864.737
5863.003
5861.263
5859.562
5857.927
5856.377
5854.939
5853.634
5852.433
5851.28
5850.122
5848.916
5847.623
5846.17
5844.643
5843.064
5841.432
5839.693
5837.889
5836.038
5834.05
5832.068
5830.171
5828.342
5826.38
5824.291
5822.191
5820.092
5818.003
5815.953
5813.556
5810.865
5809.095
5808.076
5806.892
5805.384
5803.845
5802.354
5800.909
5799.496
5798.136
5796.841
5795.629
5794.507
5793.464
5792.564
5791.78
5791.134
5790.578
5790.096
5789.686
5789.324
5789.006
5788.707
5788.414
5788.161
5787.923
5787.718
5787.56
5787.454
5787.409
5787.413
5787.461
5787.543
5787.664
5787.803
5787.939
5788.058
5788.149
5788.196
5788.188
5788.115
5787.967
5787.736
5787.403
5787.041
5786.563
5785.988
5785.318
5784.56
5783.717
5782.795
5781.807
5780.775
5779.732
5778.722
5777.809
5777.044
5776.517
5776.236
5776.223
3767.613
3716.387
3670.666
3625.937
3587.283
3545.327
3510.283
3476.735
3444.846
3413.761
3384.068
3355.605
3328.522
3303.187
3279.029
3256.588
3239.945
3227.052
3218.622
3215.266
3217.66
3226.52
3242.861
3267.493
3300.978
3345.295
3397.245
3467.245
3550.773
3648.691
3762.65
3895.927
4049.957
4223.123
4414.5
4620.061
4827.868
5030.692
5216.003
5373.16
5493.092
5567.97
5592.94
5564.832
5483.984
5354.098
5184.674
4986.122
4770.317
4547.701
4327.581
4118.072
3924.39
3751.722
3603.701
3478.695
3376.713
3297.81
3237.659
3189.306
3147.109
3106.63
3064.921
3023.427
2986.448
2957.155
2938.878
2933.898
2942.809
2966.268
2997.123
3024.516
3046.459
3062.596
3076.925
3090.628
3096.067
3112.007
3129.645
3150.864
3188.007
3226.804
3256.393
3270.53
3273.242
3269.789
3264.71
3245.871
3224.178
3203.072
3211.118
3239.878
3287.048
3344.711
3409.73
3480.82
3562.47
3651.445
3742.135
3831.657
3916.481
3988.961
4041.697
4074.772
4094.156
4105.396
4109.414
4099.653
4066.585
4007.043
3935.116
3872.029
3824.961
3805.588
3804.058
3807.57
3815.745
3835.957
3880.22
3935.151
3998.98
4072.996
4154.311
4239.103
4323.987
4405.808
4481.143
4547.933
4606.067
4656.406
4700.294
4734.581
4766.151
4797.445
4827.906
4852.99
4874.812
4894.284
4911.964
4929.726
4948.558
4967.802
4985.171
4998.676
5007.393
5009.976
5006.502
4999.1
4991.362
4986.884
4987.076
4993.546
5004.969
5019.205
5035.489
5053.968
5074.009
5096.768
5122.445
5148.807
5173.951
5198.709
5223.684
5248.692
5273.21
5296.527
5317.814
5336.588
5352.726
5363.471
5371.324
5380.711
5391.437
5398.766
5403.83
5408.424
5413.552
5420.419
5429.733
5441.542
5455.961
5472.457
5490.511
5507.799
5521.684
5540.609
5561.828
5580.305
5595.526
5608.685
5619.934
5629.191
5636.78
5641.506
5641.765
5647.609
5657.689
5665.555
5669.742
5672.249
5673.982
5675.515
5676.96
5677.847
5677.966
5678.097
5677.827
5666.202
5656.784
5660.972
5677.01
5684.472
5689.215
5694.448
5691.682
5690.105
5705.863
5731.309
5743.867
5748.301
5751.227
5753.832
5756.425
5758.911
5760.922
5763.262
5765.514
5767.384
5768.246
5768.509
5768.264
5768.472
5769.657
5771.502
5773.621
5775.838
5776.921
5776.97
5766.49
5739.901
5742.972
5767.878
5785.493
5791.953
5797.086
5802.925
5807.083
5815.233
5824.166
5829.674
5832.287
5832.459
5832.354
5832.106
5830.942
5829.295
5827.77
5826.085
5825.338
5826.151
5827.311
5828.535
5829.997
5831.714
5833.66
5835.773
5837.985
5840.397
5842.92
5845.453
5847.891
5850.083
5851.921
5853.385
5854.405
5854.91
5854.927
5854.491
5853.639
5852.468
5851.149
5849.838
5848.681
5847.718
5846.306
5841.626
5839.607
5844.112
5847.105
5847.433
5847.26
5847.098
5846.969
5846.855
5847.067
5847.602
5848.255
5848.949
5849.67
5850.203
5850.419
5850.819
5851.264
5851.244
5850.66
5849.728
5848.57
5847.358
5846.198
5845.18
5844.511
5844.293
5844.497
5845.03
5845.819
5846.79
5847.348
5847.984
5849.339
5851.117
5852.341
5852.982
5853.286
5853.302
5852.984
5852.247
5851.145
5849.792
5848.311
5846.815
5845.383
5844.069
5842.931
5842.014
5841.361
5840.922
5840.424
5839.875
5839.371
5838.941
5837.405
5833.914
5835.626
5838.923
5840.806
5841.61
5842.23
5842.792
5843.297
5843.712
5844.123
5844.642
5845.193
5845.863
5846.793
5848
5849.518
5851.224
5852.832
5854.343
5856.052
5857.692
5859.429
5861.315
5863.259
5864.971
5866.326
5867.328
5867.784
5866.982
5866.38
5868.764
5871.283
5872.293
5872.699
5872.722
5873.545
5874.6
5875.258
5875.546
5875.628
5875.615
5875.503
5875.263
5874.89
5874.396
5873.771
5872.962
5871.717
5870.496
5869.24
5868.051
5866.584
5864.87
5863.067
5861.243
5859.449
5857.73
5856.147
5854.756
5853.554
5852.47
5851.251
5849.92
5848.843
5847.886
5846.699
5845.231
5843.608
5841.865
5839.869
5837.837
5835.982
5834.264
5832.371
5830.404
5828.46
5826.401
5824.189
5821.993
5819.289
5813.954
5811.317
5810.66
5811.074
5809.762
5807.99
5806.281
5804.666
5803.116
5801.598
5800.117
5798.68
5797.292
5795.964
5794.715
5793.551
5792.485
5791.621
5790.934
5790.381
5789.947
5789.61
5789.307
5789.019
5788.783
5788.57
5788.368
5788.238
5788.147
5788.033
5787.957
5787.921
5787.922
5787.959
5788.037
5788.147
5788.28
5788.435
5788.591
5788.733
5788.848
5788.924
5788.95
5788.916
5788.814
5788.637
5788.379
5788.052
5787.637
5787.136
5786.553
5785.889
5785.153
5784.356
5783.507
5782.635
5781.76
5780.92
5780.145
5779.488
5778.962
5778.601
5778.273
4071.438
4033.909
3964.25
3889.229
3820.353
3762.171
3710.588
3664.667
3623.712
3584.099
3542.094
3507.735
3474.878
3443.241
3412.592
3383.094
3354.79
3327.58
3301.503
3278.34
3257.574
3239.998
3225.624
3215.231
3209.374
3208.627
3213.422
3224.829
3244.286
3273.111
3312.209
3362.311
3425.863
3502.092
3592.733
3699.685
3826.066
3977.12
4144.989
4329.716
4525.882
4723.21
4911.884
5080.52
5218.325
5316.563
5368.95
5371.62
5322.215
5222.251
5076.187
4893.928
4687.446
4469.868
4246.441
4029.409
3829.196
3649.622
3494.747
3370.915
3275.559
3204.219
3153.291
3118.838
3096.722
3077.913
3050.424
3011.005
2966.425
2923.093
2885.682
2864.235
2865.399
2886.606
2927.421
2973.705
3005.911
3042.176
3063.593
3071.914
3078.437
3070.712
3076.94
3114.834
3143.559
3187.578
3228.205
3261.223
3278.099
3285.049
3275.334
3262.872
3214.023
3160.948
3145.602
3138.191
3163.856
3217.674
3274.275
3347.633
3430.038
3530.416
3634.685
3739.252
3844.849
3948.544
4037.837
4097.469
4129.184
4144.345
4154.696
4162.812
4155.386
4113.344
4026.826
3918.653
3825.028
3753.367
3721.651
3686.363
3684.93
3741.697
3789.004
3823.998
3875.082
3942.511
4024.912
4112.454
4207.33
4308
4404.703
4488.378
4559.414
4614.968
4633.757
4674.853
4733.364
4785.595
4816.383
4840.573
4863.114
4883.547
4900.667
4915.111
4931.052
4947.17
4967.44
4988.514
5006.219
5015.032
5013.505
5003.932
4988.965
4972.211
4961.37
4959.507
4966.99
4981.158
4998.136
5014.12
5031.331
5055.585
5086.05
5116.47
5144.332
5170.469
5196.386
5223.045
5250.03
5276.421
5301.183
5320.681
5330.366
5345.362
5363.968
5377.325
5384.602
5389.775
5395.024
5400.503
5405.658
5410.96
5417.455
5425.717
5436.096
5447.977
5447.206
5459.527
5489.579
5524.788
5547.929
5566.915
5584.408
5600.184
5613.884
5624.733
5626.42
5629.703
5638.019
5649.975
5657.849
5663.775
5669.107
5673.115
5675.198
5676.17
5677.04
5678.114
5677.795
5654.16
5639.564
5644.174
5668.26
5679.247
5680.621
5681.483
5681.521
5641.603
5488.799
5572.244
5697.695
5737.035
5745.054
5748.972
5751.894
5753.868
5753.635
5755.428
5758.962
5763.32
5766.3
5768.27
5769.415
5769.64
5769.307
5768.39
5767.751
5767.956
5769.906
5772.157
5771.546
5726.802
5697.287
5710.665
5758.91
5779.655
5782.81
5785.553
5790.157
5795.57
5802.065
5810.006
5818.55
5826.067
5827.792
5828.271
5832.482
5835.067
5833.864
5831.47
5828.983
5826.819
5825.604
5824.508
5823.462
5824.953
5827.113
5828.921
5830.739
5832.787
5834.991
5837.403
5839.985
5842.734
5845.554
5848.318
5850.795
5852.84
5854.488
5855.623
5856.103
5856.038
5855.473
5854.411
5852.971
5851.379
5849.834
5848.465
5846.395
5832.221
5822.35
5833.689
5845.559
5847.779
5847.667
5847.43
5847.247
5847.17
5847.241
5847.511
5848.005
5848.638
5848.741
5847.624
5849.464
5851.932
5853.09
5853.424
5853.343
5852.853
5851.937
5850.625
5849.258
5848.048
5846.805
5845.891
5845.481
5845.444
5845.122
5845.075
5846.206
5848.226
5849.828
5851.098
5852.315
5853.436
5854.142
5854.513
5854.511
5854.134
5853.308
5852.055
5850.473
5848.742
5847.001
5845.308
5843.664
5842.175
5841.06
5840.471
5840.442
5840.086
5839.393
5837.094
5831.39
5831.314
5831.574
5831.925
5833.328
5838.702
5841.258
5842.026
5842.377
5842.809
5843.33
5843.866
5844.332
5844.888
5845.538
5846.262
5847.411
5849.043
5850.963
5852.731
5854.207
5855.941
5857.564
5859.156
5861.218
5863.639
5865.695
5867.104
5866.366
5857.236
5856.726
5861.625
5869.713
5872.117
5872.518
5872.531
5872.166
5872.92
5874.497
5875.895
5876.379
5876.507
5876.48
5876.311
5876.017
5875.603
5875.08
5874.43
5873.585
5872.234
5871.065
5869.983
5868.614
5866.954
5865.15
5863.262
5861.34
5859.428
5857.558
5855.777
5853.847
5851.99
5851.514
5851.282
5850.558
5849.579
5848.461
5847.198
5845.593
5842.672
5840.626
5839.347
5838.441
5836.693
5834.568
5832.37
5830.408
5828.513
5824.094
5815.81
5813.492
5815.978
5817.239
5815.187
5812.779
5810.695
5809.003
5807.264
5805.537
5803.926
5802.39
5800.859
5799.352
5797.871
5796.402
5795.025
5793.759
5792.601
5791.583
5790.737
5790.063
5789.536
5789.138
5788.849
5788.675
5788.565
5788.445
5788.372
5788.331
5788.355
5788.337
5788.293
5788.284
5788.313
5788.377
5788.47
5788.595
5788.743
5788.91
5789.09
5789.275
5789.45
5789.601
5789.719
5789.791
5789.81
5789.765
5789.652
5789.465
5789.204
5788.868
5788.454
5787.965
5787.405
5786.782
5786.107
5785.39
5784.657
5783.919
5783.214
5782.542
5781.961
5781.426
5781.003
5780.421
4034.84
3986.646
3898.805
3839.806
3784.713
3735.37
3690.805
3650.007
3612.026
3576.438
3542.889
3509.938
3477.901
3446.603
3416.103
3386.373
3357.514
3329.632
3302.947
3278.3
3256.497
3237.813
3222.164
3209.733
3200.797
3196.39
3197.552
3205.321
3221.023
3246.362
3282.534
3329.712
3388.156
3458.058
3543.159
3645.8
3768.105
3911.389
4072.47
4247.605
4430.665
4611.5
4778.817
4921.659
5030.124
5096.942
5117.552
5089.851
5012.947
4889.168
4724.865
4528.834
4306.978
4080.981
3856.488
3647.507
3461.468
3295.624
3157.722
3055.762
2989.415
2952.383
2931.599
2907.142
2894.97
2905.36
2905.712
2871.398
2802.486
2706.804
2637.527
2605.676
2588.748
2568.625
2594.207
2705.206
2816.16
2896.141
2907.779
2822.253
2773.421
2823.215
2934.341
2944.778
2990.729
2985.289
2918.221
3017.721
3203.279
3206.728
3145.636
2969.618
2906.727
2955.348
2942.74
2908.171
2868.597
2865.094
3035.595
3230.429
3317.043