/*--------------------------------*- C++ -*----------------------------------*\
| =========                 |                                                 |
| \\      /  F ield         | foam-extend: Open Source CFD                    |
|  \\    /   O peration     | Version:     3.1                                |
|   \\  /    A nd           | Web:         http://www.extend-project.de       |
|    \\/     M anipulation  |                                                 |
\*---------------------------------------------------------------------------*/
FoamFile
{
    version     2.0;
    format      ascii;
    class       surfaceScalarField;
    location    "18";
    object      phi;
}
// * * * * * * * * * * * * * * * * * * * * * * * * * * * * * * * * * * * * * //

dimensions      [0 3 -1 0 0 0 0];

internalField   nonuniform List<scalar> 
275122
(
-0.000256241
0.0002600998
-1.9947e-07
-3.659378e-06
-0.0002306322
0.000220549
8.729377e-07
9.210336e-06
-0.0002306539
0.0002370311
-2.310603e-07
-6.146066e-06
-0.000259185
0.0002665294
-2.696874e-07
-7.074752e-06
-0.0002851609
0.0002875581
-2.953193e-07
-2.101899e-06
-0.0002881734
0.0002878506
-2.70783e-07
5.935659e-07
-0.0002855056
0.0002844986
-2.522516e-07
1.259318e-06
-0.0002808657
0.0002794612
-2.421478e-07
1.646649e-06
-0.0002749443
0.0002733393
-2.253251e-07
1.830347e-06
-0.0002682507
0.0002664547
-2.028404e-07
1.998766e-06
-0.0002608855
0.0002589583
-1.825024e-07
2.10974e-06
-0.0002530369
0.0002510131
-1.632156e-07
2.187041e-06
-0.0002448774
0.0002428128
-1.472093e-07
2.211851e-06
-0.0002366276
0.0002345805
-1.317932e-07
2.178963e-06
-0.0002285006
0.0002264975
-1.179535e-07
2.121092e-06
-0.000220645
0.0002187139
-1.064098e-07
2.037529e-06
-0.0002131193
0.0002112952
-9.703794e-08
1.921187e-06
-0.0002059454
0.0002042728
-9.668585e-08
1.769213e-06
-0.0001995106
0.0001981433
-1.222584e-07
1.489533e-06
-0.0001952266
0.0001953415
-3.521451e-07
2.37291e-07
-0.0002155861
0.0002240054
-7.89937e-07
-7.62936e-06
-0.0002255583
0.000225303
-1.709268e-07
4.261741e-07
-0.000227288
0.0002286246
-8.698719e-08
-1.249582e-06
-0.0002530361
0.0002622291
2.196611e-07
-9.412631e-06
-0.0002635182
0.0002633997
3.658785e-07
-2.47437e-07
-0.0002654348
0.000265924
-9.851629e-08
-3.907104e-07
-0.0002660273
0.0002655333
-1.116963e-07
6.057161e-07
-0.0002629148
0.0002606169
-9.109612e-08
2.38903e-06
-0.0002453184
0.0002293479
-1.175613e-07
1.608811e-05
-0.0001199015
0.0001230347
3.446021e-09
-3.136691e-06
-0.0002036007
0.0002147515
-4.350879e-08
-1.110727e-05
-0.000245919
0.0002564118
1.031224e-08
-1.050314e-05
-0.0002889203
0.000300105
8.01638e-09
-1.11928e-05
-0.0003344408
0.0003461275
7.897112e-09
-1.169462e-05
-0.000382047
0.0003941838
7.467821e-09
-1.214427e-05
-0.0004310907
0.0004434624
7.325141e-09
-1.237898e-05
-0.0004807974
0.0004932277
6.730915e-09
-1.243711e-05
-0.0005303966
0.0005427071
6.503717e-09
-1.231696e-05
-0.0005790156
0.0005909104
5.824299e-09
-1.190062e-05
-0.0006258861
0.000637805
1.875195e-07
-1.210648e-05
9.975821e-06
-0.0004306022
0.0004314787
5.34386e-10
-1.085287e-05
9.502712e-06
-0.0004330386
0.0004333104
-4.841997e-10
-9.774062e-06
9.277729e-06
-0.0004336159
0.0004335108
-1.299653e-09
-9.171345e-06
9.123932e-06
-0.0004325643
0.0004320618
-1.41588e-09
-8.620071e-06
8.954209e-06
-0.000430122
0.0004293492
-1.51717e-09
-8.179957e-06
8.786043e-06
-0.0004267607
0.0004258218
-1.343452e-09
-7.84577e-06
8.639363e-06
-0.0004228541
0.0004218222
-1.279508e-09
-7.606218e-06
8.544818e-06
-0.0004186536
0.0004175792
-1.125061e-09
-7.469332e-06
8.454341e-06
-0.0004140761
0.0004125099
-9.761098e-10
-6.8871e-06
7.232627e-06
-0.001668772
0.001663556
7.709415e-12
-2.46831e-05
7.740672e-06
7.216443e-06
7.709457e-06
7.985049e-06
-0.001656979
0.001649569
8.803891e-12
-2.514029e-05
8.314728e-06
7.961233e-06
8.288859e-06
8.145948e-06
-0.001642612
0.00163625
1.156636e-11
-2.644285e-05
8.278287e-06
8.122615e-06
8.258141e-06
8.204212e-06
-0.001630419
0.001624835
1.16277e-11
-2.737286e-05
8.294483e-06
8.18232e-06
8.275598e-06
8.259669e-06
-0.001619455
0.001614275
9.434996e-12
-2.795355e-05
8.326411e-06
8.24057e-06
8.306965e-06
8.272733e-06
-0.00160934
0.001604773
4.649058e-12
-2.858452e-05
8.320762e-06
8.255211e-06
8.302559e-06
8.333159e-06
-0.001600414
0.001596227
-1.93403e-12
-2.917455e-05
8.364879e-06
8.315179e-06
8.348715e-06
8.373193e-06
-0.001592236
0.001588383
-7.809782e-12
-2.964529e-05
8.391765e-06
8.356586e-06
8.377022e-06
8.45523e-06
-0.001584861
0.001581273
-1.434859e-11
-2.999149e-05
8.34962e-06
8.440414e-06
8.334011e-06
8.076167e-06
-0.001576582
0.001575004
-1.659909e-11
-3.129035e-05
8.368196e-06
8.061516e-06
8.361941e-06
9.523462e-06
-0.00157261
0.001567964
-1.573456e-11
-3.242981e-05
9.024906e-06
9.513718e-06
9.013232e-06
9.090322e-06
-0.001564559
0.00156139
-1.432708e-11
-3.317242e-05
9.065666e-06
9.10577e-06
9.079801e-06
9.377253e-06
-0.001558348
0.001555721
-1.908698e-11
-3.467256e-05
9.292092e-06
9.298823e-06
9.331556e-06
9.634426e-06
-0.001553279
0.001551197
-5.706464e-12
-3.639186e-05
9.615076e-06
9.611512e-06
9.612699e-06
9.913873e-06
-0.001549365
0.001547886
1.751424e-11
-3.822499e-05
9.936125e-06
9.914163e-06
9.939766e-06
1.025977e-05
-0.001546669
0.0015458
3.494241e-11
-4.016517e-05
1.028439e-05
1.02247e-05
1.026596e-05
1.072034e-05
-0.001545246
0.001544959
1.383665e-11
-4.243772e-05
1.07553e-05
1.059143e-05
1.065713e-05
1.183646e-05
-0.001544678
0.001543245
4.928153e-11
-4.514782e-05
1.207712e-05
1.122919e-05
1.143897e-05
1.491807e-05
-0.001539252
0.001529984
5.239076e-11
-4.802109e-05
1.594449e-05
1.328224e-05
1.314458e-05
2.302397e-05
-0.00151825
0.001531985
1.96492e-11
-3.675857e-05
1.998511e-05
-0.001545776
0.001547601
4.432473e-12
-2.181018e-05
3.114706e-05
-0.001545216
0.001543769
1.308915e-12
-2.969973e-05
2.712665e-05
-0.001542581
0.001541658
-1.927615e-12
-2.620353e-05
1.543725e-05
-0.001540709
0.001542055
-4.696767e-12
-1.678345e-05
4.51373e-06
-0.001545432
0.001548126
-5.890893e-12
-7.207122e-06
-2.538205e-07
-0.001550248
0.001551827
-6.176209e-12
-1.325118e-06
-3.691959e-06
-0.001553186
0.001553949
-6.200263e-12
2.928888e-06
-6.47218e-06
-0.001554391
0.001554289
-5.769001e-12
6.574696e-06
-8.912335e-06
-0.001553904
0.001553071
-3.645036e-12
9.74486e-06
-1.093319e-05
-0.001551978
0.00155046
-5.415789e-12
1.245043e-05
-1.25826e-05
-0.00154872
0.001546596
-5.384633e-12
1.47057e-05
-1.381246e-05
-0.001544258
0.001541568
-4.749985e-12
1.650219e-05
-1.458838e-05
-0.001538669
0.00153546
-3.921309e-12
1.779821e-05
-1.490988e-05
-0.001532062
0.001528413
-3.634647e-12
1.855855e-05
-1.478014e-05
-0.001524613
0.001520657
-2.92231e-12
1.873659e-05
-1.418173e-05
-0.001516615
0.001512545
-2.178089e-12
1.825181e-05
-1.296094e-05
-0.001508475
0.001504524
-1.480178e-12
1.691222e-05
-1.050304e-05
-0.001500542
0.001496627
3.279114e-13
1.441766e-05
-6.302854e-06
-0.001492803
0.001488569
3.392777e-12
1.053674e-05
-2.78189e-07
-0.001481151
0.001475966
7.812726e-12
5.463386e-06
-1.70444e-06
-0.001473525
0.001471427
1.62321e-11
3.802543e-06
7.139902e-06
-0.001468636
0.001463877
1.761773e-11
-2.381222e-06
2.116735e-05
-0.001451537
0.001439868
1.31759e-11
-9.498625e-06
4.635412e-06
-0.001432871
0.001430773
5.111835e-12
-2.536681e-06
-3.685237e-06
-0.001427788
0.001424569
-2.642884e-12
6.903457e-06
-1.098965e-05
-0.001420721
0.001417413
-8.036684e-12
1.429823e-05
-2.369361e-05
-0.001414624
0.001413392
-1.428794e-11
2.492509e-05
-5.547413e-05
-0.001413417
0.001428532
-1.897696e-11
4.035891e-05
-1.170921e-05
-0.001446621
0.001444749
-1.578383e-11
4.149255e-05
-8.179246e-06
-1.165363e-05
-8.079309e-06
-5.175871e-06
-0.001438908
0.001436458
-9.684564e-12
2.318198e-05
-5.334177e-06
-5.044712e-06
-5.176411e-06
-4.458988e-06
-0.00143438
0.001430875
-1.157624e-12
2.070412e-05
-4.227088e-06
-4.368583e-06
-4.143779e-06
-3.653114e-06
-0.001426555
0.001422252
7.537699e-12
1.860707e-05
-3.566732e-06
-3.583014e-06
-3.501037e-06
-3.456374e-06
-0.00141817
0.001414181
1.262835e-11
1.76949e-05
-3.450164e-06
-3.401883e-06
-3.397455e-06
-3.40165e-06
-0.001410182
0.001406118
1.438245e-11
1.756318e-05
-3.390041e-06
-3.35866e-06
-3.34857e-06
-3.365887e-06
-0.001401988
0.001397828
1.284838e-11
1.754411e-05
-3.360451e-06
-3.330671e-06
-3.326467e-06
-3.34164e-06
-0.001393635
0.001389441
7.90577e-12
1.749465e-05
-3.336361e-06
-3.313209e-06
-3.309089e-06
-3.299408e-06
-0.001385231
0.001381054
8.564905e-13
1.731232e-05
-3.289935e-06
-3.277116e-06
-3.268761e-06
-3.226148e-06
-0.001376883
0.001372783
-4.876703e-12
1.694217e-05
-3.210668e-06
-3.209592e-06
-3.195314e-06
-3.117737e-06
-0.001368713
0.001364753
-7.462883e-12
1.636716e-05
-3.09607e-06
-3.106787e-06
-3.086386e-06
-2.975518e-06
-0.001360846
0.001357085
-7.554161e-12
1.559888e-05
-2.948696e-06
-2.969661e-06
-2.943945e-06
-2.806112e-06
-0.001353398
0.001349887
-7.139476e-12
1.467119e-05
-2.775208e-06
-2.804374e-06
-2.774308e-06
-2.618442e-06
-0.001346469
0.00134325
-6.711423e-12
1.36301e-05
-2.585537e-06
-2.619744e-06
-2.587433e-06
-2.42212e-06
-0.001340137
0.001337238
-5.758436e-12
1.252767e-05
-2.38824e-06
-2.4255e-06
-2.392047e-06
-2.224327e-06
-0.001334451
0.001331882
-4.236836e-12
1.14093e-05
-2.190894e-06
-2.228848e-06
-2.195722e-06
-2.032434e-06
-0.001329426
0.001327182
-1.847946e-12
1.031893e-05
-2.000185e-06
-2.037103e-06
-2.005209e-06
-1.851221e-06
-0.001325049
0.001323122
9.718059e-13
9.279128e-06
-1.820255e-06
-1.854808e-06
-1.82543e-06
-1.681719e-06
-0.001321297
0.001319663
4.171079e-12
8.319726e-06
-1.656302e-06
-1.687373e-06
-1.660465e-06
-1.526995e-06
-0.001318127
0.001316777
6.209225e-12
7.415672e-06
-1.503228e-06
-1.530007e-06
-1.505628e-06
-1.389046e-06
-0.001315532
0.001314488
7.757606e-12
6.564832e-06
-1.368095e-06
-1.391964e-06
-1.371139e-06
-1.266294e-06
-0.001313558
0.001312834
8.151961e-12
5.759573e-06
-1.248014e-06
-1.270114e-06
-1.251803e-06
-1.158887e-06
-0.00131223
0.00131183
7.391823e-12
5.012964e-06
-1.143641e-06
-1.162882e-06
-1.147549e-06
-1.070568e-06
-0.001311547
0.001311453
6.024881e-12
4.360205e-06
-1.058937e-06
-1.074156e-06
-1.062311e-06
-1.004225e-06
-0.001311467
0.001311647
4.2913e-12
3.825638e-06
-9.962915e-07
-1.00695e-06
-9.987828e-07
-9.595171e-07
0.001312351
2.466299e-12
3.407118e-06
-9.549731e-07
-9.614489e-07
-9.567621e-07
-0.001311926
-9.357843e-07
-0.001312867
0.001313507
1.31221e-12
3.10482e-06
-9.349742e-07
-9.373879e-07
-9.365141e-07
-9.370625e-07
-0.001314225
0.001315034
1.052e-12
2.949092e-06
-9.405274e-07
-9.384323e-07
-9.418369e-07
-9.670948e-07
-0.001315901
0.001316811
1.610737e-12
2.976811e-06
-9.755698e-07
-9.680401e-07
-9.764147e-07
-1.024724e-06
-0.001317749
0.001318685
1.820894e-12
3.189129e-06
-1.037083e-06
-1.025571e-06
-1.038026e-06
-1.106296e-06
-0.001319629
0.001320527
-3.268538e-12
3.555883e-06
-1.120473e-06
-1.106785e-06
-1.120772e-06
-1.22883e-06
-0.001321401
0.001322188
3.439566e-13
4.184263e-06
-1.256049e-06
-1.229345e-06
-1.256706e-06
-1.407652e-06
-0.001322938
0.00132355
-1.062398e-12
5.091685e-06
-1.443612e-06
-1.408343e-06
-1.444169e-06
-1.638307e-06
-0.001324089
0.001324423
-2.404109e-12
6.308995e-06
-1.683518e-06
-1.638125e-06
-1.682889e-06
-1.924191e-06
-0.00132464
0.001324577
-3.346755e-12
7.865429e-06
-1.979779e-06
-1.921899e-06
-1.976747e-06
-2.268414e-06
-0.001324348
0.00132377
-3.856486e-12
9.770709e-06
-2.334934e-06
-2.261909e-06
-2.327141e-06
-2.666982e-06
-0.00132298
0.001321799
-3.998114e-12
1.196795e-05
-2.742924e-06
-2.651764e-06
-2.725197e-06
-3.102207e-06
-0.001320387
0.001318595
-3.590523e-12
1.4295e-05
-3.183865e-06
-3.070388e-06
-3.147376e-06
-3.540285e-06
-0.001316597
0.001314302
-2.709128e-12
1.649831e-05
-3.620985e-06
-3.484427e-06
-3.558031e-06
-3.914512e-06
-0.001311864
0.00130925
-1.016094e-12
1.827647e-05
-3.978369e-06
-3.856643e-06
-3.913467e-06
-4.115775e-06
-0.001306554
0.001303771
5.550742e-13
1.916318e-05
-4.118921e-06
-4.065149e-06
-4.080256e-06
-3.925027e-06
-0.001300873
0.001297833
8.648774e-13
1.86629e-05
-3.832479e-06
-3.962701e-06
-3.902575e-06
-3.390241e-06
-0.001294549
0.001291063
1.686645e-12
1.703183e-05
-3.270474e-06
-3.501983e-06
-3.38354e-06
-2.845859e-06
-0.001287329
0.001283487
3.559407e-12
1.519469e-05
-2.762539e-06
-2.923356e-06
-2.821136e-06
-2.484312e-06
-0.001279538
0.001275633
5.561596e-12
1.378609e-05
-2.443645e-06
-2.503075e-06
-2.450325e-06
-2.292445e-06
-0.001271752
0.001268005
6.994693e-12
1.286986e-05
-2.275874e-06
-2.286618e-06
-2.267395e-06
-2.184078e-06
-0.001264331
0.001260812
7.898949e-12
1.222399e-05
-2.173197e-06
-2.178518e-06
-2.169095e-06
-2.079142e-06
-0.001257369
0.001254079
8.417013e-12
1.157975e-05
-2.063077e-06
-2.080509e-06
-2.066649e-06
-1.913824e-06
-0.001250845
0.001247711
8.66145e-12
1.073081e-05
-1.878444e-06
-1.919266e-06
-1.885797e-06
-1.621046e-06
-0.00124448
0.001240901
8.886935e-12
9.666733e-06
-1.415573e-06
-1.630765e-06
-1.420406e-06
-1.237102e-06
-0.001237974
0.001234394
8.98559e-12
8.656355e-06
-1.301447e-06
-1.236134e-06
-1.301959e-06
-1.49214e-06
-0.001231855
0.001229494
8.577615e-12
8.261784e-06
-1.461209e-06
-1.489687e-06
-1.457918e-06
-1.356821e-06
-0.001227179
0.001225068
7.81657e-12
7.467418e-06
-1.325827e-06
-1.352473e-06
-1.32134e-06
-1.234976e-06
-0.001223127
0.001221414
6.209588e-12
6.592947e-06
-1.209886e-06
-1.22999e-06
-1.204837e-06
-1.126707e-06
-0.001219886
0.001218574
3.613398e-12
5.766703e-06
-1.105603e-06
-1.121566e-06
-1.100533e-06
-1.039231e-06
-0.00121743
0.001216503
1.180076e-12
5.044345e-06
-1.024546e-06
-1.034431e-06
-1.019768e-06
-9.80506e-07
-0.001215739
0.001215167
-1.780033e-12
4.466142e-06
-9.710272e-07
-9.758839e-07
-9.665197e-07
-9.437529e-07
-0.001214728
0.001214444
-4.038519e-12
4.040222e-06
-9.383968e-07
-9.397753e-07
-9.345279e-07
-9.204297e-07
-0.001214268
0.001214203
-5.587338e-12
3.732695e-06
-9.168279e-07
-9.172735e-07
-9.137211e-07
-9.152235e-07
-0.001214206
0.001214304
-6.359428e-12
3.555228e-06
-9.140776e-07
-9.124003e-07
-9.114303e-07
-9.22253e-07
-0.001214495
0.001214763
-7.329484e-12
3.415598e-06
-9.218685e-07
-9.198524e-07
-9.196205e-07
-9.361436e-07
-0.00121508
0.001215443
-7.701564e-12
3.383136e-06
-9.386796e-07
-9.342389e-07
-9.368077e-07
-9.712562e-07
-0.001215844
0.001216255
-7.644187e-12
3.481423e-06
-9.769353e-07
-9.695413e-07
-9.75318e-07
-1.03194e-06
-0.001216678
0.001217068
-7.282203e-12
3.754502e-06
-1.041791e-06
-1.03044e-06
-1.040347e-06
-1.115504e-06
-0.00121744
0.001217729
-6.714081e-12
4.19626e-06
-1.128587e-06
-1.114189e-06
-1.127287e-06
-1.226135e-06
-0.001217973
0.001218076
-5.294118e-12
4.820593e-06
-1.237248e-06
-1.224877e-06
-1.236035e-06
-1.325442e-06
-0.00121806
0.001217914
-5.561342e-12
5.490619e-06
-1.347958e-06
-1.324383e-06
-1.346971e-06
-1.47623e-06
-0.001217706
0.001217336
-4.614961e-12
6.313325e-06
-1.496164e-06
-1.475245e-06
-1.495217e-06
-1.650648e-06
-0.001216882
0.001216235
-4.252508e-12
7.301111e-06
-1.677221e-06
-1.649757e-06
-1.676379e-06
-1.866388e-06
-0.00121549
0.001214507
-4.537508e-12
8.517128e-06
-1.901566e-06
-1.865557e-06
-1.900765e-06
-2.13079e-06
-0.001213404
0.001212013
-4.991753e-12
1.000065e-05
-2.174956e-06
-2.129932e-06
-2.174113e-06
-2.435473e-06
-0.001210479
0.001208623
-5.355593e-12
1.169679e-05
-2.485563e-06
-2.43455e-06
-2.484667e-06
-2.742698e-06
-0.001206611
0.001204272
-5.349188e-12
1.340099e-05
-2.789345e-06
-2.741687e-06
-2.788346e-06
-2.970979e-06
-0.001201785
0.001198998
-4.682631e-12
1.471935e-05
-2.996468e-06
-2.969797e-06
-2.99523e-06
-3.018075e-06
-0.001196058
0.001192849
-3.048012e-12
1.525406e-05
-3.005822e-06
-3.016669e-06
-3.004293e-06
-2.840655e-06
0.001185886
-8.210472e-13
1.485219e-05
-0.001189473
-2.793314e-06
-2.839171e-06
-2.791766e-06
-2.520816e-06
-0.001182167
0.001178363
1.339933e-12
1.376752e-05
-2.461934e-06
-2.519588e-06
-2.460715e-06
-2.19871e-06
-0.001174517
0.001170737
2.467554e-12
1.24774e-05
-2.150553e-06
-2.197835e-06
-2.149699e-06
-1.963567e-06
-0.00116702
0.001163499
2.213538e-12
1.131524e-05
-1.933876e-06
-1.962903e-06
-1.933213e-06
-1.835353e-06
-0.001160109
0.001156963
5.435489e-13
1.046177e-05
-1.822865e-06
-1.834759e-06
-1.822257e-06
-1.794047e-06
-0.001153974
0.001151217
-2.117859e-12
9.930954e-06
-1.793474e-06
-1.793433e-06
-1.792836e-06
-1.810948e-06
-0.001148606
0.001146177
-5.338465e-12
9.684881e-06
-1.817527e-06
-1.810289e-06
-1.816873e-06
-1.861081e-06
-0.001143856
0.001141654
-8.307722e-12
9.66526e-06
-1.870998e-06
-1.860411e-06
-1.870343e-06
-1.923783e-06
-0.001139513
0.001137426
-1.119826e-11
9.801692e-06
-1.934031e-06
-1.923175e-06
-1.933452e-06
-1.982004e-06
-0.001135353
0.001133277
-1.295235e-11
1.002016e-05
-1.990147e-06
-1.981602e-06
-1.989799e-06
-2.02279e-06
-0.001131172
0.001129019
-1.229414e-11
1.0253e-05
-2.027044e-06
-2.022688e-06
-2.027008e-06
-2.038611e-06
-0.001126804
0.00112451
-1.044369e-11
1.044785e-05
-2.038321e-06
-2.03877e-06
-2.038573e-06
-2.02774e-06
-0.001122135
0.001119668
-8.710159e-12
1.056968e-05
-2.023314e-06
-2.028157e-06
-2.023765e-06
-1.993129e-06
-0.001117115
0.001114478
-6.146394e-12
1.059521e-05
-1.985276e-06
-1.993714e-06
-1.98582e-06
-1.93949e-06
-0.001111765
0.001108994
-2.578155e-12
1.051017e-05
-1.929578e-06
-1.940019e-06
-1.930123e-06
-1.871613e-06
-0.001106171
0.001103331
3.010024e-12
1.030768e-05
-1.861692e-06
-1.872046e-06
-1.861956e-06
-1.794807e-06
-0.001100469
0.001097638
6.357342e-12
9.989833e-06
-1.78412e-06
-1.795068e-06
-1.78438e-06
-1.713199e-06
-0.001094818
0.00109208
9.543497e-12
9.566075e-06
-1.700713e-06
-1.713405e-06
-1.700987e-06
-1.626388e-06
-0.001089386
0.00108682
1.025917e-11
9.051243e-06
-1.615987e-06
-1.626589e-06
-1.616173e-06
-1.539416e-06
-0.00108433
0.001082008
1.252431e-11
8.457576e-06
-1.528162e-06
-1.539455e-06
-1.528206e-06
-1.45156e-06
-0.001079791
0.001077782
8.491027e-12
7.795796e-06
-1.441549e-06
-1.451492e-06
-1.441386e-06
-1.36066e-06
-0.00107589
0.00107425
9.70327e-12
7.06805e-06
-1.353607e-06
-1.360482e-06
-1.353466e-06
-1.272764e-06
-0.001072737
0.001071535
1.327624e-11
6.272259e-06
-1.262199e-06
-1.272767e-06
-1.26191e-06
-1.165305e-06
-0.00107044
0.001069681
8.081579e-12
5.384059e-06
-1.1477e-06
-1.164822e-06
-1.147777e-06
-9.071015e-07
-0.001068975
0.001068152
9.995278e-12
3.934593e-06
-6.461832e-07
-9.092484e-07
-6.489169e-07
-1.855122e-07
-0.0002662198
0.0002652543
-2.987032e-10
1.151261e-06
-7.146891e-07
-0.0002636761
0.0002632806
-2.161245e-10
1.110465e-06
-7.840259e-07
-0.0002623918
0.0002621743
-1.765357e-10
1.001684e-06
-8.38185e-07
-0.0002617339
0.0002616477
-1.463498e-10
9.244649e-07
-8.844047e-07
-0.0002615311
0.0002615318
-1.177235e-10
8.838712e-07
-9.261483e-07
-0.000261623
0.0002616768
-9.7575e-11
8.724889e-07
-9.697802e-07
-0.0002618867
0.0002619682
-7.912655e-11
8.884011e-07
-1.015468e-06
-0.0002622335
0.0002623248
-5.13824e-11
9.242612e-07
-1.061645e-06
-0.000262599
0.0002626871
-2.691015e-12
9.735928e-07
-1.106037e-06
-0.0002629394
0.0002630165
3.687833e-11
1.028821e-06
-1.146656e-06
-0.0002632296
0.0002632927
1.313067e-11
1.083523e-06
-1.185201e-06
-0.000263463
0.0002635164
-1.039447e-11
1.131802e-06
-1.205855e-06
-0.0002636413
0.0002636776
-1.35986e-11
1.169554e-06
-1.228783e-06
-0.0002637679
0.0002637919
-9.975503e-12
1.204775e-06
-1.257921e-06
-0.0002638466
0.0002638615
-4.893774e-12
1.243091e-06
-1.289237e-06
-0.0002638831
0.0002638846
-4.123741e-12
1.287715e-06
-1.325567e-06
-0.0002638593
0.0002638426
-1.921943e-12
1.342244e-06
-1.366656e-06
-0.0002637537
0.0002637127
4.249131e-12
1.407593e-06
-1.410808e-06
-0.0002635455
0.0002634754
8.10772e-12
1.480948e-06
-1.456213e-06
-0.0002632165
0.0002631137
9.437593e-12
1.559006e-06
-1.500442e-06
-0.0002627522
0.000262615
9.73507e-12
1.637641e-06
-1.53985e-06
-0.0002621444
0.0002619724
6.653138e-12
1.711819e-06
-1.57004e-06
-0.0002613935
0.0002611877
9.407895e-13
1.775751e-06
-1.588087e-06
-0.0002605084
0.0002602723
2.206209e-12
1.824215e-06
-1.59321e-06
-0.0002595069
0.0002592461
5.928818e-12
1.853986e-06
-1.585836e-06
-0.0002584138
0.0002581355
-1.675004e-12
1.86415e-06
-1.567134e-06
-0.0002572579
0.0002569699
-3.761638e-11
1.855202e-06
-1.539568e-06
-0.0002560707
0.0002557808
-6.721378e-11
1.829556e-06
-1.506827e-06
-0.0002548815
0.0002545964
-8.518791e-11
1.792079e-06
-1.472078e-06
-0.0002537137
0.0002534387
-1.027474e-10
1.747231e-06
-1.437147e-06
-0.0002525859
0.0002523258
-1.12673e-10
1.697374e-06
-1.402366e-06
-0.0002515154
0.0002512757
-1.181389e-10
1.642127e-06
-1.365571e-06
-0.0002505235
0.0002503133
-1.152568e-10
1.575883e-06
-1.316784e-06
-0.0002496548
0.0002494961
-1.133978e-10
1.47561e-06
-1.166109e-06
-0.0002490544
0.0002490011
-1.133226e-10
1.219446e-06
4.474939e-08
-0.0002489144
0.0002485203
-8.26535e-11
3.49443e-07
7.301226e-07
-0.0002474766
0.0002472325
-1.154642e-10
-4.859222e-07
8.589765e-07
-0.0002464888
0.0002462575
-9.406296e-11
-6.27591e-07
9.021857e-07
-0.0002456357
0.0002454422
-9.772591e-11
-7.085371e-07
9.275772e-07
-0.0002448829
0.0002447015
-9.452006e-11
-7.461299e-07
9.432023e-07
-0.0002441694
0.0002439956
-9.358566e-11
-7.692423e-07
9.556834e-07
-0.0002434811
0.0002433125
-8.413675e-11
-7.86984e-07
9.679399e-07
-0.0002428131
0.0002426496
-7.370474e-11
-8.043619e-07
9.827978e-07
-0.0002421667
0.0002420094
-6.890596e-11
-8.254103e-07
1.001292e-06
-0.0002415472
0.0002413978
-7.573726e-11
-8.517727e-07
1.02719e-06
-0.0002409614
0.0002408181
-7.747522e-11
-8.837302e-07
1.032376e-06
-0.0002404084
0.000240287
-7.057507e-11
-9.109545e-07
1.065104e-06
-0.0002399363
0.0002398259
-6.832584e-11
-9.545867e-07
1.092347e-06
-0.0002395132
0.0002394176
-6.749975e-11
-9.967314e-07
1.113136e-06
-0.0002391521
0.0002390724
-6.836865e-11
-1.033407e-06
1.12588e-06
-0.0002388534
0.0002387885
-6.380405e-11
-1.060965e-06
1.130098e-06
-0.0002386111
0.000238559
-5.368096e-11
-1.077919e-06
1.125534e-06
-0.0002384153
0.0002383726
-4.698522e-11
-1.082809e-06
1.113961e-06
-0.0002382517
0.000238215
-3.764948e-11
-1.077207e-06
1.099101e-06
-0.0002381057
0.0002380704
-2.30612e-11
-1.063754e-06
1.084785e-06
-0.0002379586
0.0002379205
-1.362785e-11
-1.046645e-06
1.073372e-06
-0.000237796
0.0002377526
-5.571096e-12
-1.029961e-06
1.066454e-06
-0.0002376108
0.0002375618
5.449798e-12
-1.017415e-06
1.064131e-06
-0.0002374044
0.0002373512
1.47336e-11
-1.010989e-06
1.064313e-06
-0.0002371853
0.0002371307
1.832001e-11
-1.009728e-06
1.064382e-06
-0.0002369636
0.0002369096
1.452722e-11
-1.010429e-06
1.061469e-06
-0.0002367466
0.0002366929
4.588281e-12
-1.007789e-06
1.048249e-06
-0.0002365347
0.0002364848
-7.231693e-12
-9.983764e-07
1.045484e-06
-0.0002363298
0.0002362749
-2.017373e-11
-9.905635e-07
1.036238e-06
-0.0002360993
0.0002360396
-1.76796e-11
-9.765129e-07
1.026413e-06
-0.0002358582
0.0002357963
-3.624806e-11
-9.644672e-07
1.0235e-06
-0.0002356058
0.0002355412
-4.818498e-11
-9.588445e-07
1.027947e-06
-0.000235345
0.0002352797
-5.253596e-11
-9.626807e-07
1.036484e-06
-0.0002350896
0.0002350309
-3.407417e-11
-9.777662e-07
1.056446e-06
-0.0002349119
0.0002348348
1.231629e-10
-9.795406e-07
1.304012e-06
-0.0002327482
0.0009531733
8.707753e-12
-3.901825e-06
2.755026e-08
1.307005e-06
1.33773e-08
-0.0002327566
-0.0002432072
-0.0002432114
6.354852e-07
-0.0009559555
0.0009560029
8.888109e-12
-3.313352e-06
1.015539e-06
6.167355e-07
9.982346e-07
8.470471e-07
-0.0009559245
0.0009559961
9.233047e-12
-3.554092e-06
9.08564e-07
8.323197e-07
8.946221e-07
9.217069e-07
-0.0009565194
0.0009569637
9.642467e-12
-4.21295e-06
9.75307e-07
9.088992e-07
9.627351e-07
1.004056e-06
-0.0009573131
0.000957477
9.537564e-12
-4.246053e-06
1.048788e-06
9.922234e-07
1.037084e-06
1.047264e-06
-0.0009576162
0.000957738
9.309063e-12
-4.340133e-06
1.072637e-06
1.036426e-06
1.062e-06
1.067654e-06
-0.000957934
0.0009581434
8.683349e-12
-4.490708e-06
1.083325e-06
1.057289e-06
1.072955e-06
1.083477e-06
-0.0009583985
0.0009586375
7.702108e-12
-4.573944e-06
1.094515e-06
1.072143e-06
1.084818e-06
1.095064e-06
-0.0009588877
0.0009591141
7.612261e-12
-4.601423e-06
1.102331e-06
1.084857e-06
1.092761e-06
1.101493e-06
-0.0009593433
0.0009595458
7.655557e-12
-4.59898e-06
1.105863e-06
1.09242e-06
1.096755e-06
1.106488e-06
-0.0009597408
0.0009599112
5.381605e-12
-4.58778e-06
1.110105e-06
1.098428e-06
1.102293e-06
1.113791e-06
-0.0009600716
0.0009602155
4.464436e-12
-4.590108e-06
1.11666e-06
1.106402e-06
1.109321e-06
1.120786e-06
-0.0009603533
0.0009604845
4.574827e-12
-4.605069e-06
1.122712e-06
1.114155e-06
1.116217e-06
1.12567e-06
-0.0009606142
0.0009607414
4.300243e-12
-4.620688e-06
1.126967e-06
1.119749e-06
1.121142e-06
1.128105e-06
-0.0009608668
0.0009609886
5.626412e-12
-4.625134e-06
1.128865e-06
1.122776e-06
1.123594e-06
1.128822e-06
-0.0009611049
0.0009612106
6.703642e-12
-4.612921e-06
1.129443e-06
1.124095e-06
1.124814e-06
1.130365e-06
-0.0009613045
0.0009613832
5.146323e-12
-4.593396e-06
1.131113e-06
1.126153e-06
1.126997e-06
1.135157e-06
-0.0009614466
0.0009614978
-1.229783e-12
-4.586905e-06
1.13645e-06
1.131358e-06
1.132777e-06
1.144869e-06
-0.000961537
0.0009615749
-3.66053e-12
-4.614618e-06
1.146816e-06
1.141521e-06
1.143511e-06
1.158197e-06
-0.0009616105
0.0009616586
6.275281e-12
-4.679381e-06
1.160379e-06
1.155225e-06
1.157461e-06
1.171694e-06
-0.0009617146
0.0009617913
1.184065e-11
-4.762069e-06
1.173663e-06
1.168979e-06
1.17099e-06
1.18197e-06
-0.0009618804
0.0009619895
5.460341e-12
-4.834559e-06
1.183147e-06
1.179522e-06
1.180788e-06
1.186486e-06
-0.0009621084
0.0009622405
-3.751538e-12
-4.874411e-06
1.186941e-06
1.184258e-06
1.18468e-06
1.185062e-06
-0.0009623748
0.0009625085
1.769727e-13
-4.869503e-06
1.184736e-06
1.183086e-06
1.182961e-06
1.180254e-06
-0.0009626433
0.0009627755
-4.511406e-12
-4.848003e-06
1.179529e-06
1.178447e-06
1.177612e-06
1.172372e-06
-0.000962902
0.0009630207
-1.268749e-11
-4.803204e-06
1.171579e-06
1.17062e-06
1.169959e-06
1.162687e-06
-0.000963134
0.0009632404
2.515571e-11
-4.751311e-06
1.16139e-06
1.161e-06
1.159814e-06
1.152992e-06
-0.0009633384
0.0009634246
-1.989976e-11
-4.692971e-06
1.152152e-06
1.151204e-06
1.150461e-06
1.142891e-06
-0.0009635024
0.0009635651
-1.210739e-11
-4.62807e-06
1.141382e-06
1.141318e-06
1.139826e-06
1.133182e-06
-0.0009636161
0.0009636508
1.698461e-11
-4.562193e-06
1.131657e-06
1.132006e-06
1.130553e-06
1.124669e-06
-0.0009636744
0.0009636812
5.592538e-11
-4.501851e-06
1.123696e-06
1.123767e-06
1.122795e-06
1.119427e-06
-0.0009636775
0.0009636598
3.274802e-11
-4.457177e-06
1.118888e-06
1.118522e-06
1.117991e-06
1.116276e-06
-0.0009636338
0.0009635957
2.637621e-11
-4.424919e-06
1.116112e-06
1.11534e-06
1.115209e-06
1.114487e-06
-0.0009635511
0.0009634956
5.564099e-12
-4.400818e-06
1.114463e-06
1.113671e-06
1.113695e-06
1.113705e-06
-0.0009634337
0.0009633594
-1.502108e-11
-4.379283e-06
1.113801e-06
1.11298e-06
1.113081e-06
1.113458e-06
-0.0009632781
0.0009631833
-2.794221e-11
-4.357648e-06
1.11344e-06
1.112802e-06
1.112791e-06
1.113004e-06
-0.0009630814
0.0009629636
-2.19059e-11
-4.333042e-06
1.113055e-06
1.112394e-06
1.112474e-06
1.112419e-06
-0.0009628383
0.0009626951
-6.423291e-12
-4.305417e-06
1.112505e-06
1.111813e-06
1.111863e-06
1.111698e-06
-0.0009625446
0.0009623742
1.583734e-12
-4.275073e-06
1.111555e-06
1.111261e-06
1.110998e-06
1.110867e-06
-0.0009621971
0.0009619958
-1.020102e-11
-4.240266e-06
1.110376e-06
1.110428e-06
1.109947e-06
1.109019e-06
-0.0009617892
0.0009615599
1.269664e-12
-4.200902e-06
1.1069e-06
1.108234e-06
1.106088e-06
1.095702e-06
-0.0009613396
0.0009610985
3.409745e-11
-4.148191e-06
1.097985e-06
1.097437e-06
1.098165e-06
1.093913e-06
-0.0009608256
0.0009605275
2.505411e-12
-4.067522e-06
1.0896e-06
1.093171e-06
1.088958e-06
1.067067e-06
-0.0009602187
0.0009598631
5.416126e-12
-3.907656e-06
1.064977e-06
1.066673e-06
1.064569e-06
1.007353e-06
-0.0009595007
0.0009591042
3.170154e-12
-3.622598e-06
1.002703e-06
1.006843e-06
1.002172e-06
8.536145e-07
-0.0009587698
0.0009586459
2.454396e-12
-3.14319e-06
7.801508e-07
8.534107e-07
7.798947e-07
6.89504e-07
-0.0009585667
0.000958399
1.72685e-12
-2.568262e-06
6.786794e-07
6.892289e-07
6.785467e-07
6.390435e-07
-0.000958229
0.0009580023
1.07884e-12
-2.317947e-06
6.335866e-07
6.387056e-07
6.333109e-07
5.853818e-07
-0.0009577685
0.0009574794
-1.780499e-13
-2.035228e-06
5.769601e-07
5.852031e-07
5.767934e-07
5.238066e-07
-0.0009571964
0.0009568264
-3.077218e-12
-1.722279e-06
5.225795e-07
5.235687e-07
5.223644e-07
4.647864e-07
-0.0009564652
0.0009559598
-1.123591e-11
-1.360469e-06
4.684089e-07
4.64522e-07
4.681946e-07
4.001797e-07
-0.0009554623
0.0009547463
-3.331937e-11
-9.13827e-07
4.150787e-07
3.998028e-07
4.147624e-07
2.922895e-07
-0.0009541148
0.0009534751
-8.58731e-11
-5.598968e-07
3.084678e-07
2.91398e-07
3.075396e-07
4.456617e-08
-0.0009535447
0.0009536512
-8.22899e-11
-5.785342e-07
1.941713e-07
4.246295e-08
1.909501e-07
3.391077e-07
-0.0009533243
0.0009510444
1.677073e-10
9.896356e-07
2.985884e-07
3.598563e-07
2.925074e-07
1.983442e-07
-0.000949201
0.0009479186
6.166624e-11
6.725338e-07
1.005427e-07
2.048938e-07
1.059388e-07
1.102989e-07
-0.0009467239
0.0009455832
2.239635e-11
7.667872e-07
7.339185e-08
1.139123e-07
7.633157e-08
8.196781e-08
-0.0009442832
0.0009430213
8.817003e-12
9.782804e-07
5.741427e-08
8.45072e-08
5.972291e-08
6.91614e-08
-0.0009417119
0.0009404447
4.535311e-12
1.016016e-06
5.438624e-08
7.128125e-08
5.635646e-08
8.112274e-08
-0.0009391515
0.0009378683
2.288295e-12
9.679513e-07
7.462934e-08
8.307692e-08
7.64518e-08
1.004441e-07
-0.0009365657
0.0009352808
1.891068e-12
8.845397e-07
9.819076e-08
1.020255e-07
9.969772e-08
1.204144e-07
-0.0009339895
0.0009327196
2.364678e-12
7.86481e-07
1.199599e-07
1.217836e-07
1.212656e-07
1.369608e-07
-0.0009314523
0.0009302094
1.38002e-12
6.925456e-07
1.370983e-07
1.381301e-07
1.382155e-07
1.481544e-07
-0.0009289765
0.0009277684
-1.933534e-13
6.132762e-07
1.483172e-07
1.491502e-07
1.492748e-07
1.519636e-07
-0.0009265718
0.0009253966
-2.481208e-13
5.666597e-07
1.514595e-07
1.528184e-07
1.522873e-07
1.461233e-07
-0.0009242295
0.0009230753
1.463087e-12
5.720734e-07
1.441886e-07
1.468618e-07
1.449739e-07
1.288396e-07
-0.0009219248
0.0009207744
3.178256e-12
6.40247e-07
1.255416e-07
1.295762e-07
1.261868e-07
1.002258e-07
-0.0009196207
0.0009184557
7.168513e-12