/*--------------------------------*- C++ -*----------------------------------*\
| =========                 |                                                 |
| \\      /  F ield         | foam-extend: Open Source CFD                    |
|  \\    /   O peration     | Version:     3.1                                |
|   \\  /    A nd           | Web:         http://www.extend-project.de       |
|    \\/     M anipulation  |                                                 |
\*---------------------------------------------------------------------------*/
FoamFile
{
    version     2.0;
    format      ascii;
    class       volScalarField;
    location    "5";
    object      k;
}
// * * * * * * * * * * * * * * * * * * * * * * * * * * * * * * * * * * * * * //

dimensions      [0 2 -2 0 0 0 0];

internalField   nonuniform List<scalar> 
119952
(
0.01154742
0.009822345
0.0094962
0.009735404
0.009887915
0.009766051
0.009851746
0.01001927
0.01019458
0.01035046
0.01047828
0.01057829
0.01065482
0.0107133
0.01075878
0.01079606
0.0108296
0.0108646
0.01091161
0.01102008
0.0118955
0.0116502
0.0117118
0.01253952
0.01212522
0.01192914
0.01175754
0.01158999
0.01119802
0.01935441
0.03162813
0.02994546
0.02842241
0.0272562
0.02641681
0.02582614
0.02539976
0.02505933
0.02475369
0.0245325
0.02448873
0.02581078
0.02764667
0.02955384
0.03119722
0.03251367
0.03353672
0.0343081
0.03487095
0.03833207
0.03876827
0.03900875
0.03912153
0.03909763
0.03899016
0.03885608
0.03873534
0.03864727
0.03869484
0.03870613
0.03862968
0.03856796
0.03853053
0.03851376
0.03852003
0.03854396
0.03857207
0.03860027
0.03927898
0.03920659
0.03903096
0.03911822
0.03924332
0.03926607
0.03918246
0.03907428
0.03896238
0.03884782
0.03872942
0.03860598
0.03847637
0.03833906
0.03819423
0.03804181
0.03788062
0.0377072
0.03751446
0.03729768
0.03714488
0.03701434
0.03677782
0.0367043
0.03690523
0.03694009
0.03688482
0.03686312
0.03675127
0.03575916
0.0349977
0.03445467
0.03400599
0.0335956
0.03320735
0.03283611
0.03247596
0.03212359
0.03177743
0.03143675
0.03110104
0.03076991
0.03044301
0.03012008
0.02980098
0.02948569
0.02917429
0.02886688
0.02856361
0.02826455
0.0279703
0.02768172
0.02739858
0.02712073
0.02684825
0.02658132
0.02632017
0.02606508
0.02581623
0.02557381
0.0253379
0.02510859
0.02488621
0.02467061
0.02446229
0.02426092
0.02406588
0.02387697
0.02369396
0.02351655
0.02334443
0.02317729
0.02301481
0.02285669
0.02270262
0.02255221
0.02240454
0.02225737
0.02211218
0.02198556
0.02189829
0.02181382
0.02172552
0.02162922
0.02152423
0.02141126
0.02129141
0.02116581
0.02103555
0.02090174
0.02076532
0.02062711
0.02048779
0.02034789
0.02020789
0.02006817
0.01992906
0.01979087
0.01965386
0.0195183
0.01938445
0.01925255
0.01912279
0.01899541
0.01887064
0.01874884
0.01863036
0.01851546
0.01840429
0.01829703
0.01819388
0.01809507
0.01800082
0.01791136
0.0178269
0.01774766
0.01767381
0.01760556
0.01754306
0.01748652
0.01743606
0.01739154
0.01735249
0.01731885
0.01729034
0.01726705
0.01724818
0.01723179
0.01722212
0.01732148
0.01751668
0.01760506
0.01764555
0.01766034
0.01766199
0.01765174
0.01762306
0.01758561
0.01754649
0.01750985
0.01747821
0.01745299
0.01743512
0.01742513
0.01742329
0.01742978
0.01744466
0.01746801
0.01750022
0.01753957
0.01758821
0.01764411
0.01770591
0.01777611
0.01785466
0.01794134
0.01803638
0.01813476
0.01823178
0.01832953
0.01842963
0.01853319
0.01863987
0.01874639
0.01881468
0.01893569
0.0190764
0.01921379
0.01934148
0.0194556
0.01955554
0.01964117
0.0197128
0.01977108
0.01981669
0.01985043
0.01987332
0.01988642
0.01989075
0.01988731
0.01987705
0.0198609
0.01983973
0.01981431
0.01978536
0.01975354
0.01971941
0.0196835
0.01964628
0.01960818
0.01956951
0.01953056
0.01949162
0.0194529
0.0194146
0.01937685
0.01934014
0.01930531
0.0192722
0.01840071
0.01849449
0.01853777
0.01852621
0.01849458
0.01845222
0.0183922
0.01832344
0.0182547
0.01819087
0.01813463
0.01808709
0.01804921
0.01802042
0.0180001
0.01798728
0.01798091
0.01797989
0.01798315
0.01798971
0.01799867
0.01800921
0.01802069
0.01803259
0.01804448
0.01805598
0.01806685
0.01807688
0.01808595
0.018094
0.018101
0.01810695
0.01811189
0.01811588
0.01811899
0.01812132
0.01812294
0.01812398
0.01812454
0.01812473
0.0181247
0.01812464
0.01812493
0.01812645
0.01813147
0.01814115
0.01814706
0.01814931
0.01815274
0.0181571
0.01816187
0.01816786
0.0181756
0.01819915
0.01828685
0.01826215
0.01823817
0.01820981
0.01817445
0.01813269
0.01808521
0.01803343
0.01797952
0.01792565
0.01787362
0.01782475
0.01777985
0.0177394
0.01770379
0.01767296
0.01764668
0.01762458
0.01760624
0.01759121
0.01757904
0.01756925
0.0175614
0.01755509
0.01754993
0.01754559
0.01754177
0.01753822
0.01753473
0.01753112
0.01752726
0.01752306
0.01751846
0.01751343
0.01750797
0.01750207
0.01749578
0.01748914
0.01748218
0.01747496
0.0174675
0.01745983
0.01745197
0.01744396
0.01743582
0.01742753
0.01741908
0.01741043
0.01740153
0.01739232
0.01738275
0.01737277
0.01736235
0.01735145
0.01734006
0.01732819
0.01731581
0.01730295
0.01728962
0.01727583
0.01726159
0.01724693
0.01723187
0.01721642
0.01720061
0.01718443
0.01716791
0.01715105
0.01713386
0.01711634
0.01709848
0.01708028
0.01706171
0.01704276
0.01702335
0.01700358
0.01698326
0.01696208
0.01693927
0.01691376
0.01688123
0.01683301
0.01674496
0.01662334
0.01686593
0.04895176
0.04638629
0.04585487
0.04633111
0.04726775
0.04834668
0.04939929
0.05034621
0.05115588
0.05003791
0.04963885
0.0508533
0.05268281
0.05464292
0.05643747
0.05797096
0.05923667
0.06024727
0.06667866
0.06664193
0.06649776
0.06612967
0.06564687
0.06512233
0.06463014
0.06415714
0.06371639
0.06328058
0.06305488
0.06270431
0.06222789
0.06170326
0.06115873
0.06060793
0.06006055
0.05952372
0.05900041
0.05867896
0.05842371
0.05799467
0.05754665
0.0570995
0.05665057
0.056209
0.05578396
0.05539345
0.0550467
0.05470403
0.05440313
0.05417367
0.05398527
0.05382431
0.05369058
0.05357393
0.05347455
0.05346607
0.0566147
0.05649504
0.05643561
0.05639076
0.05632914
0.05623948
0.05611934
0.05597033
0.05579344
0.05559829
0.05539453
0.05517385
0.05494208
0.05470723
0.05448164
0.05426979
0.05409181
0.05396247
0.05393012
0.05391222
0.0537859
0.05366759
0.05360746
0.05355229
0.05346301
0.05334363
0.05320721
0.05305887
0.05290183
0.05273833
0.05256984
0.05239717
0.05222236
0.05204527
0.05186328
0.05167218
0.05146929
0.05125309
0.05103716
0.05083001
0.05061178
0.05042093
0.05031771
0.05025591
0.05017889
0.05008016
0.0499129
0.04955638
0.04902337
0.04852667
0.04808571
0.04766298
0.04724867
0.04683899
0.04643057
0.04602083
0.04560816
0.045192
0.04477245
0.04434995
0.04392505
0.0434984
0.04307073
0.0426428
0.04221542
0.04178936
0.04136545
0.04094449
0.04052722
0.04011417
0.03970585
0.03930289
0.03890591
0.03851548
0.03813213
0.03775633
0.03738848
0.03702891
0.03667789
0.03633545
0.03600146
0.03567551
0.03535778
0.03504855
0.03474783
0.0344555
0.03417135
0.03389509
0.03362642
0.03336498
0.03311037
0.03286216
0.03261987
0.03238294
0.03215081
0.03192311
0.03170036
0.03148355
0.0312726
0.03106464
0.03085796
0.03065337
0.03045069
0.03024951
0.03004943
0.02985011
0.0296512
0.02945238
0.02925336
0.0290539
0.02885382
0.02865299
0.02845135
0.02824887
0.02804559
0.02784158
0.02763696
0.02743187
0.02722651
0.02702107
0.02681582
0.02661103
0.02640698
0.02620401
0.0260024
0.0258025
0.02560467
0.02540929
0.02521671
0.02502732
0.02484145
0.02465948
0.02448173
0.02430855
0.02414023
0.02397714
0.02381946
0.02366759
0.02352154
0.02338181
0.02324813
0.0231212
0.0230002
0.02288629
0.02277766
0.02267657
0.02258062
0.02249903
0.0221926
0.02182107
0.0215491
0.02134267
0.02118111
0.02105099
0.02094374
0.02085362
0.02077649
0.02070923
0.02064944
0.02059517
0.0205448
0.020497
0.02045062
0.02040471
0.02035844
0.02031109
0.02026202
0.02021078
0.02015684
0.02009994
0.02003974
0.01997603
0.01990868
0.01983755
0.01976265
0.01968409
0.01960203
0.01951671
0.01942833
0.01933702
0.01924255
0.01914481
0.01904399
0.01894043
0.01884602
0.01876505
0.01868992
0.01861764
0.01854774
0.01847999
0.0184143
0.01835082
0.01828974
0.01823127
0.01817565
0.01812307
0.01807371
0.01802773
0.01798524
0.01794634
0.01791108
0.0178795
0.0178516
0.01782737
0.01780676
0.0177897
0.01777611
0.01776589
0.01775892
0.0177551
0.01775429
0.01775635
0.01776113
0.01776849
0.01777831
0.01779046
0.01780489
0.01782163
0.01854485
0.01855273
0.01858054
0.01861625
0.01865405
0.01869212
0.01873001
0.01876732
0.01880362
0.0188387
0.0188725
0.01890501
0.01893622
0.01896612
0.01899478
0.01902228
0.01904869
0.0190741
0.01909864
0.01912235
0.0191453
0.01916758
0.01918929
0.01921052
0.01923133
0.0192518
0.01927199
0.01929193
0.01931168
0.01933127
0.01935073
0.01937007
0.01938931
0.01940847
0.01942755
0.01944656
0.01946551
0.01948441
0.01950327
0.01952212
0.01954099
0.01955997
0.01957923
0.01959891
0.01961882
0.01963816
0.01965583
0.01967174
0.01968693
0.01970185
0.01971657
0.0197311
0.01974702
0.01976939
0.01979447
0.01980849
0.0198158
0.01982251
0.01983004
0.01983856
0.01984799
0.01985801
0.01986832
0.01987867
0.01988882
0.01989858
0.01990791
0.01991673
0.019925
0.0199327
0.01993983
0.0199464
0.01995243
0.01995795
0.01996297
0.01996753
0.01997165
0.01997532
0.01997857
0.0199814
0.01998379
0.01998576
0.01998728
0.01998835
0.01998895
0.01998908
0.01998874
0.01998791
0.0199866
0.01998483
0.01998262
0.01998
0.01997702
0.01997371
0.01997014
0.01996634
0.01996238
0.01995828
0.01995412
0.01994992
0.01994572
0.01994155
0.01993741
0.01993332
0.01992928
0.01992527
0.01992129
0.01991732
0.01991335
0.01990939
0.01990542
0.01990145
0.01989749
0.01989355
0.01988965
0.01988581
0.01988205
0.01987841
0.0198749
0.01987156
0.01986842
0.01986549
0.01986281
0.0198604
0.01985827
0.01985644
0.01985493
0.01985371
0.01985285
0.0198522
0.01985188
0.01985132
0.01985074
0.01984838
0.01984448
0.01983779
0.01984069
0.01987862
0.01994076
0.05163279
0.05433291
0.05751833
0.06098616
0.06476768
0.06897386
0.07375431
0.07943719
0.08714234
0.09768835
0.1424888
0.149485
0.1538473
0.157347
0.1602378
0.1621709
0.1631092
0.1633332
0.1628448
0.1851919
0.1844614
0.182928
0.1805525
0.1775498
0.174141
0.1704902
0.1667735
0.1630711
0.1595187
0.1558471
0.15235
0.1490777
0.1460266
0.1431639
0.1404566
0.1378729
0.1353819
0.1330531
0.1304596
0.1279401
0.1254974
0.123168
0.1209576
0.1188575
0.1168606
0.1149598
0.1131456
0.1114288
0.1097653
0.1081447
0.1065743
0.1050413
0.1035443
0.1020843
0.1006644
0.09929982
0.1014192
0.1001675
0.09893105
0.09773661
0.09657383
0.0954287
0.09429713
0.09318088
0.09207689
0.0909758
0.08988615
0.08882419
0.08778062
0.08675142
0.08574614
0.08476575
0.08381004
0.08288157
0.08198183
0.08111499
0.08027143
0.07943348
0.07861051
0.0778039
0.07701164
0.07623654
0.07547854
0.07473847
0.07401714
0.07331105
0.07261301
0.07193635
0.07127898
0.07065394
0.07004764
0.06948458
0.06891341
0.06833531
0.0679432
0.06755314
0.06713675
0.06671936
0.06632011
0.065939
0.06556848
0.06520351
0.06484212
0.06448589
0.06413442
0.0637885
0.06345285
0.06313244
0.06283181
0.06255243
0.06229568
0.06206553
0.06187177
0.06170562
0.06153286
0.06135778
0.061202
0.06106287
0.06092197
0.06076967
0.0606077
0.06044077
0.06027156
0.06010052
0.05992699
0.05974954
0.05956492
0.05937116
0.05917008
0.05896366
0.05874959
0.05852899
0.05830362
0.05808376
0.05786666
0.05767044
0.05751048
0.05738215
0.05725301
0.05709664
0.05688874
0.05658193
0.05617122
0.05572382
0.05528023
0.05485042
0.05442666
0.05400153
0.05357178
0.05313641
0.05269501
0.05224739
0.05179369
0.05133433
0.05086995
0.05040136
0.04992941
0.04945505
0.04897924
0.04850297
0.04802725
0.04755306
0.04708133
0.04661294
0.04614874
0.04568958
0.04523624
0.04478944
0.04434986
0.04391809
0.04349468
0.04308009
0.04267471
0.04227881
0.04189267
0.0415164
0.04114993
0.04079318
0.04044609
0.04010851
0.0397802
0.03946087
0.03915017
0.03884768
0.03855294
0.03826542
0.03798456
0.03770977
0.03744048
0.03717623
0.03691686
0.03666258
0.03641353
0.03616878
0.03592661
0.03568597
0.0354465
0.03520804
0.03497039
0.03473332
0.03449658
0.0342599
0.03402307
0.0337859
0.03354825
0.03331
0.03307111
0.03283155
0.03259133
0.03235052
0.03210923
0.03186758
0.03162577
0.031384
0.03114251
0.03090158
0.03066151
0.03042265
0.03018533
0.02994993
0.02971682
0.02948639
0.02925904
0.02903518
0.02881522
0.02859954
0.02838858
0.02818268
0.02798227
0.02778764
0.02759923
0.0274172
0.02724203
0.02707369
0.02691275
0.02675885
0.02661284
0.02647367
0.02634289
0.02621823
0.02610271
0.0259908
0.02587203
0.02576815
0.02567633
0.025594
0.0255196
0.02545204
0.02539046
0.0253342
0.02528263
0.02523519
0.02519131
0.02515042
0.02511196
0.02507532
0.02503989
0.02500507
0.02497022
0.02493472
0.02489798
0.0248594
0.02481841
0.02477447
0.02472708
0.02467578
0.02462016
0.02455988
0.02449465
0.02442426
0.02434857
0.02426749
0.02418095
0.02408889
0.02399123
0.02388802
0.02377997
0.0236696
0.02356052
0.02345373
0.02334814
0.02324349
0.02313985
0.02303733
0.02293614
0.02283659
0.02273903
0.02264387
0.02255147
0.0224622
0.0223764
0.02229438
0.02221641
0.0221427
0.02207343
0.02200875
0.02194874
0.02189346
0.02184291
0.02179708
0.02175591
0.02171932
0.02168719
0.02165942
0.02163584
0.02161629
0.0216006
0.02158861
0.02158008
0.02157499
0.02157268
0.02157428
0.02159036
0.02160805
0.02162211
0.02163286
0.02164316
0.021655
0.02166901
0.02168498
0.02170254
0.02172136
0.02174123
0.02176201
0.02178352
0.02180559
0.02182805
0.02185077
0.02187364
0.02189657
0.02191945
0.02194225
0.02196491
0.02198739
0.02200966
0.02203169
0.02205348
0.02207503
0.02209635
0.02211743
0.02213829
0.02215896
0.02217943
0.02219971
0.02221984
0.0222398
0.02225962
0.0222793
0.02229886
0.02231831
0.02233766
0.02235692
0.02237612
0.02239528
0.02241441
0.02243345
0.02245226
0.02247056
0.02248798
0.02250442
0.02252007
0.02253524
0.02254999
0.02256431
0.0225779
0.02259019
0.02260151
0.02261376
0.02262707
0.02264102
0.02265451
0.02266715
0.02267917
0.02269078
0.02270208
0.02271308
0.02272384
0.02273438
0.02274469
0.02275472
0.02276447
0.02277394
0.02278311
0.02279198
0.02280053
0.02280874
0.02281661
0.02282413
0.02283128
0.02283805
0.02284443
0.0228504
0.02285595
0.02286106
0.02286571
0.02286988
0.02287356
0.02287673
0.02287937
0.02288149
0.02288308
0.02288414
0.02288469
0.02288474
0.02288432
0.02288346
0.0228822
0.02288058
0.02287863
0.0228764
0.02287394
0.02287128
0.02286848
0.02286558
0.0228626
0.02285958
0.02285654
0.02285351
0.02285049
0.0228475
0.02284454
0.02284163
0.02283876
0.02283596
0.02283324
0.0228306
0.02282807
0.02282567
0.02282341
0.02282132
0.02281943
0.02281776
0.02281633
0.02281519
0.02281432
0.0228138
0.02281359
0.0228138
0.02281434
0.02281538
0.02281675
0.02281874
0.02282094
0.0228239
0.02282681
0.02283086
0.02283506
0.0228428
0.02285485
0.02287812
0.02290737
0.0413044
0.04592581
0.05002008
0.07460843
0.09980829
0.1305581
0.150671
0.1701021
0.187579
0.2031308
0.2160014
0.2261308
0.2352684
0.2438324
0.2517759
0.2586812
0.2646639
0.2698568
0.2740998
0.2775842
0.2802363
0.281807
0.2818193
0.2804028
0.2778629
0.2743914
0.2700848
0.2649852
0.259347
0.2534372
0.246786
0.2386252
0.2325731
0.226575
0.2207011
0.2149806
0.2094401
0.2040949
0.1989456
0.1939984
0.1892583
0.1846956
0.1802508
0.1759116
0.1717152
0.1676768
0.1638043
0.1600963
0.1565512
0.1531582
0.1498945
0.1467705
0.143783
0.1409237
0.1381872
0.1355708
0.1330719
0.1306896
0.1284164
0.1262469
0.124183
0.1222174
0.1203422
0.1185547
0.1168512
0.1152289
0.1136769
0.1121656
0.1106609
0.1092347
0.1078828
0.1065947
0.1053579
0.1041641
0.1030086
0.1018877
0.1007965
0.09972948
0.09868671
0.09766544
0.09666027
0.09566641
0.09467752
0.09369731
0.09272759
0.09177029
0.09082563
0.08989473
0.08897229
0.08805827
0.08715856
0.08627642
0.0854128
0.08456734
0.08373882
0.08292742
0.08213309
0.08135337
0.08058703
0.07983753
0.0791046
0.07839254
0.07769877
0.07703242
0.076383
0.07576805
0.07520034
0.07464576
0.07409743
0.07356728
0.07306323
0.07258266
0.07211821
0.07166411
0.07121759
0.07077819
0.07034664
0.06992436
0.06951391
0.06911863
0.06874214
0.06838794
0.06806016
0.0677616
0.067494
0.06725218
0.06702199
0.06680292
0.06660245
0.06642
0.06624673
0.06607474
0.0659024
0.06573105
0.06556141
0.0653929
0.06522416
0.06505366
0.06487943
0.0646994
0.06451014
0.06430941
0.06410022
0.06388561
0.06366718
0.06345035
0.0632381
0.06303503
0.06285091
0.06268267
0.06251246
0.06232006
0.06208842
0.06179872
0.06143992
0.06103639
0.06061962
0.06020198
0.05978193
0.05935549
0.05892085
0.05847775
0.05802625
0.05756637
0.05709827
0.05662236
0.0561393
0.05564991
0.05515511
0.05465589
0.0541533
0.05364842
0.05314235
0.0526362
0.0521311
0.05162811
0.05112829
0.05063261
0.05014204
0.04965745
0.04917968
0.0487095
0.04824761
0.04779461
0.04735107
0.04691741
0.04649397
0.04608099
0.04567856
0.04528675
0.04490553
0.04453479
0.04417433
0.04382384
0.04348299
0.04315134
0.0428284
0.04251362
0.04220644
0.04190624
0.04161245
0.04132454
0.04104212
0.04076498
0.04049284
0.04022499
0.03996019
0.03969746
0.03943623
0.03917613
0.0389168
0.03865788
0.03839905
0.03814002
0.03788054
0.03762041
0.03735947
0.0370976
0.03683475
0.0365709
0.03630606
0.0360403
0.03577374
0.03550652
0.03523884
0.03497093
0.03470304
0.03443548
0.03416858
0.03390268
0.03363817
0.03337544
0.03311491
0.03285701
0.03260218
0.03235087
0.03210354
0.03186064
0.03162261
0.0313899
0.03116293
0.03094211
0.03072785
0.03052048
0.03032039
0.03012781
0.02994313
0.02976639
0.02959801
0.02943781
0.02928631
0.0291431
0.029009
0.02888354
0.02876688
0.02865844
0.02855767
0.02846439
0.0283787
0.02830048
0.02822943
0.02816513
0.02810711
0.02805486
0.02800785
0.0279655
0.02792721
0.02789236
0.02786028
0.02783032
0.02780178
0.027774
0.02774629
0.02771799
0.02768842
0.02765695
0.02762297
0.0275859
0.0275452
0.02750041
0.02745112
0.02739696
0.02733763
0.02727287
0.02720247
0.02712625
0.02704412
0.02695615
0.02686285
0.02676537
0.02666547
0.02656447
0.02646272
0.02636027
0.02625731
0.02615409
0.026051
0.02594844
0.02584691
0.02574685
0.02564876
0.02555311
0.02546032
0.02537081
0.02528493
0.02520302
0.02512532
0.02505206
0.02498341
0.02491949
0.02486035
0.02480604
0.02475654
0.02471179
0.02467173
0.02463623
0.02460517
0.02457839
0.02455575
0.02453702
0.02452208
0.02451062
0.02450266
0.02449773
0.02449603
0.02449681
0.02450043
0.02450714
0.02451637
0.02452762
0.02454062
0.0245551
0.0245708
0.02458753
0.02460516
0.0246236
0.02464275
0.02466251
0.02468278
0.02470347
0.02472449
0.02474578
0.02476726
0.02478887
0.02481056
0.02483228
0.02485398
0.02487563
0.02489719
0.02491864
0.02493998
0.02496118
0.02498225
0.02500318
0.02502397
0.02504462
0.02506513
0.0250855
0.02510574
0.02512584
0.02514582
0.02516567
0.02518539
0.02520499
0.02522446
0.02524379
0.02526295
0.02528187
0.02530047
0.02531863
0.02533618
0.02535304
0.02536924
0.02538491
0.02540013
0.02541495
0.02542946
0.02544394
0.02545839
0.02547233
0.0254853
0.0254974
0.02550899
0.02552025
0.02553133
0.0255423
0.02555314
0.02556384
0.02557439
0.02558475
0.02559491
0.02560484
0.02561453
0.02562395
0.0256331
0.02564196
0.02565051
0.02565876
0.02566668
0.02567428
0.02568154
0.02568846
0.02569502
0.02570121
0.02570701
0.02571241
0.02571739
0.02572193
0.02572601
0.02572962
0.02573275
0.02573538
0.02573751
0.02573913
0.02574025
0.02574088
0.02574103
0.02574072
0.02573998
0.02573883
0.0257373
0.02573544
0.02573327
0.02573084
0.02572819
0.02572536
0.02572239
0.02571931
0.02571617
0.02571298
0.02570979
0.0257066
0.02570345
0.02570035
0.02569733
0.02569439
0.02569155
0.02568884
0.02568627
0.02568385
0.02568162
0.0256796
0.02567779
0.02567623
0.02567494
0.02567395
0.02567326
0.02567293
0.02567296
0.0256734
0.02567427
0.02567562
0.02567748
0.02567993
0.025683
0.02568684
0.02569157
0.02569753
0.02570527
0.02571556
0.02572959
0.02574817
0.02577083
0.02001503
0.02222189
0.02437377
0.03213361
0.04276004
0.06080066
0.07373305
0.08754078
0.1024224
0.1174802
0.1329765
0.1498474
0.1677449
0.1857673
0.204198
0.2246642
0.2560502
0.2684591
0.2802972
0.2914716
0.3022332
0.311772
0.3195093
0.3255681
0.329598
0.3319131
0.3327283
0.3322626
0.3305232
0.3275051
0.323155
0.3174896
0.3104168
0.3019739
0.2930687
0.2832947
0.2729157
0.2633709
0.254107
0.2451985
0.2367724
0.2286361
0.2205425
0.2132902
0.2066198
0.200404
0.1946051
0.1891932
0.1841335
0.1793945
0.1749476
0.1707707
0.1668384
0.1631121
0.1595651
0.1561853
0.1529656
0.1498602
0.1468536
0.1439565
0.1411762
0.1385096
0.135958
0.1335213
0.1311974
0.128984
0.1268787
0.1248787
0.1229807
0.1211816
0.1194767
0.1178638
0.1163381
0.1148969
0.1135358
0.112254
0.1110439
0.1099058
0.1088258
0.1078032
0.1068365
0.1059174
0.1050376
0.104193
0.1033809
0.1025978
0.1018369
0.1010845
0.1003384
0.09959545
0.09885369
0.09811298
0.09737295
0.09663292
0.09589274
0.09515219
0.09441115
0.09366924
0.09292637
0.09218297
0.09144071
0.09070228
0.08997026
0.08924598
0.08852964
0.08782121
0.08712087
0.0864289
0.08574525
0.0850696
0.08440233
0.08374389
0.08309607
0.08245959
0.08183748
0.08123029
0.08063853
0.08006225
0.07949735
0.07894146
0.07839709
0.07786733
0.07735186
0.07684754
0.07635104
0.07586039
0.075375
0.07489528
0.07442221
0.07395768
0.07350453
0.07306645
0.07264739
0.07225142
0.07188152
0.0715394
0.0712237
0.07092952
0.07065476
0.07040102
0.07016846
0.06995318
0.06975
0.06955587
0.0693697
0.06919069
0.06901748
0.06884822
0.06868087
0.06851336
0.06834382
0.06817024
0.06799042
0.06780112
0.0676031
0.06740072
0.06719733
0.06699558
0.06679725
0.06660538
0.06641786
0.0662261
0.06601562
0.06577561
0.06549455
0.0651664
0.06480133
0.0644158
0.06401991
0.06361559
0.06320163
0.06277713
0.06234202
0.06189649
0.06144072
0.06097497
0.06049969
0.06001551
0.05952322
0.05902372
0.05851798
0.05800706
0.05749206
0.05697411
0.05645439
0.05593408
0.05541436
0.05489637
0.05438123
0.05387003
0.0533638
0.0528635
0.05237007
0.05188434
0.05140708
0.05093899
0.05048065
0.05003253
0.04959504
0.04916844
0.04875291
0.04834852
0.04795527
0.04757301
0.04720155
0.04684057
0.0464897
0.04614847
0.04581637
0.04549283
0.04517725
0.04486903
0.04456759
0.04427241
0.04398303
0.04369893
0.0434194
0.04314349
0.04287027
0.04259904
0.04232925
0.04206036
0.0417919
0.0415235
0.04125478
0.04098542
0.04071513
0.04044371
0.04017099
0.03989686
0.03962126
0.03934417
0.03906565
0.03878578
0.0385047
0.0382226
0.0379397
0.03765626
0.0373726
0.03708906
0.036806
0.03652383
0.03624297
0.03596388
0.035687
0.03541283
0.03514185
0.03487456
0.03461147
0.03435306
0.03409982
0.03385225
0.0336108
0.03337594
0.03314808
0.03292764
0.03271497
0.03251044
0.03231432
0.03212691
0.0319484
0.03177907
0.03161907
0.03146873
0.03132819
0.03119748
0.03107628
0.03096428
0.03086121
0.03076687
0.03068103
0.03060338
0.03053357
0.03047118
0.03041577
0.03036687
0.03032395
0.03028644
0.03025373
0.0302252
0.03020015
0.0301779
0.03015774
0.03013896
0.03012084
0.03010265
0.03008366
0.03006317
0.03004051
0.03001509
0.02998632
0.02995371
0.02991678
0.02987509
0.02982827
0.029776
0.02971801
0.02965417
0.02958448
0.02950924
0.02942905
0.0293449
0.02925781
0.02916843
0.02907705
0.02898396
0.02888949
0.02879407
0.02869817
0.02860227
0.0285069
0.02841256
0.02831978
0.02822904
0.02814082
0.02805553
0.02797356
0.02789526
0.0278209
0.02775072
0.02768491
0.0276236
0.02756686
0.02751475
0.02746725
0.02742434
0.02738592
0.02735191
0.02732217
0.02729656
0.02727489
0.02725703
0.02724273
0.02723185
0.02722399
0.02721904
0.02721696
0.02721765
0.02722075
0.02722595
0.02723313
0.02724226
0.02725323
0.02726583
0.02727986
0.02729516
0.02731155
0.02732891
0.02734709
0.02736598
0.02738546
0.02740544
0.02742582
0.02744653
0.0274675
0.02748867
0.02750998
0.02753138
0.02755284
0.02757431
0.02759578
0.02761721
0.02763859
0.0276599
0.02768114
0.02770229
0.02772336
0.02774432
0.02776518
0.02778594
0.02780658
0.02782711
0.02784752
0.02786781
0.02788795
0.02790794
0.02792775
0.02794734
0.02796667
0.02798566
0.02800426
0.02802236
0.02803993
0.02805695
0.02807349
0.02808962
0.02810536
0.02812076
0.02813578
0.02815031
0.02816431
0.02817787
0.02819113
0.02820411
0.02821674
0.02822898
0.02824084
0.02825236
0.02826355
0.02827442
0.028285
0.02829527
0.02830523
0.02831488
0.02832421
0.0283332
0.02834187
0.02835019
0.02835817
0.0283658
0.02837308
0.02838
0.02838656
0.02839274
0.02839855
0.02840396
0.02840897
0.02841357
0.02841774
0.02842146
0.02842472
0.02842752
0.02842983
0.02843166
0.028433
0.02843384
0.0284342
0.02843408
0.0284335
0.02843247
0.02843102
0.02842916
0.02842694
0.02842438
0.02842151
0.02841838
0.02841502
0.02841147
0.02840778
0.02840398
0.02840012
0.02839621
0.0283923
0.02838842
0.02838459
0.02838084
0.02837719
0.02837368
0.02837031
0.02836711
0.0283641
0.02836131
0.02835875
0.02835645
0.02835442
0.0283527
0.02835129
0.02835024
0.02834957
0.0283493
0.02834948
0.02835014
0.02835135
0.02835315
0.02835563
0.02835891
0.0283631
0.02836847
0.02837526
0.02838398
0.028395
0.02840919
0.02842636
0.02844602
0.008213915
0.009423532
0.01039159
0.01527932
0.02102631
0.02867934
0.03511001
0.0425026
0.05061275
0.05933584
0.06898049
0.08054043
0.09334098
0.1077956
0.1252515
0.1519518
0.16658
0.1820158
0.1976354
0.2133467
0.2289773
0.2443011
0.2590495
0.2729728
0.2858882
0.2976082
0.3080274
0.3190173
0.3291885
0.3385092
0.3467874
0.3534225
0.357955
0.3598446
0.3596983
0.3577036
0.3539842
0.3486497
0.3417456
0.3332824
0.323286
0.312432
0.3006432
0.2871385
0.274193
0.2615423
0.2491643
0.2373004
0.2260673
0.2155586
0.2058042
0.1968238
0.1886164
0.181163
0.1744221
0.1683198
0.1627872
0.1577693
0.1532169
0.1490853
0.145332
0.1419158
0.1388012
0.1359491
0.1333503
0.1309653
0.1287355
0.1265982
0.1245537
0.1226052
0.1207537
0.1189956
0.1173262
0.115742
0.1142401
0.1128179
0.1114726
0.1102016
0.1090026
0.1078736
0.106812
0.1058159
0.104883
0.104012
0.1032005
0.1024468
0.1017478
0.1011015
0.1005043
0.09995188
0.09943947
0.09896114
0.09851172
0.09808777
0.09768572
0.09729564
0.09690342
0.09651817
0.09613786
0.09575908
0.09537803
0.09499135
0.09459659
0.09419194
0.0937763
0.09334901
0.09290982
0.09245878
0.09199647
0.0915241
0.09104303
0.09055507
0.09006233
0.08956658
0.08906905
0.08857057
0.08807181
0.08757346
0.08707598
0.08657927
0.08608351
0.08558896
0.08509657
0.08460673
0.0841204
0.08363746
0.0831571
0.08268
0.08220551
0.08173137
0.08125687
0.08078304
0.08031053
0.07983842
0.07936513
0.07888943
0.07841099
0.07793023
0.0774483
0.07696716
0.07648963
0.07601939
0.07556048
0.07511709
0.07469285
0.07429048
0.0739113
0.07355489
0.07322079
0.07290971
0.0726221
0.07235651
0.07211003
0.07188002
0.07166467
0.07146243
0.0712715
0.07108971
0.07091474
0.07074426
0.07057613
0.07040829
0.07023906
0.07006676
0.0698898
0.06970682
0.06952023
0.06933266
0.06914492
0.06895726
0.06876753
0.06857072
0.06835758
0.06812114
0.06785498
0.06755485
0.06722491
0.06687376
0.06650771
0.0661294
0.06573906
0.06533649
0.06492177
0.0644952
0.06405709
0.06360777
0.06314769
0.06267743
0.06219771
0.06170932
0.06121318
0.06071026
0.0602016
0.05968831
0.05917153
0.05865246
0.05813227
0.05761215
0.0570933
0.05657686
0.05606395
0.05555566
0.05505301
0.05455698
0.05406846
0.05358829
0.05311719
0.05265581
0.05220469
0.05176425
0.05133483
0.05091665
0.05050981
0.05011433
0.04973012
0.04935697
0.0489946
0.04864265
0.04830065
0.0479681
0.04764445
0.04732911
0.0470215
0.04672101
0.04642705
0.046139
0.04585612
0.04557757
0.04530246
0.04503
0.04475952
0.0444904
0.04422213
0.04395415
0.04368601
0.04341727
0.04314756
0.04287658
0.04260409
0.0423299
0.04205386
0.04177591
0.04149603
0.04121426
0.04093068
0.04064544
0.04035873
0.0400708
0.03978193
0.03949245
0.03920273
0.03891317
0.0386242
0.03833628
0.0380499
0.03776556
0.03748378
0.03720508
0.03693001
0.03665911
0.03639291
0.03613194
0.03587673
0.03562779
0.0353856
0.03515063
0.03492334
0.03470412
0.03449337
0.03429144
0.03409865
0.03391532
0.03374172
0.03357811
0.03342469
0.03328159
0.03314874
0.03302603
0.03291326
0.03281023
0.03271672
0.03263249
0.03255722
0.03249055
0.03243208
0.03238134
0.03233785
0.03230104
0.03227036
0.03224516
0.03222479
0.03220855
0.03219574
0.03218564
0.03217747
0.03217043
0.03216371
0.03215648
0.032148
0.03213762
0.03212475
0.03210882
0.03208926
0.03206554
0.03203718
0.03200377
0.03196497
0.03192054
0.03187043
0.03181476
0.03175387
0.03168835
0.03161889
0.03154605
0.03147024
0.03139179
0.03131107
0.0312285
0.03114456
0.03105972
0.03097452
0.03088946
0.03080507
0.03072188
0.03064036
0.03056098
0.03048417
0.03041032
0.03033975
0.03027275
0.03020956
0.03015038
0.03009532
0.03004449
0.02999792
0.02995562
0.02991756
0.02988367
0.02985386
0.029828
0.02980596
0.02978757
0.02977266
0.02976102
0.02975246
0.02974679
0.02974382
0.02974331
0.02974507
0.02974896
0.02975491
0.02976279
0.02977243
0.02978368
0.02979637
0.02981037
0.02982553
0.02984172
0.02985882
0.02987671
0.02989529
0.02991445
0.02993412
0.02995422
0.02997467
0.02999541
0.03001638
0.03003754
0.03005884
0.03008023
0.0301017
0.0301232
0.03014472
0.03016624
0.03018775
0.03020922
0.03023065
0.03025202
0.03027334
0.03029458
0.03031574
0.03033681
0.03035777
0.03037862
0.03039934
0.0304199
0.03044028
0.03046044
0.03048033
0.03049992
0.03051915
0.03053796
0.03055632
0.03057424
0.03059173
0.03060881
0.03062552
0.03064183
0.03065774
0.03067323
0.03068831
0.03070299
0.03071729
0.03073119
0.0307447
0.0307578
0.03077051
0.03078284
0.03079479
0.03080635
0.03081754
0.03082834
0.03083874
0.03084875
0.03085836
0.03086756
0.03087635
0.03088473
0.03089271
0.03090027
0.03090741
0.03091414
0.03092046
0.03092636
0.03093183
0.03093688
0.03094148
0.03094565
0.03094936
0.0309526
0.03095538
0.03095766
0.03095946
0.03096077
0.03096157
0.03096187
0.03096168
0.03096099
0.03095982
0.03095819
0.03095611
0.03095361
0.0309507
0.03094742
0.0309438
0.03093988
0.0309357
0.03093129
0.0309267
0.03092196
0.03091712
0.03091222
0.0309073
0.03090238
0.03089752
0.03089273
0.03088806
0.03088352
0.03087916
0.03087499
0.03087103
0.03086732
0.03086388
0.03086073
0.03085789
0.03085539
0.03085325
0.0308515
0.03085017
0.03084929
0.03084891
0.03084908
0.03084985
0.03085129
0.0308535
0.0308566
0.03086074
0.03086614
0.03087303
0.0308818
0.03089276
0.03090643
0.03092257
0.03094014
0.002369612
0.008303035
0.01200721
0.01623474
0.02083179
0.02603395
0.0320089
0.03859466
0.04606564
0.05521816
0.06914981
0.07782942
0.0874506