/*--------------------------------*- C++ -*----------------------------------*\
| =========                 |                                                 |
| \\      /  F ield         | foam-extend: Open Source CFD                    |
|  \\    /   O peration     | Version:     3.1                                |
|   \\  /    A nd           | Web:         http://www.extend-project.de       |
|    \\/     M anipulation  |                                                 |
\*---------------------------------------------------------------------------*/
FoamFile
{
    version     2.0;
    format      ascii;
    class       volScalarField;
    location    "5";
    object      p;
}
// * * * * * * * * * * * * * * * * * * * * * * * * * * * * * * * * * * * * * //

dimensions      [1 -1 -2 0 0 0 0];

internalField   nonuniform List<scalar> 
119952
(
9880.341
9791.556
9777.189
9803.545
9832.382
9826.598
9829.663
9833.088
9836.98
9841.065
9845.248
9849.449
9853.601
9857.661
9861.579
9865.298
9868.706
9871.504
9872.622
9866.959
9916.184
9892.779
9888.783
9949.171
9941.966
9952.312
9958.884
9975.401
10025.31
10226.11
8474.887
8518.5
8560.983
8607.194
8652.956
8697.827
8742.177
8785.991
8828.843
8862.621
8889.479
8926.616
8961.694
8995.411
9027.664
9058.735
9088.609
9117.313
9147.037
9157.992
9173.703
9194.318
9217.079
9238.672
9259.869
9280.677
9300.699
9319.772
9337.459
9353.506
9371.436
9388.054
9403.928
9419.477
9434.703
9449.673
9464.958
9484.301
9510.763
9508.271
9516.087
9531.617
9543.3
9549.468
9553.752
9558.59
9563.425
9568.285
9573.198
9578.066
9582.849
9587.53
9592.061
9596.404
9600.503
9604.302
9607.861
9611.974
9619.305
9625.125
9629.878
9645.45
9664.015
9670.474
9676.807
9682.628
9677.81
9647.655
9644.68
9651.459
9655.866
9660.109
9663.84
9667.094
9670.042
9672.751
9675.256
9677.577
9679.728
9681.721
9683.565
9685.268
9686.834
9688.269
9689.576
9690.76
9691.824
9692.773
9693.605
9694.326
9694.939
9695.448
9695.855
9696.163
9696.374
9696.492
9696.52
9696.461
9696.318
9696.092
9695.785
9695.401
9694.965
9694.439
9693.849
9693.198
9692.484
9691.71
9690.876
9689.984
9689.033
9688.024
9686.949
9685.793
9684.534
9683.229
9682.466
9682.374
9682.141
9680.707
9679.245
9677.925
9676.608
9675.283
9673.96
9672.633
9671.296
9669.953
9668.605
9667.254
9665.899
9664.541
9663.18
9661.818
9660.454
9659.09
9657.725
9656.36
9654.994
9653.623
9652.263
9650.897
9649.561
9648.222
9646.867
9645.506
9644.146
9642.788
9641.432
9640.08
9638.73
9637.383
9636.038
9634.696
9633.357
9632.021
9630.688
9629.357
9628.024
9626.684
9625.338
9623.974
9622.576
9621.107
9619.498
9617.729
9616.317
9648.634
9648.684
9647.183
9645.925
9644.741
9643.6
9642.482
9641.38
9640.289
9639.203
9638.129
9637.057
9635.989
9634.917
9633.838
9632.748
9631.642
9630.514
9629.357
9628.139
9626.935
9625.643
9624.265
9622.882
9621.386
9619.776
9618.036
9616.141
9614.049
9611.704
9609.019
9605.863
9601.973
9596.952
9589.738
9580.858
9588.365
9592.942
9595.896
9597.74
9599.134
9600.157
9600.871
9601.376
9601.699
9601.874
9601.923
9601.861
9601.701
9601.454
9601.128
9600.728
9600.26
9599.73
9599.14
9598.496
9597.799
9597.053
9596.26
9595.423
9594.546
9593.628
9592.674
9591.685
9590.665
9589.622
9588.571
9587.559
9586.437
9584.979
9571.672
9562.1
9549.322
9548.431
9547.532
9545.141
9543.129
9541.532
9539.917
9538.244
9536.557
9534.909
9533.292
9531.665
9530.038
9528.412
9526.781
9525.14
9523.512
9521.897
9520.264
9518.634
9517.008
9515.391
9513.784
9512.19
9510.614
9509.059
9507.529
9506.029
9504.563
9503.136
9501.752
9500.418
9499.138
9497.919
9496.77
9495.699
9494.717
9493.838
9493.081
9492.474
9492.061
9491.898
9491.914
9491.61
9490.404
9488.757
9487.459
9486.53
9485.794
9485.23
9484.663
9482.385
9475.465
9480.287
9481.871
9481.667
9481.999
9482.397
9482.801
9483.385
9484.132
9485.023
9486.058
9487.23
9488.55
9490.006
9491.591
9493.311
9495.163
9497.143
9499.25
9501.479
9503.831
9506.303
9508.893
9511.6
9514.422
9517.356
9520.401
9523.554
9526.812
9530.173
9533.632
9537.187
9540.833
9544.567
9548.385
9552.283
9556.255
9560.298
9564.406
9568.575
9572.798
9577.071
9581.387
9585.738
9590.118
9594.519
9598.933
9603.354
9607.771
9612.175
9616.558
9620.909
9625.218
9629.474
9633.666
9637.783
9641.811
9645.738
9649.551
9653.235
9656.776
9660.159
9663.367
9666.384
9669.191
9671.768
9674.096
9676.152
9677.911
9679.345
9680.424
9681.112
9681.366
9681.136
9680.366
9678.983
9676.853
9673.815
9669.659
9663.988
9656.321
9646.143
9636.106
9642.703
9695.646
8341.623
8281.84
8223.056
8165.806
8111.715
8061.764
8015.655
7974.985
7933.607
7866.935
7843.815
7814.729
7787.742
7765.447
7747.207
7733.432
7723.987
7716.63
7692.64
7701.69
7695.85
7701.924
7715.585
7732.413
7751.906
7775.21
7802.04
7831.256
7859.988
7889.884
7927.35
7965.616
8004.358
8044.44
8085.628
8127.77
8170.997
8215.678
8253.199
8294.135
8338.527
8381.945
8424.04
8465.546
8506.362
8546.298
8584.989
8623.791
8659.841
8693.794
8726.709
8758.691
8789.542
8819.319
8847.98
8875.724
8854.028
8880.059
8898.87
8918.31
8939.688
8961.447
8982.281
9001.935
9020.643
9038.598
9055.724
9072.147
9088.133
9103.839
9119.324
9134.623
9149.96
9165.227
9180.485
9194.695
9205.517
9214.409
9224.074
9233.595
9241.401
9247.472
9252.734
9257.851
9262.979
9268.056
9273.025
9277.862
9282.582
9287.163
9291.63
9296.001
9300.386
9304.988
9310.163
9316.188
9323.109
9330.925
9340.34
9350.483
9357.678
9361.447
9361.846
9358.223
9351.607
9347.554
9348.443
9351.819
9355.418
9358.544
9361.328
9363.954
9366.466
9368.84
9371.057
9373.119
9375.036
9376.815
9378.461
9379.978
9381.368
9382.635
9383.783
9384.814
9385.732
9386.539
9387.233
9387.823
9388.31
9388.698
9388.987
9389.182
9389.285
9389.299
9389.226
9389.069
9388.833
9388.514
9388.139
9387.687
9387.163
9386.571
9385.913
9385.192
9384.411
9383.572
9382.676
9381.724
9380.719
9379.665
9378.575
9377.477
9376.427
9375.49
9374.696
9373.89
9372.878
9371.671
9370.38
9369.074
9367.766
9366.455
9365.136
9363.805
9362.463
9361.113
9359.757
9358.397
9357.033
9355.667
9354.298
9352.928
9351.557
9350.186
9348.815
9347.445
9346.075
9344.707
9343.341
9341.979
9340.619
9339.262
9337.906
9336.553
9335.201
9333.851
9332.502
9331.156
9329.812
9328.472
9327.134
9325.801
9324.468
9323.141
9321.813
9320.49
9319.157
9317.83
9316.482
9315.152
9313.805
9312.539
9311.3
9310.214
9372.583
9371.393
9370.154
9369.095
9367.984
9366.864
9365.754
9364.651
9363.554
9362.464
9361.381
9360.304
9359.228
9358.151
9357.069
9355.975
9354.867
9353.737
9352.583
9351.391
9350.167
9348.89
9347.551
9346.15
9344.66
9343.063
9341.341
9339.468
9337.411
9335.122
9332.537
9329.569
9326.131
9322.269
9318.345
9315.681
9316.379
9319.115
9321.08
9322.483
9323.635
9324.502
9325.128
9325.569
9325.855
9326.004
9326.035
9325.959
9325.789
9325.534
9325.2
9324.794
9324.322
9323.788
9323.195
9322.547
9321.847
9321.098
9320.302
9319.462
9318.581
9317.66
9316.701
9315.708
9314.685
9313.636
9312.568
9311.484
9310.465
9310.44
9250.402
9251.158
9248.355
9244.138
9240.619
9238.202
9236.416
9234.795
9233.133
9231.422
9229.718
9228.047
9226.406
9224.776
9223.146
9221.513
9219.881
9218.25
9216.613
9214.959
9213.319
9211.687
9210.06
9208.441
9206.834
9205.241
9203.667
9202.114
9200.588
9199.091
9197.63
9196.207
9194.828
9193.498
9192.224
9191.012
9189.867
9188.799
9187.816
9186.928
9186.147
9185.477
9184.912
9184.409
9183.887
9183.231
9182.332
9181.246
9180.199
9179.322
9178.605
9177.97
9177.188
9175.725
9173.367
9172.577
9173.343
9174.546
9175.398
9175.926
9176.421
9177.062
9177.852
9178.767
9179.814
9181.006
9182.339
9183.798
9185.388
9187.116
9188.979
9190.971
9193.091
9195.337
9197.707
9200.199
9202.81
9205.539
9208.384
9211.342
9214.411
9217.589
9220.872
9224.257
9227.742
9231.322
9234.993
9238.753
9242.596
9246.519
9250.516
9254.584
9258.716
9262.909
9267.155
9271.45
9275.786
9280.157
9284.555
9288.974
9293.405
9297.84
9302.27
9306.686
9311.079
9315.439
9319.755
9324.016
9328.212
9332.329
9336.357
9340.282
9344.09
9347.769
9351.301
9354.674
9357.87
9360.873
9363.664
9366.224
9368.534
9370.57
9372.311
9373.727
9374.793
9375.471
9375.731
9375.52
9374.798
9373.485
9371.531
9368.82
9365.365
9361.189
9356.889
9353.405
9352.591
9354.621
9360.558
5790.366
5901.784
6046.639
6215.79
6409.296
6625.842
6863.243
7117.306
7381.495
7646.738
7903.925
8166.481
8412.825
8639.477
8841.16
9012.107
9149.751
9253.512
9323.22
9331.383
9342.244
9330.145
9297.919
9249.457
9188.541
9118.051
9040.634
8958.865
8875.951
8786.836
8700.695
8613.813
8528.113
8444.28
8362.685
8283.673
8208.002
8136.959
8063.28
7994.265
7930.657
7871.349
7815.655
7763.563
7715.298
7670.854
7630.702
7592.414
7558.249
7529.479
7503.95
7481.996
7464.256
7450.73
7441.592
7439.574
7368.944
7372.762
7381.091
7392.383
7406.414
7423.645
7444.434
7468.599
7495.684
7525.377
7557.925
7592.35
7627.936
7665.091
7704.068
7744.672
7786.519
7829.228
7872.471
7915.815
7958.345
8000.285
8042.412
8084.755
8126.883
8168.369
8208.956
8248.549
8287.077
8324.3
8360.13
8394.776
8428.158
8460.376
8491.296
8521.178
8549.808
8578.51
8607.337
8631.885
8653.647
8675.127
8697.04
8718.761
8739.576
8759.267
8777.967
8795.847
8813.074
8829.718
8845.816
8861.457
8876.684
8891.579
8906.127
8920.613
8934.629
8947.796
8959.002
8968.607
8977.891
8986.876
8994.799
9001.433
9007.256
9012.757
9018.128
9023.375
9028.471
9033.419
9038.234
9042.948
9047.581
9052.169
9056.828
9061.693
9066.946
9072.819
9079.341
9086.287
9093.887
9101.484
9107.406
9110.864
9111.906
9110.563
9107.282
9105.137
9105.849
9108.346
9111.237
9113.941
9116.451
9118.875
9121.237
9123.5
9125.635
9127.633
9129.499
9131.238
9132.852
9134.343
9135.712
9136.964
9138.098
9139.119
9140.028
9140.828
9141.523
9142.114
9142.605
9142.998
9143.294
9143.497
9143.609
9143.633
9143.572
9143.428
9143.206
9142.904
9142.528
9142.078
9141.558
9140.972
9140.321
9139.608
9138.835
9138.006
9137.121
9136.186
9135.204
9134.184
9133.137
9132.083
9131.049
9130.062
9129.122
9128.169
9127.095
9125.895
9124.634
9123.355
9122.066
9120.763
9119.446
9118.115
9116.773
9115.421
9114.062
9112.697
9111.326
9109.952
9108.576
9107.197
9105.817
9104.438
9103.058
9101.679
9100.302
9098.926
9097.553
9096.183
9094.815
9093.449
9092.083
9090.72
9089.361
9088.005
9086.653
9085.305
9083.961
9082.621
9081.285
9079.953
9078.625
9077.3
9075.98
9074.662
9073.349
9072.036
9070.735
9069.438
9068.181
9066.963
9065.897
9065.011
9064.509
9063.774
9062.712
9061.496
9060.306
9059.178
9058.08
9056.987
9055.895
9054.808
9053.725
9052.647
9051.568
9050.487
9049.399
9048.3
9047.186
9046.052
9044.892
9043.701
9042.471
9041.195
9039.863
9038.464
9036.986
9035.415
9033.732
9031.922
9029.961
9027.829
9025.508
9023.005
9020.379
9017.814
9015.653
9014.374
9014.291
9015.137
9016.244
9017.213
9017.966
9018.538
9018.968
9019.273
9019.462
9019.539
9019.513
9019.395
9019.192
9018.91
9018.556
9018.134
9017.648
9017.102
9016.499
9015.843
9015.135
9014.378
9013.575
9012.728
9011.838
9010.908
9009.939
9008.935
9007.895
9006.826
9005.722
9004.593
9003.439
9002.403
9000.529
8997.329
8994.906
8993.364
8992.233
8991.133
8989.933
8988.626
8987.222
8985.738
8984.206
8982.652
8981.084
8979.503
8977.907
8976.296
8974.676
8973.046
8971.409
8969.767
8968.129
8966.495
8964.865
8963.242
8961.63
8960.033
8958.453
8956.894
8955.361
8953.857
8952.386
8950.954
8949.564
8948.222
8946.934
8945.704
8944.538
8943.443
8942.425
8941.489
8940.637
8939.865
8939.157
8938.488
8937.819
8937.106
8936.3
8935.388
8934.457
8933.618
8932.915
8932.338
8931.967
8932.093
8932.702
8933.024
8932.709
8932.165
8931.813
8931.716
8931.864
8932.255
8932.862
8933.651
8934.61
8935.732
8937.007
8938.427
8939.989
8941.692
8943.533
8945.507
8947.613
8949.846
8952.205
8954.689
8957.293
8960.017
8962.858
8965.814
8968.881
8972.059
8975.342
8978.729
8982.217
8985.801
8989.477
8993.243
8997.093
9001.024
9005.031
9009.109
9013.253
9017.458
9021.718
9026.026
9030.377
9034.765
9039.18
9043.617
9048.067
9052.522
9056.974
9061.413
9065.83
9070.214
9074.557
9078.846
9083.07
9087.219
9091.279
9095.237
9099.082
9102.798
9106.371
9109.786
9113.027
9116.078
9118.922
9121.539
9123.91
9126.015
9127.832
9129.336
9130.503
9131.302
9131.705
9131.677
9131.183
9130.189
9128.665
9126.629
9124.117
9121.378
9118.634
9116.433
9115.006
9115.28
9117.161
5309.327
5291.303
5271.487
5240.014
5225.792
5194.328
5209.51
5245.535
5300.545
5342.258
5373.826
5429.38
5513.508
5625.236
5763.043
5924.67
6108.255
6314.344
6539.773
6782.718
7038.239
7301.565
7567.14
7827.341
8074.671
8302.193
8503.623
8674.249
8811.884
8915.988
8988.719
8968.129
8981.913
8968.762
8932.675
8881.535
8819.349
8748.699
8671.985
8591.134
8507.803
8423.088
8337.94
8253.205
8169.839
8088.487
8009.404
7932.733
7858.692
7787.429
7719.011
7653.879
7592.224
7534.105
7479.668
7428.972
7382.003
7338.733
7299.058
7263.087
7230.896
7202.327
7177.566
7156.858
7140.209
7127.602
7118.863
7114.295
7113.767
7117.731
7124.857
7134.944
7148.727
7166.455
7187.869
7212.586
7240.314
7270.721
7303.291
7337.837
7374.391
7412.736
7452.597
7493.76
7535.963
7578.861
7622.12
7665.39
7708.595
7751.723
7794.641
7837.356
7879.678
7921.307
7962.049
8001.783
8040.437
8077.983
8114.312
8149.276
8182.994
8215.465
8246.881
8277.092
8306.613
8334.508
8361.189
8386.572
8410.364
8432.962
8454.902
8476.274
8496.859
8516.496
8535.212
8553.126
8570.349
8586.936
8602.926
8618.393
8633.4
8648.013
8662.235
8676.073
8689.312
8701.72
8712.944
8722.956
8732.195
8740.878
8748.8
8755.819
8762.107
8767.958
8773.562
8778.979
8784.22
8789.297
8794.235
8799.071
8803.84
8808.611
8813.431
8818.395
8823.645
8829.273
8835.274
8841.51
8847.864
8853.941
8858.945
8862.303
8863.909
8863.959
8862.989
8862.342
8863.023
8864.881
8867.236
8869.631
8871.953
8874.222
8876.444
8878.59
8880.632
8882.558
8884.365
8886.054
8887.627
8889.082
8890.422
8891.647
8892.76
8893.763
8894.657
8895.446
8896.132
8896.715
8897.2
8897.588
8897.881
8898.083
8898.195
8898.22
8898.161
8898.02
8897.799
8897.501
8897.13
8896.686
8896.174
8895.596
8894.954
8894.25
8893.487
8892.669
8891.798
8890.878
8889.916
8888.917
8887.892
8886.853
8885.816
8884.792
8883.776
8882.741
8881.642
8880.464
8879.229
8877.961
8876.672
8875.365
8874.043
8872.704
8871.354
8869.993
8868.624
8867.249
8865.868
8864.483
8863.096
8861.707
8860.316
8858.926
8857.536
8856.147
8854.759
8853.374
8851.99
8850.61
8849.232
8847.856
8846.483
8845.114
8843.748
8842.386
8841.027
8839.673
8838.323
8836.977
8835.636
8834.299
8832.967
8831.64
8830.318
8829.002
8827.693
8826.393
8825.107
8823.842
8822.615
8821.447
8820.367
8819.393
8818.46
8817.43
8816.346
8815.247
8814.157
8813.079
8812.005
8810.926
8809.844
8808.76
8807.678
8806.597
8805.514
8804.429
8803.337
8802.234
8801.118
8799.984
8798.826
8797.639
8796.419
8795.157
8793.847
8792.478
8791.041
8789.525
8787.919
8786.213
8784.398
8782.47
8780.437
8778.335
8776.241
8774.288
8772.665
8771.564
8771.153
8771.42
8772.048
8772.686
8773.201
8773.602
8773.911
8774.131
8774.26
8774.297
8774.245
8774.11
8773.899
8773.614
8773.261
8772.843
8772.363
8771.824
8771.23
8770.581
8769.882
8769.133
8768.338
8767.497
8766.612
8765.686
8764.719
8763.714
8762.67
8761.59
8760.472
8759.315
8758.111
8756.77
8755.253
8753.962
8752.795
8751.379
8749.656
8747.796
8746.072
8744.427
8742.787
8741.144
8739.496
8737.85
8736.207
8734.566
8732.922
8731.275
8729.624
8727.969
8726.312
8724.655
8722.998
8721.346
8719.699
8718.061
8716.434
8714.822
8713.228
8711.656
8710.108
8708.59
8707.104
8705.656
8704.249
8702.888
8701.578
8700.323
8699.129
8697.999
8696.937
8695.945
8695.023
8694.165
8693.36
8692.594
8691.842
8691.079
8690.279
8689.435
8688.593
8687.821
8687.163
8686.641
8686.251
8685.901
8685.434
8684.922
8684.625
8684.635
8684.858
8685.226
8685.692
8686.281
8687.016
8687.893
8688.909
8690.065
8691.36
8692.793
8694.362
8696.067
8697.906
8699.879
8701.981
8704.212
8706.569
8709.05
8711.654
8714.378
8717.22
8720.178
8723.248
8726.43
8729.719
8733.112
8736.607
8740.199
8743.886
8747.663
8751.526
8755.47
8759.492
8763.586
8767.747
8771.971
8776.25
8780.58
8784.953
8789.364
8793.804
8798.268
8802.745
8807.23
8811.712
8816.184
8820.634
8825.055
8829.434
8833.763
8838.029
8842.221
8846.326
8850.332
8854.227
8857.996
8861.624
8865.098
8868.402
8871.519
8874.434
8877.127
8879.582
8881.779
8883.698
8885.317
8886.615
8887.568
8888.154
8888.35
8888.138
8887.505
8886.456
8885.031
8883.299
8881.416
8879.527
8877.89
8876.739
8876.386
8876.569
5508.471
5483.346
5458.458
5407.668
5365.364
5289.119
5246.075
5203.463
5161.8
5121.786
5082.84
5047.527
5014.784
4986.433
4963.91
4947.361
4879.817
4885.44
4903.858
4933.125
4970.249
5020.506
5089.533
5179.245
5292.695
5430.27
5591.606
5776.039
5982.376
6209.08
6453.436
6711.379
6977.099
7243.453
7503.548
7749.617
7975.961
8173.016
8338.57
8470.322
8567.821
8632.349
8666.219
8676.35
8664.519
8632.557
8584.891
8525.614
8457.711
8383.618
8305.21
8224.104
8141.35
8057.882
7974.753
7892.927
7812.986
7735.109
7659.567
7586.706
7516.785
7449.737
7385.623
7324.83
7267.606
7214.01
7164.015
7117.602
7074.763
7035.549
6999.924
6967.871
6939.561
6915.113
6894.574
6877.973
6865.36
6856.81
6852.408
6851.915
6855.271
6862.192
6872.76
6887.226
6905.574
6927.497
6952.615
6980.631
7011.299
7044.477
7079.902
7117.243
7156.251
7196.691
7238.343
7280.976
7324.306
7368.07
7412.033
7456.043
7499.907
7543.455
7586.617
7629.283
7671.272
7712.414
7752.574
7791.677
7829.653
7866.413
7901.867
7936.089
7969.077
8000.94
8031.573
8061.08
8089.144
8116.083
8141.972
8166.481
8189.622
8211.764
8233.157
8253.776
8273.515
8292.354
8310.359
8327.614
8344.188
8360.132
8375.507
8390.36
8404.731
8418.608
8431.966
8444.689
8456.654
8467.709
8477.778
8487.029
8495.638
8503.594
8510.839
8517.441
8523.573
8529.389
8534.971
8540.351
8545.552
8550.604
8555.545
8560.414
8565.268
8570.156
8575.143
8580.291
8585.636
8591.169
8596.779
8602.294
8607.454
8611.84
8615.105
8617.174
8618.117
8618.385
8618.696
8619.621
8621.252
8623.309
8625.492
8627.662
8629.797
8631.889
8633.921
8635.867
8637.713
8639.453
8641.084
8642.605
8644.016
8645.316
8646.507
8647.59
8648.565
8649.436
8650.204
8650.871
8651.439
8651.911
8652.287
8652.572
8652.766
8652.872
8652.893
8652.832
8652.689
8652.469
8652.173
8651.804
8651.365
8650.857
8650.284
8649.648
8648.952
8648.198
8647.389
8646.53
8645.623
8644.675
8643.691
8642.68
8641.649
8640.607
8639.559
8638.501
8637.421
8636.297
8635.116
8633.885
8632.619
8631.329
8630.019
8628.692
8627.351
8625.995
8624.628
8623.252
8621.869
8620.48
8619.087
8617.691
8616.293
8614.893
8613.493
8612.093
8610.695
8609.297
8607.902
8606.509
8605.119
8603.731
8602.347
8600.965
8599.588
8598.214
8596.843
8595.478
8594.116
8592.759
8591.407
8590.06
8588.719
8587.383
8586.054
8584.732
8583.418
8582.114
8580.822
8579.548
8578.299
8577.083
8575.912
8574.794
8573.722
8572.676
8571.638
8570.59
8569.521
8568.435
8567.345
8566.257
8565.169
8564.081
8562.995
8561.91
8560.827
8559.743
8558.657
8557.565
8556.466
8555.354
8554.225
8553.076
8551.902
8550.697
8549.458
8548.176
8546.845
8545.457
8544.005
8542.483
8540.889
8539.22
8537.485
8535.702
8533.909
8532.168
8530.571
8529.231
8528.268
8527.772
8527.733
8527.982
8528.312
8528.613
8528.858
8529.046
8529.172
8529.23
8529.213
8529.123
8528.961
8528.73
8528.432
8528.071
8527.648
8527.167
8526.629
8526.036
8525.39
8524.694
8523.949
8523.156
8522.318
8521.435
8520.51
8519.541
8518.533
8517.482
8516.391
8515.256
8514.072
8512.825
8511.508
8510.176
8508.781
8507.215
8505.481
8503.774
8502.183
8500.631
8499.083
8497.511
8495.921
8494.316
8492.698
8491.071
8489.438
8487.796
8486.145
8484.488
8482.825
8481.159
8479.49
8477.821
8476.155
8474.496
8472.844
8471.204
8469.578
8467.969
8466.381
8464.817
8463.282
8461.778
8460.31
8458.881
8457.497
8456.161
8454.877
8453.648
8452.479
8451.371
8450.325
8449.34
8448.412
8447.534
8446.694
8445.877
8445.068
8444.257
8443.446
8442.659
8441.934
8441.3
8440.765
8440.311
8439.923
8439.626
8439.491
8439.475
8439.531
8439.667
8439.907
8440.273
8440.789
8441.466
8442.299
8443.281
8444.411
8445.685
8447.101
8448.656
8450.349
8452.179
8454.143
8456.238
8458.464
8460.818
8463.297
8465.901
8468.626
8471.471
8474.433
8477.509
8480.697
8483.994
8487.397
8490.903
8494.508
8498.208
8502
8505.88
8509.843
8513.884
8518
8522.184
8526.431
8530.737
8535.094
8539.496
8543.938
8548.411
8552.908
8557.422
8561.944
8566.467
8570.98
8575.475
8579.942
8584.37
8588.749
8593.068
8597.316
8601.48
8605.548
8609.506
8613.342
8617.042
8620.59
8623.973
8627.174
8630.178
8632.967
8635.526
8637.835
8639.878
8641.635
8643.089
8644.222
8645.017
8645.461
8645.546
8645.275
8644.663
8643.754
8642.603
8641.325
8640.009
8638.862
8637.954
8637.473
8637.055
5613.01
5587.717
5557.769
5514.474
5484.365
5417.969
5385.978
5353.17
5319.38
5284.241
5248.425
5211.947
5173.344
5134.043
5091.915
4982.862
4939.974
4897.473
4855.726
4815.082
4776.056
4739.344
4705.403
4674.572
4647.626
4626.849
4613.84
4611.439
4619.723
4639.603
4672.42
4720.977
4787.355
4874.498
4983.633
5115.998
5272.215
5451.911
5653.986
5876.587
6117.093
6371.731
6635.225
6901.536
7162.467
7409.799
7636.26
7834.746
8001.259
8133.768
8232.247
8298.744
8336.008
8347.922
8338.475
8310.431
8267.014
8211.823
8147.951
8077.846
8003.346
7925.93
7846.733
7766.776
7686.929
7607.939
7530.234
7454.134
7380.265
7309.084
7240.732
7175.192
7112.558
7053.09
6996.986
6944.309
6895.061
6849.25
6806.898
6768.045
6732.692
6700.893
6672.77
6648.406
6627.855
6611.188
6598.494
6589.838
6585.218
6584.528
6587.741
6594.887
6605.98
6620.974
6639.726
6661.983
6687.476
6716.128
6747.616
6781.602
6817.817
6855.967
6895.799
6937.074
6979.554
7022.994
7067.138
7111.735
7156.554
7201.384
7246.03
7290.336
7334.194
7377.493
7420.088
7461.828
7502.58
7542.256
7580.776
7618.081
7654.117
7688.902
7722.428
7754.734
7785.773
7815.576
7844.116
7871.469
7897.638
7922.505
7946.086
7968.59
7990.203
8010.963
8030.828
8049.785
8067.879
8085.182
8101.761
8117.67
8132.957
8147.659
8161.802
8175.385
8188.387
8200.748
8212.397
8223.257
8233.286
8242.552
8251.161
8259.156
8266.538
8273.35
8279.697
8285.695
8291.421
8296.921
8302.226
8307.367
8312.383
8317.312
8322.198
8327.08
8332.013
8337.017
8342.109
8347.228
8352.325
8357.25
8361.818
8365.791
8368.956
8371.228
8372.803
8373.833
8374.785
8375.999
8377.594
8379.487
8381.508
8383.545
8385.557
8387.533
8389.456
8391.306
8393.068
8394.734
8396.3
8397.763
8399.122
8400.376
8401.525
8402.57
8403.512
8404.353
8405.094
8405.736
8406.283
8406.735
8407.094
8407.364
8407.546
8407.641
8407.654
8407.585
8407.438
8407.214
8406.916
8406.547
8406.108
8405.602
8405.032
8404.401
8403.71
8402.963
8402.163
8401.313
8400.417
8399.48
8398.507
8397.504
8396.476
8395.429
8394.365
8393.282
8392.174
8391.031
8389.842
8388.612
8387.351
8386.062
8384.745
8383.415
8382.07
8380.711
8379.339
8377.958
8376.568
8375.173
8373.772
8372.368
8370.961
8369.553
8368.144
8366.735
8365.327
8363.921
8362.516
8361.114
8359.714
8358.317
8356.924
8355.534
8354.148
8352.765
8351.387
8350.014
8348.645
8347.282
8345.923
8344.571
8343.225
8341.886
8340.554
8339.23
8337.917
8336.615
8335.328
8334.059
8332.814
8331.597
8330.415
8329.27
8328.159
8327.08
8326.016
8324.946
8323.86
8322.762
8321.664
8320.57
8319.479
8318.391
8317.305
8316.222
8315.139
8314.057
8312.973
8311.886
8310.791
8309.685
8308.565
8307.427
8306.268
8305.084
8303.871
8302.623
8301.334
8299.998
8298.612
8297.175
8295.687
8294.155
8292.589
8291.01
8289.453
8287.967
8286.617
8285.476
8284.616
8284.079
8283.852
8283.847
8283.949
8284.074
8284.183
8284.26
8284.297
8284.282
8284.21
8284.077
8283.883
8283.628
8283.313
8282.94
8282.51
8282.023
8281.482
8280.889
8280.244
8279.549
8278.805
8278.015
8277.177
8276.295
8275.369
8274.399
8273.386
8272.329
8271.229
8270.081
8268.883
8267.631
8266.329
8264.97
8263.51
8261.953
8260.362
8258.8
8257.255
8255.696
8254.12
8252.527
8250.919
8249.299
8247.668
8246.026
8244.376
8242.717
8241.051
8239.377
8237.698
8236.015
8234.33
8232.646
8230.964
8229.288
8227.619
8225.961
8224.317
8222.689
8221.082
8219.498
8217.941
8216.415
8214.923
8213.469
8212.056
8210.69
8209.372
8208.106
8206.895
8205.741
8204.643
8203.601
8202.612
8201.67
8200.768
8199.898
8199.051
8198.225
8197.424
8196.661
8195.957
8195.331
8194.791
8194.34
8193.983
8193.737
8193.597
8193.527
8193.545
8193.682
8193.953
8194.363
8194.914
8195.61
8196.452
8197.438
8198.566
8199.837
8201.248
8202.798
8204.486
8206.31
8208.27
8210.362
8212.586
8214.939
8217.419
8220.025
8222.754
8225.604
8228.572
8231.657
8234.855
8238.163
8241.579
8245.1
8248.721
8252.439
8256.251
8260.152
8264.137
8268.203
8272.345
8276.558
8280.835
8285.172
8289.563
8294.002
8298.481
8302.994
8307.533
8312.091
8316.66
8321.232
8325.796
8330.345
8334.869
8339.356
8343.797
8348.182
8352.497
8356.732
8360.874
8364.911
8368.828
8372.613
8376.252
8379.729
8383.031
8386.141
8389.043
8391.723
8394.164
8396.349
8398.264
8399.893
8401.223
8402.241
8402.942
8403.324
8403.395
8403.173
8402.698
8402.015
8401.212
8400.35
8399.579
8398.88
8398.441
8397.87
5586.01
5526.049
5475.884
5423.908
5376.808
5337.18
5301.474
5268.396
5237.383
5205.465
5108.504
5076.657
5044.234
5010.813
4976.109
4940.222
4903.069
4864.399
4824.366
4783.62
4742.717
4700.394
4657.822
4615.474
4573.998
4533.644
4494.352
4456.685
4421.686
4390.281
4364.082
4345.911
4337.097
4338.662
4352.455
4380.562
4425.631
4489.586
4573.792
4679.622
4807.946
4959.28
5133.63
5330.301
5547.787
5784.067
6035.105
6295.678
6559.589
6818.436
7063.777
7287.871
7484.225
7648.746
7779.722
7877.475
7944.001
7982.349
7996.116
7989.263
7965.111
7926.633
7876.805
7818.377
7753.629
7684.356
7611.948
7537.631
7462.239
7386.433
7311.057
7236.575
7163.431
7092.271
7023.499
6957.276
6893.691
6832.873
6775.005
6720.243
6668.682
6620.363
6575.321
6533.59
6495.209
6460.223
6428.698
6400.721
6376.381
6355.77
6338.987
6326.13
6317.267
6312.436
6311.651
6314.948
6322.352
6333.811
6349.195
6368.386
6391.157
6417.556
6447.12
6479.526
6514.481
6551.717
6590.949
6631.898
6674.298
6717.89
6762.417
6807.624
6853.264
6899.102
6944.924
6990.544
7035.804
7080.567
7124.708
7168.092
7210.581
7252.055
7292.421
7331.605
7369.558
7406.236
7441.63
7475.729
7508.545
7540.071
7570.327
7599.322
7627.058
7653.541
7678.768
7702.774
7725.666
7747.558
7768.508
7788.521
7807.607
7825.806
7843.177
7859.78
7875.668
7890.881
7905.455
7919.413
7932.765
7945.5
7957.59
7968.997
7979.685
7989.638
7998.888
8007.5
8015.523
8022.988
8029.933
8036.43
8042.563
8048.4
8053.989
8059.366
8064.566
8069.622
8074.57
8079.446
8084.282
8089.11
8093.936
8098.753
8103.562
8108.26
8112.739
8116.889
8120.559
8123.63
8126.046
8127.997
8129.539
8130.888
8132.316
8133.942
8135.75
8137.653
8139.577
8141.482
8143.352
8145.173
8146.928
8148.605
8150.193
8151.689
8153.088
8154.389
8155.59
8156.691
8157.692
8158.594
8159.398
8160.106
8160.718
8161.237
8161.664
8162.001
8162.251
8162.415
8162.495
8162.494
8162.414
8162.257
8162.025
8161.721
8161.347
8160.906
8160.399
8159.829
8159.199
8158.512
8157.769
8156.975
8156.132
8155.244
8154.314
8153.348
8152.35
8151.324
8150.272
8149.198
8148.1
8146.974
8145.815
8144.619
8143.387
8142.125
8140.835
8139.521
8138.19
8136.841
8135.478
8134.103
8132.717
8131.322
8129.92
8128.513
8127.102
8125.688
8124.272
8122.855
8121.437
8120.021
8118.605
8117.192
8115.78
8114.371
8112.966
8111.563
8110.165
8108.77
8107.379
8105.993
8104.612
8103.236
8101.865
8100.501
8099.143
8097.791
8096.448
8095.113
8093.787
8092.472
8091.171
8089.884
8088.616
8087.37
8086.149
8084.956
8083.793
8082.66
8081.55
8080.454
8079.358
8078.257
8077.154
8076.054
8074.959
8073.868
8072.78
8071.697
8070.616
8069.537
8068.458
8067.38
8066.301
8065.216
8064.119
8063.01
8061.886
8060.744
8059.581
8058.396
8057.188
8055.949
8054.673
8053.358
8052.007
8050.625
8049.219
8047.801
8046.392
8045.021
8043.726
8042.552
8041.548
8040.754
8040.193
8039.853
8039.687
8039.626
8039.609
8039.599
8039.576
8039.528
8039.443
8039.313
8039.135
8038.905
8038.621
8038.284
8037.894
8037.45
8036.954
8036.407
8035.808
8035.16
8034.463
8033.718
8032.926
8032.087
8031.204
8030.275
8029.302
8028.284
8027.221
8026.112
8024.956
8023.751
8022.495
8021.184
8019.811
8018.37
8016.88
8015.363
8013.831
8012.279
8010.707
8009.119
8007.516
8005.898
8004.267
8002.623
8000.968
7999.303
7997.629
7995.945
7994.255
7992.558
7990.857
7989.154
7987.451
7985.75
7984.053
7982.364
7980.685
7979.019
7977.369
7975.738
7974.129
7972.547
7970.993
7969.473
7967.989
7966.545
7965.144
7963.79
7962.484
7961.23
7960.028
7958.88
7957.784
7956.739
7955.741
7954.786
7953.869
7952.988
7952.142
7951.336
7950.578
7949.881
7949.258
7948.721
7948.276
7947.926
7947.67
7947.507
7947.439
7947.479
7947.641
7947.933
7948.359
7948.92
7949.62
7950.462
7951.446
7952.571
7953.837
7955.244
7956.791
7958.475
7960.297
7962.254
7964.346
7966.57
7968.925
7971.409
7974.02
7976.756
7979.614
7982.593
7985.689
7988.901
7992.225
7995.658
7999.197
8002.839
8006.579
8010.415
8014.343
8018.357
8022.453
8026.627
8030.874
8035.188
8039.563
8043.995
8048.476
8053.001
8057.562
8062.151
8066.763
8071.387
8076.017
8080.643
8085.256
8089.846
8094.404
8098.919
8103.38
8107.776
8112.094
8116.324
8120.452
8124.465
8128.351
8132.094
8135.681
8139.099
8142.331
8145.363
8148.18
8150.769
8153.113
8155.201
8157.019
8158.556
8159.806
8160.764
8161.433
8161.823
8161.951
8161.851
8161.56
8161.145
8160.646
8160.168
8159.67
8159.329
8158.781
5311.795
5245.226
5122.409
5082.524
5045.316
5011.749
4980.72
4951.112
4921.994
4892.914
4863.767
4833.278
4801.741
4768.861
4734.691
4699.033
4661.86
4623.134
4582.78
4541.159
4499.424
4456.957
4413.915
4370.757
4327.928
4285.326
4243.206
4202.41
4164.279
4130.27
4101.618
4079.919
4067.014
4064.56
4074.647
4099.566
4141.361
4201.741
4282.096
4383.607
4507.068
4653.195
4822.16
5013.276
5225.607
5456.937
5703.283
5959.44
6218.766
6472.839
6712.916
6931.331
7122.201
7281.921
7409.207
7504.734
7570.708
7610.243
7626.798
7623.889
7604.728
7572.121
7528.616
7476.595
7418.086
7354.837
7288.217
7219.24
7148.644
7077.172
7005.794
6935.062
6865.412
6797.348
6731.264
6667.409
6605.962
6547.085
6490.941
6437.676
6387.395
6340.166
6296.034
6255.039
6217.226
6182.655
6151.397
6123.54
6099.191
6078.472
6061.509
6048.423
6039.323
6034.305
6033.452
6036.816