/*--------------------------------*- C++ -*----------------------------------*\
| =========                 |                                                 |
| \\      /  F ield         | foam-extend: Open Source CFD                    |
|  \\    /   O peration     | Version:     3.1                                |
|   \\  /    A nd           | Web:         http://www.extend-project.de       |
|    \\/     M anipulation  |                                                 |
\*---------------------------------------------------------------------------*/
FoamFile
{
    version     2.0;
    format      ascii;
    class       volScalarField;
    location    "5";
    object      pd;
}
// * * * * * * * * * * * * * * * * * * * * * * * * * * * * * * * * * * * * * //

dimensions      [1 -1 -2 0 0 0 0];

internalField   nonuniform List<scalar> 
119952
(
9911.035
9828.971
9813.983
9837.072
9863.094
9857.95
9861.628
9865.666
9870.171
9874.869
9879.665
9884.479
9889.244
9893.917
9898.449
9902.78
9906.801
9910.213
9911.944
9906.894
9951.472
9928.329
9924.592
9979.833
9972.628
9982.974
9989.546
10006.06
10056
10256.8
8765.373
8805.445
8844.661
8887.605
8930.099
8971.698
9012.786
9053.332
9092.917
9124.545
9165.385
9202.522
9237.6
9271.317
9303.571
9334.641
9364.516
9393.219
9422.943
9464.554
9480.265
9500.88
9523.642
9545.234
9566.431
9587.24
9607.261
9626.334
9644.021
9660.069
9677.999
9694.616
9710.49
9726.04
9741.266
9756.235
9771.52
9790.863
9817.326
9814.833
9822.649
9838.179
9849.862
9856.031
9860.314
9865.152
9869.988
9874.848
9879.761
9884.629
9889.412
9894.092
9898.624
9902.967
9907.066
9910.864
9914.423
9918.536
9925.867
9931.688
9936.44
9952.012
9970.577
9977.036
9983.37
9989.191
9984.372
9954.217
9951.242
9958.021
9962.429
9966.672
9970.402
9973.657
9976.604
9979.313
9981.819
9984.14
9986.291
9988.283
9990.128
9991.83
9993.396
9994.831
9996.139
9997.323
9998.387
9999.335
10000.17
10000.89
10001.5
10002.01
10002.42
10002.73
10002.94
10003.05
10003.08
10003.02
10002.88
10002.65
10002.35
10001.96
10001.53
10001
10000.41
9999.761
9999.047
9998.272
9997.438
9996.546
9995.596
9994.586
9993.511
9992.356
9991.097
9989.791
9989.029
9988.936
9988.703
9987.27
9985.808
9984.488
9983.171
9981.846
9980.523
9979.195
9977.858
9976.516
9975.168
9973.816
9972.461
9971.103
9969.743
9968.38
9967.017
9965.652
9964.287
9962.922
9961.557
9960.185
9958.826
9957.46
9956.123
9954.785
9953.43
9952.069
9950.709
9949.351
9947.995
9946.642
9945.293
9943.945
9942.6
9941.259
9939.92
9938.584
9937.251
9935.92
9934.586
9933.247
9931.9
9930.536
9929.138
9927.669
9926.061
9924.292
9922.88
9924.54
9924.59
9923.089
9921.831
9920.647
9919.507
9918.388
9917.286
9916.196
9915.11
9914.035
9912.964
9911.895
9910.823
9909.745
9908.654
9907.548
9906.421
9905.263
9904.046
9902.841
9901.549
9900.171
9898.788
9897.292
9895.683
9893.943
9892.047
9889.955
9887.61
9884.926
9881.769
9877.879
9872.858
9865.644
9856.764
9864.271
9868.849
9871.802
9873.646
9875.04
9876.064
9876.778
9877.282
9877.605
9877.781
9877.83
9877.767
9877.608
9877.361
9877.034
9876.634
9876.167
9875.636
9875.047
9874.402
9873.705
9872.959
9872.166
9871.329
9870.452
9869.535
9868.58
9867.591
9866.572
9865.528
9864.477
9863.465
9862.344
9860.886
9878.234
9868.663
9855.885
9854.994
9854.095
9851.703
9849.691
9848.094
9846.48
9844.806
9843.119
9841.471
9839.855
9838.227
9836.601
9834.975
9833.344
9831.703
9830.075
9828.46
9826.827
9825.197
9823.571
9821.953
9820.346
9818.753
9817.177
9815.622
9814.092
9812.592
9811.126
9809.698
9808.315
9806.98
9805.701
9804.482
9803.332
9802.261
9801.279
9800.401
9799.644
9799.036
9798.624
9798.46
9798.476
9798.173
9796.967
9795.32
9794.022
9793.092
9792.356
9791.792
9791.225
9788.947
9782.027
9786.85
9788.433
9788.229
9788.562
9788.96
9789.364
9789.948
9790.695
9791.586
9792.621
9793.793
9795.113
9796.568
9798.153
9799.874
9801.726
9803.706
9805.812
9808.042
9810.394
9812.865
9815.456
9818.163
9820.984
9823.919
9826.964
9830.116
9833.375
9836.735
9840.195
9843.749
9847.396
9851.13
9854.948
9858.845
9862.818
9866.86
9870.968
9875.137
9879.361
9883.634
9887.949
9892.3
9896.68
9901.081
9905.496
9909.916
9914.333
9918.738
9923.12
9927.471
9931.78
9936.037
9940.229
9944.345
9948.373
9952.301
9956.113
9959.798
9963.339
9966.722
9969.93
9972.946
9975.753
9978.331
9980.659
9982.715
9984.473
9985.908
9986.987
9987.675
9987.929
9987.699
9986.928
9985.545
9983.416
9980.377
9976.222
9970.551
9962.883
9952.705
9942.668
9949.265
10002.21
8875.466
8812.401
8750.349
8689.833
8632.475
8579.256
8529.879
8485.942
8441.46
8388.092
8364.971
8335.885
8308.898
8286.604
8268.363
8254.588
8245.144
8237.786
8244.452
8253.503
8247.663
8253.736
8267.398
8284.226
8303.718
8327.023
8353.853
8383.068
8411.801
8441.697
8479.163
8517.428
8556.17
8596.253
8637.441
8679.582
8722.809
8767.491
8805.011
8845.947
8890.339
8933.758
8975.852
9017.359
9058.174
9098.111
9136.801
9175.604
9211.654
9245.607
9278.521
9310.504
9341.354
9371.132
9399.793
9427.536
9467.153
9493.184
9511.995
9531.435
9552.813
9574.572
9595.406
9615.06
9633.768
9651.723
9668.849
9685.272
9701.258
9716.964
9732.449
9747.748
9763.085
9778.352
9793.61
9807.82
9818.642
9827.534
9837.199
9846.72
9854.526
9860.597
9865.86
9870.976
9876.104
9881.181
9886.15
9890.987
9895.707
9900.288
9904.755
9909.126
9913.511
9918.113
9923.288
9929.313
9936.234
9944.05
9953.465
9963.608
9970.803
9974.572
9974.971
9971.348
9964.732
9960.679
9961.568
9964.944
9968.542
9971.669
9974.453
9977.079
9979.591
9981.965
9984.182
9986.244
9988.161
9989.94
9991.586
9993.103
9994.493
9995.76
9996.908
9997.939
9998.857
9999.664
10000.36
10000.95
10001.44
10001.82
10002.11
10002.31
10002.41
10002.42
10002.35
10002.19
10001.96
10001.64
10001.26
10000.81
10000.29
9999.696
9999.038
9998.317
9997.536
9996.697
9995.801
9994.849
9993.844
9992.79
9991.7
9990.602
9989.552
9988.615
9987.821
9987.015
9986.003
9984.796
9983.505
9982.199
9980.891
9979.58
9978.261
9976.93
9975.588
9974.238
9972.882
9971.522
9970.158
9968.792
9967.423
9966.053
9964.682
9963.311
9961.94
9960.57
9959.2
9957.832
9956.466
9955.104
9953.744
9952.387
9951.032
9949.678
9948.326
9946.976
9945.627
9944.281
9942.937
9941.597
9940.259
9938.926
9937.593
9936.267
9934.938
9933.615
9932.282
9930.955
9929.607
9928.277
9926.93
9925.664
9924.425
9923.339
9924.396
9923.206
9921.966
9920.907
9919.797
9918.676
9917.566
9916.463
9915.367
9914.277
9913.193
9912.116
9911.041
9909.964
9908.881
9907.788
9906.679
9905.55
9904.396
9903.204
9901.979
9900.702
9899.364
9897.963
9896.473
9894.876
9893.154
9891.281
9889.223
9886.934
9884.349
9881.382
9877.944
9874.081
9870.157
9867.494
9868.191
9870.927
9872.892
9874.295
9875.447
9876.314
9876.94
9877.381
9877.667
9877.817
9877.847
9877.772
9877.602
9877.346
9877.013
9876.607
9876.135
9875.6
9875.007
9874.359
9873.659
9872.91
9872.115
9871.275
9870.393
9869.472
9868.513
9867.52
9866.497
9865.449
9864.38
9863.297
9862.277
9862.253
9863.527
9864.283
9861.48
9857.263
9853.744
9851.327
9849.541
9847.92
9846.258
9844.547
9842.843
9841.172
9839.531
9837.902
9836.271
9834.638
9833.006
9831.375
9829.738
9828.084
9826.444
9824.813
9823.186
9821.566
9819.959
9818.366
9816.792
9815.239
9813.713
9812.217
9810.755
9809.332
9807.953
9806.623
9805.349
9804.137
9802.992
9801.924
9800.941
9800.053
9799.272
9798.602
9798.037
9797.534
9797.012
9796.356
9795.457
9794.371
9793.324
9792.447
9791.73
9791.095
9790.313
9788.85
9786.492
9785.703
9786.468
9787.671
9788.523
9789.051
9789.546
9790.188
9790.977
9791.892
9792.939
9794.131
9795.464
9796.923
9798.513
9800.241
9802.104
9804.096
9806.216
9808.462
9810.832
9813.324
9815.935
9818.664
9821.509
9824.467
9827.536
9830.714
9833.997
9837.382
9840.867
9844.447
9848.118
9851.878
9855.721
9859.644
9863.641
9867.709
9871.841
9876.034
9880.28
9884.575
9888.911
9893.282
9897.68
9902.099
9906.53
9910.965
9915.395
9919.811
9924.204
9928.564
9932.88
9937.141
9941.337
9945.454
9949.482
9953.407
9957.215
9960.894
9964.426
9967.799
9970.995
9973.997
9976.789
9979.349
9981.659
9983.695
9985.436
9986.852
9987.918
9988.596
9988.856
9988.645
9987.923
9986.61
9984.656
9981.945
9978.49
9974.314
9970.014
9966.53
9965.716
9967.746
9973.683
6571.351
6679.229
6820.816
6986.7
7176.939
7390.213
7624.351
7875.146
8136.068
8399.162
8670.331
8932.888
9179.232
9405.883
9607.567
9778.514
9916.157
10019.92
10089.63
10128.45
10139.31
10127.21
10094.98
10046.52
9985.604
9915.113
9837.697
9755.927
9673.013
9583.898
9497.758
9410.876
9325.175
9241.342
9159.748
9080.735
9005.065
8934.021
8860.342
8791.328
8727.72
8668.412
8612.718
8560.626
8512.361
8467.917
8427.764
8389.476
8355.312
8326.542
8301.012
8279.058
8261.318
8247.793
8238.655
8236.637
8227.319
8231.137
8239.466
8250.758
8264.789
8282.02
8302.809
8326.974
8354.059
8383.752
8416.3
8450.725
8486.311
8523.466
8562.443
8603.047
8644.894
8687.603
8730.846
8774.19
8816.72
8858.66
8900.787
8943.13
8985.258
9026.744
9067.331
9106.925
9145.452
9182.675
9218.505
9253.151
9286.534
9318.751
9349.671
9379.553
9408.183
9436.885
9465.712
9490.26
9512.022
9533.502
9555.415
9577.136
9597.951
9617.642
9636.342
9654.222
9671.449
9688.093
9704.191
9719.832
9735.059
9749.954
9764.502
9778.988
9793.004
9806.171
9817.377
9826.982
9836.266
9845.251
9853.174
9859.808
9865.631
9871.132
9876.503
9881.75
9886.846
9891.794
9896.609
9901.323
9905.956
9910.544
9915.203
9920.068
9925.321
9931.194
9937.716
9944.662
9952.262
9959.859
9965.781
9969.239
9970.281
9968.938
9965.657
9963.512
9964.224
9966.721
9969.612
9972.315
9974.825
9977.25
9979.612
9981.875
9984.01
9986.008
9987.874
9989.612
9991.226
9992.717
9994.087
9995.339
9996.473
9997.494
9998.403
9999.203
9999.898
10000.49
10000.98
10001.37
10001.67
10001.87
10001.98
10002.01
10001.95
10001.8
10001.58
10001.28
10000.9
10000.45
9999.933
9999.347
9998.696
9997.983
9997.21
9996.381
9995.496
9994.561
9993.579
9992.559
9991.512
9990.458
9989.424
9988.437
9987.497
9986.544
9985.47
9984.27
9983.009
9981.73
9980.441
9979.138
9977.821
9976.49
9975.148
9973.796
9972.437
9971.072
9969.701
9968.327
9966.951
9965.572
9964.192
9962.813
9961.433
9960.054
9958.677
9957.301
9955.928
9954.558
9953.19
9951.824
9950.458
9949.095
9947.736
9946.38
9945.028
9943.68
9942.336
9940.996
9939.66
9938.328
9937
9935.675
9934.355
9933.037
9931.724
9930.411
9929.11
9927.813
9926.556
9925.338
9924.272
9923.387
9922.884
9922.149
9921.087
9919.871
9918.681
9917.553
9916.455
9915.362
9914.27
9913.183
9912.1
9911.022
9909.943
9908.862
9907.774
9906.675
9905.561
9904.427
9903.267
9902.076
9900.846
9899.57
9898.238
9896.839
9895.361
9893.79
9892.107
9890.297
9888.336
9886.204
9883.883
9881.38
9878.754
9876.189
9874.028
9872.749
9872.666
9873.512
9874.619
9875.588
9876.341
9876.913
9877.343
9877.648
9877.837
9877.914
9877.888
9877.77
9877.567
9877.285
9876.931
9876.509
9876.023
9875.477
9874.874
9874.218
9873.51
9872.753
9871.95
9871.103
9870.213
9869.283
9868.314
9867.31
9866.27
9865.201
9864.097
9862.968
9861.814
9860.778
9858.904
9855.704
9853.281
9851.739
9850.608
9849.508
9848.308
9847.001
9845.597
9844.114
9842.581
9841.027
9839.459
9837.879
9836.282
9834.671
9833.051
9831.421
9829.784
9828.142
9826.504
9824.87
9823.24
9821.617
9820.006
9818.408
9816.828
9815.269
9813.736
9812.232
9810.761
9809.329
9807.939
9806.597
9805.309
9804.079
9802.913
9801.818
9800.8
9799.864
9799.012
9798.24
9797.532
9796.863
9796.194
9795.481
9794.675
9793.763
9792.832
9791.993
9791.29
9790.713
9790.342
9790.468
9791.077
9791.399
9791.084
9790.54
9790.188
9790.091
9790.239
9790.63
9791.237
9792.026
9792.985
9794.107
9795.382
9796.802
9798.364
9800.067
9801.908
9803.882
9805.988
9808.221
9810.58
9813.064
9815.668
9818.392
9821.233
9824.189
9827.256
9830.434
9833.717
9837.104
9840.592
9844.176
9847.852
9851.618
9855.468
9859.399
9863.406
9867.484
9871.628
9875.833
9880.093
9884.401
9888.752
9893.14
9897.555
9901.992
9906.442
9910.897
9915.349
9919.788
9924.205
9928.589
9932.932
9937.221
9941.445
9945.594
9949.654
9953.612
9957.457
9961.173
9964.746
9968.161
9971.402
9974.453
9977.297
9979.914
9982.285
9984.39
9986.207
9987.711
9988.878
9989.677
9990.08
9990.052
9989.558
9988.564
9987.04
9985.004
9982.492
9979.753
9977.009
9974.808
9973.381
9973.655
9975.536
6326.531
6296.954
6273.663
6251.671
6237.448
6236.64
6251.822
6287.848
6342.857
6384.57
6416.138
6471.693
6555.82
6667.549
6805.356
6966.982
7150.568
7356.657
7582.086
7825.03
8080.551
8343.877
8609.453
8869.653
9116.983
9344.506
9545.935
9716.561
9854.197
9958.301
10031.03
10071.75
10085.54
10072.39
10036.3
9985.16
9922.974
9852.324
9775.61
9694.759
9611.428
9526.713
9441.565
9356.83
9273.464
9192.112
9113.029
9036.358
8962.317
8891.054
8822.636
8757.504
8695.849
8637.73
8583.293
8532.597
8485.628
8442.358
8402.683
8366.712
8334.521
8305.952
8281.191
8260.483
8243.834
8231.227
8222.488
8217.92
8217.392
8221.356
8228.482
8238.569
8252.352
8270.08
8291.494
8316.211
8343.939
8374.346
8406.916
8441.462
8478.016
8516.361
8556.222
8597.385
8639.588
8682.486
8725.745
8769.015
8812.22
8855.348
8898.266
8940.982
8983.303
9024.932
9065.674
9105.408
9144.062
9181.608
9217.937
9252.901
9286.619
9319.09
9350.506
9380.717
9410.238
9438.133
9464.814
9490.197
9513.989
9536.587
9558.527
9579.899
9600.484
9620.121
9638.837
9656.751
9673.974
9690.561
9706.551
9722.018
9737.025
9751.638
9765.86
9779.698
9792.937
9805.345
9816.569
9826.581
9835.82
9844.503
9852.425
9859.444
9865.732
9871.583
9877.187
9882.604
9887.845
9892.922
9897.86
9902.696
9907.465
9912.236
9917.056
9922.02
9927.27
9932.898
9938.899
9945.135
9951.489
9957.566
9962.57
9965.928
9967.534
9967.584
9966.614
9965.967
9966.648
9968.506
9970.861
9973.256
9975.578
9977.847
9980.069
9982.215
9984.257
9986.183
9987.99
9989.679
9991.251
9992.707
9994.047
9995.272
9996.385
9997.388
9998.282
9999.071
9999.757
10000.34
10000.82
10001.21
10001.51
10001.71
10001.82
10001.85
10001.79
10001.65
10001.42
10001.13
10000.75
10000.31
9999.799
9999.221
9998.579
9997.875
9997.112
9996.294
9995.423
9994.503
9993.54
9992.542
9991.517
9990.478
9989.441
9988.417
9987.401
9986.366
9985.267
9984.089
9982.854
9981.586
9980.297
9978.99
9977.668
9976.329
9974.979
9973.618
9972.249
9970.874
9969.493
9968.108
9966.721
9965.332
9963.941
9962.551
9961.161
9959.772
9958.384
9956.999
9955.615
9954.235
9952.857
9951.481
9950.108
9948.739
9947.373
9946.011
9944.653
9943.298
9941.948
9940.602
9939.261
9937.924
9936.592
9935.265
9933.943
9932.627
9931.318
9930.018
9928.732
9927.467
9926.24
9925.072
9923.992
9923.018
9922.085
9921.055
9919.971
9918.872
9917.782
9916.704
9915.63
9914.551
9913.469
9912.385
9911.303
9910.222
9909.14
9908.054
9906.962
9905.859
9904.743
9903.609
9902.451
9901.265
9900.044
9898.782
9897.472
9896.103
9894.666
9893.15
9891.545
9889.838
9888.023
9886.095
9884.062
9881.96
9879.866
9877.913
9876.29
9875.189
9874.778
9875.045
9875.673
9876.311
9876.826
9877.227
9877.536
9877.756
9877.885
9877.922
9877.87
9877.735
9877.524
9877.239
9876.886
9876.468
9875.988
9875.449
9874.855
9874.206
9873.507
9872.758
9871.963
9871.122
9870.237
9869.311
9868.344
9867.339
9866.295
9865.215
9864.097
9862.94
9861.736
9860.395
9858.878
9857.587
9856.42
9855.004
9853.281
9851.421
9849.697
9848.052
9846.412
9844.769
9843.121
9841.475
9839.832
9838.191
9836.547
9834.9
9833.249
9831.594
9829.937
9828.28
9826.623
9824.971
9823.324
9821.686
9820.059
9818.447
9816.853
9815.281
9813.733
9812.215
9810.729
9809.281
9807.874
9806.513
9805.203
9803.948
9802.754
9801.624
9800.562
9799.57
9798.648
9797.79
9796.986
9796.219
9795.467
9794.704
9793.904
9793.06
9792.218
9791.446
9790.788
9790.266
9789.876
9789.526
9789.059
9788.547
9788.25
9788.26
9788.483
9788.851
9789.318
9789.906
9790.641
9791.518
9792.534
9793.69
9794.985
9796.418
9797.987
9799.692
9801.531
9803.504
9805.606
9807.837
9810.194
9812.675
9815.279
9818.003
9820.845
9823.803
9826.873
9830.055
9833.344
9836.737
9840.232
9843.824
9847.511
9851.288
9855.151
9859.095
9863.117
9867.211
9871.372
9875.596
9879.875
9884.205
9888.578
9892.989
9897.429
9901.893
9906.37
9910.855
9915.337
9919.809
9924.259
9928.68
9933.059
9937.388
9941.654
9945.846
9949.951
9953.957
9957.852
9961.621
9965.249
9968.723
9972.027
9975.144
9978.059
9980.752
9983.207
9985.404
9987.323
9988.942
9990.24
9991.193
9991.779
9991.975
9991.763
9991.13
9990.081
9988.656
9986.924
9985.041
9983.152
9981.515
9980.364
9980.011
9980.194
6776.816
6739.973
6704.062
6664.575
6622.271
6576.681
6533.638
6491.026
6449.362
6409.349
6370.402
6335.09
6302.347
6273.996
6251.473
6234.924
6228.692
6234.315
6252.733
6282
6319.124
6369.381
6438.408
6528.12
6641.57
6779.145
6940.481
7124.914
7331.251
7557.955
7802.311
8060.254
8325.974
8592.328
8852.423
9098.492
9324.836
9521.892
9687.445
9819.197
9916.696
9981.224
10015.09
10025.22
10013.39
9981.432
9933.766
9874.489
9806.586
9732.493
9654.085
9572.979
9490.225
9406.757
9323.628
9241.802
9161.861
9083.984
9008.442
8935.581
8865.66
8798.612
8734.498
8673.705
8616.481
8562.885
8512.89
8466.477
8423.638
8384.424
8348.799
8316.746
8288.436
8263.988
8243.449
8226.848
8214.235
8205.685
8201.283
8200.79
8204.146
8211.067
8221.635
8236.101
8254.449
8276.372
8301.49
8329.505
8360.174
8393.352
8428.777
8466.118
8505.126
8545.566
8587.218
8629.851
8673.181
8716.945
8760.908
8804.918
8848.782
8892.33
8935.492
8978.158
9020.147
9061.289
9101.449
9140.552
9178.528
9215.288
9250.742
9284.964
9317.952
9349.815
9380.448
9409.955
9438.019
9464.958
9490.847
9515.356
9538.497
9560.639
9582.032
9602.651
9622.39
9641.229
9659.234
9676.489
9693.063
9709.007
9724.382
9739.235
9753.606
9767.483
9780.841
9793.564
9805.529
9816.584
9826.653
9835.904
9844.513
9852.469
9859.714
9866.316
9872.448
9878.264
9883.846
9889.226
9894.427
9899.479
9904.42
9909.289
9914.143
9919.031
9924.018
9929.166
9934.511
9940.044
9945.654
9951.169
9956.33
9960.715
9963.98
9966.05
9966.992
9967.26
9967.571
9968.496
9970.127
9972.184
9974.367
9976.537
9978.672
9980.764
9982.796
9984.742
9986.588
9988.328
9989.959
9991.48
9992.891
9994.191
9995.382
9996.465
9997.44
9998.311
9999.079
9999.746
10000.31
10000.79
10001.16
10001.45
10001.64
10001.75
10001.77
10001.71
10001.56
10001.34
10001.05
10000.68
10000.24
9999.732
9999.159
9998.523
9997.827
9997.073
9996.264
9995.405
9994.498
9993.55
9992.566
9991.555
9990.524
9989.482
9988.434
9987.376
9986.296
9985.172
9983.991
9982.76
9981.494
9980.204
9978.894
9977.567
9976.226
9974.87
9973.503
9972.127
9970.744
9969.355
9967.962
9966.566
9965.168
9963.768
9962.368
9960.968
9959.57
9958.172
9956.777
9955.384
9953.994
9952.606
9951.222
9949.84
9948.463
9947.089
9945.718
9944.353
9942.991
9941.634
9940.282
9938.935
9937.594
9936.258
9934.929
9933.607
9932.293
9930.989
9929.697
9928.423
9927.174
9925.958
9924.787
9923.669
9922.597
9921.551
9920.513
9919.465
9918.396
9917.31
9916.22
9915.132
9914.044
9912.956
9911.87
9910.785
9909.702
9908.618
9907.532
9906.44
9905.341
9904.229
9903.1
9901.951
9900.777
9899.572
9898.333
9897.051
9895.72
9894.332
9892.88
9891.358
9889.764
9888.095
9886.36
9884.577
9882.784
9881.043
9879.446
9878.106
9877.143
9876.647
9876.608
9876.857
9877.187
9877.488
9877.733
9877.921
9878.047
9878.105
9878.088
9877.998
9877.836
9877.605
9877.307
9876.946
9876.523
9876.042
9875.504
9874.911
9874.265
9873.569
9872.824
9872.031
9871.193
9870.31
9869.385
9868.416
9867.408
9866.357
9865.266
9864.131
9862.947
9861.7
9860.384
9859.051
9857.656
9856.09
9854.356
9852.649
9851.058
9849.506
9847.958
9846.386
9844.796
9843.191
9841.573
9839.947
9838.313
9836.671
9835.02
9833.363
9831.7
9830.034
9828.365
9826.696
9825.03
9823.371
9821.719
9820.079
9818.453
9816.844
9815.256
9813.692
9812.157
9810.653
9809.185
9807.757
9806.372
9805.036
9803.752
9802.523
9801.354
9800.246
9799.2
9798.215
9797.287
9796.409
9795.569
9794.752
9793.943
9793.132
9792.321
9791.534
9790.809
9790.175
9789.64
9789.186
9788.798
9788.501
9788.366
9788.35
9788.406
9788.542
9788.782
9789.148
9789.664
9790.341
9791.174
9792.156
9793.286
9794.56
9795.976
9797.531
9799.224
9801.054
9803.018
9805.113
9807.339
9809.693
9812.172
9814.776
9817.501
9820.346
9823.308
9826.384
9829.572
9832.869
9836.272
9839.778
9843.383
9847.083
9850.875
9854.755
9858.718
9862.759
9866.875
9871.059
9875.306
9879.612
9883.969
9888.371
9892.813
9897.286
9901.783
9906.297
9910.82
9915.342
9919.855
9924.35
9928.817
9933.245
9937.624
9941.943
9946.191
9950.355
9954.423
9958.381
9962.217
9965.917
9969.465
9972.848
9976.049
9979.053
9981.842
9984.401
9986.71
9988.753
9990.51
9991.964
9993.097
9993.892
9994.336
9994.421
9994.15
9993.538
9992.629
9991.478
9990.2
9988.884
9987.737
9986.829
9986.348
9985.93
7120.645
7083.804
7050.407
7016.631
6986.522
6950.782
6918.791
6885.983
6852.193
6817.054
6781.238
6744.76
6706.157
6666.855
6624.728
6576.987
6534.099
6491.598
6449.851
6409.207
6370.181
6333.47
6299.528
6268.697
6241.751
6220.974
6207.965
6205.564
6213.848
6233.728
6266.545
6315.102
6381.48
6468.623
6577.758
6710.123
6866.34
7046.036
7248.111
7470.712
7711.218
7965.856
8229.35
8495.661
8756.592
9003.924
9230.385
9428.871
9595.384
9727.893
9826.372
9892.869
9930.134
9942.047
9932.6
9904.556
9861.139
9805.948
9742.076
9671.971
9597.471
9520.055
9440.858
9360.901
9281.054
9202.064
9124.359
9048.259
8974.39
8903.209
8834.857
8769.317
8706.683
8647.215
8591.111
8538.435
8489.186
8443.375
8401.023
8362.17
8326.817
8295.018
8266.895
8242.531
8221.98
8205.313
8192.619
8183.963
8179.343
8178.653
8181.866
8189.012
8200.105
8215.099
8233.851
8256.108
8281.601
8310.253
8341.741
8375.727
8411.942
8450.092
8489.924
8531.199
8573.679
8617.119
8661.263
8705.86
8750.679
8795.509
8840.155
8884.461
8928.319
8971.618
9014.213
9055.953
9096.705
9136.381
9174.901
9212.206
9248.242
9283.027
9316.553
9348.859
9379.898
9409.701
9438.241
9465.594
9491.763
9516.63
9540.211
9562.715
9584.328
9605.088
9624.953
9643.91
9662.004
9679.307
9695.886
9711.795
9727.082
9741.784
9755.927
9769.51
9782.512
9794.873
9806.522
9817.382
9827.411
9836.677
9845.286
9853.281
9860.663
9867.475
9873.822
9879.82
9885.546
9891.046
9896.351
9901.492
9906.508
9911.437
9916.323
9921.205
9926.139
9931.142
9936.234
9941.353
9946.45
9951.375
9955.943
9959.916
9963.081
9965.353
9966.928
9967.958
9968.91
9970.124
9971.719
9973.612
9975.633
9977.67
9979.682
9981.658
9983.581
9985.431
9987.193
9988.86
9990.425
9991.888
9993.247
9994.501
9995.65
9996.695
9997.637
9998.478
9999.219
9999.861
10000.41
10000.86
10001.22
10001.49
10001.67
10001.77
10001.78
10001.71
10001.56
10001.34
10001.04
10000.67
10000.23
9999.727
9999.157
9998.526
9997.835
9997.088
9996.287
9995.438
9994.542
9993.605
9992.632
9991.629
9990.601
9989.554
9988.49
9987.407
9986.299
9985.156
9983.967
9982.737
9981.476
9980.187
9978.87
9977.54
9976.195
9974.836
9973.464
9972.083
9970.693
9969.298
9967.897
9966.493
9965.086
9963.678
9962.269
9960.86
9959.452
9958.046
9956.641
9955.239
9953.839
9952.442
9951.049
9949.659
9948.273
9946.89
9945.512
9944.139
9942.77
9941.407
9940.048
9938.696
9937.35
9936.011
9934.679
9933.355
9932.042
9930.74
9929.453
9928.184
9926.939
9925.722
9924.54
9923.395
9922.284
9921.205
9920.141
9919.071
9917.985
9916.887
9915.789
9914.695
9913.604
9912.516
9911.43
9910.347
9909.265
9908.182
9907.098
9906.011
9904.916
9903.81
9902.69
9901.552
9900.393
9899.209
9897.996
9896.748
9895.459
9894.123
9892.737
9891.3
9889.813
9888.28
9886.714
9885.135
9883.578
9882.092
9880.742
9879.601
9878.741
9878.204
9877.977
9877.972
9878.074
9878.199
9878.308
9878.385
9878.422
9878.407
9878.335
9878.202
9878.008
9877.753
9877.439
9877.065
9876.635
9876.148
9875.607
9875.014
9874.369
9873.674
9872.93
9872.14
9871.303
9870.42
9869.494
9868.524
9867.511
9866.454
9865.354
9864.206
9863.008
9861.756
9860.454
9859.095
9857.636
9856.078
9854.487
9852.925
9851.38
9849.821
9848.245
9846.652
9845.044
9843.424
9841.793
9840.151
9838.501
9836.842
9835.176
9833.502
9831.823
9830.14
9828.455
9826.771
9825.089
9823.413
9821.744
9820.086
9818.442
9816.815
9815.207
9813.623
9812.066
9810.54
9809.048
9807.594
9806.181
9804.815
9803.497
9802.231
9801.02
9799.866
9798.768
9797.726
9796.737
9795.795
9794.893
9794.023
9793.176
9792.35
9791.549
9790.786
9790.082
9789.456
9788.916
9788.465
9788.108
9787.862
9787.722
9787.652
9787.67
9787.807
9788.078
9788.488
9789.039
9789.735
9790.577
9791.563
9792.691
9793.962
9795.373
9796.923
9798.611
9800.435
9802.395
9804.487
9806.711
9809.064
9811.544
9814.15
9816.879
9819.729
9822.697
9825.782
9828.98
9832.288
9835.704
9839.225
9842.846
9846.564
9850.376
9854.277
9858.262
9862.328
9866.47
9870.683
9874.96
9879.297
9883.688
9888.127
9892.606
9897.119
9901.658
9906.216
9910.785
9915.357
9919.921
9924.47
9928.994
9933.481
9937.922
9942.307
9946.622
9950.857
9954.999
9959.036
9962.953
9966.738
9970.377
9973.854
9977.156
9980.266
9983.168
9985.848
9988.289
9990.474
9992.389
9994.018
9995.348
9996.366
9997.067
9997.449
9997.52
9997.298
9996.823
9996.14
9995.337
9994.475
9993.704
9993.005
9992.566
9991.995
7334.259
7304.112
7253.946
7201.971
7154.871
7115.243
7079.537
7046.459
7015.446
6983.528
6947.879
6916.033
6883.61
6850.188
6815.484
6779.597
6742.444
6703.775
6663.741
6622.995
6582.092
6539.769
6497.197
6454.849
6413.373
6373.019
6333.727
6296.06
6261.061
6229.656
6203.457
6185.286
6176.473
6178.037
6191.83
6219.937
6265.006
6328.961
6413.167
6518.997
6647.321
6798.655
6973.005
7169.676
7387.162
7623.442
7874.48
8135.053
8398.964
8657.811
8903.153
9127.246
9323.6
9488.121
9619.098
9716.85
9783.376
9821.724
9835.492
9828.638
9804.486
9766.008
9716.18
9657.752
9593.004
9523.731
9451.323
9377.006
9301.614
9225.808
9150.432
9075.95
9002.806
8931.647
8862.874
8796.651
8733.066
8672.248
8614.38
8559.618
8508.057
8459.738
8414.696
8372.965
8334.584
8299.598
8268.073
8240.096
8215.756
8195.145
8178.362
8165.505
8156.642
8151.811
8151.026
8154.323
8161.727
8173.186
8188.57
8207.761
8230.532
8256.931
8286.495
8318.901
8353.856
8391.092
8430.324
8471.273
8513.673
8557.265
8601.792
8646.999
8692.639
8738.477
8784.299
8829.919
8875.179
8919.942
8964.083
9007.467
9049.956
9091.43
9131.796
9170.98
9208.933
9245.611
9281.005
9315.104
9347.92
9379.446
9409.702
9438.697
9466.433
9492.916
9518.143
9542.149
9565.041
9586.933
9607.883
9627.896
9646.982
9665.181
9682.552
9699.155
9715.043
9730.256
9744.83
9758.788
9772.14
9784.875
9796.965
9808.372
9819.06
9829.013
9838.263
9846.875
9854.899
9862.363
9869.308
9875.805
9881.938
9887.775
9893.364
9898.741
9903.941
9908.997
9913.945
9918.821
9923.657
9928.485
9933.311
9938.128
9942.937
9947.635
9952.114
9956.264
9959.934
9963.005
9965.421
9967.372
9968.914
9970.263
9971.691
9973.317
9975.125
9977.028
9978.952
9980.857
9982.727
9984.548
9986.303
9987.98
9989.569
9991.064
9992.463
9993.764
9994.965
9996.066
9997.067
9997.969
9998.773
9999.481
10000.09
10000.61
10001.04
10001.38
10001.63
10001.79
10001.87
10001.87
10001.79
10001.63
10001.4
10001.1
10000.72
10000.28
9999.774
9999.204
9998.574
9997.887
9997.144
9996.35
9995.507
9994.619
9993.689
9992.723
9991.725
9990.699
9989.647
9988.573
9987.475
9986.349
9985.19
9983.994
9982.762
9981.5
9980.21
9978.896
9977.565
9976.216
9974.853
9973.478
9972.092
9970.697
9969.295
9967.888
9966.477
9965.063
9963.647
9962.23
9960.812
9959.396
9957.98
9956.567
9955.155
9953.746
9952.341
9950.938
9949.54
9948.145
9946.754
9945.368
9943.987
9942.611
9941.24
9939.876
9938.518
9937.166
9935.823
9934.488
9933.162
9931.847
9930.546
9929.259
9927.991
9926.745
9925.524
9924.331
9923.168
9922.035
9920.925
9919.829
9918.733
9917.632
9916.529
9915.429
9914.334
9913.243
9912.155
9911.072
9909.991
9908.912
9907.833
9906.755
9905.676
9904.591
9903.494
9902.385
9901.261
9900.119
9898.957
9897.772
9896.563
9895.324
9894.048
9892.733
9891.382
9890
9888.594
9887.176
9885.767
9884.396
9883.101
9881.927
9880.923
9880.129
9879.568
9879.228
9879.062
9879.001
9878.984
9878.974
9878.951
9878.903
9878.818
9878.688
9878.51
9878.28
9877.996
9877.659
9877.269
9876.825
9876.329
9875.782
9875.183
9874.535
9873.838
9873.093
9872.301
9871.462
9870.579
9869.65
9868.677
9867.659
9866.596
9865.487
9864.331
9863.126
9861.87
9860.559
9859.186
9857.746
9856.255
9854.738
9853.206
9851.654
9850.082
9848.494
9846.891
9845.273
9843.642
9841.998
9840.343
9838.678
9837.004
9835.32
9833.63
9831.933
9830.233
9828.529
9826.826
9825.125
9823.428
9821.739
9820.06
9818.394
9816.744
9815.113
9813.504
9811.922
9810.368
9808.848
9807.364
9805.92
9804.519
9803.165
9801.859
9800.605
9799.403
9798.255
9797.159
9796.114
9795.116
9794.161
9793.244
9792.363
9791.517
9790.711
9789.953
9789.256
9788.633
9788.096
9787.651
9787.301
9787.045
9786.882
9786.814
9786.854
9787.016
9787.308
9787.734
9788.295
9788.995
9789.837
9790.821
9791.946
9793.212
9794.619
9796.166
9797.85
9799.672
9801.629
9803.721
9805.945
9808.3
9810.784
9813.395
9816.131
9818.989
9821.968
9825.064
9828.276
9831.6
9835.033
9838.572
9842.214
9845.955
9849.79
9853.718
9857.732
9861.828
9866.002
9870.249
9874.563
9878.938
9883.37
9887.851
9892.376
9896.937
9901.527
9906.138
9910.762
9915.392
9920.018
9924.631
9929.221
9933.779
9938.294
9942.755
9947.151
9951.469
9955.699
9959.827
9963.84
9967.726
9971.469
9975.056
9978.474
9981.706
9984.738
9987.555
9990.144
9992.488
9994.576
9996.394
9997.931
9999.181
10000.14
10000.81
10001.2
10001.33
10001.23
10000.94
10000.52
10000.02
9999.543
9999.045
9998.704
9998.156
7304.449
7268.538
7207.034
7167.15
7129.941
7096.374
7065.345
7035.737
7006.619
6977.539
6948.393
6917.903
6886.367
6853.486
6819.316
6783.659
6746.485
6707.759
6667.405
6625.784
6584.049
6541.582
6498.54
6455.382
6412.553
6369.951
6327.831
6287.035
6248.904
6214.895
6186.243
6164.544
6151.639
6149.185
6159.272
6184.191
6225.986
6286.366
6366.721
6468.232
6591.693
6737.82
6906.785
7097.901
7310.232
7541.562
7787.908
8044.065
8303.391
8557.464
8797.541
9015.956
9206.826
9366.546
9493.832
9589.359
9655.333
9694.868
9711.423
9708.514
9689.353
9656.746
9613.241
9561.22
9502.711
9439.462
9372.842
9303.865
9233.269
9161.797
9090.419
9019.687
8950.037
8881.973
8815.889
8752.034
8690.587
8631.71
8575.566
8522.301
8472.02
8424.791
8380.659
8339.664
8301.851
8267.28
8236.022
8208.165
8183.816
8163.097
8146.134
8133.048
8123.948
8118.931
8118.077
8121.441
8129.038