/*--------------------------------*- C++ -*----------------------------------*\
| =========                 |                                                 |
| \\      /  F ield         | foam-extend: Open Source CFD                    |
|  \\    /   O peration     | Version:     3.1                                |
|   \\  /    A nd           | Web:         http://www.extend-project.de       |
|    \\/     M anipulation  |                                                 |
\*---------------------------------------------------------------------------*/
FoamFile
{
    version     2.0;
    format      ascii;
    class       surfaceScalarField;
    location    "5";
    object      phi;
}
// * * * * * * * * * * * * * * * * * * * * * * * * * * * * * * * * * * * * * //

dimensions      [0 3 -1 0 0 0 0];

internalField   nonuniform List<scalar> 
275122
(
-9.997023e-05
0.0001008727
-2.673682e-08
-8.757504e-07
-9.017472e-05
8.591117e-05
3.443029e-07
3.919242e-06
-8.90864e-05
9.144063e-05
-8.078821e-08
-2.273444e-06
-9.959656e-05
0.000102349
-9.139378e-08
-2.661071e-06
-0.0001095607
0.0001106604
-8.599556e-08
-1.013689e-06
-0.0001114684
0.000111644
-7.972846e-08
-9.588535e-08
-0.0001117498
0.0001116915
-6.539865e-08
1.237595e-07
-0.000111323
0.0001111527
-5.346497e-08
2.238248e-07
-0.000110549
0.0001103177
-4.422285e-08
2.75501e-07
-0.000109546
0.0001092628
-3.701374e-08
3.2022e-07
-0.0001083443
0.000108016
-3.11398e-08
3.594966e-07
-0.0001069725
0.0001066059
-2.618327e-08
3.927297e-07
-0.0001054562
0.0001050572
-2.21131e-08
4.211334e-07
-0.0001038176
0.0001033911
-1.876867e-08
4.45229e-07
-0.0001020753
0.0001016262
-1.603207e-08
4.651889e-07
-0.000100249
9.978308e-05
-1.389946e-08
4.797868e-07
-9.836362e-05
9.789071e-05
-1.2937e-08
4.858452e-07
-9.646711e-05
9.601144e-05
-1.637208e-08
4.720409e-07
-9.470584e-05
9.434308e-05
-4.044371e-08
4.032002e-07
-9.368445e-05
9.391173e-05
-1.525655e-07
-7.47203e-08
-0.0001043735
0.0001079294
-2.992732e-07
-3.256703e-06
-0.0001099035
0.0001105174
-1.076368e-07
-5.062964e-07
-0.0001120646
0.000112914
-4.617229e-08
-8.031906e-07
-0.0001252635
0.0001298356
1.239919e-07
-4.696083e-06
-0.0001314041
0.0001317663
1.686172e-07
-5.307684e-07
-0.0001334621
0.000133827
1.837989e-08
-3.833235e-07
-0.0001344121
0.000134426
1.83127e-09
-1.579393e-08
-0.0001337616
0.0001329298
-1.247369e-09
8.330642e-07
-0.0001258706
0.0001180595
-1.614649e-09
7.81271e-06
-0.0001885053
0.0001935061
4.271106e-09
-5.005049e-06
-0.0001378219
0.0001437667
-3.583465e-08
-5.908968e-06
-0.0001608492
0.000166537
5.539629e-09
-5.693362e-06
-0.0001834722
0.0001890168
5.53453e-09
-5.550156e-06
-0.0002055031
0.000210951
5.312908e-09
-5.453302e-06
-0.0002271897
0.0002325583
4.982308e-09
-5.373587e-06
-0.0002485383
0.0002538056
4.670313e-09
-5.271984e-06
-0.0002694182
0.0002745491
4.077547e-09
-5.134948e-06
-0.0002896988
0.0002946676
3.726227e-09
-4.972528e-06
-0.0003092991
0.0003140946
3.212263e-09
-4.798797e-06
-0.0003282905
0.0003341414
9.865838e-08
-5.949648e-06
4.412951e-06
-0.0002250268
0.0002250244
1.233221e-11
-4.410607e-06
4.135684e-06
-0.0002248051
0.00022471
-4.042514e-10
-4.040216e-06
4.038773e-06
-0.0002242637
0.0002240552
-6.63837e-10
-3.829577e-06
3.989998e-06
-0.0002232133
0.0002228696
-6.753212e-10
-3.645677e-06
3.936021e-06
-0.0002216501
0.0002211912
-7.211591e-10
-3.476434e-06
3.886181e-06
-0.0002196691
0.0002191254
-5.567942e-10
-3.341898e-06
3.847302e-06
-0.0002173992
0.000216803
-5.008439e-10
-3.250647e-06
3.811948e-06
-0.0002149554
0.0002143487
-6.716675e-10
-3.204533e-06
3.980477e-06
-0.0002118364
0.0002102767
-1.150418e-09
-2.419627e-06
2.760594e-06
-0.0008764686
0.0008724604
6.453492e-12
-7.961226e-06
3.242399e-06
2.743524e-06
3.222909e-06
3.39634e-06
-0.0008669413
0.0008609204
7.395632e-12
-7.825245e-06
3.542357e-06
3.380987e-06
3.526454e-06
3.476494e-06
-0.0008555158
0.0008503533
-5.473065e-12
-8.824015e-06
3.527979e-06
3.464775e-06
3.517252e-06
3.562668e-06
-0.0008453657
0.0008402313
-1.336056e-11
-9.195276e-06
3.610342e-06
3.553991e-06
3.60264e-06
3.606901e-06
-0.0008349824
0.0008297862
-8.793367e-12
-9.192543e-06
3.5949e-06
3.603355e-06
3.583633e-06
3.593302e-06
-0.0008246821
0.0008196222
4.117754e-12
-9.331118e-06
3.607441e-06
3.587892e-06
3.602446e-06
3.597526e-06
-0.0008147075
0.000809868
1.116635e-11
-9.552449e-06
3.603267e-06
3.592711e-06
3.598445e-06
3.585095e-06
-0.00080522
0.0008006333
1.169808e-11
-9.751476e-06
3.58795e-06
3.5811e-06
3.58401e-06
3.535171e-06
-0.0007963533
0.0007919526
1.029335e-11
-9.741742e-06
3.537993e-06
3.531517e-06
3.537704e-06
3.155136e-06
-0.0007879509
0.0007855418
9.678096e-12
-1.080087e-05
3.448707e-06
3.155358e-06
3.4508e-06
3.651956e-06
-0.000781107
0.0007770049
7.573533e-12
-1.027285e-05
3.536834e-06
3.648846e-06
3.537263e-06
3.539353e-06
-0.0007734161
0.0007700373
6.124885e-12
-1.069427e-05
3.496617e-06
3.540205e-06
3.496856e-06
3.562288e-06
-0.0007667446
0.0007636201
3.313899e-12
-1.109028e-05
3.544087e-06
3.563483e-06
3.54491e-06
3.587106e-06
-0.0007605968
0.0007577269
-5.460311e-13
-1.146073e-05
3.578892e-06
3.58678e-06
3.577875e-06
3.621409e-06
-0.0007549285
0.000752271
-3.637233e-12
-1.182356e-05
3.621934e-06
3.618629e-06
3.619145e-06
3.672812e-06
-0.0007496949
0.0007472288
-4.761789e-12
-1.221063e-05
3.677484e-06
3.660254e-06
3.666149e-06
3.77322e-06
-0.0007448544
0.0007425795
-2.704416e-13
-1.273829e-05
3.789569e-06
3.717421e-06
3.733042e-06
4.083695e-06
-0.0007403692
0.0007379661
-4.666924e-13
-1.358995e-05
4.163206e-06
3.846514e-06
3.899709e-06
5.22232e-06
-0.0007346214
0.0007288259
-4.532433e-12
-1.414599e-05
5.586934e-06
4.585182e-06
4.547061e-06
5.601424e-06
-0.0007223255
0.0007263123
-2.137858e-12
-9.588214e-06
5.89482e-06
-0.0007281148
0.0007276099
-3.557736e-13
-5.389922e-06
1.037294e-05
-0.0007255341
0.0007235026
-1.59769e-12
-8.341388e-06
9.430951e-06
-0.0007216594
0.0007198588
-3.036257e-12
-7.630335e-06
5.702132e-06
-0.0007182272
0.0007175741
-3.559993e-12
-5.048964e-06
2.671147e-06
-0.0007175869
0.0007175069
-3.277751e-12
-2.591155e-06
1.608283e-06
-0.0007174224
0.0007173701
-2.258241e-12
-1.555992e-06
1.03451e-06
-0.0007173509
0.0007173571
-1.399083e-12
-1.040692e-06
6.883454e-07
-0.0007173753
0.0007174216
-1.536307e-12
-7.345549e-07
4.795179e-07
-0.0007174809
0.0007175785
-1.728598e-12
-5.770499e-07
3.315981e-07
-0.0007177101
0.0007178941
-1.530226e-12
-5.155302e-07
2.352279e-07
-0.0007181184
0.0007184029
-8.856457e-13
-5.197168e-07
1.828261e-07
-0.0007187335
0.0007191321
-3.826257e-14
-5.814851e-07
1.596203e-07
-0.0007195752
0.0007200851
4.662e-13
-6.694655e-07
1.682082e-07
-0.0007206443
0.0007212788
1.361739e-12
-8.027191e-07
2.273595e-07
-0.0007219635
0.0007227353
2.12627e-12
-9.9919e-07
3.66909e-07
-0.0007235573
0.0007244844
2.612767e-12
-1.294036e-06
6.672953e-07
-0.0007254554
0.0007265559
2.702891e-12
-1.767788e-06
1.364151e-06
-0.0007276704
0.0007288997
2.461552e-12
-2.593482e-06
3.103038e-06
-0.0007299401
0.0007308344
1.915597e-12
-3.997347e-06
5.090837e-06
-0.0007307599
0.0007312774
9.878896e-13
-5.608392e-06
4.38996e-06
-0.000732522
0.0007340422
9.31686e-14
-5.910168e-06
8.010343e-06
-0.0007351197
0.0007353974
-6.191337e-13
-8.28808e-06
1.34272e-05
-0.00073243
0.000729895
3.569318e-14
-1.089219e-05
6.576594e-06
-0.000728921
0.0007296081
5.748825e-13
-7.263692e-06
2.816611e-06
-0.0007304209
0.0007309408
8.144388e-13
-3.336576e-06
-4.687571e-07
-0.0007314045
0.0007317186
8.520658e-13
1.546567e-07
-6.7751e-06
-0.0007324682
0.0007338179
1.062599e-12
5.425374e-06
-2.324342e-05
-0.0007365789
0.0007466372
1.405057e-12
1.318514e-05
-4.361955e-06
-0.0007573127
0.0007592708
1.270119e-12
1.271741e-05
-2.960304e-06
-4.374615e-06
-2.978657e-06
-1.539863e-06
-0.0007600558
0.0007615475
-7.608912e-14
4.433148e-06
-1.406999e-06
-1.552961e-06
-1.425088e-06
-7.60549e-07
-0.0007626415
0.0007634861
-2.952049e-13
2.028609e-06
-6.587368e-07
-7.779668e-07
-6.759375e-07
-4.534927e-07
-0.0007643039
0.000765252
2.246458e-13
8.378018e-07
-4.224445e-07
-4.70798e-07
-4.392486e-07
-3.335898e-07
-0.0007662892
0.0007674148
-7.409394e-13
2.109096e-07
-3.19736e-07
-3.488369e-07
-3.343421e-07
-2.647485e-07
-0.0007686171
0.000769875
1.132028e-12
-1.905725e-07
-2.564931e-07
-2.773871e-07
-2.686585e-07
-2.275027e-07
-0.0007711844
0.0007725373
1.626271e-12
-4.307785e-07
-2.236728e-07
-2.375494e-07
-2.333715e-07
-2.099389e-07
-0.0007739225
0.0007753368
2.405335e-12
-5.606286e-07
-2.086232e-07
-2.183588e-07
-2.167519e-07
-2.038808e-07
-0.0007767715
0.0007782267
2.146911e-12
-6.255139e-07
-2.039803e-07
-2.110166e-07
-2.108451e-07
-2.043988e-07
-0.0007796964
0.0007811807
1.208488e-12
-6.530093e-07
-2.052985e-07
-2.104599e-07
-2.111475e-07
-2.090168e-07
-0.0007826758
0.0007841809
4.33747e-13
-6.557508e-07
-2.105017e-07
-2.142929e-07
-2.15602e-07
-2.1672e-07
-0.0007856941
0.0007872132
-1.456353e-13
-6.394193e-07
-2.185917e-07
-2.213398e-07
-2.230348e-07
-2.268844e-07
-0.0007887377
0.000790265
-2.351367e-13
-6.074266e-07
-2.29138e-07
-2.308668e-07
-2.329667e-07
-2.390788e-07
-0.0007917956
0.0007933262
2.184895e-13
-5.62447e-07
-2.416293e-07
-2.425434e-07
-2.449567e-07
-2.528793e-07
-0.0007948585
0.0007963885
6.599966e-13
-5.069423e-07
-2.556719e-07
-2.559062e-07
-2.585778e-07
-2.679394e-07
-0.0007979186
0.0007994444
7.795883e-13
-4.428938e-07
-2.709269e-07
-2.706049e-07
-2.734854e-07
-2.839649e-07
-0.0008009691
0.0008024878
6.794226e-13
-3.719114e-07
-2.871091e-07
-2.863389e-07
-2.89389e-07
-3.007149e-07
-0.0008040042
0.0008055131
5.37976e-13
-2.952521e-07
-3.039962e-07
-3.0286e-07
-3.060517e-07
-3.179673e-07
-0.0008070187
0.0008085153
4.462699e-13
-2.140658e-07
-3.213952e-07
-3.199694e-07
-3.232904e-07
-3.35546e-07
-0.0008100079
0.0008114904
4.043933e-13
-1.298921e-07
-3.389423e-07
-3.373509e-07
-3.407501e-07
-3.534328e-07
-0.0008129678
0.0008144347
3.629177e-13
-4.309681e-08
-3.568352e-07
-3.550718e-07
-3.584732e-07
-3.71778e-07
-0.0008158985
0.0008173466
3.070783e-13
4.928338e-08
-3.754131e-07
-3.732868e-07
-3.769262e-07
-3.903707e-07
-0.0008187893
0.0008202183
2.149833e-13
1.422829e-07
-3.938809e-07
-3.917579e-07
-3.952713e-07
-4.087654e-07
-0.000821641
0.0008230496
1.033115e-13
2.360855e-07
-4.12268e-07
-4.100334e-07
-4.135368e-07
-4.272481e-07
-0.0008244514
0.0008258385
-1.72149e-14
3.312224e-07
-4.307482e-07
-4.283901e-07
-4.318796e-07
-4.457749e-07
0.0008285833
-1.553693e-13
4.272805e-07
-4.492172e-07
-4.467877e-07
-4.502426e-07
-0.0008272186
-4.640666e-07
-0.0008299408
0.0008312826
-2.683974e-13
5.234269e-07
-4.674791e-07
-4.650918e-07
-4.685292e-07
-4.821501e-07
-0.0008326171
0.0008339352
-3.664775e-13
6.189561e-07
-4.85417e-07
-4.831583e-07
-4.864208e-07
-4.998721e-07
-0.0008352459
0.0008365403
-4.473799e-13
7.132858e-07
-5.030888e-07
-5.007398e-07
-5.039499e-07
-5.172099e-07
-0.0008378273
0.0008390979
-5.046236e-13
8.060243e-07
-5.203213e-07
-5.180032e-07
-5.211124e-07
-5.34042e-07
-0.0008403612
0.0008416085
-5.036796e-13
8.964127e-07
-5.370436e-07
-5.347768e-07
-5.37778e-07
-5.503817e-07
-0.0008428485
0.0008440725
-4.313383e-13
9.847732e-07
-5.532973e-07
-5.51066e-07
-5.53981e-07
-5.662752e-07
-0.0008452899
0.0008464933
-2.752491e-13
1.068846e-06
-5.691816e-07
-5.669194e-07
-5.698279e-07
-5.8137e-07
-0.0008476922
0.0008488748
-1.585434e-12
1.149529e-06
-5.8412e-07
-5.819422e-07
-5.846935e-07
-5.952514e-07
-0.0008500464
0.0008512007
-8.099137e-12
1.232554e-06
-5.977073e-07
-5.957128e-07
-5.98164e-07
-6.112506e-07
-0.0008523506
0.0008534915
-2.194298e-12
1.309332e-06
-6.132748e-07
-6.118756e-07
-6.138996e-07
-6.241323e-07
-0.000854624
0.0008557407
1.522939e-12
1.385105e-06
-6.263557e-07
-6.245273e-07
-6.268104e-07
-6.375498e-07
-0.0008568525
0.0008579514
7.558685e-13
1.457273e-06
-6.401066e-07
-6.379703e-07
-6.405256e-07
-6.503834e-07
-0.0008590446
0.0008601258
-7.719472e-13
1.526012e-06
-6.527906e-07
-6.508226e-07
-6.532322e-07
-6.626955e-07
-0.000861202
0.0008622672
-1.364196e-12
1.590903e-06
-6.649507e-07
-6.631127e-07
-6.653608e-07
-6.743862e-07
-0.0008633276
0.0008643782
-1.234064e-12
1.651857e-06
-6.765083e-07
-6.747369e-07
-6.768415e-07
-6.854385e-07
-0.0008654243
0.0008664619
-1.149435e-12
1.708727e-06
-6.874241e-07
-6.857431e-07
-6.877186e-07
-6.956844e-07
-0.0008674951
0.0008685215
-1.087548e-12
1.760847e-06
-6.975305e-07
-6.960632e-07
-6.979429e-07
-7.050583e-07
-0.0008695436
0.0008705609
-1.260255e-12
1.807245e-06
-7.067556e-07
-7.054869e-07
-7.071875e-07
-7.132629e-07
-0.0008715734
0.0008725844
-1.343056e-12
1.846009e-06
-7.148847e-07
-7.136112e-07
-7.152018e-07
-7.199181e-07
-0.0008735901
0.0008745996
-1.423203e-12
1.873922e-06
-7.214696e-07
-7.202365e-07
-7.217649e-07
-7.237128e-07
-0.0008756038
0.00087662
-1.504078e-12
1.88178e-06
-7.249422e-07
-7.240424e-07
-7.252025e-07
-7.199468e-07
-0.0008776324
0.0008786721
-1.893087e-12
1.839642e-06
-7.194487e-07
-7.203111e-07
-7.19622e-07
-6.856043e-07
-0.0008797048
0.0008807193
-2.214694e-12
1.693897e-06
-6.682122e-07
-6.862482e-07
-6.683352e-07
-5.401124e-07
-0.0008815017
0.000882179
-1.176114e-12
1.417368e-06
-5.065835e-07
-5.399706e-07
-5.080733e-07
-4.189349e-07
-0.0008832381
0.0008836525
-8.4155e-13
1.341556e-06
-4.617657e-07
-4.158e-07
-4.593986e-07
-6.882296e-07
-0.0008846261
0.0008856287
-1.131821e-12
1.72802e-06
-6.796305e-07
-6.857461e-07
-6.770229e-07
-7.01934e-07
-0.0008865468
0.0008874418
-1.203874e-12
1.892914e-06
-6.946104e-07
-6.992753e-07
-6.920613e-07
-7.170366e-07
-0.0008883336
0.00088922
-1.297005e-12
1.968233e-06
-7.1265e-07
-7.146074e-07
-7.103156e-07
-7.28221e-07
-0.0008901085
0.0008909887
-1.272307e-12
2.022248e-06
-7.251402e-07
-7.260293e-07
-7.230302e-07
-7.402615e-07
-0.00089187
0.0008927524
-1.216164e-12
2.06974e-06
-7.379088e-07
-7.380654e-07
-7.358349e-07
-7.494516e-07
-0.0008936384
0.0008945264
-1.231268e-12
2.103587e-06
-7.48198e-07
-7.475387e-07
-7.463567e-07
-7.582475e-07
-0.0008954199
0.0008963175
-1.279485e-12
2.131123e-06
-7.578168e-07
-7.565733e-07
-7.561754e-07
-7.669062e-07
-0.0008972228
0.0008981323
-1.284066e-12
2.155296e-06
-7.670161e-07
-7.654083e-07
-7.655148e-07
-7.756105e-07
-0.000899048
0.0008999684
-1.200106e-12
2.180148e-06
-7.760007e-07
-7.742447e-07
-7.747354e-07
-7.839592e-07
-0.000900895
0.0009018267
-1.107847e-12
2.203359e-06
-7.84632e-07
-7.828588e-07
-7.836124e-07
-7.920067e-07
-0.0009027643
0.0009037067
-1.102899e-12
2.225262e-06
-7.927391e-07
-7.91109e-07
-7.918419e-07
-7.997736e-07
-0.0009046548
0.0009056079
-1.152415e-12
2.245885e-06
-8.005721e-07
-7.989162e-07
-7.997573e-07
-8.072943e-07
-0.0009065664
0.0009075299
-1.184742e-12
2.26585e-06
-8.081483e-07
-8.065181e-07
-8.073955e-07
-8.145868e-07
-0.0009084985
0.000909472
-1.173458e-12
2.285159e-06
-8.154489e-07
-8.138955e-07
-8.147585e-07
-8.217028e-07
-0.0009104505
0.0009114336
-1.128091e-12
2.304105e-06
-8.225399e-07
-8.210894e-07
-8.219513e-07
-8.28631e-07
-0.0009124215
0.0009134138
-1.060073e-12
2.322782e-06
-8.294677e-07
-8.2809e-07
-8.289243e-07
-8.354036e-07
-0.0009144105
0.0009154115
-9.677752e-13
2.341368e-06
-8.362492e-07
-8.349172e-07
-8.357581e-07
-8.421103e-07
-0.0009164167
0.0009174258
-8.462585e-13
2.360135e-06
-8.429404e-07
-8.416758e-07
-8.425148e-07
-8.486894e-07
-0.0009184388
0.0009194554
-7.120025e-13
2.379093e-06
-8.495326e-07
-8.483023e-07
-8.491492e-07
-8.551863e-07
-0.0009204756
0.0009214989
-6.025533e-13
2.398432e-06
-8.560634e-07
-8.54815e-07
-8.557147e-07
-8.616105e-07
-0.0009225256
0.0009235554
-4.179846e-13
2.418543e-06
-8.628483e-07
-8.612771e-07
-8.625555e-07
-8.681444e-07
-0.0009245897
0.0009256272
4.740693e-14
2.438189e-06
-8.701149e-07
-8.677772e-07
-8.696608e-07
-8.732552e-07
-0.0009266614
0.0009276998
1.807741e-12
2.458161e-06
-8.752445e-07
-8.730467e-07
-8.750072e-07
-8.79205e-07
-0.0009287447
0.0009297879
-2.398666e-12
2.477258e-06
-8.815046e-07
-8.786826e-07
-8.811484e-07
-8.835463e-07
0.0009318694
4.010265e-12
2.498091e-06
-0.0009308284
-8.859758e-07
-8.836709e-07
-8.859295e-07
-8.921978e-07
-0.0009329151
0.0009339641
-1.472001e-11
2.522177e-06
-8.932093e-07
-8.924231e-07
-8.932736e-07
-8.994303e-07
-0.0009350149
0.0009360664
-1.638175e-11
2.545632e-06
-8.992071e-07
-8.993901e-07
-8.991836e-07
-9.054014e-07
-0.0009371187
0.0009381709
-6.859398e-12
2.568192e-06
-9.049677e-07
-9.052156e-07
-9.047887e-07
-9.111195e-07
-0.0009392237
0.0009402757
-7.203945e-12
2.591455e-06
-9.107702e-07
-9.109767e-07
-9.10582e-07
-9.168525e-07
-0.0009413282
0.0009423794
-4.066883e-12
2.615285e-06
-9.165768e-07
-9.166732e-07
-9.16369e-07
-9.22381e-07
-0.0009434307
0.0009444802
-4.126114e-12
2.639157e-06
-9.221042e-07
-9.222399e-07
-9.219701e-07
-9.277242e-07
-0.0009455296
0.0009465769
-3.178011e-12
2.662848e-06
-9.274709e-07
-9.276025e-07
-9.273468e-07
-9.331717e-07
-0.000947624
0.0009486691
-3.697956e-12
2.686954e-06
-9.329825e-07
-9.330375e-07
-9.328409e-07
-9.383634e-07
-0.0009497135
0.0009507555
-2.976805e-12
2.710713e-06
-9.381309e-07
-9.382446e-07
-9.380182e-07
-9.433707e-07
-0.0009517965
0.0009528356
-1.845446e-12
2.73389e-06
-9.432394e-07
-9.432654e-07
-9.43137e-07
-9.482055e-07
-0.0009538731
0.000954909
-4.501878e-13
2.75648e-06
-9.480633e-07
-9.480858e-07
-9.479373e-07
-9.528197e-07
-0.0009559423
0.000956975
1.032528e-12
2.778227e-06
-9.527605e-07
-9.52706e-07
-9.526503e-07
-9.571264e-07
-0.0009580045
0.0009590342
1.18818e-12
2.798566e-06
-9.571028e-07
-9.570353e-07
-9.570082e-07
-9.612096e-07
-0.000960059
0.000961086
9.502525e-13
2.817672e-06
-9.612594e-07
-9.610937e-07
-9.611251e-07
-9.65051e-07
-0.0009621069
0.0009631325
1.191419e-12
2.834654e-06
-9.652984e-07
-9.648906e-07
-9.651085e-07
-9.68763e-07
-0.00096415
0.000965177
1.478111e-12
2.849326e-06
-9.695704e-07
-9.686158e-07
-9.69398e-07
-9.722152e-07
-0.0009661933
0.0009672257
1.421265e-12
2.860092e-06
-9.740998e-07
-9.72171e-07
-9.740519e-07
-9.756114e-07
-0.0009682416
0.0009692825
1.535403e-12
2.866309e-06
-9.779917e-07
-9.756707e-07
-9.779594e-07
-9.775584e-07
-0.0009703018
0.000971356
2.222415e-12
2.862292e-06
-9.807391e-07
-9.775938e-07
-9.805806e-07
-9.780215e-07
-0.0009723755
0.0009734498
2.779896e-12
2.845323e-06
-9.819199e-07
-9.780689e-07
-9.816764e-07
-9.751806e-07
-0.0009744837
0.0009755946
2.276847e-12
2.798686e-06
-9.797299e-07
-9.752438e-07
-9.794462e-07
-9.68728e-07
-0.0009766555
0.0009778509
1.529809e-12
2.688365e-06
-9.733165e-07
-9.688554e-07
-9.729306e-07
-9.396146e-07
-0.0009790112
0.0009803493
6.25891e-12
2.413935e-06
-9.361987e-07
-9.400056e-07
-9.361653e-07
-7.407691e-07
-0.0009815461
0.0009822531
1.134766e-11
1.824701e-06
-5.227165e-07
-7.421905e-07
-5.260829e-07
-6.56416e-08
-0.0002449756
0.0002442045
-1.113517e-11
8.366768e-07
-7.125145e-07
-0.000243386
0.0002431377
-1.857327e-11
9.608443e-07
-8.012026e-07
-0.0002426176
0.0002424988
1.18423e-11
9.199773e-07
-8.467648e-07
-0.0002422648
0.0002422204
2.164402e-11
8.911731e-07
-8.776902e-07
-0.0002421707
0.0002421766
2.791753e-11
8.716977e-07
-9.027468e-07
-0.000242249
0.0002422878
2.739672e-11
8.638746e-07
-9.278831e-07
-0.000242443
0.0002425065
2.638952e-11
8.643601e-07
-9.51258e-07
-0.0002427258
0.0002428066
2.645066e-11
8.703478e-07
-9.715138e-07
-0.0002430683
0.0002431606
2.835888e-11
8.791592e-07
-9.883961e-07
-0.0002434496
0.000243549
2.909782e-11
8.889845e-07
-1.002987e-06
-0.0002438552
0.0002439593
1.853761e-11
8.987966e-07
-1.015993e-06
-0.0002442766
0.0002443836
1.088995e-11
9.090245e-07
-1.027961e-06
-0.0002447072
0.0002448156
1.485478e-11
9.195194e-07
-1.039202e-06
-0.0002451422
0.0002452512
1.673788e-11
9.301846e-07
-1.049745e-06
-0.0002455781
0.0002456869
1.770345e-11
9.409477e-07
-1.059713e-06
-0.0002460122
0.0002461201
1.518096e-11
9.518013e-07
-1.069237e-06
-0.0002464421
0.0002465487
1.646051e-11
9.626528e-07
-1.078324e-06
-0.0002468656
0.0002469703
1.783877e-11
9.735839e-07
-1.087947e-06
-0.0002472815
0.0002473846
1.776554e-11
9.848675e-07
-1.094009e-06
-0.0002476896
0.0002477899
1.838482e-11
9.937254e-07
-1.103432e-06
-0.0002480827
0.0002481802
1.828434e-11
1.005844e-06
-1.109511e-06
-0.0002484699
0.0002485639
6.016279e-11
1.015382e-06
-1.115032e-06
-0.0002488411
0.0002489314
1.655077e-11
1.024736e-06
-1.123307e-06
-0.0002491922
0.00024928
1.47494e-11
1.035496e-06
-1.129706e-06
-0.0002495334
0.0002496174
1.813668e-11
1.045599e-06
-1.134752e-06
-0.0002498612
0.0002499407
2.234213e-11
1.055224e-06
-1.137947e-06
-0.0002501741
0.0002502489
1.077296e-11
1.063197e-06
-1.139404e-06
-0.0002504737
0.0002505436
6.009996e-12
1.069523e-06
-1.141196e-06
-0.0002507636
0.0002508307
1.2432e-11
1.074125e-06
-1.142532e-06
-0.0002510514
0.0002511178
1.519072e-11
1.076063e-06
-1.141957e-06
-0.0002513437
0.0002514131
1.505194e-11
1.072581e-06
-1.1398e-06
-0.0002516516
0.0002517314
1.1267e-11
1.059974e-06
-1.132512e-06
-0.0002519986
0.0002521018
7.133791e-12
1.029363e-06
-1.077038e-06
-0.0002524325
0.000252554
2.952711e-12
9.555085e-07
-9.969251e-07
-0.0002530575
0.0002533131
-7.565573e-12
7.41294e-07
2.71984e-07
-0.0002541437
0.0002540265
2.048666e-11
-1.547816e-07
9.531314e-07
-0.0002539233
0.0002539695
-2.766303e-12
-9.993012e-07
1.029172e-06
-0.0002540902
0.0002541572
6.861902e-12
-1.096146e-06
1.084097e-06
-0.0002544124
0.0002545067
1.178185e-11
-1.178411e-06
1.119699e-06
-0.0002547987
0.0002549021
1.487279e-11
-1.223113e-06
1.145203e-06
-0.0002552099
0.0002553134
1.070112e-11
-1.248663e-06
1.16477e-06
-0.0002556264
0.0002557312
9.364559e-12
-1.269576e-06
1.181862e-06
-0.000256045
0.0002561491
1.473274e-11
-1.285948e-06
1.196178e-06
-0.0002564596
0.0002565623
2.01907e-11
-1.298938e-06
1.208895e-06
-0.0002568677
0.0002569686
8.788427e-12
-1.309775e-06
1.220291e-06
-0.000257268
0.0002573667
-2.397738e-12
-1.319049e-06
1.230429e-06
-0.0002576596
0.0002577561
-5.070274e-12
-1.326985e-06
1.23957e-06
-0.0002580422
0.0002581366
-8.855076e-12
-1.333935e-06
1.247868e-06
-0.0002584161
0.0002585083
-1.131139e-11
-1.340111e-06
1.255567e-06
-0.0002587814
0.0002588716
-1.473435e-11
-1.345748e-06
1.26261e-06
-0.0002591385
0.0002592267
-1.447288e-11
-1.350829e-06
1.269079e-06
-0.0002594878
0.0002595741
-9.630631e-12
-1.355418e-06
1.275032e-06
-0.0002598296
0.0002599142
-7.648913e-12
-1.359606e-06
1.280556e-06
-0.0002601642
0.0002602471
-6.83056e-12
-1.363469e-06
1.28571e-06
-0.000260492
0.0002605734
-3.732084e-12
-1.367033e-06
1.290532e-06
-0.0002608133
0.0002608931
-3.257153e-12
-1.370318e-06
1.295027e-06
-0.0002611283
0.0002612066
-5.704316e-12
-1.373313e-06
1.299183e-06
-0.0002614372
0.000261514
-4.88296e-12
-1.376012e-06
1.303017e-06
-0.0002617399
0.0002618153
-2.114366e-12
-1.378406e-06
1.306604e-06
-0.0002620365
0.0002621104
-1.287383e-12
-1.380507e-06
1.309849e-06
-0.0002623269
0.0002623993
-9.621512e-12
-1.382286e-06
1.312704e-06
-0.0002626111
0.000262682
-1.727217e-11
-1.383662e-06
1.3152e-06
-0.0002628889
0.0002629583
-1.272186e-11
-1.384657e-06
1.317336e-06
-0.0002631601
0.000263228
-1.007453e-11
-1.385244e-06
1.319151e-06
-0.0002634244
0.0002634907
-8.561483e-12
-1.385432e-06
1.320754e-06
-0.0002636813
0.0002637458
-8.004581e-12
-1.385281e-06
1.322671e-06
-0.0002639292
0.0002639913
-5.30551e-12
-1.384764e-06
1.320951e-06
-0.000264162
0.0002642225
1.054835e-11
-1.381371e-06
1.310452e-06
-0.0002643936
0.0002644594
-1.718767e-11
-1.376236e-06
1.29488e-06
-0.0002646836
0.0002646967
1.546183e-10
-1.308085e-06
1.739272e-06
-0.0002623521
0.00108034
-3.875347e-12
-5.698977e-06
1.52802e-07
1.744902e-06
1.367441e-07
-0.0002623581
-0.0002768508
-0.0002768534
8.416998e-07
-0.00108425
0.00108481
-3.114923e-12
-4.745584e-06
1.272817e-06
8.19298e-07
1.251361e-06
1.039926e-06
-0.001084976
0.001085378
-6.825929e-12
-4.655089e-06
1.103948e-06
1.022133e-06
1.087098e-06
1.087143e-06
-0.001086406
0.001087399
-5.204836e-12
-5.419123e-06
1.1413e-06
1.071454e-06
1.12591e-06
1.163806e-06
-0.001088303
0.001088907
-4.828912e-12
-5.343051e-06
1.220171e-06
1.14941e-06
1.205728e-06
1.201115e-06
-0.001089379
0.001089766
-6.415588e-12
-5.220755e-06
1.228929e-06
1.1876e-06
1.215616e-06
1.199599e-06
-0.001090198
0.001090643
-6.976503e-12
-5.24569e-06
1.213901e-06
1.186271e-06
1.200603e-06
1.205808e-06
-0.001091133
0.00109159
-6.128279e-12
-5.280943e-06
1.218777e-06
1.192635e-06
1.206668e-06
1.22126e-06
-0.001092056
0.001092489
-5.120838e-12
-5.315142e-06
1.231512e-06
1.209207e-06
1.219759e-06
1.232462e-06
-0.001092932
0.001093353
-4.66514e-12
-5.346544e-06
1.241281e-06
1.22172e-06
1.2295e-06
1.24994e-06
-0.001093792
0.001094188
-4.74608e-12
-5.366537e-06
1.245527e-06
1.239332e-06
1.234934e-06
1.257081e-06
-0.001094576
0.001094949
-5.239074e-12
-5.389441e-06
1.260558e-06
1.247232e-06
1.250738e-06
1.264151e-06
-0.001095326
0.00109568
-6.333589e-12
-5.398922e-06
1.267153e-06
1.255031e-06
1.258303e-06
1.272827e-06
-0.001096025
0.001096349
-7.430556e-12
-5.405084e-06
1.275827e-06
1.264473e-06
1.267616e-06
1.280377e-06
-0.001096667
0.001096969
-8.082582e-12
-5.412268e-06
1.282452e-06
1.272765e-06
1.275075e-06
1.286874e-06
-0.001097262
0.001097539
-7.271719e-12
-5.414171e-06
1.288677e-06
1.279931e-06
1.281899e-06
1.292388e-06
-0.001097808
0.001098062
-6.081206e-12
-5.4145e-06
1.293857e-06
1.286172e-06
1.287739e-06
1.296598e-06
-0.001098309
0.001098543
-5.741776e-12
-5.411758e-06
1.297548e-06
1.291032e-06
1.292058e-06
1.299331e-06
-0.001098757
0.00109896
-6.262561e-12
-5.391847e-06
1.300009e-06
1.294314e-06
1.295071e-06
1.303021e-06
-0.001099164
0.001099354
-7.184946e-12
-5.394923e-06
1.304e-06
1.298445e-06
1.299485e-06
1.305394e-06
-0.001099538
0.001099709
-7.718152e-12
-5.386119e-06
1.305932e-06
1.301221e-06
1.301807e-06
1.306666e-06
-0.001099874
0.001100028
-7.753178e-12
-5.373675e-06
1.307143e-06
1.302909e-06
1.303448e-06
1.307595e-06
-0.001100174
0.001100311
-7.508762e-12
-5.360811e-06
1.308029e-06
1.304232e-06
1.304735e-06
1.30816e-06
-0.00110044
0.001100561
-7.179159e-12
-5.347479e-06
1.308563e-06
1.305114e-06
1.305594e-06
1.308372e-06
-0.001100675
0.00110078
-6.93441e-12
-5.333686e-06
1.308745e-06
1.305524e-06
1.305887e-06
1.308167e-06
-0.00110088
0.001100971
-6.983743e-12
-5.319185e-06
1.308549e-06
1.305475e-06
1.305841e-06
1.307689e-06
-0.001101057
0.001101135
-7.09224e-12
-5.304589e-06
1.308024e-06
1.305216e-06
1.305603e-06
1.306962e-06
-0.001101209
0.001101275
-6.949559e-12
-5.289825e-06
1.307326e-06
1.304726e-06
1.305128e-06
1.30611e-06
-0.001101336
0.00110139
-6.579836e-12
-5.275153e-06
1.306496e-06
1.304062e-06
1.304475e-06
1.30508e-06
-0.00110144
0.001101484
-6.128684e-12
-5.26045e-06
1.305484e-06
1.303183e-06
1.3036e-06
1.303885e-06
-0.001101523
0.001101556
-5.634717e-12
-5.245686e-06
1.304306e-06
1.302122e-06
1.302557e-06
1.302534e-06
-0.001101586
0.001101609
-5.071413e-12
-5.230799e-06
1.302983e-06
1.300911e-06
1.301381e-06
1.301021e-06
-0.001101629
0.001101643
-4.502058e-12
-5.215563e-06
1.301503e-06
1.29951e-06
1.300002e-06
1.299332e-06
-0.001101654
0.001101658
-4.108744e-12
-5.199719e-06
1.299862e-06
1.29791e-06
1.298444e-06
1.297602e-06
-0.00110166
0.001101655
-3.9248e-12
-5.183724e-06
1.298152e-06
1.296288e-06
1.296855e-06
1.295577e-06
-0.001101649
0.001101634
-3.437369e-12
-5.166629e-06
1.296203e-06
1.294357e-06
1.294995e-06
1.293231e-06
-0.001101618
0.001101594
-2.966619e-12
-5.147566e-06
1.293893e-06
1.292079e-06
1.292737e-06
1.290541e-06
-0.001101568
0.001101533
-2.489566e-12
-5.126337e-06
1.291287e-06
1.289471e-06
1.290231e-06
1.287295e-06
-0.001101498
0.00110145
-2.005033e-12
-5.101873e-06
1.288203e-06
1.286333e-06
1.287269e-06
1.283232e-06
-0.001101403
0.001101342
-1.48798e-12
-5.072246e-06
1.284366e-06
1.282349e-06
1.28351e-06
1.277796e-06
-0.001101281
0.001101203
-9.037951e-13
-5.034305e-06
1.279194e-06
1.276908e-06
1.278274e-06
1.269966e-06
-0.001101125
0.001101024
-2.842565e-13
-4.980832e-06
1.27164e-06
1.269056e-06
1.270705e-06
1.257737e-06
-0.001100917
0.001100782
1.687383e-13
-4.896605e-06
1.259259e-06
1.256885e-06
1.258437e-06
1.234269e-06
-0.001100627
0.001100439
4.715635e-13
-4.744123e-06
1.232797e-06
1.233498e-06
1.232117e-06
1.167719e-06
-0.001100237
0.001100064
7.534269e-13
-4.471289e-06
1.155237e-06
1.167001e-06
1.154537e-06
1.029278e-06
-0.001099972
0.001099996
1.002042e-12
-4.047165e-06
9.830238e-07
1.028599e-06
9.823102e-07
8.578791e-07
-0.001100076
0.001100163
1.214957e-12
-3.480555e-06
8.3935e-07
8.572821e-07
8.387634e-07
8.220824e-07
-0.001100217
0.001100234
1.420537e-12
-3.313965e-06
8.270625e-07
8.215633e-07
8.265535e-07
8.154794e-07
-0.00110024
0.001100238
2.466472e-12
-3.260203e-06
8.162918e-07
8.14975e-07
8.157749e-07
8.008161e-07
-0.001100234
0.001100214
5.520442e-12
-3.18375e-06
8.018568e-07
8.003347e-07
8.013835e-07
7.894164e-07
-0.001100179
0.001100121
1.419188e-11
-3.102737e-06
7.915432e-07
7.88963e-07
7.911217e-07
7.710013e-07
-0.001100059
0.001099981
4.732847e-11
-2.99841e-06
7.676465e-07
7.704843e-07
7.671861e-07
7.231038e-07
-0.001099927
0.001099922
1.023771e-10
-2.8592e-06
7.100384e-07
7.221654e-07
7.09191e-07
4.719298e-07
-0.001100433
0.001101675
7.79996e-11
-3.352122e-06
5.82534e-07
4.725552e-07
5.829453e-07
8.731064e-07
-0.001102441
0.001100905
-9.419129e-11
-1.714813e-06
7.459534e-07
8.777922e-07
7.542032e-07
7.315468e-07
-0.001100062
0.001099997
-4.873694e-11
-2.709913e-06
6.503866e-07
7.372019e-07
6.554182e-07
7.13127e-07
-0.00109978
0.001099608
-2.278067e-11
-2.595556e-06
6.662281e-07
7.1755e-07
6.703818e-07
6.741258e-07
-0.001099381
0.001099319
-3.877231e-12
-2.566952e-06
6.367663e-07
6.779604e-07
6.403827e-07
6.601162e-07
-0.001099287
0.001099334
1.82527e-12
-2.652942e-06
6.39467e-07
6.635038e-07
6.427083e-07
6.673546e-07
-0.001099362
0.001099412
-4.210261e-13
-2.707151e-06
6.578841e-07
6.704979e-07
6.610242e-07
6.79217e-07
-0.00109944
0.00109949
3.519065e-13
-2.760769e-06
6.731604e-07
6.820347e-07
6.757995e-07
6.885877e-07
-0.001099534
0.001099592
1.018426e-12
-2.811955e-06
6.856683e-07
6.90995e-07
6.879667e-07
6.995997e-07
-0.001099645
0.00109971
2.684364e-12
-2.866144e-06
6.991311e-07
7.016979e-07
7.011515e-07
7.117953e-07
-0.00109977
0.00109984
7.147269e-12
-2.923423e-06
7.12719e-07
7.136624e-07
7.145195e-07
7.237434e-07
-0.001099914
0.001099995
1.113512e-11
-2.983256e-06
7.257401e-07
7.254198e-07
7.273478e-07
7.341134e-07
-0.001100072
0.001100157
9.994385e-12
-3.029044e-06
7.361767e-07
7.356572e-07