/*--------------------------------*- C++ -*----------------------------------*\
| =========                 |                                                 |
| \\      /  F ield         | foam-extend: Open Source CFD                    |
|  \\    /   O peration     | Version:     3.1                                |
|   \\  /    A nd           | Web:         http://www.extend-project.de       |
|    \\/     M anipulation  |                                                 |
\*---------------------------------------------------------------------------*/
FoamFile
{
    version     2.0;
    format      ascii;
    class       volScalarField;
    location    "14.5";
    object      alpha1;
}
// * * * * * * * * * * * * * * * * * * * * * * * * * * * * * * * * * * * * * //

dimensions      [0 0 0 0 0 0 0];

internalField   nonuniform List<scalar> 
119952
(
1
1
1
1
1
1
1
1
1
1
1
1
1
1
1
1
1
1
1
1
1
1
1
1
1
1
1
1
1
1
1
1
1
1
1
1
1
1
1
1
1
1
1
1
1
1
1
1
1
1
1
1
1
1
1
1
1
1
1
1
1
1
1
1
1
1
1
1
0.9999999
1
1
1
1
1
1
1
0.9999999
1
1
1
1
1
1
0.9999999
1
1
1
1
0.9999999
1
1
1
0.9999999
1
1
1
1
1
1
1
1
1
1
1
1
1
1
1
1
1
1
1
1
1
1
1
1
1
1
1
1
1
1
1
1
1
1
1
1
1
1
1
1
1
1
1
1
1
1
1
1
1
1
1
1
1
1
1
1
1
0.9999999
1
0.9999999
1
1
0.9999998
1
1
1
0.9999997
0.9999999
1
1
1
1
1
0.9999998
0.9999998
1
1
1
0.9999999
0.9999999
1
1
1
0.9999999
0.9999999
1
1
1
1
1
1
1
0.9999999
1
1
1
1
1
1
1
1
1
1
1
1
1
1
1
1
1
1
1
1
1
0.9999998
1
1
1
1
1
1
1
1
0.9999999
0.9999999
1
0.9999999
1
0.9999998
0.9999999
1
0.9999999
1
0.9999998
0.9999997
1
0.9999998
0.9999999
1
0.9999999
1
0.9999999
1
1
0.9999999
1
1
0.9999998
0.9999999
0.9999999
1
1
1
0.9999999
1
1
1
1
1
0.9999999
1
1
1
0.9999999
1
0.9999999
1
1
1
1
0.9999998
1
0.9999999
1
1
1
0.9999999
0.9999999
1
1
1
1
1
1
1
1
1
1
1
1
1
1
1
1
1
1
1
1
1
1
1
1
1
1
1
1
1
1
1
1
1
0.9999998
1
1
1
1
1
1
1
1
1
1
0.9999999
1
1
1
1
1
1
1
1
1
1
1
1
1
1
1
1
1
0.9999971
0.9999919
0.9999971
1
1
1
1
1
1
1
1
1
1
1
1
1
1
1
1
1
1
1
1
1
1
1
1
1
1
1
1
0.999999
0.9999747
0.9999693
0.9999985
1
1
1
1
1
1
1
0.9999996
0.9999989
0.9999998
1
1
1
1
1
1
1
1
0.9999996
0.9999997
1
1
0.9999996
0.9999997
1
1
1
1
1
0.9999998
0.9999996
1
1
0.9999993
0.9999997
1
1
1
1
1
1
1
1
1
1
1
1
1
1
1
1
1
1
1
1
1
1
1
0.9999999
1
1
1
1
1
1
1
0.9999999
1
1
1
1
1
1
1
0.9999999
1
1
1
1
1
1
1
1
1
1
1
1
1
1
1
1
1
1
1
1
1
1
1
1
1
1
1
1
1
1
1
1
1
1
1
1
1
1
1
1
1
1
1
1
0.9999999
0.9999999
0.9999999
1
1
1
1
1
1
1
1
1
1
1
1
1
1
1
1
1
1
1
0.9999999
0.9999999
0.9999999
1
1
1
1
1
1
1
1
1
1
1
1
1
1
1
1
1
1
1
1
1
1
1
1
1
1
1
1
1
1
0.9999999
0.9999999
1
1
1
1
0.9999999
1
1
1
1
1
1
1
1
1
1
0.9999999
0.9999999
1
1
1
1
1
1
0.9999999
0.9999999
1
1
1
1
0.9999999
0.9999999
0.9999999
1
1
1
1
1
1
1
1
1
0.9999999
0.9999999
1
1
1
0.9999999
0.9999999
0.9999999
1
1
1
1
1
1
1
0.9999999
0.9999999
0.9999999
1
1
1
1
1
1
1
1
1
1
0.9999998
0.9999999
1
1
1
1
1
1
1
1
1
1
1
1
1
1
1
1
1
1
1
1
0.9999998
1
0.9999998
0.9999999
1
1
1
1
0.9999997
1
1
1
1
1
1
1
1
1
1
1
1
0.9999999
0.9999999
0.9999999
0.9999999
1
1
1
1
1
1
1
1
1
1
0.9999999
1
1
1
1
0.9999998
0.9999997
0.9999999
1
1
1
1
1
1
1
1
1
1
1
1
1
1
1
1
1
1
1
1
1
1
1
1
1
1
1
1
1
1
1
1
1
1
1
1
1
1
1
1
1
1
1
1
1
1
1
1
1
1
1
1
1
0.9999997
0.9999996
0.9999997
0.9999999
1
1
1
1
1
1
1
1
1
0.9999998
0.9999972
0.999952
0.9998442
0.9998537
0.9999308
0.999987
0.9999993
1
1
1
1
1
1
1
1
0.9999995
0.9999972
0.9999915
0.999986
0.9999856
0.9999866
0.9999902
0.9999961
0.9999993
0.9999983
0.9999889
0.9999626
0.9999405
0.9999429
0.9999641
0.9999911
0.9999881
0.9998789
0.9996389
0.9996382
0.9997606
0.9999389
0.9999945
0.9999999
1
1
1
1
1
1
1
1
1
1
1
1
0.9999999
0.9999998
0.9999992
0.9999966
0.9999861
0.9999671
0.9999704
0.9999898
0.9999989
1
1
1
1
1
1
1
1
1
1
0.9999998
0.9999996
0.9999996
0.9999999
1
1
1
1
1
1
1
1
1
1
1
1
1
1
1
1
1
1
1
1
1
1
1
1
1
1
1
1
1
1
1
1
1
1
1
1
1
1
1
1
1
1
1
1
1
1
1
1
1
1
1
1
1
1
1
1
1
1
1
1
1
1
1
1
1
1
1
1
1
1
1
1
1
1
1
1
1
1
1
1
1
1
1
1
1
1
1
0.9999999
0.9999999
0.9999999
1
1
1
1
1
1
1
1
1
1
1
1
1
1
1
1
1
1
1
1
1
1
1
1
1
1
1
1
1
1
0.9999999
0.9999999
0.9999999
0.9999999
1
1
1
1
1
1
1
1
1
1
1
1
1
1
1
1
1
1
1
1
0.9999999
0.9999999
0.9999999
0.9999999
1
1
1
1
1
1
1
1
1
1
1
1
1
1
0.9999999
0.9999999
1
1
1
1
1
1
1
1
1
1
1
1
0.9999999
0.9999998
0.9999999
0.9999999
1
1
1
1
1
1
1
1
1
1
1
1
0.9999999
0.9999999
1
1
1
1
1
1
0.9999999
0.9999999
1
1
1
1
1
0.9999999
0.9999999
0.9999999
0.9999999
1
1
1
1
1
1
1
1
1
1
1
1
1
1
1
1
0.9999999
0.9999999
0.9999999
1
1
1
1
0.9999999
0.9999999
1
1
1
1
1
1
1
1
1
0.9999998
0.9999998
0.9999998
0.9999998
1
1
1
1
1
1
0.9999999
0.9999999
0.9999999
0.9999999
0.9999999
1
1
1
1
1
1
1
1
1
1
0.9999999
0.9999999
1
1
1
1
1
1
1
1
1
0.9999999
0.9999997
0.9999996
0.9999998
1
1
1
0.9999999
0.9999996
0.9999993
0.9999996
0.9999995
0.9999991
0.999999
0.999999
0.9999993
0.9999996
0.9999999
1
1
1
1
1
1
1
1
0.9999998
0.9999997
0.9999997
0.9999998
0.9999999
1
1
1
1
1
1
1
1
1
1
1
1
0.9999999
0.9999999
0.9999999
1
1
1
1
1
1
1
1
1
0.9999999
0.9999998
0.9999999
1
1
1
1
1
1
1
1
1
1
1
1
1
1
1
1
1
1
1
1
1
1
1
1
1
0.9999999
0.999999
0.9999987
0.9999987
0.9999991
0.9999998
1
1
1
1
1
1
0.9999999
0.9999987
0.9999817
0.9998777
0.9998435
0.9998483
0.9999402
0.9999927
0.9999998
1
1
1
1
1
1
1
0.9999995
0.9999932
0.9999212
0.9995541
0.9990709
0.9991594
0.999547
0.9999016
0.9999948
0.9999982
0.9999808
0.9997649
0.9988844
0.9985921
0.9990748
0.9997528
0.9999771
0.9999307
0.999681
0.9996382
0.9996382
0.9996382
0.9997783
0.9999645
0.9999988
1
1
0.9999998
0.9999995
0.9999995
0.9999997
1
1
1
0.9999998
0.9999985
0.9999925
0.9999601
0.9997804
0.9993629
0.9994834
0.999852
0.9999879
0.9999998
1
1
1
1
1
1
1
1
1
0.9999999
0.9999997
0.9999997
0.9999999
1
1
1
1
1
1
1
1
1
1
1
1
1
1
1
1
1
1
1
1
1
1
1
1
1
1
1
1
1
1
1
1
1
1
1
1
1
1
1
1
1
1
1
1
1
1
1
1
1
1
1
1
1
1
1
1
1
1
1
1
1
1
1
0.9999999
0.9999999
0.9999999
0.9999999
1
1
1
1
1
1
1
1
1
1
1
1
1
1
1
1
1
1
1
1
1
1
1
1
1
1
1
1
1
1
1
1
1
1
1
1
0.9999999
0.9999999
0.9999999
0.9999999
1
1
1
1
1
1
1
1
1
1
1
1
1
1
1
1
1
1
1
1
1
1
1
1
1
1
1
1
0.9999999
0.9999999
0.9999999
1
1
1
1
1
1
1
1
1
1
1
1
1
1
1
1
1
1
1
1
1
1
0.9999999
0.9999999
0.9999999
1
1
1
1
1
1
1
1
1
1
1
1
1
1
0.9999999
0.9999999
1
1
1
1
1
1
1
1
1
1
1
1
0.9999999
0.9999998
0.9999998
0.9999999
1
1
1
1
0.9999999
1
1
1
1
1
1
1
1
1
1
1
1
1
1
1
1
1
1
1
1
1
1
1
1
1
1
0.9999999
0.9999999
0.9999999
1
1
1
1
1
1
1
1
1
1
1
1
1
1
1
1
0.9999999
0.9999999
0.9999999
1
1
1
1
1
1
1
1
1
1
1
1
0.9999999
0.9999998
0.9999998
0.9999999
1
1
1
1
1
0.9999994
0.9999979
0.9999981
0.9999991
0.9999998
1
1
1
1
1
1
1
1
1
1
1
1
1
1
1
1
1
1
1
1
1
0.9999998
0.9999991
0.9999989
0.9999989
0.9999995
0.9999999
1
1
1
1
1
0.9999999
0.9999996
0.9999987
0.9999985
0.9999985
0.9999985
0.999999
0.9999997
0.9999999
1
1
1
1
1
1
1
1
1
0.9999998
0.9999997
0.9999997
0.9999997
0.9999999
1
1
1
1
1
1
1
1
1
1
1
1
1
1
1
0.9999999
0.9999999
0.9999999
1
1
1
1
1
0.9999999
1
1
1
1
1
0.9999999
0.9999999
0.9999999
1
1
1
1
1
1
1
1
1
1
1
1
1
1
1
1
1
1
0.9999999
0.9999993
0.9999987
0.9999987
0.9999988
0.9999996
1
1
1
1
1
1
0.9999998
0.9999985
0.9999892
0.9999588
0.9999541
0.9999721
0.9999939
0.9999996
1
1
1
1
1
1
0.9999999
0.9999991
0.9999853
0.9997994
0.9980179
0.9925978
0.9934403
0.9973102
0.9995952
0.9999845
0.9999981
0.9999772
0.9995519
0.9967262
0.9961041
0.9967053
0.9989148
0.9998867
0.9999815
0.9999287
0.9998212
0.9998532
0.9999399
0.9999906
0.9999993
0.9999994
0.9999988
0.9999956
0.999992
0.9999943
0.9999986
0.9999999
1
1
1
0.999999
0.9999708
0.9991766
0.996514
0.9963272
0.998008
0.9996508
0.999978
0.9999996
1
1
1
1
1
1
1
1
1
1
1
0.9999998
0.9999998
0.9999999
1
1
1
1
1
1
1
1
1
1
1
1
1
1
1
1
1
1
1
1
1
1
1
1
1
1
1
1
1
1
1
1
1
1
1
1
1
1
1
1
1
1
1
1
1
1
1
1
1
1
1
1
1
1
1
1
1
1
1
1
1
1
1
1
1
1
1
1
1
1
1
1
1
1
1
1
1
0.9999999
0.9999999
0.9999999
1
1
1
1
1
1
1
1
1
1
1
1
1
1
1
1
1
1
1
1
1
1
1
1
1
1
1
1
1
1
1
1
1
1
1
0.9999999
0.9999999
0.9999999
1
1
1
1
1
1
1
1
1
1
1
1
1
1
1
1
1
1
1
1
1
1
1
1
1
1
1
1
1
1
0.9999999
1
1
1
1
1
1
1
1
1
1
1
1
1
1
1
1
1
1
1
1
1
1
1
0.9999999
0.9999999
1
1
1
1
1
1
1
1
1
1
1
1
1
1
0.9999999
0.9999999
0.9999999
1
1
1
1
1
1
1
1
1
1
1
1
0.9999999
0.9999999
0.9999999
1
1
1
1
0.9999999
0.9999999
1
1
1
1
1
1
1
1
1
1
1
1
1
1
1
1
1
1
1
1
1
1
1
1
1
1
1
1
1
0.9999999
0.9999999
0.9999999
1
1
1
1
1
1
1
1
1
1
1
1
1
1
0.9999999
0.9999999
0.9999999
1
1
1
1
1
1
1
1
1
1
1
1
1
0.9999999
0.9999999
0.9999999
0.9999999
0.9999999
0.9999998
0.9999991
0.9999962
0.9999945
0.9999958
0.9999982
0.9999997
1
1
1
1
1
1
1
1
1
1
1
1
1
1
1
1
1
1
1
1
0.9999999
0.9999994
0.9999989
0.9999989
0.9999994
0.9999999
1
0.9999999
0.9999999
0.9999999
0.9999999
0.9999999
0.9999999
1
0.9999999
0.9999997
0.9999986
0.9999984
0.9999991
0.9999996
0.9999995
0.9999995
0.9999996
0.9999999
1
1
1
1
1
1
1
0.9999997
0.9999997
0.9999998
1
0.9999999
0.9999999
0.9999999
0.9999999
1
1
1
1
1
1
1
1
1
1
1
1
1
1
1
0.9999999
0.9999999
0.9999999
0.9999999
1
1
1
1
1
0.9999997
0.9999997
0.9999998
1
1
1
1
1
1
1
1
1
1
1
0.9999999
0.9999999
1
1
1
1
1
1
1
0.9999997
0.9999993
0.9999994
0.9999998
1
1
1
1
1
1
1
1
0.9999999
0.9999999
0.9999997
0.999999
0.9999981
0.9999986
0.9999997
1
1
1
0.9999999
0.9999998
0.9999996
0.9999945
0.999917
0.9989807
0.9925424
0.9898034
0.9898086
0.992004
0.9980057
0.999887
0.9999972
0.9999813
0.9996926
0.9971658
0.9961041
0.9961041
0.9972213
0.9993999
0.9999707
0.9999964
0.999996
0.9999956
0.9999956
0.9999956
0.9999944
0.9999859
0.9999558
0.9999442
0.9999692
0.9999948
0.9999998
1
1
1
1
0.9999988
0.999973
0.9998191
0.9996586
0.9997107
0.9998648
0.9997315
0.9977037
0.992794
0.9936613
0.9976868
0.999751
0.9999945
1
1
1
1
1
1
1
1
1
1
1
1
1
1
1
1
1
1
1
1
1
1
1
1
1
1
1
1
1
1
1
1
1
1
1
1
1
1
1
1
1
1
1
1
1
1
1
1
1
1
1
1
1
1
1
1
1
1
1
1
1
1
1
1
1
1
1
1
1
1
1
1
1
1
1
1
1
1
1
1
1
1
1
1
1
1
1
1
1
1
1
1
1
1
1
1
1
1
0.9999999
0.9999999
0.9999999
1
1
1
1
1
1
1
1
1
1
1
1
1
1
1
1
1
1
1
1
1
1
1
1
1
1
1
1
1
1
1
1
1
1
1
1
1
1
1
1
1
1
1
1
1
1
1
1
1
1
1
1
1
1
1
1
1
1
1
1
1
1
1
1
1
1
1
1
1
1
1
1
1
1
1
1
1
1
1
1
1
1
1
1
1
1
1
1
1
1
1
1
1
1
1
1
1
1
1
1
1
1
1
1
1
1
1
1
0.9999999
0.9999999
1
1
1
1
1
1
1
1
1
1
1
1
1
1
1
1
1
1
1
1
1
1
1
1
1
1
1
1
1
1
1
1
1
1
1
1
1
1
1
0.9999999
0.9999999
1
1
1
1
1
1
1
1
1
1
0.9999998
0.9999998
0.9999999
1
1
1
1
1
1
1
1
1
1
1
1
1
0.9999999
0.9999998
0.9999998
0.9999999
1
1
1
1
1
1
1
1
1
1
1
0.9999999
0.9999995
0.9999984
0.9999953
0.9999889
0.999979
0.9999723
0.9999755
0.9999791
0.9999794
0.9999802
0.9999828
0.9999877
0.9999929
0.9999967
0.9999988
0.9999997
1
1
1
1
1
1
1
1
1
1
1
1
1
1
1
0.9999999
0.9999999
0.9999997
0.9999995
0.9999996
0.9999998
1
1
0.9999999
0.9999994
0.9999985
0.9999983
0.9999982
0.9999982
0.9999986
0.9999994
0.9999999
1
1
0.9999997
0.9999984
0.999995
0.9999943
0.9999969
0.9999995
1
1
1
1
1
1
1
1
1
1
1
0.9999997
0.9999996
0.9999996
0.9999998
1
1
1
1
1
1
1
1
1
1
1
1
1
1
1
1
1
1
0.9999999
0.9999999
0.9999999
1
1
1
0.9999997
0.9999997
0.9999997
0.9999999
1
1
1
1
1
1
1
1
1
1
0.9999997
0.9999997
0.9999999
1
1
1
1
1
1
1
1
1
1
1
1
1
1
1
1
1
1
1
1
1
1
1
1
1
1
1
0.9999998
0.9999974
0.9999886
0.9999794
0.9999234
0.9992277
0.993638
0.9897914
0.9897972
0.9898034
0.992731
0.9982823
0.9998921
0.999995
0.99999
0.9999099
0.9991586
0.9977483
0.9982831
0.9994284
0.9999396
0.9999962
0.9999964
0.9999961
0.9999943
0.9999894
0.9999732
0.999912
0.9997541
0.9997075
0.999839
0.9999734
0.999999
1
1
1
1
1
0.9999996
0.9999983
0.9999974
0.9999976
0.9999969
0.9999634
0.9992432
0.9939787
0.9927244
0.993434
0.9977938
0.9998064
0.999997
1
1
1
1
1
0.9999999
0.9999999
0.9999999
0.9999999
1
1
1
1
1
1
1
1
1
1
1
1
1
1
1
1
1
1
1
1
1
1
1
1
1
1
1
1
1
1
1
1
1
1
1
1
1
1
1
1
1
1
1
1
1
1
1
1
1
1
1
1
1
1
1
1
1
1
1
1
1
1
1
1
1
1
1
1
1
1
1
1
1
1
1
1
1
1
1
1
1
1
1
1
1
1
1
1
1
1
1
1
1
1
1
1
1
1
1
1
1
1
1
1
1
1
1
1
1
1
1
1
1
1
1
1
1
1
1
1
1
1
1
1
1
1
1
1
1
1
1
1
1
1
1
1
1
1
1
1
1
1
1
1
1
1
1
1
1
1
1
1
1
1
1
1
1
1
1
1
1
1
1
1
1
1
1
1
1
1
1
1
1
0.9999999
0.9999997
0.9999994
0.9999995
0.9999997
0.9999999
1
1
1
1
1
1
1
1
1
1
1
1
1
1
1
1
1
1
1
1
1
1
1
1
1
1
1
1
1
1
1
1
1
1
1
1
0.9999999
0.9999999
0.9999999
0.9999999
0.9999999
0.9999999
0.9999999
1
1
1
1
1
1
1
1
1
1
1
1
1
1
1
1
0.9999999
0.9999999
0.9999999
1
1
1
1
1
0.9999999
0.9999999
0.9999999
1
1
1
1
1
1
1
1
1
0.9999998
0.9999998
0.9999998
1
1
1
1
1
1
1
1
1
1
1
1
1
1
0.9999998
0.9999998
0.9999999
1
1
1
1
1
0.9999999
0.9999997
0.9999997
0.9999998
1
1
0.9999996
0.9999921
0.9999251
0.9995571
0.9985649
0.9980269
0.9982137
0.9991012
0.99984
0.9998733
0.9997628
0.9995845
0.9994069
0.9992626
0.9992644
0.9996254
0.9999487
0.9999987
1
1
1
1
1
1
1
0.9999999
1
1
1
1
1
1
0.9999996
0.999999
0.9999995
0.9999999
1
1
1
1
1
0.9999996
0.9999968
0.999988
0.9999787
0.9999784
0.9999855
0.9999965
0.9999998
1
0.9999999
0.9999982
0.9999867
0.999973
0.9999812
0.999995
0.9999996
1
1
1
1
1
1
1
1
1
1
1
0.9999998
0.9999998
0.9999999
1
1
1
1
1
1
1
1
1
1
1
1
1
1
1
1
1
1
1
1
0.9999999
0.9999999
1
1
1
0.9999999
0.9999997
0.9999998
1
1
1
1
1
1
1
1
1
1
1
0.9999997
0.9999996
0.9999997
0.9999999
1
1
1
1
1
1
1
1
1
1
1
1
1
1
1
1
1
1
1
1
1
1
1
1
1
1
0.9999997
0.9999933
0.9998729
0.9993188
0.9985844
0.9955023
0.9897792
0.9897851
0.9910505
0.9959968
0.9989488
0.9996247
0.9997521
0.9999005
0.9999729
0.9999326
0.9999066
0.999906
0.9999068
0.9999208
0.999966
0.999996
0.9999947
0.999972
0.9998656
0.9995302
0.9986684
0.9976891
0.9977893
0.9989702
0.9998621
0.9999961
1
1
1
1
1
1
1
0.9999999
0.9999998
0.9999995
0.9999978
0.9999725
0.9994811
0.9958256
0.9950308
0.9975012
0.9995745
0.9999829
0.9999999
1
1
0.9999999
0.9999994
0.999998
0.9999965
0.9999971
0.9999991
0.9999999
1
1
0.9999999
1
1
1
1
1
1
1
1
1
1
1
1
1
1
1
1
1
1
1
1
1
1
1
1
1
1
1
1
1
1
1
1
1
1
1
1
1
1
1
1
1
1
1
1
1
1
1
1
1
1
1
1
1
1
1
1
1
1
1
1
1
1
1
1
1
1
1
1
1
1
1
1
1
1
1
1
1
1
1
1
1
1
1
1
1
1
1
1
1
1
1
1
1
1
1
1
1
1
1
1
1
1
1
1
1
1
1
1
1
1
1
1
0.9999999
0.9999998
0.9999997
0.9999996
0.9999994
0.9999992
0.9999992
0.9999993
0.9999996
0.9999997
0.9999997
0.9999996
0.9999992
0.9999986
0.9999979
0.9999969
0.9999952
0.9999934
0.9999932
0.9999943
0.9999966
0.999998
0.9999982
0.9999981
0.9999976
0.9999963
0.9999927
0.9999854
0.9999788
0.9999781
0.9999801
0.9999864
0.9999929
0.999995
0.9999949
0.9999935
0.9999881
0.999977
0.9999626
0.9999526
0.9999505
0.9999529
0.9999676
0.9999862
0.9999916
0.9999915
0.9999897
0.9999842
0.9999744
0.9999652
0.9999629
0.9999635
0.9999678
0.9999787
0.9999901
0.9999925
0.9999918
0.9999841
0.9999294
0.9997452
0.9997253
0.9997907
0.9998914
0.9999652
0.9999876
0.9999884
0.9999857
0.9999722
0.9999408
0.9999103
0.9999028
0.9999058
0.9999469
0.9999915
0.9999989
0.9999988
0.9999986
0.9999984
0.9999984
0.9999983
0.9999983
0.9999988
0.9999998
1
1
1
1
1
1
1
0.9999999
0.9999999
0.9999996
0.9999994
0.9999992
0.9999983
0.9999937
0.9999845
0.9999791
0.9999854
0.9999949
0.9999974
0.9999972
0.9999955
0.99999
0.9999793
0.9999709
0.9999684
0.9999647
0.9999691
0.9999906
0.9999993
1
1
1
1
1
1
1
1
1
1
1
0.9999999
0.9999999
0.9999999
1
1
1
1
1
1
0.9999999
0.9999999
1
1
1
1
1
1
1
1
1
1
0.9999998
0.9999999
1
1
1
1
1
1
1
1
1
1
1
1
1
1
1
0.9999999
0.9999999
1
1
1
1
1
0.9999998
0.9999973
0.9999922
0.9999935
0.9999972
0.9999994
0.9999981
0.999957
0.9991983
0.9922996
0.9748121
0.976665
0.9908867
0.9989482
0.9998665
0.9992174
0.9948716
0.9827416
0.9794916
0.9860715
0.9967546
0.9998027
0.9999959
0.9999999
1
0.9999999
0.9999998
0.9999993
0.9999976
0.9999959
0.9999975
0.9999996
1
1
1
1
1
1
0.9999996
0.999999
0.9999991
0.9999997
1
1
1
1
1
0.9999997
0.9999952
0.999962
0.9998855
0.9998857
0.9999475
0.9999935
0.9999998
0.9999994
0.9999954
0.9999785
0.9999226
0.9999342
0.9999781
0.9999973
0.9999999
1
1
1
1
1
0.9999998
0.9999998
0.9999999
1
1
1
1
1
1
1
1
1
1
1
1
1
1
1
1
1
1
1
1
1
1
1
1
1
1
1
0.9999999
1
1
1
1
0.9999999
0.9999999
0.9999999
1
1
1
1
1
1
1
1
1
1
0.9999999
0.9999996
0.9999996
0.9999998
1
1
1
1
1
1
1
1
1
1
1
1
1
1
1
1
1
1
1
1
1
1
1
1
1
1
0.9999996
0.9999916
0.9997918
0.9957413
0.990916
0.9922024
0.9969542
0.9992646
0.9993495
0.9990411
0.996576
0.9965348
0.9986336
0.9998407
0.9999945
0.9999964
0.9999964
0.9999964
0.9999964
0.9999964
0.9999964
0.9999964
0.9999944
0.999913
0.9986714
0.9906165
0.9776371
0.9800516
0.9917033
0.9989723
0.9999735
0.9999999
1
1
1
1
1
0.9999998
0.9999994
0.9999977
0.99999
0.9999388
0.999616
0.9989666
0.9992151
0.9995892
0.9997839
0.9999233
0.999988
0.9999994
0.9999999
0.9999997
0.9999983
0.9999923
0.9999757
0.9999675
0.9999775
0.9999946
0.9999997
1
1
0.9999999
0.9999997
1
1
1
1
1
1
1
1
1
1
1
1
1
1
1
1
1
1
1
1
1
1
1
1
1
1
1
1
1
1
1
1
1
1
1
1
1
1
1
1
1
1
1
1
1
1
1
1
1
1
1
1
1
1
1
1
1
1
1
1
1
1
1
1
1
1
1
1
1
1
1
1
1
1
1
1
1
1
1
1
1
1
1
1
1
1
1
1
1
1
1
1
1
1
1
1
1
1
1
1
1
1
1
1
1
1
1
0.9999999
0.9999996
0.9999989
0.9999981
0.999998
0.999998
0.9999984
0.9999991
0.9999995
0.9999995
0.999999
0.9999965
0.9999879
0.9999694
0.9999467
0.9999352
0.9999352
0.9999464
0.9999726
0.9999878
0.9999895
0.9999884
0.9999796
0.9999433
0.9998515
0.9997111
0.9996063
0.9995953
0.9996388
0.9997362
0.9998116
0.9998538
0.9998789
0.9998786
0.99983
0.9996607
0.9993325
0.9988682
0.9985015
0.9984472
0.9985298
0.9987263
0.9989629
0.9992254
0.9994678
0.9995468
0.9995253
0.9993066
0.9985492
0.997054
0.995923
0.9958767
0.9963424
0.9975403
0.9987383
0.999201
0.9992257
0.9990954
0.9984073
0.9965358
0.9937748
0.992338
0.9924758
0.9942424
0.9975272
0.9991098
0.9992192
0.9991941
0.9990268
0.9984912
0.9973876
0.9956
0.9939555
0.9938746
0.9961764
0.99905
0.9996724
0.9996458
0.9993435
0.9965069
0.9902108
0.9899327
0.9923629
0.9949334
0.9964651
0.9978715
0.9985092
0.9985073
0.9980246
0.9954567
0.9885496
0.9866491
0.9932874
0.9990583
0.9999576
0.9999715
0.9999622
0.9999267
0.9998123
0.9995826
0.9994985
0.9996559
0.999928
0.999997
0.9999999
0.9999999
0.9999998
0.9999996
0.9999985
0.9999948
0.9999939
0.9999971
0.9999984
0.9999964
0.9999931
0.9999874
0.999943
0.9996706
0.9990274
0.9988239
0.9992108
0.9997686
0.9999673
0.9999707
0.9999519
0.9998888
0.9995045
0.9970671
0.9950296
0.9969765
0.9993631
0.999967
0.9999991
1
1
1
1
1
1
1
1
1
1
1
1
1
1
1
1
1
1
1
1
1
1
1
1
1
1
1
1
1
1
1
1
1
1
0.9999999
1
1
1
1
1
1
1
1
1
1
1
1
1
1
1
1
1
0.9999999
0.9999998
0.9999999
1
1
0.9999999
0.9999979
0.9999748
0.9999522
0.9999568
0.9999785
0.9999792
0.9998199
0.9960744
0.9552219
0.9339076
0.9521602
0.9893751
0.9994941
0.9997462
0.9967435
0.9460046
0.8672428
0.9019268
0.9740485
0.998051
0.9999715
0.9999988
0.9999982
0.9999944
0.999976
0.999907
0.9998505
0.9999195
0.9999858
0.9999991
1
1
1
1
1
1
1
0.9999999
0.9999993
0.9999991
0.9999996
0.9999999
1
1
1
1
0.9999996
0.9999898
0.9998611
0.9995782
0.9996849
0.9999183
0.9999945
0.9999961
0.9999784
0.9999158
0.9998663
0.9999007
0.9999525
0.9999896
0.9999992
1
1
1
1
1
1
0.9999995
0.9999994
0.9999997
0.9999999
1
1
1
1
1
1
0.9999999
0.9999998
0.9999998
0.9999998
0.9999999
1
1
1
1
1
1
1
1
1
0.9999999
0.9999999
1
1
1
1
0.9999999
1
1
1
1
1
1
0.9999999
0.9999999
1
1
1
1
1
1
1
1
1
1
0.9999999
0.9999996
0.9999997
0.9999999
1
1
1
1
1
1
1
1
1
1
1
1
1
1
1
1
1
1
1
1
1
1
1
1
1
0.9999995
0.9999898
0.9997795
0.9974591
0.9952535
0.9971311
0.999454
0.9996384
0.9986994
0.9928902
0.9909436
0.9952792
0.9992406
0.9999716
0.9999964
0.9999964
0.9999964
0.9999964
0.9999964
0.9999964
0.9999964
0.9999964
0.9999914
0.9998529
0.9965551
0.9521334
0.9228802
0.9403003
0.9809446
0.996636
0.9995727
0.9999783
0.9999998
1
1
1
0.9999999
0.9999988
0.9999833
0.9998954
0.9995985
0.9987441
0.9974275
0.99733
0.9984844
0.9997473
0.999991
0.9999995
0.9999995
0.9999994
0.9999984
0.9999927
0.9999619
0.9998577
0.9997928
0.9998481
0.9999585
0.9999972
1
1
0.9999998
0.9999989
0.9999988
1
1
1
1
1
1
1
1
1
1
1
1
1
1
1
1
1
1
1
1
1
1
1
1
1
1
1
1
1
1
1
1
1
1
1
1
1
1
1
1
1
1
1
1
1
1
1
1
1
1
1
1
1
1
1
1
1
1
1
1
1
1
1
1
1
1
1
1
1
1
1
1
1
1
1
1
1
1
1
1
1
1
1
1
1
1
1
1
1
1
1
1
1
1
1
1
1
1
1
1
1
1
1
1
1
1
1
1
0.9999999
0.9999997
0.9999991
0.999998
0.999997
0.999996
0.9999951
0.9999953
0.9999963
0.9999967
0.9999949
0.9999846
0.9999496
0.9998503
0.9995887
0.9991025
0.9988351
0.9988646
0.9991123
0.9995547
0.9997891
0.9998177
0.9998059
0.999672
0.9988956
0.9958703
0.9898759
0.9876862
0.9891054
0.9936482
0.9970864
0.9976981
0.9978706
0.9981545
0.998184
0.9969212
0.9895027
0.9719236
0.9636321
0.9674285
0.9800588
0.9859566
0.9852587
0.9849754
0.9869886
0.9918656
0.9924061
0.9859287
0.9613591
0.9266149
0.9199324
0.9378635
0.9574763
0.9523204
0.9428281
0.9478129
0.9685935
0.9826
0.9813493
0.9717293
0.939066
0.8851847
0.8664816
0.8698823
0.8855583
0.9230971
0.9663018
0.9749483
0.9694127
0.9568689
0.9443767
0.8996433
0.7904079
0.7607264
0.8168519
0.936637
0.9814225
0.978596
0.9750432
0.9756215
0.9763858
0.9684394
0.9077864
0.8222167
0.8612572
0.9623085
0.9936387
0.9936186
0.9932375
0.9917925
0.9739739
0.8907786
0.8832333
0.9502474
0.9735775
0.9342446
0.8464582
0.8392016
0.8621457
0.8574905
0.7942831
0.7733689
0.8427603
0.961098
0.9971659
0.999111
0.9989458
0.9987988
0.9982162
0.9951456
0.9882527
0.9892666
0.9962113
0.9994991
0.9999438
0.9999776
0.9999839
0.9999919
0.999993
0.9999829
0.9999512
0.999953
0.9999823
0.999997
0.9999956
0.9999857
0.9999591
0.9997476
0.997244
0.9887376
0.9867353
0.9921593
0.998072
0.9997848
0.9998389
0.9997872
0.9993125
0.9941572
0.9768702
0.9806828
0.9941146
0.9992887
0.9999455
0.9999978
0.9999997
0.9999998
0.9999998
0.9999998
0.9999997
0.9999992
0.9999951
0.9999768
0.9999711
0.9999875
0.9999988
1
1
1
1
0.9999999
0.9999999
1
1
1
1
1
1
1
0.9999999
0.9999998
0.9999999
1
1
1
1
1
1
1
1
1
1
0.9999998
0.9999997
0.9999998
1
1
1
1
1
1
1
1
1
1
0.9999999
0.9999998
0.9999991
0.9999985
0.9999992
0.9999999
1
1
1
0.999999
0.9999779
0.9997631
0.9990515
0.999083
0.9995181
0.998941
0.9879394
0.9374541
0.9339076
0.9513332
0.9892637
0.9995607
0.9991071
0.9787031
0.8747009
0.8672428
0.9131425
0.9843426
0.9993859
0.9999303
0.9998784
0.9995327
0.997916
0.9969434
0.9984051
0.9997215
0.999978
0.9999984
1
1
1
1
1
1
1
0.9999998
0.9999993
0.9999994
0.9999997
0.9999999
1
1
1
1
1
0.9999989
0.9999708
0.9995649
0.999015
0.9995277
0.9999261
0.9999836
0.999933
0.9997242
0.9996903
0.9998403
0.9999715
0.9999971
0.9999995
0.9999999
1
1
1
1
1
1
0.9999996
0.9999994
0.9999995
0.9999999
1
1
1
0.9999998
0.9999987
0.9999944
0.9999824
0.9999702
0.999981
0.9999956
0.9999997
1
1
1
1
1
1
1
1
1
0.9999999
0.9999999
0.9999999
1
1
1
1
1
1
1
1
1
1
0.9999999
1
1
1
1
1
1
1
0.9999999
0.9999999
1
1
1
0.9999999
0.9999998
0.9999998
0.9999999
1
1
1
1
1
1
1
1
1
1
1
1
1
1
1
1
1
1
1
1
1
1
1
1
0.9999995
0.9999862
0.9998726
0.9997608
0.9997749
0.9998865
0.9999153
0.9995716
0.9943967
0.9722575
0.9773276
0.992968
0.9993651
0.9999873
0.9999964
0.9999964
0.9999964
0.9999964
0.9999961
0.999993
0.9999827
0.9999505
0.9998081
0.9991325
0.9955484
0.9556598
0.9228714
0.9228653
0.9228714
0.9401387
0.9863114
0.9993302
0.9999951
1
1
1
0.9999999
0.9999979
0.99996
0.9992612
0.9910674
0.9710567
0.9727517
0.9860215
0.9969705
0.9998009
0.9999951
0.999997
0.9999938
0.9999815
0.9999443
0.999833
0.9995213
0.9990966
0.9991324
0.9996343
0.9999572
0.9999989
0.9999998
0.999999
0.9999945
0.9999926
0.999997
1
1
1
1
1
1
1
1
1
1
1
1
1
1
1
1
1
1
1
1
1
1
1
1
1
1
1
1
1
1
1
1
1
1
1
1
1
1
1
1
1
1
1
1
1
1
1
1
1
1
1
1
1
1
1
1
1
1
1
1
1
1
1
1
1
1
1
1
1
1
1
1
1
1
1
1
1
1
1
1
1
1
1
1
1
1
1
1
1
1
1
1
1
1
1
1
1
1
1
1
1
1
1
1
1
1
1
1
1
1
1
1
1
1
1
1
1
1
1
0.9999999
0.999999
0.9999915
0.999937
0.9996859
0.9991489
0.9987842
0.9986111
0.9983389
0.9982128
0.998376
0.9988838
0.9990266
0.9985883
0.9964392
0.9908097
0.9775011
0.9485634
0.9258019
0.927935
0.9489681
0.9777851
0.9845192
0.9841446
0.9852685
0.9854001
0.9750519
0.9125561
0.7401837
0.6862508
0.7558159
0.8924465
0.9254616
0.9204581
0.9222509
0.9333798
0.9403364
0.9373282
0.8726525
0.5590736
0.43758
0.5628265
0.7722685
0.8059761
0.7839806
0.7561674
0.7666701
0.8266493
0.8927433
0.860338
0.4787792
0.12302
0.1645214
0.5218639
0.7095547
0.6038319
0.4188828
0.4599074
0.6989218
0.8544229
0.7786181
0.3572259
0.08883802
0.09845
0.2316167
0.2994409
0.2967817
0.4344642
0.7616939
0.8037079
0.5565067
0.1609589
0.06280066
0.06122831
0.05088952
0.05245842
0.2689494
0.7963422
0.8622107
0.6086532
0.2287868
0.22483
0.2710223
0.2335413
0.1578176
0.3035117
0.7732894
0.9345815
0.907662
0.7115583
0.3455861
0.2239675
0.2885886
0.584576
0.7811612
0.8945002
0.9129068
0.6688412
0.1756318
0.09901968
0.1008031
0.09249764
0.0676339
0.1104682
0.5336537
0.9229762
0.982764
0.9828914
0.9574742
0.735945
0.5927863
0.7252271
0.9234907
0.9853972
0.9922179
0.9938398
0.994469
0.9958153
0.9985982
0.999894
0.9999581
0.9998292
0.9997899
0.9998976
0.9999612
0.9999798
0.9999811
0.9999665
0.9996541
0.994804
0.972197
0.9456487
0.9694212
0.992047
0.9976283
0.9976976
0.9971856
0.9933086
0.9785575
0.9554316
0.9556555
0.9775298
0.9962431
0.9997398
0.9999279
0.9999632
0.9999891
0.9999951
0.9999936
0.9999735
0.999798
0.9991001
0.9991627
0.9997371
0.9999749
0.9999983
0.9999996
0.9999996
0.9999989
0.9999967
0.999997
0.9999991
0.9999999
1
1
1
1
1
0.9999996
0.999999
0.9999993
0.9999998
1
1
1
1
1
1
1
1
0.9999999
0.9999997
0.999999
0.9999989
0.9999995
0.9999999
1
0.9999999
0.9999999
0.9999998
0.9999993
0.9999984
0.9999986
0.9999995
0.9999997
0.9999995
0.999998
0.9999924
0.999993
0.9999977
0.9999997
1
1
1
0.9999998
0.9999956
0.9998879
0.9980148
0.9888346
0.9879675
0.9953072
0.9955087
0.9823059
0.9700711
0.9784751
0.9932683
0.9993914
0.9997232
0.999051
0.983362
0.9355575
0.9420132
0.976807
0.99694
0.9972488
0.9903309
0.9678722
0.9570418
0.9778355
0.9961767
0.9996562
0.9999719
0.9999991
1
1
1
1
1
0.9999997
0.9999979
0.9999908
0.9999908
0.9999969
0.9999997
1
1
1
0.9999999
0.9999999
1
0.9999999
0.9999956
0.9998372
0.9990093
0.9989529
0.9995197
0.9999233
0.9998183
0.9992648
0.9991757
0.9996689
0.9999583
0.9999981
0.9999998
0.9999997
0.9999996
0.9999998
1
1
1
1
1
0.9999999
0.9999998
0.9999999
0.9999999
0.9999999
0.9999994
0.9999963
0.9999769
0.9998845
0.9996946
0.9997535
0.9999269
0.9999932
0.9999998
1
1
1
1
1
1
1
1
1
1
0.9999999
0.9999999
0.9999999
1
1
1
1
1
1
1
1
1
0.9999999
0.9999999
1
1
1
1
1
1
1
0.9999999
0.9999999
1
1
1
1
1
0.9999999
0.9999999
0.9999999
0.9999999
1
1
1
1
1
1
1
1
1
1
1
1
1
1
1
1
0.9999999
0.9999999
0.9999999
0.9999999
0.9999999
0.9999993
0.9999954
0.9999809
0.9999503
0.9999649
0.9999892
0.9999905
0.9999382
0.998764
0.9808657
0.9645658
0.9645658
0.9823785
0.9973959
0.9999132
0.9999964
0.9999964
0.9999964
0.9999964
0.9999871
0.9999008
0.999413
0.9977613
0.9942518
0.97178
0.9238117
0.9228699
0.9228653
0.9228597
0.9380676
0.9818379
0.99857
0.9999787
1
1
1
0.9999999
0.9999984
0.9999842
0.9998733
0.9988297
0.9860467
0.9277952
0.9195179
0.9195179
0.9373448
0.9851307
0.9991985
0.9999776
0.9999055
0.9994812
0.9979302
0.993648
0.9900265
0.991755
0.997287
0.9997642
0.9999954
0.9999976
0.9999922
0.9999726
0.9999688
0.9999856
0.9999984
1
1
1
1
1
1
1
1
1
1
1
1
1
1
1
1
1
1
1
1
1
1
1
1
1
1
1
1
1
1
1
1
1
1
1
1
1
1
1
1
1
1
1
1
1
1
1
1
1
1
1
1
1
1
1
1
1
1
1
1
1
1
1
1
1
1
1
1
1
1
1
1
1
1
1
1
1
1
1
1
1
1
1
1
1
1
1
1
1
1
1
1
1
1
1
1
1
1
1
1
1
1
1
1
1
1
1
1
1
1
1
1
1
1
1
1
1
1
1
1
1
1
1
0.9999998
0.999999
0.9999959
0.9999909
0.9999876
0.9999853
0.9999797
0.9999586
0.9999135
0.9998368
0.9994954
0.9971153
0.9834939
0.9508447
0.9372956
0.937107
0.9320788
0.9197735
0.9217807
0.9419712
0.9587277
0.9506645
0.9071948
0.8295565
0.7145788
0.5044429
0.3485082
0.3664401
0.5411565
0.7636283
0.7696879
0.7277088
0.7380998
0.7616282
0.6250247
0.2275282
0.03459732
0.02751292
0.08163345
0.3414408
0.4465795
0.4249781
0.4632398
0.5273423
0.4554346
0.2135146
0.0444871
0.01664364
0.01775095
0.025201
0.05018351
0.1173824
0.2090158
0.2241305
0.2008638
0.135095
0.06223774
0.02231918
0.01355296
0.01227726
0.01204903
0.01287745
0.02061882
0.0433052
0.05714372
0.05293376
0.03605943
0.01564866
0.01071305
0.01144551
0.01108645
0.01162244
0.01500149
0.0201221
0.01937774
0.01889077
0.01954267
0.02038565
0.01628797
0.02249317
0.0374473
0.03683014
0.03441717
0.02402697
0.02202701
0.02042576
0.02108036
0.02037014
0.01534624
0.0144484
0.01314489
0.01314489
0.02190472
0.09317719
0.1319231
0.1200079
0.09341835
0.07215903
0.08759895
0.07905833
0.06554701
0.1222436
0.2087182
0.5061768
0.736869
0.718919
0.5450512
0.2160763
0.03646527
0.01534901
0.01534901
0.01799008
0.03782493
0.08126564
0.2021923
0.325193
0.2987201
0.1500379
0.07457001
0.1202258
0.4683866
0.7783443
0.7815039
0.8091027
0.9041426
0.9794825
0.9984246
0.9998163
0.9995039
0.9992325
0.9995372
0.9998286
0.9999198
0.9999748
0.9999754
0.9998173
0.9965797
0.9662216
0.9344511
0.9406504
0.9700366
0.9646772
0.9378187
0.9060193
0.901408
0.868919
0.7814329
0.7763971
0.8454767
0.9420068
0.9860798
0.9964765
0.9989715
0.9997885
0.999876
0.9997241
0.9979573
0.9905183
0.990985
0.996946
0.9995957
0.9999636
0.9999923
0.9999926
0.9999807
0.999933
0.9999383
0.9999808
0.9999981
0.9999999
1
1
1
1
0.9999996
0.9999975
0.9999959
0.9999978
0.9999996
1
1
1
1
1
0.9999999
0.9999999
0.9999997
0.9999996
0.9999984
0.999996
0.9999963
0.9999982
0.999999
0.9999988
0.9999972
0.9999907
0.9999618
0.999941
0.9999643
0.9999923
0.9999987
0.9999983
0.9999937
0.9999679
0.9999603
0.9999758
0.9999957
0.9999998
1
1
0.9999999
0.9999995
0.9999897
0.9997952
0.9974655
0.9830328
0.9690167
0.9697625
0.9868796
0.9967331
0.9967935
0.9963495
0.991165
0.9878934
0.9885791
0.9852988
0.9675511
0.9760743
0.9894765
0.996646
0.9972166
0.9934382
0.9284101
0.755581
0.7716506
0.9181634
0.9891967
0.9994686
0.9999919
0.9999997
0.9999998
0.9999998
0.9999997
0.9999988
0.9999932
0.9999568
0.9998428
0.9998712
0.9999609
0.9999946
0.9999994
1
1
1
0.9999999
0.9999995
0.9999993
0.9999996
0.9999993
0.9999879
0.9996186
0.9989157
0.9990982
0.9997557
0.9996569
0.9984829
0.997834
0.9990502
0.9998634
0.9999939
0.9999985
0.999996
0.9999946
0.9999969
0.9999995
1
1
1
1
1
1
1
1
0.9999996
0.9999971
0.9999766
0.9998202
0.9989791
0.9982649
0.9990763
0.9998285
0.9999915
0.9999999
1
1
1
1
1
1
1
1
1
1
1
1
1
1
1
1
1
1
1
1
1
1
0.9999998
0.9999997
0.9999998
1
1
1
1
1
1
1
1
1
1
1
1
1
1
1
1
1
0.9999999
0.9999999
1
1
1
1
1
1
1
1
1
1
1
1
1
1
0.9999999
0.9999995
0.9999995
0.9999999
0.9999998
0.999999
0.9999868
0.9999007
0.9998205
0.9998971
0.9999834
0.9999949
0.9999899
0.9998458
0.9968921
0.9715497
0.9645658
0.9645658
0.974351
0.9944961
0.9997473
0.9999959
0.9999964
0.9999964
0.9999888
0.9999016
0.9991296
0.9943273
0.9616247
0.9229103
0.9228999
0.9228894
0.9228786
0.9551803
0.9904695
0.9993308
0.9999888
0.9999998
0.9999999
1
1
1
0.9999995
0.9999915
0.9998539