/*--------------------------------*- C++ -*----------------------------------*\
| =========                 |                                                 |
| \\      /  F ield         | foam-extend: Open Source CFD                    |
|  \\    /   O peration     | Version:     3.1                                |
|   \\  /    A nd           | Web:         http://www.extend-project.de       |
|    \\/     M anipulation  |                                                 |
\*---------------------------------------------------------------------------*/
FoamFile
{
    version     2.0;
    format      ascii;
    class       volScalarField;
    location    "14.5";
    object      k;
}
// * * * * * * * * * * * * * * * * * * * * * * * * * * * * * * * * * * * * * //

dimensions      [0 2 -2 0 0 0 0];

internalField   nonuniform List<scalar> 
119952
(
0.07982618
0.07589019
0.07479917
0.07298831
0.07101989
0.06936259
0.06861939
0.0683312
0.06827042
0.06835287
0.0685182
0.06873638
0.06899137
0.06928046
0.06960988
0.06998512
0.07042059
0.07093242
0.07158606
0.07267545
0.07581148
0.07404153
0.07446436
0.07695978
0.07409263
0.07253193
0.07117404
0.06981947
0.0671655
0.02340776
0.09893054
0.09637213
0.09408511
0.09274019
0.0922856
0.09251769
0.09317087
0.09404299
0.09498818
0.0959711
0.09136568
0.0914542
0.0939268
0.09738868
0.1010892
0.1045916
0.1077498
0.1105243
0.1128788
0.1236037
0.1247366
0.1254215
0.125684
0.1257386
0.1257813
0.1258951
0.1261009
0.1263826
0.1266287
0.1272746
0.1276389
0.1277565
0.1277624
0.1277132
0.1276359
0.1275325
0.1273561
0.1272734
0.129578
0.1294009
0.1284057
0.1281585
0.1280048
0.1275549
0.126656
0.1256079
0.1245612
0.1235472
0.1225759
0.1216513
0.1207707
0.1199306
0.1191296
0.1183687
0.1176512
0.1169741
0.1163409
0.115733
0.1153358
0.1150619
0.1144424
0.1142316
0.1149529
0.115312
0.1154296
0.1158453
0.116238
0.1140652
0.1120993
0.1105005
0.1089929
0.1076984
0.1065418
0.1054978
0.1045529
0.1036835
0.1028592
0.1020508
0.1012381
0.1004105
0.09956474
0.09870187
0.09782502
0.09693939
0.09605232
0.09517722
0.09436017
0.09361786
0.0929821
0.09249794
0.09222042
0.09215252
0.09227157
0.09252781
0.09285764
0.09319015
0.09345244
0.0935701
0.09344352
0.09309903
0.09260742
0.09198303
0.09125304
0.09044716
0.08959484
0.08872804
0.08788196
0.0871034
0.08654328
0.08666669
0.08790434
0.09018503
0.09291878
0.0953047
0.09663911
0.09659858
0.09543734
0.09376984
0.09171015
0.08954727
0.08737675
0.08532466
0.08341869
0.08165501
0.07999508
0.07840897
0.07688799
0.07543994
0.07409716
0.07287086
0.07173746
0.07069378
0.06973235
0.06884589
0.06802572
0.06726214
0.06654469
0.06586255
0.06520487
0.06456088
0.06392005
0.06327226
0.06260763
0.06191875
0.06120845
0.06047859
0.05973053
0.05896765
0.05819494
0.05741858
0.05664595
0.05588556
0.05514661
0.05443896
0.05377278
0.05315808
0.05260377
0.05211792
0.05170699
0.0513764
0.05112965
0.05097733
0.05093478
0.05101339
0.05122098
0.05155935
0.05199982
0.05186686
0.05125712
0.05115577
0.05139919
0.0518451
0.05239958
0.05300029
0.0535894
0.05406075
0.05431215
0.05428387
0.05396433
0.05332916
0.05227745
0.05076236
0.04879397
0.04633251
0.04317375
0.04277223
0.0576508
0.06474926
0.05944589
0.05050072
0.04121442
0.03376261
0.02930244
0.02691419
0.02542982
0.02422868
0.02320167
0.0224606
0.02214236
0.02232872
0.02303399
0.02421937
0.02588716
0.02841601
0.03138392
0.03449
0.03751854
0.04044026
0.04330339
0.04617962
0.04906932
0.05193817
0.05491517
0.05775011
0.06028465
0.06241518
0.06404405
0.0650959
0.06553594
0.0653839
0.06471329
0.06361955
0.06218047
0.06046441
0.05853526
0.05645127
0.05426764
0.05203086
0.04978596
0.04758031
0.04545912
0.04346129
0.0416135
0.03992723
0.03840059
0.0370223
0.03577795
0.03786876
0.03675817
0.0356463
0.03452879
0.03348436
0.03251914
0.03164339
0.03086693
0.03018488
0.02959099
0.02907906
0.02864086
0.02826739
0.02795263
0.02769429
0.02748745
0.02732686
0.02720774
0.02712513
0.02707355
0.02704702
0.02703853
0.02703957
0.02704297
0.02704288
0.02703361
0.02700932
0.02696453
0.0268931
0.02678895
0.0266484
0.026471
0.02626021
0.02602385
0.02577419
0.02552764
0.02530379
0.02512404
0.02500996
0.02498176
0.02505725
0.02525202
0.02557517
0.02602648
0.02660438
0.02730075
0.02808548
0.02894774
0.02988043
0.03087556
0.03192368
0.03301522
0.03414237
0.03532764
0.03655485
0.0376026
0.03866525
0.03977666
0.04094893
0.04221474
0.0435738
0.04500651
0.04648304
0.0479711
0.04944272
0.05087637
0.0522558
0.05356854
0.05480434
0.05595295
0.05700391
0.05794694
0.05877211
0.05946986
0.0600312
0.06044828
0.06071522
0.06082876
0.06078851
0.06059744
0.06026316
0.05979972
0.05922962
0.05858344
0.05789379
0.05718372
0.05645793
0.05570478
0.05490602
0.05404565
0.05311384
0.05210798
0.05103251
0.04989557
0.04870365
0.04746015
0.0461692
0.04484054
0.04349392
0.04215502
0.04085061
0.03960754
0.03844973
0.03739417
0.03644835
0.03561014
0.03486911
0.03420746
0.03360143
0.03302667
0.03246897
0.03192246
0.03138768
0.03086933
0.03037196
0.02989819
0.02944804
0.0290197
0.02861101
0.02822006
0.02784481
0.0274845
0.02713881
0.0268072
0.02648904
0.02618362
0.02588911
0.0256044
0.02532839
0.02505945
0.02479598
0.02453754
0.02428202
0.02402737
0.02376597
0.02348282
0.02313569
0.0227152
0.02277468
0.1003802
0.09457776
0.09920563
0.1063048
0.1130199
0.1186612
0.1232487
0.1269738
0.1301569
0.132485
0.140742
0.1506359
0.1601579
0.1684105
0.1752182
0.180661
0.1849443
0.1882685
0.212967
0.2130038
0.2128493
0.2122867
0.2115743
0.2108692
0.2102477
0.2097145
0.20924
0.2086823
0.2083604
0.2079091
0.2070835
0.2060741
0.2049958
0.2038981
0.2027986
0.2017077
0.2006143
0.1997394
0.1989668
0.1979279
0.1967823
0.1956409
0.1945153
0.1933998
0.1922827
0.1911483
0.190009
0.1889245
0.1878019
0.186722
0.18571
0.1847543
0.1838493
0.1829802
0.1821249
0.1812776
0.1903896
0.1892068
0.1880044
0.1868368
0.1857122
0.1846395
0.1836282
0.1826756
0.1817747
0.1808796
0.1799647
0.1790513
0.1781231
0.1771621
0.1761828
0.1752024
0.1742551
0.1734325
0.1728991
0.1724022
0.171497
0.1705366
0.1697043
0.1687882
0.1676499
0.1663626
0.1650065
0.1636286
0.1622572
0.1609087
0.1595843
0.1582767
0.15698
0.1556892
0.1544195
0.1531995
0.1520784
0.1510534
0.1501541
0.1493928
0.1486813
0.1480588
0.1477169
0.147581
0.1474206
0.1471527
0.1467599
0.1458696
0.1444617
0.1431968
0.1421358
0.1411091
0.1400493
0.1389493
0.1377998
0.1366012
0.1353494
0.134028
0.1326141
0.1310889
0.1294464
0.1276949
0.1258548
0.1239568
0.1220368
0.1201369
0.1183083
0.1166074
0.115096
0.1138391
0.1129351
0.1124578
0.1124076
0.1127507
0.1134188
0.1143142
0.1153183
0.1163068
0.117168
0.1178174
0.1182016
0.1183908
0.118402
0.1182298
0.1178615
0.1172674
0.1163984
0.1152034
0.113666
0.1118834
0.1100963
0.1085868
0.1075557
0.1071108
0.1072104
0.1077413
0.1085721
0.1095318
0.1104339
0.1111079
0.1114471
0.1114091
0.1109971
0.1102535
0.1092429
0.1080371
0.1067054
0.1053036
0.1038664
0.1023966
0.1009211
0.09948713
0.09813829
0.09689123
0.09574748
0.09470283
0.09375025
0.09288035
0.09208181
0.09134211
0.09064813
0.08998642
0.08934341
0.08870611
0.08806271
0.08740255
0.08671614
0.08599537
0.08523378
0.08442679
0.08357199
0.08266978
0.08172275
0.08073602
0.07971692
0.07867672
0.07762914
0.07659153
0.07558168
0.07462162
0.07373366
0.07294479
0.07228271
0.07177662
0.07146032
0.07136242
0.07152414
0.07199272
0.07139664
0.07130865
0.07190746
0.07303851
0.07455192
0.07631334
0.07819644
0.08008195
0.08185756
0.08341581
0.08466561
0.08552688
0.08592639
0.08586631
0.08536026
0.0842687
0.08211289
0.07764847
0.07111629
0.06651984
0.065825
0.06863645
0.07275139
0.07584254
0.07579118
0.0722958
0.06734195
0.06266151
0.05898972
0.05630199
0.05458232
0.05406866
0.05498673
0.05736717
0.06099945
0.06554086
0.07059974
0.07567604
0.08040027
0.08460445
0.0883262
0.09175542
0.09512236
0.09859248
0.1022311
0.1060129
0.1098523
0.1135302
0.116828
0.1195236
0.1214094
0.1223269
0.1221994
0.1210503
0.1190884
0.1164665
0.1133019
0.1097154
0.1058006
0.1016498
0.09732337
0.09290399
0.08848281
0.08414417
0.07996347
0.07600061
0.07229231
0.06885132
0.06567067
0.06272209
0.06304079
0.06058326
0.05830182
0.05617654
0.05419207
0.05234479
0.05063471
0.04906245
0.04763064
0.04634356
0.04518752
0.04414829
0.04321395
0.04237445
0.04162127
0.04094796
0.0403497
0.03982269
0.03936364
0.03896932
0.03863597
0.03835911
0.0381332
0.03795184
0.03780788
0.0376935
0.03760041
0.03751992
0.03744378
0.03736473
0.03727711
0.03717764
0.03706631
0.03694716
0.03682878
0.03672442
0.03665166
0.03663157
0.03668741
0.03684299
0.03712086
0.03754022
0.03811591
0.03885691
0.03976455
0.04083004
0.04203912
0.04337653
0.04482221
0.04635146
0.04793929
0.04956022
0.05119163
0.05282547
0.05443491
0.05598406
0.05747826
0.05892758
0.06033619
0.06170664
0.06305547
0.06439396
0.06571751
0.06702333
0.06830812
0.06956656
0.07079057
0.07196972
0.07309194
0.0741439
0.07511152
0.0759806
0.07673718
0.07736767
0.0778592
0.07820039
0.07838263
0.07840045
0.07825178
0.07793859
0.07746761
0.07685231
0.0761161
0.07529345
0.07442246
0.07352909
0.07261816
0.07167834
0.07069303
0.0696472
0.06852995
0.06733668
0.06607029
0.06473678
0.06334035
0.0618839
0.06037311
0.05882036
0.05724571
0.0556747
0.05413457
0.05264999
0.05123928
0.04991219
0.0486697
0.04750519
0.04640563
0.04535331
0.04432861
0.04331289
0.04229083
0.04125434
0.04020888
0.03916249
0.03812278
0.03709979
0.03610464
0.0351484
0.03424081
0.03338874
0.03259532
0.03186036
0.03118209
0.03055733
0.02998133
0.02944732
0.02894841
0.02847813
0.02803688
0.02762202
0.0272316
0.02686154
0.02651028
0.02617134
0.02584229
0.02551574
0.02520652
0.02495075
0.02475419
0.057147
0.06173784
0.06708535
0.07291493
0.07927578
0.08629901
0.09421772
0.1034322
0.1146693
0.1281792
0.1887093
0.2056422
0.2227287
0.2394507
0.2552943
0.2693278
0.2829525
0.2989398
0.3254386
0.3914
0.402616
0.4115442
0.4189624
0.42479
0.4293862
0.4327975
0.4350384
0.4360821
0.4363422
0.4359276
0.436009
0.4357447
0.4346165
0.4325469
0.4296562
0.4261051
0.4220541
0.4179754
0.4116431
0.4057652
0.4002983
0.3951594
0.3902887
0.3855899
0.3809594
0.3763228
0.371656
0.3670069
0.362204
0.3573021
0.3523881
0.3474961
0.3426799
0.3379723
0.3333678
0.3288345
0.3371915
0.3328637
0.3284553
0.3240691
0.3197553
0.315513
0.3113421
0.3072377
0.3032179
0.2992896
0.2954356
0.2917041
0.2881306
0.2846883
0.2813507
0.2780953
0.2748961
0.271741
0.2686384
0.2655705
0.2625574
0.2596775
0.2569543
0.2543799
0.2519365
0.2495905
0.2473002
0.2450231
0.2427177
0.2403954
0.2380862
0.2358088
0.2336024
0.2315123
0.2295637
0.2277568
0.2260522
0.2243599
0.2225922
0.2208021
0.2189861
0.2171526
0.2153288
0.2135591
0.211892
0.2103577
0.2089551
0.20765
0.2064061
0.2051849
0.2039455
0.2026697
0.2013762
0.2001005
0.1988973
0.1978086
0.1968646
0.1960145
0.1951207
0.1941521
0.1931355
0.192034
0.1907985
0.1894035
0.1879004
0.1863569
0.184827
0.183342
0.181904
0.1804932
0.1790871
0.1776735
0.1762666
0.1749188
0.1736753
0.17258
0.1716471
0.1708667
0.1702014
0.1696206
0.1691419
0.1687496
0.1683337
0.167806
0.1671693
0.1662718
0.1651732
0.1640402
0.1629332
0.1618181
0.1606501
0.1594273
0.1581571
0.1568456
0.155491
0.1540743
0.1525589
0.1509033
0.1490771
0.1470718
0.1449025
0.1426048
0.1402282
0.1378342
0.1354942
0.1332879
0.1313064
0.1296466
0.1284285
0.1277745
0.1277098
0.1282088
0.1291914
0.1305244
0.1320341
0.1335322
0.1348521
0.1358779
0.1365483
0.1368866
0.1369607
0.1367715
0.1363086
0.1355404
0.1344173
0.1328885
0.1309292
0.1285915
0.1260251
0.123409
0.1208955
0.1186213
0.1166977
0.115191
0.1141147
0.1134362
0.1130685
0.1128838
0.1127439
0.1125263
0.1121418
0.1115473
0.110745
0.1097687
0.1086702
0.1075074
0.1063288
0.1051694
0.104054
0.1029949
0.1019921
0.1010555
0.1001926
0.09940357
0.09868447
0.09803064
0.09743654
0.09689501
0.09639761
0.09593489
0.09549631
0.09507049
0.09464621
0.09421252
0.09375866
0.09327388
0.09274767
0.09217029
0.09153347
0.09083044
0.09005639
0.08920901
0.08828876
0.08729905
0.08624924
0.08515349
0.08403165
0.08290661
0.0818118
0.08077852
0.07985872
0.07908461
0.07853431
0.07822567
0.07827265
0.07866834
0.0795063
0.08081537
0.08262313
0.0848942
0.08756009
0.09051282
0.09361367
0.09671259
0.09966788
0.10236
0.1046954
0.1065985
0.1079961
0.1088459
0.109137
0.1086523
0.1069485
0.103726
0.0995645
0.0952757
0.09143915
0.08847026
0.08670968
0.08635527
0.08733563
0.0891954
0.09126159
0.0924369
0.09196894
0.09012655
0.08780225
0.08613907
0.08594325
0.0874469
0.09048553
0.0946258
0.09930007
0.1039385
0.1081475
0.1117584
0.1147867
0.1174369
0.1200094
0.1227783
0.1258907
0.1293653
0.1331323
0.1369788
0.1406495
0.1438668
0.146355
0.147884
0.1483202
0.1476634
0.1460431
0.1435731
0.1403625
0.1365411
0.132246
0.1276093
0.122755
0.1177431
0.1126389
0.1075329
0.1025398
0.09774823
0.09321753
0.0889738
0.08502862
0.08137433
0.07791159
0.07472011
0.07176707
0.06901703
0.06645461
0.0640724
0.06186254
0.05981772
0.05793199
0.05620162
0.05462425
0.0531911
0.05189252
0.05071862
0.04965991
0.04870755
0.04785354
0.04709086
0.04641351
0.04581627
0.04529434
0.04484295
0.0444572
0.04413176
0.04386067
0.04363742
0.04345505
0.04330634
0.04318416
0.04308184
0.04299373
0.04291583
0.04284645
0.04278687
0.04274187
0.04272017
0.04273453
0.04280155
0.04294102
0.04317482
0.04352547
0.04401424
0.04465925
0.04547317
0.04646155
0.04762117
0.04894101
0.05040419
0.05198804
0.05366462
0.0554035
0.0571727
0.05894285
0.06068977
0.06238187
0.06400268
0.06555188
0.06702711
0.06842441
0.069744
0.07098991
0.07218442
0.07333775
0.07445647
0.0755455
0.07660643
0.07763666
0.07862953
0.07957566
0.08046405
0.08128294
0.08201987
0.08266185
0.08319574
0.08360854
0.0838878
0.08402329
0.08400827
0.08383898
0.08351567
0.08304265
0.08242893
0.08169251
0.08086509
0.07998751
0.07909245
0.07819112
0.07727426
0.07632469
0.07532599
0.07426424
0.07312941
0.0719196
0.07063878
0.06929126
0.06788094
0.0664144
0.06490462
0.06337201
0.06184286
0.06034557
0.05890494
0.05753709
0.05624703
0.0550301
0.05387478
0.05276423
0.05167901
0.05060031
0.04951227
0.04840347
0.04726774
0.04610382
0.04492325
0.0437402
0.04256677
0.04141602
0.04030042
0.03923053
0.03821411
0.03725572
0.03635689
0.03551694
0.03473397
0.03400456
0.03332388
0.03268617
0.03208633
0.03151979
0.03098805
0.03048824
0.03001854
0.02957492
0.0291553
0.0287548
0.02837312
0.02800863
0.02766765
0.02736609
0.04284579
0.04853156
0.05361552
0.0823935
0.111624
0.1479316
0.1723777
0.1968849
0.2200538
0.2416546
0.2605091
0.2767962
0.292673
0.3089081
0.3253207
0.3419513
0.3587647
0.3755226
0.3917901
0.4075676
0.4228256
0.4373557
0.4513407
0.4648961
0.4779494
0.4904485
0.5023152
0.513543
0.5241927
0.5338984
0.5433375
0.5762048
0.5793252
0.5810493
0.5812271
0.5801111
0.5778609
0.5745709
0.5703283
0.5653039
0.5597647
0.5537683
0.5474425
0.5409019
0.5342138
0.5274108
0.5205112
0.5135281
0.5064893
0.4994104
0.4922944
0.4852326
0.478241
0.4713527
0.4645621
0.4577712
0.4509969
0.4441947
0.4373216
0.4303609
0.4233352
0.4163234
0.4094129
0.4026761
0.3961816
0.389928
0.3839352
0.3780793
0.3719407
0.3660296
0.3603333
0.3548183
0.3494759
0.3443089
0.3393137
0.3344753
0.3297753
0.3252071
0.3207837
0.3165382
0.3124843
0.3086118
0.3048979
0.3013087
0.2978001
0.2943309
0.2908774
0.2874436
0.2840671
0.280807
0.2777163
0.2748284
0.2721458
0.2696326
0.2672234
0.2648451
0.2624377
0.2599741
0.2574619
0.2549369
0.2524688
0.2501353
0.248004
0.2460874
0.2443528
0.2427033
0.2410619
0.2393678
0.237581
0.2356973
0.2337611
0.2318518
0.2300599
0.2284533
0.2270504
0.2258142
0.2246779
0.223574
0.2224397
0.22124
0.2199892
0.2187376
0.2175481
0.2164652
0.2155131
0.2146906
0.2139297
0.2131342
0.212239
0.2111988
0.209998
0.2086133
0.2070972
0.2055295
0.2039876
0.2025206
0.201132
0.1997878
0.1984418
0.1970623
0.1956588
0.1943014
0.193086
0.1920855
0.191319
0.1907478
0.1902882
0.1898452
0.1893765
0.1888756
0.1883209
0.1876752
0.1869509
0.1861288
0.1851807
0.1841713
0.1831568
0.1820941
0.1809223
0.1796354
0.1782634
0.1768451
0.1754076
0.1739448
0.172411
0.1707382
0.1688644
0.1667549
0.1644099
0.1618619
0.1591691
0.1564098
0.1536779
0.1510808
0.1487414
0.1468006
0.1454425
0.1448398
0.1450491
0.1460482
0.1477225
0.1498647
0.1521943
0.1544103
0.1562614
0.1575919
0.1583498
0.1585919
0.1584598
0.1579841
0.1571759
0.1560147
0.1544529
0.1524377
0.1499398
0.1469893
0.1436912
0.1401881
0.1366216
0.1331295
0.1298395
0.1268546
0.1242414
0.1220256
0.1201847
0.1186522
0.1173323
0.116121
0.1149267
0.1136873
0.1123764
0.1110011
0.109592
0.1081912
0.1068404
0.1055735
0.104413
0.1033683
0.1024362
0.1016055
0.1008667
0.1002157
0.09964243
0.09913628
0.09868819
0.09828985
0.0979327
0.09760782
0.09730583
0.09701637
0.09672914
0.09643482
0.09612426
0.09578771
0.09541495
0.0949955
0.09451967
0.09397822
0.09336313
0.09266711
0.09188482
0.09101439
0.09005882
0.08902631
0.08793225
0.08679925
0.08566129
0.08455931
0.08355009
0.08269418
0.08207312
0.08176632
0.08187401
0.08248636
0.08368161
0.08551338
0.08800383
0.09112496
0.09478868
0.09884524
0.1030995
0.1073423
0.1113888
0.115095
0.1183494
0.1210567
0.1231249
0.1244567
0.1250189
0.1246617
0.1231804
0.1204767
0.116859
0.1127736
0.1085208
0.1043146
0.1003624
0.09692555
0.09444364
0.09354945
0.09462426
0.09693991
0.09955538
0.1014022
0.1019987
0.1018273
0.1018191
0.102714
0.1048509
0.108096
0.1120497
0.1162196
0.1201701
0.1236308
0.1265246
0.1288991
0.1309885
0.1331324
0.1355696
0.1383933
0.1415912
0.1450626
0.1485997
0.1519344
0.154769
0.1568199
0.1578759
0.1579518
0.1570741
0.155292
0.152676
0.1493199
0.1453375
0.140857
0.1360148
0.1309458
0.1257344
0.1204365
0.1151724
0.1100575
0.1051736
0.1005653
0.09625234
0.09222973
0.08847689
0.08497815
0.08171415
0.07866443
0.07581311
0.07314702
0.07065414
0.06832476
0.0661513
0.06412662
0.06225333
0.06052797
0.05894561
0.0575003
0.05618533
0.05499343
0.05391704
0.05294878
0.05208172
0.05130962
0.05062683
0.05002812
0.04950846
0.04906272
0.0486854
0.04837056
0.04811181
0.0479024
0.04773548
0.0476045
0.04750372
0.04742876
0.0473772
0.04734912
0.04734764
0.04737919
0.04745369
0.04758453
0.04778817
0.04808352
0.04849083
0.04903014
0.0497195
0.05057285
0.05159813
0.05279563
0.05415719
0.05566678
0.05730145
0.05903209
0.06082522
0.06264521
0.06445675
0.0662291
0.06793506
0.06955328
0.07107068
0.07248101
0.07378308
0.07498045
0.07607968
0.07709304
0.07804112
0.07893723
0.07979291
0.08061615
0.08141
0.08217248
0.08289813
0.08357901
0.08420662
0.08477174
0.08526368
0.08567101
0.08598227
0.08618556
0.08626992
0.08622768
0.08605344
0.08574627
0.08530876
0.08474578
0.08406935
0.08330481
0.08248736
0.08165138
0.08081759
0.0799838
0.07913374
0.07824865
0.07731144
0.07630764
0.07522848
0.07407275
0.07284405
0.07154871
0.07019589
0.0687999
0.06738185
0.06596934
0.06459278
0.06327714
0.06203607
0.06086863
0.05976226
0.05869753
0.05765109
0.05660043
0.05552826
0.05442339
0.05328029
0.05209905
0.05088514
0.0496486
0.04840929
0.04718206
0.04598035
0.04481535
0.0436948
0.04262317
0.04160303
0.04063569
0.03972098
0.03885758
0.0380435
0.03727618
0.03655253
0.03586936
0.0352235
0.03461412
0.03403992
0.03349804
0.03298525
0.03249792
0.0320328
0.03158654
0.03115828
0.03074739
0.03037961
0.02088223
0.0233389
0.0257215
0.0343749
0.04590958
0.06545367
0.07932241
0.09414244
0.1101843
0.1265555
0.1435707
0.1623651
0.1825727
0.2033664
0.2251473
0.249734
0.2875153
0.3053185
0.3234132
0.3417793
0.3606126
0.3791134
0.3967589
0.4136619
0.430187
0.4464853
0.4622383
0.477685
0.4928297
0.5076083
0.5219416
0.535682
0.5486926
0.5607721
0.5718037
0.581716
0.5905021
0.5981871
0.6046667
0.6102986
0.6143787
0.6158819
0.6124207
0.6086666
0.6039437
0.5981097
0.5912865
0.5836434
0.5753618
0.5666206
0.557596
0.5484861
0.5394246
0.5305139
0.521844
0.5134769
0.5054387
0.497715
0.4902614
0.4830211
0.4759478
0.4690071
0.46222
0.4556398
0.4493337
0.4433548
0.4377018
0.4322295
0.4267013
0.421059
0.4152466
0.4092665
0.4031927
0.3971467
0.3912536
0.3856205
0.3802889
0.3752543
0.3704243
0.3656872
0.361031
0.3564483
0.3519173
0.3474435
0.3430563
0.338777
0.3346018
0.3305139
0.3265143
0.3226345
0.318919
0.3153939
0.3120586
0.3088892
0.305839
0.3028441
0.2998389
0.2967807
0.2936704
0.2905543
0.2875161
0.284655
0.2820458
0.2797071
0.2775888
0.2755988
0.2736332
0.2716029
0.2694525
0.2671774
0.2648274
0.2625008
0.2603199
0.2583916
0.2567595
0.2553796
0.2541372
0.252906
0.2515845
0.2501112
0.248478
0.2467398
0.2450082
0.2434192
0.24208
0.2410225
0.2401958
0.239501
0.2388356
0.2381096
0.2372631
0.2363093
0.2353242
0.2343986
0.2335996
0.2329601
0.2324789
0.2320923
0.2316767
0.2311004
0.2303006
0.2292809
0.2280498
0.2266745
0.2252485
0.2238704
0.2226072
0.2214618
0.2203795
0.2192825
0.2181145
0.2168845
0.2156989
0.2147417
0.2141219
0.2138254
0.213735
0.2136513
0.2133916
0.2128731
0.2121416
0.2113009
0.2103772
0.2094224
0.2084541
0.2074698
0.2064447
0.2053511
0.2041318
0.2027336
0.2011541
0.1994482
0.1977039
0.195999
0.1943537
0.1927148
0.1909817
0.1890539
0.1868664
0.184403
0.1816929
0.1788028
0.1758293
0.172892
0.1701304
0.1677058
0.165813
0.164743
0.1647465
0.1659085
0.1681814
0.1713585
0.1750715
0.1788264
0.182117
0.1845681
0.1860023
0.1864344
0.1860497
0.1851446
0.1838077
0.1820969
0.1800196
0.1775392
0.1746039
0.1711818
0.1672918
0.1630204
0.1584982
0.1538663
0.1492659
0.1448307
0.1406724
0.1368683
0.1334583
0.1304422
0.1277808
0.1254061
0.1232346
0.1211836
0.1191866
0.1172042
0.1152272
0.1132731
0.111377
0.10958
0.1079184
0.1064167
0.1050854
0.1039229
0.1029182
0.1020531
0.1013084
0.1006772
0.1001424
0.0996865
0.0992947
0.09895363
0.09865081
0.09837424
0.09811151
0.0978505
0.09758143
0.09729601
0.09698513
0.09663917
0.09624906
0.09580663
0.09530349
0.0947317
0.0940855
0.09335919
0.09254673
0.09164918
0.0906746
0.08963505
0.08855123
0.08745708
0.08639937
0.08544147
0.08466239
0.08416053
0.08404929
0.08445423
0.0855029
0.08730557
0.08993785
0.09342435
0.09771634
0.1026775
0.1080925
0.1136923
0.1191873
0.1243461
0.1290092
0.1330591
0.1363907
0.1389001
0.1404851
0.1411225
0.1407492
0.1392781
0.1367259
0.1333245
0.129327
0.1248916
0.1201221
0.1151585
0.1101953
0.1055676
0.1018696
0.09980052
0.09989976
0.1020498
0.1052118
0.1083505
0.1106768
0.1122316
0.1136616
0.1156058
0.1183385
0.1217446
0.1254599
0.1290586
0.1322058
0.1347364
0.1366544
0.1380677
0.1393128
0.1407335
0.142542
0.1448053
0.1475208
0.150546
0.1536372
0.156488
0.1587507
0.1602657
0.160996
0.160916
0.1600075
0.1582693
0.1557318
0.1524612
0.1485552
0.1441349
0.1393331
0.1342786
0.1290637
0.1238065
0.1186346
0.1136456
0.1088999
0.1044278
0.1002359
0.09631384
0.09264535
0.08921238
0.08599555
0.08297652
0.08013942
0.07747087
0.07495964
0.07259655
0.07037411
0.06829284
0.06635338
0.06455393
0.06289245
0.06136604
0.05997076
0.05870166
0.05755305
0.0565189
0.0555932
0.05477019
0.05404441
0.05341065
0.05286372
0.05239821
0.05200835
0.05168784
0.05142989
0.05122739
0.05107327
0.05096093
0.05088494
0.05084166
0.05082991
0.05085153
0.05091164
0.05101878
0.05118471
0.05142403
0.05175356
0.05219139
0.05275572
0.05346331
0.05432772
0.05535747
0.0565544
0.05791241
0.05941728
0.06104713
0.06277315
0.06456113
0.06637377
0.06817324
0.06992499
0.0715985
0.07316822
0.07461698
0.07593628
0.07712416
0.07818377
0.07912179
0.0799474
0.08068069
0.08134151
0.0819475
0.08251304
0.08304751
0.08355466
0.08403391
0.0844803
0.0848881
0.08525248
0.08556648
0.08582253
0.08601274
0.08612894
0.08616275
0.08610546
0.08594953
0.08569223
0.08533504
0.08487906
0.08432804
0.08369428
0.08300197
0.08228531
0.08157394
0.08087615
0.08017952
0.07946259
0.07870309
0.07788153
0.07698309
0.07600109
0.07493761
0.07380108
0.07260419
0.07136338
0.07010039
0.06884413
0.06762902
0.0664844
0.0654205
0.06442595
0.06347682
0.06254194
0.06158848
0.06059252
0.05954217
0.05843451
0.05727217
0.05606203
0.05481826
0.05355785
0.0523018
0.05106903
0.04987219
0.04871914
0.04761188
0.04654814
0.04552558
0.0445441
0.04360421
0.04270569
0.04184872
0.04103428
0.04026287
0.03953367
0.03884453
0.03819303
0.03757659
0.03699124
0.03643275
0.0358972
0.03538088
0.03488124
0.03439647
0.03392857
0.0335088
0.008816124
0.01028248
0.01141215
0.01698409
0.02342516
0.03191945
0.03895729
0.04696738
0.05568713
0.06503581
0.07535117
0.08756943
0.1010509
0.1162092
0.1344674
0.1626842
0.1778473
0.1938891
0.2102715
0.2269404
0.2438121
0.2607344
0.2775418
0.294103
0.3102391
0.32589
0.3412384
0.3580144
0.375042
0.3925524
0.4105497
0.4284949
0.4459057
0.4626941
0.4787242
0.4938016
0.5083077
0.5223048
0.535787
0.5486703
0.5608301
0.5720887
0.5822433
0.5911897
0.5987751
0.6048722
0.6094111
0.6121927
0.6123688
0.6106444
0.6069555
0.6011369
0.5929562
0.5834273
0.5726629
0.5609918
0.5487645
0.5362816
0.5237877
0.5114769
0.4995025
0.4879919
0.4770571
0.4667923
0.4572771
0.4485602
0.4406418
0.4334574
0.4268764
0.4207387
0.4149137
0.4093093
0.4039834
0.3990569
0.394582
0.3905164
0.3867614
0.3833267
0.3800335
0.3766898
0.3731387
0.3693195
0.3652802
0.3611507
0.3570952
0.3532649
0.3497479
0.3465446
0.3435819
0.340749
0.3379531
0.3351347
0.3322626
0.3293418
0.3264079
0.3234939
0.3206043
0.3177262
0.3148714
0.3120882
0.3094463
0.3069937
0.3047384
0.3026388
0.3006278
0.298623
0.2965398
0.2943185
0.2919557
0.2895195
0.287137
0.2849474
0.2830498
0.281468
0.2801331
0.2789187
0.2776926
0.2763469
0.2748177
0.2730993
0.2712524
0.2694051
0.2677318
0.2663902
0.2654327
0.2647756
0.2642544
0.2637022
0.2629987
0.2620833
0.2609594
0.2597067
0.258481
0.2574764
0.2568421
0.256601
0.2566459
0.2568147
0.2569545
0.2569395
0.2566977
0.256277
0.2558486
0.2555932
0.2555881
0.2558354
0.2562924
0.2568282
0.2572027
0.2571847
0.2567758
0.2560469
0.2550872
0.253999
0.2528951
0.2518957
0.2510712
0.2503779
0.2497201
0.2489839
0.248103
0.2471107
0.2461845
0.2457217
0.2458953
0.2466176
0.2475166
0.2480592
0.2478733
0.2469196
0.2454678
0.243897
0.2422891
0.2407189
0.2392187
0.2377783
0.2363116
0.2346984
0.2328423
0.2306922
0.2282654
0.2256626
0.2230442
0.2205594
0.2182692
0.2161196
0.2139813
0.2117253
0.2092588
0.2065477
0.2036203
0.2005536
0.1974697
0.1945216
0.1918909
0.1897898
0.1885029
0.1885364
0.1902941
0.1938419
0.1989967
0.2052958
0.2119795
0.2181193
0.2229005
0.2258475
0.2268435
0.2260949
0.2240661
0.221314
0.2180313
0.2143579
0.2103621
0.206044
0.2013581
0.1962754
0.1908073
0.1850238
0.1790455
0.1730168
0.1670876
0.1613971
0.1560576
0.1511433
0.1466873
0.1426834
0.1390912
0.1358448
0.1328643
0.1300684
0.127387
0.1247727
0.1222057
0.1196942
0.117267
0.1149635
0.1128223
0.1108734
0.1091336
0.1076057
0.1062809
0.1051426
0.1041677
0.1033322
0.1026303
0.1020395
0.1015385
0.101108
0.1007306
0.1003903
0.1000708
0.09975591
0.09943356
0.09909465
0.09872921
0.0983269
0.09787919
0.09737923
0.0968216
0.09620108
0.09551276
0.09475293
0.09392053
0.09301895
0.09205589
0.09104574
0.09001284
0.08899484
0.08804556
0.08723876
0.08667049
0.08646094
0.08675236
0.08770198
0.08946817
0.09218771
0.09594728
0.1007552
0.1065197
0.1130351
0.1199984
0.1270655
0.1338797
0.140163
0.1457283
0.1504541
0.154237
0.1569665
0.1585469
0.1589797
0.1582782
0.1564518
0.1536138
0.1499866
0.1457556
0.1410139
0.1357934
0.1301658
0.1242585
0.1183367
0.1128745
0.1084876
0.105796
0.1052775
0.1070484
0.1102673
0.1139901
0.1174007
0.1202454
0.1228267
0.1255586
0.1286212
0.1318926
0.1350659
0.1378141
0.1399106
0.1412762
0.1419619
0.1422448
0.1425092
0.1430677
0.1440985
0.1456976
0.1478162
0.1502651
0.152758
0.154951
0.1567247
0.1579974
0.1586839
0.1586969
0.1579582
0.1564226
0.1540959
0.1510335
0.1473312
0.1431128
0.1385046
0.1336248
0.128631
0.1236581
0.1188096
0.1141561
0.1097377
0.1055701
0.1016501
0.09796527
0.09449967
0.09123629
0.08815904
0.08525387
0.0825084
0.07991129
0.07745235
0.0751226
0.07291713
0.07083846
0.06888778
0.06706661
0.06537607
0.06381624
0.0623859
0.06108252
0.05990244
0.0588413
0.05789432
0.0570566
0.05632321
0.05568909
0.05514896
0.05469709
0.05432709
0.05403193
0.05380389
0.05363492
0.05351703
0.053443
0.05340719
0.0534064
0.05344061
0.05351345
0.05363229
0.05380801
0.05405442
0.05438751
0.05482437
0.05538212
0.05607642
0.05692006
0.05792129
0.05908249
0.0603988
0.06185766
0.06343876
0.0651146
0.06685175
0.06861281
0.07035888
0.07205278
0.0736611
0.07515596
0.07651726
0.07773325
0.07879953
0.07971788
0.0804949
0.08114024
0.08166988
0.08210792
0.08247711
0.08279752
0.08308469
0.08334677
0.08358906
0.08381358
0.08401906
0.08420293
0.08436171
0.08449171
0.08458905
0.08464931
0.08466687
0.08463342
0.0845389
0.08437756
0.0841497
0.08385168
0.08347366
0.08301137
0.08248364
0.08192933
0.081385
0.08086489
0.08035684
0.07983516
0.07927293
0.07864717
0.07794065
0.07714489
0.07626208
0.0753031
0.074284
0.0732232
0.07214258
0.07107117
0.07004582
0.06909988
0.06823912
0.06743733
0.06665717
0.06585384
0.06498151
0.06401918
0.06296718
0.06183545
0.06063977
0.05939808
0.05813096
0.05686188
0.05561478
0.05440973
0.05325596
0.05215614
0.05110399
0.05008777
0.04909811
0.04813244
0.04719184
0.04627865
0.04539796
0.04455679
0.04376048
0.04301064
0.04230489
0.04163823
0.04100473
0.04039821
0.03981314
0.03924546
0.03869144
0.03814971
0.03761844
0.0371035
0.03664171
0.002129348
0.008277378
0.0123675
0.0171363
0.02248622
0.02864071
0.0357057
0.04350918
0.05229646
0.06292994
0.07901627
0.08877504
0.09940616
0.1106539
0.1225648
0.1350798
0.1481406
0.1616331
0.1753794
0.1892445
0.2032028
0.2190365
0.2351886
0.2514518
0.267699
0.2838365
0.2997655
0.3154285
0.3308501
0.3459538
0.3608292
0.3757932
0.3912822
0.4070507
0.4230844
0.4392426
0.455116
0.4702962
0.4845444
0.4978554
0.5105395
0.5227519
0.5345223
0.5458083
0.5565017
0.5664545
0.5754185
0.583077
0.5893232
0.5939306
0.5960924
0.5954898
0.5925064
0.5869665
0.5790497
0.56888
0.5567414
0.5429663
0.5280738
0.5125233
0.4967414
0.4811059
0.4659337
0.4514603
0.4378359
0.4251426
0.4134278
0.4027345
0.3931132
0.3846329
0.3773481
0.37124
0.366195
0.3619645
0.3582733
0.3549166
0.3517415
0.3485626
0.3454067
0.3426172
0.340411
0.3388237
0.3377502
0.3368993
0.3359351
0.3346126
0.3328486
0.3307121
0.3283725
0.3260405
0.3239122
0.3221099
0.3206424
0.3194174
0.318299
0.3171641
0.3159249
0.3145369
0.313006
0.3113819
0.3097166
0.3080256
0.3063004
0.304557
0.3028734
0.3013532
0.3000512
0.2989528
0.2979796
0.2970303
0.2960115
0.2948423
0.2934754
0.2919291
0.2903047
0.2887716
0.2875095
0.2866223
0.2860784
0.2857397