/*--------------------------------*- C++ -*----------------------------------*\
| =========                 |                                                 |
| \\      /  F ield         | foam-extend: Open Source CFD                    |
|  \\    /   O peration     | Version:     3.1                                |
|   \\  /    A nd           | Web:         http://www.extend-project.de       |
|    \\/     M anipulation  |                                                 |
\*---------------------------------------------------------------------------*/
FoamFile
{
    version     2.0;
    format      ascii;
    class       volScalarField;
    location    "14.5";
    object      p;
}
// * * * * * * * * * * * * * * * * * * * * * * * * * * * * * * * * * * * * * //

dimensions      [1 -1 -2 0 0 0 0];

internalField   nonuniform List<scalar> 
119952
(
5147.006
3543.531
3335.957
3583.722
3844.185
3668.563
3632.536
3613.364
3615.382
3623.926
3637.612
3655.268
3674.521
3693.307
3709.201
3721.927
3726.992
3721.115
3691.315
3582.652
3937.89
3712.008
3588.074
4065.387
4006.729
4023.328
4054.242
4172.448
4582.365
7465.581
2773.093
2718.185
2717.337
2710.173
2704.71
2699.36
2697.824
2698.35
2701.476
2674.571
2649.846
2666.315
2659.475
2656.66
2654.867
2655.954
2659.766
2665.134
2672.69
2674.703
2680.176
2669.143
2675.364
2687.822
2700.608
2715.25
2731.807
2749.238
2775.589
2787.753
2805.348
2834.049
2862.326
2891.04
2922.161
2956.259
3002.921
3110.806
3307.893
3193.726
3163.059
3279.893
3348.706
3352.261
3332.703
3328.833
3336.116
3348.528
3365.387
3385.572
3406.98
3427.579
3445.651
3459.209
3465.984
3464.506
3455.251
3445.185
3457.518
3467.865
3442.652
3532.864
3684.735
3702.677
3701.734
3707.819
3626.877
3339.355
3294.326
3400.64
3469.955
3542.508
3624.205
3710.631
3802.49
3899.586
4001.031
4105.81
4212.664
4320.238
4427.263
4532.59
4635.169
4733.968
4827.96
4916.195
4997.752
5071.475
5135.891
5190.923
5235.906
5270.313
5294.753
5310.161
5317.888
5320.057
5319.172
5317.95
5319.084
5325.348
5338.742
5360.305
5390.78
5430.113
5477.241
5529.832
5584.038
5634.504
5677.259
5716.118
5760.365
5810.609
5861.3
5909.231
5953.432
5994.212
6034.658
6076.977
6115.756
6155.17
6196.385
6238.843
6282.219
6326.25
6370.497
6414.405
6457.794
6500.372
6542.05
6582.705
6622.226
6660.378
6697.148
6732.479
6766.303
6798.558
6829.196
6858.186
6885.517
6911.193
6935.232
6957.664
6978.531
6997.874
7015.804
7032.343
7047.569
7061.556
7074.379
7086.113
7096.831
7106.602
7115.489
7123.547
7130.827
7137.373
7143.232
7148.441
7153.024
7157.002
7160.345
7163.169
7165.378
7167.052
7168.092
7168.913
7170.804
7207.506
7202.129
7203.272
7202.901
7202.937
7203.325
7204.455
7206.803
7211.165
7217.211
7226.48
7239.561
7257.592
7283.539
7318.001
7363.179
7421.096
7480.646
7330.858
7289.489
7332.285
7378.787
7418.337
7445.048
7454.359
7448.937
7437.852
7428.671
7423.813
7421.693
7419.243
7413.562
7402.591
7384.99
7359.601
7327.029
7296.218
7257.54
7214.316
7168.747
7123.661
7082.08
7046.858
7020.37
7004.474
7000.749
7009.034
7029.358
7060.577
7100.8
7147.543
7197.974
7249.228
7298.767
7344.823
7386.397
7422.926
7454.203
7480.26
7501.311
7517.719
7529.887
7538.263
7543.345
7545.664
7545.768
7544.168
7541.3
7537.623
7533.155
7509.339
7499.295
7484.926
7479.422
7473.593
7466.922
7460.949
7455.09
7449.357
7443.692
7438.125
7432.66
7427.273
7421.968
7416.61
7411.332
7406.102
7400.929
7395.823
7390.796
7385.861
7381.008
7376.256
7371.625
7367.119
7362.739
7358.484
7354.352
7350.296
7346.328
7342.422
7338.555
7334.7
7330.83
7326.912
7322.911
7318.787
7314.496
7309.988
7305.215
7300.124
7294.685
7288.84
7282.597
7275.921
7268.469
7259.507
7249.745
7239.695
7229.257
7218.477
7207.44
7196.262
7184.308
7170.101
7160.972
7151.116
7141.056
7131.864
7123.566
7116.256
7110.1
7105.149
7101.431
7098.94
7097.63
7097.415
7098.167
7099.731
7101.917
7104.51
7107.282
7110.003
7112.449
7114.4
7115.654
7116.026
7115.365
7113.561
7110.55
7106.313
7100.887
7094.368
7086.907
7078.701
7069.945
7060.772
7051.228
7041.315
7031.034
7020.408
7009.502
6998.413
6987.274
6976.217
6965.352
6954.761
6944.517
6934.672
6925.427
6916.874
6909.062
6902.011
6895.708
6890.111
6885.163
6880.801
6876.94
6873.504
6870.43
6867.677
6865.268
6863.17
6861.356
6859.821
6858.555
6857.539
6856.754
6856.178
6855.785
6855.544
6855.44
6855.416
6855.428
6855.408
6855.23
6854.919
6854.304
6853.338
6851.822
6849.611
6846.494
6842.198
6836.219
6827.867
6816.547
6805.477
6814.922
6880.945
5242.6
5090.512
4910.584
4741.564
4579.41
4424.963
4278.624
4139.933
4008.697
3861.58
3740.565
3632.361
3528.785
3432.803
3344.89
3264.253
3191.818
3120.593
3016.213
2983.247
2923.587
2866.574
2821.836
2782.088
2745.626
2712.538
2681.041
2653.975
2633.387
2596.636
2574.372
2556.444
2538.677
2523.286
2509.105
2495.446
2484.537
2481.612
2453.845
2434.797
2426.951
2420.024
2413.115
2407.936
2403.701
2400.297
2397.475
2387.926
2386.86
2386.049
2383.487
2381.422
2381.406
2383.744
2389.089
2404.065
2331.782
2342.496
2357.355
2370.921
2382.89
2394.935
2408.715
2424.769
2442.821
2461.64
2484.291
2509.861
2535.091
2560.61
2588.838
2622.022
2663.07
2714.695
2773.726
2829.943
2863.012
2880.417
2912.695
2949.834
2976.631
2990.832
3000.809
3014.306
3033.39
3056.971
3083.061
3109.438
3134.46
3156.479
3173.808
3185.033
3189.62
3189.161
3186.382
3184.395
3188.68
3196.224
3223.136
3260.196
3276.639
3265.925
3231.975
3177.716
3108.652
3071.962
3110.617
3172.363
3239.857
3317.391
3404.316
3498.551
3598.848
3704.646
3815.024
3928.419
4043.063
4157.297
4269.558
4378.341
4482.149
4579.526
4669.158
4749.933
4820.818
4881.187
4928.534
4965.114
4990.577
5005.472
5011.224
5009.837
5003.86
4996.127
4989.703
4987.386
4991.532
5003.667
5024.557
5054.636
5093.427
5139.457
5190.539
5244.019
5297.061
5348.157
5398.509
5451.107
5505.551
5558.654
5609.094
5656.991
5702.32
5745.788
5788.519
5830.476
5871.949
5913.775
5956.084
5998.808
6041.66
6084.474
6126.951
6168.901
6210.253
6250.845
6290.384
6329.104
6366.197
6402.13
6436.7
6469.808
6501.369
6531.331
6559.671
6586.381
6611.465
6634.943
6656.848
6677.218
6696.101
6713.569
6729.686
6744.522
6758.149
6770.639
6782.059
6792.481
6801.966
6810.577
6818.361
6825.35
6831.574
6837.1
6841.925
6846.1
6849.568
6852.438
6854.558
6856.124
6856.893
6856.937
6856.511
6856.657
6922.173
6915.08
6915.521
6914.713
6913.633
6913.199
6913.681
6915.589
6919.558
6926.116
6936.152
6950.491
6969.751
6994.662
7025.667
7060.417
7090.13
7107.455
7071.525
7054.773
7086.861
7123.63
7154.867
7180.538
7188.692
7177.953
7163.295
7153.36
7149.117
7148.189
7146.984
7142.444
7132.397
7115.736
7092.189
7062.484
7027.934
6987.928
6943.209
6896.044
6849.227
6805.799
6768.625
6740.059
6721.999
6715.803
6721.48
6739.29
6768.158
6806.351
6851.548
6901.025
6951.928
7001.318
7047.429
7089.483
7126.733
7158.957
7186.178
7208.492
7226.269
7239.821
7249.54
7255.887
7259.389
7260.579
7259.983
7258.066
7255.368
7252.815
7182.794
7179.346
7175.386
7169.176
7162.466
7156.554
7151.248
7146.004
7140.655
7135.36
7130.085
7124.887
7119.707
7114.521
7109.331
7104.139
7098.967
7093.83
7088.743
7083.724
7078.789
7073.95
7069.219
7064.613
7060.141
7055.804
7051.6
7047.515
7043.531
7039.634
7035.8
7032.002
7028.212
7024.398
7020.528
7016.567
7012.476
7008.21
7003.722
6998.962
6993.88
6988.402
6982.476
6976.031
6968.96
6961.123
6952.439
6943.017
6933.04
6922.613
6911.81
6900.719
6889.467
6878.202
6866.63
6854.844
6843.822
6833.633
6824.167
6815.562
6807.887
6801.322
6795.937
6791.743
6788.74
6786.891
6786.114
6786.282
6787.228
6788.768
6790.696
6792.792
6794.841
6796.631
6797.962
6798.638
6798.47
6797.332
6795.133
6791.819
6787.381
6781.852
6775.298
6767.821
6759.624
6751.011
6742.097
6732.838
6723.176
6713.145
6702.81
6692.221
6681.443
6670.681
6660.087
6649.748
6639.719
6630.084
6620.969
6612.464
6604.654
6597.571
6591.204
6585.504
6580.372
6575.727
6571.553
6567.801
6564.414
6561.375
6558.701
6556.452
6554.548
6553.008
6551.815
6550.962
6550.394
6550.051
6549.912
6549.928
6550.042
6550.171
6550.297
6550.426
6550.525
6550.498
6550.321
6549.636
6548.692
6547.277
6545.3
6542.573
6539.12
6534.896
6530.617
6527.432
6527.507
6531.44
6540.316
2915.543
2974.082
3055.486
3154.904
3271.215
3403.645
3551.426
3714.423
3890.94
4076.291
4255.333
4458.675
4666.25
4877.783
5091.089
5301.741
5507.461
5703.247
5886.935
6042.385
6189.968
6316.761
6419.456
6495.724
6543.849
6562.544
6551.508
6511.402
6447.658
6355.809
6242.118
6109.122
5961.267
5801.509
5632.647
5457.28
5278.282
5098.693
4907.657
4730.49
4555.653
4386.355
4224.523
4070.125
3923.754
3786.008
3657.492
3536.8
3419.353
3312.731
3213.378
3120.283
3034.662
2956.09
2884.988
2829.763
2669.023
2615.269
2572.671
2531.308
2490.775
2452.633
2417.673
2385.716
2356.28
2328.355
2302.119
2279.7
2259.395
2240.266
2222.888
2207.604
2193.911
2181.124
2168.454
2155.226
2142.79
2130.989
2119.843
2110.23
2102.777
2097.245
2092.91
2088.943
2084.809
2081.332
2078.019
2074.213
2070.826
2068.93
2069.004
2071.262
2075.22
2080.86
2088.025
2098.678
2110.433
2120.934
2131.376
2143.004
2156.531
2172.313
2190.257
2210.754
2233.318
2256.903
2281.355
2306.652
2334.186
2365.252
2400.584
2440.066
2483.248
2530.078
2569.06
2595.812
2623.215
2656.756
2687.308
2710.118
2728.912
2749.575
2774.839
2804.424
2836.653
2869.438
2900.94
2929.432
2952.851
2969.582
2978.381
2979.509
2974.009
2964.983
2956.569
2948.748
2945.993
2949.692
2946.863
2931.349
2903.851
2871.257
2834.311
2817.916
2843.326
2899.204
2966.19
3042.243
3128.293
3223.386
3326.404
3436.668
3553.124
3674.021
3797.303
3920.935
4042.883
4161.06
4273.38
4377.822
4472.556
4556.117
4627.233
4684.959
4728.622
4758.756
4775.738
4780.79
4775.887
4763.641
4747.207
4730.044
4715.568
4706.707
4705.63
4713.683
4731.528
4759.312
4796.481
4841.728
4893.225
4948.793
5006.21
5063.812
5121.34
5179.837
5239.319
5297.965
5354.313
5408.026
5459.094
5507.646
5554.278
5599.416
5643.071
5685.737
5727.996
5770.116
5812.108
5853.869
5895.229
5936.037
5976.125
6015.394
6053.831
6091.258
6128.013
6163.317
6197.164
6229.652
6260.68
6290.144
6318.017
6344.302
6369.006
6392.145
6413.753
6433.867
6452.537
6469.825
6485.799
6500.524
6514.072
6526.508
6537.898
6548.306
6557.792
6566.405
6574.195
6581.165
6587.339
6592.813
6597.548
6601.56
6604.818
6607.374
6609.122
6610.186
6610.417
6610.108
6609.585
6609.125
6607.664
6605.596
6602.339
6598.676
6595.508
6593.222
6592.097
6592.591
6595.359
6601.114
6610.55
6624.234
6642.364
6663.904
6687.839
6712.287
6730.577
6740.805
6747.044
6751.822
6775.036
6805.11
6832.901
6850.18
6861.082
6864.919
6862.482
6858.597
6853.639
6850.791
6848.876
6843.661
6832.477
6814.305
6788.789
6756.248
6717.249
6672.493
6623.308
6572.028
6521.824
6476.163
6437.877
6408.931
6391.08
6385.532
6392.974
6413.138
6444.807
6486.147
6534.726
6587.478
6640.605
6691.448
6738.886
6781.942
6819.746
6851.821
6878.179
6899.298
6915.748
6928.25
6937.462
6943.465
6946.572
6947.461
6946.684
6944.656
6941.663
6937.89
6933.043
6928.065
6922.894
6917.626
6912.513
6907.686
6903.01
6898.315
6893.561
6888.698
6883.829
6878.938
6874.025
6869.067
6864.065
6859.026
6853.969
6848.911
6843.873
6838.879
6833.952
6829.112
6824.38
6819.771
6815.297
6810.962
6806.767
6802.704
6798.759
6794.912
6791.137
6787.407
6783.689
6779.952
6776.162
6772.281
6768.272
6764.092
6759.694
6755.026
6750.03
6744.641
6738.788
6732.396
6725.382
6717.677
6709.221
6700.023
6690.199
6679.865
6669.092
6657.959
6646.538
6634.877
6623.25
6611.836
6600.691
6590.006
6579.975
6570.775
6562.534
6555.362
6549.334
6544.473
6540.792
6538.267
6536.834
6536.368
6536.702
6537.649
6538.988
6540.519
6542.047
6543.372
6544.307
6544.674
6544.274
6542.963
6540.656
6537.295
6532.866
6527.389
6520.891
6513.424
6505.197
6496.705
6488.058
6479.116
6469.719
6459.921
6449.834
6439.516
6428.982
6418.491
6408.208
6398.246
6388.635
6379.449
6370.816
6362.813
6355.49
6348.848
6342.88
6337.575
6332.791
6328.332
6324.274
6320.592
6317.229
6314.204
6311.551
6309.295
6307.487
6306.112
6305.192
6304.69
6304.514
6304.548
6304.825
6305.267
6305.734
6306.098
6306.388
6306.699
6307.004
6307.166
6307.098
6306.728
6306.068
6305.045
6303.577
6301.67
6299.355
6296.855
6294.523
6292.824
6292.255
6293.376
6297.03
2682.21
2657.76
2631.524
2593.212
2570.409
2527.664
2529.249
2548.214
2581.21
2595.675
2593.741
2609.46
2647.405
2704.532
2780.469
2873.845
2982.869
3107.861
3247.615
3400.593
3567.284
3745.77
3933.132
4128.529
4329.88
4534.937
4741.26
4946.073
5147.473
5340.916
5522.883
5665.37
5817.555
5940.281
6038.132
6109.492
6152.126
6165.026
6148.332
6103.415
6032.616
5937.369
5820.077
5684.472
5534.456
5373.427
5204.216
5029.142
4850.401
4670.054
4490.235
4313.464
4141.143
3975.084
3816.875
3667.023
3525.98
3393.722
3269.721
3153.295
3043.787
2941.144
2845.539
2756.842
2674.931
2599.578
2530.44
2466.588
2404.85
2352.87
2309.799
2268.933
2229.203
2192.169
2158.375
2127.391
2098.413
2071.36
2046.773
2024.339
2003.877
1985.708
1969.822
1955.797
1942.95
1930.485
1917.956
1905.675
1893.222
1880.272
1868.441
1858.911
1852.022
1847.027
1843.08
1839.65
1836.362
1832.627
1828.398
1824.193
1820.426
1817.826
1817.121
1818.646
1822.927
1829.578
1837.849
1847.446
1857.803
1868.316
1879.254
1891.201
1904.752
1920.432
1938.488
1958.899
1981.262
2004.144
2027.939
2051.506
2075.912
2101.83
2129.92
2161.114
2196.217
2234.796
2271.772
2303.639
2334.221
2366.349
2397.739
2426.149
2452.818
2481.107
2513.424
2550.192
2590.184
2631.341
2671.535
2708.618
2740.033
2763.266
2775.931
2776.855
2766.269
2746.134
2720.215
2691.983
2665.63
2644.571
2624.656
2602.311
2577.316
2553.897
2536.722
2535.438
2559.574
2608.765
2673.085
2748.034
2833.568
2929.795
3036.218
3152.078
3276.158
3406.579
3541.047
3677.109
3812.155
3943.403
4068.007
4183.193
4286.454
4375.74
4449.424
4506.436
4546.256
4569.017
4575.679
4568.052
4548.815
4521.46
4490.128
4459.229
4432.916
4414.412
4405.762
4408.145
4422.105
4447.346
4483.186
4528.371
4581.182
4639.667
4701.822
4765.875
4830.904
4896.828
4963.128
5028.29
5091.119
5151.22
5208.425
5262.69
5314.334
5363.671
5410.858
5456.244
5500.288
5543.316
5585.49
5626.879
5667.493
5707.336
5746.412
5784.711
5822.171
5858.69
5894.239
5928.551
5961.577
5993.158
6023.342
6052.03
6079.197
6104.832
6128.942
6151.547
6172.673
6192.361
6210.658
6227.63
6243.346
6257.869
6271.267
6283.605
6294.946
6305.351
6314.866
6323.549
6331.487
6338.571
6344.733
6350.327
6355.154
6359.194
6362.425
6364.853
6366.405
6367.137
6366.983
6366.129
6364.539
6362.392
6359.06
6353.821
6347.743
6341.784
6336.34
6331.672
6328.21
6326.503
6327.235
6331.201
6339.099
6351.357
6367.802
6387.133
6408.005
6428.842
6447.728
6462.631
6473.323
6486.907
6510.25
6536.678
6562.017
6584.925
6602.811
6611.022
6609.777
6608.278
6612.097
6615.784
6614.661
6608.329
6596.013
6576.554
6549.453
6514.805
6473.162
6425.415
6373.16
6318.691
6265.054
6216.022
6174.828
6143.256
6122.787
6114.859
6121.166
6140.774
6172.728
6215.247
6266.005
6321.164
6376.312
6429.348
6479.414
6524.92
6564.72
6598.372
6625.898
6647.715
6664.357
6676.638
6685.514
6691.378
6694.511
6695.474
6694.803
6692.904
6690.014
6686.408
6682.219
6677.794
6673.405
6668.999
6664.45
6659.841
6655.265
6650.714
6646.148
6641.586
6636.939
6632.281
6627.576
6622.812
6617.988
6613.107
6608.185
6603.24
6598.294
6593.373
6588.501
6583.703
6579.002
6574.417
6569.962
6565.647
6561.474
6557.437
6553.526
6549.721
6545.998
6542.329
6538.681
6535.018
6531.305
6527.504
6523.573
6519.471
6515.149
6510.557
6505.635
6500.318
6494.535
6488.213
6481.282
6473.678
6465.355
6456.315
6446.62
6436.356
6425.593
6414.413
6402.909
6391.209
6379.508
6367.882
6356.45
6345.463
6335.135
6325.614
6317.011
6309.456
6302.996
6297.701
6293.593
6290.66
6288.85
6288.034
6288.033
6288.684
6289.744
6290.991
6292.258
6293.357
6294.105
6294.314
6293.801
6292.438
6290.112
6286.735
6282.288
6276.774
6270.172
6262.577
6254.438
6245.948
6237.254
6228.428
6219.137
6209.41
6199.399
6189.18
6178.792
6168.391
6158.155
6148.203
6138.67
6129.587
6121.086
6113.26
6106.15
6099.747
6094.065
6089.163
6084.825
6080.514
6076.667
6073.189
6069.908
6066.897
6064.24
6061.996
6060.24
6058.997
6058.294
6058.086
6058.302
6058.834
6059.548
6060.323
6061.069
6061.647
6062.103
6062.711
6063.39
6063.873
6064.089
6064.067
6063.806
6063.275
6062.448
6061.338
6060.013
6058.598
6057.315
6056.27
6055.959
6056.339
6058.188
2928.612
2898.949
2869.381
2815.067
2768.506
2687.962
2641.442
2594.616
2548.814
2503.844
2460.592
2420.174
2381.87
2347.381
2318.081
2293.872
2215.153
2209.322
2212.469
2220.627
2230.267
2246.731
2276.015
2321.053
2382.341
2458.844
2553.354
2664.123
2790.633
2932.074
3087.275
3254.849
3433.55
3621.941
3817.968
4019.401
4224.161
4430.141
4634.267
4833.34
5023.91
5201.739
5355.931
5501.1
5623.717
5721.525
5792.43
5834.484
5846.637
5828.85
5782.125
5708.647
5610.958
5491.992
5355.436
5205.185
5044.777
4877.004
4703.902
4527.465
4349.302
4170.975
3995.34
3824.276
3659.423
3502.581
3354.565
3215.871
3086.509
2966.004
2853.499
2748.055
2649.242
2556.948
2471.083
2391.449
2318.101
2250.453
2188.873
2133.417
2084.562
2041.838
2002.724
1965.905
1931.536
1899.638
1869.79
1841.529
1814.903
1790.281
1768.134
1748.764
1732.136
1717.926
1705.283
1693.332
1681.393
1669.048
1656.184
1642.764
1629.49
1617.917
1608.356
1601.97
1597.72
1594.405
1591.434
1588.258
1584.352
1579.681
1574.527
1569.368
1565.121
1563.503
1565.274
1569.747
1576.546
1584.819
1594.35
1604.967
1616.085
1627.284
1638.821
1651.584
1666.72
1684.658
1704.829
1727.974
1751.236
1772.999
1793.754
1813.591
1833.058
1853.767
1877.365
1905.248
1938.072
1973.645
2008.94
2043.245
2075.478
2107.698
2139.963
2172.764
2207.911
2247.586
2292.957
2342.906
2394.811
2446.289
2494.81
2536.942
2568.923
2586.66
2586.963
2568.598
2533.04
2484.898
2431.318
2380.152
2336.754
2300.776
2269.634
2243.027
2223.888
2216.278
2223.965
2250.314
2295.989
2357.335
2431.006
2516.566
2614.757
2725.64
2848.453
2981.94
3124.259
3273.011
3425.318
3577.822
3726.803
3868.415
3998.88
4114.729
4213.142
4291.881
4349.445
4385.162
4399.276
4393.024
4368.74
4330.124
4281.961
4229.915
4180.009
4137.676
4106.52
4088.359
4084.03
4093.686
4116.573
4151.78
4197.945
4253.311
4316.017
4384.179
4455.894
4529.644
4604.337
4678.846
4751.839
4822.305
4889.748
4953.941
5014.823
5072.528
5127.229
5179.062
5228.239
5275.075
5319.892
5362.975
5404.561
5444.848
5483.998
5522.123
5559.282
5595.484
5630.7
5664.882
5697.917
5729.742
5760.259
5789.376
5816.902
5843.048
5867.759
5891.017
5912.843
5933.269
5952.329
5970.069
5986.561
6001.885
6016.097
6029.259
6041.439
6052.696
6063.103
6072.704
6081.517
6089.611
6096.924
6103.494
6109.36
6114.43
6118.697
6122.098
6124.588
6126.085
6126.562
6125.934
6124.186
6121.205
6116.932
6111.083
6103.63
6095.237
6086.513
6077.901
6069.834
6063.053
6058.339
6056.383
6058.013
6064.078
6075.062
6090.39
6108.592
6127.848
6147.258
6165.405
6181.542
6197.314
6216.037
6239.198
6264.685
6289.923
6312.186
6328.976
6339.762
6346.406
6351.828
6357.227
6363.383
6367.357
6363.672
6351.213
6330.175
6301.052
6264.14
6220.109
6169.961
6115.278
6058.4
6002.285
5950.477
5906.72
5873.116
5851.072
5842.339
5848.103
5868.038
5901.178
5945.698
5999.09
6056.794
6114.526
6170.644
6223.643
6271.593
6313.335
6348.42
6376.945
6399.384
6416.417
6428.826
6437.276
6442.34
6444.829
6445.425
6444.564
6442.583
6439.749
6436.324
6432.464
6428.354
6424.148
6419.84
6415.404
6410.934
6406.53
6402.191
6397.865
6393.501
6389.186
6384.793
6380.333
6375.807
6371.209
6366.539
6361.808
6357.035
6352.238
6347.443
6342.677
6337.965
6333.332
6328.801
6324.389
6320.108
6315.964
6311.955
6308.073
6304.301
6300.618
6296.995
6293.4
6289.796
6286.145
6282.408
6278.543
6274.506
6270.252
6265.728
6260.878
6255.637
6249.938
6243.71
6236.885
6229.403
6221.224
6212.342
6202.786
6192.616
6181.902
6170.728
6159.198
6147.435
6135.586
6123.783
6112.197
6101.036
6090.484
6080.691
6071.789
6063.901
6057.099
6051.469
6047.036
6043.805
6041.753
6040.735
6040.52
6040.922
6041.78
6042.914
6044.127
6045.199
6045.919
6046.08
6045.521
6044.13
6041.764
6038.316
6033.795
6028.213
6021.508
6014.083
6006.23
5997.754
5988.833
5979.762
5970.373
5960.62
5950.599
5940.386
5930.09
5919.661
5909.301
5899.108
5889.293
5880.01
5871.37
5863.463
5856.312
5849.93
5844.464
5840.194
5836.568
5832.313
5828.677
5825.588
5822.424
5819.416
5816.733
5814.479
5812.76
5811.632
5811.114
5811.178
5811.776
5812.795
5813.952
5815.122
5816.281
5817.309
5818.343
5819.302
5820.194
5820.881
5821.365
5821.689
5821.846
5821.828
5821.618
5821.22
5820.67
5820.055
5819.504
5819.106
5819.186
5819.604
5821.082
3105.459
3069.065
3028.482
2976.143
2938.067
2863.751
2825.678
2787.447
2748.562
2708.711
2668.551
2628.069
2585.371
2542.102
2496.11
2382.278
2335.532
2289.243
2243.418
2198.386
2154.512
2112.666
2073.159
2036.785
2004.488
1977.305
1955.892
1942.296
1936.121
1936.675
1944.422
1962.082
1991.862
2035.751
2095.38
2171.758
2264.486
2373.332
2497.91
2637.408
2790.709
2956.415
3132.987
3319.026
3512.521
3711.157
3912.296
4113.697
4313.733
4508.758
4696.817
4874.989
5035.473
5177.604
5297.066
5391.001
5457.419
5494.874
5502.514
5480.261
5429.001
5350.795
5248.654
5126.129
4987.354
4836.274
4676.486
4510.894
4341.042
4168.44
3994.469
3820.154
3648.465
3481.399
3319.877
3165.695
3020.746
2886.237
2761.928
2646.933
2540.053
2440.188
2346.603
2258.85
2176.749
2100.256
2029.651
1965.011
1906.824
1855.207
1809.729
1769.681
1733.553
1699.943
1668.311
1638.35
1609.687
1581.999
1555.381
1530.733
1509.878
1492.364
1477.083
1464.745
1453.852
1443.042
1431.775
1419.515
1406.017
1391.676
1377.601
1365.299
1356.757
1351.378
1347.909
1345.303
1342.78
1339.748
1335.731
1330.456
1323.941
1316.744
1310.356
1307.501
1309.729
1314.661
1321.4
1329.64
1339.579
1350.952
1362.633
1373.675
1384.269
1395.816
1410.431
1428.959
1450.068
1473.536
1497.864
1517.743
1534.812
1549.159
1560.966
1572.96
1588.197
1609.259
1638.354
1673.034
1710.997
1751.484
1783.575
1815.511
1850.351
1888.047
1929.411
1976.591
2031.88
2094.062
2159.247
2224.948
2288.857
2346.691
2391.557
2416.776
2416.426
2387.378
2330.926
2252.961
2166.426
2085.768
2019.9
1967.886
1926.672
1895.514
1876.859
1873.715
1887.566
1916.553
1960.229
2018.495
2090.036
2174.893
2274.835
2390.784
2521.926
2666.734
2823.28
2989.322
3161.893
3336.813
3509.052
3673.334
3824.495
3957.814
4069.456
4156.404
4216.474
4248.52
4252.724
4230.444
4184.693
4120.404
4044.17
3964.042
3888.593
3825.554
3779.236
3750.292
3738.774
3744.014
3765.194
3800.742
3849.052
3908.463
3977.205
4053.194
4134.09
4217.961
4302.995
4387.515
4470.057
4549.568
4625.488
4697.587
4765.815
4830.223
4890.902
4947.942
5001.481
5051.747
5099.042
5143.703
5186.069
5226.461
5265.167
5302.43
5338.431
5373.288
5407.051
5439.715
5471.229
5501.562
5530.703
5558.762
5584.653
5609.479
5633.004
5655.162
5675.965
5695.462
5713.696
5730.692
5746.539
5761.338
5775.122
5787.948
5799.907
5811.057
5821.457
5831.153
5840.166
5848.502
5856.214
5863.386
5869.686
5875.23
5879.975
5883.796
5886.582
5888.199
5888.529
5887.431
5884.762
5880.366
5874.115
5865.886
5855.747
5844.014
5831.246
5818.187
5805.635
5794.503
5785.708
5780.162
5778.856
5782.804
5793.082
5808.686
5827.047
5846.12
5864.885
5882.937
5900.944
5920.179
5941.509
5965.126
5989.929
6013.811
6035.058
6052.882
6067.095
6078.385
6087.413
6094.899
6101.111
6105.457
6105.118
6095.682
6075.555
6045.987
6008.056
5962.83
5911.301
5855.084
5796.647
5739.019
5685.592
5639.754
5604.111
5580.679
5571.229
5576.854
5597.413
5631.85
5678.09
5733.104
5792.802
5853.41
5912.531
5968.059
6018.182
6061.696
6098.083
6127.508
6150.532
6167.946
6180.549
6188.686
6192.973
6194.854
6195.147
6194.122
6192.078
6189.283
6185.954
6182.243
6178.277
6174.164
6169.963
6165.723
6161.509
6157.362
6153.268
6149.185
6145.084
6140.964
6136.794
6132.566
6128.27
6123.897
6119.448
6114.93
6110.355
6105.742
6101.112
6096.49
6091.902
6087.374
6082.929
6078.585
6074.358
6070.255
6066.279
6062.424
6058.678
6055.022
6051.429
6047.867
6044.301
6040.691
6036.997
6033.178
6029.188
6024.984
6020.515
6015.726
6010.559
6004.948
5998.825
5992.125
5984.789
5976.777
5968.07
5958.681
5948.651
5938.042
5926.934
5915.43
5903.65
5891.741
5879.862
5868.182
5856.885
5846.149
5836.137
5826.993
5818.844
5811.777
5805.872
5801.166
5797.685
5795.428
5794.195
5793.74
5793.906
5794.564
5795.56
5796.651
5797.609
5798.225
5798.302
5797.664
5796.178
5793.703
5790.1
5785.432
5779.814
5773.302
5766.251
5758.379
5749.832
5740.657
5731.114
5721.511
5711.72
5701.681
5691.449
5681.156
5670.732
5660.259
5649.889
5639.834
5630.347
5621.533
5613.448
5606.085
5599.402
5593.835
5590.358
5587.568
5583.934
5580.699
5578.011
5574.932
5571.889
5569.154
5566.86
5565.136
5564.071
5563.699
5563.987
5564.861
5566.225
5567.903
5569.705
5571.581
5573.445
5575.175
5576.443
5577.297
5578.027
5578.748
5579.421
5579.998
5580.497
5580.897
5581.155
5581.28
5581.333
5581.418
5581.593
5582.101
5582.76
5584.425
3082.239
3035.498
2990.809
2934.42
2878.092
2827.488
2780.894
2738.05
2698.335
2658.622
2553.508
2515.933
2478.449
2440.333
2401.278
2361.249
2320.096
2277.473
2233.482
2188.848
2144.441
2098.378
2052.138
2005.965
1960.242
1915.244
1871.348
1828.617
1787.793
1750.161
1716.995
1690.244
1670.361
1658.247
1655.016
1661.363
1678.949
1709.232
1753.467
1812.772
1887.89
1979.016
2086.09
2208.738
2346.181
2497.334
2660.922
2835.224
3018.641
3208.618
3402.519
3598.817
3795.64
3991.432
4183.528
4367.833
4540.485
4696.073
4831.033
4942.812
5028.746
5086.965
5116.469
5116.746
5087.775
5030.317
4946.255
4838.886
4712.112
4570.555
4418.566
4259.552
4096.821
3932.195
3765.946
3599.173
3432.707
3266.957
3104.218
2947.055
2797.388
2657.815
2530.212
2413.88
2307.14
2208.286
2116.024
2029.449
1947.874
1870.915
1798.591
1731.429
1670.018
1614.807
1566.516
1525.614
1490.896
1459.724
1430.097
1401.502
1373.561
1346.021
1318.684
1291.807
1266.529
1245.404
1232.298
1220.34
1209.869
1201.409
1192.047
1181.511
1169.235
1154.992
1139.419
1123.751
1110.262
1102.776
1099.215
1097.23
1095.649
1093.746
1090.995
1086.869
1080.816
1072.581
1062.572
1052.907
1048.138
1051.302
1057.654
1064.276
1072.221
1082.792
1095.489
1108.004
1118.536
1127.373
1136.893
1151.038
1171.123
1194.597
1220.031
1246.462
1265.737
1277.705
1283.787
1285.915
1287.011
1291.408
1304.948
1333.708
1372.178
1413.268
1456.285
1487.838
1518.599
1554.591
1595.707
1642.187
1697.009
1764.628
1842.512
1923.918
2006.946
2089.623
2168.998
2236.145
2276.134
2276.772
2233.083
2146.733
2026.184
1893.755
1775.76
1685.551
1619.555
1568.029
1530.211
1509.533
1509.224
1531.073
1563.31
1603.218
1656.449
1723.95
1806.659
1907.816
2028.835
2168.825
2326.594
2499.811
2686.215
2883.14
3085.753
3287.493
3481.151
3659.564
3816.308
3946.293
4045.508
4110.825
4140.244
4133.206
4090.954
4017.416
3919.024
3804.848
3686.821
3578.024
3488.919
3424.765
3385.282
3367.903
3370.525
3391.746
3429.196
3480.842
3545.094
3621.094
3707.182
3799.575
3895.67
3993.062
4089.545
4183.341
4273.259
4358.697
4439.463
4515.577
4587.13
4654.213
4716.9
4775.288
4829.549
4879.941
4926.795
4970.494
5011.445
5050.052
5086.684
5121.652
5155.183
5187.421
5218.437
5248.243
5276.812
5304.075
5329.763
5354.892
5378.383
5400.509
5421.333
5440.881
5459.206
5476.396
5492.477
5507.499
5521.636
5534.892
5547.263
5558.92
5569.918
5580.302
5590.122
5599.412
5608.184
5616.425
5624.105
5631.122
5637.441
5642.95
5647.493
5650.889
5652.908
5653.323
5651.904
5648.387
5642.542
5634.194
5623.102
5609.461
5593.436
5575.631
5557.039
5538.767
5521.985
5507.859
5497.586
5492.456
5494.412
5505.274
5523.055
5543.295
5563.293
5582.138
5600.117
5618.873
5640.687
5665.251
5690.751
5715.894
5740.043
5762.444
5781.672
5796.687
5808.315
5817.707
5826.389
5833.282
5837.133
5836.192
5828.897
5812.961
5785.995
5748.984
5703.943
5652.182
5595.583
5536.83
5478.973
5424.916
5377.666
5340.508
5316.004
5305.995
5311.578
5332.741
5368.254
5415.688
5471.503
5532.183
5594.736
5655.954
5713.222
5764.9
5809.767
5847.155
5877.28
5900.732
5918.434
5930.768
5938.098
5941.923
5943.692
5943.901
5942.845
5940.833
5938.125
5934.917
5931.354
5927.546
5923.596
5919.591
5915.594
5911.638
5907.733
5903.863
5900.002
5896.127
5892.228
5888.287
5884.291
5880.227
5876.091
5871.878
5867.593
5863.245
5858.848
5854.419
5849.981
5845.555
5841.167
5836.838
5832.587
5828.432
5824.382
5820.445
5816.617
5812.891
5809.252
5805.675
5802.13
5798.583
5794.994
5791.323
5787.529
5783.568
5779.396
5774.965
5770.226
5765.122
5759.595
5753.58
5747.015
5739.841
5732.015
5723.51
5714.326
5704.489
5694.051
5683.085
5671.688
5659.982
5648.114
5636.243
5624.538
5613.177
5602.34
5592.194
5582.89
5574.548
5567.292
5561.169
5556.229
5552.488
5549.929
5548.394
5547.701
5547.705
5548.21
5549.017
5549.903
5550.653
5551.062
5550.942
5550.127
5548.474
5545.839
5542.02
5537.166
5531.723
5525.684
5518.58
5510.197
5500.946
5491.285
5481.699
5472.189
5462.44
5452.366
5442.046
5431.607
5421.083
5410.489
5400.01
5389.877
5380.28
5371.328
5363.076
5355.443
5348.159
5342.328
5339.627
5337.83
5335.986
5333.243
5330.692
5327.58
5324.413
5321.537
5319.123
5317.322
5316.252
5315.965
5316.426
5317.54
5319.258
5321.521
5324.022
5326.72
5329.604
5331.81
5333.295
5334.263
5335.143
5336.107
5337.125
5338.098
5339.132
5340.167
5341.071
5341.83
5342.491
5343.148
5343.817
5344.748
5345.699
5347.762
2823.25
2761.023
2634.302
2586.018
2539.161
2495.728
2455.212
2416.931
2380.105
2344.353
2309.553
2273.891
2237.599
2200.334
2162.064
2122.494
2081.508
2038.966
1994.734
1949.238
1903.803
1857.677
1811.174
1764.52
1717.516
1669.945
1622.378
1575.752
1530.99
1489.53
1453.183
1423.291
1400.62
1386.077
1380.845
1385.975
1402.77
1432.389
1475.983
1534.352
1608.124
1697.648
1802.911
1923.573
2058.87
2207.69
2368.711
2539.706
2718.024
2901.699
3089.605
3280.974
3473.894
3665.224
3851.637
4029.032
4193.108
4339.231
4463.524
4563.553
4637.422
4683.888
4702.53
4693.226
4656.055
4591.764
4501.804
4389.445
4259.074
4114.967
3962.233
3804.769
3645.818
3487.895
3330.787
3173.62
3015.916
2857.146
2700.091
2548.819
2405.694
2273.271
2153.989
2047.256
1950.579
1861.523
1778.729
1701.009
1627.101
1556.21
1488.54
1425.035
1366.66
1314.296
1269.388
1233.204