/*--------------------------------*- C++ -*----------------------------------*\
| =========                 |                                                 |
| \\      /  F ield         | foam-extend: Open Source CFD                    |
|  \\    /   O peration     | Version:     3.1                                |
|   \\  /    A nd           | Web:         http://www.extend-project.de       |
|    \\/     M anipulation  |                                                 |
\*---------------------------------------------------------------------------*/
FoamFile
{
    version     2.0;
    format      ascii;
    class       surfaceScalarField;
    location    "14.5";
    object      phi;
}
// * * * * * * * * * * * * * * * * * * * * * * * * * * * * * * * * * * * * * //

dimensions      [0 3 -1 0 0 0 0];

internalField   nonuniform List<scalar> 
275122
(
-0.0003937249
0.0003989922
-3.907673e-07
-4.876585e-06
-0.0003516743
0.0003351088
1.35286e-06
1.521264e-05
-0.0003479594
0.0003566727
-3.803594e-07
-8.332918e-06
-0.0003858486
0.000395915
-4.672051e-07
-9.599159e-06
-0.0004208898
0.0004236744
-5.346518e-07
-2.250008e-06
-0.000422573
0.0004216164
-4.766528e-07
1.433288e-06
-0.0004170503
0.0004153123
-4.4068e-07
2.178678e-06
-0.0004094337
0.0004071935
-4.557845e-07
2.69598e-06
-0.0004007288
0.0003985265
-4.197001e-07
2.621991e-06
-0.0003917416
0.0003894691
-4.209612e-07
2.693463e-06
-0.0003826113
0.0003803175
-3.713928e-07
2.665166e-06
-0.0003734354
0.0003711484
-3.390222e-07
2.626007e-06
-0.000364318
0.0003620595
-3.171064e-07
2.575581e-06
-0.0003553501
0.0003531472
-3.057952e-07
2.508657e-06
-0.0003466075
0.0003444439
-2.530014e-07
2.416595e-06
-0.0003380801
0.0003360007
-2.294622e-07
2.308927e-06
-0.0003298603
0.0003278609
-2.091732e-07
2.208581e-06
-0.000322008
0.0003201458
-1.975192e-07
2.059698e-06
-0.0003150045
0.0003135772
-2.519293e-07
1.679263e-06
-0.0003108509
0.0003114772
-6.027879e-07
-2.345377e-08
-0.0003463309
0.0003603187
-1.276885e-06
-1.271088e-05
-0.0003650922
0.0003651829
-2.816133e-07
1.909651e-07
-0.0003697109
0.0003720151
-1.660377e-07
-2.138176e-06
-0.0004129567
0.0004280113
3.152426e-07
-1.536986e-05
-0.0004304863
0.0004297539
5.889217e-07
1.434168e-07
-0.0004316491
0.0004321638
-2.391367e-07
-2.755369e-07
-0.000431543
0.000430241
-2.358733e-07
1.53789e-06
-0.0004246587
0.0004203244
-1.968664e-07
4.531182e-06
-0.0003942627
0.0003678716
-2.682927e-07
2.665938e-05
-0.0002075329
0.0002131064
5.038924e-09
-5.57849e-06
-0.0002660845
0.0002796991
-7.111258e-08
-1.354348e-05
-0.0003185317
0.0003314081
7.600693e-09
-1.288405e-05
-0.0003707264
0.000384038
8.690661e-09
-1.332033e-05
-0.0004243565
0.0004379594
9.76067e-09
-1.361275e-05
-0.0004794865
0.0004934733
9.924155e-09
-1.399666e-05
-0.0005362155
0.0005506595
4.585245e-09
-1.444864e-05
-0.0005944174
0.0006091626
6.994619e-09
-1.475225e-05
-0.0006536403
0.0006685687
5.059455e-09
-1.493347e-05
-0.0007134011
0.000728428
1.058078e-08
-1.503744e-05
-0.0007729938
0.0007892111
2.356789e-07
-1.6453e-05
1.297518e-05
-0.0005359848
0.0005380739
1.412733e-09
-1.506574e-05
1.323985e-05
-0.0005443095
0.0005462178
-1.264091e-10
-1.514802e-05
1.352182e-05
-0.0005515676
0.000553219
-9.557487e-10
-1.517218e-05
1.379273e-05
-0.0005579331
0.0005593664
-1.269286e-09
-1.522475e-05
1.416383e-05
-0.0005632243
0.0005643752
-1.57246e-09
-1.53132e-05
1.446041e-05
-0.0005675249
0.0005684585
-1.517344e-09
-1.539247e-05
1.467635e-05
-0.0005711108
0.000571918
-1.297424e-09
-1.548227e-05
1.482473e-05
-0.0005742121
0.0005749622
-1.231524e-09
-1.557361e-05
1.528839e-05
-0.0005769891
0.0005766959
-6.89207e-10
-1.499449e-05
1.351516e-05
-0.002348612
0.002357667
1.155084e-10
-6.346899e-05
1.374539e-05
1.346912e-05
1.368465e-05
1.440196e-05
-0.002364026
0.002369163
2.001572e-11
-6.375949e-05
1.49407e-05
1.437408e-05
1.490569e-05
1.474476e-05
-0.002373251
0.002376807
-8.19936e-11
-6.304222e-05
1.502722e-05
1.471428e-05
1.50008e-05
1.479109e-05
-0.002380529
0.002384022
-1.955407e-10
-6.290405e-05
1.494208e-05
1.476288e-05
1.49153e-05
1.477867e-05
-0.002387191
0.002390276
-2.460911e-10
-6.256134e-05
1.498719e-05
1.474995e-05
1.496096e-05
1.498037e-05
-0.002392932
0.002395388
-3.772395e-10
-6.257206e-05
1.510389e-05
1.495473e-05
1.507765e-05
1.502631e-05
-0.002397828
0.002399994
-2.583499e-10
-6.237586e-05
1.510221e-05
1.500253e-05
1.50798e-05
1.505315e-05
-0.002402303
0.002404391
6.540042e-11
-6.222757e-05
1.504746e-05
1.502074e-05
1.50181e-05
1.49676e-05
-0.002407054
0.002409589
-1.542049e-10
-6.246914e-05
1.502305e-05
1.494279e-05
1.500089e-05
1.4598e-05
-0.002408831
0.002411904
-1.645939e-10
-6.152933e-05
1.464827e-05
1.457293e-05
1.463693e-05
1.525024e-05
-0.002415061
0.002416997
-1.448889e-10
-6.313488e-05
1.535912e-05
1.524179e-05
1.534795e-05
1.517197e-05
-0.002418444
0.002419629
-1.520958e-10
-6.159427e-05
1.503967e-05
1.516443e-05
1.503277e-05
1.503145e-05
-0.002420878
0.002422038
-1.146429e-10
-6.107126e-05
1.493156e-05
1.502333e-05
1.492495e-05
1.49513e-05
-0.002423109
0.002423909
-1.020687e-10
-6.044729e-05
1.48795e-05
1.494193e-05
1.487465e-05
1.48843e-05
-0.002424617
0.002425124
-1.071322e-10
-5.989135e-05
1.481776e-05
1.486927e-05
1.4813e-05
1.485026e-05
-0.002425582
0.002425804
-1.175677e-10
-5.942687e-05
1.478444e-05
1.480353e-05
1.476689e-05
1.501671e-05
-0.002426073
0.002425967
-1.139367e-10
-5.951201e-05
1.497903e-05
1.480195e-05
1.482035e-05
1.619294e-05
-0.002425602
0.002423081
-1.127006e-10
-6.087958e-05
1.64606e-05
1.523345e-05
1.551372e-05
2.068069e-05
-0.002415971
0.002399683
-7.945635e-11
-6.174426e-05
2.198446e-05
1.799811e-05
1.736883e-05
2.432225e-05
-0.002379334
0.002400372
3.707118e-12
-4.535953e-05
1.687123e-05
-0.002418717
0.002420553
2.738788e-10
-1.870793e-05
3.683227e-05
-0.002412697
0.002407083
1.018666e-09
-3.121918e-05
3.032366e-05
-0.002403495
0.002400097
4.838287e-10
-2.692667e-05
1.430068e-05
-0.002396041
0.002395736
2.38897e-10
-1.399513e-05
1.110613e-07
-0.002398101
0.002399926
1.777783e-10
-1.936053e-06
-5.561373e-06
-0.00240112
0.00240184
1.661146e-10
4.840449e-06
-7.982773e-06
-0.002402362
0.002402433
1.567338e-10
7.911777e-06
-9.501657e-06
-0.00240224
0.002401796
1.348426e-10
9.944804e-06
-1.038354e-05
-0.002401183
0.002400413
9.74368e-11
1.11544e-05
-1.068122e-05
-0.002399568
0.002398692
5.591036e-11
1.155691e-05
-1.056176e-05
-0.002397828
0.002397043
5.749345e-12
1.134678e-05
-1.012179e-05
-0.002396319
0.002395759
-5.662193e-11
1.068125e-05
-9.396395e-06
-0.002395292
0.002395068
-1.00191e-10
9.620529e-06
-8.442604e-06
-0.002394958
0.002395173
-1.115705e-10
8.227553e-06
-7.247949e-06
-0.002395537
0.002396359
-1.16515e-10
6.426021e-06
-5.648777e-06
-0.002397328
0.002398877
-1.11485e-10
4.100046e-06
-3.448135e-06
-0.0024006
0.002402958
-1.028104e-10
1.090438e-06
-2.69941e-07
-0.002405426
0.002408568
-8.964733e-11
-2.871216e-06
5.703935e-06
-0.002411062
0.002413859
-7.550053e-11
-8.500935e-06
1.595131e-05
-0.002412367
0.002411496
-5.027956e-11
-1.508095e-05
9.520663e-06
-0.002414844
0.002419457
-4.428634e-11
-1.413392e-05
2.058613e-05
-0.002422104
0.002422037
-3.332134e-11
-2.051953e-05
4.201763e-05
-0.002409005
0.002393562
-1.739838e-11
-2.657405e-05
1.153381e-05
-0.002386314
0.002386373
2.521477e-12
-1.159353e-05
-5.402707e-06
-0.002386353
0.002383227
1.869333e-11
8.529106e-06
-1.959749e-05
-0.002377869
0.002373523
3.347161e-11
2.394341e-05
-4.260691e-05
-0.002369734
0.002368669
4.713315e-11
4.367172e-05
-9.434841e-05
-0.002367433
0.002390585
5.775974e-11
7.119582e-05
-2.168905e-05
-0.002418632
0.002413521
6.278861e-11
7.818617e-05
-1.505769e-05
-2.155989e-05
-1.476868e-05
-1.039028e-05
-0.002399146
0.002390993
6.268099e-11
4.995611e-05
-1.094934e-05
-9.990451e-06
-1.047281e-05
-1.058946e-05
-0.002383985
0.002374168
6.022129e-11
5.100035e-05
-1.036281e-05
-1.022621e-05
-1.000415e-05
-9.716387e-06
-0.002362047
0.002349091
5.797163e-11
5.091124e-05
-9.589493e-06
-9.384117e-06
-9.265548e-06
-9.900047e-06
-0.00233597
0.002322417
4.502605e-11
5.274935e-05
-1.000786e-05
-9.590966e-06
-9.697764e-06
-1.044438e-05
-0.002308328
0.002293426
3.055437e-11
5.627485e-05
-1.053193e-05
-1.01546e-05
-1.024176e-05
-1.092369e-05
-0.002277766
0.002261345
1.622576e-11
5.972701e-05
-1.100196e-05
-1.065057e-05
-1.072954e-05
-1.13599e-05
-0.002244277
0.002226561
4.43013e-12
6.279393e-05
-1.143397e-05
-1.110453e-05
-1.117959e-05
-1.170278e-05
-0.002208243
0.002189363
-4.642226e-12
6.533043e-05
-1.175737e-05
-1.146683e-05
-1.152358e-05
-1.191014e-05
-0.002169925
0.002150027
-7.98346e-12
6.717176e-05
-1.193675e-05
-1.169814e-05
-1.172926e-05
-1.193886e-05
-0.002129646
0.00210894
-6.505305e-12
6.808411e-05
-1.192846e-05
-1.175693e-05
-1.175315e-05
-1.17434e-05
-0.002087865
0.002066648
-1.728475e-12
6.779584e-05
-1.168962e-05
-1.159598e-05
-1.154992e-05
-1.129161e-05
-0.002045225
0.002023903
3.158303e-12
6.608119e-05
-1.119202e-05
-1.118346e-05
-1.109234e-05
-1.057722e-05
-0.002002587
0.001981659
9.785772e-12
6.281943e-05
-1.043262e-05
-1.05087e-05
-1.037335e-05
-9.611754e-06
-0.001960974
0.001940994
1.660734e-11
5.800603e-05
-9.427106e-06
-9.581659e-06
-9.405352e-06
-8.428082e-06
-0.001921502
0.001903036
2.068027e-11
5.17598e-05
-8.212412e-06
-8.432075e-06
-8.221955e-06
-7.077241e-06
-0.001885295
0.001868881
2.166357e-11
4.431447e-05
-6.841988e-06
-7.107239e-06
-6.874115e-06
-5.617539e-06
-0.001853406
0.001839519
2.07083e-11
3.597176e-05
-5.371741e-06
-5.669064e-06
-5.425627e-06
-4.120847e-06
-0.001826712
0.001815722
1.837176e-11
2.707109e-05
-3.867258e-06
-4.168555e-06
-3.925221e-06
-2.625167e-06
-0.001805936
0.001798071
1.48315e-11
1.802302e-05
-2.394813e-06
-2.688127e-06
-2.450338e-06
-1.268311e-06
-0.001791502
0.001786906
1.010135e-11
9.370951e-06
-1.071158e-06
-1.319291e-06
-1.116704e-06
-6.281221e-08
-0.001783714
0.001782399
4.570772e-12
1.304082e-06
1.061336e-07
-9.95351e-08
6.783444e-08
9.587346e-07
-0.001782387
0.001784182
-7.265649e-13
-5.864653e-06
1.108106e-06
9.265317e-07
1.076794e-06
1.790173e-06
-0.00178722
0.001791785
-6.332099e-12
-1.189915e-05
1.897804e-06
1.767302e-06
1.878655e-06
2.393003e-06
-0.001797429
0.001804296
-1.035969e-11
-1.654536e-05
2.466882e-06
2.37286e-06
2.445914e-06
2.750087e-06
0.001820659
-1.41426e-11
-1.964112e-05
2.777549e-06
2.730462e-06
2.760971e-06
-0.001812037
2.821024e-06
-0.001829943
0.001839718
-1.494521e-11
-2.103144e-05
2.80797e-06
2.818946e-06
2.808349e-06
2.64544e-06
-0.001849886
0.001860119
-1.393448e-11
-2.071365e-05
2.592292e-06
2.648246e-06
2.594663e-06
2.21571e-06
-0.001870477
0.001880479
-1.202052e-11
-1.868601e-05
2.120426e-06
2.221934e-06
2.125752e-06
1.548743e-06
-0.001890327
0.001899443
-8.623351e-12
-1.505902e-05
1.413947e-06
1.558247e-06
1.422818e-06
6.422464e-07
-0.001908178
0.00191582
-3.671825e-12
-9.938326e-06
4.972354e-07
6.516582e-07
5.051943e-07
-3.970463e-07
-0.001922788
0.001928377
3.26972e-12
-3.673957e-06
-5.728897e-07
-3.844208e-07
-5.606108e-07
-1.57262e-06
-0.001933084
0.001936115
1.328956e-11
3.644435e-06
-1.784433e-06
-1.553385e-06
-1.764905e-06
-2.921906e-06
-0.001938111
0.001938341
2.608778e-11
1.189626e-05
-3.168098e-06
-2.897342e-06
-3.139277e-06
-4.401839e-06
-0.00193738
0.001934571
4.043103e-11
2.088314e-05
-4.672002e-06
-4.368526e-06
-4.631485e-06
-5.998423e-06
-0.001930424
0.00192437
5.534069e-11
3.053151e-05
-6.294058e-06
-5.950027e-06
-6.235273e-06
-7.715198e-06
-0.001916842
0.001907367
7.005221e-11
4.081594e-05
-8.042126e-06
-7.637649e-06
-7.946226e-06
-9.572675e-06
-0.00189631
0.00188331
8.494456e-11
5.170447e-05
-9.934588e-06
-9.43127e-06
-9.766103e-06
-1.15759e-05
-0.001868667
0.001852129
1.002687e-10
6.309923e-05
-1.197411e-05
-1.132658e-05
-1.168471e-05
-1.368015e-05
-0.00183399
0.001814093
1.157654e-10
7.464905e-05
-1.410497e-05
-1.329908e-05
-1.36681e-05
-1.56456e-05
-0.001792751
0.001769744
1.276676e-10
8.545143e-05
-1.599994e-05
-1.523515e-05
-1.556333e-05
-1.679858e-05
-0.001745248
0.001718753
1.299464e-10
9.351474e-05
-1.683925e-05
-1.661833e-05
-1.676321e-05
-1.622581e-05
-0.001690208
0.001659049
1.218337e-10
9.601412e-05
-1.587327e-05
-1.649281e-05
-1.626393e-05
-1.439295e-05
-0.001625348
0.001589045
1.046566e-10
9.381567e-05
-1.397718e-05
-1.479457e-05
-1.434764e-05
-1.247417e-05
-0.001550638
0.001510467
7.906557e-11
8.982387e-05
-1.213695e-05
-1.271731e-05
-1.232405e-05
-1.066012e-05
-0.001469166
0.001427061
4.661461e-11
8.441916e-05
-1.036554e-05
-1.080718e-05
-1.048129e-05
-8.954754e-06
-0.001384929
0.001343229
1.407472e-11
7.724307e-05
-8.695688e-06
-9.073281e-06
-8.819631e-06
-7.569706e-06
-0.00130277
0.0012641
-2.269751e-11
6.881193e-05
-7.406564e-06
-7.666663e-06
-7.498443e-06
-6.546825e-06
-0.001227728
0.001193993
-5.851022e-11
5.974307e-05
-6.361676e-06
-6.642818e-06
-6.457139e-06
-5.524457e-06
-0.00116235
0.00113304
-9.01431e-11
5.088083e-05
-5.175251e-06
-5.609457e-06
-5.261622e-06
-4.849129e-06
-0.001106972
0.001083737
-1.144569e-10
4.273236e-05
-4.857508e-06
-4.904712e-06
-4.886178e-06
-4.306072e-06
-0.001062645
0.001043795
-1.30643e-10
3.587617e-05
-4.191416e-06
-4.321487e-06
-4.207043e-06
-3.52162e-06
-0.001026769
0.00101174
-1.381889e-10
2.89527e-05
-3.439345e-06
-3.524261e-06
-3.439001e-06
-2.836358e-06
-0.000998178
0.000986365
-1.392674e-10
2.295665e-05
-2.736787e-06
-2.835134e-06
-2.735195e-06
-2.227778e-06
-0.0009757783
0.0009667442
-1.340797e-10
1.77671e-05
-2.140257e-06
-2.225965e-06
-2.138784e-06
-1.713367e-06
-0.0009587158
0.0009519927
-1.276007e-10
1.342333e-05
-1.639285e-06
-1.711198e-06
-1.63624e-06
-1.253454e-06
-0.0009460931
0.0009412721
-1.177388e-10
9.707187e-06
-1.194381e-06
-1.249371e-06
-1.188907e-06
-9.184595e-07
-0.0009371572
0.0009339765
-1.006443e-10
6.763177e-06
-8.764687e-07
-9.146064e-07
-8.728624e-07
-6.515186e-07
-0.0009313317
0.0009294717
-8.370323e-11
4.391277e-06
-6.162247e-07
-6.493525e-07
-6.14093e-07
-4.331313e-07
-0.0009280281
0.0009272528
-6.567209e-11
2.45015e-06
-4.056908e-07
-4.316574e-07
-4.042354e-07
-2.560526e-07
-0.0009268382
0.0009269895
-4.79586e-11
8.271472e-07
-2.343903e-07
-2.548028e-07
-2.331614e-07
-1.064356e-07
-0.000927479
0.0009284485
-3.131566e-11
-5.798783e-07
-8.954489e-08
-1.052952e-07
-8.836087e-08
1.759142e-08
-0.0009297002
0.0009313767
-1.563527e-11
-1.769233e-06
2.791346e-08
1.84239e-08
2.881225e-08
1.037322e-07
-0.0009333008
0.0009355771
-2.320129e-12
-2.713148e-06
1.137187e-07
1.047053e-07
1.147129e-07
1.710138e-07
-0.000938056
0.0009408264
6.779729e-12
-3.471377e-06
1.784706e-07
1.720171e-07
1.794876e-07
2.188838e-07
-0.0009437595
0.0009469399
1.347681e-11
-4.068848e-06
2.243436e-07
2.198714e-07
2.253232e-07
2.506165e-07
-0.0009502548
0.0009537728
1.81272e-11
-4.52934e-06
2.540534e-07
2.516049e-07
2.550572e-07
2.673273e-07
-0.0009574006
0.0009611903
2.059181e-11
-4.864209e-06
2.68922e-07
2.683209e-07
2.699405e-07
2.703301e-07
-0.0009650677
0.0009690692
2.007416e-11
-5.084617e-06
2.702703e-07
2.713115e-07
2.712567e-07
2.609923e-07
-0.0009731379
0.0009772957
1.668395e-11
-5.200675e-06
2.594388e-07
2.619446e-07
2.603974e-07
2.40774e-07
-0.0009815022
0.0009857664
1.352687e-11
-5.223526e-06
2.379447e-07
2.416991e-07
2.388575e-07
2.112183e-07
-0.0009900625
0.0009943888
1.179449e-11
-5.165071e-06
2.073112e-07
2.120804e-07
2.081483e-07
1.739961e-07
-0.0009987319
0.001003081
9.53048e-12
-5.037091e-06
1.692054e-07
1.747578e-07
1.699748e-07
1.30564e-07
-0.001007434
0.001011772
6.647253e-12
-4.850819e-06
1.251524e-07
1.312765e-07
1.258829e-07
8.263308e-08
-0.001016101
0.001020399
3.559196e-12
-4.618224e-06
7.677353e-08
8.32996e-08
7.748122e-08
3.30447e-08
0.001028909
1.407682e-12
-4.353293e-06
-0.001024678
2.759018e-08
3.364061e-08
2.810654e-08
-1.778939e-08
-0.001033102
0.001037255
5.417608e-13
-4.069678e-06
-2.452066e-08
-1.699756e-08
-2.387344e-08
-7.035082e-08
-0.001041381
0.001045451
-1.207902e-13
-3.778745e-06
-7.585745e-08
-6.988487e-08
-7.534606e-08
-1.185935e-07
-0.001049487
0.001053465
-9.125877e-13
-3.494609e-06
-1.23733e-07
-1.181315e-07
-1.232859e-07
-1.633308e-07
-0.001057409
0.001061298
-1.402556e-12
-3.226981e-06
-1.679598e-07
-1.628892e-07
-1.675374e-07
-2.031279e-07
-0.001065153
0.001068962
-1.601624e-12
-2.988828e-06
-2.070454e-07
-2.027241e-07
-2.066539e-07
-2.367133e-07
-0.001072742
0.001076486
-2.161856e-12
-2.791738e-06
-2.397475e-07
-2.363893e-07
-2.394635e-07
-2.631705e-07
-0.00108021
0.001083911
-3.202746e-12
-2.644918e-06
-2.653117e-07
-2.629135e-07
-2.650475e-07
-2.818376e-07
-0.001087601
0.001091287
-3.993463e-12
-2.55708e-06
-2.830343e-07
-2.816326e-07
-2.828005e-07
-2.922664e-07
-0.001094973
0.001098678
-4.457035e-12
-2.535455e-06
-2.92436e-07
-2.921119e-07
-2.922816e-07
-2.941734e-07
-0.001102395
0.001106155
-4.797932e-12
-2.584501e-06
-2.933385e-07
-2.940646e-07
-2.932298e-07
-2.874731e-07
-0.001109942
0.001113796
-4.925399e-12
-2.708698e-06
-2.856087e-07
-2.873691e-07
-2.855308e-07
-2.720442e-07
-0.001117694
0.00112169
-4.816643e-12
-2.913624e-06
-2.691782e-07
-2.719692e-07
-2.691321e-07
-2.475643e-07
-0.001125749
0.001129936
-4.167312e-12
-3.204653e-06
-2.437784e-07
-2.475768e-07
-2.43739e-07
-2.146053e-07
-0.001134204
0.001138636
-3.029313e-12
-3.582455e-06
-2.100354e-07
-2.146018e-07
-2.099445e-07
-1.736795e-07
-0.00114317
0.001147901
-1.486622e-12
-4.04715e-06
-1.685309e-07
-1.736432e-07
-1.683569e-07
-1.262085e-07
-0.001152753
0.001157839
1.025932e-12
-4.593574e-06
-1.200392e-07
-1.260216e-07
-1.200262e-07
-7.12012e-08
-0.001163072
0.001168573
4.050171e-12
-5.230117e-06
-6.444264e-08
-7.115511e-08
-6.455657e-08
-5.731377e-09
-0.001174232
0.001180183
7.629649e-12
-5.944188e-06
2.406353e-09
-5.848191e-09
2.390029e-09
5.377953e-08
-0.001186335
0.001192851
1.168256e-11
-6.751959e-06
6.422412e-08
5.374562e-08
6.419173e-08
1.209689e-07
-0.001199562
0.001206645
1.564203e-11
-7.593486e-06
1.343986e-07
1.209839e-07
1.343765e-07
1.887451e-07
-0.001213949
0.001221697
1.938195e-11
-8.544648e-06
2.100272e-07
1.888727e-07
2.099075e-07
2.511025e-07
-0.001229646
0.001238017
2.20343e-11
-9.447005e-06
2.868677e-07
2.515525e-07
2.863144e-07
3.160429e-07
-0.001246572
0.001255694
2.342732e-11
-1.056808e-05
4.071051e-07
3.170567e-07
4.060189e-07
6.682134e-07
-0.001264324
0.001272856
2.25573e-11
-1.148386e-05
8.076486e-07
6.701964e-07
8.056796e-07
1.580078e-06
-0.0003190974
0.00031934
6.635336e-11
-1.822788e-06
6.83471e-07
-0.000321812
0.0003228543
8.865945e-11
-1.72585e-06
6.373521e-07
-0.0003261572
0.000327437
1.933244e-11
-1.917128e-06
5.840569e-07
-0.0003314382
0.0003328343
1.272491e-10
-1.980253e-06
5.037687e-07
-0.0003371411
0.000338596
1.956158e-10
-1.9589e-06
3.985825e-07
-0.0003429928
0.0003444576
2.196739e-10
-1.863573e-06
2.603333e-07
-0.0003488246
0.0003502576
2.351072e-10
-1.693595e-06
7.260476e-08
-0.000354478
0.0003558422
2.378717e-10
-1.43707e-06
-2.402158e-07
-0.0003597719
0.0003610341
2.689661e-10
-1.022298e-06
-5.714776e-07
-0.0003646156
0.0003657164
3.357953e-10
-5.296581e-07
-9.59191e-07
-0.0003687564
0.0003696483
4.156692e-10
6.690933e-08
-1.413979e-06
-0.0003719783
0.0003726014
5.29021e-10
7.902703e-07
-1.819315e-06
-0.0003739963
0.000374209
5.283316e-10
1.606069e-06
-2.57599e-06
-0.000374284
0.0003740234
1.060985e-09
2.835556e-06
-3.673765e-06
-0.000372358
0.0003713865
2.718127e-09
4.642495e-06
-5.368733e-06
-0.0003670739
0.0003649433
1.374965e-08
7.485593e-06
-8.905914e-06
-0.0003560133
0.0003522827
9.535614e-08
1.254111e-05
-2.078644e-05
-0.0003337334
0.0003284166
5.906117e-07
2.551269e-05
-1.852946e-05
-0.0003111858
0.0003013142
-5.544538e-07
2.895559e-05
-1.702515e-06
-0.0002668639
0.0002568292
-2.315956e-07
1.196878e-05
1.226587e-06
-0.0002369121
0.0002329131
-1.236863e-08
2.784719e-06
3.201746e-07
-0.0002249019
0.0002231729
-3.945134e-08
1.448248e-06
-2.755147e-07
-0.0002201285
0.0002195456
-2.615799e-08
8.845877e-07
-7.432047e-07
-0.0002178636
0.0002171048
-7.451123e-09
1.509486e-06
-1.680702e-06
-0.000214001
0.0002126612
-1.381628e-09
3.021956e-06
-1.980308e-06
-0.0002080765
0.0002064775
-6.191845e-10
3.58e-06
-1.785902e-06
-0.0002019087
0.0002005776
-6.139787e-10
3.117615e-06
-1.400458e-06
-0.0001972856
0.0001964632
-6.069505e-10
2.223469e-06
-1.096641e-06
-0.0001946144
0.0001941934
-5.442514e-10
1.518178e-06
-9.644019e-07
-0.0001932455
0.0001929947
-4.776866e-10
1.215669e-06
-9.94551e-07
-0.0001922224
0.0001919051
-4.450402e-10
1.312264e-06
-1.13716e-06
-0.0001906771
0.000190119
-4.599383e-10
1.695658e-06
-1.34026e-06
-0.0001880387
0.0001871606
-5.017984e-10
2.218893e-06
-1.540852e-06
-0.000184085
0.0001828776
-5.610053e-10
2.748847e-06
-1.677435e-06
-0.0001788956
0.0001774324
-6.133548e-10
3.141247e-06
-1.076003e-06
-0.0001726702
0.0001707357
-5.937203e-10
3.011044e-06
-7.166571e-07
-0.0001644855
0.0001623837
-6.168384e-10
2.819089e-06
-8.316622e-07
-0.0001559582
0.0001537726
-5.776317e-10
3.017874e-06
-9.304335e-07
-0.0001472219
0.000145047
-5.368245e-10
3.105917e-06
-9.756851e-07
-0.0001386718
0.000136609
-4.778874e-10
3.038962e-06
-9.11685e-07
-0.0001306938
0.0001288348
-4.029564e-10
2.771103e-06
-7.549939e-07
-0.0001236469
0.000122074
-3.107141e-10
2.328209e-06
-5.118011e-07
-0.000117833
0.0001166104
-2.09674e-10
1.734636e-06
-1.777713e-07
-0.0001134776
0.0001126416
-6.301742e-11
1.01384e-06
1.737802e-07
-0.0001106928
0.0001102805
1.237545e-11
2.385283e-07
5.77306e-07
-0.0001096737
0.0001097028
1.293369e-10
-6.065426e-07
1.026992e-06
-0.0001103923
0.0001108569
2.229761e-10
-1.491801e-06
1.478383e-06
-0.0001128459
0.0001137365
3.048529e-10
-2.369312e-06
1.923345e-06
-0.0001169653
0.0001182537
3.795964e-10
-3.21211e-06
2.34146e-06
-0.0001226165
0.0001242585
4.42543e-10
-3.983899e-06
2.711149e-06
-0.0001296021
0.0001315378
4.929518e-10
-4.647363e-06
3.012707e-06
-0.0001376641
0.0001398199
5.289863e-10
-5.169084e-06
3.232805e-06
-0.0001464962
0.0001487905
5.472435e-10
-5.527606e-06
3.372035e-06
-0.0001557722
0.0001581266
5.508221e-10
-5.727025e-06
3.448968e-06
-0.0001652049
0.0001675633
5.455917e-10
-5.807996e-06
3.47557e-06
-0.000174593
0.0001769126
5.306059e-10
-5.795676e-06
3.45884e-06
-0.0001837733
0.0001860179
5.083425e-10
-5.703914e-06
3.405473e-06
-0.0001926162
0.0001947599
4.854169e-10
-5.549629e-06
3.321235e-06
-0.0002010266
0.0002030494
4.597623e-10
-5.34447e-06
3.213502e-06
-0.0002089352
0.0002108252
4.235531e-10
-5.103943e-06
3.083151e-06
-0.0002163019
0.0002180502
3.925127e-10
-4.83183e-06
2.930597e-06
-0.0002230899
0.000224688
3.59718e-10
-4.528988e-06
2.759897e-06
-0.0002292678
0.0002307088
3.233609e-10
-4.201253e-06
2.577541e-06
-0.0002348125
0.0002360936
2.921777e-10
-3.858848e-06
2.392234e-06
-0.0002397188
0.0002408426
2.640488e-10
-3.51624e-06
2.211242e-06
-0.0002440042
0.0002449799
2.346711e-10
-3.187132e-06
2.040579e-06
-0.0002477072
0.0002485465
2.136912e-10
-2.880095e-06
1.885714e-06
-0.0002508774
0.0002515907
2.023362e-10
-2.599242e-06
1.763976e-06
-0.000253556
0.0002541412
2.150046e-10
-2.349434e-06
1.612619e-06
-0.0002558448
0.0002563283
3.449185e-10
-2.096451e-06
1.87143e-06
-0.000255976
0.001047103
3.440552e-12
-8.999669e-06
1.657037e-07
1.872725e-06
1.512261e-07
-0.0002559799
-0.0002651034
-0.0002651054
7.317859e-07
-0.001054056
0.001057746
4.794387e-12
-7.445969e-06
1.163242e-06
7.140758e-07
1.146838e-06
8.83336e-07
-0.001060506
0.001062881
6.28397e-12
-6.03651e-06
9.614505e-07
8.689152e-07
9.478131e-07
8.542705e-07
-0.001065335
0.001067334
6.581652e-12
-5.507865e-06
9.125336e-07
8.416078e-07
9.002262e-07
8.651903e-07
-0.001068985
0.001070083
5.963406e-12
-4.622386e-06
9.086115e-07
8.532379e-07
8.971417e-07
8.282104e-07
-0.001070888
0.001071307
5.035163e-12
-3.747447e-06
8.468359e-07
8.172933e-07
8.3594e-07
7.73026e-07
-0.001071524
0.001071407
3.734118e-12
-2.955186e-06
7.738648e-07
7.617839e-07
7.641572e-07
7.372005e-07
-0.001071074
0.001070446
2.557388e-12
-2.306942e-06
7.39243e-07
7.277665e-07
7.304962e-07
7.103016e-07
-0.001069657
0.001068615
1.74262e-12
-1.783202e-06
7.10602e-07
7.01984e-07
7.025572e-07
6.867008e-07
-0.001067421
0.001066007
1.446217e-12
-1.315012e-06
6.849814e-07
6.793457e-07
6.776443e-07
6.654784e-07
-0.001064456
0.001062718
1.370573e-12
-9.066313e-07
6.63124e-07
6.590109e-07
6.568566e-07
6.467701e-07
-0.001060853
0.001058829
1.23719e-12
-5.475231e-07
6.443766e-07
6.4112e-07
6.389076e-07
6.297716e-07
-0.001056693
0.001054427
8.711197e-13
-2.390662e-07
6.274459e-07
6.248657e-07
6.226983e-07
6.162518e-07
-0.001052067
0.001049608
8.697306e-14
6.706215e-09
6.140308e-07
6.119908e-07
6.098903e-07
6.032473e-07
-0.001047057
0.001044423
-6.277461e-13
2.333026e-07
6.009482e-07
5.995513e-07
5.973592e-07
5.944207e-07
-0.001041725
0.001038965
-1.747157e-12
3.91648e-07
5.926654e-07
5.912659e-07
5.895778e-07
5.885123e-07
-0.001036157
0.001033308
-3.157626e-12
5.028134e-07
5.872723e-07
5.858181e-07
5.84626e-07
5.855091e-07
-0.001030425
0.001027517
-4.749647e-12
5.713168e-07
5.848076e-07
5.831708e-07
5.825615e-07
5.850147e-07
-0.001024588
0.001021651
-6.472117e-12
6.014282e-07
5.849003e-07
5.830757e-07
5.830433e-07
5.862529e-07
-0.001018703
0.001015761
-8.170249e-12
5.988338e-07
5.866406e-07
5.846933e-07
5.851197e-07
5.877908e-07
-0.001012821
0.001009901
-9.680878e-12
5.701611e-07
5.883455e-07
5.865798e-07
5.871223e-07
5.874366e-07
-0.001006997
0.001004128
-1.107817e-11
5.219485e-07
5.872762e-07
5.861874e-07
5.861157e-07
5.869758e-07
-0.001001286
0.0009984895
-1.21159e-11
4.526788e-07
5.858566e-07
5.860776e-07
5.849655e-07
5.879766e-07
-0.0009957254
0.0009930085
-1.284995e-11
3.677758e-07
5.872768e-07
5.872357e-07
5.866429e-07
5.917331e-07
-0.000990325
0.000987689
-1.319467e-11
2.710758e-07
5.91416e-07
5.909924e-07
5.907173e-07
5.978644e-07
-0.0009850868
0.0009825306
-1.330091e-11
1.657596e-07
5.981128e-07
5.97185e-07
5.973692e-07
6.065545e-07
-0.0009800085
0.0009775331
-1.326378e-11
4.901621e-08
6.071753e-07
6.060374e-07
6.066661e-07
6.173707e-07
-0.0009750939
0.0009726872
-1.268574e-11
-6.287231e-08
6.17817e-07
6.169403e-07
6.174088e-07
6.298998e-07
-0.0009703114
0.0009679708
-1.161778e-11
-1.801326e-07
6.308752e-07
6.29522e-07
6.305201e-07
6.448226e-07
-0.0009656596
0.0009633802
-1.083447e-11
-3.020447e-07
6.462434e-07
6.444829e-07
6.459078e-07
6.617595e-07
-0.0009611279
0.0009589035
-1.051824e-11
-4.256481e-07
6.635701e-07
6.614553e-07
6.632716e-07
6.806446e-07
-0.0009567038
0.0009545279
-9.644796e-12
-5.505978e-07
6.828856e-07
6.803965e-07
6.826196e-07
7.010321e-07
-0.0009523744
0.0009502402
-7.73745e-12
-6.746943e-07
7.036955e-07
7.007786e-07
7.034043e-07
7.2194e-07
-0.0009481256
0.0009460247
-6.771886e-12
-7.91791e-07
7.247077e-07
7.216358e-07
7.244174e-07
7.413898e-07
-0.0009439393
0.0009418602
-6.771916e-12
-8.912341e-07
7.439593e-07
7.411771e-07
7.437751e-07
7.568545e-07
-0.0009397911
0.0009377184
-7.240146e-12
-9.585636e-07
7.588494e-07
7.567471e-07
7.587439e-07
7.655836e-07
-0.0009356479
0.000933561
-7.561084e-12
-9.77245e-07
7.665634e-07
7.655113e-07
7.664664e-07
7.647068e-07
-0.0009314661
0.0009293383
-7.424922e-12
-9.302056e-07
7.643058e-07
7.646757e-07
7.642576e-07
7.51796e-07
-0.0009271897
0.0009249889
-7.074537e-12
-8.021331e-07
7.496609e-07
7.518162e-07
7.496684e-07
7.251025e-07
-0.0009227524
0.0009204421
-6.877171e-12
-5.823165e-07
7.210916e-07
7.251557e-07
7.212189e-07
6.837784e-07
-0.0009180809
0.000915627
-6.920824e-12
-2.698147e-07
6.780663e-07
6.837743e-07
6.78064e-07
6.278787e-07
-0.000913115
0.0009104761
-7.15129e-12
1.437658e-07
6.197329e-07
6.278423e-07
6.196246e-07
5.547454e-07
-0.0009077575
0.0009048976
-7.507071e-12
6.588377e-07
5.457598e-07
5.547699e-07
5.457735e-07
4.648342e-07
-0.0009019459
0.000898834
-8.033949e-12
1.271306e-06
4.553971e-07
4.648916e-07
4.554597e-07
3.431678e-07
-0.00089562
0.0008922619
-8.686575e-12
2.015257e-06
3.281617e-07
3.432527e-07
3.28253e-07
1.301135e-07
-0.000888858
0.0008855116
-9.371252e-12
2.976614e-06
5.472267e-08
1.301541e-07
5.473984e-08
-6.832913e-08
-0.0008821548
0.0008786166
-1.01659e-11
3.832761e-06
-7.894308e-08
-6.831437e-08
-7.892969e-08
-1.605283e-07
-0.0008749934
0.000871255
-1.047711e-11
4.399755e-06
-1.702091e-07
-1.604811e-07
-1.701595e-07
-2.316398e-07
-0.0008674549
0.0008635652
-1.091897e-11
4.830283e-06
-2.387576e-07
-2.315666e-07
-2.386833e-07
-2.829383e-07
-0.0008596359
0.0008556543
-1.130389e-11
5.122571e-06
-2.87667e-07
-2.828448e-07
-2.875708e-07
-3.15114e-07
-0.0008516601
0.0008476613
-1.151532e-11
5.260314e-06
-3.157681e-07
-3.150195e-07
-3.156644e-07
-3.269313e-07
-0.000843674
0.000839723
-1.126727e-11
5.235534e-06
-3.153808e-07
-3.26885e-07
-3.153036e-07
-3.264964e-07
-0.0008357704
0.000831878
-1.106383e-11
5.064598e-06
-2.594511e-07
-3.266897e-07
-2.594963e-07
-4.9661e-07
-0.0008283082
0.0008256112
-1.025004e-11
4.167206e-06
-2.368189e-07
-4.979333e-07
-2.388341e-07
-1.500978e-07
-0.0008226461
0.000818223
-8.41554e-12
5.116192e-06
-2.019628e-07
-1.46419e-07
-1.946557e-07
-2.172355e-07
-0.0008145223
0.0008115548
-8.710091e-12
4.026425e-06
-3.184426e-07
-2.101647e-07
-3.130264e-07
-1.233008e-07
-0.0008088225
0.0008063779
-7.903376e-12
2.952198e-06
-1.336395e-07
-1.198137e-07
-1.307609e-07
5.700352e-08
-0.0008041161
0.0008021862
-7.325123e-12
1.664841e-06
7.402398e-08
5.86293e-08
7.546311e-08
2.616371e-07
-0.0008004297
0.0007989968
-7.189152e-12
3.280171e-07
2.897525e-07
2.627216e-07
2.908136e-07
4.687815e-07
-0.0007977653
0.00079695
-6.533568e-12
-1.124038e-06
5.002328e-07
4.69447e-07
5.008285e-07
6.97252e-07
-0.0007963454
0.0007961864
-3.727975e-12
-2.706074e-06
7.351172e-07
6.974613e-07
7.352681e-07
9.462677e-07
-0.0007962637
0.0007968151
-1.127973e-12
-4.416513e-06
9.863981e-07
9.461862e-07
9.862707e-07
1.2045e-06
-0.0007976258
0.0007989416
1.183094e-14
-6.213938e-06
1.24494e-06
1.204171e-06
1.244573e-06
1.465417e-06
-0.0008005335
0.0008026535
2.656884e-13
-8.061052e-06
1.505644e-06
1.464895e-06
1.505081e-06
1.727633e-06
-0.0008050592
0.0008080048
6.607744e-13
-9.935081e-06
1.767862e-06
1.72691e-06
1.767089e-06
1.990772e-06
-0.0008112386
0.0008150132
1.210297e-12
-1.181622e-05
2.030997e-06
1.989845e-06
2.030022e-06
2.252887e-06
-0.0008190723
0.0008236634
1.585508e-12
-1.368032e-05
2.292823e-06
2.25178e-06
2.29167e-06
2.512058e-06
-0.0008285305
0.0008339149
1.909585e-12
-1.550933e-05
2.551668e-06
2.510789e-06
2.550357e-06