/*--------------------------------*- C++ -*----------------------------------*\
| =========                 |                                                 |
| \\      /  F ield         | foam-extend: Open Source CFD                    |
|  \\    /   O peration     | Version:     3.1                                |
|   \\  /    A nd           | Web:         http://www.extend-project.de       |
|    \\/     M anipulation  |                                                 |
\*---------------------------------------------------------------------------*/
FoamFile
{
    version     2.0;
    format      ascii;
    class       volScalarField;
    location    "7";
    object      pd;
}
// * * * * * * * * * * * * * * * * * * * * * * * * * * * * * * * * * * * * * //

dimensions      [1 -1 -2 0 0 0 0];

internalField   nonuniform List<scalar> 
119952
(
6705.29
6310.014
6256.862
6156.308
5981.783
5919.82
5872.411
5880.857
5932.969
6027.926
6147.17
6284.721
6444.91
6615.646
6765.255
7029.22
7071.544
7258.874
7305.343
7465.927
7460.086
7502.085
7576.361
7559.004
7554.361
7572.854
7573.776
7563.728
7585.249
8785.911
5354.224
5355.259
5717.192
5648.746
5834.113
5923.497
6092.363
6285.692
6390.762
6471.722
6822.201
6961.582
7110.406
7231.919
7324.549
7405.567
7477.834
7527.281
7541.97
7586.87
7627.805
7616.617
7615.794
7609.926
7591.29
7567.174
7539.724
7499.009
7457.499
7366.059
7298.814
7216.132
7121.115
7045.445
6984.121
6911.838
6833.832
6729.507
6600.025
6401.946
6209.747
6062.339
5940.863
5870.128
5845.393
5863.318
5921.015
6019.75
6145.971
6295.715
6458.882
6628.448
6793.037
6954.344
7097.395
7228.12
7329.108
7421.043
7477.961
7522.3
7550.724
7565.198
7574.036
7571.62
7542.534
7544.059
7481.398
7356.613
7295.968
7297.058
7293.241
7281.006
7270.811
7265.128
7261.044
7255.875
7247.454
7236.453
7224.919
7211.948
7191.168
7173.26
7162.921
7175.899
7182.985
7188.213
7185.242
7178.839
7169.616
7157.312
7147.313
7137.29
7128.731
7121.379
7114.39
7108.409
7104.074
7101.503
7099.294
7098.034
7098.356
7100.3
7105.362
7111.688
7120.219
7130.979
7142.559
7156.432
7172.744
7179.82
7196.654
7208.881
7221.071
7232.605
7243.196
7251.273
7253.295
7253.826
7255.471
7260.453
7271.273
7277.025
7287.23
7299.071
7311.227
7326.514
7327.711
7341.244
7351.873
7361.512
7368.363
7375.596
7383.916
7389.066
7392.753
7397.819
7401.973
7405.416
7409.145
7412.976
7416.755
7420.128
7423.675
7427.446
7431.415
7436.245
7443.405
7443.982
7454.486
7464.74
7472.323
7478.41
7485.4
7489.154
7497.45
7512.852
7525.002
7528.435
7531.488
7538.371
7547.268
7554.4
7559.793
7569.907
7579.347
7591.799
7609.73
7622.078
7519.76
7534.278
7535.493
7554.535
7536.124
7590.853
7595.178
7595.639
7598.755
7603.964
7606.347
7609.453
7613.384
7616.468
7613.054
7615.562
7613.345
7602.002
7671.35
7645.348
7648.236
7645.458
7677.154
7662.653
7662.131
7664.285
7665.177
7666.243
7666.257
7667.437
7667.843
7669.174
7669.968
7670.034
7670.457
7677.245
7678.263
7680.438
7686.743
7687.88
7689.752
7691.677
7692.626
7693.999
7694.914
7696.048
7695.664
7694.18
7694.731
7691.555
7685.74
7752.348
7720.275
7711.879
7716.897
7720.081
7720.551
7723.467
7724.316
7713.138
7737.656
7735.265
7736.626
7740.14
7742.065
7745.464
7738.728
7789.933
7767.245
7661.451
7733.229
7731.121
7739.085
7746.277
7751.971
7759.415
7759.015
7757.718
7765.027
7772.798
7769.167
7773.839
7776.683
7780.284
7785.543
7792.257
7796.472
7803.242
7817.303
7827.06
7835.255
7845.248
7854.175
7862.018
7868.467
7874.566
7881.024
7887.839
7894.718
7901.255
7907.94
7915.48
7933.623
7949.275
7965.652
7974.426
7990.112
8005.95
8019.789
8028.023
8042.146
8054.603
8067.449
8076.801
8088.574
8096.62
8110.275
8123.313
8136.048
8149.01
8161.325
8165.791
8155.233
8135.218
8151.357
8167.988
8186.978
8202.936
8190.453
8217.792
8226.77
8235.977
8248.202
8260.257
8267.337
8277.02
8289.562
8299.286
8310.161
8319.378
8328.45
8337.593
8347.243
8355.713
8364.069
8372.184
8380.293
8388.194
8394.761
8400.188
8408.632
8415.011
8419.158
8420.585
8423.366
8454.724
8499.017
8517.821
8533.846
8549.484
8560.34
8569.239
8577.807
8586.425
8593.705
8600.044
8605.827
8611.086
8616.518
8622.34
8628.16
8636.224
8652.045
8666.769
8672.711
8687.501
8695.239
8702.284
8709.126
8716.819
8724.366
8741.78
8731.991
8748.617
8752.606
8758.814
8764.648
8770.163
8774.629
8778.948
8783.491
8784.829
8785.785
8785.748
8785.281
8782.061
8783.895
8791.055
8810.926
8826.008
8839.397
8848.438
8854.537
8860.097
8865.005
8855.445
8825.856
8808.872
6524.731
6511.836
6441.234
6425.03
6404.275
6391.279
6377.268
6372.258
6347.632
6401.348
6486.137
6532.685
6604.327
6641.993
6667.874
6665.754
6650.527
6623.115
6589.955
6610.86
6620.673
6605.515
6569.169
6506.169
6437.031
6335.286
6200.26
6083.668
5950.15
5780.032
5647.384
5535.632
5434.45
5394.474
5331.221
5295.312
5311.712
5372.208
5430.076
5495.783
5597.409
5728.978
5881.512
6062.152
6251.959
6450.834
6657.327
6826.43
6985.833
7127.188
7245.357
7344.424
7426.11
7491.968
7540.591
7569.256
7588.708
7609.738
7619.901
7617.924
7609.404
7593.144
7568.442
7540.381
7499.024
7447.453
7397.296
7322.238
7229.212
7124.497
7019.507
6918.475
6817.464
6696.02
6538.274
6369.462
6205.088
6047.717
5912.164
5813.038
5757.018
5748.323
5789.883
5869.051
5979.987
6119.25
6278.517
6449.552
6624.402
6794.734
6950.644
7098.624
7223.04
7326.561
7410.012
7470.293
7511.899
7536.683
7547.283
7546.947
7536.915
7517.78
7486.664
7437.852
7376.608
7322.969
7289.091
7275.36
7268.681
7263.136
7257.932
7255.078
7252.928
7245.453
7231.389
7217.271
7201.243
7179.885
7167.563
7173.57
7181.99
7187.077
7188.849
7186.139
7176.378
7164.528
7153.175
7142.504
7132.482
7123.862
7116.837
7111.051
7105.948
7101.596
7098.195
7095.826
7094.925
7095.728
7098.498
7103.431
7110.363
7119.895
7131.253
7143.987
7157.88
7172.075
7186.123
7199.566
7212.228
7223.768
7233.841
7242.272
7248.774
7252.168
7254.717
7259.851
7267.663
7277.941
7287.04
7295.621
7304.709
7314.721
7325.213
7334.587
7343.79
7353.026
7362.009
7370.108
7377.118
7383.357
7388.964
7393.723
7398.061
7402.227
7406.002
7409.596
7412.972
7416.535
7420.019
7423.765
7427.802
7432.647
7438.15
7444.412
7452.013
7459.85
7466.803
7473.401
7480.075
7487.205
7495.417
7504.467
7512.791
7523.556
7530.593
7535.236
7540.823
7547.886
7555.145
7562.308
7568.233
7576.309
7582.396
7574.91
7573.907
7544.858
7538.82
7549.725
7560.262
7570.796
7584.743
7591.3
7595.193
7599.213
7602.967
7606.611
7608.627
7609.598
7613.284
7617.518
7621.522
7630.091
7646.281
7627.1
7642.015
7648.775
7650.329
7655.752
7661.374
7662.839
7664.21
7664.821
7665.507
7666.533
7667.087
7667.629
7668.592
7669.717
7671.262
7673.628
7675.993
7677.809
7682.226
7685.476
7688.107
7690.054
7691.638
7692.736
7693.682
7694.262
7694.811
7695.225
7695.931
7697.521
7700.033
7703.551
7712.922
7708.772
7714.158
7719.295
7722.113
7724.799
7726.556
7728.052
7729.227
7732.311
7733.933
7735.693
7738.217
7740.943
7745.137
7750.512
7754.275
7745.892
7680.917
7707.368
7735.906
7746.315
7748.225
7750.777
7755.685
7760.629
7764.04
7766.952
7770.147
7772.926
7775.003
7777.346
7781.17
7786.897
7793.561
7800.572
7808.537
7820.267
7832.591
7841.06
7848.614
7855.877
7862.617
7868.885
7875.265
7881.827
7889.197
7897.149
7904.973
7912.741
7921.63
7932.583
7951.047
7970.196
7983.844
7994.886
8007.156
8020.478
8032.675
8044.261
8055.313
8066.352
8077.645
8089.112
8100.401
8111.639
8122.773
8133.711
8144.006
8152.242
8156.079
8155.205
8156.945
8162.61
8172.075
8185.584
8198.303
8208.412
8218.644
8228.837
8239.366
8250.254
8261.182
8271.815
8282.068
8292.27
8302.463
8312.443
8321.701
8329.58
8337.01
8347.248
8360.947
8372.807
8379.998
8384.43
8387.831
8394.465
8403.49
8412.745
8422.364
8430.066
8438.143
8448.462
8464.461
8491.575
8513.913
8528.942
8543.406
8557.328
8569.038
8578.171
8585.965
8593.199
8600.173
8607.25
8614.3
8621.201
8628.192
8635.766
8644.324
8653.993
8666.618
8679.187
8687.807
8694.741
8702.772
8711.426
8719.616
8727.182
8734.31
8740.623
8746.898
8753.128
8759.656
8765.639
8771.266
8776.044
8780.36
8783.867
8786.51
8787.67
8786.862
8785.166
8785.487
8790.882
8802.035
8815.042
8826.689
8835.343
8841.706
8846.155
8848.827
8849.585
8847.94
8842.938
8840.402
4677.417
4816.027
4936.224
5039.004
5284.729
5386.262
5593.193
5723.065
5865.51
5912.084
6126.74
6211.204
6255.338
6325.973
6335.696
6347.304
6356.406
6349.564
6308.196
6302.186
6322.667
6346.387
6385.092
6440.047
6496.464
6574.611
6626.154
6681.472
6760.554
6780.851
6818.327
6838.931
6835.904
6805.841
6755.25
6692.597
6623.097
6562.383
6513.62
6472.229
6441.495
6417.517
6396.281
6378.092
6365.721
6362.923
6383.7
6422.554
6466.241
6529.146
6593.85
6641.965
6654.127
6629.222
6603.044
6591.919
6596.581
6631.256
6653.213
6637.855
6568.782
6458.832
6339.308
6199.995
6036.083
5879.833
5743.593
5629.672
5535.793
5458.095
5390.497
5337.187
5299.191
5277.022
5275.091
5293.579
5338.689
5421.211
5535.172
5674.425
5833.937
6023.061
6231.584
6434.643
6633.62
6821.167
6988.886
7133.397
7255.241
7355.964
7436.775
7500.508
7548.283
7582.052
7605.55
7623.223
7631.895
7630.794
7622.766
7606.081
7583.563
7559.666
7522.273
7470.726
7411.712
7339.613
7253.429
7152.104
7043.016
6922.84
6782.402
6619.593
6442.826
6270.063
6102.411
5947.473
5814.856
5720.002
5670.374
5672.045
5718.345
5804.405
5919.488
6061.131
6222.673
6394.803
6570.921
6744.172
6907.24
7055.864
7184.653
7292.827
7378.591
7441.562
7484.596
7509.624
7518.185
7514.986
7503.052
7483.41
7455.078
7419.175
7381.158
7343.467
7307.558
7280.376
7263.957
7254.688
7247.905
7243.734
7240.037
7234.266
7222.663
7213.515
7202.488
7186.011
7179.445
7182.091
7186.898
7188.954
7187.302
7181.272
7171.027
7161.124
7150.269
7139.206
7129.002
7120.509
7113.746
7108.061
7103.058
7098.727
7095.192
7092.518
7091.185
7091.77
7094.547
7099.841
7108.203
7117.767
7129.541
7142.897
7157.155
7171.92
7186.4
7200.275
7213.141
7224.788
7234.872
7243.429
7250.266
7256.002
7259.727
7262.322
7266.165
7272.405
7281.206
7291.434
7301.255
7310.651
7320.462
7330.863
7341.194
7351.435
7361.202
7369.532
7376.493
7382.328
7387.522
7392.305
7396.889
7401.293
7405.454
7409.53
7413.467
7417.237
7420.938
7424.425
7428.179
7431.759
7439.151
7447.858
7454.759
7460.746
7466.626
7472.63
7478.855
7485.603
7493.116
7501.494
7509.426
7516.362
7522.435
7528.334
7534.261
7539.594
7543.964
7548.989
7558.753
7568.715
7570.036
7564.704
7561.546
7561.035
7561.951
7565.506
7570.639
7576.691
7583.063
7589.615
7595.726
7600.858
7604.884
7607.791
7610.355
7612.972
7616.149
7620.085
7624.488
7630.002
7635.558
7639.637
7645.271
7650.324
7653.524
7656.647
7659.638
7661.951
7663.559
7665.034
7666.158
7667.03
7667.978
7669.107
7670.473
7672.032
7673.803
7675.787
7677.811
7680.478
7683.8
7686.65
7688.737
7690.401
7691.939
7693.289
7694.261
7695.123
7695.999
7697.008
7698.386
7700.294
7702.581
7705.478
7708.784
7712.164
7715.45
7718.422
7721.058
7723.536
7725.711
7727.303
7728.695
7730.475
7732.474
7734.537
7736.618
7738.944
7741.644
7744.748
7748.046
7751.129
7756.453
7755.704
7750.365
7748.255
7749.7
7751.84
7754.558
7757.527
7760.903
7764.514
7768.057
7771.784
7775.892
7779.836
7783.979
7788.803
7794.214
7800.799
7808.888
7817.609
7826.037
7834.421
7842.472
7850.673
7859.282
7867.822
7875.771
7883.613
7891.55
7899.953
7908.987
7918.593
7929.568
7940.681
7951.622
7962.991
7974.656
7986.843
7999.456
8012.576
8025.762
8038.61
8051.141
8063.134
8074.589
8085.756
8096.895
8108.001
8118.935
8129.41
8139.071
8147.497
8154.442
8158.308
8160.844
8165.579
8173.881
8184.78
8195.956
8206.817
8217.669
8228.468
8239.368
8250.251
8261.237
8272.048
8282.535
8292.693
8302.815
8313.085
8323.412
8333.469
8343.405
8352.175
8360.071
8368.226
8377.071
8383.013
8387.132
8396.598
8407.311
8415.419
8424.852
8435.335
8444.714
8458.79
8473.991
8496.84
8517.907
8533.144
8546.387
8557.105
8567.01
8576.209
8584.514
8592.26
8599.569
8606.586
8613.8
8621.609
8630.056
8639.199
8648.932
8658.983
8668.356
8677.048
8685.926
8694.715
8703.067
8711.012
8718.801
8726.328
8733.769
8741.08
8748.057
8754.252
8760.276
8766.034
8771.054
8775.649
8779.957
8783.795
8786.805
8788.748
8789.47
8789.855
8792.573
8797.8
8806.587
8816.598
8825.732
8833.174
8838.643
8842.357
8843.808
8842.654
8838.797
8832.386
8826.396
4355.537
4210.918
3940.177
4275.709
4242.137
4302.452
4249.571
4273.998
4301.147
4303.308
4335.39
4400.371
4478.25
4627.869
4815.373
5012.341
5209.504
5370.96
5550.277
5729.71
5864.733
6023.465
6127.788
6214.897
6296.12
6324.754
6351.159
6355.181
6348.422
6332.59
6317.645
6276.77
6295.761
6332.121
6379.596
6436.771
6501.01
6566.102
6631.366
6701.234
6770.048
6823.068
6857.603
6863.338
6832.404
6780.466
6721.125
6660.307
6590.517
6526.756
6474.096
6439.89
6419.617
6401.717
6380.191
6358.358
6341.759
6336.383
6348.599
6370.625
6413.806
6472.616
6529.852
6578.081
6587.561
6560.78
6546.08
6578.496
6619.144
6658.358
6682.17
6654.812
6565.628
6419.125
6230.623
6039.427
5861.34
5717.346
5612.654
5533.249
5467.441
5411.047
5356.255
5305.915
5268.303
5238.387
5217.218
5225.419
5263.164
5329.568
5435.114
5581.154
5739.165
5927.576
6131.848
6341.721
6547.846
6744.561
6924.304
7078.808
7209.911
7325.646
7419.237
7492.356
7549.368
7588.772
7614.392
7635.933
7651.015
7654.374
7645.683
7625.403
7603.057
7573.35
7533.826
7485.637
7427.008
7355.042
7267.565
7160.87
7035.862
6888.98
6717.551
6540.842
6362.145
6182.737
6010.117
5851.376
5718.038
5625.161
5579.34
5582.995
5638.916
5732.072
5853.195
5998.656
6162.18
6335.479
6512.266
6687.567
6852.866
7003.022
7134.63
7244.478
7331.148
7395.746
7439.336
7463.222
7470.981
7467.656
7454.86
7435.537
7411.017
7380.683
7347.149
7310.612
7277.711
7254.538
7240.356
7231.292
7226.971
7228.04
7228.377
7222.303
7212.717
7206.153
7199.915
7190.288
7184.555
7182.74
7186.668
7190.338
7190.39
7182.786
7168.348
7155.924
7144.315
7133.052
7123.31
7115.498
7109.269
7103.806
7098.761
7094.209
7090.234
7087.202
7085.592
7085.939
7088.645
7093.891
7101.49
7112.527
7125.564
7140.089
7155.487
7171.123
7186.34
7200.84
7213.95
7225.563
7235.458
7243.639
7250.217
7255.444
7259.933
7264.984
7271.619
7279.363
7287.278
7294.895
7302.418
7309.613
7315.954
7327.346
7339.864
7350.743
7362.751
7374.68
7381.184
7384.601
7387.938
7391.82
7396.187
7400.675
7404.896
7408.782
7412.192
7415.282
7418.716
7422.728
7427.719
7433.478
7440.994
7447.517
7454.376
7461.031
7467.178
7472.717
7478.423
7484.196
7490.703
7497.855
7507.267
7516.452
7523.929
7529.305
7536.395
7545.522
7555.451
7563.406
7570.1
7566.605
7558.935
7556.907
7552.736
7547.746
7550.974
7558.474
7569.262
7579.178
7585.567
7590.543
7595.462
7600.075
7604.144
7607.774
7610.951
7614.241
7617.857
7621.939
7626.154
7630.23
7634.296
7638.46
7642.364
7646.052
7649.897
7654.03
7657.911
7660.896
7663.135
7664.824
7666.39
7667.826
7669.264
7670.732
7672.228
7673.767
7675.441
7677.183
7679.074
7681.445
7684.115
7686.532
7688.716
7690.453
7691.945
7693.438
7694.83
7696.06
7697.223
7698.464
7699.709
7701.142
7702.961
7705.203
7707.816
7710.5
7713.165
7715.79
7718.323
7720.67
7722.936
7725.089
7727.064
7728.906
7730.708
7732.597
7734.34
7735.959
7737.284
7737.666
7736.741
7733.818
7729.48
7727.855
7730.565
7735.974
7742.233
7747.548
7751.41
7754.984
7758.855
7762.616
7766.019
7769.178
7773.226
7778.347
7783.49
7788.245
7793.589
7799.852
7807.919
7817.256
7826.448
7835.665
7844.242
7852.178
7859.68
7867.238
7874.959
7882.85
7890.894
7899.225
7907.847
7917.173
7927.074
7938.03
7950.26
7963.282
7976.638
7989.707
8002.416
8014.969
8027.262
8038.889
8050.036
8061.075
8072.24
8083.254
8094.114
8104.882
8115.442
8125.579
8134.987
8143.458
8150.839
8157.246
8162.767
8169.693
8178.3
8187.559
8198.231
8208.888
8219.788
8230.529
8241.134
8251.809
8262.462
8273.091
8283.578
8293.808
8303.937
8314.199
8324.797
8335.874
8347.229
8354.857
8359.693
8366.305
8375.397
8385.963
8396.492
8405.726
8415.238
8422.863
8430.792
8442.485
8453.767
8467.804
8481.013
8497.229
8514.477
8529.792
8541.31
8551.024
8561.275
8572.181
8581.806
8590.837
8599.308
8607.34
8615.235
8623.241
8631.56
8640.187
8649.084
8658.108
8667.355
8676.734
8686.025
8695.206
8703.241
8710.577
8718.351
8726.171
8733.579
8740.497
8747.111
8753.454
8759.349
8765.178
8770.582
8775.628
8780.22
8784.21
8787.475
8790.193
8792.44
8794.669
8797.931
8803.138
8809.999
8817.406
8824.266
8829.975
8834.461
8837.649
8839.512
8840.364
8840.611
8840.03
8839.917
4314.942
4341.251
4357.477
4425.695
4442.205
4401.502
4435.316
4475.26
4488.024
4416.657
4313.763
4290.551
4270.67
4211.221
4232.834
4226.694
4258.977
4239.674
4222.593
4204.078
4210.058
4256.016
4327.433
4432.944
4587.422
4784.89
4994.651
5184.554
5353.603
5550.829
5731.98
5881.557
6022.286
6137.013
6230.142
6295.36
6326.656
6344.767
6344.159
6328.592
6310.578
6294.575
6282.575
6283.248
6306.834
6348.628
6404.682
6472.597
6541.669
6618.687
6688.434
6749.649
6828.161
6888.076
6874.385
6834.635
6778.129
6704.95
6635.576
6565.19
6497.617
6445.402
6417.438
6404.628
6388.71
6363.128
6334.71
6313.342
6301.662
6300.91
6311.705
6350.398
6413.884
6478.089
6531.53
6558.052
6541.196
6532.243
6556.504
6603.489
6651.067
6669.962
6631.039
6517.273
6334.314
6103.897
5877.433
5698.149
5586.237
5515.905
5460.675
5413.977
5365.626
5315.73
5266.225
5216.83
5177.308
5151.218
5144.291
5158.93
5213.309
5322.839
5469.207
5631.771
5814.122
6019.421
6236.037
6453.72
6659.962
6846.516
7000.065
7141.048
7256.348
7361.693
7461.041
7537.693
7586.31
7620.487
7644.342
7661.745
7670.956
7669.359
7652.96
7627.083
7594.629
7551.439
7495.471
7429.03
7352.509
7259.065
7141.146
7001.393
6843.045
6670.212
6488.596
6301.646
6116.764
5941.054
5781.394
5649.483
5559.427
5518.813
5529.608
5588.815
5685.107
5808.137
5953.185
6114.428
6283.697
6457.57
6631.422
6796.758
6946.79
7077.748
7187.225
7272.868
7336.414
7378.294
7401.226
7408.133
7403.69
7391.298
7373.904
7354.859
7331.425
7305.769
7280.582
7256.457
7236.278
7221.492
7211.904
7208.421
7207.586
7205.924
7205.359
7202.661
7197.23
7191.345
7184.83
7181.559
7183.006
7186.015
7186.377
7182.052
7171.533
7157.457
7144.943
7132.938
7123.057
7115.678
7109.696
7104.301
7099.221
7094.345
7089.582
7085.218
7081.861
7080.017
7080.136
7082.744
7088.258
7097.502
7108.824
7122.693
7138.204
7154.6
7171.099
7187.111
7202.06
7215.58
7227.321
7237.411
7245.676
7252.437
7257.295
7260.698
7262.43
7266.298
7279.204
7294.746
7301.761
7305.63
7311.96
7320.331
7325.348
7335.578
7350.37
7359.673
7368.539
7374.811
7379.075
7383.977
7389.05
7394.032
7398.908
7403.477
7407.342
7410.534
7413.542
7417.081
7421.523
7428.242
7438.661
7444.078
7443.578
7450.354
7460.949
7468.293
7472.834
7477.273
7482.476
7488.563
7496.86
7505.034
7511.011
7519.62
7528.022
7534.506
7539.973
7549.82
7557.065
7559.014
7558.92
7556.91
7558.085
7560.277
7561.926
7561.912
7564.49
7570.754
7577.932
7584.374
7590.135
7595.859
7600.933
7605.193
7608.802
7612.061
7615.3
7618.886
7622.812
7626.852
7630.912
7635.301
7639.827
7644.28
7648.465
7652.547
7655.548
7657.993
7660.291
7662.475
7664.634
7666.674
7668.481
7669.997
7671.486
7673.08
7674.856
7676.694
7678.661
7680.847
7682.715
7684.576
7686.613
7688.654
7690.562
7692.326
7694.016
7695.512
7696.777
7697.929
7699.148
7700.441
7702.022
7703.856
7705.977
7708.451
7710.997
7713.597
7716.104
7718.479
7720.585
7722.474
7724.237
7725.851
7727.378
7728.961
7730.642
7732.366
7734.022
7735.743
7737.777
7739.899
7742.003
7743.902
7745.803
7747.645
7748.914
7750.3
7752.443
7755.202
7758.121
7761.118
7764.461
7768.149
7772.312
7776.467
7780.937
7786.122
7791.59
7797.536
7803.69
7810.71
7818.268
7825.935
7834.026
7842.045
7849.718
7857.534
7865.68
7873.917
7882.181
7890.612
7899.338
7908.601
7918.534
7929
7939.859
7950.969
7962.668
7974.711
7986.54
7998.334
8010.221
8022.128
8034.049
8046.083
8057.851
8069.238
8080.27
8091.081
8101.709
8112.162
8122.248
8131.821
8140.697
8148.808
8156.33
8163.549
8171.646
8180.408
8189.782
8199.813
8209.675
8219.979
8230.818
8241.646
8252.424
8262.887
8273.253
8283.555
8293.804
8303.945
8314.373
8324.971
8335.251
8345.704
8353.56
8360.545
8369.519
8379.529
8389.969
8399.736
8408.328
8417.364
8426.313
8435.406
8446.987
8458.659
8472.413
8484.454
8498.653
8514.226
8527.743
8539.17
8549.536
8559.468
8569.782
8580.142
8589.701
8598.67
8607.263
8615.662
8623.99
8632.463
8641.173
8650.087
8659.243
8668.443
8677.628
8686.618
8695.016
8702.954
8710.697
8718.413
8726.136
8733.669
8741.032
8747.912
8754.217
8760.054
8765.76
8771.207
8776.233
8780.839
8785.117
8788.869
8792.151
8794.97
8797.877
8801.572
8806.369
8811.974
8817.88
8823.587
8828.741
8832.949
8836.14
8838.341
8839.249
8839.064
8838.252
8837.453
4469.701
4465.545
4520.233
4373.659
4305.948
4229.854
4221.822
4224.655
4224.34
4239.725
4244.656
4302.983
4382.168
4417.743
4430.865
4405.181
4394.22
4416.49
4393.065
4295.306
4229.019
4199.81
4178.437
4161.4
4200.158
4283.254
4235.467
4155.788
4200.063
4207.565
4197.977
4213.823
4283.101
4387.294
4529.12
4720.723
4925.26
5107.725
5288.069
5481.331
5670.634
5825.315
5962.648
6081.046
6173.082
6244.449
6279.023
6293.055
6290.287
6271.904
6250.721
6228.451
6213.921
6213.738
6231.465
6273.317
6342.104
6412.642
6484.93
6560.175
6627.325
6702.03
6795.131
6871.877
6873.071
6817.302
6752.851
6691.569
6621.213
6529.653
6454.977
6408.808
6389.678
6382.045
6371.614
6348.385
6318.806
6293.88
6278.968
6274.092
6286.265
6325.224
6391.513
6462.878
6519.442
6565.56
6579.933
6588.199
6607.775
6642.546
6670.995
6673.716
6601.318
6449.249
6229.61
5977.323
5747.592
5582.502
5489.898
5441.44
5404.191
5373.547
5333.803
5282.321
5221.159
5159.89
5105.99
5069.709
5058.772
5069.658
5118.088
5204.305
5328.09
5489.806
5682.086
5893.271
6117.497
6346.3
6570.297
6782.436
6968.935
7103.317
7186.652
7287.667
7395.492
7504.617
7572.594
7611.013
7642.745
7664.901
7670.354
7663.196
7648.476
7624.722
7593.338
7549.651
7489.612
7420.221
7342.499
7243.066
7115.012
6965.419
6801.365
6626.673
6442.828
6254.82
6069.177
5893.622
5736.138
5607.875
5521.791
5485.489
5500.231
5563.428
5661.903
5784.332
5926.279
6082.143
6245.856
6413.735
6582.721
6745.057
6891.547
7018.085
7123.777
7205.826
7264.078
7300.939
7321.038
7326.931
7321.643
7310.307
7295.511
7279.205
7261.545
7243.737
7226.527
7210.304
7197.684
7188.816
7182.313
7179.31
7179.918
7181.49
7184.276
7181.989
7178.305
7176.45
7174.036
7170.747
7170.195
7172.992
7175.134
7171.714
7161.506
7146.986
7133.892
7123.736
7116.268
7110.645
7105.551
7100.02
7094.183
7088.69
7083.495
7078.764
7075.003
7073
7073.142
7075.94
7081.965
7091.187
7104
7119.207
7136.121
7153.683
7171.185
7187.881
7203.336
7217.124
7229.085
7239.257
7247.681
7254.671
7260.509
7265.341
7269.41
7272.732
7276.996
7288.319
7301.54
7309.063
7316.743
7328.516
7334.181
7342.027
7353.635
7357.108
7362.102
7369.494
7375.949
7382.319
7388.068
7393.131
7397.721
7401.981
7405.838
7409.041
7411.672
7415.855
7423.428
7431.094
7438.619
7441.832
7441.829
7447.134
7457.376
7467.108
7472.449
7475.812
7481.164
7489.87
7501.892
7507.684
7509.801
7518.608
7528.27
7533.607
7537.701
7543.786
7548.753
7551.351
7553.797
7555.988
7559.919
7565.022
7567.462
7566.504
7567.454
7570.914
7575.564
7581.961
7588.021
7593.708
7599.574
7604.91
7609.288
7612.901
7616.179
7619.567
7623.43
7627.608
7631.766
7635.889
7639.903
7643.821
7647.677
7651.562
7654.671
7656.892
7659.203
7661.699
7664.173
7666.486
7668.616
7670.47
7672.157
7673.762
7675.525
7677.463
7679.495
7681.43
7683.203
7684.844
7686.781
7688.752
7690.856
7692.873
7694.552
7695.992
7697.263
7698.474
7699.711
7701.094
7702.653
7704.348
7706.16
7708.153
7710.287
7712.456
7714.577
7716.665
7718.7
7720.6
7722.411
7724.115
7725.703
7727.229
7728.791
7730.424
7731.874
7733.134
7734.219
7735.036
7735.737
7736.01
7736.124
7736.916
7738.813
7741.591
7745.236
7749.278
7753.094
7756.701
7760.374
7764.204
7768.654
7773.886
7779.281
7784.704
7790.12
7796.157
7802.672
7809.073
7816.384
7824.18
7832.366
7840.549
7848.58
7856.618
7864.783
7873.036
7881.387
7889.999
7898.929
7908.227
7917.963
7928.15
7938.677
7949.845
7961.556
7973.629
7985.839
7997.867
8009.676
8021.262
8032.864
8044.459
8055.906
8067.095
8078.036
8088.734
8099.249
8109.625
8119.799
8129.625
8138.944
8147.648
8155.728
8163.983
8172.816
8181.992
8191.258
8201.333
8211.214
8221.54
8232.319
8243.345
8254.083
8264.444
8274.548
8284.826
8295.387
8305.723
8315.955
8326.568
8336.498
8346.009
8354.724
8363.563
8373.237
8382.848
8392.574
8401.996
8411.056
8420.781
8430.612
8440.995
8452.942
8464.204
8477.606
8489.073
8501.346
8514.517
8526.928
8538.29
8548.879
8558.754
8569.117
8579.569
8588.818
8597.749
8606.781
8615.727
8624.535
8633.343
8642.175
8651.073
8660.095
8669.132
8678.038
8686.617
8695.013
8703.158
8711.27
8719.118
8726.405
8733.643
8740.802
8747.79
8754.381
8760.631
8766.414
8771.727
8776.752
8781.567
8786.272
8790.256
8793.888
8797.361
8800.819
8804.675
8809.017
8813.81
8818.921
8823.936
8828.414
8832.053
8834.718
8836.479
8837.583
8838.139
8838.411
8839.049
4570.387
4570.646
4559.082
4550.365
4533.64
4513.151
4479.659
4427.566
4364.952
4291.491
4190.15
4158.269
4152.081
4177.987
4234.65
4296.064
4374.252
4458.2
4420.122
4461.398
4495.602
4491.292
4464.641
4364.991
4246.305
4190.368
4166.504
4155.304
4148.578
4123.346
4123.03
4158.745
4139.787
4149.519
4163.202
4136.505
4161.659
4220.304
4328.76
4468.791
4650.056
4846.314
5029.021
5211.746
5396.486
5579.439
5738.845
5872.325
5991.022
6081.869
6150.725
6192.697
6208.062
6206.967
6193.576
6174.053
6160.669
6154.517
6159.33
6183.457
6225.643
6275.678
6344.175
6428.135
6504.691
6567.937
6638.22
6730.682
6814.874
6840.333
6812.792
6751.417
6679.931
6605.19
6516.059
6438.911
6394.819
6380.062
6374.693
6360.827
6333.248
6302.074
6276.619
6264.308
6267.392
6290.91
6330.266
6387.18
6453.61
6524.978
6590.619
6643.228
6687.411
6720.514
6745.299
6748.603
6713.698
6603.274
6410.949
6160.44
5887.622
5657.387
5499.143
5411.778
5375.868
5352.367
5331.91
5301.296
5249.815
5178.048
5097.124
5022.507
4970.767
4943.294
4954.136
4999.603
5083.607
5206.51
5366.004
5553.098
5764.276
5984.563
6213.811
6443.124
6666.725
6873.973
7050.737
7189.21
7293.816
7381.4
7456.767
7532.494
7584.233
7618.99
7641.255
7652.144
7654.192
7643.233
7614.64
7578.059
7532.245
7472.32
7398.823
7312.979
7206.266
7074.713
6923.548
6759.434
6587.349
6407.691
6224.636
6043.477
5872.379
5721.373
5600.512
5521.302
5490.741
5510.231
5574.962
5671.119
5788.046
5921.795
6069.488
6224.969
6384.354
6545.786
6701.275
6841.704
6962.13
7060.073
7134.1
7185.985
7217.594
7233.149
7237.541
7231.865
7220.281
7208.111
7196.435
7185.54
7176.336
7169.598
7162.802
7156.315
7152.408
7151.437
7151.118
7150.343
7150.774
7151.796
7151.885
7152.621
7154.593
7154.733
7153.569
7154.46
7157.552
7158.689
7154.81
7146.405
7134.857
7123.698
7115.248
7109.073
7103.97
7098.847
7092.899
7086.684
7081.089
7076.289
7072.136
7069.028
7067.668
7068.519
7071.957
7078.523
7088.563
7101.992
7118.153
7135.961
7154.334
7172.317
7189.231
7204.857
7218.794
7230.872
7241.229
7250.085
7257.887
7265.39
7272.559
7281.991
7287.716
7284.749
7285.272
7295.126
7304.922
7314.38
7323.385
7333.421
7345.586
7352.477
7354.812
7360.957
7368.037
7375.144
7381.814
7387.817
7393.473
7398.442
7401.4
7402.628
7405.201
7411.722
7419.932
7427.238
7431.634
7435.677
7439.513
7442.327
7445.848
7452.305
7461.165
7467.994
7475.365
7483.983
7492.725
7500.59
7506.151
7510.963
7517.981
7525.48
7530.973
7535.38
7539.306
7544.336
7548.927
7550.908
7554.024
7557.391
7562.159
7566.116
7567.74
7569.981
7573.705
7578.109
7583.026
7587.668
7592.468
7597.785
7603.605
7609.305
7613.717
7617.297
7620.729
7624.395
7628.376
7632.484
7636.535
7640.498
7644.404
7648.191
7651.736
7654.85
7657.482
7660
7662.398
7664.663
7666.998
7669.469
7671.624
7673.336
7674.973
7676.762
7678.824
7681.109
7683.158
7685.017
7686.881
7688.55
7690.191
7692.031
7693.912
7695.564
7696.931
7698.11
7699.216
7700.395
7701.691
7703.129
7704.699
7706.346
7708.135
7710.072
7712.083
7714.064
7715.959
7717.799
7719.567
7721.245
7722.872
7724.351
7725.746
7727.119
7728.554
7729.991
7731.39
7732.904
7734.54
7736.292
7738.079
7739.824
7741.763
7744.027
7746.527
7749.379
7752.677
7756.011
7759.181
7762.39
7765.95
7769.956
7774.501
7779.427
7784.524
7789.819
7795.345
7801.033
7807.331
7814.912
7822.742
7831.028
7839.212
7847.298
7855.332
7863.434
7871.692
7880.144
7888.911
7898.013
7907.444
7917.2
7927.388
7937.984
7949.025
7960.449
7972.11
7983.89
7995.542
8007.12
8018.593
8030.066
8041.558
8053.063
8064.33
8075.329
8086.063
8096.659
8107.15
8117.502
8127.583
8137.207
8146.221
8154.824
8163.899
8173.378
8183.274
8192.635
8202.924
8212.671
8222.782
8233.377
8244.69
8255.456
8265.711
8275.728
8286.157
8296.797
8307.081
8316.822
8326.896
8336.707
8346.341
8355.758
8365.249
8374.864
8384.393
8394.128
8403.76
8413.421
8423.439
8433.701
8444.361
8455.986
8467.509
8479.645
8491.067
8502.792
8514.913
8526.733
8537.941
8548.627
8558.97
8569.661
8579.889
8588.777
8597.487
8606.666
8615.928
8624.996
8633.942
8642.88
8651.864
8660.756
8669.651
8678.509
8687.018
8695.455
8703.956
8712.257
8720.134
8727.318
8734.245
8741.259
8748.192
8754.879
8761.342
8766.996
8772.439
8777.806
8783.282
8787.923
8791.488
8795.189
8799.383
8803.388
8807.321
8811.295
8815.751
8820.327
8824.721
8828.481
8831.533
8834.074
8836.135
8837.574
8838.284
8838.753
8839.446
4563.314
4560.905
4550.476
4551.05
4546.504
4528.852
4491.005
4428.979
4343.222
4250.337
4169.235
4108.968
4090.958
4131.998
4217.231
4329.285
4396.682
4445.448
4485.961
4542.908
4567.861
4525.322
4456.909
4369.645
4283.014
4199.902
4162.565
4142.964
4127.105
4095.659
4063.182
4081.814
4161.885
4111.287
4077.418
4089.871
4115.019
4170.102
4270.437
4407.139
4570.29
4750.387
4934.713
5117.455
5296.382
5472.66
5628.953
5756.64
5869.137
5953.609
6014.355
6059.026
6082.094
6081.004
6061.327
6040.725
6021.278
6016.716
6031.973
6064.654
6111.762
6173.051
6243.007
6322.524
6399.064
6480.104
6579.749
6661.047
6722.377
6772.94
6786.485
6737.985
6632.789
6543.626
6482.42
6422.931
6382.396
6367.656
6361.758
6345.199
6314.826
6280.598
6251.341
6235.455
6236.45
6259.184
6305.677
6372.67
6451.356
6536.175
6627.963
6719.976
6796.736
6843.774
6870.514
6854.315
6782.915
6638.478
6411.426
6139.145