/*--------------------------------*- C++ -*----------------------------------*\
| =========                 |                                                 |
| \\      /  F ield         | foam-extend: Open Source CFD                    |
|  \\    /   O peration     | Version:     3.1                                |
|   \\  /    A nd           | Web:         http://www.extend-project.de       |
|    \\/     M anipulation  |                                                 |
\*---------------------------------------------------------------------------*/
FoamFile
{
    version     2.0;
    format      ascii;
    class       surfaceScalarField;
    location    "7";
    object      phi;
}
// * * * * * * * * * * * * * * * * * * * * * * * * * * * * * * * * * * * * * //

dimensions      [0 3 -1 0 0 0 0];

internalField   nonuniform List<scalar> 
275122
(
4.371813e-05
-5.889354e-05
-1.407251e-07
1.531614e-05
8.776576e-05
-9.02079e-05
-1.111788e-06
3.553924e-06
0.0001071276
-0.000115224
-1.418654e-07
8.238311e-06
0.0001392438
-0.0001465046
1.261561e-07
7.134624e-06
0.0001661142
-0.0001717153
7.076703e-08
5.530324e-06
0.0001784991
-0.0001796868
1.387996e-07
1.048931e-06
0.0001811959
-0.000181243
9.694591e-08
-4.988766e-08
0.0001796668
-0.000178711
4.803343e-08
-1.003822e-06
0.0001743301
-0.0001724073
-4.555293e-08
-1.877228e-06
0.0001653476
-0.0001624842
-8.301295e-09
-2.855123e-06
0.0001538268
-0.0001504457
5.645039e-08
-3.43754e-06
0.0001398664
-0.0001361532
6.938788e-08
-3.782573e-06
0.0001244694
-0.0001203099
7.913839e-08
-4.238638e-06
0.0001076842
-0.0001031803
8.920093e-08
-4.593061e-06
8.990432e-05
-8.64647e-05
6.741686e-08
-3.507039e-06
7.547171e-05
-6.920672e-05
4.007635e-07
-6.665757e-06
5.736287e-05
-5.351422e-05
4.95906e-08
-3.89824e-06
4.41888e-05
-3.872757e-05
-3.399202e-09
-5.457828e-06
2.839133e-05
-2.370932e-05
-1.989996e-07
-4.483009e-06
1.059065e-05
-5.314885e-06
8.29785e-08
-5.358745e-06
-2.363591e-06
5.459087e-06
-1.029334e-07
-2.992563e-06
-1.629139e-05
1.968361e-05
-1.478538e-08
-3.377428e-06
-3.343373e-05
3.77729e-05
3.744969e-07
-4.713664e-06
-5.103209e-05
5.423166e-05
1.760985e-08
-3.217182e-06
-6.151325e-05
6.389749e-05
-2.114333e-07
-2.172799e-06
-7.053102e-05
7.328938e-05
-1.954898e-07
-2.562873e-06
-8.103363e-05
8.222831e-05
2.779089e-08
-1.222469e-06
-8.181903e-05
8.046423e-05
4.232836e-08
1.31247e-06
-6.442073e-05
5.412882e-05
2.378217e-08
1.026813e-05
-1.68448e-05
1.798997e-05
-1.938504e-07
-9.513231e-07
7.610785e-05
-8.981649e-05
-5.34147e-07
1.424278e-05
0.000118028
-0.0001304387
-5.251885e-07
1.293587e-05
0.0001418333
-0.0001422052
-1.643176e-07
5.362108e-07
0.000158529
-0.0001625276
-1.574366e-07
4.155971e-06
0.0001697961
-0.0001705094
-1.27753e-07
8.411213e-07
0.0001738825
-0.0001739012
-3.82794e-07
4.015501e-07
0.0001712356
-0.0001698911
-2.053021e-07
-1.139172e-06
0.0001643148
-0.000160317
6.321878e-08
-4.060939e-06
0.000141378
-0.000138238
2.518714e-07
-3.391886e-06
0.0001395567
-0.0001453542
-1.506412e-08
5.812592e-06
-1.195652e-06
6.857404e-05
-6.340161e-05
-1.049153e-08
-3.966283e-06
8.311275e-07
4.909697e-05
-4.561574e-05
-6.026874e-08
-4.252094e-06
2.574044e-06
3.790957e-05
-3.193667e-05
-2.582762e-08
-8.521111e-06
3.780822e-06
1.809113e-05
-1.394616e-05
-5.149188e-08
-7.8743e-06
4.269746e-06
1.192297e-07
1.654696e-06
-2.264232e-08
-6.021029e-06
4.066701e-06
-1.215823e-05
1.668004e-05
-3.287056e-08
-8.555642e-06
4.755937e-06
-2.826354e-05
3.267542e-05
-2.13624e-07
-8.954191e-06
2.501931e-06
-3.652272e-05
3.908794e-05
-3.22992e-07
-4.744162e-06
1.910884e-06
-4.411087e-05
4.406409e-05
-5.827994e-07
-1.281297e-06
6.462117e-06
-0.0002330985
0.0002544978
2.612388e-07
-5.6255e-05
9.268703e-06
9.976335e-06
8.887318e-06
6.682993e-06
-0.000289687
0.0003213713
-7.214841e-07
-5.857238e-05
7.393879e-06
6.91196e-06
6.620811e-06
3.034412e-06
-0.00035431
0.0003781526
-7.181573e-07
-3.877234e-05
3.600557e-06
3.936619e-06
5.076269e-06
5.32303e-06
-0.0003930335
0.0003990604
-1.029204e-07
-2.840095e-05
5.574288e-06
5.709252e-06
5.870393e-06
5.481853e-06
-0.0004036928
0.000401568
-7.966091e-08
-2.130128e-05
6.218202e-06
5.294234e-06
6.511481e-06
4.935252e-06
-0.0004022338
0.0004018581
-9.590854e-07
-1.870937e-05
4.983833e-06
4.766372e-06
5.358657e-06
4.654378e-06
-0.0004029303
0.000407839
-8.214685e-07
-2.174567e-05
4.007368e-06
4.838675e-06
4.158041e-06
1.780711e-06
-0.0004156971
0.0004269856
-5.754879e-07
-1.695558e-05
1.394641e-06
1.743111e-06
1.324167e-06
-2.560383e-06
-0.0004424743
0.0004577948
9.504015e-08
-3.882025e-06
-2.7864e-06
-2.500019e-06
-3.686653e-06
3.64142e-06
-0.0004511131
0.0004749732
-7.133431e-08
-1.193176e-05
-5.155323e-06
-1.429621e-06
-8.913462e-06
4.28873e-06
-0.0004936214
0.0004794171
1.456858e-06
-1.458854e-05
7.787756e-06
4.773077e-06
1.048649e-05
8.500764e-06
-0.0004672086
0.0004561807
3.767457e-06
-3.030608e-05
8.693602e-06
1.222954e-05
8.142578e-06
6.918622e-06
-0.0004353522
0.0004098662
4.880818e-06
-5.026671e-06
7.433107e-06
6.321671e-06
4.958462e-06
1.060548e-07
-0.0003799657
0.0003532337
2.196634e-06
2.800727e-05
-1.67103e-06
-5.867528e-07
-1.320087e-06
-1.437269e-05
-0.0003262176
0.0002912612
3.08293e-06
8.005334e-05
-9.934014e-06
-1.091065e-05
-1.29625e-05
-1.924952e-05
-0.0002432855
0.0001911779
3.233147e-06
0.0001240835
-2.135894e-05
-1.722395e-05
-1.737657e-05
-1.132198e-05
-0.0001098614
3.764605e-08
-2.019798e-06
0.0001741515
-2.119348e-05
-1.306281e-05
-1.672969e-05
-2.205387e-05
9.951792e-05
-0.0001966514
-3.251602e-06
0.0002174746
-3.350024e-05
-2.877595e-05
-3.275947e-05
-4.910887e-05
0.0003044246
-0.000353276
1.690514e-07
0.0002657013
-6.173309e-05
-4.750844e-05
-5.866865e-05
-0.0001777834
0.0003793893
-0.0004119981
-3.565105e-07
0.0002107487
-0.0001107239
0.0004565315
-0.0005093202
-5.501837e-07
0.0001640629
-7.936493e-05
0.0005508279
-0.0006007248
1.911344e-07
0.0001290708
-7.267541e-05
0.0006203363
-0.0006496201
3.796198e-07
0.0001015795
-4.412254e-05
0.0006675153
-0.0006923149
1.373735e-07
6.878482e-05
-2.644791e-05
0.0006995226
-0.0007113841
2.932474e-07
3.801616e-05
-6.378639e-06
0.0007154941
-0.0007187613
2.580856e-07
9.387817e-06
1.346977e-05
0.0007148655
-0.0007131165
4.515338e-08
-1.526398e-05
2.537833e-05
0.0007049277
-0.0006932295
-3.46572e-08
-3.704189e-05
3.749807e-05
0.0006781212
-0.0006590759
3.371513e-08
-5.657706e-05
4.527856e-05
0.0006411814
-0.0006117573
-1.103537e-07
-7.459234e-05
5.614488e-05
0.0005906577
-0.0005551504
-2.493678e-07
-9.140281e-05
6.549175e-05
0.0005272381
-0.0004870131
-1.937406e-07
-0.000105523
7.063037e-05
0.0004552456
-0.0004108297
-5.318018e-07
-0.0001145144
7.528472e-05
0.0003800217
-0.000342837
-6.722256e-07
-0.0001117971
6.834487e-05
0.0003114302
-0.0002644508
-2.141669e-07
-0.0001151101
7.61841e-05
0.0002301982
-0.0001833681
-2.290729e-07
-0.0001227852
6.199539e-05
0.0001340406
-8.865712e-05
4.688628e-07
-0.0001078478
8.507597e-05
5.946246e-05
-2.288303e-05
-2.45971e-07
-0.0001214094
5.450213e-05
-1.149449e-05
6.57021e-05
5.864216e-07
-0.0001092962
6.877816e-05
-0.0001021514
0.0001408724
2.747025e-07
-0.0001077738
7.537326e-05
-0.0001738429
0.0001986034
3.910417e-08
-0.0001001728
6.594796e-05
-0.0002419072
0.0002647505
1.546577e-07
-8.894586e-05
5.392928e-05
-0.0002997605
0.0003241464
-8.65236e-08
-7.822865e-05
5.38755e-05
-0.0003528345
0.0003676062
-1.129991e-07
-6.853421e-05
2.663032e-05
-0.0003876361
0.0004001227
6.918017e-07
-3.980869e-05
1.893971e-05
-0.000412367
0.0004256392
3.552682e-08
-3.224739e-05
-9.643407e-06
-0.0004378351
0.0004527242
-1.195909e-07
-5.126049e-06
-8.448461e-05
-0.0004760559
0.0005342718
1.262507e-07
2.614246e-05
-7.772262e-06
-0.0005452184
0.0005443628
5.42351e-07
4.798613e-05
-1.574746e-05
-9.408672e-06
-1.474452e-05
-5.424957e-06
-0.0005714839
0.0005555978
-4.266934e-07
2.995658e-05
-2.509952e-07
-6.475685e-06
-1.49213e-06
-2.636602e-06
-0.0005419509
0.0005371354
-2.765454e-07
1.519144e-05
-2.165123e-06
-2.524637e-06
-2.773094e-06
-1.46085e-06
-0.0005271869
0.0005144551
-4.821767e-07
1.883613e-05
-1.389585e-06
-1.097137e-06
-1.674566e-06
-1.099935e-06
-0.0005017541
0.0004893815
-9.252758e-08
1.756089e-05
-1.383261e-06
-1.251964e-06
-1.360562e-06
-1.047985e-06
-0.0004771629
0.0004631913
4.482771e-07
1.761957e-05
-1.10153e-06
-1.044377e-06
-9.024023e-07
-4.956672e-07
-0.0004483032
0.0004320494
6.426957e-07
1.749205e-05
-4.551352e-07
-4.677078e-07
-4.623467e-07
3.754448e-08
-0.0004130368
0.0003932915
5.360892e-07
1.909235e-05
-1.144862e-07
4.57007e-08
1.480715e-07
-7.213806e-08
-0.0003761529
0.0003576651
-3.004414e-06
2.02544e-05
-2.643202e-08
2.889296e-07
1.047493e-06
9.792725e-07
-0.0003346423
0.0003111172
1.924231e-06
1.912089e-05
7.625417e-07
2.987025e-07
4.395069e-07
-7.401819e-08
-0.0002899203
0.000272919
2.439793e-06
1.629858e-05
-4.272008e-07
-4.845632e-07
-7.512983e-07
-1.307268e-06
-0.0002644511
0.0002603128
-3.711398e-07
1.2913e-05
-1.443441e-06
-3.439524e-06
-2.213346e-06
-5.285299e-06
-0.0002519014
0.000243555
-2.12865e-06
2.437201e-05
-3.10067e-06
-3.067587e-06
-2.443377e-06
-3.032252e-06
-0.0002307837
0.0002146388
-2.567101e-06
3.467035e-05
-3.124211e-06
-4.786562e-06
-5.015337e-06
-1.993457e-06
-0.0001976298
0.0001879815
1.313573e-06
1.619686e-05
-1.632428e-06
-2.177931e-06
-2.058339e-06
-1.744164e-06
-0.0001832228
0.0001861186
1.311116e-06
1.994965e-06
-1.551495e-06
-1.612161e-06
-1.294083e-06
1.466216e-06
-0.0001904525
0.0001934539
1.212032e-06
-1.2592e-05
1.737957e-06
2.625289e-06
2.549105e-06
2.822605e-06
-0.0001951619
0.0001983967
1.430237e-06
-1.326904e-05
3.022109e-06
1.291248e-06
1.468099e-06
1.311361e-06
-0.0001988404
0.0002013627
7.615889e-07
-8.381033e-06
1.620007e-06
1.313555e-06
8.522855e-07
7.607982e-07
-0.0002022921
0.0002028283
-3.618672e-08
-2.667001e-06
3.126342e-07
4.92973e-07
6.005677e-07
-2.802505e-07
-0.0002036168
0.0002027608
-4.449333e-07
2.198755e-06
-3.377174e-07
-1.228143e-07
-1.569969e-07
-1.268497e-06
-0.0001990704
0.0001948565
-2.496695e-07
9.358483e-06
-1.139688e-06
-1.000956e-06
-1.485783e-06
-1.077977e-06
-0.0001918485
0.0001879495
4.18863e-08
1.041284e-05
-9.696347e-07
-1.989973e-06
-2.518159e-06
-2.2821e-06
-0.0001828746
0.0001797158
5.460534e-08
1.09365e-05
-2.381223e-06
-1.46638e-06
-1.702585e-06
-1.623828e-06
-0.0001784402
0.0001753078
2.806489e-07
9.347341e-06
-1.903645e-06
-1.256544e-06
-1.71159e-06
-2.048825e-06
0.0001706939
4.399046e-07
8.672644e-06
-2.002825e-06
-1.281738e-06
-1.425835e-06
-0.0001730472
-1.810864e-06
-0.0001693047
0.0001680863
1.931181e-07
8.445189e-06
-1.762384e-06
-1.954258e-06
-1.89237e-06
-1.881891e-06
-0.0001668605
0.0001655135
-1.158322e-07
8.580755e-06
-1.775584e-06
-1.761356e-06
-1.699093e-06
-1.193065e-06
-0.0001650799
0.0001640306
-3.973415e-07
7.102951e-06
-1.351051e-06
-1.453453e-06
-1.658754e-06
-8.781169e-07
-0.0001629925
0.0001611197
-2.47534e-07
5.817899e-06
-9.81018e-07
-7.300842e-07
-1.108354e-06
-1.174706e-06
-0.0001601809
0.0001585013
8.254927e-08
5.696657e-06
-1.100814e-06
-7.069433e-07
-1.117133e-06
-1.224106e-06
-0.0001571979
0.0001559468
1.656342e-07
5.740737e-06
-1.331638e-06
-8.464363e-07
-1.2531e-06
-9.889691e-07
-0.0001552336
0.0001546732
1.777026e-07
5.095352e-06
-1.184771e-06
-1.263441e-06
-1.275478e-06
-8.95477e-07
-0.000153649
0.0001533726
1.663481e-07
4.021738e-06
-1.160808e-06
-8.679516e-07
-9.874504e-07
-5.302586e-07
-0.0001528518
0.0001520193
1.604839e-07
2.854376e-06
-5.275543e-07
-6.757143e-07
-4.488005e-07
-6.33811e-07
-0.0001522052
0.0001534464
-9.689307e-08
1.000606e-06
-7.512507e-07
-3.805479e-07
-3.793654e-07
-2.944941e-07
-0.000154941
0.000156768
2.928959e-09
-3.039221e-07
-8.380205e-08
-6.066817e-07
-5.409695e-07
-1.903814e-07
-0.0001582622
0.00016011
1.230942e-07
-1.538583e-06
6.944797e-08
-1.933071e-07
-1.180861e-07
-3.411935e-07
-0.0001625845
0.0001657183
2.541934e-07
-2.821419e-06
-1.339352e-07
-9.112567e-08
-3.050421e-10
-3.514884e-07
-0.0001677971
0.0001711263
3.648927e-07
-4.082476e-06
1.14073e-07
1.875239e-07
4.382871e-07
2.713264e-07
-0.0001736023
0.0001741812
5.712036e-07
-3.525114e-06
4.856171e-07
5.429242e-07
1.075197e-06
-4.217977e-07
-0.0001747404
0.0001726368
1.002606e-06
-3.741239e-06
7.974558e-07
2.399409e-06
2.067175e-06
-2.462424e-07
-0.0001693009
0.0001678778
6.496556e-07
-1.337021e-06
2.588888e-07
1.360112e-06
7.377687e-07
-8.577243e-07
-0.0001696368
0.0001728084
5.571803e-07
-1.874608e-06
-6.095147e-07
-4.696554e-07
8.276054e-08
-5.943986e-07
-0.000174707
0.0001774195
6.086581e-07
-1.307195e-06
-1.066226e-07
-1.398154e-06
8.523727e-08
-6.543006e-07
-0.0001785239
0.0001789852
2.846914e-07
8.499468e-07
6.237375e-09
-1.256061e-06
3.082293e-07
-9.982149e-07
-0.0001794961
0.0001787808
5.382486e-07
2.585587e-06
-4.777147e-08
-1.633861e-06
2.713513e-07
-1.276363e-06
-0.000177083
0.0001768475
5.88266e-07
5.539187e-06
-1.089556e-06
-2.670422e-06
-8.556266e-07
-2.459666e-06
-0.0001759718
0.0001811428
2.782264e-07
8.803442e-06
-2.811379e-06
-4.858799e-06
-4.122814e-06
-7.110984e-06
-0.0001795475
0.0001948735
-2.825903e-07
9.673774e-06
-9.283827e-06
-1.499896e-06
-6.822451e-06
-4.108642e-06
-0.0001786164
0.0001758031
4.484648e-07
1.928167e-05
-6.444346e-06
-4.110301e-06
-2.253608e-06
6.301884e-07
-0.0001677986
0.0001628334
3.296574e-07
-1.35778e-06
2.480538e-06
1.626856e-06
1.25575e-06
6.628257e-07
-0.0001517745
0.0001416277
9.453283e-07
5.004622e-06
8.476779e-07
6.691837e-07
2.017099e-06
5.490192e-07
-0.000134373
0.0001298896
-7.236136e-07
1.368809e-06
5.593871e-07
1.3017e-06
1.428067e-06
7.719842e-07
-0.0001274533
0.0001253337
-3.005198e-07
4.98731e-07
2.978485e-07
5.069997e-07
3.445396e-07
-3.904436e-09
-0.0001269603
0.0001299863
-1.042152e-06
-2.604361e-06
3.59264e-08
2.895262e-07
2.989011e-07
6.000308e-07
-0.0001348066
0.0001382279
-9.079311e-07
-5.29611e-06
7.341975e-07
6.143423e-07
8.341354e-07
1.042745e-06
-0.0001437904
0.0001445864
-6.998372e-07
-6.565607e-06
1.920972e-06
1.670116e-06
1.83562e-06
2.646343e-06
-0.0001471632
0.0001514858
-1.438315e-06
-1.308716e-05
2.726333e-06
3.186649e-06
1.643601e-06
2.078369e-06
-0.0001524419
0.0001564934
-6.106113e-07
-9.800735e-06
1.396598e-06
1.828666e-06
1.056279e-06
1.675911e-06
-0.0001615933
0.0001677847
-8.681595e-07
-1.047007e-05
1.3782e-06
9.966965e-07
1.096025e-06
1.901691e-06
-0.0001725107
0.0001783439
-3.902914e-07
-1.114186e-05
1.181913e-06
1.29938e-06
1.315918e-06
1.472913e-06
-0.0001825593
0.0001854293
-2.740703e-07
-8.342901e-06
1.559838e-06
1.608444e-06
1.105831e-06
8.878164e-07
-0.0001877464
0.0001914814
-1.484391e-07
-7.117631e-06
6.58075e-07
9.602492e-07
1.024948e-06
4.438477e-07
-0.000194768
0.0001987985
2.914459e-08
-5.752902e-06
4.458897e-07
4.388127e-07
3.647078e-07
6.914562e-07
-0.0002031755
0.0002056768
2.011697e-07
-4.842703e-06
5.237802e-07
3.594398e-07
5.655489e-07
3.393567e-07
-0.000207359
0.0002078038
2.65049e-07
-1.87282e-06
3.854553e-07
2.292727e-07
2.089422e-07
3.007614e-08
-0.0002091161
0.0002106944
1.349622e-07
-1.810896e-06
1.69267e-08
3.572388e-08
1.487526e-08
-1.682046e-08
-0.0002121847
0.0002132616
-5.637087e-08
-9.188974e-07
-3.203657e-08
-1.970571e-08
-3.304254e-08
-8.172774e-08
-0.0002140039
0.0002146809
-1.765111e-07
-1.584385e-07
-1.001756e-07
-4.153408e-08
-1.18588e-07
-2.144585e-07
-0.0002152479
0.0002158214
-2.003354e-07
3.853325e-07
-2.287988e-07
-1.472417e-07
-1.680656e-07
-2.823528e-07
-0.0002166901
0.0002172866
-9.759026e-08
5.956286e-07
-2.923708e-07
-2.543963e-07
-2.654317e-07
-3.019793e-07
-0.0002178545
0.0002180727
4.070349e-08
9.333503e-07
-2.876758e-07
-3.020209e-07
-3.00579e-07
-2.398811e-07
-0.0002183215
0.0002181506
1.170807e-07
1.150385e-06
-2.473624e-07
-3.209874e-07
-2.883529e-07
-4.337788e-07
-0.0002179983
0.0002179153
1.847588e-07
1.378038e-06
-3.001814e-07
-3.53546e-07
-3.923153e-07
-4.949759e-07
0.0002182037
2.163262e-07
1.495313e-06
-0.0002177436
-5.500215e-07
-5.50014e-07
-5.767212e-07
-6.57659e-07
-0.0002185624
0.0002187706
1.544001e-07
2.338236e-06
-6.684396e-07
-6.793556e-07
-6.953041e-07
-6.378674e-07
-0.0002184421
0.0002180372
1.154333e-08
2.960783e-06
-6.462964e-07
-6.397769e-07
-6.435057e-07
-5.923647e-07
-0.0002172933
0.0002156498
-4.621388e-09
3.968766e-06
-5.849923e-07
-5.908695e-07
-5.523292e-07
1.132881e-07
-0.0002143431
0.0002153598
8.288832e-08
-1.273182e-06
1.887991e-07
1.433516e-07
-2.718731e-07
1.779792e-07
-0.0002168331
0.0002192514
-8.154878e-08
-2.329565e-06
-2.464802e-07
2.354024e-07
-1.741007e-07
2.077238e-08
-0.0002257917
0.0002324219
-2.65477e-07
-6.515228e-06
3.601272e-08
1.093901e-08
8.272787e-08
2.812023e-07
-0.0002382625
0.000243937
-1.915444e-07
-6.648826e-06
2.908685e-07
2.930577e-07
3.00807e-07
4.526214e-07
-0.0002486436
0.0002534436
5.019981e-08
-6.463151e-06
2.968659e-07
4.38251e-07
4.252076e-07
2.911811e-07
-0.0002569823
0.000260238
2.973926e-07
-4.834493e-06
2.734319e-07
3.671492e-07
3.496581e-07
5.433332e-07
-0.0002629331
0.0002664056
3.751966e-07
-5.761186e-06
5.622971e-07
5.933318e-07
2.144887e-07
1.382242e-06
-0.0002693501
0.0002732715
4.541244e-08
-8.612566e-06
1.828585e-06
6.621747e-07
7.727671e-07
1.717899e-06
-0.0002844174
0.0003021939
-6.97162e-07
-2.51753e-05
2.257206e-06
2.217051e-06
1.903851e-06
9.010109e-07
-0.0003170762
0.0003264589
-5.305858e-07
-1.45964e-05
1.655925e-06
2.153789e-06
1.033612e-06
2.182492e-06
-0.0003391698
0.0003383076
7.643993e-07
-8.668271e-06
3.601192e-06
1.797556e-06
1.18492e-06
9.021775e-07
-0.0003376154
0.000334203
5.663223e-07
-2.426525e-06
2.069305e-06
1.448804e-06
8.523895e-07
2.504155e-07
-0.0003323527
0.0003315295
3.251834e-07
-1.116624e-06
7.393829e-07
4.841823e-07
1.407365e-07
-3.291126e-07
-0.0003316365
0.000330962
2.740968e-08
8.899933e-07
3.425419e-07
-3.028114e-08
-2.26078e-07
-3.852305e-07
-0.000331522
0.0003298655
-8.711176e-08
1.457994e-06
6.603369e-07
5.851099e-08
-4.806834e-08
-1.875931e-07
-0.0003294638
0.0003263639
-4.373241e-08
2.077975e-06
7.627704e-07
1.868052e-07
3.037185e-07
-1.80911e-07
-0.0003253331
0.0003239281
-3.625621e-07
2.818721e-06
6.878794e-08
-3.411274e-07
-5.978717e-07
-7.43328e-07
-0.0003246955
0.0003235008
-6.731483e-07
3.858759e-06
-1.509082e-07
-4.254719e-07
-6.711783e-07
-8.965629e-07
-0.0003235637
0.0003214514
-6.410693e-07
5.571483e-06
-4.116078e-07
-6.127598e-07
-8.971726e-07
-1.152104e-06
-0.0003198539
0.0003128644
-1.470069e-07
1.122828e-05
-7.171432e-07
-9.666192e-07
-1.25592e-06
-3.801809e-06
-0.0003026474
0.0002781526
3.221291e-07
4.20988e-05
-4.705313e-06
-3.876569e-06
-5.542362e-06
-1.250049e-05
-6.043218e-05
6.590209e-05
-2.100905e-08
7.051597e-06
1.168425e-06
-5.594545e-05
5.258103e-05
9.728771e-08
2.098706e-06
2.000191e-06
-5.307922e-05
5.322117e-05
3.029598e-07
-2.445107e-06
4.61823e-07
-5.259999e-05
5.242735e-05
3.694116e-07
-6.585954e-07
4.891389e-07
-5.255105e-05
5.395566e-05
4.761337e-07
-2.369887e-06
-1.350201e-06
-5.652727e-05
5.558031e-05
-9.219479e-07
3.219116e-06
6.971569e-07
-5.934742e-05
6.050823e-05
-4.622053e-07
-1.39577e-06
5.446528e-07
-6.367111e-05
6.408083e-05
-2.370429e-07
-7.173266e-07
-1.548402e-07
-6.524327e-05
6.587452e-05
-2.351454e-07
-2.412694e-07
-2.190169e-07
-6.684622e-05
6.722923e-05
-1.557814e-07
-8.205044e-09
-3.017954e-07
-6.785383e-05
6.799376e-05
-1.772197e-07
3.390849e-07
-2.997095e-07
-6.860645e-05
6.878261e-05
-1.409873e-07
2.645336e-07
-2.782379e-07
-6.936597e-05
6.958167e-05
-1.192431e-07
1.81774e-07
-9.380047e-09
-6.986559e-05
7.018221e-05
-3.690353e-08
-2.703361e-07
-1.126364e-07
-7.128324e-05
7.192005e-05
4.125759e-08
-5.654376e-07
-3.558858e-07
-7.244516e-05
7.249091e-05
-1.246821e-07
4.348145e-07
-4.269946e-07
-7.274322e-05
7.295853e-05
-2.074062e-07
4.19089e-07
-3.024558e-07
-7.393832e-05
7.44446e-05
-3.881558e-07
1.843288e-07
-2.638816e-06
-7.535302e-05
7.598879e-05
-8.578473e-07
2.860884e-06
1.269447e-06
-7.643993e-05
7.940877e-05
-6.780897e-08
-4.17047e-06
6.740948e-07
-8.095866e-05
8.121222e-05
2.718523e-07
-1.199512e-06
2.474895e-07
-8.310411e-05
8.33827e-05
1.476505e-07
-6.737233e-07
-6.342267e-07
-8.346328e-05
8.34316e-05
9.373718e-09
6.565281e-07
-8.660717e-08
-8.170651e-05
8.318807e-05
8.926991e-08
-1.484219e-06
1.285091e-07
-8.532086e-05
8.636495e-05
1.177633e-07
-1.290357e-06
9.625976e-08
-8.718817e-05
8.748163e-05
1.92248e-07
-5.819659e-07
-4.471278e-07
-8.780167e-05
8.748046e-05
8.191039e-08
6.86429e-07
-5.917737e-07
-8.674016e-05
8.651251e-05
1.301411e-07
6.892779e-07
-5.414128e-07
-8.587083e-05
8.56781e-05
8.498997e-08
6.491468e-07
-2.301737e-07
-8.533751e-05
8.534304e-05
7.640743e-08
1.482416e-07
-4.311553e-07
-8.543413e-05
8.518474e-05
1.152851e-07
5.652618e-07
-4.902453e-07
-8.466195e-05
8.436477e-05
1.607965e-07
6.26629e-07
-5.027276e-07
-8.375657e-05
8.373852e-05
4.857297e-08
4.722031e-07
-3.914456e-07
-8.353443e-05
8.347407e-05
-1.40541e-08
4.658574e-07
-4.322953e-07
-8.334062e-05
8.332671e-05
-2.104692e-08
4.672534e-07
1.490054e-07
-8.364069e-05
8.359506e-05
-1.062619e-08
-9.274934e-08
7.87929e-08
-8.316074e-05
8.288732e-05
1.467984e-08
1.799479e-07
3.168629e-07
-8.219771e-05
8.207769e-05
-1.271861e-08
-1.841219e-07
3.650258e-07
-8.162693e-05
8.135592e-05
-5.492891e-08
-3.908467e-08
9.121783e-07
-8.299591e-05
8.311276e-05
3.396292e-08
-1.062987e-06
5.720097e-07
-8.362836e-05
8.367802e-05
1.386982e-08
-6.355327e-07
4.262086e-07
-8.380956e-05
8.384747e-05
-2.02513e-08
-4.438744e-07
4.27883e-07
-8.385403e-05
8.386617e-05
-8.35755e-09
-4.316655e-07
3.443923e-07
-8.376672e-05
8.375996e-05
3.015981e-09
-3.406472e-07
3.345514e-07
-8.369623e-05
8.357446e-05
1.391114e-08
-2.266945e-07
2.694666e-07
-8.311833e-05
8.292128e-05
2.199016e-08
-9.440188e-08
3.612134e-07
-8.252277e-05
8.240397e-05
6.198938e-08
-3.043956e-07
3.381418e-07
-8.179693e-05
8.164627e-05
1.091552e-07
-2.966332e-07
2.620729e-07
-8.075544e-05
8.059473e-05
1.068572e-07
-2.082206e-07
3.583134e-07
-8.025544e-05
8.012232e-05
7.276956e-08
-2.979618e-07
8.894182e-07
-8.029933e-05
8.065063e-05
-4.987596e-08
-1.190842e-06
4.746253e-08
-8.377176e-05
8.709393e-05
-4.692965e-07
-2.900337e-06
3.123784e-06
-8.692817e-05
8.849114e-05
3.382957e-07
-5.025044e-06
1.152894e-06
-8.985448e-05
9.117216e-05
4.971744e-07
-2.967749e-06
7.28084e-07
-9.197496e-05
9.244208e-05
1.8405e-07
-1.379256e-06
4.924679e-07
-9.238093e-05
9.248468e-05
1.061706e-07
-7.023839e-07
6.352334e-07
-9.261449e-05
9.276559e-05
6.665124e-08
-8.529825e-07
7.488959e-07
-9.323953e-05
9.336715e-05
-4.817326e-08
-8.283378e-07
4.874495e-07
-9.382324e-05
9.383038e-05
-8.476283e-08
-4.098201e-07
1.15062e-06
-9.511566e-05
9.571706e-05
-1.543121e-07
-1.597707e-06
-1.039542e-07
-9.818428e-05
9.809794e-05
-2.661567e-07
4.564568e-07
9.04769e-07
-9.923043e-05
9.933079e-05
1.153329e-07
-1.120464e-06
2.827177e-07
-9.86389e-05
9.817008e-05
1.847482e-07
1.352209e-09
1.390098e-07
-9.743247e-05
9.720033e-05
1.276297e-07
-3.450501e-08
8.75977e-08
-9.607495e-05
9.553939e-05
1.853697e-07
2.625946e-07
-9.323222e-08
-9.385682e-05
9.336295e-05
1.421611e-07
4.449444e-07
1.784328e-07
-9.195012e-05
9.164443e-05
5.960154e-08
6.765739e-08
-2.984986e-08
-9.225326e-05
9.263133e-05
-2.204424e-07
-1.277838e-07
1.171802e-06
-9.251975e-05
9.196009e-05
2.2256e-07
-8.346983e-07
-6.868014e-06
-8.676169e-05
8.582383e-05
9.790476e-08
7.707969e-06
5.23066e-06
-7.908773e-05
0.0003455876
1.794028e-07
1.596535e-05
-2.994334e-06
6.072016e-06
-2.778333e-06
-7.446521e-05
-0.0001107289
-0.0001029806
-2.388575e-07
-0.0003368351
0.0003371966
1.456093e-08
8.946446e-07
-1.537745e-07
-3.135977e-07
-5.64531e-07
-1.671762e-07
-0.0003335716
0.000332417
-3.347875e-08
1.14083e-06
1.874909e-07
5.860111e-08
-3.167959e-08
-2.18649e-08
-0.0003324781
0.0003318626
-2.782975e-08
-6.741624e-07
8.683358e-07
3.368198e-07
1.342043e-07
3.395127e-07
-0.0003334366
0.0003323391
1.719364e-08
-1.512034e-06
1.211747e-06
6.256282e-07
4.154967e-07
6.348401e-07
-0.0003326187
0.0003295211
1.330619e-07
-5.441528e-07
1.494112e-06
8.144296e-07
5.652889e-07
1.45128e-06
-0.0003266389
0.0003192116
4.061475e-07
3.955813e-07
2.65713e-06
1.410562e-06
1.106622e-06
8.587075e-07
-0.0003138745
0.0003070774
2.131885e-07
1.742898e-06
1.774097e-06
1.424733e-06
7.834671e-07
-3.0636e-08
-0.0003052934
0.0003028074
-3.424881e-07
1.427765e-06
8.339967e-07
4.160468e-07
1.813404e-07
-3.09267e-07
-0.0003034186
0.000301492
-5.795148e-07
1.179557e-06
8.342431e-07
5.559905e-07
2.456087e-07
4.818736e-07
-0.0003009557
0.0002962531
5.832959e-08
1.864885e-06
1.684073e-06
6.305008e-07
-1.714735e-08
-6.511817e-08
-0.0002941135
0.0002908113
2.209755e-07
1.540602e-06
8.915447e-07
7.796832e-07
-6.553383e-08
-5.495867e-07
-0.0002905174
0.0002877896
3.383539e-07
3.405386e-06
-1.773431e-08
-2.19757e-07
-2.289128e-07
-6.276619e-07
-0.0002863621
0.0002840273
3.887488e-07
3.613009e-06
-2.712192e-07
-3.764373e-07
-3.916976e-07
-3.506848e-07
-0.0002819255
0.000279753
3.919961e-07
3.106446e-06
-3.140407e-07
-3.256316e-07
-3.356015e-07
-2.210202e-07
-0.0002768472
0.0002740744
4.454728e-07
3.205175e-06
-1.956305e-07
-2.239904e-07
-2.371944e-07
2.100527e-07
-0.000270651
0.0002671588
7.259626e-07
2.30449e-06
-2.632238e-07
1.78601e-07
3.363483e-07
6.648432e-07
-0.000263669
0.000260361
9.078729e-07
2.217142e-07
5.327619e-07
2.431464e-07
7.377126e-07
5.527133e-07
-0.0002587609
0.0002585669
1.04221e-06
-2.616673e-06
1.910121e-07
7.321294e-07
2.925663e-07
1.061412e-06
-0.0002573329
0.0002566649
6.881537e-07
-3.471543e-06
9.110183e-07
6.714191e-07
8.074677e-07
7.09078e-07
-0.0002560019
0.0002547978
-3.521844e-08
-2.115101e-06
8.080336e-07
9.563448e-07
8.809826e-07
4.521958e-07
-0.0002556058
0.0002577987
-1.21935e-07
-4.043831e-06
4.418844e-07
5.508204e-07
5.27896e-07
5.252715e-07
-0.0002601536
0.0002623435
-3.260581e-07
-4.157708e-06
5.226461e-07
6.184447e-07
6.274665e-07
6.105241e-07
-0.0002642138
0.0002657713
-4.483045e-07
-3.743632e-06
6.198753e-07
7.116732e-07
6.92305e-07
7.085249e-07
-0.0002668649
0.0002672435
-3.210722e-07
-2.847483e-06
6.706736e-07
7.199832e-07
6.90823e-07
3.504451e-07
-0.0002680531
0.0002685333
-2.454966e-07
-1.855513e-06
4.654751e-07
4.198809e-07
3.850561e-07
2.396142e-07
-0.0002685908
0.0002684453
-9.971418e-08
-6.061241e-07
2.076209e-07
2.100193e-07
1.940849e-07
1.001005e-07
-0.0002680601
0.0002676101
-6.621229e-08
1.512324e-07
8.743652e-08
9.61001e-08
8.137141e-08
4.505897e-08
-0.000267201
0.0002668989
-1.712186e-07
2.998222e-07
3.519881e-08
5.173166e-08
4.146392e-08
-6.618196e-09
-0.0002666823
0.0002665361
-3.471214e-07
5.30124e-07
-6.213289e-09
-1.299468e-08
-1.094243e-08
-1.069153e-07
-0.0002667792
0.0002671924
-5.550663e-07
4.836858e-07
-1.25929e-07
-4.367067e-08
-6.528395e-08
-1.308592e-07
-0.0002687864
0.0002706618
-6.085886e-07
-8.583997e-07
-9.562785e-08
-1.088599e-07
-7.305618e-08
6.526009e-07
-0.0002748453
0.0002842896
-7.250609e-07
-1.128975e-05
5.546925e-07
6.786156e-07
6.845503e-07
2.030154e-06
-0.0002944646
0.0003055938
-1.286725e-07
-1.888232e-05
2.567877e-06
2.3796e-06
9.04144e-07
1.141173e-06
-0.0003144556
0.0003198604
-7.318259e-09
-1.316829e-05
2.293662e-06
2.793888e-06
1.54212e-06
1.94271e-06
-0.0003286591
0.0003315318
8.72446e-07
-1.040485e-05
1.63254e-06
1.646941e-06
1.437566e-06
8.90874e-07
-0.0003355784
0.0003406355
8.907973e-07
-9.379162e-06
8.793347e-07
8.339687e-07
8.271208e-07
1.071668e-06
-0.0003465427
0.0003512035
9.238688e-07
-9.819028e-06
1.138824e-06
9.835488e-07
1.040265e-06
1.844338e-06
-0.0003557541
0.0003577011
8.422735e-07
-9.540354e-06
1.982152e-06
1.393459e-06
1.531204e-06
9.671693e-07
-0.0003579178
0.0003581629
4.077736e-07
-7.74663e-06
2.025043e-06
2.120308e-06
1.981219e-06
1.169205e-06
-0.0003587057
0.0003611745
9.860627e-08
-6.499413e-06
8.650869e-07
9.670503e-07
9.306792e-07
6.321358e-07
-0.0003639095
0.0003659618
-4.906032e-08
-4.846499e-06
6.422587e-07
8.034652e-07
7.65416e-07
6.936469e-07
-0.0003672893
0.0003675032
-5.730685e-09
-2.9377e-06
7.165632e-07
6.622084e-07
6.571314e-07
1.208548e-06
-0.0003662089
0.000363263
6.213729e-08
-1.358869e-06
1.244434e-06
8.223178e-07
9.67312e-07
1.464548e-06
-0.0003606049
0.0003556837
-2.681575e-08
9.43432e-07
8.79365e-07
8.326526e-07
8.280272e-07
3.349254e-07
-0.0003510785
0.0003475569
-9.906492e-09
1.698098e-06
6.288744e-07
3.456523e-07
5.239219e-07
-1.990326e-07
-0.0003442242
0.0003420026
-1.105947e-07
3.186478e-06
-3.451327e-07
-5.154777e-08
-2.585838e-07
-5.013386e-07
-0.0003408021
0.000339613
-9.807546e-08
3.266796e-06
-5.41851e-07
-4.41965e-07
-4.944058e-07
-5.581708e-07
-0.0003383986
0.0003366489
-4.568038e-08
4.103436e-06
-6.000232e-07
-5.533037e-07
-5.966386e-07
-6.542046e-07
-0.0003344019
0.0003314953
-5.8605e-09
5.713516e-06
-7.033614e-07
-6.745919e-07
-7.688168e-07
-1.140159e-06
-0.0003278599
0.0003245461
4.489683e-08
7.530329e-06
-1.09815e-06
-9.159128e-07
-1.107167e-06
-2.332446e-06
-0.0003211132
0.0003179351
1.742232e-07
1.286105e-05
-2.859704e-06
-2.099124e-06
-2.565872e-06
-6.680224e-06
-0.0003173286
0.0003212683
3.435721e-07
2.515224e-05
-8.343094e-06
-6.35294e-06
-8.059323e-06
-5.329152e-06
-0.0003224276
0.0003026858
3.820705e-07
3.381363e-05
-1.141736e-06
-5.710161e-06
-2.272876e-06
-6.981785e-06
-0.0003211634
0.0003116231
-8.98633e-07
1.636889e-05
-2.234242e-07
8.430522e-07
4.32169e-07
-7.485585e-07
-0.0003036851
0.0002986621
-4.741509e-07
1.005644e-05
-1.780119e-06
-4.179034e-07
-1.612713e-06
-9.313536e-07
-0.0002949151
0.0002894722
-1.890413e-07
7.846839e-06
-6.099599e-07
-2.370952e-07
-4.364257e-07
3.21568e-06
-0.0002786148
0.0002608212
4.936868e-08
7.804938e-06
3.577176e-06
3.203493e-06
-5.712143e-08
-7.975954e-07
-0.0002594514
0.0002502385
1.990185e-06
1.2533e-05
1.575286e-06
-4.480994e-06
-1.607035e-06
9.91075e-07
-0.0002392586
0.0002267994
7.482133e-07
1.790895e-06
1.305984e-07
5.102516e-06
3.69586e-06
-1.049523e-06
-0.0002215921
0.0002203492
8.98172e-07
7.289641e-06
-7.437533e-07
-2.997045e-06
-2.154585e-06
-1.293651e-06
-0.0002170546
0.0002173299
9.075751e-07
6.298936e-06
-1.543454e-06
-3.13405e-06
-1.510596e-06
-6.829097e-07
-0.0002152736
0.0002120474
7.372232e-07
6.271511e-06
-1.134079e-06
-1.43288e-06
-5.326118e-07
-7.834015e-07
-0.0002091694
0.000206461
7.539663e-07
5.926203e-06
-4.890523e-07
-1.701247e-06
-9.979872e-07
-8.197979e-07
-0.0002001745
0.000196082
8.98313e-07
6.853669e-06
-7.787904e-07
-9.173576e-07
-1.143515e-06