/*--------------------------------*- C++ -*----------------------------------*\
| =========                 |                                                 |
| \\      /  F ield         | foam-extend: Open Source CFD                    |
|  \\    /   O peration     | Version:     3.1                                |
|   \\  /    A nd           | Web:         http://www.extend-project.de       |
|    \\/     M anipulation  |                                                 |
\*---------------------------------------------------------------------------*/
FoamFile
{
    version     2.0;
    format      ascii;
    class       volScalarField;
    location    "12.5";
    object      alpha1;
}
// * * * * * * * * * * * * * * * * * * * * * * * * * * * * * * * * * * * * * //

dimensions      [0 0 0 0 0 0 0];

internalField   nonuniform List<scalar> 
119952
(
1
0.9999998
1
1
1
1
1
1
1
1
1
1
1
1
1
1
1
1
1
1
1
1
1
1
1
1
1
1
1
1
1
1
1
1
1
1
1
1
1
1
1
1
1
1
1
1
1
1
1
1
1
1
1
1
1
1
1
1
1
1
1
0.9999999
0.9999999
1
1
1
1
0.9999998
1
1
1
1
1
1
0.9999999
0.9999998
1
1
0.9999999
0.9999999
1
1
1
1
1
1
1
1
1
1
1
1
1
1
1
1
1
0.9999999
1
1
1
1
1
1
0.9999999
1
1
1
1
1
1
1
1
1
1
1
1
1
1
1
1
1
1
0.9999998
0.9999999
1
1
1
0.9999999
1
1
1
1
1
1
1
1
0.9999999
1
1
1
1
1
1
1
1
1
1
1
1
1
1
1
1
1
1
1
1
1
1
1
1
1
1
1
1
1
1
1
1
1
1
1
1
1
1
1
1
1
0.9999999
0.9999999
1
1
1
1
1
1
1
1
1
1
1
1
1
1
1
1
1
1
1
1
1
1
1
1
0.9999993
0.9999998
1
0.9999991
0.9999998
0.9999994
1
1
1
1
0.9999989
1
0.9999994
1
0.999997
1
0.9999993
1
1
1
1
1
0.9999992
0.9999996
0.9999984
1
1
0.9999998
1
1
0.9999998
1
0.9999999
1
1
0.9999992
1
1
1
1
1
0.9999999
0.9999999
1
1
1
1
1
1
0.999999
1
1
1
1
1
1
1
1
1
1
1
0.9999965
0.9999998
0.9999995
0.9999994
0.9999999
1
1
1
0.9999999
1
1
1
1
0.9999994
0.9999995
0.9999999
1
0.9999999
0.9999999
1
0.9999978
0.9999988
1
1
1
1
1
0.9999998
0.9999987
0.9999999
1
1
1
1
1
1
1
1
0.9999998
0.999996
0.9999961
0.9999999
1
1
0.9999999
0.9999994
0.9999999
1
1
0.9999976
0.9999985
1
1
1
0.9999998
0.9999984
0.9999998
1
1
1
1
0.9999988
0.9999999
1
1
1
0.9999996
0.9999998
1
1
1
0.9999998
0.999999
0.9999999
0.9999994
0.9999991
0.9999999
0.9999989
0.9999991
1
1
1
1
1
1
1
1
0.9999998
1
1
0.9999999
0.9999984
0.9999994
1
0.9999997
0.999999
0.9999997
1
1
0.9999991
0.9999997
0.9999994
0.9999993
1
1
0.9999999
1
0.9999996
0.9999995
1
1
1
1
1
1
0.999999
0.9999998
1
1
0.9999997
1
1
1
1
1
1
1
1
0.9999993
0.9999989
0.9999999
1
0.9999993
0.9999998
1
1
1
1
1
1
1
1
1
1
0.9999999
0.9999999
1
0.9999999
1
1
0.9999999
0.9999998
1
1
1
0.9999998
1
0.9999999
0.9999999
1
0.9999999
1
1
0.9999999
1
1
1
1
1
1
1
1
1
1
1
1
1
1
1
1
1
1
1
1
1
1
1
1
1
1
1
1
1
1
1
1
1
1
1
1
1
1
1
1
1
1
1
1
1
1
1
0.9999999
1
1
1
1
1
1
1
1
1
1
1
1
1
0.9999999
0.9999999
0.9999999
0.9999999
1
1
1
1
1
1
1
1
1
1
1
1
1
1
1
1
1
1
1
1
1
1
1
1
1
1
1
1
1
1
1
0.9999999
0.9999997
0.9999998
0.9999999
1
1
1
1
1
1
1
1
1
1
1
1
1
1
1
1
1
1
1
0.9999999
0.9999997
0.9999989
0.9999957
0.9999827
0.9999285
0.9997938
0.9997848
0.9998999
0.9999871
0.9999996
1
1
1
1
1
1
1
1
1
1
1
0.9999999
0.9999995
0.9999991
0.9999991
0.9999996
1
1
1
1
0.9999999
0.9999998
0.9999998
0.9999999
1
1
1
1
1
1
1
1
1
1
1
1
1
1
1
1
1
1
1
1
1
1
1
1
1
1
1
1
1
1
1
1
1
1
1
1
1
1
1
1
1
1
1
1
1
1
1
1
1
0.9999999
1
1
1
1
1
1
1
1
0.9999999
0.9999999
1
0.9999999
0.9999998
1
1
0.9999997
0.9999997
1
0.9999999
0.9999997
1
0.9999994
0.9999994
0.9999999
1
1
1
1
1
0.9999986
0.9999984
0.9999999
1
1
1
1
1
1
1
1
1
1
1
1
1
1
1
0.9999998
0.9999993
0.9999994
0.9999999
0.9999999
0.9999996
0.9999982
0.999998
0.999998
0.9999985
0.9999989
0.9999994
0.9999998
1
1
1
1
0.9999999
0.9999999
1
1
1
1
1
1
1
1
1
0.9999999
0.9999998
0.9999999
1
1
1
1
1
1
0.9999999
0.9999999
1
1
1
1
1
1
1
1
1
1
1
1
1
0.9999998
0.9999995
0.9999996
0.9999999
1
1
1
1
1
1
1
1
1
1
1
1
1
1
1
1
0.9999998
0.9999996
0.9999998
1
1
1
1
1
1
1
1
1
1
1
1
0.9999999
0.9999996
0.9999997
0.9999999
1
1
1
0.9999999
0.9999999
1
1
1
1
1
0.9999997
0.9999996
0.9999998
1
1
1
1
1
1
1
1
1
0.9999999
0.9999999
1
1
1
1
1
1
1
1
1
0.9999995
0.9999994
0.9999998
1
1
1
1
1
0.9999999
0.9999999
0.9999999
0.9999999
1
1
1
1
1
1
1
1
1
1
1
1
1
1
1
1
1
1
1
1
1
1
1
1
1
1
1
1
1
1
1
1
1
1
1
1
1
1
1
1
1
1
1
1
1
1
1
1
1
1
1
1
1
1
1
1
1
1
1
1
1
1
1
1
1
1
1
1
1
1
1
1
1
1
1
1
1
1
1
1
1
1
1
1
1
1
1
1
1
1
1
1
1
1
1
1
1
1
1
1
1
1
1
1
1
1
1
1
1
1
1
1
1
1
1
1
1
1
1
1
1
1
0.9999997
0.9999981
0.9999956
0.9999956
0.9999973
0.9999994
0.9999999
1
1
1
1
1
1
1
1
1
1
1
1
1
1
1
1
1
1
1
1
0.9999998
0.9999995
0.9999995
0.9999997
0.9999999
0.9999999
0.9999999
0.9999995
0.9999977
0.9999907
0.9999856
0.9999921
0.9999986
0.9999999
1
1
1
1
1
1
1
1
1
1
1
1
1
1
0.9999999
0.9999998
0.9999998
0.9999998
0.9999997
0.9999987
0.9999932
0.9999622
0.9997693
0.9985062
0.9954554
0.9962432
0.998802
0.9998715
0.9999949
0.9999997
1
1
1
0.9999999
0.9999996
0.999998
0.9999905
0.9999828
0.9999893
0.9999977
0.9999999
0.9999998
0.9999986
0.9999935
0.999992
0.9999961
0.9999994
0.9999999
1
0.9999999
0.9999997
0.9999989
0.9999981
0.9999988
0.9999997
1
1
1
1
1
1
1
1
1
1
1
1
1
1
1
1
1
1
1
1
1
1
1
1
1
1
1
1
1
1
1
1
1
1
1
1
1
1
1
1
1
1
1
1
1
1
1
1
1
1
1
1
1
1
1
1
1
1
1
1
1
1
0.9999998
0.9999998
0.9999999
1
1
1
0.9999999
0.9999999
0.9999999
0.9999999
0.9999995
0.9999994
0.9999994
0.9999996
0.9999999
1
0.9999999
0.9999992
0.9999969
0.9999966
0.9999966
0.9999966
0.9999976
0.999999
0.9999988
0.9999984
0.9999986
0.9999993
0.9999998
1
1
1
1
1
1
1
1
1
1
1
1
0.9999999
0.9999997
0.999999
0.999996
0.999993
0.9999929
0.9999929
0.9999949
0.9999985
0.9999999
1
1
1
1
1
0.9999999
0.9999999
1
1
1
1
1
1
1
1
1
1
1
1
1
1
1
1
1
1
1
1
1
1
1
1
0.9999999
0.9999999
1
1
1
1
1
1
1
1
0.9999999
0.9999999
1
1
1
1
1
1
1
1
1
1
1
1
1
1
1
0.9999999
0.9999999
0.9999999
1
1
1
1
1
1
1
1
1
1
1
0.9999999
0.9999998
0.9999999
1
1
1
1
1
1
1
1
1
1
1
0.9999999
0.9999999
0.9999999
1
1
1
1
1
1
1
0.9999999
0.9999998
0.9999998
0.9999998
0.9999999
1
1
1
1
0.9999999
0.9999997
0.9999997
0.9999998
1
1
1
1
1
1
1
0.9999997
0.9999996
0.9999996
0.9999996
0.9999998
1
1
1
1
1
1
1
1
1
1
1
1
1
1
1
1
1
1
1
1
1
1
1
1
1
1
1
1
1
1
1
1
1
1
1
1
1
1
1
1
1
1
1
1
1
1
1
1
1
1
1
1
1
1
1
1
1
1
1
1
1
1
1
1
1
1
1
1
1
1
1
1
1
1
1
1
1
1
1
1
1
1
1
1
1
1
1
1
1
1
1
1
1
1
1
1
1
1
1
1
1
1
1
1
1
1
1
1
1
1
1
1
1
1
1
1
1
1
1
1
1
1
1
1
1
1
1
1
1
1
0.9999998
0.999998
0.9999857
0.9999482
0.9999223
0.9999441
0.9999834
0.9999982
0.999999
0.9999985
0.9999985
0.9999988
0.9999996
0.9999999
1
0.9999999
0.9999999
0.9999998
0.9999996
0.9999989
0.9999968
0.9999963
0.9999982
0.9999998
1
1
1
0.9999997
0.9999981
0.9999906
0.999985
0.999992
0.9999987
0.9999996
0.9999993
0.9999965
0.9999787
0.9998804
0.9997589
0.9998546
0.9999698
0.9999984
1
1
1
1
1
0.9999999
0.9999999
1
1
1
1
1
0.9999999
0.999999
0.9999943
0.9999752
0.9999511
0.9999552
0.9999769
0.9999942
0.9999866
0.9999167
0.9993533
0.9945069
0.9745451
0.9731562
0.9886715
0.9985484
0.9999409
0.9999988
0.9999994
0.9999994
0.999999
0.9999961
0.9999787
0.9998726
0.9994841
0.9994421
0.9997521
0.9999679
0.9999984
0.9999994
0.9999991
0.9999957
0.9999746
0.9999626
0.9999823
0.9999967
0.9999993
0.9999998
0.9999998
0.9999996
0.9999986
0.9999945
0.999995
0.9999984
0.9999998
1
1
1
1
1
1
1
1
1
1
1
1
1
1
0.9999999
0.9999999
0.9999999
1
1
1
1
1
1
1
1
1
1
1
1
1
1
1
1
1
1
1
1
1
1
1
1
1
1
1
1
1
1
1
1
1
1
1
1
1
1
1
1
1
1
1
1
1
1
1
1
1
1
1
0.9999998
0.9999987
0.9999984
0.9999987
0.9999996
0.9999999
1
1
1
1
1
1
1
0.9999999
0.9999994
0.9999974
0.9999966
0.9999966
0.9999966
0.9999966
0.9999966
0.999997
0.999999
0.9999999
1
1
1
1
1
1
1
1
1
1
1
1
0.9999999
0.9999999
0.9999999
0.9999996
0.9999969
0.9999774
0.9999555
0.9999653
0.9999867
0.9999976
0.9999998
1
1
1
0.9999999
0.9999999
0.9999999
1
1
1
1
1
1
1
1
1
1
1
1
1
1
1
1
1
1
1
1
1
1
1
0.9999999
0.9999999
1
1
1
1
1
1
1
1
1
1
1
1
1
1
1
1
1
1
1
1
1
1
1
1
1
1
1
1
1
1
1
1
1
1
1
1
1
1
1
0.9999999
0.9999999
1
1
1
1
0.9999999
0.9999999
0.9999999
1
1
1
1
1
1
1
1
1
1
0.9999999
0.9999999
0.9999999
1
1
0.9999998
0.9999998
0.9999999
1
1
1
1
1
1
1
0.9999998
0.9999997
0.9999997
0.9999997
0.9999999
1
1
1
1
1
1
0.9999999
0.9999996
0.9999996
0.9999996
0.9999997
0.9999999
1
0.9999999
1
0.9999998
1
1
1
1
1
1
1
1
1
1
1
1
1
1
1
1
1
1
1
1
1
1
1
1
1
1
1
1
1
1
1
1
1
1
1
1
1
1
1
1
1
1
1
1
1
1
1
1
1
1
1
1
1
1
1
1
1
1
1
1
1
1
1
1
1
1
1
1
1
1
1
1
1
1
1
1
1
1
1
1
1
1
1
1
1
1
1
1
1
1
1
1
1
1
1
1
1
1
1
1
1
1
1
1
1
1
1
1
1
1
1
1
1
1
1
1
1
1
1
1
1
1
1
1
1
1
1
1
1
0.9999999
0.9999997
0.9999997
0.9999997
0.9999994
0.9999952
0.9999547
0.9997604
0.9993771
0.9993875
0.9997467
0.9999614
0.9999904
0.9999852
0.9999752
0.9999775
0.9999911
0.9999986
0.9999999
0.9999998
0.9999994
0.9999975
0.9999888
0.9999393
0.9997997
0.9998222
0.9999438
0.9999947
0.9999998
1
0.9999999
0.9999996
0.9999965
0.9999719
0.9998959
0.9999083
0.9999713
0.9999971
0.9999983
0.9999931
0.9999516
0.9996427
0.9985808
0.9986439
0.9995301
0.9999481
0.9999985
1
1
0.9999999
0.9999994
0.9999976
0.9999974
0.9999988
0.9999999
1
1
1
0.9999994
0.9999942
0.9999526
0.9997006
0.9989653
0.9983729
0.9986979
0.9995946
0.9999643
0.999984
0.9998836
0.9981404
0.967882
0.8757
0.9191018
0.9827314
0.9990077
0.9999871
0.9999955
0.9999948
0.9999878
0.9999473
0.9996892
0.99794
0.993119
0.9939063
0.9978769
0.9997141
0.9999787
0.9999974
0.9999977
0.9999953
0.9999716
0.9998781
0.9998762
0.9999524
0.9999918
0.9999991
0.9999995
0.9999995
0.9999993
0.9999975
0.9999855
0.9999847
0.9999937
0.9999993
1
1
1
1
1
1
1
1
1
1
1
1
1
1
1
0.9999999
0.9999999
0.9999999
1
1
1
1
1
1
1
1
1
1
1
1
1
1
1
1
1
1
1
1
1
1
1
1
1
1
1
1
1
1
1
1
1
1
1
1
1
1
1
1
1
1
1
1
1
1
1
1
1
1
1
1
1
0.9999999
0.9999993
0.9999984
0.9999984
0.9999984
0.9999988
0.9999997
1
1
1
1
1
1
1
1
1
1
0.9999998
0.9999985
0.9999972
0.9999982
0.9999995
1
1
1
1
1
1
1
1
1
1
1
1
0.9999999
0.9999999
0.9999999
0.9999999
0.9999996
0.9999968
0.9999618
0.9998099
0.9997896
0.9998583
0.9999542
0.9999951
0.9999999
1
1
0.9999999
0.9999999
1
1
1
1
1
1
1
1
1
1
1
0.9999999
1
1
1
1
1
1
1
1
1
1
1
1
1
1
1
1
1
1
1
1
1
1
1
1
1
1
1
1
1
1
1
1
1
1
1
1
1
1
1
1
1
1
1
1
1
1
1
1
1
1
1
1
1
1
0.9999999
0.9999998
0.9999999
1
1
1
1
1
1
1
1
0.9999999
0.9999999
1
1
1
1
1
0.9999998
0.9999998
0.9999998
0.9999998
0.9999999
1
1
1
1
1
0.9999999
0.9999999
0.9999999
1
1
1
1
0.9999999
0.9999997
0.9999997
0.9999997
0.9999997
0.9999998
0.9999999
1
1
0.9999998
0.9999996
0.9999997
0.9999999
1
1
0.9999999
1
0.9999999
0.9999999
1
1
0.9999999
1
1
0.9999999
1
1
1
1
1
1
1
1
1
1
1
1
1
1
1
1
1
1
1
1
1
1
1
1
1
1
1
1
1
1
1
1
1
1
1
1
1
1
1
1
1
1
1
1
1
1
1
1
1
1
1
1
1
1
1
1
1
1
1
1
1
1
1
1
1
1
1
1
1
1
1
1
1
1
1
1
1
1
1
1
1
1
1
1
1
1
1
1
1
1
1
1
1
1
1
1
1
1
1
1
1
1
1
1
1
1
1
1
1
1
1
1
1
1
1
1
1
1
1
1
1
1
1
1
1
1
1
1
1
0.9999999
0.9999989
0.9999945
0.9999883
0.9999881
0.9999888
0.9999848
0.9999276
0.9995252
0.9981566
0.9961962
0.9975669
0.9993448
0.9999169
0.9999143
0.9998388
0.9998326
0.9998982
0.9999802
0.9999985
0.9999996
0.9999996
0.9999991
0.9999942
0.9999193
0.9991937
0.998704
0.9993316
0.9998853
0.9999933
0.9999998
0.9999999
0.9999999
0.9999985
0.9999784
0.9997757
0.9994987
0.9997094
0.9999392
0.9999959
0.9999977
0.9999848
0.9997625
0.9970891
0.9925228
0.9955449
0.9990874
0.9999459
0.9999992
0.9999998
0.9999995
0.9999964
0.9999791
0.999971
0.9999845
0.9999974
0.9999999
1
1
0.9999999
0.9999984
0.9999743
0.9996383
0.9972286
0.9883728
0.9834247
0.991584
0.9985136
0.9999297
0.999981
0.9998746
0.9972
0.93644
0.8342527
0.8371602
0.9272372
0.9892196
0.9996236
0.9999768
0.9999148
0.9995487
0.9974061
0.982672
0.9414883
0.9503999
0.9848374
0.9981433
0.9998328
0.9999818
0.9999838
0.9999787
0.9999151
0.999569
0.9994294
0.9996659
0.9999318
0.9999909
0.9999983
0.9999993
0.9999993
0.9999989
0.9999938
0.9999629
0.9999607
0.9999843
0.999998
0.9999999
1
1
0.9999999
1
1
1
1
1
1
1
1
1
1
1
1
1
1
1
1
1
1
1
1
1
1
1
1
1
1
1
1
1
1
1
1
1
1
1
1
1
1
1
1
1
1
1
1
1
1
1
1
1
1
1
1
1
1
1
1
1
1
1
1
1
1
1
1
1
1
1
1
1
1
0.9999999
0.9999993
0.9999984
0.9999991
0.9999998
1
1
1
1
1
1
1
1
1
1
1
1
1
1
0.9999999
0.9999999
1
1
1
1
1
1
1
1
1
1
1
0.9999999
0.9999995
0.9999991
0.9999993
0.9999996
0.9999991
0.9999897
0.9998454
0.9990086
0.9988184
0.9993402
0.9998673
0.9999934
0.9999999
1
1
1
1
1
1
1
1
1
1
1
1
1
0.9999999
0.9999997
0.9999998
0.9999999
1
1
1
1
1
1
1
1
1
1
1
1
1
1
1
1
1
1
1
1
1
1
1
1
1
1
1
1
1
1
1
1
1
1
0.9999999
0.9999999
1
1
1
1
1
1
1
1
1
1
1
1
1
1
1
1
0.9999999
0.9999998
0.9999999
0.9999999
1
1
1
1
1
1
1
0.9999999
0.9999999
0.9999999
1
1
1
1
0.9999998
0.9999999
0.9999999
1
1
1
1
1
1
0.9999999
0.9999997
0.9999997
0.9999998
1
1
1
1
1
1
0.9999999
0.9999997
0.9999997
0.9999997
0.9999997
0.9999998
1
1
1
1
1
1
1
1
1
0.9999999
1
1
0.9999999
0.9999999
1
1
1
1
1
1
1
1
1
1
1
1
1
1
1
1
1
1
1
1
1
1
1
1
1
1
1
1
1
1
1
1
1
1
1
1
1
1
1
1
1
1
1
1
1
1
1
1
1
1
1
1
1
1
1
1
1
1
1
1
1
1
1
1
1
1
1
1
1
1
1
1
1
1
1
1
1
1
1
1
1
1
1
1
1
1
1
1
1
1
1
1
1
1
1
1
1
1
1
1
1
1
1
1
1
1
1
1
1
1
1
1
1
1
1
1
1
1
1
1
1
1
1
1
1
1
1
1
1
1
1
1
1
1
1
0.9999999
0.9999991
0.9999902
0.9999342
0.9998221
0.999812
0.9998444
0.9998138
0.9993584
0.9973547
0.9903094
0.9893668
0.9937133
0.9988154
0.9995456
0.9992292
0.9988388
0.9993005
0.9998291
0.9999845
0.9999984
0.9999982
0.9999962
0.9999826
0.9999194
0.9997065
0.9990252
0.9980792
0.998232
0.9992171
0.9998966
0.9999974
0.9999999
0.9999999
0.9999979
0.9999465
0.999356
0.9990015
0.9993071
0.9998378
0.9999907
0.9999979
0.9999886
0.9997416
0.9952048
0.9872687
0.9894503
0.9964111
0.9996339
0.9999926
0.9999993
0.9999965
0.9999713
0.9998795
0.9998906
0.9999648
0.9999966
0.9999998
0.9999998
0.9999997
0.9999996
0.9999973
0.9999513
0.9993626
0.9939163
0.9591241
0.9534536
0.9748379
0.9960876
0.9998091
0.9999511
0.9999125
0.9986593
0.9596655
0.8390338
0.8498904
0.9379182
0.9917269
0.9996086
0.999813
0.9995273
0.9974157
0.965333
0.70412
0.6604461
0.8356069
0.9781508
0.9986067
0.9998936
0.9998943
0.9998739
0.9995605
0.9977077
0.9966423
0.9979232
0.9995483
0.9999444
0.9999917
0.9999983
0.9999984
0.9999984
0.9999969
0.9999779
0.9999092
0.9999184
0.9999695
0.9999957
0.9999998
1
1
1
0.9999999
1
1
1
1
1
1
1
1
1
1
1
1
1
1
1
1
1
1
1
1
1
1
1
1
1
1
1
1
1
1
1
1
1
1
1
1
1
1
1
1
1
1
1
1
1
1
1
1
1
1
1
1
1
1
1
1
1
1
1
1
1
1
1
1
1
1
1
1
1
1
1
1
0.9999999
0.9999999
0.9999999
0.9999999
1
1
1
1
1
1
1
1
1
1
1
1
1
1
1
1
1
1
1
1
1
1
1
1
1
1
1
0.9999999
0.9999988
0.9999956
0.9999962
0.9999981
0.9999943
0.9999093
0.9986559
0.9975006
0.9978374
0.9991478
0.9998719
0.9999937
0.9999999
1
1
1
1
1
1
1
1
1
1
1
1
0.9999998
0.9999996
0.9999996
0.9999998
1
1
1
1
1
1
1
1
1
1
1
1
1
1
1
1
1
1
1
1
1
1
1
1
1
1
1
1
1
1
1
1
1
1
1
0.9999999
0.9999999
0.9999999
0.9999999
1
1
1
1
1
1
1
1
1
1
1
1
1
0.9999999
0.9999998
0.9999999
1
1
1
1
1
1
1
1
1
0.9999999
0.9999999
0.9999999
0.9999999
1
1
1
1
1
1
1
1
1
1
1
0.9999999
0.9999997
0.9999998
0.9999999
1
1
1
1
1
1
0.9999999
0.9999997
0.9999998
1
1
1
1
1
1
1
1
1
1
1
1
0.9999999
0.9999999
1
1
1
1
1
1
1
1
1
1
1
1
1
1
1
1
1
1
1
1
1
1
1
1
1
1
1
1
1
1
1
1
1
1
1
1
1
1
1
1
1
1
1
1
1
1
1
1
1
1
1
1
1
1
1
1
1
1
1
1
1
1
1
1
1
1
1
1
1
1
1
1
1
1
1
1
1
1
1
1
1
1
1
1
1
1
1
1
1
1
1
1
1
1
1
1
1
1
1
0.9999997
0.9999989
0.9999979
0.9999979
0.9999987
0.9999995
0.9999999
1
1
1
1
1
1
1
1
1
1
1
1
1
1
1
1
1
1
0.9999999
0.9999999
0.9999999
1
1
1
1
1
1
1
1
1
1
0.9999994
0.9999923
0.9999251
0.9996392
0.999028
0.9988192
0.9988838
0.9986174
0.996943
0.9872939
0.9759901
0.9793871
0.9917984
0.9985246
0.9989148
0.9963203
0.9957693
0.997864
0.9996648
0.9999744
0.9999692
0.9999275
0.9997472
0.9989448
0.9971167
0.9900056
0.9849178
0.9863422
0.9895388
0.993715
0.9978267
0.9997447
0.9999926
0.9999995
0.9999978
0.9999383
0.9992232
0.9989482
0.9992826
0.9998088
0.9999847
0.9999981
0.9999952
0.9999047
0.9979073
0.9882496
0.9872687
0.9916584
0.9983304
0.9999211
0.9999927
0.9999737
0.9998191
0.999512
0.9996714
0.9999209
0.9999947
0.9999995
0.9999985
0.9999734
0.9998262
0.9998137
0.9998635
0.9994171
0.9896155
0.9490785
0.9431825
0.9628004
0.9919717
0.9992677
0.9993198
0.997738
0.9889847
0.9695659
0.9537131
0.9651051
0.9850306
0.9934639
0.9958107
0.99889
0.99866
0.9903749
0.8093983
0.5965289
0.5965289
0.6683788
0.9144235
0.9949971
0.9996434
0.9994301
0.9976668
0.9871291
0.975079
0.9850763
0.9966431
0.9996175
0.9999447
0.9999883
0.9999926
0.9999939
0.9999936
0.9999829
0.9998838
0.9998087
0.9998541
0.9999564
0.9999957
0.9999999
1
1
1
1
1
1
1
1
1
1
1
1
1
0.9999999
0.9999998
0.9999997
0.9999994
0.9999989
0.9999969
0.9999924
0.9999935
0.9999976
0.9999997
0.9999999
0.9999999
0.9999998
0.9999989
0.9999954
0.9999949
0.9999979
0.9999998
1
1
1
1
1
1
1
1
1
1
1
1
1
1
1
1
1
1
1
1
1
1
1
1
1
1
1
1
1
1
1
1
1
1
1
1
1
1
1
1
1
1
1
1
1
1
1
1
1
1
1
1
1
1
1
1
1
1
1
1
1
1
1
1
1
1
1
1
1
1
1
1
1
1
1
1
1
1
0.9999998
0.9999969
0.9999795
0.9999757
0.9999859
0.9999685
0.9997357
0.9981349
0.9975006
0.9975006
0.998706
0.9997594
0.999988
0.9999999
1
1
1
1
1
1
1
1
1
1
1
1
1
1
1
0.9999999
0.9999996
0.9999995
0.9999995
0.9999997
0.9999999
1
1
1
1
1
0.9999999
0.9999999
1
1
1
1
1
1
1
1
1
1
1
1
1
1
1
1
1
1
1
1
1
1
1
1
0.9999999
0.9999997
0.9999997
0.9999999
1
1
1
1
1
1
1
1
1
1
1
1
0.9999999
0.9999999
1
1
1
1
1
1
1
1
0.9999999
0.9999999
1
1
1
1
1
1
1
1
1
1
1
1
1
1
1
1
1
1
0.9999999
0.9999998
0.9999998
0.9999999
1
1
1
1
1
1
1
1
1
1
1
1
1
1
1
1
1
1
1
1
1
0.9999999
1
1
0.9999999
1
1
1
1
1
1
1
1
1
0.9999999
0.9999999
1
1
1
1
1
1
1
1
1
1
1
1
1
1
1
1
1
1
1
1
1
1
1
1
1
1
1
1
1
1
1
1
1
1
1
1
1
1
1
1
1
1
1
1
1
1
1
1
1
1
1
1
1
1
1
1
1
1
1
1
1
1
1
1
1
1
1
1
1
1
1
1
1
1
0.9999999
0.9999998
0.9999997
0.9999997
0.9999995
0.999999
0.9999979
0.9999967
0.9999966
0.9999969
0.999997
0.9999965
0.9999943
0.9999919
0.9999915
0.9999924
0.9999945
0.9999956
0.9999954
0.9999943
0.9999919
0.9999902
0.9999889
0.9999813
0.9999355
0.9997527
0.9993399
0.9993401
0.9995279
0.9997941
0.9999409
0.9999775
0.9999831
0.999985
0.9999867
0.9999876
0.9999876
0.999987
0.999985
0.9999812
0.9999782
0.9999779
0.9999826
0.9999917
0.9999939
0.9999915
0.9999704
0.9998737
0.9998279
0.9998981
0.9999818
0.9999993
1
1
1
1
0.9999999
0.9999999
0.9999999
0.9999999
0.9999999
0.9999998
0.999996
0.9999366
0.9994758
0.9975177
0.9963255
0.9972262
0.9971227
0.9946158
0.9827769
0.9649794
0.9648846
0.9747032
0.9935945
0.9992528
0.9984523
0.9940547
0.9935602
0.9955882
0.9990055
0.999591
0.9990418
0.995078
0.9849567
0.9756618
0.9445726
0.8978651
0.8325102
0.6080356
0.5572021
0.7260887
0.9290354
0.9922259
0.9993877
0.9998719
0.9999261
0.999897
0.9991317
0.9985767
0.9990972
0.999821
0.9999877
0.9999917
0.9999908
0.9999576
0.9993008
0.9924372
0.9893194
0.9944284
0.9988311
0.9998779
0.9998914
0.9997074
0.9986014
0.9979375
0.9989685
0.9998323
0.9999939
0.9999994
0.9999991
0.9999876
0.9996188
0.9950289
0.9900379
0.9928503
0.9935243
0.9632356
0.9443977
0.972222
0.9812676
0.9804724
0.9793111
0.9764951
0.9705051
0.9677755
0.9724877
0.9742299
0.9460315
0.8652507
0.8740255
0.9508032
0.994146
0.9978539
0.9838765
0.8739042
0.78227
0.833975
0.937793
0.9923164
0.9988043
0.9971149
0.9589501
0.8213153
0.8607958
0.9634045
0.9962411
0.9997855
0.9999255
0.9999235
0.9999233
0.9999343
0.9999153
0.9996766
0.9995385
0.9996701
0.9999039
0.9999829
0.9999982
0.9999999
1
1
1
1
1
1
1
1
1
1
1
1
0.9999998
0.9999993
0.9999961
0.9999736
0.9998279
0.9994841
0.9995451
0.9998439
0.9999773
0.9999922
0.9999931
0.9999932
0.999992
0.9999833
0.9999482
0.9999416
0.999973
0.9999957
0.9999996
1
1
1
1
1
1
1
1
1
1
1
1
1
1
1
1
1
1
1
1
1
1
1
1
1
1
1
1
1
1
1
1
1
1
1
1
1
1
1
1
1
1
1
1
1
1
1
1
1
1
1
1
1
1
1
1
1
1
1
1
1
1
1
1
1
1
1
1
1
1
1
1
1
1
1
1
1
1
1
1
0.9999994
0.9999888
0.999894
0.9998346
0.9999091
0.9999091
0.9997197
0.99819
0.9975006
0.9976885
0.9991721
0.9999148
0.9999982
1
1
1
1
1
1
1
1
1
1
1
1
1
1
1
1
1
0.9999997
0.9999995
0.9999995
0.9999995
0.9999999
1
1
1
1
0.9999999
0.9999996
0.9999996
0.9999997
0.9999999
1
1
1
1
1
1
1
1
1
1
1
1
1
1
1
1
1
1
1
1
1
0.9999999
0.9999995
0.9999992
0.9999994
0.9999998
1
1
1
1
1
1
1
1
1
1
0.9999998
0.9999998
0.9999999
1
1
1
1
1
1
1
1
1
1
1
1
1
1
1
1
1
1
1
1
1
1
1
1
1
1
1
1
1
1
1
1
1
1
1
1
1
1
1
1
1
1
1
1
1
1
1
1
1
1
1
1
1
0.9999999
0.9999999
1
1
0.9999997
0.9999999
1
0.9999999
0.9999999
1
1
1
1
1
1
1
1
0.9999999
1
1
1
1
1
1
1
1
1
1
1
1
1
1
1
1
1
1
1
1
1
1
1
1
1
1
1
1
1
1
1
1
1
1
1
1
1
1
1
1
1
1
1
1
1
1
1
1
1
1
1
1
1
1
1
1
1
1
1
1
1
1
1
1
1
1
1
1
1
1
1
1
1
1
1
1
0.9999999
0.9999997
0.9999991
0.9999981
0.9999964
0.9999935
0.9999864
0.9999631
0.9999003
0.9998399
0.999833
0.999825
0.9997578
0.999518
0.9991864
0.9991036
0.9991698
0.9993109
0.9993082
0.999083
0.9985708
0.998418
0.9985381
0.9989974
0.9992654
0.999173
0.9989598
0.998935
0.9989928
0.9991153
0.9990299
0.9974567
0.9901552
0.9822718
0.9821828
0.9892656
0.9968542
0.9987084
0.9986568
0.9984643
0.9982925
0.9983188
0.9985389
0.9989543
0.9990078
0.9984945
0.995002
0.9932863
0.9965835
0.9994935
0.9999375
0.9998542
0.9988755
0.9955342
0.9957206
0.9984269
0.9998079
0.9999901
0.9999947
0.9999947
0.9999945
0.9999933
0.9999888
0.999988
0.9999948
0.9999993
0.9999999
0.9999997
0.9999984
0.9999899
0.9998636
0.9979305
0.9893107
0.9894335
0.9963541
0.9967661
0.9903533
0.9470408
0.9369421
0.9566329
0.9899826
0.9989377
0.999474
0.9994013
0.9973735
0.9940412
0.9972418
0.9969067
0.9949334
0.9891634
0.9534164
0.8298963
0.6516531
0.6743937
0.711345
0.4559916
0.3236477
0.3235727
0.3235727
0.3366324
0.6055665
0.8877301
0.9685006
0.9875078
0.9960231
0.9977791
0.997826
0.9988815
0.9997449
0.999922
0.9999127
0.999778
0.9988751
0.997438
0.9973626
0.9973391
0.9981912
0.9995388
0.9998108
0.999555
0.9963439
0.9876737
0.9900507
0.9972189
0.99977
0.9999942
0.9999972
0.9999897
0.999923
0.9993709
0.998246
0.9891671
0.9372938
0.9167236
0.9471109
0.9829432
0.9694633
0.9086149
0.8597144
0.7989172
0.5393998
0.3272991
0.4226301
0.7229419
0.7865974
0.7321966
0.7463266
0.9093148
0.9911757
0.9996807
0.9998189
0.9995415
0.9979284
0.9930476
0.9904579
0.992948
0.9965932
0.9961006
0.9817217
0.8418491
0.7423721
0.7423721
0.8726635
0.981829
0.9994101
0.9999255
0.9999255
0.9999133
0.9997547
0.998874
0.9987182
0.9992793
0.9998216
0.9999603
0.9999946
0.9999997
1
1
1
1
1
1
1
1
0.9999999
0.9999997
0.9999994
0.9999989
0.9999978
0.999993
0.9999778
0.9999333
0.9997594
0.9989626
0.9976402
0.9982534
0.9994672
0.9996671
0.9997111
0.9998167
0.9998405
0.9993041
0.9983102
0.9989594
0.9997319
0.9999683
0.9999961
0.9999996
1
1
1
1
1
1
1
1
1
1
1
1
1
1
1
1
1
1
1
1
1
1
1
1
1
1
1
1
1
1
1
1
1
1
1
1
1
1
1
1
1
1
1
1
1
1
1
1
1
1
1
1
1
1
1
1
1
1
1
1
1
1
1
1
1
1
1
1
1
1
1
1
1
1
1
1
1
1
1
1
1
0.9999998
0.9999968
0.9999409
0.9994735
0.999469
0.9997975
0.9999023
0.9997592
0.9986066
0.9984306
0.9992895
0.9998975
0.9999956
1
1
1
1
1
1
1
1
1
1
1
1
1
1
1
0.9999996
0.9999995
0.9999996
0.9999999
1
1
1
1
1
1
1
0.9999998
0.9999992
0.9999982
0.9999981
0.9999988
0.9999998
1
1
1
1
1
1
1
1
1
1
1
1
1
1
1
1
1
1
1
1
0.9999997
0.9999979
0.9999971
0.9999984
0.9999997
1
1
1
1
1
1
1
1
1
1
0.9999998
0.9999998
0.9999998
0.9999999
1
1
1
1
1
1
1
1
1
1
1
1
1
1
1
1
1
1
1
1
1
1
1
1
1
1
1
1
1
1
1
1
1
1
1
1
1
1
1
1
1
1
1
1
1
1
1
0.9999999
0.9999999
1
1
1
1
1
0.9999999
1
1
1
1
1
1
1
1
1
0.9999999
1
1
0.9999999
0.9999999
0.9999999
1
1
1
1
1
1
1
1
1
1
0.9999999
1
1
1
1
0.9999999
1
1
1
1
1
1
1
1
1
1
1
1
1
1
1
1
1
1
1
1
1
1
1
1
1
1
1
1
1
1
1
1
1
1
1
1
1
1
1
1
1
1
1
1
1
1
1
1
1
1
1
1
1
1
1
1
1
1
1
1
1
1
1
1
1
1
1
1
1
0.9999999
0.9999996
0.9999974
0.999987
0.9999484
0.9998401
0.9996108
0.9992665
0.9989276
0.9985614
0.9976682
0.9946562
0.9885211
0.9856809
0.9869094
0.9876231
0.9833396
0.9664776
0.9583129
0.9631973
0.9740317
0.9758916
0.9716013
0.9514518
0.9353294
0.950946
0.9793309
0.9854831
0.983125
0.9728755
0.9650515
0.9702258
0.9796484
0.9791645
0.9707802
0.938349
0.8618475
0.8877563
0.9549565
0.9820284
0.9812755
0.9806597
0.97051
0.9230684
0.9189427
0.9610097
0.9856065
0.9852529
0.9644427
0.9347066
0.9614343
0.9920131
0.9990763
0.9992839
0.9984695
0.9906554
0.9854915
0.9904184
0.9977989
0.9997307
0.9998929
0.9998326
0.9997746
0.9997609
0.9996909
0.9997119
0.9998896
0.9999854
0.9999991
0.9999994
0.9999995
0.9999991
0.9999868
0.9995061
0.9894186
0.9829774
0.9892825
0.9963274
0.9950749
0.9719904
0.9433837
0.9521151
0.980339
0.9961691
0.9988429
0.9994688
0.999579
0.999375
0.9987946
0.997892
0.9919724
0.9414317
0.8414798
0.764771
0.5435232
0.166698
0.1180317
0.2106886
0.6851191
0.9575626
0.961396
0.942557
0.6693988
0.153401
0.1046852
0.1784262
0.3400519
0.6752076
0.9261657
0.9896523
0.997612
0.9994016
0.9996458
0.9991733
0.9966835
0.9965879
0.9985202
0.9994958
0.9997173
0.9999025
0.9999692
0.9999478
0.9994662
0.991191
0.9696249
0.9733937
0.9904023
0.9988832
0.9999739
0.9999955
0.9999704
0.9989893
0.9606889
0.8997276
0.946928
0.9622142
0.8830815
0.7279695
0.8538065
0.9810006
0.9605861
0.6034028
0.1133148
0.02830349
0.03308984
0.03821612
0.07797092
0.1158292
0.08023587
0.0967422
0.443742
0.9047301
0.9962225
0.9998265
0.9999119
0.9999618
0.999966
0.9999626
0.9999316
0.9993974
0.9912101
0.885189
0.7463875
0.7463875
0.7689128
0.901546
0.9811812
0.9988149
0.9999164
0.9998877
0.9994401
0.9971172
0.9968782
0.9983905
0.9995753
0.9999052
0.9999888
0.9999993
0.9999999
1
1
1
1
1
0.9999999
0.9999995
0.9999972
0.9999854
0.9999333
0.9997672
0.9995678
0.9995992
0.999882
0.9998704
0.9992053
0.9903433
0.9767593
0.9829014
0.9953311
0.9992455
0.9989999
0.9945731
0.9883136
0.9921518
0.9974452
0.9991528
0.9981649
0.9984841
0.9994923
0.9999512
0.9999991
1
1
1
1
1
1
1
1
1
1
1
1
1
1
1
1
1
1
1
1
1
1
1
1
1
1
1
1
1
1
1
1
1
1
1
1
1
1
1
1
1
1
1
1
1
1
1
1
1
1
1
1
1
1
1
1
1
1
1
1
1
1
1
1
1
1
1
1
1
1
1
1
1
1
1
1
1
1
1
1
1
1
0.9999999
0.9999986
0.9999692
0.9996292
0.9993484
0.999495
0.9998603
0.9999758
0.9999632
0.9998656
0.9996881
0.9997897
0.9999491
0.9999959
0.9999999
1
1
1
1
1
1
1
1
1
1
1
1
1
1
0.9999998
0.9999996
0.9999997
0.9999999
1
1
1
1
1
0.9999999
0.999999
0.9999935
0.999987
0.9999907
0.9999975
0.9999998
1
1
1
1
1
1
1
1
1
1
1
1
1
1
1
0.9999998
0.9999998
0.9999999
1
0.9999999
0.9999994
0.9999956
0.9999947
0.9999962
0.9999991
0.9999999
1
1
1
1
1
1
1
1
0.9999999
0.9999998
0.9999998
0.9999999
1
1
1
1
1
1
1
1
1
1
1
1
1
1
1
1
1
1
1
1
1
1
1
1
1
1
1
1
1
1
1
1
1
1
1
1
1
1
1
1
1
1
1
1
1
1
1
1
1
1
1
1
1
1
1
1
1
1
1
1
0.9999995
0.9999997
1
1
1
1
1
1
1
1
1
1
1
1
1
1
1
1
1
1
1
1
1
1
1
1
1
1
1
1
1
1
1
1
1
1
0.9999999
0.9999999
1
1
1
1
1
1
1
1
1
1
1
1
1
1
1
1
1
1
1
1
1
1
1
1
1
1
1
1
1
1
1
1
1
1
1
1
1
1
1
1
1
1
1
1
1
1
1
1
1
1
1
1
1
1
1
1
1
1
1
1
1
1
1
1
1
1
1
0.9999999
0.999999
0.9999921
0.9999567
0.9998089
0.9992818
0.9976917
0.9938436
0.9860356
0.9736534
0.9587128
0.9506033
0.9444952
0.9220154
0.8558169
0.7820735
0.7795133
0.8040875
0.8245414
0.778747
0.6006188
0.5788875
0.7119625
0.8424694
0.7580091
0.432352
0.4403085
0.7394126
0.9095721
0.8532477
0.6549384
0.7198113
0.9105451
0.915023
0.8842724
0.819154
0.6852628
0.6700415
0.6916599
0.8046092
0.7914205
0.7739347
0.7577385
0.5766595
0.2869733
0.3309941
0.6667824
0.9165894
0.910259
0.654158
0.4232418
0.6005163
0.8928237
0.9809469
0.9873619
0.9868648
0.9778661
0.9455481
0.9571585
0.9872988
0.998468
0.9998438
0.9998493
0.9998484
0.9990608
0.9962057
0.9961426
0.9983856
0.9997545
0.9999836
0.999991
0.9999848
0.9999808
0.9999838
0.9999686
0.999587
0.9944425
0.9789147
0.9848082
0.990398
0.9736824
0.9220599
0.9440782
0.9815483
0.9964687
0.9963684
0.9953908
0.9966204
0.9991107
0.9997154
0.9996832
0.9970786
0.9642709
0.8657437
0.4333949
0.07720174
0.07983009
0.2762109
0.7661534
0.9675554
0.9978878
0.9987743
0.9948497
0.8871236
0.342092
0.04401068
0.02066529
0.02066529
0.02066529
0.03140386
0.08600586
0.3051221
0.7714347
0.9717835
0.9973704
0.9970965
0.9931733
0.9947715
0.998114
0.9997472
0.9999754
0.9999767
0.9999669
0.9999124
0.9992934
0.990626
0.968626
0.9683774
0.9825921
0.9968858
0.9998679
0.9999687
0.9997451
0.9941656
0.9308016
0.9246849
0.9700242
0.9821653
0.927577
0.5724747
0.6281017
0.8818649
0.9893685
0.9455306
0.4388345
0.04456237
0.02512275
0.02512275
0.02512275
0.03463594
0.08881912
0.4028827
0.8396476
0.9813995
0.9943222
0.9944881
0.9955224
0.9985367
0.9998524
0.9999824
0.9999587
0.9997399
0.9975694
0.9719232
0.824504
0.8152453
0.8930768
0.9652585
0.9950372
0.9993584
0.9992656
0.9970233
0.9912151
0.9929533
0.9972323
0.9992
0.9997776
0.9999649
0.9999965
0.9999997
1
1
1
1
1
1
0.9999996
0.9999971
0.9999763
0.9997131
0.9951579
0.974862
0.9736804
0.9879285
0.9982649
0.9999073
0.9998536
0.9977276
0.9803861
0.9767593
0.9845922
0.997221
0.9988982
0.9935198
0.9798246
0.9793131
0.9834101
0.9955705
0.9993878
0.9993099
0.9990231
0.9995202
0.9999284
0.9999977
1
1
1
1
1
1
1
1
1
1
1
1
1
1
1
1
1
1
1
1
1
1
1
1
1
1
1
1
1
1
1
1
1
1
1
1
1
1
1
1
1
1
1
1
1
1
1
1
1
1
1
1
1
1
1
1
1
1
1
1
1
1
1
1
1
1
1
1
1
1
1
1
1
1
1
1
1
1
1
1
1
1
1
0.9999999
0.9999982
0.9999796
0.9998571
0.9997535
0.999849
0.9999692
0.9999962
0.9999955
0.9999832
0.9999333
0.9999336
0.9999765
0.9999973
0.9999999
1
1
1
1
1
1
1
1
1
1
1
1
1
0.9999998
0.9999997
0.9999998
1
1
1
1
1
1
0.9999997
0.9999933
0.9999695
0.999968
0.9999822
0.9999966
0.9999997
1
1
1
1
1
1
1
1
1
1
1
1
1
1
1
0.9999996
0.9999986
0.9999989
0.9999996
0.9999999
0.9999998
0.9999984
0.9999948
0.9999947
0.999996
0.9999989
0.9999999
1
1
1
1
0.9999997
0.9999993
0.9999994
0.9999998
1
1
1
1
1
1
1
1
1
0.9999999
0.9999999
1
1
1
1
1
1
1
1
1
1
1
1
1
0.9999999
1
1
1
1
1
1
1
1
1
1
1
1
1
1
1
1
1
1
1
1
1
1
1
1
1
1
1
1
0.9999999
1
1
1
0.9999999
1
1
1
0.9999999
1
1
1
1
1
1
1
1
1
1
1
0.9999999
0.9999998
0.9999998
1
1
1
1
1
1
1
1
1
1
1
1
1
1
1
1
1
1
1
1
1
1
1
1
1
1
1
1
1
1
1
1
1
1
1
1
1
1
1
1
1
1
1
1
1
1
1
1
1
1
1
1
1
1
1
1
1
1
1
1
1
1
1
1
1
1
1
1
1
1
1
1
1
1
1
1
1
1
1
1
1
1
1
1
1
1
1
1
1
1
1
1
1
1
1
1
1
1
1
1
1
1
1
0.9999996
0.9999945
0.9999466
0.9996427
0.9983268
0.9942819
0.983946
0.9614726
0.9190328
0.8514488
0.7582694
0.6596261
0.5678421
0.54842
0.5303294
0.4107597
0.2236647
0.2148084
0.3105078
0.2979995
0.2330183
0.2273088
0.2075942
0.1560584
0.1572478
0.1979932
0.187536
0.1214624
0.1529484
0.2693772
0.2339197
0.1498872
0.3001306
0.8667448
0.7688402
0.2349849
0.1738151
0.1738151
0.3486438
0.7208013
0.7121584
0.4457424
0.1180091
0.03604291
0.03604291
0.03604291
0.03604291
0.03704133
0.04843684
0.08108714
0.134047
0.1486713
0.1738023
0.2925209
0.5394662
0.6457631
0.589198
0.4612913
0.5518905
0.8641646
0.9860292
0.9993089
0.9998493
0.9998493
0.9998493
0.9989515
0.9961951
0.9967524
0.998595
0.9997577
0.9999408
0.9999417
0.9999329
0.9998966
0.9998037
0.9995964
0.9989974
0.9938202
0.9667764
0.9666501
0.9583085
0.9039186
0.9009835
0.9116063
0.9711284
0.9932129
0.9945449
0.9963851