/*--------------------------------*- C++ -*----------------------------------*\
| =========                 |                                                 |
| \\      /  F ield         | foam-extend: Open Source CFD                    |
|  \\    /   O peration     | Version:     3.1                                |
|   \\  /    A nd           | Web:         http://www.extend-project.de       |
|    \\/     M anipulation  |                                                 |
\*---------------------------------------------------------------------------*/
FoamFile
{
    version     2.0;
    format      ascii;
    class       volScalarField;
    location    "12.5";
    object      k;
}
// * * * * * * * * * * * * * * * * * * * * * * * * * * * * * * * * * * * * * //

dimensions      [0 2 -2 0 0 0 0];

internalField   nonuniform List<scalar> 
119952
(
0.04921914
0.046036
0.0457116
0.04559791
0.04536414
0.04501973
0.04533348
0.04603679
0.04696899
0.04803675
0.04917055
0.05031462
0.05142317
0.05245817
0.05338376
0.05416407
0.05476636
0.05517747
0.0554056
0.05559565
0.05606034
0.05390475
0.05288654
0.05283807
0.04978811
0.04773006
0.04593563
0.0442964
0.04197425
0.01135035
0.07013667
0.06484647
0.06178114
0.06011287
0.05931653
0.05898706
0.0588409
0.05870714
0.05851344
0.05840581
0.05727389
0.05906488
0.0619507
0.06507264
0.06796342
0.07043279
0.07249006
0.07424095
0.07574109
0.08549198
0.08666901
0.08771584
0.08869563
0.08977327
0.09102233
0.09243685
0.0939904
0.09561606
0.09728863
0.09902682
0.1004981
0.1018021
0.1030011
0.1041076
0.1051111
0.1059798
0.1066395
0.1072008
0.1090326
0.1091063
0.1083576
0.1079714
0.1076674
0.1071453
0.1063988
0.1056082
0.1048571
0.1041727
0.1035618
0.1030199
0.102528
0.1020602
0.1015824
0.1010508
0.1003854
0.09958047
0.09867052
0.09765842
0.09675953
0.09572623
0.09452068
0.09382545
0.09344379
0.09249148
0.09130187
0.09011898
0.08857762
0.08565998
0.08341731
0.0814866
0.07978664
0.0782425
0.07674437
0.07523524
0.07366285
0.07201614
0.07034871
0.06878702
0.06747014
0.06645059
0.06567218
0.06500784
0.06433209
0.06357068
0.06271432
0.06179719
0.06087739
0.06003206
0.05937511
0.05898513
0.05891266
0.05918679
0.05981336
0.06077044
0.0620069
0.06345532
0.06504457
0.06670625
0.0683739
0.06998229
0.07146176
0.07274029
0.0737342
0.07438791
0.07471577
0.07480824
0.07476614
0.07470524
0.07469962
0.07472986
0.07467443
0.07434232
0.07349815
0.07189024
0.06933603
0.06503673
0.06053992
0.05870287
0.05933212
0.06205324
0.06573573
0.06939128
0.07209309
0.07299255
0.07206387
0.06993578
0.06723548
0.06448572
0.06186863
0.05937719
0.05697286
0.0546405
0.05239141
0.05025267
0.04824089
0.04635844
0.04460573
0.04297998
0.0414881
0.04012936
0.03889512
0.03777253
0.03674246
0.03579366
0.03493238
0.03415915
0.03345555
0.03279432
0.03214799
0.0315155
0.03088551
0.03028807
0.02987879
0.02896726
0.02808972
0.0320971
0.0377459
0.04318615
0.04607573
0.04407753
0.03972181
0.03493435
0.03114102
0.02930267
0.02828084
0.02672846
0.02448289
0.02166896
0.01803116
0.01584189
0.01434212
0.01325158
0.01242726
0.01177219
0.01122103
0.0107459
0.01034328
0.01002173
0.009792372
0.009658707
0.009612538
0.009640384
0.009734492
0.0098954
0.01012527
0.01042206
0.01077798
0.0111816
0.01162115
0.0120862
0.01256776
0.01305723
0.01354602
0.01402528
0.01448667
0.01492256
0.01532606
0.01569189
0.01601742
0.01629819
0.01653635
0.01673689
0.01693131
0.01722386
0.01748733
0.01772825
0.01795841
0.01818689
0.01841892
0.01865697
0.01890415
0.01916418
0.01944027
0.01973565
0.02005355
0.0203972
0.02076945
0.02117243
0.02160685
0.02207219
0.02256653
0.02308761
0.02363307
0.02420021
0.02478593
0.02538672
0.02599888
0.02661844
0.02724081
0.0278609
0.02847289
0.02907048
0.02964699
0.03019553
0.03070926
0.03118205
0.03160771
0.03643633
0.03681976
0.03710248
0.0373735
0.03762009
0.03779163
0.03784999
0.03777564
0.03756298
0.03721499
0.03673959
0.03614739
0.03545074
0.0346637
0.03380194
0.03288215
0.03192104
0.03093446
0.02993651
0.02893927
0.02795303
0.02698673
0.02604824
0.02514444
0.02428097
0.02346218
0.02269107
0.02196949
0.02129806
0.0206765
0.02010379
0.01957781
0.01909585
0.0186565
0.01825658
0.01789287
0.01756253
0.0172627
0.01699059
0.01674366
0.01651906
0.01631441
0.01612811
0.01595825
0.01580396
0.01566524
0.01553085
0.01540305
0.01528408
0.01517308
0.01506937
0.01497261
0.01488173
0.01481195
0.01476793
0.01465046
0.01453585
0.01442186
0.0143096
0.01420101
0.01409799
0.01400198
0.01391377
0.01383354
0.013761
0.01369551
0.01363617
0.01358193
0.01353168
0.01348438
0.01343905
0.01339482
0.01335094
0.01330681
0.01326194
0.01321599
0.01316871
0.01311996
0.01306969
0.01301792
0.01296472
0.01291023
0.01285464
0.01279816
0.01274101
0.01268347
0.01262578
0.01256821
0.01251103
0.01245449
0.01239885
0.01234435
0.0122912
0.01223961
0.01218975
0.01214182
0.01209596
0.01205229
0.01201093
0.01197197
0.01193548
0.01190153
0.01187016
0.01184141
0.01181528
0.01179179
0.0117709
0.01175259
0.01173681
0.01172351
0.01171262
0.01170405
0.01169774
0.01169356
0.01169144
0.01169125
0.0116929
0.01169624
0.01170107
0.01170704
0.01171392
0.01172161
0.01173009
0.01173933
0.01174926
0.01175984
0.01177094
0.0117825
0.01179438
0.01180648
0.01181864
0.0118307
0.0118422
0.01185251
0.01185931
0.01185706
0.01182962
0.01178291
0.01197938
0.08689413
0.08254743
0.08816369
0.09561207
0.1022066
0.107462
0.1115283
0.1146592
0.1171682
0.1203266
0.1300641
0.1402087
0.1492944
0.156673
0.1623096
0.1664723
0.1694704
0.1715737
0.1953016
0.1946446
0.1940242
0.1932867
0.1926902
0.1923399
0.1922503
0.1923729
0.1926279
0.1928446
0.1931999
0.1931761
0.1926979
0.1919202
0.190914
0.1897349
0.1884238
0.1870008
0.1855017
0.184118
0.1823726
0.1802556
0.1779777
0.175544
0.1729513
0.1701979
0.1673013
0.1643057
0.161289
0.1582623
0.1552913
0.1524855
0.1498463
0.1473928
0.1451533
0.1431521
0.141423
0.1400209
0.1495047
0.148445
0.1477158
0.1472581
0.1470168
0.1469542
0.1470336
0.1472259
0.1475057
0.1478373
0.1482029
0.1485947
0.1489847
0.1493433
0.1496478
0.1498677
0.1499878
0.1500161
0.1500726
0.1500943
0.1498172
0.1494237
0.1490594
0.1486958
0.1483021
0.147877
0.1474395
0.1469987
0.1465617
0.146129
0.1456902
0.1452255
0.1447036
0.1440806
0.1433072
0.1423366
0.1411391
0.1398166
0.1384517
0.137079
0.1356613
0.1343007
0.1330805
0.1316861
0.1299647
0.1279805
0.1257462
0.1232226
0.1207571
0.1186025
0.1166116
0.1147015
0.1128228
0.110932
0.108988
0.1069544
0.1048136
0.1025776
0.1002824
0.09796856
0.09566508
0.09339054
0.0911644
0.08901657
0.08698722
0.08512141
0.08346621
0.08207199
0.08099902
0.08036459
0.080241
0.08067968
0.0817049
0.08329948
0.08539219
0.08785928
0.09054886
0.0933149
0.0960376
0.09862596
0.1010152
0.1031618
0.1050355
0.106618
0.1079166
0.1089843
0.1099289
0.1108386
0.111723
0.1125186
0.1130979
0.1133009
0.1129615
0.111927
0.1100262
0.1070709
0.1031865
0.09873841
0.0938866
0.08887986
0.08418656
0.0802381
0.07732518
0.07555327
0.07481576
0.07481487
0.07516706
0.07550736
0.07555624
0.07515053
0.07424019
0.07286275
0.07111139
0.06909864
0.06693145
0.06469442
0.06245692
0.06028745
0.05824204
0.05635919
0.05465047
0.0531164
0.05175825
0.05057931
0.04956636
0.04869511
0.047946
0.04729448
0.04671111
0.04618647
0.04566659
0.04509457
0.04443666
0.04340875
0.04180886
0.04002906
0.03845914
0.03748206
0.03736041
0.03825712
0.04015878
0.04277581
0.04568977
0.04863244
0.05161778
0.0540555
0.05476054
0.05323785
0.049247
0.0426038
0.03739887
0.03353124
0.03065428
0.02849205
0.02683073
0.02552272
0.02449772
0.02372038
0.02316392
0.02281233
0.02265492
0.02267617
0.02285511
0.02317015
0.02360227
0.0241353
0.02475487
0.02544742
0.02620038
0.02700325
0.02784822
0.02872976
0.02964312
0.03058287
0.03154182
0.03251054
0.03347763
0.03443039
0.03535523
0.0362321
0.03703117
0.03774434
0.03836666
0.03890549
0.03939366
0.03983967
0.04024707
0.04062695
0.04099218
0.04135482
0.04172443
0.04210792
0.04251019
0.04293437
0.04338225
0.0438545
0.04435102
0.0448711
0.04541382
0.04597833
0.04656373
0.04716883
0.04779213
0.04843145
0.04908404
0.049747
0.05041733
0.05109177
0.05176674
0.05243828
0.05310176
0.05375145
0.05438039
0.05498051
0.05554286
0.05605749
0.05651202
0.05688397
0.06037525
0.0605879
0.06066284
0.06061491
0.06044791
0.06016318
0.05975964
0.05923484
0.05858702
0.05781635
0.05692535
0.05591878
0.05480364
0.05358946
0.0522887
0.05091645
0.04948961
0.04802535
0.04653955
0.04504605
0.04355695
0.04208317
0.04063494
0.03922177
0.03785223
0.0365337
0.03527226
0.03407266
0.03293825
0.03187107
0.03087189
0.02994037
0.02907519
0.0282743
0.02753506
0.02685432
0.0262287
0.02565459
0.02512829
0.02464609
0.02420436
0.0237996
0.02342859
0.02308829
0.02277556
0.02248647
0.02221716
0.0219661
0.0217322
0.02151377
0.02130929
0.02111724
0.02093821
0.02077426
0.02061612
0.02045644
0.02030069
0.02015129
0.02000809
0.01986999
0.01973595
0.01960507
0.0194766
0.01934995
0.01922469
0.01910048
0.01897706
0.01885418
0.01873162
0.01860919
0.0184867
0.01836401
0.01824095
0.01811742
0.01799334
0.01786863
0.01774327
0.01761729
0.01749073
0.01736368
0.01723628
0.01710869
0.01698112
0.01685381
0.01672703
0.01660106
0.01647624
0.01635287
0.0162313
0.01611187
0.01599492
0.01588078
0.01576977
0.0156622
0.01555836
0.01545848
0.01536283
0.01527158
0.01518493
0.01510299
0.01502588
0.01495367
0.01488639
0.01482405
0.01476663
0.01471406
0.01466626
0.01462312
0.01458452
0.01455031
0.01452031
0.01449434
0.0144722
0.01445369
0.01443858
0.01442665
0.01441766
0.01441137
0.01440751
0.01440584
0.01440611
0.01440807
0.01441151
0.01441617
0.01442186
0.01442832
0.01443539
0.01444276
0.01445034
0.01445765
0.0144647
0.01447058
0.01447525
0.01447657
0.01447408
0.01446519
0.01445954
0.01447757
0.01452363
0.04489805
0.0482538
0.05222609
0.0565971
0.06142056
0.06680452
0.07293358
0.08010321
0.08882616
0.09924507
0.146216
0.1601574
0.1742689
0.1884561
0.2021602
0.2147275
0.2268515
0.2414112
0.2649903
0.3197522
0.3308033
0.340416
0.3490209
0.3562436
0.3624183
0.3676893
0.3721104
0.3756866
0.3787904
0.3816124
0.3851024
0.3884454
0.3911681
0.3932052
0.3946501
0.3955936
0.3960768
0.39632
0.393912
0.3913687
0.3886081
0.3856177
0.3824034
0.378942
0.3752189
0.3712388
0.3670358
0.3626503
0.3579711
0.3530475
0.3479472
0.3427345
0.3374764
0.332235
0.3270507
0.3219355
0.3346687
0.329698
0.3248388
0.3201892
0.3157737
0.3116102
0.3077137
0.3040872
0.3007261
0.2975804
0.2945655
0.2916321
0.2887057
0.2856913
0.2825361
0.2792276
0.27578
0.2722248
0.2685828
0.264854
0.2610753
0.2572727
0.253431
0.2495406
0.2456021
0.2415924
0.237453
0.2331645
0.2287485
0.2242552
0.2197266
0.2152202
0.2107891
0.2064798
0.2023249
0.1983759
0.1946642
0.1912879
0.1882373
0.1855405
0.1832148
0.181256
0.1796379
0.1783263
0.177285
0.1764774
0.1758659
0.1754164
0.175101
0.1748939
0.1747683
0.1746937
0.1746432
0.1745981
0.1745413
0.1744709
0.1744063
0.1743825
0.1743193
0.174247
0.1742364
0.1743049
0.1744333
0.1745893
0.174749
0.1748949
0.1750143
0.1750874
0.175086
0.1749747
0.1747013
0.174197
0.1733941
0.1722409
0.170721
0.1689168
0.1669808
0.164983
0.1629491
0.1609398
0.1589544
0.1568228
0.1544556
0.1518712
0.1491441
0.1463018
0.1435984
0.1411473
0.138864
0.1366814
0.1345548
0.1324447
0.1303141
0.1281291
0.1258671
0.1235218
0.1211001
0.1186147
0.1160802
0.1135173
0.1109612
0.108464
0.1060922
0.103921
0.1020307
0.1005051
0.09943387
0.09893801
0.09912298
0.100048
0.1017249
0.1040932
0.1070044
0.1102448
0.1135901
0.1168604
0.1199385
0.122759
0.125295
0.1275449
0.1295165
0.1312267
0.1327333
0.1341403
0.1355648
0.1370298
0.1384619
0.1396676
0.140418
0.1405165
0.1398305
0.1383029
0.1358854
0.1325563
0.1285131
0.1239309
0.1188259
0.1133366
0.1077422
0.1023171
0.09726198
0.09271956
0.08879778
0.08555383
0.08295732
0.08090001
0.07922408
0.07776045
0.07636741
0.07495025
0.07346211
0.07189385
0.07026057
0.06859017
0.06691507
0.06526579
0.06366884
0.06214944
0.0607417
0.05947447
0.05836942
0.05743579
0.05666286
0.05603712
0.05554245
0.0551352
0.05478165
0.0544519
0.05408844
0.0536362
0.05304869
0.05216282
0.0508577
0.04928685
0.04757197
0.04584321
0.04425551
0.04295636
0.04208916
0.04182129
0.04229793
0.04366961
0.04596088
0.04874975
0.05163015
0.05424904
0.05670407
0.0577233
0.05695104
0.05465488
0.05146014
0.04797061
0.04456596
0.04162487
0.0392493
0.03738274
0.03598197
0.03500569
0.03440209
0.03411719
0.03409912
0.03430119
0.03468107
0.03520068
0.03582798
0.0365384
0.03731542
0.03815056
0.03904231
0.03999368
0.04100873
0.04208948
0.04323352
0.04443277
0.04567343
0.04693717
0.0482041
0.0494423
0.05061294
0.05169058
0.05266062
0.05352187
0.05428277
0.05495202
0.05554082
0.05606359
0.05653658
0.05697632
0.05739802
0.05781434
0.05823466
0.05866489
0.05910785
0.05956392
0.06003167
0.06050834
0.06099017
0.06147267
0.06194985
0.06242059
0.06289037
0.06336187
0.06383454
0.06430785
0.06478151
0.06525498
0.06572757
0.06619839
0.06666594
0.06712729
0.06757769
0.06801068
0.06841893
0.06879536
0.06913748
0.06942708
0.06954166
0.06960036
0.06958765
0.06948547
0.06928338
0.06897371
0.06854961
0.0680055
0.06733797
0.06654602
0.06563094
0.064596
0.06344597
0.06218778
0.06083131
0.05938955
0.05787863
0.05631633
0.05471956
0.0531029
0.05147874
0.04985831
0.04825243
0.04667164
0.04512584
0.04362394
0.04217372
0.04078175
0.0394533
0.03819221
0.03700098
0.03588077
0.03483162
0.03385259
0.03294191
0.03209709
0.03131518
0.03059283
0.02992646
0.02931233
0.02874664
0.02822563
0.02774562
0.027303
0.02689418
0.02651548
0.02616337
0.0258351
0.02552849
0.02524163
0.02497248
0.02471923
0.02447975
0.02425199
0.02403515
0.02382955
0.02363399
0.02344612
0.02326443
0.02308811
0.02291658
0.02274933
0.02258578
0.0224254
0.02226768
0.02211216
0.02195845
0.02180617
0.02165497
0.02150453
0.02135459
0.02120489
0.02105522
0.0209054
0.02075529
0.02060477
0.02045379
0.0203023
0.02015032
0.01999791
0.01984515
0.01969219
0.0195392
0.01938639
0.01923402
0.01908236
0.01893173
0.01878244
0.01863485
0.01848933
0.01834623
0.01820594
0.01806882
0.01793523
0.01780552
0.01768001
0.017559
0.01744278
0.01733156
0.01722558
0.01712498
0.01702991
0.01694044
0.01685664
0.01677852
0.01670605
0.01663917
0.0165778
0.01652182
0.01647107
0.01642539
0.01638458
0.01634842
0.01631669
0.01628914
0.01626551
0.01624554
0.01622895
0.01621545
0.01620477
0.01619662
0.01619073
0.01618681
0.01618461
0.01618383
0.01618423
0.01618551
0.01618743
0.01618962
0.01619187
0.01619364
0.01619468
0.01619411
0.01619177
0.01618673
0.01618043
0.01617462
0.01617592
0.01618699
0.0364184
0.04073168
0.0445799
0.0676717
0.09081907
0.1192448
0.1379571
0.1565501
0.1738515
0.1898849
0.2038339
0.2158817
0.2276413
0.2396019
0.251641
0.263832
0.2762532
0.2888143
0.3012949
0.3136316
0.3258944
0.3379932
0.3499251
0.3617699
0.3734805
0.3849824
0.3961745
0.4070007
0.4174229
0.4275977
0.4380935
0.4675212
0.4737807
0.4788433
0.4827478
0.4858056
0.4882346
0.4901583
0.4917001
0.4930169
0.4943626
0.4957415
0.4972178
0.4988069
0.5004657
0.5020968
0.50356
0.5046672
0.5050146
0.5040341
0.5019044
0.4988609
0.4950552
0.4906839
0.4858977
0.4807862
0.4754071
0.4698115
0.4640352
0.4580918
0.4519899
0.445734
0.4393216
0.4327612
0.4260854
0.4193341
0.4125531
0.4057602
0.398716
0.3918427
0.3852196
0.3788963
0.3729056
0.3672707
0.3620155
0.3571563
0.352683
0.3485467
0.3446694
0.3409601
0.3373054
0.3335893
0.3297282
0.3256901
0.3214876
0.317156
0.3127315
0.3082439
0.3037325
0.2992528
0.2948019
0.2903707
0.2858983
0.2813027
0.2765297
0.2715609
0.2664248
0.2611777
0.2558868
0.2506223
0.2454433
0.2403963
0.2355145
0.2308285
0.226342
0.2220698
0.2180691
0.2143914
0.2111046
0.2082162
0.2057163
0.2035815
0.2017821
0.2002859
0.1990616
0.1980799
0.1973149
0.1967433
0.1963428
0.196092
0.1959686
0.19595
0.1960191
0.1961723
0.1964225
0.1967953
0.1972942
0.1979248
0.1986985
0.1996088
0.2006233
0.201687
0.2027386
0.2037346
0.204647
0.2054379
0.2060649
0.20648
0.2065993
0.2063081
0.2054957
0.2040743
0.2020214
0.199467
0.1966675
0.1937428
0.1907771
0.1878257
0.1848942
0.1819014
0.1787781
0.1755386
0.1722614
0.1690161
0.1659396
0.1631087
0.1604778
0.1579769
0.1555549
0.1531722
0.1507934
0.1483875
0.1459318
0.1434078
0.1408111
0.1381506
0.1354442
0.1327222
0.1300315
0.1274377
0.1250223
0.1228787
0.1211084
0.1198196
0.1191302
0.1191817
0.1200868
0.1218984
0.1245944
0.1280325
0.1319202
0.1359265
0.1397669
0.1432725
0.1463859
0.1491176
0.1515235
0.1536834
0.1556688
0.1575442
0.159406
0.1614057
0.1635669
0.1658345
0.1679644
0.1695647
0.170278
0.1698428
0.1682128
0.1655681
0.1621392
0.1580881
0.1535484
0.148554
0.1430594
0.1372021
0.1311961
0.1252092
0.1193539
0.1137109
0.1083741
0.1034415
0.09897285
0.09498721
0.09146909
0.08836902
0.085609
0.08310937
0.08080751
0.07866198
0.07664992
0.07476227
0.07299841
0.07136275
0.06986232
0.06850491
0.06729793
0.06624714
0.06535722
0.06463159
0.06406879
0.06365292
0.06335372
0.06313163
0.06294272
0.06274633
0.06248654
0.06210535
0.06156454
0.06077914
0.05966593
0.05826438
0.0566407
0.05484714
0.05291865
0.05087969
0.04885774
0.04704588
0.04562994
0.04476806
0.04460604
0.04519417
0.04661042
0.048786
0.0514167
0.05418595
0.05668429
0.05855921
0.05948142
0.05919237
0.05767834
0.05525866
0.05243066
0.04958574
0.04710205
0.04514197
0.04369276
0.04271861
0.04216774
0.04197528
0.04207568
0.04240787
0.04291811
0.04356315
0.04431165
0.04514422
0.04605207
0.0470355
0.04810003
0.04925148
0.05049165
0.0518154
0.05320938
0.05465272
0.05611853
0.05757436
0.05897741
0.06029417
0.06150062
0.06258421
0.06354276
0.0643797
0.06510334
0.06572686
0.0662671
0.06674299
0.0671738
0.06757706
0.06796682
0.06835279
0.06874058
0.06913246
0.06952828
0.0699257
0.070321
0.07070617
0.07107398
0.07142177
0.0717469
0.07205482
0.07235252
0.07263919
0.07291522
0.07318174
0.07344077
0.0736945
0.0739448
0.07419219
0.074435
0.0746693
0.0748895
0.07508879
0.07526009
0.07538653
0.07544351
0.07544199
0.07537675
0.0752341
0.0750041
0.07467922
0.07425248
0.07371783
0.07307087
0.07230913
0.07143198
0.07044056
0.06933681
0.06812351
0.06680683
0.06539561
0.06390319
0.06234676
0.06074359
0.05910821
0.05745238
0.05578657
0.05412161
0.05246846
0.05083778
0.04923948
0.04768263
0.0461754
0.04472477
0.04333638
0.04201443
0.04076175
0.03957991
0.03846932
0.03742935
0.03645854
0.03555471
0.03471513
0.03393668
0.0332159
0.03254912
0.03193244
0.03136195
0.03083379
0.03034423
0.02988954
0.02946622
0.02907113
0.0287016
0.02835534
0.02803013
0.02772386
0.02743472
0.02716117
0.02690114
0.02665248
0.0264139
0.02618453
0.02596365
0.02575049
0.02554424
0.02534408
0.02514922
0.02495897
0.0247727
0.02458988
0.02441003
0.0242327
0.02405749
0.02388402
0.02371198
0.02354105
0.02337095
0.02320145
0.02303234
0.02286344
0.0226946
0.02252572
0.02235675
0.02218767
0.02201849
0.02184928
0.02168016
0.02151128
0.02134282
0.02117501
0.02100812
0.02084242
0.02067825
0.02051592
0.02035581
0.02019827
0.02004368
0.01989242
0.01974485
0.01960132
0.01946219
0.01932778
0.01919836
0.01907421
0.01895555
0.01884256
0.0187354
0.01863416
0.01853891
0.01844968
0.01836645
0.01828918
0.01821777
0.01815211
0.01809206
0.01803743
0.01798802
0.01794362
0.01790397
0.01786882
0.01783791
0.01781093
0.0177876
0.01776763
0.01775071
0.01773654
0.01772483
0.01771527
0.01770755
0.0177014
0.01769646
0.01769248
0.01768906
0.01768592
0.0176826
0.01767883
0.01767405
0.01766821
0.01766101
0.01765313
0.01764555
0.01764022
0.0176404
0.01938653
0.02145324
0.02342243
0.0308664
0.04081476
0.05745996
0.06904419
0.08122197
0.09418472
0.1072196
0.1205692
0.1351226
0.1505253
0.1661692
0.1823932
0.2005988
0.2288187
0.2416608
0.2547092
0.2678324
0.2812716
0.2945449
0.3073028
0.3196394
0.3317164
0.3434493
0.3547908
0.3660401
0.3772131
0.3883035
0.3992891
0.4101196
0.4207293
0.4310591
0.4410604
0.4506842
0.4598719
0.4684891
0.4766082
0.4836508
0.4901527
0.4953551
0.4965134
0.4976128
0.498203
0.4982433
0.4979108
0.4974532
0.4970966
0.4970788
0.4975853
0.4988031
0.5007731
0.5034476
0.5066947
0.5103197
0.5140673
0.5176596
0.5208226
0.5231857
0.5241444
0.5238878
0.522715
0.5208282
0.5184027
0.5155468
0.5122941
0.5086451
0.5046131
0.5002218
0.4954864
0.4904208
0.4850322
0.4793102
0.4732492
0.4668924
0.4603017
0.4535508
0.4466431
0.4396011
0.4325362
0.4255779
0.4188274
0.4123621
0.4062417
0.4005214
0.3952482
0.3904319
0.3860255
0.3819375
0.3780485
0.3742176
0.3702969
0.3661711
0.3617968
0.3572001
0.3524461
0.3476124
0.342799
0.3379558
0.3330391
0.3280965
0.3231572
0.3181984
0.3131513
0.3079457
0.3025316
0.2969143
0.2911457
0.2853012
0.2794596
0.2736897
0.2680463
0.2625712
0.2573005
0.2522619
0.2474874
0.2429967
0.2387899
0.2348821
0.2313732
0.2283006
0.2256479
0.223392
0.221507
0.2199669
0.2187493
0.217836
0.2172112
0.2168601
0.2167709
0.2169268
0.2173039
0.2178866
0.2186733
0.2196776
0.2209232
0.2224309
0.2242077
0.2262261
0.2284224
0.230709
0.2329828
0.2351502
0.2371693
0.239025
0.2406765
0.2420865
0.2432093
0.2439077
0.2439818
0.2432267
0.2414444
0.2385562
0.2347655
0.230551
0.2261222
0.2216391
0.217214
0.2128981
0.2086682
0.2044922
0.2003723
0.1963695
0.1925483
0.1889813
0.1857004
0.1826576
0.1797732
0.1769793
0.1742233
0.1714656
0.1686796
0.1658513
0.1629756
0.1600564
0.1571121
0.1541758
0.1512935
0.1485254
0.1459494
0.1436602
0.1417667
0.1403881
0.1396553
0.1397141
0.140729
0.1428064
0.1459801
0.1501849
0.1551671
0.1604505
0.1654974
0.1699212
0.1736051
0.1766232
0.1791257
0.1813161
0.1834129
0.1855772
0.1879231
0.1906018
0.1935898
0.1968296
0.2000829
0.2028841
0.2046428
0.2048615
0.2032148
0.1997949
0.1951656
0.1899569
0.1845083
0.178821
0.1727959
0.1664441
0.1599649
0.1535409
0.1472317
0.1410313
0.1349121
0.1289066
0.1230931
0.1175723
0.1124242
0.107697
0.1033968
0.09949548
0.09595342
0.09273073
0.08979477
0.08712222
0.08469733
0.08250969
0.08055374
0.07882646
0.07732538
0.07604727
0.07498689
0.07413626
0.07348186
0.07300119
0.07266379
0.07243164
0.07225815
0.07209462
0.07189339
0.07160098
0.07116826
0.07055827
0.06971861
0.06860774
0.06723915
0.06564112
0.06382847
0.06179892
0.05955799
0.05717384
0.05474129
0.0523665
0.05019306
0.04840882
0.04718483
0.04665611
0.04686263
0.04777537
0.04937497
0.05157019
0.05404206
0.05659484
0.05895348
0.0607804
0.06170873
0.0614916
0.06018414
0.0581601
0.05590208
0.05375268
0.05198806
0.05071869
0.04992833
0.04955591
0.04953906
0.04980806
0.05029823
0.05095821
0.05175297
0.0526562
0.05365322
0.05474204
0.05592692
0.057212
0.05859602
0.06006906
0.06161218
0.06319827
0.06479953
0.06636938
0.06786649
0.06925848
0.07052326
0.07164924
0.07263307
0.07347818
0.07419376
0.07479385
0.0752969
0.07572609
0.07610397
0.07644897
0.07677431
0.07708824
0.07739491
0.07769684
0.07799466
0.07828542
0.07856091
0.07881404
0.07903733
0.07922718
0.07938186
0.07950677
0.07960759
0.07968296
0.07973223
0.07976044
0.0797739
0.07977796
0.07977659
0.07977162
0.07976245
0.07974643
0.07971907
0.0796743
0.07960176
0.07949065
0.07934068
0.07914631
0.07889817
0.07858747
0.07820652
0.07774806
0.07720552
0.0765734
0.07584747
0.07502468
0.0741035
0.07308357
0.07196418
0.07074642
0.06943311
0.0680319
0.06655728
0.06502589
0.06345198
0.06184611
0.06021576
0.05857129
0.0569235
0.05528312
0.05366028
0.05206485
0.05050637
0.04899342
0.04753328
0.04613183
0.0447936
0.04352181
0.0423184
0.04118416
0.04011887
0.03912146
0.03819014
0.03732253
0.03651581
0.03576687
0.03507196
0.03442676
0.03382729
0.03326974
0.03275053
0.03226612
0.03181323
0.03138896
0.03099076
0.03061651
0.030264
0.02993107
0.02961566
0.02931566
0.02902926
0.02875513
0.02849204
0.02823887
0.02799461
0.0277584
0.0275294
0.02730688
0.02709015
0.02687859
0.02667161
0.02646871
0.02626942
0.0260733
0.02587998
0.02568908
0.02550027
0.02531324
0.0251277
0.02494339
0.02476008
0.02457756
0.02439565
0.02421423
0.0240332
0.0238525
0.02367212
0.0234921
0.02331252
0.02313348
0.02295515
0.02277772
0.02260141
0.02242647
0.02225321
0.02208192
0.02191294
0.02174661
0.0215833
0.02142336
0.02126716
0.02111505
0.02096738
0.02082446
0.0206866
0.02055406
0.02042707
0.02030583
0.02019049
0.02008117
0.01997795
0.01988085
0.0197899
0.01970503
0.01962618
0.01955325
0.01948609
0.01942453
0.01936838
0.01931741
0.01927138
0.01923004
0.01919311
0.01916029
0.0191313
0.01910583
0.01908358
0.01906422
0.01904745
0.01903294
0.01902038
0.01900942
0.01899976
0.01899103
0.01898292
0.01897504
0.01896712
0.01895878
0.01894997
0.01894055
0.01893083
0.01892149
0.01891288
0.01890864
0.007944863
0.009445525
0.01055911
0.01579295
0.02180949
0.02965899
0.03611815
0.04341799
0.05126705
0.05958379
0.06866179
0.07923976
0.09072215
0.1034056
0.1184549
0.1416185
0.1532915
0.1654189
0.1776021
0.189811
0.2020056
0.2141187
0.2260544
0.2377436
0.2491017
0.2600544
0.2708568
0.2825472
0.2944525
0.3065981
0.3190593
0.3315089
0.3436158
0.3553058
0.3664273
0.3771355
0.3875896
0.3978147
0.4078304
0.4176137
0.4271173
0.4362867
0.4450525
0.4533248
0.4610397
0.468089
0.4742247
0.4790225
0.4827367
0.4850132
0.4860226
0.4856227
0.4834392
0.4806117
0.4772368
0.4736491
0.4702375
0.4673979
0.4654866
0.4648208
0.4656305
0.4680314
0.4720028
0.4773556
0.4837744
0.4908492
0.4981491
0.5052686
0.5117991
0.5168859
0.5208537
0.5238604
0.5260482
0.5275066
0.528326
0.5285411
0.5281144
0.5269806
0.5251228
0.5225698
0.5193686
0.5155818
0.5112527
0.5063736
0.5009418
0.4950309
0.4887681
0.4822605
0.4755415
0.4686412
0.4616744
0.4548002
0.4481437
0.4417819
0.4357854
0.4302299
0.425177
0.4206343
0.4165251
0.4127114
0.4090304
0.405305
0.4013598
0.3970755
0.3924401
0.3875432
0.3825551
0.3775956
0.3725675
0.3674625
0.3622796
0.3570536
0.3518257
0.3465937
0.3412943
0.3358332
0.3301381
0.3241953
0.3180485
0.3117759
0.3054658
0.2992005
0.29305
0.2870707
0.2813113
0.2758145
0.2706217
0.2657648
0.2612625
0.2571222
0.25333
0.2499506
0.247055
0.2446295
0.242657
0.2411216
0.2400107
0.2393149
0.2390234
0.2391228
0.2395959
0.2404224
0.2415843
0.2430769
0.2449147
0.2471236
0.2497246
0.2527268
0.2561053
0.2597647
0.263547
0.267276
0.2707925
0.2740104
0.2769713
0.2797377
0.2822887
0.2846306
0.2867541
0.2884284
0.2892857
0.2889098
0.2868156
0.282743
0.2770447
0.2706765
0.264035
0.2573908
0.2509534
0.2448401
0.2390453
0.2335143
0.228237
0.2232646
0.2186522
0.2144276
0.2105701
0.2070004
0.2036103
0.2002996
0.1969924
0.1936436
0.1902366
0.1867754
0.1832839
0.1797964
0.1763603
0.1730362
0.1698907
0.1669995
0.1644561
0.162374
0.1608834
0.1601279
0.1602704
0.1614957
0.1640016
0.1678882
0.1731804
0.1797874
0.1872763
0.1947851
0.2013399
0.2064173
0.2100811
0.2126882
0.2146526
0.2164672
0.2185939
0.2213308
0.2245979
0.2282579
0.2322761
0.2364458
0.2402939
0.2432033
0.244356
0.2430019
0.2392149
0.2332974
0.2260438
0.2185432
0.2112089
0.2037897
0.1961175
0.1884262
0.1810205
0.174077
0.167528
0.1611733
0.1548229
0.1484431
0.142118
0.1359764
0.1301283
0.1246459
0.1195656
0.1148949
0.1106174
0.1067082
0.1031425
0.09990063
0.09696927
0.09434104
0.09201345
0.08998505
0.0882525
0.08680852
0.08564035
0.08472847
0.08404412
0.08354819
0.08319365
0.08292786
0.08269501
0.08244144
0.08211692
0.08167315
0.08106918
0.08027306
0.07925454
0.07799756
0.07650926
0.07480165
0.07287905
0.07073833
0.06838435
0.06584626
0.06316526
0.06040021
0.057643
0.05501829
0.05266148
0.05070417
0.04925961
0.04842956
0.04829526
0.0488791
0.05011986
0.05194774
0.05423041
0.05673496
0.05927813
0.06156742
0.06323236
0.06394839
0.06361989
0.06247552
0.06093374
0.05939829
0.05812362
0.05721934
0.0567307
0.05662705
0.05684875
0.0573349
0.05804044
0.05892059
0.0599372
0.06106619
0.06229783
0.0636308
0.06506069
0.06657813
0.06816634
0.06980106
0.07146045
0.07310571
0.07469302
0.07618706
0.07756076
0.07879601
0.07988338
0.08082236
0.08161817
0.08227798
0.08281092
0.08324087
0.08359736
0.08390226
0.08417111
0.08441433
0.08463776
0.08484526
0.08503949
0.08521879
0.08537752
0.08550874
0.08560424
0.08565887
0.08566889
0.08563191
0.08555482
0.0854365
0.08527269
0.08506778
0.08483184
0.08457306
0.0842981
0.08401193
0.08371808
0.08341895
0.08311516
0.08280534
0.08248488
0.08214831
0.08179402
0.0814192
0.08101806
0.08058411
0.08011065
0.07959095
0.07901844
0.0783869
0.07769054
0.0769239
0.07608207
0.07516106
0.07415778
0.07306902
0.07189186
0.07062619
0.06927997
0.06786726
0.06640246
0.06489749
0.06335885
0.06179358
0.06021093
0.05862097
0.05703296
0.05545582
0.05390055
0.05237708
0.0508939
0.04945835
0.04807665
0.04675368
0.04549296
0.04429679
0.04316634
0.0421018
0.04110249
0.04016698
0.0392933
0.03847864
0.03771916
0.03701164
0.03635263
0.03573857
0.03516589
0.03463108
0.03413076
0.03366179
0.03322118
0.03280606
0.03241409
0.03204352
0.03169233
0.03135842
0.03103996
0.03073538
0.03044327
0.03016236
0.02989157
0.02962992
0.02937655
0.02913068
0.02889159
0.02865865
0.02843128
0.02820895
0.02799119
0.02777758
0.02756771
0.02736121
0.02715775
0.02695699
0.02675862
0.02656235
0.0263679
0.02617501
0.02598346
0.02579305
0.02560362
0.02541502
0.02522719
0.02504008
0.02485369
0.02466805
0.02448326
0.02429943
0.0241167
0.02393527
0.02375536
0.02357722
0.02340112
0.02322737
0.02305628
0.0228882
0.02272346
0.02256241
0.0224054
0.02225276
0.02210482
0.02196186
0.02182416
0.02169193
0.02156539
0.02144469
0.02132996
0.02122129
0.02111872
0.02102228
0.02093194
0.02084765
0.0207693
0.02069679
0.02062994
0.02056858
0.0205125
0.02046146
0.02041521
0.0203735
0.02033602
0.02030249
0.02027261
0.02024607
0.02022254
0.0202017
0.02018322
0.02016677
0.02015202
0.02013863
0.02012627
0.02011461
0.02010339
0.02009233
0.02008132
0.0200703
0.02005936
0.02004902
0.02003907
0.0200332
0.001656089
0.007207427
0.01096842
0.01549536
0.02065883
0.02664699
0.03353676
0.04117565
0.04972862
0.06001494
0.07559713
0.08458128
0.09417474
0.1041083
0.114367
0.1248689
0.1355457
0.1463009
0.1569985
0.1675595
0.1780372
0.1897042
0.2013805
0.2129347
0.2243204
0.235525
0.2465086
0.2572704
0.2678404
0.2781964
0.2883173
0.2984641
0.3088586
0.319369
0.3300828
0.3408899
0.3515302
0.3617502
0.371374
0.3805654
0.389465
0.3981552
0.4066784
0.415042
0.4232161
0.4311123
0.438651
0.4457267
0.4521488
0.4575978
0.4617386
0.4645141
0.4656106
0.4651548
0.4631043
0.4596209
0.4549216
0.4492119
0.4430075
0.4367408
0.4308845
0.4259704
0.4225243
0.4210441
0.4219138
0.42538
0.4314636
0.4399734
0.4504906
0.4624307
0.4751251
0.4876751
0.4992694
0.5100579
0.5198806
0.5285999
0.5361841
0.5426287
0.5479118
0.5520875
0.555182