/*--------------------------------*- C++ -*----------------------------------*\
| =========                 |                                                 |
| \\      /  F ield         | foam-extend: Open Source CFD                    |
|  \\    /   O peration     | Version:     3.1                                |
|   \\  /    A nd           | Web:         http://www.extend-project.de       |
|    \\/     M anipulation  |                                                 |
\*---------------------------------------------------------------------------*/
FoamFile
{
    version     2.0;
    format      ascii;
    class       volScalarField;
    location    "12.5";
    object      pd;
}
// * * * * * * * * * * * * * * * * * * * * * * * * * * * * * * * * * * * * * //

dimensions      [1 -1 -2 0 0 0 0];

internalField   nonuniform List<scalar> 
119952
(
7385.185
6575.958
6440.111
6531.791
6635.611
6506.992
6452.256
6397.674
6347.076
6297.416
6247.857
6198.17
6148.719
6099.852
6052.253
6006.686
5963.687
5923.288
5876.152
5784.81
6040.354
5892.289
5840.72
6175.523
6166.353
6221.13
6276.449
6383.066
6646.779
7528.354
5326.328
5343.957
5380.636
5425.654
5472.756
5521.53
5571.64
5622.286
5672.625
5706.31
5758.478
5804.898
5847.414
5887.436
5925.867
5962.853
5998.386
6032.152
6064.681
6122.5
6139.898
6161.693
6189.768
6217.748
6245.34
6272.807
6299.283
6324.582
6351.624
6369.284
6388.213
6408.064
6425.422
6440.708
6453.708
6464.221
6476.116
6515.262
6604.384
6505.976
6476.173
6509.856
6509.34
6476.28
6423.763
6375.331
6327.624
6279.266
6230.678
6181.877
6132.942
6084.599
6037.58
5992.744
5951.023
5914.257
5884.755
5866.399
5884.859
5910.092
5922.146
6018.595
6149.344
6201.487
6244.397
6289.265
6281.405
6151.576
6178.844
6252.299
6303.286
6353.224
6399.457
6441.418
6479.992
6514.955
6546.152
6573.824
6599.073
6623.139
6646.448
6668.439
6688.066
6704.676
6718.179
6728.691
6736.321
6741.021
6742.761
6741.466
6737.119
6729.788
6719.677
6707.106
6692.647
6677.178
6661.888
6648.048
6636.774
6628.93
6624.637
6623.969
6626.448
6631.417
6638.427
6646.819
6656.464
6666.952
6678.254
6690.509
6704.298
6720.603
6740.529
6765.69
6791.765
6804.712
6795.4
6841.756
6878.388
6889.885
6905.033
6922.476
6944.192
6966.181
6986.187
7005.399
7024.907
7045.186
7066.262
7087.622
7108.807
7129.273
7148.769
7167.235
7184.567
7200.958
7216.519
7231.136
7245.087
7258.361
7271.116
7283.565
7295.946
7308.206
7320.544
7333.359
7346.907
7361.679
7378.124
7396.376
7418.15
7443.45
7469.848
7477.541
7433.743
7439.947
7452.832
7480.613
7508.298
7509.011
7501.06
7496.21
7484.705
7472.418
7468.721
7470.25
7470.924
7471.208
7468.275
7464.723
7460.641
7456.373
7452.286
7448.533
7445.052
7441.666
7438.196
7434.457
7430.275
7425.517
7420.068
7413.831
7406.732
7398.742
7389.886
7380.242
7369.937
7359.148
7348.091
7337.019
7326.215
7315.969
7306.57
7298.283
7291.338
7285.905
7282.09
7279.925
7279.378
7280.277
7282.405
7285.412
7288.855
7294.449
7300.198
7305.965
7311.505
7316.662
7321.294
7325.294
7328.589
7331.143
7332.95
7334.035
7334.445
7334.244
7333.516
7332.355
7330.875
7329.192
7327.433
7325.724
7324.194
7322.97
7322.17
7321.907
7322.284
7323.39
7325.298
7328.064
7331.728
7336.312
7341.816
7348.217
7355.472
7363.488
7372.192
7384.184
7392.848
7402.217
7412.25
7422.456
7432.687
7442.777
7452.582
7461.985
7470.894
7479.233
7486.945
7493.991
7500.351
7506.023
7511.023
7515.381
7519.142
7522.355
7525.07
7527.333
7529.19
7530.68
7531.845
7532.724
7533.354
7533.769
7534.001
7534.078
7534.026
7533.867
7533.617
7533.309
7532.954
7532.521
7532.069
7531.588
7531.091
7530.581
7530.066
7529.542
7529.025
7528.563
7528.218
7527.958
7527.502
7526.375
7525.054
7523.922
7522.858
7521.799
7520.783
7519.743
7517.785
7513.791
7514.723
7514.14
7512.923
7511.754
7510.519
7509.27
7508.02
7506.764
7505.498
7504.218
7502.92
7501.607
7500.279
7498.934
7497.57
7496.188
7494.786
7493.366
7491.926
7490.467
7488.991
7487.497
7485.986
7484.459
7482.916
7481.359
7479.788
7478.204
7476.607
7475
7473.382
7471.755
7470.119
7468.476
7466.826
7465.17
7463.509
7461.845
7460.176
7458.505
7456.833
7455.158
7453.483
7451.808
7450.132
7448.456
7446.781
7445.107
7443.433
7441.759
7440.085
7438.41
7436.735
7435.06
7433.382
7431.702
7430.019
7428.332
7426.64
7424.94
7423.234
7421.517
7419.787
7418.042
7416.277
7414.487
7412.669
7410.817
7408.925
7406.982
7404.977
7402.894
7400.712
7398.404
7395.934
7393.248
7390.271
7386.892
7382.92
7378.042
7371.948
7365.838
7368.381
7397.018
5831.289
5745.207
5642.77
5553.017
5472.237
5401.004
5339.326
5286.811
5245.203
5193.28
5171.782
5154.638
5141.615
5135.472
5134.426
5138.083
5145.218
5151.667
5171.029
5190.193
5188.269
5191.863
5196.58
5200.424
5203.261
5204.72
5204.787
5205.231
5206.345
5197.345
5198.701
5201.848
5207.739
5218.128
5233.283
5253.828
5280.874
5315.658
5338.898
5382.142
5428.011
5476.373
5527.031
5578.627
5630.299
5681.127
5729.234
5775.743
5821.706
5863.696
5903.005
5940.556
5976.5
6010.951
6043.999
6076.696
6116.751
6146.769
6173.738
6201.229
6228.82
6255.91
6282.24
6307.718
6331.999
6354.577
6376.166
6395.836
6413.242
6428.737
6442.754
6455.716
6468.776
6483.345
6498.752
6507.074
6498.173
6480.428
6467.703
6452.202
6425.103
6386.926
6343.272
6297.601
6250.89
6203.137
6154.425
6105.246
6056.354
6008.751
5963.913
5924.046
5891.575
5870.437
5864.485
5876.682
5906.28
5952.084
6014.729
6085.754
6146.788
6191.168
6219.63
6230.645
6233.726
6252.293
6290.511
6335.654
6380.47
6422.107
6460.474
6496.181
6529.419
6560.195
6588.577
6614.952
6639.72
6662.956
6684.329
6703.298
6719.389
6732.408
6742.254
6748.857
6752.213
6751.966
6748.27
6741.068
6730.512
6716.883
6700.617
6682.496
6663.784
6646.081
6630.965
6619.65
6612.795
6610.474
6612.2
6617.197
6624.713
6634.036
6644.575
6655.62
6666.644
6678.235
6689.818
6700.885
6712.549
6726.789
6744.488
6762.082
6782.155
6802.445
6831.571
6862.864
6886.523
6907.424
6929.279
6953.067
6976.991
6999.466
7021.231
7042.473
7063.344
7083.825
7103.729
7122.94
7141.472
7159.182
7176.054
7192.215
7207.345
7221.782
7235.611
7248.74
7261.353
7273.522
7285.504
7297.47
7309.028
7320.761
7333.164
7346.317
7360.232
7375.543
7391.59
7408.433
7425.81
7437.652
7444.35
7438.318
7441.357
7458.257
7473.455
7490.498
7496.706
7492.784
7486.302
7481.386
7482.622
7486.578
7485.577
7473.48
7482.61
7472.667
7465.998
7461.329
7456.629
7452.264
7448.435
7444.924
7441.567
7438.224
7434.67
7430.696
7426.144
7420.873
7414.766
7407.753
7399.809
7390.957
7381.272
7370.881
7359.96
7348.73
7337.45
7326.407
7315.906
7306.242
7297.692
7290.491
7284.816
7280.783
7278.43
7277.772
7278.594
7280.731
7283.98
7288.219
7293.48
7299.248
7305.102
7310.801
7316.142
7320.962
7325.14
7328.597
7331.291
7333.213
7334.385
7334.852
7334.677
7333.943
7332.747
7331.195
7329.408
7327.514
7325.643
7323.92
7322.474
7321.427
7320.893
7320.976
7321.762
7323.326
7325.725
7329.004
7333.187
7338.278
7344.265
7351.12
7358.842
7367.612
7376.74
7386.701
7397.248
7407.287
7417.318
7427.428
7437.428
7447.158
7456.518
7465.427
7473.814
7481.621
7488.811
7495.356
7501.249
7506.499
7511.13
7515.179
7518.693
7521.715
7524.287
7526.447
7528.231
7529.677
7530.822
7531.702
7532.347
7532.789
7533.056
7533.173
7533.163
7533.045
7532.834
7532.55
7532.207
7531.818
7531.388
7530.929
7530.449
7529.953
7529.449
7528.942
7528.44
7527.921
7527.341
7526.63
7525.725
7524.68
7523.61
7522.556
7521.509
7520.442
7519.261
7517.794
7515.803
7514.475
7513.737
7512.785
7511.623
7510.367
7509.082
7507.791
7506.495
7505.188
7503.868
7502.535
7501.19
7499.83
7498.455
7497.064
7495.655
7494.231
7492.789
7491.33
7489.855
7488.364
7486.858
7485.336
7483.801
7482.252
7480.691
7479.117
7477.532
7475.937
7474.332
7472.719
7471.097
7469.468
7467.832
7466.191
7464.544
7462.894
7461.239
7459.582
7457.922
7456.26
7454.597
7452.932
7451.267
7449.602
7447.936
7446.27
7444.603
7442.937
7441.27
7439.602
7437.933
7436.263
7434.591
7432.917
7431.239
7429.558
7427.872
7426.179
7424.479
7422.771
7421.052
7419.319
7417.571
7415.803
7414.011
7412.192
7410.34
7408.449
7406.51
7404.511
7402.442
7400.282
7398.015
7395.606
7393.033
7390.244
7387.235
7384.006
7380.827
7378.221
7377.314
7378.677
7382.76
4253.232
4296.622
4355.345
4426.254
4507.861
4599.685
4701.42
4813.11
4934.213
5063.186
5199.779
5345.396
5495.76
5650.892
5809.159
5967.468
6122.556
6271.268
6412.293
6556.973
6670.976
6769.094
6848.266
6906.242
6941.483
6953.1
6941.084
6906.253
6853.674
6779.958
6690.384
6587.86
6476.526
6359.487
6239.741
6120.042
6003.175
5891.122
5774.265
5672.799
5577.955
5491.746
5414.934
5347.508
5289.766
5241.745
5203.554
5173.167
5149.055
5134.059
5124.902
5121.489
5123.2
5129.178
5138.692
5154.59
5159.889
5170.417
5181.867
5190.761
5196.824
5200.688
5202.754
5203.186
5202.145
5199.561
5196.458
5194.298
5193.185
5194.315
5199.339
5209.453
5225.249
5246.991
5274.647
5308.156
5346.642
5388.901
5435.256
5485.306
5537.777
5591.367
5644.66
5696.601
5746.551
5794.048
5838.635
5880.63
5920.286
5957.833
5993.322
6027.042
6058.542
6091.364
6124.858
6154.187
6180.532
6207.188
6234.41
6261.352
6287.513
6312.645
6336.556
6359.094
6379.895
6398.503
6415.128
6430.04
6443.358
6455.296
6465.813
6474.692
6481.248
6485.396
6479.958
6463.738
6445.788
6426.821
6401.017
6366.167
6325.056
6281.04
6235.367
6188.033
6139.056
6088.947
6038.505
5988.846
5941.73
5899.663
5865.793
5844.144
5838.372
5851.045
5881.945
5926.44
5981.727
6045.095
6105.556
6155.07
6193.585
6225.044
6249.519
6274.557
6310.168
6353.034
6395.683
6435.3
6471.999
6506.465
6539.028
6569.725
6598.594
6625.747
6651.262
6675.078
6696.908
6716.304
6732.856
6746.265
6756.278
6762.695
6765.459
6764.361
6759.174
6749.779
6736.272
6718.98
6698.532
6676
6653.09
6631.928
6614.555
6602.394
6595.994
6595.208
6599.263
6606.984
6617.234
6629.024
6641.334
6653.308
6664.128
6674.317
6684.793
6690.2
6697.632
6710.35
6724.46
6742.686
6764.679
6787.251
6815.57
6847.578
6876.758
6903.964
6931.166
6958.364
6984.508
7008.899
7031.906
7053.741
7074.527
7094.651
7114.068
7132.583
7150.264
7167.074
7183.017
7198.161
7212.484
7226.084
7239.034
7251.374
7263.244
7274.804
7285.937
7296.81
7307.668
7318.787
7330.164
7342.058
7354.538
7367.536
7381.095
7394.819
7407.904
7419.403
7427.868
7428.685
7431.37
7444.21
7458.938
7470.576
7474.884
7478.379
7483.621
7482.886
7476.023
7469.253
7467.591
7468.866
7472.61
7475.119
7469.073
7460.321
7453.757
7449.816
7447.019
7444.036
7441.222
7438.403
7435.081
7431.21
7426.753
7421.494
7415.299
7408.123
7399.942
7390.774
7380.704
7369.871
7358.467
7346.729
7334.947
7323.44
7312.538
7302.563
7293.81
7286.53
7280.912
7277.061
7275.034
7274.698
7276.009
7278.751
7282.71
7287.669
7293.388
7299.532
7305.758
7311.788
7317.406
7322.44
7326.761
7330.288
7332.987
7334.855
7335.923
7336.24
7335.88
7334.928
7333.495
7331.689
7329.642
7327.476
7325.322
7323.321
7321.598
7320.284
7319.499
7319.345
7319.902
7321.243
7323.431
7326.51
7330.508
7335.427
7341.245
7347.914
7355.341
7363.402
7371.255
7380.312
7390.14
7400.031
7410.01
7420.073
7430.068
7439.846
7449.304
7458.358
7466.933
7474.976
7482.444
7489.296
7495.519
7501.117
7506.101
7510.509
7514.39
7517.783
7520.722
7523.238
7525.365
7527.138
7528.593
7529.765
7530.682
7531.375
7531.87
7532.193
7532.366
7532.41
7532.344
7532.185
7531.945
7531.64
7531.281
7530.877
7530.439
7529.97
7529.477
7528.961
7528.418
7527.836
7527.192
7526.462
7525.615
7524.646
7523.621
7522.585
7521.539
7520.477
7519.408
7518.44
7517.521
7516.347
7514.952
7513.478
7512.034
7510.637
7509.271
7507.92
7506.574
7505.225
7503.868
7502.502
7501.124
7499.734
7498.331
7496.913
7495.481
7494.033
7492.571
7491.094
7489.602
7488.096
7486.577
7485.045
7483.501
7481.946
7480.379
7478.803
7477.217
7475.622
7474.019
7472.409
7470.793
7469.17
7467.543
7465.91
7464.274
7462.634
7460.991
7459.345
7457.698
7456.049
7454.398
7452.747
7451.095
7449.442
7447.788
7446.134
7444.479
7442.824
7441.167
7439.509
7437.85
7436.188
7434.523
7432.856
7431.185
7429.509
7427.828
7426.14
7424.445
7422.74
7421.025
7419.297
7417.554
7415.793
7414.01
7412.202
7410.365
7408.492
7406.578
7404.615
7402.592
7400.499
7398.323
7396.05
7393.675
7391.197
7388.66
7386.153
7383.877
7382.079
7381.083
7381.27
7382.875
4171.712
4147.71
4131.015
4116.738
4107.863
4109.147
4120.338
4144.583
4179.189
4196.913
4199.931
4215.659
4247.086
4291.944
4349.949
4419.041
4498.013
4586.846
4685.315
4792.187
4908.183
5032.658
5164.516
5303.397
5448.079
5597.243
5749.334
5902.189
6053.137
6198.66
6337.446
6492.516
6611.817
6706.783
6781.808
6835.264
6865.439
6871.734
6854.703
6815.868
6757.653
6681.446
6589.405
6485.03
6372.023
6254.04
6134.169
6015.678
5900.769
5790.088
5684.79
5587.036
5497.589
5417.073
5346.011
5284.574
5232.743
5190.356
5156.997
5132.004
5114.555
5103.961
5099.66
5101.028
5107.279
5117.53
5130.338
5144.802
5158.72
5172.722
5184.952
5193.531
5199.431
5203.218
5204.919
5204.443
5201.716
5197.183
5191.7
5185.951
5181.438
5179.951
5182.866
5191.298
5206.014
5227.385
5255.531
5290.134
5330.156
5375.105
5424.851
5478.218
5533.663
5589.772
5645.515
5699.743
5751.465
5800.233
5846.042
5888.885
5928.978
5966.68
6002.422
6036.536
6069.999
6100.459
6130.797
6159.97
6187.451
6214.861
6242.381
6269.548
6295.901
6321.137
6345.035
6367.325
6387.676
6405.934
6422.047
6436.053
6447.984
6457.876
6465.604
6471.166
6474.132
6473.823
6466.953
6452.621
6434.209
6412.732
6385.878
6352.299
6313.18
6270.584
6225.602
6178.203
6128.268
6076.277
6022.938
5969.268
5917.057
5868.94
5828.791
5802.036
5794.006
5806.223
5837.154
5882.692
5938.866
6001.661
6064.233
6121.087
6170.65
6214.182
6251.783
6287.57
6326.683
6368.544
6409.563
6447.932
6483.779
6517.674
6549.926
6580.639
6609.903
6637.773
6664.051
6688.528
6711.151
6731.314
6748.513
6762.459
6772.858
6779.442
6781.976
6780.108
6773.491
6761.91
6745.402
6724.14
6698.647
6670.266
6641.401
6615.136
6594.426
6581.103
6575.496
6577.067
6584.633
6596.309
6610.254
6624.872
6638.651
6650.623
6656.5
6646.791
6656.827
6677.542
6690.209
6697.156
6706.024
6721.717
6743.907
6770.437
6800.995
6833.335
6864.684
6894.927
6925.751
6956.947
6987.06
7014.438
7039.285
7062.517
7084.34
7104.842
7124.354
7142.868
7160.21
7176.418
7191.629
7205.947
7219.395
7232.062
7244.062
7255.468
7266.373
7276.886
7287.052
7296.942
7306.754
7316.656
7326.807
7337.265
7348.037
7359.129
7370.497
7381.84
7392.784
7402.666
7410.115
7414.13
7419.694
7429.882
7440.617
7449.644
7456.864
7463.567
7466.941
7464.624
7461.198
7463.41
7468.979
7471.838
7468.542
7464.704
7463.627
7464.03
7461.997
7456.712
7450.873
7446.241
7443.052
7440.229
7436.99
7433.423
7429.308
7424.197
7417.995
7410.767
7402.493
7393.156
7382.841
7371.686
7359.873
7347.638
7335.286
7323.163
7311.627
7301.028
7291.693
7283.905
7277.875
7273.736
7271.532
7271.221
7272.667
7275.679
7280.015
7285.405
7291.562
7298.15
7304.832
7311.317
7317.371
7322.805
7327.473
7331.285
7334.206
7336.236
7337.405
7337.762
7337.376
7336.336
7334.774
7332.753
7330.454
7328.006
7325.535
7323.181
7321.061
7319.332
7318.122
7317.533
7317.641
7318.522
7320.246
7322.871
7326.428
7330.922
7336.333
7342.615
7349.682
7357.46
7365.796
7374.987
7384.72
7394.647
7404.687
7414.787
7424.829
7434.686
7444.252
7453.438
7462.172
7470.395
7478.067
7485.123
7491.552
7497.386
7502.614
7507.261
7511.387
7515.036
7518.231
7520.986
7523.332
7525.309
7526.958
7528.312
7529.4
7530.251
7530.894
7531.355
7531.656
7531.816
7531.855
7531.789
7531.633
7531.399
7531.099
7530.743
7530.34
7529.896
7529.415
7528.9
7528.347
7527.748
7527.084
7526.344
7525.523
7524.605
7523.63
7522.626
7521.602
7520.558
7519.491
7518.384
7517.174
7515.865
7514.558
7513.268
7511.973
7510.662
7509.337
7508
7506.652
7505.295
7503.926
7502.545
7501.149
7499.739
7498.315
7496.876
7495.423
7493.955
7492.473
7490.977
7489.467
7487.945
7486.411
7484.866
7483.309
7481.743
7480.167
7478.582
7476.99
7475.39
7473.784
7472.172
7470.555
7468.933
7467.307
7465.678
7464.046
7462.412
7460.776
7459.138
7457.499
7455.859
7454.218
7452.577
7450.935
7449.293
7447.651
7446.008
7444.364
7442.719
7441.074
7439.427
7437.777
7436.126
7434.471
7432.814
7431.152
7429.485
7427.813
7426.134
7424.448
7422.753
7421.048
7419.331
7417.6
7415.853
7414.087
7412.3
7410.488
7408.647
7406.773
7404.86
7402.904
7400.899
7398.841
7396.729
7394.574
7392.395
7390.246
7388.199
7386.392
7384.935
7384.051
7383.809
7384.414
4603.966
4561.925
4520.678
4479.203
4434.799
4390.043
4349.214
4309.339
4271.99
4237.199
4204.718
4176.266
4150.991
4130.364
4114.877
4104.952
4101.957
4107.416
4119.819
4135.415
4150.417
4169.136
4196.161
4233.491
4281.314
4339.519
4408.86
4488.281
4577.492
4676.143
4783.832
4900.101
5024.401
5156.074
5294.359
5438.285
5586.574
5737.068
5888.362
6038.251
6182.294
6321.038
6438.379
6551.653
6646.464
6720.977
6773.431
6802.405
6807.294
6788.647
6747.778
6686.991
6608.639
6515.13
6409.717
6295.906
6177.725
6057.799
5939.875
5824.924
5713.31
5608.52
5512.859
5426.752
5350.127
5283.168
5225.91
5178.262
5140.043
5110.861
5090.099
5077.025
5070.924
5070.992
5076.62
5087.32
5102.379
5120.229
5139.316
5158.155
5175.152
5189.301
5199.68
5206.493
5210.65
5212.101
5210.474
5205.502
5197.459
5187.21
5176.206
5166.579
5160.277
5158.872
5163.817
5176.187
5196.434
5224.533
5260.14
5302.475
5350.978
5404.644
5461.988
5521.405
5581.465
5640.894
5698.421
5752.943
5803.89
5851.147
5894.861
5935.411
5973.277
6008.963
6042.824
6075.261
6106.023
6136.154
6165.514
6194.591
6223.12
6251.418
6279.286
6306.335
6332.203
6356.543
6379.031
6399.338
6417.382
6433.064
6446.25
6456.835
6464.879
6470.246
6473.037
6472.965
6469.453
6461.218
6447.303
6428.451
6405.299
6377.103
6343.349
6305.259
6263.935
6219.463
6171.564
6120.186
6065.684
6008.309
5948.719
5888.581
5830.352
5778.692
5741.498
5729.098
5740.529
5773.392
5822.714
5883.492
5950.964
6019.865
6085.747
6146.125
6200.607
6249.591
6294.824
6338.493
6381.073
6421.772
6459.854
6495.41
6529.028
6561.165
6592
6621.417
6648.896
6676.48
6703.337
6727.453
6748.566
6766.668
6781.423
6792.456
6799.42
6801.941
6799.524
6791.651
6777.924
6758.267
6732.736
6701.382
6665.301
6627.89
6593.856
6567.607
6551.626
6546.74
6552.387
6566.156
6583.833
6602.998
6621.521
6635.581
6611.749
6504.802
6578.072
6668.418
6686.674
6683.21
6681.425
6683.882
6696.905
6720.489
6751.564
6784.402
6812.719
6847.169
6885.736
6921.58
6954.514
6985.668
7015.07
7042.81
7068.735
7093.008
7115.293
7135.466
7153.987
7171.046
7186.701
7201.128
7214.515
7227.001
7238.693
7249.698
7260.088
7269.938
7279.338
7288.364
7297.1
7305.705
7314.325
7323.049
7331.953
7341.073
7350.393
7359.855
7369.295
7378.328
7386.585
7393.777
7399.74
7406.173
7414.253
7423.059
7431.701
7438.911
7444.039
7447.059
7448.856
7451.899
7456.863
7460.386
7460.917
7460.51
7462.164
7464.182
7462.44
7458.016
7454.969
7453.976
7452.063
7448.306
7443.818
7439.706
7435.993
7431.803
7426.603
7420.346
7413.066
7404.643
7394.998
7384.278
7372.653
7360.294
7347.434
7334.425
7321.642
7309.457
7298.253
7288.385
7280.174
7273.858
7269.586
7267.421
7267.312
7269.129
7272.643
7277.572
7283.603
7290.397
7297.604
7304.868
7311.886
7318.418
7324.253
7329.217
7333.224
7336.259
7338.331
7339.476
7339.758
7339.231
7337.977
7336.111
7333.826
7331.219
7328.436
7325.602
7322.851
7320.359
7318.231
7316.643
7315.701
7315.451
7315.959
7317.32
7319.604
7322.854
7327.074
7332.244
7338.329
7345.271
7353.021
7361.466
7370.574
7380.196
7390.13
7400.248
7410.443
7420.595
7430.578
7440.282
7449.612
7458.492
7466.865
7474.68
7481.894
7488.452
7494.223
7499.517
7504.356
7508.752
7512.628
7516.022
7518.975
7521.504
7523.652
7525.466
7526.982
7528.215
7529.196
7529.962
7530.539
7530.948
7531.208
7531.34
7531.358
7531.278
7531.112
7530.871
7530.566
7530.205
7529.794
7529.335
7528.822
7528.266
7527.661
7527.003
7526.276
7525.466
7524.597
7523.67
7522.699
7521.696
7520.654
7519.573
7518.444
7517.262
7516.042
7514.793
7513.518
7512.216
7510.892
7509.553
7508.201
7506.838
7505.463
7504.075
7502.672
7501.254
7499.822
7498.374
7496.912
7495.435
7493.945
7492.44
7490.923
7489.393
7487.851
7486.299
7484.736
7483.163
7481.582
7479.993
7478.397
7476.794
7475.185
7473.572
7471.954
7470.332
7468.708
7467.081
7465.452
7463.822
7462.19
7460.558
7458.926
7457.293
7455.661
7454.028
7452.396
7450.765
7449.133
7447.501
7445.87
7444.238
7442.605
7440.972
7439.337
7437.7
7436.061
7434.418
7432.772
7431.122
7429.468
7427.807
7426.141
7424.468
7422.786
7421.095
7419.393
7417.679
7415.952
7414.209
7412.448
7410.668
7408.866
7407.04
7405.188
7403.307
7401.397
7399.463
7397.509
7395.554
7393.622
7391.761
7390.028
7388.517
7387.301
7386.515
7386.164
7386.377
5049.634
4999.756
4953.5
4906.588
4864.598
4817.331
4775.707
4733.937
4691.564
4649.161
4607.018
4565.473
4523.007
4480.862
4437.516
4389.061
4348.014
4308.741
4271.199
4235.831
4203.101
4173.574
4147.431
4125.278
4108.05
4096.1
4088.741
4088.483
4093.943
4103.985
4118.346
4139.121
4167.912
4205.635
4253.19
4310.677
4378.289
4456.005
4543.399
4640.059
4745.557
4859.511
4981.515
5110.858
5246.586
5387.252
5531.6
5678.384
5826.041
5972.746
6116.499
6253.672
6376.377
6485.895
6577.275
6647.752
6695.451
6719.301
6718.954
6695.09
6649.181
6583.508
6500.883
6404.234
6296.964
6182.477
6064.925
5947.262
5830.754
5716.335
5606.65
5505.692
5415.024
5334.203
5262.996
5201.506
5149.667
5107.453
5074.794
5051.203
5035.969
5028.475
5027.938
5033.451
5044.635
5061.406
5083.292
5108.36
5134.143
5158.658
5180.287
5198.076
5210.772
5218.455
5222.821
5223.924
5220.783
5212.566
5199.193
5181.878
5162.98
5145.559
5132.007
5124.283
5124.368
5133.697
5152.683
5181.184
5218.632
5264.376
5317.473
5376.536
5439.62
5504.711
5570.214
5634.748
5696.814
5755.013
5808.535
5857.297
5901.719
5942.438
5980.126
6015.419
6048.82
6080.807
6111.686
6142.002
6172.015
6201.891
6231.625
6261.211
6290.378
6318.682
6345.713
6371.087
6394.357
6415.067
6432.809
6447.433
6459.196
6468.148
6474.324
6477.814
6478.557
6476.315
6470.57
6460.654
6445.971
6425.888
6399.714
6367.736
6336.037
6300.612
6260.073
6215.662
6167.043
6113.847
6056.622
5994.833
5927.977
5857.14
5784.472
5715.896
5659.792
5643.42
5654.052
5691.228
5749.172
5819.183
5895.564
5974.053
6050.399
6121.733
6186.933
6245.805
6298.562
6346.439
6391.29
6432.755
6470.789
6506.117
6539.477
6571.169
6598.27
6622.003
6656.986
6691.377
6719.803
6744.9
6767.333
6786.677
6802.509
6814.418
6822.079
6825.117
6822.882
6814.509
6799.229
6776.83
6747.093
6708.863
6662.196
6611.791
6562.96
6516.347
6491.316
6501.182
6522.241
6544.564
6570.171
6597.037
6618.712
6548.137
6414.719
6441.532
6591.375
6682.06
6686.762
6675.58
6664.665
6657.109
6660.82
6665.734
6644.411
6699.398
6788.487
6843.666
6882.188
6918.97
6954.403
6987.748
7018.769
7047.212
7073.851
7099.021
7122.431
7143.659
7162.876
7180.274
7195.944
7210.067
7222.864
7234.525
7245.34
7255.428
7264.827
7273.617
7281.896
7289.743
7297.255
7304.562
7311.792
7319.044
7326.402
7333.907
7341.556
7349.319
7357.085
7364.641
7371.883
7378.685
7384.922
7391.291
7398.559
7406.455
7414.162
7420.755
7426.243
7431.394
7436.44
7440.841
7444.245
7446.89
7449.634
7453.215
7456.788
7457.915
7457.194
7456.594
7455.868
7453.585
7450.683
7448.924
7447.695
7444.821
7440.399
7435.03
7429.255
7422.79
7415.211
7406.418
7396.429
7385.309
7373.184
7360.246
7346.748
7333.027
7319.516
7306.67
7294.866
7284.471
7275.866
7269.305
7264.958
7262.907
7263.131
7265.442
7269.596
7275.268
7282.092
7289.69
7297.678
7305.648
7313.264
7320.309
7326.587
7331.862
7336.018
7339.09
7341.109
7342.119
7342.187
7341.402
7339.871
7337.708
7335.061
7332.059
7328.85
7325.582
7322.403
7319.467
7316.935
7314.948
7313.643
7313.057
7313.238
7314.302
7316.332
7319.373
7323.421
7328.452
7334.44
7341.333
7349.064
7357.52
7366.617
7376.243
7386.253
7396.494
7406.834
7417.146
7427.305
7437.198
7446.725
7455.804
7464.366
7472.344
7479.701
7486.424
7492.293
7496.377
7500.849
7505.961
7510.664
7514.307
7517.33
7519.936
7522.174
7524.088
7525.723
7527.083
7528.18
7529.058
7529.744
7530.25
7530.599
7530.814
7530.909
7530.899
7530.797
7530.614
7530.359
7530.042
7529.677
7529.227
7528.746
7528.212
7527.623
7526.976
7526.264
7525.484
7524.642
7523.745
7522.802
7521.815
7520.793
7519.727
7518.618
7517.467
7516.273
7515.038
7513.768
7512.468
7511.147
7509.806
7508.449
7507.076
7505.687
7504.282
7502.86
7501.422
7499.968
7498.498
7497.013
7495.513
7493.999
7492.472
7490.932
7489.38
7487.816
7486.243
7484.661
7483.069
7481.471
7479.865
7478.254
7476.637
7475.016
7473.392
7471.765
7470.135
7468.505
7466.873
7465.241
7463.61
7461.978
7460.348
7458.718
7457.09
7455.463
7453.837
7452.213
7450.589
7448.967
7447.346
7445.726
7444.105
7442.485
7440.864
7439.242
7437.618
7435.992
7434.363
7432.731
7431.095
7429.454
7427.808
7426.157
7424.499
7422.833
7421.159
7419.477
7417.784
7416.08
7414.364
7412.635
7410.892
7409.134
7407.361
7405.573
7403.772
7401.96
7400.144
7398.336
7396.553
7394.823
7393.183
7391.682
7390.385
7389.346
7388.64
7388.272
7388.321
5226.351
5220.188
5190.585
5143.715
5091.643
5041.575
4993.32
4947.909
4904.863
4861.64
4812.787
4771.188
4730.07
4688.663
4646.829
4604.721
4562.415
4519.736
4476.948
4434.856
4394.364
4353.649
4314.027
4275.812
4239.419
4205.237
4173.724
4144.988
4119.596
4098.411
4082.06
4071.479
4067.004
4068.161
4075.258
4088.896
4110.003
4139.333
4177.645
4225.285
4282.46
4349.268
4425.704
4511.5
4606.308
4709.721
4821.421
4940.935
5067.068
5198.549
5334.752
5475.063
5618.413
5763.429
5906.971
6046.287
6177.816
6296.385
6399.075
6483.122
6545.705
6584.939
6599.952
6590.839
6558.53
6504.796
6432.215
6343.908
6243.43
6134.573
6020.823
5903.974
5787.21
5673.001
5563.177
5461.424
5369.485
5287.318
5214.308
5150.584
5096.3
5051.4
5016.112
4990.598
4974.301
4966.393
4966.076
4972.165
4983.919
5002.149
5027.597
5059.358
5094.219
5129.04
5161.819
5190.737
5213.069
5227.249
5235.597
5240.784
5242.096
5237.366
5224.769
5203.984
5176.479
5146.021
5117.324
5093.357
5076.911
5070.854
5076.789
5094.843
5124.33
5164.587
5215.037
5274.668
5341.427
5412.344
5484.881
5557.532
5628.832
5696.817
5759.588
5816.066
5866.303
5911.114
5951.54
5988.567
6023.059
6055.711
6087.112
6117.731
6148.061
6178.551
6209.456
6240.712
6272.072
6303.078
6333.209
6361.903
6388.455
6412.343
6433.07
6450.407
6464.301
6474.932
6482.356
6486.552
6487.579
6485.996
6481.824
6474.586
6462.927
6444.394
6412.223
6385.841
6363.22
6336.791
6298.929
6257.28
6213.427
6166.108
6112.016
6051.493
5984.751
5910.374
5826.237
5732.32
5641.09
5574.779
5536.547
5547.729
5595.426
5665.09
5746.826
5835.654
5927.173
6016.178
6099.338
6175.182
6242.215
6301.606
6354.724
6402.093
6443.911
6481.656
6516.578
6549.243
6573.145
6590.882
6626.887
6670.738
6706.653
6736.028
6762.81
6786.899
6807.703
6824.742
6837.971
6846.999
6851.248
6850.039
6842.039
6825.782
6800.915
6766.887
6720.434
6658.854
6582.706
6461.592
6411.681
6430.167
6463.41
6486.376
6517.478
6554.536
6591.748
6561.853
6383.093
6435.843
6612.539
6708.107
6707.988
6690.488
6672.269
6646.023
6579.579
6121.354
6077.766
6440.163
6733.754
6800.38
6836.767
6874.972
6915.451
6954.284
6987.304
7017.848
7049.696
7079.984
7106.077
7129.663
7151.168
7170.584
7188.011
7203.573
7217.426
7229.725
7240.919
7251.15
7260.46
7268.974
7276.811
7284.047
7290.757
7297.044
7303.037
7308.887
7314.714
7320.584
7326.547
7332.631
7338.847
7345.161
7351.506
7357.833
7364.02
7370.061
7376.259
7382.994
7390.093
7397.132
7403.85
7410.252
7416.368
7421.918
7426.802
7431.505
7436.44
7441.197
7444.931
7447.491
7449.278
7451.502
7453.398
7453.453
7452.492
7451.57
7450.116
7447.501
7444.715
7442.208
7438.557
7433.057
7425.943
7417.476
7408.016
7397.594
7386.051
7373.431
7359.971
7345.949
7331.643
7317.455
7303.872
7291.374
7280.456
7271.509
7264.744
7260.343
7258.446
7259.024
7261.877
7266.731
7273.213
7280.897
7289.361
7298.238
7307.042
7315.336
7322.877
7329.427
7334.871
7339.164
7342.286
7344.25
7345.109
7344.938
7343.863
7342.017
7339.511
7336.488
7333.079
7329.44
7325.743
7322.143
7318.789
7315.828
7313.386
7311.591
7310.57
7310.412
7311.192
7312.98
7315.84
7319.745
7324.645
7330.527
7337.352
7345.045
7353.507
7362.647
7372.337
7382.432
7392.782
7403.25
7413.706
7424.027
7434.098
7443.816
7453.093
7461.855
7470.051
7477.632
7484.574
7490.735
7494.111
7496.954
7501.913
7508.171
7512.95
7516.219
7518.868
7521.128
7523.056
7524.689
7526.055
7527.195
7528.143
7528.921
7529.524
7529.961
7530.262
7530.436
7530.495
7530.457
7530.332
7530.128
7529.853
7529.505
7529.121
7528.672
7528.163
7527.597
7526.971
7526.284
7525.534
7524.725
7523.862
7522.949
7521.988
7520.986
7519.94
7518.855
7517.723
7516.537
7515.312
7514.053
7512.764
7511.449
7510.111
7508.751
7507.37
7505.97
7504.55
7503.112
7501.655
7500.18
7498.688
7497.18
7495.657
7494.118
7492.567
7491.002
7489.426
7487.839
7486.243
7484.638
7483.026
7481.407
7479.782
7478.152
7476.519
7474.883
7473.244
7471.605
7469.965
7468.325
7466.686
7465.048
7463.412
7461.778
7460.146
7458.518
7456.891
7455.268
7453.647
7452.029
7450.413
7448.799
7447.188
7445.578
7443.969
7442.361
7440.753
7439.144
7437.534
7435.922
7434.308
7432.69
7431.07
7429.445
7427.815
7426.18
7424.54
7422.893
7421.239
7419.578
7417.91
7416.232
7414.547
7412.853
7411.15
7409.44
7407.723
7406.001
7404.278
7402.559
7400.854
7399.175
7397.54
7395.975
7394.511
7393.186
7392.047
7391.134
7390.494
7390.133
7390.103
5223.979
5202.226
5149.094
5104.89
5059.734
5015.814
4973.403
4932.292
4892.053
4852.552
4814.032
4774.476
4734.398
4693.686
4652.437
4610.549
4568.098
4525.154
4481.838
4438.775
4397.233
4356.391
4316.276
4277.233
4239.272
4202.567
4168.064
4136.449
4108.299
4084.168
4065.184
4052.269
4045.514
4044.905
4050.847
4063.909
4084.695
4113.821
4151.751
4198.807
4255.19
4320.965
4396.04
4480.21
4573.181
4674.457
4783.532
4899.17
5020.339
5146.788
5278.785
5415.543
5555.146
5695.508
5833.667
5966.299
6089.697
6199.622
6292.305
6365.099
6415.554
6442.232
6444.575
6423.156
6379.472
6315.745
6235.147
6141.444
6038.002
5926.67
5811.507
5695.144
5580.843
5473.229
5374.126
5284.736
5205.089
5133.644
5070.073
5015.266
4969.523
4932.976
4906.235
4889.711
4882.329
4883.129
4891.595
4905.285
4923.134
4948.126
4983.611
5028.801
5077.231
5123.709
5167.187
5205.693
5233.284