/*--------------------------------*- C++ -*----------------------------------*\
| =========                 |                                                 |
| \\      /  F ield         | foam-extend: Open Source CFD                    |
|  \\    /   O peration     | Version:     3.1                                |
|   \\  /    A nd           | Web:         http://www.extend-project.de       |
|    \\/     M anipulation  |                                                 |
\*---------------------------------------------------------------------------*/
FoamFile
{
    version     2.0;
    format      ascii;
    class       surfaceScalarField;
    location    "12.5";
    object      phi;
}
// * * * * * * * * * * * * * * * * * * * * * * * * * * * * * * * * * * * * * //

dimensions      [0 3 -1 0 0 0 0];

internalField   nonuniform List<scalar> 
275122
(
-0.0002806069
0.0002853488
-2.329857e-07
-4.508917e-06
-0.0002546669
0.0002439382
9.308389e-07
9.797871e-06
-0.0002568147
0.0002648125
-2.697715e-07
-7.728009e-06
-0.0002917521
0.000300723
-2.438008e-07
-8.727093e-06
-0.0003235421
0.0003272597
-2.820658e-07
-3.435512e-06
-0.0003303975
0.0003308751
-2.945088e-07
-1.830741e-07
-0.0003313923
0.0003312691
-2.648724e-07
3.881552e-07
-0.0003304556
0.0003300585
-2.420142e-07
6.39129e-07
-0.000328636
0.0003280876
-2.194445e-07
7.679237e-07
-0.0003262656
0.0003255919
-1.981189e-07
8.71752e-07
-0.0003233898
0.0003225894
-1.768266e-07
9.772104e-07
-0.0003199993
0.0003190589
-1.585294e-07
1.098933e-06
-0.0003160172
0.0003149221
-1.44651e-07
1.239702e-06
-0.0003113934
0.0003101293
-1.318318e-07
1.395892e-06
-0.0003060734
0.0003046257
-1.190879e-07
1.566812e-06
-0.0002999942
0.0002983503
-1.073285e-07
1.751227e-06
-0.0002931206
0.0002912789
-9.680061e-08
1.938459e-06
-0.0002854991
0.0002835168
-9.831712e-08
2.080572e-06
-0.0002775615
0.0002757309
-1.411824e-07
1.971831e-06
-0.0002712448
0.0002711809
-4.130921e-07
4.770697e-07
-0.0002981934
0.0003092383
-9.930333e-07
-1.005189e-05
-0.0003086907
0.0003068115
-9.490968e-08
1.974118e-06
-0.0003058404
0.0003066968
-8.596209e-08
-7.704327e-07
-0.0003359333
0.0003467742
3.469538e-07
-1.118788e-05
-0.0003432132
0.0003404661
5.439261e-07
2.20313e-06
-0.0003372482
0.0003358927
-1.332278e-07
1.488825e-06
-0.000331214
0.0003285055
-1.244721e-07
2.833049e-06
-0.0003209519
0.0003165421
-1.136491e-07
4.523461e-06
-0.0002944616
0.0002742874
-1.464663e-07
2.032066e-05
-0.0001380868
0.0001417584
3.192598e-09
-3.674777e-06
-0.0002006174
0.0002101425
-5.401612e-08
-9.471123e-06
-0.0002370872
0.0002460863
6.380635e-09
-9.005445e-06
-0.0002729668
0.0002818717
6.621713e-09
-8.911481e-06
-0.0003086393
0.0003175675
6.536917e-09
-8.934714e-06
-0.0003444393
0.0003533845
6.661613e-09
-8.951938e-06
-0.0003801374
0.0003889998
6.488364e-09
-8.868842e-06
-0.0004154165
0.0004241431
5.820426e-09
-8.732462e-06
-0.0004500684
0.0004586146
5.519726e-09
-8.551727e-06
-0.0004839566
0.000492311
5.080364e-09
-8.359536e-06
-0.000516805
0.0005262247
1.562652e-07
-9.575949e-06
7.782188e-06
-0.0003552248
0.0003555394
-4.782048e-10
-8.096245e-06
7.523486e-06
-0.0003560736
0.0003562582
-1.188215e-09
-7.706878e-06
7.595582e-06
-0.0003566473
0.0003567246
-1.610414e-09
-7.671307e-06
7.752474e-06
-0.0003567262
0.0003566787
-1.450498e-09
-7.703616e-06
7.960613e-06
-0.0003563295
0.0003561657
-1.312576e-09
-7.795483e-06
8.172565e-06
-0.0003555529
0.0003553153
-9.837323e-10
-7.934058e-06
8.313586e-06
-0.000354624
0.0003543894
-9.081588e-10
-8.078168e-06
8.490301e-06
-0.0003537254
0.0003535182
-7.135267e-10
-8.282396e-06
9.016167e-06
-0.0003527233
0.0003518527
-2.735173e-10
-8.145219e-06
7.454761e-06
-0.001435074
0.001437295
-2.044671e-11
-3.263498e-05
7.783217e-06
7.427906e-06
7.748182e-06
8.549243e-06
-0.0014373
0.001437117
-3.818147e-11
-3.466014e-05
8.895922e-06
8.527696e-06
8.870723e-06
8.832744e-06
-0.001437006
0.00143736
-3.443191e-11
-3.594127e-05
8.983663e-06
8.808935e-06
8.961805e-06
9.129703e-06
-0.001437811
0.001438485
-3.728392e-12
-3.736604e-05
9.235089e-06
9.109236e-06
9.21779e-06
9.384727e-06
-0.001439389
0.001440728
3.824932e-11
-3.906449e-05
9.494947e-06
9.368667e-06
9.477366e-06
9.72956e-06
-0.001442251
0.001444187
5.401554e-11
-4.097016e-05
9.800592e-06
9.715945e-06
9.787794e-06
1.00403e-05
-0.00144635
0.001448973
7.003659e-11
-4.292058e-05
1.012133e-05
1.002727e-05
1.010807e-05
1.036417e-05
-0.00145189
0.001455325
2.699931e-12
-4.494939e-05
1.040511e-05
1.035124e-05
1.039386e-05
1.071759e-05
-0.001459129
0.001463138
-1.703652e-10
-4.698947e-05
1.078131e-05
1.070942e-05
1.077252e-05
1.062361e-05
-0.001465929
0.00147222
-4.70481e-10
-4.901523e-05
1.074433e-05
1.061135e-05
1.074572e-05
1.139967e-05
-0.00147857
0.001484077
-3.685098e-11
-5.131903e-05
1.151337e-05
1.139394e-05
1.150581e-05
1.181571e-05
-0.001489708
0.001495966
1.610037e-10
-5.341174e-05
1.17777e-05
1.179446e-05
1.176619e-05
1.216702e-05
-0.001502531
0.00150951
8.667928e-11
-5.571027e-05
1.220203e-05
1.216198e-05
1.219965e-05
1.260002e-05
-0.001516645
0.001524307
1.604889e-11
-5.81257e-05
1.262985e-05
1.260057e-05
1.263258e-05
1.302371e-05
-0.001532161
0.001540424
1.58517e-10
-6.047795e-05
1.308639e-05
1.302654e-05
1.307797e-05
1.348376e-05
-0.001548881
0.001557673
3.443369e-10
-6.28079e-05
1.354299e-05
1.346429e-05
1.35249e-05
1.405773e-05
-0.001566706
0.001575929
-1.17654e-10
-6.540161e-05
1.412589e-05
1.395733e-05
1.403799e-05
1.537126e-05
-0.001585205
0.001593107
-1.001225e-10
-6.876917e-05
1.5708e-05
1.479577e-05
1.499187e-05
1.813822e-05
-0.001598782
0.001599165
-7.918585e-11
-7.226969e-05
1.95657e-05
1.697593e-05
1.720686e-05
3.851708e-05
-0.001595543
0.001616203
-2.310134e-11
-5.917721e-05
3.262717e-05
-0.001642188
0.001655129
-7.883095e-12
-4.556854e-05
4.941929e-05
-0.001661436
0.001667765
2.253277e-11
-5.574829e-05
4.389309e-05
-0.001676054
0.001685113
3.984903e-11
-5.295303e-05
3.339086e-05
-0.00169346
0.001704279
4.190778e-11
-4.420991e-05
2.160324e-05
-0.001717485
0.001731054
4.785106e-11
-3.517268e-05
1.835349e-05
-0.001743837
0.001756198
5.516759e-11
-3.071419e-05
1.600149e-05
-0.001768413
0.001780208
5.651169e-11
-2.779638e-05
1.423252e-05
-0.001791748
0.001802877
4.837733e-11
-2.536079e-05
1.26849e-05
-0.001813761
0.001824249
3.140911e-11
-2.31726e-05
1.119602e-05
-0.001834504
0.001844354
4.447488e-12
-2.104631e-05
9.604507e-06
-0.00185398
0.001863183
-2.178972e-11
-1.880724e-05
7.850861e-06
-0.001872127
0.001880595
-4.197728e-11
-1.631939e-05
5.842916e-06
-0.001888767
0.001896405
-4.809343e-11
-1.348006e-05
3.506984e-06
-0.001903683
0.001910347
-4.083569e-11
-1.017106e-05
7.444907e-07
-0.001916567
0.00192218
-2.723423e-11
-6.357216e-06
-2.003624e-06
-0.001927239
0.001931429
-1.427663e-11
-2.186917e-06
-4.800625e-06
-0.001934999
0.001937537
-5.076905e-12
2.262807e-06
-6.998132e-06
-0.001939449
0.001939981
-8.85938e-13
6.466185e-06
-6.595886e-06
-0.001939478
0.001937405
5.695141e-12
8.668875e-06
-3.129234e-06
-0.001930503
0.001922792
9.054346e-12
1.084006e-05
-1.345939e-05
-0.001918484
0.001914618
1.23824e-11
1.732545e-05
-6.010685e-06
-0.001908147
0.00189718
1.778916e-11
1.697719e-05
7.083219e-06
-0.001874634
0.001853867
1.874892e-11
1.368356e-05
-1.397349e-05
-0.001837789
0.001824731
2.094103e-11
2.703143e-05
-2.888688e-05
-0.001813572
0.001800163
2.785191e-11
4.229586e-05
-3.811529e-05
-0.00178579
0.001771542
2.885984e-11
5.236333e-05
-5.374704e-05
-0.001758269
0.001747944
2.874075e-11
6.407208e-05
-8.53396e-05
-0.001738336
0.001742377
2.918569e-11
8.12977e-05
-1.850671e-05
-0.001751892
0.001742827
2.768173e-11
7.487897e-05
-1.448399e-05
-1.845541e-05
-1.436836e-05
-9.933931e-06
-0.001726438
0.001714853
2.523963e-11
5.100459e-05
-9.95525e-06
-9.760381e-06
-9.769982e-06
-8.346955e-06
-0.001704053
0.001692507
2.346843e-11
4.394206e-05
-7.969199e-06
-8.223622e-06
-7.856966e-06
-6.738831e-06
-0.001680597
0.001669525
2.551636e-11
3.743223e-05
-6.53851e-06
-6.639027e-06
-6.444216e-06
-6.038362e-06
-0.001659288
0.001650062
3.290683e-11
3.308209e-05
-5.983715e-06
-5.943961e-06
-5.889809e-06
-5.625443e-06
-0.001641329
0.001633282
4.44377e-11
3.023823e-05
-5.570459e-06
-5.527206e-06
-5.468953e-06
-5.464861e-06
-0.001625684
0.001618775
5.885471e-11
2.852815e-05
-5.477466e-06
-5.336229e-06
-5.340521e-06
-5.570586e-06
-0.001612269
0.001606331
7.331805e-11
2.796269e-05
-5.628789e-06
-5.392299e-06
-5.433341e-06
-5.829957e-06
-0.001600736
0.001595594
8.398012e-11
2.813204e-05
-5.89555e-06
-5.606403e-06
-5.658196e-06
-6.041029e-06
-0.001590732
0.001586187
7.898584e-11
2.83349e-05
-6.057094e-06
-5.833361e-06
-5.858398e-06
-5.868297e-06
-0.001581741
0.001577366
5.404679e-11
2.757263e-05
-5.781037e-06
-5.799471e-06
-5.74914e-06
-5.227939e-06
-0.001572838
0.001568148
2.426371e-11
2.54911e-05
-5.061569e-06
-5.323175e-06
-5.18863e-06
-4.333259e-06
-0.001563121
0.001557879
2.946684e-12
2.258922e-05
-4.161437e-06
-4.509961e-06
-4.34202e-06
-3.507677e-06
-0.001552343
0.001546679
-8.172413e-12
1.965914e-05
-3.354257e-06
-3.638278e-06
-3.494935e-06
-2.855961e-06
-0.001540853
0.001535116
-1.208198e-11
1.718382e-05
-2.768204e-06
-2.966076e-06
-2.856217e-06
-2.403311e-06
-0.001529408
0.001523966
-1.562454e-11
1.499198e-05
-2.336983e-06
-2.443428e-06
-2.366737e-06
-1.964067e-06
-0.001518702
0.001513856
-2.121717e-11
1.258e-05
-1.893204e-06
-1.975481e-06
-1.900932e-06
-1.466206e-06
-0.0015093
0.001505308
-2.762511e-11
9.688293e-06
-1.385059e-06
-1.463606e-06
-1.381375e-06
-9.04572e-07
-0.001501711
0.001498818
-3.321576e-11
6.321509e-06
-8.173227e-07
-8.967446e-07
-8.102542e-07
-3.075259e-07
-0.001496421
0.001494856
-3.746876e-11
2.622667e-06
-2.263258e-07
-3.012987e-07
-2.218889e-07
2.748259e-07
-0.001493911
0.001493856
-4.198126e-11
-1.234336e-06
3.637946e-07
2.807679e-07
3.700131e-07
8.168381e-07
-0.001494446
0.00149603
-4.690714e-11
-5.024009e-06
8.951729e-07
8.236035e-07
9.037876e-07
1.298279e-06
-0.00149828
0.001501519
-5.23904e-11
-8.57718e-06
1.363549e-06
1.305138e-06
1.371066e-06
1.708697e-06
-0.001505416
0.001510249
-5.905116e-11
-1.178607e-05
1.762547e-06
1.714119e-06
1.767942e-06
2.051635e-06
-0.001515693
0.001521963
-6.410589e-11
-1.457099e-05
2.096708e-06
2.054112e-06
2.09831e-06
2.324839e-06
0.001536197
-6.765676e-11
-1.680345e-05
2.357783e-06
2.32357e-06
2.355611e-06
-0.001528755
2.479754e-06
-0.00154404
0.00155233
-6.46263e-11
-1.822114e-05
2.48583e-06
2.479248e-06
2.486177e-06
2.470342e-06
-0.0015609
0.00156969
-5.724069e-11
-1.863259e-05
2.44987e-06
2.471671e-06
2.451248e-06
2.305192e-06
-0.001578603
0.001587487
-5.090528e-11
-1.801912e-05
2.262108e-06
2.305792e-06
2.262504e-06
2.014326e-06
-0.001596332
0.001604935
-4.437354e-11
-1.653957e-05
1.954707e-06
2.013823e-06
1.954077e-06
1.641872e-06
-0.001613374
0.001621432
-3.699498e-11
-1.44846e-05
1.572731e-06
1.640535e-06
1.571428e-06
1.236704e-06
-0.001629248
0.001636601
-2.964655e-11
-1.215123e-05
1.164618e-06
1.234922e-06
1.162743e-06
8.183421e-07
-0.001643703
0.001650365
-2.325516e-11
-9.800825e-06
7.530999e-07
8.159593e-07
7.512191e-07
4.342739e-07
-0.001656775
0.001662766
-1.781232e-11
-7.601992e-06
3.735673e-07
4.319859e-07
3.718617e-07
7.901822e-08
-0.001668547
0.00167394
-1.416315e-11
-5.598865e-06
2.505949e-08
7.747638e-08
2.412788e-08
-2.555128e-07
-0.001679164
0.001684011
-9.689411e-12
-3.707376e-06
-3.127867e-07
-2.574141e-07
-3.144844e-07
-5.954038e-07
-0.001688657
0.001692856
-7.149607e-12
-1.697146e-06
-6.538393e-07
-5.970807e-07
-6.556078e-07
-9.599062e-07
-0.001696762
0.001700088
-5.462712e-12
6.309696e-07
-1.017232e-06
-9.615688e-07
-1.018743e-06
-1.355429e-06
-0.001703057
0.001705345
-6.265703e-12
3.26868e-06
-1.421627e-06
-1.356894e-06
-1.422953e-06
-1.729977e-06
-0.00170723
0.001708536
-8.930291e-12
5.709514e-06
-1.776903e-06
-1.730981e-06
-1.777711e-06
-1.964275e-06
-0.001709487
0.001710093
-9.541759e-12
7.308852e-06
-1.991886e-06
-1.965419e-06
-1.992983e-06
-2.071339e-06
-0.001710558
0.001710901
-4.571399e-12
7.953979e-06
-2.076662e-06
-2.07227e-06
-2.077544e-06
-2.128752e-06
-0.001711242
0.001711548
4.605684e-12
8.252077e-06
-2.149663e-06
-2.12961e-06
-2.150614e-06
-2.344159e-06
-0.00171184
0.001712007
8.920675e-12
9.321913e-06
-2.399392e-06
-2.344902e-06
-2.400849e-06
-2.878438e-06
-0.001712048
0.001711579
2.683916e-11
1.224363e-05
-3.009829e-06
-2.877401e-06
-3.008308e-06
-3.953944e-06
-0.001710811
0.001709308
5.660008e-11
1.774476e-05
-4.187181e-06
-3.936018e-06
-4.164425e-06
-6.021777e-06
-0.00170688
0.001703447
1.219817e-10
2.833226e-05
-6.489109e-06
-5.968815e-06
-6.419759e-06
-9.539262e-06
-0.001700475
0.001697065
1.933501e-10
4.278953e-05
-1.015654e-05
-9.467619e-06
-1.021594e-05
-1.609497e-05
-0.001691703
0.001690888
1.947191e-10
6.847206e-05
-1.7915e-05
-1.569353e-05
-1.795398e-05
-1.672744e-05
-0.001689694
0.001680267
1.67706e-11
7.102842e-05
-1.339069e-05
-1.737996e-05
-1.410324e-05
-1.167643e-05
-0.001663021
0.001641545
1.946372e-10
6.962005e-05
-1.252465e-05
-1.16601e-05
-1.228348e-05
-1.436955e-05
-0.001620596
0.001593469
3.849656e-10
8.284051e-05
-1.407959e-05
-1.378794e-05
-1.347663e-05
-1.333606e-05
-0.001563856
0.001531269
5.344124e-10
8.45172e-05
-1.310116e-05
-1.284249e-05
-1.26509e-05
-1.093894e-05
-0.001495755
0.001457684
4.303888e-10
8.080476e-05
-1.045911e-05
-1.086918e-05
-1.04673e-05
-7.721534e-06
-0.00141807
0.001377842
2.315785e-10
7.067514e-05
-7.265114e-06
-7.946677e-06
-7.51353e-06
-5.159606e-06
-0.001338213
0.001300357
9.45498e-11
5.848799e-05
-4.936897e-06
-5.385973e-06
-5.150245e-06
-3.988826e-06
-0.001265242
0.001233544
-5.197117e-11
4.781184e-05
-3.932238e-06
-4.132025e-06
-4.06107e-06
-3.528802e-06
-0.001205473
0.001181011
-2.341642e-10
3.863986e-05
-3.495881e-06
-3.598697e-06
-3.553984e-06
-3.074309e-06
-0.001159699
0.001141309
-3.875108e-10
3.059734e-05
-3.015867e-06
-3.091145e-06
-3.02539e-06
-2.511235e-06
-0.001125214
0.001111479
-4.551203e-10
2.360796e-05
-2.429643e-06
-2.508142e-06
-2.423011e-06
-1.887868e-06
-0.001099451
0.001089424
-4.533755e-10
1.739858e-05
-1.806227e-06
-1.880285e-06
-1.797223e-06
-1.362957e-06
-0.00108079
0.001073904
-4.360837e-10
1.219962e-05
-1.30029e-06
-1.356634e-06
-1.293712e-06
-9.282843e-07
-0.001068097
0.001063675
-4.118428e-10
8.022523e-06
-8.763203e-07
-9.236189e-07
-8.717981e-07
-5.877874e-07
-0.001060034
0.001057488
-3.599407e-10
4.826912e-06
-5.555371e-07
-5.84782e-07
-5.526816e-07
-3.510806e-07
-0.001055524
0.00105441
-2.944677e-10
2.46587e-06
-3.267642e-07
-3.49133e-07
-3.249021e-07
-1.901089e-07
-0.001053758
0.001053732
-2.299151e-10
7.533291e-07
-1.745445e-07
-1.888382e-07
-1.73368e-07
-9.218975e-08
-0.001054054
0.001054907
-1.817475e-10
-4.98952e-07
-8.554275e-08
-9.134206e-08
-8.47348e-08
-3.278864e-08
-0.001056092
0.001057706
-1.271003e-10
-1.491946e-06
-2.883364e-08
-3.218098e-08
-2.82178e-08
6.198578e-10
-0.001059565
0.00106181
-8.338671e-11
-2.248774e-06
7.559999e-10
9.409905e-10
1.058336e-09
8.669075e-09
-0.001064246
0.001066998
-5.042127e-11
-2.783693e-06
7.268502e-09
9.169639e-09
6.869198e-09
-1.996075e-08
-0.001069898
0.001072973
-2.637554e-11
-2.977744e-06
-2.922745e-08
-1.974715e-08
-2.904642e-08
-6.873303e-08
-0.001076196
0.001079557
-6.499762e-12
-3.070575e-06
-7.620901e-08
-6.865799e-08
-7.614573e-08
-1.318468e-07
-0.001083008
0.001086522
7.729223e-12
-2.967309e-06
-1.417279e-07
-1.319195e-07
-1.417248e-07
-2.108381e-07
-0.001090084
0.001093648
1.676316e-11
-2.698862e-06
-2.219135e-07
-2.109402e-07
-2.219189e-07
-3.013135e-07
-0.001097243
0.001100807
2.034241e-11
-2.333646e-06
-3.138187e-07
-3.013946e-07
-3.137635e-07
-4.244808e-07
0.001107796
2.238357e-11
-1.694354e-06
-0.001104368
-4.421985e-07
-4.244381e-07
-4.421931e-07
-5.902239e-07
-0.001111155
0.001114252
2.674068e-11
-6.927497e-07
-6.119224e-07
-5.903641e-07
-6.116425e-07
-7.797696e-07
-0.001117182
0.001119834
2.593194e-11
5.008377e-07
-7.975428e-07
-7.79111e-07
-7.963233e-07
-9.595954e-07
-0.001122317
0.001124409
1.937572e-11
1.802625e-06
-9.864231e-07
-9.566155e-07
-9.915677e-07
-1.204036e-06
-0.00112632
0.001127764
3.917082e-11
3.407739e-06
-1.239526e-06
-1.183529e-06
-1.224654e-06
-1.533621e-06
-0.001128865
0.001129323
2.451e-11
5.784778e-06
-1.586272e-06
-1.533827e-06
-1.589125e-06
-1.942363e-06
-0.001129408
0.001128598
3.29295e-11
8.750779e-06
-2.023488e-06
-1.948746e-06
-2.026052e-06
-2.51629e-06
-0.001127177
0.001124992
3.576802e-11
1.246142e-05
-2.628889e-06
-2.514495e-06
-2.616628e-06
-3.470244e-06
-0.001121338
0.001116107
1.252872e-11
1.943059e-05
-3.637111e-06
-3.438032e-06
-3.654523e-06
-4.719903e-06
-0.001110252
0.001102028
3.818826e-11
2.78831e-05
-5.019685e-06
-4.71672e-06
-5.203623e-06
-7.231709e-06
-0.001091626
0.001082262
3.375731e-12
4.103627e-05
-8.207599e-06
-7.534916e-06
-8.698013e-06
-1.617326e-05
-0.00107299
0.001069171
-8.241868e-11
7.673926e-05
-1.981544e-05
-1.688332e-05
-2.004778e-05
-1.601364e-05
-0.001064729
0.001050104
-1.302098e-10
7.222576e-05
-1.368427e-05
-1.542043e-05
-1.248237e-05
-9.00599e-06
-0.001024764
0.0009941862
-1.744068e-10
6.363476e-05
-7.862191e-06
-8.420857e-06
-7.768011e-06
-5.234752e-06
-0.0009581022
0.0009173111
-1.560987e-10
6.041453e-05
-4.624214e-06
-5.211161e-06
-4.55319e-06
-4.147614e-07
-0.0008719356
0.0008226219
-3.554941e-11
4.992006e-05
5.803851e-08
-3.60887e-07
1.11288e-07
3.165483e-07
-0.0007706802
0.0007213748
2.144768e-10
4.893941e-05
-1.713803e-07
3.748324e-07
-1.542827e-07
-2.565389e-06
-0.0006773893
0.0006406638
8.96545e-10
4.789822e-05
-3.028906e-06
-2.5567e-06
-3.022672e-06
-2.849935e-06
-0.000610391
0.0005859032
1.380468e-09
3.569958e-05
-2.757408e-06
-2.848861e-06
-2.756944e-06
-2.650351e-06
-0.0005649409
0.0005455937
9.38422e-10
3.012349e-05
-2.738192e-06
-2.650376e-06
-2.738273e-06
-3.485835e-06
-0.0005259766
0.0005065209
-1.628085e-11
3.335489e-05
-3.464072e-06
-3.485572e-06
-3.463764e-06
-2.51361e-06
-0.0004892876
0.0004759268
-6.181832e-10
2.297393e-05
-2.29274e-06
-2.513508e-06
-2.292589e-06
-8.090652e-07
-0.0004670793
0.0004619681
-7.910282e-10
8.111779e-06
-6.908771e-07
-8.090139e-07
-6.907996e-07
-9.425322e-08
-0.0004595849
0.0004582864
-7.170917e-10
1.68374e-06
-9.812292e-08
-9.414747e-08
-9.797196e-08
-5.702569e-08
-0.0004570881
0.0004554817
-5.25632e-10
1.850724e-06
-6.479373e-08
-5.666038e-08
-6.529332e-08
-2.711746e-07
-0.0001112944
0.0001107213
-1.079979e-10
8.443208e-07
-6.034294e-07
-0.0001090238
0.0001086275
-1.545027e-10
9.998516e-07
-7.203842e-07
-0.0001076227
0.0001073076
-1.063422e-10
1.035663e-06
-7.552937e-07
-0.0001064045
0.0001061167
-8.686678e-11
1.043197e-06
-7.300168e-07
-0.0001053019
0.0001050506
-7.889453e-11
9.813311e-07
-6.755314e-07
-0.0001043654
0.0001041676
-5.732027e-11
8.733677e-07
-6.240578e-07
-0.0001036445
0.0001034959
-3.044729e-11
7.726851e-07
-6.125471e-07
-0.0001030937
0.0001029711
-5.948224e-11
7.351377e-07
-6.316658e-07
-0.0001026114
0.0001024908
-7.326238e-11
7.523535e-07
-6.671816e-07
-0.0001021082
0.0001019691
-7.291997e-11
8.064278e-07
-7.064793e-07
-0.0001015048
0.0001013295
-5.352266e-11
8.818018e-07
-7.409037e-07
-0.0001007406
0.0001005187
-1.615629e-11
9.62821e-07
-7.713577e-07
-9.978222e-05
9.950844e-05
-2.309654e-11
1.045158e-06
-8.062104e-07
-9.861085e-05
9.828106e-05
-7.745091e-11
1.136076e-06
-8.516252e-07
-9.721136e-05
9.682282e-05
-1.246513e-10
1.240289e-06
-9.023622e-07
-9.55759e-05
9.512853e-05
-1.444209e-10
1.349878e-06
-9.473753e-07
-9.370989e-05
9.320798e-05
-1.391192e-10
1.449429e-06
-9.790758e-07
-9.163761e-05
9.109035e-05
-1.274092e-10
1.526465e-06
-9.942289e-07
-8.940125e-05
8.882129e-05
-1.316364e-10
1.574321e-06
-9.927901e-07
-8.705412e-05
8.645589e-05
-1.383754e-10
1.591164e-06
-9.763659e-07
-8.465516e-05
8.405368e-05
-1.445952e-10
1.577991e-06
-9.459614e-07
-8.226418e-05
8.167442e-05
-1.389999e-10
1.535858e-06
-9.026963e-07
-7.994077e-05
7.937752e-05
-1.283728e-10
1.466071e-06
-8.474059e-07
-7.774296e-05
7.722043e-05
-1.109478e-10
1.370045e-06
-7.817324e-07
-7.572591e-05
7.525704e-05
-9.288158e-11
1.250693e-06
-7.077519e-07
-7.393915e-05
7.353518e-05
-7.020864e-11
1.111787e-06
-6.28168e-07
-7.242442e-05
7.209435e-05
-5.411424e-11
9.582957e-07
-5.464712e-07
-7.121552e-05
7.096616e-05
-3.795173e-11
7.958641e-07
-4.652661e-07
-7.033508e-05
7.017038e-05
-9.105743e-12
6.299801e-07
-3.870158e-07
-6.97945e-05
6.97153e-05
1.407784e-11
4.662033e-07
-3.167846e-07
-6.959275e-05
6.959774e-05
2.941878e-11
3.117569e-07
-2.552083e-07
-6.972421e-05
6.980983e-05
4.038722e-11
1.695462e-07
-1.99187e-07
-7.016737e-05
7.032624e-05
5.825917e-11
4.025364e-08
-1.487204e-07
-7.089972e-05
7.112893e-05
7.757773e-11
-8.056823e-08
-8.679529e-08
-7.191556e-05
7.222127e-05
9.115844e-11
-2.190125e-07
2.449621e-07
-7.323974e-05
7.352374e-05
1.013504e-10
-5.290575e-07
5.484172e-07
-7.424554e-05
7.452476e-05
9.753765e-11
-8.277356e-07
5.884144e-07
-7.540755e-05
7.570972e-05
9.489713e-11
-8.906804e-07
6.075882e-07
-7.663561e-05
7.694729e-05
8.582673e-11
-9.19347e-07
6.165875e-07
-7.787481e-05
7.817927e-05
7.485857e-11
-9.211143e-07
6.148219e-07
-7.906985e-05
7.935666e-05
6.380743e-11
-9.016986e-07
6.050296e-07
-8.018225e-05
8.044314e-05
5.43445e-11
-8.659732e-07
5.872756e-07
-8.118281e-05
8.141233e-05
4.523086e-11
-8.168411e-07
5.644506e-07
-8.205271e-05
8.224745e-05
3.300757e-11
-7.592256e-07
5.391782e-07
-8.278154e-05
8.294043e-05
2.340916e-11
-6.980927e-07
5.131008e-07
-8.336757e-05
8.349146e-05
1.684194e-11
-6.370113e-07
4.880063e-07
-8.38165e-05
8.390738e-05
7.570541e-12
-5.788926e-07
4.644011e-07
-8.413917e-05
8.420075e-05
-7.613321e-13
-5.259802e-07
4.436554e-07
-8.435095e-05
8.43877e-05
-4.410454e-12
-4.804056e-07
4.263382e-07
-8.447103e-05
8.448853e-05
-7.985966e-12
-4.43836e-07
4.153007e-07
-8.452136e-05
8.452495e-05
-9.927539e-12
-4.18889e-07
4.09414e-07
-8.45258e-05
8.452228e-05
-8.447083e-12
-4.058846e-07
4.102019e-07
-8.451084e-05
8.450666e-05
-6.993999e-12
-4.060166e-07
4.181228e-07
-8.450228e-05
8.450392e-05
-1.721275e-12
-4.197659e-07
4.336548e-07
-8.452598e-05
8.453992e-05
4.340334e-12
-4.476026e-07
4.571743e-07
-8.460768e-05
8.464036e-05
1.118183e-11
-4.898655e-07
4.889734e-07
-8.477271e-05
8.48304e-05
2.118264e-11
-5.466881e-07
5.295545e-07
-8.504537e-05
8.51338e-05
3.105665e-11
-6.180199e-07
5.789985e-07
-8.544761e-05
8.557186e-05
3.866399e-11
-7.032836e-07
6.362958e-07
-8.600051e-05
8.616548e-05
4.54406e-11
-8.013096e-07
7.012454e-07
-8.672266e-05
8.693268e-05
5.770649e-11
-9.113272e-07
7.725719e-07
-8.762971e-05
8.788939e-05
7.725283e-11
-1.032328e-06
8.512774e-07
-8.873619e-05
8.904835e-05
8.530521e-11
-1.163524e-06
9.36254e-07
-9.005382e-05
9.042081e-05
9.639511e-11
-1.303331e-06
1.02511e-06
-9.159055e-05
9.20153e-05
1.066267e-10
-1.449965e-06
1.11634e-06
-9.335165e-05
9.383657e-05
1.175712e-10
-1.601376e-06
1.207626e-06
-9.533857e-05
9.588624e-05
1.309046e-10
-1.755429e-06
1.29628e-06
-9.754945e-05
9.816399e-05
1.451775e-10
-1.910967e-06
1.385311e-06
-9.998289e-05
0.0001006717
1.553883e-10
-2.074289e-06
1.538683e-06
-0.0001026308
0.000103376
1.363823e-10
-2.284059e-06
1.523988e-06
-0.0001050151
0.0004325678
1.572328e-11
-1.230291e-05
1.042477e-06
1.526861e-06
1.04596e-06
-0.0001050144
-0.0001076872
-0.0001076875
1.463053e-06
-0.0004401101
0.0004471062
1.747158e-11
-1.316155e-05
1.619514e-06
1.463602e-06
1.619257e-06
1.691575e-06
-0.0004539103
0.0004607844
1.338821e-11
-1.375825e-05
1.750972e-06
1.691032e-06
1.750466e-06
1.844235e-06
-0.0004677244
0.0004748128
1.241104e-11
-1.452152e-05
1.873092e-06
1.843473e-06
1.872366e-06
1.952407e-06
-0.0004819783
0.0004892947
1.396137e-11
-1.51514e-05
1.965669e-06
1.951815e-06
1.965119e-06
2.033168e-06
-0.0004966738
0.0005041758
1.437922e-11
-1.564956e-05
2.04105e-06
2.03273e-06
2.040634e-06
2.095051e-06
-0.0005117282
0.0005193689
1.422222e-11
-1.603247e-05
2.101201e-06
2.094698e-06
2.100852e-06
2.141327e-06
-0.0005270452
0.0005347701
1.237321e-11
-1.630043e-05
2.146797e-06
2.140966e-06
2.146446e-06
2.172609e-06
-0.0005425123
0.0005502619
1.162009e-11
-1.644836e-05
2.177258e-06
2.172123e-06
2.176741e-06
2.188554e-06
-0.00055801
0.0005657238
1.160947e-11
-1.647412e-05
2.192263e-06
2.187876e-06
2.191541e-06
2.189227e-06
-0.0005734172
0.0005810349
9.850702e-12
-1.637806e-05
2.1917e-06
2.188429e-06
2.190904e-06
2.174445e-06
-0.0005886135
0.0005960753
6.730915e-12
-1.616001e-05
2.175447e-06
2.173631e-06
2.174639e-06
2.144123e-06
-0.000603479
0.000610725
4.974091e-12
-1.581952e-05
2.143371e-06
2.143357e-06
2.142625e-06
2.098608e-06
-0.0006178936
0.0006248658
4.531897e-12
-1.535969e-05
2.095939e-06
2.097839e-06
2.095147e-06
2.038717e-06
-0.0006317434
0.0006383908
8.91369e-12
-1.479167e-05
2.034163e-06
2.037924e-06
2.033379e-06
1.966945e-06
-0.0006449283
0.0006512081
9.701713e-12
-1.413384e-05
1.960796e-06
1.966209e-06
1.960059e-06
1.88606e-06
-0.0006573655
0.000663246
1.062777e-11
-1.340846e-05
1.878626e-06
1.885349e-06
1.877914e-06
1.798955e-06
-0.0006689957
0.000674457
1.1432e-11
-1.263888e-05
1.790566e-06
1.798217e-06
1.789816e-06
1.708011e-06
-0.0006797824
0.0006848137
1.241433e-11
-1.184375e-05
1.698905e-06
1.707342e-06
1.698244e-06
1.614989e-06
-0.000689706
0.0006943014
9.887622e-12
-1.103494e-05
1.60539e-06
1.614358e-06
1.604759e-06
1.521391e-06
-0.0006987554
0.0007029117
4.683621e-12
-1.022086e-05
1.511491e-06
1.520829e-06
1.510918e-06
1.428552e-06
-0.0007069243
0.0007106404
1.94177e-12
-9.409351e-06
1.418565e-06
1.428025e-06
1.418048e-06
1.338089e-06
-0.0007142115
0.0007174912
4.759979e-12
-8.611409e-06
1.328272e-06
1.337617e-06
1.3278e-06
1.251811e-06
-0.0007206259
0.0007234782
4.008587e-12
-7.839836e-06
1.242391e-06
1.251365e-06
1.241983e-06
1.17124e-06
-0.0007261876
0.0007286279
1.518797e-12
-7.106783e-06
1.16246e-06
1.170815e-06
1.162012e-06
1.097393e-06
-0.0007309298
0.0007329786
1.066198e-12
-6.421479e-06
1.089388e-06
1.096969e-06
1.088939e-06
1.031195e-06
-0.0007348956
0.0007365783
-3.383568e-12
-5.792113e-06
1.023851e-06
1.030827e-06
1.023489e-06
9.732103e-07
-0.0007381373
0.0007394837
-1.199926e-11
-5.225791e-06
9.668364e-07
9.728814e-07
9.665052e-07
9.233156e-07
-0.0007407162
0.0007417584
-5.313226e-12
-4.724726e-06
9.182339e-07
9.230559e-07
9.179657e-07
8.810211e-07
-0.0007426976
0.0007434707
6.900025e-12
-4.28763e-06
8.764919e-07
8.80786e-07
8.762479e-07
8.470372e-07
-0.0007441514
0.0007446908
1.595441e-11
-3.917915e-06
8.423946e-07
8.468848e-07
8.422354e-07
8.19474e-07
-0.0007451521
0.0007454894
1.453509e-11
-3.607423e-06
8.155543e-07
8.194091e-07
8.156419e-07
8.018593e-07
-0.0007457526
0.0007459123
2.200484e-11
-3.352891e-06
7.950747e-07
8.016047e-07
7.946794e-07
7.801541e-07
-0.0007460207
0.0007460546
1.591084e-11
-3.154125e-06
7.798941e-07
7.801003e-07
7.799848e-07
7.695165e-07
-0.000746044
0.0007459682
7.934997e-12
-3.000939e-06
7.688924e-07
7.694668e-07
7.688258e-07
7.62131e-07
-0.0007458453
0.0007456727
-1.252119e-12
-2.874183e-06
7.613192e-07
7.620293e-07
7.612922e-07
7.572322e-07
-0.0007454721
0.0007452335
-1.822609e-12
-2.789624e-06
7.568952e-07
7.571971e-07
7.568629e-07
7.550706e-07
-0.0007449736
0.0007446861
-4.220603e-12
-2.73279e-06
7.55085e-07
7.550535e-07
7.550904e-07
7.547339e-07
-0.0007443838
0.0007440618
1.055888e-11
-2.698053e-06
7.550861e-07
7.549115e-07
7.553067e-07
7.561552e-07
-0.00074373
0.0007433848
-2.132799e-12
-2.682096e-06
7.576667e-07
7.559111e-07
7.575909e-07
7.582106e-07
-0.0007430332
0.000742672
-6.697353e-12
-2.673718e-06
7.593774e-07
7.581026e-07
7.592284e-07
7.600206e-07
-0.0007423076
0.0007419371
-2.854824e-11
-2.670671e-06
7.61e-07
7.595725e-07
7.606954e-07
7.599127e-07
-0.0007415673
0.0007411921
-4.109946e-11
-2.66336e-06
7.594241e-07
7.599881e-07
7.592465e-07
7.575563e-07
-0.000740811
0.0007404069
4.297356e-12
-2.624049e-06
7.564946e-07
7.575357e-07
7.566127e-07
7.260096e-07
-0.000739992
0.000739593
1.076193e-11
-2.49891e-06
7.229856e-07
7.259945e-07
7.229523e-07
6.227786e-07
-0.0007392624
0.0007390921
1.547752e-12
-2.228651e-06
5.76792e-07
6.226897e-07
5.766487e-07
5.199143e-07
-0.0007389693
0.0007388478
-6.294895e-13
-1.946115e-06
5.138898e-07
5.199003e-07
5.138792e-07
5.162293e-07
-0.0007387127
0.0007385754
-7.028245e-12
-1.930601e-06
5.178507e-07
5.161373e-07
5.177542e-07
5.153361e-07
-0.0007384533
0.0007383349
-1.426319e-11
-1.947166e-06
5.174746e-07
5.15346e-07
5.174257e-07
5.151288e-07
-0.0007382236
0.000738128
-1.692216e-11
-1.972607e-06
5.1903e-07
5.151083e-07
5.189357e-07
5.215117e-07
-0.0007380329
0.0007379516
-5.408909e-12
-2.008552e-06
5.235091e-07
5.213915e-07
5.234147e-07
5.215662e-07
-0.0007378829
0.0007378204
-8.523817e-12
-2.025365e-06
5.224017e-07
5.215236e-07
5.223087e-07
5.08253e-07
-0.0007377883
0.0007378048
4.46756e-12
-2.034243e-06
5.01176e-07
5.07748e-07
5.005208e-07
3.647406e-07
-0.0007381593
0.0007389552
8.495285e-12
-2.379718e-06
4.283996e-07
3.631802e-07
4.27464e-07
6.078597e-07
-0.0007392954
0.0007384877
7.639992e-12
-1.429138e-06
5.056764e-07
6.129336e-07
5.103347e-07
5.039326e-07
-0.0007380703
0.0007381757
6.196996e-12
-2.001472e-06
4.387842e-07
5.095196e-07
4.438821e-07
4.796711e-07
-0.0007382441
0.0007384141
3.30302e-12
-2.033016e-06
4.474898e-07
4.841694e-07
4.515968e-07
4.709845e-07
-0.0007386045
0.0007388952
3.25354e-12
-2.147063e-06
4.537531e-07
4.745947e-07
4.571169e-07
4.822227e-07
-0.0007391935
0.0007395296
5.17512e-12
-2.257557e-06
4.756187e-07
4.851957e-07
4.784296e-07
5.016977e-07
-0.0007398579
0.0007402083
4.486606e-12
-2.358536e-06
4.99825e-07
5.042303e-07
5.023022e-07
5.210152e-07
-0.0007405577
0.0007409327
7.300364e-13
-2.463456e-06
5.210254e-07
5.232694e-07
5.23162e-07
5.39405e-07
-0.0007413111
0.0007417126
-5.270643e-13
-2.565926e-06
5.409098e-07
5.413315e-07
5.427484e-07
5.569606e-07
-0.0007421184
0.0007425465
-1.536034e-12
-2.663493e-06
5.590918e-07
5.586331e-07
5.606985e-07
5.729062e-07
-0.0007429798
0.0007434352
-1.76551e-12
-2.754321e-06
5.751508e-07
5.743401e-07
5.765477e-07
5.871741e-07
-0.0007438969
0.000744379
-1.962912e-12
-2.83781e-06
5.894886e-07
5.883989e-07
5.906853e-07
6.010155e-07
-0.0007448669
0.0007453729
-1.244099e-12
-2.916425e-06
6.03228e-07
6.020338e-07
6.042127e-07
6.135935e-07
-0.0007458848
0.0007464128
8.485525e-14
-2.988193e-06
6.156263e-07
6.144537e-07
6.164713e-07
6.245902e-07
-0.0007469467
0.0007474954
7.656904e-12