/*--------------------------------*- C++ -*----------------------------------*\
| =========                 |                                                 |
| \\      /  F ield         | foam-extend: Open Source CFD                    |
|  \\    /   O peration     | Version:     3.1                                |
|   \\  /    A nd           | Web:         http://www.extend-project.de       |
|    \\/     M anipulation  |                                                 |
\*---------------------------------------------------------------------------*/
FoamFile
{
    version     2.0;
    format      ascii;
    class       volScalarField;
    location    "2.5";
    object      nut;
}
// * * * * * * * * * * * * * * * * * * * * * * * * * * * * * * * * * * * * * //

dimensions      [0 2 -1 0 0 0 0];

internalField   nonuniform List<scalar> 
119952
(
2.423257e-05
1.552399e-05
1.573832e-05
1.770094e-05
1.921597e-05
1.835467e-05
1.788308e-05
1.7609e-05
1.741025e-05
1.722832e-05
1.703028e-05
1.680332e-05
1.654323e-05
1.625185e-05
1.593427e-05
1.559593e-05
1.52416e-05
1.487385e-05
1.449253e-05
1.40825e-05
1.839266e-05
1.751841e-05
1.718249e-05
2.324835e-05
2.264384e-05
2.23649e-05
2.220416e-05
2.224579e-05
2.201095e-05
2.789824e-05
1.25997e-05
1.397006e-05
1.581828e-05
1.766374e-05
1.963982e-05
2.177425e-05
2.409837e-05
2.657042e-05
2.917189e-05
3.372371e-05
0.0001332095
0.0001607264
0.0001931813
0.0002290344
0.0002669467
0.0003059453
0.0003451618
0.000384064
0.0004224003
0.0006410706
0.0006906203
0.0007426577
0.0007972109
0.0008538116
0.0009119146
0.0009708666
0.001030012
0.001088672
0.001146525
0.001202362
0.001258205
0.001315645
0.001375174
0.001436677
0.001499865
0.001564501
0.001630845
0.001701779
0.001728965
0.001732277
0.001752729
0.001782762
0.001813092
0.001840378
0.001863981
0.001887728
0.001911662
0.001935131
0.001957253
0.001977189
0.001994386
0.002008622
0.002019991
0.002028855
0.002035837
0.002041976
0.0020495
0.002063414
0.002087991
0.002106845
0.002135563
0.00217329
0.002207812
0.002224288
0.002224022
0.002195962
0.002082289
0.001883562
0.001832956
0.001816217
0.001810633
0.001809373
0.001810587
0.001813352
0.00181703
0.001821107
0.001825176
0.001828953
0.001832239
0.001834911
0.001836913
0.001838245
0.001838943
0.001839071
0.001838695
0.001837878
0.001836679
0.001835145
0.001833314
0.001831216
0.001828868
0.001826291
0.001823493
0.001820485
0.001817275
0.001813872
0.00181028
0.001806501
0.001802538
0.001798391
0.001794058
0.001789537
0.001784826
0.00177992
0.001774814
0.001769503
0.001763982
0.001758245
0.001752288
0.001746109
0.00173971
0.001733095
0.001726273
0.001719263
0.001712126
0.001705117
0.001698648
0.001662738
0.001614845
0.001573203
0.001539458
0.001512462
0.001490656
0.001472707
0.001457578
0.001444497
0.001432898
0.001422372
0.001412623
0.001403438
0.001394654
0.001386154
0.001377848
0.001369672
0.001361576
0.001353522
0.001345482
0.001337437
0.001329371
0.00132127
0.001313124
0.001304925
0.001296667
0.001288342
0.001279948
0.001271482
0.001262936
0.001254305
0.001245587
0.001236778
0.001227873
0.001218872
0.00120977
0.001200566
0.001191256
0.001181839
0.001172312
0.00116267
0.001152911
0.001143027
0.001133022
0.001122891
0.001112633
0.001102254
0.00109178
0.001081505
0.001071328
0.0008300026
0.0006418952
0.0005846339
0.0005570376
0.0005394974
0.0005264257
0.0005157281
0.0005064331
0.0004980241
0.0004902016
0.0004827803
0.0004756491
0.0004687295
0.0004619717
0.0004553414
0.0004488138
0.000442372
0.0004360033
0.0004296968
0.0004234459
0.0004172448
0.000411089
0.0004049755
0.0003989012
0.0003928655
0.0003868674
0.0003809064
0.0003749883
0.0003691159
0.0003632976
0.0003575492
0.0003518992
0.0003464087
0.0003412313
0.0003369234
0.0003391408
0.0003503477
0.0003603531
0.0003691297
0.0003769523
0.0003840928
0.0003907622
0.0003971111
0.0004032413
0.0004092245
0.0004151045
0.0004209087
0.0004266624
0.0004323795
0.0004380687
0.0004437366
0.0004493878
0.0004550257
0.000460653
0.0004662719
0.000471884
0.0004774906
0.0004830931
0.0004886923
0.0004942891
0.0004998867
0.0005054826
0.0005110734
0.0005166638
0.0005222536
0.000527842
0.0005334291
0.0005390173
0.0005446118
0.0005502804
0.0007810536
0.0008159366
0.0008522053
0.0008888546
0.0009247347
0.0009588765
0.0009905369
0.001019336
0.001045204
0.00106831
0.001088951
0.001107473
0.001124216
0.001139485
0.001153543
0.001166605
0.00117885
0.001190421
0.001201435
0.001211985
0.001222149
0.001231988
0.001241553
0.001250884
0.001260017
0.001268976
0.001277784
0.00128646
0.001295018
0.001303472
0.001311831
0.001320105
0.001328298
0.001336419
0.00134447
0.001352454
0.001360375
0.001368231
0.001376023
0.001383745
0.001391388
0.001398936
0.001406352
0.001413565
0.001420406
0.001426512
0.00143167
0.001436427
0.001440995
0.001445431
0.001449782
0.001454063
0.001458266
0.001462846
0.001465211
0.0014713
0.001483107
0.001499629
0.00151937
0.001540821
0.001562675
0.001583945
0.00160398
0.00162243
0.001639182
0.001654287
0.001667892
0.001680186
0.001691363
0.001701609
0.001711085
0.00171993
0.001728256
0.001736157
0.001743705
0.001750961
0.00175797
0.001764771
0.001771393
0.00177786
0.00178419
0.0017904
0.001796501
0.001802504
0.001808418
0.001814249
0.001820003
0.001825686
0.001831301
0.001836852
0.001842343
0.001847775
0.001853152
0.001858476
0.001863749
0.001868974
0.001874152
0.001879286
0.001884378
0.00188943
0.001894444
0.001899423
0.001904369
0.001909285
0.001914172
0.001919033
0.001923871
0.001928688
0.001933487
0.001938271
0.001943043
0.001947805
0.001952561
0.001957314
0.001962068
0.001966827
0.001971594
0.001976374
0.001981174
0.001985998
0.001990854
0.001995751
0.002000697
0.002005707
0.002010794
0.002015979
0.002021286
0.002026749
0.002032415
0.002038349
0.00204465
0.002051471
0.002059056
0.00206784
0.002078688
0.002093495
0.002116551
0.002158218
0.002157492
1.546474e-05
1.742037e-05
1.960017e-05
2.205479e-05
2.476876e-05
2.770289e-05
3.078694e-05
3.396108e-05
3.753036e-05
0.0001439904
0.0001774804
0.0002165828
0.0002585264
0.0003013397
0.0003434931
0.0003841141
0.0004227912
0.0004595388
0.0006912159
0.0007310191
0.0007726899
0.0008152718
0.0008586184
0.0009027136
0.0009474736
0.000992799
0.001038456
0.001084177
0.001130035
0.001175101
0.001221114
0.001268913
0.001318739
0.001370548
0.001424152
0.001479278
0.001535603
0.001580942
0.001616106
0.001657288
0.001703708
0.001754466
0.001808856
0.001866256
0.001926046
0.001987606
0.002050408
0.002113618
0.002176955
0.002240671
0.002304862
0.002369675
0.002435191
0.002501352
0.002567998
0.002634375
0.00322995
0.003303035
0.003373481
0.003442033
0.00350936
0.003576
0.00364235
0.003708685
0.003775106
0.003841666
0.003908359
0.003975256
0.004042439
0.004110011
0.004178068
0.004246703
0.004315996
0.004385783
0.004454825
0.00451596
0.004571002
0.004624207
0.004675033
0.004717827
0.004750508
0.004777172
0.004800498
0.004822308
0.00484377
0.004865466
0.00488755
0.004909919
0.004932344
0.004954609
0.004976638
0.004998636
0.005021294
0.005045947
0.005074343
0.005105833
0.005139797
0.005179974
0.005219967
0.005247996
0.005262823
0.005262492
0.00524083
0.005194125
0.005144033
0.005105448
0.005075365
0.005052392
0.005035268
0.005023151
0.005015371
0.005011346
0.005010522
0.005012353
0.005016299
0.005021844
0.005028513
0.005035887
0.005043623
0.005051453
0.005059181
0.005066671
0.005073832
0.005080609
0.005086966
0.005092884
0.005098353
0.005103368
0.005107942
0.00511207
0.005115764
0.005119035
0.005121893
0.005124349
0.005126413
0.005128092
0.005129391
0.005130313
0.005130859
0.005131026
0.005130813
0.005130216
0.00512923
0.005127852
0.005126082
0.00512392
0.005121375
0.005118459
0.005115195
0.00511162
0.0051078
0.005103847
0.005099899
0.00509552
0.005087748
0.00507541
0.00505876
0.005039095
0.005017884
0.004996343
0.004975323
0.004955332
0.004936614
0.00491923
0.004903132
0.004888206
0.004874312
0.004861299
0.004849022
0.004837347
0.004826157
0.004815346
0.004804826
0.004794521
0.00478437
0.004774317
0.00476432
0.004754338
0.00474434
0.004734298
0.004724187
0.004713984
0.00470367
0.004693233
0.00468266
0.004671941
0.004661067
0.004650034
0.004638838
0.004627477
0.004615952
0.004604264
0.004592417
0.00458039
0.004568184
0.004555804
0.004543261
0.004530568
0.004517745
0.004504827
0.004491877
0.004479049
0.004466728
0.004458087
0.004007798
0.003760428
0.00366132
0.003605408
0.003564098
0.003529248
0.003498413
0.003470713
0.003445676
0.003422928
0.003402133
0.003382983
0.003365207
0.003348566
0.003332862
0.003317927
0.003303626
0.003289846
0.003276498
0.003263506
0.003250814
0.003238376
0.003226158
0.003214136
0.003202294
0.003190628
0.003179146
0.003167871
0.003156847
0.003146151
0.003135936
0.003126559
0.003118487
0.003112648
0.003110045
0.003111715
0.003118034
0.003127256
0.003138116
0.003149806
0.003161803
0.003173777
0.003185537
0.003196981
0.003208067
0.003218787
0.003229157
0.003239202
0.003248952
0.003258436
0.003267682
0.003276717
0.003285562
0.003294237
0.003302761
0.003311147
0.003319409
0.003327558
0.003335603
0.003343553
0.003351415
0.003359194
0.003366894
0.003374517
0.003382064
0.003389532
0.003396917
0.003404206
0.00341135
0.003417096
0.004061361
0.004090028
0.004111347
0.004129707
0.004147486
0.004165828
0.004185142
0.004205428
0.004226451
0.0042479
0.004269458
0.004290846
0.004311841
0.004332282
0.004352062
0.004371121
0.004389438
0.004407017
0.004423883
0.004440072
0.004455629
0.0044706
0.004485034
0.004498975
0.004512469
0.004525556
0.004538271
0.00455065
0.004562721
0.004574512
0.004586044
0.00459734
0.004608415
0.004619285
0.004629961
0.004640452
0.004650763
0.004660895
0.004670845
0.004680602
0.004690145
0.00469944
0.004708431
0.00471703
0.004725112
0.004732542
0.004739361
0.004745734
0.004751765
0.00475751
0.004763007
0.004768258
0.0047733
0.004778
0.004782126
0.004786272
0.004791045
0.004796916
0.004804197
0.004813016
0.004823329
0.004834974
0.004847707
0.004861246
0.004875308
0.004889631
0.004903992
0.004918213
0.004932158
0.004945733
0.004958878
0.004971561
0.004983771
0.004995512
0.005006797
0.00501765
0.005028093
0.005038153
0.005047858
0.005057232
0.005066299
0.005075083
0.005083604
0.00509188
0.00509993
0.005107767
0.005115406
0.00512286
0.005130139
0.005137253
0.005144213
0.005151025
0.005157699
0.005164242
0.005170661
0.005176963
0.005183155
0.005189244
0.005195237
0.005201141
0.005206961
0.005212704
0.005218376
0.005223983
0.00522953
0.005235024
0.005240471
0.005245876
0.005251248
0.005256591
0.005261914
0.005267223
0.005272526
0.00527783
0.005283145
0.005288479
0.005293843
0.005299248
0.005304706
0.005310231
0.005315841
0.005321555
0.005327395
0.005333391
0.005339576
0.005345993
0.005352698
0.005359764
0.005367287
0.0053754
0.005384292
0.005394236
0.005405635
0.005419096
0.005435521
0.005456181
0.005482804
0.00551464
0.005540675
6.43844e-05
7.820399e-05
9.413263e-05
0.0001104216
0.000126622
0.0001425465
0.0001581903
0.0001733736
0.0001798933
0.0001822801
0.000407059
0.0005780314
0.0006800161
0.0007415572
0.0007839903
0.0008171635
0.0008451736
0.0008699627
0.0008926127
0.00127894
0.001336376
0.001390327
0.001439977
0.00148489
0.001525257
0.001561708
0.001595145
0.001626379
0.001656368
0.001685608
0.00171825
0.001756072
0.001799226
0.001847108
0.001898898
0.001953712
0.00201076
0.002071117
0.002091705
0.002125987
0.0021714
0.002225366
0.002285589
0.002350081
0.002417058
0.002484872
0.002551947
0.002616952
0.00267855
0.002736794
0.002791625
0.002843111
0.002891238
0.002935935
0.002977154
0.00301423
0.003629753
0.003664802
0.003693987
0.003719273
0.003742179
0.003764024
0.003785879
0.003808622
0.003832884
0.003859125
0.003887679
0.003918829
0.003952723
0.00398946
0.004029079
0.004071558
0.004116838
0.004164811
0.004215297
0.004267687
0.00432158
0.004376804
0.004433158
0.004490553
0.004548978
0.004608446
0.004668952
0.004730449
0.004792905
0.004856208
0.004920234
0.004984886
0.005050066
0.005115681
0.005181657
0.005247954
0.005314694
0.005383928
0.005431605
0.005483553
0.005538682
0.005596186
0.005655454
0.005716052
0.005777683
0.005840147
0.005903292
0.005967075
0.00603152
0.00609669
0.006162653
0.006229433
0.006297026
0.006365396
0.006434387
0.006503567
0.006572096
0.006639102
0.00670432
0.00676516
0.006818732
0.006863796
0.006901034
0.006932616
0.006960368
0.006985707
0.007009772
0.007033418
0.007057223
0.007081537
0.007106538
0.007132319
0.007158977
0.007186723
0.007215985
0.007247428
0.007281754
0.007318558
0.007357315
0.007398542
0.007438181
0.00746969
0.007490549
0.007499436
0.007494379
0.007477568
0.007458885
0.007443689
0.007431451
0.007421616
0.007413923
0.007408368
0.007405043
0.007404027
0.007405336
0.007408892
0.00741452
0.007421968
0.007430931
0.007441087
0.007452118
0.007463737
0.007475696
0.007487788
0.007499844
0.007511734
0.007523351
0.007534616
0.007545465
0.00755585
0.007565746
0.007575125
0.007583974
0.007592289
0.007600069
0.007607316
0.007614047
0.007620293
0.00762606
0.007631348
0.007636154
0.007640478
0.007644313
0.007647657
0.007650506
0.007652857
0.007654711
0.007656073
0.007656954
0.007657374
0.007657362
0.007656964
0.007656241
0.007655277
0.007654137
0.007652653
0.007650013
0.007645549
0.007638846
0.007629898
0.007619022
0.0076067
0.007593443
0.007579709
0.007565867
0.007552181
0.007538826
0.007525901
0.007513446
0.007501458
0.007489911
0.007478758
0.007467926
0.007457333
0.007446932
0.007436674
0.007426514
0.007416413
0.00740633
0.007396235
0.007386105
0.00737593
0.007365701
0.007355342
0.0073448
0.00733406
0.007323111
0.007311944
0.007300551
0.007288929
0.007277075
0.00726499
0.007252675
0.007240135
0.007227378
0.007214438
0.007201337
0.007188086
0.007174698
0.007161186
0.007147568
0.007133865
0.007120107
0.007106318
0.007092387
0.007077089
0.007047563
0.007042725
0.00703855
0.007030056
0.007017268
0.007001222
0.006982961
0.006963339
0.006942988
0.006922369
0.006901797
0.006881485
0.006861566
0.006842119
0.006823182
0.006804767
0.006786868
0.006769468
0.006752541
0.006736062
0.006720002
0.006704339
0.006689053
0.00667413
0.006659564
0.006645362
0.006631543
0.006618145
0.006605232
0.006592903
0.006581294
0.006570625
0.006561198
0.006553475
0.006548022
0.006545284
0.006545169
0.006547215
0.00655098
0.006556093
0.006562249
0.006569194
0.006576722
0.006584669
0.006592898
0.006601302
0.006609799
0.006618325
0.006626833
0.006635288
0.006643666
0.00665195
0.006660129
0.006668194
0.006676135
0.006683972
0.006691695
0.006699305
0.006706805
0.006714198
0.006721488
0.006728676
0.006735761
0.006742749
0.006749635
0.006756413
0.006763068
0.006769643
0.006776396
0.006785663
0.006758541
0.006743372
0.006735568
0.006732721
0.006733517
0.006737199
0.006743301
0.006751505
0.006761482
0.006772949
0.006785633
0.006799278
0.006813643
0.006828517
0.006843714
0.00685908
0.006874488
0.006889839
0.006905056
0.006920084
0.006934881
0.006949423
0.006963694
0.006977686
0.006991399
0.007004836
0.007018003
0.007030909
0.007043563
0.007055976
0.007068156
0.007080114
0.007091858
0.007103395
0.007114731
0.007125869
0.007136809
0.007147548
0.007158077
0.007168382
0.00717844
0.007188217
0.007197666
0.007206722
0.007215311
0.007223368
0.007230902
0.007237981
0.007244666
0.007250998
0.007257005
0.007262698
0.007268091
0.007273133
0.007277761
0.007282153
0.007286551
0.00729118
0.007296254
0.007301948
0.007308387
0.007315635
0.007323702
0.007332549
0.007342101
0.00735226
0.007362913
0.007373945
0.007385244
0.007396708
0.007408246
0.007419781
0.007431249
0.007442601
0.007453796
0.007464806
0.007475609
0.007486191
0.007496544
0.007506662
0.007516543
0.00752619
0.007535604
0.007544788
0.007553747
0.007562486
0.007571009
0.007579321
0.007587427
0.007595332
0.00760304
0.007610556
0.007617884
0.007625029
0.007631997
0.007638791
0.007645417
0.007651879
0.007658184
0.007664343
0.007670389
0.007676333
0.007682183
0.007687948
0.007693634
0.00769925
0.007704803
0.007710302
0.007715755
0.007721172
0.007726562
0.007731934
0.007737299
0.007742667
0.007748049
0.007753458
0.007758907
0.007764412
0.007769988
0.007775654
0.007781433
0.007787348
0.00779343
0.007799714
0.007806243
0.00781307
0.007820261
0.0078279
0.007836097
0.007844996
0.007854791
0.007865744
0.007878207
0.007892654
0.007909681
0.007929971
0.007954026
0.007980771
0.008004121
4.08718e-05
7.35164e-05
0.0001532825
0.0005951041
0.001050916
0.002101127
0.002673771
0.003236049
0.00363502
0.00383602
0.003950319
0.004059945
0.00420323
0.004246907
0.004231515
0.004277562
0.004348465
0.004368807
0.004385248
0.00439845
0.004409198
0.00441485
0.004416208
0.00441976
0.004422187
0.00442034
0.00441289
0.004399327
0.004379838
0.004355209
0.004324519
0.004769766
0.004750846
0.004727988
0.004704862
0.004683484
0.004665139
0.004650718
0.004640909
0.004636193
0.004636868
0.004643264
0.004655843
0.004674918
0.004700828
0.004733807
0.004773983
0.004821343
0.004875727
0.004936499
0.005002295
0.005072498
0.005146476
0.005223559
0.005303043
0.005384098
0.005465762
0.005546923
0.005626345
0.005702756
0.005774901
0.005841611
0.005901924
0.005955141
0.006000829
0.006038913
0.006069855
0.00609646
0.006089817
0.00608403
0.006078512
0.00607312
0.006068058
0.006063784
0.006060889
0.006060016
0.006061729
0.00606655
0.00607492
0.006087143
0.006103442
0.006123954
0.006148698
0.006177609
0.006210556
0.006247365
0.006287818
0.006331627
0.006378531
0.006428271
0.006480554
0.006535067
0.006591523
0.006649672
0.006709291
0.006770178
0.006832169
0.006895091
0.00695881
0.007023213
0.007088189
0.007153635
0.007219462
0.007285597
0.007351996
0.007418602
0.007482815
0.007545669
0.007607912
0.007669993
0.007732149
0.007794497
0.007857078
0.007919855
0.007982679
0.008045238
0.008107903
0.008171128
0.00823511
0.008299954
0.008365778
0.008432915
0.008501389
0.008570291
0.008638353
0.008702036
0.008760954
0.008816308
0.008867379
0.008913192
0.008953802
0.008990127
0.009023187
0.009053874
0.009082988
0.009111232
0.009139195
0.009167347
0.009196045
0.009225569
0.009256159
0.009288073
0.00932162
0.009357151
0.009394914
0.009434639
0.009475823
0.009517891
0.009558448
0.00959394
0.009622177
0.009642046
0.009653081
0.009657153
0.009658932
0.009661339
0.0096646
0.00966841
0.009672642
0.009677367
0.009682774
0.009689101
0.009696572
0.009705348
0.009715503
0.009727018
0.009739795
0.009753678
0.009768479
0.009783995
0.009800028
0.009816392
0.009832919
0.009849461
0.009865892
0.009882101
0.009897998
0.009913508
0.009928571
0.009943142
0.009957186
0.009970677
0.009983598
0.009995937
0.01
0.01
0.01
0.01
0.01
0.01
0.01
0.01
0.01
0.01
0.01
0.01
0.01
0.01
0.01
0.01
0.01
0.01
0.01
0.01
0.01
0.01
0.01
0.01
0.01
0.01
0.01
0.01
0.01
0.01
0.01
0.01
0.01
0.01
0.01
0.00999933
0.009988781
0.009978268
0.009967785
0.00995732
0.009946857
0.009936394
0.009925918
0.009915295
0.009904469
0.009893414
0.009882106
0.009870592
0.009858919
0.009847084
0.009835082
0.009822907
0.009810557
0.009798029
0.009785325
0.009772448
0.009759405
0.009746203
0.009732851
0.009719359
0.009705739
0.009692002
0.009678161
0.009664229
0.009650223
0.009636159
0.009622051
0.009607897
0.009593596
0.009578669
0.009561536
0.009547283
0.009534869
0.009522787
0.009510081
0.009496319
0.009481393
0.009465404
0.009448574
0.009431061
0.00941307
0.009394781
0.009376348
0.009357895
0.00933952
0.009321297
0.009303283
0.009285517
0.009268025
0.009250824
0.009233933
0.009217355
0.009201101
0.009185176
0.009169586
0.009154385
0.009139586
0.009125234
0.009111398
0.009098157
0.009085652
0.009074099
0.00906368
0.009054685
0.00904743
0.009042135
0.009038783
0.00903717
0.009037055
0.009038215
0.009040452
0.009043592
0.009047469
0.009051963
0.009057006
0.009062452
0.009068222
0.009074246
0.009080463
0.009086822
0.00909328
0.0090998
0.009106353
0.0091129
0.009119432
0.00912598
0.009132482
0.009138935
0.009145332
0.00915167
0.009157944
0.009164147
0.009170261
0.009176292
0.009182277
0.009188149
0.009193914
0.009199612
0.009205181
0.009210236
0.009209428
0.009206541
0.009203421
0.009200952
0.009199541
0.009199371
0.009200523
0.009203009
0.009206799
0.009211835
0.00921803
0.009225281
0.009233475
0.009242492
0.009252214
0.009262525
0.00927332
0.009284501
0.009295981
0.009307685
0.009319547
0.009331514
0.009343538
0.009355581
0.009367613
0.009379608
0.009391544
0.009403407
0.009415183
0.009426861
0.009438433
0.009449891
0.009461229
0.00947244
0.009483518
0.009494454
0.00950524
0.009515861
0.009526302
0.009536542
0.009546553
0.0095563
0.009565739
0.009574821
0.009583493
0.009591714
0.00959948
0.009606818
0.009613764
0.009620341
0.009626569
0.009632457
0.009638013
0.009643221
0.009648072
0.009652636
0.009657022
0.009661345
0.009665722
0.009670266
0.009675082
0.009680258
0.009685864
0.009691945
0.009698524
0.009705602
0.009713164
0.009721176
0.009729596
0.009738374
0.009747457
0.009756792
0.009766326
0.009776009
0.009785796
0.009795647
0.009805525
0.009815398
0.00982524
0.009835027
0.009844739
0.009854359
0.009863874
0.009873271
0.009882542
0.009891677
0.009900671
0.009909518
0.009918214
0.009926757
0.009935144
0.009943374
0.009951447
0.009959364
0.009967127
0.009974738
0.0099822
0.009989518
0.009996696
0.01
0.01
0.01
0.01
0.01
0.01
0.01
0.01
0.01
0.01
0.01
0.01
0.01
0.01
0.01
0.01
0.01
0.01
0.01
0.01
0.01
0.01
0.01
0.01
0.01
0.01
0.01
0.01
0.01
0.01
0.01
0.01
0.01
0.01
0.01
0.01
0.01
0.01
0.01
0.01
2.290228e-05
3.871563e-05
6.100404e-05
0.0002651238
0.0004496835
0.000844706
0.001230889
0.001590634
0.002039198
0.00244873
0.002854223
0.003320858
0.003799599
0.004233562
0.004588421
0.004876666
0.005268442
0.004990242
0.004768341
0.004626287
0.004495567
0.004318059
0.004161859
0.004089183
0.004084583
0.004124767
0.004201718
0.004317286
0.004470782
0.004660102
0.004883867
0.005135348
0.005412941
0.005730964
0.005993785
0.006051574
0.006099913
0.006139157
0.006170409
0.006194696
0.00621333
0.006227632
0.006218458
0.006211443
0.006205773
0.006201242
0.006198224
0.006197288
0.006199068
0.006204248
0.006213511
0.006227524
0.006246924
0.006272301
0.006304221
0.006343197
0.006389642
0.006443862
0.006506047
0.006576249
0.0066543
0.006739792
0.006832182
0.00693073
0.00703446
0.007142165
0.007252433
0.007363751
0.007474635
0.007583538
0.007688851
0.007788937
0.007882192
0.007967161
0.008042587
0.00810741
0.008160829
0.008203322
0.008235609
0.008255517
0.008265426
0.008267435
0.008263438
0.008255149
0.008244144
0.008231894
0.00821975
0.008208877
0.008200289
0.008194824
0.008193145
0.008195753
0.00820297
0.008214953
0.008231725
0.00825322
0.008279304
0.008309804
0.008344484
0.008383095
0.008425382
0.008471045
0.008519758
0.00857119
0.008625023
0.008680952
0.008738692
0.008797983
0.008858584
0.00892029
0.008982925
0.009046333
0.009110381
0.009174956
0.009239965
0.009305331
0.009370954
0.009436432
0.009501663
0.009566704
0.00963165
0.009696601
0.009761669
0.009826991
0.009892729
0.009959114
0.01
0.01
0.01
0.01
0.01
0.01
0.01
0.01
0.01
0.01
0.01
0.01
0.01
0.01
0.01
0.01
0.01
0.01
0.01
0.01
0.01
0.01
0.01
0.01
0.01
0.01
0.01
0.01
0.01
0.01
0.01
0.01
0.01
0.01
0.01
0.01
0.01
0.01
0.01
0.01
0.01
0.01
0.01
0.01
0.01
0.01
0.01
0.01
0.01
0.01
0.01
0.01
0.01
0.01
0.01
0.01
0.01
0.01
0.01
0.01
0.01
0.01
0.01
0.01
0.01
0.01
0.01
0.01
0.01
0.01
0.01
0.01
0.01
0.01
0.01
0.01
0.01
0.01
0.01
0.01
0.01
0.01
0.01
0.01
0.01
0.01
0.01
0.01
0.01
0.01
0.01
0.01
0.01
0.01
0.01
0.01
0.01
0.01
0.01
0.01
0.01
0.01
0.01
0.01
0.01
0.01
0.01
0.01
0.01
0.01
0.01
0.01
0.01
0.01
0.01
0.01
0.01
0.01
0.01
0.01
0.01
0.01
0.01
0.01
0.01
0.01
0.01
0.01
0.01
0.01
0.01
0.01
0.01
0.01
0.01
0.01
0.01
0.01
0.01
0.01
0.01
0.01
0.01
0.01
0.01
0.01
0.01
0.01
0.01
0.01
0.01
0.01
0.01
0.01
0.01
0.01
0.01
0.01
0.01
0.01
0.01
0.01
0.01
0.01
0.01
0.01
0.01
0.01
0.01
0.01
0.01
0.01
0.01
0.01
0.01
0.01
0.01
0.01
0.01
0.01
0.01
0.01
0.01
0.01
0.01
0.01
0.01
0.01
0.01
0.01
0.01
0.01
0.01
0.01
0.01
0.01
0.01
0.01
0.01
0.01
0.01
0.01
0.01
0.01
0.01
0.01
0.01
0.01
0.01
0.01
0.01
0.01
0.01
0.01
0.01
0.01
0.01
0.01
0.01
0.01
0.01
0.01
0.01
0.01
0.01
0.01
0.01
0.01
0.01
0.01
0.01
0.01
0.01
0.01
0.01
0.01
0.01
0.01
0.01
0.01
0.01
0.01
0.01
0.01
0.01
0.01
0.01
0.01
0.01
0.01
0.01
0.01
0.01
0.01
0.01
0.01
0.01
0.01
0.01
0.01
0.01
0.01
0.01
0.01
0.01
0.01
0.01
0.01
0.01
0.01
0.01
0.01
0.01
0.01
0.01
0.01
0.01
0.01
0.01
0.01
0.01
0.01
0.01
0.01
0.01
0.01
0.01
0.01
0.01
0.01
0.01
0.01
0.01
0.01
0.01
0.01
0.01
0.01
0.01
0.01
0.01
0.01
0.01
0.01
0.01
0.01
0.01
0.01
0.01
0.01
0.01
0.01
0.01
0.01
0.01
0.01
0.01
0.01
0.01
0.01
0.01
0.01
0.01
0.01
0.01
0.01
0.01
0.01
0.01
0.01
0.01
0.01
0.01
0.01
0.01
0.01
0.01
0.01
0.01
0.01
0.01
0.01
0.01
0.01
0.01
0.01
0.01
0.01
2.028159e-05
3.265522e-05
6.182987e-05
0.0001962813
0.0003261641
0.0005433594
0.0007074983
0.0008982398
0.001125771
0.001347787
0.001602888
0.001935854
0.002305999
0.002722008
0.003217058
0.004150932
0.004518222
0.004854557
0.005145168
0.005382619
0.005568558
0.005698691
0.005663655
0.005431218
0.005081781
0.004740167
0.00464364
0.004441298
0.00423466
0.004077651
0.003939258
0.003813748
0.003724926
0.003689918
0.003699221
0.003747223
0.003830754
0.003950007
0.00410351
0.004289773
0.004508478
0.004761139
0.005040933
0.005348081
0.005693375
0.006090188
0.006389043
0.006489123
0.006578406
0.006658487
0.006730817
0.006796259
0.00685422
0.006906913
0.006955601
0.007001241
0.007044848
0.007087425
0.007129922
0.007173272
0.007218405
0.007266241
0.007317674
0.007373586
0.007434837
0.007502226
0.007576459
0.007658138
0.00774775
0.007845645
0.007951991
0.008066744
0.008189647
0.008320225
0.008457755
0.008601095
0.008748529
0.008897644
0.009047103
0.009195474
0.009340862
0.009481186
0.009614344
0.009738374
0.009851568
0.00995256
0.01
0.01
0.01
0.01
0.01
0.01
0.01
0.01
0.01
0.01
0.01
0.01
0.01
0.01
0.01
0.01
0.01
0.01
0.01
0.01
0.01
0.01
0.01
0.01
0.01
0.01
0.01
0.01
0.01
0.01
0.01
0.01
0.01
0.01
0.01
0.01
0.01
0.01
0.01
0.01
0.01
0.01
0.01
0.01
0.01
0.01
0.01
0.01
0.01
0.01
0.01
0.01
0.01
0.01
0.01
0.01
0.01
0.01
0.01
0.01
0.01
0.01
0.01
0.01
0.01
0.01
0.01
0.01
0.01
0.01
0.01
0.01
0.01
0.01
0.01
0.01
0.01
0.01
0.01
0.01
0.01
0.01
0.01
0.01
0.01
0.01
0.01
0.01
0.01
0.01
0.01
0.01
0.01
0.01
0.01
0.01
0.01
0.01
0.01
0.01
0.01
0.01
0.01
0.01
0.01
0.01
0.01
0.01
0.01
0.01
0.01
0.01
0.01
0.01
0.01
0.01
0.01
0.01
0.01
0.01
0.01
0.01
0.01
0.01
0.01
0.01
0.01
0.01
0.01
0.01
0.01
0.01
0.01
0.01
0.01
0.01
0.01
0.01
0.01
0.01
0.01
0.01
0.01
0.01
0.01
0.01
0.01
0.01
0.01
0.01
0.01
0.01
0.01
0.01
0.01
0.01
0.01
0.01
0.01
0.01
0.01
0.01
0.01
0.01
0.01
0.01
0.01
0.01
0.01
0.01
0.01
0.01
0.01
0.01
0.01
0.01
0.01
0.01
0.01
0.01
0.01
0.01
0.01
0.01
0.01
0.01
0.01
0.01
0.01
0.01
0.01
0.01
0.01
0.01
0.01
0.01
0.01
0.01
0.01
0.01
0.01
0.01
0.01
0.01
0.01
0.01
0.01
0.01
0.01
0.01
0.01
0.01
0.01
0.01
0.01
0.01
0.01
0.01
0.01
0.01
0.01
0.01
0.01
0.01
0.01
0.01
0.01
0.01
0.01
0.01
0.01
0.01
0.01
0.01
0.01
0.01
0.01
0.01
0.01
0.01
0.01
0.01
0.01
0.01
0.01
0.01
0.01
0.01
0.01
0.01
0.01
0.01
0.01
0.01
0.01
0.01
0.01
0.01
0.01
0.01
0.01
0.01
0.01
0.01
0.01
0.01
0.01
0.01
0.01
0.01
0.01
0.01
0.01
0.01
0.01
0.01
0.01
0.01
0.01
0.01
0.01
0.01
0.01
0.01
0.01
0.01
0.01
0.01
0.01
0.01
0.01
0.01
0.01
0.01
0.01
0.01
0.01
0.01
0.01
0.01
0.01
0.01
0.01
0.01
0.01
0.01
0.01
0.01
0.01
0.01
0.01
0.01
0.01
0.01
0.01
0.01
0.01
0.01
0.01
0.01
0.01
0.01
0.01
0.01
0.01
0.01
0.01
0.01
0.01
0.01
0.01
0.01
0.01
0.01
0.01
0.01
0.01
0.01
0.01
0.01
0.01
0.01
0.01
0.01
0.01
0.01
0.01
0.01
0.01
0.01
0.01
0.01
0.01
0.01
0.01
0.01
0.01
0.01
0.01
0.01
0.01
0.01
0.01
0.01
0.01
0.01
0.01
0.01
0.01
0.01
0.01
0.01
0.01
0.01
0.01
0.01
0.01
0.01
0.01
0.01
0.01
0.01
0.01
0.01
0.01
0.01
0.01
0.01
0.01
0.01
0.01
0.01
0.01
0.01
0.01
0.01
0.01
0.01
2.883824e-05
0.000179187
0.0002885703
0.0004165524
0.0005503113
0.0007134984
0.0009049808
0.001121617
0.001368704
0.00169134
0.002314188
0.00262403
0.002958565
0.003304306
0.003661499
0.004025717
0.004383389
0.004719349
0.005021515
0.00527996
0.005501366
0.005730565
0.005759106
0.005741934
0.005685518
0.005588286
0.005421327
0.005197677
0.004957072
0.004708437
0.004462441
0.00425482
0.004039058
0.003851958
0.003701444
0.003583471
0.003493683
0.003433572
0.003411975
0.003430336
0.003487444
0.003581266
0.003710654
0.003874488
0.004071451
0.004301508
0.004564865
0.004860114
0.005181014
0.005537701
0.005940968
0.006377452
0.006580209
0.006712296
0.006835344
0.006950437
0.007058436
0.007160022
0.007256078
0.007347372
0.00743464
0.007518712
0.007600494
0.007680913
0.007760917
0.007841477
0.007923581
0.008008223
0.0080964
0.008189103
0.008287293
0.008391872
0.008503669
0.00862343
0.00875178
0.008889189
0.009035978
0.009192144
0.009357167
0.00953118
0.009713895
0.009904414
0.01
0.01
0.01
0.01
0.01
0.01
0.01
0.01
0.01
0.01
0.01
0.01
0.01
0.01
0.01
0.01
0.01
0.01
0.01
0.01
0.01
0.01
0.01
0.01
0.01
0.01
0.01
0.01
0.01
0.01
0.01
0.01
0.01
0.01
0.01
0.01
0.01
0.01
0.01
0.01
0.01
0.01
0.01
0.01
0.01
0.01
0.01
0.01
0.01
0.01
0.01
0.01
0.01
0.01
0.01
0.01
0.01
0.01
0.01
0.01
0.01
0.01
0.01
0.01
0.01
0.01
0.01
0.01
0.01
0.01
0.01
0.01
0.01
0.01
0.01
0.01
0.01
0.01
0.01
0.01
0.01
0.01
0.01
0.01
0.01
0.01
0.01
0.01
0.01
0.01
0.01
0.01
0.01
0.01
0.01
0.01
0.01
0.01
0.01
0.01
0.01
0.01
0.01
0.01
0.01
0.01
0.01
0.01
0.01
0.01
0.01
0.01
0.01
0.01
0.01
0.01
0.01
0.01
0.01
0.01
0.01
0.01
0.01
0.01
0.01
0.01
0.01
0.01
0.01
0.01
0.01
0.01
0.01
0.01
0.01
0.01
0.01
0.01
0.01
0.01
0.01
0.01
0.01
0.01
0.01
0.01
0.01
0.01
0.01
0.01
0.01
0.01
0.01
0.01
0.01
0.01
0.01
0.01
0.01
0.01
0.01
0.01
0.01
0.01
0.01
0.01
0.01
0.01
0.01
0.01
0.01
0.01
0.01
0.01
0.01
0.01
0.01
0.01
0.01
0.01
0.01
0.01
0.01
0.01
0.01
0.01
0.01
0.01
0.01
0.01
0.01
0.01
0.01
0.01
0.01
0.01
0.01
0.01
0.01
0.01
0.01
0.01
0.01
0.01
0.01
0.01
0.01
0.01
0.01
0.01
0.01
0.01
0.01
0.01
0.01
0.01
0.01
0.01
0.01
0.01
0.01
0.01
0.01
0.01
0.01
0.01
0.01
0.01
0.01
0.01
0.01
0.01
0.01
0.01
0.01
0.01
0.01
0.01
0.01
0.01
0.01
0.01
0.01
0.01
0.01
0.01
0.01
0.01
0.01
0.01
0.01
0.01
0.01
0.01
0.01
0.01
0.01
0.01
0.01
0.01
0.01
0.01
0.01
0.01
0.01
0.01
0.01
0.01
0.01
0.01
0.01
0.01
0.01
0.01
0.01
0.01
0.01
0.01
0.01
0.01
0.01
0.01
0.01
0.01
0.01
0.01
0.01
0.01
0.01
0.01
0.01
0.01
0.01
0.01
0.01
0.01
0.01
0.01
0.01
0.01
0.01
0.01
0.01
0.01
0.01
0.01
0.01
0.01
0.01
0.01
0.01
0.01
0.01
0.01
0.01
0.01
0.01
0.01
0.01
0.01
0.01
0.01
0.01
0.01