/*--------------------------------*- C++ -*----------------------------------*\
| =========                 |                                                 |
| \\      /  F ield         | foam-extend: Open Source CFD                    |
|  \\    /   O peration     | Version:     3.1                                |
|   \\  /    A nd           | Web:         http://www.extend-project.de       |
|    \\/     M anipulation  |                                                 |
\*---------------------------------------------------------------------------*/
FoamFile
{
    version     2.0;
    format      ascii;
    class       volScalarField;
    location    "2.5";
    object      omega;
}
// * * * * * * * * * * * * * * * * * * * * * * * * * * * * * * * * * * * * * //

dimensions      [0 0 -1 0 0 0 0];

internalField   nonuniform List<scalar> 
119952
(
139.8007
173.4205
163.3079
143.1319
129.2996
130.4468
133.0198
136.3145
140.0005
143.8869
147.8622
151.8749
155.903
159.9544
164.0546
168.2382
172.5455
177.0277
181.7899
187.2725
158.8253
158.2986
159.6324
136.7002
134.4643
133.1202
132.1268
131.1542
128.5631
149.0944
284.279
239.0764
201.7425
174.6738
154.5769
139.2078
127.0399
117.1602
108.9312
99.81527
81.29204
68.56981
59.8555
53.53261
48.75041
45.025
42.04917
39.62137
37.58102
29.17812
27.69216
26.29489
25.02001
23.88237
22.87899
22.00028
21.23341
20.56474
19.98774
19.47616
18.97483
18.48005
17.99654
17.53182
17.09225
16.68106
16.29694
15.93975
16.02955
16.10973
16.03946
15.90592
15.75429
15.59789
15.45231
15.30825
15.1696
15.04213
14.93141
14.84148
14.77398
14.72843
14.7026
14.69301
14.69509
14.70245
14.70302
14.67223
14.59664
14.54901
14.456
14.35612
14.27993
14.25556
14.29691
14.4728
15.13503
16.46928
16.81783
16.9049
16.89849
16.8542
16.79131
16.72084
16.65024
16.58474
16.52775
16.48098
16.44498
16.41949
16.40365
16.3963
16.39617
16.40202
16.41278
16.42755
16.4456
16.46633
16.48929
16.51412
16.54055
16.56831
16.59727
16.62728
16.65825
16.69008
16.72273
16.75617
16.79039
16.82539
16.86117
16.89776
16.93517
16.97344
17.01261
17.05273
17.09384
17.13601
17.17931
17.2238
17.26955
17.31661
17.36504
17.41482
17.46566
17.51576
17.56509
17.93853
18.437
18.85286
19.16743
19.39775
19.56621
19.69175
19.78855
19.86669
19.93306
19.99231
20.04748
20.1006
20.15304
20.20567
20.25908
20.31366
20.36965
20.42723
20.48651
20.54754
20.61038
20.67509
20.7417
20.81024
20.88076
20.9533
21.02789
21.10455
21.18338
21.26445
21.34781
21.43357
21.52181
21.61262
21.70612
21.80244
21.90171
22.00408
22.10973
22.21883
22.33161
22.44832
22.56912
22.69428
22.82408
22.95864
23.09781
23.23668
23.38546
28.49943
34.14427
36.29257
37.24833
37.74097
38.04
38.25851
38.44813
38.63327
38.82541
39.02997
39.24853
39.48179
39.72942
39.99085
40.26549
40.55274
40.85213
41.16335
41.48612
41.82031
42.16588
42.52283
42.89132
43.27146
43.66344
44.06769
44.48402
44.91277
45.35388
45.80682
46.27005
46.73914
47.20025
47.59376
47.27614
46.38162
45.74128
45.24191
44.82064
44.44097
44.08331
43.73748
43.39846
43.06378
42.73273
42.40558
42.08192
41.76208
41.44634
41.1349
40.8279
40.52543
40.22751
39.93416
39.64534
39.361
39.08108
38.8055
38.53418
38.26689
38.0037
37.74484
37.48979
37.23853
36.991
36.74709
36.50659
36.26971
36.02971
29.2113
27.98071
26.79742
25.74162
24.85095
24.12725
23.5542
23.10673
22.75835
22.48501
22.26683
22.08847
21.93853
21.80882
21.69355
21.58867
21.49134
21.39962
21.31212
21.22788
21.14623
21.06669
20.98891
20.91263
20.83769
20.76395
20.69133
20.61974
20.54912
20.47943
20.41064
20.3427
20.27561
20.20934
20.14387
20.07919
20.01529
19.95217
19.88982
19.82827
19.76756
19.70781
19.64924
19.59246
19.53904
19.49152
19.44967
19.40989
19.37135
19.3338
19.29704
19.26106
19.2258
19.19223
19.16373
19.05516
18.87474
18.64854
18.40524
18.16807
17.9521
17.76471
17.6076
17.47875
17.37429
17.28974
17.22081
17.16374
17.11551
17.07372
17.03657
17.00273
16.97125
16.94142
16.91278
16.885
16.85783
16.83112
16.80478
16.77872
16.7529
16.7273
16.70188
16.67663
16.65154
16.62661
16.60182
16.57717
16.55265
16.52827
16.50401
16.47986
16.45584
16.43192
16.40812
16.38441
16.36081
16.33731
16.3139
16.29059
16.26738
16.24425
16.22122
16.19829
16.17545
16.1527
16.13006
16.10751
16.08506
16.06271
16.04045
16.01829
15.99623
15.97426
15.95239
15.9306
15.9089
15.88727
15.86571
15.84422
15.82277
15.80136
15.77995
15.75853
15.73705
15.71546
15.6937
15.67167
15.64921
15.62613
15.60207
15.57652
15.54855
15.51648
15.47666
15.42077
15.33057
15.17802
15.38309
294.3382
243.5591
209.053
184.5351
166.2346
151.9394
140.2952
130.5046
121.6672
103.4738
84.16796
71.67316
63.07656
56.83651
52.09678
48.3618
45.32703
42.78696
32.86437
31.16158
29.53183
28.01764
26.64621
25.41829
24.32454
23.35102
22.48333
21.70939
21.03383
20.40286
19.79475
19.20983
18.65145
18.12344
17.62875
17.16915
16.7453
16.48399
16.31729
16.09264
15.83224
15.55124
15.26113
14.97068
14.68636
14.41285
14.1534
13.90903
13.67864
13.45905
13.24741
13.04229
12.84342
12.65127
12.46677
12.29295
11.02592
10.88905
10.76574
10.65162
10.54378
10.44037
10.34034
10.24316
10.14872
10.057
9.968274
9.882268
9.798576
9.716861
9.636839
9.558404
9.481795
9.408129
9.33995
9.280887
9.227992
9.181165
9.139356
9.105961
9.082004
9.062712
9.045228
9.027657
9.008998
8.98906
8.968196
8.947049
8.926328
8.906626
8.888263
8.871155
8.854671
8.837533
8.81807
8.796688
8.773823
8.747113
8.723149
8.710131
8.708235
8.720688
8.75441
8.818331
8.894378
8.962235
9.0208
9.068598
9.105943
9.133602
9.152643
9.164277
9.169801
9.170513
9.167645
9.162305
9.155443
9.147825
9.140035
9.132486
9.125446
9.119073
9.113448
9.108594
9.104499
9.101132
9.098454
9.096415
9.094943
9.094003
9.093546
9.093522
9.093892
9.094616
9.095665
9.097011
9.098632
9.10051
9.102633
9.10499
9.107575
9.110384
9.113415
9.11667
9.120148
9.123852
9.12778
9.13193
9.136291
9.14084
9.145526
9.150248
9.15493
9.160666
9.173201
9.194725
9.223903
9.257667
9.292991
9.327596
9.360044
9.389604
9.416045
9.439452
9.460085
9.478279
9.494395
9.508776
9.521734
9.533546
9.544446
9.554634
9.564276
9.573512
9.582456
9.591204
9.599835
9.608417
9.617006
9.62565
9.634391
9.643267
9.652306
9.661536
9.670978
9.680653
9.690578
9.700767
9.711235
9.721992
9.733047
9.744408
9.756085
9.768111
9.780499
9.793254
9.806378
9.819865
9.833703
9.847856
9.862236
9.876585
9.890052
9.895678
10.52086
10.95956
11.17115
11.30195
11.40003
11.48073
11.54919
11.60769
11.65777
11.70077
11.73793
11.77036
11.79903
11.82476
11.84822
11.86995
11.89038
11.90986
11.92866
11.94699
11.96503
11.98289
12.00067
12.01844
12.03625
12.0541
12.07201
12.08991
12.10774
12.12532
12.14232
12.1579
12.17086
12.17875
12.17871
12.16793
12.14677
12.11969
12.08961
12.05863
12.02811
11.99881
11.9711
11.94505
11.9206
11.8976
11.87588
11.85526
11.83556
11.81665
11.79839
11.78068
11.76343
11.74656
11.73001
11.71373
11.69767
11.68182
11.66612
11.65056
11.63513
11.6198
11.60456
11.58941
11.57435
11.55937
11.54449
11.52973
11.51516
11.5037
10.41064
10.35879
10.31921
10.28243
10.24426
10.20345
10.16024
10.11553
10.07044
10.02601
9.983067
9.942178
9.903697
9.867784
9.834459
9.803641
9.775187
9.748919
9.724643
9.702163
9.68129
9.66185
9.64368
9.626634
9.610584
9.595414
9.581023
9.567323
9.554236
9.541693
9.529636
9.518014
9.506782
9.495903
9.485342
9.475073
9.465075
9.455331
9.445832
9.436577
9.427577
9.418863
9.410496
9.402574
9.39523
9.388543
9.382373
9.37654
9.370954
9.36556
9.360326
9.35526
9.35039
9.345946
9.341716
9.336507
9.329346
9.319425
9.30635
9.290187
9.271366
9.250534
9.228423
9.205744
9.183121
9.16105
9.139893
9.119889
9.101173
9.083793
9.067739
9.052956
9.039367
9.026876
9.015384
9.004793
8.995005
8.985934
8.977498
8.969623
8.962243
8.9553
8.94874
8.942519
8.936594
8.93093
8.925494
8.920258
8.915195
8.910285
8.905507
8.900842
8.896277
8.891795
8.887387
8.88304
8.878746
8.874496
8.870283
8.866101
8.861946
8.857813
8.853699
8.849601
8.845518
8.841447
8.837387
8.833336
8.829294
8.825259
8.821231
8.817206
8.813185
8.809166
8.805145
8.80112
8.797089
8.793046
8.788986
8.784903
8.780788
8.776632
8.77242
8.768136
8.763758
8.759256
8.754592
8.749713
8.744544
8.738981
8.732871
8.725982
8.717962
8.70827
8.696093
8.680409
8.66026
8.638379
8.62456
442.08
388.6887
343.456
308.3117
279.2366
254.629
233.4218
214.9242
198.8423
182.0808
111.8099
87.76325
77.92034
72.31061
68.09059
64.44789
61.13986
58.08013
55.20578
42.10197
39.03133
36.35981
34.09405
32.18854
30.57626
29.19436
27.99151
26.92731
25.98178
25.10283
24.2186
23.33978
22.48447
21.66942
20.90565
20.19878
19.54998
18.94922
18.7176
18.37935
17.97699
17.54284
17.09905
16.66089
16.23856
15.83845
15.46437
15.11809
14.79721
14.49583
14.20944
13.93552
13.67344
13.42336
13.18572
12.96262
11.48996
11.31868
11.16482
11.02335
10.89076
10.76471
10.64378
10.5271
10.41424
10.30491
10.19912
10.09692
9.997998
9.902077
9.808966
9.718505
9.630569
9.545101
9.462098
9.382374
9.306786
9.235199
9.167139
9.102029
9.039273
8.978352
8.918871
8.86057
8.803313
8.747098
8.691892
8.6377
8.584511
8.532286
8.480967
8.430504
8.380728
8.329984
8.305245
8.275741
8.242977
8.208023
8.171602
8.134191
8.096112
8.057593
8.018801
7.979887
7.940928
7.901965
7.863063
7.82428
7.785671
7.747332
7.709474
7.672447
7.636499
7.600631
7.565473
7.533784
7.50733
7.486085
7.469166
7.455229
7.443224
7.432279
7.421675
7.410912
7.399709
7.387979
7.375765
7.363185
7.350356
7.337332
7.324047
7.310303
7.295837
7.280778
7.265449
7.249786
7.235471
7.225025
7.219459
7.219645
7.227085
7.242003
7.260814
7.280539
7.300316
7.319186
7.336405
7.351413
7.363833
7.373477
7.380342
7.384577
7.386451
7.386308
7.384528
7.38149
7.377543
7.372991
7.368086
7.363027
7.357966
7.353016
7.348257
7.343745
7.339514
7.335586
7.33196
7.328639
7.325616
7.322878
7.320411
7.318199
7.316222
7.314455
7.312885
7.3115
7.310291
7.309251
7.308374
7.307654
7.30709
7.306678
7.306416
7.3063
7.306328
7.306493
7.306785
7.307187
7.307673
7.308213
7.308807
7.309694
7.311743
7.315695
7.321882
7.330165
7.34009
7.351084
7.362591
7.374148
7.385409
7.396142
7.406212
7.415561
7.424181
7.432104
7.43938
7.446076
7.452266
7.458029
7.463428
7.468522
7.473364
7.478004
7.482487
7.48685
7.491124
7.495336
7.499506
7.503691
7.507931
7.512246
7.516652
7.521164
7.525794
7.530553
7.535448
7.540487
7.545676
7.55102
7.556519
7.56216
7.567934
7.573843
7.579886
7.586061
7.592363
7.598781
7.605292
7.611852
7.6184
7.625263
7.640791
7.641277
7.642423
7.647553
7.656399
7.667919
7.681096
7.695107
7.70936
7.723443
7.737092
7.750152
7.762542
7.774236
7.785242
7.795589
7.805322
7.814491
7.823151
7.831353
7.839147
7.846579
7.853687
7.860505
7.86706
7.873367
7.879433
7.885251
7.890794
7.89601
7.900818
7.905065
7.908532
7.910856
7.911586
7.910422
7.907523
7.903239
7.897871
7.891677
7.884886
7.877698
7.870282
7.862767
7.855262
7.847843
7.840565
7.833463
7.826558
7.819858
7.813364
7.807071
7.800969
7.795049
7.789306
7.783701
7.778232
7.772886
7.767651
7.762514
7.757465
7.752493
7.747595
7.742757
7.737979
7.733262
7.728618
7.724025
7.719391
7.713376
7.739761
7.755183
7.763524
7.766805
7.766133
7.762201
7.755521
7.74652
7.735671
7.723399
7.710098
7.696125
7.681787
7.667341
7.652993
7.638901
7.625183
7.61192
7.599166
7.58695
7.575284
7.564166
7.553585
7.543522
7.533953
7.524852
7.516191
7.507944
7.50008
7.492574
7.485399
7.478531
7.471947
7.465626
7.45955
7.453701
7.448064
7.44263
7.43739
7.43234
7.427483
7.422828
7.418397
7.414216
7.41032
7.406718
7.403373
7.400233
7.397264
7.394442
7.391755
7.389197
7.386768
7.38451
7.382405
7.380248
7.377828
7.374927
7.371353
7.366972
7.361724
7.355617
7.348726
7.341167
7.333085
7.324636
7.315971
7.307229
7.29853
7.289976
7.281645
7.273595
7.265867
7.258487
7.251468
7.244814
7.23852
7.232577
7.226971
7.221685
7.216701
7.211999
7.207561
7.203367
7.199399
7.195637
7.192065
7.188667
7.185426
7.182329
7.179363
7.176514
7.173772
7.171127
7.168568
7.166089
7.16368
7.161336
7.15905
7.156815
7.154617
7.152451
7.150312
7.148199
7.146107
7.144034
7.141979
7.13994
7.137914
7.1359
7.133897
7.131902
7.129915
7.127932
7.125952
7.123972
7.12199
7.120001
7.118001
7.115986
7.113949
7.111882
7.109775
7.107616
7.105389
7.103075
7.100648
7.098072
7.095301
7.092273
7.088901
7.085063
7.080594
7.075269
7.068809
7.060933
7.051515
7.04125
7.03254
312.7952
233.125
287.498
121.7028
89.51363
57.40611
49.64639
44.01584
40.86091
39.75292
39.43148
38.8783
37.58132
36.91714
36.12942
35.27013
34.33622
33.34419
32.31679
31.26735
30.20124
29.14677
28.08409
26.99298
25.9187
24.89589
23.93941
23.05066
22.22513
21.45684
20.74426
18.85796
18.24623
17.67172
17.12639
16.60647
16.11019
15.63646
15.18446
14.75335
14.34215
13.95002
13.57575
13.21772
12.87485
12.54639
12.23192
11.93126
11.64444
11.37183
11.11517
10.87457
10.64907
10.43741
10.23845
10.05125
9.875091
9.709473
9.554027
9.408502
9.272627
9.146069
9.028416
8.919192
8.817879
8.723901
8.636511
8.55319
8.50316
8.45157
8.399786
8.348578
8.298347
8.249248
8.201292
8.154401
8.108506
8.063533
8.019435
7.976133
7.933571
7.891721
7.850557
7.810053
7.770176
7.730903
7.69222
7.654173
7.616852
7.580324
7.544655
7.50986
7.47591
7.44275
7.41031
7.37852
7.347326
7.316666
7.286508
7.256832
7.227619
7.198845
7.170486
7.142518
7.114915
7.087728
7.062835
7.039343
7.016699
6.994557
6.972689
6.950952
6.929263
6.907592
6.885954
6.864426
6.84287
6.821158
6.799252
6.777139
6.754794
6.732111
6.709128
6.686175
6.663568
6.642271
6.622459
6.604006
6.58723
6.572279
6.559026
6.547207
6.536542
6.526737
6.517486
6.508504
6.499561
6.490485
6.481173
6.471574
6.461676
6.451483
6.440997
6.430211
6.419124
6.407818
6.396444
6.385174
6.374521
6.365212
6.357797
6.352738
6.350494
6.351102
6.353893
6.358174
6.363535
6.369561
6.37583
6.381941
6.387532
6.392306
6.396044
6.39862
6.399997
6.400214
6.399365
6.397587
6.395032
6.391857
6.388212
6.384233
6.380035
6.375719
6.371366
6.367041
6.362795
6.358666
6.35468
6.350856
6.347204
6.343729
6.340432
6.337312
6.334365
6.33159
6.328983
6.326537
6.324248
6.322112
6.320126
6.318288
6.316593
6.315041
6.313629
6.312354
6.311211
6.310195
6.309296
6.308504
6.307803
6.307179
6.306629
6.306218
6.306131
6.306595
6.3078
6.309848
6.312735
6.316371
6.320613
6.325299
6.330267
6.335375
6.340507
6.345573
6.35051
6.355278
6.359854
6.36423
6.368403
6.37238
6.376174
6.379801
6.383278
6.38662
6.389846
6.393014
6.396154
6.399286
6.402427
6.405568
6.4087
6.411831
6.414971
6.41813
6.421315
6.424532
6.427787
6.431084
6.434426
6.437816
6.441256
6.444746
6.448288
6.451882
6.455527
6.459223
6.462967
6.466755
6.47058
6.474431
6.478315
6.482363
6.487266
6.491076
6.494317
6.497697
6.501644
6.506314
6.511698
6.517682
6.524086
6.530792
6.537662
6.54458
6.551454
6.558213
6.564806
6.571198
6.577366
6.5833
6.588997
6.59446
6.599691
6.6047
6.609495
6.614088
6.618492
6.622691
6.626695
6.630499
6.63409
6.637449
6.640523
6.643212
6.64545
6.647104
6.64803
6.648149
6.647509
6.646216
6.644369
6.642056
6.639356
6.636343
6.633094
6.629667
6.626077
6.622408
6.618695
6.614969
6.611256
6.607576
6.603943
6.600368
6.596858
6.593428
6.590072
6.586756
6.583511
6.580333
6.577216
6.574156
6.571149
6.568193
6.565293
6.562442
6.559604
6.556822
6.55409
6.551382
6.548765
6.546515
6.54773
6.550171
6.552707
6.554764
6.556046
6.556407
6.55578
6.554165
6.551605
6.548173
6.543967
6.539093
6.533667
6.5278
6.5216
6.515166
6.508585
6.501932
6.495273
6.488661
6.482139
6.47574
6.469492
6.463413
6.457515
6.451807
6.446293
6.440974
6.435848
6.430912
6.426161
6.421588
6.417187
6.412952
6.408875
6.40495
6.401171
6.397534
6.394036
6.390676
6.387456
6.38438
6.381457
6.378699
6.376116
6.373709
6.371465
6.369362
6.367383
6.365518
6.363758
6.362097
6.360536
6.35908
6.357721
6.35641
6.355085
6.353682
6.35213
6.350366
6.348333
6.345994
6.343329
6.340335
6.337028
6.333437
6.329601
6.325566
6.32138
6.317089
6.312741
6.308375
6.30403
6.299735
6.295517
6.291396
6.287389
6.283506
6.279757
6.276144
6.27267
6.269335
6.266136
6.26307
6.260132
6.257315
6.254615
6.252024
6.249536
6.247143
6.24484
6.242619
6.240473
6.238398
6.236387
6.234434
6.232534
6.230683
6.228876
6.22711
6.225383
6.223693
6.222038
6.220413
6.218817
6.217247
6.2157
6.214176
6.212671
6.211183
6.209711
6.208253
6.206806
6.205369
6.203937
6.20251
6.201083
6.199654
6.198216
6.196767
6.195299
6.193805
6.192277
6.190704
6.189072
6.187364
6.185561
6.183634
6.18155
6.179263
6.176715
6.173833
6.17052
6.166661
6.16213
6.156816
6.150704
6.14408
6.138141
308.1234
211.2523
162.0355
135.3589
107.5049
82.3911
67.21786
60.0316
52.94982
48.81731
45.74381
42.66735
40.15044
38.4196
37.48293
37.1192
36.98013
37.25389
37.36038
37.28443
37.11008
36.894
36.474
35.825
34.98851
34.01395
32.94307
31.80591
30.63042
29.44077
28.2568
27.09431
25.96461
24.87171
23.82193
22.8173
21.85935
20.94989
20.08964
19.27784
18.51424
17.79345
17.13804
16.51902
15.93437
15.3818
14.85932
14.36502
13.89695
13.45325
13.0322
12.63231
12.25224
11.89073
11.54677
11.2195
10.90818
10.61219
10.33097
10.06405
9.811075
9.571793
9.346023
9.133567
8.934142
8.747376
8.572847
8.410103
8.258649
8.117986
7.987644
7.867201
7.756255
7.654389
7.561196
7.47629
7.399278
7.329437
7.26611
7.21068
7.161627
7.117808
7.078352
7.042551
7.009808
6.979596
6.951446
6.924979
6.899859
6.875802
6.852571
6.829981
6.807889
6.78618
6.764768
6.743581
6.722564
6.701668
6.680858
6.660131
6.639506
6.619009
6.598657
6.578469
6.558458
6.538637
6.519011
6.499588
6.480367
6.461352
6.442544
6.423942
6.40554
6.387332
6.369305
6.351449
6.333776
6.316459
6.299553
6.283046
6.266885
6.250993
6.235286
6.219678
6.204078
6.188375
6.172404
6.156171
6.139782
6.123296
6.10677
6.090299
6.074112
6.058336
6.042856
6.027709
6.013025
5.998808
5.985083
5.971951
5.959474
5.94766
5.936486
5.925916
5.915882
5.906291
5.897026
5.887968
5.879005
5.87004
5.860998
5.851829
5.842503
5.833007
5.823345
5.813537
5.803628
5.793694
5.783844
5.774257
5.765169
5.756826
5.749478
5.74336
5.738597
5.735131
5.732823
5.731517
5.731029
5.73115
5.731659
5.732329
5.732941
5.733305
5.733268
5.732726
5.731621
5.72994
5.727706
5.724968
5.721789
5.718244
5.71441
5.710359
5.706161
5.701876
5.697559
5.693253
5.688998
5.684821
5.680746
5.676788
5.672959
5.669268
5.665718
5.662315
5.659066
5.655971
5.653029
5.650239
5.6476
5.64511
5.642769
5.640576
5.638529
5.636626
5.634865
5.633242
5.631751
5.630384
5.629133
5.627985
5.626931
5.625963
5.625096
5.624377
5.623877
5.623675
5.623839
5.624414
5.625413
5.62682
5.628598
5.630693
5.633048
5.635604
5.638308
5.641112
5.643978
5.646874
5.649777
5.652664
5.655518
5.658332
5.6611
5.66384
5.666591
5.669361
5.672115
5.674845
5.677553
5.680241
5.682912
5.685572
5.688224
5.690875
5.693529
5.696189
5.69886
5.701546
5.704247
5.706968
5.709708
5.712469
5.715252
5.718056
5.720882
5.723728
5.726594
5.729477
5.732375
5.735285
5.738205
5.741137
5.744114
5.747213
5.750241
5.753154
5.756023
5.758956
5.762044
5.765345
5.768892
5.772655
5.776622
5.780758
5.785024
5.789376
5.793775
5.798186
5.802578
5.806924
5.811205
5.815405
5.819521
5.823542
5.827429
5.831196
5.834854
5.838392
5.841774
5.845024
5.84813
5.851074
5.853838
5.856384
5.858674
5.860654
5.862261
5.863437
5.864153
5.864433
5.864325
5.863879
5.863139
5.862142
5.860921
5.85951
5.857945
5.856229
5.854398
5.852476
5.850482
5.848435
5.84635
5.844241
5.842119
5.839993
5.837873
5.835758
5.833657
5.831572
5.829506
5.82746
5.825434
5.82343
5.821447
5.819488
5.81756
5.815642
5.813747
5.811873
5.81003
5.808238
5.806594
5.805499
5.804938
5.804758
5.804787
5.804865
5.804861
5.804669
5.804213
5.803438
5.802315
5.800832
5.798995
5.796818
5.794329
5.791558
5.788542
5.785317
5.781921
5.77839
5.774757
5.771054
5.767308
5.763544
5.759784
5.756044
5.752342
5.748689
5.745095
5.741569
5.738117
5.734743
5.731451
5.728243
5.725119
5.722082
5.719131
5.716268
5.713493
5.710807
5.708213
5.705715
5.703318
5.701027
5.698849
5.696791
5.694853
5.69303
5.691314
5.689696
5.688171
5.686733
5.685379
5.684108
5.682919
5.681808
5.680756
5.679742
5.67874
5.677727
5.676673
5.675552
5.674337
5.673009
5.671548
5.669946
5.668196
5.666301
5.664266
5.662102
5.659823
5.657445
5.654985
5.652462
5.649892
5.647292
5.644678
5.642063
5.639459
5.636878
5.634328
5.631816
5.629349
5.62693
5.624564
5.622252
5.619995
5.617795
5.61565
5.613561
5.611525
5.609541
5.607607
5.605721
5.60388
5.602083
5.600327
5.59861
5.596928
5.59528
5.593665
5.592086
5.590543
5.589034
5.587555
5.586107
5.584686
5.58329
5.581917
5.580566
5.579235
5.577921
5.576622
5.575337
5.574062
5.572795
5.571533
5.570272
5.569009
5.56774
5.566459
5.565161
5.563838
5.562483
5.561084
5.559631
5.558109
5.556499
5.554779
5.552922
5.550894
5.548652
5.546146
5.543315
5.54009
5.536403
5.532199
5.527475
5.522393
5.517762
153.9815
115.387
174.2812
86.92994
74.48688
62.7452
59.14211
56.19337
52.90065
51.15215
49.1303
46.45854
44.02764
41.76633
39.63628
36.04953
35.35518
34.97321
34.88124
35.0728
35.49008
36.1399
36.96963
37.87281
38.76334
39.46661
39.81371
40.03471
40.04398
39.68604
39.14496
38.49103
37.68919
36.72262
35.628
34.44737
33.21421
31.95471
30.69082
29.4389
28.21221
27.01876
25.86756
24.76063
23.69629
22.67551
21.70567
20.78845
19.91998
19.09774
18.31994
17.58353
16.88794
16.23178
15.61228
15.02655
14.47233
13.94765
13.4506
12.9794
12.53241
12.10817
11.70534
11.32277
10.95947
10.61461
10.28743
9.977213
9.683334
9.405209
9.142298
8.894089
8.660148
8.440114
8.233625
8.040318
7.859863
7.691989
7.536102
7.391611
7.258018
7.134864
7.021706
6.918099
6.823595
6.737732
6.659998
6.58999
6.527324
6.471709
6.422658
6.379592
6.341891
6.308921
6.280051
6.254668
6.232186
6.212085
6.193885
6.177166
6.161561
6.146755
6.132512
6.118659
6.105059
6.091601
6.078184
6.064659
6.05102
6.037282
6.023453
6.009537
5.995539
5.981467
5.967334
5.953158
5.938956
5.924751
5.910562
5.896407
5.882302
5.868261
5.85429
5.84039
5.826559
5.812791
5.799078
5.785435
5.771881
5.758429
5.745077
5.731803
5.718578
5.705364
5.692122
5.678816
5.665444
5.652063
5.638687
5.625333
5.612023
5.598791
5.58568
5.572708
5.559878
5.547206
5.534708
5.522378
5.510234
5.498312
5.486639
5.47523
5.464105
5.453284
5.442774
5.432565
5.422628
5.41292
5.403387
5.393973
5.384622
5.375288
5.365933
5.356534
5.34708
5.337575
5.328034
5.318489
5.308991
5.299609
5.290432
5.281574
5.273172
5.26537
5.258288
5.251992
5.246488
5.241737
5.237662
5.234164
5.231129
5.22843
5.225935
5.223515
5.221056
5.218464
5.215671
5.212636
5.209343
5.205793
5.202008
5.198017
5.193859
5.189575
5.185206
5.180791
5.176369
5.171972
5.167627
5.16336
5.159187
5.155125
5.151184
5.147372
5.143695
5.140157
5.136759
5.133505
5.130393
5.127426
5.124603
5.121925
5.119393
5.117005
5.114762
5.112662
5.110703
5.108882
5.107193
5.105629
5.104184
5.102849
5.101613
5.100469
5.099417
5.098466
5.097634
5.096947
5.096436
5.096128
5.096042
5.096191
5.096575
5.097189
5.098017
5.099042
5.100242
5.101598
5.103088
5.104693
5.106397
5.108184
5.110042
5.111962
5.113976
5.116077
5.118222
5.120401
5.122605
5.12483
5.127075
5.129338
5.131619
5.133918
5.136235
5.138572
5.140928
5.143304
5.145701
5.14812
5.150559
5.153018
5.155498
5.157996
5.160512
5.163045
5.165592
5.168151
5.170721
5.1733
5.175884
5.178472
5.181063
5.183656
5.18626
5.188888
5.191519
5.194133
5.196732
5.199333
5.201961
5.204645
5.207407
5.210258
5.213206
5.216248
5.219379
5.222587
5.225858
5.229177
5.232528
5.235896
5.239266
5.242626
5.245967
5.249295
5.25257
5.255767
5.258907
5.261976
5.264966
5.267866
5.270665
5.273347
5.275894
5.278281
5.280479
5.282455
5.284172
5.285599
5.286722
5.28755
5.288108
5.288426
5.28853
5.288442
5.288183
5.287771
5.287223
5.286551
5.28577
5.284891
5.283927
5.282889
5.281788
5.280632
5.27943
5.278191
5.276922
5.275627
5.274312
5.272981
5.271638
5.270287
5.26893
5.26757
5.266208
5.264847
5.263489
5.262134
5.260786
5.259445
5.258115
5.256806
5.255543
5.254397
5.253409
5.252586
5.251912
5.251351
5.250863
5.250402
5.249924
5.249388
5.248762
5.248019
5.247138
5.246107
5.24492
5.243574
5.242073
5.240425
5.238638
5.236726
5.2347
5.232575
5.230365
5.228084
5.225744
5.223359
5.22094
5.218499
5.216043
5.213584
5.211127
5.208681
5.206252
5.203844
5.201463
5.199113
5.196798
5.194522
5.19229
5.190106
5.187974
5.1859
5.18389
5.181949
5.180083
5.178299
5.176598
5.174981
5.173444
5.171986
5.170604
5.169295
5.168058
5.166892
5.165795
5.164765
5.163793
5.162868
5.161982
5.161121
5.160275
5.159429
5.15857
5.157685
5.156761
5.155786
5.154751
5.153649
5.152473
5.151221
5.149892
5.148489
5.147013
5.145471
5.143868
5.14221
5.140505
5.138761
5.136985
5.135185
5.133368
5.131539
5.129707
5.127876
5.126051
5.124238
5.122439
5.120659
5.1189
5.117164
5.115454
5.113772
5.112117
5.110492
5.108897
5.107331
5.105796
5.104291
5.102817
5.101371
5.099955
5.098567
5.097207
5.095873
5.094564
5.09328
5.092018
5.090778
5.089558
5.088357
5.087172
5.086003
5.084848
5.083704
5.082569
5.081441
5.080318
5.079195
5.07807
5.076939
5.075798
5.07464
5.07346
5.07225
5.071002
5.069706
5.068349
5.066917
5.065393
5.063754
5.061978
5.060033
5.057887
5.0555
5.052832
5.049846
5.04651
5.042827
5.038902
5.035316
64.44871
43.71759
41.70246
40.43024
40.17479
39.47342
38.85287
38.22851
37.64514
36.59856
33.65503
33.35508
33.07983
32.83706
32.60656
32.39179
32.26202
32.26715
32.43478
32.76541
33.17219
33.64515
34.30334
35.14296
36.13741
37.2478
38.35839
39.39992
40.29363
40.99612
41.43402
41.49688
41.30784
40.8423
40.10272
39.16331
38.0863
36.91056
35.64819
34.3363
33.01497
31.70343
30.4186
29.17326
27.97374
26.82877
25.73823
24.70157
23.71731
22.7797
21.88351
21.03031
20.22071
19.44993
18.71412
18.01071
17.33747
16.69274
16.07545
15.48428
14.91788
14.37518
13.85531
13.35744
12.88078
12.42463
11.98831
11.57124
11.17289
10.79282
10.43063
10.08593
9.758298
9.447318
9.152552
8.873547
8.609853
8.361046
8.126726
7.906409
7.699637
7.505958
7.324669
7.155225
6.997336
6.850712
6.715018
6.589895
6.474969
6.369853
6.274133
6.187376
6.10933
6.039694
5.978067
5.923963
5.876832
5.836066
5.80102
5.771025
5.745402
5.72348
5.704623
5.688231
5.673774
5.660778
5.648721
5.637329
5.626481
5.61603
5.605836
5.595782
5.585854
5.575915
5.565854
5.555606
5.545135
5.534426
5.523482
5.512314
5.500947
5.489408
5.47773
5.465947
5.454094
5.442201
5.4303
5.418416
5.406568
5.39477
5.383028
5.371343
5.359713
5.348138
5.336614
5.325135
5.313695
5.302283
5.290886
5.279495
5.268104
5.256721
5.245349
5.233992
5.222653
5.211339
5.200055
5.188807
5.177599
5.166434
5.155313
5.144229
5.133172
5.122146
5.111167
5.100246
5.089397
5.078644
5.068017
5.057547
5.047257
5.037158
5.027251
5.017524
5.007959
4.998529
4.989205
4.979961
4.970774
4.961628
4.952512
4.943423
4.934364
4.925349
4.916395
4.907533
4.898809
4.890297
4.882084
4.874263
4.866915
4.860086
4.853783
4.847981
4.842638
4.837695
4.833085
4.828733
4.824562
4.820499
4.816478
4.812449
4.808373
4.804227
4.800003
4.795701
4.791331
4.786911
4.782461
4.778003
4.773559
4.769152
4.764801
4.760523
4.756335
4.752247
4.74827
4.74441
4.740673
4.737064
4.733585
4.730239
4.727026
4.72395
4.72101
4.718208
4.715545
4.713021
4.710637
4.708392
4.706284
4.704313
4.702475
4.700765
4.699178
4.697708
4.696347
4.695086
4.693918
4.692839
4.691845
4.690939
4.690128
4.689418
4.688823
4.688352
4.688015
4.687819
4.687769
4.687866
4.68811
4.688495
4.689017
4.68967
4.690445
4.691337
4.692336
4.69344
4.694678
4.696015
4.697429
4.69891
4.700452
4.702048
4.703696
4.705391
4.707131
4.708914
4.710736
4.712597
4.714494
4.716427
4.718395
4.720395
4.722427
4.724489
4.726578
4.728694
4.730833
4.732994
4.735174
4.737371
4.739581
4.741803
4.744033
4.746269
4.748509
4.750752
4.752996
4.755242
4.757494
4.75975
4.762006
4.764258
4.76651
4.768767
4.771036
4.773326
4.775645
4.778001
4.780397
4.782835
4.785315
4.787835
4.790391
4.792978
4.79559
4.798219
4.80086
4.803507
4.806161
4.808803
4.811411
4.813994
4.816543
4.819049
4.821503
4.823892
4.826204
4.828424
4.830534
4.832514
4.834341
4.835993
4.837453
4.838712
4.839772
4.840646
4.841349
4.841898
4.842306
4.842587
4.842751
4.842808
4.842766
4.842634
4.842418
4.842126
4.841763
4.841336
4.84085
4.840311
4.839724
4.839094
4.838425
4.837721
4.836986
4.836223
4.835436
4.834627
4.833799
4.832954
4.832096
4.831225
4.830345
4.829457
4.828564
4.827668
4.826773
4.825887
4.825024
4.824199
4.823424
4.822707
4.822048
4.821441
4.820878
4.820345
4.819826
4.819306
4.818768
4.818198
4.817583
4.816912
4.816176
4.815369
4.814487
4.813526
4.812487
4.811371
4.81018
4.808917
4.807587
4.806195
4.804745
4.803244
4.801698
4.800111
4.79849
4.796841
4.795168
4.793478
4.791774
4.790062
4.788347
4.786634
4.784927
4.783231
4.781552
4.779894
4.778264
4.776666
4.775108
4.773594
4.77213
4.770719
4.769363
4.768063
4.76682
4.765632
4.764501
4.763426
4.762407
4.761442
4.76053
4.759666
4.758847
4.758066
4.757317
4.756595
4.755894
4.755206
4.754523
4.75384
4.753147
4.752438
4.751706
4.750945
4.750149
4.749315
4.748439
4.747519
4.746555
4.745546
4.744493
4.743399
4.742265
4.741095
4.739892
4.738661
4.737404
4.736125
4.73483
4.733521
4.732203
4.730878
4.729551
4.728223
4.726899
4.725581
4.72427
4.722969
4.721679
4.720403
4.71914
4.717893
4.716662
4.715447
4.71425
4.713069
4.711906
4.71076
4.709632
4.708519
4.707423
4.706343
4.705277
4.704225
4.703186
4.70216
4.701144
4.700138
4.699139
4.698147
4.697159
4.696172
4.695186
4.694195
4.693198
4.692191
4.691168
4.690125
4.689056
4.687954
4.68681
4.685616
4.684359
4.683026
4.681603
4.680071
4.67841
4.676598
4.674611
4.672425
4.670017
4.667371
4.664489
4.661448
4.658677
80.77889
32.56974
27.16685
26.46322
26.3153
26.39364
26.63507
26.9598
27.34757
27.79788
28.19519
28.38157
28.58045
28.80764
29.07527
29.40048
29.81405
30.34353
30.99851
31.77334
32.66736
33.72519
34.90696
36.19255
37.52345
38.77348
39.88509
40.79812
41.37262
41.65291
41.61351
41.2938
40.64921
39.72507
38.56254
37.24319
35.82763
34.36651
32.88999
31.43734
30.04313
28.71975
27.47557
26.3143
25.23508
24.23661
23.31327
22.4582
21.66501
20.92717
20.23534
19.58258
18.96016
18.36277
17.78641
17.22792
16.68497
16.15592
15.63974
15.13577
14.64357
14.16295
13.69396
13.2368
12.79172
12.35904
11.93914
11.53239
11.13918
10.75994
10.39504
10.04477
9.709302
9.388722
9.083004
8.792004
8.515542
8.253432
8.0051
7.769991
7.547832
7.338284
7.140886
6.955341
6.781405
6.618823
6.467338
6.326698
6.196658
6.076984
5.967442
5.867797
5.777795
5.697132
5.625431
5.562243
5.507042