/*--------------------------------*- C++ -*----------------------------------*\
| =========                 |                                                 |
| \\      /  F ield         | foam-extend: Open Source CFD                    |
|  \\    /   O peration     | Version:     3.1                                |
|   \\  /    A nd           | Web:         http://www.extend-project.de       |
|    \\/     M anipulation  |                                                 |
\*---------------------------------------------------------------------------*/
FoamFile
{
    version     2.0;
    format      ascii;
    class       volScalarField;
    location    "2.5";
    object      pd;
}
// * * * * * * * * * * * * * * * * * * * * * * * * * * * * * * * * * * * * * //

dimensions      [1 -1 -2 0 0 0 0];

internalField   nonuniform List<scalar> 
119952
(
7804.727
7689.285
7651.882
7652.167
7656.925
7629.796
7612.269
7595.887
7580.144
7564.672
7549.362
7534.098
7518.832
7503.533
7488.169
7472.698
7457.049
7441.005
7423.641
7400.935
7412.319
7378.738
7356.353
7373.653
7349.995
7338.688
7324.837
7318.515
7336.296
7248.022
8114.036
8098.303
8085.455
8073.191
8060.666
8048.509
8036.427
8024.608
8012.888
7999.144
7987.028
7976.066
7964.569
7953.14
7941.816
7930.564
7919.282
7908.203
7897.25
7888.634
7874.971
7863.511
7852.561
7841.695
7830.942
7820.285
7809.594
7799.045
7788.728
7776.881
7766.361
7755.696
7744.931
7734.099
7723.217
7712.286
7701.691
7694.649
7695.423
7671.66
7658.486
7650.29
7639.752
7624.906
7609.1
7593.655
7578.314
7563.063
7547.866
7532.681
7517.475
7502.224
7486.9
7471.469
7455.884
7440.074
7424.022
7408.138
7394.309
7379.634
7363.579
7354.595
7346.927
7333.68
7320.972
7308.264
7290.96
7258.509
7241.255
7228.051
7214.312
7200.582
7186.755
7172.935
7159.166
7145.483
7131.911
7118.472
7105.181
7092.051
7079.095
7066.321
7053.74
7041.36
7029.186
7017.226
7005.485
6993.97
6982.684
6971.632
6960.818
6950.245
6939.918
6929.838
6920.007
6910.43
6901.106
6892.038
6883.227
6874.673
6866.376
6858.339
6850.559
6843.038
6835.774
6828.767
6822.015
6815.518
6809.274
6803.281
6797.536
6792.038
6786.781
6781.761
6776.967
6772.39
6768.102
6764.143
6760.384
6756.856
6753.525
6750.423
6747.538
6744.865
6742.4
6740.143
6738.09
6736.239
6734.584
6733.124
6731.855
6730.772
6729.873
6729.152
6728.606
6728.231
6728.024
6727.979
6728.093
6728.362
6728.782
6729.349
6730.058
6730.905
6731.889
6733.008
6734.257
6735.632
6737.128
6738.741
6740.468
6742.303
6744.242
6746.282
6748.417
6750.642
6752.96
6755.368
6757.862
6760.436
6763.088
6765.811
6768.601
6771.45
6774.341
6777.267
6780.514
6783.778
6786.488
6789.819
6793.167
6796.532
6799.928
6803.356
6806.818
6810.312
6813.836
6817.389
6820.968
6824.572
6828.197
6831.842
6835.503
6839.179
6842.867
6846.564
6850.268
6853.976
6857.686
6861.394
6865.097
6868.793
6872.475
6876.141
6879.784
6883.397
6886.968
6890.483
6893.913
6897.21
6900.269
6902.786
6904.574
6909.797
6914.433
6918.807
6923.004
6927.096
6931.107
6935.053
6938.941
6942.777
6946.566
6950.31
6954.013
6957.675
6961.298
6964.883
6968.431
6971.942
6975.417
6978.855
6982.258
6985.626
6988.958
6992.254
6995.516
6998.744
7001.937
7005.095
7008.22
7011.312
7014.372
7017.401
7020.403
7023.378
7026.284
7032.985
7033.64
7035.232
7037.893
7040.455
7043.072
7045.675
7048.269
7050.845
7053.391
7055.906
7058.388
7060.837
7063.254
7065.639
7067.992
7070.312
7072.601
7074.858
7077.084
7079.279
7081.444
7083.578
7085.682
7087.757
7089.802
7091.818
7093.806
7095.766
7097.698
7099.603
7101.481
7103.334
7105.161
7106.963
7108.742
7110.498
7112.233
7113.949
7115.648
7117.336
7119.018
7120.707
7122.424
7124.179
7125.849
7127.184
7128.392
7129.661
7130.934
7132.208
7133.486
7134.76
7135.915
7136.01
7137.738
7139.124
7140.254
7141.367
7142.467
7143.551
7144.62
7145.675
7146.711
7147.729
7148.728
7149.708
7150.669
7151.611
7152.534
7153.438
7154.323
7155.191
7156.039
7156.87
7157.683
7158.477
7159.253
7160.012
7160.753
7161.475
7162.18
7162.868
7163.537
7164.188
7164.822
7165.438
7166.036
7166.616
7167.178
7167.722
7168.247
7168.754
7169.243
7169.713
7170.165
7170.598
7171.011
7171.405
7171.78
7172.135
7172.47
7172.784
7173.078
7173.351
7173.602
7173.832
7174.039
7174.224
7174.385
7174.522
7174.635
7174.723
7174.784
7174.818
7174.824
7174.801
7174.747
7174.66
7174.539
7174.382
7174.186
7173.948
7173.663
7173.328
7172.936
7172.479
7171.948
7171.328
7170.6
7169.737
7168.696
7167.413
7165.768
7163.57
7160.533
7156.878
7156.965
7173.872
8617.172
8603.81
8589.246
8574.977
8560.59
8546.448
8532.411
8518.671
8504.831
8487.392
8475.397
8461.79
8447.813
8433.872
8420.032
8406.241
8392.339
8378.432
8365.649
8352.251
8336.055
8321.947
8308.222
8294.506
8280.989
8267.474
8254.118
8241.056
8227.255
8213.177
8200.35
8187.297
8174.282
8161.338
8148.484
8135.741
8123.219
8110.782
8096.327
8084.297
8072.095
8059.871
8047.726
8035.665
8023.683
8011.796
7999.805
7987.981
7976.394
7964.738
7953.152
7941.714
7930.409
7919.228
7908.172
7897.198
7883.673
7872.865
7861.787
7850.845
7840.079
7829.392
7818.731
7808.083
7797.43
7786.784
7776.133
7765.324
7754.493
7743.709
7732.964
7722.295
7711.839
7701.827
7692.3
7682.493
7669.957
7656.919
7644.943
7632.706
7619.067
7604.428
7589.512
7574.565
7559.588
7544.568
7529.502
7514.385
7499.208
7483.961
7468.639
7453.246
7437.817
7422.457
7407.377
7392.794
7378.614
7364.926
7352.462
7340.537
7327.376
7313.057
7297.492
7279.962
7260.278
7242.66
7227.411
7212.886
7198.62
7184.49
7170.484
7156.603
7142.852
7129.238
7115.775
7102.473
7089.342
7076.391
7063.63
7051.066
7038.706
7026.557
7014.624
7002.913
6991.43
6980.178
6969.161
6958.384
6947.851
6937.563
6927.523
6917.735
6908.2
6898.92
6889.896
6881.13
6872.621
6864.371
6856.379
6848.646
6841.172
6833.954
6826.994
6820.29
6813.841
6807.644
6801.698
6796.002
6790.552
6785.345
6780.38
6775.656
6771.178
6766.957
6763.004
6759.251
6755.738
6752.456
6749.396
6746.551
6743.919
6741.498
6739.284
6737.273
6735.464
6733.851
6732.431
6731.201
6730.158
6729.296
6728.613
6728.105
6727.767
6727.595
6727.586
6727.736
6728.038
6728.492
6729.092
6729.832
6730.706
6731.722
6732.871
6734.148
6735.549
6737.07
6738.708
6740.458
6742.316
6744.28
6746.345
6748.509
6750.749
6753.097
6755.534
6758.054
6760.653
6763.328
6766.074
6768.888
6771.765
6774.705
6777.708
6780.8
6783.577
6786.438
6789.747
6793.065
6796.422
6799.818
6803.251
6806.719
6810.22
6813.752
6817.312
6820.897
6824.507
6828.137
6831.787
6835.453
6839.132
6842.824
6846.524
6850.23
6853.94
6857.651
6861.36
6865.064
6868.759
6872.441
6876.105
6879.747
6883.357
6886.926
6890.443
6893.89
6897.234
6900.451
6903.543
6906.829
6910.851
6915.115
6919.298
6923.407
6927.443
6931.414
6935.329
6939.192
6943.008
6946.78
6950.51
6954.2
6957.851
6961.465
6965.042
6968.582
6972.087
6975.555
6978.988
6982.386
6985.749
6989.077
6992.369
6995.627
6998.851
7002.04
7005.195
7008.317
7011.406
7014.463
7017.491
7020.496
7023.489
7026.513
7030.214
7033.098
7035.622
7038.157
7040.791
7043.444
7046.07
7048.665
7051.23
7053.767
7056.272
7058.746
7061.187
7063.597
7065.974
7068.319
7070.632
7072.914
7075.164
7077.384
7079.572
7081.73
7083.858
7085.957
7088.025
7090.065
7092.076
7094.058
7096.012
7097.939
7099.839
7101.712
7103.56
7105.382
7107.179
7108.953
7110.704
7112.434
7114.144
7115.837
7117.515
7119.181
7120.837
7122.478
7124.084
7125.612
7127.02
7128.351
7129.662
7130.964
7132.258
7133.545
7134.83
7136.09
7137.168
7138.201
7139.316
7140.433
7141.528
7142.611
7143.686
7144.749
7145.797
7146.829
7147.842
7148.837
7149.812
7150.768
7151.706
7152.624
7153.524
7154.405
7155.268
7156.112
7156.939
7157.747
7158.538
7159.311
7160.065
7160.803
7161.522
7162.223
7162.907
7163.573
7164.221
7164.852
7165.464
7166.059
7166.636
7167.195
7167.735
7168.258
7168.762
7169.247
7169.714
7170.163
7170.592
7171.002
7171.393
7171.765
7172.116
7172.447
7172.758
7173.049
7173.318
7173.565
7173.791
7173.994
7174.175
7174.332
7174.465
7174.573
7174.656
7174.712
7174.741
7174.742
7174.713
7174.653
7174.56
7174.433
7174.269
7174.066
7173.82
7173.529
7173.187
7172.788
7172.327
7171.794
7171.177
7170.463
7169.631
7168.658
7167.52
7166.198
7164.757
7163.402
7162.858
7163.418
7165.89
8823.974
8918.002
8995.482
9056.93
9102.997
9134.704
9153.807
9162.294
9161.947
9153.687
9138.46
9122.841
9103.506
9082.68
9060.814
9038.411
9015.825
8993.286
8971.747
8947.884
8926.186
8904.532
8884.352
8864.761
8845.761
8827.311
8809.35
8791.858
8775.38
8757.109
8740.493
8724.339
8708.292
8692.564
8677.024
8661.702
8646.667
8632.388
8616.582
8600.922
8586.72
8572.508
8558.358
8544.239
8530.19
8516.236
8502.424
8488.265
8474.231
8460.39
8446.406
8432.46
8418.608
8404.828
8391.128
8377.595
8360.095
8346.381
8332.742
8319.069
8305.427
8291.869
8278.402
8265.012
8251.655
8238.309
8225.12
8211.891
8198.59
8185.386
8172.329
8159.384
8146.523
8133.742
8121.037
8108.418
8095.726
8083.001
8070.462
8058.108
8045.87
8033.725
8021.672
8009.706
7997.835
7986.046
7974.303
7962.67
7951.164
7939.774
7928.498
7917.333
7906.268
7895.359
7884.651
7873.639
7862.62
7851.798
7841.116
7830.487
7819.872
7809.262
7798.655
7788.025
7777.348
7766.632
7755.91
7745.193
7734.49
7723.831
7713.232
7702.735
7692.257
7681.655
7669.568
7656.879
7644.459
7631.785
7618.309
7604.119
7589.599
7574.945
7560.191
7545.343
7530.413
7515.408
7500.333
7485.194
7470
7454.777
7439.567
7424.447
7409.521
7394.93
7380.674
7366.674
7353.175
7339.874
7325.927
7311.089
7295.415
7278.678
7261.259
7244.646
7229.256
7214.486
7199.987
7185.672
7171.523
7157.529
7143.687
7129.999
7116.471
7103.113
7089.931
7076.935
7064.131
7051.527
7039.129
7026.943
7014.976
7003.232
6991.716
6980.433
6969.386
6958.58
6948.018
6937.702
6927.635
6917.82
6908.259
6898.953
6889.905
6881.113
6872.581
6864.307
6856.292
6848.536
6841.04
6833.802
6826.821
6820.097
6813.628
6807.413
6801.45
6795.738
6790.274
6785.055
6780.082
6775.353
6770.87
6766.633
6762.646
6758.888
6755.359
6752.058
6748.978
6746.116
6743.469
6741.033
6738.806
6736.783
6734.962
6733.338
6731.908
6730.668
6729.614
6728.744
6728.052
6727.535
6727.189
6727.01
6726.994
6727.136
6727.43
6727.877
6728.47
6729.205
6730.058
6731.08
6732.233
6733.511
6734.913
6736.435
6738.073
6739.824
6741.683
6743.649
6745.717
6747.881
6750.158
6752.506
6754.941
6757.461
6760.062
6762.74
6765.492
6768.315
6771.206
6774.164
6777.195
6780.294
6783.565
6786.788
6790.046
6793.362
6796.726
6800.131
6803.573
6807.051
6810.563
6814.105
6817.676
6821.272
6824.892
6828.532
6832.191
6835.866
6839.554
6843.253
6846.961
6850.674
6854.39
6858.107
6861.822
6865.531
6869.231
6872.919
6876.591
6880.241
6883.865
6887.456
6891.008
6894.517
6897.982
6901.421
6904.892
6908.508
6912.362
6916.366
6920.392
6924.389
6928.346
6932.261
6936.134
6939.965
6943.756
6947.506
6951.219
6954.894
6958.532
6962.134
6965.7
6969.231
6972.726
6976.186
6979.61
6983
6986.355
6989.675
6992.96
6996.211
6999.427
7002.609
7005.757
7008.871
7011.951
7014.999
7018.015
7021
7023.95
7026.868
7029.645
7032.295
7034.968
7037.691
7040.417
7043.109
7045.76
7048.374
7050.955
7053.501
7056.014
7058.492
7060.938
7063.351
7065.731
7068.078
7070.394
7072.677
7074.929
7077.15
7079.34
7081.499
7083.629
7085.728
7087.797
7089.838
7091.849
7093.832
7095.787
7097.715
7099.615
7101.489
7103.336
7105.158
7106.956
7108.729
7110.479
7112.207
7113.914
7115.601
7117.269
7118.917
7120.545
7122.146
7123.708
7125.214
7126.644
7128.011
7129.346
7130.665
7131.966
7133.251
7134.51
7135.748
7136.964
7138.101
7139.194
7140.276
7141.354
7142.43
7143.5
7144.561
7145.609
7146.641
7147.656
7148.652
7149.63
7150.589
7151.529
7152.45
7153.352
7154.236
7155.101
7155.948
7156.777
7157.587
7158.38
7159.155
7159.911
7160.65
7161.371
7162.075
7162.76
7163.428
7164.078
7164.71
7165.325
7165.921
7166.5
7167.061
7167.603
7168.127
7168.633
7169.121
7169.59
7170.04
7170.472
7170.884
7171.277
7171.651
7172.004
7172.338
7172.651
7172.943
7173.214
7173.464
7173.692
7173.897
7174.08
7174.239
7174.375
7174.485
7174.57
7174.629
7174.661
7174.664
7174.638
7174.581
7174.492
7174.368
7174.209
7174.011
7173.771
7173.488
7173.156
7172.771
7172.328
7171.82
7171.241
7170.581
7169.834
7168.995
7168.069
7167.085
7166.125
7165.323
7164.922
7165.184
7166.057
7304.555
7393.574
7493.334
7613.707
7740.803
7886.982
8026.89
8167.277
8306.525
8437.202
8562.174
8682.052
8787.356
8878.964
8955.275
9016.12
9061.955
9094.059
9114.177
9124.137
9125.978
9121.7
9112.305
9098.853
9082.269
9063.684
9043.835
9023.256
9002.393
8981.666
8961.792
8933.203
8913.822
8894.956
8875.829
8857.011
8838.734
8820.931
8803.514
8786.416
8769.594
8753.09
8736.694
8720.484
8704.54
8688.854
8673.429
8658.201
8643.154
8628.264
8613.426
8598.581
8583.89
8569.417
8555.113
8540.925
8526.829
8512.804
8498.82
8484.869
8470.894
8456.932
8443.025
8429.178
8415.386
8401.644
8387.936
8374.28
8360.645
8347.023
8333.235
8319.512
8305.955
8292.512
8279.133
8265.799
8252.51
8239.263
8226.031
8212.799
8199.616
8186.516
8173.5
8160.558
8147.684
8134.879
8122.142
8109.451
8096.751
8084.115
8071.624
8059.26
8046.994
8034.816
8022.732
8010.742
7998.837
7987.022
7975.307
7963.696
7952.194
7940.803
7929.526
7918.362
7907.308
7896.354
7885.437
7874.471
7863.574
7852.798
7842.112
7831.475
7820.862
7810.261
7799.66
7789.047
7778.407
7767.739
7757.042
7746.324
7735.592
7724.863
7714.03
7703.189
7692.244
7681.052
7669.14
7656.7
7644.095
7631.198
7617.774
7603.845
7589.594
7575.15
7560.558
7545.841
7531.018
7516.104
7501.112
7486.056
7470.954
7455.834
7440.733
7425.708
7410.823
7396.147
7381.676
7367.37
7353.264
7339.165
7324.67
7309.615
7294.024
7277.905
7261.515
7245.486
7230.104
7215.184
7200.538
7186.099
7171.845
7157.763
7143.845
7130.091
7116.506
7103.097
7089.869
7076.831
7063.988
7051.347
7038.914
7026.697
7014.699
7002.926
6991.383
6980.074
6969.003
6958.173
6947.589
6937.252
6927.166
6917.333
6907.754
6898.431
6889.366
6880.559
6872.011
6863.724
6855.696
6847.929
6840.421
6833.173
6826.184
6819.452
6812.976
6806.755
6800.787
6795.07
6789.604
6784.385
6779.413
6774.686
6770.204
6765.966
6761.971
6758.209
6754.676
6751.371
6748.288
6745.424
6742.775
6740.338
6738.11
6736.087
6734.266
6732.642
6731.213
6729.974
6728.921
6728.052
6727.362
6726.846
6726.502
6726.325
6726.311
6726.456
6726.754
6727.209
6727.812
6728.562
6729.47
6730.48
6731.626
6732.901
6734.302
6735.824
6737.463
6739.216
6741.078
6743.046
6745.116
6747.286
6749.557
6751.915
6754.359
6756.887
6759.496
6762.182
6764.943
6767.775
6770.677
6773.648
6776.688
6779.792
6782.976
6786.185
6789.448
6792.768
6796.135
6799.542
6802.987
6806.467
6809.982
6813.528
6817.102
6820.703
6824.327
6827.972
6831.636
6835.316
6839.01
6842.714
6846.428
6850.147
6853.87
6857.594
6861.315
6865.032
6868.741
6872.44
6876.124
6879.79
6883.435
6887.057
6890.653
6894.226
6897.783
6901.345
6904.948
6908.643
6912.47
6916.392
6920.339
6924.273
6928.182
6932.062
6935.909
6939.721
6943.497
6947.237
6950.942
6954.612
6958.246
6961.846
6965.411
6968.941
6972.436
6975.896
6979.322
6982.713
6986.069
6989.391
6992.678
6995.93
6999.148
7002.332
7005.481
7008.595
7011.676
7014.722
7017.733
7020.708
7023.639
7026.526
7029.341
7032.104
7034.853
7037.587
7040.295
7042.973
7045.619
7048.231
7050.81
7053.357
7055.87
7058.351
7060.799
7063.213
7065.596
7067.945
7070.263
7072.548
7074.802
7077.025
7079.216
7081.377
7083.508
7085.608
7087.678
7089.72
7091.732
7093.716
7095.671
7097.599
7099.5
7101.373
7103.221
7105.042
7106.839
7108.61
7110.358
7112.083
7113.785
7115.464
7117.121
7118.754
7120.362
7121.939
7123.477
7124.969
7126.405
7127.793
7129.147
7130.477
7131.785
7133.07
7134.33
7135.57
7136.78
7137.93
7139.044
7140.146
7141.241
7142.328
7143.403
7144.466
7145.515
7146.547
7147.562
7148.56
7149.538
7150.499
7151.44
7152.363
7153.267
7154.152
7155.019
7155.868
7156.699
7157.511
7158.306
7159.082
7159.84
7160.581
7161.304
7162.009
7162.696
7163.365
7164.017
7164.651
7165.267
7165.865
7166.445
7167.008
7167.552
7168.078
7168.585
7169.075
7169.545
7169.997
7170.431
7170.845
7171.24
7171.615
7171.971
7172.306
7172.621
7172.916
7173.19
7173.442
7173.672
7173.881
7174.066
7174.228
7174.367
7174.48
7174.569
7174.631
7174.667
7174.674
7174.653
7174.601
7174.518
7174.402
7174.25
7174.062
7173.834
7173.564
7173.25
7172.887
7172.472
7172.002
7171.474
7170.884
7170.233
7169.528
7168.786
7168.039
7167.349
7166.799
7166.5
7166.538
7166.806
7133.814
7112.631
7096.5
7083.622
7074.814
7073.578
7081.625
7099.546
7128.337
7169.397
7225.082
7291.694
7375.123
7472.932
7582.217
7703.349
7862.941
8003.248
8147.048
8288.369
8425.318
8556.266
8678.652
8787.185
8879.221
8954.268
9012.923
9056.243
9085.818
9103.602
9111.515
9111.395
9105.152
9094.502
9080.552
9064.356
9046.931
9028.41
9008.913
8988.986
8968.94
8948.867
8928.497
8909.314
8890.789
8872.359
8854.211
8836.489
8819.155
8802.132
8785.382
8768.88
8752.557
8736.382
8720.414
8704.661
8689.108
8673.744
8658.542
8643.489
8628.582
8613.738
8598.924
8584.268
8569.798
8555.468
8541.242
8527.102
8513.032
8499.015
8485.031
8471.06
8457.131
8443.258
8429.432
8415.658
8401.938
8388.258
8374.625
8361.014
8347.354
8333.668
8320.067
8306.58
8293.165
8279.798
8266.472
8253.189
8239.938
8226.713
8213.528
8200.392
8187.311
8174.291
8161.336
8148.443
8135.611
8122.839
8110.121
8097.452
8084.853
8072.349
8059.948
8047.642
8035.431
8023.315
8011.295
7999.37
7987.547
7975.827
7964.212
7952.707
7941.316
7930.039
7918.871
7907.802
7896.815
7885.896
7875.024
7864.215
7853.483
7842.822
7832.21
7821.626
7811.054
7800.479
7789.896
7779.253
7768.579
7757.864
7747.103
7736.287
7725.39
7714.497
7703.47
7692.243
7680.73
7668.749
7656.34
7643.645
7630.645
7617.247
7603.459
7589.368
7575.059
7560.576
7545.947
7531.194
7516.336
7501.391
7486.377
7471.314
7456.228
7441.154
7426.128
7411.193
7396.381
7381.692
7367.097
7352.568
7337.99
7323.169
7308.008
7292.514
7276.744
7260.852
7245.149
7229.823
7214.835
7200.099
7185.57
7171.232
7157.073
7143.087
7129.274
7115.637
7102.181
7088.911
7075.835
7062.958
7050.286
7037.825
7025.582
7013.56
7001.767
6990.205
6978.879
6967.793
6956.951
6946.356
6936.011
6925.918
6916.079
6906.496
6897.171
6888.105
6879.3
6870.755
6862.472
6854.449
6846.688
6839.188
6831.948
6824.967
6818.245
6811.78
6805.57
6799.615
6793.912
6788.46
6783.257
6778.301
6773.591
6769.125
6764.902
6760.918
6757.169
6753.651
6750.359
6747.291
6744.442
6741.81
6739.389
6737.178
6735.172
6733.367
6731.76
6730.348
6729.125
6728.09
6727.237
6726.563
6726.063
6725.734
6725.572
6725.575
6725.737
6726.056
6726.522
6727.137
6727.898
6728.804
6729.839
6731.005
6732.298
6733.715
6735.253
6736.907
6738.675
6740.551
6742.533
6744.617
6746.801
6749.081
6751.451
6753.909
6756.45
6759.072
6761.771
6764.546
6767.392
6770.308
6773.292
6776.342
6779.454
6782.625
6785.848
6789.125
6792.454
6795.827
6799.241
6802.694
6806.183
6809.706
6813.259
6816.842
6820.45
6824.081
6827.734
6831.406
6835.093
6838.794
6842.507
6846.228
6849.956
6853.687
6857.42
6861.151
6864.879
6868.6
6872.312
6876.012
6879.699
6883.37
6887.024
6890.662
6894.288
6897.912
6901.547
6905.218
6908.95
6912.76
6916.628
6920.518
6924.405
6928.278
6932.129
6935.953
6939.748
6943.512
6947.243
6950.941
6954.606
6958.237
6961.834
6965.397
6968.927
6972.422
6975.882
6979.309
6982.7
6986.058
6989.38
6992.668
6995.921
6999.14
7002.324
7005.473
7008.587
7011.667
7014.711
7017.718
7020.689
7023.618
7026.509
7029.352
7032.149
7034.909
7037.639
7040.341
7043.015
7045.659
7048.27
7050.848
7053.395
7055.908
7058.389
7060.837
7063.252
7065.635
7067.985
7070.303
7072.59
7074.844
7077.068
7079.26
7081.421
7083.552
7085.652
7087.723
7089.765
7091.777
7093.761
7095.716
7097.643
7099.543
7101.416
7103.262
7105.082
7106.877
7108.646
7110.391
7112.111
7113.807
7115.478
7117.125
7118.747
7120.34
7121.901
7123.427
7124.911
7126.351
7127.751
7129.116
7130.454
7131.766
7133.054
7134.315
7135.551
7136.754
7137.918
7139.055
7140.176
7141.283
7142.375
7143.454
7144.518
7145.566
7146.597
7147.611
7148.608
7149.586
7150.546
7151.488
7152.411
7153.315
7154.201
7155.069
7155.918
7156.749
7157.562
7158.358
7159.135
7159.894
7160.635
7161.359
7162.065
7162.753
7163.423
7164.076
7164.711
7165.328
7165.927
7166.508
7167.072
7167.617
7168.144
7168.653
7169.144
7169.616
7170.069
7170.504
7170.919
7171.316
7171.692
7172.05
7172.387
7172.704
7173.001
7173.277
7173.531
7173.764
7173.975
7174.163
7174.328
7174.47
7174.588
7174.68
7174.748
7174.788
7174.802
7174.787
7174.743
7174.668
7174.562
7174.422
7174.247
7174.035
7173.785
7173.494
7173.16
7172.781
7172.356
7171.885
7171.368
7170.81
7170.22
7169.616
7169.027
7168.495
7168.07
7167.808
7167.729
7167.775
7405.122
7374.679
7347.936
7319.371
7293.141
7262.906
7236.335
7210.233
7184.712
7160.236
7137.265
7116.147
7097.847
7083.23
7072.81
7069.934
7075.876
7091.197
7117.187
7155.619
7207.839
7274.583
7355.429
7451.891
7561.931
7684.477
7815.878
7956.979
8102.252
8246.957
8387.662
8521.729
8645.835
8756.084
8849.917
8926.621
8986.765
9031.6
9062.81
9082.315
9092.039
9093.788
9089.337
9080.068
9066.959
9051.359
9034.604
9017.033
8998.672
8979.839
8960.807
8941.809
8922.996
8904.679
8886.756
8869.027
8851.522
8834.312
8817.399
8800.742
8784.31
8768.071
8751.992
8736.071
8720.319
8704.73
8689.299
8674.018
8658.88
8643.872
8628.985
8614.182
8599.467
8584.882
8570.428
8556.081
8541.838
8527.687
8513.594
8499.544
8485.532
8471.554
8457.611
8443.722
8429.878
8416.08
8402.33
8388.622
8374.949
8361.294
8347.646
8334.026
8320.468
8306.979
8293.551
8280.173
8266.841
8253.553
8240.305
8227.094
8213.925
8200.8
8187.724
8174.704
8161.744
8148.843
8135.996
8123.191
8110.44
8097.75
8085.13
8072.593
8060.149
8047.8
8035.546
8023.388
8011.33
7999.373
7987.522
7975.779
7964.148
7952.633
7941.233
7929.949
7918.776
7907.705
7896.726
7885.83
7875
7864.234
7853.537
7842.903
7832.313
7821.749
7811.194
7800.633
7790.044
7779.455
7768.816
7758.118
7747.354
7736.511
7725.571
7714.526
7703.323
7691.908
7680.22
7668.173
7655.764
7643.045
7630.019
7616.654
7602.956
7588.973
7574.761
7560.358
7545.793
7531.089
7516.268
7501.349
7486.352
7471.298
7456.212
7441.121
7426.053
7411.034
7396.083
7381.201
7366.365
7351.542
7336.666
7321.64
7306.406
7290.972
7275.388
7259.755
7244.243
7228.971
7213.952
7199.154
7184.556
7170.146
7155.918
7141.869
7128
7114.313
7100.812
7087.502
7074.39
7061.481
7048.781
7036.295
7024.03
7011.989
7000.178
6988.602
6977.264
6966.168
6955.318
6944.717
6934.368
6924.272
6914.433
6904.852
6895.53
6886.469
6877.67
6869.133
6860.858
6852.846
6845.096
6837.608
6830.381
6823.415
6816.708
6810.26
6804.068
6798.131
6792.447
6787.015
6781.833
6776.898
6772.21
6767.766
6763.563
6759.599
6755.87
6752.372
6749.101
6746.054
6743.228
6740.617
6738.22
6736.031
6734.048
6732.267
6730.684
6729.294
6728.096
6727.083
6726.254
6725.603
6725.126
6724.821
6724.683
6724.706
6724.89
6725.23
6725.721
6726.359
6727.141
6728.065
6729.122
6730.31
6731.625
6733.063
6734.622
6736.297
6738.084
6739.981
6741.983
6744.087
6746.289
6748.587
6750.976
6753.451
6756.011
6758.652
6761.37
6764.163
6767.028
6769.962
6772.963
6776.029
6779.156
6782.342
6785.582
6788.874
6792.215
6795.6
6799.027
6802.493
6805.995
6809.53
6813.097
6816.692
6820.312
6823.956
6827.622
6831.305
6835.005
6838.718
6842.443
6846.177
6849.917
6853.662
6857.408
6861.153
6864.896
6868.634
6872.365
6876.086
6879.797
6883.496
6887.184
6890.861
6894.533
6898.206
6901.89
6905.601
6909.351
6913.148
6916.983
6920.835
6924.689
6928.533
6932.361
6936.167
6939.947
6943.699
6947.421
6951.112
6954.772
6958.399
6961.994
6965.555
6969.083
6972.577
6976.037
6979.463
6982.854
6986.211
6989.534
6992.822
6996.075
6999.293
7002.476
7005.625
7008.738
7011.815
7014.857
7017.862
7020.83
7023.758
7026.648
7029.494
7032.297
7035.063
7037.796
7040.501
7043.176
7045.819
7048.429
7051.007
7053.552
7056.065
7058.544
7060.991
7063.405
7065.787
7068.136
7070.453
7072.738
7074.992
7077.214
7079.405
7081.565
7083.695
7085.794
7087.864
7089.904
7091.914
7093.896
7095.85
7097.775
7099.673
7101.544
7103.387
7105.204
7106.995
7108.76
7110.5
7112.215
7113.904
7115.568
7117.206
7118.816
7120.398
7121.949
7123.466
7124.946
7126.387
7127.792
7129.164
7130.507
7131.823
7133.112
7134.375
7135.61
7136.817
7137.993
7139.144
7140.274
7141.387
7142.483
7143.563
7144.627
7145.675
7146.705
7147.719
7148.714
7149.691
7150.65
7151.59
7152.513
7153.416
7154.302
7155.169
7156.018
7156.849
7157.662
7158.457
7159.235
7159.994
7160.735
7161.459
7162.165
7162.854
7163.524
7164.177
7164.813
7165.43
7166.03
7166.612
7167.176
7167.722
7168.25
7168.76
7169.252
7169.725
7170.18
7170.616
7171.033
7171.43
7171.809
7172.168
7172.507
7172.826
7173.125
7173.403
7173.66
7173.896
7174.109
7174.301
7174.47
7174.616
7174.738
7174.835
7174.908
7174.955
7174.975
7174.968
7174.933
7174.868
7174.773
7174.647
7174.488
7174.294
7174.066
7173.801
7173.499
7173.158
7172.779
7172.364
7171.915
7171.438
7170.944
7170.448
7169.972
7169.545
7169.2
7168.963
7168.845
7168.813
7566.733
7543.555
7506.853
7468.404
7432.769
7401.893
7373.033
7345.702
7319.616
7292.456
7262.254
7235.584
7209.383
7183.755
7158.906
7135.218
7113.126
7093.123
7076.048
7063.649
7057.249
7059.142
7069.837
7091.223
7125.215
7171.59
7233.004
7310.786
7404.751
7514.598
7638.445
7773.353
7915.409
8062.355
8209.308
8352.056
8487.212
8611.518
8721.782
8815.819
8892.978
8953.846
8999.759
9032.447
9053.794
9065.664
9069.782
9067.735
9060.956
9050.483
9037.173
9021.704
9004.912
8987.612
8970.021
8952.248
8934.478
8916.805
8899.339
8882.118
8865.09
8848.242
8831.602
8815.177
8798.948
8782.889
8766.977
8751.198
8735.546
8720.021
8704.62
8689.342
8674.187
8659.155
8644.237
8629.428
8614.709
8600.091
8585.583
8571.153
8556.789
8542.496
8528.276
8514.124
8500.027
8485.977
8471.969
8458
8444.078
8430.197
8416.355
8402.553
8388.792
8375.068
8361.373
8347.708
8334.077
8320.494
8306.967
8293.499
8280.083
8266.717
8253.398
8240.123
8226.892
8213.703
8200.56
8187.462
8174.417
8161.425
8148.486
8135.602
8122.786
8110.031
8097.33
8084.696
8072.141
8059.674
8047.299
8035.018
8022.836
8010.757
7998.785
7986.924
7975.178
7963.549
7952.041
7940.655
7929.388
7918.236
7907.193
7896.251
7885.399
7874.625
7863.922
7853.287
7842.711
7832.176
7821.667
7811.167
7800.659
7790.126
7779.562
7768.943
7758.257
7747.489
7736.621
7725.634
7714.504
7703.197
7691.673
7679.886
7667.79
7655.37
7642.641
7629.611
7616.271
7602.628
7588.714
7574.566
7560.217
7545.693
7531.019
7516.215
7501.303
7486.302
7471.235
7456.123
7440.989
7425.855
7410.74
7395.656
7380.604
7365.568
7350.526
7335.438
7320.254
7304.946
7289.523
7274.025
7258.523
7243.113
7227.876
7212.836
7197.99
7183.332
7168.858
7154.566
7140.456
7126.53
7112.79
7099.241
7085.889
7072.738
7059.794
7047.062
7034.548
7022.258
7010.195
6998.365
6986.772
6975.42
6964.313
6953.453
6942.845
6932.49
6922.392
6912.551
6902.971
6893.651
6884.594
6875.8
6867.27
6859.004
6851.001
6843.263
6835.787
6828.574
6821.623
6814.933
6808.501
6802.327
6796.41
6790.747
6785.336
6780.175
6775.264
6770.598
6766.177
6761.997
6758.056
6754.349
6750.874
6747.627
6744.604
6741.802
6739.216
6736.844
6734.681
6732.724
6730.969
6729.412
6728.049
6726.876
6725.891
6725.087
6724.463
6724.013
6723.733
6723.621
6723.672
6723.881
6724.247
6724.764
6725.427
6726.235
6727.181
6728.263
6729.475
6730.814
6732.277
6733.86
6735.559
6737.37
6739.29
6741.315
6743.442
6745.667
6747.986
6750.396
6752.894
6755.476
6758.138
6760.878
6763.692
6766.578
6769.533
6772.555
6775.64
6778.786
6781.989
6785.247
6788.555
6791.912
6795.313
6798.756
6802.238
6805.756
6809.307
6812.89
6816.5
6820.137
6823.796
6827.477
6831.176
6834.891
6838.619
6842.36
6846.109
6849.865
6853.626
6857.388
6861.152
6864.913
6868.67
6872.422
6876.167
6879.903
6883.631
6887.35
6891.063
6894.773
6898.485
6902.207
6905.946
6909.711
6913.504
6917.322
6921.152
6924.983
6928.806
6932.616
6936.406
6940.173
6943.915
6947.63
6951.315
6954.97
6958.593
6962.185
6965.744
6969.271
6972.764
6976.223
6979.649
6983.04
6986.397
6989.719
6993.007
6996.26
6999.478
7002.66
7005.808
7008.92
7011.996
7015.036
7018.039
7021.005
7023.932
7026.821
7029.669
7032.477
7035.249
7037.988
7040.695
7043.37
7046.012
7048.622
7051.199
7053.743
7056.254
7058.732
7061.178
7063.591
7065.971
7068.318
7070.634
7072.918
7075.17
7077.39
7079.579
7081.738
7083.866
7085.963
7088.031
7090.069
7092.078
7094.057
7096.008
7097.931
7099.826
7101.694
7103.534
7105.348
7107.135
7108.895
7110.63
7112.339
7114.021
7115.678
7117.307
7118.909
7120.482
7122.024
7123.534
7125.01
7126.451
7127.858
7129.233
7130.579
7131.898
7133.189
7134.453
7135.691
7136.901
7138.085
7139.244
7140.381
7141.498
7142.598
7143.68
7144.745
7145.793
7146.823
7147.835
7148.829
7149.806
7150.764
7151.703
7152.625
7153.528
7154.413
7155.28
7156.128
7156.959
7157.772
7158.567
7159.344
7160.103
7160.844
7161.568
7162.275
7162.963
7163.634
7164.288
7164.923
7165.542
7166.142
7166.725
7167.29
7167.837
7168.366
7168.877
7169.369
7169.844
7170.3
7170.737
7171.156
7171.555
7171.936
7172.296
7172.638
7172.959
7173.261
7173.541
7173.801
7174.04
7174.258
7174.453
7174.626
7174.777
7174.904
7175.007
7175.086
7175.139
7175.167
7175.169
7175.144
7175.09
7175.008
7174.896
7174.754
7174.58
7174.375
7174.137
7173.866
7173.563
7173.229
7172.866
7172.478
7172.072
7171.657
7171.246
7170.857
7170.51
7170.225
7170.018
7169.895
7169.839
7543.461
7518.405
7474.666
7444.824
7416.126
7389.49
7364.156
7339.338
7314.415
7289.238
7263.884
7237.793
7211.691
7185.709
7160.162
7135.053
7110.653
7087.819
7067.673
7051.659
7041.968
7039.965
7047.071
7065.003
7094.726
7139.266
7198.689
7275.175
7368.08
7477.282
7601.125
7736.471
7879.727
8027.367
8174.74
8317.296
8451.241
8573.506
8681.609
8773.944
8850.132
8910.844
8957.416
8991.528
9014.963
9029.44
9036.56
9037.688
9034.155
9026.917
9016.433
9003.204
8988.334
8972.91
8957.158
8941.091
8924.843
8908.528
8892.239
8876.039
8859.932
8843.915
8828.004
8812.212
8796.535
8780.961
8765.47
8750.046
8734.709
8719.458
8704.292
8689.211
8674.226
8659.338
8644.546
8629.853
8615.208
8600.593
8586.043
8571.568
8557.161
8542.813
8528.533
8514.339
8500.221
8486.159
8472.142
8458.166
8444.229
8430.328
8416.461
8402.629
8388.833
8375.069
8361.337
8347.637
8333.974
8320.355