/*--------------------------------*- C++ -*----------------------------------*\
| =========                 |                                                 |
| \\      /  F ield         | foam-extend: Open Source CFD                    |
|  \\    /   O peration     | Version:     3.1                                |
|   \\  /    A nd           | Web:         http://www.extend-project.de       |
|    \\/     M anipulation  |                                                 |
\*---------------------------------------------------------------------------*/
FoamFile
{
    version     2.0;
    format      ascii;
    class       surfaceScalarField;
    location    "2.5";
    object      phi;
}
// * * * * * * * * * * * * * * * * * * * * * * * * * * * * * * * * * * * * * //

dimensions      [0 3 -1 0 0 0 0];

internalField   nonuniform List<scalar> 
275122
(
-0.0001065077
0.0001077054
-3.923051e-08
-1.158474e-06
-9.578858e-05
9.133723e-05
3.534655e-07
4.097889e-06
-9.523239e-05
9.796017e-05
-8.173689e-08
-2.64604e-06
-0.0001069812
0.0001100036
-8.060193e-08
-2.941771e-06
-0.0001175506
0.0001184716
-7.61802e-08
-8.447913e-07
-0.0001184877
0.0001182846
-5.922351e-08
2.623065e-07
-0.0001172932
0.0001168774
-4.58465e-08
4.616471e-07
-0.0001154752
0.0001149693
-3.599914e-08
5.418458e-07
-0.0001133776
0.0001128218
-2.793967e-08
5.837624e-07
-0.0001110927
0.000110496
-2.133256e-08
6.180398e-07
-0.0001086626
0.0001080373
-1.548346e-08
6.408708e-07
-0.0001061237
0.000105471
-1.063306e-08
6.633495e-07
-0.0001034784
0.0001028034
-6.83789e-09
6.818195e-07
-0.0001007472
0.0001000549
-4.05481e-09
6.963372e-07
-9.795027e-05
9.72458e-05
-1.712902e-09
7.061798e-07
-9.510807e-05
9.439738e-05
3.242685e-10
7.103719e-07
-9.224268e-05
9.153298e-05
1.929218e-09
7.077794e-07
-8.93863e-05
8.869236e-05
2.032278e-09
6.919018e-07
-8.666858e-05
8.606339e-05
-1.017457e-08
6.153701e-07
-8.472126e-05
8.476675e-05
-9.785558e-08
5.236764e-08
-9.343945e-05
9.681279e-05
-2.805719e-07
-3.092769e-06
-9.76529e-05
9.769686e-05
-8.547061e-08
4.150766e-08
-9.792793e-05
9.842432e-05
-4.800985e-08
-4.483805e-07
-0.0001085193
0.0001124155
7.887588e-08
-3.975069e-06
-0.0001129255
0.0001128857
1.540121e-07
-1.142356e-07
-0.0001134074
0.0001133836
4.950147e-08
-2.567469e-08
-0.0001128788
0.0001125405
3.039675e-08
3.078867e-07
-0.0001111401
0.0001101205
3.208367e-08
9.875693e-07
-0.0001036436
9.709482e-05
3.532337e-08
6.513446e-06
-0.0001072762
0.0001101889
2.841397e-09
-2.915507e-06
-8.19327e-05
8.585676e-05
-2.268781e-08
-3.901377e-06
-9.718694e-05
0.0001010086
1.894189e-09
-3.823513e-06
-0.0001126321
0.0001165605
2.032608e-09
-3.930357e-06
-0.0001285456
0.0001326112
2.063035e-09
-4.0677e-06
-0.0001448557
0.000148988
1.901919e-09
-4.134276e-06
-0.0001614723
0.0001656368
1.599157e-09
-4.166131e-06
-0.0001782487
0.0001824655
1.622287e-09
-4.218375e-06
-0.0001951078
0.0001993142
1.545421e-09
-4.207908e-06
-0.0002119703
0.0002161837
1.715898e-09
-4.215056e-06
-0.0002288526
0.0002334014
6.798507e-08
-4.616801e-06
3.703995e-06
-0.0001573652
0.0001577199
-1.323814e-10
-4.058522e-06
3.739251e-06
-0.0001587985
0.0001591
-1.810967e-10
-4.040539e-06
3.858134e-06
-0.0001597874
0.0001599559
-3.235675e-10
-4.026374e-06
3.949746e-06
-0.0001602872
0.0001603506
-2.767149e-10
-4.012853e-06
4.00175e-06
-0.0001604281
0.0001604279
-2.12439e-10
-4.001416e-06
4.041877e-06
-0.0001603568
0.0001603124
-1.892313e-10
-3.997245e-06
4.065947e-06
-0.0001601427
0.0001600656
-1.672938e-10
-3.988619e-06
4.080719e-06
-0.0001598409
0.0001597437
-1.262948e-10
-3.983462e-06
4.184354e-06
-0.0001594095
0.0001591713
4.923586e-11
-3.946187e-06
3.562212e-06
-0.0006403014
0.0006405308
-6.048639e-11
-1.484883e-05
3.754108e-06
3.556434e-06
3.746742e-06
3.804748e-06
-0.0006403373
0.0006398788
-5.213069e-11
-1.4933e-05
3.895709e-06
3.80087e-06
3.890198e-06
3.841945e-06
-0.0006392251
0.0006384139
-5.068017e-11
-1.4656e-05
3.895572e-06
3.83786e-06
3.891813e-06
3.864576e-06
-0.0006375401
0.0006365969
-5.328117e-11
-1.453646e-05
3.879065e-06
3.861019e-06
3.875127e-06
3.850608e-06
-0.0006356826
0.0006346533
-4.160014e-11
-1.440454e-05
3.869206e-06
3.847457e-06
3.866578e-06
3.845852e-06
-0.0006336203
0.0006325114
-4.374411e-11
-1.427562e-05
3.848529e-06
3.843694e-06
3.846436e-06
3.819969e-06
-0.0006313963
0.0006302397
-4.775581e-11
-1.411746e-05
3.81893e-06
3.818169e-06
3.81709e-06
3.796768e-06
-0.0006290835
0.0006278527
-9.606927e-11
-1.394537e-05
3.790294e-06
3.797888e-06
3.791303e-06
3.772386e-06
-0.0006265935
0.0006251827
-7.59109e-11
-1.367835e-05
3.773583e-06
3.771149e-06
3.772191e-06
3.509579e-06
-0.0006236053
0.0006230395
-3.614868e-11
-1.363096e-05
3.588487e-06
3.509262e-06
3.589404e-06
3.781121e-06
-0.000621911
0.0006202111
-3.05247e-11
-1.319425e-05
3.670755e-06
3.773195e-06
3.669195e-06
3.60072e-06
-0.0006188564
0.0006174996
-2.591892e-11
-1.29904e-05
3.571148e-06
3.602804e-06
3.572504e-06
3.553336e-06
-0.0006161407
0.0006147681
-2.082527e-11
-1.28074e-05
3.535655e-06
3.554207e-06
3.536801e-06
3.504752e-06
-0.0006134049
0.0006120236
-2.368938e-11
-1.261473e-05
3.494951e-06
3.503734e-06
3.492643e-06
3.470322e-06
-0.0006106213
0.0006091762
-2.613647e-11
-1.24135e-05
3.463163e-06
3.466508e-06
3.458571e-06
3.448434e-06
-0.0006077116
0.0006061966
-9.245208e-12
-1.225352e-05
3.444932e-06
3.439432e-06
3.435764e-06
3.482952e-06
-0.0006046661
0.0006030569
-1.612672e-11
-1.22468e-05
3.492425e-06
3.436416e-06
3.444263e-06
3.751328e-06
-0.0006013448
0.0005991658
-1.640039e-11
-1.259002e-05
3.849757e-06
3.555643e-06
3.612265e-06
4.569561e-06
-0.0005960759
0.0005907274
-1.645575e-11
-1.300782e-05
5.134402e-06
4.303101e-06
4.349282e-06
3.221027e-06
-0.0005836523
0.0005875742
-1.676938e-11
-7.142984e-06
4.155521e-06
-0.00058967
0.000588923
-2.101434e-11
-3.408462e-06
7.855946e-06
-0.0005867791
0.0005843577
-2.062805e-11
-5.434563e-06
6.457914e-06
-0.0005820117
0.0005796259
-2.177013e-11
-4.072127e-06
1.810886e-06
-0.0005775691
0.0005766489
-2.375805e-11
-8.906519e-07
-1.23658e-06
-0.0005758086
0.0005751059
-2.556894e-11
1.93936e-06
-2.532177e-06
-0.0005743838
0.0005735526
-2.791458e-11
3.363373e-06
-3.216051e-06
-0.0005726589
0.0005716725
-2.917289e-11
4.2025e-06
-3.649338e-06
-0.0005706304
0.0005695034
-2.936228e-11
4.776315e-06
-3.940943e-06
-0.0005683348
0.000567103
-2.89777e-11
5.172802e-06
-4.157291e-06
-0.0005658411
0.0005645333
-2.836308e-11
5.46516e-06
-4.337034e-06
-0.0005632072
0.0005618489
-2.746636e-11
5.695277e-06
-4.486886e-06
-0.0005604795
0.000559088
-2.640762e-11
5.878439e-06
-4.607849e-06
-0.0005576905
0.0005562789
-2.522449e-11
6.019444e-06
-4.694999e-06
-0.0005548656
0.000553446
-2.390763e-11
6.114645e-06
-4.73636e-06
-0.0005520292
0.0005506157
-2.246645e-11
6.149925e-06
-4.70449e-06
-0.000549211
0.0005478234
-2.106847e-11
6.092123e-06
-4.524901e-06
-0.0005464505
0.0005451108
-1.963788e-11
5.864588e-06
-3.954872e-06
-0.000543764
0.0005424085
-1.788403e-11
5.310313e-06
-2.564785e-06
-0.0005409412
0.0005392644
-1.644005e-11
4.241662e-06
-8.030195e-07
-0.0005365086
0.0005343284
-1.528741e-11
2.983163e-06
-1.652666e-06
-0.0005329688
0.0005316559
-1.434369e-11
2.965533e-06
1.508207e-06
-0.0005299907
0.0005273934
-1.392033e-11
1.089089e-06
5.607475e-06
-0.0005221887
0.0005176977
-1.43373e-11
-1.11639e-06
3.251447e-07
-0.0005143392
0.0005118031
-1.659685e-11
2.211005e-06
-3.101539e-06
-0.0005095702
0.0005073507
-1.710793e-11
5.321107e-06
-5.839561e-06
-0.0005051289
0.0005028521
-1.456132e-11
8.116411e-06
-1.086446e-05
-0.0005008072
0.0004993175
-1.319683e-11
1.235418e-05
-2.33838e-05
-0.0004989805
0.0005035701
-1.089157e-11
1.879425e-05
-4.591397e-06
-0.0005094831
0.000508733
-8.015117e-12
1.710201e-05
-3.561398e-06
-4.609734e-06
-3.589355e-06
-2.325894e-06
-0.0005065744
0.0005044791
-4.778288e-12
1.120863e-05
-2.190259e-06
-2.366104e-06
-2.231113e-06
-1.692429e-06
-0.0005021558
0.0004998122
-2.512092e-12
9.026422e-06
-1.61735e-06
-1.725968e-06
-1.647099e-06
-1.42853e-06
-0.0004975354
0.0004953904
-2.536292e-12
7.855035e-06
-1.404952e-06
-1.451186e-06
-1.425439e-06
-1.319891e-06
-0.0004933266
0.0004913524
-4.038039e-12
7.255623e-06
-1.306488e-06
-1.334917e-06
-1.320082e-06
-1.259336e-06
-0.0004894279
0.0004875711
-5.254348e-12
6.897718e-06
-1.252073e-06
-1.268827e-06
-1.260622e-06
-1.224012e-06
-0.0004857511
0.0004839822
-5.637782e-12
6.666729e-06
-1.219336e-06
-1.229866e-06
-1.224623e-06
-1.199955e-06
-0.0004822408
0.0004805403
-5.466818e-12
6.500252e-06
-1.196538e-06
-1.203498e-06
-1.199719e-06
-1.181431e-06
-0.0004788619
0.0004772179
-4.957913e-12
6.368095e-06
-1.17864e-06
-1.183501e-06
-1.180471e-06
-1.165518e-06
-0.0004755925
0.000473997
-4.078613e-12
6.254523e-06
-1.162932e-06
-1.166624e-06
-1.1639e-06
-1.150518e-06
-0.0004724176
0.0004708648
-3.054837e-12
6.150784e-06
-1.147941e-06
-1.151089e-06
-1.148443e-06
-1.135861e-06
-0.0004693265
0.0004678126
-2.280984e-12
6.052609e-06
-1.13331e-06
-1.136105e-06
-1.133495e-06
-1.121293e-06
-0.0004663121
0.0004648348
-1.405721e-12
5.957389e-06
-1.11874e-06
-1.121293e-06
-1.118705e-06
-1.106627e-06
-0.0004633699
0.000461927
-5.960372e-13
5.863868e-06
-1.104031e-06
-1.106479e-06
-1.103865e-06
-1.091806e-06
-0.0004604959
0.000459086
-3.249924e-13
5.771493e-06
-1.089186e-06
-1.091605e-06
-1.088985e-06
-1.076932e-06
-0.0004576874
0.0004563094
-1.988615e-13
5.679907e-06
-1.074264e-06
-1.076703e-06
-1.074028e-06
-1.061936e-06
-0.0004549423
0.0004535954
-3.822223e-14
5.588606e-06
-1.059191e-06
-1.061665e-06
-1.058919e-06
-1.046804e-06
-0.0004522592
0.000450943
3.086115e-13
5.497334e-06
-1.044016e-06
-1.046518e-06
-1.043732e-06
-1.031549e-06
-0.0004496373
0.0004483514
6.048629e-13
5.405888e-06
-1.028766e-06
-1.031255e-06
-1.028479e-06
-1.016189e-06
-0.0004470761
0.0004458206
6.186288e-13
5.31407e-06
-1.013378e-06
-1.015896e-06
-1.013106e-06
-1.000734e-06
-0.0004445756
0.0004433505
6.640219e-13
5.221807e-06
-9.978727e-07
-1.00046e-06
-9.976196e-07
-9.851583e-07
-0.0004421358
0.0004409412
2.355247e-13
5.129128e-06
-9.823469e-07
-9.848991e-07
-9.821085e-07
-9.69547e-07
-0.0004397571
0.0004385932
-1.617587e-12
5.036099e-06
-9.667272e-07
-9.693047e-07
-9.665342e-07
-9.539454e-07
-0.0004374398
0.0004363066
-3.544953e-12
4.942953e-06
-9.510756e-07
-9.538364e-07
-9.508923e-07
-9.384253e-07
-0.0004351841
0.0004340819
-3.163366e-12
4.849671e-06
-9.355225e-07
-9.382273e-07
-9.353011e-07
-9.229086e-07
0.0004319196
-1.857696e-12
4.756473e-06
-9.200673e-07
-9.226852e-07
-9.198535e-07
-0.0004329906
-9.07437e-07
-0.0004308595
0.0004298199
-6.58177e-13
4.663433e-06
-9.046294e-07
-9.072832e-07
-9.044983e-07
-8.920836e-07
-0.0004287913
0.0004277831
2.926703e-13
4.570577e-06
-8.892358e-07
-8.919614e-07
-8.891099e-07
-8.767964e-07
-0.0004267858
0.0004258091
1.365791e-12
4.478008e-06
-8.740256e-07
-8.766217e-07
-8.738538e-07
-8.61691e-07
-0.0004248433
0.0004238983
1.809233e-12
4.386035e-06
-8.589575e-07
-8.615188e-07
-8.587985e-07
-8.467636e-07
-0.0004229642
0.0004220508
2.123552e-12
4.294655e-06
-8.440281e-07
-8.466033e-07
-8.438774e-07
-8.320094e-07
-0.0004211485
0.0004202669
2.013793e-12
4.203952e-06
-8.292856e-07
-8.318559e-07
-8.291416e-07
-8.174312e-07
-0.0004193963
0.0004185464
2.025044e-12
4.114015e-06
-8.147501e-07
-8.172873e-07
-8.146159e-07
-8.030528e-07
-0.0004177075
0.0004168893
2.084015e-12
4.024941e-06
-8.004289e-07
-8.02921e-07
-8.003077e-07
-7.888999e-07
-0.0004160822
0.0004152956
2.106353e-12
3.936839e-06
-7.863375e-07
-7.887813e-07
-7.862276e-07
-7.749932e-07
-0.00041452
0.000413765
2.000543e-12
3.849819e-06
-7.724942e-07
-7.748832e-07
-7.723941e-07
-7.613503e-07
-0.000413021
0.0004122973
1.972394e-12
3.763996e-06
-7.589153e-07
-7.612541e-07
-7.588273e-07
-7.479886e-07
-0.0004115846
0.0004108922
1.723347e-12
3.67947e-06
-7.456202e-07
-7.478986e-07
-7.455378e-07
-7.349228e-07
-0.0004102107
0.0004095493
1.583008e-12
3.596345e-06
-7.326204e-07
-7.348443e-07
-7.325507e-07
-7.221723e-07
-0.0004088987
0.0004082681
1.372292e-12
3.514695e-06
-7.199386e-07
-7.220975e-07
-7.198685e-07
-7.097543e-07
-0.0004076483
0.0004070482
1.191287e-12
3.434569e-06
-7.07593e-07
-7.09667e-07
-7.075056e-07
-6.976573e-07
-0.0004064589
0.0004058892
1.214394e-12
3.355922e-06
-6.955433e-07
-6.975649e-07
-6.954676e-07
-6.85776e-07
-0.0004053302
0.0004047907
1.062168e-12
3.278552e-06
-6.837488e-07
-6.857724e-07
-6.83765e-07
-6.741295e-07
-0.0004042618
0.0004037523
1.131872e-12
3.202068e-06
-6.721311e-07
-6.741583e-07
-6.721508e-07
-6.626063e-07
-0.0004032534
0.000402774
9.060889e-13
3.1259e-06
-6.606748e-07
-6.625809e-07
-6.606505e-07
-6.510891e-07
-0.0004023055
0.0004018569
9.197899e-13
3.049078e-06
-6.491566e-07
-6.510737e-07
-6.49147e-07
-6.390896e-07
-0.0004014196
0.0004010032
8.236311e-13
2.968728e-06
-6.370744e-07
-6.390888e-07
-6.370717e-07
-6.252981e-07
-0.0004005992
0.000400218
1.512708e-12
2.877516e-06
-6.228195e-07
-6.25331e-07
-6.228467e-07
-6.025068e-07
-0.000399849
0.0003994904
8.498747e-13
2.755694e-06
-5.959547e-07
-6.026472e-07
-5.960157e-07
-5.419215e-07
-0.0003990881
0.0003986561
4.13269e-13
2.542504e-06
-5.12381e-07
-5.426799e-07
-5.135404e-07
-5.368632e-07
-0.0003983643
0.0003979557
-7.094232e-13
2.583629e-06
-5.525415e-07
-5.351601e-07
-5.504425e-07
-5.22945e-07
-0.0003975552
0.0003971931
-5.974887e-13
2.448393e-06
-5.214895e-07
-5.214961e-07
-5.203586e-07
-5.21668e-07
-0.0003968583
0.0003965621
-1.280304e-12
2.376868e-06
-5.195945e-07
-5.206578e-07
-5.187587e-07
-5.201966e-07
-0.0003962856
0.0003960373
-8.326018e-13
2.326839e-06
-5.196682e-07
-5.195464e-07
-5.191198e-07
-5.198563e-07
-0.0003958068
0.0003956005
-8.566121e-13
2.284322e-06
-5.195656e-07
-5.194599e-07
-5.192105e-07
-5.190114e-07
-0.0003954094
0.0003952398
-8.021595e-13
2.243982e-06
-5.184466e-07
-5.187191e-07
-5.18179e-07
-5.166382e-07
-0.0003950825
0.000394944
-8.053958e-13
2.203034e-06
-5.158593e-07
-5.164228e-07
-5.156556e-07
-5.13047e-07
-0.0003948162
0.0003947055
-1.286003e-12
2.160765e-06
-5.121676e-07
-5.128647e-07
-5.120002e-07
-5.087416e-07
-0.0003946046
0.0003945198
-1.745711e-12
2.117565e-06
-5.078394e-07
-5.085744e-07
-5.076686e-07
-5.040007e-07
-0.0003944443
0.0003943842
-2.313716e-12
2.07389e-06
-5.03042e-07
-5.038539e-07
-5.029147e-07
-4.989696e-07
-0.000394333
0.0003942968
-2.286445e-12
2.030187e-06
-4.980805e-07
-4.98946e-07
-4.980641e-07
-4.938289e-07
-0.0003942692
0.0003942559
-2.729666e-12
1.986728e-06
-4.929e-07
-4.938503e-07
-4.929175e-07
-4.887355e-07
-0.0003942509
0.0003942601
-3.540798e-12
1.943974e-06
-4.879003e-07
-4.886873e-07
-4.878621e-07
-4.837611e-07
-0.0003942773
0.0003943084
-3.246029e-12
1.902383e-06
-4.83047e-07
-4.837171e-07
-4.829909e-07
-4.787541e-07
-0.0003943471
0.0003943992
-3.512477e-12
1.861932e-06
-4.78339e-07
-4.787119e-07
-4.782893e-07
-4.744748e-07
-0.0003944594
0.0003945325
-4.306094e-12
1.823039e-06
-4.736347e-07
-4.7444e-07
-4.736075e-07
-4.700878e-07
-0.000394613
0.0003947062
-4.248613e-12
1.785495e-06
-4.692915e-07
-4.700544e-07
-4.692573e-07
-4.659402e-07
-0.0003948066
0.0003949193
-4.452149e-12
1.749414e-06
-4.651761e-07
-4.659044e-07
-4.651426e-07
-4.620547e-07
-0.0003950392
0.0003951708
-4.803599e-12
1.714978e-06
-4.61264e-07
-4.620306e-07
-4.612801e-07
-4.584596e-07
-0.0003953094
0.0003954595
-4.760915e-12
1.68211e-06
-4.577103e-07
-4.584035e-07
-4.576713e-07
-4.550506e-07
-0.0003956162
0.0003957841
-5.262461e-12
1.65074e-06
-4.543243e-07
-4.550136e-07
-4.542897e-07
-4.518632e-07
-0.0003959584
0.0003961435
-5.843463e-12
1.620861e-06
-4.511386e-07
-4.518333e-07
-4.511183e-07
-4.489264e-07
-0.000396335
0.0003965368
-5.43423e-12
1.592494e-06
-4.482366e-07
-4.488992e-07
-4.482103e-07
-4.462348e-07
-0.0003967448
0.0003969627
-5.795108e-12
1.565633e-06
-4.455846e-07
-4.461965e-07
-4.455456e-07
-4.438232e-07
-0.0003971866
0.0003974201
-5.580744e-12
1.540369e-06
-4.43211e-07
-4.437561e-07
-4.43129e-07
-4.41648e-07
0.0003979082
-6.028883e-12
1.516563e-06
-0.0003976595
-4.410088e-07
-4.415704e-07
-4.4097e-07
-4.395957e-07
-0.0003981623
0.0003984258
-6.300931e-12
1.493881e-06
-4.390564e-07
-4.396188e-07
-4.39092e-07
-4.377802e-07
-0.0003986947
0.0003989723
-7.047964e-12
1.472164e-06
-4.372189e-07
-4.376918e-07
-4.371084e-07
-4.358895e-07
-0.0003992549
0.000399546
-7.012372e-12
1.451797e-06
-4.355455e-07
-4.359747e-07
-4.355655e-07
-4.34488e-07
-0.0003998422
0.0004001465
-6.421687e-12
1.433041e-06
-4.341882e-07
-4.344393e-07
-4.341432e-07
-4.333172e-07
-0.0004004557
0.0004007726
-6.465146e-12
1.41577e-06
-4.330439e-07
-4.3327e-07
-4.329977e-07
-4.322645e-07
-0.000401094
0.0004014228
-6.524782e-12
1.399869e-06
-4.32106e-07
-4.322246e-07
-4.320757e-07
-4.314504e-07
-0.0004017562
0.0004020963
-6.985183e-12
1.385393e-06
-4.313499e-07
-4.314097e-07
-4.313082e-07
-4.309594e-07
-0.0004024411
0.0004027923
-6.856774e-12
1.372271e-06
-4.308387e-07
-4.309115e-07
-4.307878e-07
-4.306578e-07
-0.0004031477
0.0004035095
-7.503183e-12
1.360416e-06
-4.304361e-07
-4.306231e-07
-4.304179e-07
-4.306967e-07
-0.0004038754
0.0004042473
-7.635245e-12
1.349794e-06
-4.302383e-07
-4.306116e-07
-4.301687e-07
-4.308569e-07
-0.0004046231
0.0004050046
-7.153906e-12
1.340344e-06
-4.301377e-07
-4.307803e-07
-4.300626e-07
-4.310829e-07
-0.0004053898
0.0004057803
-7.894827e-12
1.332153e-06
-4.30297e-07
-4.310284e-07
-4.302538e-07
-4.31392e-07
-0.0004061745
0.0004065737
-7.578003e-12
1.324342e-06
-4.304539e-07
-4.313717e-07
-4.303971e-07
-4.317542e-07
-0.0004069768
0.0004073845
-5.773629e-12
1.317409e-06
-4.308954e-07
-4.316584e-07
-4.308184e-07
-4.322304e-07
-0.0004077957
0.0004082113
-6.59468e-12
1.311589e-06
-4.314325e-07
-4.321411e-07
-4.313315e-07
-4.328153e-07
-0.0004086304
0.0004090536
-5.977587e-12
1.30663e-06
-4.321783e-07
-4.32716e-07
-4.320942e-07
-4.335268e-07
-0.0004094804
0.0004099113
-6.647826e-12
1.302109e-06
-4.329922e-07
-4.335045e-07
-4.329892e-07
-4.341553e-07
-0.0004103456
0.0004107839
-6.702972e-12
1.297438e-06
-4.337135e-07
-4.341562e-07
-4.336948e-07
-4.348149e-07
-0.0004112258
0.000411672
-6.510922e-12
1.292242e-06
-4.344682e-07
-4.347336e-07
-4.343886e-07
-4.352805e-07
-0.0004121221
0.0004125774
-6.017294e-12
1.285453e-06
-4.351579e-07
-4.352014e-07
-4.350895e-07
-4.350659e-07
-0.0004130372
0.0004135043
-5.947432e-12
1.273922e-06
-4.354921e-07
-4.349823e-07
-4.354261e-07
-4.331682e-07
-0.0004139785
0.0004144668
-5.555204e-12
1.247671e-06
-4.348943e-07
-4.330677e-07
-4.348488e-07
-4.21927e-07
-0.0004149671
0.0004154708
-5.121665e-12
1.179976e-06
-4.201137e-07
-4.216576e-07
-4.198946e-07
-2.56498e-07
-0.0004158086
0.0004157054
-4.162155e-12
1.055935e-06
-2.204219e-07
-2.553241e-07
-2.204977e-07
-1.417126e-07
-0.0001035338
0.0001033729
5.113471e-11
3.025411e-07
-3.019794e-07
-0.0001032029
0.0001032129
-7.560519e-11
2.920982e-07
-3.598335e-07
-0.0001033281
0.0001033827
-4.812456e-11
3.052754e-07
-3.878317e-07
-0.0001035662
0.0001036308
-2.190818e-11
3.23269e-07
-4.040743e-07
-0.0001038286
0.000103895
-5.638131e-12
3.376638e-07
-4.147019e-07
-0.0001040948
0.0001041613
2.537987e-12
3.481999e-07
-4.223711e-07
-0.0001043606
0.0001044267
6.912296e-12
3.561938e-07
-4.283724e-07
-0.0001046248
0.0001046906
1.177181e-11
3.625928e-07
-4.333427e-07
-0.0001048875
0.0001049529
1.793223e-11
3.679255e-07
-4.37642e-07
-0.000105149
0.000105214
2.164576e-11
3.725502e-07
-4.415335e-07
-0.0001054091
0.000105474
1.638224e-11
3.766129e-07
-4.449269e-07
-0.0001056685
0.0001057331
1.422875e-11
3.80252e-07
-4.481867e-07
-0.000105927
0.0001059915
1.940357e-11
3.836939e-07
-4.513445e-07
-0.0001061848
0.0001062492
2.23009e-11
3.869917e-07
-4.543713e-07
-0.000106442
0.0001065062
2.456555e-11
3.901605e-07
-4.572976e-07
-0.0001066987
0.0001067627
2.438759e-11
3.932241e-07
-4.60163e-07
-0.0001069548
0.0001070187
2.594937e-11
3.962078e-07
-4.629408e-07
-0.0001072105
0.0001072743
2.7615e-11
3.990932e-07
-4.656856e-07
-0.0001074657
0.0001075294
2.71188e-11
4.019345e-07
-4.683765e-07
-0.0001077206
0.0001077842
2.822123e-11
4.047056e-07
-4.709911e-07
-0.0001079751
0.0001080387
2.941309e-11
4.074017e-07
-4.735987e-07
-0.0001082295
0.000108293
2.906291e-11
4.100237e-07
-4.76112e-07
-0.0001084837
0.0001085473
2.972448e-11
4.125277e-07
-4.7857e-07
-0.0001087381
0.0001088017
3.13106e-11
4.149281e-07
-4.809361e-07
-0.0001089928
0.0001090565
3.519101e-11
4.171524e-07
-4.831846e-07
-0.0001092483
0.0001093123
3.51274e-11
4.191782e-07
-4.853298e-07
-0.0001095049
0.0001095694
2.753071e-11
4.207913e-07
-4.870522e-07
-0.0001097638
0.0001098289
2.478412e-11
4.218747e-07
-4.884908e-07
-0.0001100257
0.000110092
2.858215e-11
4.222483e-07
-4.894509e-07
-0.0001102927
0.0001103607
3.064645e-11
4.214944e-07
-4.894543e-07
-0.0001105677
0.0001106384
3.220062e-11
4.187396e-07
-4.877609e-07
-0.0001108558
0.0001109311
3.113052e-11
4.124146e-07
-4.82597e-07
-0.0001111664
0.0001112501
3.315069e-11
3.988523e-07
-4.681731e-07
-0.0001115192
0.0001116201
3.497073e-11
3.671991e-07
-4.184552e-07
-0.0001119684
0.0001121179
2.869014e-11
2.689508e-07
1.868446e-07
-0.0001126171
0.0001126024
3.251682e-11
-1.722414e-07
5.165008e-07
-0.0001125423
0.0001125503
2.117058e-11
-5.245367e-07
5.598875e-07
-0.0001125923
0.0001126177
1.806126e-11
-5.853676e-07
5.791807e-07
-0.0001127175
0.0001127572
1.494886e-11
-6.188942e-07
5.920991e-07
-0.0001128872
0.000112934
1.136316e-11
-6.389669e-07
6.006923e-07
-0.0001130826
0.0001131346
8.118516e-12
-6.527337e-07
6.070425e-07
-0.0001132969
0.0001133529
7.946417e-12
-6.630608e-07
6.122542e-07
-0.0001135254
0.0001135844
8.848352e-12
-6.712381e-07
6.166938e-07
-0.0001137647
0.0001138259
8.853387e-12
-6.779053e-07
6.206477e-07
-0.000114012
0.0001140749
7.909164e-12
-6.835316e-07
6.241649e-07
-0.0001142654
0.0001143295
7.80322e-12
-6.883415e-07
6.275115e-07
-0.0001145233
0.0001145883
7.415359e-12
-6.925773e-07
6.306545e-07
-0.0001147845
0.0001148502
7.75911e-12
-6.963919e-07
6.336874e-07
-0.0001150481
0.0001151143
9.156075e-12
-6.99895e-07
6.365881e-07
-0.0001153133
0.0001153798
9.119734e-12
-7.031069e-07
6.39368e-07
-0.0001155796
0.0001156463
9.647668e-12
-7.060781e-07
6.420784e-07
-0.0001158464
0.0001159132
1.044676e-11
-7.088622e-07
6.446822e-07
-0.0001161135
0.0001161803
1.027042e-11
-7.114577e-07
6.472145e-07
-0.0001163804
0.0001164471
9.779888e-12
-7.139127e-07
6.496867e-07
-0.0001166469
0.0001167134
1.065328e-11
-7.16244e-07
6.520831e-07
-0.0001169127
0.000116979
1.097048e-11
-7.184538e-07
6.544218e-07
-0.0001171777
0.0001172438
1.02724e-11
-7.205585e-07
6.566987e-07
-0.0001174416
0.0001175075
1.096412e-11
-7.225662e-07
6.589151e-07
-0.0001177044
0.00011777
1.24046e-11
-7.244875e-07
6.611124e-07
-0.000117966
0.0001180312
1.103172e-11
-7.263352e-07
6.632084e-07
-0.000118226
0.0001182909
1.06008e-11
-7.280912e-07
6.651763e-07
-0.0001184845
0.000118549
1.094061e-11
-7.297153e-07
6.671346e-07
-0.0001187413
0.0001188054
1.083116e-11
-7.312518e-07
6.689636e-07
-0.0001189964
0.0001190601
1.068368e-11
-7.326571e-07
6.707067e-07
-0.0001192495
0.0001193127
1.205738e-11
-7.339499e-07
6.723235e-07
-0.0001195004
0.0001195631
1.188019e-11
-7.350852e-07
6.739901e-07
-0.0001197489
0.0001198111
1.382564e-11
-7.36228e-07
6.766284e-07
-0.0001199942
0.0001200554
2.137924e-11
-7.378305e-07
6.76514e-07
-0.0001202353
0.0001202982
4.224048e-11
-7.39514e-07
7.191164e-07
-0.0001204846
0.0001205257
1.514003e-10
-7.604308e-07
6.34987e-07
-0.0001201495
0.0004862817
-7.823297e-11
-2.9577e-06
4.133808e-08
6.558868e-07
3.194999e-08
-0.0001201523
-0.0001221924
-0.0001221938
3.941163e-07
-0.0004882557
0.0004891874
-7.337603e-12
-2.809175e-06
5.550119e-07
3.825841e-07
5.457132e-07
5.128011e-07
-0.0004899837
0.0004906956
-1.213877e-11
-2.833625e-06
5.551041e-07
5.052991e-07
5.485305e-07
5.62872e-07
-0.0004913625
0.0004919409
-6.408394e-12
-2.863543e-06
5.85088e-07
5.57278e-07
5.799461e-07
5.94855e-07
-0.0004924871
0.0004930011
-2.964155e-12
-2.90242e-06
6.037941e-07
5.902411e-07
5.99537e-07
6.141457e-07
-0.0004935058
0.0004939998
2.559649e-12
-2.952551e-06
6.186258e-07
6.105634e-07
6.15205e-07
6.376729e-07
-0.0004944742
0.0004949253
5.463126e-12
-3.00196e-06
6.405298e-07
6.347634e-07
6.378372e-07
6.561921e-07
-0.0004953634
0.0004957885
3.657073e-12
-3.048317e-06
6.574515e-07
6.541447e-07
6.555024e-07
6.701108e-07
-0.0004962049
0.000496613
7.018792e-13
-3.087597e-06
6.712187e-07
6.685206e-07
6.69687e-07
6.809197e-07
-0.0004970155
0.0004974137
-1.586637e-12
-3.121269e-06
6.818827e-07
6.796594e-07
6.806637e-07
6.890954e-07
-0.0004978088
0.0004982017
-2.873318e-12
-3.14928e-06
6.89981e-07
6.881489e-07
6.890815e-07
6.95326e-07
-0.0004985934
0.0004989842
-1.288989e-12
-3.172314e-06
6.961576e-07
6.945758e-07
6.954322e-07
7.001134e-07
-0.0004993746
0.000499765
7.900464e-13
-3.191132e-06
7.008569e-07
6.995172e-07
7.002872e-07
7.038319e-07
-0.0005001555
0.0005005462
6.822464e-13
-3.20648e-06
7.045163e-07
7.033503e-07
7.04044e-07
7.068125e-07
-0.0005009372
0.0005013286
-1.184803e-12
-3.21908e-06
7.074334e-07
7.064107e-07
7.070504e-07
7.092723e-07
-0.0005017203
0.0005021122
-2.964876e-12
-3.229493e-06
7.098502e-07
7.089536e-07
7.095433e-07
7.113552e-07
-0.0005025042
0.0005028964
-3.727627e-12
-3.238142e-06
7.118988e-07
7.110873e-07
7.116332e-07
7.131987e-07
-0.0005032886
0.0005036808
-3.525435e-12
-3.245462e-06
7.137076e-07
7.129543e-07
7.134694e-07
7.14854e-07
-0.0005040728
0.0005044645
-2.617932e-12
-3.251734e-06
7.153407e-07
7.146485e-07
7.151448e-07
7.163761e-07
-0.000504856
0.0005052471
-1.62175e-12
-3.257186e-06
7.168445e-07
7.162053e-07
7.166752e-07
7.17827e-07
-0.0005056378
0.000506028
-9.370419e-13
-3.262031e-06
7.182789e-07
7.176578e-07
7.181076e-07
7.192077e-07
-0.0005064176
0.0005068066
-5.462672e-13
-3.266402e-06
7.196477e-07
7.190582e-07
7.195043e-07
7.205498e-07
-0.000507195
0.0005075826
-3.212678e-13
-3.270402e-06
7.209736e-07
7.204314e-07
7.208622e-07
7.218638e-07
-0.0005079695
0.0005083555
-3.556583e-13
-3.274106e-06
7.222807e-07
7.217639e-07
7.222019e-07
7.231677e-07
-0.0005087407
0.000509125
-5.659048e-13
-3.277493e-06
7.235602e-07
7.230544e-07
7.234339e-07
7.243897e-07
-0.0005095085
0.000509891
-4.469045e-13
-3.280595e-06
7.248073e-07
7.242508e-07
7.246491e-07
7.255964e-07
-0.0005102727
0.0005106533
-2.42426e-13
-3.283467e-06
7.259717e-07
7.254617e-07
7.258465e-07
7.267731e-07
-0.000511033
0.0005114115
-4.511957e-13
-3.286175e-06
7.271562e-07
7.266626e-07
7.270493e-07
7.279592e-07
-0.0005117891
0.0005121654
-2.364824e-13
-3.288722e-06
7.28327e-07
7.278588e-07
7.28231e-07
7.290989e-07
-0.0005125408
0.0005129149
-2.405898e-13
-3.290988e-06
7.294601e-07
7.289997e-07
7.293554e-07
7.302091e-07
-0.0005132879
0.0005136596
-2.454328e-13
-3.293015e-06
7.305593e-07
7.301019e-07
7.304557e-07
7.312924e-07
-0.0005140302
0.0005143994
-2.182045e-13
-3.294809e-06
7.316339e-07
7.311986e-07
7.315424e-07
7.323147e-07
-0.0005147674
0.0005151339
1.123375e-13
-3.296229e-06
7.326466e-07
7.322244e-07
7.325531e-07
7.332957e-07
-0.0005154992
0.0005158628
-2.929848e-13
-3.297279e-06
7.336151e-07
7.33196e-07
7.335152e-07
7.342071e-07
-0.0005162252
0.0005165858
-3.017237e-15
-3.29786e-06
7.345162e-07
7.341131e-07
7.344261e-07
7.350266e-07
-0.0005169451
0.0005173024
2.391154e-13
-3.297798e-06
7.353214e-07
7.349381e-07
7.352316e-07
7.357235e-07
-0.0005176582
0.0005180118
4.84481e-13
-3.296868e-06
7.360013e-07
7.356233e-07
7.358963e-07
7.362609e-07
-0.0005183638
0.0005187133
2.974746e-13
-3.29481e-06
7.365192e-07
7.361637e-07
7.364257e-07
7.365599e-07
-0.0005190609
0.0005194054
2.171388e-13
-3.291059e-06
7.367862e-07
7.364778e-07
7.367092e-07
7.364945e-07
-0.0005197478
0.0005200863
4.530333e-13
-3.284702e-06
7.366763e-07
7.364092e-07
7.36609e-07
7.358172e-07
-0.0005204221
0.0005207529
5.166401e-13
-3.274032e-06
7.359148e-07
7.35719e-07
7.358044e-07
7.339913e-07
-0.0005210802
0.0005214004
5.361607e-13
-3.255919e-06
7.339949e-07
7.338794e-07
7.338636e-07
7.299772e-07
-0.0005217154
0.0005220196
3.085185e-13
-3.223468e-06
7.297345e-07
7.298567e-07
7.296189e-07
7.201264e-07
-0.0005223156
0.0005225967
4.737886e-13
-3.159019e-06
7.189527e-07
7.200265e-07
7.188567e-07
6.902782e-07
-0.0005228714
0.0005231492
8.629619e-13
-3.023367e-06
6.826115e-07
6.901944e-07
6.825234e-07
6.099341e-07
-0.0005234637
0.0005238426
1.257847e-12
-2.766015e-06
5.836884e-07
6.098436e-07
5.835666e-07
5.280317e-07
-0.0005242774
0.000524713
1.367954e-12
-2.542335e-06
5.25432e-07
5.279215e-07
5.253317e-07
5.181823e-07
-0.0005251295
0.0005255299
1.149072e-12
-2.474063e-06
5.187508e-07
5.180895e-07
5.186524e-07
5.107888e-07
-0.0005259243
0.0005263099
8.907046e-13
-2.427805e-06
5.104156e-07
5.106898e-07
5.10317e-07
5.057054e-07
-0.0005266899
0.0005270619
5.239715e-13
-2.394795e-06
5.058074e-07
5.056125e-07
5.057165e-07
5.025614e-07
-0.0005274294
0.0005277896
-4.398476e-13
-2.370828e-06
5.028223e-07
5.02479e-07
5.027384e-07
4.993383e-07
-0.0005281461
0.0005284946
-2.085432e-12
-2.347857e-06
5.003806e-07
4.992846e-07
5.003266e-07
4.946922e-07
-0.0005288413
0.0005291771
8.328219e-12
-2.318916e-06
4.967805e-07
4.947663e-07
4.968543e-07
4.461271e-07
-0.000529622
0.0005302165
6.201659e-12
-2.42051e-06
4.661976e-07
4.465147e-07
4.671659e-07
4.530715e-07
-0.0005307121
0.0005307495
3.116426e-12
-1.771948e-06
4.140812e-07
4.532175e-07
4.141918e-07
4.063307e-07
-0.000530889
0.0005313027
1.519307e-12
-1.950828e-06
3.607787e-07
4.078632e-07
3.621526e-07
3.846345e-07
-0.0005317466
0.0005322022
8.934355e-13
-1.974609e-06
3.739553e-07
3.856205e-07
3.747752e-07
3.928201e-07
-0.0005326456
0.0005330812
5.014455e-13
-2.005575e-06
3.915956e-07
3.934037e-07
3.920861e-07
4.078708e-07
-0.0005334954
0.0005338921
5.497874e-13
-2.03349e-06
4.102283e-07
4.081919e-07
4.105054e-07
4.231576e-07
-0.0005342696
0.0005346326
5.366119e-13
-2.061671e-06
4.25989e-07
4.23328e-07
4.261434e-07
4.365989e-07
-0.0005349822
0.0005353174
4.540735e-13
-2.08755e-06
4.395316e-07
4.366636e-07
4.39592e-07
4.4969e-07
-0.0005356389
0.0005359494
5.365018e-13
-2.11431e-06
4.521671e-07
4.49733e-07
4.522096e-07
4.602949e-07
-0.0005362504
0.0005365429
4.893837e-13
-2.137814e-06
4.62364e-07
4.603177e-07
4.623884e-07
4.687571e-07
-0.0005368284
0.0005371078
3.699113e-13
-2.157481e-06
4.702824e-07
4.687725e-07
4.703017e-07
4.750865e-07
-0.0005373826
0.0005376533
4.371448e-13
-2.173192e-06