/*--------------------------------*- C++ -*----------------------------------*\
| =========                 |                                                 |
| \\      /  F ield         | foam-extend: Open Source CFD                    |
|  \\    /   O peration     | Version:     3.1                                |
|   \\  /    A nd           | Web:         http://www.extend-project.de       |
|    \\/     M anipulation  |                                                 |
\*---------------------------------------------------------------------------*/
FoamFile
{
    version     2.0;
    format      ascii;
    class       regIOobject;
    location    "18/uniform";
    object      profilingInfo;
}
// * * * * * * * * * * * * * * * * * * * * * * * * * * * * * * * * * * * * * //

profilingInfo
(

    {
        id              10;
        parentId        8;
        description     "Foam::Time::writeObject - outputTime";
        calls           9;
        totalTime       0.459196;
        childTime       0;
        onStack         1;
    }

    {
        id              8;
        parentId        1;
        description     "Foam::Time::writeObject";
        calls           29329;
        totalTime       0.53917;
        childTime       0.459196;
        onStack         1;
    }

    {
        id              1;
        description     "application::main";
        calls           1;
        totalTime       74.1226;
        childTime       18.4824;
        onStack         1;
    }

    {
        id              3;
        parentId        2;
        description     "functionObjectList::read";
        calls           1;
        totalTime       6e-06;
        childTime       0;
        onStack         0;
    }

    {
        id              9;
        parentId        1;
        description     "functionObjects_.execute()";
        calls           29328;
        totalTime       0.106823;
        childTime       0;
        onStack         0;
    }

    {
        id              2;
        parentId        1;
        description     "functionObjects_.start()";
        calls           1;
        totalTime       2.5e-05;
        childTime       6e-06;
        onStack         0;
    }

    {
        id              4;
        parentId        1;
        description     "fvMatrix::solve_H";
        calls           29329;
        totalTime       8.2821;
        childTime       6.35495;
        onStack         0;
    }

    {
        id              6;
        parentId        1;
        description     "fvMatrix::solve_HU";
        calls           29329;
        totalTime       9.55431;
        childTime       6.27999;
        onStack         0;
    }

    {
        id              5;
        parentId        4;
        description     "lduMatrix::solver_H";
        calls           29329;
        totalTime       6.35495;
        childTime       0;
        onStack         0;
    }

    {
        id              7;
        parentId        6;
        description     "lduMatrix::solver_HUx";
        calls           29329;
        totalTime       6.27999;
        childTime       0;
        onStack         0;
    }
);


// ************************************************************************* //
