/*--------------------------------*- C++ -*----------------------------------*\
| =========                 |                                                 |
| \\      /  F ield         | foam-extend: Open Source CFD                    |
|  \\    /   O peration     | Version:     3.1                                |
|   \\  /    A nd           | Web:         http://www.extend-project.de       |
|    \\/     M anipulation  |                                                 |
\*---------------------------------------------------------------------------*/
FoamFile
{
    version     2.0;
    format      ascii;
    class       volScalarField;
    location    "17";
    object      nut;
}
// * * * * * * * * * * * * * * * * * * * * * * * * * * * * * * * * * * * * * //

dimensions      [0 2 -1 0 0 0 0];

internalField   nonuniform List<scalar> 
119952
(
4.862714e-05
3.214844e-05
3.225121e-05
3.49351e-05
3.622485e-05
3.346369e-05
3.115428e-05
2.905045e-05
2.724725e-05
2.599548e-05
2.543135e-05
2.538452e-05
2.552069e-05
2.55646e-05
2.543294e-05
2.513075e-05
2.464871e-05
2.400403e-05
2.330127e-05
2.265589e-05
2.885425e-05
2.746345e-05
2.711727e-05
3.524932e-05
3.448399e-05
3.441096e-05
3.438061e-05
3.458097e-05
3.481282e-05
2.060645e-05
2.929251e-05
3.170782e-05
3.56892e-05
3.973853e-05
4.395116e-05
4.830334e-05
5.276166e-05
5.713626e-05
6.127704e-05
6.859636e-05
0.0002784574
0.0003096414
0.0003446025
0.0003856152
0.0004343275
0.0004900165
0.0005518292
0.0006191844
0.0006926272
0.001016214
0.001136171
0.001277643
0.001441673
0.001630997
0.001843593
0.002072626
0.0023055
0.002525859
0.002715785
0.002864037
0.002972423
0.003048185
0.003101528
0.00313781
0.003152917
0.003138167
0.003090251
0.003018886
0.002873923
0.002671001
0.002546111
0.002430245
0.002290758
0.002108915
0.001911035
0.001714736
0.001542514
0.001412032
0.001329119
0.001289866
0.001284314
0.001303628
0.001341051
0.001391062
0.001449136
0.001510901
0.001575009
0.001649992
0.001741757
0.001850313
0.001975858
0.002124949
0.002285276
0.002436206
0.002572795
0.002682939
0.002681736
0.00251391
0.002490273
0.002481154
0.002460116
0.002416133
0.002353444
0.00228103
0.002204185
0.002128135
0.002054361
0.001981036
0.001905395
0.001826074
0.001744312
0.001663412
0.001586945
0.001517381
0.001455804
0.001402264
0.001356222
0.001316867
0.0012832
0.001254124
0.001228542
0.001205469
0.001184073
0.001163748
0.001144172
0.001125333
0.001107493
0.0010911
0.001076668
0.001064666
0.001055446
0.001049215
0.001046044
0.001045874
0.001048549
0.001053857
0.00106156
0.001071389
0.001083002
0.001095975
0.001109756
0.001123671
0.001136987
0.001148938
0.001158794
0.001166216
0.001172196
0.001174544
0.001172577
0.001167585
0.001159851
0.001149392
0.001136677
0.001121986
0.001105619
0.001087942
0.00106918
0.001049473
0.001028877
0.001007386
0.0009849672
0.000961605
0.0009373154
0.0009121763
0.0008863506
0.0008601457
0.0008340296
0.0008085825
0.0007844097
0.0007620664
0.0007420006
0.000724511
0.0007097251
0.0006975978
0.0006879349
0.0006804339
0.0006747413
0.0006705125
0.0006674503
0.0006652848
0.0006637506
0.0006626194
0.0006616696
0.000660551
0.000659112
0.0006570499
0.0006539879
0.0006496062
0.0006436651
0.0006360161
0.0006265156
0.0006150666
0.0006016388
0.0005862923
0.0005691451
0.000550565
0.0005321343
0.000430314
0.0004168647
0.0003986146
0.0003835635
0.0003658367
0.0003518483
0.0003408063
0.0003315471
0.0003233899
0.0003160005
0.000309239
0.0003030692
0.0002974585
0.0002923733
0.0002877718
0.0002835956
0.0002797936
0.0002762925
0.0002730128
0.0002698782
0.0002667717
0.0002635676
0.0002602455
0.0002569023
0.0002535694
0.0002502115
0.0002468288
0.0002434346
0.0002400397
0.0002366814
0.0002332943
0.0002298679
0.0002263637
0.000222867
0.0002196232
0.0002191298
0.0002242318
0.0002292153
0.0002326819
0.0002362288
0.0002396668
0.0002429155
0.0002459268
0.0002487236
0.0002513781
0.0002539802
0.0002566505
0.0002594249
0.0002623543
0.000265459
0.0002687384
0.0002721894
0.0002757859
0.0002795976
0.0002832594
0.0002873271
0.0002917137
0.0002963222
0.0003011599
0.0003062529
0.0003109315
0.0003143431
0.0003177425
0.0003211527
0.0003245836
0.0003280345
0.0003314931
0.00033494
0.0003383512
0.0003416752
0.000434512
0.000441273
0.0004473717
0.0004529156
0.0004578542
0.0004622089
0.0004662417
0.000470128
0.0004738554
0.0004774123
0.0004807685
0.000483897
0.0004867306
0.00048927
0.0004915422
0.0004935963
0.0004954935
0.000497297
0.0004990475
0.0005007505
0.0005023821
0.0005038917
0.0005051915
0.0005061626
0.000506677
0.0005066591
0.0005062531
0.0005053625
0.0005030933
0.000497557
0.0004883466
0.000474254
0.0004566547
0.0004471756
0.000445277
0.0004443215
0.0004436503
0.0004440575
0.0004459798
0.0004491688
0.0004521575
0.0004559605
0.0004601432
0.0004646391
0.0004699565
0.000477954
0.0004913511
0.0005057946
0.0005198865
0.0005303521
0.0005393423
0.0005468068
0.0005531251
0.0005586416
0.0005640015
0.0005673698
0.0005707093
0.0005738925
0.0005768901
0.0005798628
0.0005830063
0.000586313
0.0005897542
0.0005935402
0.0005979023
0.0006030338
0.0006090878
0.0006161799
0.0006244099
0.0006338595
0.0006445731
0.0006565336
0.0006696609
0.0006838231
0.0006989016
0.0007148172
0.000731448
0.0007485961
0.0007660093
0.0007834121
0.000800523
0.0008170687
0.0008327929
0.0008474608
0.0008608625
0.0008728172
0.0008831765
0.0008918282
0.0008986986
0.0009037543
0.0009070033
0.0009084949
0.0009083193
0.000906604
0.0009035115
0.0008992329
0.0008939814
0.0008879864
0.000881489
0.0008747174
0.0008678809
0.0008611789
0.0008548129
0.0008490085
0.0008439433
0.0008396611
0.0008361949
0.0008336011
0.0008319181
0.0008311906
0.0008314488
0.0008326118
0.0008346286
0.0008375467
0.0008413149
0.0008457924
0.0008508833
0.0008565282
0.0008627211
0.0008695173
0.0008769266
0.0008848935
0.000893317
0.0009020565
0.0009109961
0.0009200736
0.0009292601
0.0009385479
0.0009479491
0.0009574928
0.0009671734
0.000976993
0.0009870304
0.0009974799
0.001008585
0.001020922
0.001035737
0.001057522
0.0009613382
4.365678e-05
4.786574e-05
5.458341e-05
6.268184e-05
7.141392e-05
8.02455e-05
8.884208e-05
9.696269e-05
0.0001054375
0.0004047241
0.0004912134
0.0005782908
0.0006629534
0.0007433595
0.0008173615
0.0008833651
0.0009420022
0.0009966696
0.001422811
0.001484397
0.00156199
0.001655492
0.001765874
0.001893711
0.002038305
0.002197578
0.00236717
0.002541204
0.002712268
0.002876483
0.003030207
0.003167602
0.00328269
0.003371795
0.003435449
0.003477332
0.003503081
0.003498724
0.003471994
0.003453348
0.003443439
0.003438758
0.003434756
0.003427035
0.003411366
0.003383145
0.00333846
0.003274781
0.003195355
0.003109251
0.003029111
0.002970077
0.002947671
0.002974657
0.003058726
0.003202923
0.004151971
0.004439486
0.004776964
0.005159732
0.005577585
0.006012638
0.006440295
0.006832331
0.007163002
0.007416182
0.007589998
0.007696149
0.007751761
0.007771011
0.00775753
0.007706014
0.007614145
0.007490604
0.007343667
0.00714635
0.006919256
0.006688387
0.006440186
0.006164705
0.005857426
0.005524131
0.00517665
0.0048336
0.004516404
0.004242645
0.004022676
0.003860115
0.003753436
0.003697404
0.003685147
0.003710429
0.003768735
0.003856397
0.003969969
0.004122037
0.004314138
0.004542458
0.004797336
0.005064024
0.005331039
0.005587951
0.005824545
0.006023781
0.006182931
0.006296779
0.006361011
0.006374878
0.006343344
0.006275727
0.006186381
0.006084222
0.005973807
0.00585543
0.005727262
0.005587831
0.005437769
0.005280014
0.005118631
0.004957652
0.004800564
0.004650155
0.004508496
0.004377024
0.004256517
0.00414707
0.004048153
0.003958783
0.003877686
0.003803498
0.003734996
0.003671277
0.003611875
0.003556803
0.003506521
0.003461837
0.003423778
0.003393456
0.003371945
0.003360182
0.003358886
0.003368508
0.003389185
0.003420695
0.003462425
0.003513342
0.003572017
0.003636615
0.003704919
0.003774472
0.003842708
0.003907325
0.0039665
0.004018909
0.004062961
0.004097161
0.004121283
0.004135243
0.004139094
0.004133477
0.004119188
0.004097103
0.004068118
0.004032988
0.003992343
0.003946646
0.003896258
0.003841493
0.003782637
0.003719968
0.00365377
0.003584433
0.003512523
0.003438811
0.003364262
0.003290021
0.003217378
0.003147676
0.003082215
0.003022152
0.002968423
0.002921727
0.00288254
0.002851159
0.002827717
0.002812166
0.002804266
0.002803572
0.002809443
0.002820967
0.002836872
0.002855586
0.002875403
0.00289466
0.002911786
0.00292533
0.002933968
0.002936532
0.002932009
0.002919566
0.002898558
0.002868683
0.002830257
0.002788754
0.002621216
0.002418373
0.002270481
0.002155801
0.002062722
0.001984773
0.001917806
0.00185925
0.00180751
0.001761603
0.001720999
0.001685417
0.001654715
0.001628861
0.001607928
0.00159208
0.001581528
0.001576446
0.001576897
0.001582769
0.001593746
0.00160934
0.001628932
0.001651743
0.001676979
0.001703732
0.001731264
0.001758992
0.001786412
0.001812952
0.001837848
0.001860299
0.001879774
0.00189625
0.001910532
0.001924264
0.00193669
0.001946366
0.001952693
0.001955653
0.001955299
0.001951688
0.001944917
0.001935181
0.001922816
0.001908298
0.001892195
0.001875104
0.001857589
0.001840146
0.001823205
0.001807137
0.001792257
0.001778861
0.001767212
0.001757486
0.001749804
0.001744275
0.001740988
0.001739987
0.001741255
0.001744698
0.001750167
0.001757459
0.001766319
0.001776426
0.001787389
0.00179876
0.001810063
0.001820774
0.0022028
0.002216134
0.002227313
0.002236449
0.00224365
0.002249077
0.002252916
0.002255368
0.002256596
0.002256713
0.00225579
0.002253896
0.002251162
0.002247766
0.002243596
0.00223857
0.002232684
0.002225957
0.002218393
0.002209944
0.002200465
0.002189643
0.002176901
0.00216175
0.002143676
0.002121775
0.00209484
0.002061894
0.002021971
0.001973562
0.001915202
0.001848448
0.001778187
0.001706346
0.001631296
0.001552886
0.00147326
0.001395371
0.001321751
0.001254023
0.001193089
0.00113951
0.001093872
0.001057002
0.001029839
0.00101279
0.001005221
0.0009843998
0.0009603994
0.0009522455
0.0009600187
0.0009805178
0.001014194
0.001047476
0.001082138
0.001147353
0.001209485
0.001244311
0.00127917
0.00131361
0.001347205
0.001379767
0.001411337
0.001442093
0.001472306
0.001502322
0.001532596
0.001563537
0.001595474
0.001628651
0.00166322
0.001699288
0.00173687
0.001775872
0.001816146
0.001857572
0.00190002
0.001943384
0.001987609
0.002032207
0.002076466
0.002119743
0.002161449
0.00220105
0.002238068
0.00227209
0.002302762
0.002329802
0.002352993
0.002372195
0.002387339
0.002398433
0.002405561
0.002408881
0.002408623
0.002405084
0.002398621
0.002389642
0.002378588
0.002365928
0.00235214
0.002337708
0.002323113
0.002308822
0.002295253
0.00228276
0.002271649
0.002262179
0.002254566
0.002248979
0.002245532
0.00224428
0.002245249
0.002248433
0.002253769
0.002261148
0.002270447
0.002281544
0.002294348
0.002308801
0.002324837
0.002342339
0.002361125
0.002380976
0.002401691
0.00242311
0.002445108
0.002467586
0.002490472
0.0025137
0.002537242
0.002561061
0.002585229
0.00260976
0.002634894
0.0026608
0.002689051
0.002721369
0.002753519
4.769045e-05
6.399595e-05
9.095626e-05
0.0001282456
0.0001835042
0.0002448305
0.0002820277
0.0003219079
0.0003648336
0.0004343021
0.001479047
0.001621546
0.001756875
0.001891422
0.002024171
0.002158118
0.002296254
0.002430212
0.002558156
0.003828722
0.004173905
0.004453028
0.004660733
0.00480342
0.004896205
0.004956587
0.004999254
0.005032629
0.005057387
0.005078939
0.00510686
0.005140626
0.005182857
0.00524183
0.005326237
0.005440623
0.005585529
0.005759455
0.005845528
0.005969302
0.006104894
0.006235784
0.006351478
0.006442979
0.006497607
0.006500702
0.006445324
0.006340138
0.006202855
0.006059129
0.005930796
0.005825279
0.005732207
0.00564356
0.005555466
0.005469571
0.006232454
0.006193031
0.006171899
0.006193203
0.006262378
0.006375938
0.00652866
0.006712594
0.006917485
0.007131051
0.007339754
0.00753319
0.007699718
0.007827407
0.007909478
0.007947258
0.007948372
0.007922393
0.007878988
0.007827726
0.007782522
0.007741779
0.007702753
0.007661768
0.007613951
0.007554516
0.007478566
0.007381547
0.007260222
0.007114396
0.006949778
0.00678034
0.006623742
0.006493472
0.00640295
0.006376415
0.006425236
0.006556025
0.006754125
0.007028033
0.007371153
0.007771614
0.008206692
0.00864968
0.009069724
0.009436177
0.009725965
0.009930597
0.01
0.01
0.01000001
0.01000007
0.0100003
0.0100006
0.009980146
0.009855459
0.009689761
0.009483986
0.009252432
0.009007694
0.008745781
0.008458675
0.008140413
0.007792666
0.007424326
0.007049018
0.006684732
0.006350274
0.00606126
0.005828041
0.005655254
0.005542633
0.005487213
0.005485665
0.005535679
0.005635844
0.00578345
0.005970968
0.006203977
0.006472972
0.006763213
0.007059759
0.00735201
0.007632236
0.007891873
0.008120914
0.008308602
0.008446359
0.008530925
0.008564968
0.00855653
0.008516373
0.008453921
0.008376647
0.008286324
0.008180873
0.008058365
0.007918752
0.007764575
0.00759965
0.007427828
0.007252631
0.007077374
0.006905115
0.006738489
0.006579695
0.006430445
0.006291682
0.00616354
0.006045496
0.005936621
0.005835812
0.005742035
0.005654514
0.005572881
0.005497236
0.005428145
0.005366564
0.005313745
0.005271101
0.005240084
0.005222054
0.005218164
0.005229239
0.005255668
0.005297287
0.005353326
0.005422391
0.005502471
0.005590938
0.005684568
0.005779798
0.005873151
0.005961625
0.006042894
0.006115075
0.00617648
0.006225599
0.006261618
0.006284377
0.006294085
0.006291508
0.006277675
0.00625376
0.006220859
0.006179908
0.006131664
0.00607673
0.006015647
0.005948974
0.005877244
0.005800915
0.005720383
0.005636102
0.005548624
0.005458651
0.005367079
0.005275084
0.005184056
0.005095566
0.005011207
0.004932454
0.004860583
0.00479666
0.00474159
0.004696133
0.004660827
0.004635932
0.004621493
0.004617229
0.004622454
0.004635904
0.00465568
0.004679486
0.004705064
0.004730361
0.004753499
0.004772789
0.004786757
0.004794128
0.00479383
0.00478488
0.004766414
0.004737593
0.004697912
0.004647202
0.004578063
0.004510979
0.004443223
0.004373727
0.004302417
0.004229789
0.004156602
0.00408376
0.004012243
0.003943075
0.003877249
0.003815714
0.003759402
0.003709258
0.003666249
0.003631329
0.003605383
0.003589147
0.003583129
0.003587544
0.003602269
0.003626811
0.003660282
0.003701572
0.003749348
0.003802313
0.003859266
0.003919005
0.003980149
0.004041088
0.00410016
0.004155913
0.004207298
0.004253689
0.004294835
0.004330304
0.004358866
0.00438054
0.004395384
0.004403454
0.004404851
0.004399771
0.004388538
0.004371604
0.00434955
0.004323062
0.004292893
0.004259832
0.004224679
0.004188209
0.00415116
0.004114214
0.004078
0.004043083
0.004009968
0.003979123
0.003951042
0.00392627
0.003905054
0.003887561
0.003873877
0.003863983
0.003857746
0.003854901
0.003855049
0.003857645
0.003862029
0.003867464
0.003873356
0.003880518
0.003876976
0.003873598
0.003870178
0.003866586
0.003862517
0.00385785
0.003852612
0.003846841
0.003840562
0.003833728
0.003825756
0.003816103
0.003804285
0.003789964
0.00377362
0.003755825
0.003737054
0.003717604
0.003697582
0.003676949
0.003655498
0.003632812
0.003608356
0.003581558
0.00355166
0.003517589
0.003478207
0.003432532
0.003379329
0.003316874
0.003244042
0.003161741
0.003071733
0.002973988
0.002867383
0.002751949
0.002629203
0.002501383
0.002370783
0.00223949
0.002109394
0.001982299
0.00186043
0.001746852
0.001645189
0.001558502
0.00148835
0.001434737
0.001396467
0.001371956
0.001359636
0.001357957
0.001365226
0.001349847
0.001354737
0.001381102
0.00141498
0.001456939
0.001511688
0.001577657
0.001636933
0.001684737
0.001733353
0.001782581
0.00183238
0.001882807
0.001933985
0.001986066
0.002039225
0.002093639
0.002149462
0.002206797
0.002265666
0.002325999
0.002387633
0.002450288
0.002513555
0.002576875
0.00263955
0.002701457
0.002762708
0.002822732
0.002880926
0.002936754
0.002989738
0.00303945
0.003085521
0.003127633
0.00316553
0.003199014
0.003227953
0.003252281
0.003272006
0.003287207
0.003298039
0.003304733
0.003307588
0.003306972
0.003303307
0.003297066
0.003288756
0.003278908
0.003268067
0.003256777
0.00324557
0.003234936
0.003225323
0.00321713
0.003210706
0.003206347
0.003204293
0.003204716
0.003207731
0.003213407
0.003221754
0.003232729
0.003246245
0.003262193
0.00328046
0.003300941
0.003323531
0.003348093
0.003374442
0.003402354
0.003431599
0.003461966
0.003493268
0.003525342
0.003558045
0.003591257
0.003624867
0.003658807
0.003693006
0.003727502
0.003762319
0.003797799
0.003834301
0.003872494
0.003909034
4.438823e-05
7.586335e-05
0.0001611055
0.0005723974
0.001003973
0.001890427
0.002535197
0.003316764
0.004185084
0.004903822
0.005444973
0.005854747
0.006190148
0.00643089
0.006645829
0.006831144
0.006991243
0.007136648
0.007277476
0.007423762
0.007353844
0.007172279
0.007117823
0.007171721
0.007270308
0.007434046
0.007664604
0.007974164
0.008373615
0.008931955
0.009883876
0.01
0.01
0.01
0.01
0.01
0.01
0.01
0.01
0.01
0.01
0.01
0.01
0.01
0.01
0.01
0.01
0.01
0.01
0.01
0.01
0.01
0.01
0.01
0.01
0.01
0.01
0.01
0.01
0.01
0.01
0.01
0.01
0.01
0.01
0.01
0.009923259
0.009748868
0.009562536
0.009420672
0.009328178
0.009269164
0.009266426
0.009323116
0.009433344
0.009586842
0.009768419
0.009960897
0.01
0.01
0.01
0.01
0.01
0.01
0.01
0.01
0.01
0.01
0.01
0.01
0.01
0.009989211
0.009910751
0.009823984
0.009722978
0.009601807
0.009456661
0.00928805
0.00910352
0.008917811
0.008750119
0.008619334
0.008539443
0.008516833
0.008569175
0.008699064
0.008903007
0.009175973
0.009512118
0.009898216
0.01
0.01
0.01
0.01
0.01
0.01
0.01000002
0.01000015
0.01000104
0.01000476
0.01001232
0.01000924
0.01000231
0.01000017
0.01000001
0.01000001
0.01000006
0.01000006
0.01000002
0.01000001
0.009885269
0.009555161
0.009204145
0.008842275
0.008482392
0.008141258
0.007835991
0.007580277
0.007382841
0.00724765
0.007175723
0.007166873
0.007220731
0.007336379
0.007510043
0.007732017
0.007990264
0.008273919
0.00856379
0.00884801
0.009120784
0.009378085
0.009613738
0.009818807
0.009984012
0.01
0.01
0.01
0.01
0.01
0.01
0.01000001
0.009986183
0.009896189
0.009787629
0.009662799
0.009525781
0.009379927
0.009227189
0.00906941
0.008908957
0.008748426
0.008589991
0.00843517
0.008286286
0.008144921
0.008011771
0.00788685
0.007769746
0.007659873
0.007556691
0.007459876
0.007369431
0.007285729
0.007209502
0.00714178
0.007083874
0.007037266
0.007003499
0.006984066
0.006980269
0.006993066
0.007022885
0.007069457
0.007131741
0.007207966
0.007295674
0.00739166
0.007492014
0.007592627
0.007689909
0.007781136
0.007864278
0.007937536
0.007999185
0.008047778
0.008082474
0.008103115
0.008110182
0.008104721
0.008088038
0.008061371
0.008025795
0.007982077
0.007930858
0.007872657
0.007808017
0.007737582
0.007662029
0.007581936
0.007497731
0.007409734
0.007318347
0.007224118
0.007127851
0.007030726
0.006934278
0.006840222
0.006750233
0.006665801
0.00658818
0.006518473
0.00645773
0.006406947
0.006366882
0.006337978
0.0063204
0.006313985
0.006317931
0.00633052
0.006349219
0.006371237
0.006394176
0.006416119
0.006435451
0.006450819
0.006461101
0.006465398
0.006462868
0.00645252
0.00643316
0.006403602
0.006363119
0.006311749
0.006249925
0.006179745
0.006103294
0.006022384
0.005938349
0.005852324
0.005765403
0.005678561
0.005592904
0.005509606
0.005429851
0.005354812
0.005285693
0.005223761
0.005170325
0.005126631
0.005093826
0.00507285
0.005064347
0.005068598
0.005085435
0.005114238
0.005153808
0.005202564
0.005258877
0.005321436
0.005389081
0.005460503
0.005533893
0.005607015
0.005677667
0.005744224
0.00580549
0.005860627
0.005909078
0.005950522
0.005984516
0.006010766
0.006029198
0.006039833
0.006042691
0.006037885
0.006025719
0.006006699
0.005981513
0.005950922
0.005915775
0.005876924
0.00583523
0.005791496
0.005746545
0.005701168
0.005656121
0.005612107
0.005569766
0.005529653
0.005492183
0.005457595
0.005426343
0.005398848
0.005375612
0.005356823
0.005342347
0.00533188
0.005324932
0.005320844
0.005318816
0.005318012
0.005317695
0.00531737
0.005315909
0.005313185
0.005309155
0.005303834
0.00529735
0.005289942
0.005281843
0.005273051
0.005262802
0.005250363
0.005235622
0.005218492
0.005198917
0.005177026
0.005153221
0.005128073
0.005102119
0.005075655
0.005048737
0.005021287
0.0049931
0.004963789
0.004932836
0.004899677
0.004863606
0.004823721
0.004779055
0.004728581
0.004671023
0.00460501
0.004529685
0.004444984
0.004350987
0.004247167
0.004132755
0.004007492
0.003871802
0.003726476
0.003572392
0.003410416
0.003241488
0.003066944
0.002889086
0.002711603
0.002539404
0.00237759
0.002230168
0.002099547
0.001987
0.001893189
0.001818335
0.001762113
0.001723633
0.001701549
0.001694066
0.001699332
0.00171535
0.001740038
0.001766737
0.001782968
0.00182028
0.001875075
0.001942542
0.001997597
0.002052023
0.002108822
0.002168023
0.002229674
0.002293816
0.002360456
0.002429559
0.00250103
0.002574694
0.002650298
0.002727503
0.002805889
0.002884951
0.002964106
0.003042714
0.003120093
0.003195661
0.003269504
0.003341275
0.003410561
0.003476997
0.003540254
0.003600032
0.00365606
0.003708098
0.00375594
0.00379942
0.003838414
0.003872854
0.003902727
0.003928089
0.003949063
0.003965847
0.003978704
0.003987968
0.003994033
0.003997348
0.003998399
0.00399771
0.003995824
0.00399329
0.003990644
0.003988397
0.003987024
0.003986963
0.003988601
0.003992273
0.003998251
0.004006746
0.004017912
0.004031845
0.004048576
0.004068085
0.004090308
0.00411515
0.004142506
0.00417226
0.004204279
0.004238389
0.004274379
0.004312017
0.00435107
0.004391317
0.004432554
0.004474588
0.00451725
0.004560381
0.004603852
0.004647554
0.004691449
0.004735528
0.004779907
0.004824763
0.004869958
0.004912073
2.415606e-05
3.983874e-05
6.150312e-05
0.0002705554
0.0004497496
0.0007942133
0.00112907
0.001436768
0.00182093
0.002190593
0.002584231
0.003083025
0.003665395
0.004306385
0.004995632
0.005831093
0.007424254
0.008003467
0.008523836
0.008944164
0.009227347
0.009388076
0.009475095
0.009504752
0.009401455
0.00874719
0.008123489
0.007575287
0.007127889
0.006774352
0.006535635
0.006391242
0.006342568
0.00640851
0.0065813
0.006838557
0.00719102
0.00764178
0.008222304
0.008963336
0.009797325
0.01
0.01
0.01
0.01
0.01
0.01
0.01
0.01
0.01
0.01
0.01
0.01
0.01
0.01
0.01
0.01
0.01
0.01
0.01
0.01
0.01
0.01
0.01
0.01
0.01
0.01
0.01000001
0.01000001
0.01000001
0.01
0.01
0.01
0.01
0.01
0.01
0.01
0.01
0.01
0.01
0.01
0.01
0.01
0.01
0.01
0.01
0.01
0.01
0.01
0.01
0.01
0.01
0.01
0.01
0.01
0.01
0.01
0.01
0.01
0.01
0.01
0.01
0.01
0.01000001
0.01000012
0.010001
0.01000187
0.01000123
0.0100003
0.01000002
0.01
0.01
0.01
0.01
0.01
0.01
0.01
0.01000001
0.01000001
0.01000001
0.01
0.01
0.01000001
0.01000001
0.01000003
0.01000007
0.01000023
0.01000104
0.01000352
0.01003063
0.01010561
0.01004583
0.01000628
0.01000026
0.01000002
0.01000003
0.01000012
0.01000012
0.01000006
0.01000007
0.01000025
0.01000173
0.01000283
0.01000199
0.0100005
0.009848964
0.009536848
0.009256165
0.009020522
0.008839694
0.00871932
0.00866273
0.008671442
0.008745558
0.008883552
0.009078833
0.009317292
0.00957863
0.009847104
0.01
0.01
0.01
0.01
0.01000001
0.01000003
0.01000006
0.01000013
0.01000013
0.01000009
0.0100001
0.01000016
0.01000062
0.01000346
0.01000947
0.0100079
0.01000225
0.01000018
0.01000004
0.01000004
0.01000006
0.01000021
0.01000035
0.01000029
0.0100001
0.009889792
0.009757452
0.009630326
0.009508956
0.009393371
0.009283412
0.009178943
0.00907997
0.008986709
0.008899604
0.008819318
0.008746681
0.008682427
0.008627855
0.008584422
0.008553601
0.008536848
0.008535479
0.00855047
0.008582184
0.008630107
0.008692665
0.00876748
0.008851978
0.008942746
0.009035593
0.009126375
0.009212093
0.009291062
0.009362101
0.009423671
0.009473978
0.009511628
0.009535985
0.009547194
0.009546144
0.009534272
0.009513085
0.00948377
0.009447089
0.009403522
0.009353253
0.009296517
0.009233692
0.009165435
0.009092602
0.009015874
0.008935609
0.008851715
0.008764113
0.0086733
0.008580097
0.008485886
0.008392521
0.008301935
0.008215777
0.008135271
0.0080613
0.007994693
0.007936463
0.007887709
0.007849285
0.007821634
0.007804924
0.007799013
0.007802879
0.007814156
0.007829516
0.007845733
0.007860656
0.007872962
0.007881687
0.00788632
0.007886512
0.007882008
0.007872316
0.00785629
0.007832263
0.007798655
0.007754655
0.0077006
0.007637751
0.007567688
0.007491947
0.00741165
0.007327677
0.00724099
0.007152654
0.007063748
0.006975447
0.006889093
0.00680609
0.006727838
0.006655774
0.006591411
0.006536249
0.006491686
0.006458913
0.006438861
0.006432106
0.006438822
0.006458734
0.006490965
0.00653397
0.006585813
0.00664475
0.006709631
0.006779708
0.00685377
0.006929586
0.007004285
0.007075375
0.007141296
0.007201119
0.007254156
0.007299934
0.007338273
0.007369174
0.007392719
0.007408914
0.007417621
0.007418736
0.007412329
0.007398711
0.007378379
0.007351928
0.007320011
0.007283316
0.007242548
0.007198426
0.007151701
0.007103159
0.007053576
0.007003765
0.006954519
0.006906597
0.00686071
0.006817504
0.006777548
0.006741311
0.006709086
0.006680809
0.006656664
0.00663704
0.006621609
0.00660977
0.006600741
0.006593612
0.006587454
0.006581479
0.006575125
0.006567941
0.006559762
0.006550567
0.006540317
0.006529105
0.006517262
0.006504801
0.006490814
0.006475109
0.006457462
0.006437664
0.006415566
0.006391126
0.006364529
0.006336281
0.006307109
0.006277618
0.006247976
0.00621801
0.006187521
0.006156338
0.006124116
0.006090324
0.006054428
0.006015869
0.005973898
0.005927628
0.005876065
0.005818063
0.005752502
0.005678598
0.005595948
0.005504235
0.005402946
0.005291471
0.005169343
0.005036282
0.004892065
0.00473644
0.004569123
0.004389977
0.004199385
0.003998681
0.003790536
0.003579017
0.003368935
0.003164897
0.002970889
0.002790331
0.002626252
0.002481179
0.00235682
0.002253977
0.002172616
0.002111914
0.002070408
0.002046192
0.002037108
0.002040965
0.002055667
0.002079321
0.002110323
0.002147375
0.00218951
0.002236071
0.002286694
0.002341228
0.002399634
0.002461923
0.002528089
0.002598071
0.002671723
0.002748795
0.002828934
0.002911686
0.002996515
0.003082814
0.003169929
0.003257176
0.003343864
0.003429316
0.003512938
0.003594635
0.003674129
0.003751143
0.003825429
0.003896756
0.0039649
0.004029642
0.004090775
0.004148101
0.004201444
0.004250659
0.004295644
0.00433635
0.004372789
0.004405041
0.004433256
0.004457655
0.004478529
0.004496231
0.004511174
0.004523816
0.004534654
0.004544208
0.004553003
0.004561559
0.004570378
0.004579934
0.004590667
0.004602971
0.004617186
0.004633596
0.004652429
0.004673851
0.004697965
0.004724817
0.004754399
0.00478666
0.004821518
0.004858874
0.004898605
0.004940558
0.004984542
0.005030339
0.005077719
0.005126449
0.005176304
0.005227064
0.005278528
0.005330503
0.005382822
0.005435346
0.005487976
0.005540662
0.005593393
0.005646228
0.005698593
0.005746314
2.248325e-05
3.489488e-05
7.006498e-05
0.000216045
0.0003510868
0.0005680031
0.0007316395
0.0009176939
0.001135897
0.001347245
0.001592888
0.001910439
0.002268457
0.002687285
0.003221611
0.004269577
0.004748889
0.005254413
0.00577575
0.006308823
0.006857237
0.007410442
0.007949778
0.0084593
0.008924946
0.009334936
0.009697334
0.01
0.01
0.01
0.01
0.01
0.009573252
0.008894904
0.008223404
0.007588688
0.007029696
0.006549637
0.006180798
0.005907289
0.00575203
0.005705312
0.005786853
0.006002415
0.006378573
0.006927621
0.007657824
0.008517671
0.009513476
0.01
0.01
0.01
0.01
0.01
0.01
0.01
0.01
0.01
0.01
0.01
0.01
0.01
0.01
0.01
0.01
0.01
0.01
0.01
0.01
0.01
0.01
0.01
0.01
0.01
0.01000001
0.01000008
0.01000042
0.01000123
0.0100012
0.01000068
0.01000015
0.01000001
0.01
0.01
0.01000001
0.01000001
0.01000001
0.01
0.01
0.01
0.01
0.01
0.01
0.01
0.01
0.01
0.01
0.01
0.01
0.01
0.01
0.01000001
0.01000002
0.01000003
0.01000003
0.01000003
0.01000001
0.01
0.01
0.01
0.01
0.01
0.01000004
0.01000066
0.01000575
0.01000641
0.01000247
0.01000027
0.01000001
0.01
0.01
0.01
0.01
0.01
0.01
0.01000003
0.01000006
0.01000005
0.01000002
0.01
0.01
0.01000007
0.0100009
0.01000182
0.01000128
0.01000111
0.01000279
0.01001843
0.01010888
0.0101216
0.0101216
0.0100544
0.01000553
0.01000017
0.01000011
0.01000014
0.0100001
0.01000009
0.0100002
0.01000257
0.01000688
0.0100063
0.0100024
0.01000039
0.01000003
0.01000002
0.01000003
0.01000015
0.01000018
0.0100001
0.009948713
0.009928104
0.009969252
0.01
0.01
0.01
0.01
0.01
0.01
0.01
0.01000001
0.01000006
0.01000047
0.01000156
0.01000159
0.01000067
0.01000061
0.01000141
0.01000167
0.01000194
0.01000959
0.01004504
0.01004903
0.01004169
0.01000993
0.01000069
0.01000029
0.01000063
0.01000216
0.0100033
0.01000186
0.01000034
0.01000002
0.01
0.01
0.01
0.01
0.01
0.01
0.01
0.01000002
0.01000002
0.01000001
0.01
0.01
0.01
0.009960264
0.00991266
0.009875393
0.009849601
0.009836561
0.009837572
0.009853664
0.009885219
0.009931604
0.009990976
0.01
0.01000001
0.01000014
0.01000045
0.01000041
0.01000017
0.01000005
0.01000004
0.01000006
0.01000028
0.01000069
0.01000064
0.01000027
0.01000004
0.01000001
0.01000001
0.01000001
0.01000001
0.01
0.01
0.01
0.01
0.01000005
0.01000035
0.01000037
0.01000015
0.009987603
0.009907848
0.009824922
0.009739481
0.009653199
0.009568456
0.009487485
0.009411715
0.009341733
0.009277629
0.009219694
0.00916886
0.009126419
0.009093338
0.009069972
0.009056379
0.009052389
0.009056704
0.009066159
0.009076558
0.009084397
0.009087941
0.009086801
0.009081203
0.009071846
0.009059335
0.009044064
0.009025756
0.009002718
0.008972544
0.008933338
0.008884499
0.008826998
0.00876286
0.00869407
0.008621796
0.008546264
0.008467512
0.008386122
0.008303049
0.008219293
0.008136004
0.008054594
0.007976605
0.007903578
0.007837068
0.007778656
0.007729829
0.007691852
0.007665717
0.007652096
0.007651274
0.007663165
0.007687346
0.007722809
0.007767729
0.007819845
0.007877386
0.007939688
0.008006683
0.008077432
0.008149249
0.008218527
0.008282547
0.008340183
0.00839105
0.008434895
0.008471645
0.008501503
0.008524861
0.00854201
0.008552841
0.008557023
0.008554412
0.008545148
0.008529585
0.008508159
0.008481286
0.008449382
0.008412903
0.008372325
0.008328154
0.008280987
0.00823152
0.00818055
0.008128904
0.008077444
0.008027026
0.007978468
0.00793252
0.007889839
0.007850962
0.007816269
0.007785963
0.007759993
0.007738086
0.007720193
0.007705591
0.007693394
0.00768262
0.007672291
0.007661568
0.007649892
0.007637078
0.007623129
0.007608007
0.007591706
0.007574529
0.007557007
0.00753885
0.007519812
0.007499464
0.007477402