/*--------------------------------*- C++ -*----------------------------------*\
| =========                 |                                                 |
| \\      /  F ield         | foam-extend: Open Source CFD                    |
|  \\    /   O peration     | Version:     3.1                                |
|   \\  /    A nd           | Web:         http://www.extend-project.de       |
|    \\/     M anipulation  |                                                 |
\*---------------------------------------------------------------------------*/
FoamFile
{
    version     2.0;
    format      ascii;
    class       volScalarField;
    location    "17";
    object      omega;
}
// * * * * * * * * * * * * * * * * * * * * * * * * * * * * * * * * * * * * * //

dimensions      [0 0 -1 0 0 0 0];

internalField   nonuniform List<scalar> 
119952
(
335.1043
416.6899
385.5541
327.3751
285.535
278.7003
272.2631
264.5348
257.134
252.779
253.3577
258.8269
267.4936
277.4233
287.8685
298.5789
309.2308
319.7521
331.0241
344.4298
292.3237
295.0612
302.1344
257.0365
256.6171
258.4459
260.3904
261.8541
260.7346
134.3265
698.1266
579.062
485.6037
418.1103
367.5111
328.1527
296.2584
269.598
246.574
221.6162
188.7675
166.8758
152.3172
141.2328
131.3198
121.6864
112.1256
102.8506
94.28726
72.34973
67.1428
62.34138
58.04256
54.35028
51.2824
48.80483
46.85916
45.37379
44.29178
43.52176
42.91464
42.39698
41.92026
41.46526
41.06168
40.76146
40.58811
40.53329
41.48259
42.68849
42.94899
43.16669
43.72068
44.95758
46.69332
48.84451
51.08319
52.93759
54.01086
54.11413
53.27564
51.61322
49.33403
46.69409
43.93051
41.25097
38.77153
36.43222
34.28117
32.36757
30.63581
29.12409
27.96379
27.07429
26.41648
26.06997
26.80885
28.87322
29.32852
29.55289
29.77088
30.07868
30.47128
30.90627
31.35317
31.77267
32.15704
32.53182
32.93513
33.39218
33.89819
34.42013
34.91527
35.3486
35.69931
35.95931
36.12917
36.21499
36.22867
36.18689
36.10884
36.01316
35.91577
35.82761
35.75286
35.68828
35.62385
35.54486
35.43483
35.27869
35.06529
34.78906
34.45061
34.0566
33.61854
33.15089
32.6691
32.18842
31.72333
31.28652
30.89057
30.54829
30.26738
30.05556
29.91569
29.8417
29.80161
29.85943
30.03677
30.27177
30.54676
30.8578
31.18402
31.52052
31.86291
32.2056
32.54681
32.88613
33.22606
33.57054
33.92471
34.29395
34.68384
35.09927
35.54351
36.01584
36.50997
37.01393
37.51106
37.98122
38.40269
38.75475
39.02054
39.18952
39.25866
39.23244
39.12128
38.93956
38.70349
38.43115
38.14233
37.8551
37.58652
37.35901
37.18857
37.08736
37.06868
37.14239
37.31566
37.59355
37.98122
38.48461
39.11011
39.86393
40.75269
41.76587
42.81574
45.5782
50.94518
55.22403
58.59946
61.15997
63.02665
64.38568
65.38138
66.12322
66.68348
67.10824
67.42446
67.65134
67.80175
67.88532
67.91383
67.89834
67.8564
67.81229
67.78784
67.81205
67.92312
68.14847
68.48895
68.93828
69.50284
70.17924
70.96182
71.84964
72.82971
73.92091
75.12974
76.44658
77.84533
79.20497
79.32647
78.13596
77.14021
76.24013
75.42329
74.67812
73.99263
73.35508
72.74986
72.15563
71.54867
70.9069
70.21313
69.45771
68.63814
67.75751
66.82197
65.84169
64.83018
63.79588
62.7329
61.6515
60.56355
59.47753
58.4007
57.33845
56.28894
55.25821
54.25304
53.27944
52.34294
51.44833
50.59928
49.80224
49.05406
38.39426
37.78804
37.11113
36.35563
35.61705
34.92082
34.27374
33.67644
33.13259
32.64121
32.2004
31.80819
31.45993
31.15113
30.87526
30.62518
30.39402
30.17596
29.96715
29.76587
29.57247
29.38934
29.22135
29.07579
28.96233
28.89087
28.86599
28.9033
29.05875
29.44846
30.11938
31.17876
32.53176
33.49423
34.18682
34.92415
35.65427
36.27913
36.73275
36.99012
37.0515
36.92042
36.58996
36.03604
35.22551
34.14287
32.8108
31.29297
29.70498
28.15367
26.69692
25.3597
24.14924
23.09513
22.19072
21.29907
20.50694
19.81127
19.19671
18.64978
18.1589
17.71947
17.33068
16.98774
16.68501
16.41688
16.17848
15.96509
15.77214
15.5954
15.43122
15.27702
15.131
14.9917
14.856
14.72089
14.5861
14.45285
14.32282
14.19775
14.07921
13.96846
13.86645
13.77383
13.69099
13.61808
13.55508
13.50178
13.45787
13.42296
13.39655
13.37808
13.36694
13.36241
13.36373
13.37003
13.38041
13.39387
13.4093
13.42573
13.44223
13.45793
13.47178
13.48232
13.48846
13.49013
13.48726
13.47971
13.46755
13.45048
13.42847
13.40243
13.37271
13.33892
13.3018
13.26245
13.22173
13.1802
13.13765
13.09325
13.0467
12.99825
12.94869
12.89895
12.84959
12.80076
12.7524
12.70431
12.65613
12.60732
12.55762
12.5065
12.45262
12.3934
12.32432
12.23486
12.10092
11.89276
11.91885
786.329
646.9872
563.835
507.1413
463.7292
427.7238
396.2865
367.8673
340.4794
288.6065
237.1145
204.4038
181.9245
165.3962
152.6034
142.2749
133.5485
125.7755
99.52157
93.96898
88.42511
82.98714
77.8331
73.07762
68.79857
65.03025
61.76457
58.96814
56.6377
54.61877
52.82744
51.25546
49.89775
48.74118
47.76091
46.92444
46.19802
45.83859
45.69675
45.38218
44.93978
44.41563
43.85015
43.27502
42.71907
42.21586
41.7984
41.47982
41.24737
41.04844
40.78874
40.35651
39.64859
38.61504
37.28331
35.74925
31.02878
29.81873
28.74669
27.83905
27.10668
26.5432
26.12588
25.81982
25.58674
25.39736
25.23754
25.10481
24.99869
24.91535
24.85243
24.81661
24.81707
24.85182
24.90804
25.01636
25.15117
25.26305
25.3704
25.50222
25.69339
25.9636
26.31208
26.70537
27.07801
27.35117
27.45424
27.3399
26.99355
26.43514
25.70876
24.86756
23.96451
23.05173
22.1795
21.34785
20.57109
19.86418
19.23965
18.70402
18.25452
17.88982
17.6097
17.42328
17.29933
17.20618
17.14623
17.12621
17.15096
17.22465
17.33632
17.4661
17.59744
17.72299
17.84464
17.96855
18.09856
18.2324
18.36295
18.48172
18.58112
18.6553
18.70032
18.71407
18.69619
18.6482
18.57346
18.47667
18.36332
18.23896
18.10844
17.9754
17.84189
17.70836
17.57381
17.43617
17.29284
17.14121
16.97914
16.80534
16.61969
16.42322
16.21817
16.00777
15.79602
15.58733
15.38616
15.19678
15.02324
14.869
14.73684
14.62821
14.54308
14.4801
14.43861
14.41827
14.4165
14.43074
14.45878
14.49766
14.54453
14.59664
14.65143
14.70688
14.76152
14.81452
14.86553
14.91456
14.96184
15.00777
15.05286
15.09745
15.14144
15.18413
15.22421
15.25969
15.28792
15.30578
15.30998
15.29751
15.26605
15.2142
15.14152
15.04843
14.93617
14.80683
14.66324
14.50887
14.34756
14.18365
14.02205
13.86787
13.7258
13.59973
13.49273
13.40727
13.34524
13.30816
13.29705
13.31266
13.3553
13.42482
13.51921
13.61619
14.08403
14.72321
15.24207
15.66736
16.01663
16.30177
16.53342
16.71953
16.86571
16.97559
17.05083
17.09204
17.0993
17.07236
17.01073
16.91396
16.78212
16.61639
16.4196
16.19651
15.95361
15.69844
15.43882
15.18274
14.9367
14.70668
14.49619
14.30698
14.13982
13.9953
13.87436
13.77759
13.70384
13.64949
13.60694
13.56528
13.5294
13.50383
13.48838
13.48162
13.4823
13.48952
13.50249
13.52026
13.54154
13.56466
13.58767
13.60852
13.62534
13.63647
13.64055
13.63644
13.62326
13.60026
13.56692
13.52315
13.46914
13.40521
13.33185
13.24974
13.15986
13.06344
12.9618
12.85636
12.74857
12.63995
12.53207
12.42649
12.32466
12.22803
10.94966
10.84921
10.75996
10.6802
10.60836
10.54311
10.48334
10.42805
10.37641
10.32776
10.28152
10.23723
10.19431
10.1522
10.11097
10.07064
10.03113
9.992309
9.954155
9.9168
9.88069
9.846809
9.816958
9.792633
9.775575
9.769072
9.777662
9.805589
9.858201
9.943797
10.07183
10.24095
10.43616
10.65788
10.92413
11.24682
11.62758
12.06239
12.54633
13.07623
13.65017
14.26463
14.909
15.55824
16.17122
16.70266
17.11472
17.38563
17.506
17.46948
17.27348
16.92586
16.44654
15.8729
15.23893
14.56537
13.88408
13.22161
12.59413
12.01147
11.47882
10.99734
10.56582
10.18167
9.841306
9.540532
9.274695
9.039359
8.830365
8.643904
8.476546
8.325095
8.186851
8.0596
7.941546
7.831196
7.727381
7.629118
7.535518
7.4466
7.36278
7.284337
7.211436
7.144121
7.082327
7.0259
6.974609
6.928174
6.886285
6.848627
6.81489
6.784786
6.758049
6.734437
6.713729
6.695718
6.680205
6.666993
6.655889
6.646697
6.6392
6.633139
6.628211
6.624117
6.620607
6.617432
6.614326
6.611036
6.607319
6.60297
6.59786
6.591859
6.584835
6.576752
6.567671
6.557664
6.546799
6.535102
6.522529
6.509008
6.494504
6.479074
6.462857
6.446005
6.428623
6.410767
6.39246
6.373674
6.354358
6.334408
6.313685
6.291858
6.268504
6.242838
6.214019
6.180938
6.144449
6.110055
6.084579
647.7743
584.489
531.7857
491.681
461.6808
437.4594
416.3381
399.2956
385.6015
379.0855
183.7757
178.9324
174.1693
169.5917
165.1794
160.7256
156.1164
151.7584
147.4683
113.9052
105.6464
99.48467
95.04686
91.76294
89.17276
86.98344
85.02247
83.19453
81.46848
79.65952
77.60757
75.43216
73.22963
71.04019
68.88861
66.79917
64.80313
62.92596
62.10561
60.98709
59.74794
58.49636
57.29883
56.20217
55.2448
54.45067
53.81953
53.3246
52.89176
52.44364
51.91125
51.27259
50.57935
49.86355
49.12292
48.32668
43.8822
42.83616
41.74447
40.57995
39.3723
38.17298
37.02649
35.96694
35.01447
34.17496
33.44394
32.80926
32.25765
31.7729
31.33927
30.94622
30.58957
30.26781
29.97763
29.71081
29.45227
29.20519
28.97192
28.75313
28.54766
28.35441
28.17641
28.02134
27.89805
27.81087
27.75129
27.69172
27.59427
27.43143
27.18382
26.82803
26.37333
25.84886
25.33725
24.84882
24.42699
24.1059
23.901
23.80356
23.78325
23.79458
23.79151
23.7468
23.65995
23.54913
23.43548
23.32942
23.22709
23.12921
23.05077
23.00525
22.98971
22.98471
22.98028
22.95826
22.91419
22.85958
22.81513
22.80022
22.82372
22.88116
22.95122
22.99901
22.98471
22.87371
22.64525
22.29637
21.83997
21.29981
20.70535
20.08687
19.47431
18.89852
18.36835
17.89322
17.47722
17.12254
16.82718
16.5871
16.39739
16.25231
16.13534
16.02974
15.93068
15.84473
15.78271
15.75433
15.75911
15.78138
15.80573
15.82417
15.83808
15.85423
15.8777
15.90698
15.93648
15.95998
15.97253
15.97051
15.95142
15.91378
15.85703
15.78162
15.6891
15.58205
15.46369
15.33753
15.2069
15.0746
14.94261
14.81202
14.68306
14.55522
14.42749
14.29863
14.16749
14.03329
13.89581
13.75546
13.61326
13.47079
13.33001
13.1931
13.06223
12.93939
12.8265
12.72547
12.63806
12.56545
12.50788
12.46467
12.43469
12.41683
12.40978
12.41188
12.42156
12.43707
12.45656
12.47802
12.49958
12.51965
12.537
12.55085
12.56084
12.56688
12.56906
12.5676
12.56288
12.55526
12.54502
12.53224
12.51685
12.49847
12.47649
12.44975
12.4168
12.37611
12.32633
12.26652
12.19625
12.11548
12.0246
11.92455
11.81658
11.70234
11.58364
11.46255
11.34167
11.224
11.11251
11.00968
10.91761
10.83814
10.77279
10.72284
10.68894
10.67142
10.66984
10.68407
10.71304
10.75589
10.81773
10.87677
10.93461
10.9907
11.04363
11.09171
11.13335
11.16717
11.19199
11.20671
11.21035
11.20203
11.18101
11.1466
11.09823
11.03547
10.95819
10.86668
10.76173
10.64475
10.51765
10.38283
10.24312
10.10137
9.960657
9.823594
9.692149
9.567625
9.45095
9.343016
9.244731
9.156804
9.079502
9.012588
8.95535
8.90705
8.867806
8.836796
8.81331
8.796531
8.785683
8.78008
8.779084
8.782024
8.78814
8.796558
8.806326
8.816463
8.826025
8.834138
8.840027
8.843021
8.842562
8.838209
8.829631
8.816603
8.798942
8.776471
8.749275
8.717519
8.681458
8.641432
8.59784
8.551126
8.501793
8.450415
8.397628
8.344142
8.290506
8.235611
8.199129
8.161957
8.124999
8.088477
8.052456
8.017125
7.982623
7.948984
7.916141
7.884053
7.853101
7.82367
7.796199
7.771083
7.747828
7.725818
7.704421
7.683084
7.661452
7.639389
7.616979
7.594555
7.57264
7.551879
7.533198
7.517993
7.507956
7.504907
7.511291
7.530496
7.565628
7.617443
7.685287
7.77121
7.879917
8.015527
8.180457
8.376242
8.604574
8.86789
9.169388
9.512463
9.897946
10.32014
10.76492
11.21308
11.64642
12.05105
12.41737
12.73373
12.98489
13.15506
13.23243
13.21075
13.08988
12.87685
12.58629
12.23563
11.84199
11.42162
10.98927
10.55749
10.13658
9.734448
9.356528
9.006081
8.68453
8.391798
8.126686
7.887232
7.671034
7.475517
7.298118
7.136461
6.988492
6.852556
6.727421
6.612275
6.50669
6.4096
6.31976
6.236649
6.159859
6.088995
6.023649
5.963393
5.907787
5.85639
5.808778
5.764556
5.72337
5.684913
5.648929
5.615211
5.583595
5.553958
5.526203
5.500259
5.476066
5.453572
5.43271
5.413394
5.395515
5.378961
5.363625
5.349377
5.336061
5.323507
5.311541
5.299998
5.288735
5.277606
5.266474
5.25525
5.243885
5.232335
5.220558
5.208501
5.196094
5.183274
5.17001
5.156324
5.142268
5.127887
5.113198
5.098206
5.0829
5.067262
5.051243
5.034792
5.017787
5.000098
4.981452
4.961691
4.940435
4.917892
4.893986
4.870702
4.849829
370.8241
274.1946
374.0333
170.3784
132.6484
94.40676
81.70847
71.03116
62.66237
58.72204
57.32879
56.91784
56.96067
57.74889
58.59705
59.59637
60.73849
61.96652
63.15927
64.21308
65.10596
65.70552
65.80294
66.15041
66.48055
66.66878
66.67399
66.47679
66.0784
65.47832
64.67948
61.42026
60.50996
59.58844
58.6508
57.69244
56.71365
55.72729
54.75673
53.82427
52.93877
52.09416
51.27111
50.43631
49.56093
48.6412
47.69211
46.74503
45.85099
45.05957
44.39279
43.83615
43.36105
42.94465
42.57456
42.23445
41.89415
41.52674
41.12637
40.7024
40.25604
39.80045
39.34131
38.88675
38.44912
38.02341
37.57906
37.07058
36.54916
35.90204
35.15259
34.37314
33.58227
32.81147
32.09393
31.45394
30.90272
30.4366
30.0421
29.70281
29.39495
29.09027
28.77093
28.43811
28.10424
27.78319
27.48378
27.20829
26.96337
26.74177
26.54073
26.35821
26.18838
26.02451
25.86465
25.71424
25.58221
25.47428
25.3875
25.30734
25.21074
25.0741
24.88367
24.64679
24.37249
24.08452
23.81639
23.60581
23.49126
23.49929
23.62864
23.84958
24.10662
24.32985
24.45817
24.46774
24.38233
24.24459
24.09526
23.95135
23.79475
23.63006
23.47747
23.34511
23.22409
23.09558
22.9482
22.77569
22.57539
22.35359
22.12486
21.90716
21.71576
21.55795
21.42976
21.31529
21.19026
21.02888
20.81067
20.52518
20.17411
19.76999
19.33256
18.88375
18.44425
18.0325
17.66374
17.34205
17.0679
16.84193
16.66289
16.52625
16.42233
16.33752
16.25574
16.16178
16.05137
15.9355
15.8312
15.75306
15.70174
15.66149
15.61456
15.55314
15.4829
15.41522
15.35845
15.31062
15.26448
15.21388
15.15547
15.08767
15.00961
14.92097
14.82169
14.712
14.59263
14.46504
14.33129
14.19383
14.0551
13.91727
13.78202
13.65042
13.52294
13.39951
13.27964
13.1627
13.0481
12.93556
12.82519
12.71747
12.61312
12.51296
12.41782
12.3285
12.24562
12.16942
12.09999
12.03783
11.98398
11.93957
11.90499
11.87956
11.86196
11.85078
11.84475
11.84274
11.84377
11.84689
11.85085
11.85429
11.85568
11.85374
11.84741
11.83603
11.81943
11.7978
11.77149
11.74086
11.70631
11.66836
11.62741
11.58385
11.53809
11.49061
11.44163
11.39093
11.33778
11.28109
11.21982
11.15324
11.08108
11.00339
10.92037
10.83254
10.74072
10.64589
10.54882
10.45019
10.3511
10.25331
10.15893
10.07
9.988469
9.916037
9.854153
9.804052
9.766269
9.740544
9.725873
9.72123
9.725744
9.73887
9.760086
9.787125
9.817544
9.848549
9.877736
9.903339
9.924091
9.939256
9.948191
9.950325
9.945039
9.93171
9.909781
9.878764
9.838207
9.787798
9.727392
9.657104
9.577347
9.488865
9.392743
9.290188
9.182751
9.072321
8.961074
8.851053
8.743934
8.64066
8.54169
8.447542
8.359099
8.277222
8.202616
8.135584
8.076167
8.024208
7.979506
7.941771
7.910531
7.885139
7.865026
7.849765
7.839005
7.832337
7.829181
7.828852
7.830521
7.833354
7.836535
7.83937
7.841162
7.841291
7.839219
7.834501
7.826806
7.815918
7.801777
7.784462
7.763922
7.740128
7.713017
7.68264
7.649166
7.612791
7.573748
7.532339
7.48895
7.444069
7.398224
7.352027
7.306832
7.262872
7.22007
7.178442
7.138211
7.09961
7.06267
7.027275
6.993557
6.96168
6.931473
6.902805
6.87567
6.850143
6.826248
6.803814
6.782389
6.761373
6.740265
6.718792
6.696829
6.674356
6.651509
6.628578
6.605948
6.584171
6.564033
6.546544
6.533005
6.525058
6.524409
6.532319
6.549606
6.577348
6.617156
6.670756
6.739685
6.825473
6.930011
7.055833
7.206173
7.384545
7.593592
7.833464
8.100631
8.388574
8.69023
8.99962
9.310922
9.616709
9.907298
10.17168
10.39901
10.57975
10.7084
10.78102
10.79534
10.75161
10.65193
10.49978
10.30061
10.06238
9.794666
9.507216
9.209105
8.90852
8.612346
8.325925
8.053057
7.796136
7.556375
7.33405
7.128756
6.939657
6.765703
6.605797
6.45889
6.324038
6.200403
6.087277
5.983986
5.889403
5.802577
5.722693
5.649004
5.580814
5.51747
5.458367
5.402957
5.350757
5.30135
5.254391
5.209602
5.166771
5.125743
5.086414
5.04872
5.012628
4.978125
4.945208
4.913875
4.884112
4.855896
4.8292
4.803985
4.780192
4.757739
4.736525
4.716435
4.697351
4.679154
4.66172
4.644931
4.628687
4.612906
4.597506
4.582406
4.56752
4.552756
4.538036
4.523316
4.50859
4.493864
4.479134
4.464378
4.449566
4.434664
4.419635
4.404426
4.388986
4.373227
4.357063
4.340369
4.323072
4.305067
4.28642
4.267234
4.248111
4.230662
344.6713
233.0556
176.9002
152.9945
123.5199
100.4673
85.19558
78.79013
71.99098
68.02845
64.7719
60.73196
56.85312
53.38537
50.44629
47.40453
42.35658
41.5709
41.19261
41.31969
42.04271
43.22814
44.62566
46.16248
47.82013
49.56792
51.37254
53.07771
54.72754
56.19761
57.33144
58.25401
58.99819
59.54298
59.88674
60.05184
60.02607
59.80521
59.37281
58.75885
58.05417
57.31399
56.58793
55.91559
55.29442
54.67746
54.00803
53.2547
52.42688
51.56262
50.70305
49.87485
49.08545
48.32251
47.55366
46.7464
45.89868
45.03795
44.21832
43.51851
42.9961
42.65068
42.43809
42.31432
42.24761
42.19534
42.08297
41.81589
41.34618
40.70471
39.98174
39.28404
38.61302
37.95601
37.32541
36.74361
36.21255
35.70271
35.17265
34.59188
33.94762
33.25336
32.54277
31.87182
31.27855
30.78806
30.41296
30.14403
29.95771
29.83123
29.73429
29.61019
29.39653
29.07222
28.66621
28.22447
27.78953
27.40215
27.06434
26.76848
26.50767
26.27951
26.08182
25.90457
25.73101
25.55024
25.36574
25.18887
25.02976
24.89249
24.7727
24.65844
24.53514
24.39326
24.2369
24.08599
23.96001
23.88712
23.90782
24.07103
24.40029
24.86456
25.38797
25.877
26.24473
26.43562
26.44771
26.34152
26.18143
26.00531
25.84717
25.65338
25.4325
25.21131
24.98433
24.73622
24.44976
24.11666
23.73956
23.32676
22.89073
22.44906
22.02305
21.63255
21.29025
20.9977
20.74533
20.51595
20.28918
20.04652
19.7761
19.47559
19.15299
18.82431
18.50754
18.21639
17.95811
17.73652
17.55106
17.39816
17.28059
17.2025
17.159
17.13282
17.10034
17.04236
16.94923
16.82275
16.68117
16.54601
16.43095
16.3345
16.23828
16.12171
15.97943
15.82764
15.68582
15.56315
15.45345
15.34516
15.2317
15.11176
14.98588
14.85467
14.7186
14.5781
14.43341
14.28476
14.13287
13.97921
13.82566
13.67426
13.52687
13.38495
13.24944
13.12077
12.99892
12.88352
12.77417
12.67063
12.57309
12.48214
12.39856
12.32304
12.25588
12.19695
12.14579
12.10163
12.06306
12.02828
11.9964
11.96824
11.94554
11.92911
11.91788
11.90977
11.90289
11.89597
11.88828
11.8796
11.86985
11.85861
11.84494
11.8276
11.80523
11.7769
11.74202
11.70067
11.65347
11.60127
11.54492
11.48503
11.42212
11.35654
11.28868
11.21924
11.14929
11.07982
11.01116
10.94284
10.87377
10.80276
10.72912
10.65286
10.57435
10.49392
10.41191
10.329
10.24587
10.16261
10.07862
9.993495
9.908064
9.8242
9.743855
9.6691
9.601914
9.54391
9.496425
9.459784
9.432836
9.413476
9.399765
9.390727
9.386402
9.386973
9.391778
9.399181
9.406989
9.41329
9.416961
9.417417
9.414293
9.407353
9.396345
9.380842
9.360319
9.334296
9.302358
9.264114
9.219229
9.16751
9.10891
9.043555
8.971797
8.894178
8.811278
8.723744
8.632616
8.539603
8.446852
8.356085
8.267956
8.182213
8.098692
8.018074
7.941595
7.87026
7.804598
7.74493
7.691517
7.644486
7.603694
7.568604
7.538504
7.512849
7.491374
7.47396
7.460396
7.45025
7.442904
7.437651
7.433788
7.430651
7.427598
7.424015
7.419375
7.413194
7.405084
7.394758
7.382026
7.366772
7.348924
7.328439
7.305348
7.279792
7.251778
7.221192
7.188015
7.152284
7.114119
7.073727
7.031472
6.987858
6.94343
6.898721
6.85428
6.810564
6.767918
6.726681
6.68715
6.649502
6.613756
6.579529
6.546521
6.514544
6.483544
6.453619
6.425022
6.398073
6.372903
6.349175
6.326153
6.303155
6.279852
6.256106
6.231742
6.206671
6.181011
6.154951
6.12872
6.102716
6.077541
6.054008
6.033175
6.016235
6.004247
5.998003
5.998155
6.005363
6.020323
6.043789
6.076695
6.12036
6.176626
6.247858
6.336719
6.445683
6.576287
6.728445
6.900513
7.090007
7.294066
7.509311
7.731292
7.954409
8.172553
8.379568
8.569789
8.738648
8.8825
8.998449
9.084293
9.138141
9.15833
9.143511
9.093041
9.007498
8.888947
8.741104
8.568931
8.378126
8.174561
7.963822
7.750883
7.53991
7.334186
7.136132
6.947397
6.768995
6.601449
6.444907
6.299252
6.164182
6.039263
5.923975
5.817753
5.719831
5.629352
5.545494
5.467481
5.394589
5.326155
5.261583
5.200356
5.142033
5.086252
5.032723
4.981225
4.931599
4.883739
4.837577
4.793078
4.750226
4.709021
4.669466
4.631565
4.595318
4.56072
4.527758
4.496401
4.466604
4.438303
4.411424
4.385882
4.361587
4.338443
4.316356
4.295233
4.274988
4.255531
4.236774
4.218624
4.200988
4.18378
4.166943
4.15044
4.134246
4.11833
4.102651
4.087158
4.071801
4.056527
4.041278
4.025993
4.010602
3.995035
3.979219
3.963103
3.946649
3.929873
3.912873
3.895855
3.880401
185.3786
136.1593
207.2641
100.498
85.24837
71.69914
67.39579
64.13271
60.71976
59.06588
57.10369
54.53876
52.20156
49.85738
47.26225
42.26344
41.13836
40.15163
39.28018
38.52247
37.8356
37.25626
36.82874
36.57537
36.50624
36.60212
36.77917
37.11163
37.69275
38.61919
39.85241
41.34766
43.02669
44.83917
46.67945
48.45093
50.25423
51.66168
52.77905
53.65214
54.28505
54.73668
55.0432
55.2452
55.35985
55.41375
55.41409
55.37394
55.26602
55.08638
54.85212
54.57994
54.29914
54.07246
53.90019
53.70625
53.3889
52.88283
52.20094
51.41679
50.61114
49.83653
49.11061
48.42146
47.72945
47.00128
46.25271
45.54894
44.9988
44.71966
44.74537
45.00533
45.39948
45.86969
46.3533
46.73454
46.85982
46.55889
45.76754
44.57839
43.2437
41.99903
40.85514
39.78526
38.77567
37.85524
37.04677
36.33046
35.65753
34.98404
34.29737
33.61415
32.96597
32.40407
32.00862
31.7995
31.76241
31.84227
31.98343
32.16416
32.33779
32.38164
32.1695
31.68657
31.03276
30.31976
29.6431
29.04087
28.52274
28.08131
27.70301
27.3849
27.12357
26.89654
26.67078
26.42846
26.17365
25.91974
25.68127
25.47117
25.29669
25.15697
25.04549
24.95576
24.88837
24.85945
24.88284
24.98842
25.2354
25.69715
26.38002
27.17217
27.91846
28.50161
28.87653
29.05193
29.07155
29.01185
28.88073
28.71697
28.63772
28.54498
28.35386
28.09571
27.73343
27.26315
26.70083
26.06327
25.37135
24.65285
23.93401
23.23836
22.58904
22.00489
21.49629
21.0637
20.69842
20.3851
20.10537
19.84212
19.58329
19.32533
19.07598
18.85217
18.67107
18.53848
18.44528
18.37576
18.31848
18.26775
18.23393
18.23232
18.25762
18.2795
18.26395
18.19704
18.0787
17.91943
17.74781
17.5855
17.43599
17.29391
17.13932
16.95157
16.73155
16.50527
16.30223
16.12723
15.96664
15.80553
15.63723
15.46373
15.28774
15.11057
14.93338
14.75691
14.58106
14.40537
14.22992
14.05584
13.88496
13.71942
13.56119
13.41173
13.2719
13.14201
13.02183
12.91081
12.80844
12.71472
12.6303
12.55642
12.49439
12.44503
12.4082
12.38269
12.36643
12.35703
12.35141
12.34589
12.33827
12.32957
12.32275
12.31932
12.31747
12.31378
12.30562
12.29178
12.27221
12.24785
12.21998
12.1893
12.15531
12.11668
12.07193
12.01975
11.95954
11.89161
11.81718
11.73801
11.65577
11.57147
11.48544
11.39752
11.30766
11.21664
11.12629
11.03864
10.95471
10.87394
10.79475
10.71536
10.63491
10.55384
10.47314
10.39344
10.31508
10.23865
10.16482
10.09298
10.02093
9.946511
9.869439
9.791439
9.715073
9.643088
9.577948
9.521798
9.476369
9.441536
9.414614
9.391812
9.370262
9.349099
9.329393
9.312761
9.299737
9.289059
9.278279
9.265531
9.250332
9.232848
9.213192
9.191423
9.167533
9.141285
9.112304
9.080243
9.0448
9.005635
8.962393
8.914785
8.862611
8.805756
8.744293
8.678483
8.608455
8.534119
8.455789
8.374922
8.293986
8.215133
8.138785
8.063703
7.988699
7.914228
7.841947
7.7732
7.708778
7.649281
7.595264
7.547156
7.504872
7.467614
7.434461
7.40496
7.379106
7.356995
7.338501
7.323185
7.310424
7.299564
7.289974
7.281033
7.27214
7.262744
7.252371
7.240669
7.227379
7.21234
7.195454
7.176652
7.155878
7.133092
7.108309
7.081579
7.052925
7.022256
6.989334
6.954026
6.916309
6.876274
6.834168
6.7904
6.745547
6.700312
6.655246
6.610664
6.566898
6.524509
6.484059
6.445785
6.409343
6.374177
6.339845
6.306113
6.272947
6.240527
6.209283
6.179811
6.152539
6.12719
6.102743
6.078182
6.053129
6.027572
6.001346
5.974247
5.946319
5.917708
5.888507
5.858886
5.829209
5.80003
5.772114
5.746405
5.723857
5.705226
5.690974
5.681302
5.676306
5.676163
5.681312
5.692602
5.711364
5.739393
5.778797
5.831672
5.899634
5.983401
6.082708
6.19655
6.323481
6.461686
6.608737
6.761496
6.916261
7.069128
7.216434
7.355221
7.483515
7.600037
7.703954
7.794506
7.870529
7.930209
7.971315
7.991569
7.988999
7.962349
7.911418
7.837166
7.741601
7.627573
7.498493
7.358024
7.209803
7.057229
6.903315
6.7506
6.601132
6.456472
6.317736
6.185645
6.060581
5.942645
5.831719
5.727525
5.629696
5.537796
5.451328
5.369771
5.292614
5.219375
5.149619
5.08297
5.019106
4.957765
4.89874
4.841874
4.787057
4.73421
4.683275
4.634211
4.586989
4.541589
4.497992
4.456181
4.416138
4.377841
4.341257
4.306343
4.273047
4.24131
4.211066
4.182246
4.154775
4.128578
4.10358
4.0797
4.056861
4.034979
4.013973
3.993758
3.974253
3.955393
3.937125
3.919406
3.902188
3.885418
3.86904
3.852993
3.837217
3.821647
3.806218
3.790863
3.775518
3.760124
3.744637
3.72903
3.713294
3.697497
3.68172
3.66752
78.83863
57.15536
53.40487
50.33421
48.85858
47.06549
45.51606
44.12047
42.85726
41.13991
37.59273
37.06143
36.56603
36.11025
35.66234
35.21836
34.82198
34.49903
34.26213
34.09559
33.85984
33.47813
33.14278
32.87731
32.68839
32.58417
32.57878
32.68211
32.90436
33.2464
33.69809
34.26504
35.05456
36.05255
37.27281
38.73994
40.43581
42.23739
44.13611
45.8946
47.34018
48.51738
49.36591
49.93349
50.26984
50.4436
50.52192
50.56101
50.63071
50.80788
51.19021
51.79778
52.59266
53.47163
54.28127
54.91171
55.34051
55.64642
55.96188
56.30878
56.58692
56.63283
56.32952
55.68897
54.84405
53.97206
53.20645
52.58116
52.04437
51.49397
50.88254
50.29566
49.90588
49.93619
50.51097
51.4885
52.62521
53.77268
54.91044
55.91033
56.51841
56.57946
55.94375
54.59806
52.65375
50.41914
48.31586
46.46666
44.8235
43.25398
41.74936
40.41318
39.29876
38.35069
37.49881
36.71988
36.03524
35.48126
35.09978
34.99687
35.20473
35.62533
36.10458
36.55848
37.01389
37.4093
37.51801
37.14751
36.30351
35.20933
34.06814
32.9988
32.03298
31.21904
30.55812
30.01044
29.55074
29.17355
28.8534
28.54642
28.22106
27.86883
27.50158
27.14615
26.83478
26.59294
26.43244
26.35235
26.34257
26.38925
26.48598
26.63388
26.87901
27.32654
28.08285
29.10925
30.14363
30.89522
31.30124
31.52107
31.69202
31.91564
32.29189
32.7006
32.88426
33.09624
33.1673
32.92191
32.35563
31.50245
30.47632
29.35246
28.19862
27.05895
25.96713
24.94975
24.02061
23.18811
22.45857
21.8347
21.31299
20.88344
20.53093
20.2379
19.9877
19.76774
19.57367
19.4148
19.31362
19.29025
19.33837
19.42082
19.49263
19.52991
19.53245
19.52641
19.53732
19.55409
19.53693
19.45787
19.32423
19.14565
18.93743
18.73362
18.54652
18.37025
18.20128
18.01212
17.77868
17.51375
17.24853
17.01385
16.812
16.62411
16.43182
16.22755
16.01635
15.80489
15.59599
15.39113
15.19086
14.99415
14.79929
14.60564
14.41435
14.22791
14.0494
13.8816
13.72636
13.58448
13.45595
13.34013
13.23585
13.14217
13.05917
12.98819
12.93144
12.89113
12.86838
12.86243
12.87044
12.88812
12.91059
12.93257
12.94891
12.95703
12.95896
12.95942
12.96078
12.96014
12.9522
12.93333
12.90252
12.86082
12.81102
12.75677
12.70054
12.64213
12.57955
12.51048
12.43293
12.34576
12.24949
12.14625
12.03923
11.93172
11.82496
11.71827
11.61024
11.49993
11.38812
11.27796
11.17352
11.07692
10.98713
10.90115
10.81567
10.72939
10.6437
10.56086
10.48204
10.40745
10.33758
10.27314
10.21277
10.1521
10.0866
10.01469
9.938008
9.860163
9.785294
9.717121
9.659201
9.613831
9.579578
9.551043
9.522143
9.489551
9.453626
9.41728
9.383742
9.354503
9.328181
9.301551
9.272455
9.240946
9.207899
9.173837
9.139054
9.103725
9.067796
9.031069
8.993364
8.95449
8.91411
8.871744
8.826901
8.779144
8.728055
8.673445
8.615513
8.554249
8.489009
8.419428
8.346771
8.274022
8.204082
8.13726
8.071132
8.003184
7.933525
7.86429
7.797121
7.732942
7.672942
7.618286
7.56969
7.526811
7.488256
7.452857
7.420426
7.391311
7.365763
7.343646
7.324421
7.307391
7.291891
7.277275
7.262891
7.248137
7.232522
7.215702
7.197487
7.177817
7.156724
7.134262
7.110438
7.085221
7.058598
7.030638
7.00141
6.970846
6.938679
6.904565
6.868228
6.829563
6.788584
6.745422
6.70039
6.654075
6.607226
6.56039
6.513829
6.468047
6.42404
6.382669
6.343911
6.306926
6.270749
6.234829
6.199046
6.163558
6.128767
6.095306
6.06395
6.035277
6.008951
5.983585
5.957831
5.931319
5.904236
5.876522
5.847939
5.818477
5.788247
5.757225
5.725374
5.692859
5.660085
5.627683
5.596538
5.56767
5.541933
5.519708
5.500846
5.484928
5.471625
5.460977
5.453515
5.450298
5.452856
5.463061
5.482845
5.513778
5.556688
5.611584
5.677883
5.754658
5.840731
5.93458
6.034245
6.137418
6.241697
6.344812
6.444844
6.540352
6.630442
6.714768
6.793369
6.866267
6.93302
6.992694
7.043891
7.084824
7.11351
7.128089
7.127079
7.109549
7.075272
7.024758
6.959177
6.880228
6.789988
6.690744
6.584829
6.474487
6.361765
6.248439
6.135971
6.025497
5.917832
5.813493
5.712744
5.615612
5.522152
5.432491
5.346608
5.264389
5.185662
5.110232
5.037902
4.968483
4.901804
4.837715
4.776094
4.716839
4.659867
4.605115
4.552508
4.501985
4.453484
4.406949
4.36233
4.319577
4.27864
4.239461
4.201981
4.166138
4.131866
4.099105
4.067792
4.037867
4.009268
3.981933
3.955797
3.930795
3.906862
3.883932
3.861938
3.840814
3.820497
3.800931
3.782066
3.763849
3.746226
3.729141
3.712533
3.69634
3.680496
3.664934
3.649589
3.634397
3.619305
3.604268
3.589257
3.57425
3.559285
3.544407
3.531124
103.0391
43.34919
35.08083
33.20129
32.09095
31.39861
31.0054
30.80497
30.75271
30.81187
30.82387
30.63672
30.45797
30.28785
30.12783
29.97865
29.84964
29.74377
29.65515
29.56809
29.46995
29.3778
29.32865
29.34207
29.41985
29.57156
29.80499
30.12373
30.53415
31.04409
31.69068
32.56129
33.65239
34.94492
36.44043
38.18714
40.0885
41.87325
43.4795
44.78972
45.75023
46.34908
46.59444
46.59384
46.46265
46.35003
46.34811
46.55009
47.07013
48.02429
49.47151
51.37563
53.66828
56.1103
58.36206
60.19287
61.57359
62.67311
63.7018
64.72049
65.59181
66.05576
65.93397
65.24833
64.2029
63.11793
62.30773
61.92064
61.74062
61.47689
61.06978
60.81928
61.06546
61.96782
63.45952
65.10871
66.58124
67.96197
69.07009
69.67089
69.49856
68.69651
67.40074
65.70678
63.51697
60.79235
58.0887
55.72805
53.55513
51.26203
48.9398
46.8333
45.13303
43.76477
42.58441
41.60379