/*--------------------------------*- C++ -*----------------------------------*\
| =========                 |                                                 |
| \\      /  F ield         | foam-extend: Open Source CFD                    |
|  \\    /   O peration     | Version:     3.1                                |
|   \\  /    A nd           | Web:         http://www.extend-project.de       |
|    \\/     M anipulation  |                                                 |
\*---------------------------------------------------------------------------*/
FoamFile
{
    version     2.0;
    format      ascii;
    class       volScalarField;
    location    "17";
    object      p;
}
// * * * * * * * * * * * * * * * * * * * * * * * * * * * * * * * * * * * * * //

dimensions      [1 -1 -2 0 0 0 0];

internalField   nonuniform List<scalar> 
119952
(
5841.699
4962.534
4837.154
5000.143
5157.283
5115.061
5119.726
5135.9
5149.346
5161.534
5179.951
5205.193
5236.483
5265.733
5292.555
5316.487
5337.12
5353.018
5361.257
5341.135
5489.802
5407.268
5389.757
5568.609
5537.527
5557.134
5573.189
5620.93
5823.23
5832.148
3798.178
3833.367
3887.366
3953.516
4022.969
4093.57
4163.521
4231.156
4294.849
4338.87
4373.747
4418.094
4449.959
4473.958
4492.004
4505.505
4514.187
4519.612
4524.123
4500.915
4486.231
4467.294
4448.459
4424.543
4395.269
4361.221
4323.652
4285.49
4251.18
4216.55
4191.961
4185.357
4194.97
4220.188
4258.666
4308.473
4371.032
4470.687
4629.197
4584.013
4633.071
4720.688
4784.248
4821.051
4837.234
4858.709
4880.548
4901.804
4925.621
4952.34
4980.497
5007.572
5032.616
5055.106
5074.665
5090.982
5104.396
5117.476
5135.513
5151.083
5159.033
5194.958
5248.7
5260.106
5267.25
5274.531
5248.877
5121.647
5093.954
5108.025
5105.968
5104.501
5103.428
5103.357
5105.1
5108.448
5113.261
5119.398
5126.71
5135.033
5144.138
5153.748
5163.645
5173.713
5183.904
5194.198
5204.588
5215.078
5225.679
5236.438
5247.356
5258.497
5269.905
5281.611
5293.625
5305.931
5318.493
5331.259
5344.164
5357.135
5370.093
5382.952
5395.627
5408.036
5420.095
5431.723
5442.838
5453.366
5463.238
5472.358
5480.79
5488.311
5495.038
5500.926
5505.953
5510.285
5515.045
5520.424
5525.744
5528.164
5530.431
5532.706
5534.883
5537.274
5539.648
5542.068
5544.552
5547.088
5549.707
5552.416
5555.241
5558.199
5561.3
5564.545
5567.919
5571.406
5574.988
5578.646
5582.369
5586.149
5589.977
5593.843
5597.724
5601.595
5605.425
5609.185
5612.844
5616.376
5619.758
5622.977
5626.016
5628.86
5631.506
5633.96
5636.286
5638.462
5640.578
5642.706
5644.91
5647.205
5649.632
5652.185
5654.811
5657.419
5659.882
5661.895
5662.717
5701.231
5704.144
5705.639
5707.902
5709.142
5710.809
5712.216
5713.536
5714.677
5715.619
5716.345
5716.863
5717.183
5717.314
5717.265
5717.045
5716.658
5716.126
5715.445
5714.619
5713.656
5712.557
5711.314
5709.944
5708.413
5706.733
5704.91
5702.934
5700.78
5698.438
5695.851
5692.819
5689.316
5684.774
5678.329
5670.185
5677.362
5682.063
5685.145
5687.564
5689.656
5691.55
5693.313
5694.994
5696.618
5698.199
5699.75
5701.276
5702.783
5704.275
5705.754
5707.224
5708.685
5710.133
5711.585
5713.006
5714.45
5715.891
5717.326
5718.747
5720.148
5721.511
5722.831
5724.1
5725.307
5726.447
5727.518
5728.536
5729.472
5730.061
5714.192
5708.663
5700.814
5701.769
5702.57
5702.434
5702.662
5703.111
5703.545
5703.976
5704.458
5704.855
5705.32
5705.741
5706.129
5706.46
5706.731
5706.933
5707.056
5707.092
5707.032
5706.866
5706.586
5706.193
5705.685
5705.039
5704.245
5703.309
5702.196
5700.9
5699.36
5697.745
5695.238
5692.098
5690.015
5688.935
5687.492
5685.714
5683.656
5681.375
5678.912
5676.276
5673.439
5670.355
5666.923
5663.014
5658.284
5653.278
5648.62
5644.278
5640.065
5635.814
5631.367
5626.009
5619.759
5616.324
5612.286
5607.719
5603.395
5599.224
5595.164
5591.226
5587.363
5583.553
5579.774
5576.01
5572.255
5568.508
5564.762
5561.017
5557.278
5553.551
5549.846
5546.175
5542.571
5539.032
5535.591
5532.276
5529.11
5526.109
5523.289
5520.662
5518.234
5516.007
5513.98
5512.147
5510.498
5509.02
5507.695
5506.507
5505.434
5504.458
5503.559
5502.719
5501.92
5501.146
5500.386
5499.627
5498.862
5498.082
5497.284
5496.463
5495.617
5494.743
5493.845
5492.924
5491.98
5491.011
5490.02
5489.006
5487.971
5486.919
5485.849
5484.76
5483.656
5482.538
5481.403
5480.248
5479.069
5477.867
5476.644
5475.399
5474.132
5472.838
5471.508
5470.129
5468.692
5467.181
5465.576
5463.854
5461.979
5459.9
5457.532
5454.749
5451.314
5447.01
5442.557
5444.105
5465.171
3241.628
3239.626
3212.197
3169.94
3120.981
3069.341
3021.484
2983.505
2961.378
2913.335
2937.092
2965.54
3011.737
3071.59
3142.26
3219.454
3298.846
3377.477
3460.439
3524.279
3560.491
3603.475
3636.869
3659.516
3670.803
3670.907
3660.575
3641.044
3614.063
3572.555
3536.485
3502.081
3473.005
3454.072
3448.518
3457.717
3483.259
3526.97
3564.816
3619.622
3686.705
3755.979
3825.67
3893.896
3958.622
4018.479
4071.389
4118.227
4159.246
4192.007
4217.235
4236.545
4250.004
4257.673
4260.989
4260.614
4188.926
4174.658
4158.299
4136.347
4106.67
4070.181
4028.613
3984.1
3939.178
3897.566
3864.312
3845.634
3843.639
3859.676
3894.43
3944.871
4007.469
4080.365
4159.221
4235.095
4291.933
4340.502
4394.128
4445.381
4486.963
4519.628
4548.862
4577.683
4607.053
4637.215
4667.573
4697.008
4724.318
4749.02
4770.989
4790.354
4807.397
4823.004
4836.482
4850.262
4864.35
4879.585
4895.938
4914.923
4925.187
4922.761
4910.185
4884.074
4845.993
4816.148
4802.788
4797.146
4793.861
4792.092
4792.17
4794.836
4799.501
4805.534
4812.505
4820.494
4829.429
4839.262
4849.718
4860.412
4871.113
4881.753
4892.326
4902.859
4913.359
4923.856
4934.417
4945.179
4956.211
4967.573
4979.319
4991.465
5003.985
5016.825
5029.903
5043.124
5056.386
5069.588
5082.631
5095.428
5107.896
5119.955
5131.526
5142.525
5152.868
5162.476
5171.291
5179.23
5186.315
5192.544
5197.993
5202.814
5207.171
5211.245
5215.203
5218.784
5221.7
5224.199
5226.554
5228.876
5231.229
5233.662
5236.166
5238.723
5241.331
5244
5246.752
5249.609
5252.597
5255.738
5259.03
5262.47
5266.04
5269.721
5273.501
5277.375
5281.335
5285.365
5289.43
5293.484
5297.477
5301.37
5305.135
5308.751
5312.203
5315.476
5318.56
5321.444
5324.111
5326.542
5328.753
5330.798
5332.73
5334.655
5336.65
5338.769
5341.06
5343.555
5346.216
5349.002
5351.817
5354.695
5357.703
5361.329
5425.028
5428.43
5430.468
5432.533
5434.402
5436.061
5437.567
5438.875
5439.979
5440.883
5441.582
5442.076
5442.373
5442.481
5442.406
5442.152
5441.722
5441.121
5440.352
5439.422
5438.34
5437.109
5435.731
5434.208
5432.547
5430.754
5428.837
5426.791
5424.597
5422.211
5419.6
5416.709
5413.47
5409.914
5406.428
5404.217
5405.298
5408.091
5410.362
5412.428
5414.38
5416.202
5417.941
5419.626
5421.27
5422.883
5424.469
5426.029
5427.562
5429.071
5430.56
5432.03
5433.488
5434.933
5436.363
5437.794
5439.229
5440.66
5442.081
5443.485
5444.863
5446.204
5447.495
5448.725
5449.887
5450.976
5451.994
5452.948
5453.879
5454.942
5396.859
5399.243
5397.965
5396.235
5395.865
5396.132
5396.518
5396.912
5397.359
5397.82
5398.289
5398.76
5399.211
5399.679
5400.083
5400.432
5400.717
5400.929
5401.051
5401.067
5400.961
5400.725
5400.38
5399.863
5399.206
5398.412
5397.44
5396.295
5394.955
5393.506
5391.746
5389.751
5387.686
5385.333
5383.206
5381.48
5379.715
5377.758
5375.607
5373.268
5370.766
5368.132
5365.301
5362.212
5358.756
5354.886
5350.696
5346.411
5342.21
5338.097
5333.899
5329.506
5324.937
5320.239
5315.058
5309.614
5304.78
5300.504
5296.341
5292.189
5288.119
5284.155
5280.274
5276.447
5272.647
5268.876
5265.109
5261.352
5257.599
5253.85
5250.098
5246.359
5242.647
5238.99
5235.348
5231.786
5228.326
5224.989
5221.801
5218.773
5215.928
5213.277
5210.824
5208.572
5206.522
5204.668
5203.001
5201.507
5200.171
5198.976
5197.901
5196.928
5196.036
5195.208
5194.426
5193.675
5192.941
5192.213
5191.481
5190.738
5189.979
5189.199
5188.395
5187.569
5186.709
5185.822
5184.914
5183.979
5183.02
5182.041
5181.032
5180
5178.955
5177.888
5176.792
5175.684
5174.559
5173.413
5172.252
5171.063
5169.845
5168.604
5167.336
5166.037
5164.703
5163.326
5161.894
5160.395
5158.817
5157.135
5155.331
5153.372
5151.257
5148.97
5146.698
5144.791
5144.108
5144.946
5147.701
3523.488
3709.565
3908.706
4118.727
4332.549
4542.784
4746.012
4931.744
5090.235
5206.706
5261.861
5298.082
5290.489
5241.013
5151.646
5025.678
4869.957
4691.753
4503.782
4229.053
4033.089
3840.266
3663.027
3505.035
3368.061
3252.255
3157.178
3083.125
3032.376
2991.582
2969.272
2961.9
2964.142
2972.221
2982.079
2990.961
2997.059
2998.104
2979.822
2948.722
2908.373
2858.379
2802.147
2745.327
2694.758
2656.919
2637.721
2635.582
2653.165
2691.908
2744.3
2808.188
2881.996
2962.635
3047.252
3130.39
3181.365
3248.73
3296.396
3336.395
3366.802
3384.576
3388.45
3379.606
3358.666
3327.18
3287.806
3244.628
3200.827
3159.576
3126.448
3106.923
3104.785
3120.759
3153.218
3200.357
3258.836
3324.722
3396.258
3470.658
3544.485
3614.81
3679.805
3738.672
3791.301
3838.063
3877.87
3911.349
3938.515
3958.754
3971.979
3978.824
3979.119
3973.332
3962.412
3946.035
3924.851
3897.38
3861.864
3818.629
3769.244
3716.126
3662.538
3613.38
3574.04
3551.634
3549.49
3568.406
3610.9
3671.939
3741.775
3815.786
3891.445
3965.593
4028.889
4081.652
4132.729
4182.54
4226.925
4264.816
4298.832
4332.179
4365.902
4399.799
4433.284
4465.309
4494.659
4520.74
4543.517
4563.378
4580.703
4595.813
4609.048
4621.044
4632.05
4641.537
4650.064
4659.246
4663.086
4657.181
4645.428
4627.728
4601.981
4576.678
4560.106
4550.852
4545.176
4542.124
4541.881
4544.898
4550.238
4557.06
4564.527
4573.435
4583.203
4593.614
4604.714
4616
4627.096
4637.933
4648.549
4659.008
4669.406
4679.82
4690.326
4700.969
4711.869
4723.151
4734.904
4747.164
4759.898
4773.023
4786.431
4800.002
4813.61
4827.134
4840.463
4853.507
4866.19
4878.438
4890.17
4901.294
4911.712
4921.33
4930.07
4937.862
4944.702
4950.635
4955.758
4960.238
4964.217
4967.874
4971.296
4974.429
4977.121
4979.433
4981.611
4983.833
4986.173
4988.632
4991.172
4993.759
4996.375
4999.032
5001.757
5004.582
5007.545
5010.689
5014.022
5017.512
5021.14
5024.892
5028.761
5032.75
5036.86
5041.071
5045.333
5049.57
5053.709
5057.696
5061.505
5065.125
5068.55
5071.778
5074.8
5077.594
5080.135
5082.399
5084.39
5086.183
5087.858
5089.554
5091.378
5093.384
5095.662
5098.242
5101.072
5104.097
5107.217
5110.385
5113.517
5116.469
5119.159
5122.123
5124.852
5127.2
5129.216
5130.955
5132.459
5133.737
5134.817
5135.688
5136.361
5136.846
5137.141
5137.245
5137.161
5136.89
5136.428
5135.775
5134.933
5133.911
5132.715
5131.354
5129.834
5128.164
5126.359
5124.441
5122.424
5120.31
5118.08
5115.703
5113.169
5110.517
5107.857
5105.396
5103.465
5102.486
5102.73
5103.958
5105.591
5107.285
5108.959
5110.615
5112.262
5113.901
5115.531
5117.147
5118.742
5120.311
5121.849
5123.357
5124.84
5126.302
5127.747
5129.184
5130.615
5132.045
5133.48
5134.912
5136.333
5137.733
5139.107
5140.438
5141.712
5142.914
5144.031
5145.058
5145.996
5146.855
5147.622
5148.18
5148.157
5147.506
5147.304
5147.857
5148.777
5149.665
5150.425
5151.168
5151.895
5152.556
5153.185
5153.764
5154.318
5154.801
5155.269
5155.677
5156.011
5156.264
5156.419
5156.452
5156.339
5156.079
5155.681
5155.12
5154.383
5153.485
5152.423
5151.181
5149.731
5148.103
5146.315
5144.402
5142.302
5140.044
5137.923
5135.968
5133.967
5131.831
5129.543
5127.09
5124.469
5121.708
5118.809
5115.755
5112.46
5108.863
5104.991
5100.992
5096.951
5092.918
5088.804
5084.51
5080.014
5075.271
5070.58
5066.02
5061.408
5056.784
5052.277
5047.913
5043.688
5039.606
5035.647
5031.771
5027.931
5024.115
5020.312
5016.519
5012.731
5008.946
5005.166
5001.398
4997.654
4993.946
4990.281
4986.688
4983.19
4979.81
4976.565
4973.481
4970.572
4967.854
4965.337
4963.02
4960.907
4958.992
4957.269
4955.726
4954.347
4953.115
4952.011
4951.017
4950.113
4949.28
4948.5
4947.759
4947.041
4946.335
4945.631
4944.92
4944.197
4943.455
4942.692
4941.905
4941.089
4940.246
4939.378
4938.483
4937.562
4936.615
4935.642
4934.644
4933.625
4932.581
4931.514
4930.427
4929.321
4928.196
4927.052
4925.887
4924.694
4923.469
4922.211
4920.922
4919.605
4918.251
4916.852
4915.399
4913.883
4912.293
4910.624
4908.877
4907.076
4905.283
4903.626
4902.305
4901.535
4901.666
4902.661
2346.802
2371.292
2400.336
2421.206
2464.09
2495.224
2566.202
2652.901
2756.86
2855.7
2958.338
3086.109
3234.886
3401.83
3585.367
3777.901
3973.618
4168.931
4353.124
4519.678
4662.142
4777.722
4851.792
4879.421
4864.783
4809.161
4714.781
4585.666
4427.405
4249.614
4068.224
3722.387
3543.598
3374.807
3212.546
3068.625
2946.889
2846.05
2764.715
2702.568
2659.399
2634.447
2625.741
2629.73
2641.968
2659.579
2677.905
2692.189
2701.795
2700.204
2681.441
2644.914
2592.965
2527.921
2455.875
2385.448
2325.806
2284.152
2264.039
2267.035
2293.163
2340.896
2404.069
2481.684
2569.97
2665.275
2763.496
2861.955
2957.505
3033.513
3090.543
3134.337
3165.047
3180.231
3178.937
3162.255
3131.766
3089.783
3039.852
2985.86
2930.832
2878.346
2835.342
2810.191
2807.373
2826.132
2864.134
2918.206
2984.859
3060.387
3141.489
3224.437
3305.215
3380.55
3448.8
3509.789
3563.909
3611.788
3653.474
3688.963
3717.914
3739.768
3753.976
3760.301
3759.022
3751.122
3737.785
3719.472
3696.388
3666.81
3627.051
3576.305
3517.473
3453.554
3387.657
3325.652
3272.946
3240.927
3233.226
3253.054
3315.009
3392.45
3468.123
3546.568
3624.294
3697.555
3762.585
3819.5
3871.906
3921.384
3967.076
4008.798
4047.719
4085.22
4122.049
4158.548
4194.161
4227.95
4259.102
4287.169
4311.843
4333.104
4351.333
4366.964
4380.193
4390.847
4398.925
4404.306
4407.488
4409.43
4408.048
4401.397
4390.847
4376.201
4356.378
4335.032
4317.536
4304.456
4295.569
4290.685
4289.071
4292.189
4298.691
4307.687
4316.735
4326.218
4336.325
4347.456
4359.386
4371.451
4382.989
4394.002
4404.582
4414.816
4424.891
4434.942
4445.075
4455.392
4466.04
4477.176
4488.914
4501.288
4514.257
4527.718
4541.517
4555.496
4569.507
4583.404
4597.068
4610.417
4623.391
4635.933
4647.969
4659.391
4670.074
4679.899
4688.752
4696.533
4703.244
4708.944
4713.736
4717.886
4721.561
4724.876
4727.862
4730.518
4732.819
4734.86
4736.824
4738.895
4741.163
4743.614
4746.174
4748.776
4751.384
4753.992
4756.634
4759.369
4762.259
4765.376
4768.726
4772.251
4775.924
4779.739
4783.685
4787.77
4792.013
4796.401
4800.868
4805.302
4809.596
4813.679
4817.528
4821.143
4824.541
4827.746
4830.75
4833.512
4835.994
4838.144
4839.939
4841.464
4842.77
4844.174
4845.887
4847.76
4850.011
4852.713
4855.775
4859.089
4862.507
4865.888
4869.116
4872.141
4875.056
4878.063
4880.888
4883.329
4885.414
4887.181
4888.684
4889.957
4891.014
4891.847
4892.492
4892.973
4893.282
4893.4
4893.327
4893.063
4892.595
4891.913
4891.022
4889.939
4888.671
4887.225
4885.61
4883.84
4881.942
4879.946
4877.872
4875.726
4873.494
4871.16
4868.727
4866.251
4863.875
4861.795
4860.2
4859.31
4859.331
4860.144
4861.413
4862.876
4864.41
4865.985
4867.584
4869.197
4870.818
4872.437
4874.038
4875.61
4877.151
4878.652
4880.118
4881.56
4882.987
4884.409
4885.833
4887.263
4888.701
4890.138
4891.569
4892.985
4894.378
4895.703
4896.972
4898.162
4899.251
4900.23
4901.093
4901.841
4902.457
4902.961
4903.492
4904.116
4904.641
4904.972
4905.265
4905.641
4906.117
4906.693
4907.25
4907.87
4908.468
4909.057
4909.617
4910.12
4910.584
4911.002
4911.356
4911.639
4911.831
4911.892
4911.779
4911.5
4911.069
4910.456
4909.641
4908.654
4907.485
4906.124
4904.585
4902.888
4901.019
4898.992
4896.839
4894.618
4892.429
4890.279
4888.082
4885.78
4883.342
4880.756
4878.024
4875.133
4872.089
4868.933
4865.614
4862.086
4858.373
4854.585
4850.794
4846.987
4843.072
4839.01
4834.696
4830.214
4825.725
4821.18
4816.511
4811.88
4807.441
4803.181
4799.028
4794.961
4790.977
4787.057
4783.18
4779.328
4775.488
4771.655
4767.828
4764.006
4760.189
4756.384
4752.6
4748.851
4745.15
4741.519
4737.981
4734.559
4731.274
4728.149
4725.194
4722.429
4719.863
4717.504
4715.351
4713.402
4711.648
4710.078
4708.677
4707.427
4706.311
4705.309
4704.401
4703.568
4702.792
4702.058
4701.352
4700.661
4699.974
4699.283
4698.581
4697.864
4697.126
4696.365
4695.578
4694.765
4693.926
4693.06
4692.166
4691.247
4690.301
4689.33
4688.335
4687.315
4686.273
4685.209
4684.124
4683.019
4681.893
4680.747
4679.576
4678.374
4677.143
4675.883
4674.598
4673.283
4671.933
4670.543
4669.11
4667.633
4666.117
4664.576
4663.043
4661.571
4660.249
4659.179
4658.497
4658.291
4658.525
2278.169
2258.333
2244.44
2207.616
2181.664
2126.981
2108.105
2092.669
2081.766
2075.436
2074.769
2078.415
2090.411
2110.146
2137.857
2176.414
2175.284
2241.668
2318.044
2403.854
2500.708
2614.955
2747.975
2898.7
3066.424
3247.547
3438.633
3634.529
3829.46
4014.902
4178.422
4312.559
4411.412
4468.788
4480.943
4449.586
4378.554
4270.965
4131.762
3966.28
3779.187
3573.586
3355.996
3162.365
2992.745
2841.741
2712.203
2603.881
2513.77
2440.688
2385.942
2351.142
2335.411
2337.292
2354.411
2380.989
2410.561
2440.996
2470.998
2491.439
2493.762
2471.075
2424.311
2356.959
2272.633
2179.035
2088.075
2010.993
1956.489
1929.442
1929.705
1960.562
2014.395
2088.621
2179.444
2282.699
2394.169
2510.716
2625.918
2732.153
2821.332
2891.662
2944.171
2978.577
2994.035
2989.529
2965.473
2923.234
2866.677
2801.673
2733.285
2662.471
2592.125
2532.085
2494.426
2486.682
2507.267
2550.604
2612.947
2690.446
2778.741
2872.716
2967.545
3058.38
3141.188
3215.521
3280.79
3337.181
3386.687
3430.173
3467.681
3498.643
3522.098
3537.076
3543.112
3540.752
3531.291
3516.729
3498.247
3475.526
3445.578
3402.27
3342.422
3270.992
3192.264
3109.523
3031.451
2959.43
2918.273
2917.142
2953.099
3024.039
3107.988
3192.98
3279.186
3361.091
3435.067
3500.561
3558.608
3610.932
3660.222
3708.226
3753.892
3796.398
3837.008
3877.005
3916.488
3954.712
3990.791
4023.911
4053.523
4079.402
4101.599
4120.523
4136.6
4149.825
4159.727
4165.745
4167.92
4166.799
4163.272
4158.044
4150.897
4141.764
4129.892
4113.204
4093.04
4074.501
4057.959
4045.197
4036.912
4032.39
4038.743
4049.602
4063.235
4071.387
4078.024
4087.555
4099.849
4113.146
4126.612
4138.805
4149.875
4160.36
4170.402
4180.107
4189.698
4199.366
4209.259
4219.558
4230.48
4242.196
4254.751
4268.07
4281.991
4296.293
4310.768
4325.244
4339.558
4353.58
4367.246
4380.532
4393.412
4405.824
4417.645
4428.686
4438.788
4447.807
4455.592
4462.192
4467.764
4472.354
4476.077
4479.212
4482.072
4484.625
4486.794
4488.688
4490.429
4492.145
4494.011
4496.146
4498.561
4501.158
4503.805
4506.413
4508.955
4511.471
4514.048
4516.803
4519.903
4523.338
4526.948
4530.675
4534.528
4538.507
4542.653
4547.019
4551.603
4556.321
4561.001
4565.481
4569.663
4573.536
4577.132
4580.498
4583.691
4586.696
4589.441
4591.899
4593.995
4595.658
4596.948
4597.943
4598.781
4600.09
4601.862
4604.105
4606.977
4610.337
4614.026
4617.832
4621.534
4625.016
4628.242
4631.257
4634.175
4636.903
4639.373
4641.581
4643.443
4644.947
4646.165
4647.167
4647.946
4648.562
4649.04
4649.364
4649.492
4649.411
4649.112
4648.588
4647.833
4646.856
4645.679
4644.318
4642.788
4641.102
4639.269
4637.304
4635.238
4633.106
4630.95
4628.769
4626.537
4624.204
4621.808
4619.532
4617.615
4616.175
4615.348
4615.272
4615.847
4616.87
4618.174
4619.625
4621.167
4622.75
4624.355
4625.981
4627.618
4629.248
4630.843
4632.379
4633.856
4635.292
4636.698
4638.092
4639.484
4640.885
4642.301
4643.732
4645.174
4646.624
4648.068
4649.477
4650.849
4652.142
4653.342
4654.428
4655.382
4656.2
4656.881
4657.455
4657.957
4658.358
4658.645
4658.852
4659.08
4659.435
4659.85
4660.656
4661.348
4662.066
4662.79
4663.488
4664.144
4664.752
4665.312
4665.833
4666.306
4666.709
4667.05
4667.313
4667.433
4667.332
4667.04
4666.591
4665.943
4665.053
4664.02
4662.841
4661.436
4659.781
4657.935
4655.933
4653.802
4651.572
4649.29
4647.003
4644.711
4642.356
4639.882
4637.255
4634.47
4631.534
4628.498
4625.377
4622.185
4618.908
4615.545
4612.08
4608.478
4604.777
4601.015
4597.123
4593.104
4588.963
4584.726
4580.393
4576.004
4571.532
4567.092
4562.767
4558.569
4554.456
4550.4
4546.384
4542.406
4538.47
4534.563
4530.672
4526.791
4522.918
4519.052
4515.194
4511.35
4507.528
4503.742
4500.006
4496.34
4492.766
4489.306
4485.984
4482.819
4479.829
4477.026
4474.424
4472.026
4469.841
4467.862
4466.083
4464.491
4463.072
4461.808
4460.681
4459.671
4458.758
4457.924
4457.151
4456.422
4455.724
4455.043
4454.369
4453.693
4453.01
4452.312
4451.595
4450.857
4450.095
4449.308
4448.496
4447.656
4446.79
4445.898
4444.978
4444.034
4443.064
4442.071
4441.054
4440.014
4438.953
4437.871
4436.768
4435.643
4434.496
4433.323
4432.126
4430.904
4429.66
4428.393
4427.1
4425.782
4424.439
4423.077
4421.703
4420.337
4419.009
4417.761
4416.652
4415.751
4415.126
4414.804
4414.739
2440.602
2397.845
2354.459
2299.073
2259.202
2185.151
2148.86
2114.094
2080.915
2048.612
2017.784
1988.073
1959.761
1933.05
1907.464
1821.43
1802.639
1787.162
1775.552
1768.463
1766.452
1770.131
1780.382
1797.941
1823.217
1857.937
1899.066
1955.567
2023.216
2103.893
2198.255
2308.561
2435.578
2579.766
2740.448
2915.711
3105.484
3297.943
3487.897
3666.917
3823.63
3948.825
4035.332
4078.082
4075.284
4029.137
3945.434
3829.915
3686.298
3517.166
3325.249
3120.318
2915.191
2726.741
2560.407
2418.895
2306.25
2218.618
2147.446
2088.267
2043.549
2018.481
2015.353
2033.186
2068.559
2113.529
2162.182
2214.375
2268.413
2309.585
2320.594
2291.93
2230.279
2141.664
2026.416
1895.488
1773.593
1675.935
1607.577
1569.979
1554.168
1592.884
1655.701
1742.058
1849.424
1972.216
2103.066
2240.903
2379.078
2507.42
2617.156
2704.385
2768.67
2808.725
2827.247
2820.261
2787.745
2729.32
2651.665
2566.615
2480.275
2388.593
2292.018
2206.18
2150.622
2137.402
2162.717
2215.329
2288.556
2379.392
2483.838
2595.138
2706.259
2810.642
2905.616
2987.133
3054.523
3112.062
3163.231
3208.7
3248.53
3281.88
3307.235
3323.041
3328.573
3324.437
3312.968
3297.418
3280.269
3260.966
3232.949
3184.898
3112.675
3028.029
2933.973
2834.302
2741.107
2664.878
2646.969
2676.463
2720.464
2768.638
2838.911
2928.834
3023.196
3108.904
3183.369
3247.642
3304.55
3356.539
3405.944
3454.098
3500.036
3543.81
3586.775
3629.741
3672.136
3713.013
3751.467
3786.633
3817.909
3845.063
3868.297
3888.154
3905.066
3918.953
3929.016
3933.913
3933.372
3928.176
3919.327
3910.749
3903.322
3896.832
3889.066
3873.622
3853.171
3832.52
3811.154
3797.975
3796.49
3800.385
3809.535
3820.766
3825.257
3827.212
3826.892
3836.884
3852.335
3868.478
3883.003
3895.003
3905.839
3916.131
3925.809
3934.933
3943.901
3952.965
3962.267
3972.021
3982.584
3994.208
4006.954
4020.711
4035.233
4050.216
4065.373
4080.451
4095.248
4109.645
4123.617
4137.198
4150.42
4163.257
4175.579
4187.168
4197.743
4207.071
4215.005
4221.717
4227.186
4231.351
4234.332
4236.585
4239.052
4241.549
4243.579
4244.931
4246.01
4247.211
4248.737
4250.698
4253.115
4255.827
4258.579
4261.208
4263.677
4266.028
4268.417
4271.092
4274.141
4277.611
4281.363
4285.242
4289.176
4293.174
4297.334
4301.795
4306.585
4311.62
4316.625
4321.362
4325.664
4329.529
4333.038
4336.316
4339.539
4342.668
4345.526
4347.996
4350.032
4351.533
4352.451
4353.088
4353.361
4353.88
4355.495
4357.89
4361.014
4364.739
4368.903
4373.237
4377.387
4381.172
4384.482
4387.402
4390.31
4393.135
4395.783
4398.091
4399.918
4401.328
4402.48
4403.451
4404.215
4404.805
4405.239
4405.522
4405.636
4405.535
4405.187
4404.579
4403.72
4402.631
4401.338
4399.851
4398.202
4396.442
4394.569
4392.558
4390.417
4388.191
4386.004
4383.889
4381.826
4379.584
4377.136
4374.764
4372.95
4371.642
4370.95
4370.871
4371.25
4372.01
4373.237
4374.696
4376.299
4377.892
4379.494
4381.141
4382.864
4384.55
4386.134
4387.627
4389.06
4390.452
4391.813
4393.159
4394.509
4395.882
4397.286
4398.724
4400.189
4401.675
4403.15
4404.587
4405.981
4407.31
4408.539
4409.639
4410.592
4411.39
4412.039
4412.566
4412.977
4413.206
4413.387
4413.658
4414.046
4414.57
4415.292
4415.815
4416.476
4417.217
4417.966
4418.683
4419.362
4420.009
4420.638
4421.233
4421.744
4422.145
4422.529
4422.889
4423.095
4422.979
4422.689
4422.303
4421.776
4420.967
4419.871
4418.546
4416.993
4415.188
4413.17
4411.018
4408.768
4406.444
4404.085
4401.717
4399.324
4396.853
4394.247
4391.471
4388.526
4385.44
4382.254
4378.992
4375.677
4372.326
4368.929
4365.468
4362.007
4358.516
4354.961
4351.304
4347.451
4343.41
4339.268
4335.013
4330.707
4326.388
4322.109
4317.902
4313.774
4309.67
4305.599
4301.569
4297.575
4293.612
4289.673
4285.75
4281.835
4277.929
4274.03
4270.142
4266.268
4262.419
4258.606
4254.844
4251.152
4247.552
4244.064
4240.711
4237.514
4234.492
4231.659
4229.034
4226.6
4224.384
4222.379
4220.576
4218.963
4217.526
4216.247
4215.107
4214.088
4213.169
4212.331
4211.556
4210.829
4210.136
4209.464
4208.798
4208.135
4207.466
4206.785
4206.087
4205.371
4204.632
4203.869
4203.081
4202.268
4201.428
4200.562
4199.67
4198.753
4197.81
4196.844
4195.854
4194.841
4193.806
4192.75
4191.673
4190.576
4189.457
4188.317
4187.157
4185.977
4184.779
4183.564
4182.334
4181.09
4179.838
4178.582
4177.336
4176.117
4174.949
4173.868
4172.914
4172.132
4171.552
4171.204
4171.018
2496.173
2431.609
2364.208
2290.228
2221.365
2162.726
2110.151
2063.081
2020.91
1980.012
1875.135
1839.474
1805.377
1772.512
1740.665
1709.958
1680.418
1652.022
1624.757
1600.135
1577.782
1558.213
1541.507
1528.235
1518.961
1514.192
1514.28
1520.147
1533.044
1554.078
1584.046
1623.131
1674.181
1737.118
1813.042
1902.295
2006.383
2127.074
2266.605
2423.418
2593.79
2775.04
2959.567
3139.756
3307.018
3450.044
3558.494
3624.335
3643.882
3616.931
3549.485
3447.09
3318.263
3167.543
2996.382
2807.479
2611.729
2416.375
2234.522
2076.069
1946.22
1850.253
1783.707
1736.115
1699.27
1672.495
1661.979
1671.342
1704.944
1763.338
1834.828
1910.079
1990.064
2077.885
2153.875
2183.503
2152.08
2070.654
1953.216
1795.807
1612.859
1457.689
1331.648
1234.323
1186.184
1222.24
1204.162
1270.594
1368.774
1496.247
1644.194
1798.448
1963.465
2131.05
2289.343
2424.745
2531.26
2609.972
2661.232
2679.556
2669.572
2626.194
2545.995
2440.584
2331.705
2225.088
2106.784
1973.471
1853.817
1775.597
1758.12
1791.705
1857.655
1946.195
2054.854
2179.055
2309.93
2444.929
2572.661
2680.615
2764.04
2831.196
2890.072
2942.877
2990.362
3032.753
3068.727
3096.2
3112.448
3115.764
3107.37
3091.519
3073.984
3059.394
3047.525
3028.395
2982.108
2899.755
2799.033
2689.865
2575.863
2477.693
2425.823
2406.706
2384.179
2392.28
2454.345
2560.49
2677.474
2788.996
2875.194
2944.437
3004.157
3058.137
3108.623
3156.882
3202.647
3247.316
3292.076
3337.043
3382.143
3426.694
3469.661
3510.085
3547.122
3580.006
3608.376
3632.607
3653.574
3671.866
3687.3
3698.699
3703.58
3700.771
3691.248
3676.544
3664.195
3663.079
3663.124
3655.986
3639.181
3619.709
3599.853
3584.644
3580.323
3585.736
3595.405
3597.936
3595.061
3586.651
3584.326
3585.742
3599.295
3615.628
3628.578
3640.503
3651.773
3662.481
3672.69
3681.824
3690.255
3698.389
3706.44
3714.699
3723.573
3733.537
3744.93
3757.832
3772.077
3787.305
3803.1
3819.063
3834.843
3850.183
3864.96
3879.197
3893.016
3906.546
3919.849
3932.799
3945.157
3956.467
3966.299
3974.393
3981.382
3986.87
3990.63
3993.153
3995.266
3997.404
3999.306
4000.584
4001.138
4001.367
4001.866
4002.97
4004.784
4007.279
4010.186
4013.119
4015.82
4018.218
4020.401
4022.664
4025.212
4028.07
4031.427
4035.284
4039.348
4043.403
4047.404
4051.497
4055.991
4060.995
4066.48
4071.915
4077.037
4081.542
4085.444
4088.914
4092.202
4095.466
4098.663
4101.621
4104.163
4106.276
4107.718
4108.319
4108.338
4107.827
4107.361
4108.648
4111.304
4114.746
4118.828
4123.562
4128.614
4133.37
4137.76
4141.583
4144.677
4147.227
4149.635
4152.536
4155.252
4157.102
4158.286
4159.178
4159.936
4160.615
4161.159
4161.546
4161.773
4161.845
4161.71
4161.31
4160.615
4159.625
4158.366
4156.908
4155.251
4153.434
4151.592
4149.722
4147.692
4145.435
4143.018
4140.806
4138.782
4137.111
4135.021
4132.381
4129.61
4127.8
4126.577
4126.137
4126.165
4126.575
4127.55
4128.878
4130.214
4131.521
4133.024
4134.69
4136.472
4138.271
4139.917
4141.436
4142.876
4144.264
4145.606
4146.901
4148.175
4149.467
4150.803
4152.192
4153.639
4155.139
4156.655
4158.159
4159.631
4161.071
4162.457
4163.746
4164.89
4165.866
4166.667
4167.295
4167.761
4168.071
4168.217
4168.316
4168.576
4169.032
4169.532
4170.069
4170.686
4171.434
4172.268
4173.096
4173.89
4174.687
4175.474
4176.186
4176.801
4177.271
4177.541
4177.979
4178.576
4179.087
4179.219
4179.025
4178.579
4177.96
4177.131
4175.941
4174.423
4172.669
4170.714
4168.574
4166.291
4163.905
4161.462
4159.007
4156.565
4154.108
4151.564
4148.863
4145.966
4142.871
4139.621
4136.266
4132.852
4129.424
4126.013
4122.631
4119.254
4115.845
4112.363
4108.796
4105.135
4101.436
4097.659
4093.77
4089.755
4085.587
4081.33
4077.089
4072.872
4068.707
4064.602
4060.547
4056.561
4052.582
4048.617
4044.665
4040.725
4036.789
4032.86
4028.94
4025.033
4021.142
4017.278
4013.452
4009.677
4005.973
4002.358
3998.854
3995.483
3992.265
3989.218
3986.358
3983.691
3981.247
3979.008
3976.977
3975.148
3973.51
3972.05
3970.75
3969.593
3968.558
3967.626
3966.777
3965.995
3965.264
3964.573
3963.907
3963.241
3962.587
3961.93
3961.264
3960.584
3959.886
3959.17
3958.431
3957.669
3956.882
3956.07
3955.231
3954.368
3953.479
3952.566
3951.63
3950.669
3949.686
3948.68
3947.653
3946.606
3945.54
3944.455
3943.351
3942.231
3941.095
3939.946
3938.787
3937.62
3936.451
3935.284
3934.128
3932.994
3931.899
3930.862
3929.911
3929.072
3928.38
3927.844
3927.497
3927.255
2218.588
2141.491
1993.886
1934.931
1879.411
1829.271
1783.657
1741.665
1702.42
1665.544
1630.78
1596.579
1563.313
1530.799
1499.115
1468.217
1438.203
1409.185
1381.301
1355.332
1332.156
1311.679
1293.829
1278.709
1266.559
1258.381
1255.109
1257.638
1267.061
1284.833
1311.938
1349.271
1397.596
1456.682
1527.034
1610.13
1709.124
1825.537
1959.734
2109.951
2272.133
2442.011
2612.766
2776.572
2924.847
3046.685
3131.438
3170.312
3162.508
3106.652
3008.23
2878.696
2734.892
2576.997
2403.147
2214.934
2032.363
1854.99
1683.015
1526.526
1407.793
1348.696
1319.991
1293.805
1271.749
1267.492
1285.84
1311.463
1360.722
1447.807
1546.455
1645.403
1761.862
1903.591
2029.966
2079.249
2046.639
1956.631
1802.609
1610.339
1402.974
1191.835
997.073
844.8857
740.4648
657.8714
714.6541
819.7031
935.1527
1110.271
1299.369
1474.603
1679.059
1886.836
2077.566
2240.288
2367.277
2460.764
2519.652
2542.248