/*--------------------------------*- C++ -*----------------------------------*\
| =========                 |                                                 |
| \\      /  F ield         | foam-extend: Open Source CFD                    |
|  \\    /   O peration     | Version:     3.1                                |
|   \\  /    A nd           | Web:         http://www.extend-project.de       |
|    \\/     M anipulation  |                                                 |
\*---------------------------------------------------------------------------*/
FoamFile
{
    version     2.0;
    format      ascii;
    class       volScalarField;
    location    "17";
    object      pd;
}
// * * * * * * * * * * * * * * * * * * * * * * * * * * * * * * * * * * * * * //

dimensions      [1 -1 -2 0 0 0 0];

internalField   nonuniform List<scalar> 
119952
(
5872.394
4999.949
4873.948
5033.669
5187.996
5146.412
5151.691
5168.478
5182.537
5195.338
5214.368
5240.223
5272.126
5301.99
5329.425
5353.97
5375.216
5391.726
5400.579
5381.07
5525.09
5442.818
5425.565
5599.271
5568.189
5587.796
5603.851
5651.592
5853.925
5862.834
4088.664
4120.311
4171.044
4233.926
4300.112
4367.441
4434.129
4498.496
4558.923
4600.794
4649.653
4694
4725.865
4749.864
4767.911
4781.411
4790.094
4795.519
4800.029
4807.477
4792.794
4773.856
4755.021
4731.106
4701.832
4667.783
4630.215
4592.053
4557.743
4523.113
4498.524
4491.92
4501.533
4526.751
4565.229
4615.036
4677.595
4777.25
4935.759
4890.575
4939.634
5027.25
5090.811
5127.614
5143.796
5165.271
5187.111
5208.367
5232.184
5258.902
5287.059
5314.135
5339.178
5361.668
5381.227
5397.545
5410.958
5424.038
5442.075
5457.646
5465.595
5501.521
5555.262
5566.669
5573.812
5581.093
5555.439
5428.21
5400.517
5414.588
5412.53
5411.063
5409.99
5409.92
5411.663
5415.011
5419.824
5425.96
5433.272
5441.595
5450.7
5460.31
5470.208
5480.275
5490.466
5500.761
5511.15
5521.64
5532.242
5543.001
5553.919
5565.059
5576.468
5588.174
5600.187
5612.493
5625.056
5637.821
5650.726
5663.698
5676.655
5689.514
5702.19
5714.599
5726.658
5738.286
5749.401
5759.928
5769.8
5778.921
5787.353
5794.874
5801.601
5807.488
5812.516
5816.847
5821.608
5826.987
5832.306
5834.726
5836.993
5839.269
5841.446
5843.836
5846.211
5848.631
5851.115
5853.651
5856.269
5858.979
5861.803
5864.761
5867.863
5871.108
5874.481
5877.969
5881.55
5885.208
5888.931
5892.711
5896.54
5900.405
5904.287
5908.158
5911.988
5915.748
5919.407
5922.939
5926.32
5929.54
5932.579
5935.422
5938.069
5940.523
5942.848
5945.024
5947.141
5949.268
5951.473
5953.768
5956.195
5958.747
5961.374
5963.982
5966.444
5968.458
5969.28
5977.137
5980.051
5981.546
5983.809
5985.048
5986.716
5988.123
5989.442
5990.583
5991.525
5992.252
5992.769
5993.089
5993.22
5993.172
5992.951
5992.565
5992.032
5991.352
5990.526
5989.562
5988.463
5987.22
5985.85
5984.32
5982.639
5980.816
5978.84
5976.686
5974.344
5971.758
5968.726
5965.222
5960.68
5954.236
5946.091
5953.268
5957.969
5961.051
5963.47
5965.562
5967.456
5969.22
5970.9
5972.525
5974.105
5975.656
5977.182
5978.689
5980.181
5981.66
5983.13
5984.592
5986.039
5987.491
5988.912
5990.356
5991.798
5993.232
5994.653
5996.054
5997.417
5998.738
6000.006
6001.213
6002.353
6003.424
6004.442
6005.378
6005.967
6020.755
6015.226
6007.377
6008.332
6009.132
6008.996
6009.224
6009.673
6010.107
6010.538
6011.021
6011.418
6011.883
6012.304
6012.691
6013.023
6013.294
6013.495
6013.618
6013.655
6013.594
6013.429
6013.148
6012.756
6012.247
6011.601
6010.808
6009.871
6008.758
6007.463
6005.923
6004.308
6001.801
5998.661
5996.577
5995.498
5994.055
5992.277
5990.218
5987.937
5985.474
5982.838
5980.002
5976.917
5973.482
5969.576
5964.846
5959.838
5955.168
5950.84
5946.627
5942.376
5937.929
5932.571
5926.321
5922.886
5918.833
5914.259
5909.956
5905.786
5901.726
5897.788
5893.911
5890.11
5886.337
5882.573
5878.817
5875.07
5871.325
5867.579
5863.84
5860.114
5856.409
5852.738
5849.133
5845.594
5842.153
5838.838
5835.672
5832.672
5829.852
5827.224
5824.796
5822.569
5820.543
5818.71
5817.061
5815.582
5814.258
5813.069
5811.997
5811.021
5810.122
5809.281
5808.482
5807.709
5806.949
5806.19
5805.424
5804.644
5803.846
5803.025
5802.179
5801.275
5800.393
5799.486
5798.543
5797.574
5796.582
5795.544
5794.519
5793.481
5792.405
5791.295
5790.217
5789.101
5787.965
5786.81
5785.628
5784.422
5783.205
5781.961
5780.694
5779.401
5778.07
5776.692
5775.254
5773.744
5772.13
5770.397
5768.54
5766.463
5764.08
5761.29
5757.876
5753.572
5749.116
5750.639
5771.731
3775.47
3770.187
3739.491
3693.966
3641.74
3586.833
3535.708
3494.462
3469.23
3434.491
3458.248
3486.696
3532.894
3592.746
3663.416
3740.61
3820.002
3898.633
4012.252
4076.092
4112.304
4155.288
4188.681
4211.328
4222.615
4222.719
4212.388
4192.857
4165.876
4124.367
4088.297
4053.894
4024.818
4005.884
4000.33
4009.53
4035.071
4078.782
4116.629
4171.435
4238.517
4307.792
4377.482
4445.708
4510.434
4570.292
4623.202
4670.039
4711.058
4743.82
4769.047
4788.358
4801.816
4809.486
4812.801
4812.426
4802.051
4787.783
4771.424
4749.472
4719.795
4683.306
4641.737
4597.225
4552.303
4510.691
4477.437
4458.759
4456.763
4472.801
4507.551
4557.982
4620.571
4693.469
4772.332
4848.216
4905.057
4953.626
5007.249
5058.499
5100.083
5132.751
5161.987
5190.808
5220.178
5250.34
5280.698
5310.133
5337.443
5362.145
5384.114
5403.479
5420.522
5436.129
5449.607
5463.387
5477.475
5492.71
5509.063
5528.048
5538.312
5535.886
5523.31
5497.199
5459.118
5429.273
5415.913
5410.271
5406.986
5405.217
5405.295
5407.961
5412.626
5418.659
5425.63
5433.619
5442.554
5452.387
5462.843
5473.537
5484.238
5494.878
5505.451
5515.984
5526.484
5536.981
5547.542
5558.304
5569.336
5580.698
5592.443
5604.589
5617.11
5629.95
5643.028
5656.249
5669.511
5682.713
5695.756
5708.553
5721.021
5733.08
5744.651
5755.65
5765.992
5775.601
5784.416
5792.355
5799.44
5805.669
5811.118
5815.939
5820.296
5824.37
5828.328
5831.909
5834.825
5837.323
5839.674
5841.957
5844.3
5846.748
5849.282
5851.848
5854.456
5857.125
5859.877
5862.734
5865.722
5868.863
5872.155
5875.595
5879.159
5882.839
5886.622
5890.499
5894.46
5898.49
5902.555
5906.609
5910.602
5914.495
5918.26
5921.876
5925.328
5928.601
5931.685
5934.569
5937.236
5939.667
5941.878
5943.923
5945.855
5947.78
5949.775
5951.894
5954.185
5956.68
5959.341
5962.127
5964.942
5967.819
5970.822
5974.448
5976.835
5980.242
5982.28
5984.345
5986.214
5987.873
5989.38
5990.688
5991.792
5992.696
5993.395
5993.888
5994.185
5994.293
5994.219
5993.965
5993.534
5992.933
5992.165
5991.235
5990.152
5988.921
5987.543
5986.021
5984.359
5982.56
5980.644
5978.604
5976.41
5974.024
5971.413
5968.522
5965.283
5961.727
5958.241
5956.03
5957.107
5959.898
5962.17
5964.24
5966.192
5968.015
5969.754
5971.438
5973.082
5974.696
5976.282
5977.841
5979.375
5980.884
5982.373
5983.843
5985.3
5986.745
5988.175
5989.607
5991.042
5992.473
5993.894
5995.298
5996.676
5998.016
5999.307
6000.537
6001.699
6002.788
6003.806
6004.761
6005.691
6006.754
6009.984
6012.367
6011.088
6009.357
6008.985
6009.253
6009.64
6010.036
6010.484
6010.945
6011.414
6011.885
6012.336
6012.804
6013.208
6013.557
6013.842
6014.054
6014.176
6014.192
6014.086
6013.85
6013.505
6012.988
6012.331
6011.537
6010.565
6009.42
6008.079
6006.631
6004.871
6002.876
6000.811
5998.458
5996.331
5994.605
5992.84
5990.883
5988.732
5986.393
5983.891
5981.257
5978.426
5975.337
5971.881
5968.011
5963.82
5959.536
5955.334
5951.217
5947.003
5942.619
5938.06
5933.364
5928.183
5922.739
5917.905
5913.628
5909.464
5905.312
5901.243
5897.279
5893.396
5889.549
5885.698
5881.925
5878.186
5874.468
5870.724
5866.975
5863.223
5859.484
5855.772
5852.115
5848.473
5844.911
5841.451
5838.113
5834.926
5831.897
5829.053
5826.402
5823.949
5821.697
5819.647
5817.793
5816.126
5814.632
5813.296
5812.101
5811.026
5810.053
5809.161
5808.333
5807.551
5806.8
5806.066
5805.338
5804.606
5803.863
5803.104
5802.324
5801.519
5800.691
5799.828
5798.944
5798.038
5797.104
5796.145
5795.166
5794.157
5793.125
5792.08
5791.013
5789.917
5788.809
5787.684
5786.538
5785.372
5784.129
5782.844
5781.602
5780.373
5779.143
5777.827
5776.451
5775.019
5773.52
5771.942
5770.26
5768.456
5766.497
5764.382
5762.095
5759.823
5757.916
5757.233
5758.071
5760.826
4304.473
4487.009
4682.883
4889.637
5100.192
5307.155
5507.12
5689.585
5844.808
5959.13
6028.268
6064.488
6056.895
6007.419
5918.052
5792.085
5636.363
5458.159
5270.188
5026.115
4830.152
4637.329
4460.089
4302.097
4165.124
4049.318
3954.241
3880.188
3829.439
3788.645
3766.335
3758.962
3761.204
3769.284
3779.141
3788.023
3794.122
3795.166
3776.884
3745.785
3705.436
3655.442
3599.209
3542.39
3491.82
3453.982
3434.783
3432.644
3450.228
3488.97
3541.362
3605.251
3679.059
3759.697
3844.315
3927.453
4039.74
4107.105
4154.771
4194.77
4225.177
4242.951
4246.825
4237.981
4217.041
4185.555
4146.181
4103.003
4059.202
4017.951
3984.823
3965.298
3963.16
3979.134
4011.593
4058.732
4117.211
4183.097
4254.633
4329.033
4402.86
4473.185
4538.18
4597.045
4649.67
4696.419
4736.198
4769.674
4796.869
4817.126
4830.354
4837.199
4837.494
4831.707
4820.787
4804.41
4783.226
4755.753
4720.238
4677.004
4627.619
4574.501
4520.913
4471.755
4432.413
4409.998
4407.8
4426.399
4467.72
4527.234
4596.897
4672.374
4749.516
4823.95
4887.239
4939.932
4991.007
5040.877
5085.292
5123.183
5157.191
5190.484
5224.027
5257.906
5291.543
5323.671
5353.033
5379.114
5401.888
5421.738
5439.063
5454.183
5467.423
5479.419
5490.425
5499.912
5508.439
5517.621
5521.461
5515.556
5503.803
5486.103
5460.356
5435.053
5418.481
5409.227
5403.551
5400.499
5400.256
5403.273
5408.613
5415.434
5422.901
5431.808
5441.572
5451.976
5463.075
5474.368
5485.47
5496.308
5506.924
5517.383
5527.78
5538.19
5548.678
5559.318
5570.229
5581.523
5593.278
5605.539
5618.273
5631.398
5644.806
5658.377
5671.985
5685.509
5698.838
5711.882
5724.565
5736.813
5748.545
5759.669
5770.087
5779.705
5788.445
5796.237
5803.077
5809.01
5814.133
5818.613
5822.589
5826.232
5829.537
5832.417
5835.101
5837.62
5839.955
5842.204
5844.544
5847.003
5849.544
5852.132
5854.749
5857.405
5860.119
5862.912
5865.874
5869.044
5872.393
5875.887
5879.514
5883.265
5887.135
5891.124
5895.234
5899.444
5903.704
5907.942
5912.083
5916.071
5919.88
5923.5
5926.925
5930.152
5933.175
5935.969
5938.51
5940.774
5942.765
5944.558
5946.233
5947.929
5949.753
5951.754
5954.006
5956.577
5959.417
5962.464
5965.592
5968.759
5971.891
5974.842
5977.531
5980.497
5983.227
5985.575
5987.591
5989.33
5990.834
5992.112
5993.192
5994.062
5994.732
5995.205
5995.499
5995.611
5995.535
5995.265
5994.803
5994.149
5993.307
5992.272
5991.068
5989.711
5988.203
5986.538
5984.734
5982.815
5980.799
5978.685
5976.452
5974.057
5971.519
5968.874
5966.227
5963.771
5961.84
5960.861
5961.105
5962.332
5963.966
5965.66
5967.334
5968.99
5970.637
5972.276
5973.906
5975.522
5977.117
5978.686
5980.224
5981.732
5983.214
5984.672
5986.117
5987.556
5988.989
5990.42
5991.855
5993.287
5994.708
5996.108
5997.481
5998.812
6000.079
6001.269
6002.386
6003.425
6004.37
6005.23
6005.997
6006.555
6006.531
6005.872
6005.667
6006.222
6007.149
6008.04
6008.8
6009.543
6010.27
6010.931
6011.56
6012.139
6012.693
6013.176
6013.644
6014.052
6014.386
6014.638
6014.794
6014.826
6014.709
6014.446
6014.052
6013.494
6012.758
6011.86
6010.798
6009.556
6008.106
6006.477
6004.69
6002.777
6000.677
5998.419
5996.297
5994.341
5992.316
5990.155
5987.874
5985.45
5982.842
5980.083
5977.184
5974.13
5970.834
5967.236
5963.36
5959.361
5955.323
5951.291
5947.177
5942.884
5938.385
5933.637
5928.947
5924.387
5919.78
5915.159
5910.652
5906.288
5902.063
5897.981
5894.022
5890.144
5886.297
5882.449
5878.646
5874.877
5871.104
5867.321
5863.541
5859.773
5856.029
5852.321
5848.656
5845.063
5841.565
5838.185
5834.94
5831.856
5828.947
5826.229
5823.712
5821.395
5819.282
5817.367
5815.644
5814.1
5812.721
5811.49
5810.386
5809.392
5808.488
5807.655
5806.875
5806.134
5805.416
5804.71
5804.006
5803.295
5802.572
5801.83
5801.067
5800.28
5799.464
5798.621
5797.753
5796.858
5795.937
5794.99
5794.017
5793.019
5792
5790.956
5789.889
5788.802
5787.696
5786.571
5785.426
5784.245
5782.992
5781.761
5780.542
5779.29
5777.98
5776.626
5775.227
5773.774
5772.258
5770.668
5768.999
5767.252
5765.451
5763.658
5762.001
5760.68
5759.91
5760.041
5761.036
3364.006
3376.942
3402.512
3432.862
3475.746
3537.537
3608.515
3695.214
3799.172
3898.013
4000.651
4128.422
4277.198
4444.143
4627.68
4820.214
5015.931
5211.243
5395.436
5561.991
5704.455
5820.034
5894.104
5921.733
5907.095
5851.474
5757.093
5627.979
5469.717
5291.927
5110.536
4826.012
4647.223
4478.432
4316.171
4172.25
4050.514
3949.675
3868.34
3806.193
3763.024
3738.072
3729.366
3733.355
3745.593
3763.204
3781.53
3795.814
3805.42
3803.829
3785.066
3748.539
3696.59
3631.546
3559.5
3489.073
3429.431
3387.777
3367.664
3370.66
3396.788
3444.521
3507.694
3585.309
3673.595
3768.9
3867.121
3965.58
4061.13
4137.138
4194.168
4237.962
4268.672
4283.856
4282.562
4265.88
4235.391
4193.408
4143.477
4089.485
4034.457
3981.971
3938.967
3913.816
3910.998
3929.757
3967.759
4021.831
4088.484
4164.012
4245.114
4328.062
4408.839
4484.166
4552.365
4613.011
4665.797
4713.57
4756.356
4792.509
4821.537
4843.393
4857.601
4863.926
4862.647
4854.747
4841.409
4823.09
4799.999
4770.426
4730.674
4679.929
4621.097
4557.178
4491.276
4429.25
4376.441
4343.528
4330.002
4325.877
4342.292
4437.836
4556.561
4649.054
4727.859
4801.081
4865.78
4922.741
4975.401
5024.921
5070.521
5111.217
5146.168
5183.692
5223.772
5261.938
5297.773
5331.566
5362.709
5390.703
5415.341
5436.655
5454.945
5470.589
5483.818
5494.472
5502.55
5507.931
5511.113
5513.055
5511.673
5505.022
5494.472
5479.825
5459.998
5438.647
5421.153
5408.075
5399.189
5394.304
5392.681
5395.751
5401.992
5409.564
5415.525
5425.492
5438.406
5450.898
5463.003
5475.07
5486.608
5497.614
5508.096
5518.013
5528.098
5538.386
5548.669
5559.015
5569.665
5580.801
5592.539
5604.913
5617.882
5631.343
5645.142
5659.121
5673.132
5687.029
5700.693
5714.042
5727.016
5739.558
5751.594
5763.016
5773.699
5783.524
5792.377
5800.158
5806.868
5812.566
5817.345
5821.343
5823.854
5826.642
5830.029
5833.741
5836.408
5838.482
5840.448
5842.519
5844.787
5847.238
5849.796
5852.358
5854.814
5857.415
5860.156
5862.976
5865.882
5869
5872.35
5875.875
5879.547
5883.361
5887.294
5891.367
5895.614
5900.018
5904.492
5908.927
5913.221
5917.304
5921.153
5924.768
5928.166
5931.371
5934.375
5937.137
5939.619
5941.768
5943.563
5945.086
5946.365
5947.625
5949.305
5951.236
5953.601
5956.335
5959.399
5962.714
5966.132
5969.513
5972.741
5975.765
5978.68
5981.688
5984.513
5986.954
5989.038
5990.804
5992.298
5993.487
5994.412
5995.273
5996.041
5996.588
5996.903
5997.021
5996.947
5996.665
5996.13
5995.437
5994.585
5993.551
5992.294
5990.85
5989.235
5987.465
5985.564
5983.538
5981.442
5979.303
5977.102
5974.783
5972.351
5969.876
5967.499
5965.42
5963.825
5962.935
5962.956
5963.769
5965.038
5966.501
5968.035
5969.609
5971.208
5972.822
5974.443
5976.061
5977.661
5979.226
5980.731
5982.227
5983.716
5985.181
5986.612
5988.034
5989.458
5990.888
5992.325
5993.762
5995.183
5996.552
5997.938
5999.293
6000.592
6001.786
6002.876
6003.855
6004.718
6005.466
6006.082
6006.586
6007.117
6007.739
6008.26
6008.592
6008.888
6009.265
6009.742
6010.318
6010.875
6011.495
6012.092
6012.673
6013.193
6013.691
6014.176
6014.621
6014.979
6015.261
6015.445
6015.485
6015.37
6015.106
6014.691
6014.081
6013.266
6012.279
6011.109
6009.746
6008.181
6006.231
6004.154
6002.199
6000.326
5998.23
5996.053
5993.903
5991.69
5989.34
5986.918
5984.367
5981.648
5978.758
5975.714
5972.558
5969.235
5965.672
5961.938
5958.177
5954.413
5950.612
5946.697
5942.635
5938.321
5933.838
5929.347
5924.797
5920.127
5915.5
5911.065
5906.806
5902.653
5898.586
5894.602
5890.682
5886.804
5882.951
5879.105
5875.268
5871.447
5867.63
5863.814
5860.009
5856.225
5852.476
5848.775
5845.144
5841.606
5838.184
5834.899
5831.774
5828.819
5826.054
5823.488
5821.129
5818.976
5817.027
5815.271
5813.7
5812.3
5811.052
5809.936
5808.934
5808.026
5807.193
5806.417
5805.683
5804.977
5804.286
5803.599
5802.908
5802.206
5801.489
5800.751
5799.99
5799.203
5798.39
5797.551
5796.685
5795.792
5794.872
5793.926
5792.955
5791.96
5790.941
5789.898
5788.834
5787.749
5786.644
5785.518
5784.371
5783.2
5781.998
5780.765
5779.505
5778.221
5776.908
5775.558
5774.168
5772.735
5771.258
5769.742
5768.201
5766.668
5765.196
5763.874
5762.804
5762.122
5761.916
5762.15
3546.514
3514.96
3490.043
3464.522
3438.57
3414.543
3395.668
3380.231
3369.328
3362.999
3362.331
3365.977
3377.973
3397.709
3425.42
3463.977
3524.159
3590.543
3666.919
3752.729
3849.583
3963.83
4096.85
4247.575
4415.299
4596.422
4787.508
4983.404
5178.335
5363.777
5527.297
5661.434
5760.287
5817.663
5829.818
5798.461
5727.429
5619.84
5480.637
5315.155
5128.062
4922.461
4704.871
4511.24
4341.62
4190.616
4061.078
3952.756
3862.645
3789.563
3734.817
3700.017
3684.286
3686.167
3703.286
3729.864
3759.436
3789.871
3819.873
3840.314
3842.637
3819.95
3773.186
3705.834
3621.508
3527.909
3436.943
3359.828
3305.287
3278.249
3278.554
3309.434
3363.27
3437.496
3528.319
3631.574
3743.044
3859.591
3974.793
4081.028
4170.207
4240.537
4293.046
4327.452
4342.91
4338.404
4314.347
4272.109
4215.552
4150.548
4082.159
4011.344
3940.994
3880.947
3843.285
3835.54
3856.13
3899.473
3961.821
4039.321
4127.616
4221.59
4316.409
4407.156
4489.099
4556.333
4614.627
4676.144
4733.126
4778.901
4816.554
4847.518
4870.973
4885.951
4891.987
4889.623
4880.14
4865.509
4847.007
4824.348
4794.445
4751.138
4691.255
4619.746
4540.916
4457.851
4378.422
4299.883
4239.091
4055.653
3777.116
4080.822
4407.668
4539.725
4627.925
4709.731
4782.956
4848.471
4906.972
4959.265
5007.067
5043.188
5080.102
5129.312
5181.851
5225.531
5265.328
5303.537
5339.36
5372.063
5401.852
5428.11
5450.458
5469.398
5485.475
5498.7
5508.602
5514.62
5516.795
5515.674
5512.147
5506.917
5499.754
5490.562
5478.558
5461.576
5440.866
5422.33
5406.063
5393.299
5384.489
5376.204
5360.018
5325.577
5350.764
5402.19
5425.432
5436.122
5448.415
5461.556
5473.805
5484.828
5496.36
5508.427
5519.172
5528.944
5538.542
5548.226
5558.132
5568.432
5579.355
5591.071
5603.626
5616.945
5630.865
5645.167
5659.642
5674.119
5688.433
5702.455
5716.121
5729.407
5742.287
5754.699
5766.52
5777.561
5787.663
5796.681
5804.462
5811.008
5815.543
5817.061
5820.724
5826.184
5830.578
5833.453
5835.638
5837.534
5839.244
5840.376
5841.685
5843.968
5847.067
5849.992
5852.662
5855.257
5857.778
5860.308
5862.905
5865.668
5868.768
5872.181
5875.455
5878.894
5882.856
5887.208
5891.512
5895.893
5900.477
5905.196
5909.876
5914.356
5918.538
5922.411
5926.007
5929.373
5932.565
5935.57
5938.313
5940.757
5942.683
5943.725
5944.964
5946.328
5947.564
5948.955
5950.734
5952.979
5955.852
5959.212
5962.901
5966.707
5970.409
5973.891
5977.117
5980.131
5983.049
5985.772
5988.221
5990.249
5991.374
5992.748
5994.4
5995.916
5996.792
5997.424
5997.906
5998.208
5998.024
5997.76
5997.565
5997.341
5996.695
5995.729
5994.552
5993.192
5991.661
5989.932
5988.031
5986.073
5984.067
5981.972
5979.824
5977.644
5975.412
5973.079
5970.683
5968.407
5966.488
5965.044
5964.194
5964.013
5964.286
5965.268
5966.827
5968.469
5970.041
5971.624
5973.229
5974.853
5976.469
5977.953
5979.361
5981.027
5982.675
5984.163
5985.573
5986.967
5988.359
5989.76
5991.176
5992.603
5993.991
5995.234
5996.712
5998.275
5999.717
6001.016
6002.217
6003.303
6004.257
6005.075
6005.756
6006.33
6006.832
6007.233
6007.52
6007.726
6007.954
6008.309
6008.724
6009.529
6010.211
6010.832
6011.486
6012.205
6012.966
6013.618
6014.178
6014.698
6015.147
6015.411
6015.697
6016.012
6016.262
6016.203
6015.912
6015.463
6014.812
6013.908
6012.744
6010.506
6008.432
6007.082
6006.307
6004.742
6002.639
6000.413
5998.148
5995.876
5993.585
5991.228
5988.742
5986.113
5983.336
5980.408
5977.373
5974.252
5971.058
5967.755
5964.306
5960.838
5957.265
5953.632
5949.889
5945.998
5941.979
5937.838
5933.601
5929.268
5924.879
5920.402
5915.96
5911.637
5907.442
5903.331
5899.275
5895.259
5891.281
5887.345
5883.437
5879.545
5875.664
5871.79
5867.925
5864.068
5860.225
5856.403
5852.617
5848.881
5845.215
5841.641
5838.181
5834.859
5831.694
5828.704
5825.901
5823.298
5820.901
5818.716
5816.737
5814.957
5813.363
5811.942
5810.679
5809.554
5808.545
5807.633
5806.799
5806.026
5805.297
5804.599
5803.918
5803.244
5802.568
5801.885
5801.187
5800.47
5799.732
5798.97
5798.184
5797.371
5796.531
5795.665
5794.773
5793.854
5792.909
5791.94
5790.946
5789.929
5788.889
5787.828
5786.746
5785.643
5784.518
5783.371
5782.198
5781.001
5779.779
5778.535
5777.268
5775.975
5774.657
5773.314
5771.952
5770.578
5769.212
5767.884
5766.636
5765.527
5764.626
5764.001
5763.679
5763.614
3948.237
3893.931
3847.096
3801.229
3761.358
3717.963
3681.673
3646.906
3613.728
3581.425
3550.596
3520.885
3492.574
3465.862
3440.277
3415.555
3396.763
3381.287
3369.677
3362.588
3360.577
3364.256
3374.507
3392.066
3417.342
3452.062
3493.191
3549.692
3617.341
3698.018
3792.38
3902.686
4029.703
4173.891
4334.573
4509.836
4699.609
4892.068
5082.022
5261.042
5417.755
5542.95
5629.457
5672.207
5669.409
5623.262
5539.559
5424.04
5280.423
5111.291
4919.374
4714.443
4509.316
4320.866
4154.532
4013.02
3900.375
3812.743
3741.571
3682.392
3637.674
3612.605
3609.477
3627.31
3662.683
3707.654
3756.306
3808.5
3862.538
3903.709
3914.712
3886.03
3824.363
3735.749
3620.456
3488.886
3363.689
3258.338
3190.255
3157.635
3146.86
3186.895
3249.782
3336.136
3443.495
3566.284
3697.136
3834.982
3973.179
4101.541
4211.28
4298.509
4362.794
4402.848
4421.37
4414.381
4381.85
4323.411
4245.76
4160.717
4074.373
3982.655
3885.954
3799.988
3744.424
3731.258
3756.704
3809.414
3882.665
3973.507
4077.956
4189.239
4300.026
4398.405
4446.282
4521.91
4625.284
4703.574
4757.264
4802.823
4842.654
4876.004
4901.358
4917.161
4922.666
4918.289
4906.538
4891.047
4874.201
4855.071
4827.045
4778.363
4698.227
4604.811
4515.843
4417.856
4308.809
4099.524
3609.191
3596.097
3640.098
3968.908
4381.588
4521.324
4616.307
4701.652
4776.531
4840.903
4896.722
4926.305
4936.513
4989.856
5071.414
5134.169
5180.634
5223.716
5265.944
5305.699
5343.884
5379.762
5411.822
5439.17
5462.421
5482.278
5499.19
5513.078
5523.141
5528.038
5527.497
5522.295
5513.396
5504.315
5492.974
5476.062
5468.031
5461.346
5441.405
5413.239
5389.366
5373.654
5303.488
5053.978
5039.844
5094.56
5329.343
5414.758
5418.258
5424.999
5425.928
5431.515
5459.455
5485.825
5499.747
5510.234
5519.92
5529.044
5538.012
5547.08
5556.385
5566.117
5576.504
5588.095
5600.935
5614.81
5629.356
5644.341
5659.498
5674.576
5689.373
5703.77
5717.742
5731.323
5744.545
5757.382
5769.704
5781.293
5791.866
5801.129
5807.813
5811.507
5817.394
5823.829
5828.024
5830.287
5832.62
5832.981
5831.084
5832.899
5837.547
5840.937
5842.784
5844.746
5847.156
5849.879
5852.67
5855.32
5857.789
5860.109
5862.042
5861.899
5864.728
5870.25
5875.284
5879.289
5883.182
5887.194
5891.426
5895.917
5900.71
5905.745
5910.75
5915.487
5919.788
5923.653
5927.161
5930.435
5933.626
5936.274
5937.402
5939.756
5942.844
5945.404
5946.541
5947.204
5947.484
5948.005
5949.62
5952.015
5955.139
5958.864
5963.028
5967.362
5971.512
5975.295
5978.596
5981.479
5984.166
5985.043
5985.183
5988.181
5992.316
5995.08
5996.378
5997.278
5996.743
5996.927
5997.887
5999.278
5999.701
5999.574
5999.205
5998.649
5997.812
5996.679
5995.305
5993.826
5992.263
5990.554
5988.682
5986.669
5984.529
5982.31
5980.128
5978.014
5975.951
5973.708
5971.26
5968.887
5967.05
5965.276
5961.8
5961.153
5962.481
5965.074
5967.167
5968.805
5970.419
5972.012
5973.598
5975.076
5975.861
5977.404
5979.605
5981.655
5983.168
5984.544
5985.849
5987.217
5988.616
5990.006
5991.407
5992.794
5993.93
5995.337
5996.817
5998.527
6000.084
6001.434
6002.664
6003.764
6004.717
6005.515
6006.164
6006.691
6007.102
6007.331
6007.512
6007.78
6008.161
6008.625
6008.917
6009.261
6010.04
6011.176
6012.073
6012.795
6013.471
6014.088
6014.473
6014.609
6015.131
6015.954
6016.603
6016.996
6017.203
6017.086
6016.791
6016.322
6014.074
6009.832
6008.92
6010.477
6010.734
6009.249
6007.275
6005.138
6002.892
6000.568
5998.209
5995.841
5993.445
5990.958
5988.342
5985.582
5982.649
5979.565
5976.379
5973.117
5969.8
5966.419
5962.92
5959.46
5956.076
5952.633
5949.086
5945.429
5941.576
5937.535
5933.393
5929.138
5924.832
5920.513
5916.231
5912.021
5907.896
5903.794
5899.724
5895.694
5891.7
5887.737
5883.795
5879.871
5875.958
5872.053
5868.155
5864.267
5860.393
5856.544
5852.731
5848.968
5845.275
5841.675
5838.188
5834.836
5831.639
5828.617
5825.784
5823.158
5820.72
5818.506
5816.503
5814.701
5813.088
5811.648
5810.366
5809.226
5808.207
5807.291
5806.456
5805.681
5804.954
5804.261
5803.589
5802.923
5802.26
5801.591
5800.91
5800.212
5799.496
5798.757
5797.994
5797.206
5796.393
5795.553
5794.687
5793.795
5792.878
5791.936
5790.969
5789.979
5788.966
5787.931
5786.875
5785.798
5784.701
5783.582
5782.442
5781.282
5780.102
5778.904
5777.689
5776.459
5775.215
5773.963
5772.707
5771.461
5770.242
5769.074
5767.993
5767.039
5766.257
5765.678
5765.329
5765.143
4244.422
4209.671
4142.27
4068.29
3999.427
3940.788
3888.214
3841.144
3798.973
3758.075
3714.51
3678.849
3644.752
3611.887
3580.04
3549.333
3519.793
3491.397
3464.132
3439.51
3417.157
3397.588
3380.882
3367.61
3358.336
3353.567
3353.655
3359.522
3372.419
3393.453
3423.421
3462.505
3513.556
3576.493
3652.417
3741.67
3845.758
3966.449
4105.98
4262.793
4433.165
4614.415
4798.942
4979.131
5146.393
5289.419
5397.869
5463.71
5483.257
5456.306
5388.86
5286.465
5157.638
5006.918
4835.757
4646.854
4451.103
4255.749
4073.89
3915.407
3785.524
3689.559
3623.036
3575.466
3538.617
3511.79
3501.091
3510.216
3543.754
3602.17
3673.787
3749.277
3829.358
3917.157
3992.938
4021.257
3988.133
3906.965
3789.464
3626.031
3387.557
3111.309
2974.739
2977.036
3007.009
3058.809
3040.618
3106.596
3204.138
3329.679
3474.066
3628.302
3798.857
3970.027
4128.649
4264.003
4370.328
4448.958
4500.355
4518.684
4508.417
4464.848
4384.855
4279.582
4170.633
4063.732
3944.772
3809.418
3689.01
3611.39
3595.067
3629.856
3696.49
3785.233
3893.932
4018.134
4148.65
4273.116
4299.398
4386.109
4528.844
4659.171
4729.04
4782.226
4829.704
4872.077
4908.019
4935.212
4949.736
4952.355
4944.765
4930.439
4913.322
4898.728
4886.783
4866.832
4799.194
4567.257
4397.67
4414.443
4377.403
4179.956
3552.597
3467.822
3579.494
4036.908
4179.44
4306.748
4446.225
4571.831
4688.802
4779.226
4842.68
4894.493
4916.524
4936.212
5007.244
5079.414
5130.864
5175.799
5219.052
5261.743
5305.901
5348.505
5386.356
5419.367
5447.748
5471.981
5492.948
5511.241
5526.675
5538.074
5542.954
5540.136
5530.376
5512.94
5482.417
5372.205
5314.625
5407.211
5467.002
5455.55
5423.008
5181.504
4999.91
5005.324
5014.993
5018.974
5255.137
5407.791
5392.295
5248.638
5223.203
5240.748
5384.641
5469.811
5490.764
5501.799
5512.007
5520.705
5524.43
5530.517
5540.605
5552.85
5562.857
5572.886
5584.236
5597.123
5611.412
5626.675
5642.474
5658.438
5674.218
5689.558
5704.335
5718.572
5732.391
5745.921
5759.224
5772.174
5784.528
5795.744
5804.697
5809.714
5815.953
5823.75
5828.339
5826.891
5808.253
5808.2
5821.086
5836.692
5840.177
5840.493
5840.948
5841.384
5842.186
5844.858
5848.859
5852.411
5855.179
5857.553
5859.177
5857.399
5858.796
5862.092
5868.896
5874.478
5878.688
5882.737
5886.718
5890.83
5895.354
5900.367
5905.852
5911.287
5916.407
5920.907
5924.758
5927.069
5926.59
5929.663
5935.373
5940.468
5943.42
5945.607
5947.083
5947.693
5947.713
5947.202
5946.736
5948.023
5950.679
5954.121
5958.203
5962.935
5967.979
5972.696
5976.74
5974.71
5966.991
5972.034
5982.708
5988.198
5988.898
5988.683
5989.867
5993.385
5998.174
5999.756
6000.113
6000.375
6000.817
6001.158
6001.07
6000.663
5999.806
5998.527
5997.387
5996.179
5994.613
5992.807
5990.966
5989.097
5987.066
5984.809
5982.391
5980.179
5978.15
5976.46
5974.288
5971.414
5968.231
5966.165
5964.95
5964.553
5964.581
5962.637
5953.73
5954.549
5958.108
5967.545
5971.518
5972.213
5971.595
5974.451
5978.181
5980.664
5982.232
5983.508
5984.757
5986.09
5987.477
5988.829
5990.176
5991.562
5992.945
5994.084
5995.627
5997.374
5998.984
6000.445
6001.832
6003.121
6004.265
6005.241
6006.042
6006.669
6007.135
6007.443
6007.574
6007.561
6007.044
6006.34
6007.419
6008.998
6010.011
6010.804
6011.639
6012.467
6013.216
6013.008
6012.283
6013.152
6015.139
6016.457
6016.851
6017.297
6017.873
6017.73
6011.431
6008.67
6010.238
6015.197
6015.725
6014.156
6012.663
6011.547
6010.025
6007.947
6005.666
6003.28
6000.836
5998.38
5995.914
5993.36
5990.81
5988.176
5985.332
5982.245
5978.996
5975.641
5972.227
5968.798
5965.374
5961.949
5958.572
5955.192
5951.734
5948.171
5944.51
5940.811
5937.034
5933.143
5929.128
5924.962
5920.705
5916.463
5912.246
5908.081
5903.976
5899.922
5895.936
5891.957
5887.992
5884.038
5880.095
5876.159
5872.233
5868.315
5864.407
5860.517
5856.653
5852.826
5849.051
5845.345
5841.73
5838.227
5834.857
5831.64
5828.593
5825.733
5823.065
5820.617
5818.377
5816.348
5814.522
5812.884
5811.419
5810.119
5808.961
5807.927
5806.999
5806.152
5805.37
5804.639
5803.948
5803.282
5802.616
5801.962
5801.303
5800.637
5799.958
5799.261
5798.545
5797.806
5797.044
5796.257
5795.445
5794.606
5793.743
5792.854
5791.941
5791.005
5790.044
5789.061
5788.055
5787.028
5785.981
5784.915
5783.83
5782.726
5781.606
5780.47
5779.321
5778.162
5776.995
5775.826
5774.659
5773.503
5772.37
5771.274
5770.237
5769.286
5768.447
5767.755
5767.219
5766.872
5766.63
4211.242
4164.804
4078.511
4019.556
3964.036
3913.896
3868.282
3826.29
3787.045
3750.169
3715.405
3681.204
3647.938
3615.424
3583.74
3552.842
3522.828
3493.81
3465.926
3439.957
3416.781
3396.304
3378.454
3363.334
3351.184
3343.006
3339.734
3342.263
3351.686
3369.458
3396.563
3433.896
3482.221
3541.306
3611.659
3694.755
3793.749
3910.162
4044.359
4194.576
4356.758
4526.636
4697.391
4861.197
5009.472
5131.31
5216.063
5254.937
5247.133
5191.277
5092.855
4963.321
4819.517
4661.621
4487.771
4299.554
4116.968
3939.492
3766.572
3604.655
3477.523
3418.482
3394.244
3374.078
3353.322
3347.556
3356.745
3362.776
3400.692
3489.278
3601.073
3720.541
3844.278
3984.753
4098.216
4091.921
4060.923
3993.652
3801.682
3467.604
2680.438
2437.039
2680.24
2870.978
2783.227
2696.838
2746.227
2794.117
2753.488
2899.17
3203.503
3526.38
3761.505
3969.866
4158.446
4315.273