/*--------------------------------*- C++ -*----------------------------------*\
| =========                 |                                                 |
| \\      /  F ield         | foam-extend: Open Source CFD                    |
|  \\    /   O peration     | Version:     3.1                                |
|   \\  /    A nd           | Web:         http://www.extend-project.de       |
|    \\/     M anipulation  |                                                 |
\*---------------------------------------------------------------------------*/
FoamFile
{
    version     2.0;
    format      ascii;
    class       volScalarField;
    location    "17.5";
    object      k;
}
// * * * * * * * * * * * * * * * * * * * * * * * * * * * * * * * * * * * * * //

dimensions      [0 2 -2 0 0 0 0];

internalField   nonuniform List<scalar> 
119952
(
0.04181009
0.03815468
0.03921297
0.04188375
0.04473995
0.04725822
0.05077429
0.05511549
0.06008417
0.0655496
0.07129965
0.07719234
0.08310103
0.08890159
0.09444865
0.09951082
0.1037619
0.106992
0.1092859
0.1111434
0.1151902
0.1127737
0.1117495
0.1125983
0.1058151
0.09878207
0.08976039
0.07473382
0.03990694
0.01759813
0.07392063
0.06874287
0.06520073
0.06302084
0.06193524
0.06170006
0.0620798
0.06287125
0.06399538
0.06549814
0.06581488
0.06945949
0.07461651
0.08009016
0.08534974
0.09014864
0.09440724
0.09812573
0.1012401
0.1140263
0.1154742
0.116098
0.1159937
0.1153831
0.1144559
0.1131878
0.1116715
0.1099728
0.1084718
0.1073265
0.1061942
0.1051081
0.1042169
0.1036054
0.1030747
0.1025568
0.1020758
0.1017035
0.1034965
0.1042263
0.1053631
0.1088105
0.1145598
0.122542
0.1326977
0.1450484
0.1591442
0.1742378
0.1896427
0.2048188
0.2193242
0.2326613
0.2440917
0.2526345
0.2575498
0.2588392
0.2574234
0.2548343
0.2524732
0.2499732
0.2466763
0.2429768
0.2378907
0.2288702
0.2160672
0.1987407
0.1733156
0.1529061
0.14119
0.1367756
0.1382182
0.142229
0.1442387
0.1420957
0.1365523
0.1292584
0.1215339
0.1141293
0.107263
0.1009099
0.09500157
0.08948285
0.08437587
0.07974314
0.0756701
0.07218922
0.06927177
0.06685678
0.06487025
0.06323572
0.06188303
0.06075115
0.05978823
0.05895263
0.05821084
0.05753592
0.05690634
0.05630525
0.05572002
0.05514175
0.05456484
0.0539865
0.05340641
0.05282624
0.05224917
0.05167936
0.05112167
0.05058027
0.05005832
0.04955797
0.04908031
0.04862541
0.04819192
0.04777816
0.04738277
0.04700108
0.04663696
0.0463103
0.04607134
0.04584095
0.04560306
0.04535539
0.04510064
0.04483997
0.04457148
0.04429807
0.04401994
0.04373637
0.04344561
0.04314496
0.04283104
0.04250025
0.04214903
0.04177545
0.04138483
0.04097774
0.0405514
0.04010677
0.0396459
0.03917566
0.03869938
0.03821725
0.03773479
0.03725895
0.03679618
0.03635144
0.03592816
0.03553006
0.03515992
0.03481827
0.03450476
0.03421857
0.03395834
0.0337243
0.03351456
0.03332591
0.03315655
0.03300554
0.03286904
0.03274466
0.03262877
0.03251819
0.03241289
0.03230985
0.03220499
0.03209188
0.03198002
0.03206701
0.03234107
0.03233434
0.03223672
0.03209117
0.03194432
0.03187793
0.03192512
0.03206607
0.03222623
0.03232755
0.03231375
0.0321593
0.03187071
0.03147444
0.03100947
0.03052408
0.03005539
0.02961107
0.02918266
0.02876323
0.02833335
0.02787869
0.02740928
0.0269486
0.0265038
0.02607682
0.02567263
0.02530039
0.02497059
0.02469285
0.02447535
0.0243243
0.02424386
0.02423049
0.0242201
0.02443059
0.0247971
0.02514703
0.02549995
0.02585472
0.02621048
0.02657505
0.02694982
0.02733344
0.02772166
0.02811013
0.02849469
0.02887286
0.02924472
0.02961195
0.02997737
0.03034509
0.03071878
0.03109775
0.03147285
0.03182544
0.03213253
0.03237767
0.03256158
0.03270779
0.03285486
0.03303366
0.0332503
0.03349224
0.03373441
0.03396176
0.03414921
0.03426501
0.03429726
0.03493175
0.03469464
0.034392
0.03394115
0.03341521
0.03284317
0.03227788
0.03188606
0.03238581
0.03408119
0.03624383
0.03822601
0.03975973
0.0408073
0.04134705
0.04134073
0.04076278
0.03964869
0.03810649
0.03628912
0.03440806
0.03263161
0.03106843
0.0297559
0.02865709
0.02772523
0.02691543
0.02619533
0.02554622
0.02495929
0.02442864
0.02394797
0.02351199
0.02311495
0.02275274
0.02242594
0.02213515
0.02187723
0.02164646
0.0214367
0.02124425
0.02106715
0.02090353
0.02075193
0.02061329
0.02048574
0.02035629
0.02022598
0.02009621
0.01996505
0.01983105
0.01969396
0.01955466
0.01942761
0.01936414
0.0191756
0.01898239
0.01878538
0.01858688
0.01839034
0.01820278
0.01802535
0.01786526
0.01772793
0.01761605
0.01753137
0.01747451
0.01744497
0.01744129
0.01746139
0.01750273
0.01756249
0.01763765
0.01772498
0.01782101
0.01792211
0.01802472
0.01812563
0.01822237
0.01831339
0.01839808
0.01847653
0.01854922
0.01861665
0.01867897
0.01873587
0.01878687
0.01883204
0.01887248
0.01891043
0.01894885
0.01899035
0.01903616
0.01908592
0.01913824
0.01919161
0.01924495
0.0192978
0.01935012
0.01940213
0.01945415
0.01950672
0.01956069
0.01961727
0.01967782
0.01974355
0.01981508
0.01989209
0.01997332
0.02005676
0.02014034
0.02022256
0.02030307
0.02038277
0.02046323
0.02054558
0.02062967
0.0207141
0.02079691
0.02087618
0.02095051
0.02101908
0.02108153
0.02113763
0.02118725
0.02123044
0.02126726
0.02129731
0.02131557
0.02131569
0.0212948
0.02125349
0.02119345
0.02110664
0.02096428
0.02074802
0.02050729
0.02030296
0.02070539
0.1097268
0.1018187
0.101777
0.1047504
0.1086575
0.112467
0.1157957
0.1185464
0.1207934
0.1211475
0.1256155
0.1325609
0.1399573
0.146815
0.1528414
0.1578743
0.1620173
0.1653438
0.1885187
0.1889501
0.1893098
0.1892898
0.1891401
0.1890426
0.1890161
0.1890695
0.1891748
0.189264
0.1895679
0.1895859
0.1890671
0.1881914
0.1870251
0.185593
0.1839433
0.1821117
0.18012
0.1783776
0.1764801
0.1741142
0.1717076
0.1693894
0.1672389
0.1653607
0.1638285
0.1627338
0.1621481
0.1621123
0.1625962
0.1636522
0.1652184
0.1671829
0.1693877
0.1716223
0.173643
0.1752189
0.1891712
0.1889327
0.1881038
0.1867657
0.1849641
0.1827874
0.1803516
0.1778876
0.1752614
0.1722772
0.1689003
0.1651313
0.1610255
0.1567695
0.1526036
0.1487011
0.1451611
0.1419405
0.1394246
0.1380331
0.1380505
0.1403649
0.1456073
0.1541414
0.1661245
0.1812579
0.1987562
0.2176362
0.2370679
0.2565516
0.2757895
0.2945185
0.312093
0.3272635
0.3385749
0.3451407
0.3471333
0.3459547
0.3435945
0.3410522
0.3378032
0.3335876
0.3286652
0.32195
0.3118488
0.2976939
0.2789488
0.2579893
0.2376104
0.2183997
0.2004765
0.184482
0.1713158
0.1615306
0.1550465
0.151197
0.1489401
0.147147
0.1448199
0.141456
0.1369776
0.131498
0.1253145
0.1188867
0.1126067
0.1067554
0.1014959
0.09689391
0.09294648
0.08960004
0.08678477
0.08443914
0.08249391
0.08087213
0.07950492
0.07833387
0.07731044
0.07639496
0.0755556
0.07476749
0.07401181
0.07327485
0.0725473
0.0718235
0.0711011
0.07038055
0.06966402
0.06895475
0.06825665
0.06757378
0.06690979
0.06626763
0.06564946
0.06505666
0.06448991
0.06394962
0.06343735
0.06295602
0.06250631
0.06208492
0.0616887
0.06131842
0.06097297
0.06065057
0.06034934
0.06006664
0.0597995
0.0595445
0.05929734
0.05905287
0.05880517
0.05854788
0.05827448
0.05797846
0.05765414
0.05729776
0.05690717
0.05648039
0.0560154
0.05551047
0.05497002
0.05439906
0.05380385
0.05319283
0.052576
0.05195985
0.05135114
0.05075731
0.05018609
0.04964468
0.04913953
0.04867611
0.04825871
0.04789006
0.04757146
0.04730211
0.04707891
0.04689631
0.04674725
0.04662356
0.04651588
0.04641519
0.04631098
0.04619533
0.04605785
0.04589265
0.04568934
0.04545426
0.04461383
0.04351334
0.0426049
0.04178764
0.04099732
0.04020268
0.03940264
0.03861526
0.03786494
0.03717252
0.03655429
0.03602303
0.03558736
0.03525014
0.03500662
0.03484541
0.03474995
0.03470152
0.0346822
0.03467552
0.03466625
0.03463941
0.03457985
0.03447511
0.03431817
0.03410642
0.03384113
0.03352824
0.03317873
0.03280806
0.03243499
0.03208005
0.03176459
0.03150433
0.03130932
0.03119319
0.03118808
0.03131009
0.03154927
0.03190417
0.03237317
0.03295012
0.03362476
0.03438128
0.03519899
0.03605473
0.03692529
0.03779134
0.03864202
0.0394773
0.0403065
0.04114309
0.04199577
0.04285744
0.04369783
0.04446634
0.04511097
0.04560734
0.04598016
0.04630051
0.04665272
0.04708926
0.04760756
0.04816432
0.04868931
0.049102
0.04933257
0.0493346
0.04909526
0.04864499
0.05126891
0.05054524
0.04976902
0.04895489
0.04809307
0.04716133
0.04615087
0.04511818
0.04413879
0.04327424
0.0425211
0.04183649
0.04119374
0.04060298
0.04010694
0.03975208
0.03954733
0.03943927
0.03932515
0.03909466
0.03867447
0.03805272
0.03726912
0.03637995
0.03542784
0.03444679
0.03346834
0.03251744
0.03160567
0.03073795
0.02991758
0.02914696
0.02842752
0.02776095
0.02714818
0.02658715
0.02607403
0.02560377
0.02517154
0.02477308
0.02440361
0.02405884
0.02373475
0.02342831
0.02313676
0.02285772
0.02258845
0.02232934
0.02208146
0.02184646
0.02162535
0.02141848
0.02122847
0.02106149
0.02091514
0.02077574
0.02064814
0.02053977
0.02045292
0.02038815
0.02034816
0.0203351
0.02035002
0.02039376
0.02046677
0.02056888
0.0206991
0.02085555
0.02103569
0.02123645
0.02145449
0.02168613
0.02192736
0.02217381
0.02242089
0.02266408
0.02289936
0.02312356
0.02333474
0.02353224
0.02371643
0.02388844
0.02404959
0.02420091
0.02434292
0.0244759
0.02460045
0.02471811
0.02483164
0.02494453
0.02505983
0.02517885
0.02530103
0.02542468
0.025548
0.02566967
0.02578894
0.0259055
0.02601934
0.02613092
0.02624135
0.02635249
0.02646668
0.02658613
0.02671221
0.02684482
0.02698223
0.02712138
0.02725865
0.02739098
0.02751673
0.02763609
0.02775085
0.02786353
0.02797658
0.02809187
0.02821055
0.02833313
0.02845931
0.0285878
0.02871612
0.02884046
0.02895525
0.02905551
0.02913674
0.02919499
0.02922792
0.02923355
0.02920975
0.0291545
0.02906539
0.02893921
0.02877068
0.02855632
0.02830202
0.02802521
0.027744
0.02747246
0.02717201
0.0550245
0.06023047
0.06622422
0.07266232
0.07960499
0.08727891
0.09603665
0.1063741
0.1202136
0.1407063
0.2161267
0.2326509
0.2468573
0.2601684
0.2729705
0.284919
0.2962732
0.3070027
0.3174832
0.3826266
0.3936559
0.4002924
0.4041293
0.4061137
0.406792
0.4064158
0.4052835
0.4035521
0.4015584
0.3987257
0.3960609
0.3937639
0.3918184
0.3900563
0.38826
0.3862053
0.3837622
0.3811226
0.376878
0.372433
0.3678098
0.3631636
0.3585593
0.3540289
0.3496012
0.3452979
0.341125
0.3371294
0.3331344
0.329128
0.3251303
0.3211569
0.3172843
0.313575
0.3100482
0.3066872
0.3213515
0.3180403
0.3147508
0.3115701
0.3084875
0.3054785
0.3025251
0.2996186
0.2967864
0.2940321
0.2913269
0.2886736
0.2860045
0.2832095
0.2802113
0.2769799
0.2735316
0.2699151
0.2662572
0.2624915
0.258559
0.2544296
0.2501027
0.2456034
0.2410068
0.2364585
0.232264
0.2286307
0.2256814
0.2235508
0.2223508
0.2221396
0.2228878
0.2244573
0.2265743
0.2288414
0.2308777
0.23234
0.2328685
0.2325378
0.2314168
0.2295893
0.2271771
0.2243546
0.2213903
0.2181233
0.2144878
0.2104707
0.2060584
0.2012639
0.1961787
0.190958
0.1858019
0.1808945
0.1764241
0.1725048
0.1693062
0.1672566
0.1673533
0.1703955
0.1771205
0.187992
0.2029219
0.2210785
0.2413252
0.2626567
0.2844956
0.3066721
0.3291482
0.3518596
0.3739945
0.393843
0.4093709
0.4190336
0.4224835
0.4210751
0.4175873
0.4137723
0.4086721
0.4017222
0.3931228
0.3826018
0.3696326
0.3533507
0.3336626
0.3130444
0.2926277
0.2720159
0.2513231
0.2311772
0.2124586
0.195898
0.1819868
0.1708224
0.162143
0.1554543
0.1501479
0.1456011
0.1412773
0.1368091
0.132039
0.1269945
0.1218209
0.1167071
0.1118319
0.1073331
0.1032957
0.09975428
0.09670135
0.09409135
0.09187221
0.09000748
0.08843717
0.08709996
0.08594182
0.08491715
0.08398847
0.08312564
0.08230554
0.0815112
0.08073081
0.07995686
0.07918586
0.07841802
0.07765573
0.07690263
0.07616325
0.07544247
0.07474483
0.07407408
0.07343311
0.072824
0.07224824
0.071707
0.07120141
0.07073273
0.07030163
0.06990724
0.06954742
0.06922039
0.0689245
0.06865789
0.06841839
0.0682031
0.06800836
0.06782957
0.06766103
0.06749589
0.06732632
0.06714391
0.06694029
0.06670778
0.06644028
0.06613403
0.06578743
0.06540067
0.06497504
0.06451234
0.06401507
0.06348681
0.06293209
0.062356
0.06176417
0.06116687
0.06057543
0.06000087
0.0594533
0.05894068
0.05847023
0.05804847
0.05768076
0.05737089
0.05712074
0.0569296
0.05679426
0.05670868
0.0566654
0.05665473
0.05666692
0.05669032
0.05671425
0.05672649
0.05671638
0.05667165
0.05658108
0.05643043
0.05614385
0.05582271
0.05544589
0.05499997
0.0544751
0.05386667
0.05317392
0.05239851
0.05154412
0.05061702
0.04962731
0.0485895
0.04752264
0.04644975
0.04539603
0.04438477
0.04343484
0.04256022
0.04176998
0.04106844
0.04045555
0.0399271
0.0394754
0.03909015
0.03875936
0.03847063
0.03821258
0.03797635
0.03775694
0.03755409
0.03737269
0.03722232
0.03712634
0.03710972
0.03719123
0.0373911
0.03772943
0.03821879
0.03886578
0.03967554
0.04064731
0.04177269
0.0430343
0.04440607
0.04585438
0.04734008
0.04882419
0.05027721
0.05168708
0.05306048
0.05441572
0.05576801
0.05711163
0.05840839
0.05959257
0.06059724
0.06139245
0.0620123
0.06254879
0.06310661
0.06374387
0.06444679
0.06515849
0.0658018
0.06629848
0.06659551
0.06666361
0.06650351
0.06615674
0.0656918
0.06506177
0.06434007
0.06355593
0.06270652
0.06176234
0.06071086
0.05959472
0.05845993
0.05731488
0.05613869
0.0548831
0.05350905
0.05199616
0.0503551
0.04863448
0.04691147
0.04527275
0.04378937
0.0424944
0.04137219
0.04036922
0.03942996
0.03852974
0.03767179
0.03686059
0.03608694
0.03533171
0.0345774
0.03382322
0.03308136
0.0323619
0.03167079
0.03101491
0.0304002
0.02982988
0.02930502
0.02882372
0.02838311
0.02798052
0.0276113
0.02726904
0.02694788
0.0266427
0.02634915
0.0260637
0.02578366
0.02550722
0.02523394
0.02496472
0.02470131
0.02444572
0.02420075
0.02396895
0.02375357
0.02355804
0.0233867
0.02324321
0.02313029
0.02305027
0.02300604
0.0229997
0.02303275
0.02310667
0.02322223
0.02337908
0.02357575
0.02380965
0.02407721
0.02437417
0.02469581
0.02503709
0.02539264
0.02575668
0.02612312
0.02648591
0.02683952
0.0271795
0.02750287
0.02780837
0.02809638
0.02836856
0.02862725
0.02887461
0.02911198
0.02933985
0.02955833
0.02976796
0.02997037
0.03016861
0.03036636
0.03056588
0.03076648
0.03096527
0.03115907
0.03134573
0.03152424
0.03169427
0.03185575
0.03200894
0.03215494
0.03229617
0.03243632
0.03257949
0.03272873
0.03288494
0.03304622
0.03320829
0.03336562
0.03351318
0.03364808
0.03377062
0.03388405
0.03399346
0.03410413
0.03422056
0.03434624
0.03448365
0.03463409
0.03479688
0.03496826
0.0351392
0.03530063
0.03544512
0.03556586
0.03565702
0.0357147
0.03573701
0.03572483
0.03568045
0.03560632
0.03550245
0.0353659
0.03519146
0.03497894
0.03473336
0.03446303
0.03416608
0.03384191
0.03347423
0.04158108
0.04773369
0.05333593
0.08380137
0.1142165
0.1523836
0.1776447
0.2028951
0.226678
0.2491784
0.2693179
0.2869971
0.3041121
0.3214413
0.3386447
0.3553869
0.371868
0.3881826
0.4042639
0.4201196
0.4356127
0.4503125
0.4634628
0.4755514
0.4867451
0.4968612
0.5057601
0.5131114
0.5184995
0.5218958
0.5231059
0.5378586
0.5361713
0.5337634
0.5308776
0.5276708
0.5243126
0.520949
0.5176803
0.5145591
0.5116451
0.5088835
0.5062406
0.5036561
0.5010141
0.4980604
0.494474
0.4903555
0.4858551
0.4810701
0.4760518
0.4708969
0.4656264
0.4602468
0.4547681
0.4492207
0.4436626
0.4381693
0.4327904
0.4275364
0.4223804
0.4172572
0.412125
0.4070204
0.4020348
0.3972544
0.3926897
0.3882783
0.383773
0.379356
0.375036
0.3708386
0.3667872
0.3628814
0.359088
0.3553833
0.3517891
0.3483346
0.3450195
0.3418052
0.3385991
0.335279
0.3317425
0.3279626
0.3240762
0.3200809
0.3158321
0.3113039
0.3064599
0.3013048
0.2958926
0.2903095
0.2846642
0.2790628
0.2735554
0.2685081
0.264351
0.2613105
0.2595963
0.2593413
0.2605341
0.2629779
0.2662317
0.2696594
0.272611
0.2745726
0.27525
0.2746429
0.2728882
0.2701661
0.266714
0.262895
0.2588501
0.2544872
0.249815
0.2448421
0.2395833
0.2340788
0.2284119
0.2227036
0.2170983
0.21178
0.2069743
0.2029247
0.1999764
0.1985748
0.199855
0.2049316
0.2145325
0.2289406
0.2476516
0.2694249
0.2928814
0.3171727
0.3421846
0.3680212
0.3946864
0.4219603
0.4490846
0.4745713
0.4958635
0.5103925
0.5165634
0.5144782
0.5078006
0.5009277
0.4925455
0.4814202
0.4675597
0.4517842
0.4345944
0.4154375
0.3939656
0.3716519
0.34921
0.3263769
0.3033452
0.2806459
0.2588973
0.2386708
0.220393
0.2042566
0.1903165
0.1785192
0.168629
0.1602829
0.1530876
0.1466855
0.1407931
0.1352244
0.1298913
0.1247869
0.1199566
0.1154669
0.1113796
0.1077349
0.104545
0.1017938
0.09944176
0.09742705
0.09571528
0.09426003
0.09300475
0.0918999
0.09090408
0.08998372
0.08911281
0.08827125
0.08744527
0.08662763
0.0858149
0.08500753
0.08420862
0.08342324
0.08265755
0.08191778
0.08120952
0.08053739
0.07990487
0.07931453
0.07876816
0.07826701
0.07781195
0.07740354
0.07704196
0.07672629
0.0764543
0.07622326
0.07603042
0.07587291
0.07574739
0.07564963
0.07557431
0.07551482
0.07546319
0.07541009
0.07534514
0.07525759
0.07513733
0.07497576
0.07476698
0.07450866
0.07420158
0.07384844
0.07345282
0.07301866
0.07255052
0.07205378
0.07153474
0.07100061
0.0704596
0.06992077
0.06939369
0.06888813
0.06841393
0.06798135
0.06759921
0.06727425
0.06701143
0.06681372
0.06668183
0.06661362
0.06660418
0.06664617
0.06673077
0.06684848
0.06698995
0.06714343
0.06729627
0.067435
0.06754534
0.06761279
0.06762301
0.06756343
0.06741987
0.06718708
0.06686176
0.06644177
0.06592326
0.0653018
0.06457304
0.0637337
0.06278395
0.06172968
0.06058337
0.05936275
0.05808867
0.05678342
0.05546906
0.05416559
0.05289058
0.05165936
0.05048459
0.0493759
0.04834014
0.04738193
0.046504
0.04570733
0.04499115
0.04435395
0.04379429
0.04331134
0.04290545
0.04257869
0.04233521
0.04218194
0.04212802
0.04220521
0.04243612
0.04283692
0.04342326
0.04420802
0.04520009
0.04640294
0.04781156
0.04940962
0.05116939
0.05305316
0.05501385
0.05699685
0.05894658
0.060823
0.06261376
0.06433343
0.06601526
0.0676869
0.06933669
0.07089894
0.07227354
0.07337645
0.07419415
0.07480674
0.07536185
0.07599924
0.07676469
0.07759706
0.07839451
0.07904429
0.07947283
0.0796516
0.07957063
0.07925843
0.07878209
0.07818525
0.07751383
0.07680271
0.07605918
0.07525173
0.07432906
0.07327906
0.07213166
0.07090672
0.06959835
0.06818289
0.06662644
0.06489672
0.06297341
0.06086526
0.05861042
0.05626884
0.05391514
0.05162846
0.04948174
0.04752731
0.04578003
0.04421423
0.04279698
0.04151822
0.04037529
0.03935241
0.03842466
0.03756781
0.03676279
0.03599538
0.03526511
0.03458439
0.03395944
0.03338919
0.0328727
0.03240778
0.03199073
0.03161701
0.03128088
0.0309753
0.03069323
0.03042788
0.03017314
0.02992389
0.02967611
0.029427
0.02917485
0.02891923
0.0286609
0.0284017
0.02814443
0.02789265
0.02765071
0.02742354
0.02721609
0.02703303
0.02687895
0.02675852
0.02667632
0.02663663
0.02664317
0.02669903
0.02680631
0.02696561
0.02717587
0.02743445
0.02773727
0.02807924
0.02845461
0.02885722
0.02928052
0.02971751
0.03016073
0.03060256
0.03103587
0.03145474
0.03185514
0.03223528
0.03259568
0.03293876
0.03326813
0.03358759
0.03389998
0.03420627
0.0345061
0.03479883
0.03508439
0.03536388
0.03563998
0.03591593
0.03619232
0.03646516
0.03672854
0.03697798
0.03721166
0.03742966
0.0376324
0.03782001
0.03799297
0.03815333
0.03830568
0.03845673
0.03861317
0.03877893
0.0389533
0.03913091
0.0393031
0.03946065
0.03959685
0.03970986
0.03980365
0.03988679
0.0399697
0.0400618
0.04017035
0.04030082
0.04045728
0.04064149
0.04085018
0.04107152
0.04129389
0.04150351
0.04168647
0.04183157
0.04193124
0.04198199
0.04198511
0.04194818
0.04188203
0.0417953
0.04168961
0.04155982
0.04139708
0.0411967
0.04095696
0.04067887
0.04035392
0.03998314
0.0395839
0.02039906
0.02289108
0.0253443
0.0342176
0.04590836
0.06582748
0.07984494
0.09474099
0.1107492
0.1270336
0.1439171
0.1624519
0.1823197
0.2027261
0.2239854
0.2477781
0.2844231
0.3021311
0.3202303
0.3387111
0.3578391
0.3769273
0.395336
0.4125961
0.4290821
0.4450014
0.4604093
0.4752899
0.4895518
0.5030703
0.5157803
0.5273283
0.5374123
0.5451209
0.5509935
0.5551518
0.5570901
0.5569387
0.5549236
0.5514699
0.5472362
0.5421273
0.5349275
0.5285868
0.5228284
0.5175639
0.5129173
0.5090111
0.5059171
0.5036483
0.5021458
0.5013167
0.500982
0.5009688
0.5011063
0.5012337
0.5010117
0.5000612
0.4986157
0.4968168
0.4947677
0.4925105
0.4900677
0.4874316
0.4845718
0.4814549
0.4780811
0.4745072
0.4708316
0.4671504
0.4634997
0.4598286
0.4560297
0.452034
0.4478814
0.4437217
0.4396999
0.4358784
0.4321638
0.4284486
0.4246599
0.4207845
0.4168741
0.4130166
0.409249
0.4055308
0.4018325
0.3982027
0.3946974
0.3913139
0.3879951
0.384637
0.3811007
0.3772881
0.3732908
0.3689492
0.3642907
0.3593762
0.3541853
0.3486464
0.3427263
0.3364757
0.3300116
0.3234908
0.317093
0.3110027
0.3053712
0.300813
0.2978699
0.2968916
0.2981114
0.3015215
0.3067167
0.3128506
0.3187758
0.3233739
0.3259398
0.3263042
0.3246636
0.3213486
0.3167213
0.311198
0.3053674
0.2992273
0.2928679
0.2863631
0.2797589
0.2731013
0.2664469
0.2598715
0.2534832
0.2474181
0.2418701
0.2371116
0.233493
0.2315142
0.2318757
0.2356539
0.2443021
0.2585116
0.2782026
0.3021922
0.3286491
0.3559507
0.3835814
0.4119034
0.4413817
0.4716099
0.5022186
0.5336841
0.5662815
0.5970776
0.6211592
0.63399
0.6321274
0.6218635
0.610606
0.599071
0.5831841
0.5625833
0.5393598
0.5153866
0.4911335
0.4658404
0.4392658
0.4117687
0.3842419
0.3575877
0.3320802
0.3076952
0.2845858
0.2628931
0.2429161
0.2248714
0.2088614
0.1948305
0.1826333
0.1720497
0.1628183
0.1546823
0.1474197
0.14086
0.1348894
0.1294457
0.1245057
0.1200667
0.1161295
0.1126852
0.1097091
0.1071614
0.1049887
0.1031234
0.1015233
0.1001475
0.09894196
0.09786076
0.09686691
0.09593158
0.09503185
0.0941534
0.09328873
0.0924342
0.09159065
0.09076227
0.08995542
0.08917763
0.0884363
0.08773791
0.08708762
0.08648928
0.08594567
0.08545869
0.08502959
0.08465899
0.08434691
0.08409249
0.08389361
0.08374693
0.08364856
0.08359422
0.08357928
0.08359846
0.08364534
0.08371207
0.08378924
0.08386582
0.08392924
0.08396598
0.08396264
0.08390776
0.08379319
0.0836151
0.0833746
0.08307668
0.08272803
0.08233538
0.0819054
0.08144521
0.08096275
0.08046678
0.07996682
0.07947302
0.07899585
0.07854571
0.07813267
0.0777661
0.07745413
0.07720312
0.07701762
0.07690021
0.076851
0.0768674
0.07694447
0.07707536
0.07725201
0.07746575
0.07770763
0.07796906
0.07823886
0.07850246
0.07874369
0.07894465
0.07908695
0.07915355
0.07913127
0.07901203
0.07879294
0.0784737
0.07805202
0.07752074
0.07686948
0.07608812
0.07517061
0.07411953
0.07294896
0.07168283
0.07034872
0.0689702
0.0675636
0.0661399
0.06470937
0.06328292
0.06187193
0.06048747
0.05914015
0.05783986
0.05659566
0.05541556
0.05430699
0.0532771
0.05233347
0.05148423
0.0507382
0.05010488
0.04959439
0.04921761
0.04898635
0.04891297
0.04901285
0.04932679
0.04987318
0.05066788
0.05172334
0.05304663
0.05463612
0.05647742
0.0585418
0.06078911
0.06316957
0.06562115
0.06806894
0.07043571
0.07266711
0.07474805
0.07670144
0.07859246
0.08048449
0.08235704
0.08409621
0.08554872
0.0866147
0.08731705
0.08780602
0.08829704
0.08896104
0.08981366
0.09073881
0.09157388
0.09216639
0.09246411
0.0924573
0.0921568
0.09163284
0.0909695
0.09020352
0.08940984
0.08864196
0.0878882
0.08708323
0.08614102
0.08501518
0.08372644
0.08230384
0.08075656
0.07907492
0.07723918
0.07522345
0.07301367
0.07062497
0.06809409
0.0654693
0.06280842
0.06017728
0.0576466
0.05528272
0.05312765
0.0511769
0.04939604
0.04776505
0.04628224
0.0449407
0.04372505
0.04261866
0.04160761
0.04068119
0.03983057
0.03904586
0.03832857
0.03769207
0.03713536
0.0366503
0.03622801
0.03585937
0.03553523
0.03524612
0.03498264
0.03473615
0.03449925
0.034266
0.03403198
0.03379422
0.03355108
0.03330221
0.03304854
0.03279219
0.03253634
0.03228511
0.0320434
0.03181668
0.03161083
0.03143186
0.03128464
0.03117299
0.03110158
0.03107514
0.03109819
0.03117498
0.03130954
0.03150221
0.03175076
0.03205114
0.03239804
0.0327854
0.03320682
0.03365555
0.03412412
0.03460414
0.0350865
0.0355623
0.03602393
0.03646611
0.03688648
0.0372857
0.0376671
0.03803587
0.03839803
0.0387589
0.0391211
0.03948396
0.03984552
0.04020407
0.04055853
0.04090865
0.04125555
0.04160076
0.04194189
0.04227085
0.04257927
0.0428626
0.04312087
0.04335631
0.04357038
0.04376307
0.04393459
0.04408814
0.04423147
0.04437599
0.04453229
0.04470481
0.04488942
0.04507471
0.04524534
0.04538708
0.04549169
0.04555987
0.04560169
0.04563392
0.04567471
0.04573881
0.04583649
0.04597534
0.04616103
0.04639445
0.0466643
0.04695635
0.04725008
0.04752113
0.04774712
0.04791243
0.04800925
0.04803616
0.04800007
0.04791909
0.04781679
0.04771015
0.04760169
0.04748048
0.04732856
0.04713124
0.0468792
0.04656965
0.04619629
0.04576772
0.04532598
0.008634161
0.01005429
0.01116638
0.0166593
0.02302135
0.03144768
0.03841115
0.04632133
0.05492524
0.06410761
0.07419882
0.08610636
0.09917689
0.1137763
0.1312205
0.1580448
0.1726302
0.1880087
0.2037098
0.2196985
0.2359104
0.2522395
0.2685207
0.2846417
0.3004572
0.3158784
0.3309372
0.3471882
0.3636713
0.3806736
0.3982046
0.4158014
0.4325501
0.448543
0.4638032
0.4782986
0.4919579
0.5046406
0.5161702
0.5263248
0.5348645
0.5409032
0.5447407
0.5457854
0.5442954
0.5405746
0.5349
0.5276418
0.5192266
0.510152
0.5008265
0.4916776
0.4829568
0.4751157
0.4683671
0.4628405
0.4586905
0.4560495
0.4549949
0.4554748
0.4573407
0.4603208
0.4641456
0.4685034
0.4729911
0.4769681
0.4806361
0.483938
0.48692
0.4896245
0.4920471
0.4941405
0.4958495
0.4971289
0.4979274
0.4981859
0.4979017
0.4971717
0.4961594
0.4950262
0.493831
0.4924758
0.490777
0.4886224
0.4861017
0.483479
0.4810003
0.4787072
0.4764328
0.4739778
0.4712219
0.468161
0.4649152
0.4616479
0.4583997
0.4550834
0.4516708
0.4482755
0.4449822
0.4417663
0.4385021
0.4350021
0.4311038
0.4268722
0.4221504
0.4168652
0.4111555
0.4051783
0.3989674
0.3924434
0.3855469
0.3783375
0.3709826
0.3637126
0.356796
0.3505247
0.3452155
0.3412958
0.3399446
0.3417566
0.3471201
0.3558782
0.3669258
0.3783813
0.3880452
0.3942663
0.3965161
0.395183
0.3909557
0.3845079
0.376426
0.3673656
0.3579715
0.3482693
0.3384944
0.3288223
0.3193683
0.3102197
0.3014619
0.2931908
0.2855238
0.2786322
0.2727453
0.2681987
0.2654771
0.2652877
0.2685823
0.2765496
0.2909334
0.3122789
0.3396364
0.3704657
0.4019365
0.4327357
0.4630858
0.4940152
0.5261484
0.5585231
0.5905303
0.6258197
0.6661698
0.7069178
0.7378892
0.7581739
0.7667069
0.7643052
0.7561617
0.7488131
0.7314961
0.7025155
0.6690566
0.6329249
0.5970616
0.5618471
0.5258134
0.4891468
0.4531512
0.4194229
0.3880861
0.358784
0.3313657
0.3057166
0.2819823
0.2602719
0.240667
0.2232002
0.2077915
0.1942746
0.18244
0.1720677
0.1629439
0.1548789
0.1477172
0.1413425
0.1356741
0.1306581
0.1262543
0.1224241
0.119123
0.1162982
0.1138899
0.1118327
0.1100526
0.1085073
0.1071569
0.1059507
0.1048478
0.1038162
0.1028325
0.1018814
0.1009542
0.1000478
0.09916394
0.09830786
0.0974868
0.09670883
0.09598152
0.09531147
0.09470388
0.09416262
0.09369049
0.0932894
0.09296043
0.09270375
0.0925183
0.09240142
0.09234854
0.09235336
0.09240936
0.09251026
0.09264956
0.0928198
0.09301201
0.09321545
0.09341754
0.09360372
0.09375773
0.09386237
0.09390033
0.09385952
0.09373523
0.09352901
0.09324904
0.09290754
0.0925166
0.09208639
0.09162638
0.0911466
0.0906578
0.09017133
0.08969925
0.08925402
0.08884777
0.08849144
0.08819429
0.08796342
0.08780336
0.08771601
0.08770062
0.08775404
0.08787104
0.08804497
0.0882685
0.08853345
0.08883155
0.08915567
0.08950062
0.08985944
0.09021828
0.09056095
0.0908677
0.09111572
0.09128127
0.09134372
0.09129026
0.09111894
0.09083727
0.09045386
0.08996756
0.08936433
0.08862388
0.0877288
0.0866719
0.08546367
0.08413446
0.08272521
0.08128352
0.07983523
0.07838226
0.07691486
0.07542587
0.0739167
0.0723955
0.0708747
0.06936845
0.06789067
0.06645391
0.06506956
0.06374841
0.06250231
0.06134427
0.06028879
0.05935186
0.05855063
0.0579029
0.05742674
0.05714035
0.05706175
0.057207
0.05760966
0.0583061
0.05931536
0.06065155
0.06231913
0.06430734
0.06658604
0.0691101
0.07182903
0.07468602
0.0775997
0.08046769
0.08319335
0.08570337
0.0879702
0.09004696
0.09207578
0.0941604
0.09623904
0.0981046
0.0995286
0.100426
0.1008981
0.1011961
0.1015978
0.1022812
0.1032228
0.1042401
0.1050903
0.1055782
0.1056701
0.1053786
0.1047648
0.1039607
0.1030375
0.1020156
0.1009889
0.1000435
0.09916169
0.09825773
0.09719355
0.09587191
0.09432217
0.09261351
0.09077998
0.08882387
0.08672666
0.08446149
0.08202471
0.07944079
0.07674861
0.07399381
0.07122482
0.06848909
0.06583423
0.0633142
0.06098293
0.05886371
0.05692105
0.0551094
0.05341751
0.05184578
0.0503917
0.04905183
0.04782311
0.04670262
0.04568694
0.04477137
0.043949
0.04320846
0.04255344
0.04198783
0.04149998
0.04107782
0.04070911
0.04038172
0.0400843
0.03980701
0.03954183
0.03928264
0.03902498
0.03876583
0.03850346
0.03823756
0.0379692
0.03770076
0.03743573
0.03717853
0.03693433
0.03670881
0.03650805
0.03633646
0.03619832
0.03610043
0.036049
0.03604926
0.03610504
0.03621814
0.03638768
0.03661397
0.03689632
0.03722886
0.03760512
0.03801892
0.0384644
0.03893525
0.03942353
0.03991917
0.0404111
0.04088915
0.04134608
0.04177872
0.04218823
0.04257924
0.04295879
0.0433353
0.04371734
0.04411085
0.0445169
0.04493218
0.04535234
0.04577434
0.04619604
0.04661514
0.0470297
0.04743726
0.04783016
0.04819634
0.04852626
0.04881799
0.04907604
0.04930624
0.04951097
0.04968908
0.04983958
0.04996639
0.05008143
0.05020316
0.05034818
0.05052092
0.05071101
0.05089749
0.05105549
0.05116483
0.05121693
0.0512174
0.05118547
0.05114938
0.05113757
0.05117092
0.05126247
0.05142203
0.05165722
0.05196251
0.05232299
0.05271376
0.05310023
0.05344428
0.05371377
0.05388928
0.05396532
0.05394563
0.05384365
0.05369184
0.05353235
0.0533933
0.05327653
0.05316019
0.05301066
0.05279903
0.05250978
0.0521406
0.05169365
0.05118774
0.05068931
0.002100945
0.008187833
0.01221377
0.01687463
0.02207093
0.02802568
0.0348412
0.04234287
0.05076961
0.06094052
0.07628002
0.08560527
0.09574779
0.1064534
0.11777
0.1296463
0.1420211
0.1547887
0.1677938
0.1809054
0.1940971
0.2089827
0.224153
0.2394489
0.2547486
0.2699873
0.2850766
0.2999648
0.3146342
0.3289852
0.3431127
0.357231
0.3716977
0.386273
0.4009723
0.4157546
0.4302538
0.4443927
0.4581028
0.4712907
0.4837839
0.4953816
0.5056898
0.5143717
0.520468
0.5241627
0.5247985
0.5226248
0.5176375
0.5101646
0.50069
0.4897104
0.4777427
0.4653407
0.4530369
0.4413158
0.4306091
0.4212639
0.4135834
0.4078006
0.4041343
0.402751
0.4037654
0.4071876
0.4128646
0.4204778
0.4295211
0.4389396
0.4485823
0.4583171
0.467975
0.4773941
0.4864059
0.4949266
0.5029385
0.5104002