/*--------------------------------*- C++ -*----------------------------------*\
| =========                 |                                                 |
| \\      /  F ield         | foam-extend: Open Source CFD                    |
|  \\    /   O peration     | Version:     3.1                                |
|   \\  /    A nd           | Web:         http://www.extend-project.de       |
|    \\/     M anipulation  |                                                 |
\*---------------------------------------------------------------------------*/
FoamFile
{
    version     2.0;
    format      ascii;
    class       volScalarField;
    location    "17.5";
    object      nut;
}
// * * * * * * * * * * * * * * * * * * * * * * * * * * * * * * * * * * * * * //

dimensions      [0 2 -1 0 0 0 0];

internalField   nonuniform List<scalar> 
119952
(
4.942714e-05
3.104211e-05
3.222811e-05
3.766508e-05
4.225243e-05
4.15043e-05
4.148535e-05
4.200529e-05
4.270981e-05
4.347467e-05
4.41512e-05
4.467422e-05
4.500435e-05
4.510493e-05
4.494775e-05
4.451022e-05
4.377499e-05
4.287196e-05
4.184604e-05
4.072052e-05
5.158098e-05
4.947499e-05
4.829898e-05
6.169506e-05
5.954282e-05
5.740351e-05
5.515709e-05
5.128197e-05
3.814833e-05
2.736926e-05
3.046543e-05
3.248173e-05
3.63012e-05
4.039056e-05
4.486681e-05
4.977372e-05
5.515937e-05
6.090254e-05
6.695233e-05
7.702617e-05
0.0003285582
0.0004014779
0.0004837762
0.0005706039
0.0006588937
0.0007464703
0.0008316819
0.0009130837
0.0009885362
0.0014105
0.001480073
0.001539204
0.001586534
0.001621334
0.001643716
0.001652687
0.001648673
0.001632434
0.001608374
0.001582122
0.001553822
0.001519939
0.001486358
0.001464161
0.001452904
0.001463415
0.001509249
0.001594188
0.001682804
0.001864238
0.002044642
0.002280543
0.002568405
0.002904428
0.003286488
0.003708917
0.004153526
0.004596649
0.005018154
0.005404276
0.005745573
0.006032978
0.006254171
0.006392846
0.006436645
0.006387416
0.006267996
0.006117684
0.005976484
0.005827482
0.005662028
0.005460482
0.005132679
0.004578067
0.003841967
0.002919973
0.001960668
0.001454285
0.00123694
0.001140736
0.001115759
0.001065514
0.001061303
0.001106101
0.001176461
0.001262314
0.001357093
0.001450699
0.001527527
0.00157465
0.001606672
0.001623219
0.001626333
0.001619493
0.001607429
0.001594029
0.001581618
0.001571412
0.00156372
0.001558177
0.001554202
0.001551151
0.001548455
0.001545671
0.001542483
0.001538687
0.001534175
0.001528921
0.001522974
0.001516439
0.001509464
0.001502222
0.001494897
0.00148767
0.00148071
0.001474164
0.001468204
0.001462928
0.001458342
0.001454403
0.001451024
0.001448075
0.001445314
0.001442566
0.001439787
0.001436953
0.001434309
0.001429201
0.001423468
0.001416846
0.001409523
0.001401612
0.0013932
0.00138425
0.001374214
0.001362972
0.001350462
0.001336597
0.00132127
0.001304365
0.001285775
0.00126543
0.001243295
0.001219471
0.001194614
0.001169121
0.001142921
0.001116146
0.001089174
0.001062107
0.001035066
0.001008305
0.0009821362
0.0009569126
0.0009329582
0.0009105422
0.0008898232
0.0008709063
0.0008538748
0.0008386471
0.000825061
0.0008128915
0.0008018784
0.0007917556
0.0007822159
0.0007728571
0.0007633216
0.0007533622
0.0007427138
0.0007312287
0.0007188237
0.0007053324
0.0006908103
0.0006753172
0.0006588272
0.0006413922
0.0006243739
0.0004967986
0.0004692488
0.0004592256
0.00043143
0.0004102669
0.0003859948
0.0003630728
0.0003449359
0.0003325035
0.0003257299
0.0003229279
0.0003225349
0.0003234077
0.0003248216
0.0003264262
0.0003279388
0.0003292906
0.0003307938
0.0003326267
0.0003329807
0.0003332176
0.000332821
0.0003312917
0.0003285513
0.0003250619
0.0003210483
0.0003165726
0.0003117653
0.0003068093
0.0003019057
0.000297232
0.0002929404
0.0002891661
0.0002860859
0.0002841045
0.0002864649
0.0002950755
0.0003048561
0.0003144976
0.0003242052
0.0003338632
0.0003434994
0.000353124
0.0003626944
0.0003721188
0.0003812812
0.0003900955
0.0003985333
0.0004066426
0.0004145446
0.0004223925
0.0004303305
0.0004384502
0.0004467266
0.0004549325
0.000462607
0.0004691638
0.000474179
0.000477746
0.0004806463
0.0004841166
0.0004891867
0.0004960469
0.0005040673
0.0005121349
0.0005186887
0.0005225739
0.0005233511
0.0005206446
0.0005149278
0.0006500869
0.0006387783
0.0006314046
0.0006238829
0.0006147784
0.0005985006
0.0005671227
0.0005165627
0.0004800931
0.0004782172
0.0004726703
0.0004945773
0.000523085
0.000546605
0.0005652128
0.0005818102
0.0005992376
0.000618323
0.000637531
0.0006495909
0.0006559665
0.0006613234
0.0006673126
0.0006752016
0.0006840353
0.0006927611
0.0007005822
0.0007070414
0.0007119895
0.0007155027
0.0007177586
0.0007188876
0.0007189607
0.0007179911
0.0007161426
0.0007137722
0.0007111491
0.000708322
0.0007052006
0.0007017191
0.0006979428
0.0006939831
0.0006899083
0.0006857728
0.0006816829
0.0006776893
0.0006736116
0.0006698332
0.0006666126
0.0006640665
0.0006622867
0.0006613381
0.0006613005
0.0006626925
0.0006656145
0.0006675716
0.0006706338
0.0006747396
0.0006798561
0.0006860026
0.0006931202
0.0007010957
0.0007100248
0.0007198927
0.0007306108
0.0007420855
0.0007542106
0.0007668514
0.000779848
0.0007930299
0.0008062249
0.0008192619
0.0008319682
0.0008441664
0.0008556739
0.0008663143
0.0008759351
0.0008844354
0.0008917895
0.0008980526
0.0009033477
0.000907836
0.0009116767
0.0009149925
0.0009178489
0.0009202681
0.0009222878
0.000924024
0.0009256896
0.0009275732
0.0009299595
0.0009330219
0.0009367628
0.0009410428
0.0009456638
0.0009504479
0.0009552777
0.0009600967
0.0009648918
0.0009696785
0.0009744948
0.0009794031
0.000984488
0.0009898392
0.0009955195
0.001001525
0.001007757
0.001014012
0.001020007
0.001025435
0.001030041
0.001033696
0.001036448
0.001038513
0.001040173
0.001041653
0.001043079
0.00104451
0.001045993
0.001047596
0.001049399
0.001051454
0.001053734
0.001056111
0.001058362
0.001060204
0.001061362
0.00106154
0.001059472
0.001053481
0.001043304
0.001028683
0.001008071
0.0009779889
0.0009359175
0.0008883165
0.0008493216
0.0008243438
0.0007018674
4.523599e-05
4.881304e-05
5.527649e-05
6.324923e-05
7.203972e-05
8.112272e-05
9.022734e-05
9.921503e-05
0.000109024
0.0004164027
0.0005304099
0.0006540461
0.0007781545
0.0008971873
0.001009161
0.0011131
0.001209666
0.001299721
0.001875434
0.001967921
0.002064539
0.002160655
0.002255788
0.002349737
0.002441773
0.00253147
0.002618363
0.002702089
0.002781914
0.002854792
0.002919563
0.002977253
0.003027624
0.003070341
0.003105724
0.003134359
0.003157066
0.003164958
0.0031572
0.003153119
0.00315833
0.003174784
0.003204359
0.003248989
0.003310171
0.003389382
0.003487339
0.003603911
0.003737309
0.003886777
0.004049155
0.00421957
0.004391545
0.00455718
0.004707965
0.004835624
0.005724993
0.005773986
0.005793012
0.005784134
0.005748846
0.005689852
0.005612626
0.005528626
0.00542671
0.005295423
0.005136888
0.004958186
0.004769793
0.004587675
0.004429121
0.004306656
0.004224272
0.004171457
0.004163297
0.004221809
0.004355793
0.00458565
0.00492376
0.005372288
0.005923164
0.006551988
0.007220364
0.007887352
0.008521271
0.009106272
0.009634604
0.01
0.01
0.01
0.01
0.01
0.01000002
0.01000022
0.01000235
0.01001008
0.0100096
0.01000323
0.01000039
0.00995192
0.009340841
0.008507688
0.007426382
0.006270083
0.005255943
0.004432975
0.003772982
0.003255079
0.002870196
0.002607632
0.002451089
0.002379395
0.002370929
0.002406307
0.002444448
0.002488
0.002582555
0.002706494
0.002782188
0.002848546
0.002907154
0.002959205
0.00300626
0.003049782
0.003090851
0.003129442
0.003165575
0.003200337
0.003234128
0.003266227
0.003295933
0.003322656
0.003345966
0.003365625
0.003381593
0.003394026
0.003403254
0.003409754
0.00341411
0.003416967
0.003419001
0.003420874
0.003423177
0.003426407
0.003430955
0.003437097
0.003444997
0.003454716
0.003466236
0.003479482
0.003494338
0.003510674
0.003528396
0.003547435
0.003567594
0.003588517
0.003609913
0.003631661
0.003653563
0.003675398
0.003696933
0.003717892
0.00373797
0.003756822
0.003774047
0.003789194
0.003801774
0.003811287
0.003817242
0.003819184
0.003816714
0.003809497
0.00379732
0.003780011
0.003757189
0.003728087
0.003693357
0.00365398
0.003611082
0.003566029
0.003520324
0.00347482
0.003430341
0.003387767
0.003347947
0.003311612
0.00327935
0.003251569
0.003228495
0.003210157
0.003196348
0.003186581
0.003180144
0.00317607
0.003173261
0.003170488
0.00316648
0.003159972
0.003149689
0.003134505
0.003113256
0.003085178
0.00304938
0.003010266
0.002853949
0.002650373
0.002485564
0.002343048
0.002211588
0.002087305
0.001969842
0.001859991
0.001757959
0.001663238
0.001575566
0.001495427
0.001424008
0.001362774
0.001312909
0.001274997
0.001248891
0.001233778
0.00122843
0.001231451
0.001241439
0.001256996
0.001276804
0.001299784
0.001325123
0.001352181
0.001380479
0.001409749
0.001439956
0.001471279
0.001504089
0.001538827
0.001575938
0.001615978
0.001659497
0.001707386
0.001761093
0.001820886
0.001886323
0.001957422
0.00203398
0.002115503
0.002201123
0.002289494
0.002378881
0.002467387
0.002553189
0.002634901
0.002711907
0.002784484
0.002853612
0.002920513
0.002985892
0.003049004
0.003107022
0.003155299
0.003189053
0.003206073
0.003208972
0.003205413
0.003204931
0.00321381
0.003232146
0.003255557
0.003276453
0.003285968
0.003276461
0.003242543
0.003182002
0.003095949
0.003503031
0.003381133
0.003258859
0.003140422
0.003020414
0.002887869
0.002736648
0.002581753
0.002444678
0.002333076
0.002233127
0.002127968
0.002010217
0.001884452
0.001762734
0.001656997
0.001574266
0.001515811
0.00147896
0.001459571
0.001453575
0.001457593
0.001468986
0.001485394
0.00150436
0.001525148
0.001548288
0.001574467
0.001602759
0.001631962
0.001661156
0.001689646
0.001716943
0.001742761
0.001766913
0.001789205
0.001809428
0.001827294
0.001842526
0.001854955
0.001864436
0.001870831
0.001874048
0.001874115
0.001871125
0.00186528
0.001856855
0.001846438
0.001834662
0.001822287
0.001809996
0.001798562
0.001788823
0.001781702
0.001777482
0.001776188
0.001778612
0.001785348
0.001796691
0.001812857
0.001833999
0.001860189
0.00189139
0.00192747
0.001968212
0.002013301
0.002062313
0.002114728
0.002169955
0.002227353
0.002286247
0.002345922
0.002405624
0.002464566
0.002521962
0.002577073
0.002629272
0.002678105
0.002723344
0.002764978
0.002803169
0.002838182
0.002870289
0.002899691
0.002926498
0.002950794
0.002972752
0.002992734
0.003011326
0.003029233
0.003047044
0.003065019
0.003083075
0.003100932
0.003118292
0.003134939
0.003150752
0.003165677
0.003179709
0.003192916
0.003205466
0.003217646
0.003229819
0.003242324
0.003255347
0.003268822
0.003282389
0.003295442
0.003307271
0.003317254
0.003325034
0.003330612
0.003334293
0.003336537
0.003337793
0.003338426
0.003338726
0.003338963
0.003339392
0.003340208
0.00334145
0.003342858
0.003343698
0.003343164
0.003340246
0.003333739
0.003322732
0.003306242
0.003283356
0.003253438
0.003215957
0.003170015
0.003114043
0.00304747
0.002972967
0.002896868
0.00282344
0.002752432
0.002666795
3.460611e-05
4.327822e-05
5.662407e-05
7.297017e-05
9.316773e-05
0.0001185347
0.0001514452
0.000195159
0.0002581045
0.0003830205
0.001242269
0.001424878
0.001568271
0.00170317
0.001839484
0.001974523
0.002109442
0.002246108
0.002387824
0.004148595
0.004527737
0.004710062
0.004830333
0.004926629
0.005009803
0.005081694
0.005145693
0.005204212
0.005260578
0.005337252
0.005443389
0.005560717
0.005675941
0.005781753
0.005874962
0.005954061
0.006019265
0.006077028
0.006017145
0.00600081
0.006008509
0.006029981
0.006058594
0.006090322
0.006122969
0.006155387
0.006186701
0.00621652
0.006242996
0.006267249
0.006290674
0.00631475
0.006341084
0.006370291
0.006401751
0.006432998
0.007333306
0.007364979
0.007392632
0.007418867
0.007444215
0.007468614
0.007491973
0.007514332
0.007536057
0.007556481
0.007573891
0.007586889
0.007593048
0.00758982
0.007575843
0.007551188
0.007517149
0.007476048
0.007434514
0.007391718
0.007347196
0.007301501
0.007255895
0.00721217
0.007173142
0.007143864
0.00713614
0.007156059
0.007204651
0.007282474
0.007388976
0.00752161
0.007675253
0.007842156
0.008011491
0.008170555
0.00830894
0.008419929
0.008477947
0.008503409
0.008497443
0.008461823
0.008399273
0.008314396
0.008216083
0.00808904
0.007930832
0.007743862
0.007531487
0.007299142
0.007056256
0.006815956
0.006594009
0.006405069
0.00626229
0.006172208
0.006135826
0.006162357
0.006287161
0.006529217
0.006900543
0.007398055
0.007996585
0.008649326
0.009309194
0.009940538
0.01
0.01
0.01
0.01
0.01
0.01
0.01
0.01000002
0.01000028
0.01000336
0.01001897
0.01002821
0.01001588
0.01000263
0.0100001
0.01000001
0.01000001
0.01000001
0.01000001
0.009057954
0.008054382
0.007097719
0.006226499
0.005462674
0.004819433
0.004301102
0.003905989
0.003622341
0.003434074
0.00332449
0.003276943
0.003275706
0.003306835
0.003358921
0.003423546
0.003495021
0.003569906
0.00364634
0.003723471
0.003800964
0.003878644
0.003956191
0.004032963
0.004106951
0.004176813
0.004243772
0.004307045
0.004365544
0.004418422
0.004465116
0.004505353
0.004539152
0.004566812
0.004588882
0.004606121
0.004619439
0.004629864
0.004638468
0.00464628
0.004654242
0.004663168
0.004673716
0.004686372
0.004701457
0.004719152
0.004739522
0.004762554
0.004788185
0.00481632
0.004846849
0.00487961
0.004914363
0.004950836
0.004988783
0.005027953
0.005068079
0.005108855
0.005149927
0.005190876
0.005231211
0.005270356
0.005307652
0.005342379
0.005373789
0.005401164
0.005423866
0.005441403
0.005453461
0.005459873
0.005460572
0.005455526
0.005444737
0.005428345
0.005406629
0.005379964
0.005348718
0.005313305
0.005275272
0.005236387
0.005198324
0.005162566
0.005130185
0.005102107
0.00507914
0.005061903
0.005050767
0.005045813
0.005046714
0.0050528
0.005062973
0.005075967
0.00509019
0.005104049
0.005115721
0.0051235
0.0051256
0.005120339
0.00510604
0.005080847
0.005043305
0.004980681
0.00491288
0.004836293
0.004748738
0.004648861
0.004536547
0.004412354
0.004277068
0.004131558
0.003977066
0.003815697
0.003650705
0.0034864
0.003327689
0.003179318
0.003044981
0.002926986
0.002826306
0.002742818
0.002675661
0.002623563
0.0025851
0.002558895
0.002543703
0.002538443
0.002542249
0.002554491
0.002574781
0.002602948
0.002638982
0.002682933
0.002734697
0.002796253
0.002869858
0.002956413
0.003056856
0.003172055
0.003302322
0.003447531
0.00360734
0.003780807
0.003966253
0.00416113
0.00436208
0.00456512
0.004765933
0.004960452
0.005145699
0.005320397
0.00548502
0.00564113
0.005790073
0.005931411
0.006061877
0.006175667
0.006266581
0.006331243
0.006371964
0.006397289
0.006418844
0.006445348
0.006478289
0.006513462
0.006543197
0.006557963
0.006549877
0.006512965
0.00644395
0.006343844
0.006217938
0.00603843
0.005845979
0.005656272
0.00547734
0.005306833
0.005137072
0.004964953
0.00479377
0.004626406
0.004459565
0.004279947
0.004074421
0.003836001
0.003569165
0.003289459
0.003017092
0.002770327
0.002561217
0.002394855
0.002270635
0.002184147
0.002129287
0.002099941
0.002090608
0.002096371
0.002112728
0.002135396
0.002160425
0.002187505
0.002217976
0.002251972
0.00228867
0.002327499
0.002367993
0.002409652
0.00245191
0.002494111
0.002535625
0.002575882
0.002614154
0.002649637
0.002681622
0.002709498
0.002732782
0.002751134
0.002764395
0.002772595
0.002776029
0.002775221
0.002770901
0.002763932
0.00275535
0.002746242
0.00273775
0.002731099
0.00272749
0.002728016
0.002733632
0.002745202
0.002763505
0.002789142
0.002822551
0.002864016
0.002913608
0.002971163
0.003036282
0.003108346
0.00318656
0.003269998
0.003357649
0.003448426
0.003541168
0.003634634
0.003727539
0.003818623
0.003906742
0.00399097
0.004070673
0.004145547
0.004215606
0.004281108
0.004342449
0.004400011
0.004454026
0.00450458
0.004551708
0.004595534
0.004636417
0.004675013
0.00471214
0.00474841
0.004783913
0.004818285
0.004851022
0.004881735
0.004910225
0.004936424
0.004960322
0.00498196
0.005001498
0.005019297
0.005035939
0.005052117
0.005068426
0.005085149
0.005102114
0.005118695
0.005133953
0.005146902
0.005156814
0.005163441
0.005167072
0.005168379
0.005168144
0.005167049
0.00516562
0.005164284
0.005163421
0.005163322
0.005163969
0.005164458
0.005164099
0.005162574
0.005159141
0.005152658
0.005141804
0.005125171
0.00510162
0.00507054
0.005031992
0.004986265
0.004933401
0.004872825
0.004804823
0.004730259
0.004651627
0.004568066
0.004479392
0.004378671
4.040212e-05
6.680959e-05
0.0001459608
0.000504197
0.000877837
0.001610253
0.002167953
0.002848813
0.003627287
0.004277934
0.004764897
0.00516313
0.005545729
0.005909006
0.006265462
0.0065856
0.006882875
0.007161778
0.00742263
0.007676584
0.007930114
0.008177
0.008345258
0.008444749
0.008513471
0.008563043
0.008600021
0.008326619
0.008076409
0.007903799
0.008176753
0.007441893
0.007461843
0.007478866
0.00752758
0.007612093
0.007727117
0.007873615
0.008044785
0.008242657
0.008455659
0.00869627
0.008961938
0.009257566
0.009611269
0.009934513
0.01
0.01
0.01
0.01
0.01
0.01
0.01
0.01
0.01
0.01
0.01
0.01
0.01
0.01
0.01
0.01
0.01
0.01
0.01
0.01
0.01
0.01
0.01
0.01
0.01
0.01
0.01
0.01
0.01
0.01
0.01
0.01
0.01
0.01
0.01
0.01
0.01
0.01
0.01
0.009968145
0.009904592
0.009831729
0.009752438
0.009670866
0.009591582
0.00951911
0.009457547
0.009408923
0.009369031
0.00934793
0.009358433
0.009402913
0.009481847
0.009592651
0.00972892
0.009880817
0.01
0.01
0.01
0.01
0.01
0.01
0.01
0.01
0.01
0.01
0.01
0.009976594
0.009812494
0.009623147
0.009410863
0.00917964
0.008936161
0.008690001
0.008453225
0.008240672
0.008068684
0.007952045
0.007904129
0.007932533
0.008067132
0.008332543
0.008730845
0.009244347
0.009831566
0.01
0.01
0.01
0.01
0.01
0.01
0.01000004
0.01000009
0.01000013
0.01000033
0.01000141
0.01000555
0.01003237
0.0102517
0.01017847
0.01003108
0.01000221
0.01000024
0.01000029
0.0100003
0.01000024
0.01000011
0.01000003
0.01000006
0.009460285
0.008590563
0.007767773
0.00701698
0.006354223
0.005787406
0.005317662
0.00494354
0.004660629
0.004459258
0.004327201
0.004251648
0.004220583
0.004223577
0.004252159
0.00429982
0.00436179
0.004434679
0.004516054
0.004604052
0.004697044
0.004793394
0.004891259
0.004988418
0.005081287
0.005170036
0.005254216
0.005332309
0.005403189
0.005466151
0.005520889
0.00556749
0.005606351
0.005638185
0.005664003
0.005685007
0.005702502
0.005717811
0.005732223
0.005746922
0.005762915
0.005781007
0.005801793
0.005825674
0.005852896
0.005883578
0.005917745
0.005955354
0.005996304
0.006040443
0.006087537
0.006137287
0.006189374
0.006243469
0.006299222
0.006356237
0.006414048
0.006472101
0.006529744
0.006586214
0.006640651
0.006692126
0.006739697
0.006782497
0.006819805
0.006851134
0.006876279
0.006895261
0.006908226
0.006915371
0.006916916
0.006913145
0.006904431
0.006891243
0.006874158
0.006853911
0.006831432
0.006807805
0.006784239
0.006762055
0.006742775
0.006727742
0.006717987
0.006714276
0.006717081
0.006726531
0.006742304
0.006763645
0.006789392
0.00681815
0.006848377
0.006878551
0.006906843
0.006931371
0.006950214
0.006961429
0.006963061
0.006953158
0.006929973
0.006891249
0.006836504
0.006765583
0.006678744
0.006576099
0.006457731
0.006323648
0.006173756
0.006008172
0.005827625
0.005634159
0.005431363
0.005224181
0.005018299
0.004819304
0.004631926
0.004459635
0.004304536
0.004167465
0.004048267
0.003946167
0.003860117
0.003789044
0.003731988
0.003688163
0.003657116
0.003638725
0.003633162
0.003640824
0.003662244
0.003697936
0.003748237
0.003812704
0.003894652
0.00399646
0.004119262
0.004263954
0.00443096
0.004620098
0.004830439
0.005060033
0.005305698
0.005563113
0.005827056
0.006091628
0.00635066
0.006598392
0.006830842
0.007046668
0.007246971
0.007434486
0.007611633
0.007777957
0.00792904
0.008057865
0.008158271
0.00822868
0.008274329
0.008306498
0.008337938
0.00837586
0.008418391
0.008458606
0.008486927
0.008495142
0.008477893
0.008431112
0.008353126
0.008245685
0.008109314
0.007949567
0.007778188
0.007607524
0.007445447
0.007292337
0.007143864
0.006995077
0.006841388
0.006677929
0.006497331
0.006289195
0.006043382
0.005752671
0.005418853
0.005053945
0.004676526
0.004307533
0.003966283
0.003667775
0.003421112
0.0032288
0.003087185
0.002988893
0.002925571
0.002889332
0.002873368
0.002872245
0.002881837
0.002898909
0.002920259
0.002945376
0.002976213
0.003013438
0.003056388
0.003104369
0.003156551
0.003211977
0.003269641
0.00332846
0.003387223
0.00344468
0.003499621
0.003550935
0.003597663
0.003639029
0.003674482
0.003703705
0.003726657
0.003743576
0.003754982
0.003761647
0.003764579
0.003764995
0.003764271
0.003763851
0.003765161
0.003769636
0.003778681
0.003793638
0.003815748
0.003846093
0.003885571
0.003934817
0.00399413
0.004063424
0.004142249
0.004229841
0.004325203
0.004427183
0.004534525
0.004645877
0.004759773
0.004874633
0.004988831
0.00510082
0.005209263
0.005313166
0.005411938
0.005505426
0.005593843
0.005677653
0.005757431
0.005833658
0.005906528
0.005975993
0.006041942
0.006104355
0.006163432
0.006219689
0.00627386
0.00632639
0.006377006
0.006424969
0.006469581
0.006510472
0.006547576
0.006580949
0.006610647
0.006636761
0.006659575
0.006679706
0.006698117
0.006715886
0.006733832
0.006752197
0.006770535
0.006787803
0.00680266
0.006813886
0.006820775
0.006823382
0.006822499
0.006819342
0.006815139
0.006810855
0.006807207
0.00680478
0.006804052
0.006805017
0.006806571
0.00680856
0.006810425
0.006811093
0.006809194
0.006803212
0.006791627
0.006773113
0.006747012
0.00671359
0.006673819
0.006628746
0.006578981
0.00652442
0.006464913
0.006399886
0.006328885
0.00624902
0.006158572
0.006060002
2.211383e-05
3.605327e-05
5.490771e-05
0.0002386586
0.0003938223
0.0006792499
0.0009606884
0.001220862
0.001548341
0.001868404
0.002214941
0.002663115
0.003194036
0.003794937
0.004467432
0.005318661
0.006949807
0.00760571
0.008232999
0.008790659
0.009270542
0.009669739
0.01
0.01
0.01
0.01
0.01
0.01
0.01
0.01
0.01
0.01
0.009926207
0.00939247
0.008864616
0.008382049
0.007935577
0.007561721
0.007266472
0.007030664
0.00679599
0.006643119
0.006676078
0.006606547
0.006598829
0.006654869
0.006749517
0.006879792
0.007049707
0.007253976
0.007501311
0.00778066
0.008121374
0.008527898
0.009000151
0.009530409
0.01
0.01
0.01
0.01
0.01
0.01
0.01
0.01
0.01
0.01
0.01
0.01
0.01
0.01
0.01
0.01
0.01
0.01
0.01
0.01
0.01
0.01
0.01
0.01
0.01
0.01
0.01
0.01
0.01
0.01
0.01
0.01
0.01
0.01
0.01
0.01
0.01
0.01
0.01
0.01
0.01
0.01
0.01
0.01
0.01
0.01
0.01
0.01
0.01
0.01
0.01
0.01
0.01
0.01
0.01
0.01
0.01
0.01
0.01
0.01
0.01
0.01
0.01
0.01
0.01
0.01
0.01
0.01
0.01
0.01
0.01
0.01
0.01
0.01
0.01
0.009899027
0.009696661
0.009530217
0.009418443
0.009380828
0.009435226
0.009598664
0.009894652
0.01
0.01
0.01
0.01
0.01
0.01
0.01
0.01000001
0.01000032
0.01000341
0.01000664
0.0100049
0.01000609
0.01002244
0.0101707
0.01027364
0.01027364
0.01027364
0.0101426
0.0100227
0.01000748
0.01000641
0.01000523
0.01000356
0.01000142
0.01000024
0.01000105
0.01000546
0.01000597
0.009796156
0.009072689
0.008386065
0.00774606
0.007167512
0.006662742
0.006238632
0.005895945
0.005630979
0.005436291
0.005302406
0.005219596
0.005178828
0.00517224
0.005193295
0.005236709
0.005298236
0.005374379
0.005462082
0.005558497
0.005660833
0.005766286
0.005871929
0.005973863
0.006071051
0.006163125
0.006248469
0.006325949
0.006394926
0.006455228
0.006507024
0.006550939
0.00658793
0.006619167
0.006646003
0.006669882
0.006692255
0.006714493
0.006737801
0.006763181
0.006791406
0.006823039
0.006858462
0.006897905
0.006941475
0.006989175
0.007040915
0.007096507
0.007155655
0.007217974
0.007283048
0.007350433
0.007419663
0.007490215
0.007561488
0.007632774
0.007703257
0.007772004
0.007837977
0.007900077
0.007957231
0.008008525
0.008053315
0.008091294
0.008122525
0.00814735
0.00816622
0.00817958
0.008187864
0.008191555
0.008191211
0.008187476
0.00818108
0.00817285
0.008163699
0.008154617
0.008146668
0.008140963
0.008138595
0.008140528
0.008147556
0.00816025
0.008178859
0.008203249
0.008232911
0.008267018
0.008304506
0.008344147
0.008384575
0.008424416
0.008462125
0.00849591
0.008523919
0.008544227
0.008554878
0.008553987
0.008539913
0.008511371
0.008467601
0.008408308
0.008333363
0.00824241
0.008134786
0.008009607
0.007865929
0.007703289
0.00752211
0.007324375
0.007113773
0.006895251
0.006674311
0.006456346
0.006246223
0.006047804
0.005863702
0.005695324
0.005543109
0.005406843
0.005285962
0.005179759
0.005087645
0.005009332
0.004944941
0.004895009
0.004860448
0.004842444
0.004842327
0.004861421
0.004900879
0.004961351
0.00504308
0.005150623
0.005285531
0.005448736
0.005640466
0.005859994
0.006105324
0.006372905
0.006657619
0.006953257
0.007252938
0.007549198
0.0078344
0.008101681
0.008346711
0.008568584
0.008769127
0.00895308
0.009125467
0.009286077
0.009429178
0.009546753
0.009633548
0.009690753
0.009726684
0.009754359
0.009785991
0.009825554
0.009867995
0.009904279
0.009924329
0.009922833
0.009896821
0.009844036
0.009765025
0.009661801
0.009535297
0.009393717
0.009247784
0.009106794
0.008975525
0.008852302
0.008730657
0.008604277
0.008467149
0.008312984
0.008134663
0.007924301
0.007673568
0.0073762
0.007032577
0.006650278
0.006242538
0.005826856
0.005422746
0.005048948
0.004720821
0.0044482
0.004233506
0.004071739
0.003953641
0.003869671
0.003811968
0.003774691
0.003753722
0.003746187
0.003749966
0.003763284
0.003783952
0.003811824
0.003848937
0.003895193
0.00394939
0.004010172
0.00407609
0.004145611
0.004217107
0.004288905
0.004359387
0.00442708
0.004490714
0.004549246
0.004601883
0.004648089
0.004687607
0.004720482
0.004747068
0.004768016
0.00478426
0.004796982
0.004807569
0.004817567
0.004828623
0.004842187
0.00485949
0.004881909
0.004910815
0.004947537
0.004993363
0.005049527
0.005116473
0.005194053
0.005281686
0.005378456
0.005483239
0.005594799
0.005711818
0.005832859
0.005956312
0.006080413
0.006203376
0.006323578
0.006439741
0.006551057
0.006657216
0.006758373
0.006855044
0.006947958
0.007037865
0.007125226
0.007210038
0.007292028
0.007370887
0.00744639
0.007518463
0.007587292
0.007653299
0.007716581
0.007776433
0.007831871
0.007882227
0.007927373
0.007967543
0.008002987
0.00803382
0.00806015
0.008082368
0.008101384
0.008118609
0.008135534
0.008153102
0.008171316
0.008189241
0.008205278
0.008217671
0.008225081
0.00822702
0.008224056
0.008217679
0.008209791
0.00820209
0.008195791
0.008191754
0.008190678
0.008192905
0.008197377
0.008203816
0.00821142
0.008218708
0.008223805
0.00822484
0.008220147
0.00820831
0.008188409
0.008160637
0.008126462
0.008087895
0.008046551
0.008003097
0.007957086
0.007907452
0.007852488
0.007790256
0.007717539
0.007632728
0.007542454
1.994633e-05
3.076796e-05
6.100771e-05
0.0001855516
0.0002992355
0.0004783124
0.0006151426
0.0007710183
0.000955987
0.001136917
0.001349258
0.001624372
0.001938694
0.002312739
0.002798227
0.003738574
0.004186399
0.004667361
0.005173569
0.005703309
0.006261624
0.006839098
0.007419035
0.007986593
0.008524865
0.009023623
0.009496314
0.009995897
0.01
0.01
0.01
0.01
0.01
0.01
0.01
0.01
0.01
0.01
0.01
0.01
0.009881142
0.009346235
0.008801643
0.008286884
0.007796662
0.007365316
0.006990874
0.006675912
0.006422624
0.006220913
0.00607672
0.005978829
0.005933786
0.005910266
0.005940447
0.006040805
0.006201391
0.006420814
0.006696544
0.007037615
0.007458526
0.007980261
0.00858165
0.009269017
0.01
0.01
0.01
0.01
0.01
0.01
0.01
0.01
0.01
0.01
0.01
0.01
0.01
0.01
0.01
0.01
0.01
0.01
0.01
0.01
0.01
0.01
0.01
0.01
0.01
0.01
0.01
0.01
0.01
0.01
0.01
0.01
0.01
0.01
0.01
0.01
0.01
0.01
0.01
0.01
0.01
0.01
0.01
0.01
0.01
0.01
0.01
0.01
0.01
0.01
0.01
0.01
0.01
0.01
0.01
0.01
0.01
0.01
0.01
0.01
0.01
0.01
0.01
0.01
0.01000002
0.01000009
0.01000021
0.0100003
0.01000025
0.01000008
0.01000001
0.01
0.01
0.01
0.01
0.01
0.01
0.01000001
0.01000001
0.01
0.01
0.01
0.01
0.01
0.01
0.01
0.01
0.01
0.01
0.01
0.01000001
0.01000006
0.01000051
0.01000699
0.01005487
0.01010765
0.01006599
0.01004184
0.01017218
0.01026512
0.01027002
0.01020058
0.01020058
0.01032449
0.01067258
0.0105963
0.01040774
0.01020549
0.01005374
0.01000908
0.009630589
0.01000115
0.01000259
0.01000248
0.01000099
0.0100001
0.01
0.00948205
0.008879246
0.008319126
0.007816529
0.007382603
0.007021613
0.006732148
0.006509198
0.006345912
0.006234732
0.006168239
0.006139611
0.006142804
0.006172543
0.00622419
0.006293556
0.006376729
0.006469982
0.006569765
0.006672713
0.006775584
0.006874518
0.006968457
0.007056965
0.007138674
0.007212747
0.007278838
0.007337032
0.00738783
0.007432059
0.007470819
0.00750541
0.007537242
0.007567749
0.007598292
0.007630077
0.007664126
0.007701247
0.007742051
0.007786974
0.007836294
0.007890151
0.007948552
0.008011362
0.008078291
0.008148887
0.00822257
0.008298752
0.008376874
0.008456373
0.008536631
0.00861694
0.008696489
0.008774359
0.008849515
0.008920817
0.008987069
0.009047041
0.00909989
0.009145305
0.009183362
0.009214566
0.009239702
0.009259561
0.009274805
0.009286041
0.009293915
0.009299141
0.009302492
0.009304807
0.009306978
0.009309906
0.009314465
0.00932147
0.009331657
0.009345652
0.0093639
0.00938665
0.009413932
0.009445521
0.00948096
0.00951962
0.009560701
0.009603286
0.009646423
0.009689211
0.00973057
0.00976903
0.009803121
0.009831226
0.009851591
0.009862394
0.009861936
0.009848894
0.009822544
0.009782799
0.009729866
0.009663649
0.009583376
0.009487713
0.009375094
0.009244085
0.00909391
0.008924914
0.008738755
0.008539569
0.008332005
0.00812058
0.007909491
0.007702605
0.007503317
0.007314248
0.007137153
0.006972975
0.006821985
0.00668407
0.006558929
0.006446343
0.006346482
0.006259955
0.00618787
0.006131806
0.006093699
0.006075673
0.006079859
0.006108218
0.006162296
0.006242713
0.006351963
0.006493388
0.006667773
0.006874923
0.007113166
0.00737888
0.007666289
0.007968113
0.008276713
0.008584396
0.008882514
0.00916263
0.009418549
0.009646596
0.009846538
0.01000307
0.01000095
0.01000009
0.01000003
0.01000004
0.01000005
0.01000003
0.01000003
0.01000023
0.01000422
0.01001577
0.01001617
0.01000785
0.01000112
0.01000004
0.01
0.01
0.01
0.01
0.01
0.01
0.01000004
0.01000022
0.01000119
0.01000319
0.01000271
0.00991648
0.009802756
0.009674916
0.009528193
0.009356857
0.009154305
0.00891328
0.008629246
0.008302052
0.007936143
0.007540637
0.007128955
0.006717492
0.006323736
0.005964511
0.005653872
0.005399655
0.005199635
0.005044234
0.004923539
0.004830244
0.004759439
0.00470797
0.00467381
0.004655532
0.004651944
0.004661829