/*--------------------------------*- C++ -*----------------------------------*\
| =========                 |                                                 |
| \\      /  F ield         | foam-extend: Open Source CFD                    |
|  \\    /   O peration     | Version:     3.1                                |
|   \\  /    A nd           | Web:         http://www.extend-project.de       |
|    \\/     M anipulation  |                                                 |
\*---------------------------------------------------------------------------*/
FoamFile
{
    version     2.0;
    format      ascii;
    class       surfaceScalarField;
    location    "17.5";
    object      phi;
}
// * * * * * * * * * * * * * * * * * * * * * * * * * * * * * * * * * * * * * //

dimensions      [0 3 -1 0 0 0 0];

internalField   nonuniform List<scalar> 
275122
(
-0.0002248812
0.0002293537
-1.31583e-07
-4.340844e-06
-0.0002086507
0.0002014878
7.3021e-07
6.432681e-06
-0.0002153746
0.0002232013
-2.38388e-07
-7.588265e-06
-0.0002515195
0.0002611739
-2.00017e-07
-9.454356e-06
-0.0002878568
0.0002944787
-2.636479e-07
-6.358246e-06
-0.000306769
0.000309712
-2.299387e-07
-2.713064e-06
-0.0003185331
0.0003215461
-2.047609e-07
-2.808261e-06
-0.0003303032
0.000333068
-1.78639e-07
-2.586234e-06
-0.0003410904
0.0003437079
-1.523404e-07
-2.465192e-06
-0.0003514515
0.000353964
-1.283184e-07
-2.384256e-06
-0.0003612469
0.000363588
-1.065284e-07
-2.234481e-06
-0.0003703486
0.0003724951
-8.973536e-08
-2.056704e-06
-0.0003786726
0.0003805853
-7.332801e-08
-1.839408e-06
-0.0003860025
0.0003876629
-6.175374e-08
-1.598629e-06
-0.0003922912
0.0003936722
-4.948687e-08
-1.331537e-06
-0.000397299
0.0003982671
-3.979823e-08
-9.283693e-07
-0.0004003059
0.0004005853
-3.353237e-08
-2.45904e-07
-0.0003996835
0.0003989149
-3.708576e-08
8.057439e-07
-0.0003955826
0.0003943457
-1.085875e-07
1.345493e-06
-0.0003911723
0.0003917653
-5.45577e-07
-4.74657e-08
-0.0004343279
0.0004511188
-1.341287e-06
-1.544959e-05
-0.0004546233
0.0004532531
-2.563909e-07
1.626681e-06
-0.0004524179
0.0004537154
-1.431354e-07
-1.154344e-06
-0.0004978316
0.0005138255
3.514421e-07
-1.634535e-05
-0.0005089365
0.0005059012
6.452508e-07
2.39001e-06
-0.0004925613
0.0004867176
-9.271357e-08
5.936411e-06
-0.0004618316
0.0004506159
-1.132077e-07
1.132892e-05
-0.000397504
0.0003733818
1.719218e-06
2.240302e-05
-0.0002225721
0.0001693691
-5.228352e-06
5.843133e-05
-0.0001731899
0.000176709
4.046114e-09
-3.523075e-06
-0.0002131415
0.0002226873
-5.688425e-08
-9.488948e-06
-0.0002498682
0.0002589078
7.074859e-09
-9.046655e-06
-0.0002858647
0.0002947769
7.597236e-09
-8.919718e-06
-0.0003214919
0.0003304191
8.021953e-09
-8.935258e-06
-0.0003574384
0.0003665451
8.418533e-09
-9.115126e-06
-0.0003942298
0.0004035891
8.574906e-09
-9.367907e-06
-0.0004321296
0.0004418021
7.980743e-09
-9.680431e-06
-0.00047126
0.0004812543
7.885334e-09
-1.000225e-05
-0.0005120258
0.0005225023
7.11823e-09
-1.048363e-05
-0.0005544853
0.0005669488
1.682093e-07
-1.263175e-05
1.007201e-05
-0.0003873102
0.0003889601
1.739861e-10
-1.172202e-05
1.000061e-05
-0.0003957697
0.0003982004
-4.345307e-10
-1.243095e-05
1.07605e-05
-0.0004053421
0.0004078174
-6.10194e-10
-1.323515e-05
1.156751e-05
-0.0004150615
0.0004175328
-8.248037e-10
-1.403793e-05
1.238051e-05
-0.0004246882
0.0004270932
-1.000784e-09
-1.478444e-05
1.306338e-05
-0.0004340726
0.0004364106
-6.35486e-10
-1.540075e-05
1.358997e-05
-0.000443172
0.0004453993
-4.676752e-10
-1.58168e-05
1.383828e-05
-0.0004516503
0.000453752
-4.890029e-10
-1.593941e-05
1.452104e-05
-0.0004599454
0.0004605446
-7.44988e-10
-1.511952e-05
1.248472e-05
-0.001888752
0.00190394
3.91929e-10
-6.548638e-05
1.271139e-05
1.244112e-05
1.266088e-05
1.265751e-05
-0.001916823
0.001926792
1.63822e-10
-6.141252e-05
1.309458e-05
1.262662e-05
1.306468e-05
1.239081e-05
-0.001934693
0.001940483
1.1596e-10
-5.554922e-05
1.251078e-05
1.236683e-05
1.249107e-05
1.170424e-05
-0.001945412
0.00194823
6.652226e-12
-4.951716e-05
1.166995e-05
1.168042e-05
1.164514e-05
1.080241e-05
-0.001949968
0.001949459
-9.65633e-12
-4.264367e-05
1.079977e-05
1.078616e-05
1.076407e-05
9.798426e-06
-0.001947883
0.001944183
3.41315e-12
-3.53186e-05
9.731416e-06
9.778579e-06
9.710405e-06
8.585764e-06
-0.001939273
0.001932365
1.818302e-11
-2.71842e-05
8.480059e-06
8.565732e-06
8.461103e-06
7.203227e-06
-0.001924414
0.001914662
2.435888e-11
-1.887354e-05
7.12664e-06
7.185126e-06
7.110375e-06
5.743813e-06
-0.001903805
0.001890741
2.247286e-11
-1.023865e-05
5.921097e-06
5.729777e-06
5.90797e-06
3.486371e-06
-0.00187812
0.001866683
1.003191e-11
-2.791103e-06
3.638256e-06
3.477519e-06
3.625169e-06
2.632847e-06
-0.001851402
0.001834923
-1.872074e-11
6.695747e-06
2.267936e-06
2.62272e-06
2.259633e-06
9.200671e-07
-0.001818319
0.001801754
-5.137353e-11
1.35703e-05
5.846121e-07
9.125177e-07
5.769463e-07
-3.771346e-07
-0.00178478
0.001768054
-7.069003e-11
1.872962e-05
-6.14068e-07
-3.876224e-07
-6.246061e-07
-7.913042e-07
-0.001751089
0.001734309
-6.972773e-11
2.001141e-05
-8.133591e-07
-8.020244e-07
-8.24414e-07
8.780851e-08
-0.001717252
0.00170029
-6.406245e-11
1.617517e-05
3.181436e-07
7.364321e-08
3.074516e-07
2.236423e-06
-0.001682986
0.001665927
-7.468167e-11
7.318956e-06
2.648996e-06
2.220364e-06
2.63438e-06
5.211424e-06
-0.001648837
0.00163285
-3.561899e-11
-5.574477e-06
5.709685e-06
5.043025e-06
5.597225e-06
8.935891e-06
-0.001617305
0.001602686
-1.478299e-10
-2.120591e-05
9.49218e-06
8.410501e-06
8.985959e-06
1.457715e-05
-0.001586888
0.001566708
-2.850565e-10
-3.625062e-05
1.555318e-05
1.315068e-05
1.314966e-05
3.424523e-05
-0.00154956
0.001555211
-6.853711e-12
-3.989682e-05
3.914933e-05
-0.001565376
0.001568207
7.027527e-11
-4.198065e-05
6.047936e-05
-0.001568123
0.001571661
1.081152e-10
-6.401688e-05
6.404957e-05
-0.001577825
0.001587339
7.549378e-11
-7.356363e-05
6.113462e-05
-0.001598452
0.001613985
1.603793e-11
-7.666714e-05
5.539828e-05
-0.001633044
0.001655463
-4.011201e-11
-7.781761e-05
5.72895e-05
-0.00167873
0.001703839
-7.445342e-11
-8.239854e-05
5.955639e-05
-0.001729923
0.001757961
-8.695705e-11
-8.759418e-05
6.173622e-05
-0.001786845
0.001817191
-8.530213e-11
-9.208197e-05
6.344932e-05
-0.001848113
0.001880094
-7.7323e-11
-9.542939e-05
6.429783e-05
-0.001912502
0.001945648
-6.81127e-11
-9.744347e-05
6.457003e-05
-0.001979068
0.002013023
-5.86028e-11
-9.852427e-05
6.444907e-05
-0.002047212
0.002081879
-5.002798e-11
-9.91159e-05
6.392307e-05
-0.00211673
0.002151967
-4.291293e-11
-9.916024e-05
6.22608e-05
-0.002187304
0.002222623
-3.676416e-11
-9.75796e-05
5.78218e-05
-0.002257696
0.002291678
-3.095015e-11
-9.18042e-05
4.886343e-05
-0.002324633
0.002354998
-2.623451e-11
-7.922799e-05
3.548751e-05
-0.002383435
0.002407562
-2.591367e-11
-5.961512e-05
2.10409e-05
-0.002428497
0.002443611
-2.604634e-11
-3.615408e-05
1.053849e-05
-0.002454972
0.002459936
-2.669458e-11
-1.550239e-05
9.555274e-06
-0.002458061
0.0024533
-3.222093e-11
-4.79385e-06
-4.209873e-06
-0.00245366
0.002452722
-2.963902e-11
5.148763e-06
4.554226e-06
-0.002449616
0.002441126
-2.229069e-11
3.935455e-06
1.74485e-05
-0.00241902
0.002393234
-4.184532e-12
8.337262e-06
-2.836689e-05
-0.002372243
0.002352854
1.447398e-11
4.775621e-05
-7.380831e-05
-0.002335318
0.002310571
1.921679e-11
9.855572e-05
-0.000126272
-0.002282905
0.002257224
8.476282e-11
0.0001519527
-0.000185117
-0.002229382
0.002205112
1.206316e-10
0.000209387
-0.0002719215
-0.002201032
0.002200735
-9.878294e-11
0.0002722182
-5.384193e-05
-0.002189197
0.002151286
-2.799538e-10
0.0002495043
-5.166457e-05
-5.413303e-05
-5.19536e-05
-4.004117e-05
-0.002107791
0.00205042
-1.258993e-10
0.0002164319
-3.652936e-05
-4.281789e-05
-3.967219e-05
-2.923196e-05
-0.001985784
0.001915861
5.089301e-11
0.000188601
-2.773679e-05
-3.172805e-05
-2.998193e-05
-2.40351e-05
-0.001841996
0.00176567
3.724901e-10
0.0001727496
-2.335249e-05
-2.501469e-05
-2.402233e-05
-2.077203e-05
-0.001688226
0.001610546
6.06135e-10
0.000159889
-2.029646e-05
-2.086479e-05
-2.0276e-05
-1.767565e-05
-0.001534463
0.001461282
4.891531e-10
0.0001428346
-1.723768e-05
-1.759099e-05
-1.714937e-05
-1.448263e-05
-0.001392765
0.001329531
9.516071e-11
0.0001201654
-1.40027e-05
-1.445675e-05
-1.398918e-05
-1.125841e-05
-0.001272747
0.001222246
-3.926403e-10
9.457598e-05
-1.077654e-05
-1.125769e-05
-1.078102e-05
-8.36129e-06
-0.001178298
0.00114037
-6.497677e-10
7.056652e-05
-7.951817e-06
-8.364992e-06
-7.959033e-06
-5.980452e-06
-0.001107868
0.001080511
-6.506439e-10
5.059352e-05
-5.636467e-06
-5.980227e-06
-5.638492e-06
-4.040097e-06
-0.001057176
0.001038104
-4.939626e-10
3.46678e-05
-3.761537e-06
-4.036173e-06
-3.757496e-06
-2.498927e-06
-0.001021898
0.00100898
-2.979216e-10
2.249162e-05
-2.292197e-06
-2.496194e-06
-2.286133e-06
-1.409463e-06
-0.0009980911
0.0009896299
-1.506957e-10
1.382794e-05
-1.278738e-06
-1.405428e-06
-1.272987e-06
-6.981496e-07
-0.0009825535
0.0009771476
-5.816512e-11
8.043097e-06
-6.227825e-07
-6.960418e-07
-6.201182e-07
-3.01474e-07
-0.0009725966
0.0009691498
-6.210717e-12
4.584509e-06
-2.680278e-07
-3.009436e-07
-2.672187e-07
-1.199397e-07
-0.0009661605
0.0009639289
1.44308e-11
2.686557e-06
-1.071049e-07
-1.202961e-07
-1.076216e-07
-6.545969e-08
-0.0009619684
0.0009605204
2.655348e-11
1.709571e-06
-6.42171e-08
-6.663671e-08
-6.526746e-08
-6.437546e-08
-0.0009592668
0.0009584076
3.335398e-11
1.120547e-06
-6.528011e-08
-6.546854e-08
-6.624529e-08
-6.169757e-08
-0.0009577118
0.000957353
3.526885e-11
6.060058e-07
-6.061997e-08
-6.30321e-08
-6.187168e-08
-3.863538e-08
-0.0009571593
0.0009572554
3.108224e-11
5.250597e-08
-3.450787e-08
-3.989292e-08
-3.560169e-08
-1.542703e-09
-0.0009575077
0.00095805
2.547829e-11
-5.446028e-07
4.783695e-09
-3.417021e-09
2.42274e-09
4.601817e-08
-0.000958761
0.0009597617
2.21548e-11
-1.196118e-06
5.297294e-08
4.469688e-08
5.171084e-08
1.008856e-07
-0.0009609057
0.0009623214
1.903823e-11
-1.831346e-06
1.081549e-07
9.961729e-08
1.06953e-07
1.519993e-07
-0.0009638772
0.0009656658
1.703315e-11
-2.406313e-06
1.580444e-07
1.508059e-07
1.569187e-07
1.959814e-07
-0.0009675891
0.0009697175
1.9442e-11
-2.920397e-06
2.010571e-07
1.948819e-07
2.000457e-07
2.308884e-07
0.0009743786
2.019185e-11
-3.346574e-06
2.345696e-07
2.299418e-07
2.336726e-07
-0.0009719612
2.552856e-07
-0.0009768919
0.000979546
2.049526e-11
-3.677464e-06
2.573034e-07
2.543656e-07
2.564156e-07
2.684107e-07
-0.0009822767
0.0009851151
2.019165e-11
-3.911192e-06
2.688295e-07
2.675364e-07
2.680255e-07
2.702293e-07
-0.0009880112
0.0009909836
1.822173e-11
-4.049545e-06
2.689544e-07
2.695812e-07
2.683645e-07
2.612953e-07
-0.0009939961
0.0009970556
1.643775e-11
-4.098065e-06
2.584664e-07
2.607725e-07
2.579857e-07
2.427691e-07
-0.001000139
0.001003244
1.420998e-11
-4.06671e-06
2.386499e-07
2.423129e-07
2.382287e-07
2.163841e-07
-0.001006358
0.001009472
1.274931e-11
-3.968796e-06
2.112594e-07
2.160148e-07
2.108758e-07
1.844118e-07
-0.001012584
0.00101568
1.081607e-11
-3.82019e-06
1.784298e-07
1.839906e-07
1.780886e-07
1.488709e-07
-0.001018764
0.00102182
9.468105e-12
-3.638355e-06
1.425426e-07
1.486411e-07
1.423413e-07
1.124458e-07
-0.001024859
0.001027864
8.105619e-12
-3.441146e-06
1.05977e-07
1.122028e-07
1.057316e-07
7.686933e-08
-0.00103085
0.001033801
6.840316e-12
-3.246264e-06
7.103975e-08
7.657583e-08
7.076199e-08
4.426642e-08
-0.001036733
0.001039637
5.564079e-12
-3.069709e-06
3.926201e-08
4.398003e-08
3.899351e-08
1.651392e-08
-0.001042525
0.001045394
4.55566e-12
-2.926612e-06
1.244122e-08
1.625203e-08
1.219913e-08
-5.195336e-09
-0.001048256
0.001051112
3.888976e-12
-2.827523e-06
-8.605433e-09
-5.510412e-09
-8.951568e-09
-2.011638e-08
-0.001053968
0.001056833
3.330754e-12
-2.778299e-06
-2.270908e-08
-2.048748e-08
-2.308378e-08
-2.841058e-08
-0.001059707
0.001062606
2.900317e-12
-2.780746e-06
-3.01817e-08
-2.878881e-08
-3.053874e-08
-3.035144e-08
-0.001065524
0.001068482
2.577343e-12
-2.833673e-06
-3.130641e-08
-3.068281e-08
-3.166016e-08
-2.644365e-08
-0.001071467
0.001074507
2.361569e-12
-2.932566e-06
-2.678976e-08
-2.686502e-08
-2.722816e-08
-1.781888e-08
-0.001077583
0.001080725
2.281169e-12
-3.070363e-06
-1.754379e-08
-1.824417e-08
-1.793027e-08
-5.54523e-09
-0.001083908
0.00108717
2.331184e-12
-3.24114e-06
-4.838656e-09
-5.773905e-09
-5.046192e-09
1.056849e-08
-0.001090479
0.001093875
2.598631e-12
-3.440811e-06
1.220787e-08
1.03243e-08
1.194806e-08
3.005086e-08
-0.001097318
0.001100862
3.007514e-12
-3.671308e-06
3.398536e-08
2.97661e-08
3.366154e-08
5.593315e-08
-0.001104455
0.001108166
3.484873e-12
-3.958511e-06
6.840035e-08
5.564443e-08
6.799641e-08
1.112508e-07
-0.001111902
0.001115696
3.991526e-12
-4.349046e-06
1.664048e-07
1.110888e-07
1.657804e-07
2.468516e-07
-0.001119274
0.0011229
4.433563e-12
-4.8966e-06
3.891124e-07
2.470912e-07
3.873681e-07
4.80117e-07
-0.001127167
0.001130348
4.638052e-12
-4.905162e-06
3.762452e-07
4.863718e-07
3.816716e-07
1.376279e-07
-0.001134494
0.001138693
4.620491e-12
-4.791589e-06
1.53534e-07
1.427756e-07
1.585102e-07
1.307889e-07
-0.001142815
0.00114696
4.412475e-12
-4.692206e-06
1.38395e-07
1.353246e-07
1.426502e-07
1.046754e-07
-0.001151142
0.001155365
4.211274e-12
-4.648707e-06
1.042469e-07
1.084716e-07
1.082387e-07
7.291537e-08
-0.001159625
0.001163909
3.954895e-12
-4.583013e-06
7.375416e-08
7.599939e-08
7.670021e-08
4.128022e-08
-0.001168211
0.001172534
3.519125e-12
-4.489294e-06
3.952088e-08
4.369398e-08
4.180848e-08
4.902616e-09
-0.001176875
0.001181205
2.998632e-12
-4.346927e-06
1.846239e-09
7.120471e-09
3.061992e-09
-4.687244e-08
-0.001185551
0.00118989
2.722386e-12
-4.145495e-06
-5.221589e-08
-4.456922e-08
-4.998027e-08
-1.002471e-07
-0.001194229
0.001198546
2.666647e-12
-3.905616e-06
-1.070719e-07
-9.831381e-08
-1.051341e-07
-1.600277e-07
-0.001202854
0.001207124
2.380384e-12
-3.617818e-06
-1.677963e-07
-1.58283e-07
-1.661924e-07
-2.255906e-07
-0.001211378
0.001215578
2.165693e-12
-3.282714e-06
-2.34575e-07
-2.241631e-07
-2.332582e-07
-2.973568e-07
-0.001219752
0.001223859
2.206963e-12
-2.899576e-06
-3.07192e-07
-2.961983e-07
-3.060146e-07
-3.753008e-07
-0.00122793
0.001231918
2.561474e-12
-2.467281e-06
-3.860878e-07
-3.74188e-07
-3.850217e-07
-4.592337e-07
-0.00123586
0.001239705
2.354063e-12
-1.98642e-06
-4.709122e-07
-4.582065e-07
-4.699178e-07
-5.485817e-07
-0.001243495
0.001247173
1.749914e-12
-1.460867e-06
-5.611177e-07
-5.476431e-07
-5.601899e-07
-6.42888e-07
-0.001250786
0.001254273
2.016802e-12
-8.901972e-07
-6.563585e-07
-6.420427e-07
-6.555539e-07
-7.404614e-07
-0.001257682
0.00126095
1.365891e-12
-2.791769e-07
-7.542879e-07
-7.396968e-07
-7.535249e-07
-8.382107e-07
-0.001264114
0.001267165
4.672152e-13
3.259395e-07
-8.505214e-07
-8.374997e-07
-8.498023e-07
-9.322846e-07
-0.001270118
0.001272931
8.915154e-13
9.400864e-07
-9.449014e-07
-9.316223e-07
-9.442467e-07
-1.024039e-06
-0.001275647
0.001278227
-1.783606e-12
1.538088e-06
-1.035788e-06
-1.02344e-06
-1.035159e-06
-1.110476e-06
-0.001280718
0.001283086
3.974302e-13
2.095516e-06
-1.122115e-06
-1.10976e-06
-1.12138e-06
-1.1725e-06
-0.001285351
0.00128745
-1.58488e-12
2.620976e-06
-1.188105e-06
-1.172114e-06
-1.18778e-06
-1.250813e-06
-0.001289465
0.001291383
-5.000208e-12
3.105978e-06
-1.261582e-06
-1.250369e-06
-1.261049e-06
-1.321552e-06
-0.001293233
0.001294968
-4.043902e-12
3.563636e-06
-1.328317e-06
-1.321e-06
-1.327742e-06
-1.379786e-06
-0.001296628
0.001298182
-4.541772e-12
3.976841e-06
-1.386043e-06
-1.379187e-06
-1.385465e-06
-1.428506e-06
0.001301055
-5.365417e-12
4.33501e-06
-0.001299667
-1.43366e-06
-1.427947e-06
-1.433094e-06
-1.46468e-06
-0.001302381
0.001303624
-5.628333e-12
4.622211e-06
-1.468269e-06
-1.464254e-06
-1.467912e-06
-1.487678e-06
-0.001304813
0.001305929
-4.906585e-12
4.837751e-06
-1.489458e-06
-1.487281e-06
-1.489097e-06
-1.497659e-06
-0.001306996
0.001307996
-5.899357e-12
4.988529e-06
-1.497287e-06
-1.49719e-06
-1.49681e-06
-1.495993e-06
-0.001308951
0.001309854
-1.948758e-12
5.078525e-06
-1.49506e-06
-1.495642e-06
-1.494643e-06
-1.486639e-06
-0.001310728
0.001311564
3.997704e-12
5.102331e-06
-1.482944e-06
-1.486218e-06
-1.482497e-06
-1.465958e-06
-0.001312376
0.001313162
4.593107e-13
5.069039e-06
-1.4615e-06
-1.46558e-06
-1.46111e-06
-1.441513e-06
-0.001313933
0.00131469
-3.286557e-12
4.997054e-06
-1.435917e-06
-1.441225e-06
-1.435561e-06
-1.416568e-06
-0.001315444
0.001316195
2.8292e-12
4.899031e-06
-1.408773e-06
-1.416306e-06
-1.408445e-06
-1.393705e-06
-0.001316952
0.001317715
-4.003927e-12
4.794656e-06
-1.385295e-06
-1.393344e-06
-1.385198e-06
-1.373996e-06
-0.001318486
0.001319275
5.065073e-12
4.695578e-06
-1.36958e-06
-1.37295e-06
-1.368191e-06
-1.355296e-06
-0.001320089
0.001320926
-1.602329e-11
4.589629e-06
-1.357431e-06
-1.356209e-06
-1.357873e-06
-1.343559e-06
-0.001321781
0.001322646
-6.02228e-13
4.51105e-06
-1.343942e-06
-1.343601e-06
-1.344731e-06
-1.347e-06
-0.001323534
0.001324456
-6.952389e-11
4.479705e-06
-1.354342e-06
-1.346579e-06
-1.353833e-06
-1.367181e-06
-0.001325407
0.001326384
-6.987385e-12
4.480432e-06
-1.362016e-06
-1.366778e-06
-1.361558e-06
-1.39274e-06
-0.001327377
0.001328398
-3.246136e-11
4.529111e-06
-1.382792e-06
-1.392007e-06
-1.38233e-06
-1.414833e-06
-0.00132943
0.001330462
-8.908824e-12
4.627379e-06
-1.415068e-06
-1.413936e-06
-1.414669e-06
-1.449053e-06
-0.001331492
0.001332512
4.134032e-11
4.776818e-06
-1.449774e-06
-1.448845e-06
-1.449748e-06
-1.482708e-06
-0.001333506
0.001334461
-1.060613e-11
5.005282e-06
-1.497842e-06
-1.482909e-06
-1.497392e-06
-1.539878e-06
-0.001335368
0.001336249
4.191102e-12
5.289203e-06
-1.54511e-06
-1.540017e-06
-1.54454e-06
-1.596328e-06
-0.001337064
0.00133783
7.038815e-12
5.634611e-06
-1.603884e-06
-1.596896e-06
-1.603181e-06
-1.657424e-06
-0.001338499
0.00133911
1.128382e-11
6.044491e-06
-1.670605e-06
-1.656791e-06
-1.670649e-06
-1.713153e-06
-0.001339609
0.001340043
1.09182e-11
6.477114e-06
-1.742441e-06
-1.71362e-06
-1.741699e-06
-1.770464e-06
-0.001340362
0.001340466
1.246694e-11
6.989617e-06
-1.777666e-06
-1.769431e-06
-1.775962e-06
-1.642218e-06
-0.00134057
0.001339805
1.229969e-11
6.572487e-06
-1.258175e-06
-1.644279e-06
-1.26276e-06
-5.14691e-07
-0.0003340916
0.000332371
-4.400067e-11
2.235364e-06
-2.093523e-06
-0.0003301622
0.000329607
9.600573e-11
2.648711e-06
-2.142795e-06
-0.0003278005
0.0003271324
3.260909e-10
2.810611e-06
-2.297153e-06
-0.0003251607
0.0003245188
3.957929e-10
2.938696e-06
-2.696947e-06
-0.0003225896
0.0003219063
7.257802e-10
3.379549e-06
-2.934917e-06
-0.0003197494
0.0003189891
9.217782e-10
3.694315e-06
-3.095184e-06
-0.0003166103
0.000315777
5.18474e-10
3.928031e-06
-3.03451e-06
-0.0003131608
0.0003122466
-1.544525e-10
3.948869e-06
-2.848477e-06
-0.0003094071
0.0003084244
-6.19187e-10
3.831838e-06
-2.635697e-06
-0.0003053795
0.0003043337
-8.35595e-10
3.682385e-06
-2.467446e-06
-0.0003011165
0.0003000165
-8.508989e-10
3.568274e-06
-2.348897e-06
-0.0002966568
0.0002955182
-8.606097e-10
3.488387e-06
-2.265851e-06
-0.0002920737
0.0002909191
-1.116642e-09
3.421513e-06
-2.189928e-06
-0.0002874665
0.0002863249
-6.620511e-10
3.332232e-06
-2.107053e-06
-0.0002829556
0.0002818594
-1.607888e-10
3.203371e-06
-2.018033e-06
-0.000278679
0.0002776656
-1.312219e-10
3.031513e-06
-1.905394e-06
-0.0002747798
0.0002738793
-1.620297e-10
2.806123e-06
-1.76152e-06
-0.0002713574
0.0002705855
-1.421302e-10
2.533602e-06
-1.60359e-06
-0.0002684576
0.0002678185
-1.16329e-10
2.242814e-06
-1.456824e-06
-0.0002660835
0.0002655728
6.317587e-11
1.9674e-06
-1.332695e-06
-0.0002642126
0.0002638224
1.772416e-10
1.72268e-06
-1.233556e-06
-0.000262806
0.0002625229
-2.009089e-11
1.516682e-06
-1.16537e-06
-0.0002618025
0.0002616086
-2.921576e-10
1.35954e-06
-1.128313e-06
-0.000261137
0.0002610218
-5.036707e-10
1.244003e-06
-1.095582e-06
-0.0002607722
0.0002607249
-6.237659e-10
1.143537e-06
-1.063919e-06
-0.0002606676
0.00026068
-6.060717e-10
1.052179e-06
-1.038073e-06
-0.0002607943
0.0002608621
-4.785291e-10
9.707278e-07
-1.013962e-06
-0.0002611356
0.0002612544
-3.111969e-10
8.955379e-07
-9.902587e-07
-0.0002616788
0.0002618484
-1.594782e-10
8.20807e-07
-9.649286e-07
-0.0002624261
0.0002626486
-5.36778e-11
7.425622e-07
-9.361426e-07
-0.0002633876
0.0002636672
1.210889e-11
6.565221e-07
-9.01744e-07
-0.0002645828
0.0002649273
4.342269e-11
5.572438e-07
-8.574185e-07
-0.0002660441
0.0002664667
5.889171e-11
4.347905e-07
-7.897734e-07
-0.0002678273
0.0002683517
7.392983e-11
2.65266e-07
-6.472098e-07
-0.0002700765
0.0002707822
7.283436e-11
-5.854166e-08
5.108945e-07
-0.0002731566
0.0002735977
1.297323e-10
-9.521186e-07
1.725942e-06
-0.0002747044
0.0002752191
1.009522e-10
-2.240745e-06
1.723124e-06
-0.0002769738
0.000277619
1.423075e-10
-2.368517e-06
1.898239e-06
-0.0002796477
0.0002803575
1.755254e-10
-2.608146e-06
2.009653e-06
-0.0002825778
0.0002833641
1.828436e-10
-2.796112e-06
2.098139e-06
-0.0002858058
0.0002866515
2.025339e-10
-2.944016e-06
2.19229e-06
-0.0002892619
0.0002901656
2.136561e-10
-3.096217e-06
2.272912e-06
-0.0002929437
0.000293897
2.328981e-10
-3.226509e-06
2.344574e-06
-0.0002968149
0.0002978099
2.4298e-10
-3.339892e-06
2.403867e-06
-0.0003008356
0.0003018595
2.269939e-10
-3.42803e-06
2.446784e-06
-0.0003049505
0.0003059866
2.205153e-10
-3.483077e-06
2.471302e-06
-0.0003090889
0.0003101186
2.305554e-10
-3.501167e-06
2.478388e-06
-0.0003131744
0.0003141785
2.26786e-10
-3.482777e-06
2.471512e-06
-0.0003171343
0.0003180975
2.241103e-10
-3.434927e-06
2.457197e-06
-0.0003209161
0.0003218298
2.07973e-10
-3.371121e-06
2.442995e-06
-0.0003244963
0.0003253594
1.946768e-10
-3.306285e-06
2.433797e-06
-0.0003278806
0.0003286983
1.862019e-10
-3.251614e-06
2.430334e-06
-0.0003310934
0.000331873
1.714289e-10
-3.210092e-06
2.427097e-06
-0.0003341647
0.0003349127
1.593771e-10
-3.175309e-06
2.41194e-06
-0.0003371134
0.0003378294
1.54418e-10
-3.128154e-06
2.36702e-06
-0.0003399223
0.0003405934
1.412389e-10
-3.038243e-06
2.276588e-06
-0.0003425192
0.0003431181
1.22669e-10
-2.875682e-06
2.139934e-06
-0.0003447799
0.0003452712
1.082495e-10
-2.631419e-06
1.979119e-06
-0.0003465651
0.0003469205
9.462781e-11
-2.334631e-06
1.839718e-06
-0.0003477876
0.0003480031
7.069238e-11
-2.055267e-06
1.765307e-06
-0.0003484843
0.0003485931
3.88635e-11
-1.874111e-06
1.763755e-06
-0.0003488322
0.0003488926
1.747802e-11
-1.824193e-06
1.80067e-06
-0.0003490591
0.0003491167
1.823351e-11
-1.858331e-06
1.833635e-06
-0.0003493077
0.0003493823
1.745375e-11
-1.90825e-06
1.8307e-06
-0.000349643
0.000349738
2.713004e-11
-1.925783e-06
1.735906e-06
-0.0003500051
0.000350089
3.689563e-11
-1.819839e-06
1.517296e-06
-0.0003503646
0.0003504257
4.44095e-11
-1.578426e-06
1.297922e-06
-0.000350516
0.0003504932
4.939728e-11
-1.275095e-06
1.021542e-06
-0.00035028
0.0003501399
5.714958e-11
-8.815182e-07
7.955951e-07
-0.0003494971
0.0003490934
1.327734e-10
-3.920092e-07
7.956474e-08
-0.0003453611
0.001405419
-1.785767e-11
2.00627e-06
-6.892067e-07
8.112069e-08
-7.012632e-07
-0.0003453643
-0.0003577343
-0.0003577357
-5.722978e-07
-0.001404804
0.001401326
-1.404472e-11
5.113511e-06
-2.299679e-07
-5.8559e-07
-2.4852e-07
-3.877388e-07
-0.001396151
0.001389758
-8.763781e-12
7.866797e-06
-3.329292e-07
-4.04127e-07
-3.485298e-07
-5.020725e-07
-0.001383796
0.001377566
-1.274965e-11
8.216532e-06
-4.760836e-07
-5.171768e-07
-4.905516e-07
-5.361879e-07
-0.001370812
0.001363489
1.353682e-11
9.456525e-06
-5.159666e-07
-5.505118e-07
-5.304471e-07
-8.60103e-07
-0.001356126
0.001348711
-1.539992e-12
1.092873e-05
-8.858731e-07
-8.7067e-07
-8.968741e-07
-1.302431e-06
-0.001340661
0.001331557
1.047608e-10
1.459577e-05
-1.448125e-06
-1.305224e-06
-1.435756e-06
-3.4195e-06
-0.001322305
0.001314598
1.601923e-10
2.242898e-05
-3.959706e-06
-3.388776e-06
-3.953362e-06
-4.805123e-06
-0.001307907
0.001300999
-7.11441e-11
2.600106e-05
-4.693043e-06
-4.853245e-06
-4.741826e-06
-3.190209e-06
-0.001293128
0.001284312
-1.933247e-10
2.061014e-05
-2.683075e-06
-3.217208e-06
-2.703403e-06
-6.939627e-07
-0.001274268
0.001263987
-1.643181e-10
1.268743e-05
-5.035454e-07
-7.004437e-07
-5.08468e-07
1.992428e-07
-0.001253946
0.001244119
-9.290986e-11
8.980794e-06
2.283914e-07
1.949623e-07
2.24402e-07
2.209406e-07
-0.001234396
0.001224516
-8.854315e-12
9.060053e-06
1.936332e-07
2.168043e-07
1.894106e-07
-4.775203e-08
-0.001214109
0.001202852
7.16748e-11
1.150194e-05
-7.106957e-08
-5.103925e-08
-7.449172e-08
-2.470327e-07
-0.001190587
0.001177326
1.218682e-10
1.427978e-05
-2.591503e-07
-2.506509e-07
-2.626511e-07
-3.130048e-07
-0.001163299
0.001148676
1.53835e-10
1.588793e-05
-3.170357e-07
-3.159104e-07
-3.197683e-07
-2.639363e-07
-0.001133894
0.001119153
1.855461e-10
1.57986e-05
-2.632645e-07
-2.658888e-07
-2.650811e-07
-1.451009e-07
-0.001104853
0.001091174
1.983303e-10
1.425152e-05
-1.399057e-07
-1.463637e-07
-1.410611e-07
-2.75289e-09
-0.001078326
0.001066457
1.664311e-10
1.186542e-05
6.321204e-09
-4.027639e-09
4.436873e-09
1.869719e-07
-0.001055526
0.001045685
9.947637e-11
9.0655e-06
2.015929e-07
1.861224e-07
2.003095e-07
4.206504e-07
-0.001036796
0.001028964
1.499998e-11
6.074168e-06
4.593786e-07
4.197305e-07
4.586681e-07
6.97592e-07
-0.00102199
0.001016083
-6.175597e-11
3.057125e-06
7.286676e-07
6.966011e-07
7.276187e-07
9.639225e-07
-0.001011006
0.001006966
-1.142036e-10
1.322821e-07
9.911799e-07
9.626073e-07
9.899523e-07
1.191536e-06
-0.001003593
0.001001128
-1.427072e-10
-2.340674e-06
1.212997e-06
1.190215e-06
1.21177e-06
1.396106e-06
-0.0009992645
0.0009981902
-1.537243e-10
-4.552124e-06
1.418667e-06
1.394605e-06
1.417163e-06
1.562286e-06
-0.0009975768
0.0009976148
-1.433958e-10
-6.319739e-06
1.58036e-06
1.560638e-06
1.578672e-06
1.688179e-06
-0.0009979941
0.0009988801
-1.203384e-10
-7.662806e-06
1.701959e-06
1.686488e-06
1.700331e-06
1.777414e-06
-0.001000015
0.001001529
-9.484578e-11
-8.640555e-06
1.787434e-06
1.775786e-06
1.785844e-06
1.838232e-06
-0.00100322
0.001005195
-7.136616e-11
-9.337329e-06
1.844681e-06
1.83665e-06
1.843127e-06
1.872267e-06
-0.001007297
0.001009585
-5.068929e-11
-9.782105e-06
1.876347e-06
1.870737e-06
1.874832e-06
1.895518e-06
-0.00101197
0.001014497
-3.415808e-11
-1.011286e-05
1.898784e-06
1.894047e-06
1.897323e-06
1.910004e-06
-0.001017088
0.00101978
-2.10777e-11
-1.033385e-05
1.912178e-06
1.908622e-06
1.910819e-06
1.91627e-06
-0.00102252
0.00102533
-1.088467e-11
-1.047304e-05
1.916612e-06
1.914988e-06
1.915335e-06
1.901995e-06
-0.001028161
0.001031
-3.040942e-12
-1.043879e-05
1.899104e-06
1.90081e-06
1.897908e-06
1.868157e-06
-0.001033816
0.001036591
2.73822e-12
-1.023718e-05
1.864285e-06
1.867092e-06
1.863225e-06
1.835604e-06
-0.001039324
0.00104201
5.222627e-12
-1.002236e-05
1.833081e-06
1.834639e-06
1.832125e-06
1.809959e-06
-0.001044663
0.001047271
7.545762e-12
-9.842975e-06
1.808322e-06
1.809021e-06
1.807393e-06
1.78364e-06
-0.001049853
0.001052388
1.105541e-11
-9.663686e-06
1.781795e-06
1.782709e-06
1.78087e-06
1.748252e-06
-0.001054892
0.001057325
1.396133e-11
-9.416185e-06
1.744303e-06
1.747404e-06
1.743458e-06
1.700029e-06
-0.001059708
0.001061992
1.484839e-11
-9.072965e-06
1.695215e-06
1.699209e-06
1.694488e-06
1.647358e-06
-0.001064216
0.001066326
1.286803e-11
-8.691002e-06
1.6434e-06
1.646613e-06
1.642641e-06
1.59547e-06
-0.001068373
0.001070296
1.01411e-11
-8.295988e-06
1.592087e-06
1.594751e-06
1.591299e-06
1.541614e-06
-0.001072142
0.001073844
9.795439e-12
-7.861606e-06
1.53874e-06
1.540919e-06
1.538041e-06
1.479361e-06
-0.001075447
0.001076892
4.130628e-12
-7.35456e-06
1.476175e-06
1.478768e-06
1.475618e-06
1.377399e-06
-0.001078233
0.00107948
-1.343105e-11
-6.727964e-06
1.363356e-06
1.37693e-06
1.362931e-06
1.188699e-06
-0.001080704
0.001081968
-2.050662e-11
-5.902742e-06
1.130814e-06
1.188159e-06
1.13038e-06
1.004159e-06
-0.001083177
0.001084224
8.174344e-12
-5.03834e-06
9.917304e-07
1.003836e-06
9.913454e-07
9.585177e-07
-0.001085138
0.001085916
5.225047e-11
-4.605637e-06
9.560007e-07
9.576778e-07
9.554664e-07
9.175445e-07
-0.00108662
0.001087186
2.112174e-11
-4.23842e-06
9.190038e-07
9.171315e-07
9.184941e-07
8.99582e-07
-0.00108766
0.001088007
-1.443784e-12
-3.951233e-06
9.027207e-07
8.99298e-07
9.023588e-07
8.892509e-07
-0.001088277
0.001088425
-2.748262e-11
-3.718417e-06
8.960669e-07
8.891574e-07
8.959752e-07
8.711421e-07
-0.001088522
0.001088512
-2.094534e-11
-3.483535e-06
8.756098e-07
8.709406e-07
8.752317e-07
8.323148e-07
-0.001088493
0.001088497
-1.412023e-11
-3.313135e-06
8.228467e-07
8.318431e-07
8.221371e-07
6.268853e-07
-0.001088868
0.001089926
3.231841e-12
-3.714909e-06
7.021342e-07
6.254457e-07
7.026115e-07
1.01151e-06
-0.001090687
0.001089228
-2.241944e-12
-2.347155e-06
8.857546e-07
1.017052e-06
8.914438e-07
9.082294e-07
-0.001088447
0.00108831
-1.042707e-11
-3.348164e-06
8.269055e-07
9.158419e-07
8.340356e-07
9.170959e-07
-0.001088162
0.001088058
-1.377129e-11
-3.491451e-06
8.728646e-07
9.245716e-07
8.800384e-07
9.251091e-07
-0.001088016
0.001088159
-1.038974e-11
-3.794916e-06
8.943047e-07
9.316516e-07
9.004061e-07
9.536059e-07
-0.001088342
0.001088634
-1.087595e-11
-4.088275e-06
9.393606e-07
9.592389e-07
9.448298e-07
1.011177e-06
-0.001088952
0.001089381
-1.308331e-11
-4.47606e-06
1.007251e-06
1.016173e-06
1.01208e-06
1.065226e-06
-0.001089858
0.001090422
-1.145352e-11
-4.828481e-06
1.062538e-06
1.069883e-06
1.066845e-06
1.114445e-06
-0.001091018
0.001091702
-6.988405e-12
-5.154358e-06
1.116595e-06
1.118275e-06
1.12028e-06
1.162954e-06
-0.001092442
0.001093283
-2.604826e-12
-5.509332e-06
1.167714e-06
1.166266e-06
1.170921e-06
1.211775e-06
-0.00109417
0.001095152
6.598245e-13
-5.845985e-06
1.217081e-06
1.215002e-06
1.220269e-06
1.255513e-06
-0.001096177
0.001097296
2.426813e-12
-6.156695e-06
1.260572e-06
1.258294e-06
1.263235e-06
1.294844e-06
-0.001098454
0.001099699
1.800211e-12
-6.438419e-06
1.299554e-06
1.296962e-06
1.301618e-06
1.329543e-06
-0.001100981
0.001102341
1.955595e-12
-6.690391e-06
1.333699e-06
1.331546e-06
1.335738e-06
1.35872e-06
-0.001103734
0.001105195
3.33559e-12
-6.906805e-06
1.362109e-06
1.360724e-06
1.364091e-06
1.381227e-06
-0.001106685
0.001108235
3.887036e-12
-7.083332e-06
1.383692e-06
1.383002e-06
1.385403e-06
1.396993e-06
-0.001109809