/*--------------------------------*- C++ -*----------------------------------*\
| =========                 |                                                 |
| \\      /  F ield         | foam-extend: Open Source CFD                    |
|  \\    /   O peration     | Version:     3.1                                |
|   \\  /    A nd           | Web:         http://www.extend-project.de       |
|    \\/     M anipulation  |                                                 |
\*---------------------------------------------------------------------------*/
FoamFile
{
    version     2.0;
    format      ascii;
    class       volScalarField;
    location    "5.5";
    object      p;
}
// * * * * * * * * * * * * * * * * * * * * * * * * * * * * * * * * * * * * * //

dimensions      [1 -1 -2 0 0 0 0];

internalField   nonuniform List<scalar> 
119952
(
7447.809
7439.813
7441.477
7433.727
7465.764
7470.101
7477.268
7475.831
7479.346
7490.983
7493.355
7495.876
7497.54
7495.424
7499.428
7510.039
7498.406
7504.516
7506.873
7517.385
7516.693
7500.048
7513.786
7522.889
7512.665
7520.041
7550.638
7549.578
7574.633
7863.363
6417.644
6549.788
6826.83
6809.293
6932.024
6957.85
7018.969
7076.317
7109.728
7118.161
7173.791
7184.832
7201.711
7214.751
7226.259
7237.187
7248.995
7248.255
7246.887
7214.778
7211.134
7207.744
7207.971
7209.461
7203.81
7201.597
7195.054
7188.75
7185.751
7169.053
7163.283
7160.652
7158.259
7157.589
7158.788
7166.009
7170.176
7168.022
7167.68
7165.879
7170.678
7180.186
7191.548
7189.166
7199.315
7205.734
7212.182
7220.859
7221.255
7225.927
7227.361
7226.589
7226.946
7228.585
7229.09
7229.288
7229.281
7233.003
7234.039
7232.115
7241.219
7255.354
7260.259
7258.631
7252.831
7269.109
7250.749
7203.559
7180.896
7196.004
7200.558
7205.605
7211.54
7218.614
7227.542
7238.163
7246.076
7255.946
7274.499
7293.518
7334.781
7376.143
7311.509
7328.334
7335.616
7340.319
7344.111
7350.089
7356.782
7347.14
7354.529
7357.992
7360.802
7362.968
7365.989
7370.699
7376.493
7382.363
7387.326
7393.025
7398.914
7404.728
7406.685
7407.977
7410.471
7412.886
7414.651
7417.022
7420.786
7416.125
7424.037
7425.667
7427.412
7430.351
7434.284
7435.919
7417.194
7393.061
7373.369
7373.51
7383.802
7383.338
7387.39
7394.93
7399.251
7405.482
7397.639
7402.597
7405.398
7409.08
7411.888
7414.763
7423.273
7429.905
7428.606
7435.382
7440.827
7440.325
7441.318
7443.52
7445.331
7446.038
7443.846
7446.384
7449.372
7453.116
7459.78
7452.289
7455.616
7459.838
7461.692
7463.209
7465.155
7465.07
7464.805
7477.067
7491.234
7489.521
7488.825
7490.668
7497.639
7502.032
7502.978
7512.4
7520.689
7535.757
7566.332
7632.993
7467.962
7480.17
7476.436
7486.862
7470.108
7518.862
7520.171
7519.807
7521.105
7524.476
7524.783
7526.768
7529.875
7532.089
7526.829
7527.563
7522.194
7508.476
7570.492
7542.523
7538.837
7532.128
7560.493
7542.757
7541.357
7542.686
7544.284
7544.298
7542.209
7540.415
7538.92
7538.947
7535.263
7530.464
7526.81
7532.313
7529.105
7527.328
7530.423
7527.445
7525.448
7524.052
7521.705
7520.255
7518.38
7516.857
7514.044
7511.067
7509.09
7503.898
7492.015
7554.901
7516.096
7504.214
7504.783
7504.588
7500.918
7498.167
7497.438
7484.196
7508.741
7504.925
7506.178
7509.659
7511.835
7515.2
7509.419
7556.975
7536.095
7351.691
7456.21
7454.653
7457.763
7466.488
7474.456
7485.018
7487.944
7487.983
7500.945
7515.471
7510.218
7518.878
7525.302
7530.174
7537.565
7549.106
7551.595
7559.392
7566.897
7573.93
7576.64
7584.16
7591.808
7597.771
7602.116
7605.751
7611.875
7617.942
7623.356
7628.766
7634.103
7639.21
7648.596
7655.757
7666.044
7667.951
7673.84
7680.746
7687.093
7690.346
7698.253
7705.808
7715.06
7721.415
7732.656
7734.764
7745.977
7757.861
7769.438
7781.408
7792.433
7800.116
7790.433
7761.25
7751.992
7781.304
7804.765
7831.429
7778.992
7826.928
7834.023
7838.72
7848.195
7859.662
7866.038
7862.264
7878.863
7883.639
7891.143
7898.534
7901.007
7906.697
7913.181
7919.145
7923.024
7927.267
7931.897
7935.564
7939.058
7940.544
7941.682
7943.155
7944.957
7944.986
7944.814
7944.088
7942.319
7941.163
7940.377
7938.756
7935.85
7933.821
7932.218
7930.765
7928.479
7925.665
7922.143
7917.869
7912.414
7906.948
7900.702
7894.56
7891.142
7886.931
7871.311
7867.266
7859.884
7850.693
7841.639
7833.106
7825.932
7821.444
7797.435
7795.291
7787.326
7776.226
7765.652
7756.647
7748.713
7740.307
7731.432
7720.979
7711.207
7701.719
7694.724
7689.586
7683.279
7676.68
7671.357
7666.89
7662.456
7657.617
7655.17
7657.649
7656.677
7641.358
7615.166
7594.31
5918.953
6067.319
6141.093
6215.809
6333.596
6446.942
6542.865
6610.349
6678.813
6693.584
6751.293
6783.466
6796.843
6789.663
6777.04
6746.637
6717.944
6717.244
6574.691
6546.479
6463.219
6329.949
6171.82
6040.131
5846.368
5662.647
5530.109
5464.382
5430.785
5417.076
5446.489
5513.78
5609.826
5728.254
5848.813
5970.971
6106.261
6243.814
6356.327
6455.131
6541.065
6618.682
6686.408
6743.29
6796.767
6842.123
6877.935
6901.586
6916.108
6930.892
6942.36
6956.708
6967.206
6974.646
6975.317
6974.579
6908.514
6905.549
6903.009
6902.498
6902.02
6896.364
6890.357
6883.817
6878.305
6872.51
6864.385
6857.553
6853.726
6852.107
6852.043
6853.517
6856.278
6859.531
6861.741
6862.843
6864.311
6867.506
6873.051
6880.1
6887.093
6894.228
6901.276
6907.465
6911.438
6913.491
6915.429
6917.396
6918.693
6919.406
6919.802
6920.14
6920.801
6921.988
6923.55
6926.113
6929.103
6933.677
6941.284
6946.224
6946.383
6943.526
6939.162
6930.333
6915.685
6902.142
6897.496
6901.532
6908.182
6915.308
6922.939
6931.073
6939.801
6949.586
6960.969
6974.179
6990.145
7011.623
7034.769
7031.41
7024.007
7025.42
7031.189
7036.69
7041.225
7044.513
7046.977
7049.176
7051.707
7054.609
7057.789
7061.553
7065.876
7070.778
7075.842
7080.751
7085.269
7089.731
7093.976
7098.035
7101.036
7102.936
7104.88
7106.683
7108.262
7109.817
7111.751
7114.15
7116.445
7117.963
7118.353
7116.9
7112.039
7101.534
7086.441
7073.957
7074.749
7080.953
7087.34
7092.49
7096.148
7098.314
7098.915
7099.225
7101.03
7103.695
7106.463
7109.853
7113.357
7117.291
7121.432
7124.897
7127.969
7130.498
7132.709
7134.533
7135.761
7136.845
7138.071
7139.368
7140.87
7142.822
7145.65
7149.101
7150.606
7151.569
7153.039
7155.128
7157.56
7159.906
7162.252
7164.788
7171.212
7181.293
7184.728
7184.933
7186.606
7189.871
7194.012
7198.383
7201.859
7206.908
7210.525
7204.298
7266.17
7219.361
7203.838
7211.623
7218.541
7224.765
7235.339
7242.016
7244.785
7246.024
7247.295
7249.314
7250.631
7250.018
7252.558
7256.46
7257.843
7262.389
7275.971
7249.444
7261.048
7263.551
7262.227
7262.71
7267.168
7268.574
7268.64
7269.116
7268.619
7267.424
7266.405
7264.436
7262.139
7259.569
7257.474
7255.911
7254.097
7252.351
7252.653
7252.261
7250.983
7249.267
7247.801
7245.944
7243.922
7241.839
7239.581
7237.636
7236.006
7234.786
7233.267
7231.476
7235.738
7227.291
7229.238
7228.702
7227.475
7226.604
7225.678
7225.131
7224.734
7226.997
7228.676
7230.2
7232.489
7235.681
7239.695
7243.092
7243.143
7230.842
7082.113
7112.314
7148.895
7163.386
7166.434
7169.44
7175.139
7183.067
7191.055
7198.984
7206.014
7211.575
7216.314
7221.158
7226.508
7232.765
7240.161
7248.183
7255.229
7261.173
7269.358
7275.478
7280.641
7285.96
7291.221
7296.474
7301.817
7307.174
7312.657
7318.146
7323.547
7328.95
7334.035
7338.623
7347.563
7358.358
7364.885
7369.496
7375.551
7381.557
7387.286
7393.42
7400.615
7408.584
7417.027
7425.549
7433.85
7442.072
7450.788
7460.255
7469.683
7477.19
7482.269
7483.239
7481.824
7480.198
7484.156
7493.215
7504.357
7512.667
7518.941
7525.937
7534.419
7543.18
7551.303
7558.924
7565.951
7572.316
7578.859
7585.585
7591.545
7596.815
7601.821
7608.078
7615.861
7623.427
7627.704
7628.322
7628.7
7631.209
7634.026
7636.757
7639.032
7639.177
7639.382
7638.894
7637.032
7636.642
7635.616
7633.555
7631.641
7630.113
7629.263
7628.452
7626.486
7623.541
7619.691
7615.117
7610.148
7604.951
7599.703
7593.964
7587.719
7580.778
7573.285
7565.389
7557.234
7548.534
7539.85
7533.628
7525.773
7516.527
7506.476
7496.061
7485.829
7475.988
7466.337
7456.623
7446.889
7437.242
7427.946
7418.865
7410.202
7402.011
7393.92
7385.891
7378.191
7371.34
7365.166
7359.546
7353.931
7349.025
7344.761
7340.481
7335.004
7327.304
7316.45
7303.165
7291.622
5897.455
5979.265
6048.394
6130.198
6246.938
6256.032
6354.735
6368.244
6422.823
6548.792
6356.125
6419.239
6428.679
6482.348
6504.635
6533.928
6560.691
6585.948
6543.138
6474.047
6434.531
6371.675
6294.487
6217.605
6148.644
6078.281
6009.414
5917.277
5822.801
5724.356
5603.277
5475.597
5354.086
5264.527
5228.258
5237.326
5308.625
5441.483
5570.401
5687.826
5813.084
5937.167
6058.119
6171.447
6267.834
6344.666
6405.277
6451.485
6494.285
6518.524
6529.518
6527.163
6502.272
6449.041
6386.41
6371.692
6289.521
6225.123
6113.742
5951.842
5786.156
5613.4
5435.387
5271.672
5142.341
5061.376
5022.421
5027.787
5075.362
5163.082
5275.058
5408.413
5553.379
5689.704
5822.938
5951.16
6062.175
6160.963
6250.869
6325.786
6393.741
6452.605
6503.323
6546.142
6580.933
6604.692
6619.124
6631.696
6643.623
6655.306
6664.59
6669.949
6671.176
6669.177
6665.246
6660.405
6655.795
6652.63
6650.672
6648.092
6644.076
6639.331
6633.323
6625.843
6618.467
6612.276
6608.565
6607.215
6607.379
6608.572
6610.54
6612.985
6615.685
6618.306
6621.404
6625.239
6630.345
6636.542
6643.231
6649.79
6655.923
6661.136
6665.326
6668.819
6671.589
6673.64
6675.133
6676.147
6676.843
6677.238
6677.589
6678.067
6678.863
6679.64
6680.533
6681.709
6683.159
6684.495
6685.809
6686.919
6685.727
6682.16
6675.958
6670.063
6666.907
6666.619
6669.45
6674.683
6681.418
6689.356
6698.451
6708.548
6719.475
6730.891
6741.846
6751.393
6759.242
6765.804
6771.732
6777.367
6782.788
6787.73
6792.255
6796.161
6799.73
6802.983
6806.221
6809.666
6813.534
6817.616
6821.983
6826.549
6831.227
6835.881
6840.262
6844.381
6848
6851.169
6853.776
6856.13
6858.442
6860.77
6863.109
6865.251
6866.939
6868.494
6869.75
6870.922
6871.514
6871.409
6870.37
6868.043
6863.604
6856.693
6849.018
6843.422
6840.417
6840.006
6841.425
6843.946
6847.469
6851.262
6854.288
6856.735
6859.159
6862.123
6866.343
6870.619
6874.491
6877.733
6880.094
6882.267
6884.311
6886.072
6887.534
6888.977
6890.582
6892.371
6894.181
6895.766
6897.331
6899.039
6901.059
6903.418
6906.106
6908.972
6911.822
6914.868
6918.56
6922.741
6923.249
6923.299
6925.759
6929.771
6934.316
6938.587
6942.053
6945.132
6948.836
6950.419
6947.006
6939.393
6930.735
6927.335
6924.583
6923.14
6923.841
6926.873
6931.678
6936.276
6939.654
6942.036
6944.005
6945.733
6947.019
6948.028
6949.192
6950.82
6952.693
6954.654
6956.514
6957.217
6958.684
6959.854
6960.566
6961.05
6961.497
6961.983
6962.592
6962.884
6962.431
6961.091
6959.44
6957.756
6956.016
6954.204
6952.309
6950.288
6948.27
6947.113
6946.653
6945.618
6944.061
6942.407
6940.923
6939.284
6937.446
6935.413
6933.254
6931.103
6929.175
6927.516
6926.149
6924.818
6923.548
6922.475
6921.414
6920.329
6919.399
6918.728
6918.499
6918.378
6918.767
6919.566
6920.646
6922.301
6924.188
6926.423
6928.504
6930.696
6932.589
6936.224
6944.759
6940.475
6932.764
6926.869
6925.081
6927.451
6932.408
6937.43
6942.647
6948.353
6954.438
6960.625
6966.91
6973.466
6979.756
6986.135
6992.925
7000.077
7007.048
7013.445
7019.137
7024.602
7030.132
7035.803
7041.877
7048.099
7054.412
7060.667
7066.804
7072.65
7078.634
7085.33
7092.67
7100.014
7106.199
7111.286
7116.287
7121.61
7127.509
7133.913
7140.61
7147.439
7154.394
7161.58
7168.871
7176.435
7184.238
7192.369
7200.556
7208.379
7214.92
7219.716
7222.361
7222.595
7221.474
7225.151
7233.683
7243.902
7253.949
7263.36
7272.291
7281.143
7289.954
7298.167
7305.544
7312.625
7319.899
7327.51
7334.571
7341.182
7347.403
7353.246
7359.659
7364.799
7368.193
7372.021
7377.045
7380.098
7381.956
7385.612
7389.265
7391.169
7393.581
7395.104
7395.718
7395.769
7394.286
7394.198
7394.239
7392.443
7390.053
7387.866
7386.589
7386.16
7384.339
7380.919
7376.135
7370.758
7365.522
7360.659
7355.701
7350.375
7344.129
7337.225
7329.382
7320.994
7312.494
7303.251
7294.717
7288.364
7280.745
7270.718
7259.92
7249.092
7238.697
7228.854
7219.238
7209.451
7199.501
7189.672
7180.211
7171.096
7162.095
7153.272
7144.766
7136.607
7128.884
7121.779
7114.893
7108.546
7102.541
7096.951
7091.274
7085.245
7078.67
7070.803
7061.857
7051.45
7038.917
4178.472
4138.159
3945.307
4588.146
4751.329
4948.587
5072.568
5157.989
5272.949
5384.424
5488.75
5569.451
5652.566
5736.539
5812.798
5879.406
5943.882
5999.635
6050.485
6095.18
6124.24
6099.588
6117.691
6156.083
6175.729
6205.306
6240.189
6257.098
6280.574
6289.918
6284.549
6165.588
6120.864
6042.931
5951.189
5872.31
5816.997
5760.162
5690.711
5595.593
5471.003
5338.359
5200.081
5064.378
4943.62
4840.211
4813.487
4875.205
4974.394
5106.373
5243.981
5378.199
5501.671
5629.555
5761.176
5886.134
5990.647
6066.291
6124.825
6172.469
6210.815
6230.206
6235.774
6233.507
6213.781
6174.364
6128.513
6077.407
6027.421
5950.006
5818.745
5656.382
5468.778
5274.215
5088.479
4930.405
4805.911
4725.521
4693.241
4704.71
4759.485
4850.564
4973.61
5116.95
5270.601
5421.018
5562.141
5691.702
5806.535
5910.066
6001.425
6080.557
6149.296
6208.27
6258.381
6299.962
6333.066
6358.017
6375.051
6388.597
6399.78
6409.404
6416.665
6421.188
6422.824
6422.083
6419.354
6415.482
6412.081
6409.263
6407.142
6403.41
6397.406
6390.438
6383.355
6376.696
6370.774
6366.107
6363.013
6361.552
6361.425
6362.323
6363.936
6366.067
6368.787
6371.975
6375.57
6379.569
6384.114
6389.405
6395.313
6401.569
6407.62
6412.987
6417.602
6421.355
6424.072
6425.923
6427.108
6427.756
6428.088
6428.175
6428.212
6428.495
6429.119
6430.043
6431.356
6433.422
6435.975
6438.822
6440.592
6440.882
6439.816
6436.929
6432.736
6428.256
6425.519
6425.289
6427.55
6432.428
6439.106
6446.948
6455.574
6464.864
6474.602
6484.667
6494.802
6504.989
6515.032
6523.974
6530.606
6535.314
6538.954
6542.9
6547.079
6550.314
6553.534
6557.009
6560.746
6564.618
6568.508
6572.364
6576.161
6580.08
6584.334
6588.683
6592.983
6596.945
6600.585
6603.863
6606.799
6609.453
6611.796
6613.994
6616.045
6617.78
6619.147
6620.131
6621.088
6621.746
6621.617
6620.395
6617.985
6614.436
6609.88
6604.714
6600.585
6598.589
6598.989
6600.821
6603.348
6606.543
6609.469
6611.872
6613.635
6615.7
6618.096
6620.765
6623.929
6627.318
6630.3
6632.863
6635.156
6637.263
6639.174
6640.997
6642.703
6644.245
6645.892
6647.8
6649.836
6651.864
6654
6656.05
6658.039
6660.073
6662.158
6664.293
6666.569
6669.11
6671.946
6675.025
6678.479
6682.082
6685.627
6689.002
6691.99
6694.842
6697.841
6700.708
6702.84
6700.899
6696.375
6692.889
6687.903
6680.533
6673.927
6672.981
6677.124
6682.4
6687.152
6691.158
6694.261
6696.508
6698.236
6699.852
6701.487
6703.153
6704.876
6706.598
6708.13
6709.562
6710.305
6710.24
6710.454
6711.257
6712.282
6713.364
6714.504
6715.402
6716.035
6716.078
6715.596
6714.649
6713.546
6712.319
6710.935
6709.321
6707.505
6705.576
6703.763
6702.544
6701.875
6700.697
6698.954
6697.046
6695.178
6693.738
6692.249
6690.267
6688.021
6685.803
6683.883
6682.355
6681.112
6680.09
6678.787
6677.032
6675.277
6673.716
6672.572
6671.848
6671.276
6671.177
6671.066
6671.401
6671.938
6672.511
6673.033
6673.42
6674.028
6672.84
6668.831
6662.624
6656.154
6653.217
6658.057
6667.21
6674.989
6681.975
6687.388
6692.974
6699.368
6705.343
6711.032
6716.884
6722.858
6728.585
6734.334
6739.964
6745.747
6752.281
6759.475
6766.427
6772.718
6778.934
6785.184
6791.43
6797.782
6804.125
6810.222
6816.154
6821.982
6827.641
6833.346
6839.209
6845.057
6850.972
6857.083
6863.371
6869.802
6876.072
6882.308
6888.907
6895.644
6902.493
6909.26
6916.352
6923.742
6931.329
6938.963
6946.597
6954.084
6961.425
6968.484
6975.015
6981.199
6986.825
6991.118
6994.689
7000.713
7006.778
7014.17
7022.999
7031.528
7039.553
7047.011
7054.273
7061.355
7068.557
7075.993
7083.636
7090.688
7097.457
7104.432
7111.503
7119.119
7123.962
7125.314
7127.714
7132.777
7138.732
7144.126
7147.584
7149.976
7150.75
7151.376
7153.341
7153.403
7153.302
7152.578
7152.109
7151.94
7150.981
7148.571
7145.263
7143.161
7142.314
7139.799
7136.516
7132.408
7127.26
7121.792
7116.536
7110.864
7105.132
7098.648
7091.35
7083.234
7074.816
7066.114
7057.359
7048.723
7041.285
7032.329
7022.388
7012.153
7001.951
6991.737
6981.545
6971.426
6961.369
6951.322
6941.392
6931.61
6922.029
6912.603
6903.506
6895
6886.903
6878.968
6871.117
6863.567
6856.577
6850.153
6843.771
6837.166
6830.319
6823.258
6815.434
6806.265
6797.227
6787.016
3957.344
3974.243
3946.718
3847.246
3779.138
3772.078
3672.245
3619.791
3614.859
3606.143
3593.235
3700.291
3940.685
4032.607
4274.274
4469.443
4663.608
4729.752
4836.131
4961.922
5071.931
5173.729
5263.525
5347.169
5427.397
5503.003
5573.547
5633.657
5687.482
5733.404
5768.486
5795.528
5814.03
5826.948
5843.195
5866.833
5896.325
5925.817
5950.15
5978.352
5984.082
5955.904
5914.906
5858.379
5778.822
5683.455
5606.369
5554.753
5500.572
5428.265
5332.952
5208.015
5052.118
4898.552
4757.065
4629.872
4514.861
4474.057
4538.992
4667.298
4818.867
4974.915
5122.253
5255.767
5384.151
5514.674
5642.205
5753.324
5828.219
5882.679
5938.342
5989.118
6014.416
6021.861
6026.042
6014.102
5986.654
5948.834
5890.704
5806.353
5686.564
5520.624
5327.213
5123.733
4932.334
4759.762
4605.209
4481.435
4397.701
4363.514
4376.749
4434.175
4534.212
4667.708
4819.586
4982.36
5142.776
5290.098
5425.966
5547.104
5653.644
5746.769
5827.178
5896.564
5955.861
6006.105
6047.745
6081.656
6108.068
6127.659
6142.46
6153.802
6162.568
6169.407
6174.004
6176.222
6176.061
6173.884
6170.535
6166.663
6162.987
6159.989
6157.057
6151.044
6142.842
6135.199
6128.438
6123.383
6119.664
6116.84
6115.294
6115.207
6116.114
6117.637
6119.648
6122.355
6125.808
6129.776
6134.148
6138.951
6144.217
6149.888
6155.807
6161.576
6166.806
6171.379
6175.213
6178.157
6180.224
6181.615
6182.476
6182.954
6183.156
6183.246
6183.361
6183.536
6184.09
6184.673
6185.778
6186.959
6188.122
6189.136
6189.616
6189.59
6188.593
6186.975
6185.251
6184.329
6185.006
6187.399
6191.567
6197.435
6204.496
6212.415
6221.03
6230.17
6239.562
6248.968
6258.092
6266.422
6273.612
6279.602
6284.887
6289.766
6294.608
6299.151
6302.341
6305.572
6309.379
6313.543
6317.759
6321.816
6325.816
6329.752
6333.802
6337.975
6342.227
6346.403
6350.292
6353.853
6357.135
6360.185
6362.878
6365.216
6367.291
6369.169
6370.932
6372.438
6373.612
6374.51
6375.211
6375.437
6375.033
6374.229
6372.676
6370.675
6368.277
6365.994
6363.728
6361.313
6360.646
6361.058
6361.874
6363.938
6366.696
6368.892
6370.753
6372.777
6375.17
6377.861
6380.624
6383.295
6385.768
6387.985
6389.937
6391.789
6393.629
6395.38
6397.033
6398.667
6400.378
6402.129
6404.121
6406.268
6407.932
6409.783
6411.852
6414.154
6416.683
6419.355
6421.962
6424.532
6427.15
6429.712
6431.761
6434.304
6437.521
6440.738
6443.855
6447.343
6450.339
6451.718
6451.129
6448.56
6446.388
6444.39
6441.353
6438.492
6439.097
6441.433
6443.933
6446.641
6449.49
6452.081
6454.457
6456.468
6458.305
6460.067
6461.489
6462.574
6463.625
6464.656
6465.797
6466.999
6468.158
6469.239
6470.016
6470.731
6471.446
6472.333
6472.757
6472.771
6472.365
6471.818
6471.179
6470.173
6468.807
6467.305
6465.723
6463.934
6462.195
6460.461
6458.656
6457.11
6455.309
6453.487
6451.814
6450.285
6448.863
6447.311
6445.31
6442.953
6440.603
6438.545
6436.862
6435.363
6433.917
6432.346
6430.629
6429.061
6427.716
6426.763
6426.231
6425.898
6425.708
6425.898
6426.443
6427.351
6428.53
6430.078
6431.577
6432.145
6432.704
6434.111
6436.064
6437.5
6438.473
6439.373
6440.331
6441.81
6443.869
6446.802
6450.859
6456.11
6462.033
6467.452
6472.687
6478.335
6484.047
6489.949
6496.087
6502.126
6508.562
6515.287
6521.827
6527.916
6533.658
6539.529
6545.568
6551.649
6557.83
6563.953
6569.909
6575.706
6581.482
6587.18
6592.924
6599.008
6605.531
6612.341
6618.928
6625.139
6631.057
6636.958
6643.185
6649.739
6656.517
6663.264
6670.118
6677.159
6684.38
6691.596
6698.698
6705.688
6712.483
6719.089
6725.441
6731.706
6737.436
6741.342
6744.684
6751.807
6759.091
6766.913
6775.628
6783.835
6791.739
6799.758
6807.855
6815.925
6823.746
6831.143
6838.197
6845.282
6851.996
6858.811
6865.691
6872.279
6877.12
6880.026
6884.356
6889.749
6894.658
6898.921
6901.67
6903.49
6906.09
6906.821
6908.255
6909.802
6911.006
6910.996
6910.456
6909.884
6908.388
6906.033
6903.045
6900.489
6899.014
6895.908
6892.214
6887.942
6884.096
6879.241
6873.312
6866.86
6860.113
6852.949
6845.387
6837.663
6829.656
6821.259
6812.793
6804.473
6794.936
6783.671
6774.608
6766.858
6756.823
6745.534
6734.056
6723.184
6712.709
6702.593
6692.299
6681.898
6671.549
6661.967
6652.992
6644.357
6635.828
6627.276
6618.846
6610.997
6603.747
6597.04
6590.057
6582.778
6575.16
6567.422
6559.015
6549.838
6540.46
6530.395
3913.732
3909.662
3917.466
3854.625
3806.326
3726.939
3719.229
3712.815
3730.689
3765.281
3745.641
3695.17
3606.1
3550.999
3477.748
3350.135
3304.976
3316.512
3296.124
3190.311
3237.1
3380.824
3540.837
3694.897
3875.281
4157.745
4357.433
4371.154
4531.086
4679.569
4788.25
4889.085
4981.729
5068.156
5149.983
5229.098
5301.579
5361.242
5416.894
5466.353
5506.72
5539.238
5567.974
5594.484
5619.887
5641.389
5652.148
5673.246
5696.602
5710.701
5718.087
5684.997
5626.022
5573.682
5506.098
5415.838
5338.733
5285.358
5228.442
5146.963
5038.865
4903.118
4759.164
4606.807
4453.388
4308.982
4210.706
4179.563
4252.151
4397.455
4555.151
4715.937
4867.471
5003.289
5133.129
5264.54
5397.678
5515.712
5604.538
5665.284
5730.81
5779.446
5792.02
5802.425
5816.295
5832.199
5805.416
5758.821
5690.833
5579.734
5425.016
5235.825
5021.145
4813.914
4629.6
4459.153
4304.521
4178.331
4089.655
4049.81
4058.988
4114.538
4218.185
4357.373
4520.579
4693.653
4862.759
5020.338
5162.577
5288.086
5397.724
5492.492
5574.093
5643.921
5703.286
5753.31
5794.855
5828.814
5855.866
5876.672
5892.333
5904.122
5912.881
5919.319
5923.828
5926.259
5926.661
5925.248
5922.585
5918.873
5914.785
5910.501
5905.711
5900.046
5894.075
5887.888
5882.22
5877.471
5873.633
5870.633
5868.93
5868.753
5869.686
5871.235
5873.349
5876.097
5879.597
5883.73
5888.341
5893.367
5898.601
5903.974
5909.412
5914.677
5919.571
5923.946
5927.647
5930.609
5932.779
5934.138
5934.791
5934.897
5934.661
5934.323
5934.002
5933.697
5933.834
5934.505
5935.26
5936.665
5938.276
5939.893
5941.112
5942.026
5942.515
5942.457
5942.332
5942.567
5943.801
5946.304
5949.958
5954.973
5961.229
5968.453
5976.453
5984.963
5993.596
6002.192
6010.417
6018.093
6025.214
6031.79
6037.709
6043.12
6048.113
6052.724
6056.788
6060.577
6064.339
6068.141
6072.108
6076.111
6080.153
6084.17
6088.22
6092.298
6096.328
6100.207
6103.876
6107.326
6110.6
6113.655
6116.345
6118.701
6120.737
6122.611
6124.364
6125.923
6127.13
6127.918
6128.364
6128.363
6127.92
6126.812
6125.157
6123.175
6121.448
6119.863
6117.531
6115.283
6114.803
6116.03
6118.192
6120.692
6123.279
6125.359
6127.03
6128.866
6130.988
6133.419
6135.957
6138.404
6140.733
6142.847
6144.722
6146.534
6148.312
6150.001
6151.689
6153.51
6155.521
6157.474
6159.362
6160.837
6162.36
6164.461
6166.776
6169.137
6171.488
6174.01
6176.633
6179.274
6182.202
6184.613
6186.855
6189.942
6192.869
6195.174
6197.318
6199.59
6201.483
6202.567
6202.538
6201.406
6200.617
6200.193
6199.087
6197.194
6196.526
6197.627
6199.255
6201.38
6203.787
6206.049
6208.108
6210.076
6211.94
6213.792
6215.57
6217.371
6218.987
6220.457
6221.729
6222.769
6223.523
6224.162
6224.776
6225.404
6226.221
6226.879
6226.901
6226.486
6225.871
6224.929
6224.277
6223.532
6222.529
6221.131
6219.589
6218.403
6216.996
6215.286
6213.547
6211.746
6209.888
6208.1
6206.778
6205.596
6203.955
6201.962
6199.73
6197.423
6195.141
6193.061
6191.199
6189.458
6187.784
6186.196
6184.618
6183.042
6181.594
6180.307
6179.385
6178.751
6178.323
6178.064
6177.591
6177.214
6176.89
6176.345
6176.662
6176.996
6176.9
6176.889
6176.249
6175.822
6176.12
6177.649
6180.628
6184.867
6189.837
6195.001
6200.123
6205.38
6211.109
6217.749
6224.416
6230.803
6237.194
6243.728
6250.29
6256.892
6263.264
6268.954
6274.914
6281.295
6287.183
6293.17
6299.384
6305.641
6311.902
6318.074
6324.058
6329.865
6335.569
6341.195
6347.017
6353.226
6359.648
6366.081
6372.357
6378.364
6384.265
6390.313
6396.631
6403.202
6409.956
6416.795
6423.642
6430.568
6437.572
6444.629
6451.642
6458.634
6465.425
6472.166
6478.799
6485.536
6492.521
6497.654
6502.529
6508.71
6516.359
6523.763
6531.915
6540.158
6548.176
6555.674
6563.156
6571.222
6579.317
6586.856
6593.85
6601.374
6608.783
6615.837
6622.312
6627.948
6632.761
6636.866
6641.961
6647.093
6651.721
6656.034
6659.192
6661.834
6663.767
6664.996
6666.586
6668.063
6669.541
6669.628
6668.709
6667.629
6666.111
6664.128
6661.923
6659.747
6658.53
6656.298
6651.206
6645.27
6640.337
6635.76
6630.638
6623.922
6615.979
6607.477
6598.78
6590.071
6581.987
6576.466
6569.548
6561.446
6551.109
6538.391
6529.538
6520.434
6510.291
6498.349
6486.08
6474.517
6463.925
6454.101
6443.352
6431.001
6419.477
6411.679
6403.044
6393.213
6383.028
6373.336
6364.409
6356.811
6349.602
6342.782
6335.237
6327.326
6319.283
6311.351
6302.794
6293.028
6283.1
6274.014
3745.489
3713.533
3707.076
3696.978
3680.227
3659.402
3635.812
3609.415
3574.647
3527.257
3376.167
3367.414
3394.845
3443.104
3460.89
3413.381
3369.973
3276.462
3178.799
3152.438
3084.242
3066.315
3088.774
3002.72
2944.537
3007.306
3079.714
3208.826
3404.744
3557.208
3723.433
3926.139
4082.538
4221.239
4353.587
4468.737
4575.318
4676.921
4771.629
4859.01
4939.869
5013.579
5077.408
5136.711
5188.657
5230.376
5265.987
5298.177
5321.745
5336.62
5356.65
5377.676
5398.522
5419.421
5428.741
5429.744
5402.723
5349.198
5294.967
5229.237
5143.756
5065.442
5013.736
4955.803
4870.346
4754.845
4612.08
4465.857
4318.157
4175.77
4064.547
3993.98
3968.924
4024.317
4149.084
4304.892
4465.296
4617.591
4756.894
4895.046
5032.176
5167.423
5281.933
5364.374
5423.439
5483.359
5550.521
5601.573
5610.392
5595.803
5577.381
5565.462
5533.738
5464.902
5341.773
5169.215
4966.355
4745.924
4534.954
4350.562
4181.12
4023.957
3896.932
3804.008
3753.746
3753.156
3808.337
3914.095
4060.531
4231.618
4411.936
4588.075
4752.034
4899.417
5028.586
5140.242
5236.267
5318.297
5388.268
5447.605
5497.567
5539.184
5573.354
5600.911
5622.444
5638.829
5651.193
5660.238
5666.592
5670.874
5673.235
5674.053
5673.39
5671.45
5668.59
5664.908
5660.924
5656.698
5651.951
5646.81
5641.284
5635.722
5630.857
5627.146
5624.298
5622.633
5622.378
5623.264
5624.958
5627.311
5630.246
5633.785
5637.902
5642.474
5647.42
5652.581
5657.746
5662.807
5667.732
5672.417
5676.555
5680.032
5682.9
5685.08
5686.491
5687.247
5687.576
5687.612
5687.521
5687.391
5687.114
5687.013
5687.455
5688.094
5689.321
5690.854
5692.548
5694.151
5695.528
5696.749
5697.653
5698.459
5699.632
5701.343
5703.877
5707.362
5711.865
5717.574
5724.298
5731.769
5739.711
5747.787
5755.848
5763.722
5771.159
5778.15
5784.676
5790.595
5795.965
5800.948
5805.62
5809.938
5814.006
5817.888
5821.624
5825.45
5829.427
5833.544
5837.654
5841.764
5845.826
5849.775
5853.561
5857.105
5860.502
5863.727
5866.804
5869.583
5872.035
5874.155
5876.049
5877.763
5879.262
5880.461
5881.255
5881.704
5881.861
5881.819
5881.48
5880.608
5879.559
5878.628
5877.752
5876.351
5874.618
5873.977
5874.613
5876.121
5877.9
5880.052
5881.848
5883.226
5884.772
5886.517
5888.487
5890.639
5892.819
5894.87
5896.813
5898.586
5900.211
5901.782
5903.432
5905.22
5907.02
5908.865
5910.696
5912.512
5914.314
5916.081
5918.009
5919.965
5922.024
5924.295
5926.88
5929.477
5931.824
5934.527
5937.205
5939.611
5942.094
5944.73
5947.267
5949.574
5951.468
5953.179
5954.311
5954.157
5953.912
5953.912
5954.109
5954.077
5953.663
5953.681
5954.818
5956.777
5959.023
5961.578
5964.176
5966.681
5968.736
5970.554
5972.081
5973.341
5974.634
5975.891
5977.15
5978.341
5979.409
5980.217
5980.961
5981.803
5982.384
5982.922
5983.215
5983.289
5983.087
5982.783
5982.59
5982.384
5981.733
5980.221
5978.044
5976.024
5975.018
5973.905
5972.444
5970.331
5968.316
5966.458
5964.428
5962.778
5961.42
5959.65
5957.366
5954.695
5952.117
5949.731
5947.681
5945.714
5943.677
5941.703
5939.955
5938.247
5936.558
5934.999
5933.74
5932.79
5932.122
5931.717
5931.407
5931.146
5931.157
5931.86
5933.799
5934.759
5935.83
5936.942
5938.086
5939.235
5940.393
5941.861
5943.768
5946.188
5949.234
5952.54
5956.099
5960.044
5964.612
5969.803
5975.384
5981.138
5986.954
5992.798
5998.898
6005.046
6011.198
6017.011
6022.602
6028.589
6034.975
6041.051
6047.189
6053.587
6060.094
6066.514
6072.691
6078.617
6084.227
6089.707
6095.291
6101.123
6107.259
6113.683
6120.103
6126.478
6132.554
6138.476
6144.512
6150.792
6157.294
6163.883
6170.677
6177.416
6184.293
6191.105
6198.099
6205.027
6211.94
6218.687
6225.426
6232.156
6239.331
6246.882
6252.638
6257.741
6263.63
6271.558
6278.7
6286.993
6295.319
6303.264
6310.374
6317.806
6325.763
6333.964
6341.67
6348.826
6356.103
6363.759
6370.982
6377.791
6383.867
6389.306
6394.171
6399.177
6404.162
6408.704
6412.825
6416.189
6419.023
6421.426
6423.269
6425.016
6426.388
6427.343
6427.354
6426.657
6425.63
6424.231
6422.408
6420.375
6418.313
6417.417
6415.405
6409.91
6403.358
6398.637
6393.238
6388.108
6381.677
6373.761
6364.089
6355.17
6346.619
6337.834
6331.609
6325.235
6315.823
6304.388
6291.626
6280.897
6270.973
6260.047
6249.145
6237.822
6224.876
6215.617
6207.095
6196.301
6181.507
6168.562
6162.037
6154.636
6142.953
6131.172
6119.577
6111.059
6104.126
6095.845
6087.524
6079.045
6070.531
6062.527
6054.808
6047.016
6037.077
6025.78
6017.84
3500.87
3471.395
3405.751
3399.127
3379.336
3354.198
3322.923
3285.838
3239.489
3180.606
3133.469
3120.448
3144.738
3196.387
3222.026
3164.84
3112.011
3012.886
2891.874
2928.768
2950.647
2899.756
2810.857
2733.318
2756.694
2791.531
2833.258
2938.478
3099.429
3243.388
3370.337
3531.209
3753.561
3917.836
4016.482
4128.487
4249.295
4361.314
4463.505
4555.172
4637.919
4714.498
4782.763
4843.659
4898.793
4946.385
4984.702
5016.599
5045.526
5072.169
5094.255
5114.669
5131.279
5145.3
5150.031
5141.833
5117.547
5067.295
5012.685
4950.358
4874.08
4805.467
4745.697
4679.983
4578.724
4468.302
4355.196
4207.424
4055.389
3944.668
3867.575
3812.693
3775.334
3797.288
3907.777
4062.478
4223.745
4376.57
4518.618
4657.467
4793.321
4914.068
5018.91
5112.433
5196.02
5261.948
5302.425
5323.807
5337.74
5360.127
5366.528
5330.53
5271.801
5186.629