/*--------------------------------*- C++ -*----------------------------------*\
| =========                 |                                                 |
| \\      /  F ield         | foam-extend: Open Source CFD                    |
|  \\    /   O peration     | Version:     3.1                                |
|   \\  /    A nd           | Web:         http://www.extend-project.de       |
|    \\/     M anipulation  |                                                 |
\*---------------------------------------------------------------------------*/
FoamFile
{
    version     2.0;
    format      ascii;
    class       volScalarField;
    location    "5.5";
    object      pd;
}
// * * * * * * * * * * * * * * * * * * * * * * * * * * * * * * * * * * * * * //

dimensions      [1 -1 -2 0 0 0 0];

internalField   nonuniform List<scalar> 
119952
(
7478.504
7477.227
7478.27
7467.254
7496.476
7501.453
7509.233
7508.409
7512.537
7524.787
7527.772
7530.906
7533.184
7531.68
7536.297
7547.521
7536.502
7543.225
7546.194
7557.32
7551.982
7535.598
7549.594
7553.551
7543.327
7550.703
7581.3
7580.24
7605.327
7894.058
6708.129
6836.732
7110.508
7089.704
7209.167
7231.721
7289.577
7343.657
7373.801
7380.085
7449.697
7460.739
7477.617
7490.657
7502.166
7513.093
7524.901
7524.161
7522.793
7521.34
7517.697
7514.307
7514.533
7516.024
7510.372
7508.159
7501.617
7495.313
7492.314
7475.615
7469.845
7467.215
7464.822
7464.152
7465.35
7472.571
7476.739
7474.585
7474.243
7472.442
7477.241
7486.748
7498.11
7495.729
7505.877
7512.297
7518.745
7527.422
7527.817
7532.489
7533.924
7533.152
7533.508
7535.147
7535.652
7535.851
7535.844
7539.565
7540.602
7538.677
7547.782
7561.917
7566.821
7565.194
7559.393
7575.671
7557.311
7510.121
7487.459
7502.567
7507.12
7512.167
7518.103
7525.177
7534.104
7544.725
7552.639
7562.509
7581.062
7600.08
7641.343
7682.706
7618.072
7634.897
7642.178
7646.882
7650.674
7656.651
7663.345
7653.703
7661.091
7664.555
7667.365
7669.53
7672.551
7677.261
7683.055
7688.925
7693.888
7699.588
7705.477
7711.291
7713.248
7714.539
7717.033
7719.449
7721.213
7723.585
7727.349
7722.687
7730.6
7732.23
7733.975
7736.914
7740.846
7742.481
7723.757
7699.624
7679.932
7680.073
7690.364
7689.9
7693.953
7701.492
7705.813
7712.045
7704.201
7709.16
7711.961
7715.642
7718.45
7721.325
7729.836
7736.467
7735.168
7741.944
7747.39
7746.887
7747.881
7750.082
7751.894
7752.601
7750.409
7752.947
7755.935
7759.679
7766.343
7758.852
7762.178
7766.4
7768.255
7769.771
7771.717
7771.632
7771.368
7783.63
7797.797
7796.084
7795.388
7797.23
7804.202
7808.595
7809.54
7818.963
7827.252
7842.319
7872.895
7908.899
7743.868
7756.076
7752.342
7762.769
7746.014
7794.769
7796.077
7795.713
7797.011
7800.382
7800.689
7802.674
7805.782
7807.995
7802.735
7803.469
7798.1
7784.382
7846.399
7818.429
7814.744
7808.035
7836.399
7818.664
7817.263
7818.592
7820.191
7820.204
7818.115
7816.321
7814.827
7814.853
7811.169
7806.37
7802.717
7808.22
7805.011
7803.235
7806.33
7803.351
7801.355
7799.958
7797.611
7796.161
7794.286
7792.764
7789.95
7786.973
7784.996
7779.804
7767.921
7830.807
7792.002
7780.12
7780.689
7780.495
7776.824
7774.073
7773.344
7760.102
7784.647
7780.831
7782.084
7785.565
7787.741
7791.106
7785.325
7832.881
7812.002
7658.253
7762.773
7761.215
7764.325
7773.051
7781.018
7791.581
7794.507
7794.545
7807.508
7822.034
7816.78
7825.44
7831.864
7836.736
7844.127
7855.668
7858.157
7865.955
7873.46
7880.493
7883.202
7890.723
7898.371
7904.333
7908.678
7912.314
7918.438
7924.505
7929.919
7935.328
7940.666
7945.772
7955.159
7962.319
7972.607
7974.513
7980.403
7987.308
7993.656
7996.909
8004.816
8012.37
8021.622
8027.978
8039.218
8041.326
8052.539
8064.424
8076.001
8087.971
8098.996
8106.678
8096.995
8067.813
8058.555
8087.866
8111.327
8137.992
8085.554
8133.49
8140.586
8145.282
8154.757
8166.224
8172.601
8168.826
8185.426
8190.202
8197.706
8205.097
8207.57
8213.26
8219.743
8225.708
8229.586
8233.83
8238.459
8242.126
8245.621
8247.107
8248.245
8249.718
8251.52
8251.549
8251.376
8250.65
8248.882
8247.725
8246.94
8245.319
8242.412
8240.383
8238.781
8237.328
8235.042
8232.227
8228.706
8224.431
8218.977
8213.511
8207.264
8201.122
8197.704
8193.493
8177.874
8173.829
8166.447
8157.256
8148.202
8139.668
8132.494
8128.006
8103.998
8101.854
8093.888
8082.789
8072.215
8063.209
8055.276
8046.869
8037.994
8027.541
8017.769
8008.281
8001.286
7996.148
7989.842
7983.243
7977.92
7973.453
7969.019
7964.18
7961.733
7964.211
7963.239
7947.92
7921.728
7900.872
6452.795
6597.88
6668.386
6739.835
6854.355
6964.434
7057.089
7121.306
7186.666
7214.741
7272.449
7304.622
7317.999
7310.819
7298.196
7267.793
7239.1
7238.401
7126.504
7098.291
7015.032
6881.761
6723.633
6591.944
6398.18
6214.46
6081.922
6016.194
5982.598
5968.889
5998.301
6065.592
6161.638
6280.066
6400.626
6522.783
6658.074
6795.627
6908.14
7006.944
7092.878
7170.494
7238.221
7295.102
7348.58
7393.935
7429.747
7453.399
7467.921
7482.705
7494.173
7508.521
7519.018
7526.459
7527.13
7526.392
7521.639
7518.674
7516.134
7515.623
7515.145
7509.489
7503.482
7496.942
7491.43
7485.635
7477.51
7470.678
7466.851
7465.232
7465.168
7466.642
7469.403
7472.656
7474.866
7475.968
7477.436
7480.631
7486.176
7493.225
7500.218
7507.353
7514.401
7520.59
7524.563
7526.616
7528.554
7530.521
7531.818
7532.531
7532.927
7533.265
7533.926
7535.113
7536.676
7539.238
7542.228
7546.802
7554.409
7559.349
7559.508
7556.651
7552.287
7543.458
7528.81
7515.267
7510.621
7514.657
7521.307
7528.433
7536.064
7544.198
7552.926
7562.711
7574.094
7587.304
7603.27
7624.748
7647.894
7644.535
7637.132
7638.545
7644.314
7649.815
7654.35
7657.638
7660.102
7662.301
7664.832
7667.734
7670.914
7674.678
7679.001
7683.903
7688.967
7693.876
7698.394
7702.856
7707.101
7711.16
7714.161
7716.061
7718.005
7719.808
7721.387
7722.942
7724.876
7727.275
7729.57
7731.088
7731.478
7730.025
7725.164
7714.659
7699.566
7687.082
7687.874
7694.078
7700.465
7705.615
7709.273
7711.439
7712.04
7712.35
7714.155
7716.82
7719.588
7722.978
7726.482
7730.416
7734.557
7738.022
7741.094
7743.623
7745.834
7747.658
7748.886
7749.97
7751.196
7752.493
7753.995
7755.947
7758.775
7762.226
7763.731
7764.694
7766.164
7768.253
7770.685
7773.031
7775.377
7777.913
7784.337
7794.418
7797.853
7798.058
7799.731
7802.996
7807.137
7811.508
7814.984
7820.033
7823.65
7817.423
7817.983
7771.174
7755.65
7763.436
7770.354
7776.578
7787.151
7793.828
7796.598
7797.837
7799.108
7801.126
7802.443
7801.83
7804.371
7808.272
7809.655
7814.201
7827.784
7801.256
7812.86
7815.364
7814.039
7814.523
7818.981
7820.386
7820.453
7820.929
7820.431
7819.237
7818.217
7816.249
7813.952
7811.381
7809.287
7807.723
7805.91
7804.164
7804.465
7804.074
7802.796
7801.08
7799.614
7797.757
7795.735
7793.652
7791.394
7789.449
7787.819
7786.599
7785.079
7783.288
7787.55
7779.104
7781.05
7780.515
7779.288
7778.416
7777.49
7776.944
7776.546
7778.809
7780.489
7782.013
7784.301
7787.494
7791.508
7794.904
7794.956
7782.655
7695.238
7725.439
7762.02
7776.511
7779.559
7782.565
7788.264
7796.192
7804.18
7812.109
7819.139
7824.7
7829.439
7834.283
7839.633
7845.89
7853.286
7861.308
7868.354
7874.298
7882.483
7888.603
7893.766
7899.085
7904.346
7909.599
7914.942
7920.299
7925.782
7931.271
7936.672
7942.075
7947.16
7951.748
7960.688
7971.483
7978.01
7982.621
7988.676
7994.682
8000.411
8006.545
8013.74
8021.709
8030.152
8038.674
8046.975
8055.197
8063.913
8073.38
8082.808
8090.315
8095.394
8096.364
8094.949
8093.323
8097.281
8106.34
8117.482
8125.792
8132.066
8139.062
8147.544
8156.305
8164.428
8172.049
8179.076
8185.441
8191.984
8198.71
8204.67
8209.94
8214.946
8221.203
8228.986
8236.552
8240.829
8241.447
8241.825
8244.334
8247.151
8249.882
8252.157
8252.302
8252.507
8252.019
8250.157
8249.767
8248.741
8246.68
8244.766
8243.238
8242.388
8241.577
8239.611
8236.666
8232.816
8228.242
8223.273
8218.076
8212.828
8207.089
8200.844
8193.903
8186.41
8178.514
8170.359
8161.659
8152.975
8146.753
8138.898
8129.652
8119.601
8109.186
8098.954
8089.113
8079.462
8069.748
8060.014
8050.367
8041.071
8031.99
8023.327
8015.136
8007.045
7999.016
7991.316
7984.465
7978.291
7972.671
7967.056
7962.15
7957.886
7953.606
7948.128
7940.429
7929.575
7916.29
7904.747
6678.44
6756.71
6822.571
6901.108
7014.581
7020.403
7115.843
7126.085
7177.397
7301.217
7122.531
7185.645
7195.085
7248.754
7271.041
7300.335
7327.097
7352.354
7309.544
7271.109
7231.594
7168.737
7091.549
7014.667
6945.706
6875.343
6806.476
6714.339
6619.863
6521.419
6400.34
6272.659
6151.148
6061.59
6025.32
6034.388
6105.688
6238.545
6367.463
6484.889
6610.147
6734.23
6855.181
6968.51
7064.896
7141.729
7202.339
7248.548
7291.348
7315.586
7326.58
7324.225
7299.335
7246.104
7183.473
7168.755
7147.896
7083.498
6972.117
6810.217
6644.531
6471.775
6293.762
6130.047
6000.716
5919.751
5880.796
5886.161
5933.737
6021.457
6133.433
6266.788
6411.754
6548.079
6681.313
6809.535
6920.55
7019.338
7109.244
7184.161
7252.116
7310.98
7361.698
7404.517
7439.308
7463.067
7477.499
7490.071
7501.998
7513.681
7522.965
7528.324
7529.551
7527.552
7523.621
7518.78
7514.17
7511.005
7509.046
7506.467
7502.451
7497.706
7491.698
7484.218
7476.842
7470.651
7466.94
7465.59
7465.754
7466.947
7468.915
7471.36
7474.06
7476.681
7479.779
7483.614
7488.72
7494.917
7501.606
7508.165
7514.298
7519.511
7523.701
7527.194
7529.964
7532.015
7533.508
7534.522
7535.218
7535.613
7535.964
7536.442
7537.238
7538.015
7538.908
7540.084
7541.534
7542.87
7544.184
7545.294
7544.102
7540.535
7534.333
7528.438
7525.282
7524.994
7527.825
7533.058
7539.793
7547.731
7556.826
7566.923
7577.85
7589.266
7600.221
7609.768
7617.617
7624.179
7630.107
7635.742
7641.163
7646.105
7650.63
7654.536
7658.105
7661.358
7664.596
7668.041
7671.909
7675.991
7680.358
7684.924
7689.602
7694.256
7698.637
7702.756
7706.375
7709.544
7712.151
7714.505
7716.817
7719.145
7721.484
7723.626
7725.314
7726.869
7728.125
7729.297
7729.889
7729.784
7728.745
7726.418
7721.979
7715.068
7707.393
7701.797
7698.792
7698.381
7699.8
7702.321
7705.844
7709.637
7712.663
7715.11
7717.534
7720.498
7724.718
7728.994
7732.866
7736.108
7738.469
7740.642
7742.686
7744.447
7745.909
7747.352
7748.957
7750.746
7752.556
7754.141
7755.706
7757.414
7759.434
7761.793
7764.481
7767.347
7770.197
7773.243
7776.935
7781.116
7781.624
7781.674
7784.134
7788.146
7792.691
7796.962
7800.428
7803.507
7807.211
7808.794
7805.381
7797.768
7789.11
7785.71
7782.958
7781.515
7782.216
7785.248
7790.053
7794.651
7798.03
7800.411
7802.38
7804.108
7805.394
7806.403
7807.567
7809.195
7811.069
7813.029
7814.889
7815.592
7817.059
7818.229
7818.942
7819.425
7819.872
7820.359
7820.967
7821.259
7820.806
7819.466
7817.815
7816.131
7814.391
7812.579
7810.684
7808.663
7806.645
7805.488
7805.028
7803.993
7802.436
7800.782
7799.298
7797.659
7795.821
7793.788
7791.629
7789.478
7787.55
7785.891
7784.524
7783.193
7781.923
7780.85
7779.789
7778.704
7777.774
7777.103
7776.874
7776.753
7777.142
7777.941
7779.021
7780.676
7782.563
7784.798
7786.879
7789.071
7790.964
7794.599
7803.134
7798.85
7791.139
7785.244
7783.456
7785.826
7790.783
7795.805
7801.022
7806.728
7812.813
7819
7825.285
7831.841
7838.131
7844.51
7851.3
7858.452
7865.423
7871.82
7877.512
7882.977
7888.507
7894.178
7900.252
7906.474
7912.787
7919.042
7925.179
7931.025
7937.009
7943.705
7951.045
7958.389
7964.574
7969.661
7974.662
7979.985
7985.884
7992.288
7998.985
8005.814
8012.769
8019.955
8027.246
8034.81
8042.613
8050.744
8058.931
8066.754
8073.295
8078.091
8080.736
8080.97
8079.849
8083.526
8092.058
8102.277
8112.324
8121.735
8130.666
8139.518
8148.329
8156.542
8163.919
8171
8178.274
8185.885
8192.946
8199.557
8205.778
8211.621
8218.034
8223.174
8226.568
8230.396
8235.42
8238.473
8240.331
8243.987
8247.64
8249.544
8251.956
8253.479
8254.093
8254.144
8252.661
8252.573
8252.614
8250.818
8248.428
8246.241
8244.964
8244.535
8242.714
8239.294
8234.51
8229.133
8223.897
8219.034
8214.076
8208.75
8202.504
8195.6
8187.757
8179.369
8170.869
8161.626
8153.092
8146.739
8139.12
8129.093
8118.295
8107.467
8097.072
8087.229
8077.613
8067.826
8057.876
8048.047
8038.586
8029.471
8020.47
8011.647
8003.141
7994.982
7987.259
7980.154
7973.268
7966.921
7960.916
7955.326
7949.649
7943.62
7937.045
7929.178
7920.232
7909.825
7897.292
5195.676
5143.81
4947.483
5599.803
5762.985
5990.9
6114.88
6200.302
6315.262
6426.736
6531.063
6611.763
6694.878
6778.852
6855.11
6921.718
6986.195
7041.948
7092.797
7137.492
7166.553
7141.901
7160.003
7198.395
7218.042
7247.618
7282.501
7299.41
7322.887
7332.231
7326.861
7269.213
7224.489
7146.556
7054.814
6975.935
6920.622
6863.787
6794.336
6699.218
6574.628
6441.984
6303.706
6168.003
6047.245
5943.836
5917.112
5978.83
6078.019
6209.998
6347.606
6481.823
6605.296
6733.18
6864.801
6989.759
7094.272
7169.916
7228.45
7276.094
7314.44
7333.831
7339.399
7337.131
7317.406
7277.989
7232.138
7181.032
7131.046
7053.631
6922.37
6760.007
6572.403
6377.84
6192.104
6034.03
5909.536
5829.146
5796.866
5808.335
5863.11
5954.189
6077.235
6220.575
6374.226
6524.643
6665.766
6795.327
6910.16
7013.691
7105.05
7184.182
7252.921
7311.895
7362.006
7403.587
7436.691
7461.642
7478.676
7492.222
7503.405
7513.029
7520.29
7524.813
7526.449
7525.708
7522.979
7519.107
7515.706
7512.888
7510.767
7507.035
7501.031
7494.063
7486.98
7480.321
7474.399
7469.732
7466.638
7465.177
7465.05
7465.948
7467.561
7469.692
7472.412
7475.6
7479.195
7483.194
7487.739
7493.03
7498.938
7505.194
7511.245
7516.612
7521.227
7524.98
7527.697
7529.548
7530.733
7531.381
7531.713
7531.8
7531.837
7532.12
7532.744
7533.668
7534.981
7537.047
7539.6
7542.447
7544.217
7544.507
7543.441
7540.554
7536.361
7531.881
7529.144
7528.914
7531.175
7536.053
7542.731
7550.573
7559.199
7568.489
7578.227
7588.292
7598.427
7608.614
7618.657
7627.599
7634.231
7638.939
7642.579
7646.525
7650.704
7653.939
7657.159
7660.633
7664.371
7668.243
7672.133
7675.989
7679.786
7683.705
7687.959
7692.308
7696.608
7700.57
7704.21
7707.488
7710.424
7713.078
7715.421
7717.619
7719.67
7721.405
7722.772
7723.756
7724.713
7725.371
7725.242
7724.02
7721.61
7718.061
7713.505
7708.339
7704.21
7702.214
7702.614
7704.446
7706.973
7710.168
7713.094
7715.497
7717.26
7719.325
7721.721
7724.39
7727.554
7730.943
7733.925
7736.488
7738.781
7740.888
7742.799
7744.622
7746.328
7747.87
7749.517
7751.425
7753.461
7755.489
7757.625
7759.675
7761.664
7763.698
7765.783
7767.918
7770.195
7772.735
7775.571
7778.65
7782.104
7785.707
7789.252
7792.627
7795.615
7798.467
7801.466
7804.333
7806.465
7804.524
7800
7796.514
7791.528
7784.158
7777.552
7776.606
7780.749
7786.025
7790.777
7794.783
7797.886
7800.133
7801.861
7803.477
7805.112
7806.778
7808.501
7810.223
7811.755
7813.187
7813.93
7813.865
7814.079
7814.882
7815.907
7816.989
7818.129
7819.027
7819.66
7819.703
7819.221
7818.274
7817.171
7815.944
7814.56
7812.946
7811.13
7809.201
7807.388
7806.169
7805.5
7804.322
7802.579
7800.671
7798.803
7797.363
7795.874
7793.892
7791.646
7789.428
7787.508
7785.98
7784.737
7783.715
7782.412
7780.657
7778.902
7777.341
7776.197
7775.473
7774.901
7774.802
7774.691
7775.026
7775.563
7776.136
7776.658
7777.045
7777.653
7776.465
7772.456
7766.249
7759.779
7756.842
7761.682
7770.835
7778.614
7785.6
7791.013
7796.598
7802.993
7808.968
7814.657
7820.509
7826.483
7832.21
7837.959
7843.589
7849.372
7855.906
7863.1
7870.052
7876.343
7882.559
7888.809
7895.055
7901.407
7907.75
7913.847
7919.779
7925.607
7931.266
7936.971
7942.834
7948.682
7954.597
7960.708
7966.996
7973.427
7979.697
7985.933
7992.532
7999.269
8006.118
8012.885
8019.977
8027.367
8034.954
8042.588
8050.222
8057.709
8065.05
8072.109
8078.64
8084.824
8090.45
8094.743
8098.314
8104.338
8110.403
8117.795
8126.624
8135.153
8143.178
8150.636
8157.898
8164.98
8172.182
8179.618
8187.261
8194.313
8201.082
8208.057
8215.128
8222.744
8227.587
8228.939
8231.339
8236.402
8242.357
8247.751
8251.209
8253.601
8254.375
8255.001
8256.966
8257.028
8256.927
8256.203
8255.734
8255.565
8254.606
8252.196
8248.888
8246.786
8245.939
8243.424
8240.141
8236.033
8230.885
8225.417
8220.161
8214.489
8208.757
8202.273
8194.975
8186.859
8178.441
8169.739
8160.984
8152.348
8144.91
8135.954
8126.013
8115.778
8105.576
8095.362
8085.17
8075.051
8064.994
8054.947
8045.017
8035.235
8025.654
8016.228
8007.131
7998.625
7990.528
7982.593
7974.742
7967.192
7960.202
7953.778
7947.396
7940.791
7933.944
7926.883
7919.059
7909.89
7900.852
7890.641
5225.69
5230.87
5192.321
5104.153
5036.044
5059.641
4959.807
4907.353
4902.422
4893.705
4880.797
4987.854
5228.248
5320.17
5561.837
5757.005
6012.483
6078.627
6185.006
6310.797
6420.806
6522.604
6612.4
6696.044
6776.272
6851.878
6922.422
6982.532
7036.357
7082.279
7117.361
7144.403
7162.905
7175.823
7192.07
7215.708
7245.2
7274.692
7299.025
7327.227
7332.957
7304.779
7263.781
7207.254
7127.697
7032.33
6955.244
6903.628
6849.447
6777.14
6681.827
6556.89
6400.993
6247.427
6105.94
5978.747
5863.736
5822.932
5887.867
6016.173
6167.742
6323.79
6471.128
6604.642
6733.026
6863.549
6991.08
7102.199
7177.093
7231.554
7287.217
7337.993
7363.291
7370.736
7374.917
7362.977
7335.529
7297.709
7239.579
7155.228
7035.439
6869.499
6676.088
6472.608
6281.208
6108.637
5954.084
5830.31
5746.576
5712.389
5725.624
5783.05
5883.087
6016.583
6168.461
6331.235
6491.651
6638.973
6774.841
6895.979
7002.519
7095.644
7176.053
7245.439
7304.736
7354.98
7396.62
7430.531
7456.943
7476.534
7491.335
7502.677
7511.443
7518.282
7522.878
7525.097
7524.936
7522.759
7519.41
7515.538
7511.862
7508.864
7505.932
7499.919
7491.717
7484.074
7477.313
7472.258
7468.539
7465.715
7464.169
7464.082
7464.989
7466.512
7468.523
7471.23
7474.683
7478.651
7483.023
7487.826
7493.092
7498.763
7504.682
7510.451
7515.681
7520.254
7524.088
7527.032
7529.099
7530.49
7531.351
7531.829
7532.031
7532.121
7532.236
7532.411
7532.965
7533.548
7534.653
7535.834
7536.997
7538.011
7538.491
7538.465
7537.468
7535.85
7534.126
7533.204
7533.881
7536.274
7540.442
7546.31
7553.371
7561.29
7569.905
7579.045
7588.437
7597.843
7606.967
7615.297
7622.487
7628.477
7633.762
7638.641
7643.483
7648.026
7651.216
7654.447
7658.254
7662.418
7666.634
7670.691
7674.691
7678.627
7682.677
7686.85
7691.102
7695.278
7699.167
7702.728
7706.01
7709.06
7711.753
7714.091
7716.166
7718.044
7719.807
7721.313
7722.487
7723.385
7724.086
7724.312
7723.908
7723.104
7721.551
7719.55
7717.152
7714.869
7712.603
7710.188
7709.521
7709.933
7710.749
7712.813
7715.571
7717.767
7719.628
7721.652
7724.045
7726.736
7729.499
7732.17
7734.643
7736.86
7738.812
7740.664
7742.504
7744.255
7745.908
7747.542
7749.253
7751.004
7752.996
7755.143
7756.807
7758.658
7760.727
7763.029
7765.558
7768.23
7770.837
7773.407
7776.025
7778.587
7780.636
7783.179
7786.396
7789.613
7792.73
7796.218
7799.214
7800.593
7800.004
7797.436
7795.263
7793.265
7790.228
7787.367
7787.972
7790.308
7792.808
7795.516
7798.365
7800.956
7803.332
7805.343
7807.18
7808.942
7810.364
7811.449
7812.5
7813.531
7814.672
7815.874
7817.033
7818.114
7818.891
7819.606
7820.321
7821.208
7821.632
7821.646
7821.24
7820.693
7820.054
7819.048
7817.683
7816.18
7814.598
7812.809
7811.07
7809.336
7807.532
7805.985
7804.184
7802.362
7800.689
7799.16
7797.738
7796.186
7794.185
7791.828
7789.478
7787.42
7785.737
7784.238
7782.792
7781.221
7779.504
7777.936
7776.591
7775.638
7775.106
7774.773
7774.583
7774.773
7775.318
7776.226
7777.405
7778.953
7780.452
7781.02
7781.579
7782.986
7784.939
7786.375
7787.348
7788.248
7789.206
7790.685
7792.744
7795.677
7799.734
7804.985
7810.908
7816.327
7821.562
7827.21
7832.922
7838.824
7844.962
7851.001
7857.437
7864.162
7870.702
7876.791
7882.533
7888.404
7894.443
7900.524
7906.705
7912.828
7918.784
7924.58
7930.357
7936.055
7941.799
7947.883
7954.406
7961.216
7967.803
7974.014
7979.932
7985.833
7992.06
7998.614
8005.392
8012.139
8018.993
8026.034
8033.255
8040.471
8047.573
8054.563
8061.358
8067.964
8074.316
8080.581
8086.311
8090.217
8093.559
8100.682
8107.966
8115.788
8124.503
8132.71
8140.614
8148.633
8156.73
8164.8
8172.621
8180.018
8187.072
8194.157
8200.871
8207.686
8214.566
8221.154
8225.995
8228.901
8233.231
8238.624
8243.533
8247.796
8250.545
8252.365
8254.965
8255.696
8257.13
8258.677
8259.881
8259.871
8259.331
8258.759
8257.263
8254.908
8251.92
8249.364
8247.889
8244.783
8241.089
8236.817
8232.971
8228.116
8222.187
8215.735
8208.988
8201.824
8194.262
8186.538
8178.531
8170.134
8161.668
8153.348
8143.811
8132.546
8123.483
8115.733
8105.698
8094.409
8082.931
8072.059
8061.584
8051.468
8041.174
8030.773
8020.424
8010.842
8001.867
7993.232
7984.703
7976.151
7967.721
7959.872
7952.621
7945.915
7938.932
7931.653
7924.035
7916.297
7907.89
7898.713
7889.335
7879.27
5421.367
5405.748
5410.103
5356.781
5308.482
5259.752
5252.042
5245.627
5263.501
5298.093
5278.453
5227.983
5138.912
5083.812
5010.561
4944.26
4899.101
4910.637
4890.249
4784.436
4831.225
4974.949
5134.962
5289.022
5469.406
5751.87
5951.558
5965.279
6125.211
6273.694
6382.375
6483.21
6575.854
6662.281
6744.108
6823.223
6895.704
6955.367
7011.019
7060.478
7100.845
7133.362
7162.099
7188.609
7214.012
7235.513
7246.271
7267.369
7290.727
7304.826
7312.212
7279.122
7220.147
7167.807
7100.223
7009.963
6932.858
6879.483
6822.567
6741.088
6632.99
6497.243
6353.289
6200.932
6047.513
5903.107
5804.831
5773.688
5846.276
5991.58
6149.276
6310.062
6461.596
6597.414
6727.254
6858.665
6991.803
7109.836
7198.663
7259.409
7324.935
7373.571
7386.145
7396.55
7410.42
7426.324
7399.541
7352.946
7284.958
7173.859
7019.141
6829.95
6615.27
6408.039
6223.725
6053.278
5898.646
5772.456
5683.78
5643.935
5653.113
5708.663
5812.31
5951.498
6114.704
6287.778
6456.884
6614.463
6756.702
6882.211
6991.849
7086.617
7168.218
7238.046
7297.411
7347.435
7388.98
7422.939
7449.991
7470.797
7486.458
7498.247
7507.006
7513.444
7517.953
7520.384
7520.786
7519.373
7516.71
7512.998
7508.91
7504.626
7499.836
7494.171
7488.2
7482.013
7476.345
7471.596
7467.758
7464.758
7463.055
7462.878
7463.811
7465.36
7467.474
7470.222
7473.722
7477.855
7482.466
7487.492
7492.726
7498.099
7503.537
7508.802
7513.696
7518.071
7521.772
7524.734
7526.904
7528.263
7528.916
7529.022
7528.786
7528.448
7528.127
7527.822
7527.959
7528.63
7529.385
7530.79
7532.401
7534.018
7535.237
7536.151
7536.64
7536.582
7536.457
7536.692
7537.926
7540.429
7544.083
7549.098
7555.354
7562.578
7570.578
7579.088
7587.721
7596.317
7604.542
7612.218
7619.339
7625.915
7631.834
7637.244
7642.238
7646.849
7650.913
7654.702
7658.464
7662.266
7666.233
7670.236
7674.278
7678.295
7682.345
7686.423
7690.453
7694.332
7698.001
7701.451
7704.725
7707.78
7710.47
7712.826
7714.862
7716.736
7718.489
7720.048
7721.255
7722.043
7722.489
7722.488
7722.045
7720.937
7719.282
7717.3
7715.573
7713.988
7711.656
7709.408
7708.928
7710.155
7712.317
7714.817
7717.404
7719.484
7721.155
7722.991
7725.113
7727.544
7730.082
7732.529
7734.858
7736.972
7738.847
7740.659
7742.437
7744.126
7745.814
7747.635
7749.646
7751.599
7753.487
7754.962
7756.485
7758.586
7760.901
7763.262
7765.613
7768.136
7770.758
7773.399
7776.327
7778.738
7780.98
7784.067
7786.994
7789.299
7791.443
7793.715
7795.608
7796.692
7796.663
7795.531
7794.742
7794.318
7793.212
7791.319
7790.651
7791.752
7793.38
7795.505
7797.912
7800.174
7802.233
7804.201
7806.065
7807.917
7809.695
7811.496
7813.112
7814.582
7815.854
7816.894
7817.648
7818.287
7818.901
7819.529
7820.346
7821.004
7821.026
7820.611
7819.996
7819.054
7818.402
7817.657
7816.654
7815.256
7813.714
7812.528
7811.121
7809.411
7807.672
7805.871
7804.013
7802.225
7800.903
7799.721
7798.08
7796.087
7793.855
7791.548
7789.266
7787.186
7785.324
7783.583
7781.909
7780.321
7778.743
7777.167
7775.719
7774.432
7773.51
7772.876
7772.448
7772.189
7771.716
7771.339
7771.015
7770.47
7770.787
7771.121
7771.025
7771.014
7770.374
7769.947
7770.245
7771.774
7774.753
7778.992
7783.962
7789.126
7794.248
7799.505
7805.234
7811.874
7818.541
7824.928
7831.319
7837.853
7844.415
7851.017
7857.389
7863.079
7869.039
7875.42
7881.308
7887.295
7893.509
7899.766
7906.027
7912.199
7918.183
7923.99
7929.694
7935.32
7941.142
7947.351
7953.773
7960.206
7966.482
7972.489
7978.39
7984.438
7990.756
7997.327
8004.081
8010.92
8017.767
8024.693
8031.697
8038.754
8045.767
8052.759
8059.55
8066.291
8072.924
8079.661
8086.646
8091.779
8096.654
8102.835
8110.484
8117.888
8126.04
8134.283
8142.301
8149.799
8157.281
8165.347
8173.442
8180.981
8187.975
8195.499
8202.908
8209.962
8216.437
8222.073
8226.886
8230.991
8236.086
8241.218
8245.846
8250.159
8253.317
8255.959
8257.892
8259.121
8260.711
8262.188
8263.666
8263.753
8262.834
8261.754
8260.236
8258.253
8256.048
8253.872
8252.655
8250.423
8245.331
8239.395
8234.462
8229.885
8224.763
8218.047
8210.104
8201.602
8192.905
8184.196
8176.112
8170.591
8163.673
8155.571
8145.234
8132.516
8123.663
8114.559
8104.416
8092.474
8080.205
8068.642
8058.05
8048.226
8037.477
8025.126
8013.602
8005.804
7997.169
7987.338
7977.153
7967.461
7958.534
7950.936
7943.727
7936.907
7929.362
7921.451
7913.408
7905.476
7896.919
7887.153
7877.225
7868.139
5493.738
5491.595
5485.138
5475.041
5458.29
5437.465
5413.875
5387.478
5352.71
5305.319
5215.542
5206.789
5234.22
5282.479
5300.265
5252.756
5209.348
5115.837
5018.174
4991.813
4923.617
4905.69
4928.149
4842.095
4783.912
4846.681
4919.089
5048.201
5244.119
5396.583
5562.808
5765.514
5921.913
6060.614
6192.962
6308.112
6414.693
6516.296
6611.004
6698.385
6779.244
6852.954
6916.783
6976.086
7028.032
7069.751
7105.361
7137.551
7161.119
7175.995
7196.025
7217.05
7237.893
7258.791
7268.114
7269.119
7242.098
7188.573
7134.342
7068.612
6983.131
6904.817
6853.111
6795.178
6709.721
6594.22
6451.455
6305.232
6157.532
6015.145
5903.922
5833.355
5808.299
5863.692
5988.459
6144.267
6304.671
6456.966
6596.269
6734.421
6871.551
7006.798
7121.308
7203.749
7262.814
7322.733
7389.895
7440.948
7449.767
7435.178
7416.756
7404.837
7373.113
7304.277
7181.148
7008.59
6805.729
6585.299
6374.329
6189.937
6020.494
5863.332
5736.307
5643.383
5593.121
5592.53
5647.712
5753.47
5899.906
6070.993
6251.311
6427.45
6591.409
6738.792
6867.961
6979.617
7075.642
7157.672
7227.643
7286.98
7336.942
7378.559
7412.729
7440.286
7461.819
7478.204
7490.568
7499.613
7505.967
7510.249
7512.61
7513.428
7512.765
7510.825
7507.965
7504.283
7500.299
7496.073
7491.326
7486.185
7480.659
7475.097
7470.232
7466.521
7463.673
7462.008
7461.753
7462.639
7464.333
7466.686
7469.621
7473.16
7477.277
7481.849
7486.795
7491.956
7497.121
7502.182
7507.107
7511.792
7515.93
7519.407
7522.275
7524.455
7525.866
7526.621
7526.951
7526.987
7526.896
7526.766
7526.489
7526.388
7526.83
7527.469
7528.696
7530.229
7531.923
7533.526
7534.903
7536.124
7537.028
7537.834
7539.007
7540.718
7543.252
7546.737
7551.24
7556.949
7563.673
7571.144
7579.086
7587.162
7595.223
7603.097
7610.534
7617.525
7624.051
7629.97
7635.34
7640.323
7644.995
7649.313
7653.381
7657.263
7660.999
7664.825
7668.802
7672.919
7677.029
7681.139
7685.201
7689.15
7692.936
7696.48
7699.877
7703.102
7706.179
7708.958
7711.41
7713.53
7715.424
7717.138
7718.637
7719.836
7720.63
7721.079
7721.236
7721.194
7720.855
7719.983
7718.934
7718.003
7717.127
7715.726
7713.993
7713.352
7713.988
7715.496
7717.275
7719.427
7721.223
7722.601
7724.147
7725.892
7727.862
7730.014
7732.194
7734.245
7736.188
7737.961
7739.586
7741.157
7742.807
7744.595
7746.395
7748.24
7750.071
7751.887
7753.689
7755.456
7757.384
7759.34
7761.399
7763.67
7766.255
7768.852
7771.199
7773.902
7776.58
7778.986
7781.469
7784.105
7786.642
7788.95
7790.843
7792.554
7793.686
7793.532
7793.287
7793.287
7793.484
7793.452
7793.038
7793.056
7794.193
7796.152
7798.398
7800.953
7803.551
7806.056
7808.112
7809.929
7811.456
7812.716
7814.009
7815.266
7816.525
7817.716
7818.784
7819.592
7820.336
7821.179
7821.759
7822.297
7822.59
7822.664
7822.462
7822.158
7821.965
7821.759
7821.108
7819.596
7817.419
7815.399
7814.393
7813.28
7811.819
7809.706
7807.691
7805.833
7803.803
7802.153
7800.795
7799.025
7796.741
7794.07
7791.492
7789.106
7787.056
7785.089
7783.052
7781.078
7779.33
7777.622
7775.933
7774.374
7773.115
7772.165
7771.497
7771.092
7770.782
7770.521
7770.532
7771.235
7773.174
7774.134
7775.205
7776.317
7777.461
7778.61
7779.768
7781.236
7783.143
7785.563
7788.609
7791.915
7795.474
7799.419
7803.987
7809.178
7814.759
7820.513
7826.329
7832.173
7838.273
7844.421
7850.573
7856.386
7861.977
7867.964
7874.35
7880.426
7886.564
7892.962
7899.469
7905.889
7912.066
7917.992
7923.602
7929.082
7934.666
7940.498
7946.634
7953.058
7959.478
7965.853
7971.929
7977.851
7983.887
7990.167
7996.669
8003.258
8010.052
8016.791
8023.668
8030.48
8037.474
8044.402
8051.315
8058.062
8064.801
8071.531
8078.706
8086.257
8092.013
8097.116
8103.005
8110.933
8118.075
8126.368
8134.694
8142.639
8149.749
8157.181
8165.138
8173.339
8181.045
8188.201
8195.478
8203.134
8210.357
8217.166
8223.242
8228.681
8233.546
8238.552
8243.537
8248.079
8252.2
8255.564
8258.398
8260.801
8262.644
8264.391
8265.763
8266.718
8266.729
8266.032
8265.005
8263.606
8261.783
8259.75
8257.688
8256.792
8254.78
8249.285
8242.733
8238.012
8232.613
8227.483
8221.052
8213.136
8203.464
8194.545
8185.994
8177.209
8170.984
8164.61
8155.198
8143.763
8131.001
8120.272
8110.348
8099.422
8088.52
8077.197
8064.251
8054.992
8046.47
8035.676
8020.882
8007.937
8001.412
7994.011
7982.328
7970.547
7958.952
7950.434
7943.5
7935.22
7926.899
7918.42
7909.906
7901.902
7894.183
7886.391
7876.452
7865.155
7857.215
5493.524
5494.708
5490.376
5483.752
5463.961
5438.823
5407.547
5370.462
5324.114
5265.231
5218.094
5205.073
5229.363
5281.012
5306.651
5249.465
5196.636
5097.511
4976.499
5013.393
5035.272
4984.381
4895.482
4817.943
4841.319
4876.156
4917.883
5023.103
5184.054
5328.013
5454.962
5615.834
5838.186
6002.461
6101.107
6213.112
6333.92
6445.939
6548.13
6639.797
6722.544
6799.123
6867.388
6928.284
6983.418
7031.01
7069.326
7101.214
7130.138
7156.786
7178.878
7199.293
7215.901
7229.912
7234.646
7226.454
7202.171
7151.92
7097.31
7034.983
6958.704
6890.092
6830.322
6764.608
6663.349
6552.927
6439.821
6292.049
6140.014
6029.293
5952.2
5897.318
5859.959
5881.913
5992.402
6147.103
6308.37
6461.195
6603.243
6742.092
6877.946
6998.693
7103.535
7197.058
7280.645
7346.573
7387.05
7408.432
7422.364
7444.752
7451.153
7415.155
7356.426
7271.254
7155.177
6988.565
6787.229