/*--------------------------------*- C++ -*----------------------------------*\
| =========                 |                                                 |
| \\      /  F ield         | foam-extend: Open Source CFD                    |
|  \\    /   O peration     | Version:     3.1                                |
|   \\  /    A nd           | Web:         http://www.extend-project.de       |
|    \\/     M anipulation  |                                                 |
\*---------------------------------------------------------------------------*/
FoamFile
{
    version     2.0;
    format      ascii;
    class       surfaceScalarField;
    location    "5.5";
    object      phi;
}
// * * * * * * * * * * * * * * * * * * * * * * * * * * * * * * * * * * * * * //

dimensions      [0 3 -1 0 0 0 0];

internalField   nonuniform List<scalar> 
275122
(
-3.937044e-08
3.56604e-08
-8.893246e-08
9.264251e-08
-4.488796e-08
1.155601e-07
-1.564318e-07
8.575965e-08
-7.091631e-07
1.108628e-06
-1.719587e-07
-2.275066e-07
-3.692845e-06
4.57491e-06
-1.828431e-07
-6.992225e-07
-7.376268e-06
8.388962e-06
7.052187e-08
-1.083215e-06
-1.204117e-05
1.235966e-05
3.277753e-07
-6.46264e-07
-1.257989e-05
1.279997e-05
4.090485e-07
-6.291254e-07
-1.309256e-05
1.324201e-05
4.046944e-07
-5.541459e-07
-1.481565e-05
1.517812e-05
2.952063e-07
-6.576786e-07
-1.784262e-05
1.854869e-05
-7.833996e-08
-6.277273e-07
-2.167799e-05
2.235767e-05
-1.551425e-07
-5.245425e-07
-2.443561e-05
2.47837e-05
-1.202845e-07
-2.278124e-07
-2.559043e-05
2.586187e-05
-8.756013e-08
-1.838779e-07
-2.668278e-05
2.691619e-05
-6.740177e-08
-1.660125e-07
-2.83329e-05
2.896112e-05
-5.221953e-08
-5.760023e-07
-3.04159e-05
3.094104e-05
8.733201e-09
-5.338752e-07
-3.204933e-05
3.192426e-05
4.102789e-08
8.404858e-08
-3.213825e-05
3.221587e-05
3.454653e-08
-1.121693e-07
-3.205934e-05
3.25025e-05
3.168098e-08
-4.748416e-07
-3.257986e-05
3.434191e-05
5.137651e-08
-1.813432e-06
-3.514153e-05
3.623845e-05
-4.553696e-08
-1.051389e-06
-3.725207e-05
3.725429e-05
2.014009e-08
-2.236097e-08
-3.861795e-05
3.950504e-05
5.979928e-08
-9.468917e-07
-4.371555e-05
4.482381e-05
-2.079766e-07
-9.002809e-07
-4.562204e-05
4.574884e-05
-3.338308e-07
2.070245e-07
-4.52808e-05
4.464242e-05
-3.248152e-07
9.631973e-07
-4.501213e-05
4.493068e-05
3.881411e-08
4.26389e-08
-4.064501e-05
3.797683e-05
1.767067e-07
2.491476e-06
-2.517969e-05
2.014862e-05
2.405727e-07
4.790493e-06
-2.023713e-05
2.140068e-05
-1.221923e-07
-1.041355e-06
3.651e-05
-4.399222e-05
-5.972207e-07
8.079436e-06
5.585877e-05
-6.150082e-05
-5.043747e-07
6.146432e-06
6.363457e-05
-6.112825e-05
-1.384969e-07
-2.367824e-06
6.442544e-05
-6.510407e-05
-1.790877e-07
8.577197e-07
6.480083e-05
-6.319895e-05
6.276845e-08
-1.664653e-06
6.025259e-05
-5.918936e-05
-2.124992e-07
-8.50727e-07
5.452039e-05
-5.259614e-05
-2.507671e-07
-1.673481e-06
4.742664e-05
-4.516797e-05
-2.626786e-07
-1.995992e-06
3.457013e-05
-3.218748e-05
-1.880897e-07
-2.19456e-06
3.002734e-05
-3.400874e-05
-4.524968e-07
4.4339e-06
-1.614576e-06
1.754271e-05
-1.894309e-05
-3.479152e-08
3.049756e-06
-2.873453e-07
2.01038e-05
-2.042698e-05
6.840705e-08
5.421133e-07
-3.59341e-07
2.025234e-05
-2.015255e-05
8.231434e-08
1.772368e-07
-1.692918e-08
1.988328e-05
-1.935183e-05
7.635993e-08
-5.908775e-07
8.377511e-07
1.639431e-05
-1.581045e-05
4.000117e-08
-1.461607e-06
8.813334e-07
1.29423e-05
-1.091343e-05
4.032983e-09
-2.914241e-06
5.799473e-07
6.665692e-06
-4.435753e-06
-9.74427e-08
-2.712444e-06
1.010899e-06
3.796124e-06
-2.436093e-06
-2.03328e-07
-2.167603e-06
1.385878e-07
3.034477e-07
-1.624054e-08
-2.730477e-07
-1.527472e-07
2.048164e-08
-1.698827e-05
1.971125e-05
-6.814844e-07
-2.185978e-06
2.856899e-08
1.508485e-07
-5.540988e-08
1.134276e-09
-1.877002e-05
1.974324e-05
8.549737e-07
-1.941584e-06
1.681363e-07
-6.501154e-08
9.131763e-09
3.975512e-07
-2.329976e-05
2.899114e-05
1.20806e-07
-7.697666e-06
5.655743e-07
3.874253e-07
5.349299e-07
1.587606e-06
-3.498269e-05
4.214819e-05
3.901835e-07
-1.440933e-05
1.863218e-06
1.575266e-06
1.827554e-06
2.448768e-06
-5.017613e-05
5.154282e-05
1.302007e-06
-1.269488e-05
2.50887e-06
2.490564e-06
2.577978e-06
1.398086e-06
-5.757664e-05
5.761018e-05
1.993633e-07
-5.972441e-06
1.44663e-06
1.385733e-06
1.509094e-06
1.270628e-06
-6.099908e-05
6.574728e-05
-4.80147e-08
-8.715005e-06
7.387995e-07
1.227749e-06
7.776403e-07
-1.307395e-06
-6.724489e-05
6.911125e-05
3.612854e-07
3.922267e-06
-1.692766e-06
-1.377677e-06
-1.772081e-06
-2.094991e-06
-6.672273e-05
6.176792e-05
6.362985e-07
1.149935e-05
-1.47939e-06
-1.900832e-06
-1.705622e-06
-7.309892e-06
-4.923512e-05
6.363438e-05
6.612978e-07
1.465618e-05
-7.338007e-06
-7.763926e-06
-7.304902e-06
-2.609386e-06
-6.678705e-05
6.741422e-05
-3.274811e-07
8.949253e-06
-1.550852e-06
-2.858175e-06
-2.230533e-06
-9.117814e-07
-6.969309e-05
7.150599e-05
-7.933438e-07
2.353103e-06
-9.54336e-07
-1.062514e-06
-4.440321e-07
-5.703849e-07
-7.675072e-05
8.194058e-05
-1.015146e-06
-1.290351e-06
-8.25897e-07
-1.068546e-06
-4.195323e-07
-5.918048e-07
-8.844896e-05
9.581986e-05
-9.649647e-07
-3.789731e-06
-5.257811e-07
-9.239664e-07
-5.746572e-07
2.50849e-07
-0.0001033097
0.0001111611
-8.848348e-07
-7.009521e-06
-2.329331e-09
-4.0466e-08
-1.650936e-07
2.497415e-06
-0.0001184712
0.0001235826
-7.735706e-07
-1.134725e-05
2.25314e-06
9.536641e-07
1.305182e-06
1.422636e-06
-0.0001268414
0.0001268969
-3.22228e-08
-1.296017e-05
7.925576e-06
1.139058e-06
2.449687e-06
8.300209e-07
-0.0001167552
0.0001086426
1.028645e-06
-5.461177e-06
6.666563e-06
3.138309e-06
1.910208e-06
-2.625323e-06
-0.0001121424
0.0001190034
1.983033e-08
-4.326582e-06
1.229189e-06
-1.39428e-06
2.361099e-07
-2.43242e-06
-0.0001268687
0.000134897
-1.740174e-07
-5.421864e-06
-8.657266e-07
-0.0001455403
0.0001563117
-7.370432e-07
-9.168686e-06
2.306508e-06
-0.0001650927
0.0001788809
-1.477367e-06
-1.461736e-05
3.081929e-05
-0.0001872766
0.0001805895
-9.385972e-07
-2.319358e-05
1.187131e-05
-0.0001814967
0.0001828532
1.245811e-06
-1.447362e-05
1.191842e-05
-0.0001824187
0.0001909633
5.800374e-08
-2.052102e-05
1.027838e-05
-0.0002004245
0.0002110012
2.622673e-07
-2.111737e-05
1.379435e-05
-0.0002197374
0.000230094
-6.878717e-07
-2.346301e-05
2.043566e-05
-0.0002400043
0.0002444196
-1.676628e-06
-2.317435e-05
1.365722e-05
-0.0002505387
0.0002565874
-9.245385e-07
-1.878135e-05
1.101831e-05
-0.0002600541
0.0002677397
-2.001366e-07
-1.850383e-05
9.404358e-06
-0.0002755945
0.0002820392
-5.22279e-08
-1.57968e-05
6.210197e-06
-0.0002883542
0.0002949953
2.389011e-07
-1.309024e-05
6.647395e-06
-0.0003004903
0.0003055535
3.270783e-07
-1.203775e-05
6.849723e-06
-0.0003105099
0.0003141388
2.009969e-07
-1.067959e-05
3.214897e-06
-0.0003155142
0.0003198273
3.823974e-07
-7.910443e-06
4.360464e-06
-0.0003225124
0.0003258887
5.592176e-07
-8.296017e-06
5.608976e-07
-0.0003280369
0.0003328941
6.89016e-07
-6.107097e-06
4.645652e-06
-0.0003354647
0.0003378333
7.332701e-07
-7.747518e-06
7.249697e-06
-0.0003365191
0.0003352455
7.538196e-07
-6.729951e-06
-5.215836e-07
-0.0003414196
0.0003459207
9.306248e-07
-4.910211e-06
7.039082e-06
-0.0003490777
0.0003485517
6.549607e-07
-7.168085e-06
1.294139e-05
-0.0003483679
0.0003416448
7.453355e-07
-6.963638e-06
-1.359217e-07
-0.0003403263
0.0003432103
7.364879e-07
-3.484513e-06
1.061232e-05
-0.000342498
0.0003290128
7.999373e-07
2.072934e-06
-3.289413e-06
-0.0003235148
0.000311298
1.330252e-06
1.41759e-05
-9.044945e-06
-0.0002976767
0.000290778
1.239074e-07
1.581973e-05
-2.488219e-05
-0.0002854718
0.0002816111
7.573605e-08
2.866718e-05
-6.778035e-05
-0.0002869944
0.0003099515
2.491452e-07
4.457411e-05
-1.157923e-05
-0.0003167893
0.0003145939
7.897687e-07
4.361513e-05
-1.205826e-05
-7.828406e-06
-1.074364e-05
-1.958928e-06
-0.0003190848
0.0002992568
3.556623e-07
2.630805e-05
-9.063071e-07
-1.994876e-06
-1.975601e-06
-2.676502e-06
-0.0002914571
0.0002870642
4.184195e-07
1.188888e-05
-1.73867e-06
-1.839933e-06
-1.659307e-06
-1.094802e-06
-0.0002832294
0.0002826395
2.260242e-07
3.972539e-06
-6.504255e-07
-8.454689e-07
-1.01797e-06
-3.813846e-07
-0.0002834692
0.0002858629
1.368594e-07
-6.590559e-07
-6.504026e-07
-3.853975e-07
-4.542985e-07
-1.763084e-08
-0.0002902637
0.000296041
-7.999819e-08
-6.326501e-06
1.172084e-07
2.294216e-07
3.001372e-07
9.290588e-07
-0.0003035544
0.0003126655
-7.836316e-08
-1.317784e-05
1.369457e-06
8.979752e-07
9.485533e-07
3.08292e-06
-0.0003219068
0.0003310629
-1.87277e-07
-1.824204e-05
1.685162e-06
1.521411e-06
2.983682e-06
1.32919e-06
-0.0003411034
0.0003520146
-1.887022e-07
-1.872805e-05
1.42312e-06
1.77022e-06
3.483078e-06
3.018871e-06
-0.0003626237
0.000372868
-9.167469e-08
-2.302038e-05
4.130409e-06
2.053007e-06
3.665476e-06
4.798804e-06
-0.0003861925
0.00039701
-3.060994e-07
-3.05618e-05
5.824365e-06
6.298366e-06
3.128921e-06
4.912539e-06
-0.000402093
0.000410934
-5.782293e-07
-2.909041e-05
4.191618e-06
7.826086e-06
3.897391e-06
1.237161e-05
-0.0004172187
0.0004202803
-4.599757e-07
-3.210813e-05
6.545642e-06
5.966217e-06
4.623076e-06
1.018913e-05
-0.000418579
0.0003991735
1.270507e-07
-2.833922e-05
6.857678e-06
1.231566e-05
1.825515e-05
7.100589e-06
-0.0003785162
0.0003594242
7.144152e-07
-1.421724e-05
8.840707e-06
9.139222e-06
7.514327e-06
5.176132e-06
-0.0003390514
0.000332306
8.923657e-09
-9.045259e-06
4.279049e-06
3.724239e-06
2.602344e-06
1.887385e-06
-0.0003349086
0.0003382526
-2.435693e-07
-1.27968e-05
1.26172e-06
3.669498e-06
2.877773e-06
6.374859e-07
-0.0003428089
0.0003479837
-3.079253e-07
-7.121613e-06
6.944384e-07
4.898686e-07
4.330008e-07
3.126068e-07
-0.0003515102
0.0003550783
-1.966995e-07
-4.348683e-06
4.126047e-07
1.80141e-07
7.191506e-08
8.224932e-07
-0.0003582762
0.0003608796
-2.786334e-07
-4.423476e-06
4.227881e-07
3.12082e-07
5.413703e-07
8.959283e-07
-0.0003620656
0.0003629355
-5.309972e-07
-3.638464e-06
6.158717e-07
6.133398e-07
1.174365e-06
9.937024e-07
-0.0003620532
0.0003602044
2.672087e-07
-3.041525e-06
5.015172e-07
2.617346e-06
5.106161e-07
9.741508e-07
-0.0003584058
0.000356523
1.416209e-07
-3.462654e-07
1.408914e-07
6.752887e-07
2.971234e-07
-2.266921e-07
-0.0003587914
0.0003621415
-6.621207e-08
-2.263717e-06
-3.038359e-07
-2.442358e-07
-2.453747e-07
-4.176241e-07
-0.0003657696
0.000369942
-2.918966e-08
-2.516357e-06
-4.278041e-07
-3.877378e-07
-3.937144e-07
-5.011973e-07
0.0003798821
-1.388512e-08
-3.587601e-06
-4.965498e-07
-3.969363e-07
-3.642114e-07
-0.0003745217
-4.18852e-07
-0.0003856152
0.0003925203
3.758604e-08
-5.402792e-06
-3.995073e-07
-3.493141e-07
-3.722924e-07
-2.952578e-07
-0.0004000214
0.0004079733
-7.005681e-09
-7.007211e-06
-1.648312e-07
-3.036004e-07
-1.739654e-07
1.288129e-07
-0.0004151327
0.0004223611
-2.062626e-07
-7.943442e-06
2.159325e-07
1.8653e-07
3.900774e-07
1.716929e-07
-0.0004288182
0.0004365776
-1.217485e-07
-8.341524e-06
1.969877e-07
1.004632e-07
2.346868e-07
4.954941e-07
-0.0004437046
0.0004508785
1.401655e-07
-9.531034e-06
7.323295e-07
3.829258e-07
6.061934e-07
9.768071e-07
-0.0004570503
0.0004627338
2.241515e-07
-8.827937e-06
1.149938e-06
3.572877e-07
4.362681e-07
1.196813e-06
-0.0004670346
0.000469609
2.337158e-07
-7.603479e-06
1.697562e-06
9.572736e-07
9.436859e-07
7.479539e-07
-0.000471073
0.0004705491
2.891573e-07
-4.383803e-06
1.419916e-06
1.177445e-06
1.273231e-06
2.036709e-07
-0.0004687631
0.000466908
4.140475e-07
-1.307881e-06
1.45957e-07
1.61613e-06
7.831743e-07
3.769159e-07
-0.0004659091
0.0004629083
1.232623e-07
5.892869e-07
2.121335e-07
9.410855e-07
7.581203e-07
1.659912e-07
-0.0004602974
0.0004575258
1.21645e-07
1.72889e-06
2.381825e-07
2.801991e-07
2.366965e-07
-7.230972e-08
-0.0004548706
0.0004528224
-3.208004e-09
2.503746e-06
2.138107e-07
-2.650143e-07
-3.288931e-07
-8.468736e-07
-0.0004503939
0.0004494213
-5.454671e-08
3.95068e-06
-8.442138e-07
-5.822501e-07
-6.50261e-07
-1.431534e-06
-0.0004476578
0.0004480108
1.073287e-08
3.94479e-06
-1.022214e-06
-1.000717e-06
-8.541036e-07
-7.195352e-07
-0.0004462645
0.0004448095
1.798034e-07
4.496372e-06
-6.019094e-07
-1.205367e-06
-6.943581e-07
-2.795087e-06
-0.0004432914
0.0004422886
4.963654e-07
6.706477e-06
-1.696877e-06
-9.019097e-07
-8.061983e-07
-1.057033e-06
-0.0004383588
0.0004348489
4.425714e-07
6.011185e-06
-8.35572e-07
-5.458763e-07
-5.054322e-07
-2.161902e-06
-0.0004326649
0.0004330905
3.673297e-07
7.041292e-06
-2.269323e-06
-2.06477e-06
-1.338245e-06
-1.835572e-06
-0.0004324567
0.0004326282
4.660182e-07
7.224894e-06
-1.348635e-06
-3.000349e-06
-1.677902e-06
-1.880998e-06
-0.0004309705
0.0004302199
3.581425e-07
8.624176e-06
-1.635282e-06
-3.295245e-06
-1.42019e-06
-2.138666e-06
-0.000427743
0.0004262085
5.501605e-07
9.829234e-06
-1.626657e-06
-3.742639e-06
-1.336963e-06
-2.400434e-06
-0.0004220956
0.0004203153
5.672575e-07
1.256788e-05
-2.270523e-06
-4.13203e-06
-2.551869e-06
-3.464622e-06
-0.0004174377
0.0004222944
2.629238e-07
1.630887e-05
-4.084822e-06
-6.83932e-06
-7.039712e-06
-1.013682e-05
-0.0004239768
0.0004420007
-3.629429e-07
1.744731e-05
-1.37648e-05
-3.083537e-06
-8.123151e-06
-4.891846e-06
-0.0004232458
0.0004240291
-5.186669e-07
3.528904e-05
-1.556986e-05
-6.163759e-06
-8.928254e-06
-2.27753e-06
-0.0004179969
0.0004092983
-4.676286e-07
8.846701e-06
7.997461e-07
1.057985e-06
7.393547e-07
5.079646e-07
-0.0003936111
0.0003803422
-2.399195e-07
1.022721e-05
1.13586e-06
-3.568031e-07
1.994521e-06
7.398216e-07
-0.0003681708
0.0003591207
-7.907462e-07
6.139817e-06
6.694907e-07
1.064599e-06
1.227097e-06
1.374502e-06
-0.0003537651
0.0003469177
-1.65457e-07
4.244637e-06
7.290388e-07
5.411893e-07
1.234719e-07
-1.755955e-07
-0.0003422479
0.0003395633
-3.517595e-07
3.597354e-06
-2.254645e-07
-7.47772e-08
-8.51422e-08
1.316009e-07
-0.0003371535
0.0003344998
-1.897516e-07
2.206852e-06
2.124222e-07
8.269978e-08
2.098644e-07
9.481201e-08
-0.0003324794
0.0003279408
1.829833e-07
1.197997e-06
1.327904e-06
8.330668e-07
9.018144e-07
1.6812e-06
-0.0003225526
0.0003180807
-3.289373e-07
-1.056943e-06
1.678455e-06
2.085239e-06
4.128925e-07
1.100485e-06
-0.0003150279
0.0003113738
1.508391e-09
2.689471e-07
5.912358e-07
1.187247e-06
5.046926e-07
4.125134e-07
-0.0003114501
0.000311892
-4.700801e-07
-1.101358e-06
2.367552e-07
2.216377e-07
2.585402e-07
4.026889e-07
-0.0003131706
0.0003146789
-5.116946e-07
-2.274658e-06
4.227358e-08
3.946333e-07
4.383805e-07
4.025546e-07
-0.0003169301
0.0003196006
-9.53384e-07
-4.029524e-06
5.838577e-07
7.643258e-07
5.6167e-07
4.338821e-07
-0.0003222988
0.0003264602
-1.034431e-06
-5.160063e-06
2.88577e-07
6.377607e-07
6.728282e-07
3.533932e-08
-0.0003315797
0.0003382097
-9.818562e-07
-6.294541e-06
8.862203e-08
2.772769e-07
2.451025e-07
8.108507e-07
-0.0003467238
0.0003540873
-7.995454e-07
-9.018517e-06
5.70995e-07
3.285682e-07
7.441047e-07
7.681939e-07
-0.0003605847
0.000364116
-3.014773e-07
-6.554498e-06
1.134823e-06
6.245851e-07
7.970123e-07
3.211044e-07
-0.0003695846
0.000377853
-2.597097e-07
-9.146319e-06
2.220114e-07
3.614751e-07
2.32992e-07
2.793819e-07
-0.0003857196
0.0003922613
-8.691968e-08
-7.648475e-06
2.893781e-07
3.079391e-07
3.169778e-07
5.729165e-07
-0.0003969247
0.0004007435
1.832505e-07
-6.209409e-06
6.394321e-07
7.742753e-07
2.207138e-07
2.904535e-07
-0.0004032196
0.0004054412
1.985189e-07
-3.715318e-06
2.620905e-07
4.019451e-07
3.406727e-07
9.652918e-08
-0.0004087036
0.0004114788
2.387186e-07
-3.390269e-06
7.80671e-08
1.00134e-07
1.016557e-07
1.102127e-07
-0.0004143122
0.0004161787
3.054654e-07
-2.599587e-06
1.457799e-07
8.615784e-08
8.554637e-08
3.401007e-07
-0.0004181073
0.0004190506
2.482812e-07
-2.079401e-06
3.350538e-07
4.662743e-08
1.659817e-07
-3.074566e-07
-0.0004197609
0.0004208005
2.789862e-07
-1.552588e-06
1.876969e-07
2.362002e-07
1.17574e-07
-1.52019e-07
0.0004244333
1.385052e-07
-1.804031e-06
-0.0004216887
-3.031858e-07
-2.907836e-07
-3.330384e-07
-4.377376e-07
-0.0004278023
0.0004315299
1.19624e-08
-2.050455e-06
-4.329373e-07
-4.059812e-07
-4.125033e-07
-3.181861e-07
-0.0004347691
0.0004376478
-5.808772e-08
-1.661353e-06
-2.893083e-07
-2.896522e-07
-2.621444e-07
2.41642e-08
-0.0004395599
0.0004408551
-6.214711e-08
-1.383229e-06
4.012182e-09
3.920805e-08
8.287279e-08
9.584254e-07
-0.0004407541
0.0004396408
9.248077e-08
-2.329232e-06
1.101447e-06
1.091819e-06
1.984205e-07
3.687123e-07
-0.0004391129
0.0004382502
-1.960497e-08
2.138413e-07
-9.342271e-08
4.379717e-07
-4.477304e-08
-4.60589e-07
-0.0004403285
0.0004434873
-1.093396e-07
-1.144202e-06
-4.821669e-07
-4.739344e-07
-4.885165e-07
-3.738042e-07
-0.0004460497
0.0004482237
-3.923073e-08
-6.294486e-07
-3.637735e-07
-3.887982e-07
-3.789935e-07
-2.751985e-07
-0.0004496498
0.0004512748
1.89507e-08
-3.156436e-07
-4.113897e-07
-3.179479e-07
-3.237435e-07
-3.644622e-07
-0.0004526428
0.0004539962
3.895052e-08
-6.847128e-09
-3.714934e-07
-3.229776e-07
-3.265974e-07
-2.350104e-07
-0.0004551074
0.0004570761
3.97304e-08
-8.580462e-07
-2.593899e-07
-1.664837e-07
-4.895454e-07
3.370152e-07
-0.0004593096
0.0004614761
-2.074751e-07
-3.1246e-06
7.810929e-07
2.472002e-08
2.273677e-08
9.362496e-07
-0.0004698956
0.0004845688
-6.20445e-07
-1.839176e-05
1.215936e-06
1.215007e-06
9.718866e-07
-1.461984e-07
-0.0004980213
0.000507573
-6.094241e-07
-9.696861e-06
2.407103e-07
8.541826e-07
-1.941154e-07
1.261392e-06
-0.0005179366
0.0005152974
4.153483e-07
-4.673584e-06
3.193738e-06
1.55912e-06
8.832511e-07
3.661661e-07
-0.0005140637
0.0005097794
2.961958e-07
8.733996e-07
1.661682e-06
7.87451e-07
2.994451e-07
-8.452428e-08
-0.0005078851
0.0005065918
1.541385e-07
1.075534e-06
3.170215e-07
3.212424e-08
-2.010083e-07
-7.607633e-07
-0.0005067586
0.0005049267
6.715349e-09
3.561425e-06
-4.297257e-08
-3.76213e-07
-5.562317e-07
-8.851734e-07
-0.0005051491
0.0005023027
-1.920463e-08
4.320673e-06
1.516321e-07
-3.331087e-07
-3.884217e-07
-6.763974e-07
-0.0005009348
0.0004976828
5.764589e-08
3.576883e-06
4.133906e-07
-1.552779e-07
3.572862e-08
-5.343906e-07
-0.0004962409
0.0004935231
-1.850456e-07
5.379565e-06
-2.858812e-07
-7.290571e-07
-9.27468e-07
-1.371351e-06
-0.0004936265
0.0004911195
-3.525564e-07
6.590349e-06
-5.64623e-07
-7.964489e-07
-9.984327e-07
-1.484162e-06
-0.0004903075
0.0004866625
-4.112678e-07
8.572437e-06
-8.042277e-07
-9.9473e-07
-1.233033e-06
-1.590287e-06
-0.0004833539
0.0004722726
-6.616345e-08
1.668788e-05
-1.118478e-06
-1.320071e-06
-1.511662e-06
-3.410983e-06
-0.0004547775
0.0004226046
3.806396e-07
4.913787e-05
-4.746816e-06
-3.475202e-06
-5.712576e-06
-1.53305e-05
-9.491024e-05
0.0001056662
-1.690959e-07
4.743597e-06
-1.319638e-07
-9.52701e-05
9.009918e-05
1.142974e-07
5.188578e-06
2.046426e-06
-8.78667e-05
8.80466e-05
2.389703e-07
-2.46529e-06
4.033137e-07
-8.739882e-05
8.721643e-05
3.901037e-07
-6.110324e-07
-6.776408e-08
-8.591877e-05
8.635878e-05
5.818947e-07
-9.541483e-07
-1.836783e-06
-8.783698e-05
8.672528e-05
-6.461867e-07
3.594677e-06
1.143251e-07
-8.874221e-05
8.932317e-05
-3.25082e-07
-3.702021e-07
-1.354079e-07
-9.076994e-05
9.113704e-05
-2.164305e-07
-1.525643e-08
-4.44528e-07
-9.169224e-05
9.205401e-05
-1.992135e-07
2.819748e-07
-4.206597e-07
-9.26909e-05
9.294801e-05
-1.280723e-07
2.916191e-07
-5.066071e-07
-9.339428e-05
9.351477e-05
-1.660073e-07
5.521253e-07
-5.164156e-07
-9.383822e-05
9.394141e-05
-1.468626e-07
5.600893e-07
-4.209583e-07
-9.443069e-05
9.464749e-05
-1.506498e-07
3.548037e-07
-1.159706e-07
-9.502384e-05
9.534838e-05
-8.197301e-08
-1.265897e-07
-1.037693e-07
-9.665996e-05
9.744444e-05
2.121222e-09
-6.828384e-07
-2.784595e-07
-9.849786e-05
9.867738e-05
-1.375429e-07
2.364852e-07
-3.676348e-07
-9.937836e-05
9.968138e-05
-2.169139e-07
2.815277e-07
-3.205429e-07
-0.0001011538
0.0001018012
-3.57426e-07
3.053279e-08
-2.400618e-06
-0.0001028584
0.0001033793
-7.48456e-07
2.628157e-06
5.58308e-07
-0.0001028032
0.0001051306
-1.552886e-07
-2.730408e-06
3.924363e-07
-0.0001065977
0.0001067931
1.874489e-07
-7.752364e-07
-8.592522e-08
-0.0001080467
0.0001082859
1.385629e-07
-2.918733e-07
-7.089453e-07
-0.0001082038
0.0001080559
5.639198e-08
8.004027e-07
-2.100997e-07
-0.0001061397
0.0001073812
1.425475e-07
-1.173954e-06
5.499829e-08
-0.0001094212
0.000110564
1.667372e-07
-1.364556e-06
3.26827e-07
-0.0001117863
0.000112436
2.196984e-07
-1.196286e-06
-2.728249e-07
-0.0001134607
0.0001134766
1.18607e-07
1.383595e-07
-3.884712e-07
-0.0001137042
0.0001137936
1.587435e-07
1.403434e-07
-3.41413e-07
-0.0001142445
0.000114385
1.017725e-07
9.908527e-08
-1.788962e-08
-0.0001151733
0.0001157388
7.586486e-08
-6.234934e-07
-3.532252e-07
-0.00011668
0.0001167676
1.074738e-07
1.58159e-07
-4.17286e-07
-0.0001170802
0.0001170354
1.646416e-07
2.974663e-07
-3.887862e-07
-0.0001173818
0.0001175886
2.528218e-08
1.566953e-07
-3.724172e-07
-0.0001181437
0.0001183906
-5.729182e-08
1.827828e-07
-4.919998e-07
-0.0001189132
0.0001191103
-7.256382e-08
3.675105e-07
2.754235e-07
-0.0001202371
0.0001202428
-5.542869e-08
-2.257235e-07
2.349995e-07
-0.000120004
0.0001198447
-3.408514e-08
-4.164232e-08
4.901959e-07
-0.0001192498
0.0001191358
-4.793797e-08
-3.282018e-07
4.264093e-07
-0.0001186257
0.000118291
-6.417656e-08
-2.748056e-08
1.019698e-06
-0.0001195453
0.0001196238
2.416069e-09
-1.100665e-06
7.154188e-07
-0.0001199819
0.0001200217
-1.691536e-09
-7.535246e-07
5.43454e-07
-0.0001200203
0.0001200573
-4.717724e-08
-5.332423e-07
5.479721e-07
-0.0001199649
0.0001199764
-3.725025e-08
-5.222434e-07
4.773062e-07
-0.0001198257
0.0001198306
-2.571186e-08
-4.564913e-07
5.163182e-07
-0.0001198089
0.000119716
-3.607146e-08
-3.872988e-07
4.567097e-07
-0.0001194085
0.0001193018
-4.264261e-08
-3.073916e-07
6.498793e-07
-0.0001192869
0.0001192436
-1.092707e-08
-5.956252e-07
6.211262e-07
-0.0001191612
0.0001191295
1.815347e-08
-6.075572e-07
5.575429e-07
-0.0001189669
0.000118965
1.652623e-08
-5.72171e-07
6.126031e-07
-0.0001190007
0.0001190659
-1.234684e-08
-6.655051e-07
9.780726e-07
-0.0001195671
0.0001199313
-1.066072e-07
-1.235724e-06
3.381935e-07
-0.0001224826
0.0001250894
-4.627793e-07
-2.482297e-06
2.600339e-06
-0.0001249795
0.000126193
7.242341e-08
-3.886194e-06
8.944016e-07
-0.0001268717
0.0001277895
3.266922e-07
-2.138977e-06
5.719919e-07
-0.0001280365
0.0001281605
1.363066e-07
-8.323066e-07
4.630602e-07
-0.0001275761
0.0001273251
1.382932e-07
-3.503241e-07
6.4302e-07
-0.0001268756
0.0001265544
1.496394e-07
-4.714682e-07
6.344335e-07
-0.0001261833
0.0001260849
5.540318e-08
-5.915269e-07
3.477142e-07
-0.0001255062
0.0001253265
1.228839e-08
-1.803467e-07
1.011664e-06
-0.00012566
0.000125895
-4.663731e-08
-1.199998e-06
-1.698606e-07
-0.0001274117
0.0001272424
-2.070234e-07
5.461227e-07
1.0618e-06
-0.0001281328
0.0001282015
1.317323e-07
-1.262243e-06
5.319643e-07
-0.0001276058
0.0001272364
1.60777e-07
-3.232948e-07
5.113012e-07
-0.0001269381
0.0001267539
1.099224e-07
-4.370197e-07
4.492656e-07
-0.0001261133
0.0001258486
1.324982e-07
-3.171195e-07
3.811939e-07
-0.0001250293
0.0001247853
7.239252e-08
-2.095856e-07
5.617396e-07
-0.0001242592
0.0001242022
3.722465e-10
-5.050773e-07
3.141839e-07
-0.000125094
0.0001256706
-2.367867e-07
-6.540122e-07
1.004269e-06
-0.0001256617
0.0001252102
7.933701e-08
-6.320659e-07
-7.269092e-06
-0.00012063
0.0001198463
-9.279591e-09
8.06208e-06
7.181442e-06
-0.0001138712
0.0004785521
9.928986e-08
1.529428e-05
-1.828439e-06
8.359367e-06
-1.255508e-06
-0.0001082537
-0.0001454567
-0.000138821
6.723561e-09
-0.0004704851
0.0004697649
1.444066e-07
1.272599e-06
-1.453752e-07
1.731005e-07
-7.312708e-07
-1.317077e-07
-0.0004643448
0.0004623018
1.925346e-07
1.659984e-06
2.084405e-07
1.025834e-07
1.11057e-08
1.091392e-07
-0.0004632632
0.0004638733
1.938233e-07
-2.876357e-06
1.088388e-06
5.462446e-07
3.286285e-07
5.48499e-07
-0.0004668481
0.0004683026
1.975919e-07
-5.287921e-06
1.626527e-06
8.855321e-07
5.751999e-07
1.113907e-06
-0.0004711777
0.0004711577
2.805803e-07
-6.144958e-06
2.346049e-06
1.347352e-06
1.077117e-06
2.353355e-06
-0.000472579
0.0004683405
6.141769e-07
-6.997408e-06
3.976536e-06
2.328273e-06
1.963584e-06
1.703161e-06
-0.0004676343
0.0004646246
4.888548e-07
-6.742365e-06
3.12905e-06
2.627212e-06
1.803759e-06
6.278148e-07
-0.0004676643
0.000471652
5.447401e-08
-8.965145e-06
1.896451e-06
1.42472e-06
9.739768e-07
6.428859e-07
-0.0004778232
0.0004798432
-4.359369e-07
-8.590215e-06
2.312464e-06
2.193398e-06
1.85748e-06
1.727055e-06
-0.0004853042
0.0004850296
3.092075e-07
-9.49219e-06
3.746775e-06
2.572029e-06
1.411758e-06
9.940305e-07
-0.0004870041
0.000489188
3.809526e-07
-9.829403e-06
2.418994e-06
2.638935e-06
1.212566e-06
6.109216e-07
-0.0004946823
0.0004983518
2.594717e-07
-7.889614e-06
1.699612e-06
8.288715e-07
8.212625e-07
6.583943e-07
-0.0005025303
0.0005065239
2.819428e-07
-7.369411e-06
9.229739e-07
7.432106e-07
7.693623e-07
6.782266e-07
-0.0005110292
0.0005162749
1.691501e-07
-8.45479e-06
7.152889e-07
8.462637e-07
8.000914e-07
9.68447e-07
-0.0005209648
0.0005253092
4.200093e-08
-8.276151e-06
1.049209e-06
9.127262e-07
9.594209e-07
2.342526e-06
-0.0005268844
0.0005276509
2.683672e-07
-8.925577e-06
1.034823e-06
2.137055e-06
2.376253e-06
2.412326e-06
-0.0005272791
0.0005261536
4.2045e-07
-7.359815e-06
1.960819e-06
1.332178e-06
2.359517e-06
2.304478e-06
-0.0005262369
0.0005277344
3.602591e-07
-8.638066e-06
1.071955e-06
2.318716e-06
1.085148e-06
2.478918e-06
-0.0005277716
0.0005274652
3.392857e-07
-7.821788e-06
2.324992e-06
1.493791e-06
1.491164e-06
1.398677e-06
-0.0005276308
0.000526857
4.741082e-08
-5.296002e-06
1.682073e-06
1.478847e-06
1.462864e-06
7.98707e-07
-0.0005277434
0.0005309583
3.670834e-08
-6.431783e-06
6.962546e-07
8.727401e-07
8.125233e-07
6.979951e-07
-0.0005350672
0.0005385278
-9.572269e-08
-6.440541e-06
6.988248e-07
8.44988e-07
8.339065e-07
8.342239e-07
-0.0005416611
0.0005436932
-1.14866e-07
-5.87078e-06
8.727412e-07
1.096136e-06
1.150449e-06
1.359375e-06
-0.0005451333
0.0005460401
1.304738e-08
-5.887216e-06
1.285625e-06
9.939893e-07
1.328324e-06
7.245714e-07
-0.0005469334
0.000548317
6.491502e-09
-5.288328e-06
1.026885e-06
1.137396e-06
1.009322e-06
8.407821e-07
-0.0005497052
0.0005517085
1.504523e-07
-5.070628e-06
7.3921e-07
6.792431e-07
6.576118e-07
6.173004e-07
-0.0005541482
0.0005562263
1.915335e-07
-4.724823e-06
6.185285e-07
6.070199e-07
6.122944e-07
6.315258e-07
-0.00055809
0.0005594807
1.644887e-07
-4.093026e-06
6.417414e-07
6.311908e-07
6.333011e-07
6.652501e-07
-0.000560821
0.0005620802
4.794463e-08
-3.865577e-06
6.649282e-07
6.07021e-07
6.212117e-07
6.469301e-07
-0.0005631066
0.0005639229
1.904483e-08
-3.68472e-06
6.513476e-07
7.815221e-07
7.695159e-07
7.365962e-07
-0.0005648767
0.0005658248
5.405009e-08
-4.121684e-06
7.846744e-07
7.770094e-07
8.212633e-07
1.378104e-06
-0.0005674062
0.0005705804
2.493142e-08
-8.493967e-06
1.224346e-06
1.348079e-06
1.344283e-06
1.888886e-06
-0.0005734149
0.0005767989
1.535972e-07
-1.157375e-05
2.299792e-06
2.47317e-06
1.374297e-06
8.45866e-07
-0.000579962
0.0005827606
-7.828355e-08
-8.361358e-06
1.57634e-06
2.042663e-06
1.176171e-06
1.263988e-06
-0.0005856468
0.000585576
7.046209e-08
-4.360642e-06
1.064886e-06
1.073361e-06
9.587248e-07
4.379247e-07
-0.0005851855
0.0005848692
1.358862e-07
-1.421309e-06
3.954726e-07
4.000605e-07
3.682986e-07
3.69125e-07
-0.0005850504
0.0005853119
7.301998e-08
-1.756156e-06
3.731785e-07
3.423633e-07
3.369721e-07
6.644724e-07
-0.0005846557
0.0005830462
6.157276e-08
-8.341817e-07
7.799448e-07
4.412704e-07
4.964613e-07
2.147418e-07
-0.0005804184
0.0005791623
1.339024e-08
-1.298171e-06
6.68561e-07
8.517996e-07
8.058316e-07
5.072438e-07
-0.0005777167
0.0005776882
-6.896593e-08
-1.602845e-06
3.866627e-07
3.998665e-07
4.065343e-07
3.37465e-07
-0.0005778564
0.0005782569
-4.322489e-08
-1.902161e-06
3.470101e-07
4.289236e-07
4.314827e-07
4.842986e-07
-0.0005786474
0.000578979
6.050516e-09
-2.301731e-06
5.340308e-07
4.631683e-07
4.826039e-07
1.16983e-06
-0.0005783676
0.0005769308
9.829821e-08
-2.761362e-06
1.266868e-06
7.677811e-07
8.954268e-07
1.596633e-06
-0.0005760555
0.0005736962
1.234433e-08
-2.848798e-06
1.307799e-06
1.132313e-06
1.158988e-06
8.625679e-07
-0.0005713821
0.0005696735
7.503127e-08
-2.777501e-06
1.354563e-06
9.836658e-07
1.210276e-06
7.039387e-07
-0.0005683372
0.00056887
-3.939347e-08
-3.16898e-06
5.161234e-07
8.46965e-07
6.085341e-07
3.757695e-07
-0.0005715742
0.0005744101
-6.979228e-08
-4.343562e-06
3.790535e-07
4.172871e-07
4.053913e-07
4.60832e-07
-0.0005772354
0.000579578
-3.372106e-08
-4.17688e-06
4.811001e-07
4.540716e-07
4.719872e-07
5.56194e-07
-0.0005817793
0.0005836286
-7.061969e-08
-3.892919e-06
5.600646e-07
5.075184e-07
4.905009e-07
1.073411e-07
-0.0005848075
0.000586192
-5.082637e-08
-2.610224e-06
3.044517e-07
4.614275e-07
4.033761e-07
-4.076766e-07
-0.0005865924
0.0005872868
2.163864e-08
1.530401e-06
-7.627862e-07
-4.024531e-07
-6.734398e-07
-3.958616e-06
-0.0005896416
0.0005993517
9.655929e-08
9.972507e-06
-5.891843e-06
-3.962058e-06
-5.966586e-06
-5.157308e-06
-0.0006071596
0.0005980069
2.088823e-07
2.027349e-05
-8.039746e-08
-5.413151e-06
-6.788998e-07
-1.164925e-05
-0.0006228706
0.0006312616
-5.862634e-07
1.07896e-06
-1.433642e-06
6.52598e-07
3.546625e-06
2.503374e-07
-0.000629591
0.0006299917
-1.742498e-07
-5.786751e-06
-2.783542e-07
3.021847e-06
2.566447e-06
2.266278e-07
-0.0006331223
0.0006353793
-4.538138e-08
-9.040682e-06
4.159741e-07
3.811644e-06
2.37475e-06
2.823746e-06
-0.0006341037
0.0006237663
1.691863e-07
-7.821502e-06
4.343201e-06
6.053308e-06
4.769497e-06
7.513393e-07
-0.0006256332
0.0006262769
1.711583e-06
2.365791e-07
3.847273e-06
-5.565511e-06
-1.624953e-06
2.315251e-06
-0.0006174945
0.0006082154
4.657758e-07
-6.693707e-06
7.320122e-07
6.735175e-06
5.724527e-06
-4.924649e-07
-0.0006057862
0.0006111376
2.936872e-07
-6.212663e-06
-2.873639e-07
3.177527e-07
1.029653e-06
2.803276e-07
-0.0006118936
0.0006176671
4.554663e-07
-6.512176e-06
4.078093e-07
-8.173384e-07
4.12487e-07
2.335133e-07
-0.0006188185
0.0006226794
3.84315e-07
-4.448256e-06
3.352347e-07
-9.727564e-07
6.070766e-07
1.254574e-07
-0.0006244075
0.0006292553
4.544307e-07
-5.285956e-06
2.982706e-07
-6.156516e-07
1.756818e-07
7.374454e-07
-0.0006291287
0.0006306945
6.675941e-07
-5.102256e-06
6.905353e-07
6.255172e-07
8.153485e-07
5.247111e-07
-0.0006321553
0.0006401243
7.837171e-07
-1.931356e-06
9.205514e-07