/*--------------------------------*- C++ -*----------------------------------*\
| =========                 |                                                 |
| \\      /  F ield         | foam-extend: Open Source CFD                    |
|  \\    /   O peration     | Version:     3.1                                |
|   \\  /    A nd           | Web:         http://www.extend-project.de       |
|    \\/     M anipulation  |                                                 |
\*---------------------------------------------------------------------------*/
FoamFile
{
    version     2.0;
    format      ascii;
    class       volScalarField;
    location    "8";
    object      p;
}
// * * * * * * * * * * * * * * * * * * * * * * * * * * * * * * * * * * * * * //

dimensions      [1 -1 -2 0 0 0 0];

internalField   nonuniform List<scalar> 
119952
(
7581.24
7121.997
7091.523
7214.746
7332.271
7328.402
7352.354
7385.075
7415.637
7445.281
7473.283
7501.87
7533.725
7568.541
7604.941
7640.824
7675.247
7707.346
7735.024
7749.882
7824.514
7823.236
7842.102
7924.211
7943.706
7970.574
7991.9
8017.167
8057.896
8836.478
5712.082
5668.419
5663.279
5638.8
5607.068
5569.622
5526.198
5479.654
5435.831
5385.5
5305.76
5276.86
5241.27
5217.195
5204.276
5203.682
5214.427
5237.127
5270.65
5328.816
5369.678
5415.658
5483.403
5559.663
5638.25
5720.488
5804.265
5888.015
5969.476
6040.184
6120.151
6201.123
6278.178
6354.678
6431.333
6507.981
6587.641
6687.17
6812.044
6819.696
6861.797
6942.266
7004.168
7046.645
7077.111
7111.168
7145.135
7177.306
7208.887
7241.213
7275.142
7310.62
7346.64
7381.991
7415.797
7447.412
7476.741
7505.089
7534.158
7563.495
7590.886
7629.554
7671.59
7696.234
7716.28
7732.578
7736.009
7720.693
7727.049
7740.738
7751.878
7762.678
7772.929
7782.919
7793.01
7803.526
7814.6
7826.077
7837.571
7848.871
7859.676
7869.973
7879.789
7889.193
7898.267
7907.074
7915.627
7923.941
7932.035
7939.918
7947.6
7955.092
7962.403
7969.55
7976.533
7983.345
7989.983
7996.461
8002.777
8008.963
8015.028
8020.975
8026.807
8032.525
8038.13
8043.624
8049.008
8054.28
8059.442
8064.491
8069.427
8074.246
8078.943
8083.508
8087.929
8092.226
8096.629
8101.156
8105.464
8109.39
8113.194
8116.881
8120.451
8123.91
8127.26
8130.506
8133.649
8136.693
8139.644
8142.505
8145.284
8147.986
8150.615
8153.173
8155.665
8158.095
8160.467
8162.785
8165.051
8167.269
8169.439
8171.563
8173.642
8175.675
8177.663
8179.605
8181.501
8183.35
8185.149
8186.899
8188.596
8190.242
8191.835
8193.369
8194.882
8196.317
8197.677
8198.99
8200.246
8201.445
8202.585
8203.661
8204.667
8205.583
8206.367
8207.028
8208.303
8242.213
8241.813
8242.572
8243.317
8244.04
8244.713
8245.354
8245.968
8246.559
8247.128
8247.68
8248.213
8248.734
8249.242
8249.739
8250.227
8250.711
8251.189
8251.659
8252.123
8252.58
8253.031
8253.472
8253.903
8254.319
8254.714
8255.081
8255.408
8255.68
8255.871
8255.943
8255.83
8255.417
8254.46
8252.27
8249.034
8254.9
8258.888
8262.318
8265.321
8268.118
8270.773
8273.339
8275.851
8278.329
8280.786
8283.232
8285.674
8288.121
8290.576
8293.045
8295.529
8298.033
8300.557
8303.103
8305.674
8308.271
8310.893
8313.542
8316.218
8318.922
8321.653
8324.41
8327.195
8330.008
8332.851
8335.727
8338.652
8341.561
8344.388
8327.412
8325.201
8322.199
8325.357
8328.179
8330.533
8333.175
8335.967
8338.753
8341.544
8344.357
8347.161
8349.967
8352.779
8355.578
8358.365
8361.138
8363.878
8366.598
8369.299
8371.971
8374.615
8377.23
8379.815
8382.369
8384.891
8387.379
8389.835
8392.256
8394.643
8396.995
8399.312
8401.593
8403.838
8406.047
8408.22
8410.359
8412.465
8414.54
8416.589
8418.621
8420.646
8422.685
8424.763
8426.847
8428.649
8429.806
8430.61
8431.518
8432.5
8433.479
8434.455
8435.289
8435.107
8432.212
8435.499
8436.831
8437.192
8437.7
8438.129
8438.453
8438.729
8438.965
8439.161
8439.31
8439.409
8439.453
8439.447
8439.39
8439.281
8439.121
8438.909
8438.648
8438.338
8437.982
8437.581
8437.137
8436.654
8436.133
8435.576
8434.987
8434.367
8433.72
8433.047
8432.351
8431.635
8430.899
8430.147
8429.38
8428.601
8427.81
8427.01
8426.202
8425.388
8424.567
8423.743
8422.914
8422.082
8421.248
8420.412
8419.573
8418.732
8417.889
8417.042
8416.191
8415.336
8414.475
8413.606
8412.728
8411.839
8410.937
8410.02
8409.085
8408.129
8407.148
8406.139
8405.097
8404.017
8402.894
8401.721
8400.491
8399.195
8397.822
8396.361
8394.795
8393.106
8391.271
8389.259
8387.032
8384.536
8381.704
8378.433
8374.581
8369.899
8363.986
8356.533
8349.305
8353.671
8390.956
6767.219
6634.587
6468.506
6308.926
6150.511
5993.426
5838.427
5686.03
5538.141
5369.103
5231.463
5106.613
4993.556
4897.043
4818.706
4758.762
4718.006
4697.767
4689.923
4712.207
4722.12
4759.087
4809.268
4866.459
4929.196
4992.171
5055.319
5118.688
5174.325
5221.624
5272.16
5316.161
5351.658
5380.739
5402.083
5415.592
5422.776
5421.332
5398.945
5373
5342.078
5303.302
5258.962
5210.139
5159.025
5107.978
5060.052
5010.929
4970.4
4940.916
4920.28
4910.304
4912.363
4926.599
4953.317
4992.418
4984.387
5047.709
5114.537
5182.127
5256.628
5336.755
5418.801
5502.749
5587.281
5671.198
5754.146
5834.427
5913.106
5991.584
6070.456
6149.35
6228.498
6307.948
6386.927
6460.701
6520.504
6571.629
6625.6
6678.7
6725.293
6765.267
6801.897
6837.408
6872.438
6907.264
6942.296
6977.867
7013.841
7049.664
7084.69
7118.382
7150.619
7181.473
7211.094
7240.359
7270.138
7300.581
7331.592
7361.112
7385.657
7404.013
7416.537
7423.355
7426.578
7432.116
7441.623
7452.72
7463.732
7474.184
7484.327
7494.658
7505.392
7516.343
7527.321
7538.141
7548.598
7558.708
7568.454
7577.829
7586.876
7595.641
7604.157
7612.451
7620.549
7628.45
7636.16
7643.68
7651.017
7658.195
7665.245
7672.138
7678.834
7685.35
7691.708
7697.92
7703.996
7709.969
7715.822
7721.568
7727.202
7732.732
7738.155
7743.467
7748.672
7753.77
7758.759
7763.639
7768.408
7773.065
7777.612
7782.061
7786.443
7790.79
7795.071
7799.168
7803.091
7806.873
7810.536
7814.085
7817.522
7820.848
7824.069
7827.187
7830.209
7833.137
7835.976
7838.732
7841.411
7844.019
7846.558
7849.032
7851.446
7853.803
7856.107
7858.361
7860.568
7862.728
7864.844
7866.915
7868.942
7870.924
7872.861
7874.751
7876.595
7878.391
7880.135
7881.845
7883.497
7885.094
7886.637
7888.128
7889.564
7890.94
7892.255
7893.515
7894.716
7895.862
7896.944
7897.98
7898.951
7899.922
7900.847
7901.835
7965.555
7965.655
7966.189
7966.958
7967.686
7968.371
7968.998
7969.611
7970.201
7970.769
7971.318
7971.849
7972.365
7972.868
7973.359
7973.837
7974.316
7974.788
7975.25
7975.705
7976.152
7976.592
7977.023
7977.444
7977.85
7978.235
7978.594
7978.915
7979.183
7979.383
7979.486
7979.446
7979.217
7978.772
7978.259
7978.565
7980.84
7984.003
7986.884
7989.661
7992.323
7994.895
7997.41
7999.885
8002.335
8004.771
8007.201
8009.632
8012.07
8014.519
8016.984
8019.467
8021.971
8024.497
8027.047
8029.624
8032.227
8034.857
8037.515
8040.202
8042.917
8045.659
8048.43
8051.228
8054.056
8056.911
8059.801
8062.727
8065.758
8069.569
8012.318
8016.178
8018.281
8019.75
8021.725
8024.283
8027.094
8029.931
8032.738
8035.539
8038.356
8041.189
8044.024
8046.847
8049.653
8052.444
8055.232
8057.983
8060.702
8063.403
8066.079
8068.726
8071.341
8073.926
8076.478
8078.997
8081.482
8083.932
8086.347
8088.727
8091.071
8093.378
8095.648
8097.881
8100.077
8102.236
8104.36
8106.448
8108.503
8110.526
8112.518
8114.492
8116.433
8118.303
8120.051
8121.612
8122.917
8124.012
8125.023
8126.015
8126.972
8127.858
8128.585
8128.958
8128.836
8128.967
8129.741
8130.69
8131.421
8131.884
8132.189
8132.429
8132.639
8132.811
8132.933
8133
8133.013
8132.976
8132.888
8132.751
8132.563
8132.326
8132.04
8131.707
8131.329
8130.908
8130.446
8129.945
8129.407
8128.834
8128.23
8127.596
8126.935
8126.249
8125.541
8124.812
8124.065
8123.301
8122.524
8121.734
8120.933
8120.123
8119.305
8118.481
8117.652
8116.818
8115.981
8115.142
8114.3
8113.455
8112.609
8111.761
8110.911
8110.057
8109.2
8108.339
8107.471
8106.597
8105.714
8104.821
8103.915
8102.993
8102.055
8101.095
8100.112
8099.1
8098.057
8096.976
8095.854
8094.682
8093.455
8092.163
8090.798
8089.345
8087.796
8086.127
8084.325
8082.356
8080.201
8077.805
8075.144
8072.142
8068.806
8065.156
8061.561
8058.739
8058.031
8060.22
8065.807
3245.772
3323.12
3425.545
3546.515
3684.044
3837.66
4007.128
4192.641
4394.336
4608.33
4821.527
5064.698
5318.506
5581.78
5852.266
6125.903
6394.963
6657.635
6911.738
7140.428
7347.593
7529.429
7680.26
7796.422
7875.757
7918.09
7924.453
7897.2
7843.492
7760.46
7655.629
7531.237
7391.566
7241.49
7084.856
6924.39
6762.558
6601.631
6428.343
6268.111
6106.695
5945.763
5786.222
5627.801
5471.58
5319.011
5172.243
5032.175
4896.708
4776.514
4669.676
4578.709
4505.977
4452.7
4419.327
4407.499
4347.621
4373.799
4407.308
4454.185
4512.031
4575.883
4642.048
4710.614
4776.853
4840.701
4900.781
4955.365
5003.039
5043.54
5076.789
5102.113
5118.971
5126.784
5124.905
5112.836
5090.461
5059.23
5020.037
4973.82
4922.072
4866.933
4810.816
4755.691
4703.224
4656.229
4617.137
4587.691
4569.099
4562.334
4567.968
4586.365
4616.772
4659.17
4713.309
4774.113
4837.365
4910.768
4988.617
5070.234
5154.236
5239.479
5325.135
5410.339
5494.547
5577.695
5660.007
5741.716
5822.593
5902.309
5980.054
6055.706
6128.301
6197.938
6260.684
6314.495
6365.951
6417.162
6465.224
6508.117
6547.204
6584.764
6621.813
6658.552
6695.12
6731.692
6768.218
6804.369
6839.758
6874.055
6907.031
6938.748
6969.316
6998.957
7028.303
7057.267
7085.263
7111.745
7134.873
7153.143
7166.827
7177.138
7184.834
7191.938
7201.081
7212.027
7223.211
7233.888
7244.12
7254.216
7264.469
7275.018
7285.768
7296.477
7307.008
7317.324
7327.19
7336.514
7345.393
7353.877
7362.078
7370.119
7378.003
7385.705
7393.234
7400.583
7407.746
7414.733
7421.569
7428.257
7434.785
7441.155
7447.379
7453.475
7459.478
7465.383
7471.18
7476.86
7482.407
7487.868
7493.231
7498.487
7503.641
7508.694
7513.643
7518.488
7523.228
7527.863
7532.398
7536.837
7541.189
7545.461
7549.655
7553.727
7557.639
7561.403
7565.045
7568.574
7571.993
7575.304
7578.51
7581.615
7584.624
7587.54
7590.369
7593.115
7595.783
7598.377
7600.903
7603.366
7605.769
7608.118
7610.415
7612.663
7614.865
7617.024
7619.139
7621.212
7623.242
7625.23
7627.175
7629.076
7630.931
7632.74
7634.497
7636.204
7637.858
7639.46
7641.008
7642.502
7643.941
7645.324
7646.653
7647.927
7649.145
7650.309
7651.42
7652.482
7653.508
7654.506
7655.545
7656.628
7657.966
7658.969
7659.618
7660.221
7660.889
7661.549
7662.225
7662.849
7663.437
7664.001
7664.543
7665.066
7665.572
7666.064
7666.544
7667.019
7667.455
7667.915
7668.368
7668.814
7669.254
7669.688
7670.113
7670.529
7670.933
7671.321
7671.688
7672.027
7672.33
7672.59
7672.801
7672.963
7673.105
7673.321
7673.809
7674.855
7676.634
7678.948
7681.43
7683.909
7686.356
7688.781
7691.192
7693.593
7695.987
7698.381
7700.779
7703.186
7705.606
7708.042
7710.498
7712.974
7715.475
7718
7720.552
7723.132
7725.74
7728.377
7731.043
7733.739
7736.463
7739.216
7741.997
7744.806
7747.641
7750.504
7753.385
7756.299
7759.203
7762.173
7764.824
7766.952
7769.317
7772.097
7775.1
7778.147
7781.165
7784.134
7787.06
7789.961
7792.852
7795.738
7798.612
7801.47
7804.311
7807.128
7809.925
7812.698
7815.446
7818.168
7820.86
7823.522
7826.151
7828.748
7831.311
7833.84
7836.333
7838.79
7841.211
7843.595
7845.941
7848.249
7850.518
7852.749
7854.941
7857.094
7859.208
7861.284
7863.322
7865.32
7867.277
7869.191
7871.042
7872.822
7874.502
7876.035
7877.393
7878.587
7879.66
7880.671
7881.628
7882.522
7883.354
7884.244
7885.294
7886.117
7886.552
7886.779
7886.967
7887.159
7887.345
7887.517
7887.669
7887.793
7887.878
7887.919
7887.911
7887.856
7887.752
7887.6
7887.398
7887.148
7886.851
7886.507
7886.119
7885.688
7885.216
7884.705
7884.158
7883.577
7882.964
7882.321
7881.65
7880.955
7880.237
7879.499
7878.742
7877.969
7877.181
7876.381
7875.57
7874.749
7873.921
7873.086
7872.246
7871.402
7870.554
7869.704
7868.851
7867.997
7867.141
7866.283
7865.423
7864.561
7863.696
7862.827
7861.953
7861.073
7860.185
7859.288
7858.379
7857.456
7856.517
7855.559
7854.579
7853.573
7852.537
7851.466
7850.357
7849.202
7847.996
7846.731
7845.399
7843.99
7842.491
7840.892
7839.175
7837.323
7835.317
7833.139
7830.777
7828.237
7825.578
7822.927
7820.544
7818.728
7817.87
7818.41
7820.772
2763.302
2738.1
2717.071
2691.689
2686.428
2671.052
2701.531
2757.281
2830.284
2870.864
2883.188
2915.071
2972.394
3051.153
3149.668
3265.487
3396.431
3542.75
3704.76
3880.956
4072.041
4277.899
4497.661
4731.414
4977.664
5232.876
5494.751
5760.719
6025.246
6283.179
6532.84
6759.092
6973.204
7151.765
7296.04
7404.368
7475.118
7508.522
7506.442
7472.113
7409.862
7323.328
7215.357
7088.274
6947.595
6799.255
6646.265
6490.401
6333.049
6175.299
6017.642
5860.702
5703.863
5546.888
5390.097
5234.003
5079.415
4927.638
4780.309
4639.276
4506.828
4386.063
4279.735
4190.349
4119.913
4070.396
4042.236
4036.704
4054.126
4085.074
4126.241
4179.665
4244.117
4315.381
4389.892
4465.583
4539.646
4610.404
4675.95
4734.539
4786.212
4829.064
4863.373
4888.364
4903.444
4908.097
4901.828
4884.789
4856.879
4819.101
4773.271
4720.335
4661.597
4599.696
4537.504
4477.08
4420.04
4368.834
4326.218
4294.778
4275.435
4268.656
4274.882
4294.391
4327.288
4373.001
4426.269
4488.352
4557.343
4633.304
4713.858
4797.526
4882.919
4969.124
5055.747
5142.327
5228.551
5314.262
5399.095
5482.679
5564.584
5644.386
5721.494
5795.782
5866.808
5934.24
5996.329
6052.37
6104.95
6155.732
6203.873
6248.351
6289.749
6329.431
6368.285
6406.612
6444.513
6482.074
6519.258
6555.869
6591.662
6626.388
6659.883
6692.166
6723.234
6753.161
6782.217
6810.354
6837.112
6861.974
6883.988
6902.45
6917.414
6929.611
6939.734
6949.057
6959.05
6969.958
6981.099
6991.962
7002.491
7012.8
7023.153
7033.781
7044.59
7055.315
7065.726
7075.733
7085.338
7094.557
7103.411
7111.938
7120.238
7128.398
7136.331
7143.962
7151.35
7158.525
7165.494
7172.272
7178.87
7185.321
7191.652
7197.853
7203.921
7209.867
7215.705
7221.437
7227.082
7232.637
7238.15
7243.56
7248.859
7254.041
7259.127
7264.123
7269.025
7273.831
7278.536
7283.142
7287.649
7292.06
7296.378
7300.605
7304.74
7308.758
7312.636
7316.378
7319.999
7323.507
7326.904
7330.193
7333.377
7336.46
7339.446
7342.34
7345.147
7347.87
7350.516
7353.09
7355.596
7358.04
7360.427
7362.76
7365.043
7367.28
7369.472
7371.622
7373.73
7375.798
7377.825
7379.811
7381.755
7383.655
7385.511
7387.32
7389.08
7390.791
7392.452
7394.06
7395.615
7397.116
7398.563
7399.955
7401.291
7402.573
7403.8
7404.975
7406.1
7407.18
7408.223
7409.245
7410.247
7411.249
7412.123
7412.962
7413.805
7414.613
7415.373
7416.084
7416.757
7417.383
7417.972
7418.533
7419.07
7419.587
7420.085
7420.569
7421.041
7421.502
7421.946
7422.386
7422.821
7423.251
7423.677
7424.098
7424.514
7424.924
7425.327
7425.72
7426.102
7426.469
7426.82
7427.155
7427.482
7427.819
7428.209
7428.727
7429.48
7430.6
7432.192
7434.198
7436.419
7438.7
7440.996
7443.304
7445.626
7447.957
7450.296
7452.646
7455.008
7457.386
7459.781
7462.198
7464.637
7467.1
7469.59
7472.107
7474.652
7477.228
7479.833
7482.468
7485.134
7487.831
7490.558
7493.314
7496.098
7498.911
7501.748
7504.611
7507.488
7510.383
7513.26
7516.105
7518.898
7521.735
7524.621
7527.477
7530.292
7533.115
7535.975
7538.858
7541.746
7544.633
7547.518
7550.402
7553.281
7556.148
7559
7561.833
7564.646
7567.438
7570.204
7572.941
7575.648
7578.325
7580.97
7583.581
7586.158
7588.699
7591.204
7593.671
7596.101
7598.493
7600.845
7603.157
7605.43
7607.661
7609.852
7612.001
7614.108
7616.173
7618.194
7620.168
7622.093
7623.961
7625.766
7627.496
7629.122
7630.637
7632.008
7633.245
7634.374
7635.423
7636.41
7637.345
7638.237
7639.083
7639.793
7640.291
7640.668
7641.038
7641.426
7641.79
7642.098
7642.345
7642.539
7642.686
7642.783
7642.83
7642.824
7642.766
7642.658
7642.5
7642.293
7642.036
7641.731
7641.38
7640.984
7640.544
7640.064
7639.545
7638.989
7638.398
7637.776
7637.124
7636.444
7635.739
7635.012
7634.263
7633.496
7632.713
7631.915
7631.105
7630.283
7629.452
7628.614
7627.769
7626.918
7626.064
7625.206
7624.346
7623.484
7622.62
7621.755
7620.889
7620.021
7619.151
7618.279
7617.404
7616.525
7615.64
7614.748
7613.849
7612.939
7612.016
7611.079
7610.125
7609.15
7608.153
7607.128
7606.071
7604.98
7603.848
7602.67
7601.439
7600.15
7598.794
7597.362
7595.846
7594.236
7592.523
7590.699
7588.762
7586.724
7584.611
7582.497
7580.469
7578.71
7577.324
7576.612
7576.612
7577.805
3364.525
3285.813
3212.111
3113.64
3024.898
2901.048
2819.776
2740.557
2668.772
2603.519
2545.058
2496.929
2456.83
2426.645
2407.532
2400.036
2346.851
2369.438
2402.889
2441.314
2477.995
2519.491
2573.638
2643.647
2728.789
2829.168
2946.079
3078.243
3225.2
3386.991
3563.61
3754.845
3960.542
4179.396
4410.622
4653.792
4907.069
5168.097
5434.059
5700.898
5961.614
6207.695
6427.889
6636.355
6813.717
6956.843
7063.686
7132.746
7164.507
7160.864
7125.277
7061.73
6974.415
6864.997
6737.343
6599.206
6455.345
6307.764
6157.791
6006.505
5854.743
5702.399
5549.802
5396.985
5243.278
5088.671
4933.498
4778.362
4624.61
4474.088
4328.955
4191.958
4066.574
3956.154
3863.31
3790.352
3740.176
3714.479
3711.895
3730.7
3766.96
3817.523
3880.948
3955.26
4037.006
4122.646
4209.307
4294.258
4375.155
4449.971
4517.145
4575.41
4624.328
4662.202
4688.773
4703.524
4706.186
4696.019
4673.378
4638.248
4592.312
4537.68
4475.041
4405.892
4333.969
4262.872
4194.212
4129.43
4071.603
4024.644
3990.738
3969.474
3961.07
3966.601
3986.334
4020.516
4065.87
4124.706
4191.088
4264.57
4344.185
4427.87
4513.792
4600.838
4688.593
4776.921
4865.565
4954.241
5042.593
5129.977
5215.771
5299.469
5380.573
5458.519
5533.011
5603.721
5670.321
5732.36
5789.72
5843.364
5894.314
5942.707
5988.332
6031.492
6072.943
6113.351
6153.046
6192.147
6230.693
6268.648
6305.886
6342.238
6377.507
6411.558
6444.355
6475.873
6506.121
6535.144
6562.86
6588.928
6612.955
6634.492
6653.224
6669.162
6682.758
6694.655
6705.651
6716.547
6727.696
6738.947
6750.04
6760.879
6771.54
6782.208
6792.97
6803.731
6814.331
6824.585
6834.422
6843.971
6853.277
6862.272
6870.927
6879.239
6887.252
6895.023
6902.566
6909.878
6916.971
6923.846
6930.545
6937.09
6943.445
6949.611
6955.615
6961.476
6967.21
6972.828
6978.339
6983.784
6989.179
6994.524
6999.796
7004.975
7010.072
7015.074
7019.994
7024.824
7029.568
7034.217
7038.774
7043.235
7047.601
7051.872
7056.045
7060.118
7064.077
7067.911
7071.62
7075.209
7078.685
7082.05
7085.308
7088.461
7091.513
7094.47
7097.334
7100.112
7102.807
7105.426
7107.974
7110.456
7112.878
7115.243
7117.556
7119.822
7122.043
7124.222
7126.361
7128.46
7130.521
7132.543
7134.526
7136.469
7138.369
7140.226
7142.037
7143.801
7145.517
7147.182
7148.795
7150.355
7151.862
7153.314
7154.711
7156.054
7157.342
7158.577
7159.76
7160.895
7161.986
7163.037
7164.056
7165.038
7165.993
7166.894
7167.78
7168.629
7169.414
7170.143
7170.831
7171.483
7172.099
7172.682
7173.238
7173.769
7174.278
7174.769
7175.245
7175.706
7176.156
7176.595
7177.026
7177.453
7177.876
7178.296
7178.713
7179.129
7179.542
7179.954
7180.363
7180.77
7181.175
7181.582
7181.996
7182.431
7182.908
7183.466
7184.158
7185.053
7186.227
7187.733
7189.543
7191.552
7193.661
7195.824
7198.026
7200.26
7202.52
7204.801
7207.103
7209.425
7211.77
7214.137
7216.529
7218.948
7221.394
7223.869
7226.373
7228.909
7231.475
7234.074
7236.704
7239.366
7242.06
7244.785
7247.54
7250.324
7253.136
7255.972
7258.831
7261.705
7264.591
7267.475
7270.359
7273.258
7276.158
7279.013
7281.817
7284.628
7287.484
7290.385
7293.308
7296.235
7299.159
7302.077
7304.991
7307.895
7310.788
7313.664
7316.521
7319.357
7322.17
7324.955
7327.713
7330.441
7333.137
7335.801
7338.43
7341.024
7343.582
7346.102
7348.583
7351.025
7353.428
7355.789
7358.109
7360.387
7362.622
7364.814
7366.961
7369.064
7371.119
7373.127
7375.082
7376.983
7378.823
7380.594
7382.286
7383.886
7385.39
7386.767
7388.028
7389.194
7390.276
7391.287
7392.234
7393.112
7393.895
7394.568
7395.158
7395.684
7396.153
7396.564
7396.916
7397.206
7397.438
7397.619
7397.752
7397.836
7397.87
7397.852
7397.783
7397.664
7397.494
7397.275
7397.007
7396.69
7396.327
7395.92
7395.469
7394.977
7394.447
7393.88
7393.278
7392.644
7391.981
7391.29
7390.574
7389.834
7389.074
7388.296
7387.501
7386.691
7385.869
7385.036
7384.193
7383.343
7382.487
7381.625
7380.759
7379.891
7379.02
7378.147
7377.274
7376.399
7375.524
7374.648
7373.77
7372.891
7372.009
7371.125
7370.236
7369.341
7368.439
7367.529
7366.608
7365.674
7364.724
7363.758
7362.77
7361.758
7360.719
7359.649
7358.544
7357.398
7356.208
7354.968
7353.673
7352.317
7350.894
7349.401
7347.835
7346.197
7344.494
7342.747
7340.988
7339.278
7337.684
7336.328
7335.281
7334.743
7334.67
7335.462
4052.135
3965.39
3875.041
3768.381
3680.336
3551.46
3463.659
3374.905
3284.586
3193.869
3104.444
3015.731
2927.006
2839.236
2749.665
2586.745
2503.68
2425.886
2353.388
2287.236
2228.296
2178.093
2136.798
2104.407
2081.962
2070.924
2070.154
2083.651
2107.207
2138.053
2175.349
2221.871
2279.864
2351.313
2437.928
2539.091
2654.502
2784.087
2927.879
3086.146
3259.013
3445.66
3645.272
3857.706
4082.886
4319.956
4567.901
4824.649
5086.12
5348.877
5606.567
5852.485
6076.791
6279.514
6452.803
6591.673
6693.706
6757.998
6785.804
6779.307
6742.399
6678.309
6589.671
6480.416
6356.417
6224.41
6087.583
5947.638
5805.753
5662.675
5518.946
5374.051
5227.854
5080.089
4929.72
4777.039
4622.205
4465.529
4308.303
4152.226
3999.76
3854.65
3721.038
3602.923
3504.39
3426.97
3374.346
3348.84
3348.723
3373.586
3419.672
3482.717
3559.573
3647.736
3744.102
3845.089
3947.219
4047.267
4142.42
4230.361
4309.263
4377.537
4433.827
4477.331
4507.002
4521.599
4520.903
4505.519
4475.591
4430.84
4373.983
4307.448
4231.031
4147.167
4062.199
3980.473
3901.875
3827.209
3760.899
3708.786
3672.376
3648.924
3638.189
3642.787
3662.809
3699.372
3751.029
3813.733
3885.288
3963.957
4048.207
4135.856
4224.825
4313.981
4403.399
4493.314
4583.635
4674.181
4764.586
4854.19
4942.307
5028.287
5111.406
5190.989
5266.634
5338.073
5405.163
5467.864
5526.265
5580.887
5632.457
5681.435
5728.028
5772.522
5815.409
5857.186
5898.162
5938.46
5978.089
6016.995
6055.082
6092.196
6128.146
6162.808
6196.132
6228.083
6258.639
6287.749
6315.305
6341.082
6364.833
6386.333
6405.441
6422.203
6436.941
6450.149
6462.361
6474.092
6485.675
6497.173
6508.501
6519.609
6530.534
6541.354
6552.11
6562.77
6573.249
6583.453
6593.369
6603.038
6612.426
6621.485
6630.201
6638.542
6646.515
6654.257
6661.829
6669.172
6676.264
6683.095
6689.671
6696.03
6702.204
6708.2
6714.028
6719.703
6725.244
6730.67
6736.002
6741.259
6746.447
6751.563
6756.62
6761.625
6766.576
6771.469
6776.291
6781.035
6785.698
6790.266
6794.747
6799.14
6803.442
6807.648
6811.755
6815.759
6819.653
6823.431
6827.091
6830.636
6834.068
6837.391
6840.609
6843.723
6846.738
6849.658
6852.487
6855.231
6857.893
6860.48
6862.997
6865.45
6867.844
6870.184
6872.474
6874.719
6876.922
6879.085
6881.21
6883.299
6885.352
6887.368
6889.347
6891.288
6893.188
6895.046
6896.86
6898.626
6900.345
6902.014
6903.632
6905.197
6906.709
6908.167
6909.569
6910.918
6912.212
6913.454
6914.645
6915.786
6916.883
6917.937
6918.953
6919.93
6920.876
6921.783
6922.652
6923.473
6924.241
6924.962
6925.644
6926.292
6926.904
6927.484
6928.034
6928.559
6929.062
6929.546
6930.013
6930.466
6930.907
6931.339
6931.764
6932.184
6932.602
6933.018
6933.434
6933.851
6934.271
6934.693
6935.121
6935.555
6935.999
6936.459
6936.943
6937.467
6938.051
6938.726
6939.531
6940.513
6941.716
6943.164
6944.844
6946.7
6948.672
6950.721
6952.826
6954.977
6957.166
6959.387
6961.638
6963.917
6966.224
6968.559
6970.924
6973.318
6975.743
6978.2
6980.689
6983.212
6985.767
6988.356
6990.979
6993.635
6996.324
6999.045
7001.798
7004.58
7007.389
7010.224
7013.082
7015.956
7018.844
7021.741
7024.645
7027.549
7030.437
7033.299
7036.155
7039.033
7041.944
7044.88
7047.828
7050.778
7053.724
7056.666
7059.602
7062.528
7065.443
7068.341
7071.22
7074.077
7076.911
7079.719
7082.499
7085.249
7087.967
7090.651
7093.301
7095.914
7098.49
7101.028
7103.526
7105.983
7108.399
7110.773
7113.103
7115.389
7117.63
7119.826
7121.974
7124.075
7126.125
7128.123
7130.066
7131.95
7133.769
7135.517
7137.188
7138.771
7140.26
7141.643
7142.925
7144.115
7145.219
7146.246
7147.197
7148.069
7148.856
7149.566
7150.203
7150.764
7151.246
7151.657
7152.006
7152.298
7152.536
7152.72
7152.852
7152.932
7152.96
7152.935
7152.858
7152.729
7152.548
7152.318
7152.037
7151.709
7151.334
7150.914
7150.45
7149.946
7149.403
7148.824
7148.209
7147.563
7146.887
7146.183
7145.454
7144.703
7143.93
7143.139
7142.331
7141.509
7140.674
7139.828
7138.974
7138.111
7137.243
7136.369
7135.492
7134.613
7133.731
7132.848
7131.965
7131.081
7130.196
7129.312
7128.427
7127.542
7126.655
7125.765
7124.873
7123.976
7123.074
7122.164
7121.246
7120.317
7119.374
7118.417
7117.442
7116.446
7115.427
7114.382
7113.307
7112.199
7111.053
7109.868
7108.638
7107.362
7106.038
7104.664
7103.243
7101.782
7100.293
7098.798
7097.328
7095.935
7094.672
7093.627
7092.849
7092.473
7092.435
7093.104
4171.243
4127.13
4065.078
3970.987
3867.846
3767.699
3670.405
3577.811
3488.944
3399.157
3233.258
3144.592
3056.595
2967.749
2877.969
2787.941
2698.069
2608.144
2518.574
2430.699
2346.729
2263.51
2183.938
2109.124
2039.826
1976.682
1921.281
1874.66
1837.609
1810.688
1794.284
1789.188
1796.353
1814.618
1842.652
1880.307
1928.955
1989.544
2062.961
2149.91
2250.444
2364.375
2491.616
2632.314
2786.839
2955.02
3135.647
3328.309
3534.246
3753.947
3985.956
4228.903
4480.665
4736.984
4993.727
5244.741
5483.437
5702.354
5896.707
6061.493
6192.132
6286.235
6343.764
6366.571
6357.357
6318.092
6252.04
6164.05
6059.585
5943.801
5821.006
5693.673
5563.844
5432.546
5300.246
5167.084
5031.661
4893.063
4750.812
4603.451
4452.163
4296.385
4136.772
3975.413
3812.736
3650.715
3494.407
3349.045
3218.096
3105.806
3018.857
2963.165
2938.681
2945.641
2981.644
3042.158
3121.576
3215.967
3322.545
3438.234
3559.258
3681.6
3801.339
3914.946
4019.597
4113.094
4193.548
4259.749
4310.095
4343.338
4357.92
4353.505
4331.088
4290.588
4232.423
4161.88
4081.361
3987.489
3883.768
3782.202
3689.678
3601.836
3515.862
3437.143
3378.551
3341.21
3317.151
3304.22
3308.261
3326.232
3367.484
3426.965
3497.159
3574.047
3657.592
3747.883
3841.374
3934.525
4025.756
4116.549
4207.951
4299.776
4391.957
4484.321
4576.172
4666.62
4754.826
4839.939
4921.214
4998.201
5070.692
5138.657
5202.191
5261.501
5317.026
5369.356
5419.037
5466.47
5512.019
5556.105
5599.135
5641.385
5682.966
5723.859
5763.956
5803.129
5841.227
5878.079
5913.552
5947.571
5980.09
6011.074
6040.433
6068.065
6093.841
6117.628
6139.33
6158.885
6176.368
6192.03
6206.239
6219.391
6231.86
6243.929
6255.731
6267.289
6278.6
6289.686
6300.595
6311.367
6321.997
6332.443
6342.652
6352.597
6362.266
6371.643
6380.71
6389.457
6397.872
6405.989
6413.874
6421.517
6428.88
6435.954
6442.736
6449.211
6455.422
6461.453
6467.318
6473
6478.508
6483.865
6489.093
6494.216
6499.254
6504.219
6509.121
6513.986
6518.824
6523.622
6528.372
6533.058
6537.678
6542.225
6546.704
6551.091
6555.391
6559.6
6563.718
6567.739
6571.661
6575.477
6579.184
6582.78
6586.264
6589.64
6592.91
6596.078
6599.144
6602.114
6604.99
6607.776
6610.479
6613.102
6615.652
6618.133
6620.552
6622.914
6625.225
6627.488
6629.709
6631.89
6634.034
6636.143
6638.219
6640.261
6642.269
6644.243
6646.18
6648.079
6649.938
6651.752
6653.52
6655.242
6656.915
6658.537
6660.108
6661.625
6663.087
6664.496
6665.85
6667.15
6668.398
6669.594
6670.742
6671.842
6672.898
6673.913
6674.888
6675.825
6676.721
6677.573
6678.379
6679.141
6679.859
6680.539
6681.181
6681.788
6682.363
6682.908
6683.427
6683.923
6684.399
6684.858
6685.304
6685.737
6686.162
6686.58
6686.995
6687.408
6687.821
6688.237
6688.657
6689.083
6689.518
6689.964
6690.424
6690.903
6691.409
6691.952
6692.545
6693.207
6693.963
6694.841
6695.873
6697.084
6698.488
6700.077
6701.823
6703.685
6705.634
6707.65
6709.722
6711.842
6714.003
6716.201
6718.434
6720.701
6723.002
6725.336
6727.703
6730.105
6732.542
6735.013
6737.52
6740.063
6742.641
6745.255
6747.904
6750.587
6753.304
6756.053
6758.833
6761.642
6764.477
6767.335
6770.212
6773.106
6776.012
6778.924
6781.837
6784.745
6787.652
6790.565
6793.492
6796.435
6799.392
6802.357
6805.326
6808.294
6811.258
6814.216
6817.165
6820.101
6823.022
6825.924
6828.805
6831.663
6834.495
6837.299
6840.072
6842.813
6845.521
6848.193
6850.828
6853.425
6855.982
6858.499
6860.975
6863.407
6865.796
6868.139
6870.436
6872.686
6874.889
6877.042
6879.144
6881.192
6883.186
6885.12
6886.993
6888.8
6890.534
6892.191
6893.764
6895.246
6896.636
6897.931
6899.137
6900.256
6901.295
6902.255
6903.136
6903.94
6904.667
6905.316
6905.884
6906.375
6906.797
6907.157
6907.459
6907.703
6907.89
6908.021
6908.097
6908.118
6908.085
6907.998
6907.858
6907.665
6907.422
6907.129
6906.787
6906.398
6905.965
6905.488
6904.97
6904.413
6903.819
6903.191
6902.531
6901.84
6901.123
6900.38
6899.614
6898.827
6898.022
6897.201
6896.365
6895.517
6894.658
6893.791
6892.916
6892.035
6891.149
6890.26
6889.369
6888.477
6887.584
6886.691
6885.798
6884.905
6884.013
6883.122
6882.231
6881.339
6880.446
6879.551
6878.654
6877.752
6876.845
6875.931
6875.008
6874.075
6873.129
6872.169
6871.192
6870.195
6869.177
6868.136
6867.067
6865.97
6864.841
6863.68
6862.486
6861.259
6860.002
6858.72
6857.422
6856.122
6854.843
6853.614
6852.477
6851.474
6850.672
6850.101
6849.865
6849.886
6850.541
3922.055
3847.357
3679.226
3590.9
3500.402
3411.688
3324.926
3239.805
3155.529
3071.798
2989.208
2904.152
2817.559
2729.523
2640.39
2550.29
2459.699
2368.827
2277.821
2187.834
2101.348
2016.378
1933.29
1854.118
1780.427
1713.269
1653.781
1603.388
1563.454
1534.388
1516.215
1509.243
1513.757
1529.379
1555.847
1593.281
1642.314
1703.477
1777.209
1863.752
1963.138
2075.27
2200.053
2337.559
2487.768
2649.79
2823.377
3009.844
3210.043
3423.839
3649.838
3886.658
4131.775
4381.208
4630.167
4872.502
5101.655
5310.613
5493.73
5646.449
5765.831
5850.194
5900.522
5917.377
5902.342
5859.374
5793.272
5709.955
5613.322
5506.933
5394.54
5278.25
5160.539
5041.766
4921.962
4800.198
4675.511
4546.694
4412.58
4270.503
4122.123
3965.383
3801.438
3633.563
3460.348
3284.46
3112.644
2951.287
2806.829
2678.627
2572.965
2508.105
2487.542
2504.88
2555.286
2632.901
2731.546
2847.269
2977.151
3117.335
3263.323