/*--------------------------------*- C++ -*----------------------------------*\
| =========                 |                                                 |
| \\      /  F ield         | foam-extend: Open Source CFD                    |
|  \\    /   O peration     | Version:     3.1                                |
|   \\  /    A nd           | Web:         http://www.extend-project.de       |
|    \\/     M anipulation  |                                                 |
\*---------------------------------------------------------------------------*/
FoamFile
{
    version     2.0;
    format      ascii;
    class       volScalarField;
    location    "8";
    object      pd;
}
// * * * * * * * * * * * * * * * * * * * * * * * * * * * * * * * * * * * * * //

dimensions      [1 -1 -2 0 0 0 0];

internalField   nonuniform List<scalar> 
119952
(
7611.935
7159.412
7128.316
7248.273
7362.983
7359.754
7384.319
7417.653
7448.828
7479.085
7507.7
7536.9
7569.369
7604.798
7641.81
7678.307
7713.343
7746.054
7774.346
7789.817
7859.803
7858.786
7877.911
7954.872
7974.368
8001.236
8022.562
8047.829
8088.591
8867.173
6002.568
5955.363
5946.956
5919.21
5884.211
5843.493
5796.807
5746.994
5699.905
5647.425
5581.667
5552.766
5517.176
5493.101
5480.182
5479.588
5490.333
5513.033
5546.556
5635.379
5676.24
5722.221
5789.965
5866.225
5944.812
6027.051
6110.827
6194.577
6276.039
6346.747
6426.713
6507.686
6584.74
6661.241
6737.896
6814.544
6894.204
6993.732
7118.607
7126.258
7168.36
7248.829
7310.73
7353.208
7383.673
7417.73
7451.698
7483.868
7515.45
7547.775
7581.705
7617.182
7653.203
7688.554
7722.36
7753.975
7783.303
7811.651
7840.72
7870.057
7897.448
7936.117
7978.153
8002.797
8022.842
8039.14
8042.571
8027.256
8033.612
8047.3
8058.441
8069.24
8079.492
8089.481
8099.572
8110.089
8121.162
8132.64
8144.133
8155.433
8166.239
8176.535
8186.352
8195.755
8204.83
8213.637
8222.189
8230.504
8238.597
8246.481
8254.162
8261.655
8268.966
8276.113
8283.096
8289.908
8296.545
8303.023
8309.34
8315.525
8321.591
8327.538
8333.37
8339.088
8344.693
8350.187
8355.57
8360.843
8366.004
8371.054
8375.99
8380.809
8385.505
8390.071
8394.492
8398.788
8403.191
8407.719
8412.027
8415.953
8419.756
8423.443
8427.013
8430.472
8433.823
8437.068
8440.211
8443.256
8446.206
8449.067
8451.846
8454.548
8457.177
8459.735
8462.227
8464.657
8467.03
8469.347
8471.614
8473.831
8476.001
8478.125
8480.204
8482.237
8484.225
8486.168
8488.064
8489.912
8491.711
8493.461
8495.158
8496.805
8498.397
8499.932
8501.445
8502.88
8504.239
8505.552
8506.808
8508.008
8509.147
8510.223
8511.23
8512.145
8512.929
8513.59
8514.865
8518.119
8517.719
8518.479
8519.223
8519.947
8520.62
8521.261
8521.874
8522.465
8523.034
8523.586
8524.12
8524.64
8525.148
8525.645
8526.134
8526.617
8527.095
8527.565
8528.029
8528.487
8528.937
8529.378
8529.809
8530.225
8530.62
8530.987
8531.314
8531.586
8531.777
8531.849
8531.736
8531.323
8530.366
8528.176
8524.94
8530.806
8534.794
8538.224
8541.227
8544.024
8546.679
8549.245
8551.758
8554.235
8556.692
8559.138
8561.581
8564.027
8566.483
8568.951
8571.435
8573.939
8576.463
8579.01
8581.58
8584.177
8586.799
8589.448
8592.124
8594.828
8597.559
8600.316
8603.101
8605.914
8608.757
8611.633
8614.558
8617.467
8620.294
8633.974
8631.763
8628.762
8631.92
8634.741
8637.095
8639.737
8642.53
8645.316
8648.107
8650.919
8653.723
8656.529
8659.341
8662.141
8664.928
8667.701
8670.44
8673.161
8675.861
8678.533
8681.178
8683.792
8686.377
8688.931
8691.453
8693.942
8696.397
8698.819
8701.206
8703.558
8705.875
8708.155
8710.401
8712.609
8714.782
8716.921
8719.027
8721.102
8723.152
8725.183
8727.209
8729.248
8731.326
8733.41
8735.211
8736.369
8737.173
8738.08
8739.063
8740.042
8741.018
8741.852
8741.67
8738.774
8742.062
8743.393
8743.754
8744.262
8744.692
8745.015
8745.291
8745.528
8745.723
8745.873
8745.972
8746.016
8746.01
8745.952
8745.844
8745.683
8745.472
8745.211
8744.901
8744.544
8744.143
8743.7
8743.216
8742.695
8742.139
8741.549
8740.93
8740.283
8739.61
8738.914
8738.197
8737.462
8736.71
8735.943
8735.163
8734.373
8733.573
8732.765
8731.95
8731.13
8730.305
8729.477
8728.645
8727.811
8726.974
8726.136
8725.295
8724.451
8723.605
8722.754
8721.898
8721.037
8720.168
8719.29
8718.402
8717.5
8716.583
8715.648
8714.691
8713.711
8712.701
8711.659
8710.58
8709.457
8708.284
8707.054
8705.758
8704.385
8702.923
8701.357
8699.668
8697.833
8695.821
8693.594
8691.099
8688.267
8684.995
8681.143
8676.461
8670.549
8663.096
8655.867
8660.233
8697.519
7301.061
7165.148
6995.799
6832.953
6671.27
6510.918
6352.652
6196.987
6045.994
5890.26
5752.619
5627.769
5514.712
5418.199
5339.862
5279.918
5239.162
5218.923
5241.735
5264.02
5273.932
5310.9
5361.08
5418.271
5481.008
5543.983
5607.131
5670.5
5726.138
5773.437
5823.972
5867.974
5903.471
5932.552
5953.896
5967.405
5974.588
5973.144
5950.758
5924.812
5893.89
5855.115
5810.774
5761.952
5710.837
5659.79
5611.865
5562.742
5522.213
5492.729
5472.093
5462.117
5464.176
5478.411
5505.129
5544.231
5597.512
5660.834
5727.662
5795.252
5869.753
5949.88
6031.926
6115.874
6200.406
6284.323
6367.271
6447.552
6526.231
6604.709
6683.581
6762.475
6841.623
6921.073
7000.052
7073.826
7133.629
7184.754
7238.725
7291.825
7338.418
7378.392
7415.022
7450.533
7485.563
7520.389
7555.421
7590.992
7626.966
7662.789
7697.815
7731.507
7763.744
7794.598
7824.219
7853.484
7883.263
7913.706
7944.717
7974.237
7998.782
8017.138
8029.662
8036.48
8039.703
8045.241
8054.748
8065.845
8076.857
8087.309
8097.452
8107.783
8118.517
8129.468
8140.446
8151.266
8161.723
8171.833
8181.579
8190.954
8200.001
8208.767
8217.282
8225.576
8233.674
8241.576
8249.285
8256.805
8264.142
8271.32
8278.37
8285.263
8291.959
8298.475
8304.833
8311.045
8317.121
8323.094
8328.947
8334.693
8340.328
8345.857
8351.28
8356.593
8361.797
8366.895
8371.884
8376.765
8381.533
8386.19
8390.737
8395.186
8399.568
8403.915
8408.196
8412.293
8416.216
8419.998
8423.661
8427.21
8430.647
8433.973
8437.194
8440.312
8443.334
8446.262
8449.101
8451.857
8454.536
8457.144
8459.683
8462.157
8464.571
8466.928
8469.232
8471.486
8473.693
8475.853
8477.969
8480.04
8482.067
8484.049
8485.986
8487.876
8489.72
8491.516
8493.26
8494.97
8496.622
8498.219
8499.762
8501.253
8502.689
8504.065
8505.38
8506.64
8507.841
8508.987
8510.069
8511.105
8512.076
8513.047
8513.972
8514.96
8517.368
8517.467
8518.001
8518.771
8519.498
8520.183
8520.81
8521.423
8522.013
8522.581
8523.13
8523.662
8524.178
8524.681
8525.171
8525.65
8526.128
8526.601
8527.063
8527.517
8527.964
8528.404
8528.836
8529.256
8529.662
8530.048
8530.406
8530.727
8530.996
8531.196
8531.298
8531.258
8531.029
8530.584
8530.072
8530.378
8532.652
8535.815
8538.696
8541.473
8544.135
8546.708
8549.222
8551.698
8554.148
8556.584
8559.014
8561.445
8563.883
8566.332
8568.797
8571.279
8573.783
8576.309
8578.86
8581.436
8584.039
8586.669
8589.328
8592.014
8594.729
8597.472
8600.243
8603.041
8605.868
8608.724
8611.614
8614.54
8617.571
8621.381
8625.443
8629.303
8631.406
8632.875
8634.85
8637.408
8640.219
8643.056
8645.863
8648.664
8651.481
8654.314
8657.149
8659.972
8662.778
8665.569
8668.357
8671.108
8673.827
8676.528
8679.204
8681.851
8684.466
8687.051
8689.603
8692.122
8694.607
8697.057
8699.472
8701.852
8704.196
8706.503
8708.773
8711.006
8713.202
8715.361
8717.485
8719.573
8721.628
8723.651
8725.643
8727.617
8729.558
8731.428
8733.176
8734.737
8736.042
8737.137
8738.148
8739.14
8740.097
8740.983
8741.71
8742.083
8741.961
8742.092
8742.866
8743.815
8744.546
8745.009
8745.314
8745.554
8745.764
8745.936
8746.058
8746.125
8746.138
8746.101
8746.013
8745.876
8745.688
8745.451
8745.165
8744.832
8744.454
8744.033
8743.571
8743.07
8742.532
8741.959
8741.355
8740.721
8740.06
8739.374
8738.666
8737.937
8737.19
8736.426
8735.649
8734.859
8734.058
8733.248
8732.43
8731.606
8730.777
8729.943
8729.106
8728.267
8727.425
8726.58
8725.734
8724.886
8724.036
8723.182
8722.325
8721.464
8720.596
8719.722
8718.839
8717.946
8717.04
8716.118
8715.18
8714.22
8713.237
8712.225
8711.182
8710.101
8708.979
8707.807
8706.58
8705.288
8703.923
8702.47
8700.921
8699.252
8697.45
8695.481
8693.326
8690.93
8688.269
8685.267
8681.931
8678.281
8674.686
8671.864
8671.156
8673.345
8678.932
4026.757
4100.564
4199.722
4317.425
4451.687
4602.031
4768.236
4950.481
5148.909
5360.755
5587.933
5831.104
6084.912
6348.187
6618.673
6892.309
7161.369
7424.041
7678.145
7937.49
8144.656
8326.491
8477.322
8593.485
8672.82
8715.153
8721.516
8694.263
8640.555
8557.522
8452.691
8328.3
8188.628
8038.553
7881.918
7721.453
7559.621
7398.693
7225.405
7065.173
6903.758
6742.825
6583.284
6424.864
6268.642
6116.074
5969.305
5829.238
5693.771
5573.577
5466.738
5375.771
5303.039
5249.763
5216.39
5204.561
5205.996
5232.174
5265.683
5312.56
5370.406
5434.258
5500.423
5568.989
5635.228
5699.076
5759.156
5813.74
5861.414
5901.915
5935.164
5960.488
5977.346
5985.159
5983.28
5971.211
5948.836
5917.605
5878.412
5832.195
5780.447
5725.308
5669.191
5614.066
5561.599
5514.604
5475.512
5446.066
5427.474
5420.709
5426.343
5444.74
5475.147
5517.545
5571.684
5632.488
5695.74
5769.143
5846.992
5928.609
6012.611
6097.854
6183.51
6268.714
6352.922
6436.07
6518.382
6600.091
6680.968
6760.684
6838.429
6914.081
6986.676
7056.313
7119.059
7172.87
7224.326
7275.537
7323.599
7366.492
7405.579
7443.139
7480.188
7516.927
7553.495
7590.067
7626.593
7662.744
7698.133
7732.43
7765.406
7797.123
7827.691
7857.332
7886.678
7915.642
7943.638
7970.12
7993.248
8011.518
8025.202
8035.513
8043.209
8050.313
8059.456
8070.402
8081.586
8092.263
8102.495
8112.591
8122.845
8133.393
8144.143
8154.852
8165.383
8175.699
8185.565
8194.889
8203.768
8212.252
8220.453
8228.494
8236.378
8244.081
8251.609
8258.958
8266.121
8273.108
8279.944
8286.632
8293.16
8299.53
8305.754
8311.85
8317.853
8323.758
8329.555
8335.235
8340.783
8346.243
8351.606
8356.862
8362.016
8367.069
8372.018
8376.863
8381.603
8386.238
8390.773
8395.212
8399.564
8403.836
8408.03
8412.102
8416.014
8419.778
8423.42
8426.949
8430.368
8433.679
8436.885
8439.99
8442.999
8445.915
8448.744
8451.49
8454.158
8456.752
8459.278
8461.741
8464.144
8466.493
8468.789
8471.038
8473.24
8475.399
8477.514
8479.587
8481.617
8483.605
8485.55
8487.451
8489.306
8491.115
8492.872
8494.579
8496.233
8497.835
8499.383
8500.877
8502.316
8503.699
8505.028
8506.302
8507.52
8508.684
8509.795
8510.857
8511.883
8512.881
8513.92
8515.003
8516.341
8517.344
8517.993
8518.596
8519.264
8519.924
8520.6
8521.224
8521.812
8522.376
8522.918
8523.441
8523.947
8524.439
8524.919
8525.394
8525.83
8526.29
8526.743
8527.189
8527.629
8528.062
8528.488
8528.904
8529.308
8529.696
8530.063
8530.402
8530.705
8530.965
8531.176
8531.338
8531.48
8531.696
8532.184
8533.23
8535.009
8537.323
8539.805
8542.284
8544.731
8547.156
8549.567
8551.968
8554.362
8556.756
8559.154
8561.561
8563.981
8566.417
8568.873
8571.349
8573.85
8576.375
8578.927
8581.507
8584.115
8586.752
8589.418
8592.114
8594.838
8597.591
8600.372
8603.181
8606.015
8608.879
8611.76
8614.674
8617.578
8620.548
8623.199
8625.327
8627.692
8630.472
8633.475
8636.522
8639.54
8642.509
8645.435
8648.336
8651.227
8654.113
8656.987
8659.845
8662.686
8665.503
8668.3
8671.073
8673.821
8676.543
8679.235
8681.897
8684.526
8687.123
8689.686
8692.215
8694.708
8697.165
8699.586
8701.97
8704.316
8706.624
8708.893
8711.124
8713.316
8715.469
8717.583
8719.659
8721.697
8723.695
8725.652
8727.566
8729.417
8731.197
8732.877
8734.41
8735.768
8736.962
8738.035
8739.046
8740.003
8740.897
8741.729
8742.619
8743.669
8744.492
8744.927
8745.154
8745.342
8745.534
8745.72
8745.892
8746.044
8746.168
8746.253
8746.294
8746.286
8746.231
8746.127
8745.975
8745.773
8745.523
8745.226
8744.882
8744.494
8744.063
8743.591
8743.08
8742.533
8741.952
8741.339
8740.696
8740.025
8739.33
8738.612
8737.874
8737.117
8736.344
8735.556
8734.756
8733.945
8733.124
8732.296
8731.461
8730.621
8729.777
8728.929
8728.079
8727.226
8726.372
8725.516
8724.658
8723.798
8722.936
8722.071
8721.202
8720.328
8719.448
8718.56
8717.663
8716.754
8715.831
8714.892
8713.934
8712.954
8711.948
8710.912
8709.841
8708.732
8707.577
8706.371
8705.106
8703.774
8702.365
8700.866
8699.267
8697.55
8695.698
8693.692
8691.514
8689.152
8686.612
8683.953
8681.302
8678.919
8677.103
8676.245
8676.785
8679.147
3780.506
3743.75
3719.248
3703.345
3698.084
3713.364
3743.844
3799.594
3872.597
3913.176
3925.5
3957.383
4014.707
4093.465
4191.981
4307.8
4438.743
4585.063
4747.072
4923.268
5114.354
5320.212
5539.973
5773.726
6019.976
6275.188
6537.063
6803.031
7067.559
7325.492
7575.152
7862.717
8076.829
8255.39
8399.665
8507.993
8578.743
8612.147
8610.067
8575.738
8513.487
8426.953
8318.982
8191.899
8051.22
7902.88
7749.89
7594.026
7436.674
7278.924
7121.267
6964.327
6807.488
6650.513
6493.722
6337.628
6183.04
6031.263
5883.934
5742.901
5610.453
5489.688
5383.36
5293.974
5223.538
5174.021
5145.861
5140.329
5157.751
5188.699
5229.866
5283.29
5347.742
5419.006
5493.517
5569.208
5643.271
5714.029
5779.575
5838.164
5889.837
5932.689
5966.998
5991.989
6007.069
6011.722
6005.453
5988.414
5960.504
5922.726
5876.896
5823.96
5765.222
5703.321
5641.129
5580.705
5523.665
5472.459
5429.843
5398.403
5379.06
5372.281
5378.507
5398.016
5430.913
5476.626
5529.894
5591.977
5660.967
5736.928
5817.481
5901.147
5986.54
6072.747
6159.371
6245.952
6332.176
6417.887
6502.72
6586.304
6668.209
6748.011
6825.119
6899.407
6970.433
7037.865
7099.954
7155.995
7208.575
7259.357
7307.498
7351.976
7393.374
7433.056
7471.91
7510.237
7548.138
7585.699
7622.883
7659.494
7695.287
7730.013
7763.508
7795.791
7826.859
7856.786
7885.842
7913.979
7940.737
7965.599
7987.613
8006.075
8021.039
8033.236
8043.359
8052.682
8062.675
8073.583
8084.724
8095.588
8106.116
8116.425
8126.778
8137.406
8148.215
8158.94
8169.351
8179.358
8188.963
8198.182
8207.036
8215.563
8223.863
8232.023
8239.956
8247.587
8254.975
8262.15
8269.119
8275.897
8282.495
8288.946
8295.277
8301.478
8307.547
8313.492
8319.33
8325.062
8330.707
8336.262
8341.775
8347.185
8352.484
8357.666
8362.752
8367.748
8372.65
8377.456
8382.161
8386.767
8391.274
8395.685
8400.003
8404.23
8408.365
8412.383
8416.261
8420.003
8423.624
8427.132
8430.529
8433.818
8437.002
8440.085
8443.071
8445.965
8448.772
8451.495
8454.141
8456.715
8459.221
8461.665
8464.052
8466.385
8468.668
8470.905
8473.097
8475.247
8477.355
8479.423
8481.45
8483.436
8485.38
8487.28
8489.136
8490.945
8492.705
8494.416
8496.077
8497.685
8499.24
8500.741
8502.188
8503.58
8504.916
8506.198
8507.425
8508.6
8509.725
8510.805
8511.848
8512.87
8513.872
8514.874
8515.748
8516.587
8517.429
8518.238
8518.998
8519.709
8520.382
8521.008
8521.597
8522.158
8522.695
8523.212
8523.71
8524.194
8524.666
8525.127
8525.571
8526.011
8526.446
8526.876
8527.302
8527.723
8528.139
8528.549
8528.952
8529.345
8529.727
8530.094
8530.445
8530.78
8531.107
8531.444
8531.834
8532.352
8533.105
8534.225
8535.817
8537.823
8540.044
8542.325
8544.621
8546.929
8549.251
8551.582
8553.921
8556.271
8558.633
8561.011
8563.406
8565.823
8568.262
8570.725
8573.215
8575.732
8578.277
8580.853
8583.458
8586.093
8588.759
8591.456
8594.183
8596.939
8599.723
8602.536
8605.373
8608.236
8611.113
8614.008
8616.885
8619.73
8622.523
8625.36
8628.246
8631.102
8633.917
8636.74
8639.6
8642.483
8645.371
8648.258
8651.143
8654.027
8656.906
8659.773
8662.625
8665.458
8668.271
8671.063
8673.829
8676.566
8679.273
8681.95
8684.595
8687.206
8689.783
8692.324
8694.829
8697.296
8699.726
8702.118
8704.47
8706.782
8709.055
8711.286
8713.477
8715.626
8717.733
8719.798
8721.819
8723.793
8725.718
8727.586
8729.391
8731.121
8732.747
8734.262
8735.633
8736.87
8737.999
8739.048
8740.035
8740.97
8741.862
8742.708
8743.418
8743.916
8744.293
8744.663
8745.051
8745.415
8745.723
8745.97
8746.164
8746.311
8746.408
8746.455
8746.449
8746.391
8746.283
8746.125
8745.918
8745.661
8745.356
8745.005
8744.609
8744.169
8743.689
8743.17
8742.614
8742.023
8741.401
8740.749
8740.069
8739.364
8738.637
8737.888
8737.121
8736.338
8735.54
8734.73
8733.908
8733.077
8732.239
8731.394
8730.543
8729.689
8728.831
8727.971
8727.109
8726.245
8725.38
8724.514
8723.646
8722.776
8721.904
8721.029
8720.15
8719.265
8718.373
8717.474
8716.564
8715.641
8714.704
8713.75
8712.775
8711.778
8710.753
8709.696
8708.605
8707.473
8706.295
8705.064
8703.775
8702.419
8700.987
8699.471
8697.861
8696.148
8694.324
8692.387
8690.349
8688.236
8686.122
8684.094
8682.335
8680.949
8680.237
8680.237
8681.43
4632.871
4542.44
4457.714
4370.546
4281.804
4188.61
4107.338
4028.119
3956.334
3891.081
3832.62
3784.492
3744.392
3714.208
3695.095
3687.599
3695.726
3718.313
3751.764
3790.189
3826.87
3868.366
3922.513
3992.522
4077.665
4178.043
4294.954
4427.118
4574.075
4735.866
4912.485
5103.72
5309.417
5528.271
5759.497
6002.667
6255.944
6516.972
6782.934
7049.773
7310.489
7556.57
7776.764
7985.23
8162.592
8305.718
8412.561
8481.621
8513.382
8509.739
8474.152
8410.605
8323.29
8213.872
8086.218
7948.081
7804.22
7656.639
7506.666
7355.38
7203.618
7051.274
6898.677
6745.86
6592.153
6437.546
6282.373
6127.237
5973.485
5822.963
5677.83
5540.833
5415.449
5305.029
5212.185
5139.227
5089.051
5063.354
5060.77
5079.575
5115.835
5166.398
5229.823
5304.135
5385.881
5471.521
5558.182
5643.133
5724.03
5798.846
5866.02
5924.285
5973.203
6011.077
6037.648
6052.399
6055.061
6044.894
6022.253
5987.123
5941.187
5886.555
5823.916
5754.767
5682.844
5611.747
5543.087
5478.305
5420.478
5373.519
5339.613
5318.349
5309.945
5315.476
5335.209
5369.39
5414.742
5473.568
5539.912
5613.239
5692.507
5776.226
5862.493
5949.698
6037.467
6125.796
6214.44
6303.116
6391.468
6478.852
6564.646
6648.344
6729.448
6807.394
6881.886
6952.596
7019.196
7081.235
7138.595
7192.239
7243.189
7291.582
7337.207
7380.367
7421.818
7462.226
7501.921
7541.022
7579.568
7617.523
7654.761
7691.113
7726.382
7760.433
7793.23
7824.748
7854.996
7884.02
7911.735
7937.803
7961.83
7983.367
8002.099
8018.037
8031.633
8043.53
8054.527
8065.422
8076.571
8087.822
8098.915
8109.754
8120.415
8131.083
8141.845
8152.606
8163.206
8173.46
8183.297
8192.846
8202.152
8211.147
8219.802
8228.114
8236.127
8243.898
8251.441
8258.754
8265.846
8272.721
8279.42
8285.965
8292.32
8298.486
8304.49
8310.351
8316.085
8321.703
8327.215
8332.659
8338.054
8343.399
8348.671
8353.85
8358.947
8363.949
8368.869
8373.699
8378.443
8383.093
8387.649
8392.11
8396.476
8400.747
8404.92
8408.993
8412.952
8416.786
8420.495
8424.084
8427.56
8430.925
8434.183
8437.336
8440.388
8443.345
8446.209
8448.987
8451.682
8454.301
8456.849
8459.331
8461.753
8464.118
8466.431
8468.697
8470.918
8473.097
8475.235
8477.335
8479.396
8481.418
8483.401
8485.344
8487.244
8489.101
8490.912
8492.676
8494.392
8496.056
8497.67
8499.23
8500.736
8502.189
8503.586
8504.929
8506.217
8507.452
8508.635
8509.77
8510.861
8511.912
8512.93
8513.913
8514.868
8515.769
8516.655
8517.504
8518.289
8519.018
8519.706
8520.358
8520.974
8521.557
8522.113
8522.644
8523.153
8523.644
8524.12
8524.581
8525.031
8525.47
8525.901
8526.328
8526.751
8527.171
8527.588
8528.004
8528.417
8528.829
8529.238
8529.645
8530.05
8530.457
8530.871
8531.306
8531.783
8532.341
8533.033
8533.928
8535.102
8536.608
8538.418
8540.427
8542.536
8544.699
8546.901
8549.135
8551.395
8553.676
8555.978
8558.3
8560.645
8563.012
8565.404
8567.823
8570.269
8572.744
8575.248
8577.784
8580.35
8582.949
8585.579
8588.241
8590.935
8593.66
8596.415
8599.199
8602.011
8604.847
8607.706
8610.58
8613.466
8616.35
8619.234
8622.133
8625.033
8627.888
8630.692
8633.503
8636.359
8639.26
8642.183
8645.11
8648.034
8650.952
8653.866
8656.77
8659.663
8662.539
8665.396
8668.232
8671.045
8673.83
8676.588
8679.316
8682.012
8684.676
8687.305
8689.899
8692.457
8694.977
8697.458
8699.9
8702.303
8704.664
8706.984
8709.262
8711.497
8713.689
8715.836
8717.939
8719.994
8722.002
8723.957
8725.858
8727.698
8729.469
8731.161
8732.761
8734.265
8735.642
8736.903
8738.069
8739.151
8740.162
8741.109
8741.987
8742.77
8743.443
8744.033
8744.559
8745.028
8745.439
8745.791
8746.081
8746.313
8746.494
8746.627
8746.711
8746.745
8746.727
8746.658
8746.539
8746.369
8746.15
8745.882
8745.565
8745.202
8744.795
8744.344
8743.852
8743.322
8742.755
8742.153
8741.519
8740.856
8740.165
8739.449
8738.709
8737.949
8737.171
8736.376
8735.566
8734.744
8733.911
8733.068
8732.218
8731.362
8730.5
8729.634
8728.766
8727.895
8727.022
8726.149
8725.274
8724.399
8723.523
8722.645
8721.766
8720.884
8720
8719.111
8718.216
8717.314
8716.404
8715.483
8714.549
8713.599
8712.633
8711.645
8710.633
8709.594
8708.524
8707.419
8706.273
8705.083
8703.843
8702.548
8701.192
8699.769
8698.276
8696.71
8695.072
8693.369
8691.622
8689.863
8688.153
8686.559
8685.203
8684.156
8683.618
8683.545
8684.337
5559.77
5461.476
5367.679
5270.537
5182.493
5084.273
4996.472
4907.717
4817.398
4726.682
4637.257
4548.544
4459.818
4372.048
4282.477
4180.87
4097.805
4020.011
3947.513
3881.361
3822.421
3772.218
3730.923
3698.532
3676.087
3665.049
3664.279
3677.776
3701.332
3732.178
3769.474
3815.996
3873.989
3945.438
4032.053
4133.216
4248.627
4378.212
4522.004
4680.271
4853.138
5039.785
5239.397
5451.831
5677.011
5914.081
6162.026
6418.774
6680.245
6943.002
7200.692
7446.61
7670.916
7873.639
8046.928
8185.798
8287.831
8352.123
8379.929
8373.432
8336.524
8272.434
8183.796
8074.541
7950.542
7818.535
7681.708
7541.763
7399.878
7256.8
7113.071
6968.176
6821.979
6674.214
6523.845
6371.164
6216.33
6059.654
5902.428
5746.351
5593.885
5448.775
5315.163
5197.048
5098.515
5021.095
4968.471
4942.965
4942.848
4967.711
5013.797
5076.842
5153.698
5241.861
5338.227
5439.214
5541.344
5641.392
5736.545
5824.486
5903.388
5971.662
6027.952
6071.456
6101.127
6115.724
6115.028
6099.644
6069.716
6024.965
5968.108
5901.573
5825.156
5741.292
5656.324
5574.598
5496
5421.334
5355.024
5302.911
5266.501
5243.049
5232.314
5236.911
5256.931
5293.475
5344.986
5406.361
5471.379
5549.006
5637.882
5729.389
5818.927
5908.105
5997.523
6087.439
6177.76
6268.305
6358.71
6448.314
6536.431
6622.412
6705.531
6785.114
6860.759
6932.198
6999.288
7061.989
7120.39
7175.012
7226.582
7275.56
7322.153
7366.647
7409.534
7451.311
7492.287
7532.585
7572.214
7611.12
7649.207
7686.321
7722.271
7756.933
7790.257
7822.208
7852.764
7881.874
7909.43
7935.207
7958.958
7980.458
7999.566
8016.328
8031.066
8044.274
8056.486
8068.217
8079.801
8091.298
8102.626
8113.734
8124.659
8135.479
8146.235
8156.895
8167.374
8177.578
8187.494
8197.163
8206.551
8215.61
8224.326
8232.667
8240.64
8248.382
8255.954
8263.297
8270.389
8277.22
8283.796
8290.155
8296.329
8302.325
8308.153
8313.828
8319.369
8324.795
8330.127
8335.385
8340.572
8345.688
8350.745
8355.75
8360.701
8365.594
8370.416
8375.16
8379.823
8384.391
8388.872
8393.265
8397.567
8401.773
8405.88
8409.884
8413.778
8417.556
8421.217
8424.761
8428.193
8431.516
8434.734
8437.848
8440.864
8443.783
8446.612
8449.356
8452.018
8454.605
8457.122
8459.575
8461.969
8464.309
8466.599
8468.844
8471.047
8473.21
8475.335
8477.424
8479.477
8481.493
8483.472
8485.413
8487.313
8489.171
8490.985
8492.751
8494.47
8496.139
8497.757
8499.322
8500.834
8502.291
8503.694
8505.043
8506.337
8507.579
8508.77
8509.911
8511.008
8512.062
8513.078
8514.055
8515.001
8515.908
8516.777
8517.598
8518.366
8519.087
8519.769
8520.417
8521.029
8521.609
8522.159
8522.684
8523.187
8523.67
8524.137
8524.591
8525.032
8525.464
8525.889
8526.309
8526.727
8527.143
8527.559
8527.976
8528.396
8528.818
8529.246
8529.68
8530.124
8530.584
8531.068
8531.592
8532.176
8532.851
8533.656
8534.638
8535.841
8537.289
8538.969
8540.825
8542.797
8544.846
8546.951
8549.102
8551.291
8553.512
8555.763
8558.042
8560.349
8562.684
8565.049
8567.443
8569.868
8572.325
8574.814
8577.337
8579.892
8582.481
8585.104
8587.76
8590.449
8593.17
8595.923
8598.705
8601.514
8604.349
8607.206
8610.081
8612.969
8615.866
8618.77
8621.674
8624.562
8627.424
8630.28
8633.158
8636.069
8639.005
8641.953
8644.903
8647.849
8650.791
8653.727
8656.653
8659.567
8662.466
8665.345
8668.202
8671.036
8673.844
8676.624
8679.374
8682.092
8684.776
8687.426
8690.039
8692.615
8695.153
8697.651
8700.108
8702.524
8704.898
8707.228
8709.514
8711.755
8713.951
8716.099
8718.2
8720.25
8722.248
8724.191
8726.075
8727.894
8729.642
8731.313
8732.896
8734.385
8735.768
8737.05
8738.24
8739.344
8740.371
8741.322
8742.194
8742.981
8743.691
8744.328
8744.889
8745.371
8745.782
8746.131
8746.423
8746.661
8746.845
8746.977
8747.057
8747.085
8747.06
8746.983
8746.854
8746.673
8746.443
8746.162
8745.834
8745.459
8745.039
8744.575
8744.071
8743.528
8742.949
8742.334
8741.688
8741.012
8740.308
8739.579
8738.828
8738.055
8737.264
8736.456
8735.634
8734.799
8733.953
8733.099
8732.236
8731.368
8730.494
8729.617
8728.738
8727.856
8726.973
8726.09
8725.206
8724.321
8723.437
8722.552
8721.667
8720.78
8719.89
8718.998
8718.101
8717.199
8716.289
8715.371
8714.442
8713.499
8712.542
8711.567
8710.571
8709.552
8708.507
8707.432
8706.324
8705.178
8703.993
8702.763
8701.487
8700.163
8698.789
8697.368
8695.907
8694.418
8692.923
8691.453
8690.06
8688.797
8687.752
8686.974
8686.598
8686.56
8687.229
5919.492
5905.193
5843.141
5749.05
5645.909
5545.762
5448.468
5355.873
5267.006
5177.219
5072.634
4983.967
4895.97
4807.124
4717.344
4627.316
4537.444
4447.519
4357.949
4270.074
4186.104
4102.885
4023.313
3948.499
3879.201
3816.057
3760.656
3714.035
3676.984
3650.063
3633.659
3628.563
3635.728
3653.993
3682.027
3719.683
3768.33
3828.919
3902.336
3989.285
4089.82
4203.75
4330.991
4471.689
4626.214
4794.395
4975.022
5167.684
5373.621
5593.322
5825.331
6068.278
6320.04
6576.359
6833.103
7084.116
7322.812
7541.729
7736.082
7900.868
8031.507
8125.61
8183.139
8205.946
8196.732
8157.467
8091.415
8003.425
7898.96
7783.176
7660.381
7533.048
7403.219
7271.921
7139.621
7006.459
6871.036
6732.438
6590.187
6442.826
6291.538
6135.76
5976.147
5814.788
5652.111
5490.09
5333.782
5188.42
5057.471
4945.181
4858.232
4802.54
4778.056
4785.016
4821.019
4881.533
4960.951
5055.342
5161.92
5277.609
5398.633
5520.975
5640.714
5754.321
5858.972
5952.469
6032.923
6099.124
6149.47
6182.713
6197.295
6192.88
6170.463
6129.963
6071.798
6001.255
5920.736
5826.864
5723.143
5621.577
5529.053
5441.211
5355.236
5276.515
5217.921
5180.577
5156.517
5143.586
5147.623
5165.523
5205.801
5253.157
5293.759
5383.631
5488.566
5586.444
5680.717
5773.878
5865.1
5955.807
6046.727
6137.856
6230.457
6323.478
6415.533
6505.995
6594.201
6679.314
6760.589
6837.576
6910.067
6978.032
7041.566
7100.876
7156.401
7208.731
7258.412
7305.845
7351.394
7395.48
7438.51
7480.76
7522.341
7563.234
7603.331
7642.504
7680.602
7717.454
7752.927
7786.946
7819.465
7850.449
7879.808
7907.44
7933.216
7957.003
7978.705
7998.26
8015.743
8031.405
8045.614
8058.766
8071.235
8083.304
8095.106
8106.664
8117.975
8129.061
8139.97
8150.742
8161.372
8171.818
8182.027
8191.972
8201.641
8211.018
8220.085
8228.832
8237.247
8245.364
8253.249
8260.892
8268.255
8275.329
8282.111
8288.586
8294.797
8300.828
8306.693
8312.375
8317.883
8323.24
8328.468
8333.591
8338.629
8343.594
8348.496
8353.361
8358.199
8362.997
8367.747
8372.433
8377.053
8381.6
8386.079
8390.466
8394.766
8398.975
8403.093
8407.114
8411.036
8414.852
8418.559
8422.155
8425.639
8429.015
8432.286
8435.453
8438.519
8441.489
8444.365
8447.152
8449.854
8452.477
8455.027
8457.508
8459.927
8462.289
8464.6
8466.863
8469.084
8471.265
8473.409
8475.518
8477.594
8479.636
8481.644
8483.618
8485.555
8487.454
8489.313
8491.127
8492.895
8494.617
8496.29
8497.912
8499.483
8500.999
8502.462
8503.87
8505.225
8506.525
8507.773
8508.969
8510.117
8511.217
8512.273
8513.287
8514.263
8515.2
8516.096
8516.948
8517.754
8518.516
8519.234
8519.913
8520.556
8521.163
8521.738
8522.283
8522.802
8523.298
8523.774
8524.233
8524.678
8525.112
8525.537
8525.955
8526.37
8526.783
8527.196
8527.612
8528.032
8528.458
8528.893
8529.339
8529.799
8530.278
8530.784
8531.327
8531.919
8532.582
8533.338
8534.216
8535.248
8536.459
8537.863
8539.452
8541.197
8543.06
8545.009
8547.025
8549.097
8551.217
8553.378
8555.576
8557.809
8560.076
8562.377
8564.71
8567.078
8569.48
8571.917
8574.388
8576.895
8579.438
8582.016
8584.63
8587.279
8589.962
8592.679
8595.428
8598.208
8601.017
8603.852
8606.71
8609.587
8612.481
8615.387
8618.299
8621.212
8624.12
8627.027
8629.94
8632.867
8635.81
8638.767
8641.732
8644.701
8647.669
8650.633
8653.591
8656.54
8659.476
8662.397
8665.299
8668.18
8671.038
8673.87
8676.674
8679.447
8682.188
8684.896
8687.568
8690.203
8692.8
8695.357
8697.874
8700.35
8702.782
8705.171
8707.514
8709.811
8712.061
8714.264
8716.417
8718.519
8720.567
8722.561
8724.495
8726.368
8728.175
8729.909
8731.566
8733.139
8734.621
8736.011
8737.306
8738.512
8739.631
8740.67
8741.63
8742.511
8743.315
8744.042
8744.691
8745.259
8745.75
8746.172
8746.532
8746.834
8747.078
8747.265
8747.396
8747.472
8747.493
8747.46
8747.373
8747.233
8747.04
8746.797
8746.504
8746.162
8745.773
8745.34
8744.863
8744.345
8743.788
8743.194
8742.566
8741.906
8741.215
8740.498
8739.755
8738.989
8738.202
8737.397
8736.576
8735.74
8734.892
8734.033
8733.166
8732.29
8731.41
8730.524
8729.635
8728.744
8727.852
8726.959
8726.066
8725.173
8724.28
8723.388
8722.497
8721.606
8720.714
8719.821
8718.926
8718.029
8717.127
8716.22
8715.306
8714.383
8713.45
8712.504
8711.544
8710.567
8709.57
8708.552
8707.511
8706.442
8705.345
8704.216
8703.055
8701.861
8700.634
8699.377
8698.095
8696.797
8695.497
8694.218
8692.989
8691.852
8690.849
8690.047
8689.476
8689.24
8689.261
8689.916
5914.709
5870.669
5763.851
5675.525
5585.027
5496.313
5409.552
5324.43
5240.154
5156.423
5073.833
4988.777
4902.184
4814.149
4725.016
4634.915
4544.324
4453.452
4362.446
4272.459
4185.973
4101.003
4017.915
3938.743
3865.052
3797.894
3738.406
3688.013
3648.079
3619.013
3600.84
3593.868
3598.382
3614.004
3640.472
3677.906
3726.939
3788.102
3861.834
3948.377
4047.763
4159.895
4284.678
4422.184
4572.393
4734.415
4908.002
5094.469
5294.668
5508.464
5734.463
5971.283
6216.4
6465.833
6714.792
6957.127
7186.28
7395.238
7578.355
7731.074
7850.456
7934.819
7985.147
8002.002
7986.967
7943.999
7877.897
7794.58
7697.947
7591.558
7479.165
7362.875
7245.164
7126.391
7006.587
6884.823
6760.136
6631.319
6497.205
6355.128
6206.748
6050.008
5886.063
5718.188
5544.973
5369.085
5197.268
5035.909
4891.439
4763.23
4657.574
4592.726
4572.167
4589.504
4639.911
4717.526
4816.171