/*--------------------------------*- C++ -*----------------------------------*\
| =========                 |                                                 |
| \\      /  F ield         | foam-extend: Open Source CFD                    |
|  \\    /   O peration     | Version:     3.1                                |
|   \\  /    A nd           | Web:         http://www.extend-project.de       |
|    \\/     M anipulation  |                                                 |
\*---------------------------------------------------------------------------*/
FoamFile
{
    version     2.0;
    format      ascii;
    class       volVectorField;
    location    "16";
    object      HU;
}
// * * * * * * * * * * * * * * * * * * * * * * * * * * * * * * * * * * * * * //

dimensions      [0 2 -1 0 0 0 0];

internalField   nonuniform List<vector> 
2539
(
(0.624832 0 0)
(0.624659 0 0)
(0.624668 0 0)
(0.62467 0 0)
(0.624671 0 0)
(0.624673 0 0)
(0.624674 0 0)
(0.624676 0 0)
(0.624677 0 0)
(0.624679 0 0)
(0.62468 0 0)
(0.624682 0 0)
(0.624683 0 0)
(0.624685 0 0)
(0.624686 0 0)
(0.624688 0 0)
(0.624689 0 0)
(0.624691 0 0)
(0.624692 0 0)
(0.624694 0 0)
(0.624695 0 0)
(0.624697 0 0)
(0.624698 0 0)
(0.6247 0 0)
(0.624701 0 0)
(0.624703 0 0)
(0.624704 0 0)
(0.624706 0 0)
(0.624707 0 0)
(0.624709 0 0)
(0.62471 0 0)
(0.624712 0 0)
(0.624713 0 0)
(0.624714 0 0)
(0.624716 0 0)
(0.624717 0 0)
(0.624719 0 0)
(0.62472 0 0)
(0.624722 0 0)
(0.624723 0 0)
(0.624724 0 0)
(0.624726 0 0)
(0.624727 0 0)
(0.624729 0 0)
(0.62473 0 0)
(0.624732 0 0)
(0.624733 0 0)
(0.624734 0 0)
(0.624736 0 0)
(0.624737 0 0)
(0.624739 0 0)
(0.62474 0 0)
(0.624741 0 0)
(0.624743 0 0)
(0.624744 0 0)
(0.624745 0 0)
(0.624747 0 0)
(0.624748 0 0)
(0.624749 0 0)
(0.624751 0 0)
(0.624752 0 0)
(0.624754 0 0)
(0.624755 0 0)
(0.624756 0 0)
(0.624758 0 0)
(0.624759 0 0)
(0.62476 0 0)
(0.624762 0 0)
(0.624763 0 0)
(0.624764 0 0)
(0.624766 0 0)
(0.624767 0 0)
(0.624768 0 0)
(0.624769 0 0)
(0.624771 0 0)
(0.624772 0 0)
(0.624773 0 0)
(0.624775 0 0)
(0.624776 0 0)
(0.624777 0 0)
(0.624778 0 0)
(0.62478 0 0)
(0.624781 0 0)
(0.624782 0 0)
(0.624784 0 0)
(0.624785 0 0)
(0.624786 0 0)
(0.624787 0 0)
(0.624789 0 0)
(0.62479 0 0)
(0.624791 0 0)
(0.624792 0 0)
(0.624794 0 0)
(0.624795 0 0)
(0.624796 0 0)
(0.624797 0 0)
(0.624798 0 0)
(0.6248 0 0)
(0.624801 0 0)
(0.624802 0 0)
(0.624803 0 0)
(0.624804 0 0)
(0.624806 0 0)
(0.624807 0 0)
(0.624808 0 0)
(0.624809 0 0)
(0.62481 0 0)
(0.624812 0 0)
(0.624813 0 0)
(0.624814 0 0)
(0.624815 0 0)
(0.624816 0 0)
(0.624817 0 0)
(0.624818 0 0)
(0.62482 0 0)
(0.624821 0 0)
(0.624822 0 0)
(0.624823 0 0)
(0.624824 0 0)
(0.624825 0 0)
(0.624826 0 0)
(0.624828 0 0)
(0.624829 0 0)
(0.62483 0 0)
(0.624831 0 0)
(0.624832 0 0)
(0.624833 0 0)
(0.624834 0 0)
(0.624835 0 0)
(0.624836 0 0)
(0.624837 0 0)
(0.624838 0 0)
(0.624839 0 0)
(0.62484 0 0)
(0.624842 0 0)
(0.624843 0 0)
(0.624844 0 0)
(0.624845 0 0)
(0.624846 0 0)
(0.624847 0 0)
(0.624848 0 0)
(0.624849 0 0)
(0.62485 0 0)
(0.624851 0 0)
(0.624852 0 0)
(0.624853 0 0)
(0.624854 0 0)
(0.624855 0 0)
(0.624856 0 0)
(0.624857 0 0)
(0.624858 0 0)
(0.624859 0 0)
(0.62486 0 0)
(0.624861 0 0)
(0.624862 0 0)
(0.624862 0 0)
(0.624863 0 0)
(0.624864 0 0)
(0.624865 0 0)
(0.624866 0 0)
(0.624867 0 0)
(0.624868 0 0)
(0.624869 0 0)
(0.62487 0 0)
(0.624871 0 0)
(0.624872 0 0)
(0.624872 0 0)
(0.624873 0 0)
(0.624874 0 0)
(0.624875 0 0)
(0.624876 0 0)
(0.624877 0 0)
(0.624878 0 0)
(0.624878 0 0)
(0.624879 0 0)
(0.62488 0 0)
(0.624881 0 0)
(0.624882 0 0)
(0.624883 0 0)
(0.624883 0 0)
(0.624884 0 0)
(0.624885 0 0)
(0.624886 0 0)
(0.624887 0 0)
(0.624677 0 0)
(0.624766 0 0)
(0.625188 0 0)
(0.625212 0 0)
(0.625215 0 0)
(0.625216 0 0)
(0.625218 0 0)
(0.62522 0 0)
(0.625221 0 0)
(0.625223 0 0)
(0.625225 0 0)
(0.625226 0 0)
(0.625228 0 0)
(0.625229 0 0)
(0.625231 0 0)
(0.625233 0 0)
(0.625234 0 0)
(0.625236 0 0)
(0.625238 0 0)
(0.625239 0 0)
(0.625241 0 0)
(0.625242 0 0)
(0.625244 0 0)
(0.625246 0 0)
(0.625247 0 0)
(0.625249 0 0)
(0.62525 0 0)
(0.625252 0 0)
(0.625254 0 0)
(0.625255 0 0)
(0.625257 0 0)
(0.625258 0 0)
(0.62526 0 0)
(0.625262 0 0)
(0.625263 0 0)
(0.625265 0 0)
(0.625266 0 0)
(0.625268 0 0)
(0.62527 0 0)
(0.625271 0 0)
(0.625273 0 0)
(0.625274 0 0)
(0.625276 0 0)
(0.625278 0 0)
(0.625279 0 0)
(0.625281 0 0)
(0.625282 0 0)
(0.625284 0 0)
(0.625286 0 0)
(0.625287 0 0)
(0.625289 0 0)
(0.62529 0 0)
(0.625292 0 0)
(0.625293 0 0)
(0.625295 0 0)
(0.625297 0 0)
(0.625298 0 0)
(0.6253 0 0)
(0.625301 0 0)
(0.625303 0 0)
(0.625305 0 0)
(0.625306 0 0)
(0.625308 0 0)
(0.625309 0 0)
(0.625311 0 0)
(0.625312 0 0)
(0.625314 0 0)
(0.625316 0 0)
(0.625317 0 0)
(0.625319 0 0)
(0.62532 0 0)
(0.625322 0 0)
(0.625323 0 0)
(0.625325 0 0)
(0.625326 0 0)
(0.625328 0 0)
(0.62533 0 0)
(0.625331 0 0)
(0.625333 0 0)
(0.625334 0 0)
(0.625336 0 0)
(0.625337 0 0)
(0.625339 0 0)
(0.62534 0 0)
(0.625342 0 0)
(0.625344 0 0)
(0.625345 0 0)
(0.625347 0 0)
(0.625348 0 0)
(0.62535 0 0)
(0.625351 0 0)
(0.625353 0 0)
(0.625354 0 0)
(0.625356 0 0)
(0.625358 0 0)
(0.625359 0 0)
(0.625361 0 0)
(0.625362 0 0)
(0.625364 0 0)
(0.625365 0 0)
(0.625367 0 0)
(0.625368 0 0)
(0.62537 0 0)
(0.625371 0 0)
(0.625373 0 0)
(0.625375 0 0)
(0.625376 0 0)
(0.625378 0 0)
(0.625379 0 0)
(0.625381 0 0)
(0.625382 0 0)
(0.625384 0 0)
(0.625385 0 0)
(0.625387 0 0)
(0.625388 0 0)
(0.62539 0 0)
(0.625391 0 0)
(0.625393 0 0)
(0.625395 0 0)
(0.625396 0 0)
(0.625398 0 0)
(0.625399 0 0)
(0.625401 0 0)
(0.625402 0 0)
(0.625404 0 0)
(0.625405 0 0)
(0.625407 0 0)
(0.625408 0 0)
(0.62541 0 0)
(0.625411 0 0)
(0.625413 0 0)
(0.625414 0 0)
(0.625416 0 0)
(0.625418 0 0)
(0.625419 0 0)
(0.625421 0 0)
(0.625422 0 0)
(0.625424 0 0)
(0.625425 0 0)
(0.625427 0 0)
(0.625428 0 0)
(0.62543 0 0)
(0.625431 0 0)
(0.625433 0 0)
(0.625434 0 0)
(0.625436 0 0)
(0.625437 0 0)
(0.625439 0 0)
(0.62544 0 0)
(0.625442 0 0)
(0.625444 0 0)
(0.625445 0 0)
(0.625447 0 0)
(0.625448 0 0)
(0.62545 0 0)
(0.625451 0 0)
(0.625453 0 0)
(0.625454 0 0)
(0.625456 0 0)
(0.625457 0 0)
(0.625459 0 0)
(0.62546 0 0)
(0.625462 0 0)
(0.625463 0 0)
(0.625465 0 0)
(0.625466 0 0)
(0.625468 0 0)
(0.625469 0 0)
(0.625471 0 0)
(0.625472 0 0)
(0.625474 0 0)
(0.625475 0 0)
(0.625477 0 0)
(0.625478 0 0)
(0.62548 0 0)
(0.625482 0 0)
(0.625483 0 0)
(0.625485 0 0)
(0.625486 0 0)
(0.625488 0 0)
(0.625489 0 0)
(0.625491 0 0)
(0.625492 0 0)
(0.625494 0 0)
(0.625495 0 0)
(0.625497 0 0)
(0.625498 0 0)
(0.6255 0 0)
(0.625501 0 0)
(0.625503 0 0)
(0.625504 0 0)
(0.625506 0 0)
(0.625507 0 0)
(0.625509 0 0)
(0.62551 0 0)
(0.625512 0 0)
(0.625513 0 0)
(0.625515 0 0)
(0.625522 0 0)
(0.625395 0 0)
(0.628015 0 0)
(0.598087 0 0)
(0.605579 0 0)
(0.613644 0 0)
(0.618237 0 0)
(0.6205 0 0)
(0.621696 0 0)
(0.622377 0 0)
(0.622794 0 0)
(0.62307 0 0)
(0.623265 0 0)
(0.623411 0 0)
(0.623527 0 0)
(0.623621 0 0)
(0.623701 0 0)
(0.623769 0 0)
(0.623829 0 0)
(0.623881 0 0)
(0.623929 0 0)
(0.623972 0 0)
(0.62401 0 0)
(0.624046 0 0)
(0.624079 0 0)
(0.624109 0 0)
(0.624137 0 0)
(0.624163 0 0)
(0.624187 0 0)
(0.62421 0 0)
(0.624231 0 0)
(0.624251 0 0)
(0.62427 0 0)
(0.624287 0 0)
(0.624304 0 0)
(0.62432 0 0)
(0.624335 0 0)
(0.62435 0 0)
(0.624363 0 0)
(0.624376 0 0)
(0.624388 0 0)
(0.6244 0 0)
(0.624411 0 0)
(0.624422 0 0)
(0.624432 0 0)
(0.624442 0 0)
(0.624451 0 0)
(0.62446 0 0)
(0.624469 0 0)
(0.624477 0 0)
(0.624485 0 0)
(0.624492 0 0)
(0.624499 0 0)
(0.624506 0 0)
(0.624513 0 0)
(0.624519 0 0)
(0.624525 0 0)
(0.62453 0 0)
(0.624535 0 0)
(0.62454 0 0)
(0.624545 0 0)
(0.624549 0 0)
(0.624554 0 0)
(0.624557 0 0)
(0.624561 0 0)
(0.624564 0 0)
(0.624567 0 0)
(0.62457 0 0)
(0.624572 0 0)
(0.624574 0 0)
(0.624575 0 0)
(0.624576 0 0)
(0.624577 0 0)
(0.624578 0 0)
(0.624577 0 0)
(0.624577 0 0)
(0.624575 0 0)
(0.624574 0 0)
(0.624571 0 0)
(0.624568 0 0)
(0.624564 0 0)
(0.624558 0 0)
(0.624552 0 0)
(0.624544 0 0)
(0.624535 0 0)
(0.624524 0 0)
(0.62451 0 0)
(0.624494 0 0)
(0.624474 0 0)
(0.62445 0 0)
(0.624421 0 0)
(0.624385 0 0)
(0.62434 0 0)
(0.624284 0 0)
(0.624214 0 0)
(0.624127 0 0)
(0.624018 0 0)
(0.623882 0 0)
(0.623717 0 0)
(0.623521 0 0)
(0.623297 0 0)
(0.623056 0 0)
(0.622826 0 0)
(0.622425 0 0)
(0.622673 0 0)
(0.622881 0 0)
(0.623058 0 0)
(0.623212 0 0)
(0.623346 0 0)
(0.623464 0 0)
(0.623569 0 0)
(0.623663 0 0)
(0.623747 0 0)
(0.623824 0 0)
(0.623894 0 0)
(0.623958 0 0)
(0.624016 0 0)
(0.624071 0 0)
(0.624121 0 0)
(0.624168 0 0)
(0.624211 0 0)
(0.624252 0 0)
(0.62429 0 0)
(0.624326 0 0)
(0.62436 0 0)
(0.624393 0 0)
(0.624423 0 0)
(0.624452 0 0)
(0.624479 0 0)
(0.624505 0 0)
(0.62453 0 0)
(0.624554 0 0)
(0.624577 0 0)
(0.624598 0 0)
(0.624619 0 0)
(0.624639 0 0)
(0.624659 0 0)
(0.624677 0 0)
(0.624695 0 0)
(0.624712 0 0)
(0.624729 0 0)
(0.624745 0 0)
(0.624761 0 0)
(0.624776 0 0)
(0.62479 0 0)
(0.624804 0 0)
(0.624818 0 0)
(0.624832 0 0)
(0.624844 0 0)
(0.624857 0 0)
(0.624869 0 0)
(0.624881 0 0)
(0.624893 0 0)
(0.624904 0 0)
(0.624915 0 0)
(0.624926 0 0)
(0.624936 0 0)
(0.624947 0 0)
(0.624957 0 0)
(0.624967 0 0)
(0.624976 0 0)
(0.624986 0 0)
(0.624995 0 0)
(0.625004 0 0)
(0.625012 0 0)
(0.625021 0 0)
(0.62503 0 0)
(0.625038 0 0)
(0.625046 0 0)
(0.625054 0 0)
(0.625062 0 0)
(0.625069 0 0)
(0.625077 0 0)
(0.625084 0 0)
(0.625092 0 0)
(0.625099 0 0)
(0.625106 0 0)
(0.625113 0 0)
(0.62512 0 0)
(0.625127 0 0)
(0.625133 0 0)
(0.62514 0 0)
(0.625146 0 0)
(0.625152 0 0)
(0.625159 0 0)
(0.625165 0 0)
(0.625171 0 0)
(0.625177 0 0)
(0.625183 0 0)
(0.625189 0 0)
(0.625194 0 0)
(0.6252 0 0)
(0.625206 0 0)
(0.625211 0 0)
(0.625217 0 0)
(0.625222 0 0)
(0.625227 0 0)
(0.625229 0 0)
(0.62523 0 0)
(0.625233 0 0)
(0.625251 0 0)
(0.625307 0 0)
(0.625403 0 0)
(0.625462 0 0)
(0.625464 0 0)
(0.625467 0 0)
(0.62547 0 0)
(0.625473 0 0)
(0.625476 0 0)
(0.625478 0 0)
(0.625481 0 0)
(0.625484 0 0)
(0.625487 0 0)
(0.625489 0 0)
(0.625492 0 0)
(0.625495 0 0)
(0.625498 0 0)
(0.6255 0 0)
(0.625503 0 0)
(0.625506 0 0)
(0.625508 0 0)
(0.625511 0 0)
(0.625514 0 0)
(0.625516 0 0)
(0.625519 0 0)
(0.625521 0 0)
(0.625524 0 0)
(0.625527 0 0)
(0.625529 0 0)
(0.625532 0 0)
(0.625534 0 0)
(0.625537 0 0)
(0.625539 0 0)
(0.625542 0 0)
(0.625544 0 0)
(0.625547 0 0)
(0.625549 0 0)
(0.625552 0 0)
(0.625554 0 0)
(0.625557 0 0)
(0.625559 0 0)
(0.625562 0 0)
(0.625564 0 0)
(0.625566 0 0)
(0.625569 0 0)
(0.625571 0 0)
(0.625574 0 0)
(0.625576 0 0)
(0.625578 0 0)
(0.625581 0 0)
(0.625583 0 0)
(0.625586 0 0)
(0.625588 0 0)
(0.62559 0 0)
(0.625593 0 0)
(0.625595 0 0)
(0.625597 0 0)
(0.6256 0 0)
(0.625602 0 0)
(0.625604 0 0)
(0.625607 0 0)
(0.625609 0 0)
(0.625611 0 0)
(0.625614 0 0)
(0.625616 0 0)
(0.625618 0 0)
(0.62562 0 0)
(0.625623 0 0)
(0.625625 0 0)
(0.625627 0 0)
(0.625629 0 0)
(0.625632 0 0)
(0.625634 0 0)
(0.625636 0 0)
(0.625638 0 0)
(0.625641 0 0)
(0.625643 0 0)
(0.625645 0 0)
(0.625647 0 0)
(0.625649 0 0)
(0.625652 0 0)
(0.625654 0 0)
(0.625656 0 0)
(0.625658 0 0)
(0.62566 0 0)
(0.625663 0 0)
(0.625665 0 0)
(0.625667 0 0)
(0.625669 0 0)
(0.625671 0 0)
(0.625673 0 0)
(0.625676 0 0)
(0.625678 0 0)
(0.62568 0 0)
(0.625682 0 0)
(0.625684 0 0)
(0.625686 0 0)
(0.625688 0 0)
(0.625691 0 0)
(0.625693 0 0)
(0.625695 0 0)
(0.625697 0 0)
(0.625699 0 0)
(0.625701 0 0)
(0.625703 0 0)
(0.625705 0 0)
(0.625707 0 0)
(0.625709 0 0)
(0.625712 0 0)
(0.625714 0 0)
(0.625716 0 0)
(0.625718 0 0)
(0.62572 0 0)
(0.625722 0 0)
(0.625724 0 0)
(0.625726 0 0)
(0.625728 0 0)
(0.62573 0 0)
(0.625732 0 0)
(0.625734 0 0)
(0.625736 0 0)
(0.625738 0 0)
(0.625741 0 0)
(0.625743 0 0)
(0.625745 0 0)
(0.625747 0 0)
(0.625749 0 0)
(0.625751 0 0)
(0.625753 0 0)
(0.625755 0 0)
(0.625757 0 0)
(0.625759 0 0)
(0.625761 0 0)
(0.625763 0 0)
(0.625765 0 0)
(0.625767 0 0)
(0.625769 0 0)
(0.625771 0 0)
(0.625773 0 0)
(0.625775 0 0)
(0.625777 0 0)
(0.625779 0 0)
(0.625781 0 0)
(0.625783 0 0)
(0.625785 0 0)
(0.625787 0 0)
(0.625789 0 0)
(0.625791 0 0)
(0.625793 0 0)
(0.625795 0 0)
(0.625797 0 0)
(0.625799 0 0)
(0.625801 0 0)
(0.625803 0 0)
(0.625805 0 0)
(0.625807 0 0)
(0.625809 0 0)
(0.625811 0 0)
(0.625813 0 0)
(0.625815 0 0)
(0.625817 0 0)
(0.625819 0 0)
(0.625821 0 0)
(0.625823 0 0)
(0.625825 0 0)
(0.625827 0 0)
(0.625829 0 0)
(0.625831 0 0)
(0.625833 0 0)
(0.625835 0 0)
(0.625836 0 0)
(0.625838 0 0)
(0.62584 0 0)
(0.625842 0 0)
(0.625844 0 0)
(0.625846 0 0)
(0.625848 0 0)
(0.62585 0 0)
(0.625852 0 0)
(0.625854 0 0)
(0.625856 0 0)
(0.625858 0 0)
(0.62586 0 0)
(0.625862 0 0)
(0.625864 0 0)
(0.625866 0 0)
(0.625868 0 0)
(0.62587 0 0)
(0.625872 0 0)
(0.625873 0 0)
(0.625875 0 0)
(0.625877 0 0)
(0.625879 0 0)
(0.625881 0 0)
(0.625883 0 0)
(0.625885 0 0)
(0.625887 0 0)
(0.625889 0 0)
(0.625891 0 0)
(0.625893 0 0)
(0.625895 0 0)
(0.625897 0 0)
(0.625899 0 0)
(0.625901 0 0)
(0.625902 0 0)
(0.625904 0 0)
(0.625906 0 0)
(0.625908 0 0)
(0.62591 0 0)
(0.625912 0 0)
(0.625914 0 0)
(0.625916 0 0)
(0.625918 0 0)
(0.62592 0 0)
(0.625922 0 0)
(0.625924 0 0)
(0.625926 0 0)
(0.625927 0 0)
(0.625929 0 0)
(0.625931 0 0)
(0.625933 0 0)
(0.625935 0 0)
(0.625937 0 0)
(0.625939 0 0)
(0.625941 0 0)
(0.625943 0 0)
(0.625945 0 0)
(0.625947 0 0)
(0.625949 0 0)
(0.62595 0 0)
(0.625952 0 0)
(0.625954 0 0)
(0.625956 0 0)
(0.625958 0 0)
(0.62596 0 0)
(0.625962 0 0)
(0.625964 0 0)
(0.625966 0 0)
(0.625968 0 0)
(0.62597 0 0)
(0.625971 0 0)
(0.625973 0 0)
(0.625975 0 0)
(0.625977 0 0)
(0.625979 0 0)
(0.625981 0 0)
(0.625983 0 0)
(0.625985 0 0)
(0.625987 0 0)
(0.625989 0 0)
(0.625991 0 0)
(0.625992 0 0)
(0.625994 0 0)
(0.625996 0 0)
(0.625998 0 0)
(0.626 0 0)
(0.626002 0 0)
(0.626004 0 0)
(0.626006 0 0)
(0.626008 0 0)
(0.62601 0 0)
(0.626012 0 0)
(0.626013 0 0)
(0.626015 0 0)
(0.626017 0 0)
(0.626019 0 0)
(0.626021 0 0)
(0.626023 0 0)
(0.626025 0 0)
(0.626027 0 0)
(0.626029 0 0)
(0.626031 0 0)
(0.626033 0 0)
(0.626034 0 0)
(0.626036 0 0)
(0.626038 0 0)
(0.62604 0 0)
(0.626042 0 0)
(0.626044 0 0)
(0.626046 0 0)
(0.626048 0 0)
(0.62605 0 0)
(0.626052 0 0)
(0.626054 0 0)
(0.626056 0 0)
(0.626057 0 0)
(0.626059 0 0)
(0.626061 0 0)
(0.626063 0 0)
(0.626065 0 0)
(0.626067 0 0)
(0.626069 0 0)
(0.626071 0 0)
(0.626073 0 0)
(0.626075 0 0)
(0.626077 0 0)
(0.626078 0 0)
(0.62608 0 0)
(0.626082 0 0)
(0.626084 0 0)
(0.626086 0 0)
(0.626088 0 0)
(0.62609 0 0)
(0.626092 0 0)
(0.626094 0 0)
(0.626096 0 0)
(0.626098 0 0)
(0.6261 0 0)
(0.626101 0 0)
(0.626103 0 0)
(0.626105 0 0)
(0.626107 0 0)
(0.626109 0 0)
(0.626111 0 0)
(0.626113 0 0)
(0.626115 0 0)
(0.626117 0 0)
(0.626119 0 0)
(0.626121 0 0)
(0.626123 0 0)
(0.626125 0 0)
(0.626126 0 0)
(0.626128 0 0)
(0.62613 0 0)
(0.626132 0 0)
(0.626134 0 0)
(0.626136 0 0)
(0.626138 0 0)
(0.62614 0 0)
(0.626142 0 0)
(0.626144 0 0)
(0.626146 0 0)
(0.626148 0 0)
(0.62615 0 0)
(0.626152 0 0)
(0.626153 0 0)
(0.626155 0 0)
(0.626157 0 0)
(0.626159 0 0)
(0.626161 0 0)
(0.626163 0 0)
(0.626165 0 0)
(0.626167 0 0)
(0.626169 0 0)
(0.626171 0 0)
(0.626173 0 0)
(0.626174 0 0)
(0.626176 0 0)
(0.626179 0 0)
(0.626184 0 0)
(0.626189 0 0)
(0.626185 0 0)
(0.626157 0 0)
(0.626137 0 0)
(0.626139 0 0)
(0.626141 0 0)
(0.626143 0 0)
(0.626145 0 0)
(0.626148 0 0)
(0.62615 0 0)
(0.626152 0 0)
(0.626154 0 0)
(0.626156 0 0)
(0.626158 0 0)
(0.62616 0 0)
(0.626162 0 0)
(0.626164 0 0)
(0.626167 0 0)
(0.626169 0 0)
(0.626171 0 0)
(0.626173 0 0)
(0.626175 0 0)
(0.626177 0 0)
(0.626179 0 0)
(0.626181 0 0)
(0.626183 0 0)
(0.626186 0 0)
(0.626188 0 0)
(0.62619 0 0)
(0.626192 0 0)
(0.626194 0 0)
(0.626196 0 0)
(0.626198 0 0)
(0.6262 0 0)
(0.626202 0 0)
(0.626204 0 0)
(0.626207 0 0)
(0.626209 0 0)
(0.626211 0 0)
(0.626213 0 0)
(0.626215 0 0)
(0.626217 0 0)
(0.626219 0 0)
(0.626221 0 0)
(0.626223 0 0)
(0.626225 0 0)
(0.626228 0 0)
(0.62623 0 0)
(0.626232 0 0)
(0.626234 0 0)
(0.626236 0 0)
(0.626238 0 0)
(0.62624 0 0)
(0.626242 0 0)
(0.626244 0 0)
(0.626246 0 0)
(0.626249 0 0)
(0.626251 0 0)
(0.626253 0 0)
(0.626255 0 0)
(0.626257 0 0)
(0.626259 0 0)
(0.626261 0 0)
(0.626263 0 0)
(0.626265 0 0)
(0.626267 0 0)
(0.62627 0 0)
(0.626272 0 0)
(0.626274 0 0)
(0.626276 0 0)
(0.626278 0 0)
(0.62628 0 0)
(0.626282 0 0)
(0.626284 0 0)
(0.626286 0 0)
(0.626288 0 0)
(0.626291 0 0)
(0.626293 0 0)
(0.626295 0 0)
(0.626297 0 0)
(0.626299 0 0)
(0.626301 0 0)
(0.626303 0 0)
(0.626305 0 0)
(0.626307 0 0)
(0.626309 0 0)
(0.626312 0 0)
(0.626314 0 0)
(0.626316 0 0)
(0.626318 0 0)
(0.62632 0 0)
(0.626322 0 0)
(0.626324 0 0)
(0.626326 0 0)
(0.626328 0 0)
(0.62633 0 0)
(0.626333 0 0)
(0.626335 0 0)
(0.626337 0 0)
(0.626339 0 0)
(0.626341 0 0)
(0.626343 0 0)
(0.626345 0 0)
(0.626347 0 0)
(0.626349 0 0)
(0.626352 0 0)
(0.626354 0 0)
(0.626356 0 0)
(0.626358 0 0)
(0.62636 0 0)
(0.626362 0 0)
(0.626364 0 0)
(0.626366 0 0)
(0.626368 0 0)
(0.62637 0 0)
(0.626373 0 0)
(0.626375 0 0)
(0.626377 0 0)
(0.626379 0 0)
(0.626381 0 0)
(0.626383 0 0)
(0.626385 0 0)
(0.626387 0 0)
(0.626389 0 0)
(0.626392 0 0)
(0.626394 0 0)
(0.626396 0 0)
(0.626398 0 0)
(0.6264 0 0)
(0.626402 0 0)
(0.626404 0 0)
(0.626406 0 0)
(0.626408 0 0)
(0.626411 0 0)
(0.626413 0 0)
(0.626415 0 0)
(0.626417 0 0)
(0.626419 0 0)
(0.626421 0 0)
(0.626423 0 0)
(0.626425 0 0)
(0.626427 0 0)
(0.62643 0 0)
(0.626432 0 0)
(0.626434 0 0)
(0.626436 0 0)
(0.626438 0 0)
(0.62644 0 0)
(0.626442 0 0)
(0.626444 0 0)
(0.626447 0 0)
(0.626449 0 0)
(0.626451 0 0)
(0.626453 0 0)
(0.626455 0 0)
(0.626457 0 0)
(0.626459 0 0)
(0.626461 0 0)
(0.626464 0 0)
(0.626466 0 0)
(0.626468 0 0)
(0.62647 0 0)
(0.626472 0 0)
(0.626474 0 0)
(0.626476 0 0)
(0.626478 0 0)
(0.626481 0 0)
(0.626483 0 0)
(0.626485 0 0)
(0.626487 0 0)
(0.626489 0 0)
(0.626491 0 0)
(0.626493 0 0)
(0.626495 0 0)
(0.626498 0 0)
(0.626501 0 0)
(0.626505 0 0)
(0.626503 0 0)
(0.626488 0 0)
(0.626469 0 0)
(0.626507 0 0)
(0.626697 0 0)
(0.626945 0 0)
(0.626753 0 0)
(0.626613 0 0)
(0.626628 0 0)
(0.626632 0 0)
(0.626634 0 0)
(0.626644 0 0)
(0.626662 0 0)
(0.626677 0 0)
(0.626681 0 0)
(0.626683 0 0)
(0.626691 0 0)
(0.626706 0 0)
(0.626719 0 0)
(0.626725 0 0)
(0.626736 0 0)
(0.626745 0 0)
(0.626755 0 0)
(0.626769 0 0)
(0.626775 0 0)
(0.626784 0 0)
(0.626791 0 0)
(0.626798 0 0)
(0.62681 0 0)
(0.626823 0 0)
(0.626835 0 0)
(0.626845 0 0)
(0.626852 0 0)
(0.626859 0 0)
(0.626872 0 0)
(0.626885 0 0)
(0.626896 0 0)
(0.626904 0 0)
(0.62691 0 0)
(0.62692 0 0)
(0.626929 0 0)
(0.626938 0 0)
(0.626953 0 0)
(0.626964 0 0)
(0.626969 0 0)
(0.626981 0 0)
(0.626999 0 0)
(0.627007 0 0)
(0.627014 0 0)
(0.627025 0 0)
(0.627034 0 0)
(0.627042 0 0)
(0.627055 0 0)
(0.627066 0 0)
(0.627074 0 0)
(0.627082 0 0)
(0.627097 0 0)
(0.627111 0 0)
(0.627123 0 0)
(0.627133 0 0)
(0.62714 0 0)
(0.627152 0 0)
(0.62716 0 0)
(0.627169 0 0)
(0.627185 0 0)
(0.627201 0 0)
(0.627214 0 0)
(0.627223 0 0)
(0.627229 0 0)
(0.627239 0 0)
(0.627248 0 0)
(0.627264 0 0)
(0.62728 0 0)
(0.627294 0 0)
(0.627305 0 0)
(0.627315 0 0)
(0.62733 0 0)
(0.627341 0 0)
(0.627351 0 0)
(0.627364 0 0)
(0.627375 0 0)
(0.627386 0 0)
(0.627406 0 0)
(0.627425 0 0)
(0.627442 0 0)
(0.627453 0 0)
(0.627458 0 0)
(0.627463 0 0)
(0.627469 0 0)
(0.627476 0 0)
(0.627497 0 0)
(0.62755 0 0)
(0.627622 0 0)
(0.627676 0 0)
(0.627647 0 0)
(0.627483 0 0)
(0.6272 0 0)
(0.626989 0 0)
(0.627211 0 0)
(0.628189 0 0)
(0.629826 0 0)
(0.631142 0 0)
(0.630281 0 0)
(0.625416 0 0)
(0.616704 0 0)
(0.608826 0 0)
(0.612598 0 0)
(0.626617 0 0)
(0.626619 0 0)
(0.626621 0 0)
(0.626623 0 0)
(0.626625 0 0)
(0.626628 0 0)
(0.62663 0 0)
(0.626632 0 0)
(0.626634 0 0)
(0.626636 0 0)
(0.626639 0 0)
(0.626641 0 0)
(0.626643 0 0)
(0.626645 0 0)
(0.626647 0 0)
(0.62665 0 0)
(0.626652 0 0)
(0.626654 0 0)
(0.626656 0 0)
(0.626658 0 0)
(0.626661 0 0)
(0.626663 0 0)
(0.626665 0 0)
(0.626667 0 0)
(0.626669 0 0)
(0.626672 0 0)
(0.626674 0 0)
(0.626676 0 0)
(0.626678 0 0)
(0.62668 0 0)
(0.626683 0 0)
(0.626685 0 0)
(0.626687 0 0)
(0.626689 0 0)
(0.626691 0 0)
(0.626694 0 0)
(0.626696 0 0)
(0.626698 0 0)
(0.6267 0 0)
(0.626702 0 0)
(0.626705 0 0)
(0.626707 0 0)
(0.626709 0 0)
(0.626711 0 0)
(0.626713 0 0)
(0.626716 0 0)
(0.626718 0 0)
(0.62672 0 0)
(0.626722 0 0)
(0.626725 0 0)
(0.626727 0 0)
(0.626729 0 0)
(0.626731 0 0)
(0.626733 0 0)
(0.626736 0 0)
(0.626738 0 0)
(0.62674 0 0)
(0.626742 0 0)
(0.626745 0 0)
(0.626747 0 0)
(0.626749 0 0)
(0.626751 0 0)
(0.626753 0 0)
(0.626756 0 0)
(0.626758 0 0)
(0.62676 0 0)
(0.626762 0 0)
(0.626765 0 0)
(0.626767 0 0)
(0.626769 0 0)
(0.626771 0 0)
(0.626774 0 0)
(0.626776 0 0)
(0.626778 0 0)
(0.62678 0 0)
(0.626783 0 0)
(0.626785 0 0)
(0.626787 0 0)
(0.626789 0 0)
(0.626791 0 0)
(0.626794 0 0)
(0.626797 0 0)
(0.626799 0 0)
(0.6268 0 0)
(0.626796 0 0)
(0.626793 0 0)
(0.626815 0 0)
(0.626889 0 0)
(0.626943 0 0)
(0.626945 0 0)
(0.626947 0 0)
(0.626949 0 0)
(0.626951 0 0)
(0.626953 0 0)
(0.626955 0 0)
(0.626957 0 0)
(0.62696 0 0)
(0.626962 0 0)
(0.626964 0 0)
(0.626966 0 0)
(0.626968 0 0)
(0.62697 0 0)
(0.626972 0 0)
(0.626974 0 0)
(0.626976 0 0)
(0.626978 0 0)
(0.626981 0 0)
(0.626983 0 0)
(0.626985 0 0)
(0.626987 0 0)
(0.626989 0 0)
(0.626991 0 0)
(0.626993 0 0)
(0.626995 0 0)
(0.626998 0 0)
(0.627 0 0)
(0.627002 0 0)
(0.627004 0 0)
(0.627006 0 0)
(0.627008 0 0)
(0.62701 0 0)
(0.627012 0 0)
(0.627015 0 0)
(0.627017 0 0)
(0.627019 0 0)
(0.627021 0 0)
(0.627023 0 0)
(0.627025 0 0)
(0.627028 0 0)
(0.62703 0 0)
(0.627032 0 0)
(0.627034 0 0)
(0.627036 0 0)
(0.627038 0 0)
(0.627041 0 0)
(0.627043 0 0)
(0.627045 0 0)
(0.627047 0 0)
(0.627049 0 0)
(0.627051 0 0)
(0.627054 0 0)
(0.627056 0 0)
(0.627058 0 0)
(0.62706 0 0)
(0.627062 0 0)
(0.627065 0 0)
(0.627067 0 0)
(0.627069 0 0)
(0.627071 0 0)
(0.627073 0 0)
(0.627076 0 0)
(0.627078 0 0)
(0.62708 0 0)
(0.627082 0 0)
(0.627085 0 0)
(0.627087 0 0)
(0.627089 0 0)
(0.627091 0 0)
(0.627093 0 0)
(0.627096 0 0)
(0.627098 0 0)
(0.6271 0 0)
(0.627102 0 0)
(0.627105 0 0)
(0.627107 0 0)
(0.627109 0 0)
(0.627111 0 0)
(0.627114 0 0)
(0.627116 0 0)
(0.627118 0 0)
(0.62712 0 0)
(0.627123 0 0)
(0.627125 0 0)
(0.627127 0 0)
(0.627129 0 0)
(0.627132 0 0)
(0.627134 0 0)
(0.627136 0 0)
(0.627139 0 0)
(0.627141 0 0)
(0.627143 0 0)
(0.627145 0 0)
(0.627148 0 0)
(0.62715 0 0)
(0.627152 0 0)
(0.627155 0 0)
(0.627157 0 0)
(0.627159 0 0)
(0.627161 0 0)
(0.627164 0 0)
(0.627166 0 0)
(0.627168 0 0)
(0.627171 0 0)
(0.627173 0 0)
(0.627175 0 0)
(0.627178 0 0)
(0.62718 0 0)
(0.627182 0 0)
(0.627185 0 0)
(0.627187 0 0)
(0.627189 0 0)
(0.627192 0 0)
(0.627194 0 0)
(0.627196 0 0)
(0.627199 0 0)
(0.627201 0 0)
(0.627203 0 0)
(0.627206 0 0)
(0.627208 0 0)
(0.62721 0 0)
(0.627213 0 0)
(0.627215 0 0)
(0.627217 0 0)
(0.62722 0 0)
(0.627222 0 0)
(0.627224 0 0)
(0.627227 0 0)
(0.627229 0 0)
(0.627232 0 0)
(0.627234 0 0)
(0.627236 0 0)
(0.627239 0 0)
(0.627241 0 0)
(0.627243 0 0)
(0.627246 0 0)
(0.627248 0 0)
(0.627251 0 0)
(0.627253 0 0)
(0.627255 0 0)
(0.627258 0 0)
(0.62726 0 0)
(0.627263 0 0)
(0.627265 0 0)
(0.627267 0 0)
(0.62727 0 0)
(0.627272 0 0)
(0.627275 0 0)
(0.627277 0 0)
(0.62728 0 0)
(0.627282 0 0)
(0.627284 0 0)
(0.627287 0 0)
(0.627289 0 0)
(0.627292 0 0)
(0.627294 0 0)
(0.627297 0 0)
(0.627299 0 0)
(0.627302 0 0)
(0.627304 0 0)
(0.627306 0 0)
(0.627309 0 0)
(0.627311 0 0)
(0.627314 0 0)
(0.627316 0 0)
(0.627319 0 0)
(0.627321 0 0)
(0.627324 0 0)
(0.627326 0 0)
(0.627329 0 0)
(0.627331 0 0)
(0.627334 0 0)
(0.627336 0 0)
(0.627339 0 0)
(0.627341 0 0)
(0.627344 0 0)
(0.627346 0 0)
(0.627349 0 0)
(0.627351 0 0)
(0.627354 0 0)
(0.627356 0 0)
(0.627359 0 0)
(0.627361 0 0)
(0.627364 0 0)
(0.627366 0 0)
(0.627369 0 0)
(0.627371 0 0)
(0.627374 0 0)
(0.627376 0 0)
(0.627379 0 0)
(0.627381 0 0)
(0.627384 0 0)
(0.627386 0 0)
(0.627389 0 0)
(0.627391 0 0)
(0.627394 0 0)
(0.627397 0 0)
(0.627399 0 0)
(0.627402 0 0)
(0.627404 0 0)
(0.627407 0 0)
(0.627409 0 0)
(0.627412 0 0)
(0.627415 0 0)
(0.627417 0 0)
(0.62742 0 0)
(0.627422 0 0)
(0.627425 0 0)
(0.627427 0 0)
(0.62743 0 0)
(0.627433 0 0)
(0.627435 0 0)
(0.627438 0 0)
(0.62744 0 0)
(0.627443 0 0)
(0.627446 0 0)
(0.627448 0 0)
(0.627451 0 0)
(0.627453 0 0)
(0.627456 0 0)
(0.627459 0 0)
(0.627461 0 0)
(0.627464 0 0)
(0.627467 0 0)
(0.627469 0 0)
(0.627472 0 0)
(0.627474 0 0)
(0.627477 0 0)
(0.62748 0 0)
(0.627482 0 0)
(0.627485 0 0)
(0.627488 0 0)
(0.62749 0 0)
(0.627493 0 0)
(0.627496 0 0)
(0.627498 0 0)
(0.627501 0 0)
(0.627504 0 0)
(0.627506 0 0)
(0.627509 0 0)
(0.627512 0 0)
(0.627514 0 0)
(0.627517 0 0)
(0.62752 0 0)
(0.627522 0 0)
(0.627525 0 0)
(0.627528 0 0)
(0.627531 0 0)
(0.627533 0 0)
(0.627536 0 0)
(0.627537 0 0)
(0.627539 0 0)
(0.627543 0 0)
(0.627555 0 0)
(0.627573 0 0)
(0.627574 0 0)
(0.627512 0 0)
(0.627372 0 0)
(0.627299 0 0)
(0.627691 0 0)
(0.6289 0 0)
(0.63016 0 0)
(0.628308 0 0)
(0.618953 0 0)
(0.604417 0 0)
(0.609068 0 0)
(0.677361 0 0)
(0.804705 0 0)
(0.879229 0 0)
(0.840618 0 0)
(0.795398 0 0)
(0.780374 0 0)
(0.776801 0 0)
(0.775888 0 0)
(0.775518 0 0)
(0.775248 0 0)
(0.774987 0 0)
(0.774717 0 0)
(0.774436 0 0)
(0.774142 0 0)
(0.773836 0 0)
(0.773517 0 0)
(0.773187 0 0)
(0.772844 0 0)
(0.772491 0 0)
(0.772127 0 0)
(0.771752 0 0)
(0.771368 0 0)
(0.770975 0 0)
(0.770574 0 0)
(0.770165 0 0)
(0.769749 0 0)
(0.769326 0 0)
(0.768898 0 0)
(0.768465 0 0)
(0.768028 0 0)
(0.767588 0 0)
(0.767145 0 0)
(0.766701 0 0)
(0.766236 0 0)
(0.765701 0 0)
(0.76517 0 0)
(0.764707 0 0)
(0.764259 0 0)
(0.763817 0 0)
(0.763378 0 0)
(0.762941 0 0)
(0.762508 0 0)
(0.762079 0 0)
(0.761654 0 0)
(0.761234 0 0)
(0.760818 0 0)
(0.760408 0 0)
(0.760004 0 0)
(0.759605 0 0)
(0.759212 0 0)
(0.758826 0 0)
(0.758446 0 0)
(0.758072 0 0)
(0.757705 0 0)
(0.757344 0 0)
(0.75699 0 0)
(0.756642 0 0)
(0.756301 0 0)
(0.755967 0 0)
(0.755638 0 0)
(0.755316 0 0)
(0.755001 0 0)
(0.754691 0 0)
(0.754387 0 0)
(0.754089 0 0)
(0.753797 0 0)
(0.75351 0 0)
(0.753229 0 0)
(0.752952 0 0)
(0.752681 0 0)
(0.752415 0 0)
(0.752153 0 0)
(0.751896 0 0)
(0.751644 0 0)
(0.751395 0 0)
(0.751151 0 0)
(0.75091 0 0)
(0.750674 0 0)
(0.750441 0 0)
(0.750211 0 0)
(0.749985 0 0)
(0.749763 0 0)
(0.749543 0 0)
(0.749326 0 0)
(0.749112 0 0)
(0.748901 0 0)
(0.748693 0 0)
(0.748487 0 0)
(0.748283 0 0)
(0.748082 0 0)
(0.747883 0 0)
(0.747686 0 0)
(0.747491 0 0)
(0.747299 0 0)
(0.747108 0 0)
(0.746919 0 0)
(0.746731 0 0)
(0.746546 0 0)
(0.746362 0 0)
(0.746179 0 0)
(0.745998 0 0)
(0.745818 0 0)
(0.74564 0 0)
(0.745463 0 0)
(0.745287 0 0)
(0.745113 0 0)
(0.744939 0 0)
(0.744767 0 0)
(0.744596 0 0)
(0.744425 0 0)
(0.744256 0 0)
(0.744088 0 0)
(0.74392 0 0)
(0.743753 0 0)
(0.743588 0 0)
(0.743422 0 0)
(0.743258 0 0)
(0.743095 0 0)
(0.742932 0 0)
(0.742769 0 0)
(0.742608 0 0)
(0.742447 0 0)
(0.742286 0 0)
(0.742127 0 0)
(0.741967 0 0)
(0.741809 0 0)
(0.741651 0 0)
(0.741493 0 0)
(0.741336 0 0)
(0.741179 0 0)
(0.741023 0 0)
(0.740867 0 0)
(0.740711 0 0)
(0.740556 0 0)
(0.740402 0 0)
(0.740248 0 0)
(0.740094 0 0)
(0.739941 0 0)
(0.739788 0 0)
(0.739635 0 0)
(0.739483 0 0)
(0.739331 0 0)
(0.739179 0 0)
(0.739028 0 0)
(0.738877 0 0)
(0.738727 0 0)
(0.738577 0 0)
(0.738427 0 0)
(0.738277 0 0)
(0.738128 0 0)
(0.73798 0 0)
(0.737831 0 0)
(0.737683 0 0)
(0.737535 0 0)
(0.737388 0 0)
(0.737241 0 0)
(0.737094 0 0)
(0.736948 0 0)
(0.736802 0 0)
(0.736656 0 0)
(0.736511 0 0)
(0.736366 0 0)
(0.736221 0 0)
(0.736076 0 0)
(0.735932 0 0)
(0.735788 0 0)
(0.735645 0 0)
(0.735502 0 0)
(0.735359 0 0)
(0.735216 0 0)
(0.735074 0 0)
(0.734932 0 0)
(0.73479 0 0)
(0.734648 0 0)
(0.734507 0 0)
(0.734366 0 0)
(0.734225 0 0)
(0.734084 0 0)
(0.733944 0 0)
(0.733803 0 0)
(0.733663 0 0)
(0.733523 0 0)
(0.733383 0 0)
(0.733243 0 0)
(0.733103 0 0)
(0.732963 0 0)
(0.732823 0 0)
(0.732684 0 0)
(0.732544 0 0)
(0.732404 0 0)
(0.732264 0 0)
(0.732124 0 0)
(0.731984 0 0)
(0.731843 0 0)
(0.731702 0 0)
(0.731561 0 0)
(0.73142 0 0)
(0.731279 0 0)
(0.731137 0 0)
(0.730994 0 0)
(0.730852 0 0)
(0.730708 0 0)
(0.730564 0 0)
(0.73042 0 0)
(0.730275 0 0)
(0.73013 0 0)
(0.729983 0 0)
(0.729836 0 0)
(0.729689 0 0)
(0.72954 0 0)
(0.729391 0 0)
(0.729241 0 0)
(0.729089 0 0)
(0.728937 0 0)
(0.728784 0 0)
(0.72863 0 0)
(0.728475 0 0)
(0.728319 0 0)
(0.728162 0 0)
(0.728004 0 0)
(0.727844 0 0)
(0.727684 0 0)
(0.727522 0 0)
(0.727359 0 0)
(0.727195 0 0)
(0.72703 0 0)
(0.726863 0 0)
(0.726696 0 0)
(0.726527 0 0)
(0.726358 0 0)
(0.726187 0 0)
(0.726015 0 0)
(0.725842 0 0)
(0.725668 0 0)
(0.725493 0 0)
(0.725317 0 0)
(0.72514 0 0)
(0.724962 0 0)
(0.724783 0 0)
(0.724604 0 0)
(0.724424 0 0)
(0.724244 0 0)
(0.724063 0 0)
(0.723882 0 0)
(0.7237 0 0)
(0.723518 0 0)
(0.723336 0 0)
(0.723154 0 0)
(0.722972 0 0)
(0.72279 0 0)
(0.722608 0 0)
(0.722427 0 0)
(0.722246 0 0)
(0.722066 0 0)
(0.721886 0 0)
(0.721707 0 0)
(0.721529 0 0)
(0.721352 0 0)
(0.721176 0 0)
(0.721002 0 0)
(0.720828 0 0)
(0.720657 0 0)
(0.720486 0 0)
(0.720317 0 0)
(0.72015 0 0)
(0.719985 0 0)
(0.719822 0 0)
(0.719661 0 0)
(0.719501 0 0)
(0.719344 0 0)
(0.719189 0 0)
(0.719036 0 0)
(0.718886 0 0)
(0.718738 0 0)
(0.718592 0 0)
(0.718449 0 0)
(0.718309 0 0)
(0.718171 0 0)
(0.718035 0 0)
(0.717902 0 0)
(0.717772 0 0)
(0.717644 0 0)
(0.717519 0 0)
(0.717397 0 0)
(0.717277 0 0)
(0.71716 0 0)
(0.717046 0 0)
(0.716934 0 0)
(0.716824 0 0)
(0.716718 0 0)
(0.716613 0 0)
(0.716512 0 0)
(0.716412 0 0)
(0.716315 0 0)
(0.716221 0 0)
(0.716129 0 0)
(0.716039 0 0)
(0.715952 0 0)
(0.715866 0 0)
(0.715783 0 0)
(0.715702 0 0)
(0.715623 0 0)
(0.715546 0 0)
(0.715471 0 0)
(0.715398 0 0)
(0.715327 0 0)
(0.715257 0 0)
(0.715189 0 0)
(0.715123 0 0)
(0.715059 0 0)
(0.714996 0 0)
(0.714935 0 0)
(0.714875 0 0)
(0.714816 0 0)
(0.714759 0 0)
(0.714704 0 0)
(0.714649 0 0)
(0.714596 0 0)
(0.714544 0 0)
(0.714493 0 0)
(0.714443 0 0)
(0.714394 0 0)
(0.714346 0 0)
(0.7143 0 0)
(0.714254 0 0)
(0.714209 0 0)
(0.714164 0 0)
(0.714121 0 0)
(0.714078 0 0)
(0.714036 0 0)
(0.713995 0 0)
(0.713954 0 0)
(0.713914 0 0)
(0.713875 0 0)
(0.713836 0 0)
(0.713798 0 0)
(0.71376 0 0)
(0.713723 0 0)
(0.713686 0 0)
(0.71365 0 0)
(0.713614 0 0)
(0.713578 0 0)
(0.713543 0 0)
(0.713509 0 0)
(0.713474 0 0)
(0.71344 0 0)
(0.713406 0 0)
(0.713373 0 0)
(0.713339 0 0)
(0.713306 0 0)
(0.713274 0 0)
(0.713241 0 0)
(0.713209 0 0)
(0.713177 0 0)
(0.713145 0 0)
(0.713113 0 0)
(0.713081 0 0)
(0.71305 0 0)
(0.713019 0 0)
(0.712988 0 0)
(0.712957 0 0)
(0.712926 0 0)
(0.712895 0 0)
(0.712864 0 0)
(0.712834 0 0)
(0.712803 0 0)
(0.712773 0 0)
(0.712742 0 0)
(0.712712 0 0)
(0.712682 0 0)
(0.712652 0 0)
(0.712622 0 0)
(0.712592 0 0)
(0.712562 0 0)
(0.712532 0 0)
(0.712502 0 0)
(0.712472 0 0)
(0.712442 0 0)
(0.712412 0 0)
(0.712383 0 0)
(0.712353 0 0)
(0.712323 0 0)
(0.712293 0 0)
(0.712264 0 0)
(0.712234 0 0)