/*--------------------------------*- C++ -*----------------------------------*\
| =========                 |                                                 |
| \\      /  F ield         | foam-extend: Open Source CFD                    |
|  \\    /   O peration     | Version:     3.1                                |
|   \\  /    A nd           | Web:         http://www.extend-project.de       |
|    \\/     M anipulation  |                                                 |
\*---------------------------------------------------------------------------*/
FoamFile
{
    version     2.0;
    format      ascii;
    class       volScalarField;
    location    "12";
    object      k;
}
// * * * * * * * * * * * * * * * * * * * * * * * * * * * * * * * * * * * * * //

dimensions      [0 2 -2 0 0 0 0];

internalField   nonuniform List<scalar> 
119952
(
0.05148907
0.04597682
0.0431775
0.04096761
0.03865296
0.03652413
0.03526892
0.03455731
0.03426883
0.03433247
0.03466603
0.03514
0.0356652
0.03610807
0.03635417
0.03651232
0.03668569
0.0369334
0.0373091
0.03798964
0.04091103
0.04076623
0.04169894
0.04494803
0.04438984
0.04436894
0.04411656
0.04388791
0.04312637
0.01902221
0.09271233
0.08811729
0.08552781
0.0845261
0.08465304
0.08549565
0.08673071
0.08809977
0.08943891
0.09078045
0.08794857
0.08953021
0.09304695
0.09715663
0.1011492
0.1047206
0.1077458
0.1102383
0.1122006
0.1246579
0.1253154
0.1254046
0.1252045
0.1248732
0.1245418
0.1242785
0.1240998
0.1239971
0.1240109
0.1243103
0.1242052
0.1239142
0.1235324
0.1230969
0.1226241
0.1221139
0.1215527
0.1210415
0.1226548
0.1216098
0.1203237
0.1198134
0.1193081
0.1183438
0.1171074
0.1158648
0.1147204
0.1136887
0.1127222
0.1117512
0.1107189
0.109586
0.1083673
0.1071183
0.105929
0.1048991
0.1041109
0.1037049
0.1040545
0.1051489
0.1066755
0.1093184
0.1133394
0.117494
0.1217614
0.1262951
0.131104
0.1331866
0.135958
0.1396412
0.1434476
0.1468691
0.1495063
0.151006
0.1511152
0.1497837
0.1472265
0.143878
0.1402894
0.1370262
0.1346046
0.1334919
0.1340974
0.1367277
0.1415239
0.1483985
0.1570053
0.1667784
0.1769916
0.1867929
0.1952818
0.2015672
0.2052801
0.2064696
0.2051006
0.2007248
0.1912506
0.1717281
0.154294
0.1496805
0.1342308
0.1181238
0.1185462
0.1214287
0.1179549
0.11235
0.1072779
0.1019206
0.0956342
0.08907091
0.08302536
0.07789355
0.07368646
0.07028241
0.06755736
0.06540707
0.06374932
0.0625151
0.06146156
0.06058356
0.05986714
0.05931001
0.05889511
0.05860486
0.05842088
0.05832389
0.05829653
0.05832265
0.05838838
0.05847994
0.05858543
0.05869368
0.05879412
0.05887628
0.05892943
0.05894195
0.05890452
0.05881915
0.058677
0.05846531
0.05817237
0.05778662
0.05729222
0.05666284
0.05589407
0.05499636
0.05397841
0.05287421
0.05174835
0.05063887
0.04958542
0.04861315
0.04773407
0.04694809
0.04623699
0.04558536
0.044976
0.04439278
0.04382204
0.043253
0.04267672
0.04208702
0.04147927
0.04085303
0.04020836
0.03954854
0.03889751
0.03786865
0.03583279
0.03422669
0.03299156
0.03199856
0.03117533
0.03048075
0.02989484
0.02940603
0.02900586
0.02868927
0.02845348
0.02829485
0.02820723
0.02818494
0.02821851
0.02829736
0.02841399
0.02856327
0.02874358
0.02894942
0.02917336
0.02941067
0.02965708
0.02990869
0.03016209
0.03041441
0.03066341
0.03090733
0.0311451
0.03137634
0.03160156
0.03182259
0.03204331
0.03227154
0.03248224
0.03302136
0.03361343
0.03414823
0.03463231
0.03505731
0.03542784
0.03574807
0.03602206
0.03625365
0.03644594
0.03660152
0.03672242
0.03680984
0.03686443
0.03688673
0.03687725
0.03683647
0.03676493
0.0366641
0.03653737
0.03639204
0.03624749
0.03611658
0.03600412
0.03592779
0.03591554
0.03600334
0.03621124
0.03641742
0.03644945
0.03632365
0.03602369
0.03529145
0.0346152
0.03767278
0.04080638
0.0427097
0.04311429
0.0423151
0.0405918
0.03820419
0.03551136
0.03285673
0.03050652
0.0285366
0.02686373
0.02540075
0.02410906
0.02295493
0.02188339
0.02090631
0.02007866
0.01946554
0.0191245
0.01909265
0.01936855
0.01990391
0.02064242
0.02153631
0.02256326
0.02370308
0.02494276
0.02628019
0.02769834
0.02917494
0.03069158
0.03223357
0.03378865
0.0353501
0.03691479
0.03848097
0.04004771
0.04161436
0.04318011
0.04474383
0.04630434
0.04785965
0.049407
0.05094294
0.05245755
0.05395012
0.05538398
0.05673038
0.05797501
0.05910527
0.06011003
0.06097948
0.06172813
0.06224329
0.0625649
0.06284129
0.06308935
0.06329496
0.06343641
0.0634963
0.06346466
0.06333741
0.06311467
0.06279931
0.06239556
0.06190805
0.06134157
0.06070141
0.05999369
0.05922472
0.0583998
0.05752188
0.05659118
0.05560703
0.05457061
0.05348606
0.05236
0.0512005
0.0500162
0.04881576
0.04760736
0.04639854
0.04519637
0.04400761
0.04283875
0.04169578
0.04058393
0.03950757
0.0384701
0.03747396
0.03652085
0.03561182
0.03474751
0.03392806
0.03315316
0.03242202
0.03173343
0.03108581
0.03047742
0.02990636
0.02937067
0.02886832
0.02839725
0.02795543
0.02754083
0.02715152
0.02678564
0.02644142
0.0261172
0.0258114
0.02552255
0.02524927
0.0249903
0.02474445
0.02451065
0.02428792
0.02407536
0.02387215
0.02367757
0.02349093
0.02331163
0.02313912
0.0229729
0.02281252
0.02265758
0.02250768
0.02236251
0.02222167
0.02208494
0.02195198
0.02182244
0.02169533
0.02156969
0.02144169
0.02130061
0.02112236
0.02092445
0.02117262
0.07846192
0.0821318
0.09391109
0.1037477
0.1110916
0.1167532
0.1213389
0.1251723
0.1286171
0.1347846
0.1505224
0.1651677
0.1771863
0.186582
0.1936993
0.1990344
0.2030164
0.206007
0.2338257
0.2338006
0.2336421
0.2331561
0.2325957
0.2321103
0.2317065
0.231342
0.2309793
0.2304872
0.230084
0.2293966
0.2283075
0.2270501
0.2257661
0.2245108
0.2233145
0.2221714
0.2210589
0.2201187
0.219103
0.2178358
0.2164963
0.2151832
0.2139134
0.2126966
0.2115271
0.2103861
0.2092794
0.2082161
0.2070635
0.2058827
0.2046425
0.2032954
0.2018258
0.2002251
0.1984997
0.1967251
0.2069257
0.2047845
0.2027388
0.2007646
0.1988522
0.1970021
0.1952063
0.1934612
0.1917454
0.1900339
0.188358
0.1867167
0.1851045
0.1835116
0.1819506
0.1804207
0.1789656
0.1776428
0.1765798
0.1753914
0.173733
0.172128
0.1705616
0.1688363
0.1668541
0.1646911
0.1624546
0.1602034
0.1579743
0.1557893
0.1536569
0.1515763
0.1495487
0.1475866
0.1457235
0.144014
0.1425365
0.1413972
0.1407092
0.1406447
0.1413603
0.1430277
0.1458735
0.1497392
0.1543883
0.1597778
0.1657303
0.1717005
0.177403
0.1832034
0.1891412
0.1949627
0.2003848
0.2050474
0.2085485
0.2104971
0.2106403
0.2089879
0.2058715
0.2019274
0.1979654
0.1948373
0.1933306
0.1940837
0.1975159
0.2037575
0.2125909
0.2235631
0.2360187
0.249104
0.2618615
0.2733855
0.283054
0.2908091
0.2967127
0.300202
0.2998987
0.2925163
0.2758361
0.2568693
0.2465789
0.2430463
0.2411586
0.2414008
0.2411894
0.2372141
0.2283505
0.2152645
0.199913
0.1830622
0.1661293
0.1506532
0.1374052
0.1264896
0.1176589
0.110548
0.1048878
0.100404
0.09685669
0.09407959
0.09192725
0.09027883
0.08903288
0.08810959
0.08744816
0.08700043
0.08672638
0.08659252
0.08657046
0.08663567
0.0867665
0.08694375
0.08715017
0.08736998
0.08758825
0.08779011
0.0879605
0.08808692
0.08815961
0.08816864
0.08810332
0.08795263
0.08770582
0.08735318
0.08688688
0.0863011
0.08559137
0.08475335
0.08378221
0.08267705
0.0814387
0.08007925
0.07864488
0.07719078
0.07575122
0.07434073
0.07297273
0.07165849
0.07040579
0.06922179
0.0681066
0.0670605
0.06607195
0.06513688
0.06423246
0.06336323
0.06249762
0.06168613
0.06008941
0.05803413
0.05645635
0.05517718
0.05410571
0.05318525
0.05238269
0.05168111
0.05107262
0.05055407
0.05012632
0.04979453
0.04955801
0.04940617
0.04933217
0.04932982
0.04939406
0.04951966
0.04970109
0.0499326
0.05020826
0.05052176
0.05086648
0.05123546
0.05162163
0.05201801
0.05241787
0.0528149
0.05320336
0.05357816
0.0539349
0.05426963
0.05457822
0.05485438
0.05508716
0.05527059
0.05544287
0.05561876
0.05577744
0.05591153
0.05601629
0.05608877
0.05612734
0.05613105
0.05609923
0.05603099
0.05592496
0.05577912
0.05559094
0.05535766
0.05507656
0.05474518
0.0543613
0.05392292
0.05342852
0.05287782
0.05227268
0.05161769
0.05092215
0.05019546
0.04944223
0.04865947
0.04783758
0.04697606
0.04607775
0.0451311
0.04411996
0.04300592
0.04168383
0.04012352
0.0404722
0.039791
0.03952227
0.03966919
0.04021518
0.04109827
0.04217773
0.04333262
0.04439635
0.04516268
0.04542642
0.04507043
0.04410757
0.0426441
0.04083056
0.0389221
0.03713542
0.03559513
0.03439142
0.03358168
0.03321875
0.03333181
0.03391744
0.03494307
0.0363556
0.03809033
0.04007884
0.04225497
0.04455696
0.04692716
0.04931452
0.05167708
0.05398322
0.05621255
0.05835661
0.06041842
0.06240992
0.06434828
0.06625142
0.06813455
0.07000929
0.0718837
0.07376186
0.07564356
0.0775235
0.07939078
0.08123852
0.08304138
0.08475821
0.08635881
0.08781705
0.08911003
0.09022021
0.09113732
0.09184408
0.09233327
0.09261616
0.09271384
0.09264766
0.0924387
0.09210572
0.09166177
0.09111537
0.09047255
0.08973823
0.08891669
0.08801152
0.08702573
0.08596242
0.0848251
0.08361758
0.08234447
0.08101006
0.079616
0.07816362
0.07665655
0.07510107
0.07350514
0.07187747
0.07022692
0.06856213
0.06689118
0.06522149
0.06356006
0.06191377
0.06028934
0.05869314
0.05713101
0.05560812
0.05412882
0.05269657
0.0513141
0.04998356
0.04870656
0.04748421
0.04631703
0.04520494
0.04414733
0.04314313
0.04219092
0.04128901
0.04043552
0.03962835
0.03886531
0.03814409
0.03746234
0.03681776
0.03620804
0.03563095
0.03508429
0.03456597
0.03407398
0.03360641
0.03316145
0.03273738
0.03233263
0.03194569
0.0315752
0.03121988
0.03087852
0.03055005
0.03023345
0.02992779
0.02963218
0.02934586
0.029068
0.02879801
0.02853502
0.02827862
0.02802773
0.02778211
0.02753999
0.02730106
0.02706151
0.02682052
0.02657376
0.02633957
0.02615637
0.02602857
0.04736427
0.05111172
0.05546035
0.06023977
0.06549364
0.07130123
0.07775353
0.08499312
0.09318355
0.1019343
0.1461267
0.1609897
0.1761073
0.1914849
0.2071322
0.223591
0.2410448
0.260582
0.2883529
0.3380828
0.3494703
0.3602373
0.3699417
0.3790459
0.3876192
0.3955495
0.4028435
0.410017
0.4186713
0.4266966
0.4320709
0.4354962
0.4376579
0.4388744
0.4392887
0.4389696
0.438024
0.4368122
0.4324274
0.4291391
0.426275
0.4234997
0.4206061
0.4174813
0.41407
0.4103642
0.4064127
0.4023087
0.3978907
0.3933174
0.3886115
0.3838701
0.3791606
0.3745126
0.3699181
0.3653102
0.3766927
0.3722483
0.3676568
0.3630224
0.3583826
0.3537441
0.34913
0.3445648
0.3400891
0.3357149
0.3314202
0.3272421
0.3232008
0.3192708
0.3154442
0.3117122
0.3080662
0.3045056
0.3010368
0.2976314
0.2943008
0.2911171
0.2880893
0.2852096
0.2824706
0.2798548
0.2773457
0.2749237
0.2725637
0.2702787
0.2680701
0.2659153
0.2637874
0.2616628
0.2594863
0.2572254
0.254798
0.252163
0.2493988
0.2465667
0.2436811
0.2407925
0.2379559
0.2352262
0.2326176
0.2301266
0.2277349
0.225426
0.2231847
0.2209874
0.2188119
0.2166594
0.2145478
0.2124801
0.210487
0.2085646
0.2067394
0.2048586
0.2028403
0.2007583
0.1986501
0.1964555
0.1941069
0.1915983
0.1889659
0.18625
0.1834867
0.1807066
0.1779357
0.1751974
0.1725171
0.1699269
0.1674709
0.1652081
0.1632189
0.1616081
0.1604985
0.1600185
0.1602931
0.1615742
0.1639986
0.1676053
0.1723102
0.1779558
0.1843565
0.1912597
0.1983526
0.2056427
0.2131019
0.2205273
0.2276364
0.2340815
0.2394344
0.243217
0.2450531
0.2448441
0.2428668
0.239762
0.2364095
0.2337898
0.2328519
0.2343917
0.2389552
0.2467498
0.2575923
0.270992
0.2862067
0.3022416
0.3179043
0.3320036
0.3436536
0.3525255
0.3588424
0.3620509
0.3609548
0.3531951
0.3372241
0.3157234
0.295025
0.2806254
0.2742111
0.2750823
0.2814898
0.289155
0.2940016
0.2919326
0.2791157
0.2584153
0.2346594
0.2109079
0.1892279
0.17062
0.1552567
0.1428543
0.1329289
0.1249753
0.1186435
0.1136659
0.1097867
0.1067892
0.1044899
0.1027536
0.1014682
0.100547
0.09992011
0.09953073
0.09933231
0.09928586
0.09935825
0.09952093
0.09974902
0.1000204
0.100315
0.1006135
0.1008976
0.1011516
0.1013623
0.1015172
0.101604
0.1016102
0.1015236
0.1013329
0.1010287
0.1006041
0.1000537
0.09937292
0.09855781
0.09760683
0.09652121
0.09530435
0.09396259
0.09249776
0.09093513
0.08932913
0.08770259
0.08607395
0.08446195
0.08288326
0.08135532
0.07988927
0.07849757
0.07717924
0.07594367
0.07477276
0.07368758
0.07264153
0.0717192
0.07078314
0.06985919
0.0689622
0.06809651
0.06726404
0.06646843
0.06571515
0.06501074
0.06436194
0.06377526
0.06325662
0.06282085
0.06247334
0.06221285
0.06203754
0.06194492
0.06193174
0.06199394
0.06212662
0.06232401
0.06257947
0.06288556
0.06323405
0.06361618
0.06402279
0.06444465
0.06487265
0.06529807
0.06571273
0.0661089
0.06647916
0.06681587
0.067112
0.06736306
0.06757382
0.06775655
0.06791413
0.06804322
0.06814159
0.06820717
0.06823889
0.06823667
0.06820101
0.06813253
0.06803136
0.06789684
0.06772738
0.06752078
0.06727463
0.06698666
0.0666549
0.06627747
0.06585241
0.06537756
0.0648515
0.06427461
0.06365117
0.06298758
0.06229028
0.06155908
0.06078795
0.05996059
0.05906594
0.05809459
0.05702878
0.05583055
0.05446153
0.05290342
0.05124316
0.04960661
0.0480989
0.04673362
0.04553426
0.04455807
0.04388909
0.04362298
0.04383359
0.04452944
0.04558301
0.04682143
0.0481001
0.04920051
0.04985006
0.04983644
0.04912825
0.0478693
0.04631303
0.04478354
0.04350462
0.04263955
0.04229109
0.04250636
0.04328399
0.04458267
0.04633207
0.04844542
0.05083085
0.05339945
0.05606972
0.05877067
0.06144435
0.06404707
0.06654964
0.06893581
0.07120389
0.07336708
0.07544947
0.07748151
0.07949153
0.08150138
0.08352669
0.0855765
0.08765223
0.08974682
0.0918447
0.09392458
0.09596616
0.09792996
0.0997786
0.1014764
0.1029899
0.1042907
0.1053564
0.1061691
0.1067222
0.1070248
0.1070983
0.1069645
0.106645
0.106173
0.1055699
0.1048497
0.1040229
0.1030987
0.1020846
0.1009868
0.09980965
0.09855622
0.09722901
0.09582864
0.09435423
0.09281367
0.09121159
0.08955208
0.0878408
0.08608558
0.08429514
0.08247807
0.08064247
0.07879588
0.07694514
0.0750963
0.07325531
0.07142841
0.06962176
0.06784135
0.06609281
0.06438137
0.06271165
0.06108757
0.05951236
0.05798879
0.05651918
0.05510537
0.05374863
0.05244955
0.0512081
0.05002373
0.04889548
0.04782208
0.04680195
0.04583327
0.04491399
0.04404193
0.04321478
0.04243023
0.04168594
0.04097959
0.04030889
0.03967161
0.03906557
0.03848868
0.03793893
0.03741443
0.03691339
0.0364341
0.035975
0.03553458
0.03511147
0.03470438
0.03431213
0.03393356
0.03356768
0.03321347
0.03287008
0.03253653
0.03221213
0.03189578
0.03158698
0.0312842
0.03098717
0.03069344
0.03040355
0.03011438
0.02983081
0.02955271
0.02929682
0.02907483
0.03316469
0.03741816
0.0412074
0.062839
0.08523976
0.1131596
0.1324843
0.1520905
0.1709811
0.1887127
0.2041262
0.2175984
0.2308572
0.244558
0.2583739
0.2723794
0.2866764
0.3012871
0.3161966
0.3312921
0.3464586
0.3613223
0.3757262
0.3898392
0.4037077
0.4174113
0.4309203
0.4441466
0.4569979
0.4694918
0.4830097
0.5190829
0.5271402
0.5348632
0.5415008
0.5472827
0.5523058
0.5560637
0.5587139
0.5610272
0.5628838
0.5635879
0.5630896
0.5616191
0.559299
0.5562447
0.5525554
0.5483204
0.5436273
0.5385437
0.5331097
0.5274451
0.5215699
0.5155496
0.5094313
0.5031806
0.4968251
0.4904353
0.4840652
0.4777362
0.4714349
0.4651493
0.4588415
0.4524816
0.4460887
0.439683
0.4333576
0.4270912
0.420375
0.4139415
0.4077712
0.4017959
0.395966
0.3902556
0.3846582
0.3791795
0.3738325
0.3686333
0.3635931
0.3587266
0.3540361
0.3495138
0.345152
0.340934
0.3368336
0.3328236
0.3288861
0.3250212
0.3212512
0.3176191
0.3141645
0.3109137
0.3078722
0.3050242
0.30234
0.2997884
0.2973484
0.2950187
0.2928046
0.2907051
0.288712
0.2867895
0.2848723
0.2828628
0.2806866
0.2782836
0.2756795
0.2728658
0.2698983
0.2668574
0.2638218
0.2608418
0.2579585
0.2551875
0.2525178
0.2499247
0.247383
0.2448739
0.2423908
0.2399357
0.2375211
0.2351561
0.232854
0.2306149
0.2284431
0.2263037
0.2241388
0.2219382
0.2197216
0.217469
0.2151215
0.2126278
0.2099681
0.2071538
0.2042058
0.2011489
0.1980126
0.1948312
0.1916455
0.1885037
0.1854641
0.1825991
0.1799986
0.177775
0.1760645
0.1750243
0.174805
0.1755874
0.1775953
0.1809147
0.1855298
0.1913446
0.1982205
0.2059586
0.2143273
0.2231517
0.2322503
0.2413724
0.2502252
0.2584684
0.2656452
0.2712275
0.2747832
0.2761869
0.2757614
0.2742272
0.272563
0.2718405
0.2731007
0.2772294
0.2848499
0.2962242
0.3112001
0.3292173
0.3494659
0.3707948
0.3914915
0.4097058
0.4238571
0.4327429
0.4369484
0.4362053
0.4300597
0.4174506
0.3981776
0.3743142
0.3483295
0.322403
0.3007904
0.2871695
0.2836524
0.2882024
0.2941692
0.2982565
0.2976718
0.2905782
0.2763857
0.2568144
0.2345797
0.2123407
0.1919874
0.1745204
0.1599929
0.1481173
0.1385275
0.1308886
0.1248779
0.1201921
0.1165684
0.1137972
0.1117127
0.110179
0.1090894
0.1083582
0.1079157
0.1077048
0.1076777
0.1077942
0.10802
0.1083254
0.108684
0.1090718
0.109467
0.1098503
0.110205
0.1105158
0.1107681
0.1109476
0.1110404
0.1110335
0.1109162
0.1106801
0.1103187
0.1098266
0.1091989
0.1084325
0.1075263
0.1064807
0.1052976
0.1039815
0.1025383
0.100972
0.09932527
0.09762121
0.09587934
0.09411915
0.09236229
0.09062764
0.08893547
0.08729793
0.08573235
0.08423928
0.08283497
0.08149995
0.08025803
0.07909941
0.07800643
0.07696767
0.07597794
0.07503522
0.0741388
0.07328901
0.07248739
0.07173653
0.07103948
0.07039909
0.0698191
0.06931718
0.06889785
0.06856402
0.06831731
0.06815798
0.06808483
0.0680952
0.06818492
0.06834838
0.06857853
0.06886701
0.06920431
0.06958004
0.06998338
0.0704033
0.07082898
0.07125017
0.07165739
0.07204191
0.07239588
0.07271303
0.07299014
0.07322847
0.0734342
0.07361079
0.07375726
0.07387175
0.07395293
0.07400057
0.07401565
0.07399996
0.07395548
0.07388363
0.07378461
0.07365725
0.07349946
0.07330892
0.07308369
0.07282228
0.07252347
0.07218573
0.07180693
0.07138464
0.07091795
0.07040959
0.0698663
0.06929461
0.06869477
0.06805741
0.0673643
0.0665893
0.06571967
0.0647344
0.06360479
0.06230539
0.06083111
0.05923259
0.05759356
0.05593305
0.05425494
0.05258482
0.05096891
0.04946956
0.04816271
0.04713291
0.04646823
0.04625826
0.0465948
0.04753323
0.04897374
0.05061553
0.05218395
0.05333577
0.05381812
0.05361238
0.05289947
0.05194134
0.05106133
0.05050051
0.05041849
0.05089921
0.05195571
0.05354492
0.05558514
0.05797446
0.06060726
0.0633874
0.06622817
0.06905703
0.07181883
0.07447696
0.07700922
0.07940714
0.08167737
0.0838374
0.08592216
0.08797658
0.09003611
0.0921267
0.09426524
0.09645771
0.09869804
0.1009686
0.1032414
0.1054893
0.1076707
0.1097393
0.1116523
0.1133656
0.1148388
0.1160378
0.1169375
0.1175276
0.1178176
0.117833
0.1176138
0.1171832
0.1165746
0.1158129
0.1149183
0.1139077
0.1127956
0.1115943
0.110314
0.1089613
0.1075401
0.1060532
0.1045032
0.1028876
0.1012104
0.09947114
0.09767743
0.09583882
0.09396536
0.09206632
0.09014958
0.08822176
0.08628855
0.0843548
0.08242381
0.08049883
0.07858551
0.07668924
0.0748152
0.07296835
0.07115353
0.06937522
0.06763736
0.06594363
0.06429752
0.06270209
0.06115995
0.05967315
0.05824301
0.05687017
0.05555472
0.05429631
0.05309422
0.05194741
0.05085446
0.04981368
0.04882314
0.04788075
0.04698438
0.0461318
0.04532077
0.04454906
0.04381441
0.04311463
0.04244758
0.04181118
0.04120343
0.04062244
0.04006641
0.03953364
0.03902252
0.03853154
0.03805927
0.03760439
0.03716567
0.03674195
0.03633212
0.03593519
0.03555012
0.035176
0.03481182
0.03445672
0.03410955
0.03376952
0.03343544
0.03310694
0.0327834
0.0324659
0.03215575
0.03185873
0.03159788
0.01553432
0.01735676
0.01912581
0.02547149
0.03405852
0.04859479
0.05910822
0.07046935
0.08290473
0.09575479
0.1092582
0.1243287
0.1406993
0.1577595
0.1758698
0.1965588
0.228383
0.2437768
0.2595954
0.2756256
0.291853
0.3077015
0.3229164
0.3376599
0.3521451
0.366497
0.3807677
0.3951693
0.4097803
0.4243589
0.4387264
0.453043
0.4672597
0.481353
0.4952722
0.5088511
0.5219385
0.5344373
0.5462624
0.5573032
0.5673274
0.5751734
0.5796847
0.5849412
0.5895408
0.5930967
0.5954592
0.5967497
0.59665
0.5952129
0.5929532
0.5899956
0.586112
0.5813529
0.5758636
0.569794
0.5632795
0.5564442
0.5494009
0.5422489
0.5350561
0.5278708
0.5207484
0.5137069
0.5067627
0.4999305
0.4932199
0.4866512
0.4802469
0.4740284
0.4679981
0.4621394
0.4563985
0.4506473
0.4447856
0.4388353
0.4328328
0.4268569
0.4209617
0.4151546
0.4095492
0.4041953
0.3990437
0.3940304
0.3891095
0.3842563
0.3794665
0.3747535
0.3701475
0.3656814
0.3613775
0.3572507
0.3533102
0.3495527
0.3459516
0.3424567
0.3390107
0.3355748
0.3321464
0.3287576
0.325471
0.3223584
0.3194789
0.3168517
0.3144539
0.3122399
0.3101614
0.3081861
0.3063073
0.304541
0.3029115
0.3014335
0.3000845
0.2987806
0.2973836
0.2957688
0.2938548
0.2916218
0.289091
0.2862677
0.2832366
0.2801228
0.2770415
0.2740706
0.2712386
0.2685316
0.2659114
0.2633367
0.2607774
0.2582216
0.255673
0.2531467
0.250659
0.2482249
0.2458516
0.2435455
0.2413027
0.2391031
0.2369353
0.2347985
0.2326696
0.2304881
0.228183
0.2256972
0.2230095
0.2201166
0.2170291
0.2137707
0.2103779
0.2068983
0.2033901
0.1999206
0.1965756
0.1934592
0.1906974
0.1884404
0.1868626
0.1861522
0.1864954
0.1881345
0.1912291
0.1958383
0.2019357
0.2094322
0.2181756
0.2279381
0.2384362
0.2493483
0.2603276
0.2710447
0.2811508
0.290173
0.2975672
0.3029342
0.3062414
0.3079574
0.3089586
0.3103364
0.3132561
0.3188409
0.3280378
0.3415014
0.3595361
0.3819953
0.408231
0.4374658
0.4683086
0.4983381
0.5245619
0.5438074
0.5525299
0.5511816
0.541436
0.5242296
0.5001822
0.4711369
0.440422
0.4085231
0.3747068
0.3426062
0.3163812
0.2983185
0.2894646
0.2882502
0.2901973
0.2911462
0.288533
0.281437
0.2697727
0.2542792
0.2363488
0.2175999
0.1993702
0.1826909
0.1680806
0.1557737
0.1456903
0.1375836
0.1311511
0.1261064
0.1221922
0.1191989
0.1169524
0.1153118
0.1141626
0.1134113
0.112981
0.1128078
0.1128385
0.1130284
0.1133391
0.1137375
0.1141944
0.114684
0.1151833
0.1156722
0.1161326
0.1165474
0.1169004
0.1171759
0.1173597
0.1174405
0.117409
0.1172574
0.1169783
0.1165648
0.1160127
0.1153191
0.1144825
0.1135024
0.112379
0.1111144
0.1097126
0.1081795
0.1065457
0.1048287
0.1030471
0.1012212
0.09937166
0.09752028
0.09568607
0.09388919
0.09214373
0.09046542
0.08886012
0.08733728
0.08590179
0.08455062
0.08327775
0.08207819
0.08094788
0.07988305
0.07888034
0.07793749
0.07705362
0.0762291
0.07546494
0.0747617
0.07412638
0.07357138
0.0731016
0.07272129
0.07243343
0.07223943
0.07213892
0.07212966
0.0722074
0.07236598
0.07259729
0.07289151
0.07323748
0.07362317
0.07403609
0.07446377
0.07489441
0.07531744
0.07572362
0.07610512
0.07645604
0.07677312
0.0770559
0.07730659
0.0775273
0.07771775
0.07787638
0.07800197
0.07809466
0.07815623
0.07818969
0.07819823
0.07818507
0.07815161
0.07809706
0.07801925
0.07791578
0.07778497
0.07762604
0.07743871
0.07722221
0.07697462
0.07669293
0.07637499
0.07602261
0.07564284
0.07524273
0.07482076
0.07436297
0.07384521
0.07323915
0.07252265
0.07168089
0.07069116
0.06953203
0.06819694
0.06671668
0.06514005
0.06348024
0.06173781
0.05993065
0.0580891
0.05624936
0.0544569
0.05277526
0.05128951
0.05010291
0.04933233
0.04909579
0.04948841
0.05055751
0.05221276
0.05410033
0.05588116
0.05720524
0.05788422
0.05798577
0.05774707
0.05743914
0.05733682
0.05764135
0.05845605
0.05980422
0.06164106
0.0638802
0.0664179
0.06916039
0.07201255
0.07488949
0.07772285
0.08046308
0.0830795
0.08555842
0.0878985
0.09010593
0.09220883
0.09426332
0.09632061
0.09841849
0.100583
0.1028261
0.1051444
0.107518
0.1099165
0.1123073
0.1146485
0.1168875
0.1189693
0.1208367
0.1224374
0.1237268
0.1246698
0.1252501
0.1254832
0.1253984
0.1250513
0.124482
0.1237149
0.122776
0.121691
0.1204835
0.1191743
0.117781
0.116318
0.114796
0.113221
0.111596
0.1099237
0.1082098
0.1064552
0.1046507
0.102801
0.1009175
0.09901133
0.09709126
0.09516353
0.09323252
0.0913015
0.08937351
0.08745061
0.0855335
0.083625
0.08172881
0.07984876
0.07798887
0.07615336
0.07434634
0.07257083
0.07083048
0.06912988
0.06747304
0.06586335
0.06430355
0.06279564
0.06134106
0.05994073
0.05859514
0.05730433
0.05606793
0.05488513
0.05375475
0.05267529
0.05164507
0.05066228
0.049725
0.04883124
0.04797892
0.04716594
0.04639022
0.04564968
0.04494227
0.04426601
0.04361902
0.04299948
0.04240563
0.04183583
0.04128849
0.04076213
0.04025536
0.03976684
0.03929537
0.03883977
0.03839895
0.03797184
0.03755746
0.03715478
0.03676287
0.03638074
0.03600755
0.03564247
0.03528496
0.03493475
0.03459193
0.03425766
0.03393539
0.03365312
0.006247019
0.00735252
0.008188041
0.01221022
0.01687785
0.023015
0.02815975
0.03406299
0.04053062
0.04753666
0.05535109
0.06466669
0.07506822
0.08687784
0.1012239
0.1234653
0.1356805
0.148744
0.1622287
0.1760906
0.1902528
0.2045827
0.2189458
0.2332107
0.2472335
0.2609484
0.2744914
0.2894115
0.3047552
0.3205382
0.3366424
0.3527009
0.3684205
0.3837705
0.3988248
0.4136686
0.4283819
0.4429119
0.4569573
0.4706258
0.4840263
0.4971746
0.5100539
0.5226129
0.5347526
0.5463428
0.5572255
0.5672726
0.5763808
0.5844112
0.5910388
0.5958492
0.5988563
0.6013885
0.6024541
0.6014315
0.598932
0.5950863
0.589946
0.5836179
0.5763337
0.5682827
0.5595574
0.5502822
0.5406431
0.5308274
0.5209996
0.5113023
0.5018554
0.492751
0.4840493
0.4757731
0.4679177
0.4604572
0.4533496
0.4465607
0.4400765
0.4339129
0.4281095
0.4227103
0.4177689
0.4132249
0.4089879
0.4048254
0.4005884
0.3962631
0.3918712
0.3874843
0.3832093
0.3791464
0.3753747
0.371915
0.3687136
0.3656776
0.3627152
0.3597616
0.3567873
0.3537985
0.350832
0.3479374
0.3451567
0.3425237
0.3400644
0.3377839
0.3356498
0.3335867
0.3315006
0.3293236
0.3270456
0.3247138
0.3224209
0.3202792
0.3183794
0.3167518
0.3153613
0.3141329
0.3129907
0.3118853
0.310806
0.3097775
0.3088425
0.3080392
0.3073638
0.3067243
0.3059432
0.3048595
0.3034025
0.3015628
0.2992988
0.2966414
0.2936809
0.2905633
0.287449
0.2844583
0.2816417
0.2789846
0.2764322
0.2739198
0.2713987
0.2688491
0.266277
0.263705
0.2611584
0.2586575
0.2562138
0.2538372
0.2515394
0.2493284
0.2472081
0.2451749
0.2432009
0.241225
0.2391673
0.236954
0.234527
0.2318518
0.2289161
0.2257295
0.2223218
0.2187405
0.2150499
0.2113266
0.2076687
0.2041947
0.2010459
0.1983895
0.1964214
0.1953612
0.1954414
0.1969205
0.2000372
0.2049261
0.2116196
0.2200516
0.2300698
0.2414214
0.2537519
0.2666419
0.2796651
0.29243
0.3045116
0.3154226
0.3247326
0.3322246
0.3380189
0.342752
0.3474949
0.3535186
0.3621167
0.3745126
0.3917904
0.4146272
0.4433204
0.4778304
0.5181998
0.5645789
0.6161162
0.6700235
0.7213365
0.7605549
0.772438
0.756581
0.7245072
0.6806463
0.6309097
0.5812634
0.5341078
0.4883812
0.4437551
0.4021066
0.3659349
0.3369671
0.316634
0.3049972
0.2988071
0.2943034
0.2890573
0.2817542
0.271867
0.2593314
0.2445831
0.2285206
0.212115
0.1962026
0.1814783
0.1683277
0.1569789
0.1474885
0.1397302
0.1334855
0.1285303
0.1246598
0.1216922
0.1194715
0.1178654
0.1167626
0.1160697
0.1157084
0.1156129
0.1157283
0.1160077
0.1164113
0.1169046
0.1174574
0.1180434
0.1186391
0.1192239
0.1197783
0.1202844
0.1207257
0.1210872
0.121357
0.1215252
0.1215825
0.1215194
0.1213263
0.1209972
0.1205272
0.1199125
0.1191513
0.1182415
0.1171835
0.1159793
0.1146304
0.1131491
0.1115528
0.1098574
0.1080799
0.1062365
0.1043492
0.1024393
0.1005284
0.09863557
0.09677917
0.09497385
0.09323168
0.09156251
0.08997226
0.088463
0.08703471
0.08568625
0.08441563
0.0832204
0.0820982
0.08104728
0.08006674
0.07915644
0.07831667
0.07754834
0.07686276
0.07626614
0.07576367
0.07535968
0.07505716
0.07485736
0.07475947
0.07476043
0.07485491
0.07503519
0.07529134
0.07561164
0.07598325
0.07639274
0.07682654
0.07727188
0.07771751
0.07815395
0.07857361
0.07897115
0.07934336
0.0796887
0.08000627
0.08029591
0.08055674
0.08078675
0.08098427
0.08114938
0.08128477
0.08139542
0.08148696
0.08156429
0.08162953
0.08168187
0.0817188
0.08173768
0.08173692
0.08171632
0.08167654
0.08161794
0.08153927
0.08143736
0.08130892
0.08115458
0.08098096
0.08079359
0.08058546
0.08033499
0.08001321
0.07959048
0.07904108
0.07835031
0.07749949
0.07647475
0.07527276
0.07391026
0.07242353
0.07082367
0.06910937
0.06729429
0.06540254
0.06345889
0.06148955
0.05952894
0.05762864
0.05586544
0.05434489
0.05319389
0.05254543
0.05252175
0.05320595
0.05459887
0.05650564
0.05853401
0.06033427
0.0616312
0.06237714
0.06274144
0.06298894
0.06336946
0.06407006
0.0652072
0.06680133
0.06882079
0.07119698
0.07383478
0.07663188
0.0794912
0.08232974
0.085084
0.08771194
0.09019255
0.09252289
0.09471454
0.0967851
0.09878026
0.1007677
0.1027968
0.104903
0.1071058
0.1094077
0.1117925
0.1142289
0.1166778
0.1190972
0.1214292
0.1236055
0.1255585
0.1272253
0.1285498
0.1294846
0.1299984
0.1301115
0.129888
0.1293726
0.1286065
0.1276276
0.1264716
0.1251718
0.123758
0.1222558
0.1206864
0.1190672
0.1174111
0.115726
0.1140152
0.1122794
0.1105201
0.108741
0.10694
0.1051129
0.103269
0.1014174
0.09956447
0.09771389
0.09586734
0.09402529
0.09218784
0.0903553
0.08852795
0.08670557
0.08488898
0.08307998
0.08128127
0.0794964
0.07772986
0.07598527
0.07426578
0.07257579
0.07091985
0.06930201
0.06772566
0.06619308
0.06470618
0.06326717
0.06187762
0.06053849
0.05925017
0.0580125
0.05682498
0.05568676
0.05459671
0.05355354
0.05255578
0.05160179
0.05068982
0.04981804
0.04898462
0.04818768
0.04742529
0.0466956
0.04599682
0.04532722
0.04468508
0.04406877
0.04347671
0.04290741
0.04235945
0.04183149
0.0413223
0.04083066
0.04035546
0.03989563
0.03945015
0.03901803
0.03859832
0.03819014
0.03779265
0.03740516
0.03702706
0.03665807
0.03629799
0.03594761
0.03561012
0.0353164
0.001424842
0.005770602
0.00871087
0.01215454
0.01603189
0.02051753
0.02568987
0.03145924
0.03799452
0.04595553
0.05807303
0.06543899
0.0735171
0.08213832
0.0913361
0.1010769
0.1113301
0.1220277
0.1330384
0.1442632
0.1556875
0.1687288
0.1821879
0.1958999
0.2097849
0.2237419
0.2376665
0.2514895
0.2651808
0.2787292
0.2922568
0.3059219
0.3201362
0.3348352
0.3500554
0.3656975
0.3813487
0.3966815
0.4115654
0.4259497
0.439802
0.4530934
0.4656852
0.4777985
0.4895988
0.5011757
0.5125391
0.523635
0.5344024
0.544755
0.5545546
0.563468
0.5713319
0.5780631
0.5835287
0.5871262
0.5888354
0.5885554
0.5865022
0.5827154
0.5770431
0.5696699
0.5608046
0.5506467
0.5394381
0.5274772
0.5150469
0.502389
0.4897099
0.4771999
0.4650259
0.4533317
0.4422395
0.4318477
0.4222299
0.4134201
0.4054077
0.39813
0.3914877
0.3853813
0.3797213
0.3744943
0.3697877
0.3656139
0.3619366
0.3586264
0.3557687
0.3533099
0.3510797
0.3489005
0.3466789
0.3444068
0.3421554
0.3400518
0.3382263
0.3367633
0.3356689
0.3348643
0.3342151
0.3335849
0.3328768
0.3320462
0.3311019
0.3300969
0.3291041
0.3281878
0.3273959
0.3267631
0.3262879
0.3259154
0.3255338
0.3250139
0.3242774