/*--------------------------------*- C++ -*----------------------------------*\
| =========                 |                                                 |
| \\      /  F ield         | foam-extend: Open Source CFD                    |
|  \\    /   O peration     | Version:     3.1                                |
|   \\  /    A nd           | Web:         http://www.extend-project.de       |
|    \\/     M anipulation  |                                                 |
\*---------------------------------------------------------------------------*/
FoamFile
{
    version     2.0;
    format      ascii;
    class       volScalarField;
    location    "12";
    object      nut;
}
// * * * * * * * * * * * * * * * * * * * * * * * * * * * * * * * * * * * * * //

dimensions      [0 2 -1 0 0 0 0];

internalField   nonuniform List<scalar> 
119952
(
5.012855e-05
3.244231e-05
3.25385e-05
3.585492e-05
3.779298e-05
3.541626e-05
3.398299e-05
3.308663e-05
3.255079e-05
3.223519e-05
3.203379e-05
3.184164e-05
3.158441e-05
3.117515e-05
3.0541e-05
2.979738e-05
2.902504e-05
2.8263e-05
2.750995e-05
2.679354e-05
3.487895e-05
3.343301e-05
3.31216e-05
4.433123e-05
4.341195e-05
4.306512e-05
4.250645e-05
4.255209e-05
4.28319e-05
2.791618e-05
3.369389e-05
3.603153e-05
4.06236e-05
4.552744e-05
5.083729e-05
5.65033e-05
6.251468e-05
6.871661e-05
7.500419e-05
8.575316e-05
0.0003754205
0.000443929
0.0005184956
0.0005948489
0.0006699436
0.0007423406
0.0008112478
0.0008766569
0.000938345
0.001322149
0.001381326
0.00143788
0.001493654
0.001548936
0.001604176
0.00165949
0.001714671
0.001769364
0.001823385
0.001877508
0.00192675
0.001973469
0.002018371
0.002061486
0.002102546
0.002141224
0.002177507
0.002212809
0.002195621
0.002203895
0.00218926
0.002180089
0.002156654
0.002112794
0.002069077
0.002033464
0.002009949
0.002000091
0.002003484
0.00201889
0.002044744
0.002079573
0.002122479
0.002173078
0.002231362
0.002297634
0.002371015
0.002453244
0.002551471
0.002662812
0.002784673
0.002927154
0.003076766
0.003205089
0.003308016
0.003362829
0.003303225
0.003115732
0.003114831
0.003165723
0.003225457
0.003276505
0.003305072
0.003300949
0.003260057
0.003186808
0.003093608
0.002997466
0.002915846
0.00286316
0.002849628
0.002881831
0.00296317
0.003093553
0.003268475
0.003477981
0.003706784
0.003936305
0.00414663
0.004316894
0.004424819
0.004439053
0.004335397
0.004104996
0.003733477
0.00320606
0.002506563
0.001713704
0.00121455
0.0008731808
0.0009537787
0.001119878
0.001348679
0.001657617
0.00218501
0.002320257
0.002384103
0.002398866
0.002375364
0.002325975
0.002266716
0.002209075
0.002157718
0.002113858
0.002077846
0.002049691
0.002028675
0.001993321
0.00195263
0.001921282
0.001898793
0.001883477
0.001873564
0.00186766
0.001864644
0.001863597
0.001863803
0.001864675
0.001865732
0.001866547
0.001866755
0.001866022
0.001864013
0.001860332
0.0018544
0.001845297
0.001832861
0.001817608
0.001799299
0.001777513
0.001751836
0.001721761
0.001686284
0.001642845
0.001590959
0.001532638
0.00146892
0.001401172
0.001333928
0.001268889
0.001207615
0.001151422
0.001100958
0.001056489
0.00101758
0.0009839283
0.0009551596
0.0009308637
0.0009106115
0.0008939448
0.0008803524
0.000869294
0.0008602066
0.0008525881
0.0008459847
0.0008402307
0.0008367568
0.0007687208
0.0006635666
0.0006044002
0.0005694667
0.0005467496
0.0005307025
0.0005185684
0.00050899
0.0005011994
0.0004947182
0.0004892816
0.0004847617
0.0004810615
0.0004780605
0.0004756584
0.0004736914
0.0004719422
0.0004702688
0.0004686025
0.0004669861
0.0004652678
0.0004632838
0.0004609601
0.0004582364
0.0004550663
0.0004514184
0.0004472787
0.0004426507
0.0004375506
0.0004320122
0.0004260915
0.0004198748
0.0004135102
0.0004073061
0.0004022208
0.0004037878
0.0004136634
0.0004236408
0.000433015
0.0004417162
0.0004497159
0.0004570821
0.0004638666
0.0004701205
0.0004758861
0.0004811876
0.0004860336
0.0004904205
0.0004943299
0.0004977333
0.0005005964
0.0005028771
0.0005045217
0.0005054658
0.0005056469
0.0005050162
0.0005035285
0.0005012854
0.0004985465
0.0004952
0.0004910886
0.000486122
0.0004805328
0.0004755068
0.000461772
0.0004355913
0.000398767
0.0003556072
0.0002998993
0.0002462886
0.0003064339
0.000323912
0.0003697318
0.0004160433
0.0004567768
0.000492995
0.0005303147
0.0005689006
0.0005977197
0.0006153926
0.000632398
0.000646717
0.0006569303
0.0006628384
0.0006645284
0.0006606266
0.0006522006
0.0006422007
0.0006349313
0.0006345808
0.0006438448
0.0006631331
0.0006897163
0.0007200323
0.0007516908
0.0007852548
0.000820742
0.0008586739
0.0009005098
0.0009465542
0.0009965737
0.00105028
0.00110721
0.001166843
0.001228926
0.001293251
0.001359549
0.00142751
0.001496761
0.001566863
0.001637262
0.001707294
0.001776187
0.001843334
0.001908356
0.001970827
0.002033116
0.002093447
0.002150251
0.002203021
0.002251361
0.002294964
0.002333685
0.002368158
0.002401943
0.00245348
0.002515142
0.002575823
0.002628504
0.002670477
0.002701702
0.002723306
0.002736686
0.002743134
0.002743727
0.002739315
0.002730545
0.002717913
0.002701835
0.002682692
0.002660814
0.00263642
0.002609556
0.002580085
0.00254782
0.002512679
0.002474743
0.002434222
0.00239141
0.002346641
0.002300263
0.002252616
0.002204032
0.002154847
0.002105418
0.002056116
0.002007308
0.001959337
0.001912507
0.001867072
0.001823238
0.001781171
0.001741006
0.001702853
0.00166679
0.00163286
0.001601067
0.001571384
0.001543757
0.001518114
0.001494371
0.001472433
0.001452196
0.00143355
0.001416383
0.00140058
0.00138603
0.001372625
0.00136026
0.001348834
0.001338251
0.001328421
0.00131926
0.001310688
0.001302632
0.001295025
0.001287805
0.001280916
0.001274307
0.001267929
0.001261741
0.001255705
0.001249785
0.001243951
0.001238176
0.001232439
0.001226721
0.001221013
0.00121531
0.001209623
0.001203972
0.001198404
0.001192992
0.001187915
0.001183478
0.001180294
0.00117963
0.001185314
0.0009466359
6.315926e-05
7.234829e-05
8.818695e-05
0.0001027795
0.0001154137
0.0001266665
0.0001370303
0.0001467672
0.0001577957
0.0004684094
0.0006837604
0.0008973539
0.001085636
0.001243272
0.001374356
0.001485906
0.001584005
0.001673347
0.002393754
0.002516085
0.002642808
0.00276681
0.002885841
0.002998855
0.003105116
0.003204325
0.003296708
0.003381908
0.003460455
0.003534493
0.003606396
0.003678563
0.003751695
0.003825111
0.00389817
0.003970111
0.004040427
0.004086562
0.004112246
0.004145906
0.004186797
0.004233528
0.004284215
0.00433715
0.004390806
0.004443797
0.004495045
0.004544133
0.004588763
0.004629331
0.004665127
0.004695324
0.004719612
0.004738002
0.004751017
0.004759003
0.005496308
0.005497513
0.005499199
0.005501779
0.005505497
0.005510454
0.005516308
0.005522795
0.005529186
0.005534992
0.00554045
0.005545211
0.005549577
0.005553297
0.005556247
0.005558098
0.005559119
0.005559616
0.005560173
0.005544945
0.005509472
0.005469894
0.005418464
0.005351098
0.005269629
0.005181125
0.005092041
0.005007615
0.004932335
0.00486975
0.004822395
0.004791949
0.004779556
0.00478603
0.004812115
0.004858578
0.004926487
0.005017058
0.005128991
0.005264448
0.005429577
0.005625756
0.005852445
0.006097891
0.006350764
0.006603494
0.006845823
0.00705868
0.007246424
0.007419873
0.007577413
0.007710707
0.007811198
0.007869469
0.007877467
0.007830034
0.007728111
0.007580757
0.007405346
0.00722664
0.007072338
0.006969389
0.006940769
0.007002526
0.007161156
0.00741106
0.007733447
0.008102734
0.008489048
0.00885989
0.009183455
0.009429934
0.009568441
0.009562402
0.00937272
0.008932404
0.008148604
0.006930555
0.005402069
0.004022736
0.002966248
0.001865133
0.001669995
0.001828311
0.002212229
0.002785078
0.003283293
0.003457322
0.003596364
0.00363915
0.003624496
0.003654897
0.003726444
0.003825539
0.00393882
0.004025158
0.004059504
0.004096755
0.004137574
0.004182744
0.004232334
0.004285842
0.004342514
0.004401626
0.00446254
0.004524632
0.004587274
0.004649845
0.004711728
0.004772314
0.004830993
0.004887157
0.004940192
0.00498946
0.005034293
0.005073994
0.00510789
0.00513538
0.005155876
0.005168698
0.005173069
0.005168131
0.005152954
0.005126575
0.005088068
0.00503663
0.00497151
0.004891918
0.004797033
0.004686363
0.004559277
0.004416401
0.004264233
0.004110105
0.003958295
0.003810606
0.003668933
0.003535144
0.003410909
0.003297688
0.003196448
0.00310785
0.003031886
0.002968478
0.002916793
0.002876568
0.002846609
0.002829817
0.002714548
0.002593685
0.002523356
0.002484962
0.002467765
0.002465
0.002472415
0.002487345
0.002508046
0.002533376
0.002562699
0.002595877
0.002632087
0.002670228
0.002709865
0.002750634
0.002792304
0.002834625
0.002877307
0.002920059
0.002962604
0.00300465
0.003045874
0.003085934
0.003124485
0.003161194
0.003195759
0.003227919
0.003257462
0.003284242
0.003308184
0.003329296
0.003347693
0.003363636
0.00337761
0.003390672
0.003404524
0.003418374
0.003431022
0.00344198
0.003450921
0.003457663
0.003462101
0.003464174
0.003463825
0.003460966
0.003455451
0.003447064
0.003435531
0.003420535
0.003401729
0.003378735
0.003351137
0.003318488
0.003280356
0.003236423
0.003186621
0.00313121
0.003070627
0.003004971
0.002933592
0.002854606
0.00276351
0.00265484
0.002524826
0.002368064
0.002180572
0.001963229
0.001722977
0.001503991
0.001616644
0.001503452
0.001409228
0.001330921
0.00126925
0.001220523
0.001114242
0.001051646
0.001029231
0.001041758
0.001090072
0.001175522
0.001297595
0.0014532
0.001574839
0.001642439
0.00170116
0.001750527
0.001792333
0.001829886
0.001869244
0.001916759
0.001977163
0.002052976
0.002144768
0.002251838
0.002372963
0.002506939
0.00265266
0.002808979
0.002974647
0.003148263
0.003328269
0.003513027
0.003700926
0.003890507
0.004080518
0.004269907
0.004457748
0.004643172
0.004825311
0.005003281
0.005176128
0.005342808
0.005502151
0.005653014
0.00579575
0.005931188
0.00605735
0.006173127
0.006277763
0.006370736
0.006451775
0.006520819
0.006578364
0.006626323
0.006666354
0.006699455
0.006726049
0.006746493
0.00676116
0.006770241
0.006773816
0.006771945
0.006764704
0.006752177
0.006734435
0.006711537
0.006683549
0.006650523
0.006612438
0.006569241
0.006520846
0.006467031
0.006407603
0.006342554
0.006272074
0.006196494
0.006116227
0.006031731
0.005943482
0.005851954
0.005757624
0.005660996
0.005562627
0.00546311
0.005363055
0.005263063
0.005163708
0.005065519
0.004968975
0.00487451
0.004782522
0.004693372
0.004607372
0.004524772
0.004445755
0.004370444
0.004298904
0.004231155
0.004167172
0.004106894
0.004050223
0.003997033
0.003947174
0.00390048
0.003856771
0.003815862
0.003777562
0.003741676
0.003708011
0.003676378
0.003646592
0.003618474
0.003591853
0.003566569
0.003542469
0.003519409
0.003497255
0.003475882
0.003455175
0.003435024
0.003415333
0.003396006
0.003376965
0.00335813
0.003339443
0.003320838
0.003302294
0.003283759
0.003265277
0.003246817
0.003228555
0.003210465
0.003192915
0.003175908
0.003161306
0.003151044
0.003143567
2.783526e-05
3.359813e-05
4.222314e-05
5.228175e-05
6.407901e-05
7.79292e-05
9.443136e-05
0.0001141734
0.0001380519
0.0001786048
0.0008016236
0.0009448145
0.001097075
0.001258751
0.001429635
0.001615761
0.00181707
0.002053246
0.002516458
0.004288839
0.004532882
0.004727918
0.004894684
0.00505234
0.00520466
0.005352931
0.005499559
0.005658379
0.006081378
0.006438549
0.006598123
0.006702485
0.006784533
0.006853747
0.006913473
0.006966113
0.007013667
0.00706082
0.006969031
0.007020771
0.007110354
0.007199785
0.007276507
0.0073383
0.007386263
0.007422523
0.007449538
0.007469304
0.007484518
0.007500493
0.007518324
0.007538108
0.007558841
0.007579179
0.00759775
0.007611961
0.008402462
0.008414206
0.008417294
0.008415887
0.008411976
0.008406492
0.008400213
0.008393693
0.008387589
0.008382095
0.008376871
0.008372415
0.008369028
0.008366441
0.008364622
0.008363465
0.008362887
0.008362959
0.008363946
0.008365296
0.00836704
0.00837029
0.008375079
0.0083811
0.008387968
0.008395074
0.008401857
0.008407716
0.008411976
0.008414529
0.008414997
0.00841258
0.008406408
0.0083958
0.008379749
0.008358141
0.008330371
0.008298842
0.008248804
0.008199393
0.008151585
0.00810663
0.008065439
0.008029386
0.007998176
0.007971019
0.007947009
0.007925359
0.00790539
0.00788635
0.00786672
0.007846004
0.007824373
0.007800884
0.007775741
0.007747032
0.007714911
0.007671244
0.007614255
0.007548688
0.007473879
0.007387058
0.007288058
0.00718023
0.007068092
0.006956012
0.006848359
0.0067493
0.006662549
0.006591315
0.006538362
0.006506062
0.006496499
0.006511557
0.006553237
0.006623762
0.006725042
0.006856744
0.007017158
0.007214034
0.007446406
0.007708786
0.00799243
0.008287587
0.008584184
0.008871122
0.009139943
0.00939003
0.009618564
0.00981886
0.009983493
0.01
0.01
0.01000001
0.01000002
0.01000001
0.009899574
0.009741166
0.009592423
0.009482407
0.009437897
0.009479065
0.009615629
0.009843907
0.01
0.01
0.01
0.01
0.01
0.01
0.01
0.01
0.01
0.01000001
0.01000002
0.009262562
0.008252753
0.006525326
0.005009216
0.003987226
0.003126009
0.002547803
0.00238884
0.002519949
0.002839966
0.003112852
0.003307593
0.003445884
0.003574164
0.003723109
0.003893874
0.0040791
0.004271007
0.004461486
0.004648528
0.004812918
0.004901651
0.004993493
0.005089762
0.005190651
0.005295507
0.005403642
0.00551416
0.005626139
0.005738682
0.005850937
0.005962098
0.006071395
0.006178091
0.006281475
0.006380854
0.006475543
0.006564849
0.006648064
0.006724473
0.006793391
0.006854139
0.006905993
0.006948158
0.006979769
0.006999915
0.007007672
0.007002151
0.006982506
0.006947918
0.006897568
0.006830672
0.006746576
0.006644786
0.006525136
0.006387619
0.006231099
0.006058855
0.005879207
0.005695754
0.005511541
0.005329744
0.005153492
0.004985711
0.004828903
0.004685149
0.00455582
0.004442074
0.00434395
0.00426209
0.004194663
0.004139208
0.004100443
0.004076581
0.004065978
0.004067112
0.004078744
0.004099877
0.004129654
0.004167292
0.004212042
0.004263156
0.004319824
0.00438263
0.00445136
0.004525197
0.004603411
0.004685337
0.004770354
0.004857872
0.004947314
0.00503811
0.005129687
0.005221455
0.005312824
0.005403192
0.005491967
0.005578579
0.005662497
0.005743242
0.005820399
0.005893622
0.005962632
0.006027213
0.006087256
0.006142831
0.006194401
0.00624249
0.00628697
0.006327499
0.006363853
0.006395849
0.006423378
0.006446395
0.006464882
0.006478807
0.006488079
0.006492517
0.006491851
0.006485742
0.006473808
0.00645565
0.006430844
0.006398937
0.00635945
0.006311923
0.006256054
0.006191814
0.006119543
0.006039559
0.005951709
0.005854445
0.005744555
0.005615787
0.005461559
0.00527765
0.005058528
0.004799384
0.004501473
0.004177929
0.003855911
0.00349965
0.003171362
0.002870844
0.00259642
0.002350594
0.002139027
0.001967551
0.001840435
0.001758679
0.001682917
0.001534656
0.001461313
0.001453194
0.001509509
0.001639409
0.001845471
0.00210402
0.002216349
0.002301439
0.002383535
0.002466543
0.002555859
0.002657098
0.002774882
0.002912047
0.003069516
0.003246724
0.003442226
0.003654149
0.003880405
0.004118722
0.004366645
0.004621526
0.004880558
0.005140742
0.005399266
0.005653874
0.005902866
0.006145136
0.006379927
0.006606593
0.006824489
0.007032879
0.007230853
0.007417285
0.007590868
0.007750447
0.007898361
0.008034867
0.008159523
0.008271797
0.008371195
0.008457379
0.008530218
0.008589862
0.008637069
0.008673103
0.008699484
0.00871739
0.008727974
0.008733488
0.008734996
0.008732927
0.008727442
0.008718574
0.008706274
0.008690416
0.008670824
0.008647286
0.008619459
0.008586631
0.00854777
0.008502888
0.008451826
0.008394467
0.008330874
0.008261285
0.008186036
0.008105499
0.008020057
0.007930092
0.007835974
0.007738053
0.007636745
0.00753256
0.007426062
0.007317845
0.007208513
0.007098663
0.006988872
0.006879683
0.006771616
0.006665178
0.006560852
0.006459083
0.006360259
0.006264703
0.00617267
0.006084352
0.00599989
0.005919371
0.005842834
0.005770265
0.005701611
0.005636777
0.005575643
0.005518064
0.005463875
0.005412896
0.005364936
0.005319796
0.005277273
0.005237165
0.005199269
0.005163389
0.005129336
0.005096926
0.005065986
0.005036347
0.005007855
0.004980359
0.004953723
0.004927814
0.004902514
0.004877707
0.004853292
0.004829171
0.004805265
0.00478149
0.004757805
0.004734141
0.004710517
0.004686879
0.004663365
0.004639951
0.004617102
0.004595068
0.004574934
0.004557507
3.491828e-05
5.611569e-05
0.0001244324
0.0004162937
0.000713843
0.001266403
0.001698086
0.002217763
0.002820696
0.003315995
0.003682189
0.003979429
0.004280452
0.004601574
0.004933888
0.005274326
0.005626968
0.005993968
0.006375055
0.006767242
0.007163134
0.007533235
0.007844211
0.008120014
0.0083766
0.008619234
0.008852914
0.009080564
0.009307234
0.009542054
0.009828461
0.01
0.01
0.01
0.01
0.01
0.01
0.01
0.01
0.01
0.01
0.009992202
0.009871026
0.009759012
0.009670686
0.009606731
0.009567449
0.00955149
0.009558146
0.00958971
0.009628925
0.00966888
0.009741198
0.009832092
0.009942922
0.01
0.01
0.01
0.01
0.01
0.01
0.01
0.01
0.01
0.01
0.01
0.01
0.01
0.01
0.01
0.01
0.01
0.01
0.01
0.01
0.01
0.01
0.01
0.01
0.01
0.01
0.01
0.01
0.01
0.01
0.01
0.01
0.01
0.01
0.01
0.01
0.01
0.01
0.01
0.01
0.01
0.01
0.01
0.01
0.01
0.01
0.01
0.01
0.01
0.01
0.01
0.01
0.00997255
0.009926949
0.009882601
0.009840337
0.009799583
0.009760653
0.009723697
0.009688327
0.009653991
0.009620163
0.009586369
0.009552333
0.009517815
0.009482744
0.00944665
0.009409186
0.009369253
0.00932595
0.009276535
0.00921867
0.009152204
0.009077104
0.008992307
0.008896942
0.008791603
0.008678238
0.008560085
0.008440878
0.008324602
0.008215291
0.008116879
0.008033096
0.0079674
0.007922958
0.007902717
0.007909544
0.007946369
0.008016024
0.008120721
0.008260218
0.008434887
0.008648818
0.008898336
0.009176328
0.009474011
0.009782282
0.01
0.01
0.01
0.01
0.01
0.01000001
0.01000003
0.0100001
0.01000018
0.01000013
0.01000004
0.01
0.01
0.01
0.01
0.01
0.01
0.01
0.01
0.01
0.01
0.01
0.01000003
0.01000006
0.01000007
0.01000005
0.01000001
0.01
0.01000002
0.01000017
0.01000075
0.01000161
0.009074173
0.007317302
0.005802169
0.004769924
0.004180136
0.003931704
0.003913086
0.003504665
0.003403002
0.003445042
0.003560201
0.003700986
0.003862839
0.004047545
0.004252269
0.004472469
0.004702256
0.004935622
0.0051502
0.00529725
0.005415172
0.005540131
0.005672273
0.005810807
0.005954625
0.006102471
0.006252985
0.006404886
0.006557008
0.006708243
0.006857586
0.007004118
0.007146998
0.007285446
0.007418736
0.00754616
0.007667028
0.007780653
0.007886373
0.007983536
0.00807147
0.008149452
0.008216709
0.008272428
0.008315795
0.008346032
0.008362407
0.008364203
0.008350686
0.008321129
0.008274852
0.008211225
0.008129652
0.008029515
0.007910152
0.007770924
0.007611267
0.007437457
0.007253021
0.007061057
0.00686495
0.006668293
0.006474588
0.006287282
0.006109285
0.005943452
0.005791505
0.005655602
0.005535812
0.005433516
0.005348737
0.005280916
0.005229592
0.005194109
0.005173671
0.005167385
0.005174303
0.005193434
0.005223749
0.005264145
0.005313354
0.005370189
0.005435834
0.005509634
0.005590845
0.005678705
0.005772458
0.005871357
0.005974653
0.006081585
0.006191391
0.00630328
0.006416442
0.006530059
0.006643318
0.006755418
0.006865595
0.006973138
0.007077411
0.007177855
0.007273998
0.007365443
0.007451912
0.00753329
0.007609665
0.007681271
0.007748127
0.00781004
0.007866811
0.007918291
0.007964408
0.008005158
0.008040573
0.008070684
0.008095465
0.008114789
0.008128418
0.008136036
0.008137299
0.008131867
0.008119407
0.008099565
0.008071941
0.008036107
0.00799171
0.007938636
0.007877152
0.007807673
0.007730141
0.007643122
0.007543341
0.007425153
0.00728009
0.007102855
0.006888556
0.00663176
0.006333007
0.005999514
0.005646568
0.005282396
0.004909868
0.004532456
0.004155149
0.00378523
0.003432774
0.003109813
0.002828767
0.002599326
0.002426567
0.002311599
0.002252027
0.002239357
0.001998898
0.001878008
0.001891231
0.002031568
0.002281447
0.002592975
0.002788983
0.002904035
0.003028456
0.003167075
0.003324532
0.003504105
0.00370724
0.003933582
0.004181409
0.004448253
0.004731496
0.005027982
0.0053341
0.005645916
0.005956943
0.006269735
0.0065731
0.006865701
0.007144373
0.007407777
0.007656299
0.007890418
0.008110602
0.008317231
0.008510485
0.008690268
0.008856219
0.009007737
0.009146657
0.009274094
0.009389946
0.009494098
0.009586049
0.009665286
0.009731466
0.009784526
0.009824933
0.009853819
0.009872911
0.009884898
0.009726844
0.009586553
0.009488231
0.009424419
0.009391333
0.009385505
0.009402746
0.009438321
0.009489476
0.009559307
0.009654589
0.009768551
0.009783772
0.009752547
0.009714455
0.009669536
0.009618117
0.009560589
0.009497349
0.009428758
0.009355137
0.009276766
0.009193875
0.009106544
0.009014937
0.008919608
0.0088211
0.008719949
0.008616692
0.008511863
0.008405983
0.008299546
0.008193073
0.00808711
0.007982197
0.007878847
0.007777528
0.007678645
0.007582543
0.007489512
0.007399795
0.007313584
0.007231015
0.007152171
0.007077084
0.007005739
0.006938087
0.006874047
0.006813508
0.006756339
0.006702385
0.006651477
0.006603437
0.006558075
0.006515201
0.006474625
0.006436157
0.006399612
0.006364809
0.006331573
0.006299737
0.00626914
0.006239631
0.006211064
0.006183303
0.006156219
0.006129692
0.006103604
0.006077853
0.006052336
0.006026971
0.006001672
0.005976389
0.00595107
0.005925732
0.005900398
0.005875203
0.005850339
0.005826296
0.005805735
1.939319e-05
3.131616e-05
4.710609e-05
0.0002015158
0.0003298445
0.0005566669
0.0007818036
0.0009890639
0.001250627
0.001508251
0.001789195
0.002154143
0.002591097
0.003092085
0.003666032
0.004413363
0.005843986
0.006445788
0.00704152
0.007590745
0.008082556
0.008517795
0.008914117
0.009284996
0.009636158
0.009969657
0.01
0.01
0.01
0.01
0.01
0.01
0.01
0.01
0.01
0.01
0.01
0.01
0.01
0.01
0.01
0.01
0.01
0.01
0.01
0.01
0.01
0.01
0.009870376
0.009606201
0.00932991
0.009060822
0.00885632
0.008694246
0.008562746
0.0084603
0.008387387
0.00834252
0.008322638
0.008323188
0.008344997
0.008385692
0.008438165
0.00851014
0.008600422
0.008709664
0.008837072
0.008979702
0.009138872
0.00930888
0.009494064
0.009684961
0.009887243
0.01
0.01
0.01
0.01
0.01
0.01
0.01
0.01
0.01
0.01
0.01
0.01
0.01
0.01
0.01
0.01
0.01
0.01
0.01
0.01
0.01
0.01
0.01
0.01
0.01
0.01
0.01
0.01
0.01
0.01
0.01
0.01
0.01
0.01
0.01
0.01
0.01
0.01
0.01
0.01
0.01
0.01
0.01
0.01
0.01
0.01
0.01
0.01
0.01
0.01
0.01
0.01
0.01
0.01
0.01
0.01
0.01
0.01
0.01
0.01
0.01
0.01
0.01
0.01
0.01
0.01
0.01
0.01
0.01
0.009992478
0.009889319
0.009778662
0.009663171
0.009546088
0.009431048
0.009321912
0.009222604
0.009136966
0.009068548
0.009021018
0.008997987
0.009003049
0.009039739
0.009111294
0.009219812
0.009364966
0.009550078
0.009774194
0.01
0.01
0.01
0.01
0.01
0.01
0.01
0.01000004
0.01000026
0.01000092
0.01000123
0.01000086
0.01000021
0.01000001
0.01
0.01
0.01
0.01
0.01
0.01
0.01
0.01
0.01
0.01000001
0.01000011
0.01000061
0.01000107
0.01000081
0.01000028
0.01000004
0.01000002
0.01000008
0.01000119
0.01001082
0.01001352
0.01000572
0.009529646
0.007932416
0.006576827
0.005609652
0.005006231
0.004710287
0.004639491
0.004694791
0.004653315
0.004473259
0.004412737
0.004420714
0.00449366
0.00462974
0.004818516
0.005038919
0.005268066
0.005479926
0.005574204
0.005683932
0.005808941
0.005947901
0.006098967
0.006259908
0.006428579
0.006602824
0.006780649
0.006960237
0.007139986
0.007318456
0.007494393
0.007666712
0.007834469
0.007996857
0.008153134
0.008302619
0.008444679
0.008578714
0.008704142
0.008820378
0.008926801
0.009022752
0.009107543
0.009180512
0.009241077
0.009288693
0.009322804
0.009342795
0.009348021
0.009337972
0.009312111
0.009269831
0.009210419
0.009132939
0.009036447
0.008919952
0.008782892
0.00862919
0.008461075
0.008281115
0.00809227
0.007897758
0.007701073
0.007505678
0.007315106
0.007132425
0.006960648
0.006801877
0.006658192
0.00653099
0.006420938
0.00632835
0.006253257
0.006195399
0.006154264
0.00612914
0.006119176
0.006123419
0.006140816
0.006170181
0.006210071
0.006260232
0.006321307
0.006392526
0.006473127
0.00656233
0.00665933
0.006763291
0.006873341
0.00698857
0.007108025
0.007230709
0.007355595
0.007481644
0.007607826
0.007733146
0.007856666
0.007977538
0.008095024
0.008208496
0.008317437
0.008421457
0.008520311
0.008613887
0.008702174
0.008785144
0.008862666
0.008934568
0.009000719
0.009061075
0.009115681
0.009164621
0.009207948
0.009245805
0.009278212
0.009305009
0.009325936
0.009340716
0.009349106
0.009350896
0.009345881
0.00933379
0.009314266
0.009286934
0.0092516
0.009208478
0.009158096
0.009100584
0.009034658
0.008957156
0.008862891
0.008744969
0.008596452
0.008412994
0.008189388
0.007923452
0.007617797
0.007281135
0.006922957
0.006547769
0.006157322
0.005753217
0.005338423
0.004918952
0.004504858
0.004110086
0.003750176
0.00343883
0.00318566
0.00299532
0.002868049
0.002800881
0.002785129
0.002478055
0.002288804
0.002306646
0.002491475
0.002792356
0.003138159
0.003402043
0.003560268
0.003741378
0.003948573
0.004183317
0.004444842
0.004730818
0.004966272
0.00520437
0.005466115
0.005750263
0.006057479
0.006389816
0.00675174
0.007150925
0.007590315
0.008032552
0.00829589
0.00853639
0.008756525
0.008958535
0.009144431
0.00931586
0.009473981
0.009619364
0.009752323
0.009874336
0.009986738
0.01
0.01
0.01
0.01
0.01
0.01
0.01
0.01
0.009766107
0.0095241
0.009341029
0.00920935
0.009123696
0.00907784
0.009065519
0.00908208
0.009123463
0.009185072
0.009262428
0.009353852
0.009464082
0.009603482
0.009774968
0.009954065
0.01
0.01
0.01
0.01
0.01
0.01
0.01
0.01
0.01
0.009995686
0.009919511
0.009839336
0.00975558
0.009668665
0.009579019
0.009487075
0.009393233
0.009297755
0.009201074
0.009103831
0.009006621
0.008909985
0.008814411
0.00872032
0.008628095
0.008538093
0.008450632
0.008365982
0.008284358
0.008205919
0.008130772
0.00805898
0.007990563
0.007925511
0.007863778
0.00780529
0.007749945
0.00769762
0.007648177
0.007601462
0.007557312
0.007515561
0.007476041
0.00743858
0.007403008
0.007369159
0.007336869
0.007305979
0.007276336
0.007247794
0.007220212
0.007193455
0.007167394
0.007141905
0.00711687
0.007092175
0.007067715
0.007043389
0.007019114
0.00699482
0.006970463
0.006946032
0.006921536
0.006897111
0.006873159
0.006853082
1.754004e-05
2.691023e-05
5.221225e-05
0.000157497
0.000253561
0.0004014754
0.0005147065
0.0006437952
0.0007959239
0.0009453286
0.001120621
0.001347993
0.001609564
0.001922778
0.002332657
0.003120104
0.003497023
0.00390735
0.00434393
0.004806424
0.005300197
0.005818198
0.006348
0.006876833
0.007390662
0.007878612
0.008355052
0.008889824
0.009402231
0.009877014
0.01
0.01
0.01
0.01
0.01
0.01
0.01
0.01
0.01
0.01
0.01
0.01
0.01
0.01
0.01
0.01
0.01
0.01
0.01
0.01
0.01
0.01
0.01
0.01
0.009977129
0.009643113
0.009288871
0.008949608
0.008632577
0.008341795
0.008076519
0.007842533
0.007656094
0.007517154
0.007415399
0.007346363
0.007308467
0.007299736
0.007316317
0.007355164
0.007412628
0.007488042
0.007580109
0.007688618
0.007821298
0.007980668
0.008174492
0.008415166
0.008689787
0.008988956
0.009298244
0.00960177
0.00990039
0.01
0.01
0.01
0.01
0.01
0.01
0.01
0.01
0.01
0.01
0.01
0.01
0.01
0.01
0.01
0.01
0.01
0.01
0.01
0.01
0.01
0.01
0.01
0.01
0.01
0.01
0.01
0.01
0.01
0.01
0.01
0.01
0.01
0.01
0.01
0.01
0.01
0.01
0.01
0.01
0.01
0.01
0.01
0.01
0.01
0.01
0.01
0.01
0.01
0.01
0.01
0.01
0.01
0.01
0.01
0.01
0.01
0.01
0.01
0.01
0.01
0.01
0.01
0.01
0.01
0.01
0.01
0.01
0.01
0.01
0.01
0.01
0.01
0.01
0.01
0.01
0.01
0.01
0.009941302
0.0098774
0.009834213
0.00981582
0.009826344
0.009869874
0.009949952
0.01
0.01
0.01
0.01
0.01
0.01
0.01
0.01
0.01
0.01000001
0.01000028
0.01000313
0.01000825
0.0100059
0.01000157
0.01000011
0.01
0.01000001
0.01000003
0.01000004
0.01000002
0.01000001
0.01
0.01
0.01
0.01000001
0.01000008
0.01000087
0.01000386
0.01000347
0.01000152
0.01000108
0.01000105
0.01000082
0.01000126
0.01001052
0.01002578
0.01001124
0.01000193
0.01000011
0.009806108
0.008536725
0.007416373
0.006554841
0.005983112
0.005676276
0.005548563
0.005516502
0.005527347
0.005553401
0.00558332
0.005568076
0.005512644
0.00554492
0.005652613
0.005742941
0.005792917
0.005856503
0.005937917
0.006040531
0.006164263
0.006306774
0.006465237
0.006636706
0.00681823
0.007006994
0.007200385
0.007396049
0.007591947
0.007786291
0.007977586
0.0081646
0.008346323
0.008521919
0.008690685
0.008852011
0.009005348
0.009150185
0.009286016
0.009412304
0.009528477
0.009633962
0.00972818
0.009810844
0.009881709
0.009940452
0.009986645
0.01
0.01
0.01
0.01
0.01
0.009973537
0.009917099
0.00984285
0.00974952
0.009637588
0.009508661
0.009364157
0.009205805
0.009035469
0.008855991
0.00867053
0.008482457
0.008295096
0.00811176
0.007935475
0.007769028
0.007614808
0.007474669
0.007349977
0.007241673
0.007150297
0.007076016
0.007018683
0.006977892
0.006953037
0.006943343
0.006947877
0.006965507
0.006994924
0.007037074
0.007091521
0.00715762
0.007234652
0.007321836
0.007418324
0.007523196
0.007635452
0.007754015
0.007877732
0.008005385
0.008135723
0.008267497
0.008399491
0.008530552
0.008659642
0.008785861
0.008908442
0.009026766
0.009140384
0.009248975
0.009352279
0.009449999
0.00954203
0.009628339
0.009708821
0.009783395
0.00985209
0.009915078
0.009972641
0.01
0.01
0.01
0.01
0.01
0.01
0.01
0.01
0.01
0.01
0.01
0.01
0.01
0.01
0.01000001
0.01000004
0.01000012
0.01000013
0.009974328
0.00988523
0.009769576
0.009622822
0.009440151
0.009218211
0.008956776
0.008659907
0.008335581
0.007989549
0.007623987
0.007238951
0.006833931
0.006409924
0.005971551
0.005528083
0.005092886
0.004681604
0.004309658
0.003989685
0.003730307
0.003536272
0.003408595
0.003344143
0.003289532
0.002833822
0.00268508
0.002774928
0.003028993
0.003372137
0.003732487
0.004056637
0.004291086
0.004537924
0.004776122
0.004983211
0.00520455
0.005447482
0.005713716
0.006003914
0.006319625
0.006664054
0.007042852
0.007460825
0.007923033
0.008427846
0.00888998
0.009112497
0.009309693
0.009485813
0.009644633
0.009789298
0.009922342
0.01
0.01
0.01
0.01
0.01
0.01
0.01
0.01
0.01
0.01
0.009967953
0.009585718
0.00929493
0.009077857
0.008920395
0.008813426
0.008750714
0.008724912
0.008730021
0.008762385
0.008819074
0.008896523
0.008991924
0.009104982
0.009238222
0.00939902
0.00959511
0.00981576
0.01
0.01
0.01
0.01
0.01
0.01
0.01
0.01
0.01
0.01
0.01
0.01
0.01
0.01
0.01
0.01
0.01
0.00997777
0.00989371
0.009808435
0.009722496
0.009636393
0.009550566
0.009465316
0.00938097
0.009297992
0.009216781
0.009137667
0.009060913
0.008986722
0.008915256
0.008846643