/*--------------------------------*- C++ -*----------------------------------*\
| =========                 |                                                 |
| \\      /  F ield         | foam-extend: Open Source CFD                    |
|  \\    /   O peration     | Version:     3.1                                |
|   \\  /    A nd           | Web:         http://www.extend-project.de       |
|    \\/     M anipulation  |                                                 |
\*---------------------------------------------------------------------------*/
FoamFile
{
    version     2.0;
    format      ascii;
    class       volScalarField;
    location    "12";
    object      omega;
}
// * * * * * * * * * * * * * * * * * * * * * * * * * * * * * * * * * * * * * //

dimensions      [0 0 -1 0 0 0 0];

internalField   nonuniform List<scalar> 
119952
(
323.0687
399.3176
370.3121
318.2309
281.173
278.6568
279.584
282.702
287.7121
294.4525
302.6634
311.8596
321.7009
331.5982
341.0716
350.6341
360.7908
371.877
384.2385
398.9005
341.0569
344.0978
351.7071
302.5376
300.6315
300.5023
299.5905
298.8311
295.974
196.5065
797.0616
661.424
558.4894
485.7861
432.1119
390.8719
357.8379
330.5855
307.46
281.4928
234.2668
201.6769
179.4556
163.3299
150.9817
141.0682
132.8149
125.7485
119.5728
94.28434
90.72112
87.21495
83.82433
80.61869
77.63602
74.88962
72.37529
70.08
68.01134
66.21029
64.46357
62.79003
61.20403
59.71273
58.32174
57.02995
55.82197
54.70038
54.8308
55.17946
54.96091
54.95804
55.32094
56.01296
56.59887
56.97904
57.07627
56.84175
56.26308
55.3528
54.14807
52.6964
51.05693
49.29335
47.4728
45.65526
43.90985
42.27254
40.78216
39.48793
38.30807
37.34631
36.83719
36.65857
36.808
37.5562
39.68971
42.7465
43.64861
44.11036
44.47358
44.82493
45.2354
45.74622
46.35354
47.00117
47.59055
47.99988
48.11276
47.85837
47.23585
46.32191
45.2547
44.19763
43.29965
42.66799
42.3562
42.36927
42.68323
43.2702
44.13329
45.4077
47.34977
50.29714
54.93555
62.60793
76.29995
100.2087
127.038
138.4231
126.1343
102.593
79.86556
63.6744
53.98368
48.42135
44.99719
42.487
40.26086
38.29401
36.62804
35.26071
34.15018
33.2484
32.51317
31.9107
31.42411
31.36229
31.4763
31.53288
31.52906
31.48964
31.43481
31.37877
31.33086
31.2964
31.27827
31.27766
31.29516
31.33054
31.38356
31.45391
31.54169
31.64826
31.77817
31.94172
32.13801
32.36073
32.61103
32.89163
33.20651
33.56251
33.97542
34.49069
35.13232
35.88347
36.74701
37.73569
38.79396
39.90804
41.06062
42.2201
43.35685
44.43786
45.43816
46.32996
47.08742
47.68988
48.12375
48.38442
48.47685
48.41518
48.22013
47.91649
47.52847
47.06866
46.48604
49.26191
54.0003
56.62918
57.93413
58.52508
58.74351
58.77865
58.73364
58.67131
58.63107
58.6355
58.69581
58.81754
59.00348
59.25459
59.5715
59.95939
60.42074
60.95415
61.55125
62.22099
62.97081
63.80307
64.72004
65.72382
66.81626
67.9988
69.27225
70.63716
72.0931
73.63755
75.26425
76.95719
78.67133
80.23338
80.44384
79.82665
79.34417
78.86154
78.40399
77.95433
77.50871
77.0654
76.62303
76.18136
75.74165
75.30657
74.87944
74.46412
74.06464
73.68557
73.33253
73.01267
72.73475
72.50929
72.34891
72.27404
72.30907
72.44376
72.70621
73.15949
73.88174
74.9238
76.15293
77.88332
81.02604
85.87039
92.26221
101.4994
112.6151
99.58573
99.31285
95.79963
90.03971
83.17832
75.79781
68.33382
61.27398
54.97013
49.57245
45.12443
41.53862
38.66581
36.37246
34.54319
33.1252
32.05503
31.26539
30.65771
30.13721
29.65412
29.20763
28.85812
28.66874
28.65049
28.73368
28.88005
29.048
29.18368
29.26229
29.27525
29.22227
29.11243
28.95732
28.76502
28.54419
28.30421
28.05425
27.80295
27.55832
27.32845
27.12148
26.94516
26.80306
26.69468
26.61703
26.53568
26.45589
26.38314
26.31614
26.25313
26.19215
26.13013
26.06589
25.91373
25.50047
24.98519
24.49289
24.08022
23.75471
23.50233
23.30427
23.14383
23.00824
22.88833
22.7778
22.67241
22.56936
22.46673
22.36324
22.25812
22.15117
22.04278
21.93384
21.82534
21.71809
21.61278
21.50995
21.41017
21.31396
21.22182
21.13425
21.05166
20.97428
20.90208
20.8348
20.77199
20.71309
20.65748
20.60451
20.55352
20.50384
20.45474
20.40546
20.35532
20.30374
20.25026
20.19457
20.13646
20.07584
20.01267
19.94703
19.87908
19.80904
19.7372
19.66387
19.58941
19.51417
19.43851
19.36281
19.28742
19.2127
19.13897
19.06655
18.99573
18.92678
18.85993
18.79542
18.73345
18.67421
18.61787
18.56458
18.51448
18.46769
18.4243
18.38434
18.34784
18.31471
18.28478
18.25771
18.23297
18.20959
18.18565
18.15761
18.11753
18.04687
17.90592
17.65309
17.70407
680.2627
589.4041
546.1511
506.4783
468.906
434.9168
404.8106
378.2602
353.8101
287.7496
220.1391
184.0609
163.2096
150.0734
140.9382
133.9482
128.1665
123.1107
97.68157
92.92238
88.40678
84.26893
80.59891
77.39966
74.62089
72.19682
70.06363
68.15302
66.48954
64.90227
63.30626
61.7225
60.1771
58.69394
57.287
55.961
54.71177
53.86403
53.28061
52.54238
51.7093
50.82835
49.9306
49.04063
48.17499
47.34378
46.55781
45.82087
45.12404
44.47353
43.86643
43.29742
42.76322
42.2594
41.78047
41.33746
37.64812
37.2504
36.86697
36.49084
36.11884
35.75062
35.38712
35.02959
34.67878
34.33318
33.99687
33.6717
33.3547
33.04552
32.74703
32.46086
32.19315
31.95236
31.75798
31.63087
31.53351
31.46825
31.47785
31.55171
31.66334
31.78676
31.90363
31.99196
32.0283
31.99124
31.86319
31.63145
31.28925
30.83695
30.28263
29.64118
28.93269
28.18329
27.43409
26.71594
26.03523
25.42372
24.92522
24.55589
24.3102
24.19595
24.20896
24.32473
24.48145
24.6909
24.96118
25.28467
25.65353
26.05607
26.47406
26.88329
27.25638
27.56821
27.80038
27.94209
27.99151
27.95615
27.85435
27.71624
27.58157
27.4937
27.4898
27.59107
27.80273
28.11592
28.51448
28.99124
29.58204
30.41172
31.65706
33.6082
36.80369
42.20677
51.0612
63.85437
79.24186
92.67375
97.72237
94.17441
86.05905
77.42492
69.54922
62.26335
55.58753
49.43759
43.88085
39.10321
35.16591
32.00145
29.48053
27.46426
25.8376
24.50818
23.40906
22.49231
21.72023
21.06443
20.50261
20.01751
19.59605
19.22818
18.90586
18.62267
18.3734
18.15381
17.96038
17.79025
17.64105
17.51091
17.39832
17.30197
17.22052
17.15295
17.09886
17.05819
17.03115
17.01827
17.02049
17.03929
17.07659
17.13469
17.21637
17.32518
17.46542
17.64205
17.8622
18.13224
18.44291
18.78073
19.13734
19.5089
19.88936
20.27032
20.64136
20.99101
21.30696
21.57778
21.79236
21.94285
22.0216
22.02737
21.95511
21.79863
22.13606
22.37516
22.37351
22.20443
21.92498
21.57617
21.18685
20.77762
20.36351
19.95522
19.55997
19.18216
18.82841
18.5026
18.20466
17.93398
17.68935
17.46956
17.27348
17.09986
16.94734
16.81452
16.70012
16.6029
16.52165
16.45518
16.40232
16.36191
16.33277
16.31371
16.30348
16.30063
16.30323
16.30806
16.30951
16.30078
16.28506
16.27053
16.2568
16.244
16.23227
16.22158
16.21193
16.2033
16.19574
16.18941
16.18456
16.18163
16.18118
16.18392
16.19075
16.20286
16.22175
16.24924
16.28742
16.33835
16.4038
16.4849
16.58363
16.70414
16.85382
17.04595
17.31044
17.6945
18.24987
19.05822
20.23321
21.9057
24.19292
26.67803
25.0347
26.46643
28.04534
29.80581
31.68422
33.53578
35.16825
36.35013
36.87211
36.58266
35.42016
33.48691
31.04945
28.43663
25.92682
23.69774
21.82947
20.33395
19.18808
18.35178
17.77123
17.38967
17.1546
17.02069
16.95083
16.91522
16.88978
16.8552
16.79708
16.70612
16.57828
16.41448
16.21961
16.00117
15.76811
15.5297
15.29461
15.07018
14.86208
14.67414
14.50876
14.36731
14.25039
14.15802
14.08967
14.04398
14.01691
14.0008
13.99262
13.98948
13.98859
13.9874
13.98378
13.97636
13.96154
13.93431
13.89307
13.83901
13.77445
13.70174
13.62277
13.53892
13.45111
13.35991
13.26565
13.1686
13.06888
12.96659
12.86179
12.75465
12.6455
12.53485
12.42324
12.31106
12.19857
12.08607
11.97388
11.86238
11.75193
11.64291
11.53569
11.43057
11.32785
11.22772
11.13031
11.03572
10.94398
10.85509
10.76903
10.68574
10.60512
10.52703
10.4513
10.37773
10.30614
10.23632
10.16811
10.10134
10.03584
9.97149
9.908161
9.845765
9.784239
9.723539
9.663644
9.604549
9.546266
9.488824
9.43226
9.376624
9.321971
9.268357
9.215842
9.164485
9.114343
9.06547
9.017919
8.971736
8.926966
8.88365
8.841826
8.801524
8.762774
8.725596
8.69001
8.65601
8.623596
8.592717
8.563324
8.535258
8.508347
8.482151
8.456126
8.429157
8.400011
8.367297
8.331862
8.300859
8.279947
570.0075
503.8901
449.7948
410.1244
380.0806
356.9413
338.7958
324.6861
313.8138
298.2716
182.2884
170.3929
160.5244
152.1229
144.8847
138.3812
132.6557
126.9122
114.5868
78.82852
77.0967
76.19364
75.5803
75.02383
74.47542
73.894
73.25015
72.46193
68.8448
66.27216
65.48392
64.97533
64.50817
64.03423
63.54095
63.01499
62.45292
61.86423
62.04985
61.12421
59.9513
58.82115
57.8033
56.89074
56.05947
55.28636
54.55542
53.86161
53.16183
52.43887
51.68858
50.92393
50.16121
49.41335
48.68784
47.9916
44.83123
44.24045
43.67873
43.13537
42.60385
42.07987
41.56204
41.05044
40.54671
40.05143
39.56372
39.08574
38.61868
38.16088
37.71171
37.2707
36.83731
36.41122
35.9922
35.57931
35.17383
34.77981
34.3984
34.03009
33.67569
33.33559
33.01004
32.69897
32.40187
32.12048
31.85623
31.60925
31.37933
31.16592
30.96587
30.77543
30.58663
30.38532
30.23454
30.07134
29.8937
29.70316
29.50316
29.29566
29.08384
28.87041
28.65669
28.44363
28.23196
28.02151
27.81488
27.61398
27.42044
27.23796
27.0697
26.92187
26.79739
26.70475
26.63954
26.59512
26.57925
26.59455
26.63355
26.68415
26.73507
26.77541
26.7928
26.77413
26.70686
26.58004
26.38537
26.11825
25.77864
25.37152
24.9066
24.39824
23.86579
23.33739
22.84302
22.39721
22.02386
21.74211
21.55917
21.47257
21.4763
21.55981
21.70173
21.90011
22.15527
22.45957
22.80128
23.1653
23.53135
23.87321
24.16438
24.38619
24.53306
24.61328
24.64544
24.65512
24.67202
24.7273
24.85071
25.06625
25.3863
25.81191
26.33349
26.92816
27.55685
28.17591
28.76912
29.40531
30.21921
31.37018
33.14834
36.06473
40.86202
48.38431
58.89644
70.38111
79.45987
84.56162
86.16202
85.09983
82.33985
78.2126
72.25404
65.00648
57.40318
50.19052
43.84297
38.5446
34.262
30.85228
28.14085
25.96664
24.20481
22.76281
21.5701
20.57337
19.73181
19.01562
18.40139
17.87141
17.41168
17.01107
16.66063
16.35306
16.08235
15.84356
15.63255
15.44587
15.28062
15.13425
15.00454
14.88971
14.78848
14.69987
14.62315
14.55782
14.50355
14.46027
14.42824
14.40802
14.40052
14.40695
14.42871
14.46761
14.52586
14.60573
14.71011
14.84453
15.00863
15.19408
15.39789
15.61704
15.84728
16.08293
16.3177
16.54398
16.75455
16.9408
17.09645
17.21308
17.28907
17.31761
17.32679
17.26232
17.13671
16.96079
16.74321
16.49136
16.2123
15.91299
15.60024
15.28046
14.95964
14.64333
14.33405
14.03466
13.7481
13.47643
13.22102
12.98263
12.76154
12.55765
12.37051
12.19947
12.04368
11.90215
11.77381
11.65753
11.55216
11.45654
11.36955
11.29007
11.21703
11.1493
11.0857
11.025
10.96613
10.90885
10.85409
10.80236
10.75357
10.7076
10.66429
10.62352
10.58525
10.54946
10.51621
10.48559
10.45771
10.43268
10.41065
10.39182
10.37644
10.36488
10.35758
10.35505
10.35779
10.3662
10.38058
10.40129
10.42917
10.46595
10.51493
10.58184
10.67715
10.81485
11.00766
11.27379
11.63286
12.0986
12.6626
13.28951
14.17473
15.16664
16.2787
17.53733
18.95609
20.51825
22.17121
23.81697
25.31983
26.54517
27.38417
27.75935
27.61637
26.92534
25.72613
24.17984
22.50805
20.89609
19.45893
18.25214
17.28717
16.54672
15.99729
15.5985
15.30973
15.09426
14.92132
14.76686
14.61337
14.44945
14.26915
14.07129
13.85843
13.63566
13.4097
13.1877
12.97643
12.78184
12.60859
12.45963
12.33637
12.23926
12.16806
12.12198
12.09969
12.09937
12.1186
12.15014
12.18812
12.22848
12.26776
12.30289
12.33132
12.35097
12.35981
12.35629
12.33985
12.31088
12.27025
12.21876
12.157
12.08586
12.00625
11.91906
11.82518
11.72541
11.62048
11.51098
11.39736
11.28018
11.16021
11.03846
10.91555
10.79194
10.66799
10.54401
10.42036
10.29743
10.17557
10.0551
9.936313
9.819474
9.704805
9.592479
9.482621
9.375327
9.270672
9.168716
9.069505
8.973072
8.879416
8.788502
8.700261
8.614609
8.531455
8.450698
8.372232
8.29594
8.221702
8.149397
8.078911
8.010145
7.943008
7.877422
7.813317
7.750636
7.689333
7.629373
7.570733
7.513397
7.457355
7.402605
7.349144
7.296975
7.2461
7.196523
7.14825
7.101283
7.055625
7.011281
6.96825
6.926534
6.886128
6.847035
6.80924
6.77274
6.737499
6.703508
6.670679
6.638981
6.608211
6.578295
6.548802
6.519659
6.490237
6.460938
6.431397
6.40377
6.379547
317.0416
230.1989
331.163
150.9487
119.4097
89.35512
78.0198
68.57832
60.61665
56.90982
55.4361
54.68081
53.9329
53.14658
52.36719
51.64251
50.94687
50.26505
49.59905
48.95526
48.3669
47.96376
47.89854
48.00967
48.1947
48.42789
48.67553
48.91178
49.10137
49.20238
49.14398
47.73683
48.20566
48.68244
49.14614
49.58374
50.00371
50.36639
50.67222
50.9485
51.11246
51.20272
51.26619
51.28778
51.25075
51.148
50.97793
50.74226
50.44528
50.09508
49.70345
49.26981
48.79041
48.27226
47.72416
47.15629
46.57743
45.99301
45.40754
44.8235
44.24086
43.65932
43.07809
42.49809
41.92165
41.3508
40.79069
40.2347
39.72483
39.22194
38.73007
38.248
37.77416
37.30781
36.84886
36.39776
35.95519
35.52208
35.09919
34.68732
34.28664
33.89686
33.51778
33.14875
32.78842
32.43505
32.08712
31.74409
31.40666
31.07695
30.75771
30.45156
30.16023
29.88434
29.62346
29.37679
29.14389
28.92533
28.7223
28.53581
28.3666
28.21355
28.07341
27.93974
27.80637
27.66639
27.51966
27.36169
27.18845
27.00275
26.81024
26.61764
26.4284
26.24387
26.06413
25.88823
25.71505
25.54397
25.37504
25.20911
25.04772
24.89307
24.74752
24.61401
24.49542
24.39528
24.31357
24.2497
24.20613
24.1839
24.17927
24.18533
24.19479
24.19997
24.19248
24.16319
24.10293
24.00322
23.85699
23.65938
23.40844
23.10586
22.75713
22.37186
21.96407
21.55281
21.16228
20.8168
20.53406
20.33129
20.2183
20.19678
20.26322
20.4096
20.62408
20.89782
21.22307
21.58893
21.98212
22.38683
22.78117
23.13694
23.42723
23.63672
23.76923
23.84705
23.90364
23.97714
24.1069
24.33004
24.67862
25.1767
25.83605
26.6568
27.63946
28.77541
29.98119
31.11352
32.02497
32.63002
33.06228
33.42702
33.97554
35.09008
37.27967
41.2505
47.60354
55.56595
63.05979
68.69861
72.1449
73.6417
73.51524
72.07878
69.47305
65.79555
61.13343
55.74629
50.05712
44.51679
39.47863
35.14194
31.52938
28.56838
26.15083
24.17072
22.5406
21.1894
20.06062
19.11072
18.30614
17.62023
17.03221
16.52555
16.08703
15.70593
15.37348
15.08244
14.82682
14.6016
14.40256
14.22609
14.06912
13.92912
13.80403
13.69215
13.59209
13.50268
13.42295
13.35213
13.2897
13.23544
13.18939
13.1518
13.12308
13.10386
13.09504
13.09782
13.11382
13.14532
13.19513
13.26613
13.35474
13.45939
13.57861
13.7101
13.85097
13.99744
14.1453
14.28939
14.42467
14.54532
14.64654
14.72231
14.77092
14.78843
14.77138
14.71772
14.62771
14.50328
14.34745
14.16403
13.95751
13.73277
13.49497
13.24946
13.00124
12.75189
12.50498
12.26362
12.03044
11.80744
11.5961
11.39735
11.2117
11.03926
10.87982
10.7329
10.59781
10.47369
10.35959
10.25451
10.1574
10.06726
9.98312
9.904032
9.829128
9.757634
9.689013
9.623086
9.560162
9.500463
9.443903
9.390305
9.339506
9.291409
9.245996
9.203319
9.163471
9.126546
9.09261
9.061696
9.033816
9.009
8.98732
8.968916
8.953996
8.942797
8.935536
8.932337
8.933267
8.938458
8.948414
8.964211
8.987789
9.022183
9.072446
9.146768
9.252571
9.397383
9.590937
9.838201
10.13934
10.49002
10.90292
11.39197
11.97032
12.65534
13.46521
14.41096
15.48733
16.662
17.87703
19.06326
20.15695
21.10686
21.86956
22.39299
22.59927
22.40654
21.79203
20.85051
19.74524
18.62376
17.58289
16.67533
15.91958
15.31019
14.8271
14.44334
14.13092
13.86481
13.62496
13.3969
13.17192
12.94633
12.72049
12.49768
12.28269
12.08062
11.89644
11.73475
11.59891
11.49074
11.41082
11.3588
11.33373
11.33398
11.35731
11.40087
11.46141
11.5331
11.60983
11.68689
11.76018
11.82611
11.88157
11.92398
11.95127
11.96218
11.95655
11.93498
11.89834
11.84717
11.78226
11.70477
11.61606
11.51753
11.41055
11.29644
11.17639
11.05135
10.92206
10.78918
10.65359
10.51615
10.37784
10.2395
10.10156
9.964406
9.828407
9.693896
9.56113
9.430302
9.301576
9.175108
9.051053
8.929495
8.810421
8.693841
8.579774
8.468256
8.359337
8.253077
8.149525
8.048706
7.950618
7.855242
7.76255
7.672508
7.585063
7.500145
7.417669
7.337542
7.259672
7.183972
7.110353
7.03873
6.96902
6.901146
6.835039
6.770638
6.707889
6.646747
6.58717
6.529121
6.472568
6.417481
6.363832
6.311598
6.260756
6.211285
6.163163
6.116372
6.070891
6.026701
5.983785
5.942123
5.901694
5.862479
5.824447
5.787571
5.751799
5.717087
5.683341
5.650489
5.618391
5.586979
5.556134
5.52592
5.49639
5.468092
5.442528
276.5759
186.2324
140.7648
126.3995
103.2563
87.296
75.60494
71.24853
66.29055
63.48731
61.06556
57.7161
54.30107
51.02043
47.9728
44.5372
39.08001
37.81956
36.86638
36.31074
36.109
36.12455
36.22528
36.36618
36.54414
36.76125
37.01922
37.32201
37.67524
38.09568
38.59466
39.14694
39.7393
40.36326
41.00623
41.66387
42.33332
43.01123
43.69624
44.38714
45.07724
45.71204
46.22815
46.82976
47.433
48.081
48.6551
49.16977
49.62369
50.01959
50.35658
50.61622
50.76084
50.78834
50.70657
50.52392
50.24882
49.89086
49.46056
48.96893
48.42498
47.83725
47.21548
46.56552
45.89368
45.20641
44.51006
43.81154
43.1168
42.43102
41.75683
41.09523
40.44397
39.80235
39.17275
38.55611
37.95378
37.36905
36.80384
36.26076
35.74377
35.25427
34.78835
34.34101
33.90827
33.48736
33.07685
32.67655
32.28746
31.91105
31.54833
31.19992
30.86629
30.54735
30.24175
29.94661
29.65825
29.3736
29.09153
28.81301
28.54117
28.28041
28.03506
27.80746
27.59752
27.40355
27.22329
27.05512
26.89882
26.75565
26.62763
26.51646
26.42178
26.33945
26.26126
26.17857
26.08404
25.97182
25.8374
25.685
25.51915
25.34544
25.17022
24.99851
24.83282
24.67316
24.51798
24.36528
24.21363
24.0626
23.91278
23.76562
23.62292
23.48666
23.35882
23.24163
23.13737
23.04754
22.97336
22.9164
22.8768
22.85159
22.83547
22.82232
22.80573
22.77892
22.73487
22.6667
22.56811
22.43383
22.26014
22.0455
21.79085
21.50027
21.18143
20.84578
20.5089
20.19046
19.91416
19.69979
19.56469
19.52046
19.57182
19.71798
19.9535
20.2689
20.65154
21.08608
21.55534
22.04271
22.53014
22.9921
23.39809
23.72414
23.96434
24.13708
24.27947
24.43739
24.65978
24.99565
25.49132
26.19111
27.15228
28.43851
30.07622
32.12374
34.65457
37.45718
40.11866
42.18787
43.17419
43.03642
42.04216
40.67283
39.53725
39.13044
40.08789
42.86865
47.23741
52.09293
56.39943
59.58943
61.45371
62.1297
61.81261
60.66974
58.80892
56.27038
53.09824
49.40693
45.40095
41.33083
37.41959
33.83737
30.67206
27.94547
25.63196
23.68479
22.04998
20.67668
19.5198
18.54204
17.71248
17.00601
16.40211
15.88397
15.43782
15.05229
14.71798
14.42706
14.17295
13.95016
13.75403
13.58062
13.42664
13.28933
13.1664
13.0559
12.95618
12.8658
12.78356
12.70853
12.63999
12.57748
12.5207
12.46946
12.42376
12.38378
12.35
12.32326
12.3048
12.29625
12.29968
12.31707
12.34712
12.38953
12.44362
12.50839
12.58226
12.66321
12.74849
12.83497
12.91899
12.9967
13.06406
13.11727
13.15295
13.16795
13.15947
13.12567
13.06581
12.98011
12.86972
12.7366
12.58343
12.41351
12.23059
12.03878
11.84084
11.63864
11.43548
11.23434
11.03776
10.84785
10.66625
10.49412
10.33221
10.18088
10.04013
9.909669
9.788956
9.677294
9.573864
9.477782
9.388161
9.304165
9.225029
9.150069
9.07872
9.0106
8.945543
8.883595
8.824818
8.769117
8.716301
8.666194
8.618698
8.573823
8.531687
8.492471
8.456275
8.423133
8.393013
8.365835
8.341521
8.320044
8.301455
8.285865
8.273404
8.264164
8.258154
8.255328
8.255719
8.259668
8.267902
8.281527
8.302074
8.331956
8.375004
8.436347
8.520259
8.632045
8.775473
8.952317
9.162952
9.409281
9.694942
10.02673
10.41689
10.88132
11.43523
12.08848
12.84043
13.67656
14.56975
15.48575
16.39083
17.25508
18.05057
18.74698
19.28675
19.57935
19.53745
19.148
18.49504
17.70417
16.88372
16.10464
15.40645
14.80435
14.29589
13.868
13.50299
13.1829
12.89307
12.62364
12.36933
12.1287
11.90318
11.69573
11.51003
11.34975
11.2176
11.115
11.04253
10.99987
10.986
10.99937
11.03775
11.09822
11.17725
11.2708
11.37365
11.48008
11.58517
11.6845
11.77403
11.85025
11.91015
11.95126
11.97213
11.97257
11.95275
11.91301
11.85425
11.77796
11.68596
11.58035
11.46324
11.33664
11.20241
11.06222
10.91749
10.76924
10.61818
10.46497
10.31066
10.15689
10.00478
9.854722
9.706946
9.56173
9.419259
9.279613
9.142791
9.008746
8.877446
8.748836
8.622753
8.499048
8.377647
8.258509
8.141634
8.027064
7.914883
7.805199
7.698066
7.593493
7.491494
7.392083
7.295275
7.201071
7.109456
7.020389
6.933817
6.849683
6.767927
6.688481
6.611272
6.536223
6.463258
6.392305
6.323297
6.256172
6.190872
6.127341
6.065527
6.005382
5.946859
5.889914
5.834508
5.780603
5.728162
5.677151
5.627536
5.579285
5.532366
5.486752
5.442413
5.399321
5.357449
5.316767
5.277243
5.238841
5.201521
5.165233
5.129928
5.095553
5.062068
5.029454
4.997724
4.966958
4.937379
4.910656
137.6596
101.9651
156.8222
77.52668
66.56326
57.32604
54.7103
52.90966
50.92273
50.28585
49.39324
47.97258
46.63887
45.18349
43.39425
39.57089
38.79886
38.06775
37.34608
36.6365
35.89543
35.16256
34.49052
33.91251
33.45214
33.12111
32.85334
32.55537
32.41308
32.45295
32.65756
32.97325
33.34769
33.75988
34.20414
34.67898
35.1844
35.72487
36.31402
36.94391
37.60342
38.28582
38.98783
39.70604
40.43537
41.17085
41.90422
42.63285
43.35942
44.08596
44.78152
45.4367
46.09886
46.79375
47.44086
48.06449
48.62751
49.09722
49.45366
49.68556
49.79197
49.77064
49.61171
49.31506
48.89421
48.36699
47.75163
47.06625
46.32838
45.55336
44.75379
43.93853
43.1143
42.2857
41.45547
40.62754
39.80722
39.00204
38.22208
37.4764
36.77408
36.114
35.49112
34.8979
34.32801
33.7777
33.24558
32.7334
32.24566
31.78739
31.36275
30.97277
30.6141
30.28047
29.96508
29.66235
29.36868
29.08282
28.80567
28.53938
28.28605
28.04744
27.82506
27.61943
27.42894
27.24916
27.07413
26.89892
26.72186
26.54487
26.37298
26.21291
26.07053
25.94828
25.84454
25.75494
25.67475
25.60064
25.53154
25.46848
25.41353
25.36851
25.33285
25.30097
25.26249
25.20803
25.13307
25.03696
24.92021
24.78228
24.62643
24.45991
24.29167
24.12905
23.97563
23.83118
23.69291
23.55727
23.42151
23.28455
23.14694
23.01034
22.87674
22.74802
22.62574
22.51159
22.40769
22.31631
22.23947
22.17862
22.13359
22.10167
22.07784
22.05588
22.02944
21.99223
21.93827
21.86204
21.75884
21.62495
21.45803
21.25743
21.02463
20.7637
20.48182
20.18955
19.9011
19.63439
19.41076
19.25343
19.1814
19.20921
19.34508
19.59102
19.94292
20.38988
20.91389
21.49193
22.09955
22.71381
23.30944
23.85767
24.33369
24.72543
25.03937
25.30885
25.58817
25.93996
26.42765
27.11963
28.10102
29.45558
31.33355
33.94965
37.3824
41.66585
46.68076
52.03608
57.07887
60.91977
62.48203
61.55684
58.96493
55.3084
51.32375
47.7724
45.34024
44.49197
45.25293
47.10314
49.34149
51.40736
52.92128
53.73191
53.85305
53.34963
52.29585
50.73544
48.69272
46.20872
43.36955
40.31046
37.19313
34.16414
31.32762
28.74201
26.43669
24.41649
22.66779
21.16541
19.88022
18.78338
17.84806
17.05032
16.36932
15.78716
15.28853
14.86052
14.49222
14.17439
13.89925
13.66022
13.45171
13.26901
13.10814
12.96576
12.83908
12.72572
12.62367
12.53127
12.44705
12.36968
12.298
12.23108
12.16819
12.1087
12.05214
11.99834
11.94733
11.8995
11.85552
11.81631
11.7831
11.75754
11.74039
11.73171
11.73169
11.7404
11.75772
11.78289
11.81465
11.85133
11.89083
11.93072
11.96826
12.00043
12.02427
12.03696
12.03582
12.01859
11.98359
11.92982
11.85698
11.76547
11.65639
11.53144
11.3929
11.2435
11.08637
10.92255
10.75455
10.58504
10.41649
10.25114
10.09087
9.937195
9.791225
9.653696
9.524974
9.405086
9.293782
9.190599
9.094925
9.006046
8.923218
8.845748
8.773021
8.704514
8.639807
8.578612
8.520778
8.466273
8.414971
8.366628
8.320964
8.277727
8.236768
8.198097
8.161872
8.128319
8.097658
8.070009
8.045353
8.023574
8.004536
7.988151
7.974423
7.963438
7.95531
7.950107
7.947792
7.948256
7.95148
7.95772
7.967432
7.981046
7.99897
8.021914
8.051454
8.090534
8.142134
8.209561
8.296051
8.404001
8.534764
8.68848
8.864539
9.064728
9.296139
9.570266
9.900099
10.29708
10.76846
11.31552
11.93297
12.61002
13.33286
14.08609
14.85229
15.60935
16.32672
16.96531
17.45527
17.70627
17.65761
17.33099
16.80952
16.18896
15.54626
14.93097
14.36939
13.87041
13.43102
13.04274
12.69611
12.38311
12.0984
11.83948
11.60622
11.40011
11.2234
11.07826
10.96608
10.88699
10.84009
10.82396
10.8369
10.87683
10.94111
11.0264
11.1287
11.24348
11.3656
11.4899
11.61149
11.72579
11.8286
11.91621
11.98532
12.03316
12.05765
12.05713
12.03114
11.98069
11.9077
11.81455
11.70392
11.57862
11.44137
11.29466
11.14073
10.98157
10.81886
10.65388
10.48758
10.32079
10.15457
9.990522
9.830167
9.673905
9.521616
9.373316
9.228966
9.088435
8.951517
8.817956
8.68747
8.559756
8.434524
8.311563
8.190698
8.071803
7.95481
7.83971
7.726571
7.615456
7.506363
7.399324
7.294408
7.191695
7.091272
6.993225
6.8976
6.80439
6.713583
6.625159
6.539094
6.455357
6.373903
6.294677
6.217619
6.14267
6.069773
5.998873
5.929912
5.862835
5.797589
5.734123
5.672384
5.612321
5.553892
5.497051
5.441757
5.387968
5.335642
5.284741
5.235229
5.187071
5.140233
5.094683
5.05039
5.007325
4.965458
4.924757
4.88519
4.846727
4.809335
4.77299
4.737669
4.703373
4.670109
4.637939
4.607011
4.579196
54.82062
41.34258
40.8751
38.87163
37.99359
36.95948
36.18975
35.57062
35.09211
34.28064
32.10954
32.11526
32.14119
32.18234
32.20538
32.19776
32.18928
32.20676
32.25873
32.3309
32.29211
32.02533
31.75204
31.47342
31.19829
30.92808
30.68006
30.47264
30.32031
30.22776
30.19006
30.20436
30.28566
30.46893
30.76424
31.15927
31.62458
32.1311
32.66339
33.21372
33.77776
34.35371
34.962
35.59783
36.25941
36.94704
37.65866
38.38853
39.13476
39.89597
40.67035
41.42907
42.17084
42.90896
43.66973
44.36953
45.03359
45.67633
46.3244
46.9098
47.38388
47.72071
47.90316
47.91799
47.76202
47.4452
46.97996
46.37945
45.65881
44.83772
43.93793
42.98182
41.99142
40.98738
39.98762
39.00559
38.0494
37.12152
36.22013
35.34232
34.48679
33.66109
32.8814
32.1554
31.48939
30.88731
30.34765
29.86352
29.42222
29.01049
28.61959
28.24556
27.88962
27.55753
27.25689
26.99377
26.77005
26.58223
26.42252
26.28182
26.15255
26.02984
25.91209
25.80069
25.69876
25.60936
25.535
25.47775
25.43748
25.41047
25.38924
25.36536
25.33398
25.29634
25.25877
25.23051
25.22146
25.23758
25.27729
25.33245
25.39288
25.44994
25.4989
25.53925
25.57305
25.60264
25.62744
25.64062
25.62809
25.57526
25.47961
25.3565
25.21164
25.04541
24.85881
24.65586
24.44521
24.23805
24.04352
23.86558
23.70301
23.55128
23.40472
23.25881
23.11146
22.96307
22.81556
22.67141
22.53254
22.40012
22.27535
22.1601
22.05686
21.96804
21.89525
21.83828
21.79434
21.75836
21.72408
21.68505
21.63513
21.56875
21.48111
21.36841
21.22804
21.05873
20.8608
20.63663
20.39099
20.13145
19.86874
19.61704
19.3943
19.22232
19.1276
19.13446
19.26117
19.51934
19.91255
20.43451
21.06768
21.78348
22.54848
23.32962
24.09648
24.81847
25.46931
26.03409
26.51399
26.93318
27.35087
27.84654
28.51062
29.44031
30.73327
32.54495
35.00749
38.27813
42.62912
48.44825
56.05759
65.38365
75.20082
83.51817
88.59012
89.38506
85.86137
80.29975
73.60049
66.68092
60.44884
55.28282
51.23909
48.67457
47.52295
47.36155
47.72165
48.22159
48.57372
48.59138
48.20438
47.42063
46.26011
44.73881
42.87697
40.71869
38.34025
35.83978
33.31976
30.87162
28.56486
26.44324
24.52754
22.82131
21.3171
20.00288
18.86252
17.87811
17.03154
16.30542
15.68358
15.15134
14.69575
14.30546
13.97064
13.6828
13.43471
13.22014
13.03383
12.87129
12.72873
12.60302
12.49149
12.39195
12.30251
12.22137
12.14679
12.07724
12.01144
11.9483
11.88694
11.82672
11.76726
11.70841
11.65027
11.59313
11.53753
11.48424
11.43428
11.38874
11.34809
11.3129
11.2837
11.26077
11.24411
11.23339
11.22801
11.22713
11.22953
11.23346
11.23682
11.23743
11.23301
11.22133
11.20026
11.16797
11.12304
11.06456
10.99213
10.90589
10.80653
10.69528
10.57388
10.4446
10.30913
10.16871
10.02552
9.881702
9.7393
9.600135
9.465757
9.337399
9.215958
9.101994
8.995734
8.89711
8.805834
8.721453
8.64341
8.571107
8.503995
8.441626
8.383643
8.329641
8.279313
8.232451
8.188854
8.148267
8.110399
8.074937
8.041586
8.010177
7.980755
7.953593
7.929077
7.907581
7.889284
7.874142
7.86197
7.852586
7.845889
7.841878
7.840612
7.842144
7.846465
7.85348
7.863088
7.875341
7.890501
7.908677
7.929439
7.952064
7.976068
8.001672
8.030234
8.063693
8.104212
8.154755
8.218236
8.296525
8.39003
8.496876
8.615947
8.751087
8.910706
9.105105
9.344303
9.636567
9.987621
10.40029
10.87458
11.40854
11.99852
12.63784
13.31514
14.0127
14.70321
15.34925
15.89958
16.27994
16.42106
16.30654
15.98434
15.52998
15.01348
14.48562
13.97753
13.50499
13.07374
12.68382
12.33275
12.0178
11.73719
11.49044
11.27817
11.10148
10.96131
10.85788
10.79032
10.75648
10.7538
10.77987
10.83219
10.90779
11.00301
11.11353
11.23447
11.36085
11.48816
11.61183
11.72736
11.83047
11.91728
11.98429
12.02822
12.04569
12.03408
11.99376
11.92687
11.83611
11.72455
11.59538
11.45184
11.29705
11.1338
10.9646
10.79169
10.61699
10.44205
10.26803
10.09587
9.926628
9.761713
9.601985
9.447395
9.297799
9.153091
9.013093
8.877552
8.746139
8.618468
8.494126
8.372703
8.253822
8.137136
8.022343
7.909201
7.797534
7.687234
7.578246
7.470544
7.364159
7.259172
7.155682
7.053803
6.953676
6.855425
6.759103
6.664754
6.57244
6.482211
6.39411
6.308174
6.224391
6.142732
6.063163
5.98565
5.910155
5.836641
5.765067
5.695388
5.627563
5.56155
5.4973
5.434763
5.3739
5.314672
5.257035
5.200948
5.14637
5.093262
5.041586
4.991306
4.942388
4.894799
4.84851
4.80349
4.759713
4.717152
4.675782
4.635579
4.596522
4.558597
4.521792
4.486108
4.451551
4.418159
4.386084
4.357361
77.79103
32.45221
27.52925
26.41752
25.82219
25.59524
25.64036
25.84715
26.1699
26.57438
26.93178
27.13943
27.35034
27.55196
27.74402
27.91959
28.08472
28.24
28.37331
28.46283
28.48264
28.44319
28.39583
28.3484
28.30806
28.27823
28.26879
28.28804
28.34361
28.43992
28.57483
28.75272
28.98721
29.29172
29.67053
30.1139
30.60191
31.11471
31.6409
32.17466
32.7143
33.29822
33.91769
34.57187
35.26395
35.99794
36.77151
37.55837
38.35607
39.16381
40.00715
40.79775
41.55313
42.28942
43.01155
43.70881
44.36529
44.94975
45.41862
45.73658
45.86991
45.80729
45.54818
45.10018
44.47972
43.71015
42.81602
41.82265
40.7529
39.62931
38.47348
37.30724
36.1518
35.02838
33.95635
32.94881
32.01273
31.14447
30.33376
29.57556
28.86183
28.19123
27.56842
27.00081
26.49581
26.05679
25.68589
25.37667
25.11596
24.88884
24.6843
24.49827
24.33416
24.20177
24.11296
24.07525
24.08767
24.14026
24.21764