/*--------------------------------*- C++ -*----------------------------------*\
| =========                 |                                                 |
| \\      /  F ield         | foam-extend: Open Source CFD                    |
|  \\    /   O peration     | Version:     3.1                                |
|   \\  /    A nd           | Web:         http://www.extend-project.de       |
|    \\/     M anipulation  |                                                 |
\*---------------------------------------------------------------------------*/
FoamFile
{
    version     2.0;
    format      ascii;
    class       volScalarField;
    location    "12";
    object      p;
}
// * * * * * * * * * * * * * * * * * * * * * * * * * * * * * * * * * * * * * //

dimensions      [1 -1 -2 0 0 0 0];

internalField   nonuniform List<scalar> 
119952
(
6235.968
5512.96
5458.735
5628.677
5792.247
5770.408
5802.712
5839.203
5883.056
5929.348
5977.884
6026.791
6075.068
6122.01
6166.75
6208.585
6247.728
6282.666
6308.628
6302.864
6502.394
6425.028
6416.754
6652.975
6640.289
6684.919
6710.944
6780.457
6996.412
8557.123
3611.711
3559.67
3559.557
3554.197
3549.92
3551.796
3552.768
3558.205
3568.662
3555.016
3542.884
3566.539
3576.669
3592.603
3611.17
3633.184
3659.237
3687.516
3720.042
3772.139
3779.611
3815.514
3861.508
3911.194
3965.845
4025.361
4089.262
4156.789
4229.554
4294.829
4371.034
4454.268
4537.814
4623.445
4711.315
4801.522
4898.087
5024.69
5199.582
5185.746
5251.39
5356.237
5437.054
5490.479
5529.389
5574.097
5621.522
5669.857
5718.989
5768.046
5816.056
5862.433
5906.847
5948.847
5988.128
6024.428
6058.103
6091.922
6134.357
6173.314
6201.105
6268.864
6355.071
6384.909
6406.82
6425.178
6398.304
6248.696
6215.67
6228.503
6224.749
6217.513
6205.767
6189.348
6168.159
6141.664
6109.644
6072.523
6031.653
5989.158
5947.283
5908.193
5873.914
5846.284
5826.872
5816.955
5817.573
5829.368
5852.62
5887.718
5935.547
5997.828
6078.995
6187.337
6330.42
6513.748
6722.894
6890.24
6956.036
7013.158
7031.002
6904.953
6644.175
6327.054
6061.301
5912.372
5884.662
5949.522
6064.054
6198.043
6332.026
6456.543
6568.507
6667.921
6756.019
6834.295
6904.401
6967.373
7024.637
7076.819
7124.545
7168.399
7208.984
7246.797
7282.188
7315.452
7346.831
7376.506
7404.644
7431.359
7456.761
7480.927
7503.923
7525.807
7546.627
7566.408
7585.14
7602.854
7619.661
7635.588
7650.667
7664.932
7678.428
7691.197
7703.314
7714.786
7725.672
7736.181
7746.067
7755.511
7764.562
7773.25
7781.705
7789.967
7798.182
7806.27
7814.284
7822.235
7830.127
7837.969
7845.766
7853.523
7861.237
7868.887
7876.401
7883.664
7890.995
7931.663
7940.152
7947.957
7955.579
7963.104
7970.75
7978.374
7985.996
7993.615
8001.221
8008.806
8016.352
8023.856
8031.298
8038.667
8045.936
8053.08
8060.077
8066.905
8073.522
8079.886
8085.977
8091.754
8097.174
8102.196
8106.772
8110.859
8114.403
8117.355
8119.646
8121.187
8121.835
8121.331
8119.103
8113.524
8104.366
8116.333
8123.743
8129.607
8134.479
8138.669
8142.476
8146.03
8149.45
8152.789
8156.103
8159.431
8162.797
8166.217
8169.698
8173.242
8176.85
8180.523
8184.268
8188.098
8192.038
8196.142
8200.453
8204.89
8209.794
8215.246
8221.328
8228.091
8235.795
8245.251
8256.682
8268.322
8277.943
8284.487
8263.025
8218.963
8238.812
8236.849
8252.844
8264.438
8269.923
8274.141
8276.959
8277.627
8276.943
8275.23
8273.185
8271.647
8271.127
8271.911
8273.572
8275.473
8276.841
8277.201
8275.857
8272.801
8267.669
8260.484
8251.203
8239.58
8225.756
8209.684
8191.462
8171.104
8148.656
8124.271
8098.154
8070.566
8041.832
8012.363
7982.605
7953.049
7924.22
7896.643
7870.825
7847.235
7826.303
7808.404
7793.912
7783.156
7776.274
7773.064
7773.723
7778.284
7786.517
7798.114
7812.681
7829.78
7849.192
7869.276
7890.72
7912.63
7934.476
7955.967
7976.778
7996.672
8015.486
8033.109
8049.47
8064.528
8078.27
8090.703
8101.855
8111.772
8120.51
8128.131
8134.696
8140.257
8144.868
8148.584
8151.463
8153.568
8154.966
8155.726
8155.917
8155.604
8154.847
8153.702
8152.221
8150.448
8148.427
8146.199
8143.801
8141.268
8138.631
8135.918
8133.152
8130.353
8127.541
8124.731
8121.935
8119.167
8116.434
8113.743
8111.098
8108.503
8105.959
8103.467
8101.024
8098.628
8096.276
8093.964
8091.686
8089.436
8087.209
8084.997
8082.793
8080.59
8078.38
8076.153
8073.901
8071.616
8069.288
8066.906
8064.46
8061.939
8059.329
8056.617
8053.788
8050.821
8047.695
8044.382
8040.847
8037.045
8032.918
8028.387
8023.317
8017.516
8010.649
8002.165
7991.53
7981.16
7986.727
8038.679
6463.696
6349.8
6213.237
6072.401
5927.225
5779.662
5631.428
5483.752
5337.358
5167.23
5028.397
4894.438
4763.451
4640.53
4524.088
4414.412
4311.371
4214.824
4077.823
4012.139
3929.003
3851.789
3787.028
3728.079
3674.802
3626.956
3583.551
3545.692
3514.035
3472.176
3442.99
3417.205
3393.64
3372.747
3353.822
3336.904
3323.838
3318.298
3292.655
3277.779
3271.974
3267.294
3264.516
3263.864
3265.022
3268.649
3274.529
3277.691
3289.286
3303.662
3318.882
3336.912
3358.644
3384.13
3413.337
3448.233
3427.381
3472.489
3515.456
3560.985
3611.704
3667.627
3727.951
3792.173
3860.033
3931.716
4007.661
4085.749
4165.282
4248.242
4334.858
4425.053
4519.525
4618.235
4719.39
4815.09
4892.857
4961.081
5034.229
5106.467
5170.241
5225.661
5277.723
5329.522
5381.626
5433.482
5484.262
5533.369
5580.445
5625.322
5667.928
5708.288
5746.679
5783.754
5820.698
5858.493
5897.559
5938.263
5980.223
6025.137
6056.317
6065.677
6058.485
6031.285
5985.658
5949.085
5930.196
5916.917
5901.7
5882.763
5860.573
5835.115
5805.703
5771.948
5734.166
5693.503
5651.739
5610.882
5572.825
5539.378
5512.324
5493.393
5483.944
5484.838
5496.764
5520.052
5554.7
5600.553
5657.793
5729.302
5820.101
5932.465
6068.64
6219.734
6351.96
6448.649
6530.468
6569.375
6464.289
6131.79
5730.56
5477.086
5399.619
5457.861
5597.365
5760.12
5920.104
6064.131
6189.95
6299.092
6394.242
6477.986
6552.369
6619.196
6679.554
6734.208
6784.102
6829.908
6872.087
6911.199
6947.741
6982.027
7014.303
7044.784
7073.647
7101.038
7127.072
7151.843
7175.429
7197.891
7219.279
7239.629
7258.98
7277.349
7294.773
7311.316
7327.019
7341.917
7356.046
7369.444
7382.138
7394.196
7405.672
7416.599
7427.036
7437.094
7446.725
7456.288
7465.525
7474.494
7483.373
7492.064
7500.623
7509.098
7517.494
7525.822
7534.061
7542.237
7550.306
7558.337
7566.242
7574.27
7582.451
7591.666
7660.009
7667.933
7674.582
7681.845
7689.313
7696.745
7704.19
7711.623
7719.034
7726.419
7733.771
7741.066
7748.319
7755.492
7762.565
7769.517
7776.336
7782.997
7789.474
7795.738
7801.759
7807.502
7812.93
7818.006
7822.69
7826.943
7830.722
7833.982
7836.677
7838.752
7840.136
7840.739
7840.44
7839.177
7837.378
7836.816
7840.454
7846.02
7850.638
7854.989
7858.97
7862.682
7866.232
7869.684
7873.092
7876.497
7879.93
7883.41
7886.951
7890.559
7894.234
7897.977
7901.789
7905.676
7909.648
7913.729
7917.954
7922.353
7926.971
7931.935
7937.323
7943.254
7949.8
7956.968
7964.981
7973.658
7981.587
7987.044
7988.642
7981.33
7917.255
7929.585
7940.96
7949.334
7956.304
7962.457
7968.756
7974.258
7977.263
7977.002
7973.847
7969.523
7966.105
7965.075
7966.161
7968.265
7970.609
7972.315
7972.689
7971.493
7968.322
7963.099
7955.676
7946.003
7934.044
7919.814
7903.336
7884.664
7863.836
7840.927
7816.079
7789.491
7761.426
7732.221
7702.277
7672.058
7642.078
7612.886
7585.024
7558.975
7535.191
7514.091
7496.068
7481.471
7470.569
7463.517
7460.365
7461.182
7465.89
7474.283
7486.056
7500.822
7518.136
7537.5
7558.283
7579.795
7601.663
7623.487
7644.887
7665.501
7685.127
7703.655
7720.996
7737.086
7751.891
7765.403
7777.635
7788.618
7798.399
7807.043
7814.617
7821.151
7826.699
7831.324
7835.079
7838.027
7840.236
7841.773
7842.705
7843.096
7843.005
7842.489
7841.6
7840.382
7838.877
7837.126
7835.166
7833.033
7830.758
7828.372
7825.9
7823.364
7820.783
7818.176
7815.558
7812.943
7810.341
7807.762
7805.212
7802.696
7800.218
7797.781
7795.384
7793.027
7790.707
7788.423
7786.171
7783.945
7781.742
7779.554
7777.376
7775.201
7773.022
7770.831
7768.621
7766.382
7764.107
7761.786
7759.41
7756.968
7754.45
7751.843
7749.136
7746.311
7743.355
7740.244
7736.96
7733.467
7729.742
7725.724
7721.386
7716.633
7711.476
7705.923
7700.501
7696.145
7694.797
7697.075
7703.605
3256.539
3267.573
3294.725
3334.665
3387.785
3453.26
3533.045
3626.572
3733.657
3853.829
3968.624
4112.158
4264.861
4426.521
4595.51
4770.221
4948.366
5127.771
5306.753
5473.803
5645.703
5811.489
5968.166
6114.035
6247
6364.333
6463.69
6543.139
6610.538
6647.279
6663.708
6658.977
6633.521
6588.286
6524.514
6443.69
6347.92
6239.5
6110.118
5983.317
5845.765
5702.447
5555.119
5405.828
5256.259
5108.162
4963.47
4822.68
4684.794
4554.627
4428.707
4309.144
4196.011
4089.446
3990.489
3903.836
3715.553
3635.615
3567.298
3502.326
3441.023
3384.963
3334.68
3289.647
3249.145
3212.126
3178.222
3148.153
3120.667
3095.196
3072.231
3051.918
3033.969
3018.074
3003.744
2990.562
2979.117
2969.23
2961.047
2955.073
2951.517
2950.235
2951.061
2953.848
2958.646
2966.265
2976.303
2988.638
3003.885
3022.52
3044.367
3069.677
3098.121
3131.77
3171.901
3213.27
3255.02
3300.828
3352.296
3408.731
3469.535
3534.142
3602.497
3674.167
3749.069
3827.314
3909.344
3993.921
4081.208
4171.295
4263.316
4356.892
4450.089
4541.907
4624.648
4697.683
4769.477
4841.858
4910.314
4972.369
5030.008
5086.131
5141.761
5196.505
5249.669
5300.789
5349.644
5396.166
5440.371
5482.381
5522.425
5560.823
5598.315
5635.663
5673.591
5708.693
5743.402
5777.318
5800.857
5808.041
5802.149
5784.92
5754.237
5721.434
5696.261
5675.948
5654.438
5630.125
5603.784
5575.296
5543.59
5507.819
5468.136
5425.934
5382.89
5340.863
5301.483
5266.472
5237.593
5216.518
5204.874
5203.822
5213.604
5233.967
5264.647
5303.734
5347.153
5395.07
5453.564
5530.643
5631.87
5748.884
5855.762
5942.724
6036.9
6094.864
5960.692
5641.754
5301.918
5080.92
5036.698
5141.321
5321.013
5511.718
5693.396
5845.939
5973.233
6080.292
6171.835
6251.677
6322.684
6386.883
6445.134
6497.84
6545.957
6590.433
6631.322
6669.164
6704.719
6738.167
6769.681
6799.47
6827.707
6854.527
6880.041
6904.339
6927.492
6949.559
6970.586
6990.611
7009.667
7027.782
7044.996
7061.359
7076.91
7091.686
7105.724
7119.061
7131.733
7143.796
7155.311
7166.338
7176.935
7187.164
7197.069
7206.723
7216.132
7225.43
7234.609
7243.723
7252.753
7261.689
7270.572
7279.393
7288.13
7296.781
7305.329
7313.798
7322.181
7330.548
7338.817
7346.768
7354.009
7362.805
7371.288
7379.045
7386.48
7393.905
7401.36
7408.777
7416.123
7423.401
7430.612
7437.751
7444.81
7451.751
7458.566
7465.242
7471.763
7478.109
7484.255
7490.173
7495.835
7501.208
7506.26
7510.956
7515.262
7519.142
7522.562
7525.489
7527.89
7529.74
7531.02
7531.741
7531.978
7531.957
7532.139
7533.211
7535.671
7539.164
7542.913
7546.567
7550.077
7553.493
7556.865
7560.228
7563.608
7567.03
7570.514
7574.069
7577.7
7581.405
7585.178
7589.011
7592.899
7596.841
7600.839
7604.908
7609.067
7613.349
7617.789
7622.477
7627.448
7632.738
7638.278
7644.353
7650.445
7656.311
7661.441
7664.747
7666.292
7668.64
7671.885
7680.359
7689.871
7697.399
7704.252
7711.071
7718.364
7724.506
7726.953
7726.13
7724.805
7724.62
7725.868
7726.976
7727.493
7728.407
7729.825
7730.968
7731.268
7730.147
7727.048
7721.829
7714.428
7704.768
7692.829
7678.607
7662.123
7643.418
7622.544
7599.547
7574.547
7547.733
7519.358
7489.742
7459.279
7428.431
7397.721
7367.751
7339.107
7312.246
7287.599
7265.589
7246.622
7231.065
7219.217
7211.289
7207.388
7207.561
7211.746
7219.744
7231.246
7245.874
7263.169
7282.604
7303.564
7325.413
7347.627
7369.7
7391.321
7412.14
7431.901
7450.533
7467.962
7484.124
7498.985
7512.541
7524.81
7535.824
7545.63
7554.31
7561.984
7568.693
7574.453
7579.283
7583.22
7586.347
7588.748
7590.494
7591.652
7592.284
7592.448
7592.199
7591.588
7590.642
7589.402
7587.912
7586.209
7584.327
7582.295
7580.143
7577.895
7575.572
7573.192
7570.774
7568.332
7565.881
7563.433
7560.996
7558.577
7556.181
7553.812
7551.474
7549.167
7546.892
7544.646
7542.429
7540.236
7538.064
7535.909
7533.765
7531.627
7529.488
7527.341
7525.181
7522.999
7520.787
7518.539
7516.244
7513.895
7511.482
7508.995
7506.423
7503.756
7500.98
7498.082
7495.046
7491.856
7488.493
7484.935
7481.165
7477.169
7472.965
7468.618
7464.329
7460.399
7457.347
7455.536
7455.863
7458.109
3259.594
3234.25
3203.997
3159.808
3128.719
3072.062
3055.533
3051.27
3059.117
3046.518
3017.394
2997.719
2994.064
3003.491
3026.384
3061.913
3109.625
3169.834
3243.405
3330.042
3429.75
3542.719
3667.259
3804.731
3952.516
4109.41
4274.077
4444.644
4619.169
4794.903
4972.523
5125.558
5301.46
5465.488
5618.811
5760.219
5888.362
6001.283
6097.255
6175.831
6235.419
6270.941
6283.316
6274.258
6244.674
6195.402
6127.782
6043.591
5944.835
5833.653
5711.938
5581.752
5444.092
5300.768
5153.803
5005.119
4856.6
4710.079
4567.054
4428.505
4295.045
4167.454
4045.997
3930.609
3821.157
3717.687
3620.236
3528.314
3439.781
3361.131
3292.85
3229.184
3169.64
3115.528
3067.147
3023.907
2984.908
2949.675
2917.913
2888.727
2861.878
2837.609
2815.884
2796.509
2779.122
2763.365
2749.139
2736.725
2725.537
2715.26
2706.965
2700.999
2697.234
2695.498
2695.589
2697.687
2702.011
2708.504
2717.375
2729.04
2743.693
2761.412
2782.388
2806.73
2835.314
2868.281
2904.874
2944.747
2987.903
3035.152
3087.047
3143.616
3204.313
3268.872
3337.206
3409.16
3484.705
3563.833
3646.242
3731.3
3818.667
3908.061
3998.736
4090.088
4180.773
4269.457
4352.853
4430.216
4504.783
4578.274
4649.083
4715.695
4778.702
4839.542
4898.998
4956.945
5012.929
5066.62
5117.884
5166.707
5213.142
5257.269
5299.229
5339.221
5377.547
5414.28
5448.888
5483.046
5513.592
5540.029
5558.704
5566.17
5562.183
5548.084
5524.308
5496.026
5468.925
5443.072
5415.741
5386.553
5356.944
5325.994
5291.627
5252.688
5209.206
5162.764
5115.301
5069.431
5026.417
4987.889
4955.682
4931.412
4916.83
4913.727
4922.427
4941.529
4968.091
4997.759
5022.006
5037.612
5051.928
5083.075
5147.59
5235.302
5328.446
5421.168
5514.167
5562.631
5475.019
5281.301
5038.399
4871.556
4852.373
4964.767
5151.183
5351.191
5519.339
5662.398
5781.071
5879.859
5963.85
6037.34
6103.298
6163.308
6217.921
6267.631
6313.239
6355.589
6394.955
6431.326
6465.695
6498.111
6528.659
6557.577
6585.031
6611.147
6636.026
6659.748
6682.378
6703.968
6724.558
6744.184
6762.875
6780.662
6797.582
6813.675
6828.98
6843.531
6857.363
6870.507
6883.003
6894.908
6906.287
6917.2
6927.7
6937.848
6947.706
6957.347
6966.828
6976.204
6985.479
6994.772
7004.047
7013.313
7022.526
7031.7
7040.826
7049.9
7058.891
7067.818
7076.629
7085.375
7093.915
7102.411
7110.775
7119.315
7127.779
7135.815
7143.551
7151.178
7158.738
7166.193
7173.517
7180.718
7187.812
7194.815
7201.729
7208.423
7214.986
7221.392
7227.626
7233.668
7239.495
7245.084
7250.408
7255.441
7260.153
7264.515
7268.499
7272.076
7275.219
7277.908
7280.127
7281.871
7283.16
7284.046
7284.639
7285.125
7285.79
7286.97
7288.967
7291.75
7294.912
7298.136
7301.344
7304.558
7307.807
7311.109
7314.474
7317.916
7321.448
7325.076
7328.794
7332.594
7336.463
7340.387
7344.35
7348.343
7352.362
7356.414
7360.513
7364.652
7368.844
7373.172
7377.724
7382.441
7387.277
7392.182
7397.044
7401.545
7405.773
7409.489
7412.856
7416.099
7420.015
7426.684
7435.127
7443.075
7450.383
7457.123
7463.529
7469.417
7473.974
7476.991
7479.064
7480.228
7480.967
7482.74
7485.939
7489.102
7490.699
7491.197
7490.706
7488.928
7485.521
7480.167
7472.555
7462.603
7450.378
7435.875
7419.122
7400.168
7379.005
7355.622
7330.151
7302.796
7273.812
7243.518
7212.303
7180.636
7149.089
7118.339
7088.961
7061.371
7035.967
7013.188
6993.47
6977.209
6964.737
6956.301
6952.038
6951.997
6956.164
6964.317
6976.113
6991.177
7009.041
7029.155
7050.894
7073.546
7096.468
7119.119
7141.093
7162.2
7182.313
7201.292
7218.996
7235.343
7250.304
7263.886
7276.118
7287.045
7296.727
7305.252
7312.714
7319.228
7324.961
7329.892
7333.897
7337.054
7339.49
7341.29
7342.52
7343.241
7343.51
7343.385
7342.927
7342.149
7341.069
7339.737
7338.192
7336.467
7334.593
7332.598
7330.505
7328.325
7326.078
7323.787
7321.467
7319.133
7316.798
7314.467
7312.148
7309.847
7307.568
7305.314
7303.087
7300.887
7298.711
7296.559
7294.427
7292.313
7290.211
7288.116
7286.025
7283.929
7281.824
7279.702
7277.558
7275.383
7273.172
7270.914
7268.603
7266.229
7263.786
7261.262
7258.649
7255.937
7253.116
7250.175
7247.105
7243.895
7240.541
7237.045
7233.422
7229.72
7226.025
7222.489
7219.313
7216.736
7215.052
7214.473
7214.966
3436.049
3414.875
3392.942
3346.235
3308.064
3236.155
3196.89
3156.743
3116.108
3075.545
3035.218
2996.686
2958.249
2921.191
2886.961
2854.43
2762.109
2739.722
2723.03
2708.675
2692.721
2678.405
2670.488
2672.045
2684.471
2708.517
2744.61
2793.018
2853.35
2926.275
3013.378
3113.864
3227.416
3353.565
3491.767
3641.225
3800.365
3967.308
4139.992
4316.075
4493.019
4668.792
4833.827
5003.762
5165.953
5318.685
5459.069
5586.198
5698.27
5794.005
5872.425
5931.425
5967.488
5980.247
5971.007
5940.725
5890.477
5821.8
5736.65
5637.168
5525.377
5403.107
5272.543
5135.227
4992.435
4845.733
4696.989
4548.366
4402.003
4259.575
4121.981
3989.947
3864.27
3744.881
3631.539
3524.221
3422.889
3327.189
3237.512
3154.359
3079.268
3011.972
2950.515
2894.108
2842.988
2797.171
2756.191
2719.348
2686.096
2655.882
2628.16
2602.859
2580.033
2559.524
2540.988
2524.09
2508.584
2494.453
2481.862
2470.602
2460.794
2453.168
2447.133
2442.742
2440.165
2439.044
2439.83
2442.782
2447.978
2455.647
2465.992
2479.077
2494.94
2513.856
2535.965
2562.142
2592.778
2628.066
2667.943
2711.989
2760.023
2812.174
2868.594
2929.169
2993.76
3062.327
3134.829
3211.159
3291.119
3374.336
3460.285
3548.394
3638.113
3728.683
3819.333
3908.97
3996.491
4080.631
4160.868
4238.208
4313.706
4387.118
4457.72
4525.497
4590.996
4654.604
4716.259
4775.668
4832.59
4886.923
4938.693
4987.955
5034.711
5079.035
5121.007
5160.657
5197.885
5232.51
5264.38
5292.016
5314.581
5330.217
5336.665
5333.138
5320.359
5299.582
5273.427
5244.759
5214.227
5180.738
5145.706
5112.535
5079.093
5040.699
4996.525
4947.226
4896.058
4844.282
4793.803
4745.905
4702.319
4665.142
4636.426
4618.453
4613.53
4621.726
4643.36
4674.537
4698.768
4692.554
4653.09
4606.288
4581.334
4612.177
4687.389
4793.615
4898.931
4988.822
5050.492
5032.372
4955.086
4853.918
4790.014
4797.947
4901.119
5053.899
5220.121
5370.126
5498.729
5606.019
5694.757
5769.45
5834.803
5893.842
5947.805
5997.417
6043.224
6085.751
6125.377
6162.714
6197.497
6230.216
6261.153
6290.438
6318.237
6344.689
6369.903
6393.967
6416.951
6438.908
6459.881
6479.906
6499.011
6517.224
6534.571
6551.085
6566.802
6581.758
6595.984
6609.514
6622.364
6634.565
6646.188
6657.311
6668.011
6678.34
6688.343
6698.092
6707.662
6717.126
6726.535
6735.901
6745.288
6754.726
6764.212
6773.706
6783.209
6792.724
6802.228
6811.675
6821.067
6830.368
6839.599
6848.698
6857.747
6866.631
6875.407
6884.075
6892.493
6900.635
6908.57
6916.339
6923.943
6931.376
6938.641
6945.753
6952.711
6959.476
6966.171
6972.563
6978.779
6984.799
6990.601
6996.166
7001.474
7006.502
7011.229
7015.631
7019.684
7023.365
7026.653
7029.529
7031.985
7034.018
7035.64
7036.888
7037.828
7038.564
7039.244
7040.07
7041.26
7042.993
7045.267
7047.902
7050.713
7053.621
7056.621
7059.723
7062.944
7066.286
7069.745
7073.326
7077.027
7080.838
7084.741
7088.709
7092.719
7096.747
7100.779
7104.791
7108.753
7112.667
7116.524
7120.327
7124.215
7128.332
7132.545
7136.684
7140.658
7144.438
7147.98
7151.425
7154.704
7157.917
7161.298
7165.65
7172.086
7180.136
7188.258
7195.793
7202.734
7209.359
7215.733
7221.298
7225.395
7228.446
7231.298
7234.36
7237.736
7241.136
7244.646
7248.075
7250.192
7249.975
7247.726
7243.672
7237.719
7229.681
7219.455
7206.948
7192.115
7174.994
7155.56
7133.817
7109.82
7083.688
7055.631
7025.916
6994.878
6962.908
6930.457
6898.05
6866.379
6836.201
6807.931
6781.782
6758.236
6737.795
6720.894
6707.905
6699.109
6694.658
6694.586
6698.915
6707.458
6719.904
6735.834
6754.73
6776.017
6799.044
6822.948
6846.782
6870.032
6892.545
6914.175
6934.81
6954.215
6972.231
6988.786
7003.864
7017.486
7029.703
7040.577
7050.177
7058.565
7065.778
7071.976
7077.407
7082.134
7086.02
7089.069
7091.427
7093.175
7094.379
7095.094
7095.375
7095.274
7094.832
7094.083
7093.069
7091.826
7090.379
7088.757
7086.988
7085.109
7083.149
7081.103
7078.977
7076.802
7074.596
7072.377
7070.155
7067.932
7065.712
7063.505
7061.317
7059.152
7057.009
7054.889
7052.79
7050.71
7048.647
7046.597
7044.558
7042.522
7040.486
7038.444
7036.389
7034.315
7032.218
7030.089
7027.923
7025.712
7023.448
7021.124
7018.733
7016.267
7013.719
7011.083
7008.351
7005.517
7002.578
6999.533
6996.386
6993.152
6989.859
6986.56
6983.329
6980.284
6977.555
6975.315
6973.709
6972.831
6972.584
3514.338
3489.96
3460.659
3419.202
3389.654
3326.245
3297.273
3267.803
3237.342
3206.254
3174.534
3142.338
3108.332
3073.318
3035.388
2930.336
2890.713
2850.871
2810.616
2770.21
2729.751
2689.837
2650.603
2612.303
2575.466
2541.6
2511.809
2484.897
2461.151
2440.035
2421.669
2408.161
2401.483
2403.263
2414.675
2436.518
2469.789
2515.265
2573.747
2645.324
2730.16
2828.483
2940.145
3064.682
3201.342
3349.106
3506.543
3671.868
3843.075
4018.071
4194.452
4369.25
4538.904
4706.457
4866.388
5016.937
5156.529
5282.853
5393.488
5487.269
5563.143
5619.235
5653.197
5663.918
5651.964
5618.466
5564.899
5493.09
5405.234
5303.637
5190.498
5067.819
4937.306
4800.501
4658.573
4512.853
4365.558
4218.43
4073.342
3932.624
3797.367
3668.036
3545.177
3428.535
3317.98
3213.694
3115.646
3023.584
2937.839
2858.745
2786.536
2721.295
2662.519
2609.49
2561.84
2519.32
2481.477
2447.599
2416.985
2389.101
2363.617
2340.356
2319.236
2300.153
2282.63
2266.328
2251.072
2236.93
2224.399
2213.526
2204.157
2197.146
2191.51
2186.36
2182.622
2179.687
2178.708
2179.934
2183.473
2189.433
2197.874
2208.772
2221.952
2237.628
2255.754
2278.345
2306.799
2342.067
2382.314
2427.09
2475.84
2528.463
2585.103
2645.79
2710.499
2779.338
2852.408
2929.629
3010.774
3095.413
3182.905
3272.477
3363.341
3454.636
3545.509
3635.081
3722.593
3807.474
3889.494
3969.079
4046.934
4123.274
4197.732
4270.069
4340.345
4408.556
4474.529
4538.01
4598.808
4656.831
4712.095
4764.669
4814.592
4861.873
4906.455
4948.19
4986.796
5021.903
5053.039
5079.351
5099.822
5113.192
5118.129
5114.107
5101.518
5081.333
5054.987
5024.162
4989.223
4949.934
4910.636
4871.888
4832.364
4789.302
4741.148
4685.052
4627.375
4569.956
4513.722
4459.432
4408.792
4364.161
4328.29
4305.252
4299.86
4311.664
4341.667
4385.683
4427.848
4400.218
4265.376
4095.286
3997.055
4020.721
4119.548
4261.484
4398.374
4512.044
4602.083
4648.307
4664.26
4674.667
4683.331
4733.507
4833.925
4962.257
5101.387
5232.014
5345.318
5439.87
5518.024
5583.623
5640.587
5691.863
5739.117
5783.287
5824.739
5863.63
5900.197
5934.751
5967.307
5998.071
6027.243
6054.963
6081.366
6106.565
6130.649
6153.691
6175.744
6196.852
6217.047
6236.356
6254.8
6272.401
6289.182
6305.17
6320.398
6334.901
6348.702
6361.833
6374.318
6386.161
6397.43
6408.225
6418.625
6428.698
6438.516
6448.144
6457.643
6467.066
6476.462
6485.873
6495.344
6504.917
6514.573
6524.298
6534.081
6543.965
6553.915
6563.836
6573.716
6583.548
6593.334
6603.023
6612.598
6622.009
6631.268
6640.378
6649.264
6657.875
6666.226
6674.346
6682.244
6689.919
6697.368
6704.598
6711.615
6718.435
6725.177
6731.329
6737.376
6743.204
6748.774
6754.071
6759.08
6763.785
6768.168
6772.214
6775.907
6779.228
6782.165
6784.708
6786.858
6788.623
6790.026
6791.118
6791.974
6792.673
6793.337
6794.128
6795.212
6796.708
6798.615
6800.853
6803.332
6805.991
6808.807
6811.782
6814.924
6818.242
6821.738
6825.406
6829.222
6833.161
6837.202
6841.317
6845.461
6849.572
6853.624
6857.61
6861.499
6865.236
6868.737
6871.971
6875.324
6879.182
6883.104
6886.635
6889.759
6892.585
6895.179
6897.677
6900.174
6902.817
6905.895
6910.465
6916.933
6924.967
6933.458
6941.512
6948.998
6955.956
6962.203
6967.718
6972.513
6976.827
6981.017
6985.282
6989.732
6994.072
6998.042
7001.476
7004.288
7005.606
7004.314
7000.476
6994.135
6985.572
6974.877
6961.979
6946.78
6929.221
6909.262
6886.954
6862.397
6835.695
6807.027
6776.653
6744.909
6712.192
6678.964
6645.705
6613.002
6581.803
6552.718
6525.812
6501.478
6480.309
6462.779
6449.245
6440.041
6435.435
6435.472
6440.15
6449.294
6462.605
6479.601
6499.72
6522.383
6546.951
6572.018
6596.543
6620.496
6643.89
6666.319
6687.527
6707.33
6725.613
6742.333
6757.49
6771.125
6783.307
6794.116
6803.634
6811.942
6819.113
6825.252
6830.469
6834.843
6838.445
6841.342
6843.628
6845.351
6846.563
6847.312
6847.64
6847.583
6847.16
6846.428
6845.456
6844.264
6842.875
6841.314
6839.61
6837.79
6835.875
6833.885
6831.842
6829.76
6827.653
6825.537
6823.432
6821.327
6819.214
6817.109
6815.021
6812.954
6810.908
6808.878
6806.863
6804.864
6802.879
6800.904
6798.936
6796.969
6794.997
6793.016
6791.02
6789.003
6786.962
6784.889
6782.777
6780.62
6778.412
6776.146
6773.816
6771.416
6768.942
6766.388
6763.752
6761.031
6758.226
6755.343
6752.391
6749.392
6746.376
6743.392
6740.503
6737.803
6735.378
6733.364
6731.8
6730.817
6730.184
3416.403
3378.927
3352.111
3314.428
3274.741
3237.938
3203.341
3171.406
3141.526
3111.551
3016.712
2987.845
2958.989
2929.405
2898.845
2867.278
2834.604
2800.481
2764.908
2728.377
2691.672
2652.848
2613.188
2572.861
2532.246
2491.421
2450.553
2409.892
2369.786
2330.097
2291.528
2256.271
2224.231
2195.45
2170.174
2149.536
2135.325
2128.627
2130.465
2141.8
2163.475
2195.999
2240.362
2297.15
2366.853
2449.774
2546.146
2655.903
2778.648
2913.647
3059.782
3215.57
3379.209
3548.615
3721.678
3895.691
4067.858
4236.039
4399.883
4556.489
4703.838
4840.641
4964.157
5071.705
5161.491
5232.238
5282.599
5311.099
5316.768
5299.763
5261.125
5202.559
5126.173
5034.487
4930.072
4815.207
4692.165
4562.323
4426.862
4287.104
4143.862
3999.381
3855.527
3713.554
3575.329
3442.788
3317.434
3199.404
3088.057
2982.989
2884.071
2791.202
2704.193
2623.156
2548.298
2479.831
2418.079
2362.974
2313.938
2270.475
2232.25
2198.772
2169.101
2142.243
2117.559
2094.844
2073.996
2054.969
2037.72
2021.35
2005.818
1990.747
1976.316
1964.071
1954.257
1946.248
1939.665
1934.316
1928.949
1922.741
1916.863
1913.714
1913.223
1915.16
1919.224
1925.211
1933.101
1942.38
1954.074
1966.278
1983.824
2010.848
2045.422
2086.668
2132.834
2182.956
2236.683
2294.004
2354.986
2419.793
2488.846
2562.477
2640.738
2723.551
2810.436
2900.434
2992.41
3085.305
3178.135
3270.017
3360.203
3448.151
3533.618
3616.72
3697.958
3778.017
3857.288
3935.632
4012.669
4087.99
4161.193
4231.919
4299.887
4364.95
4427.091
4486.357
4542.848
4596.629
4647.644
4695.706
4740.509
4781.597
4818.386
4850.227
4876.294
4895.74
4907.699
4911.187
4905.751
4891.762
4870.275
4842.22
4808.489
4769.332
4726.394
4685.501
4642.455
4592.834
4540.968
4486.887
4424.824
4361.221
4296.894
4232.936
4169.379
4107.879
4051.724
4003.159
3969.88
3962.901
3986.548
4049.304
4142.044
4187.618
4217.036
4006.137
3621.883
3374.363
3383.114
3509.449
3708.848
3905.845
4070.441
4203.204
4302.701
4383.527
4463.303
4533.019
4624.785
4729.239
4848.649
4972.033
5087.416
5187.974
5272.332
5342.212
5400.62
5450.771
5495.514
5536.845
5575.706
5612.439
5647.247
5680.268
5711.595
5741.362
5769.699
5796.71
5822.505
5847.185
5870.835
5893.521
5915.293
5936.19
5956.24
5975.463
5993.875
6011.49
6028.321
6044.384
6059.701
6074.303
6088.225
6101.493
6114.068
6125.964
6137.292
6148.136
6158.562
6168.629
6178.421
6188.035
6197.534
6206.967
6216.371
6225.788
6235.279
6244.889
6254.635
6264.512
6274.52
6284.635
6294.84
6305.123
6315.461
6325.829
6336.206
6346.604
6356.943
6367.139
6377.179
6387.061
6396.761
6406.217
6415.389
6424.271
6432.871
6441.191
6449.222
6456.958
6464.398
6471.535
6478.35
6484.743
6491.182
6497.175
6502.83
6508.16
6513.163
6517.833
6522.161
6526.14
6529.758
6533.008
6535.881
6538.37
6540.48
6542.223
6543.611
6544.666
6545.454
6546.077
6546.606
6547.123
6547.761
6548.646
6549.862
6551.443
6553.375
6555.605
6558.078
6560.765
6563.653
6566.743
6570.06
6573.626
6577.418
6581.394
6585.503
6589.703
6593.968
6598.286
6602.587
6606.772
6610.765
6614.547
6618.091
6621.23
6623.845
6626.953
6630.831
6634.401
6637.231
6639.53
6641.427
6643.067
6644.789
6646.779
6649.223
6652.426
6656.4
6661.421
6669.322
6678.725
6687.551
6695.435
6702.605
6708.964
6714.918
6720.459
6725.514
6730.186
6734.777
6739.474
6744.258
6748.862
6752.645
6755.408
6757.001
6756.926
6754.242
6748.371
6739.801
6728.732
6715.378
6699.768
6681.821
6661.524
6638.909
6613.988
6586.848
6557.66
6526.681
6494.246
6460.764
6426.708
6392.587
6358.957
6326.674
6296.552
6268.773
6243.599
6221.636
6203.365
6189.223
6179.624
6174.883
6175.177
6180.394
6190.329
6204.625
6222.767
6244.158
6268.2
6294.068
6320.024
6345.455
6370.548
6394.883
6418.043
6439.789
6459.964
6478.483
6495.329
6510.531
6524.151
6536.275
6547.001
6556.431
6564.672
6571.797
6577.89
6583.001
6587.075
6590.345
6593.091
6595.32
6597.037
6598.278
6599.084
6599.488
6599.521
6599.216
6598.611
6597.753
6596.668
6595.383
6593.924
6592.316
6590.574
6588.711
6586.776
6584.806
6582.805
6580.781
6578.746
6576.707
6574.673
6572.65
6570.644
6568.655
6566.693
6564.757
6562.832
6560.914
6559.006
6557.11
6555.222
6553.339
6551.452
6549.556
6547.648
6545.717
6543.76
6541.784
6539.776
6537.728
6535.633
6533.487
6531.286
6529.023
6526.696
6524.301
6521.834
6519.297
6516.689
6514.014
6511.283
6508.507
6505.71
6502.922
6500.186
6497.554
6495.101
6492.884
6491.007
6489.464
6488.401
6487.485
3166.422
3116.373
3011.615
2977.545
2943.819
2911.984
2881.964
2853.374
2825.708
2798.7
2772.285
2745.016
2717.066
2688.192
2658.33
2627.24
2594.807
2560.867
2525.256
2488.253
2450.821
2412.099
2372.238
2331.608
2290.589
2249.177
2207.174
2164.365
2121.173
2078.333
2036.51
1996.969
1961.122
1929.584
1902.691
1881.372
1866.778
1859.805
1861.342
1872.219
1893.025
1924.849
1968.13
2023.522
2091.616
2172.851
2267.458
2375.402
2496.285
2629.387
2773.584
2927.309
3088.685
3255.51
3425.029
3594.659
3762.444
3926.506
4085.914
4238.927
4382.519
4514.293
4631.797
4732.742
4815.294
4878.136
4920.315
4940.894
4939.194
4915.3
4870.087
4805.418
4723.601
4627.353
4519.777
4403.085
4279.711
4151.569
4019.169
3883.407
3745.379
3605.329
3464.692
3326.093
3191.383
3062.876
2942.844
2831.342
2727.237
2629.633
2537.965
2451.773
2370.813