/*--------------------------------*- C++ -*----------------------------------*\
| =========                 |                                                 |
| \\      /  F ield         | foam-extend: Open Source CFD                    |
|  \\    /   O peration     | Version:     3.1                                |
|   \\  /    A nd           | Web:         http://www.extend-project.de       |
|    \\/     M anipulation  |                                                 |
\*---------------------------------------------------------------------------*/
FoamFile
{
    version     2.0;
    format      ascii;
    class       volScalarField;
    location    "16.5";
    object      nut;
}
// * * * * * * * * * * * * * * * * * * * * * * * * * * * * * * * * * * * * * //

dimensions      [0 2 -1 0 0 0 0];

internalField   nonuniform List<scalar> 
119952
(
5.45456e-05
3.706936e-05
3.845917e-05
4.28384e-05
4.578514e-05
4.360449e-05
4.217315e-05
4.111461e-05
4.027464e-05
3.953107e-05
3.883074e-05
3.81524e-05
3.748087e-05
3.680694e-05
3.612188e-05
3.542191e-05
3.470567e-05
3.396736e-05
3.319082e-05
3.23243e-05
4.058911e-05
3.859165e-05
3.770345e-05
4.849237e-05
4.703515e-05
4.60751e-05
4.549013e-05
4.538019e-05
4.544548e-05
3.646171e-05
3.265083e-05
3.587133e-05
4.067498e-05
4.543103e-05
5.034099e-05
5.546921e-05
6.085794e-05
6.640218e-05
7.206308e-05
8.192696e-05
0.0003736353
0.0004295097
0.0004921283
0.0005581775
0.0006255366
0.0006929235
0.0007598653
0.0008261769
0.0008912481
0.001252981
0.001316935
0.001380061
0.001442031
0.00150344
0.001565318
0.001628032
0.001691616
0.001756009
0.001819293
0.001885687
0.001948792
0.002009652
0.002069602
0.002129396
0.002189515
0.002250446
0.002311724
0.002376412
0.002194167
0.002443623
0.002450666
0.002465437
0.002474807
0.002474004
0.002462899
0.002445407
0.002425919
0.002404974
0.002382888
0.002360148
0.002337482
0.002315637
0.002295184
0.002276289
0.00225884
0.002242838
0.002229383
0.002221567
0.002222027
0.00222316
0.002225397
0.002239921
0.002260385
0.002267629
0.002261945
0.002237441
0.002156147
0.001998324
0.001952224
0.001927162
0.001917738
0.00191496
0.001915436
0.001917125
0.001918038
0.001916469
0.001911327
0.001901862
0.0018871
0.001866839
0.001841193
0.001810487
0.001775373
0.001737003
0.001697115
0.001657897
0.00162167
0.001590484
0.001565838
0.001548583
0.001538963
0.001536726
0.001541119
0.001550745
0.001563886
0.001579111
0.001595359
0.001611596
0.001626664
0.001639111
0.001647332
0.001649839
0.001645187
0.001631915
0.001608753
0.001574878
0.001530115
0.001475124
0.001411753
0.001343523
0.001275978
0.001216274
0.001171227
0.001144489
0.001135719
0.001141449
0.001158099
0.00118146
0.001205578
0.001228647
0.001247496
0.0012597
0.001263237
0.00125555
0.001234895
0.001201001
0.001154427
0.001096793
0.001031231
0.0009521933
0.0008740506
0.0008136345
0.0007753094
0.0007642512
0.0007814903
0.0008234778
0.0008822165
0.0009502074
0.001024049
0.001084901
0.00112658
0.001167186
0.001207472
0.001248785
0.001290034
0.001330323
0.001369565
0.001407879
0.001445373
0.001481988
0.001517404
0.001550953
0.001581533
0.001606685
0.001623624
0.00163082
0.001627095
0.001610871
0.001576511
0.001518436
0.001440124
0.001344341
0.001230367
0.001089024
0.0009019701
0.0007141022
0.0006347085
0.0004553528
0.0004602081
0.000458412
0.0004794304
0.0005131174
0.0005404563
0.0005541888
0.0005486486
0.0005512412
0.0005634189
0.0005868593
0.0006152868
0.0006359576
0.0006456731
0.0006438005
0.0006328542
0.0006182414
0.0006039518
0.0005920578
0.0005832669
0.0005769457
0.0005716547
0.0005657086
0.0005585644
0.0005502185
0.0005407671
0.0005302908
0.0005188603
0.0005065487
0.000493443
0.0004796474
0.0004653034
0.0004506273
0.0004361342
0.0004225964
0.0004153442
0.000418164
0.0004211686
0.0004233364
0.0004243047
0.0004228573
0.0004122208
0.0003985169
0.0003838452
0.0003609935
0.0003071226
0.0002116647
0.0001897586
0.0002406403
0.0003009126
0.0003544567
0.000402452
0.0004442491
0.0004806701
0.000501451
0.000503549
0.000501844
0.0005007054
0.0005003563
0.0005006556
0.0005030945
0.0005096047
0.0005206701
0.0005306066
0.0005355967
0.0005366303
0.0005369918
0.0005395825
0.000545919
0.0005562766
0.0007548147
0.0007908329
0.0008397158
0.0008979596
0.0009657388
0.00104156
0.00112121
0.001199634
0.001274678
0.001347264
0.001419179
0.001491302
0.001561072
0.001627401
0.001689995
0.001748605
0.001802923
0.001852608
0.001897324
0.001936756
0.001970649
0.001998892
0.002021582
0.002038944
0.002051203
0.002058493
0.002060841
0.002058173
0.002050385
0.002037428
0.002019372
0.001996401
0.00196875
0.001936624
0.001900219
0.001859885
0.001816309
0.001770478
0.001723515
0.001676523
0.001630495
0.001586255
0.001544432
0.001505431
0.001469432
0.001436326
0.001405595
0.001377584
0.001352398
0.001329605
0.001308883
0.001289764
0.001271743
0.001255036
0.001238441
0.001218699
0.001199239
0.001179532
0.001159123
0.001137536
0.001114471
0.001089678
0.001062836
0.001033958
0.001004214
0.0009753415
0.0009488688
0.0009255134
0.0009052255
0.0008876119
0.0008723008
0.0008591106
0.0008480608
0.0008392984
0.0008329976
0.0008292814
0.0008281734
0.0008295752
0.0008332748
0.0008389858
0.000846435
0.0008554195
0.0008657417
0.0008771801
0.0008894822
0.0009023654
0.0009155234
0.0009286024
0.0009411393
0.0009529611
0.0009641232
0.0009746778
0.000984801
0.0009948132
0.001005117
0.001016154
0.001028384
0.001042309
0.001058449
0.001077291
0.00109924
0.001124553
0.001153277
0.00118601
0.001223592
0.001266455
0.001314825
0.001368614
0.001426873
0.0014872
0.001545574
0.001601514
0.001666423
0.001734051
0.001794075
0.001846979
0.001898777
0.001958941
0.002028274
0.002111649
0.002209283
0.002312987
0.002414191
0.002505076
0.002583219
0.002649669
0.002705462
0.002750634
0.002784509
0.002806682
0.002818572
0.002824123
0.002827304
0.002828923
0.002826889
0.002819397
0.002807958
0.002802235
0.002740966
5.039577e-05
5.390996e-05
6.217928e-05
7.229657e-05
8.272956e-05
9.289762e-05
0.0001026457
0.0001119744
0.000122229
0.0004424481
0.0005858535
0.0007379863
0.0008861161
0.001023269
0.00114745
0.001259189
0.001360245
0.001452709
0.002079987
0.002176133
0.002275508
0.00237316
0.002468732
0.002562075
0.002653057
0.002741475
0.002826864
0.002907749
0.002985277
0.003058431
0.00312755
0.003195148
0.003262661
0.003330668
0.0033991
0.003467689
0.003535692
0.003586817
0.003621236
0.003657747
0.003697012
0.003739326
0.003784473
0.003832273
0.003882396
0.003934214
0.003986668
0.004039819
0.004091156
0.004141025
0.004189899
0.00423826
0.004286908
0.004336447
0.004387015
0.004437451
0.005213234
0.0052575
0.005298846
0.005338592
0.005377202
0.005415329
0.00545364
0.005492427
0.005531798
0.00557096
0.005609056
0.005646088
0.005681721
0.005716058
0.005749843
0.005783597
0.005817581
0.005852327
0.005889082
0.005920045
0.005936081
0.005946396
0.005954682
0.00595605
0.005949353
0.005936939
0.005919026
0.005897455
0.005872109
0.005843148
0.005811134
0.005777146
0.005742531
0.005708471
0.0056757
0.005644515
0.005615105
0.005587944
0.005564461
0.005545597
0.005529328
0.005518431
0.005512645
0.005505755
0.005487443
0.005460869
0.005422026
0.005367423
0.005313502
0.005284612
0.005267565
0.005258181
0.005254512
0.00525448
0.005255703
0.005253661
0.005245613
0.005230363
0.005206515
0.005173347
0.005130411
0.005077311
0.005013655
0.004939355
0.004855105
0.004762844
0.004665926
0.004568731
0.004475906
0.00439167
0.004319375
0.004261251
0.004218343
0.00419063
0.004177262
0.004176837
0.004187729
0.004208202
0.004236242
0.004269253
0.004304304
0.004338474
0.004368745
0.004391722
0.004403758
0.004401244
0.004380898
0.004340023
0.004277084
0.00419253
0.004089577
0.003974556
0.003856265
0.003743855
0.003644555
0.003562628
0.003499831
0.003455588
0.003427576
0.00341159
0.003402749
0.003396983
0.00339011
0.003376927
0.003352352
0.003312205
0.003252786
0.003170663
0.003063583
0.002932336
0.002782962
0.00262755
0.002481017
0.002355705
0.002258677
0.002192375
0.002155689
0.002093066
0.00207164
0.002095792
0.002162911
0.002266114
0.002384665
0.002462136
0.002545118
0.002641341
0.002752098
0.002877823
0.003018801
0.003174996
0.003345704
0.003529298
0.003722614
0.00392078
0.004117068
0.004304213
0.004474883
0.004622719
0.004742432
0.004830681
0.004882701
0.0048889
0.004831484
0.004698393
0.004472646
0.004144064
0.003774367
0.003410868
0.003057707
0.00254643
0.002173218
0.001905924
0.001719009
0.001595099
0.001521415
0.001397133
0.001336504
0.001330899
0.001367473
0.001436311
0.001535417
0.001662103
0.001806181
0.001956796
0.002101345
0.002184291
0.002251289
0.002314214
0.002375023
0.00243321
0.00248785
0.002538903
0.002586632
0.002631215
0.002672642
0.002710738
0.002745205
0.002775658
0.002801644
0.002822663
0.002838195
0.002847732
0.002850886
0.002847774
0.002839301
0.002824268
0.00280064
0.002766893
0.002721451
0.002661207
0.002577631
0.002462348
0.002297637
0.002060166
0.001774269
0.00154928
0.001386
0.001246904
0.001129107
0.001046188
0.0009925208
0.0008948888
0.0008515405
0.0008546874
0.0008904989
0.0009556424
0.001046523
0.001161155
0.001303296
0.001472272
0.001628059
0.001737487
0.001838631
0.00192841
0.002006442
0.002075211
0.002141792
0.002213225
0.002590321
0.002715213
0.002851459
0.002997351
0.00315195
0.003314646
0.003483825
0.003656872
0.003830495
0.00400119
0.00416572
0.004321892
0.004473143
0.004617973
0.004754642
0.004882263
0.005000299
0.005108369
0.005206175
0.005293435
0.005369879
0.005435435
0.005490351
0.005534992
0.005569698
0.005594687
0.005609985
0.005615398
0.005610573
0.005595134
0.005568799
0.005531431
0.005482987
0.005423431
0.005352842
0.005271785
0.005181481
0.005083647
0.004980298
0.004873565
0.004765566
0.004658277
0.004553452
0.004452545
0.00435664
0.004266404
0.004182178
0.004104237
0.004032592
0.003966938
0.00390665
0.003851071
0.003799251
0.00375099
0.003704315
0.003657419
0.003609899
0.003561028
0.003509669
0.003454625
0.003394669
0.003328373
0.00325417
0.003172633
0.00308561
0.002994264
0.002899836
0.002803477
0.002706277
0.002609386
0.002514099
0.002421865
0.002334214
0.00225263
0.00217841
0.002112538
0.002055618
0.002007867
0.001969167
0.001939166
0.001917369
0.001903222
0.00189615
0.001895577
0.001900937
0.001911676
0.001927274
0.00194724
0.00197109
0.001998329
0.002028484
0.002061162
0.002096077
0.002133039
0.002171959
0.002212883
0.002256054
0.002301962
0.002351375
0.002405326
0.00246508
0.002532065
0.002607762
0.002693541
0.002790524
0.002899534
0.00302103
0.00315477
0.003299087
0.003450535
0.003605746
0.003765994
0.003933489
0.004101621
0.004261999
0.004411838
0.004557337
0.004706026
0.004861725
0.005026423
0.005200198
0.005377765
0.005550951
0.005713166
0.005861028
0.005993128
0.006108673
0.006206842
0.006286704
0.006347742
0.006391036
0.006419845
0.006436951
0.006442658
0.006434039
0.006409098
0.006366427
0.006314069
0.006253469
3.217431e-05
3.936339e-05
5.01996e-05
6.306505e-05
7.843924e-05
9.694993e-05
0.0001197464
0.0001483888
0.0001857254
0.0002518413
0.001032195
0.001204147
0.00139112
0.001584956
0.001772938
0.00191448
0.002050393
0.002202238
0.002505401
0.004583421
0.004815602
0.0049567
0.005083962
0.005193656
0.005291712
0.005379381
0.00545739
0.005528621
0.005615014
0.005787501
0.005973846
0.006121719
0.006228124
0.006303722
0.006358441
0.006399061
0.006430035
0.006459831
0.006361701
0.006340571
0.006357203
0.006392217
0.006434782
0.006478334
0.006519254
0.006555738
0.006587147
0.006613309
0.006633621
0.006650806
0.006666912
0.006682988
0.00669971
0.006717111
0.006734567
0.006749852
0.007524679
0.007539222
0.007547098
0.007551493
0.007554395
0.007556848
0.007559631
0.007563058
0.007567373
0.007572247
0.007576721
0.007580898
0.007585116
0.007589331
0.007593975
0.00759975
0.007607153
0.007616468
0.007627709
0.007639645
0.007651172
0.007662415
0.007673096
0.007683227
0.00769347
0.007704721
0.007717681
0.007732477
0.007748384
0.007764747
0.00778074
0.007795415
0.007808806
0.007821714
0.0078353
0.007850694
0.007868576
0.00788992
0.007896632
0.007905411
0.007915025
0.007924727
0.007934525
0.007945139
0.007957625
0.007972809
0.007990884
0.008011178
0.008032538
0.008053505
0.00807303
0.008091127
0.008108813
0.008127312
0.008147521
0.008169569
0.00819255
0.008212795
0.008225097
0.008229097
0.008227323
0.008220406
0.008208756
0.008193604
0.008175667
0.008154435
0.008129592
0.00810053
0.008067129
0.008030413
0.00799217
0.00795415
0.007917504
0.007882615
0.007849282
0.007817143
0.007786385
0.007757333
0.007729781
0.007705347
0.007685178
0.007663919
0.00763796
0.007606984
0.007570843
0.007530203
0.007490371
0.007464071
0.007449896
0.007443826
0.007445074
0.007451563
0.007457284
0.007458654
0.007451348
0.007433062
0.007405118
0.007367331
0.007319688
0.007261869
0.007193059
0.00711224
0.007018836
0.006913588
0.006799177
0.006680026
0.006561448
0.006448796
0.006346776
0.006259
0.006187803
0.006134236
0.006098223
0.006078826
0.006074639
0.006083896
0.006104307
0.006132847
0.006166022
0.00620042
0.006232637
0.006258883
0.006275216
0.006277982
0.006264018
0.006230689
0.006176348
0.006100931
0.006006513
0.005897709
0.005781549
0.005665723
0.005557329
0.00546202
0.005382912
0.005320849
0.005275179
0.005242194
0.005216697
0.005193625
0.00516713
0.005131281
0.005081545
0.005014098
0.004925438
0.00481237
0.004672462
0.004505349
0.004314428
0.004107933
0.003897728
0.003696036
0.003513081
0.003356652
0.003232061
0.003141962
0.003086498
0.003064012
0.003071438
0.003105035
0.003161293
0.00323731
0.003329674
0.003436865
0.00356925
0.003728882
0.003917222
0.004135155
0.004382277
0.004656081
0.004951036
0.005258215
0.005565965
0.005861716
0.006133974
0.006374057
0.006576475
0.006738568
0.006858607
0.006933248
0.006953885
0.006902846
0.00676658
0.006533435
0.006221198
0.005849878
0.005447454
0.005033949
0.004621388
0.004221856
0.00384764
0.003511486
0.003224278
0.002993007
0.002820372
0.002704715
0.002640386
0.002618533
0.002629189
0.002616576
0.00255232
0.002551949
0.002602939
0.002692564
0.002809919
0.002943031
0.003086951
0.003231921
0.003321185
0.003414125
0.003510392
0.003609512
0.003710854
0.003813632
0.003916908
0.00401959
0.004120414
0.004218
0.004310954
0.004398007
0.004477997
0.00455005
0.004613445
0.004666685
0.004707791
0.004734915
0.004745541
0.004735076
0.004697695
0.004625525
0.004506913
0.004333688
0.004119692
0.003883054
0.003622588
0.003336922
0.003035249
0.002737557
0.002465404
0.002234254
0.002053405
0.001924666
0.001843975
0.001684555
0.001532239
0.001450718
0.001432181
0.001460239
0.001524845
0.001625832
0.001774433
0.001980045
0.002251149
0.00256553
0.002832186
0.003012021
0.003199484
0.003396834
0.003603068
0.003816853
0.00403652
0.004259941
0.00448456
0.004707359
0.004924933
0.005133813
0.005330719
0.005512812
0.005679108
0.005833407
0.005977028
0.00611096
0.006235871
0.006352214
0.006460245
0.006559993
0.006651163
0.006733354
0.006807147
0.006872999
0.006931059
0.006981252
0.007023273
0.007056576
0.007080404
0.007093904
0.007096239
0.007086644
0.007064412
0.007028739
0.006978588
0.006913589
0.006834966
0.006744456
0.006644156
0.0065364
0.006423642
0.006308317
0.006192747
0.006079015
0.005968871
0.00586369
0.005764451
0.005671847
0.005586264
0.005507744
0.005435994
0.005370486
0.005310429
0.005254888
0.005202633
0.005152596
0.005103738
0.005054783
0.005004274
0.004950708
0.004892594
0.004828397
0.004756453
0.004674905
0.004583304
0.004482754
0.004373644
0.004256539
0.004132254
0.004001948
0.003867172
0.003729908
0.003592479
0.003457413
0.003327247
0.003204322
0.003090582
0.002987482
0.002895941
0.002816393
0.00274887
0.002693109
0.002648653
0.002614919
0.002591255
0.002576998
0.00257151
0.002574193
0.002584482
0.002601831
0.002625723
0.002655685
0.002691295
0.002732188
0.002778083
0.002828818
0.002884422
0.002945184
0.003011702
0.003084908
0.003166069
0.003256703
0.003358464
0.003472949
0.003601543
0.003745354
0.003905059
0.004080521
0.004270223
0.00447128
0.004680786
0.004897584
0.005120434
0.005344449
0.005562905
0.005771408
0.005970613
0.006164328
0.006355684
0.006546524
0.006737506
0.006927694
0.007113448
0.007290692
0.007456378
0.007608571
0.007745975
0.007867526
0.007972213
0.008059109
0.008127622
0.008178342
0.008212612
0.008231209
0.008232371
0.008215031
0.008177031
0.00812613
0.008067946
4.035977e-05
6.548698e-05
0.0001461243
0.0004952744
0.0008547044
0.001538801
0.002067229
0.002710432
0.003450578
0.004059448
0.004506647
0.004865132
0.005218852
0.005575376
0.005941723
0.006310763
0.006682329
0.007040068
0.007372958
0.007695414
0.008003913
0.008283544
0.008510519
0.008697723
0.008864784
0.009011162
0.009133936
0.009233272
0.009307099
0.009368682
0.009450457
0.009528149
0.009224063
0.008965825
0.008743167
0.008557478
0.008409674
0.008300835
0.008233298
0.00819902
0.008179341
0.00819509
0.008241785
0.008311796
0.008399387
0.008502242
0.008618403
0.008746458
0.008884354
0.009044937
0.00922091
0.00938421
0.009581319
0.009802923
0.009882786
0.009896707
0.00990796
0.009916354
0.009921624
0.009923435
0.009921829
0.009917391
0.009910943
0.009903307
0.009895454
0.009887562
0.009880288
0.009873876
0.009845197
0.009819712
0.00979641
0.009774624
0.009754382
0.009736078
0.00972021
0.009707087
0.009696597
0.009688109
0.009680714
0.009673763
0.00966673
0.009659412
0.009652232
0.009646107
0.00964202
0.009640645
0.009642078
0.009645675
0.009650307
0.009654796
0.009658297
0.009660785
0.009663147
0.009666793
0.009672961
0.009682257
0.009694415
0.009708097
0.00972144
0.009732922
0.00974221
0.009750079
0.00975821
0.009768325
0.009781897
0.009798989
0.009818082
0.009837602
0.009855721
0.009871259
0.009884358
0.00989646
0.009909705
0.009925966
0.009946086
0.009969551
0.009994331
0.01
0.01
0.01
0.01
0.01
0.01
0.01
0.01
0.01
0.01
0.01
0.01
0.01
0.01
0.01
0.01
0.01
0.01
0.009991393
0.009954478
0.009912743
0.009868015
0.009822486
0.009777742
0.009734379
0.009692133
0.00965025
0.009607972
0.009564814
0.009520995
0.009477417
0.009435272
0.009393845
0.009351568
0.009307331
0.009261335
0.009215395
0.009171286
0.00913308
0.009101621
0.009075586
0.00905304
0.009030504
0.009007047
0.0089812
0.008951049
0.008914113
0.008869004
0.008817128
0.008759886
0.008698212
0.008632097
0.008560525
0.008481857
0.008394713
0.008299244
0.008197588
0.008093256
0.007990422
0.007893314
0.007805675
0.007730437
0.007669513
0.007623737
0.007592999
0.007576564
0.007573185
0.007581031
0.007597518
0.0076195
0.007643832
0.00766735
0.007686595
0.007698109
0.007698963
0.007686829
0.007659801
0.007616583
0.007556938
0.007482091
0.007395088
0.007300895
0.007205332
0.007114278
0.007033046
0.006965031
0.006911748
0.006873429
0.006849709
0.006832769
0.006813524
0.006786076
0.006748551
0.006696443
0.006626038
0.006534122
0.006417747
0.006274306
0.006102229
0.005902246
0.005678597
0.005439091
0.00519366
0.004952834
0.004726938
0.004525393
0.004355808
0.004223341
0.00413044
0.00407698
0.004060971
0.004079642
0.004130395
0.004210933
0.004318509
0.004455207
0.0046325
0.004852874
0.005117676
0.005425981
0.005773046
0.006148945
0.00653873
0.00692462
0.007289212
0.007618432
0.007903533
0.008140999
0.008331345
0.008477084
0.008579559
0.008636644
0.008640802
0.008579688
0.008444263
0.008233682
0.007952878
0.00761003
0.00721567
0.006784633
0.006332286
0.005874961
0.005430027
0.005013843
0.00463979
0.004316879
0.004049016
0.003835544
0.00367286
0.003556117
0.003480085
0.003439287
0.003428333
0.003442041
0.003475488
0.00352428
0.003584766
0.003654087
0.003729906
0.003810683
0.003899515
0.00399838
0.004106629
0.004223377
0.004347513
0.004477683
0.004612257
0.004749301
0.004886657
0.005022172
0.005153917
0.005280114
0.005399082
0.005509281
0.005609055
0.005696558
0.005769933
0.005826953
0.00586407
0.005875524
0.005855426
0.005796051
0.005692048
0.005546515
0.005364258
0.00514313
0.004879739
0.004576783
0.004245677
0.003902959
0.003565594
0.00325002
0.002970869
0.002738714
0.002558338
0.002428748
0.002347036
0.002309641
0.002239494
0.002045038
0.00192399
0.001881613
0.001911643
0.002007371
0.002170117
0.002407199
0.00271183
0.003068862
0.003466048
0.003836941
0.00409216
0.004355008
0.004620957
0.004885055
0.005142532
0.005389059
0.005620933
0.005835224
0.006029873
0.006203571
0.006358827
0.006499963
0.00663029
0.006752132
0.006867244
0.006976992
0.007082182
0.007182872
0.007157511
0.007069145
0.007013213
0.00700056
0.007031493
0.007093148
0.007166795
0.00724335
0.007326803
0.007423964
0.007539262
0.00767708
0.007832892
0.007981199
0.007949558
0.007900235
0.007834769
0.007755115
0.00766359
0.007562783
0.007455431
0.007344274
0.007231923
0.007120738
0.007012748
0.006909579
0.006812489
0.006722351
0.006639667
0.006564546
0.006496767
0.006435799
0.006380898
0.006331141
0.006285374
0.006242299
0.006200554
0.006158703
0.006115247
0.006068647
0.006017317
0.005959582
0.005893688
0.005817778
0.005731176
0.005633662
0.005524953
0.005405082
0.005274479
0.005134063
0.004985297
0.004830185
0.004671206
0.004511169
0.004353019
0.004199609
0.004053503
0.003916823
0.003791174
0.003677639
0.003576824
0.003488942
0.003413892
0.003351356
0.003300878
0.003261947
0.003234047
0.003216687
0.003209406
0.003211779
0.003223418
0.003243963
0.003273077
0.003310461
0.003355886
0.003409266
0.003470723
0.003540663
0.003619819
0.003709266
0.00381038
0.003924723
0.004053862
0.004199186
0.004361774
0.004542235
0.004740409
0.004955001
0.005183542
0.005423011
0.005670723
0.005923843
0.006177938
0.006427408
0.006667531
0.006896165
0.007113526
0.007320763
0.007519391
0.007711577
0.007899179
0.008081847
0.008257918
0.008425569
0.008583313
0.008729959
0.008864436
0.008985636
0.009092274
0.009182763
0.009255843
0.009311307
0.009349761
0.009370586
0.009373576
0.009356189
0.009324964
0.009284325
2.266267e-05
3.671702e-05
5.548106e-05
0.000241552
0.0003959619
0.0006728278
0.0009465003
0.001197953
0.001514771
0.001824772
0.002161318
0.002598939
0.003118331
0.003708983
0.0043764
0.005231487
0.00684886
0.007505332
0.008136262
0.008703796
0.009200628
0.009624038
0.009990759
0.01
0.01
0.01
0.01
0.01
0.01
0.01
0.01
0.01
0.01
0.01
0.01
0.01
0.01
0.01
0.01
0.009695807
0.009132
0.008608494
0.008426707
0.008162274
0.007895336
0.007667883
0.007481812
0.007336204
0.007229676
0.007160708
0.007126194
0.007120481
0.007145461
0.007202482
0.007288074
0.007396121
0.007523208
0.007665851
0.007820086
0.007988309
0.008173379
0.008382831
0.008630195
0.008917537
0.009245156
0.009596314
0.00996813
0.01
0.01
0.01
0.01
0.01
0.01
0.01
0.01
0.01
0.01
0.01
0.01
0.01
0.01
0.01
0.01
0.01
0.01
0.01
0.01
0.01
0.01
0.01
0.01
0.01
0.01
0.01
0.01
0.01
0.01
0.01
0.01
0.01
0.01
0.01
0.01
0.01
0.01
0.01
0.01
0.01
0.01
0.01
0.01
0.01
0.01
0.01
0.01
0.01
0.01
0.01
0.01
0.01
0.01
0.01
0.01
0.01
0.01
0.01
0.01
0.01
0.01
0.01
0.01
0.01
0.01
0.01
0.01
0.01
0.01
0.01
0.01
0.01
0.01
0.01
0.01
0.01
0.01
0.01
0.01
0.01
0.01
0.01
0.01
0.01
0.01
0.01
0.01
0.01
0.01
0.01
0.01
0.01
0.01
0.01
0.01
0.01
0.01
0.009948703
0.009875978
0.009801378
0.009721755
0.009634787
0.00954436
0.009456061
0.009374072
0.009299256
0.009229528
0.009160601
0.009092401
0.009027345
0.008967992
0.008916371
0.00887318
0.008837218
0.00880515
0.008772869
0.008737365
0.008697454
0.008653779
0.008608354
0.008563685
0.008522305
0.008486386
0.008457473
0.008436354
0.008423204
0.00841767
0.00841887
0.008425252
0.008434819
0.008445617
0.008455548
0.008462216
0.008463583
0.008458376
0.008445868
0.008425453
0.008396537
0.008358863
0.008312929
0.008260334
0.008204046
0.008147983
0.008096243
0.00805271
0.008020084
0.007999868
0.007993643
0.007996655
0.008002186
0.008003542
0.007993446
0.007968379
0.007928318
0.007870814
0.007793957
0.007695861
0.007574334
0.007427186
0.007253089
0.007052706
0.006829428
0.006589189
0.006339859
0.006090847
0.005852594
0.0056356
0.005449233
0.005300603
0.005193869
0.005130351
0.005109413
0.005129647
0.005189726
0.005288763
0.005425642
0.005611999
0.005854534
0.006154507
0.006509245
0.006909869
0.007340053
0.007777785
0.008200177
0.008587922
0.008927129
0.00921163
0.009442124
0.009622948
0.009760206
0.009859083
0.009921685
0.00994572
0.009923795
0.009848038
0.009714364
0.009522483
0.009274123
0.008973207
0.008625565
0.008237974
0.007821008
0.007387587
0.006951933
0.006527966
0.006127618
0.005759637
0.005429586
0.005140552
0.004894077
0.004690566
0.00452939
0.00440891
0.004326431
0.004278362
0.00426056
0.00426874
0.004298792
0.004347025
0.00441001
0.004484669
0.004571551
0.004674421
0.004792197
0.004923272
0.005065775
0.005217499
0.005375799
0.005537626
0.005699996
0.005860386
0.006016494
0.00616603
0.006306867
0.006437044
0.006554717
0.006658251
0.006746084
0.006816154
0.00686369
0.00688473
0.00687439
0.006828185
0.006745067
0.006625496
0.006467001
0.006265502
0.006019221
0.005730641
0.005406333
0.005056246
0.004693331
0.004332657
0.003990021
0.003679522
0.003411148
0.003190939
0.003021749
0.002902455
0.002829656
0.002799202
0.002805466
0.002541858
0.002368433
0.002295404
0.002316794
0.002424931
0.0026151
0.002882906
0.003209809
0.003574405
0.003954209
0.00432874
0.004684025
0.00501544
0.005324217
0.005612035
0.005876844
0.006081007
0.00626008
0.006417343
0.006557521
0.006685244
0.006788693
0.006800618
0.006786453
0.006755886
0.006716689
0.006678295
0.006654568
0.006663546
0.006723142
0.006840525
0.007003443
0.007184494
0.007367425
0.007552972
0.007742533
0.007934515
0.008127845
0.00832451
0.008514638
0.00858419
0.008572634
0.008541377
0.008491863
0.008426118
0.008346653
0.008256313
0.008158119
0.008055099
0.007950144
0.007845884
0.007744579
0.007648105
0.007557906
0.007474997
0.007399957
0.007332963
0.007273822
0.007222034
0.007176808
0.007137073
0.007101595
0.007069044
0.007037988
0.007006901
0.006974191
0.006938234
0.006897374
0.006849916
0.0067941
0.006728227
0.006651334
0.006562567
0.006461319
0.006347335
0.006220797
0.006082409
0.005933443
0.005775735
0.005611619
0.005443803
0.00527519
0.005108683
0.004946992
0.004792492
0.004647118
0.004512339
0.004389157
0.004278164
0.004179606
0.00409347
0.004019579
0.003957671
0.003907461
0.003868685
0.003841129
0.003824633
0.003819083
0.003824392
0.003840486
0.003867317
0.003904894
0.003953332
0.004012924
0.004084198
0.004167967
0.004265329
0.004377595
0.004506143
0.004652229
0.004816809
0.005000347
0.005202586
0.005422321
0.005657299
0.005904496
0.006160585
0.006421888
0.006683899
0.006941514
0.007190081
0.00742641
0.007649002
0.007857674
0.008053218
0.008238398
0.008416476
0.00858917
0.008756832
0.008919099
0.009075333
0.009224739
0.009366339
0.009498882
0.009620711
0.009729688
0.009823766
0.009901924
0.009964482
0.01000029
0.01000008
0.01000001
0.01
0.01
2.073581e-05
3.195797e-05
6.35379e-05
0.0001924372
0.0003092932
0.0004914733
0.0006298239
0.0007866049
0.0009714097
0.001151828
0.00136315
0.001636632
0.001948879
0.002321377
0.002806602
0.003739873
0.004180818
0.004656451
0.005158036
0.005684296
0.006240322
0.006816572
0.007396521
0.007964666
0.008503862
0.009005744
0.009486345
0.01
0.01
0.01
0.01
0.01
0.01
0.01
0.01
0.01
0.01
0.01
0.01
0.01
0.01
0.01
0.01
0.01
0.01
0.01
0.009949402
0.00950131
0.009026958
0.008559001
0.008115603
0.007720023
0.007388752
0.007079021
0.006835063
0.006647244
0.006504459
0.006402266
0.006338805
0.006312039
0.006320408
0.0063643
0.006443287
0.00655874
0.006709657
0.00689258
0.007102634
0.007333943
0.007582258
0.007847314
0.008141763
0.008486002
0.008879657
0.009333183
0.009862386
0.01
0.01
0.01
0.01
0.01
0.01
0.01
0.01
0.01
0.01
0.01
0.01
0.01
0.01
0.01
0.01
0.01
0.01
0.01
0.01
0.01
0.01
0.01
0.01
0.01
0.01
0.01
0.01
0.01
0.01
0.01
0.01
0.01
0.01
0.01
0.01
0.01
0.01
0.01
0.01
0.01
0.01
0.01
0.01
0.01
0.01
0.01
0.01
0.01
0.01
0.01
0.01
0.01
0.01
0.01
0.01
0.01
0.01
0.01
0.01
0.01
0.01
0.01
0.01
0.01
0.01
0.01
0.01
0.01
0.01
0.01
0.01
0.01
0.01
0.01
0.01
0.01
0.01
0.01
0.01
0.01
0.01
0.01
0.01
0.01
0.01
0.01
0.01
0.01
0.01
0.01
0.01
0.01
0.009984942
0.009925934
0.009861606
0.00979265
0.009721941
0.009647536
0.009573158
0.009493034
0.009405122
0.009308229
0.009201233
0.009087896
0.008976468
0.008875422
0.008788399
0.008713735
0.008648351
0.008591191
0.008542181
0.008501522
0.008470565
0.008451444
0.0084459
0.008454256
0.008474028
0.008500486
0.008528422
0.00855382
0.008574625
0.0085905
0.008601732
0.008609027
0.00861331
0.008615446
0.008615997
0.008615193
0.008612984
0.00860936
0.008604605
0.008599116
0.008593356
0.008587923
0.008582755
0.008577612
0.008573067
0.008569982
0.008568765
0.008569089
0.008570182
0.008571336
0.008572303
0.008573761
0.00857715
0.008584231
0.008596764
0.008615731
0.008641738
0.008676161
0.008712624
0.008744881
0.008766576
0.008773264
0.008763536
0.008741456
0.008704641
0.008651486
0.008580762
0.008490534
0.008378931
0.00824436
0.008085851
0.007903965
0.007701227
0.007482173
0.007253374
0.007023389
0.006802328
0.006600877
0.006428924
0.006294231
0.006201755
0.00615394
0.006151723
0.00619571
0.006287037
0.006427509
0.006623207
0.006885984
0.007216061
0.007607263
0.008044334
0.008503407
0.00895599
0.009377241
0.009751232
0.01
0.01
0.01
0.01
0.01
0.01
0.01
0.01
0.01
0.01
0.01
0.01
0.01
0.01
0.01
0.009746386
0.009416852
0.009060732
0.008685457
0.008298319
0.007908499
0.00752466
0.007154136
0.006803261
0.00647794
0.006183541
0.00592438
0.005703675
0.00552326
0.005383354
0.005282608
0.005218449
0.005187533
0.005185874
0.005210347
0.005257422
0.005323643
0.005407092
0.00551197
0.005636403
0.005777665
0.00593268
0.006097858
0.006269176
0.006442844
0.006615957
0.00678589
0.006949648
0.0071046
0.00724869
0.007380202
0.007497866
0.007600817
0.007688057
0.007755614
0.007800917
0.007820802
0.007812164
0.007773324
0.007703191
0.007599302
0.007458125
0.007276643
0.007053334
0.006788585
0.006484995
0.006147742
0.005785137
0.005408959
0.00503308
0.004671276
0.00433658
0.004040427
0.003791305
0.003590733
0.003439032
0.003334705
0.003275629
0.003260156
0.003285209
0.003037616
0.002844475
0.00277282
0.002812024
0.002940631
0.003139649
0.003392938
0.00368506
0.003996751
0.004312646
0.004620248
0.004909323
0.005172151
0.005403855
0.00560442
0.005765871
0.005882372
0.005963126
0.006017108
0.006053904
0.006085146
0.006120883
0.006166215
0.006222663
0.00629247
0.006390389
0.006540544
0.006764754
0.007056853
0.00736792
0.007663575
0.007943859
0.008211408
0.008462314