/*--------------------------------*- C++ -*----------------------------------*\
| =========                 |                                                 |
| \\      /  F ield         | foam-extend: Open Source CFD                    |
|  \\    /   O peration     | Version:     3.1                                |
|   \\  /    A nd           | Web:         http://www.extend-project.de       |
|    \\/     M anipulation  |                                                 |
\*---------------------------------------------------------------------------*/
FoamFile
{
    version     2.0;
    format      ascii;
    class       volScalarField;
    location    "16.5";
    object      omega;
}
// * * * * * * * * * * * * * * * * * * * * * * * * * * * * * * * * * * * * * //

dimensions      [0 0 -1 0 0 0 0];

internalField   nonuniform List<scalar> 
119952
(
407.4555
520.7327
495.5959
432.3369
388.2844
391.6699
398.1153
406.1115
415.1324
424.8919
435.283
446.244
457.7352
469.7392
482.2694
495.3705
509.0953
523.5404
539
556.8057
466.5272
464.3605
468.8906
394.3364
386.3094
382.1461
378.7957
375.9127
369.6098
239.4599
824.8315
693.6726
587.5775
510.3397
452.3121
407.4254
371.4556
341.9677
317.1957
289.7179
244.7243
212.8632
190.5961
174.0266
160.9636
150.1526
140.9162
132.8685
125.779
97.80159
93.96907
90.2113
86.54113
83.04607
79.77538
76.74678
73.95644
71.38604
69.02871
66.95216
64.99218
63.11129
61.3149
59.59757
57.95454
56.37123
54.82869
53.33164
52.95908
52.81007
52.28318
51.88543
51.6492
51.51324
51.41997
51.38669
51.39133
51.43154
51.49712
51.58034
51.67009
51.75658
51.83421
51.9025
51.96141
52.00039
51.97308
51.78907
51.48151
51.21204
50.75572
50.23929
50.00943
49.92753
50.03767
50.7274
52.85722
56.0754
56.42659
56.43751
56.1328
55.75803
55.38075
55.04653
54.79292
54.6453
54.61719
54.72423
54.97558
55.37851
55.93822
56.65642
57.52354
58.51157
59.57001
60.62723
61.59934
62.40402
62.9735
63.26359
63.25807
62.96793
62.4307
61.7078
60.86628
59.96008
59.03261
58.13034
57.3047
56.60452
56.07315
55.75083
55.67838
55.89859
56.45472
57.38868
58.74031
60.54149
62.79925
65.46268
68.37482
71.24506
73.7168
75.51743
76.55783
76.87772
76.54745
75.77135
74.92415
74.02624
73.21814
72.6141
72.35508
72.57094
73.36876
74.87374
77.2264
80.5739
84.99667
90.35178
96.07719
101.2172
104.839
106.3315
105.4419
102.302
97.44325
91.67863
85.67666
79.88889
74.57959
69.87161
65.78387
62.24775
59.22324
56.6501
54.47634
52.65801
51.1573
49.94176
48.98348
48.26071
47.76156
47.49943
47.47569
47.6836
48.12101
48.80247
49.86555
51.52146
53.82364
56.88546
61.05703
67.468
79.25831
96.23421
108.0572
118.0204
134.9557
144.0574
145.3332
141.3915
135.4213
128.7324
121.7669
115.2006
109.2524
103.723
98.76404
94.94937
92.03103
89.79896
88.1299
86.84116
85.81347
84.9829
84.31106
83.80545
83.51726
83.52087
83.82359
84.41022
85.26855
86.39234
87.77914
89.42898
91.34343
93.5244
95.96933
98.66106
101.5215
104.3812
105.6258
105.4214
105.4825
105.7573
106.3055
107.2083
108.5227
110.2308
112.4965
118.7598
133.6957
164.6717
193.3405
199.0344
182.1949
159.1849
138.4307
122.2097
109.2054
98.51479
89.43456
81.97424
75.97854
71.15078
67.21257
63.94858
61.2377
58.97822
57.23306
55.95566
55.04004
54.35942
53.81623
53.35606
52.93357
45.12132
44.19787
42.95492
41.56883
40.16653
38.86019
37.75564
36.90989
36.28776
35.80731
35.3982
35.02439
34.69714
34.41136
34.15912
33.93379
33.73007
33.54354
33.37052
33.20799
33.05338
32.90406
32.75738
32.61128
32.46463
32.3172
32.16953
32.02267
31.87789
31.73636
31.59912
31.46728
31.3424
31.2268
31.12314
31.03329
30.95751
30.8945
30.84174
30.79579
30.75262
30.70805
30.65837
30.60145
30.53879
30.47397
30.40281
30.32014
30.22947
30.13355
30.03717
29.94663
29.87039
29.82171
29.86469
29.85612
29.86348
29.90032
29.97822
30.11223
30.31614
30.60708
31.00648
31.52653
32.15132
32.84765
33.57729
34.30985
35.02408
35.70263
36.32766
36.87906
37.33485
37.6733
37.87617
37.93185
37.8377
37.60077
37.23639
36.76477
36.20724
35.58234
34.90568
34.19117
33.45097
32.69551
31.93375
31.17479
30.43015
29.70471
29.00058
28.32266
27.67655
27.06778
26.50216
25.98556
25.5221
25.11368
24.75985
24.45772
24.20251
23.98867
23.81069
23.65156
23.49034
23.31184
23.10415
22.86189
22.59305
22.32517
22.10337
21.91828
21.66276
21.42164
21.27363
21.20985
21.1804
21.12313
21.02905
20.85998
20.62354
20.37084
20.14247
19.95868
19.81349
19.69527
19.59625
19.51276
19.44321
19.38478
19.32968
19.2663
19.18741
19.09445
18.99208
18.87516
18.7128
18.43837
18.66548
777.2689
637.7207
563.6928
513.4197
472.9996
438.2448
407.6956
380.6694
355.602
298.0943
238.0193
201.6862
178.3476
162.3092
150.5752
141.4868
134.1017
127.8487
100.9419
96.50252
92.22066
88.18259
84.46884
81.11185
78.09722
75.39498
72.9678
70.76458
68.83089
67.03845
65.28347
63.57119
61.91089
60.31172
58.783
57.32994
55.95195
54.94651
54.23922
53.42505
52.54059
51.61924
50.67871
49.73303
48.79533
47.87669
46.98995
46.14072
45.32349
44.53993
43.78329
43.04472
42.31986
41.6083
40.91382
40.25314
35.99034
35.48836
35.01369
34.56031
34.12183
33.69325
33.27288
32.86132
32.46068
32.07134
31.69474
31.33277
30.98254
30.63961
30.30168
29.96981
29.64877
29.35059
29.09363
28.87769
28.66756
28.4703
28.30148
28.15286
28.01019
27.87342
27.75356
27.64898
27.55913
27.4809
27.40961
27.34073
27.27128
27.20031
27.12821
27.05507
26.97928
26.89727
26.80437
26.69881
26.58249
26.45431
26.34649
26.27343
26.23635
26.22867
26.26369
26.32046
26.3158
26.22159
26.11665
26.00144
25.88341
25.77379
25.68154
25.61807
25.58699
25.58785
25.62277
25.69378
25.80401
25.95728
26.15665
26.40201
26.68782
27.00169
27.32493
27.63509
27.90893
28.12534
28.26802
28.32766
28.30275
28.19912
28.02805
27.80345
27.54018
27.25428
26.96253
26.68139
26.42568
26.20823
26.04095
25.93493
25.90011
25.94544
26.07871
26.30569
26.6283
27.04201
27.53234
28.07126
28.61821
29.12896
29.5644
29.90088
30.13277
30.26872
30.33444
30.36814
30.4029
30.4646
30.58279
30.7873
31.10459
31.56369
32.19973
33.05345
34.1642
35.5556
37.21586
39.07972
41.03713
42.96427
44.73419
46.21226
47.26231
47.76935
47.66127
46.9255
45.62557
43.88938
41.88079
39.76858
37.6491
35.54665
33.54718
31.70877
30.06207
28.61829
27.37531
26.32299
25.44616
24.72649
24.14281
23.67334
23.29896
23.00439
22.77984
22.62448
22.55126
22.59115
22.81935
23.32162
24.21298
25.60885
27.33996
29.31498
31.69521
36.24199
40.91209
45.65882
50.46521
55.16199
59.41755
62.85967
65.14805
66.02926
65.46078
63.62304
60.77032
57.22637
53.38457
49.59861
46.10066
42.98771
40.26664
37.90353
35.84544
34.05257
32.48626
31.11508
29.91438
28.86345
27.94421
27.14097
26.44022
25.83044
25.30177
24.84561
24.45422
24.11974
23.83318
23.58773
23.39178
23.25885
23.19267
23.20062
23.29796
23.51988
23.96215
24.7574
26.15689
28.57257
31.94831
35.04715
38.1558
42.11311
47.04995
52.54448
57.86897
62.49391
65.95063
67.71265
67.43131
65.01549
60.80009
55.47876
49.87605
44.68058
40.21704
36.49322
33.44175
30.98983
29.07129
27.62717
26.57313
25.81452
24.4424
23.79127
23.21714
22.68255
22.16085
21.64412
21.13709
20.65078
20.19811
19.79101
19.43828
19.14372
18.89425
18.6823
18.50199
18.34711
18.21153
18.08958
17.97634
17.8677
17.76026
17.65127
17.53881
17.42186
17.30033
17.1748
17.04611
16.91504
16.78208
16.64745
16.51132
16.37407
16.23628
16.09877
15.96229
15.82744
15.69454
15.56378
15.4352
15.30866
15.18384
15.0603
14.93754
14.81512
14.69262
14.5695
14.44513
14.31952
14.19346
14.06805
13.94458
13.82471
13.71024
13.60456
13.51004
13.42329
13.34733
13.2863
13.24322
13.2209
13.22298
13.25468
13.32279
13.42837
13.5684
13.74215
13.94922
14.18967
14.46344
14.76965
15.10583
15.4674
15.84754
16.23731
16.62622
17.00303
17.35677
17.67752
17.95706
18.18912
18.3695
18.49598
18.56813
18.58707
18.55516
18.47551
18.35174
18.18789
17.98844
17.75833
17.503
17.2286
16.94224
16.65199
16.36633
16.09333
15.83993
15.61113
15.40941
15.23432
15.08239
14.94743
14.82121
14.69433
14.55723
14.40127
14.22071
14.01487
13.78862
13.54909
13.3003
13.04248
12.78548
12.54912
12.34515
12.17279
12.02022
11.8764
11.73339
11.58862
11.44504
11.31056
11.19194
11.09062
11.0048
10.93192
10.86946
10.815
10.76585
10.71842
10.66852
10.61317
10.55191
10.48578
10.41437
10.33646
10.24995
10.16636
10.10803
633.8879
560.643
500.7923
456.7086
423.1833
397.3321
377.2985
362.3973
352.4119
338.9543
188.1647
175.6116
164.5225
154.9933
147.3726
143.4942
140.5237
137.8617
131.3903
86.61454
84.71613
84.00573
83.26441
82.51427
81.72712
80.89451
80.00966
79.03509
77.72397
75.18039
72.69538
70.77443
69.2962
68.07317
66.98513
65.96825
64.99059
64.03164
64.01342
63.27818
62.22595
61.05256
59.86542
58.71423
57.61813
56.58013
55.59836
54.67543
53.78831
52.91773
52.05809
51.20483
50.36093
49.53227
48.72422
47.94912
44.08711
43.43623
42.81474
42.21526
41.63237
41.06254
40.50447
39.95848
39.42617
38.90757
38.40039
37.90506
37.42113
36.94534
36.47545
36.01137
35.5544
35.1068
34.67087
34.24699
33.83557
33.437
33.04841
32.66602
32.28774
31.91382
31.54642
31.18827
30.84087
30.50581
30.18239
29.86644
29.55382
29.24212
28.9307
28.62124
28.31595
28.01006
27.76235
27.51938
27.28102
27.04409
26.80528
26.56285
26.31766
26.07265
25.83161
25.5979
25.37375
25.15859
24.94899
24.74116
24.53377
24.32896
24.13193
23.94905
23.78632
23.64653
23.52158
23.40245
23.28821
23.17799
23.06895
22.96041
22.85628
22.7618
22.67761
22.60151
22.52924
22.45644
22.38092
22.30292
22.2242
22.14695
22.07271
22.00137
21.93044
21.85709
21.78057
21.69945
21.61731
21.54318
21.48056
21.42297
21.36957
21.31376
21.2465
21.15143
21.04485
20.93987
20.84156
20.75578
20.69122
20.64852
20.6281
20.62909
20.64775
20.68398
20.73932
20.81652
20.91834
21.04564
21.1956
21.36086
21.53041
21.69156
21.83149
21.93832
22.00264
22.01878
21.9854
21.9054
21.78538
21.63429
21.46188
21.27882
21.09724
20.92914
20.784
20.66937
20.59228
20.5582
20.57019
20.6296
20.73647
20.88917
21.08379
21.31381
21.56986
21.83891
22.10433
22.34878
22.55619
22.71451
22.82013
22.87752
22.89711
22.89945
22.90642
22.934
22.99829
23.11663
23.30285
23.5705
23.93503
24.41377
25.02381
25.77711
26.67461
27.70194
28.83057
30.02094
31.22016
32.35694
33.34266
34.08266
34.49298
34.51484
34.12937
33.36111
32.2726
30.95721
29.53434
28.11145
26.70321
25.36717
24.1472
23.07033
22.14911
21.38453
20.7686
20.28552
19.9137
19.62844
19.40647
19.2292
19.08383
18.9641
18.87281
18.82132
18.82824
18.93606
19.18735
19.60243
20.17052
20.9117
21.81022
22.83947
24.01588
25.35443
26.85199
28.4753
30.16049
31.82158
33.36723
34.72524
35.85369
36.73845
37.36776
37.71558
37.74483
37.42663
36.76278
35.79154
34.57906
33.20395
31.74011
30.24195
28.75223
27.31912
25.97422
24.73405
23.60459
22.5849
21.66991
20.85227
20.12335
19.47394
18.89506
18.37893
17.9193
17.51228
17.15658
16.85084
16.59372
16.38665
16.23493
16.14928
16.14659
16.25059
16.48317
16.85534
17.35093
17.98403
18.82573
19.94414
21.3843
23.15619
25.24658
27.62533
30.2011
32.84198
35.41729
37.79445
39.84109
41.40279
42.34681
42.63106
42.23546
41.10635
39.23741
36.78949
34.06853
31.40056
28.99235
26.93044
25.26898
23.91181
22.79512
21.86377
21.07055
20.37959
19.7681
19.22371
18.74091
18.3179
17.95443
17.65045
17.4036
17.19953
17.02508
16.87083
16.72947
16.59527
16.46387
16.33207
16.1973
16.0574
15.91066
15.75641
15.5952
15.42872
15.25922
15.08877
14.91864
14.7493
14.58079
14.41309
14.24644
14.08143
13.91879
13.75885
13.60123
13.44561
13.29178
13.13949
12.98853
12.83866
12.68963
12.54118
12.39304
12.24497
12.09678
11.94854
11.80077
11.65416
11.50965
11.3682
11.23091
11.09874
10.97299
10.85475
10.74543
10.64637
10.55871
10.48363
10.42261
10.37762
10.35107
10.34593
10.36372
10.40411
10.46823
10.55735
10.67261
10.81477
10.98386
11.17895
11.39789
11.63731
11.89265
12.15843
12.42865
12.69716
12.9581
13.20617
13.43685
13.64656
13.83268
13.99358
14.12844
14.23703
14.31947
14.37609
14.40733
14.41374
14.396
14.3552
14.29318
14.21268
14.11729
14.01117
13.89866
13.78372
13.6694
13.55733
13.44729
13.33717
13.22313
13.09998
12.96185
12.8033
12.62088
12.41424
12.18586
11.93946
11.67903
11.41079
11.14541
10.8938
10.66204
10.45123
10.25973
10.08515
9.924709
9.777152
9.643988
9.526633
9.425648
9.339572
9.265951
9.20235
9.146576
9.096633
9.050423
9.005162
8.956952
8.902398
8.840677
8.77331
8.700823
8.624295
8.542222
8.463214
8.393426
366.9197
266.9313
380.3311
172.43
135.2642
99.49298
86.22336
75.04345
65.82129
61.38987
59.57581
58.60492
57.73508
57.00984
56.30604
55.68716
55.13855
54.72206
54.45347
54.22559
54.04029
53.96564
54.16555
54.54699
54.97092
55.43284
55.93598
56.48474
57.07343
57.65433
58.0534
56.90392
57.38392
57.75839
58.01617
58.14958
58.15508
58.03233
57.78343
57.42031
56.96241
56.40693
55.76778
55.06701
54.32399
53.55199
52.75992
51.95422
51.14008
50.32121
49.5045
48.69634
47.89357
47.0968
46.31035
45.53785
44.78377
44.04779
43.32893
42.62592
41.93795
41.26591
40.6112
39.97549
39.36111
38.76863
38.19919
37.64147
37.14241
36.65124
36.16908
35.69402
35.22496
34.76277
34.30968
33.86857
33.44159
33.02934
32.63071
32.24357
31.8646
31.49025
31.11835
30.74905
30.38464
30.02844
29.6835
29.3519
29.03352
28.72541
28.42292
28.12186
27.82007
27.51821
27.21965
26.92937
26.65167
26.38819
26.13697
25.89294
25.65065
25.40595
25.15783
24.90788
24.66102
24.42139
24.19485
23.98183
23.77918
23.58143
23.38329
23.18165
22.97692
22.77268
22.57412
22.38638
22.2122
22.05016
21.89555
21.74345
21.59199
21.44355
21.30363
21.17829
21.07228
20.98683
20.91575
20.84818
20.7784
20.70584
20.63104
20.55601
20.48469
20.42194
20.3678
20.31919
20.27112
20.21948
20.16349
20.10542
20.04876
19.99662
19.9509
19.91155
19.87595
19.8402
19.80081
19.75625
19.70816
19.65975
19.61277
19.56535
19.51518
19.46313
19.40886
19.35261
19.30069
19.26124
19.24413
19.2534
19.28503
19.33015
19.37898
19.42743
19.47995
19.53637
19.5962
19.65982
19.72745
19.79796
19.86786
19.93129
19.98206
20.0154
20.0276
20.01544
19.97648
19.90985
19.81676
19.70055
19.56655
19.42153
19.27285
19.12838
18.99714
18.88802
18.80751
18.76011
18.74966
18.77798
18.84413
18.94558
19.0788
19.2388
19.4189
19.61137
19.808
20.00044
20.1805
20.34047
20.47375
20.57556
20.64493
20.68541
20.70422
20.71354
20.72191
20.73364
20.75515
20.7955
20.86138
20.96091
21.10434
21.3038
21.57163
21.91794
22.34892
22.86614
23.46648
24.14058
24.86857
25.61555
26.33021
26.94806
27.39924
27.62091
27.57
27.23222
26.62534
25.79676
24.8167
23.77151
22.73698
21.74467
20.83959
20.05359
19.40488
18.89882
18.52856
18.27604
18.11513
18.0162
17.95178
17.90064
17.84922
17.79221
17.73202
17.67456
17.62826
17.60978
17.64178
17.73099
17.88379
18.11569
18.43967
18.86442
19.39651
20.04078
20.79558
21.64765
22.57169
23.5326
24.49137
25.41422
26.27801
27.06625
27.75899
28.32766
28.74193
28.97252
28.99521
28.79814
28.38613
27.78121
27.02002
26.14796
25.21023
24.22469
23.21865
22.22897
21.28226
20.39549
19.57787
18.83285
18.15954
17.55379
17.00996
16.52257
16.0869
15.69872
15.35469
15.05212
14.78864
14.56302
14.37613
14.23167
14.13717
14.09883
14.12351
14.2126
14.36516
14.59701
14.93857
15.41833
16.06156
16.88879
17.91447
19.14629
20.57758
22.1794
23.89358
25.64353
27.3689
29.01247
30.51176
31.83273
32.94154
33.79186
34.30823
34.39806
33.97401
33.00985
31.59195
29.89651
28.1159
26.40813
24.87086
23.53516
22.39376
21.42371
20.59883
19.89583
19.29604
18.78502
18.3516
17.98684
17.68343
17.43125
17.21153
17.01071
16.81906
16.62991
16.43916
16.24441
16.04422
15.83664
15.61989
15.3936
15.15925
14.92019
14.68096
14.44579
14.21749
13.99726
13.7853
13.58131
13.38489
13.19594
13.01434
12.83922
12.66906
12.50258
12.33881
12.17701
12.01662
11.85724
11.69852
11.54017
11.38195
11.22369
11.06529
10.90688
10.7488
10.59165
10.43618
10.28323
10.13369
9.988547
9.848874
9.715491
9.589088
9.470399
9.360159
9.259089
9.167977
9.087758
9.019534
8.964702
8.925129
8.901829
8.895505
8.907195
8.93788
8.988369
9.059159
9.1503
9.261278
9.390932
9.537433
9.698338
9.870722
10.05135
10.23688
10.42405
10.60988
10.7918
10.96779
11.13638
11.29669
11.44826
11.59094
11.72469
11.84949
11.96511
12.07109
12.16675
12.25137
12.32431
12.38503
12.43318
12.4685
12.49073
12.4995
12.49412
12.47347
12.43586
12.37904
12.30014
12.19599
12.06375
11.90205
11.71165
11.49526
11.25677
11.00123
10.73612
10.47102
10.21427
9.970779
9.742792
9.531501
9.337683
9.161411
9.003257
8.864207
8.74423
8.641999
8.55483
8.479648
8.413668
8.354562
8.300369
8.249197
8.198694
8.145518
8.086333
8.019747
7.947044
7.869408
7.78864
7.70294
7.619206
7.539301
327.9167
220.8657
166.9266
148.7641
121.1035
101.5197
87.37118
81.84289
75.66909
72.06796
68.9598
64.7854
60.63912
56.72405
53.16195
49.27199
43.26951
41.89409
40.90165
40.37938
40.2797
40.46111
40.76743
41.14149
41.57635
42.08422
42.68246
43.33445
44.02487
44.74964
45.50477
46.28621
47.09331
47.92818
48.78748
49.66386
50.57218
51.52805
52.47698
53.4613
54.61496
55.51043
55.96828
56.2989
56.50704
56.55758
56.44438
56.17341
55.75592
55.20658
54.54408
53.79104
52.96638
52.08663
51.16864
50.22881
49.28011
48.33182
47.38968
46.45555
45.5302
44.61312
43.7072
42.8189
41.95457
41.12622
40.33714
39.58844
38.87683
38.19646
37.54106
36.90575
36.28835
35.68946
35.11152
34.55806
34.0314
33.53272
33.05858
32.60557
32.16943
31.74583
31.32976
30.91839
30.51216
30.11419
29.72913
29.36112
29.01191
28.68027
28.36234
28.0525
27.7451
27.43619
27.12493
26.81408
26.5092
26.21648
25.94083
25.68268
25.43723
25.19705
24.955
24.70681
24.45278
24.19796
23.95014
23.71707
23.5026
23.30411
23.11446
22.92534
22.73002
22.52579
22.31487
22.10388
21.90109
21.71303
21.54126
21.38203
21.22835
21.07274
20.91042
20.7418
20.57264
20.41213
20.26945
20.14962
20.05092
19.967
19.89175
19.82468
19.77128
19.73953
19.73507
19.75745
19.79889
19.84422
19.87696
19.89296
19.89939
19.90777
19.92567
19.95862
20.00111
20.04343
20.07608
20.09345
20.09553
20.08807
20.07942
20.07655
20.08282
20.09753
20.11642
20.12865
20.13406
20.12991
20.11731
20.10116
20.0869
20.07684
20.06826
20.06212
20.0568
20.06287
20.08922
20.14593
20.25042
20.41432
20.62777
20.86571
21.09344
21.28403
21.43294
21.55959
21.67298
21.76977
21.84401
21.88681
21.88807
21.83951
21.73813
21.58878
21.4033
21.19457
20.9722
20.74235
20.50993
20.27952
20.05577
19.84363
19.64839
19.47567
19.33131
19.22143
19.15128
19.12393
19.14083
19.2017
19.30318
19.43976
19.6052
19.79259
19.99394
20.20043
20.40356
20.59614
20.77273
20.93013
21.06692
21.18256
21.27793
21.3556
21.42149
21.49386
21.57678
21.64885
21.68635
21.67524
21.63162
21.57436
21.51146
21.45259
21.40878
21.39206
21.41377
21.48354
21.60931
21.79761
22.05202
22.36971
22.73751
23.12911
23.5046
23.81381
24.00378
24.02853
23.85834
23.48638
22.93088
22.23264
21.44984
20.65459
19.9013
19.23029
18.67394
18.25193
17.96983
17.81747
17.77
17.79361
17.85276
17.91596
17.96039
17.97393
17.95417
17.90669
17.84031
17.76363
17.68559
17.61743
17.56183
17.52326
17.51197
17.53977
17.61807
17.75739
17.96631
18.24926
18.60476
19.02499
19.49694
20.00476
20.53254
21.06564
21.58942
22.08642
22.53548
22.9131
23.19475
23.35773
23.38484
23.26737
23.00671
22.61425
22.11007
21.52277
20.88627
20.22132
19.53548
18.85187
18.18965
17.56261
16.97955
16.44475
15.95814
15.51691
15.11799
14.75888
14.4367
14.14829
13.89084
13.66176
13.45921
13.28272
13.13318
13.01433
12.92839
12.8769
12.859
12.87653
12.93911
13.06011
13.25257
13.52993
13.90659
14.39759
15.01732
15.77588
16.6745
17.70249
18.84013
20.06247
21.33376
22.60796
23.84867
25.03778
26.17366
27.24387
28.21347
29.01816
29.57098
29.79502
29.62899
29.07018
28.17055
27.05139
25.84213
24.64766
23.53622
22.54129
21.67168
20.92213
20.28061
19.73229
19.26169
18.85439
18.50019
18.18116
17.88096
17.58866
17.29673
17.00059
16.6981
16.38855
16.07175
15.74757
15.41668
15.08147
14.74669
14.41901
14.10487
13.80851
13.53174
13.2747
13.03648
12.81546
12.60974
12.41701
12.23464
12.06011
11.89126
11.7264
11.56428
11.40398
11.24487
11.08647
10.92839
10.77036
10.61215
10.45366
10.29495
10.13627
9.978072
9.820998
9.665798
9.513315
9.364439
9.220019
9.080759
8.947304
8.820299
8.700341
8.587942
8.48357
8.387719
8.300965
8.224038
8.157864
8.103513
8.06166
8.033037
8.018343
8.018184
8.03301
8.063052
8.108259
8.168244
8.242256
8.329192
8.427629
8.535904
8.652209
8.774703
8.901634
9.031455
9.162934
9.295227
9.427922
9.561009
9.694824
9.829939
9.967015
10.10664
10.24915
10.39457
10.54248
10.69199
10.84166
10.98951
11.1329
11.26859
11.39275
11.5011
11.58914
11.65245
11.68688
11.68875
11.65496
11.58333
11.47319
11.32586
11.14465
10.93445
10.70154
10.45386
10.20015
9.948026
9.702953
9.468609
9.24772
9.042337
8.853902
8.684075
8.533969
8.403321
8.290439
8.192512
8.106439
8.029387
7.958973
7.893214
7.830273
7.768076
7.703982
7.635434
7.56111
7.481925
7.399003
7.313868
7.224676
7.1362
7.049732
168.456
124.1839
190.4586
93.52876
80.16974
68.68373
65.31688
62.95186
60.34927
59.35003
58.01396
56.06842
54.25062
52.29749
49.9753
45.29845
44.24249
43.25202
42.29319
41.37068
40.43929
39.54854
38.76001
38.10762
37.6158
37.28433
37.03477
36.79541
36.74966
36.92443
37.30368
37.82743
38.42668
39.07202
39.77316
40.52285
41.30506
42.11226
42.94263
43.79402
44.66243
45.54037
46.43083
47.34693
48.30301
49.26623
50.24653
51.3192
52.26549
53.08386
53.76511
54.23685
54.45568
54.47212
54.26981
53.8576
53.26142
52.50981
51.62974
50.64705
49.58608
48.46922
47.31865
46.1544
44.99572
43.86006
42.76128
41.70743
40.70018
39.7353
38.80513
37.90459
37.04351
36.22474
35.45266
34.73396
34.07187
33.46158
32.89788
32.37105
31.86959
31.38384
30.90828
30.44227
29.98941
29.55546
29.14597
28.76434
28.41018
28.07852
27.76203
27.45309
27.14497
26.83358
26.51887
26.20504
25.89901
25.60834
25.33795
25.08799
24.85382
24.62787
24.40141
24.16756
23.92384
23.67351
23.42447
23.18621
22.96721
22.77063
22.59101
22.41773
22.24004
22.05066
21.84819
21.63833
21.4325
21.24301
21.07655
20.93079
20.79681
20.66337
20.52062
20.36326
20.19294
20.0182
19.85115
19.70173
19.57326
19.46221
19.36034
19.25835
19.15184
19.04517
18.95137
18.88823
18.87169
18.91512
19.01233
19.14379
19.30222
19.49904
19.75527
20.08635
20.48858
20.93172
21.36692
21.74491
22.03646
22.25739
22.45199
22.67221
22.93855
23.23479
23.52962
23.78391
23.97017
24.08282
24.13797
24.16385
24.18621
24.21957
24.26583
24.31656
24.35698
24.35897
24.33405
24.28733
24.23072
24.1795
24.1444
24.12813
24.12297
24.13563
24.1628
24.23192
24.36047
24.56605
24.87752
25.30128
25.80694
26.3246
26.77149
27.10053
27.32349
27.48991
27.62224
27.71899
27.76568
27.73639
27.60201
27.34159
26.95623
26.4709
25.92237
25.34636
24.77085
24.21521
23.69391
23.21778
22.79492
22.43163
22.13322
21.90496
21.75144
21.67452
21.67156
21.73631
21.86104
22.0356
22.2459
22.47836
22.72195
22.96616
23.20081
23.41738
23.6105
23.77856
23.9234
24.05053
24.16739
24.28196
24.40296
24.53909
24.70503
24.93548
25.18476
25.38813
25.48299
25.43475
25.24717
24.98215
24.66415
24.31514
23.95523
23.60482
23.27868
22.98641
22.73699
22.53944
22.40221
22.33089
22.32484
22.37385
22.45593
22.53775
22.57842
22.53634
22.37743
22.08276
21.65373
21.11298
20.50132
19.8737
19.29387
18.80753
18.44634
18.2292
18.15729
18.21141
18.35474
18.54282
18.73438
18.89548
19.00268
19.04614
19.02987
18.96703
18.87235
18.75724
18.62881
18.49142
18.34221
18.18429
18.02612
17.8785
17.75252
17.6585
17.60489
17.59864
17.64342
17.73881
17.88106
18.06426
18.28127
18.52418
18.78393
19.04915
19.30586
19.53804
19.72785
19.85716
19.9098
19.87381
19.74328
19.51897
19.20936
18.8262
18.38835
17.91845
17.4375
16.95051
16.47059
16.00899
15.574
15.1707
14.80045
14.46168
14.1526
13.8719
13.6174
13.38641
13.17656
12.98563
12.81196
12.65491
12.51539
12.39554
12.2957
12.21576
12.15527
12.11566
12.10133
12.11803
12.17222
12.27182
12.42653
12.64737
12.94568
13.33199
13.81458
14.39795
15.08207
15.8614
16.72215
17.64426
18.6055
19.60028
20.61631
21.63665
22.64161
23.61553
24.53537
25.36709
26.05598
26.53786
26.75675
26.68651
26.34518
25.78994
25.09702
24.34019
23.57694
22.84558
22.16677
21.54694
20.98167
20.45906
19.96715
19.50018
19.04751
18.60072
18.15407
17.70443
17.25149
16.79707
16.34386
15.8942
15.44958
15.01193
14.5855
14.17748
13.7954
13.44377
13.12364
12.83377
12.57182
12.33474
12.11884
11.91996
11.73421
11.55844
11.39
11.22674
11.06709
10.9099
10.75438
10.59996
10.44622
10.29284
10.13958
9.986282
9.832925
9.679636
9.526718
9.374646
9.224033
9.075593
8.930082
8.788237
8.650735
8.518204
8.391203
8.270197
8.155555
8.047586
7.946583
7.852876
7.76687
7.689091
7.620239
7.560961
7.511722
7.472958
7.445057
7.428322
7.422944
7.428964
7.446246
7.474457
7.513066
7.561351
7.618433
7.683322
7.754978
7.832387
7.914645
8.001044
8.091158
8.184901
8.282563
8.384807
8.492633
8.607287
8.730138
8.862518
9.005568
9.160076
9.326312
9.503865
9.691478
9.88688
10.08663
10.28601
10.4791
10.65902
10.81842
10.95004
11.04728
11.10465
11.11815
11.08561
11.00719
10.88569
10.72626
10.5357
10.32202
10.09373
9.858612
9.623074
9.392129
9.169759
8.95911
8.762664
8.582651
8.420517
8.276205
8.148398
8.034816
7.932826
7.839885
7.75375
7.672479
7.594285
7.517319
7.439552
7.359169
7.275346
7.188962
7.101013
7.012542
6.921511
6.83058
6.740054
69.52864
51.57967
49.56133
47.04787
45.98164
44.69489
43.66879
42.80889
42.0869
40.95855
38.19944
38.06359
37.94765
37.84421
37.7199
37.56247
37.41007
37.29277
37.22159
37.18275
37.02802
36.6326
36.24162
35.86215
35.50193
35.16851
34.88652
34.6729
34.53885
34.4866
34.5057
34.58919
34.75765
35.03904
35.4488
35.97521
36.58335
37.23563
37.93583
38.68161
39.46155
40.27317
41.11154
41.97614
42.8687
43.79164
44.71692
45.65294
46.63354
47.6978
48.70902
49.65592
50.48204
51.1271
51.5523
51.73767
51.6675
51.34896
50.79414
50.02525
49.07206
47.97171
46.76394
45.48544
44.16735
42.83373
41.50311
40.19154
38.91378
37.68715
36.52797
35.45208
34.46737
33.57429
32.75994
32.00776
31.30298
30.63809
30.01187
29.42776
28.88678
28.39571
27.9575
27.56702
27.21173
26.87654
26.54849
26.21967
25.88851
25.55957
25.24117
24.94193
24.66826
24.42186
24.19836
23.98908
23.78457
23.57656
23.35922
23.13091
22.89546
22.66202
22.44124
22.24074
22.0631
21.9041
21.75432
21.60288
21.44071
21.26355
21.07347
20.87897
20.6934
20.52892
20.38976
20.27016
20.15811
20.04113
19.91001
19.76151
19.60069
19.44104
19.29846
19.18122
19.08631
19.00378
18.9219
18.83028
18.72254
18.59945
18.47027
18.34982
18.25149
18.18098
18.13636
18.11165
18.10637
18.14288
18.25087
18.47055
18.84132
19.38193
20.12475
20.96852
21.79787
22.60472
23.45537
24.42761
25.56149
26.82863
28.11488
29.26518
30.17043
30.80328
31.23799
31.58304
31.94939
32.36197
32.80614
33.23173
33.5703
33.77536
33.84198
33.80759
33.73021
33.65503
33.60235
33.56804
33.52966
33.45796
33.33706
33.1557
32.93839
32.71841
32.51782
32.34351
32.19584
32.08129
32.01417
32.0203
32.11199
32.2969
32.58883
33.01257
33.58668
34.26625
34.92565
35.41865
35.68356
35.77398
35.78665
35.76083
35.70896
35.61478
35.43687
35.12832
34.65053
34.00693
33.22942
32.36242
31.4502
30.5359
29.65774
28.84495
28.11851
27.49354
26.98141
26.59164
26.33266
26.2099
26.22044
26.34972
26.57591
26.87463
27.21697
27.57363
27.92218
28.24312
28.51941
28.74011
28.90293
29.01398
29.08611
29.13686
29.18628
29.25565
29.3669
29.53848
29.7837
30.12734
30.55167
30.95433
31.22407
31.27474
31.08032
30.66473
30.0982
29.4411
28.73153
28.00416
27.29284
26.61354
25.97199
25.37345
24.82409
24.33085
23.90114
23.54063
23.24993
23.02106
22.83543
22.66472
22.47517
22.23447
21.91936
21.52229
21.05482
20.54684
20.0427
19.59889
19.27093
19.09093
19.07532
19.21603
19.47882
19.81176
20.15899
20.47252
20.71576
20.86511
20.91491
20.87761
20.77632
20.63559
20.47169
20.29218
20.08494
19.84744
19.58687
19.31496
19.04203
18.77541
18.5219
18.28942
18.08615
17.9192
17.7921
17.70387
17.65224
17.6349
17.64885
17.68984
17.75183
17.82659
17.90357
17.97022
18.01289
18.01827
17.97501
17.87494
17.71387
17.49244
17.2161
16.89474
16.5418
16.17314
15.80324
15.43831
15.08628
14.75328
14.44304
14.15662
13.8931
13.65084
13.42847
13.22421
13.03578
12.861
12.69802
12.54558
12.40354
12.27331
12.15549
12.05016
11.95723
11.87651
11.80844
11.75451
11.71701
11.69925
11.70605
11.74371
11.81961
11.94184
12.11868
12.35801
12.66635
13.04848
13.50718
14.04174
14.64751
15.31732
16.04365
16.81833
17.63441
18.48471
19.35818
20.23787
21.10081
21.92496
22.68201
23.33939
23.85944
24.20603
24.36106
24.33242
24.14492
23.83339
23.43554
22.98446
22.50406
22.00705
21.4944
20.95629
20.39398
19.81749
19.23262
18.64354
18.05424
17.46941
16.89462
16.33532
15.79521
15.27546
14.77596
14.29849
13.84883
13.43366
13.05659
12.71716
12.41296
12.14093
11.89714
11.67696
11.4758
11.28957
11.11471
10.94819
10.78762
10.63123
10.47778
10.32643
10.1766
10.02793
9.880162
9.73311
9.586643
9.440705
9.295336
9.150702
9.007105
8.864977
8.724854
8.587332
8.453013
8.322467
8.196206
8.074663
7.958186
7.847044
7.741448
7.641584
7.547642
7.459865
7.378562
7.304254
7.237386
7.178243
7.127092
7.084169
7.049658
7.02368
7.006275
6.997384
6.996845
7.004378
7.019599
7.042025
7.0711
7.106223
7.146796
7.19228
7.24226
7.296521
7.355113
7.418411
7.487146
7.562417
7.645664
7.738587
7.843037
7.960873
8.093808
8.243235
8.410034
8.594381
8.79553
9.011534
9.238966
9.472719
9.706017
9.930689
10.13774
10.31808
10.46331
10.56636
10.62204
10.62768
10.58379
10.494
10.36418
10.20171
10.0147
9.811096
9.598097
9.381842
9.16747
8.959174
8.760317
8.573608
8.400978
8.24316
8.099685
7.969173
7.849769
7.739509
7.636513
7.53904
7.44542
7.353991
7.263103
7.17141
7.078551
6.985459
6.893151
6.802431
6.71139
6.620964
6.529681
94.3588
39.8199
33.17393
31.80036
31.09246
30.78032
30.78162
30.9594
31.2677
31.66773
31.99935
32.13965
32.28151
32.40977
32.52691
32.62608
32.71571
32.79732
32.85864
32.87813
32.83171
32.73667
32.64574
32.56751
32.51001
32.47853
32.48568
32.5352
32.62773
32.76324
32.94237
33.16754
33.4487
33.79187
34.20744
34.69131
35.2292
35.84379
36.53613
37.29215
38.10938
38.98438
39.88916
40.82229
41.78688
42.8236
43.83562
44.84295
45.86504
46.85476
47.72578
48.41953
48.88179
49.07878
48.99444
48.6306
48.00591
47.14929
46.06727
44.80691
43.41694
41.9469
40.44514
38.95463
37.50767
36.12311
34.80838
33.5657
32.39763
31.31243
30.33074
29.4648
28.71558
28.07079
27.51064
27.01049
26.54527
26.09292
25.65037
25.22523
24.83043
24.47979
24.18059
23.92794
23.70593
23.49535
23.28082
23.05403
22.81428
22.56758
22.32453
22.09633
21.89202
21.71508
21.56184
21.42238