/*--------------------------------*- C++ -*----------------------------------*\
| =========                 |                                                 |
| \\      /  F ield         | foam-extend: Open Source CFD                    |
|  \\    /   O peration     | Version:     3.1                                |
|   \\  /    A nd           | Web:         http://www.extend-project.de       |
|    \\/     M anipulation  |                                                 |
\*---------------------------------------------------------------------------*/
FoamFile
{
    version     2.0;
    format      ascii;
    class       volScalarField;
    location    "16.5";
    object      pd;
}
// * * * * * * * * * * * * * * * * * * * * * * * * * * * * * * * * * * * * * //

dimensions      [1 -1 -2 0 0 0 0];

internalField   nonuniform List<scalar> 
119952
(
4977.257
3289.123
3049.346
3282.259
3529.744
3315.941
3250.547
3199.67
3167.87
3146.507
3128.781
3114.63
3103.316
3094.515
3086.788
3078.667
3069.893
3057.066
3028.921
2925.861
3302.807
3100.889
3008.664
3508.864
3479.583
3528.091
3580.578
3715.812
4140.673
7548.824
3024.317
2967.869
2965.21
2955.667
2946.921
2937.803
2931.549
2926.828
2922.987
2893.325
2881.615
2898
2891.033
2886.768
2883.293
2881.563
2881.237
2881.434
2883.005
2908.917
2907.223
2888.761
2887.161
2891.431
2895.39
2900.475
2906.59
2912.576
2926.961
2928.203
2933.332
2949.974
2966.806
2984.008
3003.32
3024.775
3058.102
3153.91
3345.808
3205.088
3150.099
3248.012
3293.59
3269.302
3218.128
3182.887
3158.184
3137.838
3122.042
3110.212
3100.555
3092.243
3084.73
3077.693
3070.641
3062.943
3056.167
3058.825
3095.071
3130.031
3142.854
3264.099
3445.693
3493.124
3516.307
3539.227
3464.72
3167.154
3094.517
3166.985
3195.4
3213.858
3230.633
3242.151
3249.854
3256.317
3263.073
3271.509
3282.033
3295.266
3311.478
3330.89
3353.48
3379.139
3407.757
3439.302
3473.854
3511.496
3552.281
3596.204
3643.195
3693.148
3745.944
3801.372
3859.118
3918.95
3980.883
4045.077
4111.847
4181.326
4254.161
4330.561
4410.802
4494.99
4582.948
4674.139
4767.504
4861.468
4953.966
5042.542
5124.958
5200.016
5267.967
5329.754
5385.274
5432.968
5474.05
5511.001
5538.363
5550.667
5559.642
5567.947
5577.342
5589.821
5606.855
5629.335
5656.94
5688.326
5720.34
5748.462
5768.865
5783.375
5799.424
5822.911
5853.949
5888.237
5923.122
5956.569
5987.836
6018.38
6048.978
6079.743
6110.671
6140.676
6169.309
6196.118
6220.208
6240.852
6257.523
6269.793
6277.385
6280.178
6278.388
6272.018
6261.257
6247.657
6232.276
6216.576
6202.475
6191.717
6186.081
6186.408
6193.686
6208.406
6223.871
6204.175
6190.434
6254.874
6272.397
6279.06
6293.692
6312.668
6326.073
6330.356
6330.061
6328.158
6326.423
6328.085
6336.274
6350.534
6367.842
6385.835
6402.954
6419
6434.495
6449.919
6465.797
6482.486
6499.862
6517.853
6536.159
6554.515
6572.701
6590.533
6607.831
6624.44
6640.2
6654.946
6668.462
6680.397
6689.983
6694.763
6695.862
6729.939
6758.091
6784.646
6810.444
6836.749
6864.097
6893.001
6925.641
6964.453
6999.481
6994.678
6906.205
6951.54
7006.281
7032.826
7046.527
7052.199
7059.862
7070.038
7076.446
7078.65
7079.218
7080.063
7081.098
7081.989
7084.068
7089.235
7096.941
7105.828
7113.939
7119.972
7123.335
7124.092
7122.754
7130.316
7117.623
7104.306
7095.149
7084.559
7073.95
7063.754
7054.523
7046.879
7041.546
7039.144
7039.942
7044.56
7053.151
7065.738
7082.222
7102.344
7125.698
7151.763
7179.937
7209.57
7239.984
7270.525
7300.631
7329.847
7357.813
7384.246
7408.912
7431.616
7452.199
7470.548
7486.601
7500.349
7511.826
7521.093
7528.235
7533.378
7536.702
7538.425
7538.789
7538.047
7536.454
7534.279
7531.804
7529.173
7525.785
7520.777
7515.184
7510.119
7505.36
7500.886
7496.743
7492.732
7487.808
7476.195
7477.111
7475.473
7472.154
7469.16
7466.097
7462.992
7459.878
7456.801
7453.665
7450.394
7447.018
7443.605
7440.216
7436.854
7433.485
7430.062
7426.537
7422.872
7419.042
7415.036
7410.852
7406.502
7402.003
7397.372
7392.627
7387.789
7382.875
7377.897
7372.871
7367.809
7362.717
7357.599
7352.452
7347.275
7342.056
7336.784
7331.436
7326.004
7320.495
7314.921
7309.266
7303.491
7297.543
7291.354
7284.842
7277.935
7270.561
7262.642
7254.124
7244.99
7235.238
7224.907
7214.078
7202.863
7191.375
7179.768
7166.16
7153.565
7145.801
7135.861
7125.826
7111.946
7107.655
7100.462
7095.102
7092.886
7092.565
7094.392
7098.047
7102.877
7108.565
7114.846
7121.452
7128.087
7134.432
7140.189
7145.161
7149.282
7152.315
7153.517
7151.975
7149.242
7163.923
7239.862
5652.699
5498.101
5315.377
5144.229
4980.583
4825.011
4677.955
4538.986
4408.858
4276.595
4161.538
4057.521
3958.31
3866.608
3783.045
3706.768
3638.678
3571.43
3503.433
3473.782
3416.112
3361.814
3318.084
3279.596
3244.578
3213.124
3184.2
3159.648
3141.552
3106.988
3086.499
3069.573
3051.768
3035.585
3020.753
3006.923
2996.286
2994.407
2967.973
2950.626
2944.138
2937.641
2929.906
2923.029
2916.609
2910.862
2906.11
2895.422
2894.133
2893.086
2889.913
2886.39
2883.68
2881.92
2882.018
2890.661
2871.469
2874.8
2882.709
2888.759
2892.288
2895.126
2898.884
2904.071
2910.545
2917.395
2927.78
2941.154
2954.791
2969.114
2986.071
3007.77
3037.251
3077.51
3124.316
3166.588
3180.226
3175.335
3182.434
3192.416
3190.584
3174.698
3152.776
3132.967
3118.188
3107.809
3099.918
3093.039
3086.746
3081.141
3076.636
3074.085
3075.014
3081.828
3097.416
3124.49
3164.044
3215.536
3281.439
3352.411
3402.676
3419.729
3402.445
3354.793
3275.798
3216.989
3207.039
3218.966
3233.356
3243.019
3248.268
3250.546
3252.649
3256.662
3263.551
3273.595
3286.997
3303.93
3324.411
3348.331
3375.581
3406.054
3439.839
3477.136
3517.908
3561.886
3608.756
3658.221
3710.002
3763.851
3819.558
3876.993
3936.135
3997.069
4060.095
4125.569
4193.925
4265.675
4341.392
4421.423
4505.926
4594.853
4687.665
4783.277
4880.152
4976.36
5069.719
5158.143
5239.844
5313.544
5378.458
5433.586
5478.355
5512.08
5535.243
5548.975
5556.496
5559.255
5560.113
5564.055
5572.562
5586.543
5606.604
5631.921
5660.999
5691.728
5721.82
5750.055
5777.177
5805.923
5838.454
5874.07
5911.113
5947.494
5982.176
6014.631
6045.298
6074.934
6103.712
6132.065
6158.767
6184.398
6207.902
6228.514
6245.621
6258.724
6267.353
6271.222
6270.284
6264.664
6254.798
6241.306
6225.32
6208.291
6191.75
6177.161
6166.668
6161.031
6160.908
6168.074
6178.627
6186.298
6195.395
6202.729
6229.328
6263.608
6281.526
6299.992
6316.747
6328.893
6334.75
6335.912
6334.947
6334.344
6337.563
6346.986
6360.902
6376.513
6392.359
6407.724
6422.421
6436.837
6451.368
6466.7
6482.822
6499.461
6516.821
6534.487
6552.225
6569.84
6587.155
6604.005
6620.238
6635.719
6650.32
6663.907
6676.349
6687.716
6698.97
6712.986
6734.066
6759.413
6784.016
6808.998
6834.73
6861.279
6888.961
6917.357
6943.697
6963.715
6962.539
6949.068
6975.605
7006.475
7030.616
7046.919
7056.851
7065.565
7073.896
7080.325
7083.35
7083.876
7083.852
7084.171
7084.226
7085.873
7091.388
7099.88
7109.183
7117.493
7123.643
7127.023
7127.891
7126.344
7125.752
7118.92
7107.656
7096.61
7085.87
7074.946
7064.15
7054.255
7046.032
7040.162
7037.215
7037.755
7042.083
7050.341
7062.635
7078.859
7098.742
7121.85
7147.647
7175.539
7204.883
7234.937
7265.022
7294.617
7323.306
7350.766
7376.748
7401.043
7423.463
7443.845
7462.078
7478.104
7491.921
7503.567
7513.086
7520.492
7525.929
7529.599
7531.711
7532.485
7532.149
7530.925
7529.005
7526.522
7523.513
7519.927
7515.711
7511.091
7506.473
7502.046
7497.81
7493.761
7489.823
7485.775
7480.887
7476.13
7472.679
7470.03
7467.359
7464.386
7461.226
7458.054
7454.888
7451.717
7448.557
7445.3
7442.025
7438.752
7435.48
7432.188
7428.847
7425.42
7421.874
7418.186
7414.339
7410.324
7406.141
7401.799
7397.311
7392.692
7387.959
7383.13
7378.219
7373.243
7368.214
7363.139
7358.019
7352.858
7347.65
7342.383
7337.047
7331.64
7326.161
7320.614
7315.003
7309.317
7303.522
7297.569
7291.393
7284.916
7278.055
7270.729
7262.862
7254.396
7245.29
7235.529
7225.141
7214.226
7202.965
7191.434
7179.426
7168.137
7156.966
7145.529
7135.19
7125.526
7112.992
7095.264
7088.169
7082.209
7077.543
7079.376
7089.203
7094.116
7097.985
7102.821
7108.427
7114.52
7120.812
7126.882
7131.409
7134.069
7138.751
7144.442
7149.791
7154.578
7162.462
7176.805
7199.676
3670.364
3733.013
3818.034
3922.275
4043.709
4181.306
4334.612
4502.92
4684.45
4875.405
5076.142
5286.911
5501.482
5719.617
5938.951
6154.019
6363.355
6560.918
6743.685
6926.11
7068.151
7186.238
7278.294
7342.12
7376.115
7379.52
7352.536
7296.471
7216.735
7109.196
6981.145
6834.385
6673.988
6503.232
6325.224
6142.771
5958.814
5776.358
5583.984
5406.534
5232.623
5064.808
4904.955
4752.73
4608.934
4474.113
4348.99
4231.953
4118.572
4016.147
3921.072
3832.16
3750.717
3676.36
3609.514
3558.598
3464.385
3413.795
3373.786
3334.331
3295.057
3257.856
3223.869
3193.346
3166.148
3141.124
3118.047
3098.493
3080.1
3061.61
3043.626
3026.958
3011.833
2998.263
2985.916
2974.236
2964.311
2955.074
2945.627
2936.306
2927.557
2919.46
2912.043
2905.188
2899.011
2894.869
2891.938
2888.819
2885.634
2882.701
2879.98
2877.603
2875.587
2874.287
2874.444
2877.91
2882.599
2885.598
2887.658
2889.997
2893.296
2897.881
2903.965
2911.902
2921.952
2933.372
2946.122
2960.665
2977.802
2998.646
3023.814
3052.627
3084.004
3115.909
3136.468
3139.878
3140.93
3146.716
3148.061
3139.53
3125.303
3111.894
3102.145
3095.825
3091.229
3086.797
3082.334
3078.397
3075.91
3076.205
3080.798
3091.307
3109.076
3135.646
3171.333
3213.746
3261.835
3311.81
3351.663
3368.406
3363.553
3340.632
3297.208
3256.7
3240.523
3243.212
3250.334
3254.186
3252.817
3249.271
3246.378
3246.159
3250.508
3259.087
3271.826
3288.644
3309.343
3333.674
3361.615
3392.985
3428.022
3467.252
3510.54
3557.259
3606.761
3658.466
3711.878
3766.619
3822.447
3879.287
3937.189
3996.289
4057.01
4120.019
4185.855
4255.131
4328.643
4407.1
4490.972
4580.467
4675.204
4774.279
4876.292
4979.285
5080.831
5178.263
5268.801
5350.008
5419.93
5476.725
5519.403
5547.897
5563.078
5567.158
5564.123
5555.752
5545.826
5540.458
5542.342
5551.475
5567.976
5591.21
5619.921
5652.358
5686.626
5721.544
5757.287
5795.151
5836.014
5878.997
5922.123
5963.72
6002.715
6038.439
6071.129
6101.356
6129.547
6156.343
6181.583
6204.776
6225.21
6242.475
6256.121
6265.617
6270.48
6270.406
6265.388
6255.631
6241.689
6224.38
6204.96
6184.944
6166.044
6149.819
6137.841
6131.389
6130.555
6135.316
6146.132
6159.617
6174.261
6191.879
6219.44
6244.788
6267.42
6287.858
6305.193
6318.922
6328.839
6336.022
6341.589
6347.102
6354.709
6365.461
6379.176
6394.167
6409.033
6423.328
6436.915
6450.197
6463.552
6477.215
6492.004
6507.502
6523.878
6540.655
6557.57
6574.41
6590.996
6607.167
6622.79
6637.772
6652.067
6665.711
6678.894
6692.116
6706.221
6722.269
6741.066
6762.292
6784.796
6807.913
6831.541
6855.372
6879.394
6902.461
6923.247
6937.113
6948.769
6957.787
6974.496
6996.419
7015.277
7030.597
7043.756
7055.033
7063.969
7069.918
7074.697
7078.736
7081.633
7084.567
7089.458
7097.78
7108.063
7117.097
7123.633
7127.257
7129.633
7131.651
7132.162
7130.966
7128.058
7120.788
7110.779
7099.955
7088.765
7077.19
7065.593
7054.738
7045.443
7038.436
7034.373
7033.839
7037.184
7044.399
7055.807
7071.292
7090.562
7113.15
7138.504
7166.057
7195.242
7225.276
7255.316
7284.802
7313.36
7340.698
7366.61
7390.924
7413.445
7433.982
7452.405
7468.652
7482.731
7494.723
7504.753
7512.744
7518.721
7522.917
7525.549
7526.822
7526.945
7526.116
7524.505
7522.249
7519.444
7516.149
7512.403
7508.303
7504.073
7499.9
7495.859
7491.909
7488.053
7484.268
7481.067
7477.982
7474.559
7470.936
7467.346
7463.855
7460.449
7457.124
7453.851
7450.659
7447.382
7444.118
7440.876
7437.648
7434.429
7431.2
7427.932
7424.597
7421.166
7417.614
7413.922
7410.078
7406.071
7401.905
7397.587
7393.127
7388.539
7383.838
7379.04
7374.16
7369.213
7364.209
7359.151
7354.04
7348.875
7343.65
7338.357
7332.989
7327.547
7322.036
7316.459
7310.805
7305.047
7299.145
7293.038
7286.654
7279.909
7272.716
7264.994
7256.666
7247.695
7238.053
7227.738
7216.824
7205.46
7193.786
7181.954
7170.294
7158.562
7147.056
7136.545
7127.201
7119.216
7111.869
7102.014
7082.548
7079.213
7085.532
7089.134
7090.518
7093.16
7097.138
7102.102
7107.76
7113.847
7119.943
7122.7
7120.396
7125.186
7133.009
7144.722
7152.355
7160.559
7169.957
7186.923
3636.149
3597.65
3569.013
3541.219
3520.709
3510.791
3515.81
3538.582
3576.095
3594.861
3597.376
3618.654
3662.856
3726.702
3810.309
3911.302
4028.659
4162.319
4309.825
4471.291
4646.222
4832.408
5027.227
5229.705
5437.728
5648.987
5860.778
6070.598
6274.851
6469.347
6650.91
6854.94
6998.029
7113.163
7200.208
7258.281
7286.133
7283.34
7250.618
7189.734
7103.274
6992.984
6861.351
6712.253
6549.86
6377.963
6199.816
6018.11
5835.099
5652.655
5472.527
5296.61
5125.835
4961.833
4805.617
4658.154
4519.808
4390.42
4269.8
4157.277
4051.994
3953.614
3862.183
3777.575
3699.731
3628.553
3563.804
3504.507
3447.184
3398.77
3358.166
3318.84
3279.903
3243.152
3209.657
3179.703
3153.031
3129.442
3108.845
3089.973
3071.814
3054.251
3037.252
3020.956
3005.657
2991.621
2979.147
2968.891
2960.074
2950.992
2941.814
2932.923
2924.21
2915.666
2907.936
2900.849
2894.523
2890.424
2887.661
2885.405
2883.096
2880.402
2877.239
2873.93
2871.502
2870.707
2871.576
2874.394
2877.941
2881.126
2883.766
2886.26
2889.134
2892.465
2897.627
2905.595
2914.58
2925.148
2937.375
2951.004
2966.365
2984.003
3003.941
3025.969
3049.591
3073.527
3093.582
3101.207
3103.816
3106.902
3107.731
3103.543
3095.994
3089.016
3084.59
3082.902
3081.879
3079.589
3076.588
3073.632
3072.019
3073.658
3080.095
3092.231
3110.878
3136.416
3168.137
3204.9
3244.883
3284.572
3317.795
3337.635
3341.556
3331.826
3311.574
3288.72
3274.203
3269.561
3268.445
3265.205
3257.81
3247.569
3237.726
3232.118
3232.537
3239.354
3251.604
3268.574
3289.595
3314.04
3342.185
3373.661
3409.234
3450.215
3496.318
3546.376
3599.27
3654.054
3709.93
3766.288
3822.78
3879.306
3935.978
3993.137
4051.195
4110.737
4172.625
4238.45
4309.25
4385.482
4468.06
4558.12
4655.472
4759.265
4868.228
4980.385
5092.975
5202.569
5305.167
5396.834
5473.997
5533.741
5574.791
5597.07
5601.848
5592.314
5573.067
5548.756
5525.225
5508.908
5501.651
5504.229
5516.728
5538.24
5567.23
5601.98
5640.903
5682.866
5727.435
5774.636
5824.133
5874.745
5924.914
5973.282
6018.723
6060.502
6098.455
6132.754
6163.65
6191.39
6215.924
6237.014
6254.602
6268.337
6277.938
6282.97
6282.872
6277.448
6266.749
6251.063
6231.14
6208.145
6183.521
6158.857
6136.04
6116.787
6102.679
6094.88
6093.757
6099.995
6111.088
6127.73
6147.583
6170.381
6197.955
6226.619
6253.215
6276.703
6296.9
6313.503
6326.75
6337.723
6347.51
6357.108
6368.088
6381.053
6395.115
6409.175
6423.073
6436.582
6449.495
6462.08
6474.746
6487.834
6501.724
6516.225
6531.236
6546.7
6562.341
6577.984
6593.481
6608.662
6623.421
6637.712
6651.538
6664.957
6678.17
6691.627
6705.882
6721.394
6738.647
6757.861
6778.486
6799.819
6821.556
6843.497
6865.269
6886.197
6905.849
6922.483
6935.669
6947.778
6963.899
6983.365
7001.299
7016.598
7029.368
7040.477
7050.884
7060.204
7067.736
7074.21
7081.424
7089.257
7095.917
7100.685
7105.969
7114.209
7124.911
7135.695
7142.02
7143.356
7141.646
7137.64
7132.014
7124.19
7114.109
7102.614
7090.384
7077.766
7065.206
7053.396
7043.136
7035.193
7030.295
7029.026
7032.003
7038.278
7049.183
7064.375
7083.538
7106.14
7131.552
7159.216
7188.502
7218.671
7248.978
7278.789
7307.611
7335.098
7361.1
7385.508
7408.139
7428.775
7447.27
7463.576
7477.712
7489.737
7499.736
7507.752
7513.869
7518.253
7521.086
7522.555
7522.859
7522.188
7520.716
7518.591
7515.933
7512.83
7509.355
7505.597
7501.701
7497.799
7493.97
7490.219
7486.584
7483.092
7479.779
7476.295
7472.611
7468.962
7465.497
7462.181
7458.923
7455.675
7452.437
7449.23
7446.006
7442.784
7439.545
7436.303
7433.06
7429.801
7426.507
7423.158
7419.733
7416.214
7412.583
7408.827
7404.936
7400.906
7396.738
7392.436
7388.009
7383.467
7378.821
7374.084
7369.266
7364.377
7359.422
7354.404
7349.324
7344.179
7338.964
7333.675
7328.315
7322.883
7317.377
7311.788
7306.091
7300.249
7294.206
7287.892
7281.224
7274.117
7266.485
7258.252
7249.335
7239.687
7229.38
7218.446
7207
7195.182
7183.132
7171.069
7159.111
7147.539
7136.726
7126.867
7118.108
7110.334
7103.497
7097.951
7092.988
7088.909
7086.764
7087.135
7089.418
7093.015
7097.688
7103.19
7109.268
7115.649
7121.574
7120.758
7119.491
7126.236
7139.945
7149.854
7157.863
7165.438
7179.162
4144.416
4101.093
4058.755
4014.281
3966.19
3914.771
3866.66
3818.807
3772.013
3726.561
3682.569
3641.995
3603.751
3569.869
3541.704
3519.013
3504.265
3501.571
3508.125
3520.074
3534.102
3555.694
3591.032
3642.701
3710.7
3795.199
3897.713
4016.794
4151.738
4301.542
4464.891
4640.362
4826.723
5022.32
5225.173
5432.966
5643.841
5854.59
6061.964
6263.026
6457.67
6633.466
6785.242
6924.958
7039.576
7125.987
7183.046
7209.756
7205.832
7171.935
7109.566
7021.061
6909.015
6776.287
6626.529
6463.881
6292.364
6115.317
5935.381
5754.821
5575.118
5397.566
5223.668
5054.797
4892.421
4737.936
4592.156
4455.779
4329.384
4212.548
4104.19
4003.085
3908.553
3820.37
3738.479
3662.785
3593.553
3530.497
3473.961
3423.343
3378.287
3337.936
3299.864
3263.019
3227.969
3195.478
3166.182
3140.521
3118.291
3098.991
3081.555
3064.988
3048.628
3032.169
3015.757
2999.999
2985.959
2973.675
2963.289
2955.275
2947.864
2939.931
2931.398
2922.147
2912.233
2902.774
2895.481
2889.543
2885.862
2884.48
2883.196
2881.357
2878.494
2874.571
2870.268
2866.816
2865.634
2866.735
2870.099
2874.595
2878.802
2881.746
2883.431
2884.704
2886.517
2890.227
2896.741
2905.768
2915.913
2926.964
2938.643
2950.9
2964.459
2979.879
2997.356
3016.616
3036.805
3054.301
3063.069
3066.449
3068.627
3069.308
3067.79
3065.104
3064.025
3065.344
3068.559
3073.089
3072.267
3069.787
3066.558
3064.011
3065.052
3071.998
3085.154
3104.621
3129.51
3158.524
3191.894
3228.158
3264.213
3295.781
3318.817
3330.391
3332.627
3327.419
3315.618
3303.586
3295.509
3288.882
3279.407
3264.486
3245.087
3225.429
3211.552
3207.341
3212.574
3225.019
3242.862
3264.647
3288.894
3317.203
3347.498
3382.142
3424.976
3474.783
3529.348
3586.945
3646.113
3705.598
3764.435
3822.146
3878.695
3934.261
3989.141
4043.856
4099.118
4154.882
4214.665
4281.275
4354.682
4434.685
4524.644
4625.005
4734.879
4853.066
4977.473
5104.969
5231.281
5350.754
5457.191
5545.235
5610.526
5650.259
5664.557
5655.784
5628.039
5587.321
5541.344
5499.028
5466.324
5447.86
5443.059
5451.465
5471.768
5501.98
5540.189
5584.776
5634.363
5688.01
5744.857
5803.816
5863.565
5922.722
5979.994
6034.217
6084.425
6129.955
6170.417
6205.656
6235.715
6260.696
6280.708
6295.775
6305.744
6310.684
6310.485
6304.228
6291.658
6273.085
6249.014
6220.454
6189.118
6156.931
6125.684
6097.568
6074.538
6057.813
6048.451
6047.276
6054.553
6069.089
6089.948
6115.377
6144.609
6177.523
6211.086
6241.811
6268.433
6291.012
6309.923
6325.869
6339.877
6352.784
6365.273
6378.123
6391.614
6405.588
6419.834
6434.404
6448.593
6462.313
6475.639
6488.769
6501.926
6515.277
6528.914
6542.857
6557.005
6571.358
6585.416
6599.466
6613.306
6626.809
6639.968
6652.863
6665.578
6678.154
6691.041
6704.749
6719.383
6735.105
6752.444
6771.069
6790.502
6810.439
6830.691
6850.831
6870.617
6889.467
6906.273
6921.175
6935.947
6952.414
6969.959
6986.385
7000.932
7014.027
7026.303
7037.755
7047.936
7057.033
7065.826
7074.491
7082.253
7088.91
7095.974
7105.626
7117.197
7127.098
7133.621
7137.92
7141.546
7144.122
7142.902
7137.33
7128.567
7117.374
7104.695
7091.395
7077.887
7064.576
7052.039
7041.027
7032.316
7026.615
7024.448
7025.973
7032.887
7043.789
7058.907
7077.977
7100.556
7126.083
7153.933
7183.354
7213.662
7244.271
7274.431
7303.43
7330.792
7356.511
7380.822
7403.545
7424.288
7442.806
7459.15
7473.383
7485.493
7495.378
7503.179
7509.224
7513.639
7516.542
7518.099
7518.501
7517.939
7516.589
7514.606
7512.12
7509.236
7506.041
7502.621
7499.076
7495.494
7491.941
7488.437
7484.999
7481.602
7478.202
7474.74
7471.258
7467.845
7464.518
7461.24
7457.966
7454.684
7451.406
7448.132
7444.835
7441.536
7438.24
7434.947
7431.641
7428.317
7424.966
7421.576
7418.132
7414.619
7411.024
7407.332
7403.534
7399.621
7395.588
7391.436
7387.164
7382.777
7378.282
7373.685
7368.994
7364.216
7359.355
7354.417
7349.406
7344.322
7339.167
7333.94
7328.643
7323.276
7317.831
7312.299
7306.656
7300.867
7294.879
7288.626
7282.028
7274.998
7267.449
7259.301
7250.48
7240.906
7230.505
7219.521
7208.022
7196.101
7183.885
7171.586
7159.398
7147.572
7136.379
7126.013
7116.609
7108.187
7100.825
7094.701
7089.708
7086.084
7084.254
7084.374
7086.25
7089.583
7094.081
7099.475
7105.51
7111.946
7118.536
7124.597
7128.879
7133.815
7139.924
7147.046
7154.443
7161.017
7172.083
4579.032
4529.131
4482.667
4438.744
4398.085
4352.272
4312.4
4272.402
4231.798
4190.298
4148.478
4106.326
4062.029
4017.234
3969.73
3915.563
3867.476
3819.984
3773.114
3727.241
3682.86
3640.711
3601.248
3565.478
3534.042
3508.09
3488.541
3477.651
3474.757
3479.169
3491.415
3514.22
3549.786
3600.282
3667.589
3751.729
3852.466
3969.622
4102.586
4250.393
4411.758
4585.201
4769.284
4962.236
5162.288
5366.524
5572.256
5778.692
5981.925
6179.937
6370.698
6548.334
6705.688
6841.875
6952.257
7034.045
7085.888
7107.299
7098.451
7060.173
6993.929
6901.857
6786.698
6651.609
6500.426
6337.245
6166.285
5991.235
5814.239
5637.671
5462.697
5290.455
5122.057
4958.351
4800.172
4648.814
4506.059
4373.491
4252.074
4140.917
4038.448
3943.092
3853.707
3769.737
3691.215
3618.368
3551.765
3492.037
3439.868
3393.994
3352.41
3314.245
3278.406
3243.801
3210.263
3178.437
3149.721
3125.619
3104.62
3086.834
3071.883
3057.58
3042.436
3026.162
3009.305
2992.687
2976.603
2965.077
2957.201
2950.551
2945.292
2938.571
2930.044
2919.923
2908.68
2897.214
2888.36
2883.695
2881.636
2881.354
2880.903
2879.401
2876.236
2871.294
2865.378
2860.303
2858.327
2860.43
2865.894
2872.168
2877.074
2879.577
2879.666
2878.761
2878.739
2880.811
2885.827
2894.833
2904.845
2914.46
2923.356
2932.412
2942.547
2953.906
2966.379
2983.807
3004.405
3016.593
3024.908
3028.151
3030.349
3031.147
3031.154
3031.703
3036.734
3045.867
3055.185
3064.301
3065.21
3062.801
3057.572
3052.034
3050.889
3057.197
3069.654
3089.88
3116.125
3143.145
3174.948
3210.719
3247.3
3281.23
3309.497
3329.988
3342.618
3346.761
3341.952
3332.848
3324.361
3315.056
3299.823
3274.363
3240.121
3206.076
3181.757
3172.695
3177.698
3192.073
3212.52
3235.539
3258.969
3285.507
3315.116
3346.356
3391.006
3445.883
3506.585
3570.471
3635.552
3700.008
3762.306
3821.775
3878.448
3932.798
3985.305
4036.006
4085.943
4135.814
4187.668
4245.595
4312.33
4388.538
4477.165
4580.061
4696.896
4826.791
4967.396
5114.919
5263.844
5406.376
5533.448
5636.802
5710.163
5749.509
5754.41
5727.916
5675.515
5605.756
5530.173
5461.378
5408.597
5377.916
5365.95
5371.08
5391.183
5423.615
5466.269
5517.52
5575.514
5639.099
5706.815
5776.788
5847.285
5916.923
5984.511
6048.861
6108.787
6163.213
6211.298
6252.517
6286.667
6313.768
6333.97
6347.432
6354.186
6354.182
6347.49
6333.947
6313.063
6284.646
6249.633
6209.778
6167.43
6124.97
6084.661
6049.103
6020.967
6001.734
5991.516
5990.623
6000.245
6019.312
6046.226
6079.194
6116.607
6156.743
6196.272
6231.849
6262.107
6287.464
6308.693
6326.688
6343.02
6358.245
6372.59
6386.791
6401.373
6416.344
6431.334
6446.381
6461.238
6475.84
6490.08
6504.1
6517.961
6531.483
6544.803
6557.969
6570.945
6583.627
6596.292
6608.604
6620.657
6632.431
6643.936
6655.248
6666.491
6677.863
6689.605
6701.871
6715.136
6729.388
6744.916
6761.614
6779.233
6797.545
6816.345
6835.389
6854.263
6872.567
6889.918
6906.365
6922.47
6938.943
6955.579
6971.406
6986.008
6999.503
7011.984
7023.484
7034.177
7044.241
7053.794
7063.084
7072.306
7081.942
7092.384
7103.318
7113.526
7122.084
7129.715
7136.548
7140.925
7141.975
7139.952
7135.677
7129.488
7120.508
7108.586
7094.814
7080.407
7066.189
7052.817
7041.068
7031.7
7025.387
7022.77
7024.325
7030.572
7041.19
7056.133
7075.023
7097.448
7122.918
7150.768
7180.306
7210.829
7241.605
7271.833
7300.777
7327.813
7352.27
7375.926
7398.897
7419.933
7438.311
7454.486
7468.594
7480.6
7490.44
7498.218
7504.24
7508.655
7511.569
7513.153
7513.608
7513.131
7511.902
7510.083
7507.812
7505.199
7502.333
7499.289
7496.136
7492.929
7489.712
7486.496
7483.281
7480.045
7476.783
7473.5
7470.208
7466.91
7463.605
7460.291
7456.967
7453.638
7450.307
7446.972
7443.628
7440.281
7436.933
7433.574
7430.198
7426.804
7423.39
7419.947
7416.467
7412.941
7409.358
7405.705
7401.972
7398.15
7394.23
7390.206
7386.073
7381.831
7377.479
7373.019
7368.454
7363.785
7359.016
7354.15
7349.192
7344.147
7339.021
7333.818
7328.543
7323.196
7317.771
7312.258
7306.636
7300.873
7294.921
7288.716
7282.181
7275.23
7267.774
7259.731
7251.023
7241.571
7231.17
7219.904
7208.341
7196.515
7184.362
7171.932
7159.535
7147.447
7135.908
7125.113
7115.217
7106.326
7098.573
7092.116
7087.008
7083.467
7081.701
7081.756
7083.488
7086.659
7091.009
7096.273
7102.193
7108.533
7115.105
7121.625
7127.778
7133.385
7138.742
7144.015
7150.203
7155.818
7164.491
4814.554
4795.152
4746.178
4685.567
4625.57
4571.796
4522.723
4477.663
4435.974
4394.301
4348.43
4309.125
4269.941
4230.142
4189.419
4147.727
4104.921
4060.661
4015.071
3968.921
3923.096
3875.705
3828.23
3780.949
3734.263
3688.529
3643.978
3600.825
3560.216
3523.351
3491.472
3466.558
3449.154
3440.335
3441.14
3452.086
3474.946
3511.121
3562.014
3628.66
3711.538
3810.724
3926.072
4057.015
4202.688
4361.819
4532.941
4714.504
4904.123
5099.505
5298.463
5499.377
5701.069
5901.368
6096.26
6281.89
6453.354
6604.948
6732.987
6834.688
6907.574
6950.338
6963.015
6946.371
6901.565
6830.093
6733.815
6615.455
6478.012
6325.512
6162.272
5992.203
5819.983
5647.872
5477.447
5310.463
5146.493
4985.157
4827.908
4675.516
4529.192
4392.088
4266.531
4153.057
4050.227
3955.876
3868.089
3785.41
3707.023
3632.924
3563.621
3500.17
3444.097
3396.668
3356.308
3319.813
3285.681
3252.963
3220.592
3188.248
3156.499
3126.533
3103.392
3086.964
3071.76
3060.324
3049.228
3035.341
3018.963
3001.146
2983.075
2965.622
2953.999
2949.093
2946.266
2943.404
2937.686
2928.866
2917.463
2904.173
2890.049
2878.421
2874.309
2875.848
2877.999
2878.78
2877.785
2874.214
2867.677
2859.056
2851.041
2847.617
2851.513
2861.883
2872.089
2877.634
2878.405
2875.219
2870.852
2868.251
2867.998
2872.356
2882.9
2893.902
2902.461
2906.706
2910.291
2917.287
2926.497
2935.86
2951.578
2974.048
2983.024
2986.749
2987.626
2990.903
2992.788
2992.021
2993.799
3005.863
3026.279
3045.981
3056.593
3059.745
3056.808
3047.085
3035.247
3030.431
3037.243
3049.501
3069.306
3095.159
3120.232
3151.85
3191.013
3232.808
3271.965
3306.352
3336.472
3360.346
3373.558
3373.187
3365.055
3357.269
3347.529
3328.452
3290.195
3233.321
3175.836
3135.999
3124.112
3133.656
3155.01
3181.549
3207.592
3232.878
3250.242
3269.352
3298.733
3347.493
3410.067
3479.768
3552.323
3625.099
3695.862
3762.523
3824.254
3881.271
3934.164
3983.467
4029.204
4071.053
4112.718
4154.483
4199.779
4255.791
4327.343
4414.366
4518.764
4642.134
4785.023
4945.458
5119.234
5298.888
5472.973
5628.188
5752.786
5837.989
5877.834
5870.924
5820.987
5735.294
5625.942
5510.492
5408.35
5333.611
5287.638
5269.634
5274.44
5297.271
5333.766
5381.61
5439.82
5506.861
5581.562
5661.639
5744.013
5826.334
5907.292
5985.95
6061.266
6131.963
6196.622
6253.907
6302.809
6342.734
6373.486
6395.172
6408.06
6412.333
6407.907
6394.618
6372.666
6341.959
6301.944
6253.694
6199.713
6143.168
6087.064
6034.832
5990.427
5956.442
5933.656
5921.885
5921.685
5935.269
5960.2
5994.563
6037.389
6085.465
6135.498
6183.192
6224.774
6258.768
6286.305
6309.266
6328.126
6345.941
6363.13
6379.551
6395.334
6410.988
6427.081
6443.202
6459.24
6474.987
6490.618
6505.816
6520.543
6534.913
6548.828
6562.171
6574.888
6587.002
6598.553
6609.628
6620.143
6630.107
6639.742
6649.133
6658.423
6667.848
6677.629
6687.598
6697.781
6709.151
6721.771
6735.378
6750.177
6766.128
6783.043
6800.676
6818.848
6837.21
6855.503
6873.439
6890.836
6907.835
6924.747
6941.459
6957.436
6972.281
6985.926
6998.519
7010.267
7021.379
7031.979
7042.266
7052.738
7063.634
7074.667
7085.433
7095.934
7106.414
7116.546
7125.767
7133.021
7137.301
7139.219
7139.167
7136.328
7130.39
7121.742
7110.817
7098.395
7085.343
7071.933
7058.677
7046.659
7036.861
7030.107
7027.12
7028.41
7034.06
7044.243
7058.801
7077.466
7099.734
7124.996
7152.569
7181.765
7211.914
7242.315
7272.177
7300.691
7326.901
7348.547
7371.608
7395.544
7416.52
7434.369
7450.142
7463.902
7475.589
7485.231
7492.943
7498.911
7503.248
7506.084
7507.623
7508.083
7507.667
7506.563
7504.937
7502.926
7500.643
7498.171
7495.566
7492.868
7490.107
7487.299
7484.442
7481.528
7478.547
7475.498
7472.384
7469.201
7465.95
7462.649
7459.317
7455.969
7452.609
7449.24
7445.863
7442.486
7439.071
7435.652
7432.216
7428.761
7425.288
7421.799
7418.292
7414.766
7411.215
7407.631
7404.004
7400.323
7396.578
7392.755
7388.846
7384.842
7380.737
7376.525
7372.203
7367.766
7363.209
7358.531
7353.733
7348.818
7343.792
7338.662
7333.438
7328.13
7322.745
7317.279
7311.723
7306.066
7300.28
7294.322
7288.132
7281.638
7274.756
7267.399
7259.479
7250.917
7241.634
7231.371
7218.682
7206.815
7196.063
7184.641
7172.25
7159.733
7147.459
7135.664
7124.555
7114.314
7105.099
7097.07
7090.385
7085.213
7081.678
7079.899
7079.876
7081.475
7084.487
7088.664
7093.744
7099.465
7105.576
7111.842
7118.02
7123.89
7129.392
7134.758
7139.952
7145.36
7149.77
7151.92
4797.672
4763.155
4692.78
4641.319
4591.559
4545.592
4502.845
4462.551
4423.85
4386.329
4349.852
4312.521
4274.581
4235.659
4195.728
4154.486
4111.82
4067.6
4021.708
3974.615
3927.733
3880.302
3832.518
3784.626
3736.285
3687.431
3639.01
3591.914
3547.163
3506.522
3471.706
3443.792
3423.689
3412.393
3411.093
3420.789
3442.826
3478.412
3528.603
3594.171
3675.618
3773.133
3886.583
4015.395
4158.842
4315.477
4483.502
4660.445
4844.031
5032.854
5226.249
5423.212
5620.707
5815.604
6003.902
6181.306
6343.112
6484.301
6600.768
6689.891
6749.896
6780.084
6781.186
6754.625
6701.893
6624.771
6524.642
6403.898
6265.568
6112.885
5950.639
5782.917
5613.661
5447.126
5285.594
5128.959
4974.862
4821.884
4671.904
4526.712
4387.827
4257.93
4140.158
4036.255
3944.123
3860.114
3781.583
3706.738
3634.655
3565.502
3499.919
3439.206
3387.23
3346.416
3311.873
3280.771