/*--------------------------------*- C++ -*----------------------------------*\
| =========                 |                                                 |
| \\      /  F ield         | foam-extend: Open Source CFD                    |
|  \\    /   O peration     | Version:     3.1                                |
|   \\  /    A nd           | Web:         http://www.extend-project.de       |
|    \\/     M anipulation  |                                                 |
\*---------------------------------------------------------------------------*/
FoamFile
{
    version     2.0;
    format      ascii;
    class       volScalarField;
    location    "12";
    object      k;
}
// * * * * * * * * * * * * * * * * * * * * * * * * * * * * * * * * * * * * * //

dimensions      [0 2 -2 0 0 0 0];

internalField   nonuniform List<scalar> 
119952
(
0.05408003
0.04848374
0.04468623
0.04060348
0.03658664
0.03346864
0.0316193
0.03088097
0.03107967
0.03185598
0.0328964
0.03401873
0.03509863
0.03598749
0.03678937
0.03765777
0.03870513
0.03997393
0.04151001
0.04359469
0.04726317
0.04865886
0.05131805
0.05552973
0.05713519
0.05933338
0.06144606
0.06311078
0.06347536
0.01193474
0.07381196
0.0667019
0.06127794
0.05702419
0.05372117
0.05133749
0.04987986
0.04930611
0.04946391
0.05029346
0.05144403
0.0550874
0.05982496
0.0648274
0.06996072
0.07527427
0.08088288
0.08684135
0.09305054
0.1115375
0.1176662
0.1232966
0.1282649
0.1325689
0.1361142
0.1388383
0.1407157
0.1417469
0.1418914
0.1413287
0.1398202
0.137524
0.1346416
0.1313284
0.1277307
0.1239489
0.1200737
0.1163727
0.1139774
0.1093176
0.1049462
0.101133
0.09751435
0.09400595
0.0910156
0.08881571
0.08736725
0.08641119
0.08566701
0.08493174
0.08413034
0.08330731
0.08268102
0.08254068
0.08305455
0.08434976
0.0865281
0.08965612
0.09390324
0.09933105
0.1053962
0.1121933
0.1201304
0.1278054
0.1346905
0.1410713
0.1473482
0.1506416
0.1530548
0.1551025
0.1563089
0.1563311
0.1549795
0.1523953
0.1488266
0.1443325
0.1390037
0.132926
0.1262043
0.1189927
0.1115506
0.1042357
0.09739777
0.09123231
0.08560547
0.08018328
0.07561548
0.07377685
0.07507643
0.07758425
0.07975346
0.08080102
0.08053868
0.07919126
0.07708366
0.07447718
0.07163125
0.06873392
0.06591072
0.06321019
0.0606365
0.05823051
0.05602904
0.05404733
0.05228742
0.0507545
0.04945221
0.04837231
0.04749227
0.04678488
0.04622262
0.04577383
0.04540406
0.04508023
0.04477068
0.04444323
0.04408455
0.04369601
0.04331744
0.0428892
0.04242614
0.04193643
0.04140583
0.040847
0.04026747
0.03967414
0.03907498
0.03847991
0.03790147
0.03735625
0.03686265
0.03643881
0.03611255
0.03591024
0.0358446
0.03590208
0.03596041
0.03590836
0.03524353
0.03625833
0.04092491
0.04638903
0.04970813
0.04839772
0.04399255
0.03896388
0.03466753
0.03209273
0.0304206
0.02849034
0.02606261
0.02351289
0.02127402
0.01950532
0.01817348
0.01719864
0.0164939
0.015996
0.0156696
0.01548924
0.01542952
0.01546807
0.01558765
0.01577463
0.01601755
0.01630706
0.01663813
0.01587359
0.01471933
0.01441937
0.0144254
0.01456215
0.01472629
0.01486532
0.01496304
0.01502436
0.01506827
0.01512336
0.01520656
0.01532308
0.01546732
0.01563654
0.01583437
0.0160667
0.01634207
0.01665732
0.01700139
0.01737104
0.01776569
0.01818402
0.01862464
0.01908645
0.01956838
0.02006964
0.02058988
0.02112889
0.02168694
0.02226523
0.02286406
0.02348441
0.02413142
0.02482133
0.02563506
0.02656675
0.02745392
0.02832309
0.0291785
0.03001172
0.03081146
0.03156564
0.03226177
0.03288743
0.0334305
0.03388026
0.0342275
0.0344653
0.03458896
0.03459664
0.03448962
0.03427214
0.03395046
0.03353108
0.03301918
0.0324178
0.03172875
0.0309555
0.03010679
0.02919813
0.02824946
0.02728163
0.02631354
0.02536099
0.02443646
0.02354941
0.02270688
0.02191387
0.02117277
0.02281496
0.0220809
0.02134791
0.02064621
0.0200109
0.01945123
0.01896773
0.01855435
0.01820203
0.01790129
0.01764249
0.01741708
0.01721825
0.01704076
0.01688052
0.01673379
0.01659806
0.01647149
0.01635276
0.01624099
0.01613549
0.01603574
0.01594133
0.01585188
0.01576706
0.01568652
0.01560995
0.01553699
0.01546728
0.01540044
0.01533609
0.01527383
0.01521327
0.01515404
0.01509575
0.01503805
0.01498055
0.01492294
0.01486489
0.01480613
0.0147464
0.01468547
0.01462323
0.0145598
0.01449609
0.0144318
0.01436058
0.01428436
0.01420648
0.01412686
0.01404576
0.01396399
0.01388229
0.01381439
0.01376987
0.01364835
0.01352735
0.01340524
0.013283
0.0131624
0.01304498
0.01293221
0.01282532
0.01272515
0.01263221
0.01254668
0.01246853
0.01239757
0.0123335
0.01227595
0.01222455
0.01217893
0.01213871
0.01210353
0.01207306
0.01204696
0.01202497
0.01200682
0.01199227
0.01198107
0.011973
0.01196784
0.01196537
0.01196538
0.01196766
0.01197203
0.0119783
0.01198628
0.0119958
0.01200668
0.01201875
0.01203184
0.0120458
0.01206046
0.01207566
0.01209125
0.01210707
0.012123
0.01213887
0.01215455
0.0121699
0.0121848
0.01219912
0.01221275
0.01222553
0.01223729
0.01224789
0.01225721
0.01226519
0.01227179
0.01227697
0.01228071
0.01228297
0.01228374
0.012283
0.01228074
0.01227695
0.01227161
0.01226475
0.01225635
0.01224644
0.01223504
0.01222217
0.01220787
0.01219218
0.01217516
0.01215682
0.01213725
0.01211645
0.01209447
0.0120713
0.01204696
0.01202106
0.01199285
0.01195984
0.01191665
0.01184717
0.01175503
0.0119046
0.0950592
0.09003916
0.0957214
0.1029209
0.1088843
0.1132422
0.1162438
0.1182013
0.1194458
0.1211713
0.1292044
0.1377713
0.1453763
0.1516074
0.156431
0.160093
0.1629218
0.1652225
0.1892851
0.1897511
0.1907033
0.1919723
0.1937827
0.1962126
0.1991288
0.2023155
0.2055189
0.2084512
0.2109047
0.2125108
0.2130542
0.2125685
0.2110578
0.2085487
0.2051226
0.2009386
0.1961815
0.1912961
0.1861951
0.1808501
0.1753872
0.1698072
0.1641353
0.1585035
0.1530771
0.148162
0.1441901
0.1413737
0.139792
0.1395861
0.1407754
0.1433728
0.1473592
0.1526246
0.1589172
0.1658536
0.1884066
0.1947208
0.2003332
0.2049943
0.2085333
0.2109208
0.2121939
0.2124266
0.2116972
0.2100699
0.2076426
0.204545
0.2008871
0.1967678
0.1922989
0.1876095
0.1828989
0.1782602
0.1736171
0.1685235
0.1630049
0.1575082
0.1519461
0.1463066
0.1407157
0.1354042
0.1305467
0.1262238
0.1224569
0.1192352
0.1165396
0.1143672
0.1127506
0.1117689
0.1116297
0.1126153
0.1148869
0.1185821
0.1237941
0.1305223
0.1386044
0.1477281
0.1575635
0.1676284
0.1771792
0.1857954
0.1934733
0.2002138
0.2057792
0.2101417
0.213148
0.2145801
0.2144327
0.2128645
0.2101927
0.206709
0.2025099
0.1976118
0.1919778
0.1855645
0.1784437
0.1707296
0.1625469
0.1540094
0.1452162
0.1362931
0.1275863
0.1196549
0.1128605
0.1071536
0.1023135
0.09816612
0.09460625
0.09157798
0.08904615
0.08695758
0.08520902
0.08364915
0.08211621
0.08047993
0.07867017
0.07668644
0.07457902
0.0724243
0.07033865
0.06844384
0.06681004
0.06545935
0.06438849
0.06357937
0.06300208
0.06261644
0.06237812
0.0622421
0.06216605
0.06211239
0.06204966
0.06195286
0.06180219
0.06158143
0.06127601
0.06087685
0.06040833
0.05988422
0.05930204
0.05866013
0.0579579
0.05719527
0.05637254
0.05549304
0.05455914
0.05357657
0.05255635
0.05150155
0.05043471
0.0493637
0.04826209
0.04712237
0.04572486
0.0441338
0.04286326
0.0424362
0.04296472
0.04434435
0.04642877
0.04899605
0.05163276
0.05409809
0.05636842
0.05791228
0.05778167
0.05557855
0.05184594
0.04745686
0.04310054
0.03940353
0.03652759
0.03434297
0.032739
0.0316244
0.03090571
0.03049192
0.03030046
0.03026351
0.03033034
0.03047047
0.03066845
0.03090667
0.02963492
0.02918022
0.02942279
0.02992397
0.03053357
0.03118653
0.03184229
0.03247057
0.03304174
0.03353308
0.03396212
0.0343571
0.03475146
0.03517635
0.03565597
0.03620669
0.03683751
0.03755074
0.03834283
0.03920798
0.04013238
0.04109486
0.04208362
0.04308936
0.04410426
0.04512217
0.04613885
0.04715206
0.04816163
0.04916917
0.0501778
0.05119135
0.0522139
0.05324974
0.0543028
0.05537932
0.05648981
0.05761111
0.05872215
0.05981063
0.06086486
0.06187118
0.0628136
0.06367431
0.06443431
0.06507432
0.06557582
0.06592225
0.06609982
0.06609785
0.06590904
0.06553019
0.06496305
0.0642143
0.06329354
0.06221058
0.06097389
0.05959077
0.05807012
0.0564267
0.05468335
0.05286899
0.05101449
0.04914897
0.04729786
0.04548223
0.04371899
0.04202152
0.04039983
0.03885323
0.03937008
0.0380693
0.03683774
0.03567465
0.03458058
0.03355719
0.03260449
0.03172087
0.0309034
0.03014851
0.02945225
0.02881049
0.02821897
0.02767339
0.02716982
0.02670443
0.02627369
0.02587433
0.02550338
0.02515811
0.02483607
0.02453505
0.02425303
0.02398822
0.02373895
0.02350372
0.02328114
0.02306992
0.02286887
0.02267687
0.02249287
0.02231588
0.02214499
0.02197932
0.02181806
0.02166046
0.02150579
0.0213534
0.02120268
0.02105309
0.02090415
0.02075549
0.02060685
0.02045804
0.02030867
0.02015779
0.0200041
0.01984773
0.01968944
0.01952963
0.01936841
0.01920622
0.01904376
0.01888637
0.01872827
0.01856132
0.01839179
0.01822383
0.01805845
0.01789588
0.01773627
0.01757982
0.01742681
0.0172776
0.01713257
0.0169921
0.01685658
0.01672639
0.01660184
0.01648322
0.01637075
0.01626462
0.01616495
0.01607182
0.01598527
0.01590528
0.01583179
0.0157647
0.01570387
0.01564915
0.01560032
0.01555716
0.0155194
0.01548677
0.01545897
0.01543568
0.01541659
0.01540137
0.01538968
0.01538118
0.01537555
0.01537244
0.01537154
0.0153725
0.01537502
0.01537878
0.01538349
0.01538886
0.01539461
0.01540047
0.01540619
0.01541154
0.01541628
0.0154202
0.0154231
0.01542479
0.01542509
0.01542383
0.01542087
0.01541607
0.01540931
0.01540049
0.0153895
0.01537627
0.01536073
0.01534283
0.01532253
0.01529978
0.01527457
0.01524688
0.01521671
0.01518406
0.01514896
0.01511141
0.01507147
0.01502914
0.01498452
0.01493755
0.01488839
0.01483687
0.01478322
0.01472688
0.01466798
0.01460484
0.01453716
0.01446278
0.01439037
0.01433867
0.01431445
0.04802289
0.051348
0.05530549
0.05969115
0.06454727
0.06997477
0.07614083
0.08329263
0.09181717
0.1016765
0.1483665
0.1628322
0.1773774
0.1922417
0.2068919
0.2209831
0.234342
0.2504093
0.2765793
0.3316298
0.3438469
0.3553906
0.366181
0.3763611
0.3854243
0.3937466
0.4013252
0.4082321
0.4147306
0.4211949
0.4282599
0.4346873
0.4397694
0.4432661
0.4449884
0.444855
0.4430282
0.44006
0.4336433
0.4271617
0.4205699
0.4138569
0.4070133
0.4000115
0.3928395
0.3855025
0.3780287
0.3704734
0.3627657
0.3550022
0.3472846
0.339723
0.3324399
0.3255636
0.3191982
0.3134071
0.3256996
0.3213126
0.3176391
0.3147634
0.3127018
0.3114182
0.3108129
0.3106987
0.310848
0.3110024
0.3108993
0.3103354
0.3091294
0.3070998
0.3041386
0.3002361
0.2955031
0.2902273
0.2847791
0.2789092
0.2725873
0.265892
0.2588283
0.2513887
0.2436817
0.2358639
0.2281177
0.2206183
0.2135008
0.2073227
0.2026453
0.1997496
0.1988565
0.2000762
0.2033531
0.2083972
0.2147521
0.221893
0.2290438
0.2357102
0.2414943
0.2461042
0.2493902
0.2513518
0.2520601
0.2516133
0.2501164
0.2476783
0.2444291
0.2405048
0.236041
0.2311809
0.2260793
0.2209191
0.2156851
0.2103034
0.2048171
0.1990399
0.1930441
0.1869714
0.1808227
0.1746332
0.1685107
0.1626212
0.1571023
0.1520411
0.1474964
0.1435137
0.1401411
0.1374438
0.1355154
0.1344851
0.1345199
0.1359707
0.1390808
0.1440281
0.1509047
0.1596365
0.1699353
0.1813988
0.1934656
0.2054049
0.2163597
0.2258169
0.2337741
0.2407075
0.2468254
0.2518307
0.2550486
0.2561535
0.2553137
0.252906
0.2493732
0.2450431
0.2400965
0.2345421
0.2282976
0.2213466
0.2137896
0.2057295
0.1972263
0.1882996
0.1790264
0.1695574
0.1602508
0.1514942
0.1434042
0.1358895
0.1288437
0.1222148
0.116015
0.1103004
0.1051447
0.1006101
0.09671676
0.09342542
0.09064302
0.08824577
0.08610756
0.08412687
0.08224591
0.08045473
0.0787734
0.07722836
0.07587774
0.07480124
0.07401605
0.07350356
0.07323089
0.07315492
0.0732267
0.07339644
0.07361731
0.07384795
0.07405245
0.07420159
0.07427394
0.07425403
0.07413069
0.07389726
0.07355294
0.07311557
0.07258482
0.07196006
0.07124094
0.07042666
0.06951643
0.06851029
0.06740683
0.06620773
0.06491222
0.06351566
0.06202799
0.0604383
0.05873141
0.05690972
0.05490372
0.05275899
0.05070887
0.04895818
0.04764294
0.0468246
0.04652863
0.04681293
0.04773996
0.04937358
0.05155634
0.0540875
0.05664123
0.05886281
0.06035041
0.06066277
0.05949478
0.05695099
0.05355762
0.04990877
0.04667481
0.0441423
0.04228298
0.04101025
0.04021219
0.03976563
0.03956025
0.03951542
0.03957872
0.03974715
0.04002932
0.04042461
0.04094854
0.04162412
0.04244161
0.04337073
0.04436844
0.04539065
0.04637078
0.04725825
0.04803809
0.04872048
0.04933401
0.04991712
0.05050946
0.05114617
0.05185453
0.05265159
0.05354317
0.05452531
0.05558811
0.05669909
0.05783566
0.05897976
0.06011643
0.06123384
0.06232342
0.06337996
0.06440153
0.06538925
0.06634692
0.06728017
0.06819633
0.06910382
0.07001324
0.07094592
0.07189875
0.07286362
0.07383272
0.07479817
0.07575023
0.07667616
0.07755995
0.0783827
0.0791236
0.07976064
0.08027185
0.08063711
0.08083873
0.08086151
0.08069288
0.08032343
0.07974882
0.07897172
0.07799925
0.07683974
0.07550092
0.07398992
0.07231602
0.070496
0.06855455
0.06652179
0.06442919
0.06230684
0.06018156
0.05807628
0.05601048
0.05400084
0.05206374
0.05021327
0.04839176
0.04668545
0.04508729
0.04359226
0.04219814
0.04090166
0.03969816
0.03858236
0.03754885
0.03659227
0.03570724
0.03488839
0.03413048
0.03342845
0.03277754
0.03217323
0.0316113
0.03108783
0.03059928
0.03014241
0.02971427
0.02931221
0.02893383
0.02857698
0.02823971
0.02792023
0.02761693
0.02732833
0.02705305
0.02678983
0.02653747
0.02629487
0.02606098
0.02583484
0.02561551
0.02540216
0.02519397
0.0249902
0.02479015
0.02459319
0.02439875
0.02420632
0.02401546
0.02382574
0.02363666
0.02344755
0.02325764
0.02306652
0.02287428
0.02268109
0.02248708
0.02229235
0.02209694
0.02190079
0.02170454
0.02150843
0.02131341
0.02111966
0.02092704
0.02073579
0.02054653
0.02035993
0.02017667
0.0199973
0.01982237
0.01965236
0.01948772
0.01932888
0.0191762
0.01903
0.01889056
0.01875809
0.01863275
0.01851467
0.01840389
0.01830044
0.01820428
0.01811531
0.01803343
0.01795845
0.01789017
0.01782837
0.01777277
0.01772309
0.01767899
0.01764016
0.01760625
0.01757689
0.01755172
0.01753038
0.0175125
0.01749772
0.01748566
0.01747596
0.01746829
0.0174623
0.01745764
0.01745401
0.0174511
0.0174486
0.01744624
0.01744374
0.01744086
0.01743735
0.01743299
0.01742756
0.01742086
0.01741271
0.01740294
0.01739139
0.01737792
0.01736239
0.0173447
0.01732474
0.01730242
0.01727767
0.01725042
0.01722064
0.01718827
0.01715328
0.01711565
0.01707538
0.01703245
0.01698689
0.01693869
0.0168879
0.0168345
0.01677858
0.01672004
0.01665901
0.0165952
0.01652877
0.016459
0.01638622
0.01630943
0.01623044
0.01615037
0.01607631
0.0160156
0.03918015
0.04346247
0.04727494
0.07084575
0.09465944
0.1237161
0.1429927
0.1621264
0.1799527
0.196342
0.2105407
0.222764
0.2346829
0.2467565
0.2588663
0.2711075
0.2835244
0.2961524
0.3087445
0.321121
0.3333632
0.3454639
0.3574258
0.3693269
0.3811647
0.3928885
0.4044519
0.4158002
0.42697
0.4381685
0.4500408
0.4802901
0.4883129
0.4966907
0.5040612
0.5110178
0.5177905
0.5244518
0.5309639
0.5373155
0.543598
0.5495553
0.5549848
0.5596708
0.5632152
0.5648733
0.5644082
0.5622483
0.5587276
0.5541073
0.5485746
0.5423329
0.5354478
0.5280138
0.52011
0.5117995
0.5031323
0.4941464
0.4848703
0.4753368
0.4655924
0.4556962
0.4457161
0.4357266
0.4258357
0.4161733
0.4068813
0.3981447
0.3898563
0.3825131
0.3762358
0.3710926
0.3671213
0.3643125
0.3625558
0.3616211
0.3612049
0.3609906
0.3606834
0.3600312
0.3587868
0.3567123
0.3536511
0.3495811
0.344658
0.3392279
0.333081
0.3263081
0.3190351
0.3113631
0.3033478
0.295005
0.2864017
0.2776608
0.2689661
0.2605448
0.2526627
0.2455561
0.2399576
0.236359
0.2351028
0.2363676
0.2400709
0.2458365
0.2530317
0.2609196
0.2686839
0.2757033
0.2815474
0.2859083
0.2886846
0.2899402
0.2898376
0.2885199
0.2861077
0.2827295
0.2785306
0.273659
0.2682657
0.2625244
0.2566592
0.2506494
0.2444897
0.2382195
0.2318707
0.2254007
0.218826
0.2122308
0.2056605
0.1991504
0.1927777
0.1866574
0.1808988
0.1755752
0.1707622
0.166543
0.1630117
0.1602856
0.1585168
0.1579025
0.1586859
0.1612095
0.1657945
0.1726596
0.1819034
0.1933803
0.2067109
0.2213535
0.2364315
0.2507855
0.2633408
0.2735148
0.2815229
0.2882687
0.2943543
0.2991417
0.3015245
0.3012668
0.2989126
0.2951067
0.2903327
0.2848362
0.2788132
0.2721343
0.2646397
0.2565124
0.2479693
0.2391102
0.2299595
0.2204927
0.2107293
0.2008158
0.1910226
0.1815527
0.1724907
0.1638072
0.15546
0.14743
0.1397421
0.132461
0.1256759
0.1194782
0.1139379
0.1090863
0.1049037
0.1013209
0.09824163
0.09556804
0.09322231
0.09115693
0.08935299
0.08781202
0.08654213
0.08554388
0.08487043
0.0845281
0.0844665
0.08462674
0.08494656
0.085365
0.08582658
0.08628403
0.08669574
0.08702784
0.08725735
0.0873686
0.08735239
0.08720519
0.08693044
0.08653419
0.0860157
0.08537459
0.08461092
0.08372452
0.08271516
0.08158183
0.08032109
0.07893101
0.07740742
0.075746
0.07394898
0.07200767
0.06991773
0.06768975
0.0653076
0.06280335
0.06029384
0.05789263
0.05566582
0.05363368
0.05186165
0.0504722
0.04956895
0.04923189
0.04951588
0.05045961
0.05210093
0.05429864
0.05681347
0.05940377
0.06176787
0.06349304
0.06404454
0.06306927
0.06079128
0.05788967
0.0549822
0.05256373
0.05080157
0.04963654
0.0489339
0.0485621
0.04842556
0.04847246
0.04868771
0.04903492
0.04952276
0.05018633
0.05103384
0.05204102
0.05316028
0.05433445
0.05549453
0.0565657
0.05750999
0.0583189
0.05900967
0.05961752
0.06018527
0.06075652
0.0613721
0.06206431
0.06285157
0.0637375
0.06472232
0.06578408
0.06689371
0.06802666
0.06916148
0.07028
0.07136805
0.07241517
0.07341455
0.0743628
0.07525947
0.0761069
0.07691096
0.07767995
0.07842389
0.07916125
0.07990463
0.08065358
0.08140819
0.08216756
0.08292782
0.08368107
0.08441524
0.08511431
0.08575938
0.08632966
0.08680267
0.08715739
0.08737536
0.08743943
0.08733415
0.08704547
0.08656214
0.08588018
0.08500422
0.08393937
0.08269072
0.08126278
0.07966081
0.07789794
0.07599455
0.07397893
0.07188119
0.06973098
0.06755541
0.06537752
0.06321777
0.0610945
0.05902443
0.05701967
0.05508576
0.05323522
0.05147533
0.04981033
0.04824244
0.04677176
0.04539655
0.04411378
0.04291959
0.04180951
0.04077863
0.03982175
0.03893354
0.0381087
0.03734211
0.03662877
0.03596395
0.03534322
0.03476252
0.03421811
0.03370662
0.03322498
0.03277042
0.0323405
0.03193298
0.0315459
0.03117746
0.03082604
0.03049016
0.03016847
0.02985971
0.02956273
0.02927644
0.02899984
0.02873199
0.02847201
0.02821907
0.02797241
0.02773129
0.02749507
0.02726311
0.02703485
0.02680974
0.02658725
0.02636684
0.02614791
0.02592978
0.02571196
0.02549421
0.02527649
0.02505875
0.02484094
0.02462301
0.02440524
0.02418798
0.023971
0.02375433
0.02353842
0.02332378
0.02311091
0.02290031
0.02269251
0.02248801
0.02228732
0.02209095
0.02189939
0.02171312
0.02153258
0.02135819
0.02119034
0.02102936
0.02087553
0.02072908
0.02059018
0.02045896
0.02033548
0.02021975
0.02011172
0.02001131
0.01991838
0.01983276
0.01975421
0.01968249
0.01961731
0.01955834
0.01950526
0.01945769
0.01941528
0.01937764
0.01934438
0.01931512
0.01928946
0.01926701
0.0192474
0.01923025
0.01921519
0.01920187
0.01918995
0.01917908
0.01916897
0.01915929
0.01914977
0.01914012
0.01913011
0.01911948
0.019108
0.01909546
0.01908167
0.01906642
0.01904955
0.0190309
0.01901032
0.01898769
0.01896289
0.01893581
0.01890637
0.01887449
0.01884011
0.01880317
0.01876362
0.01872142
0.01867655
0.01862899
0.01857873
0.01852577
0.01847012
0.01841176
0.01835074
0.01828698
0.01822051
0.01815119
0.01807906
0.01800384
0.01792573
0.01784463
0.01776144
0.01767705
0.01759455
0.01752261
0.02076785
0.0228907
0.02488968
0.03245244
0.04271462
0.05976734
0.07179544
0.08447692
0.09799923
0.1116271
0.1255798
0.1408005
0.1568909
0.1732057
0.1901193
0.209089
0.2381658
0.2513641
0.2647222
0.2781198
0.2918166
0.3052659
0.3180977
0.3304077
0.3423614
0.3539876
0.3651691
0.3761134
0.386918
0.3975755
0.4080702
0.4183782
0.4284482
0.4382445
0.4477426
0.456927
0.4657679
0.4742159
0.4823404
0.4896632
0.4967137
0.5026404
0.5054227
0.5090404
0.5131489
0.5175079
0.5223153
0.5277357
0.5338391
0.5405714
0.547816
0.555391
0.5629679
0.5701665
0.5766207
0.581923
0.5854755
0.5871534
0.5874515
0.5866335
0.5848521
0.5821846
0.5787064
0.5744521
0.5694468
0.56372
0.5573038
0.550231
0.542527
0.5342168
0.5253345
0.5159299
0.5060718
0.4958437
0.4853371
0.4746667
0.4639752
0.4534625
0.4433477
0.4338676
0.4252887
0.4178506
0.4117297
0.4070651
0.4039247
0.402201
0.4015861
0.4016625
0.4020018
0.4022346
0.4020424
0.4010953
0.3990904
0.3958606
0.3914465
0.3861559
0.3800568
0.3731195
0.3655062
0.3573896
0.3489196
0.3401907
0.3312498
0.322097
0.3127971
0.3035136
0.2945111
0.2861479
0.2788406
0.273214
0.2700377
0.2697308
0.2724612
0.2780186
0.2857985
0.2949045
0.3042467
0.3128539
0.3200673
0.3255
0.3289941
0.3306504
0.330701
0.3293682
0.3268166
0.3231885
0.3186511
0.3133783
0.3075105
0.3011696
0.2945303
0.2876207
0.2804232
0.2730499
0.2655908
0.2581148
0.2506495
0.2432231
0.2358958
0.2287363
0.2217767
0.2150706
0.2087028
0.202772
0.1973606
0.1925519
0.1884489
0.1851804
0.1829117
0.1818564
0.1822846
0.1845228
0.1889789
0.1960588
0.2060092
0.2188887
0.2343993
0.2519531
0.2706647
0.2891959
0.3058377
0.3192958
0.3292297
0.3363017
0.3417734
0.3463422
0.3491021
0.3489776
0.3462712
0.3420274
0.3370597
0.3315122
0.3252077
0.318292
0.3106187
0.3020082
0.2926932
0.2829802
0.2729617
0.262642
0.2520667
0.2412721
0.2303996
0.2196663
0.2092243
0.1991688
0.189524
0.1802536
0.1713074
0.1626833
0.1544298
0.146638
0.139407
0.1328206
0.1269295
0.121741
0.1172208
0.1133075
0.109929
0.1070189
0.1045286
0.1024301
0.1007129
0.0993725
0.09839856
0.09776327
0.09748891
0.097541
0.09784267
0.09831621
0.09888793
0.0994942
0.1000834
0.1006106
0.1010374
0.1013379
0.1014906
0.1014904
0.1013389
0.1010457
0.1006066
0.1000201
0.09928579
0.0984042
0.09737685
0.09620501
0.09488761
0.0934157
0.09178719
0.09000254
0.08806223
0.08596916
0.08372124
0.08132253
0.0787861
0.07611567
0.07334076
0.0705284
0.06773565
0.06498441
0.06229134
0.05971169
0.05731906
0.05518455
0.05339724
0.05207295
0.05133317
0.05126888
0.05188779
0.0531494
0.05504223
0.05744541
0.06020232
0.06305961
0.0655764
0.06715863
0.06733085
0.0661315
0.06411765
0.06196024
0.06010809
0.0587391
0.05786155
0.05741304
0.05731192
0.05749307
0.05786605
0.0583846
0.05906229
0.0599106
0.06091501
0.06203702
0.06322458
0.06443317
0.06556701
0.06656705
0.06740768
0.06809432
0.06865606
0.06913296
0.06956873
0.07001386
0.07051713
0.07111148
0.0718113
0.07262581
0.07354966
0.07455208
0.07560362
0.07667665
0.07774672
0.07879338
0.07980024
0.0807549
0.08164841
0.08247429
0.08322777
0.08391035
0.08453073
0.08509843
0.08562598
0.08613319
0.08662684
0.08711468
0.08760484
0.08810099
0.08860201
0.08910218
0.08959145
0.09005566
0.09047796
0.09083862
0.09111722
0.09129495
0.09135448
0.09128005
0.09105537
0.09066403
0.09009413
0.08934443
0.08841553
0.08730908
0.08602609
0.08456937
0.08294843
0.08117736
0.07927803
0.07727685
0.07520137
0.07307815
0.07092985
0.06877464
0.06663074
0.06451695
0.06244888
0.06043872
0.05849793
0.05663587
0.05485942
0.05317328
0.0515801
0.05008064
0.04867401
0.04735798
0.04612934
0.04498406
0.04391757
0.04292491
0.04200092
0.04114042
0.04033829
0.03958952
0.03888937
0.03823337
0.03761743
0.03703777
0.03649098
0.03597398
0.03548404
0.03501869
0.03457578
0.03415335
0.03374968
0.03336319
0.03299246
0.03263621
0.03229323
0.03196245
0.03164286
0.03133353
0.03103358
0.03074221
0.03045866
0.03018222
0.02991223
0.02964807
0.02938915
0.02913489
0.02888472
0.02863809
0.02839438
0.02815298
0.02791338
0.0276752
0.0274382
0.02720221
0.02696709
0.02673277
0.02649931
0.02626674
0.02603482
0.02580354
0.02557324
0.02534434
0.02511723
0.0248923
0.02466997
0.02445069
0.02423494
0.0240232
0.02381595
0.02361368
0.02341684
0.02322589
0.02304123
0.02286326
0.0226923
0.02252863
0.02237249
0.02222407
0.02208347
0.02195079
0.02182602
0.02170913
0.02160005
0.02149862
0.02140468
0.021318
0.02123832
0.02116535
0.02109876
0.02103822
0.02098334
0.02093376
0.02088908
0.02084891
0.02081285
0.0207805
0.02075146
0.02072534
0.02070176
0.02068036
0.02066075
0.02064261
0.02062558
0.02060936
0.02059363
0.02057811
0.02056252
0.02054662
0.02053015
0.02051289
0.02049463
0.02047516
0.02045429
0.02043186
0.0204077
0.02038166
0.02035363
0.02032349
0.02029112
0.02025645
0.02021939
0.02017987
0.02013783
0.02009322
0.02004599
0.0199961
0.01994354
0.01988828
0.01983032
0.01976964
0.01970624
0.01964008
0.01957115
0.0194994
0.01942483
0.01934737
0.01926722
0.01918446
0.01909973
0.01901366
0.01892845
0.01885359
0.008201299
0.009797192
0.0109672
0.01633434
0.02250866
0.03054944
0.0372411
0.04482898
0.05301579
0.06172473
0.0712668
0.08241271
0.09453876
0.1079612
0.1238843
0.1481658
0.1604016
0.1731061
0.1858422
0.1985741
0.2112576
0.2238142
0.2361548
0.2482033
0.2598697
0.2711155
0.2821851
0.2941469
0.3062755
0.3185919
0.3311811
0.3436699
0.3557141
0.3672306
0.3781396
0.388459
0.3984156
0.4080324
0.4173353
0.4263144
0.4349398
0.4431722
0.4509514
0.4582255
0.4649509
0.4710596
0.4763047
0.4804568
0.4837469
0.4861692
0.4877585
0.488551
0.4884845
0.4888979
0.489983
0.4921275
0.4956541
0.5007927
0.5075664
0.5158494
0.5253393
0.5356284
0.546231
0.5566754
0.5665225
0.5749591
0.581919
0.587669
0.5923282
0.5959022
0.5983411
0.599583
0.5996017
0.5984046
0.5960079
0.5924642
0.5878334
0.5821831
0.575579
0.5680853
0.5597749
0.5507349
0.541066
0.5308767
0.5202717
0.5093753
0.4983488
0.4874087
0.4768281
0.4669306
0.4580669
0.4505709
0.4447309
0.4407924
0.4388575
0.4387143
0.4398517
0.4416151
0.4433865
0.4446859
0.4450848
0.4441393
0.4415002
0.4370923
0.431188
0.4244066
0.4168465
0.4086246
0.3998672
0.390741
0.3814411
0.3721057
0.3627621
0.3533762
0.3439585
0.3346457
0.3257309
0.3176549
0.3109884
0.3064892
0.305123
0.3073677
0.3132584
0.3222298
0.3331368
0.3445292
0.3550235
0.3636742
0.3700777
0.3741573
0.3760405
0.3760319
0.3744592
0.3715355
0.3674239
0.3623491
0.3565908
0.3503515
0.3436728
0.3365407
0.3288915
0.3206129
0.3118986
0.3029679
0.2940023
0.2851341
0.2764449
0.267985
0.2597938
0.2519015
0.244339
0.237158
0.2304399
0.2242881
0.2188247
0.2141645
0.2104397
0.2078245
0.2065457
0.2068907
0.2092183
0.2139471
0.2215831
0.2326671
0.247326
0.2653178
0.2858733
0.3078474
0.3300322
0.3506618
0.3676495
0.3799825
0.3880674
0.3931782
0.3964613
0.3978154
0.3964848
0.3925378
0.3869947
0.3810832
0.3755237
0.369733
0.3633927
0.3564988
0.3489976
0.3403714
0.3304674
0.3196631
0.3082281
0.2962828
0.2839591
0.271427
0.2588894
0.2465752
0.234703
0.2233902
0.2126932
0.2025788
0.19293
0.1836655
0.1747937
0.1663762
0.1585153
0.1512921
0.1447563
0.1389275
0.1337962
0.1293263
0.1254683
0.1221718
0.1193957
0.1171123
0.1153041
0.1139538
0.1130353
0.1125082
0.1123226
0.1124772
0.1128904
0.1134728
0.1141324
0.1148064
0.1154448
0.1160032
0.1164479
0.116758
0.1169134
0.1168981
0.1167065
0.1163463
0.1158007
0.1150671
0.1141445
0.1130354
0.1117461
0.1102831
0.1086524
0.1068587
0.1049062
0.1027982
0.1005387
0.09813235
0.09557929
0.09287574
0.09004149
0.08709438
0.08406232
0.08098497
0.07788969
0.07478463
0.07168296
0.06861784
0.0656276
0.06275938
0.06008399
0.05769567
0.05569398
0.05416576
0.05318509
0.05283302
0.05319141
0.05427233
0.05604635
0.05848973
0.06139269
0.06453954
0.06750674
0.06974291
0.0708083
0.07067512
0.06973841
0.06853355
0.06747188
0.06676347
0.06646355
0.06655057
0.06695733
0.06758254
0.06838015
0.0693121
0.07033965
0.07142844
0.0725325
0.07363897
0.07468158
0.07558855
0.07632693
0.07689594
0.07731958
0.07763162
0.0778657
0.07807045
0.07831587
0.07865105
0.0790993
0.07967577
0.08038942
0.08121388
0.08211867
0.08307226
0.08404454
0.08500843
0.08594079
0.08682272
0.08763927
0.08837904
0.08903246
0.08959563
0.09007319
0.09046959
0.09079004
0.09105108
0.09126779
0.09145513
0.09162795
0.09179669
0.09196804
0.0921449
0.09232627
0.09250697
0.09267773
0.09282578
0.09293542
0.09298896
0.09296984
0.09286332
0.09265229
0.09231854
0.09185191
0.09124089
0.09047763
0.08955778
0.08847446
0.08722581
0.08581644
0.08425559
0.08255659
0.0807391
0.07882687
0.07684414
0.074814
0.07275471
0.07068264
0.06861594
0.06657183
0.06456386
0.06260429
0.06070581
0.05887833
0.05712927
0.05546407
0.05388608
0.05239673
0.05099578
0.04968163
0.0484516
0.04730214
0.04622905
0.04522769
0.04429318
0.04342053
0.04260472
0.04184089
0.04112438
0.04045081
0.03981614
0.03921669
0.03864913
0.03811046
0.03759806
0.03710959
0.03664297
0.03619638
0.03576816
0.03535684
0.03496111
0.03457976
0.0342117
0.03385596
0.03351161
0.03317782
0.03285382
0.03253888
0.03223234
0.03193356
0.03164194
0.03135691
0.0310779
0.03080436
0.03053572
0.03027139
0.0300108
0.02975341
0.02949878
0.02924655
0.02899643
0.02874819
0.02850163
0.02825662
0.02801305
0.02777076
0.02752973
0.0272901
0.02705207
0.02681589
0.02658183
0.02635024
0.02612148
0.02589596
0.02567411
0.02545635
0.02524315
0.02503495
0.02483219
0.02463531
0.0244447
0.02426072
0.02408371
0.02391393
0.02375163
0.02359699
0.02345013
0.02331114
0.02318003
0.0230568
0.02294135
0.02283358
0.0227333
0.02264032
0.02255437
0.02247518
0.02240243
0.02233579
0.02227488
0.02221935
0.0221688
0.02212284
0.02208108
0.02204312
0.02200857
0.02197703
0.02194813
0.0219215
0.02189676
0.02187358
0.02185162
0.02183055
0.02181008
0.02178991
0.02176979
0.02174944
0.02172864
0.02170714
0.02168475
0.02166124
0.02163644
0.02161018
0.02158229
0.02155263
0.02152107
0.0214875
0.0214518
0.02141388
0.02137365
0.02133104
0.02128597
0.02123838
0.02118822
0.02113546
0.02108006
0.021022
0.02096126
0.02089782
0.02083166
0.02076277
0.02069113
0.02061676
0.02053968
0.02046007
0.02037807
0.02029419
0.02020895
0.02012437
0.02005034
0.001689177
0.007412596
0.01120162
0.01579355
0.02108535
0.0272706
0.03443659
0.04245188
0.05147249
0.06237743
0.07885004
0.08836426
0.0985267
0.1090488
0.1199058
0.1309988
0.1422536
0.1535679
0.1647942
0.1758525
0.1867907
0.1989793
0.2111493
0.2231512
0.2349559
0.2465382
0.2578558
0.2689346
0.2797855
0.2903742
0.3007148
0.3110434
0.321582
0.3321765
0.3429117
0.3536447
0.3641023
0.3740198
0.3832445
0.3918706
0.4000688
0.4079415
0.415542
0.4228767
0.4299247
0.4366388
0.4429265
0.4486676
0.4537711
0.4579195
0.4608433
0.4626547
0.4631249
0.4624437
0.460735
0.4583002
0.4555237
0.4528817
0.451163
0.4509689
0.4529003
0.4573448
0.464542
0.4743973
0.4866378
0.5007504
0.5161144
0.5320825
0.5475845
0.5623127
0.5763661
0.5894555
0.6013392
0.6117838
0.6205231
0.6273643