/*--------------------------------*- C++ -*----------------------------------*\
| =========                 |                                                 |
| \\      /  F ield         | foam-extend: Open Source CFD                    |
|  \\    /   O peration     | Version:     3.1                                |
|   \\  /    A nd           | Web:         http://www.extend-project.de       |
|    \\/     M anipulation  |                                                 |
\*---------------------------------------------------------------------------*/
FoamFile
{
    version     2.0;
    format      ascii;
    class       volScalarField;
    location    "12";
    object      nut;
}
// * * * * * * * * * * * * * * * * * * * * * * * * * * * * * * * * * * * * * //

dimensions      [0 2 -1 0 0 0 0];

internalField   nonuniform List<scalar> 
119952
(
4.736308e-05
3.129429e-05
3.116601e-05
3.339906e-05
3.425562e-05
3.170073e-05
3.027005e-05
2.966024e-05
2.962973e-05
2.983646e-05
3.002823e-05
3.0097e-05
2.998055e-05
2.96039e-05
2.908504e-05
2.8562e-05
2.809518e-05
2.768803e-05
2.732753e-05
2.706063e-05
3.49326e-05
3.396551e-05
3.411854e-05
4.523877e-05
4.503708e-05
4.55534e-05
4.592997e-05
4.640595e-05
4.701574e-05
2.265576e-05
3.10959e-05
3.250612e-05
3.56708e-05
3.884197e-05
4.211368e-05
4.564904e-05
4.970987e-05
5.438317e-05
5.966611e-05
6.879426e-05
0.0002910321
0.0003607325
0.0004421512
0.0005309582
0.0006266003
0.0007289363
0.0008380224
0.0009532595
0.001072921
0.001640787
0.001811216
0.001983638
0.002150563
0.002306502
0.002446277
0.002566551
0.002665469
0.002742213
0.002794874
0.002825458
0.002834402
0.002824707
0.002799273
0.002760795
0.002711831
0.002654805
0.002592333
0.002529145
0.002429648
0.002259744
0.002137974
0.002018712
0.001893381
0.001766721
0.001670761
0.001613138
0.001592342
0.001601719
0.001634011
0.001682818
0.00174354
0.001811881
0.001891282
0.001990808
0.0021128
0.002258972
0.002431242
0.002631551
0.002863609
0.00312339
0.003402313
0.003702973
0.004008796
0.004276466
0.004492832
0.00465086
0.003619245
0.004270799
0.00421355
0.004189033
0.004156408
0.004091914
0.003976419
0.00381118
0.003608596
0.003373146
0.003114485
0.002841932
0.00256392
0.002289325
0.002029594
0.001796043
0.001593762
0.001417032
0.001250832
0.001091652
0.0009680647
0.0009168365
0.0009285857
0.0009320085
0.0009554744
0.0009952812
0.001034776
0.001071241
0.0011095
0.001137495
0.001170322
0.001207488
0.001246913
0.001285617
0.001320266
0.001350037
0.001375242
0.001395915
0.001412572
0.001426124
0.00143764
0.001447754
0.001456646
0.001464291
0.001470464
0.001474607
0.001475958
0.001473688
0.001466729
0.001453613
0.001434998
0.001407605
0.001372806
0.001333316
0.001291204
0.00124697
0.00120082
0.001153152
0.001104243
0.001054544
0.001004481
0.000954465
0.0009049859
0.0008565565
0.0008096063
0.0007644199
0.0007211215
0.0006794769
0.0006385749
0.0005958879
0.0005161309
0.0004238222
0.000372998
0.000326413
0.0003114453
0.0003620718
0.0004374081
0.000522728
0.0005984461
0.0006568471
0.000684932
0.0007367144
0.0007996472
0.0008405188
0.0008465328
0.0008266339
0.0007980174
0.0007702416
0.0007453856
0.0007233959
0.000703665
0.0006868144
0.0006742806
0.0006669224
0.0006648473
0.0006678977
0.0006758021
0.0006881368
0.0007043444
0.0007237958
0.0007456411
0.0005933878
0.0004593702
0.0004316931
0.0004309776
0.0004378715
0.0004451308
0.0004502962
0.0004529082
0.0004531708
0.0004516045
0.0004489842
0.0004455831
0.0004415755
0.0004369457
0.0004319309
0.0004270458
0.0004227818
0.0004196856
0.000417724
0.0004165433
0.0004160773
0.0004163386
0.0004172884
0.0004188662
0.0004210182
0.0004236861
0.0004268072
0.0004303432
0.0004342471
0.0004384733
0.0004430127
0.0004478273
0.000452909
0.000458399
0.0004650848
0.0004774176
0.000492101
0.0005071327
0.0005230037
0.0005392899
0.0005557078
0.0005720423
0.0005880996
0.0006036842
0.0006185972
0.0006326363
0.0006455951
0.0006573088
0.0006676167
0.0006763854
0.0006835163
0.0006889554
0.0006926989
0.0006947816
0.0006952434
0.0006940955
0.0006912927
0.0006867416
0.0006803569
0.0006721501
0.0006622895
0.000651061
0.0006388018
0.0006258603
0.0006125452
0.0005991277
0.0005858434
0.0005729045
0.0005605101
0.0005488178
0.0007428836
0.000743426
0.0007430929
0.000742147
0.0007406683
0.0007388715
0.0007369729
0.0007351145
0.0007333965
0.0007318961
0.000730658
0.0007297169
0.0007290933
0.0007288003
0.0007288643
0.0007292603
0.0007299803
0.0007310136
0.0007323436
0.0007339547
0.0007358284
0.0007379432
0.0007402753
0.0007427988
0.0007454857
0.0007483063
0.0007512312
0.0007542303
0.0007572714
0.0007603217
0.0007633491
0.000766322
0.0007692091
0.0007719811
0.0007746097
0.0007770662
0.0007793232
0.0007813553
0.0007831392
0.0007846525
0.0007858733
0.0007867788
0.0007873438
0.0007875318
0.0007872826
0.0007864532
0.0007847901
0.0007825716
0.0007800033
0.0007771032
0.0007739108
0.0007704629
0.0007667776
0.0007634346
0.0007596013
0.0007538905
0.0007487818
0.0007441338
0.0007399406
0.0007361596
0.0007327587
0.0007297025
0.0007269625
0.0007245179
0.0007223551
0.0007204646
0.0007188455
0.0007174993
0.0007164278
0.0007156352
0.0007151272
0.0007149101
0.0007149881
0.000715364
0.0007160386
0.0007170115
0.0007182814
0.0007198447
0.0007216965
0.0007238304
0.0007262378
0.0007289075
0.0007318267
0.0007349809
0.0007383553
0.000741934
0.0007457007
0.0007496384
0.0007537298
0.0007579569
0.0007623017
0.0007667464
0.0007712727
0.0007758623
0.0007804974
0.0007851605
0.0007898346
0.000794503
0.0007991492
0.0008037573
0.0008083115
0.0008127965
0.0008171978
0.0008215019
0.000825695
0.0008297661
0.0008337039
0.0008374977
0.0008411375
0.000844614
0.0008479177
0.0008510395
0.0008539712
0.000856705
0.0008592341
0.0008615523
0.0008636546
0.0008655369
0.0008671961
0.0008686305
0.0008698399
0.0008708258
0.0008715915
0.0008721426
0.0008724863
0.0008726336
0.0008725977
0.0008723981
0.0008720572
0.0008716092
0.0008710945
0.0008705763
0.000870131
0.0008699087
0.0008701589
0.000871426
0.0008745973
0.0008824737
0.0007157014
5.41476e-05
5.834104e-05
6.868757e-05
8.064373e-05
9.231643e-05
0.0001032433
0.0001134435
0.0001230443
0.0001335088
0.0004295202
0.0005813809
0.0007363074
0.0008809473
0.001010133
0.001123711
0.001224545
0.001316562
0.001403638
0.002033831
0.002157251
0.002295225
0.002443014
0.002599296
0.002762097
0.002927746
0.003091743
0.003249125
0.003394506
0.003521462
0.003630177
0.003719036
0.003785042
0.003824264
0.003834036
0.003814629
0.003769295
0.003703233
0.00360667
0.003492586
0.003392422
0.003301256
0.003216676
0.003139631
0.003074048
0.003025304
0.003003972
0.003025007
0.0030931
0.003208922
0.003373551
0.003585717
0.003843332
0.004142578
0.004476704
0.004834781
0.005202046
0.006483125
0.006803343
0.007086266
0.007326302
0.007519704
0.007667097
0.007770441
0.007832232
0.007854661
0.007839543
0.007789511
0.007708163
0.007599083
0.007465768
0.007312412
0.00714504
0.006974434
0.006803997
0.006623021
0.006403799
0.006157535
0.005907495
0.005646325
0.005378385
0.005116585
0.004878855
0.004677119
0.004517145
0.004400518
0.004326121
0.004291754
0.004295348
0.004335458
0.004410999
0.004528297
0.004701655
0.004935992
0.005233976
0.005594939
0.006012267
0.006471313
0.006952676
0.007435195
0.007891142
0.008292603
0.008629333
0.008904152
0.009120632
0.009274257
0.009378285
0.009429352
0.009420876
0.00934993
0.009213071
0.009005472
0.008732562
0.008400318
0.008016366
0.007587551
0.007120207
0.006627624
0.00612621
0.005631728
0.005154691
0.00469709
0.004259864
0.003861213
0.003530046
0.003273442
0.003072785
0.002906385
0.002760995
0.002632368
0.002522611
0.002436628
0.002378524
0.002349491
0.002347667
0.002369104
0.002408952
0.002462399
0.002525242
0.002593885
0.00266564
0.00274159
0.002824504
0.002915223
0.003012733
0.003115801
0.003223006
0.003332557
0.003442278
0.003549767
0.003652507
0.00374804
0.003834067
0.003908549
0.003969767
0.004016203
0.004046244
0.004057837
0.004048437
0.004020703
0.003976899
0.003917361
0.003842444
0.003752636
0.003648466
0.003530504
0.003399561
0.003256279
0.003101442
0.002935816
0.002759167
0.00257203
0.00237332
0.002161184
0.001937254
0.001697339
0.001474333
0.00130212
0.001182192
0.001106009
0.001020835
0.0009019662
0.0008250755
0.0008054988
0.0008327377
0.0008813055
0.0009474642
0.001040955
0.001166873
0.001323695
0.001516004
0.001632182
0.00170501
0.001774017
0.001837351
0.001895911
0.001952526
0.002010064
0.002070852
0.002136378
0.002207118
0.002282563
0.002361618
0.00244282
0.002523602
0.002378225
0.002328373
0.002348156
0.002389157
0.002434918
0.002477903
0.002513697
0.002539876
0.002554629
0.002557923
0.002553421
0.002544454
0.002534268
0.002525693
0.002520998
0.002521882
0.002529499
0.002544484
0.002566992
0.002597179
0.002634918
0.002678749
0.002728028
0.002782211
0.002840766
0.002903167
0.002968919
0.003037571
0.00310873
0.003182078
0.003257362
0.003334383
0.003413041
0.003493412
0.003575427
0.003659365
0.003746372
0.003835136
0.003924666
0.004014106
0.004102472
0.004188672
0.004271553
0.004349942
0.004422669
0.004488602
0.004546697
0.004596042
0.004635878
0.004665599
0.004684765
0.004693143
0.004690745
0.004677788
0.004654519
0.004621023
0.004577127
0.004522473
0.004456802
0.004380364
0.004294127
0.004199646
0.004098769
0.003993368
0.003885202
0.003775854
0.00366674
0.003559132
0.003454135
0.003351534
0.003766627
0.003684825
0.003602581
0.003522545
0.003446319
0.003374858
0.003308633
0.003247808
0.003192317
0.003141967
0.003096493
0.003055584
0.003018904
0.002986124
0.002956913
0.002930958
0.00290797
0.002887684
0.002869854
0.002854255
0.002840675
0.00282892
0.002818805
0.002810157
0.002802811
0.002796605
0.002791385
0.002786999
0.002783297
0.002780134
0.002777367
0.002774856
0.002772467
0.002770069
0.002767537
0.002764751
0.002761595
0.002757962
0.00275375
0.002748861
0.002743207
0.002736703
0.002729271
0.002720833
0.002711297
0.002700543
0.002688497
0.00267525
0.00266092
0.002645577
0.002629264
0.002612068
0.002594084
0.002575829
0.002556625
0.002536286
0.00251544
0.00249444
0.002473446
0.002452592
0.002432001
0.002411786
0.002392054
0.002372913
0.002354467
0.002336813
0.002320042
0.002304233
0.002289458
0.002275774
0.002263233
0.002251872
0.002241722
0.002232801
0.002225119
0.002218678
0.002213471
0.002209483
0.002206693
0.002205073
0.002204588
0.002205198
0.002206858
0.002209515
0.002213118
0.00221761
0.002222931
0.002229021
0.002235819
0.002243261
0.002251285
0.002259827
0.002268823
0.002278211
0.00228793
0.002297917
0.002308113
0.002318461
0.002328903
0.002339384
0.002349851
0.002360251
0.002370535
0.002380653
0.002390561
0.002400212
0.002409566
0.002418581
0.002427221
0.00243545
0.002443235
0.002450546
0.002457355
0.002463636
0.002469366
0.002474525
0.002479093
0.002483056
0.0024864
0.002489115
0.002491196
0.002492639
0.002493446
0.002493622
0.002493181
0.002492137
0.002490518
0.00248835
0.002485691
0.002482578
0.002479125
0.00247539
0.002471589
0.002467801
0.002464407
0.002461491
0.002460482
0.002462752
0.002466785
2.836061e-05
3.433063e-05
4.333358e-05
5.393975e-05
6.651748e-05
8.153628e-05
9.982516e-05
0.0001223503
0.0001507871
0.0002001566
0.0008617434
0.001013118
0.001174869
0.001351351
0.001533954
0.001706917
0.001839033
0.001994137
0.002353659
0.004250296
0.004482092
0.004651568
0.004812795
0.004971868
0.005119448
0.005260726
0.005396399
0.005532925
0.005708502
0.00601463
0.006303822
0.006527054
0.006698566
0.006834634
0.006942067
0.007023242
0.007081463
0.007125537
0.007002869
0.006984814
0.007007015
0.007040348
0.007070263
0.007090053
0.007097334
0.007092024
0.00707525
0.007048744
0.007015074
0.006979759
0.006946939
0.006919863
0.006901254
0.006893766
0.006899225
0.006917983
0.007864802
0.007925725
0.007998414
0.008085742
0.008188035
0.008303472
0.008428074
0.008555657
0.008679187
0.00879107
0.008883765
0.008950915
0.008986579
0.008985257
0.008943738
0.008862006
0.008744571
0.008603841
0.008455126
0.008282303
0.008086899
0.007876592
0.007657617
0.007437493
0.007228491
0.00704313
0.006891715
0.006778949
0.006700519
0.006672931
0.006714292
0.006827992
0.007014701
0.007271435
0.007589925
0.007954545
0.008344741
0.008741899
0.00910451
0.009435123
0.009723208
0.009962713
0.01
0.01
0.01
0.01
0.01
0.01
0.01
0.01
0.01
0.01
0.009842469
0.009670116
0.009482642
0.009273876
0.009047841
0.008795942
0.008521998
0.008236723
0.007940975
0.007638722
0.007339613
0.007057429
0.00680423
0.006588191
0.006414716
0.006287054
0.006207249
0.006177124
0.006198793
0.006274588
0.006405291
0.006603075
0.006874392
0.007219351
0.007631418
0.008094765
0.008584869
0.009077609
0.009548698
0.00997492
0.01
0.01
0.01
0.01
0.01
0.01000001
0.01000003
0.01000004
0.01000003
0.01000001
0.01
0.01
0.01
0.01000001
0.01000007
0.009621127
0.009162762
0.008675737
0.008173559
0.007666553
0.00716311
0.006671219
0.006209059
0.005796952
0.005437967
0.005119478
0.004826989
0.004551542
0.004291585
0.004051507
0.003839013
0.003661972
0.003525686
0.003431812
0.003378615
0.003362047
0.003377007
0.003418364
0.00348168
0.003563498
0.003660838
0.003769997
0.003890889
0.00402712
0.004178052
0.004340911
0.004512379
0.004688663
0.004865666
0.005039251
0.005205497
0.005360854
0.005502186
0.005626915
0.005733056
0.005818998
0.005883268
0.005924283
0.005939964
0.005931614
0.005899553
0.005844087
0.005765587
0.005664366
0.005540767
0.005395188
0.005227723
0.005038731
0.004827957
0.004594662
0.004339297
0.004059767
0.003755552
0.003428332
0.003077513
0.00273218
0.002424737
0.002162175
0.001941856
0.001760301
0.001618106
0.001513995
0.001446764
0.001416657
0.001302857
0.001191566
0.001144436
0.001147388
0.001194924
0.001282263
0.001417994
0.001622858
0.001905001
0.002103692
0.002221071
0.002345137
0.002473851
0.002605996
0.002740831
0.002877164
0.00301337
0.003147721
0.003278514
0.003405743
0.003530924
0.003654487
0.003770901
0.003880342
0.00398348
0.004080165
0.004169375
0.004249938
0.004319825
0.004378173
0.00442518
0.004462229
0.00449184
0.004517356
0.004542518
0.004571087
0.004606478
0.004651396
0.00470762
0.004776085
0.004857704
0.004950249
0.005052098
0.005161776
0.005277819
0.005398776
0.00552325
0.005649939
0.005777665
0.005905403
0.006032299
0.006157662
0.006281036
0.006402154
0.006520754
0.006639377
0.006757667
0.006874852
0.006990265
0.007103256
0.007213087
0.007318881
0.007419637
0.007514252
0.007601584
0.007680479
0.007749836
0.007808722
0.007856357
0.007892065
0.007915282
0.007925578
0.007922745
0.007906863
0.007878012
0.007836004
0.007780357
0.007710435
0.007625786
0.007526694
0.007414254
0.007290199
0.007156548
0.007015392
0.006868729
0.006718434
0.00656627
0.006413957
0.00626334
0.006117711
0.005951618
0.005798502
0.005656286
0.005523936
0.005400987
0.005287086
0.005181893
0.005085046
0.004996168
0.004914872
0.004840743
0.004773343
0.004712223
0.004656942
0.004607061
0.004562153
0.004521813
0.004485663
0.004453353
0.004424553
0.004398957
0.004376278
0.004356246
0.004338606
0.004323115
0.004309541
0.004297657
0.004287244
0.004278086
0.004269975
0.004262705
0.004256074
0.004249889
0.004243959
0.004238101
0.00423214
0.004225907
0.00421924
0.004211988
0.004204006
0.004195159
0.004185322
0.004174378
0.004162214
0.004148721
0.004133793
0.004117347
0.004099375
0.004079918
0.004059023
0.004036733
0.004013111
0.003988216
0.00396214
0.003934889
0.003906639
0.003877637
0.003848018
0.003817898
0.003787434
0.003756821
0.003726252
0.003695917
0.003665996
0.003636665
0.003608092
0.003580435
0.003553845
0.003528459
0.003504401
0.003481783
0.003460702
0.00344124
0.003423466
0.003407432
0.003393177
0.003380726
0.00337009
0.003361267
0.003354242
0.003348991
0.003345475
0.003343647
0.003343451
0.003344822
0.00334769
0.003351978
0.003357604
0.003364482
0.003372525
0.003381641
0.003391737
0.00340272
0.003414497
0.003426972
0.003440053
0.003453648
0.003467667
0.00348202
0.003496621
0.003511387
0.003526235
0.003541086
0.003555863
0.003570494
0.003584907
0.003599034
0.003612812
0.003626179
0.003639077
0.003651454
0.003663257
0.003674443
0.003684966
0.003694789
0.003703877
0.003712196
0.00371972
0.003726423
0.003732285
0.003737291
0.003741429
0.003744693
0.003747085
0.00374861
0.003749284
0.003749124
0.003748168
0.00374645
0.003744037
0.003740988
0.003737418
0.003733417
0.00372918
0.003724851
0.003720779
0.003717376
0.003715294
0.003714723
3.664231e-05
5.841384e-05
0.000133219
0.0004495418
0.000773952
0.001389314
0.00186533
0.002443005
0.003101133
0.00363214
0.0040135
0.004315366
0.004617228
0.004922367
0.005234943
0.005551302
0.005874017
0.006204938
0.006530969
0.006842612
0.007146654
0.007432996
0.007673464
0.007882249
0.008075946
0.008253557
0.00841384
0.00855402
0.008681167
0.008816974
0.008993537
0.009339988
0.009086972
0.008857365
0.00870459
0.008598698
0.008537184
0.008523153
0.008566924
0.00865388
0.008758941
0.008915195
0.009130805
0.009399856
0.00976655
0.01
0.01
0.01
0.01
0.01
0.01
0.01
0.01
0.01
0.01
0.01
0.01
0.01
0.01
0.01
0.01
0.01
0.01
0.01
0.01
0.01
0.01
0.01
0.01
0.01
0.01
0.01
0.01
0.01
0.01
0.01
0.01
0.01
0.01
0.01
0.01
0.01
0.01
0.01
0.01
0.01
0.01
0.01
0.01
0.01
0.01
0.00975415
0.009500189
0.009268948
0.009072816
0.008921582
0.00882113
0.008768318
0.008782333
0.008872772
0.009042383
0.009288059
0.00959844
0.009953973
0.01
0.01
0.01
0.01
0.01
0.01
0.01
0.01
0.01000001
0.01000004
0.01000008
0.01000007
0.01000003
0.01
0.01
0.01
0.01
0.01
0.01
0.01
0.01
0.01
0.01
0.01
0.009775764
0.009477764
0.009181311
0.00889642
0.00863339
0.008400466
0.008205334
0.008054681
0.007954101
0.007908681
0.007923362
0.008002775
0.008149855
0.008367501
0.008657808
0.009014299
0.009423413
0.009863218
0.01
0.01
0.01
0.01
0.01
0.01
0.01000001
0.01000008
0.01000047
0.01000158
0.01000194
0.0100014
0.01000046
0.01000014
0.01000015
0.01000019
0.01000035
0.01000105
0.01000323
0.01000372
0.01000154
0.01000019
0.01000001
0.009669931
0.009223229
0.008775831
0.008340164
0.007925861
0.007536491
0.007166944
0.00681005
0.00646125
0.006120634
0.005793029
0.005486886
0.005212033
0.004977244
0.004788584
0.004648526
0.004556207
0.004508622
0.004501712
0.004531284
0.004593521
0.004685065
0.004802854
0.004943658
0.005103159
0.005283123
0.005482735
0.005696853
0.005919823
0.006145788
0.006369031
0.006584345
0.006787254
0.006973841
0.007141013
0.007286669
0.007409341
0.007508027
0.007581901
0.007629962
0.007651529
0.007646627
0.007615388
0.007557995
0.007474583
0.007365257
0.00722996
0.007068297
0.00687992
0.006664041
0.006419682
0.006146255
0.005841713
0.005505003
0.005136823
0.004737957
0.004324634
0.003920821
0.003539948
0.003186053
0.002861771
0.002573535
0.002327044
0.002126675
0.001975139
0.001870342
0.001807064
0.001781546
0.001686872
0.001517295
0.001423697
0.001397962
0.001434927
0.001537064
0.001720704
0.002004055
0.002367516
0.002626683
0.0027956
0.00297841
0.00316974
0.003362925
0.003552172
0.003715768
0.003905189
0.004066412
0.004216967
0.004358354
0.004493797
0.004625784
0.004755283
0.004881733
0.005003488
0.005120322
0.005231529
0.005335562
0.005431168
0.005518015
0.005596906
0.005669695
0.005739143
0.005808709
0.005881986
0.005962061
0.006051079
0.006151611
0.006264296
0.006387801
0.006520517
0.006660578
0.006805958
0.006954643
0.007104675
0.00725422
0.007401619
0.007545394
0.007684302
0.007817447
0.007944123
0.008063504
0.0081767
0.008286114
0.008392001
0.0084946
0.00859405
0.008690291
0.008783039
0.008871802
0.008955887
0.009034469
0.00910661
0.009171233
0.009227488
0.009274759
0.009312355
0.009339586
0.009355767
0.009360291
0.009353081
0.009334509
0.009304159
0.00926114
0.009204291
0.009132336
0.009045049
0.008943103
0.008828195
0.008702231
0.008567172
0.008424872
0.008277005
0.008125227
0.007971205
0.007816613
0.007662926
0.007509241
0.007358254
0.00721174
0.007070954
0.006936806
0.006809899
0.006690594
0.006579058
0.006475312
0.006379255
0.006290685
0.00620932
0.006134825
0.006066828
0.006004938
0.00594875
0.005897861
0.005851882
0.005810439
0.005773181
0.00573977
0.005709892
0.005683244
0.005659543
0.005638516
0.005619903
0.005603448
0.005588904
0.00557603
0.005564587
0.005554341
0.005545064
0.00553653
0.005528521
0.005520823
0.00551323
0.005505542
0.005497567
0.005489121
0.00548003
0.005470127
0.005459256
0.005447269
0.005434026
0.005419397
0.005403259
0.005385507
0.005366076
0.005344942
0.00532211
0.005297592
0.005271415
0.005243616
0.005214278
0.005183482
0.005151302
0.005117869
0.005083351
0.005047925
0.005011777
0.004975103
0.004938104
0.004900986
0.004863959
0.004827234
0.004791018
0.004755519
0.004720936
0.004687462
0.004655275
0.004624545
0.004595424
0.004568051
0.004542547
0.004519016
0.004497545
0.004478202
0.00446104
0.004446092
0.004433375
0.004422888
0.004414618
0.004408533
0.004404589
0.00440273
0.004402889
0.004404987
0.00440894
0.004414653
0.004422028
0.00443096
0.00444134
0.004453056
0.004465995
0.00448004
0.004495076
0.004510987
0.004527658
0.004544974
0.004562825
0.004581099
0.004599691
0.004618496
0.004637412
0.004656341
0.00467519
0.004693865
0.00471228
0.004730351
0.004748
0.004765151
0.004781735
0.004797685
0.004812942
0.00482745
0.004841156
0.004854014
0.004865981
0.004877018
0.004887093
0.004896177
0.004904247
0.004911287
0.004917289
0.004922249
0.004926174
0.004929073
0.004930971
0.004931897
0.0049319
0.004931027
0.004929366
0.004926995
0.004924055
0.004920683
0.004917094
0.004913555
0.004910399
0.004908732
2.171347e-05
3.462099e-05
5.14508e-05
0.0002264763
0.000369931
0.0006224956
0.0008794677
0.001116029
0.001414878
0.001708371
0.002026844
0.002440805
0.002930898
0.003485183
0.004110128
0.004909804
0.006413316
0.007009337
0.007581333
0.008089514
0.008534081
0.008915061
0.009249758
0.009552689
0.0098303
0.01
0.01
0.01
0.01
0.01
0.01
0.01
0.01
0.01
0.01
0.01
0.01
0.01
0.01
0.009541497
0.008954989
0.008471169
0.008366847
0.008144258
0.007937901
0.007786044
0.007687772
0.007646051
0.007659651
0.007733562
0.007862947
0.008046391
0.008300042
0.008644406
0.00909508
0.009645647
0.01
0.01
0.01
0.01
0.01
0.01
0.01
0.01
0.01
0.01
0.01
0.01
0.01
0.01
0.01
0.01
0.01
0.01
0.01
0.01
0.01
0.01
0.01
0.01
0.01
0.01
0.01
0.01
0.01
0.01
0.01
0.01
0.01
0.01
0.01
0.01
0.01
0.01
0.01
0.01
0.01
0.01
0.01
0.01
0.01
0.01
0.01
0.01
0.01
0.01
0.01
0.01
0.01
0.01
0.01
0.01
0.01
0.01
0.01
0.01
0.01
0.01
0.01
0.01
0.01
0.01000001
0.0100001
0.01000051
0.01000092
0.01000067
0.01000019
0.01000002
0.01
0.01
0.01
0.01
0.01000001
0.01000005
0.0100001
0.01000009
0.01000003
0.01
0.01
0.01
0.01
0.01
0.01
0.01
0.009889056
0.009698456
0.009551003
0.00945404
0.009414289
0.009437655
0.009528413
0.009687225
0.009909218
0.01
0.01
0.01
0.01
0.01
0.01
0.01
0.01
0.01
0.01000003
0.01000046
0.01000467
0.01001965
0.01002522
0.01001236
0.01000231
0.01000089
0.01000128
0.01000139
0.01000387
0.01003486
0.0100573
0.01003004
0.01000489
0.01000027
0.01
0.01
0.01
0.01000004
0.01000033
0.01000054
0.009638849
0.009274788
0.008914057
0.008552842
0.008188493
0.007822479
0.007459905
0.007109315
0.006781064
0.006485566
0.006231614
0.006025269
0.00586962
0.005765156
0.005710438
0.005702885
0.005739418
0.005816812
0.005931729
0.006080424
0.006258281
0.00645911
0.006681893
0.006922312
0.007172893
0.007426241
0.007675433
0.007914566
0.008139006
0.008344916
0.008529206
0.008689962
0.008825789
0.008936559
0.009022396
0.009083338
0.009118229
0.009127178
0.009110352
0.009067929
0.009000047
0.008906736
0.008787705
0.008641788
0.00846826
0.008266454
0.008035442
0.007774225
0.007481052
0.007154571
0.006794507
0.006400996
0.005980801
0.005547338
0.005111824
0.004679905
0.004257285
0.00385343
0.003477674
0.003139259
0.002847124
0.002606204
0.002417349
0.002279147
0.002187719
0.002137842
0.002125502
0.002007057
0.001790838
0.001658045
0.001625957
0.001691147
0.001853186
0.002112042
0.002451743
0.002820847
0.003150548
0.003403527
0.003595769
0.003772958
0.003980388
0.00422121
0.004452735
0.004613725
0.004763937
0.00490866
0.005051823
0.005195437
0.005339586
0.005485326
0.005633875
0.005784042
0.005933592
0.006080163
0.006221806
0.006357206
0.006485912
0.006608863
0.006728241
0.0068467
0.006966812
0.007091741
0.007225006
0.007366933
0.007516687
0.007672675
0.007832858
0.007994994
0.008156779
0.008315967
0.008470439
0.008618204
0.008757412
0.0088869
0.009006247
0.009115036
0.009213448
0.009304464
0.009389461
0.009469678
0.009546317
0.009620136
0.009691549
0.009760677
0.00982739
0.009891301
0.009951844
0.01
0.01
0.01
0.01
0.01
0.01
0.01
0.009889675
0.009832399
0.009830041
0.009869451
0.009944972
0.01
0.01
0.009936574
0.009840047
0.009731826
0.009613606
0.009487078
0.009353682
0.00921453
0.009071122
0.008925256
0.008778485
0.008631966
0.00848702
0.00834494
0.00820687
0.008073784
0.007946466
0.007825508
0.007711318
0.007604139
0.007504074
0.007411099
0.007325088
0.007245834
0.007173069
0.00710648
0.007045726
0.006990448
0.006940283
0.006894876
0.006853882
0.00681697
0.006783822
0.006754139
0.006727635
0.006704036
0.00668308
0.006664514
0.00664809
0.006633565
0.006620702
0.006609266
0.006599025
0.006589752
0.006581225
0.006573225
0.006565538
0.006557958
0.006550281
0.006542313
0.006533866
0.00652476
0.006514821
0.006503883
0.006491788
0.006478386
0.006463535
0.006447107
0.006429001
0.006409145
0.006387496
0.006364027
0.006338729
0.006311615
0.006282723
0.006252104
0.006219802
0.00618591
0.006150573
0.006113952
0.006076214
0.006037542
0.005998131
0.005958192
0.005917941
0.005877604
0.00583741
0.005797592
0.00575838
0.00572
0.005682672
0.005646607
0.005612003
0.005579044
0.0055479
0.005518722
0.005491645
0.005466785
0.005444236
0.005424076
0.00540636
0.005391126
0.005378392
0.005368156
0.005360401
0.005355092
0.005352178
0.005351597
0.005353272
0.005357117
0.005363035
0.005370922
0.005380666
0.00539215
0.005405252
0.005419846
0.005435804
0.005452996
0.005471292
0.005490562
0.005510678
0.00553151
0.005552935
0.005574828
0.005597069
0.005619542
0.005642132
0.005664728
0.005687224
0.005709517
0.005731509
0.005753107
0.005774224
0.005794777
0.005814687
0.005833883
0.005852297
0.005869866
0.005886534
0.005902247
0.005916957
0.005930623
0.005943209
0.005954687
0.005965036
0.00597424
0.005982293
0.005989196
0.005994958
0.005999595
0.006003137
0.006005619
0.0060071
0.006007642
0.006007346
0.006006317
0.006004703
0.0060027
0.006000608
0.005999805
2.034026e-05
3.111699e-05
6.043487e-05
0.0001795713
0.0002880836
0.0004541008
0.0005837973
0.0007326959
0.0009094414
0.001084114
0.00129001
0.00155826
0.001867028
0.00223685
0.002719883
0.003644486
0.004077811
0.00454291
0.005029955
0.005536253
0.006065513
0.006607604
0.007146862
0.007669738
0.008162558
0.00861784
0.009058954
0.009535073
0.009975618
0.01
0.01
0.01
0.01
0.01
0.01
0.01
0.01
0.01
0.01
0.01
0.01
0.01
0.01
0.01
0.01
0.01
0.009802064
0.009353708
0.008906058
0.008475809
0.008058468
0.007690934
0.007426089
0.007160284
0.006982122
0.006872414
0.006830798
0.006855745
0.006954187
0.007131543
0.00740088
0.007779104
0.008295216
0.008925472
0.009671517
0.01
0.01
0.01
0.01
0.01
0.01
0.01
0.01
0.01
0.01
0.01
0.01
0.01
0.01
0.01
0.01
0.01
0.01
0.01
0.01
0.01
0.01
0.01
0.01
0.01
0.01
0.01
0.01
0.01
0.01
0.01
0.01
0.01
0.01
0.01
0.01
0.01
0.01
0.01
0.01
0.01
0.01
0.01
0.01
0.01
0.01
0.01
0.01
0.01
0.01
0.01
0.01
0.01
0.01
0.01
0.01
0.01
0.01
0.01
0.01
0.01
0.01
0.01
0.01
0.01
0.01000002
0.01000018
0.01000121
0.01000412
0.01000269
0.01000069
0.01000006
0.01
0.01
0.01
0.01000003
0.01000031
0.01000165
0.01000171
0.01000065
0.01000007
0.01
0.01
0.01000001
0.01000002
0.01000001
0.01
0.01
0.01
0.01
0.01
0.01
0.01
0.01
0.01
0.01
0.01
0.01
0.01
0.01
0.01
0.01
0.01
0.01000001
0.01000002
0.01000003
0.01000008
0.01000069
0.0100068
0.0100761
0.0101106
0.01005957
0.01000792
0.01000149
0.0100026
0.01002463
0.0100573
0.0100573
0.0100573
0.0100573
0.01004829
0.01001045
0.01000054
0.01000001
0.01000004
0.01000061
0.01000155
0.01000122
0.01000043
0.01000007
0.01000001
0.01
0.009931891
0.009590528
0.009240742
0.008886537
0.008534461
0.008194818
0.007878471
0.007595668
0.007355196
0.007163608
0.007024758
0.006940109
0.006909204
0.006930214
0.007000309
0.007115759
0.007271784
0.007462337
0.007680015
0.007916676
0.008169156
0.00842933
0.008689026
0.008940409
0.009178294
0.009398894
0.009599258
0.009777454
0.009932642
0.01
0.01
0.01
0.01
0.01
0.01
0.01
0.01
0.01
0.01
0.01
0.009924011
0.009766981
0.00958486
0.009376724
0.009141436
0.008877171
0.008581333
0.008253495
0.007893514
0.007503649
0.007089564
0.006657023
0.006209815
0.005752698
0.00529344
0.004840739
0.004404649
0.003996923
0.003628593
0.003307599
0.003038192
0.002821375
0.002656689
0.002543001
0.002476649
0.002452471
0.002465443
0.002177445
0.001956488
0.001862031
0.001889541
0.002025626
0.002252564
0.00254578
0.002872258
0.003194897
0.003492982
0.00377477
0.004059521
0.004368301
0.004632573
0.004793154
0.004943202
0.005088684
0.005234654
0.00538402
0.005538103
0.005700102
0.005871155
0.006050523
0.006236349
0.006426151
0.006617004
0.006805635
0.006989389
0.007167362
0.007339429
0.007473068
0.007560481
0.007666946
0.007788432
0.00792415
0.008074266
0.008238759
0.008417125
0.008608373
0.008811398
0.009025714
0.009247983
0.009458454
0.00958107
0.009690844
0.009787451
0.009870679
0.009942723
0.01
0.01
0.01
0.01
0.01
0.01
0.01
0.01
0.01
0.01
0.01
0.01
0.01
0.01
0.01
0.009888498
0.009821364
0.009816262
0.009865975
0.00994965
0.01
0.01
0.01
0.01
0.01
0.01
0.01
0.01
0.01
0.009955539
0.00982742
0.009695552
0.00956142
0.009426139
0.009290859
0.009157034
0.009025885
0.008898433
0.008775567
0.008658005
0.008546292
0.008440808
0.008341788
0.008249335
0.008163441
0.008083997
0.008010823
0.007943678
0.007882279
0.007826312
0.007775447
0.007729351
0.007687695
0.007650157
0.00761643
0.00758622
0.007559249
0.007535252
0.007513977
0.007495182
0.007478632
0.007464096
0.007451349
0.007440172
0.007430346
0.007421656
0.007413893
0.007406848
0.007400317
0.0073941
0.007388
0.007381825
0.007375389
0.007368509
0.007361007
0.007352709
0.007343448
0.00733306
0.007321389
0.007308289
0.007293632
0.007277308
0.007259234
0.007239343
0.007217587
0.007193938
0.007168388
0.00714095
0.007111648
0.007080539
0.007047719
0.007013304
0.006977431
0.006940254
0.006901949
0.006862707
0.006822736
0.006782256
0.006741496
0.006700693
0.00666009
0.006619929
0.006580454
0.0065419
0.006504497
0.006468464
0.006434008