/*--------------------------------*- C++ -*----------------------------------*\
| =========                 |                                                 |
| \\      /  F ield         | foam-extend: Open Source CFD                    |
|  \\    /   O peration     | Version:     3.1                                |
|   \\  /    A nd           | Web:         http://www.extend-project.de       |
|    \\/     M anipulation  |                                                 |
\*---------------------------------------------------------------------------*/
FoamFile
{
    version     2.0;
    format      ascii;
    class       volScalarField;
    location    "9";
    object      p;
}
// * * * * * * * * * * * * * * * * * * * * * * * * * * * * * * * * * * * * * //

dimensions      [1 -1 -2 0 0 0 0];

internalField   nonuniform List<scalar> 
119952
(
6640.398
6488.442
6522.056
6486.009
6412.647
6391.607
6357.752
6340.458
6346.234
6377.494
6420.82
6476.505
6550.311
6628.826
6699.848
6826.976
6845.53
6940.687
6969.113
7068.47
7068.215
7092.642
7140.239
7159.628
7173.064
7193.345
7207.804
7215.804
7249.028
8039.803
5168.705
5113.312
5110.863
5127.713
5001.958
5044.725
5000.468
4969.215
4728.991
4590.142
4890.466
4868.672
4914.816
4960.466
5030.583
5103.593
5192.448
5293.81
5570.13
5667.87
5722.691
5800.543
5882.521
5968.309
6033.116
6129.098
6154.12
6208.042
6245.35
6306.488
6355.044
6389.458
6410.756
6422.755
6418.064
6397.284
6380.554
6369.217
6348.979
6296.016
6237.856
6191.478
6140.428
6101.363
6072.737
6061.46
6067.347
6096.033
6146.525
6212.46
6287.741
6368.934
6449.821
6529.437
6600.137
6667.408
6718.573
6769.2
6807.266
6838.904
6866.772
6890.082
6907.659
6920.803
6928
6937.278
6926.027
6881.752
6872.647
6854.401
6838.691
6833.36
6806.95
6742.389
6623.091
6471.841
6326.314
6182.672
6049.841
5938.301
5847.15
5769.291
5710.979
5669.651
5640.225
5626.958
5627.305
5644.997
5675.421
5709.459
5763.749
5825.627
5900.428
5987.675
6098.805
6234.756
6370.853
6509.161
6645.062
6781.197
6900.968
7006.502
7069.622
7120.077
7149.395
7148.606
7131.803
7105.082
7079.092
7038.694
7011.322
6990.351
6971.174
6956.369
6946.609
6939.229
6916.929
6909.103
6880.668
6887.962
6909.641
6916.045
6932.176
6952.978
6969.363
6987.773
6984.201
7000.32
7011.666
7022.648
7031.073
7038.432
7044.421
7046.505
7045.61
7035.676
7024.903
7015.693
7007.252
6991.993
6967.276
6945.357
6925.327
6912.918
6903.489
6890.171
6872.381
6859.652
6858.474
6862.827
6870.161
6881.306
6897.047
6916.257
6936.599
6955.143
6982.761
7007.704
7034.561
7059.867
7085.524
7110.245
7134.522
7148.49
7182.408
7234.387
7267.176
7320.596
7344.202
7356.318
7368.538
7376.888
7378.407
7392.029
7397.168
7407.117
7416.847
7427.977
7443.193
7455.421
7476.11
7489.426
7501.768
7515.824
7533.8
7555.029
7597.668
7602.437
7617.498
7636.703
7670.494
7679.408
7689.836
7704.254
7717.998
7730.755
7742.463
7753.404
7764.334
7775.353
7784.49
7793.654
7799.164
7806.073
7813.794
7820.19
7827.175
7832.321
7838.401
7845.042
7851.627
7858.191
7864.176
7869.655
7876.411
7882.58
7884.864
7882.245
7893.604
7915.239
7921.327
7921.357
7947.313
7957.262
7962.183
7985.712
7992.053
7989.219
8000.853
8005.933
8010.001
8013.332
8017.438
8022.472
8020.49
8024.284
8005.514
7932.634
7925.525
7940.836
7968.473
7991.546
8007.142
8014.431
8011.174
8011.058
7999.476
7984.296
7941.39
7916.933
7928.379
7963.796
8000.292
8036.026
8031.663
8039.175
8036.519
8030.278
8024.012
8015.403
8006.366
7994.384
7977.576
7956.888
7939.096
7953.164
7978.908
7994.374
8000.251
8002.33
7997.919
7983.847
7977.935
7968.587
7961.192
7952.636
7943.837
7934.768
7926.528
7918.318
7911.512
7904.22
7892.831
7871.055
7848.031
7821.654
7821.92
7845.716
7859.057
7867.714
7869.075
7847.386
7853.775
7857.103
7858.177
7852.678
7834.647
7831.967
7820.465
7796.711
7745.246
7708.454
7745.046
7776.993
7809.016
7825.301
7836.712
7833.562
7823.702
7816.357
7808.608
7801.034
7797.45
7800.686
7802.306
7797.588
7759.376
7681.426
7671.09
7716.493
7748.572
7766.701
7776.611
7782.766
7787.379
7788.989
7785.987
7781.496
7775.241
7769.117
7762.77
7759.031
7757.364
7758.552
7761.808
7763.276
7761.477
7756.021
7743.192
7740.783
7774.284
7793.317
7798.417
7802.79
7802.631
7800.733
7799.636
7798.804
7798.409
7803.472
7789.991
7796.209
7795.068
7792.619
7791.933
7792.004
7792.072
7792.152
7792.197
7790.469
7789.162
7789.807
7791.686
7792.968
7794.341
7795.684
7797.157
7799.118
7800.827
7802.279
7804.838
7808.727
7809.959
7800.547
7779.51
7764.82
5453.321
5500.641
5650.146
5649.398
5693.694
5716.728
5738.249
5756.895
5800.995
5781.563
5699.579
5664.378
5592.801
5532.781
5455.868
5378.557
5301.843
5216.991
5074.251
4989.537
4906.071
4856.467
4824.405
4848.526
4874.103
4901.091
4921.962
4928.678
4935.748
4936.863
4927.313
4913.985
4893.119
4868.739
4856.759
4860.16
4884.313
4893
4868.555
4838.799
4820.288
4786.647
4738.249
4655.441
4579.194
4562.837
4554.309
4545.908
4563.673
4600.789
4661.871
4744.537
4838.655
4941.7
5070.544
5236.425
5305.934
5406.682
5504.155
5598.204
5678.869
5751.016
5813.123
5864.541
5915.301
5964.327
6007.62
6049.012
6086.319
6115.307
6134.267
6141.521
6133.435
6107.836
6067.89
6019.337
5966.105
5914.174
5860.96
5808.194
5760.688
5725.471
5712.411
5724.983
5760.892
5818.981
5895.128
5977.398
6063.961
6149.031
6231.263
6305
6369.734
6425.295
6473.563
6514.204
6546.426
6569.564
6588.471
6606.81
6619.3
6621.438
6616.527
6602.528
6582.365
6563.865
6546.794
6536.266
6530.095
6472.789
6361.686
6208.796
6052.781
5909.611
5784.148
5671.567
5571.853
5486.979
5416.805
5362.361
5324.08
5301.953
5293.851
5296.135
5312.527
5346.983
5392.921
5447.251
5508.783
5582.669
5672.903
5782.562
5909.1
6046.247
6190.093
6333.058
6466.473
6592.945
6693.465
6767.704
6813.904
6834.438
6831.082
6809.117
6778.598
6745.004
6713.419
6686.765
6665.432
6648.74
6634.753
6621.696
6611.76
6601.395
6592.369
6586.808
6591.182
6603.481
6618.188
6633.895
6647.987
6660.911
6672.045
6682.563
6693.668
6702.628
6710.201
6718.748
6727.274
6741.642
6754.827
6752.303
6730.067
6710.256
6707.456
6699.766
6677.87
6643.875
6618.026
6605.344
6598.411
6593.036
6573.42
6548.361
6543.516
6545.827
6553.121
6561.512
6573.152
6588.337
6609.143
6630.943
6653.162
6679.233
6706.886
6734.415
6759.808
6787.095
6808.111
6840.9
6844.386
6883.042
6947.158
6961.618
7058.415
7066.438
7075.912
7092.703
7100.36
7107.659
7113.869
7121.093
7131.217
7141.747
7153.951
7168.65
7182.578
7198.697
7211.346
7226.535
7243.609
7266.647
7293.842
7308.962
7326.657
7344.981
7365.629
7386.422
7402.192
7416.648
7431.092
7444.59
7457.286
7469.04
7480.217
7490.643
7500.492
7509.43
7517.23
7524.429
7530.733
7536.847
7544.815
7550.821
7556.496
7563.266
7569.947
7576.39
7582.656
7588.798
7594.759
7600.637
7605.131
7606.902
7607.277
7614.027
7630.636
7634.076
7653.196
7674.54
7690.563
7700.498
7708.819
7716.401
7720.334
7725.886
7730.75
7734.676
7739.306
7745.505
7748.34
7750.359
7746.905
7726.083
7595.885
7593.809
7635.187
7669.219
7691.015
7702.831
7707.017
7708.145
7707.19
7691.73
7667.154
7635.013
7615.915
7633.376
7669.569
7702.035
7724.538
7732.358
7732.077
7724.902
7718.076
7711.683
7704.125
7695.5
7684.144
7669.457
7653.789
7645.46
7654.651
7675.414
7687.564
7689.791
7686.823
7679.072
7669.977
7665.522
7660.279
7651.446
7641.472
7633.056
7625.736
7616.84
7607.176
7601.605
7598.204
7587.008
7562.952
7535.478
7510.85
7520.094
7543.176
7554.877
7556.723
7554.829
7552.132
7547.85
7545.02
7545.886
7540.698
7529.819
7518.652
7503.372
7477.927
7438.132
7422.477
7446.703
7475.76
7497.565
7509.726
7515.17
7515.166
7509.609
7503.058
7497.99
7495.673
7494.759
7494.804
7491.137
7475.641
7443.143
7400.879
7390.73
7417.934
7438.844
7451.455
7461.501
7464.537
7472.547
7478.288
7477.503
7474.209
7470.842
7464.873
7459.343
7455.796
7454.534
7454.811
7455.788
7456.364
7456.312
7455.175
7454.327
7455.127
7465.407
7481.028
7487.798
7489.064
7489.161
7489.362
7490.211
7490.463
7490.099
7489.426
7488.286
7487.417
7486.68
7485.856
7485.111
7484.541
7484.106
7483.875
7483.852
7483.898
7484.132
7484.563
7485.362
7486.372
7487.285
7488.397
7489.672
7491.216
7492.755
7494.225
7495.279
7495.329
7492.94
7487.509
7479.255
7474.159
3716.109
3805.129
3865.066
3899.246
4086.949
4169.037
4355.255
4470.707
4597.408
4597.586
4872.485
4960.226
5034.063
5135.745
5157.774
5180.18
5189.913
5170.687
5136.191
5054.535
5017.223
4977.105
4944.581
4921.598
4899.773
4896.584
4866.424
4841.452
4819.607
4803.393
4783.168
4770.688
4770.11
4790.644
4831.714
4884.317
4957.222
5056.271
5158.487
5250.549
5331.748
5391.169
5438.24
5457.244
5457.65
5450.598
5467.549
5460.397
5434.148
5387.295
5323.416
5252.502
5174.414
5093.419
5011.827
4917.173
4733.828
4633.095
4551.02
4492.731
4473.742
4513.631
4562.196
4598.024
4616.503
4624.841
4635.617
4629.25
4620.871
4607.346
4576.721
4544.762
4523.962
4527.892
4561.186
4598.531
4543.915
4460.917
4409.295
4347.407
4284.218
4223.275
4179.417
4159.54
4155.887
4170.128
4198.256
4246.661
4322.038
4421.076
4535.792
4660.315
4785.339
4902.316
5020.566
5136.57
5247.557
5347.622
5433.768
5503.415
5571.334
5630.317
5680.407
5727.961
5768.578
5811.025
5849.503
5880.036
5902.936
5914.202
5907.122
5881.176
5838.73
5786.898
5730.091
5671.541
5611.635
5549.559
5493.358
5452.967
5438.045
5448.569
5483.352
5542.54
5622.488
5709.766
5799.693
5888.402
5974.388
6054.014
6121.983
6180.558
6232.697
6276.465
6307.651
6327.27
6345.301
6364.947
6373.138
6372.308
6366.017
6354.025
6332.885
6311.611
6292.62
6278.795
6266.791
6202.123
6065.386
5903.06
5751.397
5614.602
5493.132
5385.089
5289.04
5204.648
5134.055
5080.717
5044.01
5021.853
5014.895
5022.77
5051.888
5089.062
5128.376
5177.955
5236.293
5303.701
5385.862
5489.613
5610.942
5743.918
5888.808
6034.012
6171.993
6297.24
6402.387
6484.712
6540.341
6567.547
6567.302
6545.481
6515.18
6481.866
6451.032
6426.028
6405.117
6389.545
6378.508
6371.668
6366.843
6364.714
6357.384
6351.313
6349.272
6352.548
6361.475
6371.689
6383.836
6396.602
6407.607
6420.337
6434.758
6444.401
6454.656
6465.633
6476.247
6486.994
6497.97
6492.839
6471.759
6464.257
6464.868
6455.163
6427.285
6390.546
6367.977
6353.202
6343.612
6324.472
6312.9
6306.49
6295.175
6294.819
6301.592
6311.404
6328.677
6349.729
6369.892
6389.788
6411.184
6435.031
6462.277
6490.815
6513.898
6542.665
6559.984
6583.637
6623.525
6654.889
6684.97
6715.942
6737.451
6753.116
6776.119
6792.492
6796.427
6801.556
6808.529
6817.601
6827.669
6837.987
6849.464
6862.666
6876.928
6891.978
6907.54
6924.606
6943.168
6964.177
6986.135
7006.372
7024.472
7044.149
7063.624
7083.25
7099.813
7114.949
7129.182
7142.428
7154.912
7166.69
7177.612
7187.541
7196.509
7204.731
7211.991
7218.435
7222.936
7231.935
7241.997
7247.064
7252.146
7258.515
7265.063
7271.438
7277.464
7283.618
7289.957
7295.855
7300.688
7304.495
7308.344
7314.27
7324.422
7338.509
7354.588
7369.967
7382.99
7393.428
7401.284
7407.766
7413.273
7418.795
7423.528
7428.078
7432.836
7436.644
7441.294
7438.209
7432.05
7410.762
7376.302
7368.721
7396.543
7423.218
7441.721
7454.39
7459.51
7459.956
7456.544
7446.525
7429.943
7412.243
7400.379
7401.973
7416.674
7434.731
7449.442
7459.798
7468.73
7472.423
7471.806
7467.695
7460.976
7452.699
7444.383
7434.644
7422.942
7414.712
7414.427
7422.039
7428.788
7429.42
7429.05
7428.63
7425.074
7419.487
7412.422
7404.618
7396.868
7388.915
7380.926
7372.772
7364.604
7356.902
7348.168
7335.463
7318.505
7300.552
7289.851
7285.419
7294.077
7301.643
7303.845
7302.844
7301.702
7302.606
7304.156
7301.852
7292.631
7280.054
7266.297
7251.932
7234.37
7215.343
7208.916
7224.151
7244.112
7258.355
7264.754
7266.823
7265.944
7263.244
7260.416
7255.139
7248.596
7244.667
7244.318
7236.073
7220.021
7202.006
7179.481
7174.328
7192.108
7211.073
7217.291
7222.213
7224.865
7225.817
7226.027
7225.074
7220.547
7215.669
7213.081
7211.656
7210.812
7210.437
7210.989
7212.038
7212.848
7213.306
7213.273
7213.794
7217.072
7226.717
7236.549
7240.842
7241.912
7242.2
7243.57
7244.304
7243.485
7242.425
7241.393
7240.907
7240.535
7240.136
7239.619
7238.997
7238.428
7237.972
7237.605
7237.323
7237.138
7237.237
7237.721
7238.4
7239.281
7240.193
7241.242
7242.546
7243.806
7244.848
7245.745
7246.198
7245.893
7244.847
7242.305
7238.615
7236.165
3007.891
3005.57
2849.398
3085.995
3047.844
3077.933
3045.027
3087.656
3127.055
3131.399
3151.099
3194.146
3239.434
3342.446
3463.484
3585.792
3711.256
3858.153
4005.141
4166.571
4342.436
4488.324
4568.062
4677.227
4786.069
4852.926
4899.51
4916.863
4921.757
4895.413
4860.154
4730.146
4695.615
4657.154
4622.399
4599.538
4578.639
4559.259
4538.035
4508.514
4480.603
4462.864
4445.116
4430.883
4439.421
4473.27
4522.731
4551.372
4626.206
4739.52
4847.616
4957.346
5051.709
5125.938
5175.314
5198.692
5198.293
5184.059
5178.156
5164.657
5128.015
5072.032
5003.998
4927.816
4846.596
4759.855
4671.247
4575.606
4463.57
4349.576
4258.816
4191.317
4192.587
4246.348
4298.355
4340.45
4368.541
4389.762
4402.113
4398.767
4387.645
4373.398
4337.977
4289.51
4260.156
4265.332
4299.429
4307.491
4241.128
4164.858
4094.581
4011.774
3936.68
3894.233
3866.229
3848.867
3847.597
3862.924
3890.402
3936.788
4014.909
4122.684
4245.108
4372.105
4505.228
4641.304
4770.727
4890.065
5003.922
5106.308
5196.336
5275.192
5331.341
5382.849
5428.243
5470.257
5519.049
5566.424
5609.519
5643.946
5668.634
5679.972
5671.867
5644.341
5602.692
5549.94
5489.506
5425.04
5357.413
5288.106
5222.832
5173.79
5148.539
5157.292
5194.623
5257.764
5342.876
5435.844
5528.638
5619.475
5708.672
5792.382
5864.065
5925.322
5980.111
6025.313
6060.023
6084.569
6101.152
6124.187
6139.189
6135.85
6123.328
6105.823
6082.691
6055.443
6028.527
6002.903
5980.885
5914.213
5778.246
5612.222
5460.729
5323.488
5202.568
5097.177
5000.149
4914.335
4843.048
4788.865
4754.635
4737.227
4735.081
4746.714
4768.357
4805.341
4852.473
4907.705
4966.368
5025.571
5101.932
5194.966
5305.244
5431.922
5571.604
5720.051
5861.798
5987.867
6094.391
6179.964
6238.808
6268.639
6269.964
6249.394
6220.641
6191.797
6166.211
6145.493
6127.867
6116.751
6110.894
6105.389
6095.961
6091.662
6089.943
6089.871
6092.464
6097.856
6107.913
6121.154
6133.348
6143.342
6149.258
6159.864
6172.102
6181.365
6192.147
6201.962
6208.986
6216.938
6221.773
6216.506
6204.25
6195.288
6194.446
6187.97
6163.209
6129.064
6109.082
6094.373
6074.472
6050.377
6048.422
6057.799
6052.785
6045.905
6050.678
6060.515
6074.558
6090.987
6110.732
6121.22
6151.502
6195.092
6214.314
6238.896
6272.63
6310.386
6342.473
6371.822
6411.787
6423.902
6438.075
6476.059
6487.133
6494.679
6523.053
6541.342
6554.381
6563.063
6566.097
6571.278
6579.01
6588.787
6600.247
6613.218
6627.366
6642.7
6658.974
6676.277
6695.25
6715.6
6736.8
6756.7
6776.763
6796.616
6817.02
6836.749
6852.655
6868.326
6883.549
6897.875
6910.825
6922.682
6933.443
6943.356
6952.476
6960.998
6969.374
6977.06
6983.549
6988.879
6994.136
7000.301
7006.847
7013.461
7020.243
7026.979
7033.39
7039.477
7045.038
7050.379
7055.951
7061.443
7066.836
7073.337
7082.226
7094.12
7107.585
7120.663
7132.509
7142.939
7152.009
7160.079
7166.998
7172.95
7177.948
7182.208
7186.161
7189.651
7192.119
7192.669
7187.895
7171.535
7155.616
7151.423
7166.407
7184.111
7196.188
7204.411
7208.799
7209.478
7207.791
7202.295
7192.358
7182.127
7174.114
7174.245
7185.244
7198.72
7211.512
7221.86
7228.264
7229.088
7225.311
7219.073
7212.222
7204.871
7197.713
7190.364
7182.678
7176.88
7176.357
7181.303
7185.719
7186.264
7183.849
7180.357
7174.924
7168.409
7162.221
7156.213
7148.821
7140.839
7133.048
7125.192
7117.143
7109.1
7100.208
7090.483
7078.296
7064.91
7056.654
7053.447
7056.512
7060.482
7060.897
7059.772
7059.404
7057.045
7051.1
7043.779
7038.012
7030.938
7021.904
7012.951
7002.537
6990.89
6981.253
6984.899
6994.815
7003.139
7006.765
7008.495
7008.983
7009.069
7012.786
7009.68
7000.304
6991.174
6986.635
6984.561
6980.629
6968.999
6954.939
6947.995
6952.897
6965.136
6968.19
6970.422
6972.733
6972.896
6974.622
6977.504
6974.987
6971.169
6969.053
6968.356
6967.673
6967.552
6967.95
6968.563
6969.272
6969.99
6970.886
6972.264
6975.188
6980.107
6985.84
6990.13
6992.224
6993.936
6995.114
6994.892
6994.269
6993.961
6994.371
6994.49
6994.314
6993.926
6993.381
6992.837
6992.351
6991.922
6991.618
6991.467
6991.479
6991.66
6992.057
6992.615
6993.345
6994.11
6994.937
6995.794
6996.647
6997.393
6998.043
6998.405
6998.323
6997.881
6996.833
6995.174
6994.725
2985.426
2999.034
3038.901
2946.12
2928.454
2860.836
2837.739
2812.008
2802.988
2789.243
2772.935
2748.488
2724.575
2711.271
2735.071
2732.184
2714.126
2723.323
2741.211
2751.72
2755.707
2782.559
2837.191
2916.988
3021.717
3142.63
3258.421
3371.472
3529.884
3681.104
3834.612
4009.806
4152.666
4257.637
4367.031
4463.365
4538.929
4586.578
4595.689
4582.522
4552.774
4506.621
4459.1
4411.129
4364.111
4326.588
4299.862
4284.592
4272.902
4253.064
4226.932
4208.239
4194.209
4181.836
4169.126
4169.488
4195.212
4234.401
4281.643
4356.826
4449.5
4570.723
4718.169
4837.735
4931.883
4991.415
5018.136
5020.937
5009.904
4986.63
4948.703
4894.816
4829.108
4751.921
4666.102
4573.584
4481.11
4386.611
4286.252
4178.954
4069.377
3979.406
3926.544
3942.561
3996.781
4045.589
4085.099
4114.193
4137.522
4157.557
4170.497
4169.887
4157.184
4122.023
4073.572
4042.012
4031.497
4040.044
4013.153
3933.567
3846.807
3761.468
3676.059
3624.314
3592.951
3563.736
3548.543
3551.675
3566.003
3595.203
3643.755
3718.096
3826.948
3955.312
4088.97
4227.406
4367.194
4501.917
4631.292
4753.325
4866.421
4966.369
5053.769
5110.699
5154.121
5192.13
5222.962
5270.21
5321.798
5366.579
5401.253
5424.656
5435.864
5428.698
5401.919
5361.566
5310.685
5249.007
5181.216
5110.707
5038.427
4969.607
4915.118
4886.586
4892.957
4932.439
4995.227
5080.672
5178.047
5271.831
5358.006
5441.219
5523.415
5596.634
5657.982
5714.821
5765.307
5799.894
5825.529
5853.44
5876.293
5884.579
5875.311
5865.34
5855.675
5829.261
5792.68
5757.269
5720.103
5684.331
5620.966
5493.464
5331.703
5173.864
5035.92
4916.347
4807.358
4709.332
4622.339
4551.181
4496.948
4463.257
4449.909
4456.613
4476.339
4492.794
4535.218
4592.721
4645.767
4705.488
4763.613
4829.808
4910.88
5010.232
5122.883
5253.141
5398.387
5541.712
5668.506
5772.933
5856.43
5913.791
5943.242
5945.225
5927.488
5905.487
5889.465
5879.221
5871.849
5868.095
5865.217
5860.908
5853.928
5851.377
5848.699
5847.847
5849.586
5851.928
5857.581
5866.511
5875.836
5883.691
5890.014
5895.267
5899.776
5905.281
5915.803
5921.938
5927.085
5931.03
5937.536
5941.789
5939.828
5935.285
5930.861
5924.848
5918.888
5904.867
5879.512
5855.653
5834.8
5827.733
5838.702
5807.09
5774.721
5786.613
5803.384
5808.688
5815.2
5827.121
5844.607
5861.839
5888.454
5916.881
5943.613
5980.105
6012.986
6042.13
6073.522
6116.903
6141.408
6158.395
6176.256
6198.898
6225.64
6240.172
6256.753
6272.642
6282.112
6294.987
6306.781
6317.558
6328.602
6337.999
6343.57
6352.237
6364.635
6378.078
6392.823
6409.039
6426.578
6445.727
6466.133
6487.813
6508.806
6529.991
6549.511
6572.779
6591.743
6605.442
6620.753
6637.398
6653.09
6667.476
6679.885
6689.978
6699.228
6707.914
6716.721
6724.638
6732.725
6740.759
6743.787
6745.609
6753.118
6761.75
6769.061
6775.642
6781.923
6788.039
6794.013
6799.686
6805.578
6811.71
6818.131
6824.627
6831.808
6840.745
6851.978
6864.673
6877.169
6888.147
6897.796
6906.398
6914.032
6920.476
6926.15
6931.445
6935.886
6939.463
6942.865
6945.003
6944.584
6941.711
6933.961
6925.354
6922.382
6930.559
6941.747
6950.545
6956.957
6961.505
6962.836
6961.629
6957.522
6952.087
6946.638
6942.371
6943.067
6949.064
6955.881
6961.228
6965.511
6969.656
6972.887
6971.745
6968.771
6964.117
6958.819
6953.577
6948.272
6942.427
6937.532
6935.276
6935.704
6936.448
6935.156
6932.333
6928.995
6925.105
6920.649
6915.299
6908.769
6901.657
6894.351
6886.912
6879.469
6871.873
6863.9
6855.558
6846.669
6836.655
6826.402
6818.625
6815.107
6815.057
6814.754
6812.905
6810.421
6807.742
6805.3
6801.65
6794.601
6789.653
6783.828
6775.872
6766.519
6757.494
6749.957
6744.443
6745.235
6751.064
6756.759
6759.418
6761.199
6764.572
6767.359
6765.428
6757.721
6748.29
6743.997
6742.17
6739.217
6734.103
6726.207
6716.514
6710.963
6711.878
6719.036
6722.266
6726.624
6729.733
6729.416
6729.347
6729.967
6728.422
6725.985
6723.487
6722.29
6722.387
6722.585
6723.16
6724.175
6725.261
6726.293
6727.444
6728.958
6731.032
6734.397
6739.612
6744.044
6745.775
6746.841
6747.601
6747.633
6747.622
6748.739
6749.438
6749.111
6748.253
6747.49
6746.977
6746.561
6746.147
6745.751
6745.506
6745.434
6745.487
6745.563
6745.764
6746.11
6746.599
6747.198
6747.894
6748.511
6749.129
6749.762
6750.336
6750.801
6751.136
6751.342
6751.37
6751.204
6751.909
2472.683
2502.015
2578.257
2547.175
2588.249
2621.112
2664.71
2715.798
2757.665
2776.003
2757.076
2736.925
2709.999
2681.428
2655.969
2544.269
2547.018
2490.311
2446.625
2394.957
2362.919
2338.047
2321.224
2311.069
2364.549
2454.105
2433.496
2410.856
2500.133
2529.132
2511.352
2523.586
2575.277
2647.844
2738.456
2865.594
2972.61
3066.518
3216.014
3370.536
3516.292
3676.375
3820.29
3938.09
4048.965
4147.351
4226.832
4278.813
4289.978
4274.879
4236.725
4182.397
4120.829
4063.989
4022.279
3991.582
3974.483
3964.516
3955.039
3941.194
3920.137
3893.149
3891.041
3904.297
3896.052
3885.662
3911.932
3971.94
4038.933
4100.105
4213.621
4371.003
4496.966
4611.034
4745.933
4822.571
4850.654
4856.046
4838.171
4798.174
4738.41
4667.605
4587.393
4501.099
4404.885
4302.287
4204.287
4101.442
3994.131
3886.509
3780.472
3686.993
3649.271
3686.36
3745.836
3793.979
3828.484
3858.277
3892.174
3927.378
3949.281
3957.493
3952.749
3932.768
3901.236
3869.19
3836.942
3808.866
3745.478
3638.869
3531.226
3439.937
3369.474
3331.97
3296.331
3263.698
3247.033
3249.625
3264.658
3293.459
3338.489
3411.418
3522.919
3657.512
3797.991
3943.189
4086.99
4226.49
4362.557
4491.623
4611.185
4720.389
4813.581
4886.556
4936.634
4971.007
4995.256
5026.331
5068.285
5108.991
5141.794
5163.227
5173.457
5169.087
5145.461
5107.427
5059.7
4999.489
4932.554
4863.848
4793.405
4728.51
4676.89
4646.266
4651.177
4688.986
4748.655
4830.43
4926.901
5020.085
5104.384
5178.132
5252.322
5321.998
5382.433
5435.723
5480.945
5515.702
5549.173
5581.506
5598.067
5603.317
5604.89
5602.883
5587.921
5555.047
5516.031
5475.645
5431.328
5382.035
5326.707
5216.528
5057.121
4899.078
4760.188
4637.563
4529.244
4428.541
4336.618
4260.726
4204.171
4168.829
4155.475
4161.071
4184.898
4218.393
4263.989
4323.16
4385.133
4450.154
4514.223
4578.848
4652.451
4737.052
4832.863
4945.138
5080.099
5219.742
5344.796
5443.948
5520.285
5570.668
5597.828
5602.066
5587.643
5573.978
5570.573
5575.56
5583.438
5587.685
5583.252
5590.187
5591.86
5591.214
5591.399
5593.537
5595.687
5597.554
5602.022
5609.201
5618.054
5625.588
5632.565
5640.448
5646.214
5649.188
5652.152
5649.568
5647.121
5648.65
5655.737
5662.426
5664.509
5660.552
5656.99
5655.152
5655.375
5647.98
5633.584
5623.684
5621.821
5614.835
5614.715
5576.654
5538.053
5536.021
5557.135
5577.026
5585.565
5592.683
5610.79
5644.067
5683.49
5697.014
5709.507
5749.846
5785.832
5809.238
5831.676
5859.077
5880.7
5899.585
5927.162
5962.041
5999.352
6033.445
6040.365
6041.208
6046.554
6050.37
6057.424
6070.278
6079.148
6086.483
6095.938
6107.652
6116.946
6128.358
6141.939
6157.78
6175.598
6195.213
6216.283
6238.138
6260.309
6282.516
6304.35
6327.261
6346.617
6360.092
6376.162
6391.97
6407.093
6422.266
6436.394
6446.652
6454.427
6461.064
6472.062
6483.514
6490.17
6494.378
6498.486
6502.778
6507.35
6514.25
6523.955
6532.957
6539.213
6544.565
6549.993
6555.865
6562.047
6568.347
6574.878
6581.842
6589.58
6598.31
6608.37
6619.569
6630.788
6640.967
6650.087
6658.584
6666.471
6673.371
6679.49
6685.107
6689.546
6693.289
6696.756
6698.542
6698.917
6697.986
6694.382
6689.481
6688.301
6693.694
6701.729
6708.215
6712.776
6716.117
6717.55
6717.213
6715.258
6712.592
6709.344
6706.647
6707.003
6710.695
6716.825
6720.958
6721.219
6721.141
6724.873
6726.098
6722.642
6718.493
6713.98
6709.262
6704.508
6699.604
6695.091
6692.042
6690.8
6690.621
6689.302
6686.492
6683.018
6678.754
6673.301
6667.211
6660.894
6654.363
6647.427
6640.058
6632.716
6625.5
6617.749
6609.558
6601.545
6593.206
6584.638
6577.91
6574.187
6572.157
6570.426
6567.907
6564.27
6560.552
6558.058
6554.331
6547.288
6540.869
6536.027
6529.93
6522.951
6515.852
6509.927
6506.697
6505.975
6507.906
6510.648
6512.649
6513.24
6514.745
6514.851
6511.559
6505.849
6499.626
6497.429
6494.847
6490.557
6486.258
6481.07
6475.826
6472.643
6472.56
6476.685
6479.258
6483.207
6485.052
6484.083
6483.325
6483.046
6482.068
6480.555
6478.858
6478.4
6478.904
6478.836
6478.969
6479.834
6481.109
6482.467
6483.666
6484.948
6486.567
6488.853
6491.919
6495.607
6498.688
6500.075
6500.739
6500.859
6500.617
6500.48
6500.788
6500.95
6500.853
6500.63
6500.438
6500.211
6499.84
6499.462
6499.195
6499.148
6499.094
6499.098
6499.21
6499.535
6500.024
6500.599
6501.148
6501.578
6501.926
6502.43
6502.924
6503.501
6504.082
6504.635
6505.255
6505.979
6507.096
2287.437
2254.628
2247.066
2233.835
2212.805
2201.025
2200.911
2218.522
2262.719
2316.786
2319.808
2374.955
2427.006
2456.165
2452.146
2429.595
2421.08
2416.746
2389.513
2347.535
2309.824
2263.395
2251.099
2174.049
2087.995
2033.276
2005.8
2001.762
2008.618
2023.671
2065.866
2122.589
2161.24
2224.436
2281.848
2264.513
2254.253
2300.379
2370.605
2456.482
2576.736
2681.741
2768.844
2895.854
3045.634
3183.892
3324.841
3465.842
3592.758
3700.919
3792.568
3869.033
3920.707
3935.255
3917.777
3870.351
3803.566
3733.898
3679.387
3638.078
3614.96
3605.458
3604.164
3603.702
3604.037
3598.031
3579.604
3575.78
3596.69
3617.726
3644.689
3682.862
3733.744
3803.168
3908.35
4021.164
4136.174
4286.165
4473.621
4608.603
4684.676
4711.245
4690.913
4660.144
4604.695
4527.447
4439.92
4344.814
4241.194
4127.197
4010.247
3899.998
3795.254
3693.996
3594.337
3496.238
3421.106
3402.739
3432.756
3495.003
3536.724
3567.799
3599.24
3638.921
3684.809
3726.474
3749.625
3757.856
3750.323
3731.31
3703.906
3656.889
3588.737
3492.023
3365.27
3244.838
3152.832
3096.071
3056.065
3008.702
2966.373
2942.424
2937.314
2953.274
2985.536
3038.444
3116.184
3228.386
3367.087
3511.969
3662.304
3811.168
3955.311
4092.765
4223.22
4344.554
4455.271
4554.328
4636.498
4696.646
4733.43
4755.824
4778.057
4808.852
4841.262
4869.245
4887.865
4895.795
4892.143
4872.527
4839.733
4795.692
4742.402
4682.503
4621.147
4560.379
4505.1
4461.419
4436.904
4442.085
4477.429
4530.246
4600.44
4684.183
4767.783
4842.277
4909.827
4976.341
5039.541
5093.383
5136.421
5178.684
5215.25
5251.544
5287.24
5299.982
5310.999
5319.071
5311.073
5294.722
5269.39
5228.234
5183.035
5137.901
5086.414
5020.245
4928.041
4796.487
4643.097
4504.187
4381.755
4266.298
4155.944
4057.227
3976.955
3919.831
3884.621
3871.609
3881.054
3902.983
3938.103
3989.204
4053.894
4122.541
4195.688
4269.587
4340.458
4411.554
4487.457
4569.679
4664.157
4785.144
4915.765
5034.243
5127.85
5197.005
5236.656
5258.792
5257.833
5243.457
5240.972
5256.536
5280.187
5301.143
5317.742
5329.615
5330.073
5333.32
5336.336
5339.246
5342.33
5345.914
5348.489
5353.486
5360.923
5368.851
5375.496
5381.412
5387.241
5391.075
5390.38
5385.615
5378.285
5371.827
5372.003
5377.04
5383.487
5386.354
5383.302
5381.559
5384.012
5388.357
5391.423
5394.16
5396.718
5395.581
5380.431
5362.06
5335.903
5314.861
5305.927
5313.027
5334.682
5351.092
5366.675
5387.568
5421.071
5444.959
5461.998
5482.81
5513.231
5542.392
5567.26
5590.992
5614.613
5642.925
5671.344
5697.821
5727.128
5754.23
5780.701
5795.127
5799.844
5808.053
5815.037
5820.366
5826.756
5829.52
5835.649
5844.583
5856.478
5869.779
5879.553
5891.448
5906.354
5923.883
5944.107
5966.211
5988.546
6011.496
6034.66
6057.709
6079.843
6100.292
6116.905
6132.225
6146.865
6161.247
6174.783
6189.007
6201.875
6210.386
6218.237
6226.67
6234.051
6242.504
6249.894
6254.63
6260.244
6267.351
6273.735
6279.4
6286.51
6293.283
6298.992
6304.629
6310.705
6317.402
6324.414
6331.456
6338.823
6346.852
6355.551
6364.91
6375.086
6385.593
6395.576
6404.63
6413.025
6420.791
6427.739
6433.834
6439.265
6443.861
6447.711
6450.923
6453.186
6454.329
6454.536
6453.324
6451.465
6451.525
6455.397
6460.942
6465.612
6469.097
6471.783
6473.478
6473.864
6473.224
6471.967
6470.202
6468.709
6468.646
6470.911
6474.448
6477.455
6477.828
6475.742
6475.907
6477.189
6475.875
6472.914
6469.005
6464.644
6460.296
6455.975
6451.88
6448.6
6446.382
6444.81
6442.353
6438.667
6434.566
6430.129
6424.984
6419.395
6413.557
6407.381
6400.685
6393.664
6386.588
6379.561
6372.322
6364.681
6357.063
6349.643
6342.375
6335.895
6331.58
6328.575
6325.708
6321.946
6317.82
6314.098
6309.929
6305.044
6299.551
6293.155
6288.87
6283.465
6277.385
6271.923
6268.173
6266.15
6265.047
6265.38
6266.505
6267.466
6267.08
6266.326
6264.964
6262.238
6258.231
6253.759
6250.481
6247.446
6243.775
6240.329
6236.672
6233.289
6231.212
6231.087
6233.255
6235.004
6236.803
6237.548
6237.305
6236.973
6236.708
6236.11
6235.295
6234.651
6234.814
6235.323
6235.033
6234.902
6235.716
6236.997
6238.397
6239.703
6241.066
6242.425
6244.325
6246.652
6249.364
6252.247
6254.249
6255.128
6255.433
6255.222
6254.236
6253.552
6253.643
6253.995
6254.115
6254.027
6253.831
6253.542
6253.285
6253.201
6252.915
6252.599
6252.452
6252.56
6252.886
6253.39
6253.83
6254.133
6254.403
6254.648
6255.091
6255.629
6256.237
6256.815
6257.408
6258.383
6259.722
6260.661
2044.924
2012.805
1931.384
1905.8
1869.795
1844.149
1842.05
1875.328
1943.702
2028.395
2105.533
2172.133
2222.281
2245.132
2233.802
2219.496
2203.695
2181.221
2149.527
2080.208
2031.644
1982.515
1926.794
1841.925
1753.516
1703.543
1694.334
1697.648
1715.294
1734.439
1765.727
1831.504
1979.338
1984.791
2020.203
2034.421
2026.279
2054.23
2113.483
2191.426
2286.615
2381.614
2475.39
2582.446
2709.651
2837.901
2955.519
3076.293
3194.591
3294.052
3376.009
3447.206
3490.849
3499.62
3469.617
3411.653
3328.751
3248.316
3190.55
3165.915
3166.45
3181.964
3196.475
3212.335
3226.934
3247.305
3279.372
3289.54
3306.295
3350.765
3408.682
3455.373
3473.074
3514.104
3617.344
3743.96
3900.756
4080.276
4238.224
4401.651
4530.131
4542.598
4521.801
4481.986
4413.913
4321.565
4212.529
4093.661
3965.829
3832.648
3698.063
3566.555
3455.951
3361.805
3272.062
3184.026