/*--------------------------------*- C++ -*----------------------------------*\
| =========                 |                                                 |
| \\      /  F ield         | foam-extend: Open Source CFD                    |
|  \\    /   O peration     | Version:     3.1                                |
|   \\  /    A nd           | Web:         http://www.extend-project.de       |
|    \\/     M anipulation  |                                                 |
\*---------------------------------------------------------------------------*/
FoamFile
{
    version     2.0;
    format      ascii;
    class       volScalarField;
    location    "9";
    object      pd;
}
// * * * * * * * * * * * * * * * * * * * * * * * * * * * * * * * * * * * * * //

dimensions      [1 -1 -2 0 0 0 0];

internalField   nonuniform List<scalar> 
119952
(
6671.093
6525.857
6558.85
6519.536
6443.359
6422.959
6389.717
6373.036
6379.425
6411.298
6455.237
6511.535
6585.954
6665.082
6736.717
6864.458
6883.626
6979.396
7008.435
7108.405
7103.503
7128.192
7176.047
7190.29
7203.726
7224.007
7238.466
7246.466
7279.723
8070.498
5459.191
5400.257
5394.539
5408.123
5279.099
5318.592
5271.076
5236.555
4992.676
4852.067
5166.372
5144.014
5189.168
5236.372
5306.377
5379.5
5468.354
5568.04
5843.629
5974.389
6029.239
6107.101
6188.936
6272.862
6338.042
6435.641
6460.674
6514.028
6550.71
6612.777
6661.469
6695.536
6717.202
6729.314
6724.625
6703.846
6687.115
6675.778
6655.539
6602.576
6544.333
6497.909
6446.858
6407.771
6379.066
6367.727
6373.59
6402.29
6452.764
6518.75
6594.065
6675.315
6756.245
6835.865
6906.523
6973.929
7025.106
7075.641
7113.781
7145.46
7173.334
7196.644
7214.222
7227.366
7234.563
7243.841
7232.589
7188.314
7179.209
7160.947
7145.091
7139.765
7113.496
7048.946
6929.652
6778.403
6632.876
6489.234
6356.403
6244.863
6153.712
6075.854
6017.541
5976.214
5946.788
5933.521
5933.865
5951.557
5981.983
6016.021
6070.308
6132.189
6206.99
6294.233
6405.368
6541.319
6677.413
6815.722
6951.623
7087.757
7207.528
7313.063
7376.181
7426.637
7455.952
7455.163
7438.358
7411.641
7385.654
7345.237
7317.848
7296.909
7277.731
7262.925
7253.17
7245.792
7223.48
7215.452
7186.762
7192.218
7212.255
7222.413
7238.696
7259.5
7275.904
7294.257
7290.733
7306.283
7316.224
7329.132
7337.635
7344.995
7350.983
7353.068
7352.173
7342.239
7331.466
7322.256
7313.814
7298.555
7273.839
7251.92
7231.89
7219.48
7210.052
7196.734
7178.943
7166.214
7165.036
7169.389
7176.724
7187.869
7203.609
7222.819
7243.161
7261.706
7289.324
7314.266
7341.124
7366.43
7392.087
7416.807
7441.085
7455.053
7488.971
7540.949
7573.739
7596.502
7620.108
7632.224
7644.444
7652.795
7654.314
7667.935
7673.074
7683.024
7692.753
7703.883
7719.099
7731.328
7752.016
7765.333
7777.675
7791.73
7809.706
7830.935
7873.575
7878.343
7893.404
7912.609
7946.4
7955.314
7965.743
7980.16
7993.905
8006.661
8018.369
8029.31
8040.24
8051.26
8060.396
8069.56
8075.07
8081.979
8089.7
8096.096
8103.081
8108.228
8114.308
8120.948
8127.534
8134.097
8140.082
8145.561
8152.317
8158.486
8160.77
8158.151
8169.51
8191.145
8197.233
8197.263
8223.219
8233.168
8238.089
8261.618
8267.959
8265.125
8276.759
8281.839
8285.907
8289.238
8293.345
8298.378
8296.396
8300.19
8281.421
8239.196
8232.087
8247.399
8275.036
8298.109
8313.704
8320.993
8317.737
8317.62
8306.039
8290.859
8247.953
8223.495
8234.942
8270.359
8306.855
8342.589
8338.225
8345.738
8343.081
8336.84
8330.575
8321.965
8312.929
8300.946
8284.139
8263.451
8245.659
8259.726
8285.471
8300.937
8306.813
8308.893
8304.481
8290.409
8284.498
8275.149
8267.755
8259.199
8250.4
8241.33
8233.091
8224.881
8218.074
8210.783
8199.393
8177.617
8154.594
8128.217
8128.483
8152.278
8165.62
8174.277
8175.637
8153.948
8160.337
8163.665
8164.74
8159.241
8141.209
8138.53
8127.027
8103.274
8051.808
8015.017
8051.608
8083.556
8115.578
8131.863
8143.275
8140.125
8130.265
8122.919
8115.17
8107.596
8104.013
8107.248
8108.869
8104.151
8065.938
7987.989
7977.652
8023.056
8055.135
8073.264
8083.173
8089.329
8093.942
8095.552
8092.549
8088.059
8081.803
8075.679
8069.332
8065.594
8063.927
8065.115
8068.37
8069.839
8068.039
8062.584
8049.754
8047.346
8080.846
8099.88
8104.979
8109.352
8109.193
8107.296
8106.198
8105.367
8104.972
8110.034
8096.554
8102.772
8101.631
8099.182
8098.495
8098.567
8098.635
8098.714
8098.76
8097.031
8095.724
8096.369
8098.248
8099.53
8100.904
8102.246
8103.719
8105.681
8107.389
8108.842
8111.401
8115.289
8116.522
8107.11
8086.073
8071.382
5987.163
6031.202
6177.44
6173.424
6214.453
6234.219
6252.473
6267.852
6308.847
6302.719
6220.736
6185.534
6113.957
6053.937
5977.025
5899.713
5822.999
5738.147
5626.064
5541.347
5457.882
5408.279
5376.217
5400.339
5425.916
5452.904
5473.775
5480.49
5487.56
5488.675
5479.125
5465.798
5444.93
5420.542
5408.487
5411.735
5435.847
5444.715
5420.363
5390.596
5372.083
5337.885
5289.827
5207.155
5130.67
5113.355
5104.815
5097.628
5115.475
5152.583
5212.333
5294.444
5389.885
5493.354
5622.157
5788.119
5918.855
6019.437
6116.754
6210.693
6291.52
6363.956
6426.144
6477.509
6527.964
6576.236
6617.973
6657.977
6695.284
6725.273
6746.207
6753.93
6745.622
6719.955
6680.045
6631.824
6578.751
6526.775
6472.431
6418.091
6370.012
6334.795
6321.735
6334.307
6370.696
6429.788
6505.282
6587.372
6673.167
6757.846
6840.025
6914.2
6980.223
7037.028
7085.822
7126.816
7159.37
7182.564
7201.377
7219.724
7232.321
7234.548
7229.651
7215.651
7195.479
7176.981
7159.909
7149.088
7142.765
7085.875
6974.81
6821.921
6665.905
6522.736
6397.273
6284.689
6184.971
6100.097
6029.923
5975.481
5937.2
5915.073
5906.973
5909.258
5925.651
5960.107
6006.044
6060.37
6121.894
6195.775
6286.003
6395.656
6522.193
6659.346
6803.197
6946.17
7079.59
7206.065
7306.585
7380.824
7427.025
7447.558
7444.199
7422.222
7391.632
7357.993
7326.408
7299.757
7278.446
7261.754
7247.767
7234.734
7224.851
7214.515
7205.494
7199.933
7204.307
7216.606
7231.312
7247.019
7261.111
7274.034
7285.162
7295.674
7306.777
7315.717
7323.125
7331.649
7340.174
7353.661
7366.892
7365.045
7343.148
7323.38
7320.581
7312.891
7290.995
7257.001
7231.151
7218.469
7211.536
7206.161
7186.545
7161.486
7156.641
7158.952
7166.246
7174.637
7186.277
7201.462
7222.268
7244.068
7266.287
7292.358
7320.011
7347.54
7372.933
7400.22
7421.236
7454.025
7457.511
7496.167
7560.283
7574.743
7610.227
7618.251
7627.725
7644.516
7652.173
7659.472
7665.681
7672.906
7683.03
7693.559
7705.763
7720.462
7734.39
7750.51
7763.159
7778.348
7795.421
7818.459
7845.654
7860.774
7878.47
7896.793
7917.442
7938.235
7954.004
7968.46
7982.905
7996.402
8009.098
8020.853
8032.029
8042.455
8052.304
8061.242
8069.043
8076.242
8082.546
8088.659
8096.628
8102.634
8108.309
8115.078
8121.76
8128.203
8134.468
8140.61
8146.571
8152.449
8156.943
8158.715
8159.089
8165.839
8182.448
8185.888
8205.009
8226.352
8242.376
8252.311
8260.631
8268.214
8272.146
8277.699
8282.563
8286.488
8291.118
8297.318
8300.153
8302.172
8298.717
8277.896
8209.01
8206.934
8248.312
8282.344
8304.14
8315.956
8320.142
8321.27
8320.315
8304.855
8280.279
8248.138
8229.04
8246.501
8282.694
8315.16
8337.663
8345.483
8345.202
8338.027
8331.201
8324.808
8317.251
8308.625
8297.269
8282.582
8266.914
8258.585
8267.776
8288.539
8300.689
8302.916
8299.948
8292.197
8283.102
8278.647
8273.404
8264.571
8254.597
8246.181
8238.861
8229.965
8220.301
8214.73
8211.329
8200.133
8176.077
8148.604
8123.975
8133.219
8156.301
8168.002
8169.848
8167.954
8165.258
8160.975
8158.145
8159.011
8153.823
8142.944
8131.777
8116.497
8091.052
8051.257
8035.602
8059.828
8088.885
8110.69
8122.851
8128.295
8128.291
8122.734
8116.183
8111.115
8108.798
8107.884
8107.929
8104.262
8088.766
8056.268
8014.004
8003.855
8031.059
8051.969
8064.58
8074.626
8077.662
8085.672
8091.413
8090.628
8087.334
8083.967
8077.998
8072.468
8068.921
8067.659
8067.936
8068.913
8069.49
8069.437
8068.3
8067.452
8068.252
8078.532
8094.153
8100.923
8102.189
8102.286
8102.487
8103.336
8103.588
8103.224
8102.551
8101.411
8100.542
8099.805
8098.981
8098.236
8097.666
8097.231
8097
8096.977
8097.023
8097.257
8097.688
8098.487
8099.497
8100.41
8101.522
8102.797
8104.341
8105.88
8107.35
8108.404
8108.454
8106.065
8100.634
8092.38
8087.284
4497.094
4582.574
4639.244
4670.156
4854.592
4933.408
5116.363
5228.548
5351.981
5350.01
5638.891
5726.632
5800.469
5902.151
5924.18
5946.587
5956.319
5937.093
5902.597
5851.597
5814.285
5774.167
5741.643
5718.661
5696.836
5693.646
5663.486
5638.515
5616.67
5600.455
5580.231
5567.75
5567.172
5587.706
5628.776
5681.38
5754.285
5853.333
5955.549
6047.611
6128.81
6188.231
6235.303
6254.307
6254.713
6247.661
6264.612
6257.459
6231.211
6184.358
6120.478
6049.564
5971.477
5890.481
5808.889
5714.231
5592.133
5491.382
5409.307
5351.039
5332.094
5372.003
5420.571
5456.399
5474.878
5483.216
5493.988
5487.583
5479.209
5465.583
5434.067
5400.48
5379.35
5384.761
5418.702
5456.754
5402.022
5318.684
5265.765
5204.232
5142.498
5081.618
5037.68
5017.654
5013.766
5027.556
5055.214
5103.436
5179.26
5278.778
5392.074
5513.703
5637.351
5754.158
5871.81
5987.219
6099.357
6201.537
6289.86
6360.802
6429.23
6488.36
6538.363
6585.871
6626.424
6668.64
6704.679
6732.475
6755.374
6767.067
6761.677
6733.966
6690.695
6638.787
6582.14
6524.986
6467.498
6406.042
6350.425
6310.119
6295.256
6305.643
6340.144
6397.446
6477.373
6565.787
6656.283
6744.069
6825.492
6902.045
6970.014
7031.333
7086.036
7132.396
7165.55
7185.442
7202.925
7222.305
7230.65
7230.413
7224.37
7212.399
7191.258
7169.973
7150.955
7136.165
7124.539
7060.423
6923.76
6761.435
6609.772
6472.977
6351.507
6243.463
6147.412
6063.018
5992.413
5939.06
5902.353
5880.196
5873.241
5881.133
5910.256
5947.435
5986.749
6036.327
6094.658
6162.041
6244.155
6347.878
6469.206
6602.183
6747.103
6892.35
7030.359
7155.614
7260.762
7343.087
7398.716
7425.921
7425.677
7403.856
7373.553
7340.235
7309.358
7283.933
7262.701
7247.129
7236.194
7229.665
7225.091
7223.063
7215.757
7209.688
7207.647
7210.923
7219.849
7230.055
7242.174
7254.884
7265.82
7278.537
7292.994
7302.732
7313.023
7324
7334.586
7345.21
7355.713
7348.115
7328.073
7321.926
7323.162
7313.537
7285.66
7248.921
7226.352
7211.577
7201.987
7182.847
7171.275
7164.865
7153.55
7153.194
7159.967
7169.779
7187.052
7208.104
7228.267
7248.163
7269.559
7293.406
7320.652
7349.19
7372.273
7401.04
7418.359
7442.012
7481.9
7513.264
7543.345
7574.317
7595.826
7611.491
7634.494
7650.867
7654.802
7659.931
7666.904
7675.976
7686.044
7696.361
7707.837
7721.036
7735.296
7750.347
7765.913
7782.981
7801.542
7822.552
7844.51
7864.747
7882.847
7902.524
7921.999
7941.625
7958.188
7973.324
7987.557
8000.803
8013.287
8025.065
8035.987
8045.916
8054.884
8063.106
8070.366
8076.81
8081.311
8090.31
8100.372
8105.439
8110.521
8116.89
8123.438
8129.813
8135.839
8141.993
8148.332
8154.23
8159.063
8162.87
8166.719
8172.645
8182.797
8196.884
8212.963
8228.342
8241.365
8251.803
8259.659
8266.141
8271.648
8277.17
8281.903
8286.453
8291.211
8295.019
8299.669
8296.584
8290.425
8269.137
8234.677
8227.096
8254.918
8281.593
8300.096
8312.765
8317.885
8318.331
8314.919
8304.9
8288.318
8270.618
8258.754
8260.348
8275.049
8293.106
8307.817
8318.173
8327.105
8330.798
8330.181
8326.07
8319.351
8311.074
8302.758
8293.019
8281.317
8273.087
8272.802
8280.414
8287.163
8287.795
8287.425
8287.005
8283.449
8277.862
8270.797
8262.993
8255.243
8247.29
8239.301
8231.147
8222.979
8215.277
8206.543
8193.838
8176.88
8158.927
8148.226
8143.794
8152.452
8160.018
8162.22
8161.219
8160.077
8160.981
8162.531
8160.227
8151.006
8138.429
8124.672
8110.307
8092.745
8073.718
8067.291
8082.526
8102.487
8116.73
8123.129
8125.198
8124.319
8121.619
8118.791
8113.514
8106.971
8103.042
8102.693
8094.448
8078.396
8060.381
8037.856
8032.703
8050.483
8069.448
8075.666
8080.588
8083.24
8084.192
8084.402
8083.449
8078.922
8074.044
8071.456
8070.031
8069.187
8068.812
8069.364
8070.413
8071.223
8071.681
8071.648
8072.169
8075.447
8085.092
8094.924
8099.217
8100.287
8100.575
8101.945
8102.679
8101.86
8100.8
8099.768
8099.282
8098.91
8098.511
8097.994
8097.372
8096.803
8096.347
8095.98
8095.698
8095.513
8095.612
8096.096
8096.775
8097.656
8098.568
8099.617
8100.921
8102.181
8103.223
8104.12
8104.573
8104.268
8103.222
8100.68
8096.99
8094.54
4025.095
4011.221
3851.574
4097.651
4059.5
4120.245
4087.34
4129.969
4169.367
4173.711
4193.411
4236.459
4281.746
4384.758
4505.797
4628.104
4753.569
4900.465
5047.453
5208.883
5384.749
5530.636
5610.374
5719.539
5828.382
5895.239
5941.822
5959.175
5964.069
5937.726
5902.467
5833.771
5799.24
5760.779
5726.024
5703.163
5682.264
5662.884
5641.66
5612.139
5584.228
5566.488
5548.741
5534.508
5543.046
5576.895
5626.356
5654.997
5729.831
5843.143
5951.24
6060.971
6155.334
6229.548
6278.851
6302.27
6301.916
6287.684
6281.781
6268.282
6231.638
6175.642
6107.535
6031.218
5949.931
5863.369
5774.84
5679.209
5567.088
5453.032
5362.377
5294.91
5296.2
5349.972
5401.98
5444.075
5472.166
5493.385
5505.697
5502.243
5490.844
5475.913
5440.1
5392.613
5363.333
5368.668
5402.752
5409.782
5341.578
5266.807
5197.687
5115.074
5040.172
4997.72
4968.872
4947.595
4937.795
4943.692
4968.473
5024.572
5114.774
5225.283
5348
5472.067
5599.672
5728.223
5848.897
5958.406
6068.288
6170.573
6263.588
6347.71
6412.418
6472.831
6525.603
6571.597
6622.113
6669.692
6712.224
6743.326
6764.705
6775.962
6767.856
6740.331
6701.401
6647.324
6584.992
6522.691
6458.333
6390.929
6326.231
6277.203
6251.876
6260.254
6296.056
6353.308
6432.532
6526.027
6622.01
6717.915
6811.064
6895.565
6967.036
7023.51
7068.472
7116.643
7158.574
7186.199
7204.212
7227.631
7242.315
7238.772
7226.563
7209.38
7186.309
7159.057
7132.084
7105.748
7083.681
7017.604
6881.864
6715.847
6564.354
6427.113
6306.193
6200.802
6103.774
6017.959
5946.67
5892.484
5858.248
5840.819
5838.656
5850.288
5871.933
5908.949
5956.091
6011.326
6069.986
6129.175
6205.515
6298.514
6408.751
6535.417
6675.137
6823.636
6965.411
7091.49
7198.016
7283.589
7342.433
7372.263
7373.589
7353.018
7324.266
7295.421
7269.834
7249.113
7231.456
7219.878
7209.913
7202.868
7195.669
7194.202
7193.48
7193.495
7196.089
7201.481
7211.536
7224.744
7236.532
7244.758
7249.772
7261.285
7275.122
7284.944
7295.772
7305.586
7312.61
7320.559
7325.288
7319.493
7303.664
7292.513
7294.36
7290.893
7266.799
7232.688
7212.707
7197.998
7178.096
7154.002
7152.047
7161.424
7156.41
7149.531
7154.303
7164.14
7178.183
7194.612
7214.356
7224.845
7255.127
7298.717
7317.939
7342.521
7376.255
7414.011
7446.098
7475.447
7515.412
7527.527
7541.7
7579.684
7590.758
7598.304
7626.678
7644.967
7658.006
7666.688
7669.722
7674.902
7682.635
7692.411
7703.868
7716.83
7730.942
7746.201
7762.448
7779.8
7798.833
7819.216
7840.425
7860.325
7880.388
7900.241
7920.645
7940.374
7956.28
7971.951
7987.174
8001.5
8014.45
8026.307
8037.068
8046.981
8056.101
8064.623
8072.999
8080.685
8087.174
8092.504
8097.761
8103.926
8110.472
8117.086
8123.868
8130.604
8137.015
8143.102
8148.663
8154.004
8159.576
8165.068
8170.461
8176.962
8185.851
8197.745
8211.21
8224.288
8236.134
8246.564
8255.634
8263.704
8270.623
8276.575
8281.573
8285.833
8289.786
8293.276
8295.744
8296.294
8291.52
8275.16
8259.241
8255.048
8270.032
8287.736
8299.813
8308.036
8312.424
8313.103
8311.416
8305.92
8295.983
8285.752
8277.739
8277.87
8288.869
8302.345
8315.137
8325.485
8331.889
8332.713
8328.936
8322.698
8315.847
8308.496
8301.338
8293.989
8286.303
8280.505
8279.982
8284.928
8289.344
8289.889
8287.474
8283.982
8278.549
8272.034
8265.846
8259.838
8252.446
8244.464
8236.673
8228.817
8220.768
8212.725
8203.833
8194.108
8181.921
8168.535
8160.279
8157.072
8160.137
8164.107
8164.522
8163.397
8163.029
8160.67
8154.725
8147.404
8141.637
8134.563
8125.529
8116.576
8106.162
8094.516
8084.878
8088.524
8098.44
8106.764
8110.39
8112.12
8112.608
8112.694
8116.411
8113.305
8103.929
8094.799
8090.26
8088.186
8084.254
8072.624
8058.564
8051.62
8056.522
8068.761
8071.815
8074.047
8076.358
8076.521
8078.247
8081.129
8078.612
8074.794
8072.678
8071.981
8071.298
8071.177
8071.575
8072.188
8072.897
8073.615
8074.511
8075.889
8078.813
8083.732
8089.465
8093.755
8095.849
8097.561
8098.739
8098.517
8097.894
8097.586
8097.996
8098.115
8097.939
8097.551
8097.006
8096.462
8095.976
8095.547
8095.243
8095.092
8095.104
8095.285
8095.682
8096.24
8096.97
8097.735
8098.562
8099.419
8100.272
8101.018
8101.668
8102.03
8101.948
8101.506
8100.458
8098.799
8098.35
4253.771
4255.661
4284.504
4203.027
4185.36
4148.399
4125.302
4099.571
4090.55
4076.805
4060.498
4036.05
4012.138
3998.833
4022.634
4019.746
4063.001
4072.198
4090.086
4100.595
4104.582
4131.434
4186.066
4265.863
4370.592
4491.505
4607.296
4720.347
4878.759
5029.979
5183.487
5358.681
5501.541
5606.512
5715.906
5812.24
5887.804
5935.453
5944.564
5931.397
5901.649
5855.496
5807.975
5760.004
5712.986
5675.463
5648.737
5633.467
5621.777
5601.939
5575.807
5557.114
5543.084
5530.71
5518
5518.362
5544.086
5583.275
5630.518
5705.701
5798.375
5919.598
6067.044
6186.61
6280.749
6340.118
6366.466
6369.55
6358.776
6335.505
6297.576
6243.68
6177.862
6099.981
6013.185
5921.225
5829.813
5735.461
5635.123
5527.824
5418.246
5328.265
5275.396
5291.433
5345.656
5394.464
5433.974
5463.068
5486.393
5506.374
5519.047
5517.652
5504.5
5470.188
5422.302
5390.749
5380.184
5387.481
5357.914
5278.046
5193.776
5110.191
5024.782
4972.951
4940.57
4906.557
4864.98
4815.008
4817.446
4846.646
4944.881
5061.949
5174.439
5303.675
5437.35
5574.854
5713.178
5845.291
5967.547
6071.66
6154.547
6227.531
6285.802
6335.175
6380.125
6439.037
6517.777
6605.985
6669.528
6715.222
6749.851
6772.474
6778.715
6768.241
6741.462
6703.122
6657.231
6595.629
6527.65
6457.805
6386.692
6318.388
6263.962
6235.415
6241.739
6281.04
6342.794
6421.419
6501.829
6593.489
6679.9
6772.718
6865.749
6944.658
7006.795
7063.672
7114.004
7142.484
7151.971
7183.036
7217.712
7232.389
7223.808
7213.586
7204.077
7177.969
7141.531
7106.085
7068.74
7032.423
6969.512
6842.307
6680.577
6522.739
6384.795
6265.222
6156.233
6058.207
5971.214
5900.056
5845.823
5812.13
5798.78
5805.481
5825.197
5841.635
5884.036
5941.55
5994.607
6054.346
6112.48
6178.678
6259.752
6359.102
6471.749
6602.01
6747.259
6890.584
7017.38
7121.807
7205.305
7262.664
7292.11
7294.095
7276.361
7254.361
7238.339
7228.096
7220.723
7216.966
7214.015
7208.219
7185.544
7173.91
7183.912
7194.173
7198.324
7200.802
7206.456
7215.382
7224.639
7231.321
7227.237
7229.733
7242.27
7253.29
7264.651
7270.813
7275.96
7279.905
7286.411
7290.661
7288.652
7283.216
7273.437
7263.945
7260.484
7251.811
7228.238
7204.524
7183.673
7176.604
7187.574
7155.964
7123.596
7135.488
7152.259
7157.563
7164.075
7175.996
7193.482
7210.714
7237.328
7265.756
7292.487
7328.979
7361.861
7391.005
7422.397
7465.778
7490.283
7507.27
7525.131
7547.773
7574.515
7589.047
7605.628
7621.517
7630.987
7643.862
7655.656
7666.433
7677.477
7686.874
7692.444
7701.111
7713.505
7726.926
7741.525
7757.056
7773.918
7793.326
7814.465
7836.584
7857.672
7878.865
7898.386
7921.654
7940.618
7954.317
7969.628
7986.273
8001.965
8016.351
8028.76
8038.853
8048.103
8056.789
8065.596
8073.513
8081.6
8089.634
8092.662
8094.484
8101.993
8110.625
8117.936
8124.517
8130.798
8136.914
8142.888
8148.561
8154.453
8160.585
8167.006
8173.502
8180.683
8189.62
8200.853
8213.548
8226.044
8237.022
8246.671
8255.273
8262.907
8269.351
8275.025
8280.32
8284.761
8288.338
8291.74
8293.878
8293.459
8290.586
8282.836
8274.229
8271.257
8279.434
8290.622
8299.42
8305.832
8310.38
8311.711
8310.504
8306.397
8300.962
8295.513
8291.246
8291.942
8297.939
8304.756
8310.103
8314.386
8318.531
8321.762
8320.62
8317.646
8312.992
8307.694
8302.452
8297.147
8291.302
8286.407
8284.151
8284.579
8285.323
8284.031
8281.208
8277.87
8273.98
8269.524
8264.174
8257.644
8250.532
8243.226
8235.787
8228.344
8220.748
8212.775
8204.433
8195.544
8185.53
8175.277
8167.5
8163.982
8163.932
8163.629
8161.78
8159.296
8156.617
8154.175
8150.525
8143.476
8138.528
8132.703
8124.747
8115.394
8106.369
8098.832
8093.318
8094.11
8099.939
8105.634
8108.293
8110.074
8113.447
8116.234
8114.303
8106.596
8097.165
8092.872
8091.045
8088.092
8082.978
8075.082
8065.389
8059.838
8060.753
8067.911
8071.141
8075.499
8078.608
8078.291
8078.222
8078.842
8077.297
8074.86
8072.362
8071.165
8071.262
8071.46
8072.035
8073.05
8074.136
8075.168
8076.319
8077.834
8079.907
8083.272
8088.487
8092.919
8094.65
8095.716
8096.476
8096.508
8096.497
8097.614
8098.313
8097.986
8097.128
8096.365
8095.852
8095.436
8095.022
8094.626
8094.381
8094.309
8094.362
8094.438
8094.639
8094.985
8095.474
8096.073
8096.769
8097.386
8098.004
8098.637
8099.211
8099.676
8100.011
8100.217
8100.245
8100.079
8100.784
3980.318
3998.101
4070.894
4049.332
4090.405
4153.925
4197.522
4248.611
4290.477
4308.816
4289.888
4269.737
4242.811
4214.24
4188.781
4138.394
4141.143
4084.436
4040.75
3989.082
3957.044
3932.172
3915.349
3905.194
3958.674
4048.23
4027.621
4004.981
4094.258
4123.257
4105.477
4117.711
4169.402
4241.969
4332.581
4459.719
4566.735
4660.643
4810.139
4964.661
5110.417
5270.5
5414.415
5532.215
5643.09
5741.476
5820.957
5872.938
5884.103
5869.004
5830.85
5776.522
5714.954
5658.114
5616.404
5585.707
5568.608
5558.641
5549.164
5535.319
5514.262
5487.274
5485.166
5498.421
5490.177
5479.787
5506.057
5566.065
5633.058
5694.23
5807.746
5965.128
6091.091
6205.159
6340.056
6416.62
6443.877
6449.07
6432.163
6392.295
6332.522
6261.678
6181.022
6092.22
5993.895
5893.037
5797.909
5695.507
5588.248
5480.629
5374.592
5281.109
5243.365
5280.444
5339.956
5388.103
5422.608
5452.399
5486.275
5521.379
5542.989
5550.436
5545.026
5526.21
5494.945
5463.153
5430.693
5400.381
5334.756
5228.693
5124.415
5033.868
4963.118
4923.856
4875.773
4791.141
4726.01
4728.603
4743.636
4781.787
4906.36
5001.344
5116.35
5251.506
5392.082
5537.293
5681.083
5820.552
5956.519
6085.26
6203.745
6308.815
6381.857
6370.935
6295.515
6319.632
6389.914
6555.013
6650.851
6701.735
6735.692
6757.141
6767.372
6762.146
6730.906
6692.072
6649.302
6592.901
6526.54
6457.806
6387.386
6322.567
6270.998
6240.372
6245.243
6282.917
6342.336
6423.737
6519.651
6607.401
6668.446
6735.109
6817.461
6907.249
6975.628
7029.827
7075.065
7109.818
7143.214
7173.747
7177.724
7183.549
7193.229
7195.868
7181.876
7149.017
7109.974
7069.622
7025.399
6975.986
6920.116
6810.398
6651.208
6493.199
6354.312
6231.688
6123.369
6022.666
5930.743
5854.851
5798.296
5762.954
5749.6
5755.194
5779.018
5812.503
5858.065
5917.189
5979.159
6044.191
6108.301
6172.962
6246.575
6331.177
6426.988
6539.263
6674.223
6813.866
6938.912
7038.053
7114.396
7164.756
7191.714
7195.903
7181.593
7168.027
7164.67
7169.671
7177.551
7181.797
7177.293
7182.762
7166.627
7154.207
7154.832
7174.807
7188.097
7191.63
7196.146
7203.312
7211.843
7213.186
7205.219
7212.881
7227.181
7241.021
7246.178
7243.691
7241.245
7242.774
7249.86
7256.549
7258.629
7254.6
7249.825
7242.257
7239.139
7233.466
7224.906
7217.52
7215.934
7208.955
7208.828
7170.769
7132.174
7130.146
7151.259
7171.147
7179.683
7186.802
7204.913
7238.191
7277.614
7291.137
7303.628
7343.968
7379.956
7403.363
7425.801
7453.202
7474.825
7493.71
7521.287
7556.166
7593.477
7627.57
7634.49
7635.333
7640.679
7644.495
7651.549
7664.403
7673.273
7680.608
7690.063
7701.776
7711.07
7722.475
7735.998
7751.246
7765.7
7784.174
7806.536
7830.448
7853.924
7876.581
7898.473
7921.386
7940.742
7954.217
7970.287
7986.095
8001.218
8016.391
8030.519
8040.777
8048.552
8055.189
8066.187
8077.639
8084.295
8088.503
8092.611
8096.903
8101.475
8108.375
8118.08
8127.082
8133.338
8138.69
8144.118
8149.99
8156.172
8162.472
8169.003
8175.967
8183.705
8192.435
8202.495
8213.694
8224.913
8235.092
8244.212
8252.709
8260.596
8267.496
8273.615
8279.232
8283.671
8287.414
8290.881
8292.667
8293.042
8292.111
8288.507
8283.606
8282.426
8287.819
8295.854
8302.34
8306.901
8310.242
8311.675
8311.338
8309.383
8306.717
8303.469
8300.772
8301.128
8304.82
8310.95
8315.082
8315.344
8315.266
8318.998
8320.223
8316.767
8312.618
8308.105
8303.387
8298.633
8293.729
8289.216
8286.167
8284.925
8284.746
8283.427
8280.617
8277.143
8272.879
8267.426
8261.336
8255.019
8248.488
8241.552
8234.183
8226.841
8219.625
8211.874
8203.683
8195.67
8187.332
8178.763
8172.035
8168.312
8166.282
8164.551
8162.032
8158.395
8154.677
8152.183
8148.456
8141.413
8134.994
8130.152
8124.055
8117.076
8109.977
8104.053
8100.822
8100.1
8102.031
8104.773
8106.774
8107.365
8108.87
8108.976
8105.684
8099.974
8093.751
8091.554
8088.972
8084.682
8080.383
8075.195
8069.951
8066.768
8066.685
8070.81
8073.383
8077.332
8079.177
8078.208
8077.45
8077.171
8076.193
8074.68
8072.983
8072.525
8073.029
8072.961
8073.094
8073.959
8075.234
8076.592
8077.791
8079.073
8080.692
8082.978
8086.044
8089.732
8092.813
8094.2
8094.864
8094.984
8094.742
8094.605
8094.913
8095.075
8094.978
8094.755
8094.563
8094.336
8093.965
8093.587
8093.32
8093.273
8093.219
8093.223
8093.335
8093.66
8094.149
8094.724
8095.273
8095.703
8096.051
8096.555
8097.049
8097.626
8098.207
8098.76
8099.38
8100.104
8101.221
4035.686
4032.691
4025.129
4011.897
3990.868
3979.088
3978.974
3996.585
4040.782
4094.849
4159.183
4214.33
4266.381
4295.54
4291.52
4268.97
4260.455
4256.121
4228.888
4186.91
4149.199
4102.77
4090.474
4013.424
3927.37
3872.651
3845.175
3841.137
3847.993
3863.046
3905.241
3961.964
4000.615
4063.811
4121.223
4103.888
4093.628
4139.754
4209.98
4295.857
4416.111
4521.116
4608.219
4735.229
4885.009
5023.267
5164.216
5305.217
5432.133
5540.293
5631.943
5708.407
5760.082
5774.63
5757.152
5709.726
5642.941
5573.273
5518.762
5477.453
5454.335
5444.833
5443.539
5443.077
5443.412
5437.406
5418.979
5415.155
5436.065
5457.101
5484.064
5522.237
5573.119
5642.543
5747.724
5860.539
5975.549
6125.54
6312.995
6447.978
6524.04
6550.356
6529.324
6498.413
6443.871
6366.723
6278.94
6182.093
6074.666
5960.669
5843.725
5737.401
5634.421
5533.276
5433.627
5335.597
5260.476
5242.106
5272.04
5333.853
5374.801
5406.013
5438.241
5477.796
5523.614
5565.389
5588.165
5594.955
5586.501
5569.858
5543.093
5496.003
5426.477
5328.352
5202.882
5083.886
4989.897
4919.399
4832.435
4726.144
4678.795
4699.525
4747.234
4772.813
4813.18
4872.924
4954.232
5067.556
5206.408
5351.331
5501.677
5650.542
5794.685
5932.137
6062.589
6183.912
6294.603
6393.582
6475.226
6528.61
6522.253
6498.565
6538.437
6620.73
6672.998
6705.32
6726.14
6734.93
6731.309
6711.307
6674.411
6627.204
6575.308
6519.833
6460.323
6399.73
6344.453
6300.775
6276.252
6281.322
6315.94
6365.926
6435.719
6520.533
6605.968
6680.418
6742.935
6793.293
6862.914
6928.458
6975.442
7018.042
7054.614
7090.909
7126.517
7137.98
7143.089
7149.534
7145.135
7133.258
7108.576
7067.303
7022.193
6977.23
6925.755
6859.376
6766.15
6635.118
6482.171
6343.507
6221.128
6105.673
5995.319
5896.602
5816.33
5759.206
5723.996
5710.984
5720.429
5742.358
5777.477
5828.576
5893.255
5961.846
6034.924
6108.87
6179.799
6250.922
6326.831
6409.053
6503.531
6624.518
6755.123
6873.458
6966.285
7035.493
7075.446
7096.412
7092.818
7076.724
7072.738
7090.191
7116.098
7137.579
7154.652
7168.016
7168.297
7169.567
7159.337
7157.097
7170.55
7183.435
7187.789
7192.855
7200.239
7207.161
7200.641
7195.758
7201.634
7218.962
7227.999
7224.909
7217.594
7211.052
7210.912
7215.454
7222.138
7225.543
7222.66
7220.852
7222.384
7220.857
7220.206
7224.827
7233.527
7234.734
7219.789
7201.42
7175.252
7154.22
7145.298
7152.401
7174.057
7190.465
7206.035
7226.87
7260.367
7284.275
7301.346
7322.172
7352.597
7381.762
7406.633
7430.367
7453.988
7482.3
7510.719
7537.196
7566.503
7593.605
7620.076
7634.502
7639.219
7647.428
7654.412
7659.741
7666.131
7668.895
7675.024
7683.958
7695.853
7709.154
7718.927
7730.806
7745.566
7761.999
7778.239
7799.201
7821.536
7847.35
7873.277
7897.027
7919.217
7939.667
7956.28
7971.6
7986.24
8000.622
8014.158
8028.382
8041.25
8049.761
8057.612
8066.045
8073.426
8081.879
8089.269
8094.005
8099.619
8106.726
8113.11
8118.775
8125.885
8132.658
8138.367
8144.004
8150.08
8156.777
8163.789
8170.831
8178.198
8186.227
8194.926
8204.285
8214.461
8224.968
8234.951
8244.005
8252.4
8260.166
8267.114
8273.209
8278.64
8283.236
8287.086
8290.298
8292.561
8293.704
8293.911
8292.699
8290.84
8290.9
8294.772
8300.317
8304.987
8308.472
8311.158
8312.853
8313.239
8312.599
8311.342
8309.577
8308.084
8308.021
8310.286
8313.823
8316.83
8317.203
8315.117
8315.282
8316.564
8315.25
8312.289
8308.38
8304.019
8299.671
8295.35
8291.255
8287.975
8285.757
8284.185
8281.728
8278.042
8273.941
8269.504
8264.359
8258.77
8252.932
8246.756
8240.06
8233.039
8225.963
8218.936
8211.697
8204.056
8196.438
8189.018
8181.75
8175.27
8170.955
8167.95
8165.083
8161.321
8157.195
8153.473
8149.304
8144.419
8138.926
8132.53
8128.245
8122.84
8116.76
8111.298
8107.548
8105.525
8104.422
8104.755
8105.88
8106.841
8106.455
8105.701
8104.339
8101.613
8097.606
8093.134
8089.856
8086.821
8083.15
8079.704
8076.047
8072.664
8070.587
8070.462
8072.63
8074.379
8076.178
8076.923
8076.68
8076.348
8076.083
8075.485
8074.67
8074.026
8074.189
8074.698
8074.408
8074.277
8075.091
8076.372
8077.772
8079.078
8080.441
8081.8
8083.7
8086.027
8088.739
8091.622
8093.624
8094.503
8094.808
8094.597
8093.611
8092.927
8093.018
8093.37
8093.49
8093.402
8093.206
8092.917
8092.66
8092.576
8092.29
8091.974
8091.827
8091.935
8092.261
8092.765
8093.205
8093.508
8093.778
8094.023
8094.466
8095.004
8095.612
8096.19
8096.783
8097.758
8099.097
8100.036
4037.578
4036.118
4016.009
3990.425
3954.42
3928.774
3926.675
3959.953
4028.327
4113.02
4190.158
4256.758
4306.906
4329.757
4318.427
4304.121
4288.32
4265.846
4234.152
4164.833
4116.269
4067.139
4011.419
3926.55
3838.141
3788.168
3778.959
3782.273
3799.919
3819.064
3850.352
3916.129
4063.963
4069.416
4104.828
4119.046
4110.904
4138.855
4198.108
4276.051
4371.24
4466.239
4560.015
4667.071
4794.276
4922.526
5040.144
5160.918
5279.216
5378.676
5460.634
5531.83
5575.474
5584.245
5554.241
5496.278
5413.376
5332.941
5275.175
5250.54
5251.075
5266.589
5281.1
5296.96
5311.559
5331.93
5363.997
5374.165
5390.92
5435.39
5493.307
5539.998
5557.699
5598.729
5701.969
5828.585
5985.381
6164.901
6322.849
6486.276
6614.755
6627.198
6606.201
6566.053
6497.545
6404.532
6294.592
6171.784
6043.763
5910.581
5776.016
5649.359
5539.916
5445.791
5355.724
5268.415
5213.392
5209.925
5243.685
5299.919
5314.933
5312.483