/*--------------------------------*- C++ -*----------------------------------*\
| =========                 |                                                 |
| \\      /  F ield         | foam-extend: Open Source CFD                    |
|  \\    /   O peration     | Version:     3.1                                |
|   \\  /    A nd           | Web:         http://www.extend-project.de       |
|    \\/     M anipulation  |                                                 |
\*---------------------------------------------------------------------------*/
FoamFile
{
    version     2.0;
    format      ascii;
    class       surfaceScalarField;
    location    "9";
    object      phi;
}
// * * * * * * * * * * * * * * * * * * * * * * * * * * * * * * * * * * * * * //

dimensions      [0 3 -1 0 0 0 0];

internalField   nonuniform List<scalar> 
275122
(
2.345952e-05
-3.070371e-05
-1.679772e-08
7.260993e-06
4.536211e-05
-4.615028e-05
-6.267739e-07
1.414952e-06
5.234869e-05
-5.511845e-05
-8.158737e-08
2.851344e-06
6.509629e-05
-6.806363e-05
6.917517e-08
2.89817e-06
7.636467e-05
-7.893375e-05
1.265465e-07
2.442534e-06
8.263873e-05
-8.340419e-05
2.702053e-07
4.952523e-07
8.547984e-05
-8.592014e-05
2.775613e-07
1.62745e-07
8.629472e-05
-8.621413e-05
2.283875e-07
-3.089809e-07
8.488343e-05
-8.409145e-05
9.384999e-08
-8.858264e-07
8.066032e-05
-7.906289e-05
4.368193e-08
-1.641106e-06
7.424461e-05
-7.230614e-05
5.499456e-08
-1.993464e-06
6.590901e-05
-6.364635e-05
3.967008e-08
-2.302333e-06
5.636499e-05
-5.363541e-05
2.984815e-08
-2.759428e-06
4.57262e-05
-4.292843e-05
2.505014e-08
-2.822819e-06
3.3928e-05
-3.153378e-05
-1.893767e-09
-2.392334e-06
2.563599e-05
-2.285607e-05
1.330935e-07
-2.913017e-06
1.592062e-05
-1.364916e-05
-1.352562e-08
-2.257943e-06
7.308235e-06
-4.941369e-06
8.666409e-09
-2.375532e-06
2.443573e-07
1.82935e-06
-9.056868e-08
-1.983139e-06
-7.87512e-06
1.169722e-05
8.905028e-08
-3.91115e-06
-1.517368e-05
1.673397e-05
-1.297039e-07
-1.430589e-06
-2.157999e-05
2.294219e-05
-3.441117e-08
-1.327788e-06
-2.965926e-05
3.165775e-05
1.509141e-07
-2.149403e-06
-3.783626e-05
3.938171e-05
-4.361504e-08
-1.501839e-06
-4.239435e-05
4.33362e-05
-7.617681e-08
-8.656706e-07
-4.584422e-05
4.665639e-05
-1.906293e-08
-7.9311e-07
-4.821334e-05
4.795097e-05
8.416316e-08
1.782051e-07
-4.304325e-05
4.000444e-05
1.104304e-07
2.928378e-06
-2.52429e-05
1.975599e-05
1.192194e-07
5.367688e-06
-9.55052e-06
1.017583e-05
-9.654772e-09
-6.156542e-07
2.83321e-06
-3.256804e-06
4.420243e-08
3.793923e-07
9.118236e-06
-1.302225e-05
1.652017e-07
3.738815e-06
2.301226e-05
-2.595018e-05
5.293058e-07
2.408614e-06
3.876089e-05
-4.360524e-05
8.484287e-07
3.995925e-06
6.222305e-05
-7.128464e-05
3.77303e-07
8.684293e-06
9.404951e-05
-0.0001022862
6.067038e-07
7.630018e-06
0.0001278003
-0.0001364856
1.652577e-07
8.520052e-06
0.000158567
-0.0001644986
-1.668032e-07
6.09841e-06
0.0001877522
-0.0001952881
-1.516532e-06
9.052811e-06
0.0002407239
-0.0002572158
-1.339516e-06
1.78315e-05
-9.481995e-06
0.0001710826
-0.0001714343
-2.732677e-07
1.010696e-05
-5.603611e-06
0.0001780877
-0.0001799001
-6.063475e-08
7.476657e-06
-5.568303e-06
0.0001816198
-0.0001817592
2.70016e-09
5.704989e-06
-4.374504e-06
0.0001818575
-0.0001814156
6.747092e-08
3.865081e-06
-3.254145e-06
0.0001788327
-0.0001775903
9.328702e-08
1.918402e-06
-2.835016e-06
0.0001729311
-0.0001711637
1.786143e-07
8.89022e-07
-7.863603e-07
0.0001662869
-0.0001654404
4.123572e-07
-4.725374e-07
-1.306811e-06
0.0001633516
-0.0001637969
5.371164e-07
1.214964e-06
-1.105118e-05
0.0001672518
-0.0001612056
-2.649103e-07
5.269909e-06
-2.806789e-06
0.0006056282
-0.0006083815
-1.404616e-06
1.522976e-05
-1.265978e-06
-5.292696e-06
-1.706334e-06
-4.77253e-07
0.0006087876
-0.0006010047
-1.169075e-07
-5.225842e-06
-1.079755e-06
-7.890107e-07
-9.408536e-08
-1.448018e-06
0.0005891372
-0.0005708203
-5.041251e-08
-1.215251e-05
-1.412851e-06
-1.617102e-06
-1.636038e-06
-4.405768e-07
0.0005446962
-0.0005228317
1.633873e-07
-2.128586e-05
1.046437e-07
-4.749483e-07
6.887857e-08
9.923518e-07
0.0005034756
-0.0004868958
3.723048e-07
-1.975601e-05
4.535997e-07
9.862716e-07
3.716695e-07
4.143064e-06
0.0004718375
-0.0004667566
-5.902194e-08
-2.255738e-05
5.176155e-06
3.693245e-06
4.52309e-06
6.585412e-06
0.000464865
-0.0004647449
-3.541434e-07
-3.673255e-05
1.14665e-05
7.088551e-06
1.182609e-05
5.987245e-06
0.0004613591
-0.0004577342
-1.61003e-07
-2.693723e-05
5.606468e-06
6.12846e-06
5.751126e-06
-1.058391e-06
0.0004528192
-0.0004433544
1.487466e-07
-5.434423e-06
-2.834576e-06
9.912808e-07
-1.277529e-06
1.231657e-05
0.000417124
-0.0004302048
-1.276519e-07
-9.209433e-06
7.213025e-07
1.278581e-05
-3.40576e-06
5.01459e-07
0.0003967781
-0.0003745453
1.701251e-07
-2.535945e-05
7.678963e-07
5.528169e-07
1.134373e-06
2.148109e-06
0.0003544727
-0.0003287088
3.07778e-07
-3.396224e-05
1.892212e-06
2.33143e-06
1.518726e-06
3.611581e-06
0.0003095065
-0.0002883996
6.804576e-07
-4.237053e-05
9.316229e-06
4.27464e-06
3.38069e-06
1.147862e-05
0.0002742453
-0.0002565641
1.132837e-06
-6.06817e-05
8.955197e-06
1.086478e-05
1.056904e-05
9.970229e-06
0.0002424148
-0.0002255418
6.15158e-07
-5.697726e-05
8.164331e-06
1.138012e-05
9.974436e-06
1.022385e-05
0.0002174736
-0.0002066059
-1.926442e-07
-4.83652e-05
7.407339e-06
1.06864e-05
9.372544e-06
7.281628e-07
0.0001947284
-0.0001946329
-1.061109e-06
-1.572587e-06
3.133566e-07
1.600133e-07
1.336689e-06
-2.422744e-06
0.0002040463
-0.0002133187
-3.895111e-07
3.786347e-05
-1.121726e-05
-4.910143e-06
-9.651399e-06
-1.955783e-05
0.0002243481
-0.0002268443
-2.554611e-07
8.375694e-05
-2.26963e-05
-1.854301e-05
-2.020811e-05
-8.509221e-05
0.000224957
-0.0002166163
1.650943e-07
7.658638e-05
-3.445117e-05
0.0002271966
-0.0002437331
3.887034e-07
5.059894e-05
-2.477519e-05
0.0002587284
-0.0002728211
-7.880068e-07
3.965587e-05
-2.424966e-05
0.0002750453
-0.0002800493
-8.127646e-07
3.006641e-05
-1.849007e-05
0.0002818395
-0.0002858997
-3.10661e-07
2.286098e-05
-1.518859e-05
0.0002857478
-0.0002876091
1.712377e-06
1.533749e-05
-7.456915e-06
0.0002921131
-0.0002957574
3.695156e-06
7.406138e-06
2.004915e-06
0.000297495
-0.0002987097
2.238166e-06
-3.028449e-06
1.577558e-05
0.0002980317
-0.0002937561
1.251864e-06
-2.130306e-05
2.132118e-05
0.0002883784
-0.0002791123
1.409974e-06
-3.19973e-05
3.027009e-05
0.0002723648
-0.000254568
3.693945e-07
-4.843634e-05
3.62115e-05
0.000243077
-0.0002251214
3.466029e-07
-5.451364e-05
4.160284e-05
0.0002085991
-0.0001874022
-8.015669e-08
-6.271963e-05
4.481967e-05
0.0001691641
-0.000145081
-6.864461e-08
-6.883408e-05
4.928096e-05
0.0001262824
-0.0001057146
5.517798e-07
-7.040054e-05
3.240303e-05
7.350138e-05
-4.112338e-05
7.679658e-07
-6.554899e-05
4.935289e-05
2.490207e-05
-8.460064e-06
4.528456e-07
-6.624774e-05
2.298397e-05
-1.293071e-05
4.68797e-05
1.013407e-06
-5.794637e-05
4.296396e-05
-6.490804e-05
8.134865e-05
6.371232e-07
-6.004169e-05
2.856174e-05
-9.20703e-05
0.0001115039
6.172665e-07
-4.861262e-05
2.798575e-05
-0.0001315753
0.0001498159
5.22506e-07
-4.674882e-05
3.453982e-05
-0.0001631981
0.0001694152
-1.799221e-07
-4.0577e-05
3.142431e-05
-0.0001835362
0.0001865294
-5.60468e-08
-3.436148e-05
1.850961e-05
-0.0001936992
0.0002018237
4.486866e-07
-2.708287e-05
1.975973e-05
-0.0002092743
0.0002120042
4.700734e-07
-2.29597e-05
7.353685e-06
-0.0002176841
0.0002199859
8.474376e-07
-1.050289e-05
7.663175e-07
-0.0002205437
0.0002227245
5.633717e-07
-3.510406e-06
-2.337344e-05
-0.0002257928
0.0002320419
-7.420193e-07
1.786635e-05
-7.810759e-05
-0.0002406792
0.0002596696
-1.165465e-06
6.028263e-05
-1.773528e-05
-0.0002652991
0.0002431257
5.715178e-08
8.392745e-05
-1.828947e-05
-1.137827e-05
-1.440817e-05
-2.730331e-06
-0.0002095326
0.0001387105
8.947771e-07
8.043424e-05
-2.110404e-06
-2.835751e-06
-2.830452e-06
-2.43792e-06
-8.504552e-05
5.263068e-05
-2.985026e-06
4.323088e-05
-1.171771e-06
-1.92035e-06
-2.300968e-06
-9.204644e-07
-3.956124e-05
4.424502e-05
-2.997911e-06
3.322923e-06
-7.684157e-07
-1.101844e-06
-2.218069e-06
-7.652216e-07
-4.147859e-05
4.521481e-05
1.417683e-06
8.385729e-06
-5.182248e-06
-1.909614e-06
-5.682542e-06
-3.960996e-06
-3.234604e-05
4.311668e-06
9.150569e-07
6.129462e-05
-1.122444e-05
-8.872884e-06
-1.011699e-05
-1.867877e-05
4.447878e-05
-0.0001071423
5.639744e-07
0.0001383204
-1.900441e-05
-1.879006e-05
-1.974766e-05
-2.137179e-05
0.0001737574
-0.0002462805
7.508716e-07
0.0001582221
-1.715744e-05
-2.49382e-05
-2.298237e-05
-1.743098e-05
0.0003160782
-0.0003705198
9.226282e-07
0.0001468599
-2.544831e-05
-2.674055e-05
-2.372104e-05
-2.126052e-05
0.0004097721
-0.0004487374
1.08848e-06
0.0001170876
-1.952247e-05
-1.814409e-05
-2.028375e-05
-1.470156e-05
0.0004819833
-0.0005157748
8.176493e-07
8.646855e-05
-1.281122e-05
-1.427507e-05
-1.170681e-05
-6.604741e-06
0.0005410297
-0.0005716367
6.024318e-07
5.966974e-05
-7.495856e-06
-8.951946e-06
-6.612553e-06
-6.384335e-06
0.0005894827
-0.0006100802
6.438863e-07
4.474069e-05
-5.038649e-06
-7.021326e-06
-6.342766e-06
-3.876878e-06
0.0006237799
-0.0006377006
5.695413e-07
3.34749e-05
-4.377822e-06
-6.876725e-06
-4.992253e-06
-3.855906e-06
0.0006475264
-0.0006555856
4.930171e-07
2.274771e-05
-3.790586e-06
-3.76656e-06
-3.768483e-06
-5.005383e-06
0.0006629103
-0.0006681035
5.706755e-07
1.984114e-05
-4.626609e-06
-2.871561e-06
-2.71504e-06
-2.591427e-06
0.0006734664
-0.0006785192
3.378405e-07
1.649722e-05
-2.614719e-06
-2.984072e-06
-3.592053e-06
-7.327167e-07
0.0006830662
-0.0006873311
1.463634e-07
7.331031e-06
-5.947529e-07
-8.361837e-07
-1.048816e-06
6.369898e-07
0.000691679
-0.000694155
1.603361e-07
8.956687e-08
6.921032e-07
4.095164e-07
4.874618e-07
1.508856e-06
0.0006963686
-0.0006966957
1.590717e-07
-5.678011e-06
1.593448e-06
1.282324e-06
1.461393e-06
2.156815e-06
0.0006948904
-0.0006905666
2.394603e-07
-1.362871e-05
2.343672e-06
2.030647e-06
2.534368e-06
2.271278e-06
0.0006839032
-0.0006729682
2.521589e-09
-1.986359e-05
2.39815e-06
2.275345e-06
1.981284e-06
4.781014e-06
0.0006654014
-0.000653737
-2.238054e-07
-2.560346e-05
3.71801e-06
2.696105e-06
2.967716e-06
5.068591e-06
0.0006436439
-0.0006323021
5.260807e-07
-3.002782e-05
4.691824e-06
4.081996e-06
4.317506e-06
5.417574e-06
0.0006229686
-0.0006137845
9.96703e-07
-2.893678e-05
4.556586e-06
3.772097e-06
5.009705e-06
5.213942e-06
-0.0005985184
5.764022e-07
-3.224136e-05
5.300726e-06
5.797076e-06
7.301071e-06
0.0006065706
8.033629e-06
0.0005879427
-0.0005736957
-1.058575e-07
-4.798553e-05
8.33465e-06
8.434044e-06
9.042088e-06
1.188385e-05
0.0005549123
-0.0005279527
1.095457e-06
-7.472569e-05
1.166847e-05
1.143895e-05
1.167935e-05
1.223509e-05
0.0005003501
-0.0004655833
2.323542e-06
-8.501396e-05
1.435798e-05
1.159818e-05
9.732369e-06
1.292224e-05
0.0004308287
-0.0004011672
1.315174e-06
-8.776341e-05
1.853584e-05
1.134258e-05
1.398606e-05
1.620775e-05
0.0003700643
-0.0003388839
3.152494e-07
-9.70936e-05
1.842845e-05
1.612703e-05
1.483466e-05
1.518922e-05
0.0002999829
-0.0002653152
3.649536e-07
-0.0001009433
1.417747e-05
1.883013e-05
1.771384e-05
1.727904e-05
0.0002278319
-0.0001855282
6.387233e-07
-0.000108955
1.039761e-05
1.898059e-05
1.935533e-05
1.809956e-05
0.0001469887
-0.0001117165
2.127078e-07
-9.998917e-05
1.310518e-05
1.567501e-05
1.762447e-05
5.873077e-06
5.868994e-05
7.264066e-06
9.566603e-07
-9.51754e-05
6.134694e-06
9.553027e-06
6.703933e-06
1.567358e-05
-6.110841e-05
9.907366e-05
-1.410685e-06
-9.334806e-05
1.327885e-05
1.807334e-05
9.767729e-06
1.640468e-05
-0.0001393161
0.0001669032
-6.627793e-07
-9.352051e-05
1.856388e-05
1.611886e-05
1.55088e-05
9.399885e-06
-0.0002037278
0.0002304797
-3.603485e-07
-7.51461e-05
1.277796e-05
1.346498e-05
1.311172e-05
6.159154e-06
-0.000276175
0.0003063595
-3.340743e-07
-6.463227e-05
9.056572e-06
8.707054e-06
1.085908e-05
4.536263e-06
-0.0003287228
0.0003530152
-2.245076e-07
-4.789113e-05
2.960548e-06
7.87969e-06
8.446742e-06
3.730612e-06
-0.000374552
0.0003886501
-1.00938e-08
-3.593988e-05
5.268213e-06
6.47372e-06
6.379347e-06
-4.600567e-07
-0.0003993054
0.0004061813
5.98621e-07
-1.972509e-05
7.36206e-07
5.823906e-06
6.150495e-06
3.033378e-07
-0.0004104487
0.0004143994
5.98201e-07
-1.180386e-05
9.51152e-07
2.969526e-06
3.030979e-06
-9.24818e-07
-0.0004205618
0.000427997
2.291789e-07
-6.987168e-06
-8.542607e-07
1.005372e-07
1.001361e-06
-5.981739e-07
-0.0004320247
0.0004361362
1.678081e-07
-3.755078e-06
-4.18656e-07
-4.635651e-07
9.561229e-07
-5.700737e-07
-0.0004376666
0.00044073
2.285997e-07
8.075081e-08
-3.218397e-07
-2.035429e-06
-4.454352e-07
-2.13158e-06
-0.0004435827
0.0004469529
3.411384e-07
3.209698e-06
-1.568341e-06
-2.830956e-06
-3.90125e-07
-1.952833e-06
-0.0004477671
0.0004501643
4.459789e-07
5.56604e-06
-1.847178e-06
-3.115289e-06
-1.493966e-06
-3.069683e-06
-0.00045112
0.0004605034
3.513017e-07
8.699024e-06
-3.387233e-06
-5.950893e-06
-6.025928e-06
-8.743722e-06
-0.00046465
0.0004835666
-2.671073e-07
8.802461e-06
-1.188194e-05
-1.19544e-06
-5.630785e-06
-1.410378e-06
-0.0004611458
0.0004585532
9.18346e-08
2.800654e-05
-1.469616e-05
-2.60155e-06
-6.797734e-06
-2.519173e-06
-0.0004477186
0.0004405349
-3.805165e-07
6.572935e-06
4.613701e-07
1.549914e-06
1.49914e-06
8.331496e-07
-0.0004305236
0.0004241974
-4.940545e-07
2.194134e-06
1.468876e-06
-1.857835e-07
2.509894e-06
1.684094e-06
-0.0004203148
0.0004170947
-1.443387e-06
-3.048853e-06
1.644738e-06
2.034625e-06
2.348892e-06
2.122686e-06
-0.0004168228
0.0004151573
-1.140994e-06
-3.000596e-06
1.320372e-06
1.490382e-06
8.736862e-07
7.304699e-08
-0.0004167102
0.0004195924
-1.020575e-06
-2.590192e-06
-1.719545e-09
3.879849e-07
2.692998e-07
5.236371e-07
-0.0004217843
0.0004213681
-6.496847e-07
-9.430998e-07
5.617896e-07
3.993622e-07
5.24149e-07
1.264544e-07
-0.000420183
0.0004132656
-2.026895e-07
2.876055e-06
1.961898e-06
1.140692e-06
1.014986e-06
1.603071e-06
-0.0004018598
0.000388769
-5.766788e-07
8.780575e-06
1.546313e-06
2.155199e-06
-4.176298e-07
1.305061e-07
-0.0003793605
0.0003658015
-3.606815e-08
1.409623e-05
-3.94538e-07
4.872595e-07
-7.243385e-07
-1.478401e-06
-0.0003587982
0.0003472602
-1.284638e-07
1.880846e-05
-1.97664e-06
-1.848434e-06
-1.8385e-06
-2.238933e-06
-0.0003389646
0.0003274741
-7.890504e-08
2.140081e-05
-2.839463e-06
-2.392105e-06
-2.360912e-06
-2.787905e-06
-0.0003163608
0.000306823
-2.001197e-07
1.989561e-05
-2.536095e-06
-2.4395e-06
-2.394164e-06
-2.377522e-06
-0.0002975628
0.0002889194
1.371382e-08
1.807844e-05
-2.21947e-06
-2.450151e-06
-2.40153e-06
-2.025137e-06
-0.0002827588
0.000278879
1.864518e-07
1.215577e-05
-2.130113e-06
-2.118737e-06
-2.188488e-06
-1.788503e-06
-0.0002739568
0.0002682577
-1.111151e-07
1.354171e-05
-1.88684e-06
-1.864867e-06
-2.191339e-06
-3.204135e-06
-0.0002569701
0.000250466
-6.836819e-07
1.913683e-05
-3.006576e-06
-2.875236e-06
-2.863093e-06
-3.135145e-06
-0.0002456137
0.0002326565
-5.164479e-07
2.633429e-05
-3.184964e-06
-3.311811e-06
-3.228668e-06
-3.551985e-06
-0.0002208358
0.0002108588
-9.243585e-07
2.496474e-05
-3.510382e-06
-3.529978e-06
-3.471044e-06
-3.32258e-06
-0.0002039204
0.000197337
-2.79405e-06
2.235423e-05
-3.162186e-06
-3.082513e-06
-3.409454e-06
-3.215693e-06
-0.0001937626
0.0001886833
-2.823136e-06
2.051745e-05
-3.241905e-06
-3.157219e-06
-3.000186e-06
-3.344615e-06
-0.0001808185
0.0001650739
-1.648027e-06
3.086019e-05
-3.543062e-06
-3.230145e-06
-3.349771e-06
-4.824964e-06
-0.0001427156
0.0001080511
-2.477505e-08
5.449388e-05
-5.149417e-06
-4.807315e-06
-5.022976e-06
-5.852109e-06
-7.035986e-05
4.51354e-05
-6.039338e-07
5.017001e-05
-5.960226e-06
-6.4178e-06
-6.111475e-06
-4.773615e-06
-1.597081e-05
2.278243e-06
2.722204e-07
3.459612e-05
-5.473676e-06
-5.679198e-06
-5.24929e-06
-4.297399e-06
-3.201591e-05
7.832042e-07
2.919021e-05
1.905205e-05
-4.073432e-06
-4.461528e-06
-4.177202e-06
-3.192103e-06
4.132466e-05
-4.788079e-05
6.338022e-07
1.849574e-05
-3.019598e-06
-3.275974e-06
-3.085734e-06
-2.767004e-06
5.507042e-05
-6.433603e-05
4.760829e-07
2.015149e-05
-2.863337e-06
-2.823188e-06
-2.908429e-06
-3.583252e-06
8.107663e-05
-0.0001063215
1.998234e-07
3.969563e-05
-3.72525e-06
-3.636484e-06
-3.705608e-06
-4.061918e-06
0.0001316452
-0.0001547738
-9.613934e-08
3.994838e-05
-4.199591e-06
-4.388667e-06
-4.073452e-06
-4.248783e-06
0.0001644184
-0.0001845108
-1.131834e-07
3.585041e-05
-3.646405e-06
-4.130922e-06
-3.618728e-06
-2.139223e-06
0.0001899409
-0.0001890572
-6.597122e-07
7.500999e-06
-1.704389e-06
-2.157759e-06
-1.723653e-06
-9.545002e-08
0.0001884075
-0.0001882271
-1.325414e-06
1.315312e-06
1.378565e-08
-9.977415e-08
1.109431e-08
5.843684e-07
0.0001891741
-0.0001901789
-6.247429e-07
-7.86717e-07
6.181694e-07
5.822634e-07
6.314638e-07
9.444107e-07
0.0001919928
-0.0001926652
-1.923151e-07
-2.982755e-06
9.873005e-07
9.479995e-07
9.677715e-07
9.580407e-07
0.0001932905
-0.0001922405
7.317663e-07
-5.672577e-06
9.318212e-07
9.479781e-07
1.053019e-06
6.170944e-07
0.0001913654
-0.0001889916
6.419596e-07
-5.598401e-06
6.322707e-07
6.848547e-07
6.484576e-07
-6.228911e-08
0.0001881651
-0.0001895256
-7.700467e-08
1.613921e-06
-1.068011e-07
-1.343534e-08
6.100292e-09
-1.443959e-06
0.0001921299
-0.0001942833
-1.324559e-07
6.883254e-06
-1.330422e-06
-1.036859e-06
-7.861588e-07
-1.233019e-06
0.0002005272
-0.0002069808
-8.511879e-08
1.016329e-05
-1.46962e-06
-6.460519e-07
-2.758164e-07
-3.555718e-07
0.0002116057
-0.0002126223
1.017483e-07
1.806681e-06
-5.396791e-07
-1.24104e-07
1.27509e-07
-1.218385e-07
0.000213352
-0.0002127317
-6.691833e-08
-7.723928e-07
-1.550097e-07
1.167882e-07
3.790589e-07
-8.119895e-08
0.0002129445
-0.0002137521
-9.803641e-08
6.80077e-07
-1.651748e-07
1.202977e-07
3.516247e-07
-3.113261e-07
0.0002153412
-0.0002142527
3.794694e-07
-1.118986e-06
-3.060217e-07
1.494535e-08
2.534553e-07
-2.695083e-07
0.0002159103
-0.0002159251
8.215799e-07
2.34702e-07
-6.776377e-07
-2.469998e-07
1.526044e-07
-5.992853e-07
0.0002174677
-0.0002193253
4.52232e-07
3.341327e-06
-8.146582e-07
-3.378857e-07
-1.84084e-07
3.878782e-07
0.0002293384
-0.0002360627
-1.541084e-06
6.007324e-06
5.612486e-07
5.603388e-07
7.485518e-07
2.7468e-06
0.0002319293
-0.0002156502
-7.263159e-07
-2.776235e-05
3.130906e-06
2.937341e-06
3.394555e-06
5.206995e-06
0.0001905624
-0.0001577324
4.226551e-07
-5.612013e-05
5.705319e-06
5.707967e-06
6.247157e-06
4.1737e-06
0.0001329933
-0.0001191244
5.22314e-07
-3.163435e-05
3.837941e-06
4.688013e-06
4.543483e-06
3.034862e-06
1.995499e-05
-1.920112e-05
4.021815e-08
-3.828953e-06
-2.239488e-06
2.072969e-05
-2.248545e-05
-1.724778e-07
4.167727e-06
-1.318478e-06
2.507155e-05
-2.511556e-05
-1.086455e-07
1.471136e-06
5.982263e-07
2.581818e-05
-2.570764e-05
-8.589112e-08
-6.228743e-07
-1.859229e-08
2.46403e-05
-2.452624e-05
-4.662838e-08
-4.884239e-08
-1.029527e-06
2.519153e-05
-2.586103e-05
-6.741754e-08
1.766449e-06
-9.30303e-07
2.830621e-05
-2.950464e-05
6.758472e-08
2.061145e-06
-9.860282e-07
3.20085e-05
-3.203968e-05
-3.043957e-08
1.047648e-06
-1.680637e-07
3.372791e-05
-3.386641e-05
-7.261999e-08
3.791848e-07
2.233682e-08
3.409185e-05
-3.40945e-05
-6.276265e-08
4.306993e-08
4.227819e-07
3.398058e-05
-3.398799e-05
-3.673589e-08
-3.78634e-07
7.42715e-07
3.336252e-05
-3.309753e-05
1.682271e-08
-1.024528e-06
8.781687e-07
3.102449e-05
-3.036962e-05
9.258421e-08
-1.625621e-06
9.435048e-07
2.984939e-05
-2.899495e-05
1.696672e-07
-1.96761e-06
8.253661e-07
2.567274e-05
-2.591618e-05
3.887634e-08
-6.208039e-07
-1.966153e-07
2.622306e-05
-2.624426e-05
-1.393452e-07
3.571606e-07
4.036619e-07
2.615973e-05
-2.600823e-05
-1.999817e-07
-3.551831e-07
1.014634e-06
2.301921e-05
-2.158036e-05
-2.496883e-07
-2.20379e-06
8.105227e-07
1.856452e-05
-1.403784e-05
1.414474e-08
-5.351346e-06
1.275587e-06
1.21074e-05
-1.094334e-05
6.45007e-07
-3.084647e-06
-6.004714e-08
1.135552e-05
-1.160767e-05
2.773855e-07
3.481314e-08
3.519138e-08
1.221568e-05
-1.225876e-05
5.691237e-08
-4.901586e-08
4.311068e-07
1.236417e-05
-1.125127e-05
5.657408e-08
-1.60058e-06
4.968518e-07
9.55512e-06
-6.3698e-06
4.671861e-07
-4.149357e-06
3.186577e-08
6.271597e-06
-4.847983e-06
2.335026e-07
-1.688982e-06
1.223406e-07
4.854525e-06
-4.925138e-06
8.736421e-08
-1.390917e-07
1.04059e-08
4.938745e-06
-4.991096e-06
-1.201561e-08
5.396001e-08
4.622421e-08
4.864453e-06
-4.827305e-06
-3.737524e-08
-4.599729e-08
5.521418e-08
4.545329e-06
-4.400452e-06
-6.596168e-08
-1.341292e-07
7.612928e-08
4.083553e-06
-3.947763e-06
-6.722361e-08
-1.446957e-07
7.159376e-08
3.677872e-06
-3.505804e-06
-7.863857e-08
-1.650224e-07
1.190763e-07
3.073093e-06
-2.923394e-06
-9.427359e-08
-1.745014e-07
1.206858e-07
2.444673e-06
-2.31841e-06
-1.482863e-07
-9.866296e-08
1.147908e-07
1.500239e-06
-1.149297e-06
-4.469358e-08
-4.210387e-07
8.52781e-08
8.786093e-07
-4.604491e-07
4.561129e-08
-5.490496e-07
-1.100557e-07
3.632232e-07
-4.312449e-07
2.058309e-08
1.574943e-07
-1.899019e-07
1.292688e-06
-1.739465e-06
2.246364e-08
6.142146e-07
4.8954e-09
2.153376e-06
-2.252372e-06
2.360783e-08
7.049253e-08
1.135835e-07
2.897387e-06
-3.19997e-06
5.684796e-08
1.321519e-07
1.616247e-07
2.032526e-06
-2.11337e-06
8.565818e-08
-1.664386e-07
-1.535151e-07
2.762597e-06
-2.796315e-06
4.011178e-08
1.471213e-07
-4.588046e-08
3.204149e-06
-3.227078e-06
1.816382e-08
5.064601e-08
2.7156e-08
3.211352e-06
-3.226904e-06
1.202409e-08
-2.362779e-08
8.094974e-09
3.12606e-06
-3.079893e-06
1.495646e-08
-6.921867e-08
-1.025921e-08
3.072012e-06
-3.032626e-06
2.200995e-08
-5.113676e-08
-1.010206e-07
3.084324e-06
-3.126672e-06
7.800242e-09
1.355686e-07
-3.335979e-07
3.482667e-06
-3.495022e-06
-3.241176e-08
3.783647e-07
-3.220551e-07
4.315941e-06
-4.38859e-06
-5.123394e-08
4.459386e-07
-4.171886e-07
5.624924e-06
-5.583594e-06
-6.403157e-08
4.398901e-07
-6.144251e-07
6.46136e-06
-6.93212e-06
-7.234894e-08
1.157534e-06
-1.967051e-07
7.50965e-06
-8.333235e-06
2.178792e-08
9.985022e-07
-8.837936e-07
9.088578e-06
-7.114443e-06
1.278251e-07
-1.218166e-06
9.972022e-07
8.346911e-06
-6.962359e-06
6.347216e-07
-3.016475e-06
1.028162e-06
7.690863e-06
-6.316655e-06
3.424494e-07
-2.744819e-06
8.112457e-07
5.563746e-06
-4.980034e-06
6.611697e-08
-1.461075e-06
1.479651e-06
1.244972e-06
1.261494e-06
4.094657e-08
-4.027064e-06
1.226593e-06
-3.333757e-06
7.242418e-06
-1.312815e-07
-5.003973e-06
1.092336e-06
-9.967437e-06
1.046896e-05
-1.542256e-07
-1.43963e-06
1.633905e-06
-1.43636e-05
1.451554e-05
-4.932864e-08
-1.736513e-06
1.285001e-06
-1.790299e-05
1.920028e-05
-6.21777e-08
-2.520118e-06
4.969511e-07
-2.176313e-05
2.185816e-05
-1.152428e-07
-4.767421e-07
2.995989e-07
-2.278894e-05
2.294509e-05
-9.034473e-09
-4.467107e-07
1.473923e-07
-2.310431e-05
2.313615e-05
2.614822e-08
-2.053814e-07
5.612145e-08
-2.311879e-05
2.30761e-05
3.166542e-08
-4.509383e-08
-6.799064e-08
-2.271077e-05
2.24585e-05
6.094901e-08
2.593047e-07
-8.823152e-09
-2.18404e-05
2.176593e-05
3.858716e-08
4.471294e-08
3.832281e-07
-2.176915e-05
2.187714e-05
-1.933382e-08
-4.718889e-07
1.392321e-07
-2.313176e-05
2.239863e-05
-1.474852e-07
7.413814e-07
-1.254013e-06
-2.195327e-05
2.108822e-05
-5.628269e-09
2.124694e-06
-4.236813e-06
-1.453488e-05
1.400193e-05
-9.819934e-08
4.867961e-06
-9.198092e-06
1.295856e-06
-5.123966e-05
-9.357196e-07
7.97703e-05
-9.602029e-06
-9.116817e-06
-8.516507e-06
7.248483e-07
4.58107e-06
2.236743e-06
-5.419759e-06
8.605605e-05
-8.237429e-05
-3.423235e-07
1.613074e-05
-4.529466e-06
-5.486062e-06
-4.034884e-06
4.035346e-07
7.77025e-05
-6.256123e-05
-5.301717e-07
-1.680282e-05
6.748397e-07
4.654458e-07
6.479045e-07
1.9369e-06
4.537908e-05
-2.983073e-05
-6.636621e-07
-2.316894e-05
2.07251e-06
2.057409e-06
2.217438e-06
2.294914e-06
1.466176e-05
-3.0603e-06
-2.700271e-07
-2.084287e-05
2.384616e-06
2.379668e-06
2.452238e-06
2.131724e-06
-7.070597e-06
1.415926e-05
6.003428e-07
-1.623077e-05
2.1275e-06
2.154955e-06
2.127579e-06
1.556483e-06
-1.773823e-05
2.08479e-05
-3.054948e-07
-8.812004e-06
1.52107e-06
1.53962e-06
1.390657e-06
2.963239e-08
-1.89963e-05
2.25255e-05
-1.220274e-06
-1.872155e-06
-1.375551e-07
-5.53776e-08
-2.734745e-07
-1.174643e-06
-3.068728e-05
2.854905e-05
-1.087213e-07
7.340902e-06
-1.391506e-06
-1.176528e-06
-1.351274e-06
-2.40444e-06
-2.075466e-05
1.080631e-05
1.780382e-06
1.784643e-05
-2.64924e-06
-2.270598e-06
-2.354176e-06
-2.47661e-06
1.693153e-05
-4.119214e-05
1.090338e-06
3.559326e-05
-3.15232e-06
-3.2236e-06
-3.570459e-06
-5.773705e-06
5.150736e-05
-7.966274e-05
-1.493874e-07
5.265543e-05
-6.679432e-06
-5.688067e-06
-6.209466e-06
-4.611149e-06
0.0001069101
-0.0001092878
-1.378651e-06
2.115565e-05
-4.158268e-06
-4.87375e-06
-3.756162e-06
7.28451e-07
9.634387e-05
-7.446391e-05
2.37536e-07
-2.567452e-05
1.051361e-06
7.369348e-07
1.040278e-06
4.048028e-06
4.884908e-05
-1.478887e-05
-2.340436e-06
-4.857437e-05
4.480277e-06
3.977205e-06
4.349087e-06
6.257888e-06
-1.184559e-05
3.226593e-05
4.210394e-06
-4.960883e-05
6.568807e-06
5.947008e-06
6.204398e-06
8.904324e-06
-5.142658e-05
6.29616e-05
4.125001e-06
-4.774625e-05
7.137397e-06
8.171796e-06
7.872706e-06
4.239413e-06
-5.976329e-05
5.969404e-05
2.918374e-06
-1.86782e-05
3.050884e-06
4.448014e-06
4.090763e-06
3.503064e-06
-7.182388e-05
7.987612e-05
1.453839e-06
-2.313639e-05
3.147578e-06
3.616065e-06
3.363604e-06
2.748957e-06
-8.142809e-05
8.852996e-05
9.632919e-07
-1.789348e-05
2.229839e-06
2.429572e-06
2.419947e-06
1.939205e-06
-9.213247e-05
9.408214e-05
8.750363e-07
-8.811308e-06
1.661526e-06
1.329406e-06
1.056465e-06
8.011161e-07
-9.691123e-05
0.0001005703
2.779626e-07
-7.073789e-06
7.416858e-07
8.536346e-07
7.402852e-07
-2.074072e-07
-0.0001028033
0.0001069294
-4.036378e-06
9.364588e-07
-3.2785e-07
-1.996629e-07
-2.913399e-07
-7.189631e-07
-0.0001098215
0.0001108103
-3.810664e-06
5.752079e-06
-8.239246e-07
-6.653965e-07
-7.219345e-07
-1.121488e-06
-0.0001073758
0.000105799
-1.279603e-06
8.288318e-06
-1.324047e-06
-1.465005e-06
-1.521385e-06
-2.87596e-06
-9.76433e-05
9.467712e-05
-1.012132e-07
1.49171e-05
-3.343075e-06
-2.664929e-06
-2.965746e-06
-4.285457e-06
-8.546041e-05
7.385783e-05
2.232531e-06
2.681697e-05
-4.371465e-06
-4.38191e-06
-4.40808e-06
-3.410929e-06
-6.64848e-05
7.549385e-05
4.895117e-06
-1.31605e-06
-2.50513e-06
-3.831387e-06
-2.840673e-06
1.720694e-06
-9.561668e-05
0.0001224729
4.809997e-06
-3.93573e-05
2.288233e-06
1.566351e-06
2.115811e-06
4.75862e-06
-0.0001516909
0.0001779895
9.858411e-07
-4.676743e-05
4.935001e-06
4.622922e-06
5.166515e-06
5.28651e-06
-0.0002002629
0.0002161921
3.006717e-07
-3.748923e-05
5.226384e-06
5.463727e-06
5.282726e-06
4.892717e-06
-0.0002294298
0.0002369854
-6.906422e-08
-2.661839e-05
4.832696e-06
4.698071e-06
4.708335e-06
5.449938e-06
-0.0002409481
0.0002439643
3.281975e-07
-2.375324e-05
4.767371e-06
5.139802e-06
5.051701e-06
4.833336e-06
-0.0002371679
0.0002309293
-4.998944e-07
-1.138044e-05
4.751007e-06
5.73937e-06
2.795243e-06
1.407073e-06
-0.0002262828
0.000226711
-1.16458e-06
-7.200276e-06
1.848831e-06
2.988785e-06
1.692008e-06
7.10485e-07
-0.0002300574
0.0002296106
-1.581269e-06
-5.713195e-07
5.651875e-07
7.2774e-07
5.95903e-07
-6.868633e-08
-0.000227671
0.0002268875
-2.271327e-06
3.327584e-06
-1.544672e-07
-5.818081e-09
-4.374731e-08
-4.561248e-07
-0.0002261325
0.0002246968
-7.82267e-07
3.954213e-06
-4.913331e-07
-3.654974e-07
-4.232523e-07
-3.902181e-07
-0.0002209174
0.0002171127
1.571361e-06
4.001466e-06
-3.912849e-07
-4.877106e-07
-4.989252e-07
-4.977388e-07
-0.0002125638
0.0002099269
1.069683e-06
3.323394e-06
-3.054806e-07
-4.951084e-07
-4.578328e-07
-7.350862e-07
-0.0002069871
0.0002031295
4.90962e-07
6.603378e-06
-8.279116e-07
-7.831922e-07
-8.905247e-07
-1.033693e-06
-0.0001987705
0.0001947751
4.89032e-07
7.751056e-06
-1.08335e-06
-1.036951e-06
-1.090658e-06
-1.225865e-06
-0.0001912667
0.0001873826
3.095972e-07
8.55296e-06
-1.217615e-06
-1.265336e-06
-1.269606e-06
-1.096214e-06
-0.0001833533
0.0001773985
1.055082e-06
9.33097e-06
-1.008635e-06
-1.212518e-06
-1.113866e-06
-9.073373e-07
-0.0001741504
0.0001690592
7.217331e-07
8.545253e-06
-1.272401e-06
-9.55308e-07
-1.040705e-06
-2.093333e-06
-0.0001564948
0.0001495807
-8.043624e-09
1.555246e-05
-2.198424e-06
-1.981189e-06
-2.357387e-06
-4.422752e-06
-0.0001443844
0.0001279604
3.509148e-07
3.438842e-05
-4.72417e-06
-4.444838e-06
-4.723605e-06
-5.810487e-06
-0.0001045896
8.037343e-05
3.100039e-07
4.726972e-05
-5.885509e-06
-5.78735e-06
-5.880192e-06
-5.662672e-06
-5.680795e-05
4.603484e-05
-1.032119e-06
3.281961e-05
-4.914269e-06
-5.592911e-06
-4.844534e-06
-1.063266e-06
-5.069068e-05
6.940007e-05
-3.103389e-06
-1.396218e-05
7.916191e-08
-8.76832e-07
2.171168e-07
1.819e-06
-9.572256e-05
0.0001127147
-1.57962e-06
-2.747301e-05
3.964008e-06
3.087734e-06
3.189723e-06
2.521473e-06
-0.0001323363
0.0001578214
-1.826072e-06
-3.328934e-05
2.239241e-06
2.542871e-06
2.326799e-06
4.933149e-07
-0.0001787167
0.0001966657
-1.45596e-06
-1.736347e-05
2.993026e-09
4.671239e-07
-9.300327e-08
1.616798e-06
-0.0002090095
0.0002068412
-2.588373e-07
-9.37028e-06
5.13891e-06
1.195748e-06
3.845967e-06
4.185976e-07
-0.0002257045
0.0002231715
-1.137283e-06
-6.428094e-06
2.929493e-06
3.211856e-06
3.538434e-06
1.899935e-06
-0.0002166938
0.0002152153
-6.145233e-07
-8.072231e-06
2.085976e-06
3.205913e-06
2.973421e-06
2.93535e-06
-0.0002082883
0.0002028002
-1.327624e-06
-4.630825e-06
3.221392e-06
4.070459e-06
1.219361e-06
5.229444e-06
-0.0001936746
0.0001793255
-1.22579e-06
5.082815e-07
4.514435e-06
3.782646e-06
1.540055e-06
-1.45522e-06
-0.0001804495
0.0001716968
1.573511e-06
1.035706e-05
8.374778e-07
-2.287437e-06
-2.726556e-07
4.675475e-07
-0.0001629084
0.0001539175
2.278903e-06
1.212141e-06
8.010173e-08
2.533613e-06
2.418561e-06
-1.744856e-06
-0.0001476604
0.000146896
5.957166e-06
6.808712e-06
-2.145988e-06
-4.311801e-06
-3.798832e-06
-5.438113e-06
-0.0001410156
0.0001352862
5.131499e-06
2.533321e-05
-8.499632e-06
-6.266643e-06
-4.530926e-06
-2.203245e-06
-0.0001125084
7.900483e-05
-1.703921e-06
6.307443e-05
-1.134692e-05
-4.765128e-06
-9.551645e-06
-5.280039e-06
-6.060074e-05
4.59041e-05
-5.077289e-06
7.274724e-05
-1.352241e-05
-1.830748e-05
-1.586337e-05
-4.101254e-06
-4.860228e-05
5.926589e-05
-6.218006e-06
4.908396e-06
-1.002555e-06
-3.946352e-06
-3.038362e-07
2.084703e-06