/*--------------------------------*- C++ -*----------------------------------*\
| =========                 |                                                 |
| \\      /  F ield         | foam-extend: Open Source CFD                    |
|  \\    /   O peration     | Version:     3.1                                |
|   \\  /    A nd           | Web:         http://www.extend-project.de       |
|    \\/     M anipulation  |                                                 |
\*---------------------------------------------------------------------------*/
FoamFile
{
    version     2.0;
    format      ascii;
    class       volScalarField;
    location    "40";
    object      alpha;
}
// * * * * * * * * * * * * * * * * * * * * * * * * * * * * * * * * * * * * * //

dimensions      [0 0 -1 0 0 0 0];

internalField   nonuniform List<scalar> 
2539
(
0.00548373
0.00549269
0.00550671
0.00552058
0.0055345
0.00554848
0.00556252
0.0055766
0.00559074
0.00560494
0.00561919
0.0056335
0.00564786
0.00566228
0.00567675
0.00569128
0.00570587
0.00572052
0.00573522
0.00574998
0.0057648
0.00577967
0.00579461
0.00580961
0.00582466
0.00583977
0.00585495
0.00587018
0.00588548
0.00590083
0.00591625
0.00593173
0.00594727
0.00596287
0.00597854
0.00599427
0.00601007
0.00602592
0.00604184
0.00605783
0.00607388
0.00609
0.00610618
0.00612243
0.00613875
0.00615513
0.00617158
0.0061881
0.00620468
0.00622134
0.00623806
0.00625485
0.00627171
0.00628865
0.00630565
0.00632272
0.00633987
0.00635708
0.00637437
0.00639173
0.00640917
0.00642668
0.00644426
0.00646192
0.00647965
0.00649746
0.00651534
0.0065333
0.00655133
0.00656945
0.00658764
0.0066059
0.00662425
0.00664268
0.00666118
0.00667977
0.00669844
0.00671718
0.00673601
0.00675492
0.00677392
0.00679299
0.00681215
0.0068314
0.00685073
0.00687014
0.00688964
0.00690923
0.0069289
0.00694866
0.00696851
0.00698845
0.00700847
0.00702859
0.00704879
0.00706909
0.00708948
0.00710996
0.00713053
0.0071512
0.00717195
0.00719281
0.00721376
0.0072348
0.00725594
0.00727718
0.00729851
0.00731995
0.00734148
0.00736311
0.00738484
0.00740668
0.00742861
0.00745065
0.00747278
0.00749503
0.00751737
0.00753983
0.00756238
0.00758505
0.00760782
0.0076307
0.00765368
0.00767678
0.00769999
0.00772331
0.00774674
0.00777028
0.00779393
0.0078177
0.00784159
0.00786559
0.0078897
0.00791394
0.00793829
0.00796276
0.00798735
0.00801206
0.00803689
0.00806185
0.00808693
0.00811213
0.00813745
0.00816291
0.00818849
0.0082142
0.00824003
0.008266
0.0082921
0.00831833
0.00834469
0.00837118
0.00839781
0.00842458
0.00845148
0.00847852
0.0085057
0.00853301
0.00856047
0.00858807
0.00861581
0.0086437
0.00867173
0.00869991
0.00872824
0.00875671
0.00878534
0.00881411
0.00884304
0.00887212
0.00890136
0.00893075
0.00896029
0.00899
0.00901986
0.00904989
0.00908008
0.00911043
0.00914094
0.00917162
0.00920247
0.00923349
0.00926467
0.00929603
0.00933173
0.00416728
0.00418153
0.00418623
0.00419043
0.00419462
0.00419881
0.00420301
0.00420721
0.00421142
0.00421564
0.00421987
0.0042241
0.00422834
0.00423259
0.00423684
0.0042411
0.00424537
0.00424964
0.00425393
0.00425821
0.00426251
0.00426681
0.00427112
0.00427544
0.00427977
0.0042841
0.00428844
0.00429278
0.00429714
0.0043015
0.00430586
0.00431024
0.00431462
0.00431901
0.00432341
0.00432781
0.00433223
0.00433665
0.00434107
0.00434551
0.00434995
0.0043544
0.00435886
0.00436332
0.00436779
0.00437227
0.00437676
0.00438125
0.00438576
0.00439027
0.00439478
0.00439931
0.00440384
0.00440838
0.00441293
0.00441749
0.00442205
0.00442662
0.0044312
0.00443579
0.00444038
0.00444499
0.0044496
0.00445422
0.00445885
0.00446348
0.00446812
0.00447277
0.00447743
0.0044821
0.00448678
0.00449146
0.00449615
0.00450085
0.00450556
0.00451027
0.004515
0.00451973
0.00452447
0.00452922
0.00453398
0.00453874
0.00454351
0.0045483
0.00455309
0.00455789
0.00456269
0.00456751
0.00457233
0.00457717
0.00458201
0.00458686
0.00459171
0.00459658
0.00460146
0.00460634
0.00461123
0.00461614
0.00462105
0.00462596
0.00463089
0.00463583
0.00464077
0.00464573
0.00465069
0.00465566
0.00466064
0.00466563
0.00467063
0.00467564
0.00468065
0.00468568
0.00469071
0.00469576
0.00470081
0.00470587
0.00471094
0.00471602
0.00472111
0.00472621
0.00473132
0.00473644
0.00474156
0.0047467
0.00475184
0.004757
0.00476216
0.00476733
0.00477252
0.00477771
0.00478291
0.00478812
0.00479334
0.00479857
0.00480381
0.00480906
0.00481432
0.00481959
0.00482487
0.00483015
0.00483545
0.00484076
0.00484608
0.00485141
0.00485674
0.00486209
0.00486745
0.00487282
0.00487819
0.00488358
0.00488898
0.00489438
0.0048998
0.00490523
0.00491067
0.00491612
0.00492157
0.00492704
0.00493252
0.00493801
0.00494351
0.00494902
0.00495454
0.00496007
0.00496561
0.00497117
0.00497673
0.0049823
0.00498788
0.00499348
0.00499908
0.0050047
0.00501033
0.00501596
0.00502161
0.00502727
0.00503294
0.00503862
0.00504431
0.00505001
0.00505573
0.00506145
0.00506719
0.00507293
0.00507869
0.00508446
0.00509024
0.00509603
0.00510183
0.00510765
0.00511347
0.00511931
0.00512516
0.00513101
0.00513689
0.00514277
0.00514866
0.00515451
0.00516162
0.00514349
0.00268791
0.00301435
0.00344104
0.00372705
0.00392061
0.00406454
0.00418097
0.00428139
0.00437193
0.00445601
0.00453558
0.00461186
0.00468561
0.00475735
0.00482747
0.00489622
0.00496383
0.00503046
0.00509625
0.00516131
0.00522574
0.00528962
0.00535301
0.00541599
0.00547861
0.00554091
0.00560294
0.00566474
0.00572635
0.00578779
0.0058491
0.0059103
0.00597142
0.00603249
0.00609352
0.00615454
0.00621557
0.00627661
0.0063377
0.00639885
0.00646007
0.00652139
0.0065828
0.00664434
0.006706
0.00676782
0.00682979
0.00689194
0.00695427
0.0070168
0.00707954
0.00714251
0.00720571
0.00726916
0.00733288
0.00739687
0.00746116
0.00752574
0.00759065
0.00765589
0.00772148
0.00778744
0.00785378
0.00792052
0.00798768
0.00805528
0.00812334
0.0081919
0.00826096
0.00833056
0.00840073
0.0084715
0.00854291
0.008615
0.00868781
0.00876139
0.0088358
0.0089111
0.00898737
0.00906469
0.00914316
0.00922289
0.00930403
0.00938673
0.00947119
0.00955767
0.00964646
0.00973795
0.00983263
0.00993111
0.0100342
0.0101429
0.0102586
0.0103828
0.0105177
0.0106659
0.0108302
0.0110139
0.0112199
0.0114501
0.0120844
0.012378
0.0126565
0.0129222
0.0131768
0.0134217
0.0136581
0.013887
0.0141091
0.0143252
0.0145357
0.0147413
0.0149424
0.0151393
0.0153323
0.0155218
0.015708
0.0158911
0.0160714
0.0162491
0.0164242
0.016597
0.0167676
0.0169361
0.0171026
0.0172673
0.0174302
0.0175914
0.017751
0.0179091
0.0180658
0.018221
0.018375
0.0185276
0.0186791
0.0188293
0.0189785
0.0191266
0.0192736
0.0194197
0.0195647
0.0197089
0.0198521
0.0199945
0.0201361
0.0202768
0.0204168
0.020556
0.0206944
0.0208322
0.0209693
0.0211056
0.0212414
0.0213765
0.021511
0.0216448
0.0217781
0.0219109
0.0220431
0.0221747
0.0223058
0.0224364
0.0225665
0.0226961
0.0228253
0.0229539
0.0230821
0.0232099
0.0233372
0.0234642
0.0235906
0.0237167
0.0238424
0.0239677
0.0240926
0.0242172
0.0243414
0.0244652
0.0245886
0.0247118
0.0248345
0.024957
0.0250791
0.0252009
0.0253224
0.0254436
0.0255644
0.025685
0.0258053
0.0259253
0.026045
0.0261644
0.0262834
0.0264023
0.0265211
0.0266403
0.0267601
0.0268792
0.0269933
0.0270944
0.0271789
0.0272552
0.0273314
0.0274076
0.0274836
0.0275595
0.0276352
0.0277109
0.0277865
0.0278619
0.0279373
0.0280125
0.0280877
0.0281627
0.0282376
0.0283125
0.0283872
0.0284618
0.0285364
0.0286108
0.0286851
0.0287594
0.0288335
0.0289075
0.0289815
0.0290553
0.0291291
0.0292028
0.0292763
0.0293498
0.0294232
0.0294965
0.0295697
0.0296429
0.0297159
0.0297888
0.0298617
0.0299345
0.0300072
0.0300798
0.0301523
0.0302247
0.0302971
0.0303693
0.0304415
0.0305136
0.0305857
0.0306576
0.0307295
0.0308012
0.0308729
0.0309446
0.0310161
0.0310876
0.031159
0.0312303
0.0313015
0.0313727
0.0314438
0.0315148
0.0315857
0.0316566
0.0317274
0.0317981
0.0318687
0.0319393
0.0320098
0.0320802
0.0321506
0.0322209
0.0322911
0.0323612
0.0324313
0.0325013
0.0325712
0.0326411
0.0327109
0.0327806
0.0328503
0.0329199
0.0329894
0.0330589
0.0331283
0.0331976
0.0332669
0.0333361
0.0334052
0.0334743
0.0335433
0.0336123
0.0336811
0.03375
0.0338187
0.0338874
0.033956
0.0340246
0.0340931
0.0341616
0.0342299
0.0342983
0.0343665
0.0344347
0.0345029
0.034571
0.034639
0.034707
0.0347749
0.0348427
0.0349105
0.0349782
0.0350459
0.0351135
0.0351811
0.0352486
0.035316
0.0353834
0.0354507
0.035518
0.0355852
0.0356524
0.0357195
0.0357865
0.0358535
0.0359205
0.0359873
0.0360542
0.0361209
0.0361877
0.0362543
0.0363209
0.0363875
0.036454
0.0365205
0.0365869
0.0366532
0.0367195
0.0367858
0.0368519
0.0369181
0.0369842
0.0370502
0.0371162
0.0371821
0.037248
0.0373138
0.0373796
0.0374453
0.037511
0.0375766
0.0376422
0.0377077
0.0377732
0.0378386
0.037904
0.0379693
0.0380346
0.0380998
0.038165
0.0382302
0.0382952
0.0383603
0.0384253
0.0384902
0.0385551
0.0386199
0.0386847
0.0387495
0.0388142
0.0388788
0.0389434
0.039008
0.0390725
0.039137
0.0392014
0.0392658
0.0393301
0.0393944
0.0394586
0.0395228
0.0395869
0.039651
0.0397151
0.0397791
0.039843
0.0399069
0.0399708
0.0400346
0.0400984
0.0401621
0.0402258
0.0402895
0.0403531
0.0404166
0.0404801
0.0405436
0.040607
0.0406704
0.0407337
0.040797
0.0408603
0.0409235
0.0409866
0.0410497
0.0411128
0.0411758
0.0412388
0.0413018
0.0413647
0.0414275
0.0414903
0.0415531
0.0416159
0.0416785
0.0417412
0.0418038
0.0418664
0.0419289
0.0419914
0.0420538
0.0421162
0.0421785
0.0422408
0.0423031
0.0423653
0.0424275
0.0424897
0.0425518
0.0426139
0.0426759
0.0427379
0.0427998
0.0428617
0.0429236
0.0429854
0.0430472
0.0431089
0.0431706
0.0432323
0.0432939
0.0433555
0.043417
0.0434785
0.0435399
0.0436014
0.0436627
0.0437241
0.0437854
0.0438466
0.0439079
0.043969
0.0440302
0.0440913
0.0441524
0.0442134
0.0442744
0.0443353
0.0443962
0.0444571
0.0445179
0.0445787
0.0446395
0.0447002
0.0447609
0.0448215
0.0448821
0.0449427
0.0450032
0.0450637
0.0451241
0.0451845
0.0452449
0.0453052
0.0453655
0.0454258
0.045486
0.0455462
0.0456063
0.0456664
0.0457265
0.0457865
0.0458465
0.0459065
0.0459664
0.0460263
0.0460861
0.0461459
0.0462057
0.0462654
0.0463251
0.0463848
0.0464444
0.046504
0.0465636
0.0466231
0.0466825
0.046742
0.0468014
0.0468607
0.0469201
0.0469794
0.0470386
0.0470979
0.047157
0.0472162
0.0472753
0.0473344
0.0473934
0.0474524
0.0475114
0.0475703
0.0476292
0.0476881
0.0477469
0.0478057
0.0478644
0.0479232
0.0479818
0.0480405
0.0480991
0.0481577
0.0482162
0.0482747
0.0483332
0.0483916
0.04845
0.0485084
0.0485667
0.048625
0.0486832
0.0487415
0.0487997
0.0488578
0.0489159
0.048974
0.0490321
0.0490901
0.049148
0.049206
0.0492639
0.0493218
0.0493796
0.0494374
0.0494952
0.0495529
0.0496108
0.0496685
0.0497257
0.0497818
0.0498377
0.0498983
0.049969
0.0500456
0.0501221
0.0501986
0.0502751
0.0503515
0.0504279
0.0505042
0.0505805
0.0506567
0.0507329
0.050809
0.0508851
0.0509611
0.0510371
0.0511131
0.051189
0.0512648
0.0513406
0.0514164
0.0514921
0.0515678
0.0516434
0.051719
0.0517945
0.05187
0.0519455
0.0520209
0.0520962
0.0521715
0.0522468
0.052322
0.0523972
0.0524723
0.0525474
0.0526224
0.0526974
0.0527723
0.0528472
0.0529221
0.0529969
0.0530717
0.0531464
0.0532211
0.0532957
0.0533703
0.0534448
0.0535193
0.0535938
0.0536682
0.0537426
0.0538169
0.0538912
0.0539654
0.0540396
0.0541137
0.0541878
0.0542619
0.0543359
0.0544099
0.0544838
0.0545577
0.0546315
0.0547053
0.0547791
0.0548528
0.0549264
0.055
0.0550736
0.0551472
0.0552206
0.0552941
0.0553675
0.0554409
0.0555142
0.0555874
0.0556607
0.0557339
0.055807
0.0558801
0.0559532
0.0560262
0.0560991
0.0561721
0.0562449
0.0563178
0.0563906
0.0564633
0.0565361
0.0566087
0.0566814
0.0567539
0.0568265
0.056899
0.0569714
0.0570439
0.0571162
0.0571886
0.0572608
0.0573331
0.0574053
0.0574775
0.0575496
0.0576217
0.0576937
0.0577657
0.0578376
0.0579095
0.0579814
0.0580532
0.058125
0.0581967
0.0582684
0.0583401
0.0584117
0.0584833
0.0585548
0.0586263
0.0586977
0.0587691
0.0588405
0.0589118
0.0589831
0.0590543
0.0591255
0.0591967
0.0592678
0.0593389
0.0594099
0.0594809
0.0595518
0.0596228
0.0596936
0.0597644
0.0598352
0.059906
0.0599767
0.0600473
0.0601179
0.0601885
0.060259
0.0603295
0.0604
0.0604704
0.0605408
0.0606111
0.0606814
0.0607516
0.0608218
0.060892
0.0609621
0.0610322
0.0611022
0.0611722
0.0612422
0.0613121
0.061382
0.0614518
0.0615216
0.0615914
0.0616611
0.0617308
0.0618004
0.06187
0.0619396
0.0620091
0.0620785
0.062148
0.0622173
0.0622867
0.0623561
0.0624254
0.0624944
0.0625626
0.0626308
0.0627026
0.0627828
0.0628654
0.0629109
0.092687
0.0925812
0.0925467
0.0925785
0.0926028
0.0926256
0.092646
0.0926587
0.0926603
0.0926541
0.0926461
0.0926362
0.0926196
0.0925937
0.0925609
0.0925238
0.0924803
0.0924309
0.0923745
0.092311
0.0922432
0.09217
0.0920929
0.0920109
0.0919207
0.0918226
0.0917174
0.0916068
0.0914921
0.0913723
0.0912442
0.0911087
0.0909673
0.0908218
0.0906722
0.0905169
0.0903567
0.0901902
0.0900153
0.0898349
0.0896508
0.0894586
0.0892575
0.0890521
0.0888424
0.088627
0.0884071
0.0881821
0.0879501
0.0877128
0.0874714
0.0872247
0.08697
0.0867078
0.0864397
0.0861672
0.0858907
0.0856088
0.0853229
0.0850315
0.0847318
0.0844244
0.0841111
0.0837946
0.0834754
0.0831521
0.0828237
0.0824871
0.0821433
0.0817935
0.0814392
0.0810802
0.0807152
0.080346
0.0799727
0.0795942
0.0792116
0.0788233
0.0784261
0.0780205
0.0776087
0.0771943
0.0767799
0.0763652
0.0759499
0.0755314
0.075099
0.0746372
0.074142
0.073634
0.073166
0.072808
0.0725939
0.0724292
0.0720328
0.0710225
0.0692256
0.0671217
0.0660557
0.0679696
0.0745162
0.0572877
0.0653805
0.0654498
0.065519
0.0655882
0.0656574
0.0657265
0.0657956
0.0658646
0.0659336
0.0660026
0.0660715
0.0661404
0.0662092
0.066278
0.0663468
0.0664155
0.0664842
0.0665528
0.0666214
0.06669
0.0667585
0.066827
0.0668955
0.0669639
0.0670322
0.0671005
0.0671688
0.0672371
0.0673053
0.0673734
0.0674415
0.0675096
0.0675777
0.0676457
0.0677136
0.0677815
0.0678494
0.0679173
0.0679851
0.0680528
0.0681205
0.0681882
0.0682559
0.0683235
0.068391
0.0684586
0.068526
0.0685935
0.0686609
0.0687283
0.0687956
0.0688629
0.0689301
0.0689973
0.0690645
0.0691316
0.0691987
0.0692657
0.0693328
0.0693997
0.0694666
0.0695335
0.0696004
0.0696672
0.069734
0.0698007
0.0698674
0.0699341
0.0700007
0.0700672
0.0701338
0.0702003
0.0702667
0.0703331
0.0703995
0.0704659
0.0705322
0.0705984
0.0706647
0.0707309
0.070797
0.070863
0.0709287
0.0709945
0.0710618
0.0711323
0.0712017
0.0712528
0.0712688
0.071265
0.0712612
0.0712574
0.0712536
0.0712498
0.071246
0.0712422
0.0712384
0.0712347
0.0712309
0.0712271
0.0712233
0.0712195
0.0712158
0.071212
0.0712082
0.0712045
0.0712007
0.0711969
0.0711932
0.0711894
0.0711857
0.0711819
0.0711782
0.0711744
0.0711707
0.0711669
0.0711632
0.0711595
0.0711557
0.071152
0.0711483
0.0711445
0.0711408
0.0711371
0.0711333
0.0711296
0.0711259
0.0711222
0.0711185
0.0711148
0.0711111
0.0711074
0.0711037
0.0711
0.0710963
0.0710926
0.0710889
0.0710852
0.0710815
0.0710778
0.0710741
0.0710704
0.0710668
0.0710631
0.0710594
0.0710557
0.0710521
0.0710484
0.0710447
0.0710411
0.0710374
0.0710337
0.0710301
0.0710264
0.0710228
0.0710191
0.0710155
0.0710118
0.0710082
0.0710045
0.0710009
0.0709973
0.0709936
0.07099
0.0709864
0.0709827
0.0709791
0.0709755
0.0709719
0.0709682
0.0709646
0.070961
0.0709574
0.0709538
0.0709502
0.0709466
0.070943
0.0709394
0.0709358
0.0709322
0.0709286
0.070925
0.0709214
0.0709178
0.0709142
0.0709106
0.0709071
0.0709035
0.0708999
0.0708963
0.0708928
0.0708892
0.0708856
0.070882
0.0708785
0.0708749
0.0708714
0.0708678
0.0708643
0.0708607
0.0708572
0.0708536
0.0708501
0.0708465
0.070843
0.0708394
0.0708359
0.0708324
0.0708288
0.0708253
0.0708218
0.0708182
0.0708147
0.0708112
0.0708077
0.0708042
0.0708006
0.0707971
0.0707936
0.0707901
0.0707866
0.0707831
0.0707796
0.0707761
0.0707726
0.0707691
0.0707656
0.0707621
0.0707586
0.0707552
0.0707517
0.0707482
0.0707447
0.0707412
0.0707377
0.0707343
0.0707308
0.0707273
0.0707239
0.0707204
0.0707169
0.0707135
0.07071
0.0707066
0.0707031
0.0706997
0.0706962
0.0706928
0.0706893
0.0706859
0.0706824
0.070679
0.0706755
0.0706721
0.0706687
0.0706652
0.0706618
0.0706584
0.070655
0.0706515
0.0706481
0.0706447
0.0706413
0.0706379
0.0706345
0.0706311
0.0706276
0.0706242
0.0706208
0.0706174
0.070614
0.0706106
0.0706072
0.0706039
0.0706005
0.0705971
0.0705937
0.0705903
0.0705869
0.0705835
0.0705802
0.0705768
0.0705734
0.07057
0.0705667
0.0705633
0.0705599
0.0705566
0.0705532
0.0705498
0.0705465
0.0705431
0.0705398
0.0705364
0.0705331
0.0705297
0.0705264
0.070523
0.0705197
0.0705166
0.0705136
0.0705096
0.0705034
0.0704966
0.0704999
0.0705301
0.0705712
0.0704998
0.0701089
0.069547
0.0702203
0.0748941
0.0827671
0.0758358
0.0387891
0.00992909
0.00301842
0.00224029
0.00221
0.00220731
0.00220492
0.00220254
0.00220017
0.00219779
0.00219543
0.00219306
0.0021907
0.00218835
0.00218599
0.00218365
0.0021813
0.00217896
0.00217663
0.0021743
0.00217197
0.00216965
0.00216733
0.00216501
0.0021627
0.00216039
0.00215809
0.00215579
0.0021535
0.00215121
0.00214892
0.00214664
0.00214436
0.00214208
0.00213981
0.00213754
0.00213528
0.00213302
0.00213076
0.00212851
0.00212626
0.00212402
0.00212178
0.00211954
0.00211731
0.00211508
0.00211286
0.00211063
0.00210842
0.0021062
0.00210399
0.00210179
0.00209959
0.00209739
0.00209519
0.002093
0.00209081
0.00208863
0.00208645
0.00208427
0.0020821
0.00207993
0.00207776
0.0020756
0.00207344
0.00207129
0.00206914
0.00206699
0.00206485
0.00206271
0.00206057
0.00205844
0.00205631
0.00205418
0.00205207
0.00205036
0.00204971
0.00204974
0.00204975
0.00204976
0.00204977
0.00204978
0.00204979
0.00204981
0.00204982
0.00204983
0.00204984
0.00204985
0.00204986
0.00204988
0.00204989
0.0020499
0.00204991
0.00204992
0.00204994
0.00204995
0.00204996
0.00204997
0.00204998
0.00205
0.00205001
0.00205002
0.00205003
0.00205004
0.00205005
0.00205007
0.00205008
0.00205009
0.0020501
0.00205011
0.00205013
0.00205014
0.00205015
0.00205016
0.00205017
0.00205019
0.0020502
0.00205021
0.00205022
0.00205023
0.00205025
0.00205026
0.00205027
0.00205028
0.0020503
0.00205031
0.00205032
0.00205033
0.00205034
0.00205036
0.00205037
0.00205038
0.00205039
0.0020504
0.00205042
0.00205043
0.00205044
0.00205045
0.00205046
0.00205048
0.00205049
0.0020505
0.00205051
0.00205052
0.00205054
0.00205055
0.00205056
0.00205057
0.00205058
0.0020506
0.00205061
0.00205062
0.00205063
0.00205064
0.00205066
0.00205067
0.00205068
0.00205069
0.0020507
0.00205072
0.00205073
0.00205074
0.00205075
0.00205076
0.00205077
0.00205079
0.0020508
0.00205081
0.00205082
0.00205083
0.00205085
0.00205086
0.00205087
0.00205088
0.00205089
0.00205091
0.00205092
0.00205093
0.00205094
0.00205095
0.00205096
0.00205098
0.00205099
0.002051
0.00205101
0.00205102
0.00205103
0.00205105
0.00205106
0.00205107
0.00205108
0.00205109
0.00205111
0.00205112
0.00205113
0.00205114
0.00205115
0.00205116
0.00205118
0.00205119
0.0020512
0.00205121
0.00205122
0.00205123
0.00205125
0.00205126
0.00205127
0.00205128
0.00205129
0.0020513
0.00205131
0.00205133
0.00205134
0.00205135
0.00205136
0.00205137
0.00205138
0.0020514
0.00205141
0.00205142
0.00205143
0.00205144
0.00205145
0.00205146
0.00205148
0.00205149
0.0020515
0.00205151
0.00205152
0.00205153
0.00205154
0.00205156
0.00205157
0.00205158
0.00205159
0.0020516
0.00205161
0.00205162
0.00205164
0.00205165
0.00205166
0.00205167
0.00205168
0.00205169
0.0020517
0.00205171
0.00205173
0.00205174
0.00205175
0.00205176
0.00205177
0.00205178
0.00205179
0.0020518
0.00205182
0.00205183
0.00205184
0.00205185
0.00205186
0.00205187
0.00205188
0.00205189
0.0020519
0.00205191
0.00205193
0.00205194
0.00205195
0.00205196
0.00205197
0.00205198
0.00205199
0.002052
0.00205201
0.00205202
0.00205203
0.00205205
0.00205206
0.00205207
0.00205208
0.00205209
0.0020521
0.00205211
0.00205212
0.00205213
0.00205214
0.00205215
0.00205216
0.00205217
0.00205219
0.0020522
0.00205221
0.00205222
0.00205223
0.00205224
0.00205225
0.00205226
0.00205227
0.00205228
0.00205229
0.0020523
0.00205231
0.00205232
0.00205233
0.00205234
0.00205235
0.00205236
0.00205238
0.00205239
0.0020524
0.00205241
0.00205242
0.00205243
0.00205244
0.00205245
0.00205246
0.00205247
0.00205248
0.00205249
0.0020525
0.00205251
0.00205252
0.00205253
0.00205254
0.00205255
0.00205256
0.00205257
0.00205258
0.00205259
0.0020526
0.00205261
0.00205262
0.00205263
0.00205264
0.00205265
0.00205266
0.00205267
0.00205268
0.00205269
0.0020527
0.00205271
0.00205272
0.00205273
0.00205274
0.00205275
0.00205276
0.00205277
0.00205278
0.00205279
0.0020528
0.00205281
0.00205282
0.00205283
0.00205284
0.00205285
0.00205286
0.00205287
0.00205288
0.00205289
0.0020529
0.00205291
0.00205292
0.00205293
0.00205294
0.00205295
0.00205296
0.00205297
0.00205298
0.00205299
0.002053
0.00205301
0.00205302
0.00205303
0.00205304
0.00205305
0.00205306
0.00205307
0.00205308
0.00205309
0.0020531
0.00205311
0.00205312
0.00205313
0.00205314
0.00205315
0.00205316
0.00205317
0.00205318
0.00205319
0.0020532
0.00205321
0.00205322
0.00205323
0.00205324
0.00205325
0.00205326
0.00205327
0.00205328
0.00205329
0.0020533
0.00205331
0.00205332
0.00205333
0.00205334
0.00205335
0.00205336
0.00205337
0.00205338
0.00205339
0.0020534
0.00205341
0.00205342
0.00205343
0.00205344
0.00205345
0.00205346
0.00205347
0.00205348
0.00205349
0.0020535
0.00205351
0.00205352
0.00205353
0.00205354
0.00205355
0.00205356
0.00205357
0.00205358
0.00205359
0.0020536
0.00205361
0.00205362
0.00205363
0.00205364
0.00205365
0.00205366
0.00205367
0.00205368
0.00205369
0.0020537
0.00205371
0.00205372
0.00205373
0.00205374
0.00205375
0.00205376
0.00205377
0.00205378
0.00205379
0.0020538
0.00205381
0.00205382
0.00205383
0.00205384
0.00205385
0.00205386
0.00205387
0.00205388
0.00205389
0.0020539
0.00205391
0.00205392
0.00205393
0.00205394
0.00205395
0.00205396
0.00205397
0.00205398
0.00205399
0.002054
0.00205401
0.00205402
0.00205403
0.00205404
0.00205405
0.00205406
0.00205407
0.00205408
0.00205409
0.0020541
0.00205411
0.00205412
0.00205413
0.00205414
0.00205415
0.00205416
0.00205417
0.00205418
0.00205419
0.0020542
0.00205421
0.00205422
0.00205423
0.00205424
0.00205425
0.00205426
0.00205427
0.00205428
0.00205429
0.0020543
0.00205431
0.00205432
0.00205433
0.00205434
0.00205435
0.00205436
0.00205437
0.00205438
0.00205439
0.0020544
0.00205441
0.00205442
0.00205443
0.00205444
0.00205445
0.00205446
0.00205447
0.00205448
0.00205449
0.0020545
0.00205451
0.00205452
0.00205453
0.00205454
0.00205455
0.00205456
0.00205457
0.00205458
0.00205459
0.0020546
0.00205461
0.00205462
0.00205463
0.00205464
0.00205465
0.00205466
0.00205467
0.00205468
0.00205469
0.0020547
0.00205471
0.00205472
0.00205473
0.00205474
0.00205475
0.00205476
0.00205477
0.00205478
0.00205479
0.0020548
0.00205481
0.00205482
0.00205483
0.00205484
0.00205485
0.00205486
0.00205487
0.00205488
0.00205489
0.0020549
0.00205491
0.00205492
0.00205493
0.00205494
0.00205495
0.00205496
0.00205497
0.00205498
0.00205499
0.002055
0.00205501
0.00205502
0.00205503
0.00205504
0.00205505
0.00205506
0.00205507
0.00205508
0.00205509
0.0020551
0.00205511
0.00205512
0.00205513
0.00205514
0.00205515
0.00205516
0.00205517
0.00205518
0.00205519
0.0020552
0.00205521
0.00205522
0.00205523
0.00205524
0.00205525
0.00205526
0.00205527
0.00205528
0.00205529
0.0020553
0.00205531
0.00205532
0.00205533
0.00205534
0.00205535
0.00205536
0.00205537
0.00205538
0.00205539
0.0020554
0.00205541
0.00205542
0.00205543
0.00205544
0.00205545
0.00205546
0.00205547
0.00205548
0.00205549
0.0020555
0.00205551
0.00205552
0.00205553
0.00205554
0.00205555
0.00205556
0.00205557
0.00205558
0.00205559
0.0020556
0.00205561
0.00205562
0.00205563
0.00205564
0.00205565
0.00205566
0.00205567
0.00205568
0.00205569
0.0020557
0.00205571
0.00205572
0.00205572
0.00205573
0.00205574
0.00205575
0.00205576
0.00205577
0.00205578
0.00205579
0.0020558
0.00205581
0.00205582
0.00205583
0.00205584
0.00205585
0.00205586
0.00205587
0.00205588
0.00205589
0.0020559
0.00205591
0.00205592
0.00205593
0.00205594
0.00205595
0.00205596
0.00205597
0.00205598
0.00205599
0.002056
0.00205601
0.00205602
0.00205603
0.00205604
0.00205605
0.00205606
0.00205607
0.00205608
0.00205609
0.0020561
0.00205611
0.00205611
0.00205612
0.00205613
0.00205614
0.00205615
0.00205616
0.00205617
0.00205618
0.00205619
0.0020562
0.00205621
0.00205622
0.00205623
0.00205624
0.00205625
0.00205626
0.00205627
0.00205628
0.00205629
0.0020563
0.00205631
0.00205632
0.00205632
0.00205633
0.00205634
0.00205635
0.00205636
0.00205637
0.00205638
0.00205639
0.0020564
0.00205641
0.00205642
0.00205643
0.00205644
0.00205645
0.00205646
0.00205647
0.00205648
0.00205649
0.0020565
0.0020565
0.00205651
0.00205652
0.00205653
0.00205654
0.00205655
0.00205656
0.00205657
0.00205658
0.00205659
0.0020566
0.00205661
0.00205662
0.00205663
0.00205664
0.00205665
0.00205665
0.00205666
0.00205667
0.00205668
0.00205669
0.0020567
0.00205671
0.00205672
0.00205673
0.00205674
0.00205675
0.00205676
0.00205677
0.00205678
0.00205679
0.00205679
0.0020568
0.00205681
0.00205682
0.00205683
0.00205684
0.00205685
0.00205686
0.00205687
0.00205688
0.00205689
0.0020569
0.00205691
0.00205691
0.00205692
0.00205693
0.00205694
0.00205695
0.00205696
0.00205697
0.00205698
0.00205699
0.002057
0.00205701
0.00205702
0.00205703
0.00205703
0.00205704
0.00205705
0.00205706
0.00205707
0.00205708
0.00205709
0.0020571
0.00205711
0.00205712
0.00205713
0.00205714
0.00205714
0.00205715
0.00205716
0.00205717
0.00205718
0.00205719
0.0020572
0.00205721
0.00205722
0.00205723
0.00205724
0.00205725
0.00205725
0.00205726
0.00205727
0.00205728
0.00205729
0.0020573
0.00205731
0.00205732
0.00205733
0.00205733
0.00205734
0.00205735
0.00205736
0.00205737
0.00205738
0.00205739
0.0020574
0.00205741
0.00205741
0.00205742
0.00205743
0.00205744
0.00205745
0.00205746
0.00205747
0.00205748
0.00205749
0.00205749
0.0020575
0.00205751
0.00205752
0.00205753
0.00205754
0.00205755
0.00205756
0.00205756
0.00205757
0.00205758
0.00205759
0.0020576
0.00205761
0.00205762
0.00205763
0.00205763
0.00205764
0.00205765
0.00205766
0.00205767
0.00205768
0.00205769
0.00205769
0.0020577
0.00205771
0.00205772
0.00205773
0.00205774
0.00205775
0.00205776
0.00205776
0.00205777
0.00205778
0.00205779
0.0020578
0.00205781
0.00205782
0.00205782
0.00205783
0.00205784
0.00205785
0.00205786
0.00205787
0.00205787
0.00205788
0.00205789
0.0020579
0.00205791
0.00205792
0.00205792
0.00205793
0.00205794
0.00205795
0.00205796
0.00205797
0.00205797
0.00205798
0.00205799
0.002058
0.00205801
0.00205802
0.00205802
0.00205803
0.00205804
0.00205805
0.00205806
0.00205807
0.00205807
0.00205808
0.00205809
0.0020581
0.00205811
0.00205812
0.00205812
0.00205813
0.00205814
0.00205815
0.00205816
0.00205816
0.00205817
0.00205818
0.00205819
0.0020582
0.00205821
0.00205821
0.00205822
0.00205823
0.00205824
0.00205825
0.00205826
0.00205826
0.00205827
0.00205828
0.00205829
0.0020583
0.00205831
0.00205831
0.00205832
0.00205833
0.00205834
0.00205835
0.00205836
0.00205836
0.00205837
0.00205838
0.00205839
0.0020584
0.0020584
0.00205841
0.00205842
0.00205843
0.00205844
0.00205844
0.00205845
0.00205846
0.00205847
0.00205848
0.00205848
0.00205849
0.0020585
0.00205851
0.00205852
0.00205852
0.00205853
0.00205854
0.00205855
0.00205856
0.00205856
0.00205857
0.00205858
0.00205859
0.0020586
0.0020586
0.00205861
0.00205862
0.00205863
0.00205864
0.00205864
0.00205865
0.00205866
0.00205867
0.00205867
0.00205868
0.00205869
0.0020587
0.00205871
0.00205871
0.00205872
0.00205873
0.00205874
0.00205875
0.00205875
0.00205876
0.00205877
0.00205878
0.00205878
0.00205879
0.0020588
0.00205881
0.00205882
0.00205882
0.00205883
0.00205884
0.00205885
0.00205886
0.00205886
0.00205887
0.00205888
0.00205889
0.00205889
0.0020589
0.00205891
0.00205892
0.00205892
0.00205893
0.00205894
0.00205895
0.00205896
)
;

boundaryField
{
    inlet
    {
        type            calculated;
        value           uniform 0.00548521;
    }
    outlet
    {
        type            calculated;
        value           uniform 0.00205896;
    }
    right
    {
        type            empty;
    }
    left
    {
        type            empty;
    }
    atmosphere
    {
        type            empty;
    }
    bottomWall
    {
        type            empty;
    }
}


// ************************************************************************* //
