/*--------------------------------*- C++ -*----------------------------------*\
| =========                 |                                                 |
| \\      /  F ield         | foam-extend: Open Source CFD                    |
|  \\    /   O peration     | Version:     3.1                                |
|   \\  /    A nd           | Web:         http://www.extend-project.de       |
|    \\/     M anipulation  |                                                 |
\*---------------------------------------------------------------------------*/
FoamFile
{
    version     2.0;
    format      ascii;
    class       volScalarField;
    location    "40";
    object      H;
}
// * * * * * * * * * * * * * * * * * * * * * * * * * * * * * * * * * * * * * //

dimensions      [0 1 0 0 0 0 0];

internalField   nonuniform List<scalar> 
2539
(
0.857519
0.856817
0.855885
0.854963
0.85404
0.853117
0.852193
0.85127
0.850346
0.849422
0.848498
0.847574
0.846649
0.845724
0.844799
0.843874
0.842948
0.842022
0.841096
0.84017
0.839243
0.838317
0.83739
0.836462
0.835535
0.834607
0.833679
0.832751
0.831823
0.830894
0.829965
0.829036
0.828106
0.827177
0.826247
0.825316
0.824386
0.823455
0.822524
0.821593
0.820661
0.81973
0.818798
0.817865
0.816933
0.816
0.815067
0.814133
0.8132
0.812266
0.811331
0.810397
0.809462
0.808527
0.807592
0.806656
0.80572
0.804784
0.803847
0.802911
0.801974
0.801036
0.800098
0.799161
0.798222
0.797284
0.796345
0.795406
0.794466
0.793526
0.792586
0.791646
0.790705
0.789764
0.788823
0.787881
0.786939
0.785996
0.785054
0.784111
0.783167
0.782224
0.78128
0.780336
0.779391
0.778446
0.777501
0.776555
0.775609
0.774662
0.773716
0.772769
0.771821
0.770873
0.769925
0.768977
0.768028
0.767079
0.766129
0.765179
0.764229
0.763278
0.762327
0.761376
0.760424
0.759472
0.758519
0.757566
0.756613
0.755659
0.754705
0.75375
0.752795
0.75184
0.750884
0.749928
0.748971
0.748014
0.747057
0.746099
0.745141
0.744182
0.743223
0.742264
0.741304
0.740343
0.739382
0.738421
0.737459
0.736497
0.735535
0.734572
0.733608
0.732644
0.73168
0.730715
0.72975
0.728784
0.727817
0.726851
0.725883
0.724916
0.723948
0.722979
0.72201
0.72104
0.72007
0.719099
0.718128
0.717156
0.716184
0.715211
0.714238
0.713264
0.71229
0.711315
0.71034
0.709364
0.708387
0.70741
0.706433
0.705455
0.704476
0.703497
0.702517
0.701537
0.700556
0.699574
0.698592
0.697609
0.696626
0.695642
0.694658
0.693673
0.692687
0.691701
0.690714
0.689726
0.688738
0.687749
0.68676
0.68577
0.684779
0.683788
0.682567
0.681212
0.680413
0.680096
0.679804
0.679513
0.679222
0.678931
0.67864
0.678349
0.678058
0.677767
0.677476
0.677185
0.676893
0.676602
0.67631
0.676019
0.675727
0.675436
0.675144
0.674852
0.674561
0.674269
0.673977
0.673685
0.673393
0.673101
0.672808
0.672516
0.672224
0.671931
0.671639
0.671347
0.671054
0.670761
0.670469
0.670176
0.669883
0.66959
0.669297
0.669004
0.668711
0.668418
0.668125
0.667831
0.667538
0.667245
0.666951
0.666658
0.666364
0.66607
0.665776
0.665483
0.665189
0.664895
0.664601
0.664307
0.664012
0.663718
0.663424
0.66313
0.662835
0.662541
0.662246
0.661951
0.661657
0.661362
0.661067
0.660772
0.660477
0.660182
0.659887
0.659592
0.659296
0.659001
0.658705
0.65841
0.658114
0.657819
0.657523
0.657227
0.656931
0.656635
0.656339
0.656043
0.655747
0.655451
0.655155
0.654858
0.654562
0.654265
0.653969
0.653672
0.653375
0.653078
0.652781
0.652485
0.652187
0.65189
0.651593
0.651296
0.650998
0.650701
0.650404
0.650106
0.649808
0.649511
0.649213
0.648915
0.648617
0.648319
0.648021
0.647722
0.647424
0.647126
0.646827
0.646529
0.64623
0.645932
0.645633
0.645334
0.645035
0.644736
0.644437
0.644138
0.643838
0.643539
0.64324
0.64294
0.642641
0.642341
0.642041
0.641741
0.641441
0.641141
0.640841
0.640541
0.640241
0.639941
0.63964
0.63934
0.639039
0.638738
0.638438
0.638137
0.637836
0.637535
0.637234
0.636933
0.636631
0.63633
0.636029
0.635727
0.635425
0.635124
0.634822
0.63452
0.634218
0.633916
0.633614
0.633312
0.633009
0.632707
0.632404
0.632102
0.631799
0.631496
0.631193
0.63089
0.630587
0.630284
0.629981
0.629678
0.629374
0.629071
0.628767
0.628463
0.62816
0.627856
0.627552
0.627248
0.626943
0.626639
0.626335
0.62603
0.625726
0.625421
0.625116
0.624812
0.624507
0.624202
0.623896
0.623591
0.623286
0.62298
0.622675
0.622369
0.622069
0.621646
0.623704
0.598428
0.572794
0.54428
0.527655
0.517138
0.509629
0.503734
0.498779
0.494419
0.490465
0.486808
0.483379
0.480134
0.477043
0.474084
0.471238
0.468494
0.465839
0.463266
0.460766
0.458334
0.455964
0.453651
0.451391
0.449181
0.447017
0.444896
0.442815
0.440773
0.438767
0.436796
0.434856
0.432948
0.431068
0.429217
0.427392
0.425592
0.423816
0.422064
0.420334
0.418625
0.416936
0.415267
0.413617
0.411985
0.410371
0.408773
0.407191
0.405625
0.404074
0.402537
0.401014
0.399504
0.398007
0.396523
0.39505
0.393589
0.392139
0.3907
0.389271
0.387851
0.38644
0.385039
0.383646
0.38226
0.380883
0.379512
0.378148
0.37679
0.375438
0.374091
0.372748
0.371409
0.370074
0.368741
0.36741
0.366079
0.364749
0.363418
0.362085
0.360748
0.359405
0.358056
0.356697
0.355326
0.35394
0.352534
0.351104
0.349642
0.348141
0.34659
0.344977
0.343284
0.341492
0.339575
0.337507
0.335258
0.332799
0.330111
0.327198
0.319637
0.316419
0.31346
0.310719
0.308164
0.305769
0.303514
0.301381
0.299358
0.297432
0.295593
0.293832
0.292144
0.290521
0.288959
0.287451
0.285995
0.284586
0.283221
0.281897
0.280611
0.279362
0.278146
0.276962
0.275808
0.274683
0.273584
0.272511
0.271463
0.270437
0.269433
0.268451
0.267488
0.266545
0.265619
0.264712
0.263821
0.262947
0.262088
0.261244
0.260414
0.259599
0.258796
0.258007
0.25723
0.256466
0.255713
0.254971
0.25424
0.25352
0.252811
0.252111
0.251421
0.25074
0.250069
0.249406
0.248752
0.248107
0.247469
0.24684
0.246218
0.245604
0.244998
0.244398
0.243806
0.243221
0.242642
0.24207
0.241504
0.240944
0.24039
0.239843
0.239301
0.238765
0.238235
0.23771
0.23719
0.236676
0.236167
0.235663
0.235163
0.234669
0.234179
0.233694
0.233214
0.232738
0.232267
0.231799
0.231336
0.230878
0.230423
0.229973
0.229526
0.229083
0.228643
0.228204
0.227766
0.227335
0.226932
0.226583
0.22629
0.226018
0.225748
0.225479
0.225212
0.224946
0.224682
0.224419
0.224158
0.223897
0.223639
0.223381
0.223125
0.22287
0.222617
0.222365
0.222114
0.221864
0.221616
0.221369
0.221123
0.220879
0.220635
0.220393
0.220152
0.219912
0.219674
0.219436
0.2192
0.218965
0.218731
0.218498
0.218266
0.218035
0.217805
0.217577
0.217349
0.217123
0.216898
0.216673
0.21645
0.216228
0.216006
0.215786
0.215567
0.215348
0.215131
0.214915
0.214699
0.214485
0.214272
0.214059
0.213847
0.213637
0.213427
0.213218
0.21301
0.212803
0.212597
0.212392
0.212187
0.211984
0.211781
0.211579
0.211378
0.211178
0.210979
0.21078
0.210583
0.210386
0.21019
0.209994
0.2098
0.209606
0.209413
0.209221
0.20903
0.208839
0.20865
0.208461
0.208272
0.208085
0.207898
0.207712
0.207527
0.207342
0.207158
0.206975
0.206792
0.206611
0.20643
0.206249
0.206069
0.20589
0.205712
0.205534
0.205357
0.205181
0.205005
0.20483
0.204656
0.204482
0.204309
0.204137
0.203965
0.203794
0.203623
0.203453
0.203284
0.203115
0.202947
0.20278
0.202613
0.202447
0.202281
0.202116
0.201951
0.201787
0.201624
0.201461
0.201299
0.201138
0.200976
0.200816
0.200656
0.200497
0.200338
0.20018
0.200022
0.199865
0.199708
0.199552
0.199396
0.199241
0.199086
0.198932
0.198779
0.198626
0.198473
0.198321
0.19817
0.198019
0.197869
0.197719
0.197569
0.19742
0.197272
0.197124
0.196976
0.196829
0.196682
0.196536
0.196391
0.196245
0.196101
0.195956
0.195813
0.195669
0.195527
0.195384
0.195242
0.195101
0.19496
0.194819
0.194679
0.194539
0.1944
0.194261
0.194122
0.193984
0.193847
0.19371
0.193573
0.193437
0.193301
0.193165
0.19303
0.192896
0.192761
0.192627
0.192494
0.192361
0.192228
0.192096
0.191964
0.191833
0.191702
0.191571
0.191441
0.191311
0.191181
0.191052
0.190923
0.190795
0.190667
0.190539
0.190412
0.190285
0.190159
0.190033
0.189907
0.189782
0.189656
0.189532
0.189407
0.189283
0.18916
0.189037
0.188914
0.188791
0.188669
0.188547
0.188425
0.188304
0.188183
0.188063
0.187943
0.187823
0.187703
0.187584
0.187465
0.187347
0.187229
0.187111
0.186993
0.186876
0.186759
0.186643
0.186526
0.18641
0.186295
0.186179
0.186064
0.18595
0.185835
0.185721
0.185608
0.185494
0.185381
0.185268
0.185156
0.185043
0.184931
0.18482
0.184708
0.184597
0.184487
0.184376
0.184266
0.184156
0.184047
0.183937
0.183828
0.18372
0.183611
0.183503
0.183395
0.183287
0.18318
0.183073
0.182966
0.18286
0.182754
0.182648
0.182542
0.182436
0.182331
0.182226
0.182122
0.182017
0.181913
0.18181
0.181706
0.181603
0.1815
0.181397
0.181294
0.181192
0.18109
0.180988
0.180887
0.180786
0.180685
0.180584
0.180483
0.180383
0.180283
0.180183
0.180084
0.179985
0.179886
0.179787
0.179688
0.17959
0.179492
0.179394
0.179297
0.179199
0.179102
0.179005
0.178909
0.178812
0.178716
0.17862
0.178524
0.178429
0.178334
0.178239
0.178144
0.178049
0.177955
0.177861
0.177767
0.177673
0.17758
0.177486
0.177393
0.177301
0.177208
0.177116
0.177023
0.176932
0.17684
0.176748
0.176657
0.176566
0.176475
0.176384
0.176294
0.176204
0.176114
0.176024
0.175934
0.175845
0.175756
0.175667
0.175578
0.175489
0.175401
0.175313
0.175225
0.175137
0.175049
0.174962
0.174874
0.174787
0.174701
0.174617
0.174533
0.174438
0.17433
0.174216
0.174102
0.173988
0.173874
0.173761
0.173649
0.173536
0.173424
0.173312
0.173201
0.173089
0.172979
0.172868
0.172758
0.172648
0.172538
0.172428
0.172319
0.172211
0.172102
0.171994
0.171886
0.171778
0.171671
0.171564
0.171457
0.17135
0.171244
0.171138
0.171033
0.170927
0.170822
0.170717
0.170613
0.170509
0.170405
0.170301
0.170197
0.170094
0.169991
0.169889
0.169786
0.169684
0.169582
0.169481
0.16938
0.169279
0.169178
0.169077
0.168977
0.168877
0.168777
0.168678
0.168578
0.168479
0.168381
0.168282
0.168184
0.168086
0.167988
0.167891
0.167794
0.167697
0.1676
0.167503
0.167407
0.167311
0.167215
0.16712
0.167024
0.166929
0.166834
0.16674
0.166645
0.166551
0.166457
0.166364
0.16627
0.166177
0.166084
0.165991
0.165899
0.165806
0.165714
0.165623
0.165531
0.165439
0.165348
0.165257
0.165167
0.165076
0.164986
0.164896
0.164806
0.164716
0.164627
0.164537
0.164448
0.16436
0.164271
0.164183
0.164094
0.164007
0.163919
0.163831
0.163744
0.163657
0.16357
0.163483
0.163397
0.16331
0.163224
0.163138
0.163052
0.162967
0.162882
0.162797
0.162712
0.162627
0.162542
0.162458
0.162374
0.16229
0.162206
0.162123
0.162039
0.161956
0.161873
0.16179
0.161708
0.161625
0.161543
0.161461
0.161379
0.161298
0.161216
0.161135
0.161054
0.160973
0.160892
0.160811
0.160731
0.160651
0.160571
0.160491
0.160411
0.160332
0.160252
0.160173
0.160094
0.160016
0.159937
0.159859
0.15978
0.159702
0.159624
0.159547
0.159469
0.159392
0.159314
0.159237
0.15916
0.159084
0.159007
0.158931
0.158855
0.158778
0.158703
0.158627
0.158551
0.158476
0.158401
0.158327
0.158253
0.158173
0.158084
0.157999
0.157971
0.158052
0.158108
0.158118
0.158096
0.158079
0.158062
0.158048
0.158041
0.158041
0.158046
0.158052
0.15806
0.158074
0.158094
0.158119
0.158147
0.15818
0.158217
0.15826
0.158307
0.158358
0.158412
0.15847
0.158531
0.158599
0.158673
0.158752
0.158835
0.158921
0.159012
0.159108
0.159211
0.159318
0.159427
0.159541
0.159659
0.159781
0.159909
0.160044
0.160182
0.160324
0.160473
0.160629
0.160788
0.160952
0.16112
0.161293
0.16147
0.161654
0.161842
0.162034
0.162232
0.162437
0.162648
0.162865
0.163086
0.163312
0.163543
0.163779
0.164021
0.164271
0.164528
0.164792
0.165059
0.16533
0.165606
0.165889
0.16618
0.16648
0.166786
0.167097
0.167415
0.167741
0.168072
0.168409
0.168753
0.169103
0.169461
0.169831
0.17021
0.170598
0.17099
0.171386
0.171785
0.172187
0.172598
0.173029
0.173496
0.173997
0.174508
0.174966
0.1753
0.175496
0.175693
0.176223
0.177491
0.179612
0.181898
0.182544
0.179242
0.171366
0.162831
0.155366
0.155296
0.155225
0.155155
0.155085
0.155015
0.154945
0.154876
0.154806
0.154737
0.154668
0.154599
0.15453
0.154461
0.154393
0.154324
0.154256
0.154188
0.15412
0.154052
0.153984
0.153916
0.153849
0.153781
0.153714
0.153647
0.15358
0.153513
0.153447
0.15338
0.153314
0.153248
0.153181
0.153115
0.15305
0.152984
0.152918
0.152853
0.152788
0.152722
0.152657
0.152592
0.152527
0.152463
0.152398
0.152334
0.15227
0.152205
0.152141
0.152077
0.152014
0.15195
0.151887
0.151823
0.15176
0.151697
0.151634
0.151571
0.151508
0.151445
0.151383
0.15132
0.151258
0.151196
0.151134
0.151072
0.15101
0.150948
0.150887
0.150825
0.150764
0.150703
0.150642
0.150581
0.15052
0.150459
0.150399
0.150338
0.150278
0.150218
0.150157
0.150098
0.150038
0.149978
0.149917
0.149853
0.149792
0.149753
0.149744
0.149748
0.149751
0.149754
0.149758
0.149761
0.149765
0.149768
0.149772
0.149775
0.149778
0.149782
0.149785
0.149789
0.149792
0.149795
0.149799
0.149802
0.149806
0.149809
0.149812
0.149816
0.149819
0.149822
0.149826
0.149829
0.149833
0.149836
0.149839
0.149843
0.149846
0.14985
0.149853
0.149856
0.14986
0.149863
0.149866
0.14987
0.149873
0.149876
0.14988
0.149883
0.149886
0.14989
0.149893
0.149896
0.1499
0.149903
0.149907
0.14991
0.149913
0.149917
0.14992
0.149923
0.149926
0.14993
0.149933
0.149936
0.14994
0.149943
0.149946
0.14995
0.149953
0.149956
0.14996
0.149963
0.149966
0.14997
0.149973
0.149976
0.149979
0.149983
0.149986
0.149989
0.149993
0.149996
0.149999
0.150003
0.150006
0.150009
0.150012
0.150016
0.150019
0.150022
0.150025
0.150029
0.150032
0.150035
0.150039
0.150042
0.150045
0.150048
0.150052
0.150055
0.150058
0.150061
0.150065
0.150068
0.150071
0.150074
0.150078
0.150081
0.150084
0.150087
0.150091
0.150094
0.150097
0.1501
0.150103
0.150107
0.15011
0.150113
0.150116
0.15012
0.150123
0.150126
0.150129
0.150132
0.150136
0.150139
0.150142
0.150145
0.150149
0.150152
0.150155
0.150158
0.150161
0.150165
0.150168
0.150171
0.150174
0.150177
0.15018
0.150184
0.150187
0.15019
0.150193
0.150196
0.1502
0.150203
0.150206
0.150209
0.150212
0.150215
0.150219
0.150222
0.150225
0.150228
0.150231
0.150234
0.150238
0.150241
0.150244
0.150247
0.15025
0.150253
0.150256
0.15026
0.150263
0.150266
0.150269
0.150272
0.150275
0.150278
0.150282
0.150285
0.150288
0.150291
0.150294
0.150297
0.1503
0.150303
0.150307
0.15031
0.150313
0.150316
0.150319
0.150322
0.150325
0.150328
0.150331
0.150335
0.150338
0.150341
0.150344
0.150347
0.15035
0.150353
0.150356
0.150359
0.150362
0.150365
0.150369
0.150372
0.150375
0.150378
0.150381
0.150384
0.150387
0.15039
0.150393
0.150396
0.150399
0.150402
0.150405
0.150408
0.150412
0.150415
0.150418
0.150421
0.150424
0.150427
0.150429
0.150433
0.15044
0.150445
0.150437
0.150403
0.150375
0.150494
0.150935
0.151368
0.15011
0.145
0.139752
0.151877
0.215899
0.388111
0.598138
0.657019
0.659817
0.660148
0.660453
0.660758
0.661062
0.661367
0.661671
0.661976
0.66228
0.662584
0.662888
0.663192
0.663496
0.6638
0.664104
0.664408
0.664712
0.665016
0.665319
0.665623
0.665926
0.66623
0.666533
0.666837
0.66714
0.667443
0.667746
0.668049
0.668352
0.668655
0.668958
0.669261
0.669564
0.669866
0.670169
0.670472
0.670774
0.671077
0.671379
0.671681
0.671984
0.672286
0.672588
0.67289
0.673192
0.673494
0.673796
0.674098
0.6744
0.674701
0.675003
0.675305
0.675606
0.675908
0.676209
0.67651
0.676812
0.677113
0.677414
0.677715
0.678016
0.678317
0.678618
0.678919
0.67922
0.679521
0.679822
0.680122
0.680423
0.680725
0.681019
0.681228
0.68129
0.681286
0.681284
0.681281
0.681278
0.681275
0.681272
0.68127
0.681267
0.681264
0.681261
0.681259
0.681256
0.681253
0.68125
0.681247
0.681245
0.681242
0.681239
0.681236
0.681233
0.681231
0.681228
0.681225
0.681222
0.681219
0.681217
0.681214
0.681211
0.681208
0.681205
0.681202
0.6812
0.681197
0.681194
0.681191
0.681188
0.681185
0.681183
0.68118
0.681177
0.681174
0.681171
0.681168
0.681166
0.681163
0.68116
0.681157
0.681154
0.681151
0.681149
0.681146
0.681143
0.68114
0.681137
0.681134
0.681131
0.681129
0.681126
0.681123
0.68112
0.681117
0.681114
0.681111
0.681109
0.681106
0.681103
0.6811
0.681097
0.681094
0.681091
0.681089
0.681086
0.681083
0.68108
0.681077
0.681074
0.681071
0.681069
0.681066
0.681063
0.68106
0.681057
0.681054
0.681051
0.681049
0.681046
0.681043
0.68104
0.681037
0.681034
0.681031
0.681029
0.681026
0.681023
0.68102
0.681017
0.681014
0.681011
0.681009
0.681006
0.681003
0.681
0.680997
0.680994
0.680991
0.680989
0.680986
0.680983
0.68098
0.680977
0.680974
0.680971
0.680969
0.680966
0.680963
0.68096
0.680957
0.680954
0.680951
0.680949
0.680946
0.680943
0.68094
0.680937
0.680934
0.680932
0.680929
0.680926
0.680923
0.68092
0.680917
0.680914
0.680912
0.680909
0.680906
0.680903
0.6809
0.680897
0.680895
0.680892
0.680889
0.680886
0.680883
0.68088
0.680878
0.680875
0.680872
0.680869
0.680866
0.680863
0.68086
0.680858
0.680855
0.680852
0.680849
0.680846
0.680843
0.680841
0.680838
0.680835
0.680832
0.680829
0.680826
0.680824
0.680821
0.680818
0.680815
0.680812
0.680809
0.680807
0.680804
0.680801
0.680798
0.680795
0.680792
0.68079
0.680787
0.680784
0.680781
0.680778
0.680775
0.680773
0.68077
0.680767
0.680764
0.680761
0.680758
0.680756
0.680753
0.68075
0.680747
0.680744
0.680741
0.680739
0.680736
0.680733
0.68073
0.680727
0.680724
0.680722
0.680719
0.680716
0.680713
0.68071
0.680707
0.680705
0.680702
0.680699
0.680696
0.680693
0.68069
0.680688
0.680685
0.680682
0.680679
0.680676
0.680673
0.680671
0.680668
0.680665
0.680662
0.680659
0.680656
0.680654
0.680651
0.680648
0.680645
0.680642
0.680639
0.680637
0.680634
0.680631
0.680628
0.680625
0.680622
0.68062
0.680617
0.680614
0.680611
0.680608
0.680605
0.680602
0.6806
0.680597
0.680594
0.680591
0.680588
0.680585
0.680583
0.68058
0.680577
0.680574
0.680571
0.680568
0.680566
0.680563
0.68056
0.680557
0.680554
0.680551
0.680549
0.680546
0.680543
0.68054
0.680537
0.680534
0.680531
0.680529
0.680526
0.680523
0.68052
0.680517
0.680514
0.680512
0.680509
0.680506
0.680503
0.6805
0.680497
0.680495
0.680492
0.680489
0.680486
0.680483
0.68048
0.680478
0.680475
0.680472
0.680469
0.680466
0.680463
0.680461
0.680458
0.680455
0.680452
0.680449
0.680446
0.680443
0.680441
0.680438
0.680435
0.680432
0.680429
0.680426
0.680424
0.680421
0.680418
0.680415
0.680412
0.680409
0.680407
0.680404
0.680401
0.680398
0.680395
0.680392
0.68039
0.680387
0.680384
0.680381
0.680378
0.680375
0.680373
0.68037
0.680367
0.680364
0.680361
0.680358
0.680356
0.680353
0.68035
0.680347
0.680344
0.680341
0.680339
0.680336
0.680333
0.68033
0.680327
0.680324
0.680322
0.680319
0.680316
0.680313
0.68031
0.680307
0.680305
0.680302
0.680299
0.680296
0.680293
0.68029
0.680288
0.680285
0.680282
0.680279
0.680276
0.680273
0.680271
0.680268
0.680265
0.680262
0.680259
0.680256
0.680253
0.680251
0.680248
0.680245
0.680242
0.680239
0.680236
0.680234
0.680231
0.680228
0.680225
0.680222
0.680219
0.680216
0.680214
0.680211
0.680208
0.680205
0.680202
0.680199
0.680196
0.680194
0.680191
0.680188
0.680185
0.680182
0.680179
0.680176
0.680173
0.680171
0.680168
0.680165
0.680162
0.680159
0.680156
0.680153
0.68015
0.680148
0.680145
0.680142
0.680139
0.680136
0.680133
0.68013
0.680127
0.680125
0.680122
0.680119
0.680116
0.680113
0.68011
0.680107
0.680104
0.680101
0.680099
0.680096
0.680093
0.68009
0.680087
0.680084
0.680081
0.680078
0.680075
0.680073
0.68007
0.680067
0.680064
0.680061
0.680058
0.680055
0.680052
0.680049
0.680046
0.680044
0.680041
0.680038
0.680035
0.680032
0.680029
0.680026
0.680023
0.68002
0.680017
0.680014
0.680012
0.680009
0.680006
0.680003
0.68
0.679997
0.679994
0.679991
0.679988
0.679985
0.679983
0.67998
0.679977
0.679974
0.679971
0.679968
0.679965
0.679962
0.679959
0.679956
0.679953
0.679951
0.679948
0.679945
0.679942
0.679939
0.679936
0.679933
0.67993
0.679927
0.679924
0.679921
0.679919
0.679916
0.679913
0.67991
0.679907
0.679904
0.679901
0.679898
0.679895
0.679892
0.67989
0.679887
0.679884
0.679881
0.679878
0.679875
0.679872
0.679869
0.679866
0.679863
0.679861
0.679858
0.679855
0.679852
0.679849
0.679846
0.679843
0.67984
0.679837
0.679834
0.679832
0.679829
0.679826
0.679823
0.67982
0.679817
0.679814
0.679811
0.679808
0.679806
0.679803
0.6798
0.679797
0.679794
0.679791
0.679788
0.679785
0.679782
0.67978
0.679777
0.679774
0.679771
0.679768
0.679765
0.679762
0.679759
0.679756
0.679754
0.679751
0.679748
0.679745
0.679742
0.679739
0.679736
0.679733
0.679731
0.679728
0.679725
0.679722
0.679719
0.679716
0.679713
0.67971
0.679707
0.679705
0.679702
0.679699
0.679696
0.679693
0.67969
0.679687
0.679684
0.679681
0.679679
0.679676
0.679673
0.67967
0.679667
0.679664
0.679661
0.679658
0.679655
0.679652
0.67965
0.679647
0.679644
0.679641
0.679638
0.679635
0.679632
0.679629
0.679626
0.679623
0.679621
0.679618
0.679615
0.679612
0.679609
0.679606
0.679603
0.6796
0.679597
0.679594
0.679591
0.679589
0.679586
0.679583
0.67958
0.679577
0.679574
0.679571
0.679568
0.679565
0.679562
0.679559
0.679557
0.679554
0.679551
0.679548
0.679545
0.679542
0.679539
0.679536
0.679533
0.67953
0.679527
0.679524
0.679522
0.679519
0.679516
0.679513
0.67951
0.679507
0.679504
0.679501
0.679498
0.679495
0.679492
0.679489
0.679486
0.679484
0.679481
0.679478
0.679475
0.679472
0.679469
0.679466
0.679463
0.67946
0.679457
0.679454
0.679451
0.679449
0.679446
0.679443
0.67944
0.679437
0.679434
0.679431
0.679428
0.679425
0.679422
0.679419
0.679416
0.679414
0.679411
0.679408
0.679405
0.679402
0.679399
0.679396
0.679393
0.67939
0.679387
0.679384
0.679382
0.679379
0.679376
0.679373
0.67937
0.679367
0.679364
0.679361
0.679358
0.679355
0.679353
0.67935
0.679347
0.679344
0.679341
0.679338
0.679335
0.679332
0.679329
0.679326
0.679324
0.679321
0.679318
0.679315
0.679312
0.679309
0.679306
0.679303
0.6793
0.679298
0.679295
0.679292
0.679289
0.679286
0.679283
0.67928
0.679277
0.679274
0.679272
0.679269
0.679266
0.679263
0.67926
0.679257
0.679254
0.679251
0.679249
0.679246
0.679243
0.67924
0.679237
0.679234
0.679231
0.679228
0.679225
0.679223
0.67922
0.679217
0.679214
0.679211
0.679208
0.679205
0.679202
0.6792
0.679197
0.679194
0.679191
0.679188
0.679185
0.679182
0.679179
0.679177
0.679174
0.679171
0.679168
0.679165
0.679162
0.679159
0.679156
0.679154
0.679151
0.679148
0.679145
0.679142
0.679139
0.679136
0.679133
0.67913
0.679128
0.679125
0.679122
0.679119
0.679116
0.679113
0.67911
0.679107
0.679104
0.679102
0.679099
0.679096
0.679093
0.67909
0.679087
0.679084
0.679081
0.679078
0.679076
0.679073
0.67907
0.679067
0.679064
0.679061
0.679058
0.679055
0.679052
0.679049
0.679047
0.679044
0.679041
0.679038
0.679035
0.679032
0.679029
0.679026
0.679023
0.679021
0.679018
0.679015
0.679012
0.679009
0.679006
0.679003
0.679
0.678997
0.678994
0.678992
0.678989
0.678986
0.678983
0.67898
0.678977
0.678974
0.678971
0.678968
0.678966
0.678963
0.67896
0.678957
0.678954
0.678951
0.678948
0.678945
0.678943
0.67894
0.678937
0.678934
0.678931
0.678928
0.678925
0.678922
0.678919
0.678917
0.678914
0.678911
0.678908
0.678905
0.678902
0.678899
0.678896
0.678894
0.678891
0.678888
0.678885
0.678882
0.678879
0.678876
0.678873
0.678871
0.678868
0.678865
0.678862
0.678859
0.678856
0.678853
0.67885
0.678848
0.678845
0.678842
0.678839
0.678836
0.678833
0.67883
0.678827
0.678825
0.678822
0.678819
0.678816
0.678813
0.67881
0.678807
0.678805
0.678802
0.678799
0.678796
0.678793
0.67879
0.678787
0.678785
0.678782
0.678779
0.678776
0.678773
0.67877
0.678767
0.678765
0.678762
0.678759
0.678756
0.678753
0.67875
0.678748
0.678745
0.678742
0.678739
0.678736
0.678733
0.67873
0.678728
0.678725
0.678722
0.678719
0.678716
0.678713
0.678711
0.678708
0.678705
0.678702
0.678699
0.678696
0.678693
0.678691
0.678688
0.678685
0.678682
0.678679
0.678676
0.678673
0.678671
0.678668
0.678665
0.678662
0.678659
0.678656
0.678653
0.67865
0.678648
0.678645
0.678642
0.678639
0.678636
0.678633
0.67863
0.678627
0.678625
0.678622
0.678619
0.678616
)
;

boundaryField
{
    inlet
    {
        type            criticalFlowDepthInlet;
        criticalH       0.38;
        value           uniform 0.857519;
    }
    outlet
    {
        type            zeroGradient;
    }
    right
    {
        type            empty;
    }
    left
    {
        type            empty;
    }
    atmosphere
    {
        type            empty;
    }
    bottomWall
    {
        type            empty;
    }
}


// ************************************************************************* //
