/*--------------------------------*- C++ -*----------------------------------*\
| =========                 |                                                 |
| \\      /  F ield         | foam-extend: Open Source CFD                    |
|  \\    /   O peration     | Version:     3.1                                |
|   \\  /    A nd           | Web:         http://www.extend-project.de       |
|    \\/     M anipulation  |                                                 |
\*---------------------------------------------------------------------------*/
FoamFile
{
    version     2.0;
    format      ascii;
    class       volScalarField;
    location    "9";
    object      nut;
}
// * * * * * * * * * * * * * * * * * * * * * * * * * * * * * * * * * * * * * //

dimensions      [0 2 -1 0 0 0 0];

internalField   nonuniform List<scalar> 
119952
(
5.214177e-05
3.44849e-05
3.495993e-05
3.83633e-05
4.038306e-05
3.78827e-05
3.622284e-05
3.497533e-05
3.400255e-05
3.318022e-05
3.246452e-05
3.182271e-05
3.122874e-05
3.066613e-05
3.01181e-05
2.957049e-05
2.900621e-05
2.837757e-05
2.765555e-05
2.684075e-05
3.467464e-05
3.274315e-05
3.218136e-05
4.249642e-05
4.11977e-05
4.073421e-05
4.037221e-05
4.031237e-05
4.027063e-05
2.587155e-05
3.377867e-05
3.48347e-05
3.889383e-05
4.372414e-05
4.924599e-05
5.530245e-05
6.180597e-05
6.857566e-05
7.550424e-05
8.706987e-05
0.0003557712
0.0004419679
0.0005368178
0.0006357283
0.0007354393
0.0008347313
0.0009328508
0.00102967
0.001125089
0.001656216
0.001777157
0.00190131
0.002025601
0.002148064
0.002266235
0.00237754
0.002479759
0.002571199
0.002648759
0.002715022
0.002766542
0.002805196
0.002832381
0.002848824
0.002854878
0.002851961
0.002842146
0.002831392
0.002795374
0.002685553
0.002622676
0.002572186
0.002507708
0.002421683
0.00234075
0.002269955
0.002211076
0.002163769
0.002127376
0.002101045
0.002083878
0.002075
0.00207362
0.002079051
0.002090803
0.002108802
0.002133828
0.002168236
0.002212553
0.002259828
0.002313139
0.002383243
0.00246329
0.002533868
0.002599329
0.002652006
0.002636575
0.00250238
0.002495904
0.002523884
0.002563749
0.002609043
0.002655816
0.002701227
0.002742817
0.00277848
0.002806645
0.002826061
0.002835835
0.002835461
0.002824235
0.002800426
0.002759975
0.002706448
0.002644366
0.002573306
0.002492781
0.002402229
0.002301128
0.002189159
0.002066308
0.001932808
0.001788583
0.001632128
0.001459847
0.001267375
0.001060699
0.0008936976
0.0008150333
0.0007083317
0.000692564
0.0007246349
0.0007925032
0.0008494981
0.0008531617
0.0008698803
0.0009040654
0.0009490636
0.001004463
0.001067993
0.001136785
0.001189644
0.001236718
0.001300345
0.001376243
0.001444838
0.0014875
0.001486621
0.001454482
0.001418071
0.001386791
0.001364173
0.001352965
0.001354442
0.001367077
0.001387246
0.001411249
0.00143685
0.001463093
0.001489379
0.001515001
0.001539199
0.001561442
0.001581658
0.001600185
0.001616998
0.001629297
0.001638002
0.001643707
0.001646794
0.001647598
0.001646315
0.001643145
0.001638281
0.001631913
0.001624205
0.001615305
0.001605328
0.001594352
0.001582391
0.001569352
0.001555131
0.001540057
0.001524177
0.0015075
0.001490077
0.001471944
0.001453117
0.001433601
0.001413394
0.001392494
0.001370897
0.0013486
0.001325611
0.001301949
0.001277668
0.001250442
0.001013467
0.0007975164
0.0007205691
0.0006801226
0.0006507014
0.000625638
0.0006035088
0.0005831794
0.0005640511
0.0005457991
0.0005282416
0.0005113116
0.0004951857
0.0004795943
0.0004644489
0.0004497642
0.0004355901
0.0004219982
0.0004089588
0.0003963829
0.0003842231
0.00037247
0.0003611373
0.0003502575
0.0003399773
0.0003300215
0.0003202621
0.0003108849
0.000301972
0.0002935148
0.0002854944
0.0002779041
0.0002707513
0.0002640946
0.0002582813
0.0002562481
0.0002612357
0.0002665248
0.000269533
0.0002725453
0.0002756837
0.0002788552
0.0002820722
0.0002853572
0.0002887014
0.0002920974
0.0002955844
0.0002991392
0.0003027668
0.0003064533
0.0003102053
0.0003140645
0.000317986
0.0003211493
0.0003239803
0.0003267948
0.0003296153
0.0003324554
0.0003353246
0.0003382266
0.0003411625
0.0003441285
0.0003471208
0.0003501339
0.0003531637
0.0003562062
0.0003592558
0.0003623062
0.0003653599
0.0003684077
0.0004725461
0.0004812315
0.0004895057
0.0004972236
0.0005044127
0.0005112364
0.000518051
0.0005248522
0.0005315948
0.0005382526
0.0005448262
0.0005513122
0.0005577141
0.0005640355
0.0005702744
0.0005764312
0.000582511
0.0005885226
0.0005944746
0.0006003788
0.0006062987
0.0006122522
0.0006182353
0.0006242461
0.0006302817
0.0006363386
0.0006424146
0.0006485074
0.0006546139
0.0006607301
0.0006668518
0.0006729752
0.000679097
0.0006852137
0.0006913222
0.0006974185
0.0007034972
0.0007095524
0.0007155786
0.0007215696
0.0007275186
0.0007334158
0.0007392464
0.0007449852
0.0007505924
0.000755951
0.0007607805
0.0007652936
0.000769672
0.0007739034
0.0007779992
0.000781974
0.0007858157
0.0007900368
0.0007941609
0.0007959739
0.0007982894
0.0008009833
0.0008040481
0.0008074327
0.0008110827
0.0008149373
0.0008189337
0.0008230142
0.0008271317
0.0008312378
0.0008352898
0.0008392542
0.000843105
0.0008468231
0.0008503956
0.0008538149
0.0008570768
0.0008601798
0.0008631251
0.0008659149
0.0008685525
0.000871042
0.0008733875
0.000875593
0.0008776631
0.0008796021
0.000881414
0.000883103
0.0008846732
0.0008861288
0.000887474
0.0008887124
0.0008898483
0.000890886
0.0008918298
0.0008926839
0.0008934526
0.0008941407
0.0008947529
0.0008952937
0.0008957678
0.0008961796
0.000896534
0.0008968354
0.0008970884
0.0008972976
0.0008974676
0.0008976028
0.0008977072
0.0008977851
0.0008978402
0.0008978767
0.0008978984
0.0008979093
0.0008979129
0.0008979128
0.0008979128
0.0008979165
0.0008979275
0.0008979498
0.0008979872
0.0008980437
0.0008981235
0.0008982313
0.0008983715
0.0008985501
0.0008987726
0.0008990467
0.0008993793
0.0008997814
0.0009002625
0.0009008402
0.0009015282
0.0009023501
0.000903334
0.0009045331
0.000906002
0.0009078567
0.000910275
0.0009136603
0.0009185577
0.0009272042
0.0007215348
0.0001037789
0.0001369079
0.000152093
0.0001625821
0.0001717666
0.0001803472
0.0001885648
0.00019648
0.0002065809
0.0004878214
0.0007840385
0.001045684
0.00124371
0.001390733
0.001506777
0.00160552
0.001694545
0.001778261
0.002553524
0.002707525
0.002863491
0.003013098
0.0031524
0.003278957
0.003391818
0.003491312
0.003578545
0.003654396
0.003719318
0.003779123
0.003837917
0.003897193
0.003956476
0.00401437
0.004069691
0.004121617
0.00417015
0.004188981
0.004185658
0.004194396
0.004214249
0.004243375
0.004280508
0.004325224
0.004377293
0.004436772
0.004504186
0.004579537
0.004663049
0.004756057
0.004859026
0.004972139
0.005095138
0.005227084
0.005366254
0.005509574
0.006493943
0.006632143
0.006763362
0.006886623
0.006999953
0.007101051
0.007187737
0.007258285
0.007311576
0.007346331
0.007362166
0.00735978
0.007339576
0.007301755
0.007247527
0.007177804
0.007095762
0.007005423
0.006918739
0.006815848
0.006689844
0.006565262
0.006434167
0.006292853
0.006143919
0.005995345
0.005852546
0.005718707
0.005596088
0.005486216
0.005389956
0.005307654
0.00523933
0.005184821
0.005143938
0.00511659
0.005103
0.005103808
0.005119949
0.005150958
0.005191281
0.005237645
0.005298904
0.005371436
0.005449816
0.005533567
0.005621717
0.005699746
0.005780149
0.005867902
0.005962075
0.006058661
0.006156043
0.00625227
0.006345125
0.006432257
0.006511275
0.006579975
0.006636571
0.00667981
0.006708992
0.006723838
0.006724125
0.00670905
0.006675486
0.00661921
0.006544014
0.006448084
0.006329144
0.006184597
0.006011493
0.005806784
0.005567099
0.005287479
0.004961579
0.004583187
0.004149776
0.003687842
0.003255772
0.002890194
0.002596857
0.002376052
0.002217577
0.002109411
0.001939808
0.001792596
0.001720492
0.001686346
0.00166618
0.001654976
0.001653144
0.001661791
0.001685374
0.001728672
0.001791769
0.00187223
0.00197224
0.002097861
0.002255749
0.00244518
0.002649757
0.002752772
0.002854314
0.002959301
0.003069908
0.003186053
0.003305144
0.003424606
0.003542926
0.003658821
0.003770968
0.003877893
0.003978078
0.004070304
0.004153945
0.004228882
0.004296498
0.004358537
0.004414766
0.004465183
0.004509871
0.004549023
0.004582925
0.004611931
0.004636439
0.004656862
0.004673596
0.004687015
0.004697453
0.004705207
0.004710507
0.004713564
0.004714558
0.004713627
0.004710856
0.004706288
0.004699943
0.004691819
0.004681898
0.004670146
0.004656514
0.004640952
0.004623382
0.004603767
0.004581953
0.004558121
0.004532227
0.004510669
0.004198171
0.003957124
0.003832326
0.00375108
0.003686664
0.003628844
0.003573584
0.00351923
0.00346509
0.003410874
0.003356446
0.003301712
0.003246635
0.003191274
0.003135704
0.003079939
0.00302387
0.002967348
0.002910487
0.002853479
0.002796466
0.002739532
0.002682683
0.002625647
0.002567805
0.002509553
0.002451288
0.002393361
0.002336266
0.002280484
0.002225921
0.002172712
0.002121197
0.00207195
0.002026048
0.001985643
0.001949917
0.001917245
0.001886735
0.001858058
0.001831077
0.001805694
0.001781854
0.001759571
0.001738839
0.001719618
0.001701888
0.00168566
0.001670936
0.001657684
0.00164585
0.001635364
0.001626159
0.001618168
0.001611331
0.001605589
0.001600874
0.001597118
0.001594257
0.001592229
0.001590961
0.001590381
0.001590427
0.001591032
0.00159214
0.001593689
0.001595637
0.001597926
0.001600506
0.001603043
0.001860424
0.001868036
0.001876015
0.001883694
0.00189093
0.001897856
0.001904614
0.001911297
0.001917979
0.001924721
0.001931579
0.001938603
0.001945833
0.001953297
0.001961015
0.001969005
0.00197728
0.001985849
0.001994714
0.002003871
0.002013314
0.002023034
0.002033018
0.002043251
0.002053715
0.00206439
0.002075253
0.002086282
0.002097451
0.002108738
0.002120117
0.002131567
0.002143067
0.002154598
0.002166139
0.002177673
0.00218918
0.002200643
0.002212042
0.002223359
0.002234575
0.00224567
0.002256625
0.002267417
0.002277992
0.002288252
0.002298091
0.002307573
0.002316776
0.002325751
0.00233446
0.002342952
0.002351168
0.002359666
0.002367812
0.002375005
0.002381717
0.002388261
0.002394697
0.002401034
0.002407269
0.002413389
0.002419378
0.002425221
0.002430907
0.002436428
0.002441772
0.002446926
0.002451877
0.00245661
0.002461111
0.002465364
0.002469355
0.002473069
0.002476491
0.002479608
0.002482408
0.002484879
0.002487011
0.002488796
0.002490228
0.002491301
0.002492011
0.002492357
0.002492339
0.002491957
0.002491216
0.00249012
0.002488675
0.002486888
0.002484768
0.002482325
0.00247957
0.002476516
0.002473175
0.002469561
0.002465688
0.002461572
0.002457227
0.002452668
0.002447913
0.002442975
0.002437872
0.00243262
0.002427232
0.002421726
0.002416116
0.002410418
0.002404645
0.002398814
0.002392938
0.002387031
0.002381108
0.002375183
0.00236927
0.002363382
0.002357535
0.002351741
0.002346018
0.002340378
0.002334839
0.002329413
0.002324125
0.002318983
0.002314022
0.002309243
0.0023047
0.002300386
0.002296384
0.002292667
0.00228938
0.00228647
0.002284181
0.002282385
0.002281439
0.002281151
0.002283152
0.002289342
0.002299983
2.615321e-05
3.108521e-05
3.839418e-05
4.672487e-05
5.623827e-05
6.710353e-05
7.963468e-05
9.393928e-05
0.0001102361
0.0001376135
0.0006537407
0.0007742956
0.0009025041
0.001039555
0.001187493
0.00135146
0.001542287
0.001797933
0.002341995
0.003814175
0.004087337
0.00431109
0.004516031
0.004709395
0.004884675
0.005050142
0.005231539
0.005473261
0.005948472
0.006289149
0.006434883
0.006559164
0.006674285
0.006776632
0.006869356
0.006954056
0.007032908
0.007120922
0.007146351
0.007311328
0.007450259
0.007551714
0.007626184
0.007682585
0.007726339
0.007760818
0.007788649
0.007812769
0.007840254
0.007876688
0.007919582
0.007964776
0.00800804
0.008046333
0.00807781
0.008099479
0.008921637
0.008934542
0.008936829
0.008934023
0.008928525
0.008921308
0.008912786
0.008902974
0.00889185
0.008878949
0.008863585
0.008846008
0.008826344
0.008804504
0.008780761
0.0087554
0.008728747
0.008701243
0.008673357
0.008644563
0.008614967
0.008585929
0.008558143
0.008532444
0.008510058
0.008492376
0.008480828
0.008476778
0.008481618
0.008496737
0.008523236
0.008561862
0.008613236
0.008677528
0.008754583
0.00884344
0.008943222
0.009053579
0.009148075
0.009247729
0.009348662
0.009446764
0.009538426
0.009620452
0.009690052
0.009744943
0.009783463
0.009804513
0.009807776
0.009793471
0.009761819
0.009713176
0.009648478
0.009569235
0.009479409
0.009386733
0.009281408
0.009155682
0.009011863
0.0088602
0.008703066
0.008539429
0.00837071
0.008200899
0.008034548
0.007875192
0.007725554
0.007587694
0.007463052
0.007352552
0.007256727
0.007175865
0.00711012
0.007059642
0.007024704
0.007005698
0.007003203
0.007017151
0.007045706
0.007087068
0.007135195
0.007193811
0.007262895
0.007340876
0.00742701
0.00751897
0.007614699
0.007716109
0.007824417
0.007938029
0.008054754
0.008172161
0.008287641
0.008398418
0.008501508
0.008593895
0.008673577
0.00873923
0.008790216
0.0088265
0.008848322
0.008855722
0.008847826
0.008820678
0.008772837
0.00870273
0.008607785
0.008484683
0.008329417
0.008137233
0.0079027
0.007620004
0.007282948
0.006885846
0.006424785
0.005914168
0.005392973
0.00489206
0.004428049
0.004015885
0.003660806
0.003367638
0.003139244
0.002967773
0.002842968
0.002755326
0.002696151
0.002603102
0.002512898
0.002449226
0.002398781
0.00235694
0.002316444
0.002276193
0.002251076
0.002257863
0.00230097
0.002377657
0.002486334
0.002631437
0.002816279
0.003037812
0.003291785
0.003565861
0.003814026
0.003992827
0.0041726
0.004351378
0.00452684
0.004696513
0.004857897
0.005008818
0.005148377
0.005275903
0.005390755
0.005496031
0.00559316
0.005682673
0.005764881
0.005840064
0.005908501
0.005970523
0.006026519
0.006076925
0.006122187
0.006162748
0.006199057
0.006231523
0.00626049
0.006286293
0.006309211
0.006329469
0.006347235
0.006362619
0.006375685
0.006386457
0.006394925
0.006401052
0.006404776
0.00640602
0.006404677
0.006400657
0.006393784
0.006383993
0.006370892
0.006354069
0.006322153
0.006302273
0.006283185
0.006260479
0.006232959
0.006200502
0.006163355
0.00612186
0.006076402
0.006027359
0.005975092
0.005919938
0.005862215
0.005802212
0.005740191
0.005676376
0.00561096
0.005544108
0.005475964
0.005406649
0.00533626
0.005264856
0.005192467
0.005119103
0.005044756
0.004969423
0.004893102
0.004815793
0.004737488
0.004658255
0.004578233
0.004497605
0.004416689
0.004336036
0.004256378
0.004178576
0.00410319
0.004030142
0.003959257
0.003890507
0.003823919
0.003759558
0.003697523
0.003637929
0.003580897
0.003526573
0.003475135
0.003426822
0.003381654
0.003339431
0.00330001
0.003263283
0.003229157
0.003197547
0.003168347
0.003141481
0.003116865
0.003094397
0.00307395
0.003055396
0.003038627
0.003023543
0.003010029
0.002997998
0.002987326
0.002977963
0.00296976
0.002962708
0.002956466
0.002951958
0.00294485
0.002938512
0.002932716
0.002927906
0.00292441
0.002922223
0.002921136
0.002921058
0.002921924
0.002923677
0.002926268
0.002929659
0.002933828
0.002938765
0.00294446
0.002950902
0.002958079
0.002965979
0.002974586
0.002983879
0.002993835
0.003004427
0.003015628
0.003027406
0.003039728
0.003052554
0.003065846
0.003079559
0.003093652
0.003108077
0.003122792
0.003137751
0.003152914
0.00316824
0.003183692
0.003199231
0.003214824
0.003230435
0.003246034
0.003261587
0.003277067
0.003292445
0.003307691
0.003322771
0.003337638
0.003352228
0.003366478
0.003380377
0.003393951
0.003407227
0.003420207
0.003432895
0.00344528
0.003457345
0.003468992
0.003480265
0.003491307
0.003502121
0.003512643
0.003522833
0.003532693
0.003542237
0.003551469
0.003560392
0.003569005
0.003577304
0.003585285
0.003592938
0.003600254
0.003607222
0.00361383
0.003620066
0.003625918
0.003631371
0.003636414
0.003641033
0.003645216
0.003648952
0.003652228
0.003655035
0.003657363
0.003659204
0.003660552
0.003661401
0.003661748
0.00366159
0.003660929
0.003659766
0.003658103
0.003655948
0.003653306
0.003650187
0.003646602
0.003642562
0.003638082
0.003633176
0.00362786
0.003622152
0.00361607
0.003609632
0.003602859
0.003595769
0.003588384
0.003580725
0.003572811
0.003564664
0.003556304
0.003547753
0.003539031
0.003530158
0.003521156
0.003512044
0.003502844
0.003493576
0.003484259
0.003474916
0.003465567
0.003456234
0.003446937
0.0034377
0.003428544
0.003419496
0.003410576
0.003401815
0.003393235
0.003384874
0.003376753
0.003368921
0.003361403
0.00335426
0.003347521
0.00334127
0.003335544
0.003330464
0.003326125
0.003322835
0.003321071
0.003321474
0.003324272
3.384779e-05
5.33458e-05
0.0001211073
0.0003990755
0.0006790012
0.001191398
0.001595712
0.002078672
0.002634724
0.003083148
0.003404637
0.003661151
0.003924653
0.004208791
0.004501377
0.004799883
0.005106343
0.005423214
0.005752173
0.006092468
0.006439869
0.006785592
0.007111898
0.007428786
0.007732478
0.008014668
0.008285741
0.008552405
0.008819124
0.009102161
0.009467506
0.01
0.01
0.01
0.01
0.01
0.01
0.01
0.01
0.01
0.01
0.01
0.01
0.01
0.01
0.01
0.01
0.01
0.009994889
0.009950944
0.009899913
0.009876263
0.009887129
0.009920047
0.009973931
0.01
0.01
0.01
0.01
0.01
0.01
0.01
0.01
0.01
0.01
0.01
0.01
0.01
0.01
0.01
0.01
0.01
0.01
0.01
0.01
0.01
0.01
0.01
0.01
0.01
0.01
0.01
0.01
0.01
0.01
0.01
0.01
0.01
0.01
0.01
0.01
0.01
0.01
0.01
0.01
0.01
0.01
0.01
0.01
0.01
0.01
0.01
0.01
0.01
0.01
0.01
0.01
0.01
0.01
0.01
0.01
0.01
0.01
0.01
0.01
0.01
0.01
0.01
0.01
0.01
0.01
0.01
0.01
0.01
0.01
0.01
0.01
0.01
0.01
0.01
0.01
0.009914244
0.009747188
0.009584217
0.009428274
0.009281688
0.009146247
0.009023256
0.008913608
0.008817884
0.008736449
0.008669358
0.008616986
0.008579737
0.008558013
0.008551896
0.008560912
0.008584025
0.008618827
0.008662437
0.008717609
0.008783575
0.008859783
0.008945416
0.009039286
0.009140818
0.009250028
0.009366067
0.009487082
0.009610658
0.009734071
0.009854348
0.009968272
0.01
0.01
0.01
0.01
0.01
0.01
0.01
0.01
0.01
0.01
0.01
0.01
0.01
0.01
0.009956534
0.009766169
0.009529309
0.009240192
0.008893615
0.008485505
0.008018768
0.007511445
0.0069837
0.006452076
0.005934499
0.005445598
0.005000028
0.004611043
0.004283165
0.004014444
0.003799947
0.003632765
0.003504431
0.003406517
0.003332062
0.003275808
0.003234358
0.003177197
0.003099786
0.003016146
0.002919478
0.002824558
0.002753502
0.002717931
0.002723086
0.002771794
0.002866351
0.003004272
0.003183302
0.003400938
0.00365397
0.003933779
0.004229187
0.004531392
0.004833268
0.005122754
0.005337402
0.005520045
0.005692306
0.005853398
0.006002546
0.006141382
0.006270981
0.006391998
0.006504857
0.006609868
0.006707321
0.006797539
0.00688089
0.006957793
0.007028687
0.007094042
0.007154328
0.007210001
0.007261483
0.007309157
0.007353347
0.00739433
0.007432342
0.00746754
0.007500015
0.007529809
0.007556914
0.007581286
0.007602845
0.007621473
0.007637042
0.007649373
0.007658322
0.007663664
0.007665317
0.007662091
0.007655189
0.007644872
0.007630911
0.007613003
0.007590915
0.007564535
0.007533856
0.007498976
0.007460056
0.007417304
0.007370955
0.007321264
0.007268495
0.007212899
0.007154721
0.007094186
0.007031498
0.006966835
0.006900345
0.006832141
0.006762313
0.006690918
0.006617992
0.006543543
0.006467571
0.006390056
0.006310979
0.006230326
0.006148098
0.00606432
0.005979073
0.005892498
0.005804859
0.005716543
0.005628045
0.005539827
0.005452144
0.005365121
0.005278933
0.005193793
0.005109962
0.005027721
0.004947361
0.004869175
0.004793478
0.004720612
0.004650666
0.004583505
0.004519341
0.004458303
0.004400472
0.004345886
0.004294553
0.004246448
0.004201523
0.004159707
0.004120902
0.004085
0.004051874
0.004021389
0.003993401
0.003967763
0.003944331
0.003922959
0.003903512
0.003885851
0.003869855
0.003855348
0.003842427
0.003830506
0.00381946
0.00380965
0.003801193
0.003793896
0.003787495
0.003781956
0.003777313
0.003773619
0.003770911
0.003769216
0.003768551
0.003768943
0.003770488
0.003773205
0.003777075
0.003782073
0.003788175
0.003795357
0.0038036
0.003812881
0.003823171
0.003834438
0.003846643
0.003859742
0.003873684
0.003888417
0.003903883
0.003920024
0.003936777
0.003954079
0.003971869
0.003990084
0.004008664
0.004027553
0.004046695
0.004066037
0.004085528
0.00410512
0.004124768
0.004144429
0.00416406
0.004183619
0.004203064
0.004222346
0.004241415
0.004260216
0.00427871
0.004296889
0.004314758
0.004332317
0.004349557
0.004366453
0.004383008
0.004399243
0.004415118
0.004430604
0.004445703
0.004460427
0.004474782
0.004488773
0.004502399
0.004515656
0.004528537
0.004541032
0.004553132
0.004564826
0.004576103
0.004586949
0.004597353
0.0046073
0.004616777
0.004625772
0.004634269
0.004642255
0.004649717
0.004656642
0.004663015
0.004668825
0.004674059
0.004678707
0.004682759
0.004686205
0.00468904
0.004691255
0.004692848
0.004693816
0.004694158
0.004693875
0.004692971
0.004691451
0.004689321
0.004686592
0.004683274
0.00467938
0.004674924
0.004669922
0.004664392
0.004658352
0.004651823
0.004644824
0.004637377
0.004629505
0.00462123
0.004612576
0.004603565
0.004594221
0.004584568
0.00457463
0.00456443
0.004553994
0.004543344
0.004532505
0.004521502
0.004510358
0.004499099
0.00448775
0.004476337
0.004464885
0.004453423
0.004441977
0.004430576
0.004419249
0.004408029
0.004396944
0.004386033
0.004375327
0.00436487
0.004354694
0.004344853
0.004335384
0.00432635
0.004317822
0.004309873
0.004302686
0.004296342
0.004291284
0.004287535
0.004286325
1.960695e-05
3.138504e-05
4.668892e-05
0.000200386
0.0003256783
0.0005428238
0.0007595705
0.0009597171
0.001213242
0.001462705
0.001736149
0.002092014
0.002518682
0.003008199
0.003569946
0.004302867
0.005682781
0.006252696
0.00681232
0.007325574
0.007783361
0.008183713
0.008546517
0.008885601
0.009207867
0.009516713
0.009813328
0.01
0.01
0.01
0.01
0.01
0.01
0.01
0.01
0.01
0.01
0.01
0.01
0.01
0.01
0.01
0.01
0.01
0.01
0.01
0.01
0.01
0.01
0.01
0.01
0.01
0.01
0.009845804
0.009616656
0.009405829
0.009222821
0.00906858
0.00894313
0.008845402
0.008774607
0.008724057
0.008699506
0.008705242
0.008736792
0.008787107
0.008858366
0.008946969
0.009052367
0.009179735
0.009324806
0.009504612
0.00971518
0.009975702
0.01
0.01
0.01
0.01
0.01
0.01
0.01
0.01
0.01
0.01
0.01
0.01
0.01
0.01
0.01
0.01
0.01
0.01
0.01
0.01
0.01
0.01
0.01
0.01
0.01
0.01
0.01
0.01
0.01
0.01
0.01
0.01
0.01
0.01
0.01
0.01
0.01
0.01
0.01
0.01
0.01
0.01
0.01
0.01
0.01
0.01
0.01
0.01
0.01
0.01
0.01
0.01
0.01
0.01
0.01
0.01
0.01
0.01
0.01
0.01
0.01
0.01
0.01
0.01
0.01
0.01
0.01
0.01
0.01
0.01
0.01
0.01
0.01
0.01
0.01
0.01
0.01
0.01
0.009933441
0.009870098
0.009820309
0.009784486
0.009762881
0.009755489
0.009761942
0.009781245
0.009811628
0.009853455
0.009907733
0.009974157
0.01
0.01
0.01
0.01
0.01
0.01
0.01
0.01
0.01
0.01
0.01
0.01
0.01
0.01
0.01
0.01
0.01
0.01
0.01
0.01
0.01
0.01
0.01
0.01
0.01
0.01
0.01
0.01
0.01
0.01
0.009766231
0.009328366
0.008851525
0.008344433
0.007818264
0.007287661
0.006768947
0.006279863
0.005833941
0.005438626
0.005097094
0.004808872
0.004570051
0.0043747
0.004216194
0.004088018
0.003984605
0.003901796
0.003836728
0.003787713
0.00375363
0.003730334
0.003624101
0.003513995
0.003399873
0.003296683
0.003226709
0.003202418
0.003227324
0.00330253
0.003427157
0.003595243
0.003800577
0.004038128
0.004301172
0.004580421
0.004865628
0.005148627
0.005421642
0.005679166
0.005919171
0.006139868
0.006340189
0.006521767
0.006686911
0.006837354
0.00697521
0.007102375
0.007220274
0.007330158
0.007433144
0.007530177
0.007621973
0.007709058
0.007791857
0.007870649
0.007945493
0.008010234
0.008070368
0.008127222
0.008180993
0.008231809
0.008279732
0.008324762
0.008366849
0.008405891
0.008441748
0.008474235
0.00850316
0.008528288
0.008549393
0.008566048
0.008577975
0.008585197
0.008587711
0.008585452
0.008578359
0.008566428
0.00854971
0.008528309
0.008502372
0.008472084
0.008437662
0.008399341
0.008357374
0.00831202
0.008263523
0.00821213
0.008158069
0.008101544
0.008042732
0.007981777
0.007918795
0.007853869
0.007787052
0.007718368
0.007647808
0.007575351
0.007500963
0.007424604
0.007346239
0.007265846
0.007183433
0.007099056
0.007012836
0.006924968
0.006835716
0.006745372
0.006654174
0.006562289
0.006469886
0.006377194
0.006284502
0.00619214
0.006100461
0.006009826
0.005920592
0.005833107
0.005747636
0.005664508
0.005584017
0.005506405
0.00543189
0.005360622
0.005292713
0.005228238
0.005167234
0.005109698
0.005055593
0.005004852
0.004957379
0.004913057
0.004871745
0.004833303
0.00479757
0.004764383
0.004733583
0.004705012
0.004678524
0.004653969
0.004631257
0.004610266
0.004590839
0.004572838
0.00455622
0.004540981
0.004527126
0.004514656
0.004503552
0.004493807
0.004485423
0.004478409
0.00447277
0.004468492
0.004465467
0.004463708
0.004463245
0.004464095
0.004466271
0.004469784
0.004474662
0.004481002
0.004488792
0.004497978
0.00450851
0.004520339
0.004533415
0.004547676
0.004563058
0.004579486
0.004596886
0.004615176
0.004634277
0.004654108
0.004674588
0.00469564
0.004717188
0.004739158
0.004761482
0.004784092
0.004806926
0.004829924
0.004853027
0.004876181
0.00489933
0.00492242
0.004945393
0.004968195
0.004990777
0.00501311
0.005035178
0.005056968
0.005078463
0.005099649
0.005120518
0.005141062
0.005161232
0.005180996
0.005200358
0.005219331
0.005237918
0.005256115
0.005273915
0.005291312
0.005308296
0.005324857
0.005340983
0.005356662
0.005371882
0.005386627
0.005400885
0.005414641
0.005427879
0.005440584
0.005452741
0.005464334
0.005475346
0.005485762
0.005495567
0.005504746
0.005513283
0.005521165
0.005528379
0.005534914
0.005540758
0.005545903
0.005550341
0.005554067
0.005557075
0.005559365
0.005560937
0.005561792
0.005561936
0.005561374
0.005560116
0.005558171
0.005555553
0.005552276
0.005548355
0.005543808
0.005538654
0.005532914
0.005526608
0.005519758
0.005512387
0.00550452
0.005496178
0.005487388
0.005478172
0.005468557
0.005458566
0.005448226
0.005437562
0.005426598
0.005415361
0.005403878
0.005392173
0.005380276
0.005368212
0.005356011
0.005343701
0.005331311
0.005318873
0.005306418
0.00529398
0.00528159
0.005269287
0.005257105
0.005245084
0.005233263
0.005221686
0.005210401
0.005199458
0.005188938
0.0051789
0.005169506
0.005160781
0.0051531
0.00514638
0.00514229
1.816782e-05
2.779493e-05
5.320791e-05
0.0001587244
0.0002550388
0.0004017515
0.0005147033
0.0006435127
0.0007951283
0.0009442321
0.001119502
0.001347668
0.001611255
0.001928095
0.002344324
0.003140852
0.003517868
0.003927135
0.004361751
0.004820314
0.005307037
0.00581441
0.00632931
0.00683847
0.00732846
0.007790503
0.008242334
0.008749368
0.009232959
0.009680812
0.01
0.01
0.01
0.01
0.01
0.01
0.01
0.01
0.01
0.01
0.01
0.01
0.01
0.01
0.01
0.01
0.01
0.01
0.01
0.01
0.01
0.01
0.01
0.01
0.01
0.01
0.01
0.01
0.01
0.009857326
0.009528164
0.009209142
0.008925283
0.00866603
0.008432189
0.008227157
0.008055963
0.007918804
0.007814795
0.007742551
0.007700572
0.007688043
0.00770176
0.007746479
0.007819894
0.007919541
0.008053294
0.008214273
0.00842223
0.008671235
0.008966016
0.009296113
0.009655888
0.01
0.01
0.01
0.01
0.01
0.01
0.01
0.01
0.01
0.01
0.01
0.01
0.01
0.01
0.01
0.01
0.01
0.01
0.01
0.01
0.01
0.01
0.01
0.01
0.01
0.01
0.01
0.01
0.01
0.01
0.01
0.01
0.01
0.01
0.01
0.01
0.01
0.01
0.01
0.01
0.01
0.01
0.01
0.01
0.01
0.01
0.01
0.01
0.01
0.01
0.01
0.01
0.01
0.01
0.01
0.01
0.01
0.01
0.01
0.01
0.01
0.01
0.01
0.01
0.01
0.01
0.01
0.01
0.01
0.01
0.01
0.01
0.01
0.01
0.01
0.01
0.01
0.01
0.01
0.01
0.01
0.01
0.01
0.01
0.01
0.01
0.01
0.01
0.01
0.01
0.01
0.01
0.01
0.01
0.01
0.01
0.01
0.01
0.01
0.01
0.01
0.01
0.01
0.01
0.01
0.01
0.01
0.01
0.01
0.01
0.01
0.01
0.01
0.01
0.01
0.01
0.01
0.01
0.01
0.01
0.01
0.01
0.01
0.01
0.009938127
0.009462932
0.008962324
0.008447584
0.00793311
0.007434948
0.006965887
0.006535443
0.006149717
0.005811028
0.00551848
0.005268965
0.005058016
0.004880703
0.004732247
0.004608279
0.004505017
0.004419476
0.004349751
0.004295257
0.004256613
0.004235127
0.004232068
0.004145544
0.004022013
0.003912183
0.003828108
0.003785803
0.003793529
0.003849999
0.003951056
0.004093168
0.004272628
0.004479693
0.004705771
0.004944796
0.005189825
0.005434346
0.005670698
0.005893209
0.006102562
0.006299065
0.006483385
0.006656922
0.006820625
0.006974519
0.007119422
0.007256383
0.007386215
0.007509437
0.007626424
0.007737524
0.007843159
0.007943876
0.008040295
0.008132999
0.00822256
0.008309557
0.008394546
0.008478033
0.008560501
0.008642264
0.008723682
0.008804765
0.008885809
0.008965787
0.009043488
0.009116025
0.009159563
0.009189823
0.009214947
0.009234689
0.009249029
0.009257982
0.009261591
0.009259943
0.009253153
0.009241375
0.00922479
0.009203608
0.009178061
0.009148402
0.00911489
0.009077792
0.009037368
0.008993866
0.008947516
0.008898525
0.008847078
0.008793333
0.008737408
0.008679383
0.0086193
0.008557164
0.008492953
0.008426625
0.008358125
0.008287391
0.008214369
0.008139024
0.008061353
0.0079814
0.007899254
0.00781505
0.00772895
0.007641103
0.007551633
0.007460663
0.007368362
0.007274957
0.007180723
0.007085971
0.006991035
0.006896259
0.006801962
0.006708614
0.006616656
0.006526488
0.00643847
0.006352919
0.006270111
0.006190275
0.006113595
0.006040211
0.005970216
0.005903659
0.005840548
0.00578085
0.005724493
0.005671389
0.00562141
0.005574411
0.005530237
0.005488724
0.005449704
0.005413015
0.005378492
0.005345998
0.005315403
0.005286559
0.00525934
0.005233709
0.005209655
0.005187162
0.005166202
0.005146757
0.005128831
0.005112449
0.005097639
0.005084434
0.005072861
0.005062938
0.005054681
0.005048106
0.005043233
0.00504007
0.005038615
0.00503883
0.005040583
0.005043876
0.005048728
0.005055157
0.005063226
0.005072996
0.00508439
0.005097333
0.005111748
0.00512755
0.00514465
0.005162954
0.005182365
0.005202786
0.00522412
0.005246272
0.005269147
0.005292656
0.005316712
0.005341231
0.005366135
0.005391348
0.005416796
0.005442411
0.005468124
0.005493869
0.005519582
0.005545207
0.005570698
0.005596023
0.005621152
0.005646061
0.005670725
0.005695121
0.005719221
0.005742994
0.005766415
0.005789475
0.005812171
0.005834495
0.005856437
0.005877987
0.005899134
0.00591987
0.005940182
0.005960058
0.005979486
0.005998452
0.006016941
0.006034938
0.006052428
0.006069395
0.006085821
0.006101689
0.006116981
0.006131681
0.006145769
0.006159228
0.006172039
0.006184186
0.00619565
0.006206417
0.00621647
0.006225795
0.006234379
0.00624221
0.006249279
0.006255578
0.0062611
0.006265842
0.006269802
0.006272981
0.00627538
0.006277006
0.006277866
0.006277968
0.006277325
0.00627595
0.006273858
0.006271065