/*--------------------------------*- C++ -*----------------------------------*\
| =========                 |                                                 |
| \\      /  F ield         | foam-extend: Open Source CFD                    |
|  \\    /   O peration     | Version:     3.1                                |
|   \\  /    A nd           | Web:         http://www.extend-project.de       |
|    \\/     M anipulation  |                                                 |
\*---------------------------------------------------------------------------*/
FoamFile
{
    version     2.0;
    format      ascii;
    class       volScalarField;
    location    "9";
    object      p;
}
// * * * * * * * * * * * * * * * * * * * * * * * * * * * * * * * * * * * * * //

dimensions      [1 -1 -2 0 0 0 0];

internalField   nonuniform List<scalar> 
119952
(
7226.32
6054.334
5914.997
6100.936
6284.568
6198.69
6206.332
6220.575
6249.01
6282.533
6319.867
6360.316
6402.552
6445.759
6489.266
6532.292
6573.98
6612.822
6642.611
6639.018
6849.914
6783.775
6786.23
7046.597
7047.038
7102.315
7149.516
7233.68
7490.915
9135.586
5710.442
5710.657
5748.24
5789.095
5832.906
5878.524
5925.502
5973.228
6020.747
6053.011
6074.418
6115.693
6143.152
6164.583
6179.099
6185.394
6184.814
6170.803
6153.536
6087.447
6048.079
5992.549
5934.875
5873.836
5810.353
5746.947
5686.251
5629.187
5582.436
5534.53
5495.192
5473.907
5462.586
5462.214
5471.236
5493.772
5531.934
5621.015
5788.509
5696.248
5725.998
5816.327
5879.4
5909.517
5922.637
5949.096
5981.829
6018.368
6058.159
6100.304
6143.832
6187.995
6232.209
6275.825
6318.145
6358.542
6397.281
6437.018
6490.13
6539.643
6576.679
6660.817
6766.443
6809.038
6844.072
6877.989
6860.753
6716.482
6696.695
6732.2
6744.422
6752.818
6756.248
6754.58
6748.983
6740.341
6729.313
6716.987
6704.381
6692.617
6682.77
6675.942
6673.227
6675.614
6684.083
6699.328
6722.06
6752.831
6792.076
6840.022
6896.757
6962.07
7035.295
7115.225
7198.64
7276.218
7327.658
7346.258
7372.367
7436.428
7505.701
7565.761
7607.623
7624.651
7655.534
7689.561
7717.469
7742.75
7767.319
7790.42
7811.388
7830.616
7848.17
7865.228
7883.866
7904.732
7926.595
7947.718
7966.143
7982.115
7995.963
8007.788
8017.751
8026.133
8033.329
8039.766
8045.813
8051.778
8057.985
8064.778
8072.485
8081.379
8091.646
8103.385
8116.622
8131.348
8147.458
8164.836
8183.308
8202.714
8222.875
8243.604
8264.722
8286.059
8307.467
8328.808
8349.972
8370.857
8391.383
8411.479
8431.089
8450.165
8468.654
8486.541
8503.805
8520.424
8536.38
8551.663
8566.264
8580.179
8593.404
8605.938
8617.777
8628.911
8639.332
8649.057
8658.673
8699.154
8705.958
8713.677
8720.667
8727.034
8732.662
8737.706
8742.187
8746.127
8749.55
8752.483
8754.96
8756.983
8758.605
8759.852
8760.752
8761.333
8761.632
8761.676
8761.484
8761.083
8760.493
8759.73
8758.81
8757.75
8756.657
8755.369
8753.962
8752.414
8750.71
8748.81
8746.641
8744.055
8740.719
8735.971
8730.269
8735.432
8738.947
8741.451
8743.42
8745.106
8746.616
8748.013
8749.334
8750.608
8751.848
8753.067
8754.271
8755.467
8756.658
8757.846
8759.036
8760.231
8761.442
8762.674
8763.915
8765.163
8766.416
8767.679
8768.957
8770.25
8771.551
8772.896
8774.22
8775.559
8776.913
8778.288
8779.69
8781.074
8782.354
8765.154
8759.605
8754.881
8756.459
8757.563
8758.291
8759.231
8760.219
8761.187
8762.148
8763.085
8764.005
8764.893
8765.744
8766.553
8767.315
8768.027
8768.688
8769.299
8769.858
8770.36
8770.817
8771.224
8771.585
8771.904
8772.183
8772.426
8772.636
8772.815
8772.966
8773.092
8773.194
8773.275
8773.337
8773.383
8773.416
8773.439
8773.455
8773.469
8773.489
8773.522
8773.582
8773.695
8773.892
8774.149
8774.157
8773.518
8772.577
8771.802
8771.134
8770.507
8769.94
8769.312
8768.053
8763.712
8765.164
8765.187
8764.425
8763.709
8762.973
8762.228
8761.489
8760.757
8760.034
8759.309
8758.584
8757.858
8757.128
8756.389
8755.639
8754.878
8754.102
8753.312
8752.507
8751.685
8750.846
8749.989
8749.114
8748.221
8747.308
8746.376
8745.423
8744.448
8743.453
8742.435
8741.394
8740.329
8739.241
8738.128
8736.99
8735.826
8734.636
8733.419
8732.176
8730.905
8729.607
8728.28
8726.926
8725.542
8724.131
8722.69
8721.22
8719.721
8718.193
8716.634
8715.046
8713.426
8711.776
8710.093
8708.378
8706.63
8704.846
8703.027
8701.169
8699.271
8697.33
8695.343
8693.307
8691.216
8689.065
8686.848
8684.556
8682.18
8679.708
8677.125
8674.411
8671.546
8668.5
8665.231
8661.679
8657.761
8653.392
8648.407
8642.519
8635.31
8626.407
8617.755
8622.386
8664.863
7764.418
7737.479
7692.205
7633.312
7563.108
7483.286
7395.451
7300.889
7199.659
7069.282
6963.072
6853.161
6743.776
6636.306
6531.081
6428.639
6329.257
6232.243
6094.41
6017.645
5931.367
5850.656
5776.686
5708.139
5645.36
5588.414
5537.549
5493.936
5457.47
5418.968
5394.545
5376.859
5366.487
5363.685
5367.904
5379.188
5398.124
5428.078
5445.458
5476.99
5517.36
5559.699
5603.866
5649.145
5694.525
5738.651
5780.219
5816.372
5849.973
5877.628
5897.144
5909.065
5912.815
5907.52
5893.345
5872.81
5754.341
5707.105
5658.487
5599.888
5534.375
5466.837
5400.654
5337.99
5280.522
5229.112
5187.396
5156.573
5136.073
5126.661
5129.735
5146.303
5177.514
5223.594
5281.789
5340.809
5381.56
5416.686
5464.839
5516.763
5561.529
5599.006
5635.656
5674.997
5717.421
5762.026
5807.848
5854.237
5900.758
5947.018
5992.663
6037.496
6081.633
6125.837
6171.296
6219.129
6269.659
6321.665
6378.56
6434.534
6479.184
6508.055
6512.809
6496.1
6467.395
6445.769
6443.303
6448.254
6451.181
6449.066
6442.495
6432.798
6420.859
6407.265
6392.848
6378.666
6365.845
6355.532
6348.743
6346.456
6349.526
6359.43
6376.112
6400.197
6432.294
6472.709
6521.383
6577.946
6641.572
6710.481
6782.099
6853.403
6918.823
6972.91
7017.155
7066.673
7125.718
7185.715
7239.392
7282.927
7315.789
7350.736
7385.687
7415.592
7442.816
7469.143
7493.214
7515.085
7535.543
7555.185
7574.873
7595.255
7615.393
7634.562
7651.929
7667.986
7682.835
7696.115
7707.522
7717.078
7725.042
7731.876
7738.011
7743.663
7749.121
7754.836
7761.204
7768.572
7777.236
7787.37
7799.03
7812.229
7826.917
7843.026
7860.401
7878.879
7898.285
7918.426
7939.112
7960.16
7981.402
8002.69
8023.894
8044.9
8065.615
8085.959
8105.864
8125.276
8144.15
8162.448
8180.144
8197.216
8213.644
8229.415
8244.517
8258.943
8272.691
8285.757
8298.142
8309.846
8320.879
8331.206
8340.82
8349.257
8420.209
8425.857
8433.936
8441.032
8447.416
8453.154
8458.287
8462.856
8466.885
8470.401
8473.429
8475.995
8478.128
8479.858
8481.214
8482.225
8482.926
8483.328
8483.471
8483.384
8483.088
8482.605
8481.962
8481.222
8480.212
8479.144
8477.958
8476.642
8475.191
8473.606
8471.84
8469.852
8467.586
8465.046
8462.542
8461.04
8462.115
8464.433
8466.352
8468.086
8469.681
8471.143
8472.521
8473.84
8475.118
8476.369
8477.601
8478.817
8480.027
8481.232
8482.439
8483.647
8484.862
8486.087
8487.325
8488.565
8489.809
8491.057
8492.304
8493.592
8494.881
8496.18
8497.491
8498.812
8500.142
8501.486
8502.836
8504.197
8505.742
8508.386
8451.592
8452.874
8451.124
8450.654
8451.493
8452.436
8453.322
8454.208
8455.131
8456.079
8457.017
8457.923
8458.789
8459.615
8460.4
8461.138
8461.825
8462.461
8463.045
8463.578
8464.062
8464.495
8464.881
8465.222
8465.521
8465.782
8466.006
8466.197
8466.358
8466.49
8466.597
8466.681
8466.744
8466.789
8466.817
8466.831
8466.835
8466.831
8466.824
8466.817
8466.815
8466.822
8466.831
8466.819
8466.73
8466.484
8466.012
8465.365
8464.685
8464.037
8463.409
8462.785
8462.119
8461.28
8459.953
8458.697
8457.967
8457.479
8456.909
8456.199
8455.424
8454.647
8453.883
8453.124
8452.369
8451.615
8450.86
8450.102
8449.338
8448.565
8447.782
8446.987
8446.18
8445.358
8444.521
8443.669
8442.799
8441.913
8441.009
8440.086
8439.144
8438.183
8437.201
8436.197
8435.173
8434.125
8433.055
8431.961
8430.844
8429.701
8428.533
8427.34
8426.12
8424.874
8423.6
8422.3
8420.971
8419.615
8418.231
8416.818
8415.377
8413.907
8412.408
8410.88
8409.322
8407.734
8406.115
8404.466
8402.785
8401.071
8399.324
8397.543
8395.725
8393.87
8391.975
8390.037
8388.054
8386.021
8383.935
8381.79
8379.58
8377.296
8374.932
8372.473
8369.91
8367.222
8364.395
8361.394
8358.201
8354.754
8351.034
8346.959
8342.548
8337.817
8333.214
8329.543
8328.351
8330.284
8335.936
3660.365
3655.174
3664.67
3685.473
3717.15
3759.369
3811.707
3875.606
3950.532
4036.971
4117.526
4225.607
4342.74
4470.453
4608.235
4755.135
4910.199
5071.883
5237.673
5402.092
5578.425
5756.142
5934.157
6110.167
6281.415
6446.51
6603.572
6751.518
6891.658
7014.964
7124.507
7219.874
7299.352
7362.207
7407.939
7436.222
7447.075
7441.478
7414.773
7379.557
7328.365
7264.994
7191.135
7108.322
7017.99
6921.751
6821.544
6718.815
6613.32
6507.735
6401.67
6297.13
6194.637
6094.971
5999.582
5912.747
5722.902
5641.685
5567.738
5493.905
5422.994
5357.383
5297.561
5243.396
5194.965
5152.319
5115.852
5086.34
5063.574
5047.79
5039.6
5039.17
5046.25
5060.453
5081.284
5108.022
5140.012
5176.355
5216.97
5261.339
5308.325
5356.508
5404.552
5451.138
5494.997
5534.841
5568.859
5596.104
5615.639
5626.423
5627.507
5618.087
5597.448
5564.875
5518.547
5465.149
5407.786
5342.91
5272
5199.197
5128.023
5060.82
4999.489
4946.15
4902.455
4869.178
4847.549
4838.637
4842.845
4860.379
4890.191
4931.304
4980.775
5036.196
5085.666
5128.675
5176.285
5229.629
5281.664
5328.711
5373.15
5418.574
5466.078
5515.029
5564.582
5614.215
5663.633
5712.601
5760.929
5808.542
5855.474
5902.03
5948.649
5995.923
6044.18
6092.319
6140.25
6186.415
6223.73
6248.003
6255.942
6251.562
6238.051
6222.809
6215.204
6213.941
6211.882
6205.612
6195.27
6182.013
6166.771
6150.179
6133.009
6116.333
6101.32
6089.098
6080.7
6077.085
6079.113
6087.623
6103.116
6126.087
6157.058
6196.236
6243.439
6298.139
6359.128
6424.537
6492.319
6559.836
6624.414
6683.579
6735.779
6788.222
6846.431
6905.508
6961.891
7011.519
7051.209
7089.382
7128.147
7162.535
7192.752
7221.044
7247.634
7272.29
7294.885
7315.243
7334.105
7352.975
7373.087
7394.153
7414.835
7432.911
7447.463
7459.407
7469.566
7478.107
7485.291
7491.389
7496.699
7501.564
7506.344
7511.42
7517.182
7524
7532.228
7542.002
7553.301
7566.16
7580.549
7596.439
7613.624
7631.974
7651.277
7671.327
7691.926
7712.885
7734.037
7755.229
7776.334
7797.238
7817.85
7838.09
7857.895
7877.212
7895.997
7914.215
7931.837
7948.838
7965.2
7980.912
7995.961
8010.343
8024.053
8037.091
8049.46
8061.16
8072.211
8082.599
8092.459
8101.897
8111.804
8119.87
8126.977
8133.611
8139.77
8145.358
8150.363
8154.815
8158.743
8162.17
8165.118
8167.616
8169.689
8171.367
8172.68
8173.655
8174.322
8174.708
8174.842
8174.751
8174.458
8173.985
8173.354
8172.582
8171.677
8170.659
8169.533
8168.3
8166.962
8165.523
8163.984
8162.362
8160.711
8159.165
8157.981
8157.536
8158.043
8159.252
8160.702
8162.144
8163.523
8164.858
8166.17
8167.461
8168.733
8169.994
8171.247
8172.486
8173.726
8174.966
8176.209
8177.456
8178.709
8179.967
8181.221
8182.476
8183.744
8185.024
8186.344
8187.609
8188.895
8190.198
8191.508
8192.832
8194.156
8195.495
8196.813
8198.144
8199.396
8200.616
8201.198
8201.391
8202.194
8203.62
8205.226
8206.713
8207.958
8209.055
8210.101
8211.118
8212.095
8213.021
8213.894
8214.721
8215.503
8216.238
8216.919
8217.545
8218.118
8218.639
8219.11
8219.532
8219.905
8220.234
8220.52
8220.766
8220.976
8221.152
8221.298
8221.415
8221.506
8221.573
8221.618
8221.645
8221.653
8221.647
8221.629
8221.6
8221.563
8221.52
8221.47
8221.41
8221.328
8221.205
8221.015
8220.726
8220.306
8219.75
8219.121
8218.479
8217.846
8217.188
8216.486
8215.726
8215.148
8214.536
8213.738
8212.836
8211.922
8211.029
8210.163
8209.323
8208.507
8207.706
8206.915
8206.13
8205.347
8204.563
8203.777
8202.984
8202.182
8201.371
8200.549
8199.714
8198.865
8198.001
8197.123
8196.228
8195.316
8194.386
8193.438
8192.471
8191.485
8190.478
8189.45
8188.401
8187.329
8186.234
8185.116
8183.974
8182.807
8181.615
8180.398
8179.154
8177.884
8176.587
8175.263
8173.912
8172.533
8171.126
8169.691
8168.227
8166.735
8165.214
8163.665
8162.085
8160.476
8158.836
8157.165
8155.463
8153.728
8151.959
8150.155
8148.314
8146.435
8144.515
8142.551
8140.54
8138.478
8136.36
8134.182
8131.935
8129.614
8127.208
8124.707
8122.099
8119.368
8116.497
8113.468
8110.262
8106.869
8103.303
8099.633
8096.02
8092.746
8090.187
8088.723
8088.927
8091.068
3760.022
3725.633
3687.517
3636.598
3599.694
3534.977
3512.335
3502.379
3506.482
3486.012
3445.893
3413.395
3396.055
3390.936
3397.418
3414.428
3441.984
3479.766
3527.797
3586.365
3655.88
3736.836
3828.076
3930.816
4045.025
4169.43
4303.997
4447.375
4598.983
4756.644
4922.259
5071.749
5248.325
5427.063
5603.383
5776.77
5945.754
6109.044
6265.193
6412.414
6547.951
6669.173
6776.191
6868.045
6943.733
7002.645
7044.405
7069.003
7076.872
7068.899
7045.739
7007.552
6955.033
6890.055
6814.589
6730.35
6639.019
6542.332
6441.868
6338.914
6234.486
6129.725
6026.068
5923.994
5823.666
5725.747
5630.851
5538.403
5446.722
5364.536
5290.154
5218.071
5148.836
5084.284
5025.082
4971.234
4922.784
4880.176
4843.881
4813.992
4791.091
4775.812
4768.407
4768.892
4777.041
4792.504
4814.946
4843.98
4878.537
4917.873
4962.069
5010.478
5061.761
5114.455
5167.175
5218.526
5266.974
5310.895
5348.781
5379.321
5401.123
5412.925
5413.573
5402.188
5377.849
5340.666
5291.421
5232.531
5166.062
5092.625
5014.008
4933.561
4854.718
4780.227
4712.472
4653.515
4604.963
4568.208
4544.427
4534.259
4537.581
4553.961
4582.342
4621.682
4669.216
4722.294
4775.344
4826.744
4880.177
4936.917
4993.777
5048.111
5100.596
5153.176
5206.709
5260.915
5315.21
5369.183
5422.605
5475.305
5527.153
5578.045
5627.882
5676.754
5724.847
5772.342
5819.215
5864.777
5908.082
5947.559
5979.529
6001.842
6013.285
6014.729
6008.803
5999.17
5990.866
5984.685
5977.506
5966.91
5952.586
5935.289
5915.84
5895.008
5873.762
5853.296
5834.85
5819.567
5808.458
5802.4
5802.096
5808.19
5821.339
5842.271
5871.318
5908.62
5953.97
6006.691
6065.612
6129.031
6194.951
6261.125
6325.729
6387.073
6444.27
6501.318
6560.957
6620.183
6676.889
6728.623
6773.667
6816.39
6858.459
6896.917
6931.217
6963.028
6992.853
7020.168
7044.736
7066.987
7088.087
7109.332
7131.153
7152.493
7171.99
7189.102
7204.163
7217.731
7229.618
7239.281
7246.528
7251.871
7256.044
7259.833
7263.826
7268.303
7273.545
7279.862
7287.574
7296.898
7307.899
7320.587
7334.925
7350.835
7367.98
7386.337
7405.677
7425.765
7446.391
7467.359
7488.498
7509.66
7530.714
7551.553
7572.087
7592.242
7611.958
7631.184
7649.88
7668.015
7685.556
7702.476
7718.761
7734.397
7749.377
7763.694
7777.345
7790.331
7802.658
7814.332
7825.375
7835.81
7845.725
7855.151
7864.064
7871.783
7878.859
7885.554
7891.758
7897.38
7902.417
7906.902
7910.864
7914.328
7917.316
7919.856
7921.974
7923.699
7925.059
7926.084
7926.801
7927.24
7927.429
7927.393
7927.159
7926.747
7926.179
7925.473
7924.645
7923.712
7922.686
7921.575
7920.392
7919.147
7917.861
7916.568
7915.331
7914.256
7913.494
7913.205
7913.523
7914.401
7915.58
7916.84
7918.104
7919.371
7920.647
7921.926
7923.207
7924.489
7925.785
7927.04
7928.308
7929.581
7930.855
7932.131
7933.409
7934.688
7935.971
7937.261
7938.557
7939.861
7941.175
7942.483
7943.798
7945.122
7946.452
7947.786
7949.124
7950.458
7951.79
7953.099
7954.404
7955.643
7957.173
7958.715
7959.869
7960.749
7961.62
7962.529
7963.512
7964.51
7965.487
7966.447
7967.387
7968.296
7969.158
7969.971
7970.729
7971.443
7972.107
7972.719
7973.278
7973.784
7974.242
7974.652
7975.016
7975.334
7975.609
7975.843
7976.04
7976.203
7976.334
7976.436
7976.512
7976.562
7976.591
7976.599
7976.589
7976.562
7976.521
7976.466
7976.398
7976.317
7976.222
7976.105
7975.959
7975.771
7975.526
7975.203
7974.783
7974.264
7973.677
7973.058
7972.427
7971.777
7971.113
7970.45
7969.805
7969.045
7968.155
7967.243
7966.372
7965.536
7964.715
7963.904
7963.105
7962.314
7961.526
7960.739
7959.949
7959.157
7958.359
7957.554
7956.741
7955.918
7955.084
7954.238
7953.379
7952.506
7951.618
7950.714
7949.794
7948.858
7947.903
7946.931
7945.939
7944.928
7943.896
7942.843
7941.768
7940.671
7939.551
7938.407
7937.239
7936.047
7934.829
7933.586
7932.317
7931.021
7929.699
7928.35
7926.974
7925.571
7924.14
7922.681
7921.193
7919.678
7918.134
7916.561
7914.959
7913.328
7911.666
7909.974
7908.25
7906.493
7904.703
7902.877
7901.015
7899.114
7897.172
7895.186
7893.153
7891.069
7888.929
7886.729
7884.462
7882.121
7879.7
7877.189
7874.581
7871.867
7869.042
7866.106
7863.076
7859.989
7856.932
7854.015
7851.438
7849.343
7848.038
7847.634
7848.402
4033.557
4004.092
3973.885
3918.767
3872.328
3791.404
3742.183
3692.95
3643.114
3593.144
3543.411
3496.363
3449.605
3404.142
3362.202
3322.306
3221.296
3192.9
3170.409
3149.381
3125.551
3101.949
3083.221
3072.664
3071.369
3079.631
3097.729
3125.876
3164.166
3212.883
3271.975
3341.185
3421.776
3514.138
3617.829
3732.546
3857.938
3993.789
4139.302
4293.078
4454.043
4621.836
4786.735
4959.728
5135.149
5309.972
5482.492
5650.883
5813.77
5969.667
6116.296
6250.934
6371.928
6478.696
6570.679
6646.987
6706.614
6748.898
6773.684
6781.252
6772.338
6747.973
6709.045
6656.339
6591.235
6515.5
6430.899
6339.298
6242.445
6141.803
6038.916
5934.829
5830.599
5727.48
5625.936
5526.47
5429.852
5336.228
5246.239
5160.484
5081.191
5007.53
4937.262
4869.977
4806.521
4747.58
4693.46
4644.429
4600.978
4563.642
4532.986
4509.756
4494.52
4487.502
4488.687
4497.894
4514.864
4539.308
4570.815
4608.724
4652.56
4701.864
4755.807
4813.161
4872.509
4932.295
4990.866
5046.468
5097.265
5141.451
5177.3
5203.112
5217.34
5218.618
5205.814
5178.015
5135.539
5079.311
5010.738
4932.064
4845.762
4754.61
4662.115
4571.899
4486.922
4409.964
4343.159
4288.45
4247.343
4220.639
4208.517
4210.623
4226.405
4254.927
4294.602
4342.831
4397.094
4454.45
4513.004
4573.028
4634.952
4697.539
4759.246
4819.936
4880.319
4940.82
5001.326
5061.462
5120.889
5179.384
5236.765
5292.881
5347.613
5400.834
5452.495
5502.579
5551.004
5597.534
5641.544
5682.106
5717.976
5747.355
5768.984
5781.908
5786.471
5784.43
5777.859
5769.159
5759.367
5747.542
5732.369
5713.454
5691.219
5666.371
5639.861
5612.989
5587.195
5563.874
5544.261
5529.357
5519.882
5516.333
5519.191
5529.212
5547.176
5573.483
5608.374
5651.759
5702.984
5760.937
5823.981
5890.086
5957.059
6023.071
6086.991
6148.511
6209.16
6270.106
6329.969
6387.414
6441.451
6491.207
6538.15
6583.318
6625.39
6663.763
6699.335
6732.45
6762.81
6790.528
6816.218
6840.636
6864.218
6886.812
6907.944
6927.401
6945.157
6961.131
6975.119
6987.013
6996.847
7004.618
7010.712
7015.687
7019.919
7023.774
7027.72
7032.303
7037.951
7045
7053.765
7064.417
7076.907
7091.107
7106.822
7124.095
7142.483
7161.841
7181.939
7202.557
7223.497
7244.589
7265.684
7286.655
7307.392
7327.811
7347.842
7367.428
7386.522
7405.086
7423.087
7440.496
7457.292
7473.459
7488.983
7503.855
7518.069
7531.622
7544.516
7556.757
7568.354
7579.324
7589.686
7599.473
7608.67
7617.23
7625.061
7632.304
7639.029
7645.196
7650.777
7655.785
7660.246
7664.187
7667.632
7670.605
7673.133
7675.242
7676.959
7678.314
7679.336
7680.054
7680.496
7680.691
7680.667
7680.447
7680.055
7679.513
7678.841
7678.06
7677.185
7676.232
7675.216
7674.153
7673.061
7671.966
7670.907
7669.939
7669.139
7668.607
7668.439
7668.707
7669.384
7670.334
7671.419
7672.566
7673.756
7674.98
7676.228
7677.491
7678.762
7680.026
7681.337
7682.641
7683.945
7685.254
7686.566
7687.882
7689.202
7690.525
7691.853
7693.184
7694.521
7695.861
7697.202
7698.546
7699.894
7701.246
7702.598
7703.952
7705.3
7706.643
7707.969
7709.288
7710.575
7711.85
7712.996
7713.993
7714.985
7716.067
7717.226
7718.385
7719.492
7720.541
7721.546
7722.513
7723.438
7724.319
7725.149
7725.929
7726.652
7727.32
7727.935
7728.495
7728.998
7729.452
7729.851
7730.205
7730.513
7730.778
7730.999
7731.183
7731.334
7731.452
7731.541
7731.602
7731.637
7731.649
7731.639
7731.609
7731.561
7731.495
7731.413
7731.315
7731.198
7731.061
7730.898
7730.704
7730.468
7730.179
7729.825
7729.396
7728.894
7728.333
7727.733
7727.11
7726.467
7725.807
7725.122
7724.398
7723.61
7722.775
7721.935
7721.109
7720.295
7719.484
7718.673
7717.867
7717.063
7716.261
7715.458
7714.652
7713.843
7713.03
7712.209
7711.381
7710.544
7709.697
7708.838
7707.967
7707.082
7706.184
7705.271
7704.342
7703.397
7702.435
7701.456
7700.457
7699.44
7698.403
7697.345
7696.266
7695.165
7694.041
7692.895
7691.725
7690.531
7689.312
7688.068
7686.799
7685.504
7684.182
7682.835
7681.46
7680.059
7678.631
7677.175
7675.692
7674.182
7672.643
7671.077
7669.482
7667.859
7666.206
7664.524
7662.812
7661.069
7659.293
7657.485
7655.642
7653.763
7651.847
7649.89
7647.89
7645.845
7643.75
7641.603
7639.399
7637.134
7634.804
7632.404
7629.932
7627.387
7624.774
7622.105
7619.405
7616.718
7614.114
7611.682
7609.548
7607.822
7606.684
7606.169
7606.447
4177.109
4147.816
4112.756
4064.725
4028.601
3958.636
3923.419
3887.068
3849.282
3810.824
3771.708
3731.309
3689.433
3646.064
3599.359
3483.458
3434.507
3385.57
3336.038
3286.144
3236.239
3187.124
3139.008
3092.167
3047.247
3005.875
2969.509
2936.43
2906.791
2879.277
2853.583
2831.65
2815.321
2806.114
2805.064
2812.732
2829.46
2855.676
2891.854
2938.305
2995.377
3063.521
3142.623
3233.02
3334.842
3447.942
3571.948
3706.379
3850.505
4003.311
4163.769
4329.83
4498.025
4670.56
4844.701
5018.184
5189.492
5356.995
5518.318
5672.413
5817.618
5951.785
6072.535
6178.549
6269.512
6344.678
6402.969
6443.698
6466.737
6472.416
6461.468
6434.948
6394.039
6339.831
6273.662
6197.227
6112.238
6020.731
5924.244
5824.05
5722.087
5619.433
5516.722
5414.35
5313.07
5214.826
5120.499
5030.136
4944.167
4862.74
4786.056
4713.902
4645.372
4579.812
4517.377
4458.576
4403.894
4353.809
4308.953
4270.159
4238.389
4214.542
4199.236
4192.727
4194.972
4205.767
4224.891
4252.136
4287.239
4329.781
4379.453
4435.441
4496.905
4562.693
4631.349
4701.093
4769.915
4835.686
4896.099
4948.899
4991.989
5023.341
5041.014
5043.368
5028.948
4996.569
4946.163
4878.79
4796.183
4701.222
4597.509
4488.975
4379.835
4274.344
4175.675
4086.941
4010.513
3948.558
3902.475
3872.759
3859.124
3860.811
3877.073
3907.084
3949.187
4000.899
4059.62
4122.909
4188.776
4256.265
4325.191
4394.979
4464.74
4533.932
4602.491
4670.517
4737.948
4804.548
4870.05
4934.241
4996.945
5057.985
5117.212
5174.454
5229.535
5282.27
5332.421
5379.647
5423.405
5462.964
5497.437
5525.773
5547.116
5560.835
5567.065
5566.807
5561.145
5551.326
5538.187
5521.644
5501.147
5476.462
5447.906
5416.164
5382.331
5348.063
5315.46
5286.146
5261.235
5241.785
5228.334
5221.081
5220.22
5226.416
5240.674
5263.63
5295.758
5337.236
5387.652
5445.835
5509.946
5577.782
5647.122
5716.062
5783.464
5848.951
5912.895
5975.797
6037.197
6096.485
6153.295
6206.97
6257.661
6306.021
6351.589
6393.849
6433.135
6469.679
6503.466
6534.676
6563.643
6590.669
6615.934
6639.576
6661.8
6682.466
6701.209
6717.857
6732.36
6744.766
6755.146
6763.623
6770.402
6775.848
6780.583
6784.932
6789.13
6793.743
6799.243
6806.056
6814.507
6824.746
6836.812
6850.627
6866.062
6882.983
6901.186
6920.377
6940.329
6960.815
6981.625
7002.58
7023.525
7044.333
7064.895
7085.129
7104.971
7124.367
7143.274
7161.653
7179.47
7196.7
7213.329
7229.337
7244.709
7259.436
7273.511
7286.931
7299.698
7311.815
7323.289
7334.133
7344.358
7353.982
7363.004
7371.431
7379.249
7386.494
7393.172
7399.26
7404.768
7409.71
7414.107
7417.988
7421.378
7424.3
7426.782
7428.848
7430.527
7431.847
7432.837
7433.528
7433.949
7434.131
7434.098
7433.874
7433.482
7432.948
7432.295
7431.543
7430.712
7429.818
7428.88
7427.918
7426.955
7426.016
7425.137
7424.366
7423.761
7423.387
7423.304
7423.548
7424.101
7424.896
7425.847
7426.896
7428.014
7429.187
7430.401
7431.647
7432.917
7434.207
7435.521
7436.845
7438.18
7439.523
7440.873
7442.23
7443.591
7444.957
7446.326
7447.699
7449.075
7450.453
7451.832
7453.213
7454.595
7455.977
7457.358
7458.737
7460.11
7461.474
7462.821
7464.151
7465.442
7466.691
7467.896
7469.078
7470.248
7471.411
7472.564
7473.69
7474.779
7475.827
7476.836
7477.805
7478.732
7479.613
7480.442
7481.214
7481.93
7482.591
7483.197
7483.75
7484.253
7484.703
7485.105
7485.456
7485.76
7486.026
7486.229
7486.4
7486.536
7486.642
7486.718
7486.765
7486.786
7486.781
7486.752
7486.703
7486.633
7486.543
7486.434
7486.306
7486.156
7485.982
7485.781
7485.546
7485.271
7484.948
7484.569
7484.131
7483.633
7483.084
7482.495
7481.876
7481.232
7480.563
7479.861
7479.127
7478.361
7477.569
7476.761
7475.947
7475.132
7474.315
7473.498
7472.682
7471.867
7471.052
7470.235
7469.416
7468.594
7467.766
7466.932
7466.09
7465.24
7464.379
7463.508
7462.625
7461.73
7460.821
7459.898
7458.96
7458.006
7457.036
7456.048
7455.043
7454.019
7452.975
7451.912
7450.827
7449.722
7448.594
7447.444
7446.271
7445.074
7443.853
7442.607
7441.336
7440.04
7438.719
7437.371
7435.998
7434.598
7433.172
7431.719
7430.239
7428.733
7427.199
7425.639
7424.051
7422.436
7420.792
7419.121
7417.421
7415.691
7413.932
7412.142
7410.321
7408.466
7406.577
7404.652
7402.689
7400.687
7398.642
7396.554
7394.419
7392.237
7390.004
7387.721
7385.39
7383.015
7380.607
7378.183
7375.77
7373.411
7371.162
7369.095
7367.298
7365.859
7364.875
7364.381
7364.495
4064.711
4032.344
4014.604
3980.537
3939.931
3899.593
3859.857
3822.248
3786.583
3750.496
3647.842
3612.351
3576.854
3540.33
3502.451
3463.254
3422.653
3380.316
3336.24
3290.982
3245.571
3197.671
3148.789
3099.027
3048.81
2998.325
2947.878
2897.876
2848.734
2800.493
2754.251
2712.197
2673.921
2639.258
2607.974
2580.439
2558.266
2542.637
2534.236
2533.724
2541.615
2558.359
2584.432
2619.802
2665.159
2720.835
2787.23
2864.588
2953.176
3053.16
3164.498
3286.905
3419.848
3562.513
3713.819
3872.494
4036.746
4204.932
4376.236
4548.949
4720.744
4889.561
5054.163
5213.095
5364.648
5507.399
5639.58
5758.661
5862.776
5951.03
6022.795
6077.347
6114.244
6133.476
6135.483
6121.093
6091.366
6047.647
5991.168
5923.573
5846.413
5761.194
5670.319
5575.234
5476.99
5376.841
5275.713
5174.981
5075.153
4977.039
4882.575
4792.504
4706.836
4625.6
4548.662
4475.832
4406.853
4341.014
4277.605
4216.442
4157.806
4102.23
4050.436
4003.404
3962.414
3928.878
3904.011
3888.586
3882.837
3886.585
3899.521
3921.46
3952.355
3992.198
4040.744
4097.395
4161.759
4232.993
4309.872
4390.728
4473.551
4555.973
4635.417
4708.665
4772.892
4825.494
4863.972
4885.845
4889.01
4871.722
4833.014
4772.601
4690.823
4589.886
4473.821
4347.483
4216.439
4086.014
3960.65
3844.301
3740.737
3653.038
3583.315
3532.093
3499.398
3484.64
3486.934
3505.193
3538.68
3585.442
3643.059
3708.67
3779.73
3854.23
3930.532
4008.142
4086.625
4165.311
4243.478
4320.782
4397.084
4472.258
4546.113
4618.436
4689.039
4757.753
4824.395
4888.774
4950.644
5009.734
5065.76
5118.399
5167.269
5211.883
5251.658
5285.932
5313.981
5335.214
5349.238
5356.042
5356.117
5349.842
5337.985
5321.154
5299.521
5272.998
5241.519
5205.322
5165.028
5121.961
5078.218
5036.607
4999.952
4969.561
4945.601
4928.059
4916.66
4911.514
4913.271
4923.209
4942.158
4971.062
5010.58
5060.76
5120.283
5186.987
5258.361
5331.756
5404.897
5476.426
5545.793
5613.086
5678.652
5742.527
5804.427
5864.09
5921.132
5975.507
6027.474
6076.694
6122.712
6165.714
6205.827
6243.092
6277.595
6309.461
6338.9
6366.19
6391.604
6415.286
6437.033
6456.63
6474.097
6489.631
6503.167
6514.581
6524.134
6532.102
6538.666
6544.151
6548.992
6553.638
6558.51
6564.181
6571.186
6579.611
6589.53
6601.139
6614.459
6629.416
6645.868
6663.574
6682.311
6701.837
6721.923
6742.367
6762.985
6783.597
6804.066
6824.29
6844.191
6863.705
6882.783
6901.386
6919.478
6937.027
6954.007
6970.397
6986.182
7001.347
7015.882
7029.78
7043.036
7055.651
7067.626
7078.966
7089.676
7099.766
7109.246
7118.112
7126.381
7134.07
7141.186
7147.72
7153.674
7159.074
7163.925
7168.233
7172.028
7175.338
7178.186
7180.597
7182.598
7184.216
7185.479
7186.417
7187.059
7187.439
7187.588
7187.537
7187.301
7186.902
7186.37
7185.729
7185
7184.206
7183.366
7182.499
7181.63
7180.78
7179.972
7179.236
7178.613
7178.146
7177.882
7177.856
7178.091
7178.575
7179.271
7180.126
7181.096
7182.153
7183.28
7184.464
7185.694
7186.961
7188.257
7189.583
7190.93
7192.294
7193.672
7195.061
7196.46
7197.867
7199.279
7200.695
7202.115
7203.538
7204.962
7206.387
7207.811
7209.234
7210.655
7212.073
7213.486
7214.89
7216.283
7217.659
7219.014
7220.34
7221.64
7222.917
7224.168
7225.381
7226.561
7227.719
7228.857
7229.965
7231.037
7232.067
7233.053
7233.994
7234.885
7235.722
7236.504
7237.229
7237.898
7238.511
7239.069
7239.573
7240.021
7240.414
7240.754
7241.046
7241.289
7241.51
7241.681
7241.809
7241.904
7241.965
7241.998
7242.003
7241.982
7241.936
7241.867
7241.775
7241.662
7241.528
7241.372
7241.192
7240.986
7240.751
7240.482
7240.174
7239.823
7239.424
7238.974
7238.473
7237.927
7237.341
7236.723
7236.076
7235.402
7234.699
7233.969
7233.215
7232.436
7231.638
7230.827
7230.011
7229.193
7228.372
7227.55
7226.727
7225.902
7225.075
7224.244
7223.409
7222.568
7221.721
7220.866
7220.003
7219.13
7218.247
7217.352
7216.445
7215.525
7214.592
7213.644
7212.681
7211.702
7210.706
7209.692
7208.661
7207.61
7206.54
7205.45
7204.338
7203.205
7202.05
7200.873
7199.672
7198.448
7197.199
7195.926
7194.628
7193.306
7191.958
7190.584
7189.185
7187.76
7186.309
7184.832
7183.329
7181.8
7180.245
7178.664
7177.056
7175.422
7173.762
7172.074
7170.36
7168.617
7166.847
7165.047
7163.218
7161.359
7159.468
7157.545
7155.589
7153.598
7151.572
7149.51
7147.413
7145.28
7143.116
7140.923
7138.712
7136.494
7134.29
7132.126
7130.039
7128.077
7126.298
7124.767
7123.544
7122.697
7122.247
7122.313
3822.712
3777.04
3676.655
3641.922
3605.809
3570.159
3535.468
3501.681
3468.501
3435.761
3403.512
3370.017
3335.549
3299.861
3262.839
3224.218
3183.904
3141.704
3097.451
3051.553
3005.188
2957.388
2908.295
2858.189
2807.324
2755.846
2703.6
2650.7
2598.187
2546.756
2497.151
2450.615
2408.344
2370.726
2337.728
2309.792
2287.81
2272.51
2264.45
2264.144
2272.033
2288.482
2313.707
2348.539
2392.951
2447.382
2512.258
2587.97
2674.848
2773.085
2882.682
3003.384
3134.649
3275.628
3425.163
3581.978
3744.279
3910.801
4079.887
4249.208
4417.199
4582.361
4743.43
4899.454
5048.204
5187.541
5315.524
5430.091
5529.536
5612.711
5678.993
5727.884
5759.228
5773.148
5770.26
5751.406
5717.825
5670.987
5612.117
5543.284
5466.066
5381.948
5292.325
5198.388
5102.224
5004.536
4905.954
4808.414
4713.071
4620.627
4531.987
4447.651
4367.794
4292.374
4221.132
4153.673
4089.402
4027.214