/*--------------------------------*- C++ -*----------------------------------*\
| =========                 |                                                 |
| \\      /  F ield         | foam-extend: Open Source CFD                    |
|  \\    /   O peration     | Version:     3.1                                |
|   \\  /    A nd           | Web:         http://www.extend-project.de       |
|    \\/     M anipulation  |                                                 |
\*---------------------------------------------------------------------------*/
FoamFile
{
    version     2.0;
    format      ascii;
    class       surfaceScalarField;
    location    "9";
    object      phi;
}
// * * * * * * * * * * * * * * * * * * * * * * * * * * * * * * * * * * * * * //

dimensions      [0 3 -1 0 0 0 0];

internalField   nonuniform List<scalar> 
275122
(
-0.0003404213
0.0003432718
-3.425926e-07
-2.507934e-06
-0.0002982606
0.0002827365
1.161773e-06
1.436229e-05
-0.0002883456
0.0002940579
-3.02775e-07
-5.409604e-06
-0.0003130319
0.0003193844
-3.959816e-07
-5.956538e-06
-0.0003344114
0.0003357607
-4.652517e-07
-8.840815e-07
-0.00032848
0.0003257147
-3.867322e-07
3.152011e-06
-0.0003175641
0.0003146478
-3.539917e-07
3.270286e-06
-0.0003054093
0.0003023297
-3.122337e-07
3.391785e-06
-0.0002932854
0.0002903244
-2.799312e-07
3.240961e-06
-0.0002816666
0.0002788579
-2.490938e-07
3.0578e-06
-0.0002707049
0.0002680834
-2.211975e-07
2.842749e-06
-0.0002604939
0.0002580669
-1.950245e-07
2.622026e-06
-0.000251076
0.0002488483
-1.720112e-07
2.399637e-06
-0.0002424399
0.0002404001
-1.514576e-07
2.191278e-06
-0.0002345401
0.0002326804
-1.350264e-07
1.994736e-06
-0.0002273493
0.0002256611
-1.247831e-07
1.813045e-06
-0.0002208148
0.0002192754
-1.169792e-07
1.65643e-06
-0.0002148716
0.0002134845
-9.735293e-08
1.484533e-06
-0.000209705
0.0002086437
-1.273351e-07
1.188661e-06
-0.0002065667
0.0002069333
-3.644031e-07
-2.169932e-09
-0.0002294128
0.0002384791
-8.209479e-07
-8.245317e-06
-0.0002416782
0.0002420104
-1.950159e-07
-1.371997e-07
-0.0002460101
0.0002479071
-1.066467e-07
-1.79035e-06
-0.0002760678
0.000286709
2.12076e-07
-1.085334e-05
-0.0002906127
0.0002913343
3.591097e-07
-1.080671e-06
-0.00029621
0.0002977998
-1.267351e-07
-1.463035e-06
-0.0003011535
0.0003017077
-5.301025e-08
-5.012052e-07
-0.000301825
0.0003006601
-7.240531e-08
1.237286e-06
-0.0002867799
0.0002694716
-6.94172e-08
1.737775e-05
-0.0001663614
0.0001707479
3.38539e-09
-4.389905e-06
-0.0002019696
0.0002118611
-5.518043e-08
-9.83629e-06
-0.000239845
0.0002491031
5.227294e-09
-9.263291e-06
-0.0002771328
0.0002865492
5.510955e-09
-9.42189e-06
-0.0003150874
0.0003247114
5.834617e-09
-9.629773e-06
-0.0003539664
0.0003638283
5.867208e-09
-9.867776e-06
-0.0003936278
0.000403609
5.970155e-09
-9.987167e-06
-0.0004339273
0.0004441022
5.312733e-09
-1.018019e-05
-0.0004749547
0.0004853138
5.114215e-09
-1.036422e-05
-0.0005166994
0.0005272583
4.672783e-09
-1.056356e-05
-0.0005591651
0.0005710329
1.675908e-07
-1.203536e-05
9.435092e-06
-0.0003871799
0.0003886378
-2.354939e-10
-1.089272e-05
9.747807e-06
-0.0003935022
0.0003951113
-4.760372e-10
-1.135643e-05
1.018478e-05
-0.0004000318
0.0004016702
-7.981625e-10
-1.182242e-05
1.083167e-05
-0.000406494
0.0004080551
-5.041094e-10
-1.239226e-05
1.149808e-05
-0.0004127512
0.0004143138
-7.984623e-10
-1.305986e-05
1.213604e-05
-0.000419099
0.000420743
-5.702944e-10
-1.377949e-05
1.273768e-05
-0.0004257128
0.0004274733
7.361323e-10
-1.449884e-05
1.33432e-05
-0.0004328487
0.0004347224
-2.501092e-10
-1.521664e-05
1.478725e-05
-0.0004407526
0.0004414214
-4.462169e-10
-1.545565e-05
1.353244e-05
-0.001813212
0.001833149
4.496761e-10
-7.357507e-05
1.329546e-05
1.352467e-05
1.328572e-05
1.456204e-05
-0.001852046
0.001869416
6.272908e-10
-7.651782e-05
1.503192e-05
1.455215e-05
1.500119e-05
1.513177e-05
-0.001886824
0.001904126
-7.201086e-12
-7.830967e-05
1.538631e-05
1.511635e-05
1.537314e-05
1.564303e-05
-0.001921385
0.001938517
-1.199587e-10
-7.999551e-05
1.580159e-05
1.562964e-05
1.578924e-05
1.602256e-05
-0.001955487
0.001971991
-4.899677e-11
-8.081714e-05
1.614725e-05
1.600969e-05
1.613371e-05
1.626714e-05
-0.001988205
0.002003761
3.07993e-11
-8.073913e-05
1.63418e-05
1.624987e-05
1.632423e-05
1.635602e-05
-0.002018922
0.00203322
5.628463e-11
-7.978632e-05
1.640421e-05
1.633981e-05
1.638851e-05
1.626818e-05
-0.002047006
0.002059836
4.108461e-11
-7.792791e-05
1.629337e-05
1.625436e-05
1.628177e-05
1.607081e-05
-0.002072509
0.002083802
1.360353e-11
-7.540211e-05
1.599025e-05
1.60648e-05
1.598382e-05
1.53292e-05
-0.002092002
0.002102314
5.021335e-12
-7.124521e-05
1.515678e-05
1.529797e-05
1.514957e-05
1.503558e-05
-0.00211274
0.002120243
-3.095221e-12
-6.783479e-05
1.513418e-05
1.503189e-05
1.512991e-05
1.449435e-05
-0.002126576
0.002131567
1.261396e-13
-6.25817e-05
1.430124e-05
1.449451e-05
1.430096e-05
1.367539e-05
-0.002135884
0.00213885
9.383908e-12
-5.730014e-05
1.349242e-05
1.367469e-05
1.349168e-05
1.28239e-05
-0.002141064
0.002141825
1.324104e-11
-5.169506e-05
1.264451e-05
1.282199e-05
1.264457e-05
1.186489e-05
-0.002141848
0.002140854
1.010871e-11
-4.59945e-05
1.164476e-05
1.184854e-05
1.163076e-05
1.105059e-05
-0.002139031
0.00213553
6.03312e-12
-4.019617e-05
1.082446e-05
1.101822e-05
1.080386e-05
1.020965e-05
-0.002131582
0.002126332
-1.895836e-12
-3.493826e-05
1.004205e-05
1.003698e-05
9.899592e-06
1.023951e-05
-0.002120168
0.002111551
-6.901927e-12
-3.088605e-05
1.028197e-05
9.485923e-06
9.495752e-06
1.329964e-05
-0.002099194
0.002076619
-5.992094e-12
-2.622454e-05
1.415793e-05
1.101832e-05
1.032417e-05
-3.461851e-06
-0.002046973
0.002054889
4.268553e-12
-4.454531e-06
-6.041345e-06
-0.0020604
0.002052111
4.442684e-11
1.433124e-05
3.37868e-06
-0.002040178
0.002025224
8.128226e-11
1.15751e-05
-2.771938e-06
-0.002010627
0.001995684
1.334716e-10
1.77155e-05
-1.579261e-05
-0.001980845
0.001967727
1.68786e-10
2.891032e-05
-2.893542e-05
-0.001957257
0.001946529
2.617634e-12
3.966387e-05
-3.150634e-05
-0.001934596
0.001922097
-1.270341e-10
4.400568e-05
-3.28708e-05
-0.001909554
0.001896604
-7.951734e-11
4.582085e-05
-3.279503e-05
-0.001883369
0.001869932
-6.375289e-11
4.623225e-05
-3.198871e-05
-0.001856361
0.001842763
-4.64944e-11
4.558659e-05
-3.057507e-05
-0.001829155
0.001815658
-4.713997e-11
4.407261e-05
-2.876262e-05
-0.001802263
0.001789123
-4.817354e-11
4.190314e-05
-2.665539e-05
-0.001776166
0.001763582
-4.364704e-11
3.923929e-05
-2.434111e-05
-0.001751247
0.001739389
-3.537961e-11
3.619973e-05
-2.187692e-05
-0.001727835
0.001716857
-2.729931e-11
3.285435e-05
-1.929081e-05
-0.001706232
0.001696288
-2.199563e-11
2.923503e-05
-1.654467e-05
-0.001686747
0.001677995
-1.881243e-11
2.529682e-05
-1.341593e-05
-0.001669696
0.001662267
-1.407179e-11
2.084497e-05
-9.408723e-06
-0.001655205
0.001649003
-9.15562e-12
1.56111e-05
-3.531427e-06
-0.001643315
0.001637786
-5.142308e-12
9.060513e-06
4.489211e-06
-0.001629264
0.001623312
-2.285519e-12
1.462813e-06
3.532375e-06
-0.00162075
0.00161926
-3.566679e-13
-2.042506e-06
1.38973e-05
-0.001616656
0.001613619
-1.007308e-12
-1.086032e-05
3.097971e-05
-0.001603048
0.001592866
-2.082351e-12
-2.079788e-05
1.647266e-05
-0.001588156
0.001587749
-2.268086e-12
-1.606581e-05
8.705653e-06
-0.001589016
0.00158945
-5.83217e-12
-9.139156e-06
3.58267e-06
-0.001590142
0.001591627
-7.120393e-12
-5.067214e-06
-8.502413e-06
-0.001593758
0.001598463
-7.852749e-12
3.797348e-06
-4.450299e-05
-0.001605836
0.00163185
-7.662765e-12
1.848888e-05
-8.211369e-06
-0.001662188
0.001669565
-1.010672e-11
1.821124e-05
-4.621181e-06
-8.163784e-06
-4.591995e-06
-6.248687e-07
-0.001673523
0.001681323
-8.443986e-12
-5.396036e-06
-5.638483e-07
-6.347864e-07
-5.808699e-07
9.771851e-07
-0.001689546
0.001697196
-2.409872e-11
-1.207944e-05
1.27164e-06
9.436444e-07
1.23705e-06
1.96762e-06
-0.001704864
0.001713126
-1.585437e-10
-1.631261e-05
2.092721e-06
1.931709e-06
2.058462e-06
2.404663e-06
-0.001721871
0.001731154
-1.842027e-10
-1.89608e-05
2.47019e-06
2.367235e-06
2.436283e-06
2.662952e-06
-0.001740737
0.001750657
-2.606684e-10
-2.057914e-05
2.699359e-06
2.630079e-06
2.667418e-06
2.773324e-06
-0.001760796
0.001771142
-5.252304e-11
-2.138787e-05
2.780207e-06
2.739683e-06
2.748638e-06
2.741556e-06
-0.001781625
0.001792175
1.021041e-10
-2.142324e-05
2.725433e-06
2.712393e-06
2.693067e-06
2.581451e-06
-0.001802806
0.001813365
2.284317e-11
-2.076549e-05
2.547474e-06
2.554724e-06
2.52343e-06
2.344331e-06
-0.001823893
0.001834185
1.417799e-11
-1.953012e-05
2.296774e-06
2.322097e-06
2.275333e-06
2.018991e-06
-0.001844367
0.00185417
1.727123e-11
-1.771346e-05
1.956569e-06
1.997869e-06
1.93638e-06
1.608738e-06
-0.001863786
0.001872891
2.024564e-11
-1.535054e-05
1.533548e-06
1.588806e-06
1.51491e-06
1.128146e-06
-0.001881729
0.001889959
2.278337e-11
-1.252997e-05
1.040826e-06
1.107834e-06
1.022491e-06
5.796681e-07
-0.001897883
0.001905099
2.502623e-11
-9.331948e-06
4.924863e-07
5.647081e-07
4.788857e-07
-5.660779e-09
-0.001911928
0.001917993
2.639014e-11
-5.834124e-06
-9.810674e-08
-1.771481e-08
-1.09293e-07
-6.176634e-07
-0.001923654
0.001928483
2.891584e-11
-2.123421e-06
-7.237205e-07
-6.295774e-07
-7.349046e-07
-1.249053e-06
-0.001932852
0.001936303
3.123833e-11
1.778674e-06
-1.355529e-06
-1.260039e-06
-1.365504e-06
-1.913908e-06
-0.001939311
0.001941328
3.368263e-11
5.886423e-06
-2.028793e-06
-1.923646e-06
-2.037824e-06
-2.635926e-06
-0.001942831
0.00194334
3.496731e-11
1.030808e-05
-2.764298e-06
-2.644294e-06
-2.772431e-06
-3.415035e-06
-0.001943293
0.001942195
3.496036e-11
1.505376e-05
-3.555423e-06
-3.422312e-06
-3.562723e-06
-4.265112e-06
-0.001940482
0.001937641
3.315423e-11
2.022319e-05
-4.41969e-06
-4.271414e-06
-4.426208e-06
-5.204482e-06
-0.001934115
0.001929368
3.163106e-11
2.592068e-05
-5.377189e-06
-5.209775e-06
-5.382947e-06
-6.257928e-06
-0.001923845
0.001916987
3.617373e-11
3.229189e-05
-6.454317e-06
-6.261773e-06
-6.459128e-06
-7.456911e-06
-0.001909223
0.00190001
4.987384e-11
3.949522e-05
-7.682473e-06
-7.457138e-06
-7.685462e-06
-8.842592e-06
-0.001889734
0.001877924
6.862737e-11
4.768715e-05
-9.10596e-06
-8.829036e-06
-9.100269e-06
-1.050403e-05
0.00185019
8.581163e-11
5.721714e-05
-1.082497e-05
-1.043281e-05
-1.076983e-05
-0.001864876
-1.26491e-05
-0.001834069
0.001816301
1.189446e-10
6.869547e-05
-1.308012e-05
-1.238318e-05
-1.281496e-05
-1.566142e-05
-0.001797024
0.001776399
1.898903e-10
8.295792e-05
-1.634883e-05
-1.487714e-05
-1.544554e-05
-2.006235e-05
-0.001754969
0.001733123
2.753292e-10
0.0001005716
-2.118479e-05
-1.833492e-05
-1.91441e-05
-2.560744e-05
-0.0017115
0.001689297
3.349602e-10
0.0001220913
-2.676109e-05
-2.330026e-05
-2.422019e-05
-2.633093e-05
-0.001666529
0.001640708
2.157495e-10
0.0001313444
-2.477143e-05
-2.719154e-05
-2.722966e-05
-2.019673e-05
-0.001608454
0.001569064
2.008305e-10
0.0001218896
-1.91317e-05
-2.239623e-05
-2.077548e-05
-1.579216e-05
-0.001523607
0.001473505
2.557951e-10
0.0001133786
-1.517907e-05
-1.656738e-05
-1.573859e-05
-1.28638e-05
-0.001420154
0.001364307
2.184839e-10
0.0001073742
-1.246858e-05
-1.328483e-05
-1.290996e-05
-1.114908e-05
-0.001308202
0.00125308
7.775871e-11
0.0001006104
-1.105016e-05
-1.172678e-05
-1.15623e-05
-1.179875e-05
-0.001200163
0.001152724
-2.074264e-10
9.806676e-05
-1.266828e-05
-1.282805e-05
-1.333255e-05
-1.283291e-05
-0.001111071
0.001071129
-4.779122e-10
8.889881e-05
-1.21831e-05
-1.230231e-05
-1.163808e-05
-9.970281e-06
-0.001031297
0.0009912798
-5.93146e-10
7.882046e-05
-9.494716e-06
-9.837959e-06
-9.499531e-06
-8.335136e-06
-0.0009518143
0.0009132084
-6.129519e-10
7.159557e-05
-8.167482e-06
-8.326932e-06
-8.159486e-06
-7.256071e-06
-0.0008760634
0.0008402311
-5.248068e-10
6.425686e-05
-7.084528e-06
-7.141417e-06
-6.941958e-06
-5.933057e-06
-0.0008058619
0.0007728708
-3.425419e-10
5.61232e-05
-5.741324e-06
-5.819435e-06
-5.638026e-06
-4.788623e-06
-0.0007416177
0.0007123752
-1.545343e-10
4.813325e-05
-4.694549e-06
-4.745207e-06
-4.662267e-06
-4.204176e-06
-0.0006853897
0.0006606421
2.732386e-11
4.151142e-05
-4.18202e-06
-4.198291e-06
-4.179367e-06
-3.886656e-06
-0.0006379971
0.0006172844
1.937967e-10
3.619663e-05
-3.856246e-06
-3.885974e-06
-3.85531e-06
-3.568741e-06
-0.0005981875
0.0005805884
2.638857e-10
3.181667e-05
-3.54408e-06
-3.564976e-06
-3.540022e-06
-3.27565e-06
-0.0005643166
0.0005494197
1.960396e-10
2.786603e-05
-3.213862e-06
-3.270522e-06
-3.209216e-06
-2.638455e-06
-0.0005358826
0.0005239601
4.791404e-11
2.219309e-05
-2.500718e-06
-2.63421e-06
-2.497311e-06
-1.688494e-06
-0.0005135765
0.0005049024
-9.034986e-11
1.513386e-05
-1.543493e-06
-1.686318e-06
-1.541367e-06
-8.569227e-07
-0.000497634
0.0004917321
-1.681416e-10
9.150771e-06
-7.686028e-07
-8.558162e-07
-7.673007e-07
-4.67787e-07
-0.0004866312
0.000482305
-1.760906e-10
6.018516e-06
-3.785016e-07
-4.678245e-07
-3.779763e-07
-6.204378e-07
-0.0004783348
0.0004748034
-1.407914e-10
6.168572e-06
-7.019007e-07
-6.160622e-07
-6.986071e-07
-9.482459e-07
-0.000471211
0.0004675869
-9.401874e-11
7.47491e-06
-9.782946e-07
-9.467009e-07
-9.775196e-07
-1.179326e-06
-0.000463791
0.0004599823
-5.528267e-11
8.595675e-06
-1.215265e-06
-1.178158e-06
-1.214253e-06
-1.343848e-06
-0.0004560653
0.0004520602
-3.078872e-11
9.426843e-06
-1.368043e-06
-1.342751e-06
-1.367004e-06
-1.48981e-06
-0.0004479291
0.0004436467
-1.875771e-11
1.028019e-05
-1.510249e-06
-1.488557e-06
-1.509085e-06
-1.595169e-06
-0.0004392151
0.0004346181
-1.37374e-11
1.099549e-05
-1.605292e-06
-1.593953e-06
-1.604112e-06
-1.631608e-06
-0.0004298993
0.0004250774
-1.173516e-11
1.134302e-05
-1.630017e-06
-1.630548e-06
-1.628963e-06
-1.59837e-06
-0.0004202077
0.0004153482
-1.068707e-11
1.12313e-05
-1.58838e-06
-1.597517e-06
-1.58752e-06
-1.519529e-06
-0.0004105273
0.0004058187
-9.613009e-12
1.075844e-05
-1.506109e-06
-1.518848e-06
-1.505423e-06
-1.424302e-06
-0.0004012019
0.0003967565
-7.885083e-12
1.011271e-05
-1.409879e-06
-1.423794e-06
-1.409366e-06
-1.319801e-06
-0.0003924277
0.0003883177
-5.180728e-12
9.356e-06
-1.303549e-06
-1.319455e-06
-1.303193e-06
-1.197714e-06
-0.0003843509
0.0003806588
-1.80386e-12
8.444243e-06
-1.178658e-06
-1.197462e-06
-1.178381e-06
-1.053442e-06
-0.000377144
0.0003739638
1.260534e-12
7.350162e-06
-1.031736e-06
-1.053244e-06
-1.031513e-06
-8.893859e-07
-0.0003709952
0.0003684146
3.732901e-12
6.090759e-06
-8.658348e-07
-8.892591e-07
-8.656777e-07
-7.132832e-07
-0.000366074
0.0003641567
5.82833e-12
4.721909e-06
-6.891391e-07
-7.132264e-07
-6.890503e-07
-5.352675e-07
-0.0003624969
0.000361271
7.395211e-12
3.319979e-06
-5.117507e-07
-5.352773e-07
-5.117298e-07
-3.643247e-07
-0.000360311
0.0003597818
8.405648e-12
1.942858e-06
-3.424662e-07
-3.643639e-07
-3.424763e-07
-2.011104e-07
-0.0003595211
0.000359669
9.064577e-12
6.163765e-07
-1.809971e-07
-2.011603e-07
-1.810254e-07
-4.612042e-08
-0.0003600685
0.0003608649
9.705618e-12
-6.503407e-07
-2.684126e-08
-4.616752e-08
-2.688112e-08
9.190484e-08
-0.0003619007
0.0003633276
1.035106e-11
-1.826395e-06
1.079163e-07
9.183159e-08
1.078378e-07
2.190243e-07
-0.0003649684
0.0003669772
1.050468e-11
-2.913647e-06
2.335685e-07
2.188958e-07
2.334196e-07
3.357507e-07
-0.0003691792
0.0003717144
1.032212e-11
-3.904793e-06
3.492623e-07
3.355625e-07
3.490528e-07
4.350685e-07
-0.0003744258
0.0003774432
9.811749e-12
-4.779471e-06
4.462162e-07
4.348295e-07
4.45972e-07
5.179076e-07
-0.0003806189
0.0003840673
9.127397e-12
-5.53745e-06
5.268189e-07
5.176646e-07
5.265901e-07
5.853006e-07
-0.0003876562
0.000391485
8.37344e-12
-6.183066e-06
5.919701e-07
5.850147e-07
5.91945e-07
6.386121e-07
0.0003995974
7.545773e-12
-6.72346e-06
-0.0003954363
6.428093e-07
6.379881e-07
6.430088e-07
6.785827e-07
-0.0004038658
0.0004083118
6.616115e-12
-7.167921e-06
6.829006e-07
6.781961e-07
6.8227e-07
7.062461e-07
-0.0004128521
0.0004175462
5.758216e-12
-7.523387e-06
7.088006e-07
7.062936e-07
7.079005e-07
7.245084e-07
-0.0004223192
0.000427222
5.052502e-12
-7.801948e-06
7.253081e-07
7.242981e-07
7.250337e-07
7.330444e-07
-0.0004321927
0.0004372722
4.501309e-12
-8.010527e-06
7.327444e-07
7.327593e-07
7.324815e-07
7.333311e-07
-0.0004424091
0.0004476364
4.015871e-12
-8.157559e-06
7.320893e-07
7.330544e-07
7.318356e-07
7.262057e-07
-0.0004529121
0.0004582622
3.612324e-12
-8.250251e-06
7.241197e-07
7.259412e-07
7.238616e-07
7.124266e-07
-0.0004636533
0.0004691059
3.36547e-12
-8.295777e-06
7.094363e-07
7.121719e-07
7.091928e-07
6.926803e-07
-0.0004745943
0.000480135
3.180646e-12
-8.302647e-06
6.887781e-07
6.923917e-07
6.881114e-07
6.676049e-07
-0.0004857094
0.0004913287
3.007598e-12
-8.281656e-06
6.637693e-07
6.673759e-07
6.635601e-07
6.484846e-07
-0.0004969682
0.0005026306
3.013919e-12
-8.250407e-06
6.456756e-07
6.483018e-07
6.455001e-07
6.250824e-07
-0.0005083099
0.0005140088
3.209027e-12
-8.19143e-06
6.213638e-07
6.249221e-07
6.212019e-07
5.965783e-07
-0.000519722
0.000525447
3.494054e-12
-8.102805e-06
5.924375e-07
5.964324e-07
5.922831e-07
5.649765e-07
-0.0005311822
0.0005369215
3.525972e-12
-7.990133e-06
5.605597e-07
5.648257e-07
5.60426e-07
5.309708e-07
-0.000542667
0.0005484097
3.478865e-12
-7.857187e-06
5.263836e-07
5.308621e-07
5.262937e-07
4.950052e-07
-0.000554155
0.0005598912
3.656952e-12
-7.706561e-06
4.901977e-07
4.949404e-07
4.901829e-07
4.573105e-07
-0.0005656269
0.0005713478
3.750635e-12
-7.540464e-06
4.525066e-07
4.572944e-07
4.52413e-07
4.183567e-07
-0.0005770653
0.0005827631
3.737391e-12
-7.360897e-06
4.132817e-07
4.182675e-07
4.131427e-07
3.782656e-07
-0.0005884547
0.0005941224
3.750219e-12
-7.170477e-06
3.732498e-07
3.781297e-07
3.731775e-07
3.374037e-07
-0.0005997817
0.0006054131
3.782155e-12
-6.970823e-06
3.323355e-07
3.373495e-07
3.32274e-07
2.962534e-07
-0.0006110337
0.0006166266
3.72412e-12
-6.767723e-06
2.911844e-07
2.962461e-07
2.911512e-07
2.556522e-07
-0.0006222075
0.0006277583
3.626779e-12
-6.563403e-06
2.506137e-07
2.557023e-07
2.505854e-07
2.175309e-07
-0.000633294
0.0006388163
3.471533e-12
-6.385037e-06
2.138078e-07
2.176922e-07
2.136847e-07
1.937901e-07
-0.000644316
0.0006497484
3.233202e-12
-6.233337e-06
2.064695e-07
1.944067e-07
2.062595e-07
3.189831e-07
-0.0006548242
0.0006593476
2.812386e-12
-6.036349e-06
4.354056e-07
3.221412e-07
4.363791e-07
7.028704e-07
-0.0001647028
0.000164797
7.961139e-11
-7.972208e-07
2.332412e-07
-0.0001658844
0.0001663916
-2.138618e-11
-7.403929e-07
1.10951e-07
-0.000168062
0.0001686551
5.451104e-12
-7.040318e-07
2.266234e-08
-0.0001704602
0.0001710625
2.439064e-11
-6.249552e-07
-6.927194e-08
-0.0001728541
0.0001734484
4.165165e-11
-5.250797e-07
-1.29298e-07
-0.0001752029
0.0001757752
6.451945e-11
-4.43064e-07
-1.830859e-07
-0.0001774647
0.000178016
7.648934e-11
-3.683406e-07
-2.355795e-07
-0.0001796425
0.0001801728
9.035001e-11
-2.948581e-07
-2.873074e-07
-0.0001817353
0.0001822441
1.032472e-10
-2.21592e-07
-3.382466e-07
-0.0001837408
0.0001842274
1.015837e-10
-1.48405e-07
-3.880051e-07
-0.0001856559
0.0001861194
8.713788e-11
-7.563425e-08
-4.366044e-07
-0.0001874772
0.0001879179
7.494463e-11
-4.153113e-09
-4.840319e-07
-0.000189202
0.0001896164
6.068306e-11
6.959475e-08
-5.305531e-07
-0.0001908266
0.0001912165
3.820937e-11
1.405966e-07
-5.755294e-07
-0.0001923532
0.0001927185
-3.374633e-12
2.101937e-07
-6.184301e-07
-0.0001937815
0.0001941222
-7.572663e-11
2.777527e-07
-6.587569e-07
-0.0001951127
0.00019543
-1.523893e-10
3.416298e-07
-6.975319e-07
-0.0001963491
0.0001966418
-1.925163e-10
4.050319e-07
-7.340372e-07
-0.0001974879
0.0001977568
-1.461445e-10
4.653009e-07
-7.685176e-07
-0.0001985316
0.0001987769
7.048545e-12
5.231667e-07
-8.010424e-07
-0.0001994815
0.0001997036
2.070389e-10
5.787431e-07
-8.315122e-07
-0.0002003391
0.0002005385
3.418279e-10
6.317619e-07
-8.593178e-07
-0.0002011066
0.0002012838
3.44903e-10
6.81737e-07
-8.844241e-07
-0.000201787
0.000201943
2.371021e-10
7.282528e-07
-8.922544e-07
-0.0002023915
0.0002025201
1.330079e-10
7.635011e-07
-9.213287e-07
-0.0002029031
0.0002030184
1.054125e-10
8.059318e-07
-9.431069e-07
-0.0002033409
0.0002034358
1.146721e-11
8.481713e-07
-9.607069e-07
-0.0002037082
0.0002037839
2.740318e-11
8.849589e-07
-9.731383e-07
-0.0002040021
0.0002040597
4.934635e-11
9.155287e-07
-9.81825e-07
-0.0002042296
0.0002042713
5.568154e-11
9.40009e-07
-9.866983e-07
-0.0002044008
0.0002044299
5.553984e-11
9.576109e-07
-9.863725e-07
-0.0002045298
0.0002045504
5.065805e-11
9.656603e-07
-9.784445e-07
-0.0002046374
0.0002046572
4.774318e-11
9.585443e-07
-9.532874e-07
-0.0002047659
0.0002048033
4.453788e-11
9.15866e-07
-8.683034e-07
-0.0002049977
0.000205113
3.326195e-11
7.529729e-07
1.229406e-07
-0.000205546
0.0002054214
4.440534e-11
1.678804e-09
6.861015e-07
-0.0002049669
0.0002048847
1.511762e-11
-6.039089e-07
7.769791e-07
-0.00020461
0.000204532
1.861774e-11
-6.989819e-07
8.070362e-07
-0.0002043363
0.0002042761
1.175817e-11
-7.468736e-07
8.228026e-07
-0.000204102
0.0002040454
6.624819e-12
-7.661708e-07
8.327452e-07
-0.0002038756
0.000203818
-1.9892e-12
-7.751776e-07
8.397661e-07
-0.0002036439
0.0002035843
-7.229838e-12
-7.802128e-07
8.449963e-07
-0.0002034022
0.0002033395
-8.680506e-12
-7.823397e-07
8.493578e-07
-0.0002031474
0.0002030816
-1.225051e-11
-7.835475e-07
8.529665e-07
-0.0002028808
0.0002028126
-2.384967e-11
-7.846785e-07
8.562835e-07
-0.0002026044
0.0002025334
-3.097564e-11
-7.852261e-07
8.585907e-07
-0.0002023174
0.0002022439
-2.886116e-11
-7.850143e-07
8.60789e-07
-0.0002020203
0.0002019446
-3.067712e-11
-7.850673e-07
8.625637e-07
-0.0002017158
0.0002016387
-3.253446e-11
-7.854539e-07
8.637188e-07
-0.0002014066
0.0002013286
-4.246664e-11
-7.857029e-07
8.655544e-07
-0.000201095
0.0002010164
-4.651851e-11
-7.868726e-07
8.680509e-07
-0.0002007815
0.0002007021
-4.194996e-11
-7.885409e-07
8.68259e-07
-0.0002004679
0.0002003897
-4.45541e-11
-7.900737e-07
8.674515e-07
-0.0002001579
0.0002000822
-4.822457e-11
-7.916427e-07
8.67056e-07
-0.0001998546
0.0001997802
-4.188389e-11
-7.926098e-07
8.658742e-07
-0.0001995592
0.000199487
-3.64717e-11
-7.936388e-07
8.651615e-07
-0.0001992729
0.0001992029
-4.114233e-11
-7.950699e-07
8.646084e-07
-0.0001989963
0.0001989288
-4.34761e-11
-7.970563e-07
8.648149e-07
-0.0001987298
0.0001986648
-4.86792e-11
-7.996689e-07
8.656496e-07
-0.000198474
0.0001984118
-4.211071e-11
-8.033576e-07
8.672588e-07
-0.0001982299
0.0001981703
-4.235909e-11
-8.076566e-07
8.697874e-07
-0.0001979979
0.0001979405
-4.07028e-11
-8.123219e-07
8.692672e-07
-0.0001977792
0.0001977265
-3.500418e-11
-8.166185e-07
8.720874e-07
-0.0001975728
0.0001975231
-3.7458e-11
-8.223355e-07
8.745238e-07
-0.0001973787
0.0001973322
-4.024768e-11
-8.279317e-07
8.769424e-07
-0.0001971971
0.0001971536
-4.04447e-11
-8.33397e-07
8.790955e-07
-0.0001970274
0.0001969867
-3.281819e-11
-8.383742e-07
8.816917e-07
-0.0001968678
0.0001968294
-1.715903e-11
-8.432531e-07
8.810552e-07
-0.0001967209
0.0001966904
9.698899e-12
-8.505716e-07
9.02789e-07
-0.0001966267
0.0001965398
1.655932e-10
-8.16123e-07
1.013923e-06
-0.0001946454
0.0008021981
-6.358176e-12
-3.405885e-06
-7.015293e-08
1.017813e-06
-8.371183e-08
-0.0001946498
-0.0002056861
-0.0002056888
4.678993e-07
-0.0008047436
0.0008048552
9.486528e-12
-2.601904e-06
7.93188e-07
4.51312e-07
7.778428e-07
6.363861e-07
-0.0008049139
0.0008050695
1.416683e-11
-2.772e-06
6.843297e-07
6.235046e-07
6.721426e-07
6.923477e-07
-0.0008054654
0.0008057211
6.008662e-12
-3.093132e-06
7.373685e-07
6.812246e-07
7.264914e-07
7.530348e-07
-0.0008058369
0.0008057994
-1.344243e-11
-3.021205e-06
7.86348e-07
7.429542e-07
7.764287e-07
7.824445e-07
-0.0008057561
0.0008057071
-2.068056e-11
-3.100236e-06
8.01443e-07
7.730074e-07
7.923289e-07
8.046065e-07
-0.0008057058
0.0008057093
-7.027546e-12
-3.226223e-06
8.156257e-07
7.955574e-07
8.068693e-07
8.285083e-07
-0.0008057305
0.0008057448
6.108701e-12
-3.327902e-06
8.365035e-07
8.198703e-07
8.286959e-07
8.498083e-07
-0.0008057645
0.0008057808
1.101246e-11
-3.412279e-06
8.553242e-07
8.424859e-07
8.482621e-07
8.650956e-07
-0.0008058111
0.000805838
1.575791e-11
-3.486021e-06
8.709004e-07
8.586046e-07
8.645016e-07
8.85887e-07
-0.0008058631
0.0008058893
6.168152e-12
-3.56589e-06
8.896854e-07
8.800445e-07
8.840913e-07
9.033703e-07
-0.0008059175
0.0008059454
7.355331e-12
-3.637934e-06
9.065026e-07
8.984039e-07
9.017194e-07
9.206949e-07
-0.0008059732
0.0008060034
2.068876e-11
-3.70994e-06
9.234039e-07
9.163925e-07
9.192512e-07
9.359928e-07
-0.0008060346
0.0008060693
1.181074e-11
-3.776025e-06
9.382796e-07
9.32319e-07
9.346915e-07
9.49814e-07
-0.0008061051
0.0008061457
-1.217102e-11
-3.837507e-06
9.518001e-07
9.46604e-07
9.486828e-07
9.621298e-07
-0.0008061878
0.000806236
-1.68652e-11
-3.894805e-06
9.639139e-07
9.593752e-07
9.612236e-07
9.730103e-07
-0.0008062865
0.0008063441
-1.027792e-11
-3.948097e-06
9.745637e-07
9.706386e-07
9.722731e-07
9.827115e-07
-0.0008064047
0.0008064734
-1.001045e-11
-3.998712e-06
9.843641e-07
9.806386e-07
9.822916e-07
9.917098e-07
-0.0008065459
0.0008066274
-1.008142e-11
-4.047302e-06
9.929515e-07
9.898562e-07
9.912342e-07
9.984717e-07
-0.0008067141
0.0008068136
-6.361366e-12
-4.093874e-06
1.000341e-06
9.969748e-07
9.986263e-07
1.004405e-06
-0.0008069194
0.0008070403
8.537786e-13
-4.13739e-06
1.005215e-06
1.003004e-06
1.003807e-06
1.008732e-06
-0.0008071709
0.0008073172
1.779613e-11
-4.180253e-06
1.009413e-06
1.007534e-06
1.008249e-06
1.012936e-06
-0.0008074735
0.0008076452
2.588203e-11
-4.22314e-06
1.013797e-06
1.011871e-06
1.012781e-06
1.017496e-06
-0.0008078271
0.0008080248
1.246942e-11
-4.267773e-06
1.018405e-06
1.016584e-06
1.017551e-06
1.022418e-06
-0.0008082325
0.0008084562
4.107255e-12
-4.313494e-06
1.023383e-06
1.02154e-06
1.02248e-06
1.027588e-06
-0.0008086899
0.0008089393
-3.149546e-12
-4.360097e-06
1.028651e-06
1.026703e-06
1.027748e-06
1.033149e-06
-0.0008091984
0.0008094732
-9.967155e-12
-4.408031e-06
1.034235e-06
1.032354e-06
1.033476e-06
1.039102e-06
-0.0008097576
0.0008100575
-1.013198e-11
-4.457282e-06
1.040265e-06
1.038396e-06
1.039582e-06
1.045398e-06
-0.0008103669
0.0008106917
-3.699582e-12
-4.507527e-06
1.046614e-06
1.044744e-06
1.04597e-06
1.05194e-06
-0.0008110257
0.000811375
-1.157948e-12
-4.558327e-06
1.053201e-06
1.051321e-06
1.05259e-06
1.058648e-06
-0.0008117333
0.0008121066
1.435908e-12
-4.609346e-06
1.059946e-06
1.058078e-06
1.059382e-06
1.065555e-06
-0.0008124887
0.0008128854
1.168809e-11
-4.66056e-06
1.066912e-06
1.065017e-06
1.066378e-06
1.072594e-06
-0.0008132907
0.0008137103
2.475005e-11
-4.711741e-06
1.073972e-06
1.072085e-06
1.073468e-06
1.079676e-06
-0.0008141384
0.0008145804
1.99311e-11
-4.762592e-06
1.081082e-06
1.079198e-06
1.080613e-06
1.086844e-06
-0.0008150306
0.0008154943
3.990995e-12
-4.813152e-06
1.088296e-06
1.086406e-06
1.087856e-06
1.094064e-06
-0.0008159662
0.0008164511
2.561991e-12
-4.863324e-06
1.095549e-06
1.093654e-06
1.095151e-06
1.101204e-06
-0.0008169438
0.000817449
8.399396e-12
-4.912141e-06
1.102703e-06
1.100801e-06
1.102297e-06
1.108093e-06
-0.0008179617
0.0008184859
1.161638e-11
-4.958871e-06
1.109617e-06
1.107717e-06
1.109251e-06
1.114687e-06
-0.0008190175
0.000819559
7.775953e-12
-5.002757e-06
1.116241e-06
1.114352e-06
1.115925e-06
1.120712e-06
-0.0008201076
0.0008206643
-4.533923e-12
-5.042189e-06
1.122318e-06
1.120413e-06
1.122054e-06
1.125817e-06
-0.0008212277
0.0008217965
-1.595432e-11
-5.074794e-06
1.127516e-06
1.125483e-06
1.127167e-06
1.129179e-06
-0.0008223712
0.0008229471
-1.684512e-11
-5.095757e-06
1.131084e-06
1.128837e-06
1.130702e-06
1.129328e-06
-0.0008235259
0.0008240997
-8.15293e-12
-5.094378e-06
1.131331e-06
1.128949e-06
1.130972e-06
1.120969e-06
-0.0008246687
0.0008252272
-3.619642e-13
-5.043211e-06
1.121655e-06
1.120665e-06
1.121374e-06
1.082972e-06
-0.0008257823
0.000826365
5.887572e-12
-4.895355e-06
1.073601e-06
1.082691e-06
1.073318e-06
9.826573e-07
-0.0008270126
0.0008277604
1.516481e-11
-4.608329e-06
9.479314e-07
9.823616e-07
9.476046e-07
8.631542e-07
-0.000828571
0.0008294014
1.434506e-11
-4.261789e-06
8.528006e-07
8.628821e-07
8.525489e-07
8.466999e-07
-0.0008302153
0.0008310182
4.177571e-12
-4.197253e-06
8.507131e-07
8.464598e-07
8.504893e-07
8.459649e-07
-0.000831824
0.0008326323
-2.344858e-12
-4.194519e-06
8.473498e-07
8.457248e-07
8.471046e-07
8.4242e-07
-0.0008334433
0.0008342516
-1.804389e-12
-4.183465e-06
8.454131e-07
8.421664e-07
8.451726e-07
8.425211e-07
-0.0008350621
0.0008358596
3.704999e-13
-4.178876e-06
8.484227e-07
8.422367e-07
8.48155e-07
8.36155e-07
-0.0008366623
0.0008374605
-3.851484e-12
-4.159039e-06
8.447046e-07
8.357228e-07
8.442303e-07
8.121084e-07
-0.0008383107
0.000839157
2.343623e-11
-4.092266e-06
8.118965e-07
8.112719e-07
8.106483e-07
6.758691e-07
-0.0008403675
0.0008420894
1.791291e-11
-4.524983e-06
7.275004e-07
6.73766e-07
7.258943e-07
9.236783e-07
-0.0008435522
0.0008434559
1.045013e-11
-3.369518e-06
8.030852e-07
9.300841e-07
8.089723e-07
8.193238e-07
-0.0008436637
0.0008444574
8.282947e-12
-3.920834e-06
7.379465e-07
8.259054e-07
7.439588e-07
7.78206e-07
-0.0008453152
0.0008462579
8.670177e-12
-3.985231e-06
7.378227e-07
7.836584e-07
7.428305e-07
7.641515e-07
-0.0008471835
0.0008481927
9.265747e-12
-4.028513e-06
7.412061e-07
7.685896e-07
7.453583e-07
7.690336e-07
-0.0008492034
0.0008502517
7.303143e-12
-4.110727e-06
7.586058e-07
7.726971e-07
7.620819e-07
7.87296e-07
-0.0008512846
0.0008523351
2.854005e-12
-4.198331e-06
7.833232e-07
7.906387e-07
7.864988e-07
8.049619e-07
-0.0008533787
0.0008544386
-2.991005e-12
-4.282945e-06
8.038459e-07
8.077797e-07
8.065255e-07
8.213452e-07
-0.0008554933
0.000856562
-7.495611e-12
-4.360656e-06
8.222381e-07
8.237893e-07
8.245687e-07
8.378632e-07
-0.0008576258
0.0008586999
-3.833806e-12
-4.432211e-06
8.391173e-07
8.399758e-07
8.411418e-07
8.519644e-07
-0.0008597724
0.0008608577
5.046743e-12
-4.502312e-06
8.547224e-07
8.538156e-07
8.565332e-07
8.678498e-07
-0.000861941
0.0008630335
1.015516e-11
-4.572963e-06
8.708318e-07
8.694033e-07
8.723578e-07
8.826114e-07
-0.0008641255
0.0008652262
9.418825e-12
-4.639256e-06
8.853348e-07
8.839513e-07
8.866458e-07
8.959667e-07
-0.000866327
0.0008674355
8.123567e-12
-4.699783e-06
8.985199e-07
8.970958e-07
8.996123e-07
9.080783e-07
-0.0008685445
0.0008696609