/*--------------------------------*- C++ -*----------------------------------*\
| =========                 |                                                 |
| \\      /  F ield         | foam-extend: Open Source CFD                    |
|  \\    /   O peration     | Version:     3.1                                |
|   \\  /    A nd           | Web:         http://www.extend-project.de       |
|    \\/     M anipulation  |                                                 |
\*---------------------------------------------------------------------------*/
FoamFile
{
    version     2.0;
    format      ascii;
    class       volScalarField;
    location    "15.5";
    object      alpha1;
}
// * * * * * * * * * * * * * * * * * * * * * * * * * * * * * * * * * * * * * //

dimensions      [0 0 0 0 0 0 0];

internalField   nonuniform List<scalar> 
119952
(
0.9999998
1
1
1
1
1
0.9999998
1
1
0.9999999
1
1
1
0.9999998
1
1
1
0.9999999
1
1
1
1
1
1
1
1
1
0.9999999
1
0.9999994
1
1
1
1
1
1
1
1
1
1
1
1
1
1
1
1
1
1
1
1
1
1
1
1
1
1
0.9999999
0.9999998
1
1
0.9999998
1
1
0.9999998
1
0.9999999
0.9999999
1
1
0.9999998
1
1
1
1
1
0.9999999
1
1
1
1
1
1
1
1
1
1
1
1
1
1
1
1
1
1
1
1
1
1
1
1
1
1
1
1
0.9999999
1
1
1
1
0.9999999
0.9999999
1
0.9999998
1
1
0.9999999
0.9999999
1
1
1
1
1
1
1
1
1
1
1
1
1
1
1
1
1
1
0.9999999
0.999999
0.9999986
1
1
1
1
1
0.9999999
0.9999995
0.9999999
1
1
1
0.9999999
0.9999996
0.9999999
1
1
1
1
1
1
1
1
1
1
1
0.9999999
1
1
1
1
1
1
1
1
1
1
1
1
1
1
1
1
1
1
1
1
1
1
1
1
1
1
1
1
1
1
1
1
1
0.9999999
1
1
1
1
1
1
1
0.9999999
0.9999996
1
0.9999998
1
1
1
0.9999996
0.9999996
1
0.9999999
1
0.9999999
1
1
1
1
1
1
1
1
1
1
1
1
1
1
1
1
1
1
1
1
1
1
1
1
1
1
1
1
1
1
1
1
1
1
1
1
1
1
1
1
1
1
1
1
1
1
1
1
1
1
1
1
1
1
1
1
1
1
1
1
1
1
1
0.9999999
1
1
1
1
1
1
1
1
1
1
1
1
1
1
1
1
1
1
1
1
1
1
1
1
1
1
1
1
1
1
1
1
1
1
1
0.9999999
0.9999987
1
1
1
0.9999997
0.9999996
1
1
0.9999992
0.9999999
1
1
1
1
1
0.9999999
0.9999997
1
1
1
0.9999998
0.9999993
1
1
1
0.9999999
0.9999995
1
1
0.9999998
1
1
1
1
1
1
1
1
1
0.9999987
0.9999998
1
0.9999997
0.9999984
1
1
1
0.9999999
0.9999999
1
1
1
1
1
1
1
1
1
1
1
1
0.9999999
0.9999979
0.9999997
1
1
0.9999998
0.9999974
0.999999
1
1
1
1
1
1
1
1
1
1
1
1
1
0.9999999
0.9999962
0.999999
1
1
1
1
1
1
1
1
1
1
1
1
1
1
1
1
1
1
1
1
1
1
1
1
1
1
1
1
1
1
1
1
1
1
1
1
1
1
1
1
1
1
1
1
1
1
1
1
1
1
1
1
1
1
1
1
1
1
1
1
1
1
1
1
1
1
1
1
1
1
1
1
1
1
0.9999998
0.9999999
1
1
1
1
1
1
1
1
1
1
1
1
1
1
0.9999999
0.9999993
0.9999986
0.9999986
0.9999988
0.9999993
0.9999996
0.9999997
0.9999997
0.9999995
0.9999989
0.9999978
0.9999947
0.9999854
0.9999638
0.999955
0.9999756
0.9999965
0.9999999
1
1
1
1
1
0.9999999
1
1
1
1
1
1
1
1
1
0.9999999
0.9999999
0.9999999
0.9999999
0.9999997
0.9999986
0.9999929
0.999973
0.9999173
0.9998853
0.9999205
0.9999759
0.9999973
0.9999963
0.9999866
0.9999563
0.9998795
0.9996768
0.9991335
0.998483
0.9986837
0.9995723
0.9999629
0.9999994
1
0.9999999
0.9999996
0.9999982
0.9999915
0.9999591
0.9997878
0.9989146
0.9979156
0.9982311
0.999383
0.999937
0.9999988
1
1
1
1
1
1
1
1
1
1
1
1
1
1
1
1
1
1
1
1
1
1
1
1
1
1
1
1
1
1
1
1
1
1
1
1
1
1
1
1
1
1
1
1
1
1
1
1
1
1
1
1
1
1
1
1
1
1
1
1
0.9999999
1
1
1
1
1
1
1
1
1
1
1
1
1
1
1
1
1
1
1
1
1
1
1
1
1
1
1
1
1
1
1
1
1
1
1
1
1
1
1
1
1
1
1
1
1
1
1
1
1
1
1
1
1
1
1
1
1
1
1
1
0.9999996
0.9999985
0.9999977
0.9999979
0.9999991
0.9999998
0.9999998
0.9999998
0.9999992
0.9999966
0.9999912
0.999983
0.9999814
0.9999909
0.9999985
0.9999999
1
1
1
0.9999998
0.9999996
0.9999997
0.9999999
1
1
1
1
1
1
1
0.9999999
0.9999993
0.9999959
0.9999839
0.9999812
0.9999886
0.999998
0.9999999
1
1
1
1
1
1
1
1
1
1
1
1
1
1
1
1
1
1
1
1
1
1
1
1
1
1
1
1
0.9999995
0.9999992
0.9999997
1
1
1
1
1
1
1
1
1
1
0.9999999
0.9999994
0.9999983
0.9999983
0.9999991
0.9999998
1
1
0.9999998
0.999998
0.9999966
0.9999967
0.9999983
0.9999997
1
0.9999999
0.9999996
0.9999977
0.9999978
0.999999
0.9999998
1
1
1
1
1
1
1
1
1
1
1
1
0.9999999
0.9999998
0.9999998
0.9999999
1
1
1
1
1
1
1
1
1
1
1
1
1
0.9999999
0.9999999
0.9999999
1
1
1
1
1
1
0.9999999
1
1
1
1
1
1
0.9999999
1
1
1
1
1
1
1
1
1
1
1
1
1
1
1
1
1
1
1
1
1
1
1
1
1
1
1
1
1
1
1
1
1
1
1
1
1
1
1
1
1
1
1
1
1
1
1
1
1
1
1
1
1
1
1
1
1
1
1
1
1
1
1
1
1
1
1
1
1
1
1
1
1
1
1
1
1
1
1
1
1
1
1
1
1
1
1
1
1
1
1
1
1
1
1
1
1
1
1
1
0.9999999
0.9999999
1
1
1
1
1
1
1
1
1
1
1
1
0.9999993
0.9999897
0.9999582
0.999941
0.9999451
0.9999649
0.9999907
0.9999919
0.9999797
0.9999248
0.9997034
0.9990274
0.9986187
0.9991833
0.9998509
0.9999925
0.9999998
1
1
1
1
1
0.9999999
0.9999996
0.9999994
0.9999995
0.9999998
1
1
1
1
1
1
1
1
0.9999999
0.9999975
0.9999686
0.9997397
0.9987789
0.9974364
0.997437
0.9986213
0.9997356
0.9999835
0.9999968
0.9999809
0.999817
0.9986657
0.991514
0.9733705
0.9736796
0.9878346
0.9983825
0.9999563
0.9999998
0.9999999
0.9999994
0.9999926
0.9999435
0.9996617
0.9979677
0.989058
0.9792678
0.9876802
0.9974766
0.9998033
0.9999765
0.9999972
0.9999999
1
1
1
1
1
1
0.9999999
0.9999998
0.9999998
1
1
1
1
1
1
1
0.9999999
1
1
1
1
1
1
1
1
1
1
1
1
1
1
1
1
1
1
1
1
1
1
1
1
1
1
1
1
1
1
1
1
1
1
1
1
1
1
1
1
1
1
1
0.9999998
0.9999995
0.9999996
0.9999999
1
1
1
1
1
1
1
1
1
1
1
1
1
1
1
1
1
1
1
1
1
1
1
1
1
1
1
1
1
1
1
1
1
1
1
1
1
1
1
1
1
1
1
1
1
1
1
0.9999999
0.9999998
0.9999995
0.9999995
0.9999997
0.9999999
0.9999999
0.9999998
0.9999984
0.9999914
0.9999695
0.9999556
0.9999759
0.9999953
0.9999993
0.9999985
0.9999926
0.9999597
0.999845
0.9995653
0.999541
0.9998031
0.9999736
0.9999991
1
1
1
1
1
1
0.9999998
0.9999998
0.9999999
1
1
1
1
0.9999999
0.9999996
0.9999976
0.9999843
0.9999173
0.9998942
0.9999399
0.9999893
0.9999993
1
1
1
1
1
1
1
1
1
1
1
1
1
1
1
1
1
1
1
1
1
1
1
1
1
1
1
1
1
1
1
1
1
1
1
1
1
1
0.9999999
0.9999997
0.9999997
0.9999999
0.9999999
0.9999991
0.9999985
0.9999987
0.9999995
1
1
1
1
1
1
0.9999995
0.9999972
0.9999966
0.999997
0.999999
0.9999999
0.9999998
0.9999982
0.9999967
0.9999967
0.9999973
0.9999992
0.9999999
1
1
1
1
1
1
1
1
1
1
1
1
1
1
1
1
1
1
1
1
1
1
1
1
1
1
1
1
1
1
1
1
1
1
1
1
1
1
1
1
1
1
1
1
1
1
1
1
1
1
1
1
1
1
1
1
1
1
1
1
1
1
1
1
1
1
1
1
1
1
1
1
1
1
1
1
1
1
1
1
1
1
1
1
1
1
1
1
1
1
1
1
1
1
1
1
1
1
1
1
1
1
1
1
1
1
1
1
1
1
1
1
1
1
1
1
1
1
1
1
1
1
1
1
1
1
1
1
1
1
1
1
1
1
1
0.9999999
0.9999997
0.9999993
0.9999993
0.9999995
0.9999998
0.9999999
0.9999999
0.9999999
0.9999996
0.9999991
0.9999983
0.9999972
0.9999959
0.9999946
0.9999946
0.9999976
0.9999998
1
1
1
1
0.9999999
0.9999999
1
1
1
1
1
1
1
1
1
1
1
0.9999992
0.999981
0.9997774
0.9993067
0.999384
0.9997721
0.9999813
0.9999646
0.9996164
0.9963912
0.9878003
0.9885446
0.9955912
0.9995031
0.9999831
0.9999999
1
1
1
1
1
1
0.9999996
0.999998
0.9999961
0.999997
0.9999992
1
1
1
1
1
1
1
0.9999999
0.9999982
0.9999713
0.9994922
0.9940212
0.9777412
0.9778305
0.9903036
0.9985867
0.9999369
0.999992
0.9999728
0.9998082
0.9983203
0.9809452
0.921422
0.9165344
0.9267968
0.9783039
0.9984848
0.9999833
0.9999998
0.9999995
0.9999957
0.9999375
0.9989565
0.9832772
0.8889167
0.886361
0.9548969
0.9950109
0.9998708
0.9999992
0.9999997
0.9999997
0.9999997
0.9999996
0.9999989
0.999994
0.99997
0.999931
0.9999496
0.999987
0.9999991
1
1
1
1
0.9999997
0.9999985
0.9999976
0.9999987
0.9999998
1
1
1
1
1
1
1
1
1
1
1
1
1
1
1
1
1
1
1
1
1
1
1
1
1
1
1
1
0.9999999
0.9999994
0.9999992
0.9999995
0.9999999
1
1
1
1
1
1
1
1
1
0.9999997
0.9999986
0.9999985
0.9999994
0.9999999
1
1
1
1
1
1
1
1
1
1
1
1
1
1
1
1
1
1
1
1
1
1
1
1
1
1
1
1
1
1
1
1
1
1
1
1
1
1
1
1
1
1
1
1
0.9999999
0.9999995
0.9999981
0.9999935
0.9999927
0.9999958
0.9999994
0.9999998
0.9999995
0.9999972
0.9999803
0.9998954
0.9997005
0.9997626
0.9999271
0.9999927
0.9999984
0.9999959
0.9999635
0.9997084
0.9982029
0.9959833
0.9973676
0.9993867
0.9999605
0.9999989
0.9999991
0.9999991
0.9999991
0.9999992
0.9999992
0.9999993
0.9999998
1
1
1
1
1
0.9999999
0.9999994
0.9999957
0.9999695
0.9997888
0.999389
0.9995605
0.9998843
0.9999899
0.9999998
1
1
1
1
1
1
1
1
1
1
1
0.9999999
0.9999999
1
1
1
1
1
1
1
1
1
1
1
1
1
1
1
1
1
1
1
1
1
1
1
1
1
1
1
1
0.9999999
0.9999999
0.9999999
0.9999999
0.9999996
0.9999985
0.9999984
0.999999
0.9999998
1
1
1
1
1
0.9999999
0.9999995
0.9999988
0.9999991
0.9999997
1
0.9999999
0.9999996
0.9999983
0.9999983
0.9999993
0.9999999
1
1
1
1
1
1
1
1
1
1
1
1
1
1
1
1
1
1
1
1
1
1
1
1
1
1
1
1
1
1
1
1
1
1
1
1
0.9999999
1
1
1
1
1
1
1
1
1
1
1
1
1
1
1
1
1
1
1
1
1
1
1
1
1
1
1
1
1
1
1
1
1
1
1
1
1
1
1
1
1
1
1
1
1
1
1
1
1
1
1
1
1
1
1
1
1
1
1
1
1
1
1
1
1
1
1
1
1
1
1
1
1
1
1
1
1
1
1
0.9999998
0.9999997
0.9999998
0.9999999
1
1
1
1
1
1
1
1
1
1
1
1
1
1
1
1
1
1
1
1
1
1
1
1
1
0.9999999
0.9999992
0.999996
0.9999836
0.9999707
0.9999723
0.9999824
0.9999944
0.9999971
0.9999956
0.9999866
0.9999431
0.9997423
0.9992621
0.9992628
0.9997367
0.9999772
0.9999996
1
1
0.9999998
0.9999992
0.9999986
0.999999
0.9999998
1
1
1
1
0.9999999
0.9999998
0.9999998
0.9999998
0.9999997
0.9999992
0.9999976
0.9999902
0.9999278
0.999273
0.9978808
0.9985581
0.9996442
0.9999643
0.9998442
0.9962589
0.9680121
0.9613857
0.9764739
0.9958829
0.9998185
0.9999985
1
1
1
1
1
0.9999999
0.9999993
0.9999946
0.9999802
0.9999811
0.999994
0.9999996
1
1
1
1
1
1
1
0.9999992
0.9999784
0.999593
0.9956534
0.9604203
0.9458595
0.9596139
0.9906136
0.9994626
0.9999871
0.9999841
0.9998093
0.9972052
0.9667017
0.9165344
0.9165344
0.9165344
0.9226967
0.9741212
0.9978991
0.9999688
0.9999875
0.9999394
0.9997041
0.9985466
0.986643
0.8696178
0.8236993
0.8236993
0.8922243
0.9838742
0.9995417
0.9999972
0.9999973
0.9999909
0.9999585
0.9997856
0.9989495
0.9981669
0.9989381
0.9997891
0.9999869
0.9999993
1
1
0.9999999
0.9999995
0.9999961
0.9999843
0.9999856
0.9999953
0.9999995
1
1
1
1
1
1
1
1
1
1
1
1
1
1
1
1
1
1
1
1
1
1
1
1
1
1
0.9999999
0.9999994
0.9999967
0.999991
0.9999926
0.9999978
0.9999998
1
1
1
1
1
1
1
1
1
0.9999996
0.999997
0.9999954
0.9999979
0.9999997
1
1
1
1
1
1
1
1
0.9999999
0.9999999
1
1
1
1
1
1
1
1
1
1
1
1
1
1
1
1
1
1
1
1
1
1
1
1
1
1
1
1
1
1
1
1
0.9999999
0.9999996
0.9999976
0.999988
0.999946
0.9999358
0.9999604
0.999993
0.999999
0.9999989
0.9999967
0.9999798
0.9998696
0.9991873
0.9989688
0.9993145
0.9998597
0.999992
0.9999975
0.9999972
0.9999815
0.9996066
0.9950885
0.9917253
0.9925731
0.9974317
0.9997446
0.9999136
0.9998862
0.9997728
0.9994967
0.9994787
0.99979
0.9999758
0.9999993
0.9999998
0.9999998
0.9999998
0.9999998
0.9999998
0.9999993
0.9999953
0.9999575
0.9995482
0.9977443
0.9974656
0.9986471
0.9997793
0.9999889
0.9999999
1
1
1
1
1
1
1
0.9999999
0.9999996
0.9999983
0.9999956
0.9999959
0.9999986
0.9999999
1
1
1
1
1
1
1
1
1
1
1
1
1
1
1
1
1
1
1
1
1
1
1
1
1
1
1
1
1
1
0.9999999
0.9999999
0.9999999
1
0.9999999
0.9999996
0.9999987
0.9999987
0.9999992
0.9999999
1
1
1
1
1
1
1
1
1
1
1
1
1
1
1
1
1
1
1
1
1
1
1
1
1
1
1
1
1
1
1
1
1
1
1
1
1
1
1
1
1
1
1
1
1
1
1
1
1
1
1
1
0.9999999
0.9999999
1
1
1
0.9999999
1
1
1
1
1
1
1
1
1
1
1
1
1
1
1
1
1
1
1
1
1
1
1
1
1
1
1
1
1
1
1
1
1
1
1
1
1
1
1
1
1
1
1
1
1
1
1
1
1
1
1
1
1
1
1
1
1
1
1
1
1
1
1
1
1
1
1
1
1
1
1
1
1
1
1
1
1
1
0.9999999
0.9999992
0.9999909
0.9999551
0.9998773
0.9998765
0.9999354
0.9999788
0.999995
0.9999993
1
1
1
1
1
1
1
1
1
1
1
1
1
1
1
1
1
1
1
1
1
0.9999997
0.9999937
0.9999424
0.9998513
0.9998453
0.9998303
0.9997012
0.9996738
0.9997617
0.9999249
0.9999618
0.9999077
0.9993364
0.9950248
0.9899458
0.9942339
0.9989321
0.9999475
0.999999
0.9999998
0.9999993
0.9999958
0.9999839
0.9999838
0.9999943
0.9999995
1
1
1
0.9999999
0.9999997
0.9999987
0.9999964
0.9999918
0.9999793
0.9999285
0.9997187
0.9990803
0.9978744
0.9966769
0.9964845
0.9966124
0.9973799
0.9987913
0.9993815
0.9987749
0.9848616
0.9607795
0.972395
0.9922049
0.9992297
0.9999808
0.9999999
1
1
0.9999999
0.9999998
0.9999991
0.999995
0.9999667
0.9998872
0.9999068
0.9999751
0.9999983
1
1
1
1
0.9999999
0.9999992
0.9999954
0.9999856
0.9999766
0.9998538
0.9978163
0.965139
0.9366507
0.94885
0.9826396
0.9977161
0.9998513
0.9998294
0.9997222
0.9987956
0.9753171
0.9279268
0.9457554
0.984221
0.997833
0.9989328
0.9991372
0.9992977
0.999537
0.9995945
0.9985462
0.9662426
0.8309041
0.8236993
0.8776689
0.9698686
0.9966609
0.9994201
0.9998601
0.9999129
0.9997777
0.9990867
0.9967235
0.988164
0.976862
0.9850491
0.9967847
0.9997608
0.9999884
0.9999998
0.9999999
0.9999999
0.9999993
0.9999939
0.999956
0.9999302
0.9999535
0.9999896
0.9999993
1
1
1
1
1
1
1
1
1
1
1
1
1
1
1
1
1
1
1
1
1
0.9999999
0.9999999
0.9999999
0.9999997
0.9999989
0.9999934
0.9999587
0.9998719
0.9998957
0.999969
0.999997
0.9999999
1
1
1
0.9999999
1
1
1
1
1
0.9999995
0.9999948
0.9999884
0.999994
0.9999989
0.9999999
1
1
1
1
1
1
1
0.9999999
0.9999998
0.9999999
0.9999999
0.9999999
0.9999997
0.9999994
0.9999995
0.9999998
1
1
1
1
1
1
1
1
1
1
1
1
1
1
1
1
1
1
1
1
1
1
1
1
0.9999998
0.9999989
0.9999935
0.9999581
0.999741
0.9996331
0.9997462
0.9999399
0.9999959
0.9999974
0.9999948
0.9999711
0.9998079
0.9987862
0.9977836
0.9978285
0.9989884
0.9998275
0.9999749
0.9999577
0.9998151
0.9994752
0.9993634
0.9983993
0.992551
0.9917253
0.9946779
0.9988533
0.9986616
0.9955504
0.9854933
0.9854159
0.9942876
0.9993515
0.9999797
0.9999955
0.9999949
0.9999914
0.9999873
0.9999877
0.9999925
0.9999933
0.9999785
0.9997438
0.9971182
0.9946325
0.9956294
0.9985132
0.9998187
0.9999934
0.9999999
0.9999999
0.9999999
0.9999999
0.9999999
0.9999999
0.9999998
0.9999994
0.9999975
0.9999885
0.9999557
0.9999406
0.9999711
0.9999956
0.9999998
1
1
1
0.9999999
0.9999997
0.9999997
0.9999999
1
1
1
1
1
1
1
1
1
1
1
1
1
1
1
1
1
1
1
1
1
1
1
1
1
1
1
1
1
1
0.9999996
0.9999987
0.9999991
0.9999998
1
1
1
1
1
1
1
1
1
1
1
1
1
1
1
1
1
1
1
1
1
1
1
1
1
1
1
1
1
1
1
1
1
1
1
1
1
1
1
1
1
1
1
1
1
1
1
1
0.9999999
1
1
1
1
1
0.9999999
1
1
1
1
1
1
1
1
1
1
1
1
1
1
1
1
1
1
1
1
1
1
1
1
1
1
1
1
1
1
1
1
1
1
1
1
1
1
1
1
1
1
1
1
1
1
1
1
1
1
1
1
0.9999999
0.9999999
0.9999999
1
1
1
1
1
1
1
1
1
1
1
1
1
1
1
1
1
1
1
1
1
1
1
1
1
1
1
1
1
1
0.9999989
0.9999676
0.9995903
0.997832
0.9950081
0.9957093
0.9979383
0.999325
0.9995014
0.9996316
0.9998177
0.9999582
0.9999972
0.9999999
1
0.9999999
0.9999999
0.9999999
0.9999999
0.9999999
0.9999999
1
1
1
1
1
1
1
1
1
1
0.9999991
0.999961
0.9993248
0.9971542
0.9968119
0.9983361
0.9991111
0.998723
0.9985169
0.9988486
0.9996342
0.9996539
0.997914
0.9764614
0.9650832
0.9823951
0.9972064
0.9998793
0.9999976
0.9999973
0.9999866
0.9999142
0.9998539
0.9999167
0.999984
0.9999993
1
1
1
0.9999999
0.9999994
0.9999968
0.9999862
0.9999223
0.9994884
0.9977145
0.9929007
0.9777233
0.9344282
0.8748215
0.8676503
0.8863909
0.9309161
0.9733119
0.9861526
0.9804839
0.9743234
0.9823813
0.9923014
0.9977305
0.999655
0.9999775
0.9999989
0.9999992
0.999998
0.9999952
0.9999898
0.9999753
0.9999107
0.9995932
0.9993004
0.999627
0.9999346
0.9999968
1
1
1
1
1
0.9999994
0.9999765
0.9996965
0.998406
0.9980729
0.9985087
0.9960811
0.9317743
0.9365278
0.980016
0.9976674
0.9993733
0.9987122
0.9925932
0.9731432
0.9673274
0.97114
0.9771728
0.9763118
0.9616121
0.9303737
0.9361582
0.9765305
0.9920813
0.9878868
0.9504787
0.8923581
0.9403594
0.9858288
0.9983716
0.9998906
0.9999505
0.9999515
0.9999515
0.9999515
0.9998584
0.9987561
0.9761261
0.7967945
0.802503
0.93496
0.9935947
0.9997403
0.9999969
0.9999997
0.9999997
0.9999988
0.9999893
0.9998966
0.9997508
0.9998091
0.9999379
0.9999916
0.9999995
1
1
1
1
1
1
1
1
1
0.9999999
0.9999998
0.9999999
1
1
1
1
0.9999999
0.9999988
0.999989
0.9998958
0.9995689
0.9995494
0.9997921
0.9999714
0.9999937
0.9999836
0.9998853
0.9994093
0.9993268
0.9996566
0.9999463
0.9999968
0.9999999
0.9999999
0.9999997
0.9999995
0.9999997
0.9999999
1
1
1
0.9999999
0.9999991
0.9999902
0.9999736
0.9999852
0.9999968
0.9999998
1
1
1
1
1
1
1
1
0.9999999
0.9999998
0.999999
0.999995
0.9999837
0.9999818
0.999988
0.9999971
0.9999998
1
1
0.9999999
0.9999997
0.9999989
0.9999986
0.9999987
0.9999992
0.9999998
0.9999999
1
1
1
1
1
1
1
0.9999998
0.9999998
0.9999998
0.9999999
0.9999998
0.9999996
0.9999978
0.9999872
0.9999037
0.9992434
0.9984712
0.9988177
0.9996098
0.9999629
0.9999957
0.9999947
0.999978
0.9998003
0.9980689
0.9940731
0.9948081
0.9979784
0.9997023
0.9999721
0.9999741
0.9999677
0.9997031
0.9968094
0.9865785
0.9875126
0.9956178
0.9995332
0.9999632
0.9999569
0.9994015
0.9864454
0.939801
0.9438795
0.9796549
0.9977907
0.9999311
0.9999578
0.9999304
0.9997675
0.9992413
0.9991567
0.9996038
0.9999465
0.999926
0.9993882
0.9943093
0.992952
0.9961159
0.9992319
0.9999367
0.9999916
0.9999911
0.9999802
0.9999439
0.9999474
0.9999816
0.999997
0.9999962
0.9999897
0.9999603
0.9998324
0.9995804
0.9996461
0.9998956
0.9999907
0.9999997
0.9999999
0.9999999
0.9999993
0.9999976
0.9999975
0.999999
0.9999998
1
1
1
1
1
1
1
1
1
1
1
1
0.9999999
0.9999999
0.9999999
0.9999999
1
1
1
1
1
1
1
1
1
1
1
1
1
1
1
1
0.9999999
0.9999997
0.9999996
0.9999997
0.9999999
1
1
1
1
1
1
1
1
1
1
1
1
1
1
1
1
1
1
1
1
1
1
1
1
1
1
1
1
1
1
1
1
1
1
1
1
1
1
1
1
1
1
1
1
1
0.9999999
1
1
1
1
1
1
1
1
1
1
1
1
1
1
1
1
1
1
1
1
1
1
1
1
1
1
1
1
1
1
1
1
1
1
1
1
1
1
1
1
1
1
1
1
1
1
1
1
1
1
1
1
1
1
1
1
1
1
1
1
1
1
1
1
1
1
1
1
1
1
1
1
1
1
1
1
1
1
1
1
1
1
1
1
1
1
1
1
0.9999999
0.9999998
0.9999995
0.9999933
0.9998469
0.997009
0.9769111
0.9497436
0.959961
0.9869166
0.9980195
0.9976316
0.9948756
0.9940454
0.994858
0.9971148
0.9992698
0.9999385
0.9999798
0.9999772
0.9999669
0.9999376
0.9998846
0.9998718
0.9999344
0.999992
0.9999997
0.9999998
0.9999998
0.9999998
0.9999998
0.9999999
1
1
0.9999993
0.9999524
0.9984522
0.9884854
0.9809385
0.9895433
0.9975892
0.9969866
0.9903212
0.9872819
0.9907282
0.9968019
0.9960906
0.9609311
0.9381011
0.962243
0.9930094
0.9997169
0.9999769
0.9999548
0.9996521
0.9990699
0.9993552
0.9998231
0.9999835
0.999999
0.9999991
0.9999985
0.9999986
0.999999
0.9999985
0.9999916
0.9999318
0.999534
0.9967488
0.9752422
0.9035342
0.8085321
0.6480509
0.3197721
0.1660583
0.2015921
0.3340529
0.4194535
0.4695281
0.6303768
0.8673311
0.9762386
0.9979714
0.9998778
0.9999832
0.9999973
0.9999983
0.9999983
0.9999867
0.9998824
0.999544
0.9988344
0.9972607
0.9947988
0.9957895
0.9988448
0.9998936
0.9999966
1
1
0.9999999
1
1
0.9999999
0.9999967
0.9998354
0.9960746
0.9777523
0.9779262
0.9940062
0.9939704
0.955229
0.9072244
0.9499737
0.9921952
0.9982557
0.9919476
0.9071699
0.6661875
0.6578207
0.7431496
0.6433578
0.3063423
0.2713992
0.4988511
0.9001858
0.973103
0.9310345
0.5605683
0.4456995
0.7540098
0.9726442
0.9993676
0.999949
0.999946
0.999946
0.9999514
0.9999515
0.9999014
0.998335
0.9557305
0.7451201
0.719142
0.7607544
0.9370785
0.9962051
0.9999644
0.9999985
0.9999957
0.9999663
0.9996461
0.9992483
0.9994288
0.9998094
0.9999633
0.9999952
0.9999998
1
1
1
1
1
1
1
1
1
1
0.9999998
0.9999998
0.9999999
1
1
1
1
0.9999992
0.9999819
0.9996836
0.9988413
0.9992553
0.9998261
0.9999646
0.9999671
0.9998942
0.99933
0.9979355
0.9984065
0.9995519
0.9999508
0.9999981
1
0.9999999
0.9999994
0.9999988
0.9999989
0.9999996
1
1
1
0.9999999
0.9999982
0.9999793
0.9999382
0.9999612
0.9999915
0.9999995
1
1
1
1
1
1
1
1
0.9999997
0.9999973
0.9999777
0.9998839
0.9997297
0.9997462
0.9998984
0.9999863
0.9999994
0.9999997
0.9999991
0.9999951
0.9999788
0.9999562
0.9999574
0.9999799
0.9999968
0.9999999
1
1
1
1
1
0.9999999
0.9999995
0.9999989
0.9999989
0.9999995
0.9999998
0.9999997
0.9999994
0.9999972
0.9999829
0.9998603
0.9986185
0.9951277
0.9955078
0.9982871
0.9997619
0.9999898
0.9999944
0.9999896
0.9999178
0.9990224
0.9908974
0.983715
0.9917903
0.9985075
0.9999237
0.9999741
0.9999741
0.9999694
0.9997729
0.9967478
0.9776833
0.9720245
0.982728
0.9969607
0.9998742
0.9999803
0.9999428
0.9989648
0.9780296
0.9377478
0.938726
0.9743447
0.9969917
0.9987329
0.9918455
0.9677985
0.974268
0.9923135
0.9992405
0.9997852
0.999654
0.9984093
0.9907336
0.9843609
0.9927426
0.998862
0.9999463
0.9999651
0.9998967
0.9996049
0.9995764
0.9997874
0.9999681
0.9999949
0.999985
0.9998953
0.999375
0.9977295
0.9970343
0.9982621
0.9996696
0.9999822
0.9999988
0.9999985
0.9999937
0.9999832
0.9999863
0.9999951
0.9999992
0.9999999
1
1
1
1
1
1
1
1
1
1
1
1
0.9999999
0.9999995
0.9999992
0.9999994
0.9999999
1
1
1
1
1
1
1
1
1
1
1
1
1
1
1
1
1
1
1
0.9999999
0.9999999
1
1
1
1
1
1
1
1
1
1
1
1
1
1
1
1
1
1
1
1
1
1
1
1
1
1
1
1
1
1
1
1
1
1
1
1
1
1
1
1
1
1
1
1
1
1
1
1
1
1
1
1
1
0.9999999
1
1
0.9999999
1
1
1
1
1
1
1
1
1
1
1
1
1
1
1
1
1
1
1
1
1
1
1
1
1
1
1
1
1
1
1
1
1
1
1
1
1
1
1
1
1
1
1
1
1
1
1
1
1
1
1
1
1
1
1
1
1
1
1
1
1
1
1
1
1
1
1
1
1
1
1
1
1
1
1
1
0.9999999
0.9999997
0.9999995
0.9999989
0.9999965
0.9999897
0.9999818
0.9999806
0.9999823
0.9999866
0.9999882
0.9999874
0.9999842
0.9999828
0.9999835
0.9999846
0.9999833
0.9999744
0.9999539
0.999937
0.9998928
0.9991651
0.9887093
0.941707
0.8026137
0.8581177
0.9583563
0.9923071
0.9914367
0.9797472
0.9485892
0.9326266
0.9357982
0.9563264
0.9876011
0.9982852
0.9985616
0.9976415
0.9927529
0.989681
0.9949304
0.9993367
0.9999727
0.9999804
0.999953
0.9998761
0.9998821
0.9999627
0.9999974
0.9999999
0.9999999
0.999999
0.999946
0.9980722
0.978726
0.9630802
0.9710948
0.9913565
0.9903269
0.9624465
0.8265598
0.7340462
0.8001255
0.9249631
0.9352565
0.9064521
0.9399002
0.9849431
0.9990183
0.9996425
0.9979409
0.9953323
0.9964401
0.9989892
0.9998621
0.9999823
0.999992
0.9999787
0.9999776
0.999989
0.9999958
0.9999947
0.9999797
0.9997802
0.9969849
0.9729847
0.9000701
0.6536196
0.2159148
0.03127589
0.01827228
0.0182737
0.01827368
0.01862956
0.02510941
0.03737751
0.04470568
0.07727836
0.3634886
0.8484157
0.9892111
0.9997681
0.9999968
0.9999979
0.999995
0.9999782
0.9998934
0.9988619
0.9802549
0.9114204
0.9273154
0.9756543
0.9973263
0.9998651
0.9999978
0.9999999
0.9999999
0.9999998
0.9999998
1
1
0.9999993
0.9999668
0.9988427
0.9766368
0.9214978
0.9559648
0.9937721
0.9884063
0.9229074
0.9072244
0.9409083
0.9915616
0.989
0.9433047
0.5824846
0.1409942
0.1248748
0.1248748
0.1248748
0.141632
0.625979
0.8517369
0.4398429
0.2328256
0.2328256
0.2328256
0.267086
0.7350922
0.977176
0.9988398
0.9990971
0.9992466
0.9997624
0.9999514
0.9999484
0.9997694
0.9969521
0.9432623
0.7381863
0.7905326
0.9277799
0.9908858
0.9997057
0.9998919
0.999628
0.9979525
0.9976007
0.9986754
0.9996588
0.9999019
0.9999788
0.9999981
0.9999999
1
1
1
1
0.9999999
0.9999999
0.9999999
1
1
1
1
1
1
0.9999999
0.9999999
0.9999999
0.9999999
0.9999993
0.9999865
0.999842
0.9993067
0.9988202
0.9989075
0.9993878
0.9999079
0.9998892
0.9990652
0.9942794
0.9952672
0.9985691
0.9998756
0.9999977
1
1
1
0.9999997
0.9999989
0.9999993
0.9999998
1
1
1
0.9999993
0.9999837
0.9998725
0.9998899
0.999966
0.999997
0.9999999
1
1
1
0.9999999
1
1
0.9999999
0.9999992
0.9999884
0.9998606
0.9991745
0.9979359
0.998496
0.9995914
0.9999651
0.9999984
0.9999981
0.9999879
0.9999151
0.9996665
0.9994019
0.9995825
0.9998931
0.9999918
0.9999996
0.9999995
0.9999987
0.9999986
0.9999991
0.9999994
0.9999976
0.9999961
0.9999964
0.9999987
0.9999996
0.9999995
0.9999988
0.9999951
0.9999751
0.9998331
0.9984113
0.9912949
0.9893029
0.9920344
0.997953
0.9998481
0.9999952
0.9999959
0.999977
0.9997127
0.9971174
0.9791007
0.9616123
0.9796339
0.996516
0.9998464
0.9999683
0.9999483
0.9997977
0.9990065
0.995607
0.9770994
0.9720245
0.9720245
0.9823193
0.9966326
0.9998465
0.9999803
0.999914
0.9988778
0.9950057
0.9925758
0.9936011
0.9977596
0.9977402
0.9830817
0.9513823
0.9572191
0.9829067
0.9977148
0.9996736
0.9990712
0.9880907
0.9335864
0.9355635
0.9762208
0.9975667
0.9998845
0.9998927
0.999302
0.9989697
0.9992122
0.999775
0.9999781
0.9999975
0.9999954
0.9999441
0.999065
0.991055
0.9854482
0.991684
0.9983873
0.9999058
0.9999927
0.9999585
0.9999171
0.999936
0.9999809
0.9999974
0.9999996
0.9999999
1
0.9999999
0.9999999
0.9999999
1
1
1
1
1
1
1
1
0.9999998
0.9999984
0.9999961
0.9999974
0.9999994
1
1
1
1
1
1
1
1
1
1
1
1
1
1
1
1
1
1
1
1
1
1
1
1
1
1
1
1
1
1
1
1
1
1
1
1
1
1
1
1
1
1
1
1
1
1
1
1
1
1
1
1
1
1
1
1
1
1
1
1
1
1
1
1
1
1
1
0.9999999
1
1
1
1
0.9999999
1
1
1
1
0.9999999
1
1
1
1
1
1
1
1
0.9999999
1
1
1
1
1
1
0.9999999
1
1
1
1
1
1
1
1
1
1
1
1
1
1
1
1
1
1
1
1
1
1
1
1
1
1
1
1
1
1
1
1
1
1
1
1
1
1
1
1
1
1
1
1
1
1
1
1
1
1
1
1
1
1
1
1
1
1
1
1
1
1
1
1
1
1
1
1
1
0.9999999
0.9999993
0.9999968
0.9999859
0.9999518
0.9998711
0.9997623
0.9996897
0.9995627
0.9990321
0.9975769
0.9967064
0.9968649
0.9975849
0.9983011
0.9983653
0.9981279
0.9977922
0.9978209
0.9982112
0.9986605
0.9984495
0.9974484
0.9973645
0.9971413
0.9915659
0.9647995
0.8210892
0.7302892
0.7682084
0.9287185
0.9652952
0.8998217
0.8194839
0.6976752
0.3339826
0.1935481
0.3743929
0.8033358
0.9593551
0.9511082
0.8861827
0.850056
0.8950127
0.9768516
0.9985845
0.9997614
0.9997248
0.999116
0.9983068
0.9990682
0.9998432
0.9999876
0.9999881
0.9999918
0.9999916
0.9999469
0.9971246
0.9748713
0.9463577
0.9648629
0.9826832
0.9662073
0.8677956
0.5739989
0.1796036
0.0548839
0.06449227
0.1692192
0.5627595
0.9007084
0.9877658
0.9992703
0.9995154
0.9954126
0.9868127
0.9887391
0.9961592
0.999543
0.9999366
0.9999692
0.9999867
0.9999865
0.9999849
0.99998
0.9999657
0.9998909
0.9989808
0.9883871
0.925722
0.5924478
0.1356176
0.01958904
0.01827485
0.01827343
0.01827189
0.01827343
0.01827485
0.01827619
0.0182775
0.01827885
0.01828005
0.01828127
0.04174715
0.2892416
0.797535
0.9807066
0.9994392
0.9999882
0.9999743
0.9997236
0.9971428
0.9668512
0.8388056
0.8190962
0.8441918
0.9571103
0.9971378
0.9999675
0.9999998
0.9999998
0.9999993
0.9999995
0.9999999
1
0.9999999
0.9999927
0.9996048
0.9848494
0.9094704
0.9155068
0.9715759
0.995521
0.9871136
0.9188338
0.9343185
0.9832703
0.9957052
0.9801641
0.7354895
0.6411576
0.7357337
0.6913526
0.4828449
0.4678523
0.6836701
0.9313106
0.9923524
0.990538
0.9606212
0.8810775
0.8627915
0.9045454
0.9692841
0.980658
0.9828363
0.9929385
0.998997
0.9999397
0.9999514
0.9999386
0.9995659
0.9947305
0.9705891
0.9577061
0.9723154
0.9937682
0.9963109
0.9930606
0.9859197
0.9898814
0.9967509
0.9993205
0.9998146
0.9999644
0.9999947
0.999999
0.9999998
1
1
1
0.9999999
0.9999997
0.9999997
0.9999998
1
1
1
1
1
0.9999999
0.9999992
0.9999957
0.9999815
0.9999523
0.9999469
0.9999596
0.9999535
0.9995108
0.9934955
0.9854622
0.9889481
0.996856
0.9998035
0.9997238
0.9968776
0.9934113
0.9934113
0.996497
0.9994613
0.9999808
0.9999999
1
1
0.9999999
0.9999998
0.9999999
1
1
0.9999999
0.9999998
0.9999979
0.9999597
0.9998559
0.999854
0.9999303
0.99999
0.9999996
1
0.9999999
0.9999998
0.9999998
0.9999998
0.9999996
0.9999971
0.9999745
0.9997598
0.9978527
0.9936669
0.9958183
0.9988435
0.9999006
0.9999967
0.9999978
0.9999795
0.9997865
0.9983849
0.9968681
0.9982247
0.9996506
0.9999815
0.999999
0.9999987
0.9999944
0.9999768
0.9999749
0.9999817
0.9999958
0.9999995
0.9999995
0.9999995
0.9999993
0.9999978
0.9999899
0.9999492
0.9996646
0.9966988
0.9824664
0.9790947
0.9849854
0.9961981
0.9996186
0.9999824
0.9999962
0.9999962
0.9999914
0.9998462
0.9966922
0.9468788
0.882593
0.9227616
0.9820545
0.9986672
0.9996576
0.9991147
0.9975735
0.9943375
0.9785445
0.9720245
0.9720245
0.9795715
0.9937767
0.9992955
0.9999643
0.9999803
0.9999803
0.9999795
0.9999749
0.9999603
0.9999445
0.9999442
0.9999042
0.9983042
0.9658025
0.9509689
0.9803472
0.9971628
0.9993082
0.9986825
0.9858935
0.8953623
0.8665529
0.8867134
0.9682984
0.997542
0.9998046
0.9990532
0.9987904
0.9992064
0.9998171
0.9999871
0.9999975
0.9999975
0.9999904
0.9997945
0.9953309
0.9854691
0.9854482
0.9924538
0.9988654
0.9999567
0.9999927
0.999979
0.9999604
0.9999736
0.9999936
0.9999987
0.9999983
0.9999965
0.9999973
0.999999
0.9999999
1
1
1
1
1
1
1
0.9999998
0.9999989
0.9999927
0.9999841
0.9999905
0.999998
0.9999999
1
1
1
1
1
0.9999999
0.9999999
1
1
1
1
1
1
1
1
1
1
1
1
1
1
1
1
1
1
1
1
1
1
1
1
1
1
1
1
1
1
1
1
1
1
1
1
1
1
1
1
1
1
1
1
1
1
1
1
1
1
1
1
1
1
1
1
1
1
1
1
1
1
1
1
1
1
0.9999999
0.9999999
1
1
1
1
0.9999999
1
1
1
1
1
1
1
1
1
1
1
1
1
1
1
1
1
1
1
1
1
1
1
1
0.9999999
0.9999999
0.9999999
1
1
0.9999999
0.9999999
1
1
1
1
1
1
1
1
1
1
1
1
1
1
1
1
1
1
1
1
1
1
1
1
1
1
1
1
1
1
1
1
1
1
1
1
1
1
1
1
1
1
1
1
1
1
1
1
1
1
1
1
1
1
1
1
1
1
1
1
1
0.9999999
0.9999993
0.9999955
0.999978
0.9999207
0.9997477
0.9991971
0.9974885
0.993284
0.9858444
0.9788496
0.9778056
0.9757168
0.9587134
0.913667
0.9015991
0.9177732
0.9501155
0.9570675
0.9516412
0.9348714
0.930509
0.9452283
0.9736038
0.9819234
0.9757168
0.96107
0.9660495
0.9661709
0.8176671
0.5975803
0.6833957
0.919858
0.9582965
0.9316343
0.8864981
0.5392896
0.1075146
0.07127991
0.07127223
0.07123028
0.07772785
0.1851214
0.3042783
0.2544316
0.1451783
0.2653541
0.7749229
0.9806848
0.9951761
0.994783
0.9918975
0.9917959
0.9969827
0.9996452
0.9999398
0.9999073
0.9998856
0.9999544
0.9999682
0.9995587
0.9628526
0.9426175
0.9716614
0.9816844
0.9616232
0.7125879
0.190859
0.02337578
0.02131126
0.02131626
0.02131441
0.02400889
0.1809832
0.7520166
0.9794258
0.9992938
0.9995972
0.9954895
0.9868127
0.9909638
0.9978527
0.9998266
0.999985
0.9999854
0.9999855
0.9999839
0.9999695
0.9998936
0.9994941
0.9969381
0.9730436
0.7412536
0.1976771
0.0207854
0.01831559
0.0207905
0.02443683
0.02111129
0.01827036
0.01827189
0.01853458
0.0204868
0.02133241
0.02234019
0.02793208
0.03547682
0.03241138
0.03178375
0.1035678
0.6228611
0.9607507
0.999064
0.9999254
0.9991452
0.9769683
0.8367803
0.8190962
0.8198438
0.9206008
0.9874676
0.999468
0.9999963
0.9999998
0.9999995
0.9999993
0.9999996
1
1
0.9999991
0.9999502
0.9974209
0.9444204
0.9054617
0.9290916
0.9840027
0.995521
0.9877461
0.9796002
0.9849604
0.9947435
0.9970103
0.9946098
0.9942332
0.9943002
0.9951733
0.9972827
0.9989393
0.9990843
0.9982322
0.9975045
0.9971696
0.9960973
0.9945986
0.9921041
0.9800029
0.8943672
0.774027
0.8499296
0.9673056
0.9980159
0.9996169
0.9992534
0.9991176
0.9988478
0.9981277
0.9960926
0.9929228
0.989664
0.976499
0.9127333
0.8638617
0.9313965
0.9874081
0.9982878
0.9996354
0.9998622
0.9999383
0.999976
0.9999906
0.9999979
0.9999998
1
1
0.9999998
0.9999993
0.9999995
0.9999999
1
1
1
1
0.9999997
0.9999982
0.9999873
0.9999014
0.9989487
0.9833386
0.958625
0.9645685
0.9875937
0.9990068
0.9979987
0.9875888
0.9854622
0.9898937
0.9978757
0.9997926
0.9990942
0.9943835
0.9934113
0.9934113
0.9964351
0.9994776
0.9999835
0.9999999
1
1
1
0.9999999
0.9999999
0.9999996
0.999996
0.9999412
0.9998675
0.9998823
0.9999542
0.9999927
0.9999995
0.9999998
0.9999998
0.9999998
0.9999994
0.9999981
0.9999955
0.9999948
0.9999957
0.9999907
0.9999316
0.9993976
0.9955314
0.9930819
0.993507
0.9972279
0.9996032
0.9999863
0.999998
0.9999938
0.9998803
0.9979217
0.9954019
0.9954853
0.9981496
0.9997584
0.9999885
0.9999935
0.9999706
0.9999762
0.9999902
0.9999983
0.9999988
0.9999988
0.9999988
0.9999985
0.999996
0.9999808
0.9998918
0.9991524
0.9906855
0.9633236
0.9608501
0.977559
0.9953733
0.999437
0.9999104
0.999941
0.9999413
0.9999247