/*--------------------------------*- C++ -*----------------------------------*\
| =========                 |                                                 |
| \\      /  F ield         | foam-extend: Open Source CFD                    |
|  \\    /   O peration     | Version:     3.1                                |
|   \\  /    A nd           | Web:         http://www.extend-project.de       |
|    \\/     M anipulation  |                                                 |
\*---------------------------------------------------------------------------*/
FoamFile
{
    version     2.0;
    format      ascii;
    class       volScalarField;
    location    "15.5";
    object      omega;
}
// * * * * * * * * * * * * * * * * * * * * * * * * * * * * * * * * * * * * * //

dimensions      [0 0 -1 0 0 0 0];

internalField   nonuniform List<scalar> 
119952
(
282.9167
354.9349
342.4673
309.3268
288.1377
298.8685
312.5755
327.7853
343.8989
360.2692
376.3513
391.8123
406.3772
419.7947
432.1005
443.427
453.7856
462.8702
470.2551
475.8808
385.0174
358.7951
299.2838
258.9637
261.4327
263.0315
257.267
239.7715
223.7979
156.347
660.4777
536.1469
444.9625
382.4429
338.2486
305.9969
281.7101
262.894
247.8112
230.7158
189.3032
160.8409
141.7514
128.1979
118.2028
110.6467
104.8456
100.3116
96.7159
76.22492
74.02764
72.26653
71.04631
70.35951
70.15206
70.32612
70.71963
71.74096
74.22495
77.30194
79.72114
80.51559
79.83579
77.4424
72.94514
66.99279
60.62078
54.57012
50.0562
46.28947
42.97648
40.42632
38.53164
37.14693
36.12455
35.39954
34.91467
34.6172
34.46749
34.4393
34.51455
34.69025
34.98881
35.4765
36.20877
37.17749
38.46618
40.25791
43.10457
49.33691
58.70799
67.15079
75.84581
84.72822
92.74956
98.3008
98.74174
94.129
84.88789
74.20482
64.57896
56.71614
50.52055
45.63162
41.69979
38.51461
35.95175
33.9151
32.31672
31.08193
30.15158
29.48063
29.03394
28.78212
28.69683
28.74815
28.90967
29.15966
29.46033
29.78398
30.11546
30.44583
30.76288
31.06442
31.36148
31.68347
32.05975
32.51771
33.12093
33.88919
34.61793
35.17794
35.52536
35.70737
35.81263
35.93395
36.13791
36.46234
36.92569
37.5283
38.24264
39.00681
39.75135
40.47939
41.373
42.96816
46.35795
53.55678
64.10608
73.989
83.10287
90.78217
95.88751
97.54238
95.71822
91.18514
85.12858
78.69323
72.61644
67.20848
62.53966
58.57035
55.18953
52.29017
49.79272
47.63446
45.77289
44.18283
42.84528
41.74699
40.87861
40.2464
39.86812
39.78552
40.14046
41.20416
43.47064
47.97888
54.36662
59.32813
62.03601
63.92049
65.38396
66.54167
67.42443
67.9717
68.00277
67.32187
65.84131
63.62156
60.87211
57.90456
55.02531
52.42538
50.16801
48.22753
46.44102
48.46512
51.8271
53.53081
54.30145
54.57543
54.60828
54.53347
54.44257
54.40396
54.44452
54.58134
54.82572
55.18237
55.64916
56.22213
56.89999
57.68325
58.57228
59.56772
60.67214
61.89119
63.23196
64.7008
66.30031
68.00931
69.84328
71.81919
73.93973
76.20158
78.59551
81.10517
83.706
86.36536
89.03525
91.57618
92.58327
91.93987
91.32337
90.62956
89.83654
88.92715
87.89479
86.73695
85.46975
84.11396
82.68669
81.2011
79.67303
78.1229
76.57256
75.04285
73.5503
72.10801
70.72871
69.42526
68.20797
67.05185
65.94266
64.89468
63.90862
62.98057
62.10703
61.28673
60.51277
59.77505
59.05676
58.33531
57.59617
56.82769
56.01869
43.30544
42.3609
41.31683
40.19046
39.08712
38.06712
37.16261
36.38919
35.75058
35.24478
34.86892
34.62125
34.50272
34.51832
34.67061
34.96073
35.38572
35.94616
36.70186
37.82735
39.36175
41.43188
44.09163
47.15343
50.01671
52.05758
53.22697
53.90327
54.03683
53.61666
52.76965
51.70161
50.62955
49.72866
49.18832
49.27622
50.32153
51.74907
52.80272
53.38997
53.75902
53.91324
53.72707
53.13218
52.10977
50.63056
48.69608
46.40014
43.86213
41.16679
38.42539
35.82657
33.49784
31.51067
29.85447
28.32582
26.99748
25.79909
24.69033
23.65923
22.70874
21.84633
21.07789
20.40705
19.83464
19.33844
18.89681
18.50236
18.15366
17.84633
17.57599
17.33914
17.13277
16.95414
16.80073
16.67036
16.56118
16.47158
16.39989
16.34422
16.30248
16.27253
16.25232
16.23984
16.23318
16.23052
16.23017
16.23066
16.23068
16.22912
16.22497
16.21742
16.20577
16.18963
16.16929
16.14525
16.11778
16.08715
16.05365
16.01751
15.97887
15.9378
15.89445
15.84887
15.80103
15.75088
15.69895
15.64596
15.59235
15.53848
15.48468
15.43125
15.37842
15.32639
15.27533
15.22537
15.17665
15.12922
15.08313
15.0384
14.99504
14.95304
14.91239
14.87303
14.83491
14.79797
14.7621
14.72718
14.693
14.65925
14.62547
14.59092
14.55434
14.51342
14.46328
14.39236
14.27292
14.06311
14.21057
774.8439
629.7856
551.6128
498.8128
457.1252
421.6652
390.7308
363.5611
338.5765
283.6165
226.3474
191.5751
169.1743
153.8616
142.7037
134.1109
127.1715
121.3297
95.70833
91.02978
86.60569
82.64087
79.24286
76.41102
74.08474
72.18088
70.5992
69.26773
68.18916
67.18222
66.15354
65.09924
64.02389
62.94643
61.86807
60.77076
59.64206
58.73856
57.88107
56.66979
55.16668
53.34732
51.27699
49.05075
46.76932
44.52592
42.40498
40.47428
38.77099
37.32476
36.14019
35.20648
34.4991
33.97998
33.60635
33.34623
31.24262
31.19669
31.2299
31.35309
31.56397
31.86193
32.33278
32.98387
33.81136
34.78345
35.82072
36.75823
37.4319
37.72268
37.57571
37.01546
36.14662
35.02114
33.64058
32.08072
30.4747
28.97039
27.66195
26.59346
25.76969
25.16699
24.747
24.46424
24.2753
24.14373
24.04131
23.95067
23.86688
23.79659
23.76072
23.79261
23.91508
24.16154
24.59906
25.34907
26.55394
28.20347
30.34514
33.09234
36.59169
40.87481
45.56902
49.98325
53.29878
55.12409
55.3762
54.12417
51.57531
48.06455
44.01334
39.83637
35.86373
32.30645
29.2606
26.72849
24.67163
23.03795
21.77377
20.82743
20.14936
19.69118
19.40549
19.24719
19.17669
19.16727
19.19977
19.25324
19.30228
19.32296
19.30134
19.23941
19.15096
19.05465
18.96972
18.91185
18.89207
18.89664
18.89873
18.88791
18.86581
18.84427
18.83836
18.8584
18.90898
18.99111
19.10328
19.24181
19.39723
19.55891
19.73328
19.96742
20.36657
21.08679
22.2341
23.86884
25.92917
28.34898
30.92683
33.38545
35.48954
37.11002
38.17273
38.64337
38.54583
37.95402
36.96676
35.6913
34.22737
32.65796
31.04824
29.4471
27.88996
26.40203
25.00152
23.70208
22.51327
21.44365
20.50036
19.6907
19.02923
18.53706
18.24475
18.19736
18.40339
18.75831
19.16948
19.66405
20.2998
21.12122
22.15629
23.40784
24.84437
26.39392
27.94599
29.3649
30.517
31.31155
31.70743
31.70899
31.3358
30.64765
29.70554
28.60064
28.15764
27.0999
25.9646
24.83935
23.777
22.79643
21.89971
21.08742
20.35475
19.6955
19.10304
18.57076
18.09229
17.6617
17.27371
16.92376
16.60799
16.32318
16.06665
15.83629
15.63039
15.44767
15.28721
15.14849
15.03122
14.9352
14.86022
14.80628
14.77368
14.76309
14.77539
14.81075
14.86721
14.94001
15.02087
15.09992
15.17436
15.24726
15.31503
15.37242
15.41457
15.43714
15.43672
15.41135
15.36027
15.28363
15.18258
15.05941
14.9177
14.762
14.59736
14.42885
14.26123
14.09898
13.94603
13.80547
13.67926
13.56828
13.4726
13.39172
13.32481
13.2709
13.22886
13.19727
13.17398
13.15603
13.13977
13.12147
13.09798
13.0688
11.71673
11.65918
11.61332
11.57834
11.55377
11.53896
11.53316
11.53548
11.54516
11.56189
11.58593
11.6182
11.66041
11.71515
11.78567
11.87594
11.9922
12.14828
12.35932
12.63657
12.99369
13.44222
13.98285
14.59354
15.23367
15.86907
16.47648
17.02493
17.48067
17.82051
18.04201
18.16604
18.22662
18.26522
18.3348
18.49187
18.75191
19.09221
19.51622
20.06231
20.76352
21.6276
22.63914
23.75973
24.92552
26.05828
27.08251
27.92919
28.5331
28.84766
28.86069
28.57765
27.99781
27.13176
26.02013
24.72494
23.3324
21.92402
20.56076
19.28216
18.11047
17.05418
16.1115
15.27485
14.53429
13.87926
13.29971
12.78657
12.33055
11.92351
11.5583
11.22903
10.93149
10.66272
10.42066
10.20378
10.01086
9.840779
9.692349
9.564333
9.455437
9.364328
9.289598
9.229726
9.183067
9.147881
9.122378
9.104743
9.09316
9.08582
9.080972
9.077171
9.074047
9.071292
9.067998
9.062907
9.055248
9.044575
9.030682
9.013558
8.993352
8.970325
8.944834
8.917346
8.888458
8.858894
8.828679
8.797185
8.763982
8.729782
8.695247
8.660834
8.626857
8.593529
8.560995
8.529347
8.49863
8.468848
8.439969
8.411937
8.384671
8.358072
8.332031
8.306431
8.281153
8.256074
8.231067
8.205999
8.180716
8.15503
8.128693
8.101332
8.072386
8.040885
8.005455
7.964314
7.917726
7.873084
7.843347
588.8012
522.2006
467.729
427.6968
397.3497
374.0684
356.2799
343.6033
336.0842
325.9766
174.9295
163.1298
153.1936
145.4743
141.7151
138.1337
134.8047
131.9678
129.0908
84.40749
82.35863
81.62913
80.9631
80.27575
79.55493
78.80336
78.01138
77.1284
76.07744
74.12095
71.89319
69.94526
68.36688
67.06917
65.94831
64.93063
63.97187
63.03335
63.09123
62.4273
61.40916
60.24062
59.03212
57.83743
56.67818
55.55907
54.47733
53.43085
52.3982
51.36086
50.3133
49.26191
48.22404
47.22098
46.27278
45.39851
41.86183
41.32152
40.8696
40.48679
40.15827
39.87035
39.61132
39.37238
39.14881
38.93694
38.73289
38.52127
38.28963
38.06053
37.84501
37.63721
37.43041
37.2117
36.95805
36.64057
36.22747
35.68945
35.02323
34.24756
33.40268
32.50052
31.54153
30.57148
29.643
28.80951
28.11763
27.60197
27.27549
27.12511
27.10965
27.16843
27.24005
27.27266
27.29279
27.25812
27.2008
27.15393
27.14919
27.23471
27.4098
27.67012
28.01702
28.44756
28.9355
29.42249
29.8316
30.0844
30.11732
29.89629
29.42054
28.72819
27.90198
26.99187
26.05183
25.16577
24.40416
23.81128
23.39827
23.14859
23.02849
22.99461
23.00169
23.00823
22.9823
22.90647
22.77968
22.61437
22.43708
22.28814
22.18653
22.15192
22.21308
22.41306
22.80544
23.42651
24.32008
25.56092
27.24955
29.45901
32.10927
34.93593
37.54754
39.576
40.8466
41.32335
41.01549
39.95511
38.22706
35.98893
33.45112
30.81916
28.24919
25.88169
23.81417
22.08856
20.7088
19.6541
18.88927
18.37139
18.0524
17.88158
17.81294
17.81319
17.85914
17.92845
17.98795
17.99895
17.939
17.81248
17.64102
17.45051
17.26611
17.10936
16.99309
16.91763
16.86345
16.81729
16.77416
16.73881
16.71883
16.71754
16.73293
16.76194
16.80188
16.85007
16.90321
16.9544
17.00149
17.064
17.18963
17.44733
17.8949
18.57674
19.5049
20.65176
21.94533
23.27905
24.54444
25.64974
26.51849
27.09811
27.37405
27.35896
27.08243
26.58593
25.91552
25.11582
24.22685
23.28261
22.31091
21.33432
20.37165
19.43882
18.54934
17.71497
16.94633
16.25315
15.64424
15.12828
14.71598
14.41809
14.23214
14.13851
14.12577
14.2016
14.3801
14.67778
15.11117
15.69229
16.42331
17.29019
18.25759
19.26692
20.24751
21.13346
21.87802
22.45012
22.83428
23.0169
23.00148
22.79746
22.47978
21.98472
21.35903
20.65029
19.89678
19.12802
18.36214
17.60957
16.88719
16.20586
15.57089
14.98382
14.44368
13.9481
13.49398
13.07796
12.69673
12.34719
12.02649
11.7321
11.46173
11.2134
10.98535
10.77612
10.58442
10.4092
10.24958
10.10479
9.97413
9.856954
9.752581
9.660343
9.579413
9.50886
9.447688
9.395062
9.350553
9.313701
9.283464
9.258373
9.236747
9.216837
9.196961
9.175605
9.151484
9.123627
9.091457
9.054847
9.014107
8.969908
8.923191
8.875102
8.826901
8.779869
8.735226
8.694041
8.657185
8.625279
8.598698
8.577631
8.562173
8.552393
8.548352
8.550056
8.557318
8.569626
8.586064
8.605437
8.626484
8.646589
8.693121
8.735905
8.775899
8.81398
8.850691
8.886361
8.921191
8.955132
8.987942
9.019159
9.048493
9.076166
9.103119
9.131226
9.163528
9.204104
9.258171
9.334321
9.439674
9.579998
9.761793
9.98978
10.26429
10.57954
10.92482
11.28753
11.65306
12.00224
12.31254
12.56428
12.74754
12.86456
12.92722
12.95486
12.97356
13.01058
13.08398
13.20335
13.38226
13.64081
13.99737
14.46414
15.04567
15.73484
16.50848
17.33209
18.17291
18.99914
19.7782
20.48165
21.09644
21.61873
22.04057
22.33799
22.48256
22.44913
22.22082
21.79211
21.17641
20.40715
19.533
18.60678
17.67419
16.76947
15.91497
15.12147
14.39059
13.71955
13.10402
12.53943
12.02273
11.55161
11.12208
10.72907
10.36952
10.0414
9.742985
9.472728
9.229132
9.010786
8.816378
8.644647
8.494301
8.363932
8.251997
8.156866
8.076865
8.010277
7.955339
7.910306
7.873695
7.844271
7.820013
7.799132
7.780151
7.761852
7.743274
7.723713
7.7027
7.679969
7.655428
7.629133
7.601263
7.572095
7.541983
7.511333
7.480587
7.450256
7.420811
7.391575
7.362499
7.333823
7.305717
7.278287
7.251587
7.225631
7.200392
7.175812
7.151806
7.128268
7.105072
7.082083
7.059162
7.036167
7.012961
6.989415
6.9654
6.940797
6.915479
6.889311
6.862121
6.833695
6.803717
6.771808
6.737466
6.700511
6.661275
6.622633
6.589462
340.5326
248.0141
351.963
159.342
124.8077
91.34531
79.1664
68.88491
60.46625
56.39039
54.72755
53.84128
53.07227
52.5033
51.94014
51.45536
51.11207
50.94314
50.83986
50.76871
50.7214
50.72117
51.01302
51.52809
52.11698
52.76561
53.44844
54.1645
54.86182
55.5131
56.00471
54.81986
55.09378
55.29599
55.41021
55.42473
55.34035
55.15996
54.88922
54.53453
54.10936
53.60502
53.02442
52.36665
51.66076
50.93428
50.19999
49.46724
48.74338
48.03332
47.34353
46.6739
46.01743
45.36777
44.71892
44.06636
43.40767
42.74184
42.06871
41.39078
40.71191
40.03733
39.37591
38.73963
38.14167
37.59392
37.10875
36.68876
36.38423
36.13845
35.94565
35.79122
35.65319
35.50866
35.34152
35.14651
34.92874
34.6975
34.45797
34.22386
34.00655
33.7997
33.60191
33.41509
33.23824
33.0614
32.86321
32.6155
32.28948
31.86388
31.3311
30.69629
29.97789
29.21251
28.44154
27.68879
27.00203
26.43444
26.03715
25.84992
25.88898
26.12793
26.49384
26.88372
27.19576
27.35932
27.35235
27.20211
26.96184
26.69327
26.45907
26.27591
26.14439
26.0684
26.05603
26.113
26.23412
26.39696
26.56108
26.67532
26.68655
26.55295
26.25391
25.79707
25.22116
24.59392
23.98554
23.45914
23.06952
22.84867
22.80175
22.90932
23.13389
23.42265
23.71433
23.94841
24.07414
24.06489
23.92045
23.66112
23.33628
23.00092
22.67637
22.38343
22.14266
21.97766
21.92079
22.00392
22.25453
22.70935
23.42586
24.46094
25.82529
27.4464
29.15414
30.73131
31.99427
32.83332
33.19608
33.06132
32.43287
31.34686
29.88186
28.15726
26.31982
24.48776
22.7666
21.25586
20.01101
19.0481
18.35583
17.90646
17.65957
17.5661
17.57918
17.66488
17.79984
17.95308
18.07538
18.11556
18.04985
17.89291
17.6789
17.44101
17.21126
17.02091
16.88825
16.80689
16.75127
16.70154
16.65187
16.60976
16.58825
16.58873
16.5981
16.60466
16.60199
16.58933
16.5691
16.53653
16.48345
16.41684
16.3677
16.38415
16.5121
16.78339
17.20964
17.77507
18.44352
19.16568
19.88871
20.56052
21.13432
21.57331
21.85208
21.95746
21.89032
21.66451
21.30219
20.82892
20.27071
19.65163
18.99247
18.31068
17.62098
16.93605
16.2672
15.62474
15.01811
14.45561
13.94427
13.49013
13.09851
12.7731
12.51398
12.31832
12.18436
12.11379
12.11106
12.18276
12.33676
12.58081
12.92036
13.35544
13.87685
14.46355
15.08385
15.70192
16.28456
16.80516
17.24175
17.57849
17.80207
17.90544
17.89066
17.76276
17.52959
17.20267
16.80055
16.34565
15.8607
15.36343
14.85658
14.35072
13.85714
13.38353
12.93466
12.51293
12.1191
11.75278
11.41291
11.09802
10.80652
10.5367
10.28692
10.0556
9.841302
9.642742
9.458789
9.28859
9.131325
8.986276
8.852751
8.730077
8.617627
8.514916
8.421393
8.336602
8.260144
8.191654
8.130874
8.077554
8.031256
7.991335
7.956981
7.927279
7.901274
7.878012
7.856578
7.836204
7.816293
7.796472
7.776592
7.7567
7.737004
7.717821
7.699542
7.682596
7.667425
7.654424
7.64398
7.636399
7.631902
7.630635
7.632739
7.638449
7.648207
7.662671
7.682562
7.708445
7.740286
7.777304
7.81834
7.862128
7.908918
7.957291
8.005868
8.05334
8.098646
8.141153
8.180659
8.217022
8.249566
8.276953
8.297861
8.311702
8.318765
8.320511
8.320256
8.322914
8.333723
8.358448
8.401305
8.466798
8.559782
8.683315
8.83767
9.020696
9.228606
9.456294
9.696074
9.935378
10.15704
10.34397
10.48457
10.57539
10.62081
10.63126
10.62158
10.60856
10.60703
10.62856
10.68395
10.78494
10.94279
11.16648
11.46153
11.82867
12.26239
12.75241
13.28653
13.85082
14.43001
15.00951
15.5804
16.13864
16.68301
17.20838
17.70182
18.14412
18.51183
18.78078
18.93065
18.94915
18.83402
18.58901
18.22477
17.75903
17.21483
16.61704
15.98814
15.34613
14.70525
14.07639
13.46753
12.88375
12.32934
11.8082
11.32253
10.87334
10.45924
10.07862
9.729811
9.411206
9.121669
8.860071
8.62514
8.415437
8.229406
8.065418
7.921832
7.797005
7.689274
7.596861
7.517914
7.450381
7.39229
7.341816
7.297305
7.257303
7.220568
7.18608
7.153033
7.120825
7.089041
7.057429
7.025881
6.994403
6.963096
6.932132
6.901729
6.872131
6.843586
6.816354
6.79008
6.764613
6.73991
6.715924
6.692597
6.669847
6.647576
6.625668
6.603993
6.582406
6.560755
6.538886
6.516645
6.493886
6.470472
6.44628
6.421198
6.395125
6.367968
6.339637
6.310028
6.279036
6.246511
6.212354
6.176384
6.138838
6.099683
6.061019
6.025377
304.1661
204.6998
154.669
137.7306
111.9056
93.46231
80.19043
74.94408
69.12487
65.71705
62.79077
58.91331
55.08366
51.48565
48.22834
44.67597
39.10294
37.85161
36.94383
36.47126
36.38864
36.57529
36.88844
37.27366
37.73533
38.29631
38.92112
39.59576
40.31775
41.08739
41.90651
42.77861
43.70885
44.70185
45.74139
46.81722
47.92443
49.001
50.06857
50.99508
51.8418
52.49991
52.80252
52.98047
53.05531
53.01175
52.85423
52.59634
52.24644
51.81541
51.31049
50.74091
50.11419
49.44107
48.7421
48.04118
47.35754
46.69757
46.06123
45.44631
44.84982
44.26854
43.70029
43.14124
42.58537
42.02476
41.45293
40.86662
40.2651
39.64957
39.02409
38.39429
37.77057
37.16861
36.60561
36.09849
35.6647
35.31963
35.07266
34.92346
34.85947
34.85696
34.87548
34.86406
34.77768
34.59546
34.32681
33.99887
33.64415
33.29578
32.96752
32.65799
32.36347
32.08439
31.82658
31.59456
31.38192
31.1673
30.92054
30.61182
30.22047
29.73816
29.16864
28.528
27.84495
27.16407
26.53431
26.01255
25.66752
25.57083
25.77788
26.29337
27.04407
27.88829
28.65717
29.20124
29.43425
29.35518
29.0274
28.5435
28.01585
27.51278
27.04191
26.6076
26.21723
25.88518
25.62709
25.44991
25.34517
25.28808
25.24116
25.1627
25.0155
24.7766
24.44516
24.04755
23.63747
23.28989
23.07156
23.03267
23.20503
23.59337
24.18012
24.92236
25.73365
26.51101
27.15002
27.55748
27.6912
27.55599
27.1771
26.63499
25.99828
25.31772
24.638
23.99221
23.40723
22.91101
22.53175
22.29031
22.20628
22.30851
22.62968
23.19092
23.98389
24.94774
25.97156
26.92962
27.70406
28.20864
28.392
28.22625
27.70707
26.85993
25.74399
24.44858
23.08488
21.7522
20.54113
19.52632
18.74457
18.20279
17.88697
17.7642
17.78941
17.92178
18.13509
18.40544
18.68032
18.8892
18.97555
18.9227
18.763
18.54446
18.30106
18.06912
17.89387
17.79744
17.75107
17.71314
17.65472
17.57881
17.5141
17.49398
17.51284
17.53079
17.51992
17.47534
17.40296
17.3133
17.19773
17.03974
16.84057
16.62975
16.45511
16.36549
16.39447
16.54582
16.79506
17.11034
17.46625
17.84067
18.20869
18.54299
18.81637
19.00449
19.08966
19.06357
18.92718
18.68883
18.36236
17.96445
17.5122
17.02139
16.50572
15.9769
15.44518
14.91985
14.40958
13.92229
13.46502
13.04361
12.66255
12.32494
12.03253
11.78571
11.58372
11.42547
11.31066
11.24038
11.2171
11.2445
11.32684
11.46811
11.67065
11.93328
12.24953
12.60687
12.98804
13.37314
13.74227
14.07667
14.36066
14.58073
14.72852
14.7987
14.78917
14.70211
14.54294
14.32059
14.04693
13.7355
13.4005
13.05595
12.70393
12.35007
12.00133
11.66291
11.33838
11.0299
10.73858
10.4647
10.20802
9.967934
9.743595
9.534034
9.33838
9.155635
8.984854
8.825255
8.676306
8.537341
8.40779
8.287093
8.174722
8.070219
7.973222
7.883472
7.800795
7.725069
7.656195
7.594096
7.538703
7.489899
7.447477
7.411113
7.380377
7.354756
7.333687
7.316584
7.302897
7.292146
7.283963
7.278084
7.274333
7.272581
7.272711
7.274623
7.278243
7.283545
7.290575
7.299462
7.310387
7.323509
7.33889
7.356553
7.376705
7.399983
7.427652
7.46143
7.502914
7.552673
7.609773
7.672092
7.73715
7.802799
7.867273
7.928921
7.986254
8.038182
8.084302
8.124942
8.160491
8.190214
8.211907
8.223226
8.222885
8.210602
8.187583
8.157845
8.127922
8.10412
8.090874
8.090574
8.107732
8.147355
8.211532
8.299174
8.408118
8.53676
8.683943
8.846757
9.017073
9.1805
9.320451
9.424281
9.486951
9.51065
9.502597
9.473321
9.434859
9.398444
9.373241
9.366942
9.386988
9.440593
9.533741
9.670601
9.85292
10.07983
10.34842
10.65457
10.99333
11.35935
11.74773
12.15513
12.58054
13.02358
13.4813
13.94618
14.40627
14.84759
15.25688
15.61972
15.92372
16.16018
16.32232
16.40491
16.40582
16.32712
16.17454
15.95272
15.66597
15.3195
14.92055
14.47853
14.00404
13.50788
13.0008
12.49255
11.99213
11.50857
11.04842
10.61584
10.21274
9.839735
9.496889
9.183417
8.898117
8.639766
8.40721
8.198901
8.013131
7.848161
7.702357
7.574022
7.461371
7.362582
7.275844
7.199426
7.131715
7.071246
7.016732
6.967063
6.921316
6.878743
6.838763
6.800941
6.764973
6.730661
6.697892
6.666617
6.636827
6.608542
6.581789
6.556559
6.532537
6.509476
6.487166
6.465417
6.444051
6.422893
6.40177
6.380509
6.358939
6.336896
6.31422
6.290762
6.266389
6.240983
6.214446
6.186697
6.157674
6.127326
6.095616
6.06251
6.027983
5.992003
5.954601
5.915749
5.875755
5.834535
5.793765
5.755865
153.4825
113.427
174.2906
85.92085
73.67962
63.20714
60.07973
57.85917
55.39134
54.39903
53.09161
51.19452
49.41268
47.50467
45.25509
40.80502
39.77602
38.81472
37.89428
37.01814
36.14444
35.31599
34.58449
33.97748
33.51516
33.20097
32.95809
32.72633
32.66803
32.81242
33.14656
33.62343
34.18573
34.81962
35.52404
36.27483
37.06603
37.89752
38.77094
39.68908
40.65295
41.66646
42.74573
43.88699
45.04695
46.21339
47.33
48.2486
48.99929
49.565
49.95072
50.17357
50.20992
50.11249
49.88698
49.54658
49.11229
48.61088
48.05829
47.46693
46.85005
46.21586
45.60124
45.01882
44.48655
44.00441
43.56504
43.16367
42.78984
42.43087
42.07646
41.72073
41.36023
40.99174
40.60912
40.20326
39.76743
39.30124
38.80785
38.29283
37.7643
37.23224
36.71485
36.2389
35.83143
35.51837
35.32518
35.27146
35.36325
35.58703
35.90327
36.24497
36.52456
36.64674
36.54521
36.21647
35.71073
35.10187
34.47586
33.88235
33.33401
32.83135
32.36513
31.92949
31.52976
31.17634
30.86955
30.59034
30.3048
29.97785
29.58543
29.11863
28.58252
27.99436
27.38379
26.79668
26.30302
25.98872
25.95419
26.30184
27.08763
28.26027
29.6448
30.99722
32.0923
32.76951
32.96091
32.70332
32.10416
31.30274
30.4618
29.64968
28.8832
28.15228
27.45345
26.80583
26.23865
25.77238
25.40956
25.13484
24.91957
24.72964
24.53399
24.31344
24.06829
23.82307
23.62826
23.56225
23.70889
24.13826
24.91141
26.01322
27.38846
28.95805
30.56343
32.04217
33.24506
34.03249
34.36842
34.29085
33.81935
33.01196
31.93987
30.71824
29.43821
28.14529
26.90647
25.78235
24.81331
24.01008
23.37047
22.90405
22.63476
22.58554
22.76319
23.14457
23.67206
24.256
24.79659
25.21053
25.43636
25.43272
25.17709
24.66878
23.93335
23.02403
22.01858
21.01106
20.08304
19.30764
18.73088
18.37082
18.22036
18.24994
18.41973
18.69724
19.06585
19.49355
19.90111
20.20391
20.34801
20.3277
20.1975
20.01515
19.79925
19.58415
19.44389
19.40842
19.40711
19.36054
19.23947
19.07243
18.93685
18.89795
18.92946
18.93954
18.88636
18.78617
18.65556
18.49357
18.28611
18.01777
17.69084
17.33725
17.00697
16.75489
16.61888
16.59399
16.63861
16.72271
16.83827
16.97924
17.13426
17.28651
17.41578
17.50166
17.52688
17.48005
17.35685
17.15984
16.89676
16.5785
16.21709
15.82426
15.41062
14.98551
14.55732
14.1338
13.72219
13.32909
12.9602
12.61997
12.3113
12.03563
11.7932
11.58341
11.40486
11.25575
11.13468
11.04135
10.97675
10.94292
10.94255
10.97858
11.05364
11.16912
11.32407
11.51418
11.73142
11.96453
12.20052
12.42592
12.62814
12.796
12.9205
12.99468
13.01418
12.9778
12.88733
12.74718
12.56407
12.34631
12.10327
11.84498
11.58123
11.31429
11.04823
10.78689
10.53324
10.28938
10.05665
9.835762
9.626951
9.430111
9.244885
9.070679
8.906921
8.753053
8.608407
8.472463
8.344756
8.224823
8.112178
8.006341
7.906881
7.813469
7.725907
7.644117
7.568111
7.497934
7.433633
7.375274
7.322959
7.276809
7.236916
7.20329
7.175844
7.154391
7.138658
7.12831
7.122974
7.122287
7.125915
7.133549
7.14486
7.159446
7.176802
7.1964
7.217808
7.240711
7.265006
7.29085
7.318596
7.34855
7.380728
7.414888
7.450967
7.489552
7.532441
7.582581
7.642836
7.71416
7.794579
7.879955
7.965948
8.049411
8.128086
8.20018
8.26429
8.319546
8.36601
8.4048
8.437032
8.461826
8.475927
8.476127
8.460752
8.429055
8.381897
8.323746
8.262643
8.206204
8.158313
8.121739
8.102782
8.106923
8.134164
8.180255
8.241174
8.316242
8.407609
8.516654
8.638814
8.760773
8.86439
8.935135
8.968391
8.967243
8.938818
8.891903
8.835674
8.778498
8.727164
8.686987
8.662715
8.659212
8.680585
8.72969
8.807878
8.915112
9.050497
9.212825
9.400848
9.613368
9.849138
10.10723
10.38745
10.69008
11.01465
11.35835
11.71613
12.08091
12.44352
12.79299
13.11821
13.40906
13.65964
13.86634
14.02675
14.14083
14.21022
14.23571
14.21698
14.15329
14.04435
13.89109
13.69388
13.45306
13.17049
12.85011
12.4983
12.12327
11.73391
11.33886
10.94608
10.56228
10.19306
9.842967
9.514801
9.209601
8.927551
8.668625
8.432292
8.217671
8.0238
7.849523
7.69351
7.554304
7.43037
7.320155
7.222129
7.134828
7.056886
6.987054
6.924215
6.867389
6.815736
6.768546
6.725229
6.685302
6.648372
6.614113
6.582256
6.552566
6.524835
6.498882
6.474472
6.451214
6.428743
6.406743
6.384932
6.363059
6.340891
6.318221
6.294856
6.270626
6.245379
6.218985
6.191338
6.162357
6.131982
6.10018
6.066938
6.032261
5.99617
5.958697
5.919888
5.879796
5.83852
5.796122
5.752898
5.708801
5.665272
5.624987
62.66624
46.58382
45.14389
42.97148
42.05389
40.90785
39.98447
39.18185
38.4946
37.40225
34.73066
34.5457
34.36849
34.19969
34.0085
33.78526
33.56726
33.38488
33.24943
33.14821
32.94743
32.52716
32.1168
31.72448
31.35699
31.01816
30.72809
30.50466
30.35238
30.27275
30.26132
30.31004
30.43538
30.66393
31.00899
31.46689
32.0126
32.63456
33.33353
34.08681
34.88884
35.73862
36.63321
37.57792
38.58323
39.64349
40.75161
41.94172
43.19038
44.28589
45.25079
46.03866
46.61548
46.97321
47.11399
47.04492
46.79487
46.39018
45.87369
45.28254
44.65545
44.02157
43.40891
42.83729
42.31664
41.87975
41.52272
41.25225
41.0676
40.95039
40.88105
40.84601
40.83315
40.81958
40.78204
40.70768
40.5918
40.43417
40.23705
39.99811
39.7117
39.37599
38.99833
38.59308
38.17663
37.76471
37.37867
37.0521
36.82421
36.73069
36.80562
37.07962
37.56691
38.25699
39.09681
39.98555
40.7884
41.36389
41.57047
41.32505
40.66077
39.69677
38.5856
37.48999
36.45044
35.48924
34.6194
33.83415
33.11551
32.45692
31.86983
31.36409
30.92845
30.52866
30.12369
29.6838
29.1978
28.67182
28.12621
27.59585
27.13589
26.83337
26.8273
27.26221
28.26727
29.8484
31.79415
33.77693
35.46389
36.65252
37.25521
37.2617
36.74511
35.83926
34.7109
33.55505
32.46377
31.43851
30.43099
29.42597
28.46013
27.58262
26.82719
26.20605
25.71205
25.32487
25.01895
24.77128
24.56987
24.42127
24.35597
24.43481
24.76504
25.48574
26.68627
28.4232
30.58577
32.99297
35.46637
37.80636
39.85448
41.47741
42.49409
42.90795
42.83902
42.28138
41.22402
39.75135
38.02132
36.13606
34.1193
32.11604
30.23655
28.55464
27.07867
25.79376
24.70098
23.82177
23.1847
22.80978
22.69038
22.77961
22.99719
23.25607
23.48242
23.62109
23.63031
23.47951
23.15275
22.65469
22.01497
21.28803
20.54707
19.8698
19.32227
18.95497
18.79336
18.833
19.03847
19.36732
19.79845
20.32376
20.89639
21.4144
21.79538
22.00228
22.05196
22.01539
21.95065
21.83776
21.70037
21.63779
21.66448
21.6509
21.48581
21.18452
20.83692
20.56772
20.46193
20.44615
20.37731
20.23142
20.04383
19.8266
19.56828
19.25669
18.887
18.46688
18.02043
17.596
17.25075
17.01957
16.88335
16.79556
16.73328
16.69852
16.69152
16.7048
16.72559
16.73812
16.72678
16.67844
16.58363
16.4382
16.24303
16.0027
15.7243
15.41621
15.08699
14.74466
14.39659
14.04959
13.71002
13.3837
13.07565
12.78973
12.52836
12.29235
12.0811
11.89321
11.72685
11.57967
11.44912
11.3333
11.23171
11.14534
11.07618
11.0266
10.99911
10.99642
11.021
11.07454
11.15676
11.26441
11.39103
11.52795
11.66564
11.7948
11.90664
11.9932
12.0478
12.06553
12.04353
11.98117
11.88004
11.74371
11.57728
11.387
11.17991
10.96328
10.74328
10.52261
10.30437
10.09113
9.884841
9.686861
9.49805
9.318829
9.149279
8.989215
8.838255
8.695988
8.562034
8.435931
8.317276
8.205649
8.100565
8.001487
7.907905
7.819418
7.735775
7.656896
7.58284
7.513745
7.449745
7.390968
7.337592
7.2899
7.248248
7.213
7.184461
7.162839
7.148214
7.140514
7.139571
7.145106
7.156781
7.174234
7.197063
7.22476
7.256637
7.291826
7.329457
7.368821
7.409395
7.451177
7.494751
7.541074
7.590866
7.644052
7.69987
7.757164
7.815694
7.877568
7.947529
8.02985
8.124439
8.226612
8.330369
8.429556
8.52081
8.602619
8.674057
8.734488
8.783689
8.822363
8.852474
8.875575
8.890037
8.891559
8.876868
8.844852
8.794793
8.727142
8.646191
8.560007
8.475751
8.397782
8.331772
8.287103
8.268951
8.272856
8.289689
8.3137
8.346318
8.393621
8.461039
8.546999
8.637798
8.711347
8.751077
8.754366
8.727363
8.677849
8.613556
8.541706
8.468611
8.399311
8.337353
8.285603
8.247397
8.225841
8.223089
8.240143
8.276808
8.332364
8.406331
8.498681
8.609595
8.739185
8.887625
9.055352
9.243027
9.450778
9.677566
9.920965
10.17707
10.44059
10.70478
10.96229
11.20661
11.43267
11.63652
11.81517
11.96674
12.09021
12.18723
12.25927
12.30671
12.3297
12.32829
12.30135
12.24669
12.16209
12.04603
11.89845
11.72082
11.51489
11.28333
11.02992
10.75944
10.47747
10.18991
9.902346
9.619622
9.345678
9.083761
8.83625
8.604446
8.388927
8.189931
8.007272
7.840476
7.68888
7.551646
7.427807
7.316325
7.216131
7.126166
7.045405
6.972874
6.907669
6.848962
6.796004
6.748121
6.704706
6.665208
6.629126
6.595993
6.565372
6.536852
6.510065
6.484592
6.459942
6.435687
6.411453
6.386913
6.361787
6.335832
6.308845
6.280658
6.251138
6.220184
6.187729
6.153739
6.118209
6.08116
6.04264
6.002712
5.96146
5.918977
5.875372
5.830757
5.785282
5.739061
5.692374
5.645211
5.598893
5.556318
86.4746
36.15011
30.34625
29.10809
28.43166
28.11133
28.058
28.16074
28.3789
28.68056
28.92576
28.98045
29.03072
29.06566
29.08795
29.09339
29.09134
29.08455
29.06288
29.00744
28.89675
28.74441
28.6005
28.47277
28.36725
28.29108
28.25023
28.25239
28.29602
28.3792
28.5015
28.66781
28.88749
29.16903
29.52219
29.94928
30.46874
31.09427
31.80214
32.58678
33.44975
34.38935
35.37567
36.41924
37.56355
38.77503
39.98019
41.14678
42.21158
43.09285
43.75496
44.16956
44.32522
44.22186
43.88432
43.34627
42.66897
41.91205
41.12542
40.36711
39.69121
39.14082
38.74672
38.53902
38.49975
38.6118
38.84441
39.15688
39.53093
39.95326
40.40115
40.8565
41.28988
41.66135
41.94
42.1169
42.19927
42.20232
42.1348
41.99217
41.76798
41.47058
41.12581
40.76609
40.42042
40.12095
39.91984
39.87892
40.04178
40.43664
41.10225
42.06281
43.29962
44.75131
46.27731
47.71133
48.88238