/*--------------------------------*- C++ -*----------------------------------*\
| =========                 |                                                 |
| \\      /  F ield         | foam-extend: Open Source CFD                    |
|  \\    /   O peration     | Version:     3.1                                |
|   \\  /    A nd           | Web:         http://www.extend-project.de       |
|    \\/     M anipulation  |                                                 |
\*---------------------------------------------------------------------------*/
FoamFile
{
    version     2.0;
    format      ascii;
    class       volScalarField;
    location    "15.5";
    object      pd;
}
// * * * * * * * * * * * * * * * * * * * * * * * * * * * * * * * * * * * * * //

dimensions      [1 -1 -2 0 0 0 0];

internalField   nonuniform List<scalar> 
119952
(
6605.172
6093.092
6003.374
6082.873
6153.212
6091.076
6055.688
6030.622
6007.447
5985.265
5965.306
5948.147
5932.995
5923.867
5922.08
5930.154
5947.39
5973.468
6005.981
5989.915
6294.102
6266.931
6226.701
6250.784
6346.069
6408.486
6470.25
6523.554
6587.143
6950.089
4486.692
4568.037
4646.451
4730.096
4809.911
4885.109
4956.254
5024.311
5087.761
5140.325
5191.799
5240.509
5283.529
5317.204
5345.471
5366.688
5381.763
5392.637
5407.299
5411.229
5439.231
5454.365
5489.718
5539.308
5599.213
5663.748
5729.416
5791.805
5842.984
5867.184
5886.894
5906.017
5924.166
5945.086
5965.371
5983.987
6003.04
6040.371
6107.691
6048.558
6030.145
6063.656
6070.923
6055.734
6026.332
6001.94
5978.26
5955.768
5935.674
5918.967
5906.858
5901.779
5904.989
5917.557
5939.7
5970.787
6011.835
6066.026
6140.131
6215.034
6224.771
6257.615
6358.713
6424.903
6469.215
6494.077
6468.744
6382.122
6356.198
6357.401
6367.093
6390.324
6422.083
6456.747
6491.602
6523.596
6551.873
6576.582
6597.989
6616.571
6632.637
6646.367
6657.663
6665.949
6670.172
6668.833
6660.182
6642.269
6614.486
6576.861
6529.947
6474.539
6412.091
6344.563
6275.071
6206.911
6142.435
6084.785
6035.917
5996.919
5967.332
5945.435
5929.528
5919.144
5913.321
5910.859
5910.795
5912.239
5914.504
5917.251
5920.64
5925.566
5933.278
5944.936
5961.713
5984.075
6011.737
6055.521
6082.473
6084.724
6103.556
6127.383
6154.206
6184.682
6217.976
6250.909
6281.431
6310.737
6340.078
6369.907
6400.265
6430.664
6460.479
6489.363
6517.069
6543.441
6568.48
6592.082
6614.313
6635.199
6654.831
6673.199
6690.49
6706.828
6722.533
6737.523
6751.419
6763.16
6766.344
6762.617
6767.961
6780.696
6793.619
6805.534
6815.871
6824.43
6831.111
6836.204
6840.03
6843.055
6846.054
6849.913
6855.243
6861.887
6869.515
6877.4
6886.415
6898.24
6905.172
6914.255
6923.441
6932.973
6942.638
6952.53
6962.561
6972.64
6982.669
6992.562
7002.231
7011.6
7020.591
7029.137
7037.181
7044.673
7051.571
7057.837
7063.444
7068.365
7072.579
7076.067
7078.814
7080.788
7081.979
7082.365
7081.911
7080.579
7078.306
7075.002
7070.527
7064.582
7056.591
7045.017
7030.63
7037.414
7039.287
7039.195
7037.43
7035.016
7031.837
7028.243
7024.256
7020.002
7015.497
7010.803
7005.965
7001.024
6996.014
6990.965
6985.891
6980.81
6975.735
6970.673
6965.616
6960.516
6955.352
6950.115
6944.797
6939.387
6933.92
6928.349
6922.609
6916.837
6910.984
6905.13
6899.164
6893.158
6886.592
6896.731
6885.372
6868.06
6860.121
6852.986
6844.812
6836.625
6828.551
6820.543
6812.654
6805.022
6797.839
6791.343
6785.805
6781.433
6778.536
6777.378
6778.092
6780.633
6785.122
6791.523
6799.862
6808.78
6816.914
6823.957
6831.644
6842.168
6854.741
6866.647
6878.013
6889.004
6899.624
6909.856
6919.694
6929.126
6938.293
6945.755
6949.07
6951.612
6957.084
6964.71
6972.327
6978.74
6984.063
6987.779
6989.214
6988.081
6985.975
6983.729
6981.371
6979.607
6979.064
6979.591
6979.17
6977.358
6977.934
6976.486
6973.209
6969.4
6965.232
6960.88
6956.541
6952.376
6948.51
6945.024
6941.979
6939.374
6937.159
6935.283
6933.696
6932.328
6931.119
6930.009
6928.941
6927.863
6926.736
6925.53
6924.222
6922.797
6921.239
6919.539
6917.688
6915.683
6913.522
6911.205
6908.731
6906.101
6903.319
6900.387
6897.312
6894.098
6890.753
6887.285
6883.703
6880.042
6876.295
6872.481
6868.619
6864.724
6860.822
6856.934
6853.084
6849.294
6845.589
6841.987
6838.511
6835.196
6832.055
6829.108
6826.373
6823.865
6821.597
6819.578
6817.815
6816.312
6815.069
6814.08
6813.34
6812.835
6812.554
6812.475
6812.579
6812.839
6813.228
6813.717
6814.271
6814.856
6815.431
6815.955
6816.375
6816.632
6816.645
6816.305
6815.437
6813.77
6810.985
6807.761
6811.269
6839.026
4938.324
4838.828
4734.477
4640.201
4559.037
4489.004
4429.843
4382.306
4338.712
4284.851
4269.407
4249.745
4232.219
4216.204
4201.756
4186.764
4169.323
4146.932
4112.298
4091.908
4051.224
4003.173
3957.176
3913.735
3876.335
3849.026
3835.129
3839.839
3855.321
3878.831
3927.094
3987.355
4057.202
4135.31
4220.239
4309.423
4401.724
4495.984
4575.298
4660.684
4746.303
4828.769
4904.683
4975.205
5040.804
5101.606
5156.889
5203.616
5244.288
5279.879
5306.823
5326.648
5340.202
5348.996
5356.104
5366.987
5358.092
5380.503
5418.499
5465.413
5521.592
5586.663
5655.35
5721.681
5781.245
5832.821
5875.924
5909.451
5935.761
5959.606
5982.574
6003.677
6023.102
6039.439
6054.929
6063.697
6060.599
6049.771
6042.587
6034.837
6019.459
5996.311
5970.013
5943.762
5919.108
5897.276
5879.815
5868.492
5865.462
5872.342
5889.525
5918.996
5957.571
6004.831
6059.701
6118.524
6171.628
6220.324
6267.513
6323.86
6374.568
6410.073
6424.244
6415.564
6395.666
6381.46
6383.614
6402.294
6429.042
6457.109
6485.731
6513.312
6540.071
6564.367
6585.624
6604.053
6619.807
6633.029
6643.754
6651.707
6656.156
6655.882
6649.375
6634.724
6610.275
6575.808
6531.436
6478.284
6418.147
6352.148
6282.266
6212.149
6145.901
6086.432
6035.779
5995.19
5964.459
5942.024
5926.045
5915.474
5908.056
5905.204
5905.14
5906.604
5909.035
5911.813
5914.616
5917.627
5921.821
5928.696
5939.612
5954.911
5974.553
5996.77
6019.703
6047.75
6072.182
6099.314
6129.837
6161.646
6194.915
6229.329
6263.277
6295.809
6327.495
6358.318
6388.772
6418.737
6448.103
6476.62
6504.108
6530.465
6555.573
6579.384
6601.877
6623.039
6642.887
6661.425
6678.825
6695.131
6710.226
6724.22
6737.591
6748.848
6757.138
6763.562
6768.102
6774.389
6784.366
6795.024
6805.297
6814.77
6823.225
6830.522
6836.715
6841.992
6846.624
6851.244
6856.456
6862.478
6869.214
6876.622
6885.243
6893.621
6903.856
6910.232
6916.297
6924.971
6934.075
6943.367
6952.922
6962.635
6972.404
6982.126
6991.719
7001.104
7010.202
7018.94
7027.25
7035.075
7042.362
7049.071
7055.164
7060.611
7065.387
7069.471
7072.846
7075.493
7077.397
7078.542
7078.905
7078.456
7077.162
7074.974
7071.825
7067.614
7062.25
7055.725
7048.591
7042.68
7040.537
7040.614
7039.336
7037.185
7034.516
7031.347
7027.724
7023.763
7019.516
7015.03
7010.349
7005.514
7000.56
6995.516
6990.457
6985.364
6980.268
6975.177
6970.092
6965.004
6959.886
6954.718
6949.481
6944.157
6938.726
6933.179
6927.52
6921.755
6915.939
6910.112
6904.294
6898.428
6892.637
6886.886
6878.876
6873.489
6866.552
6858.003
6849.023
6840.201
6831.584
6823.091
6814.71
6806.516
6798.65
6791.292
6784.688
6779.171
6775.054
6772.571
6771.93
6773.274
6776.583
6781.739
6788.614
6796.892
6806.01
6815.536
6825.275
6835.43
6846.604
6858.65
6870.68
6882.172
6893.105
6903.353
6912.847
6921.68
6930.076
6937.381
6943.562
6948.409
6952.905
6958.449
6964.919
6971.318
6976.973
6981.418
6984.433
6985.915
6985.919
6984.977
6983.654
6982.53
6982.196
6982.878
6983.87
6983.963
6982.855
6980.331
6977.166
6973.615
6969.688
6965.401
6960.893
6956.393
6952.095
6948.128
6944.599
6941.572
6939.003
6936.833
6934.958
6933.395
6932.025
6930.824
6929.712
6928.635
6927.536
6926.379
6925.141
6923.805
6922.357
6920.783
6919.068
6917.207
6915.197
6913.038
6910.728
6908.263
6905.645
6902.877
6899.964
6896.91
6893.71
6890.383
6886.938
6883.402
6879.721
6875.964
6872.143
6868.27
6864.363
6860.444
6856.538
6852.665
6848.85
6845.116
6841.488
6838.003
6834.631
6831.438
6828.441
6825.659
6823.103
6820.784
6818.713
6816.897
6815.338
6814.037
6812.992
6812.194
6811.634
6811.297
6811.166
6811.219
6811.432
6811.779
6812.23
6812.753
6813.315
6813.878
6814.405
6814.851
6815.173
6815.319
6815.251
6814.951
6814.549
6814.461
6815.735
6819.756
6826.779
3992.381
4051.449
4132.755
4228.327
4337.541
4459.971
4595.444
4742.911
4901.058
5066.467
5240.892
5423.141
5607.55
5792.272
5972.392
6145.962
6308.893
6455.096
6578.429
6688.93
6762.412
6807.649
6823.851
6810.977
6769.875
6702.345
6610.693
6498.44
6373.16
6229.726
6079.856
5923.143
5764.348
5605.3
5449.061
5298.402
5155.921
5024.539
4894.864
4782.579
4682.177
4594.187
4517.724
4452.165
4396.843
4350.986
4314.371
4283.715
4257.425
4237.872
4220.526
4204.388
4188.766
4172.062
4153.575
4135.11
4084.366
4046.726
4009.09
3963.439
3914.44
3868.278
3830.16
3804.451
3793.823
3799.72
3823.487
3863.703
3916.942
3981.812
4056.652
4140.159
4230.392
4325.606
4423.647
4521.677
4616.216
4705.481
4791.322
4873.343
4950.732
5021.147
5085.346
5142.803
5192.957
5235.379
5269.119
5294.053
5310.524
5318.983
5320.821
5318.245
5313.985
5310.772
5311.308
5331.1
5368.5
5418.281
5480.459
5552.207
5627.494
5700.013
5766.466
5825.447
5875.495
5917.064
5952.636
5984.268
6011.705
6033.944
6050.857
6063.06
6070.274
6072.75
6066.593
6052.64
6037.07
6021.285
6001.049
5974.532
5944.418
5914.146
5885.612
5860.061
5839.457
5826.042
5822.822
5831.811
5852.888
5885.679
5928.762
5980.019
6036.189
6094.707
6151.34
6199.544
6243.265
6290.279
6333.156
6366.488
6388.109
6400.257
6404.822
6406.467
6417.951
6438.197
6461.864
6487.691
6514.136
6539.236
6562.323
6582.912
6600.846
6616.193
6629.077
6639.554
6647.584
6652.834
6654.51
6651.143
6640.826
6621.98
6593.318
6554.575
6505.909
6448.578
6384.879
6316.606
6244.891
6173.201
6106.288
6048.19
6000.588
5963.793
5936.304
5912.279
5885.902
5879.491
5890.438
5898.068
5900.111
5902.932
5906.898
5910.088
5912.11
5914.253
5914.83
5915.889
5917.449
5925.184
5950.141
5974.693
5997.031
6023.01
6051.838
6083.8
6119.341
6157.461
6196.269
6234.2
6270.306
6304.035
6336.384
6367.896
6398.714
6428.722
6457.902
6486.047
6513.107
6538.992
6563.603
6586.873
6608.76
6629.256
6648.374
6666.146
6682.621
6697.873
6711.949
6724.822
6736.528
6746.646
6755.327
6762.221
6767.991
6774.836
6783.465
6792.567
6801.615
6810.358
6818.65
6826.441
6833.736
6840.5
6846.716
6852.573
6858.592
6865.057
6872.254
6879.76
6887.278
6893.418
6900.555
6911.097
6921.33
6930.106
6938.593
6947.596
6956.9
6966.396
6975.899
6985.327
6994.609
7003.676
7012.454
7020.87
7028.857
7036.358
7043.324
7049.713
7055.492
7060.631
7065.107
7068.902
7072
7074.387
7076.052
7076.982
7077.162
7076.576
7075.197
7073.001
7069.982
7066.165
7061.649
7056.694
7051.771
7047.527
7044.421
7042.154
7039.934
7037.334
7034.286
7030.854
7027.105
7023.075
7018.79
7014.277
7009.565
7004.69
6999.673
6994.598
6989.509
6984.372
6979.246
6974.134
6969.034
6963.937
6958.826
6953.67
6948.441
6943.102
6937.622
6931.989
6926.208
6920.332
6914.438
6908.588
6902.808
6897.109
6891.328
6885.365
6878.889
6871.255
6862.837
6854.252
6845.622
6836.905
6828.125
6819.352
6810.649
6802.142
6793.945
6786.179
6779.138
6773.209
6768.742
6766.195
6765.734
6767.264
6770.85
6776.424
6783.789
6792.642
6802.522
6812.999
6823.884
6835.331
6847.563
6860.234
6872.688
6884.517
6895.56
6905.64
6914.739
6922.842
6930.067
6936.486
6942.094
6946.885
6951.469
6956.574
6962.096
6967.499
6972.436
6976.682
6979.839
6981.84
6982.952
6983.432
6983.399
6983.004
6982.594
6982.526
6982.83
6983.115
6982.922
6982.175
6980.286
6976.992
6972.612
6967.65
6962.611
6957.734
6953.149
6948.96
6945.261
6942.11
6939.47
6937.257
6935.387
6933.783
6932.439
6931.27
6930.158
6929.091
6927.979
6926.793
6925.526
6924.167
6922.704
6921.12
6919.393
6917.52
6915.507
6913.355
6911.058
6908.614
6906.022
6903.284
6900.406
6897.406
6894.219
6890.913
6887.486
6883.948
6880.298
6876.556
6872.74
6868.865
6864.952
6861.017
6857.084
6853.173
6849.309
6845.518
6841.825
6838.256
6834.825
6831.559
6828.476
6825.598
6822.939
6820.517
6818.338
6816.41
6814.74
6813.328
6812.173
6811.27
6810.608
6810.176
6809.956
6809.929
6810.072
6810.36
6810.765
6811.258
6811.807
6812.38
6812.944
6813.468
6813.924
6814.292
6814.584
6814.845
6815.259
6816.016
6817.672
6820.224
6824.953
3868.63
3843.42
3826.16
3810.029
3799.741
3800.382
3812.494
3838.323
3876.898
3900.192
3910.773
3937.58
3983.124
4045.88
4124.36
4216.478
4322.11
4439.533
4568.714
4709.25
4860.281
5020.621
5188.211
5361.743
5538.894
5715.752
5888.924
6056.432
6212.847
6354.874
6479.459
6606.368
6679.773
6722.035
6731.871
6712.035
6664.345
6590.625
6493.937
6377.949
6247.062
6104.29
5953.421
5798.454
5641.811
5485.945
5334.022
5188.758
5051.865
4924.635
4808.095
4703.384
4610.564
4529.5
4459.799
4400.84
4352.013
4312.457
4281.089
4256.89
4237.784
4222.636
4210.166
4198.24
4185.348
4170.175
4150.792
4124.057
4085.924
4042.067
3995.563
3942.198
3884.58
3829.277
3782.691
3750.339
3736.163
3741.971
3767.341
3810.151
3867.804
3938
4018.719
4108.423
4205.228
4307.092
4411.749
4516.656
4619.336
4718.015
4812.057
4900.464
4982.256
5056.334
5122.483
5179.641
5227.596
5266.01
5293.93
5310.35
5316.224
5312.281
5300.261
5282.999
5264.256
5249.433
5245.268
5260.554
5296.421
5350.76
5421.061
5503.031
5588.866
5671.565
5747.204
5814.37
5872.862
5923.438
5967.013
6004.234
6035.035
6059.206
6076.621
6087.444
6091.473
6088.771
6078.547
6061.159
6039.645
6015.972
5988.794
5956.733
5921.095
5884.7
5850.046
5819.223
5793.899
5776.273
5770.476
5779.721
5803.664
5840.279
5888.846
5946.58
6008.729
6070.689
6127.567
6173.176
6208.803
6253.438
6300.263
6336.532
6362.675
6383.873
6401.276
6416.222
6434.574
6460.92
6491.488
6520.881
6548.16
6572.175
6593.029
6610.949
6625.988
6638.303
6648.073
6655.514
6660.567
6662.913
6661.789
6655.57
6641.952
6619.908
6587.636
6543.873
6484.954
6407.548
6341.654
6281.691
6211.143
6134.103
6064.305
6006.688
5961.23
5926.267
5887.148
5814.04
5805.457
5812.268
5868.634
5889.21
5893.591
5900.014
5906.519
5911.728
5912.475
5911.328
5892.483
5792.637
5797.066
5883.489
5940.646
5956.474
5974.123
5999.453
6031.061
6067.75
6107.917
6148.976
6189.506
6229.467
6268.569
6306.143
6341
6373.77
6405.64
6436.422
6466.176
6494.821
6522.18
6548.159
6572.702
6595.758
6617.288
6637.281
6655.749
6672.725
6688.285
6702.511
6715.441
6727.121
6737.662
6746.988
6754.992
6761.861
6768.116
6774.732
6782.13
6789.983
6797.988
6805.981
6813.862
6821.585
6829.11
6836.433
6843.552
6850.647
6857.978
6865.761
6873.827
6882.035
6889.905
6898.017
6906.721
6915.835
6924.951
6933.646
6942.295
6951.22
6960.318
6969.432
6978.512
6987.52
6996.405
7005.095
7013.52
7021.609
7029.295
7036.522
7043.239
7049.398
7054.964
7059.905
7064.204
7067.85
7070.825
7073.115
7074.715
7075.613
7075.796
7075.272
7074.026
7072.052
7069.373
7066.052
7062.219
7058.075
7053.893
7049.967
7046.553
7043.681
7041.012
7038.142
7034.929
7031.405
7027.617
7023.578
7019.293
7014.77
7010.037
7005.131
7000.091
6994.966
6989.819
6984.653
6979.505
6974.385
6969.295
6964.224
6959.15
6954.042
6948.853
6943.53
6938.032
6932.341
6926.473
6920.506
6914.543
6908.67
6902.903
6897.184
6891.322
6885.088
6878.198
6870.46
6862.245
6853.667
6844.642
6835.589
6826.445
6817.135
6807.868
6798.873
6790.141
6781.447
6772.17
6763.401
6760.142
6759.153
6758.535
6759.843
6763.753
6769.925
6777.948
6787.496
6798.153
6809.509
6821.321
6833.558
6846.3
6859.42
6872.565
6885.066
6896.559
6906.765
6915.646
6923.324
6929.901
6935.39
6940.69
6945.484
6949.793
6954.191
6958.772
6963.258
6967.427
6971.114
6974.164
6976.541
6978.259
6979.349
6979.955
6980.405
6980.848
6981.491
6982.348
6983.058
6982.971
6981.761
6979.465
6976.261
6972.338
6968.054
6963.677
6959.222
6954.735
6950.443
6946.561
6943.215
6940.444
6938.187
6936.318
6934.745
6933.416
6932.22
6931.134
6930.026
6928.867
6927.632
6926.322
6924.925
6923.444
6921.85
6920.099
6918.191
6916.148
6913.975
6911.662
6909.2
6906.59
6903.838
6900.945
6897.886
6894.737
6891.439
6888.012
6884.468
6880.814
6877.064
6873.232
6869.337
6865.397
6861.432
6857.462
6853.512
6849.604
6845.761
6842.012
6838.381
6834.887
6831.554
6828.405
6825.452
6822.721
6820.22
6817.965
6815.964
6814.221
6812.74
6811.52
6810.556
6809.839
6809.357
6809.095
6809.034
6809.153
6809.426
6809.828
6810.33
6810.905
6811.525
6812.162
6812.795
6813.407
6813.997
6814.592
6815.236
6816.071
6817.153
6818.907
6820.928
6824.833
4273.962
4235.404
4200.953
4163.676
4123.689
4081.858
4043.477
4005.577
3969.602
3935.608
3903.401
3874.429
3848.27
3826.344
3809.513
3798.157
3794.702
3800.143
3813.775
3832.11
3851.921
3878.285
3916.105
3967.173
4031.675
4110.906
4203.688
4309.579
4427.941
4558.054
4699.136
4850.199
5009.733
5176.638
5348.271
5522.353
5696.776
5868.225
6034.646
6190.919
6331.681
6450.307
6538.633
6607.847
6648.363
6657.264
6635.865
6586.364
6510.816
6412.455
6294.66
6161.969
6018.087
5866.932
5711.418
5553.118
5396.732
5246.778
5104.992
4972.147
4849.289
4737.249
4637.045
4549.266
4473.635
4409.446
4355.939
4312.684
4279.008
4253.671
4235.833
4223.449
4214.818
4208.649
4202.027
4192.85
4179.851
4160.62
4132.538
4094.099
4044.696
3986.667
3919.721
3846.705
3774.84
3713.575
3670.176
3649.737
3653.224
3679.656
3726.805
3790.347
3866.829
3954.037
4050.687
4155.246
4265.632
4379.741
4495.267
4609.639
4720.383
4825.651
4924.174
5014.889
5096.714
5168.46
5229.271
5277.909
5313.575
5335.615
5343.343
5336.2
5315.027
5283.002
5244.878
5206.083
5173.616
5155.337
5160.599
5194.26
5255.275
5338.801
5437.024
5538.744
5635.159
5722.175
5799.219
5867.568
5927.618
5979.087
6022.545
6058.183
6085.673
6104.711
6115.267
6117.38
6111.224
6097.247
6076.233
6049.34
6017.988
5982.633
5942.864
5899.418
5854.183
5809.65
5770.318
5738.41
5714.583
5704.609
5713.744
5740.844
5782.48
5839.038
5906.149
5977.828
6047.121
6104.204
6119.32
6156.766
6217.221
6277.613
6312.597
6339.128
6363.68
6389.199
6416.52
6447.699
6482.957
6517.678
6550.828
6581.075
6607.097
6628.68
6646.061
6659.529
6669.514
6676.474
6680.845
6682.735
6681.761
6676.76
6666.752
6650.43
6625.454
6588.625
6535.137
6431.771
6350.038
6295.575
6252.416
6173.467
6087.109
6013.69
5957.588
5913.737
5847.353
5772.367
5777.14
5778.881
5783.384
5847.226
5876.485
5884.464
5896.793
5907.4
5915.019
5916.646
5902.308
5749.181
5695.505
5696.294
5784.669
5908.647
5934.291
5948.876
5973.198
6007.19
6049.52
6095.917
6140.397
6182.349
6224.483
6264.965
6303.277
6340.547
6376.095
6410.262
6442.787
6473.579
6502.904
6530.828
6557.248
6582.077
6605.233
6626.665
6646.356
6664.324
6680.629
6695.36
6708.606
6720.458
6731.016
6740.402
6748.686
6755.968
6762.441
6768.421
6774.447
6780.878
6787.667
6794.691
6801.897
6809.252
6816.743
6824.375
6832.216
6840.342
6848.831
6857.53
6866.389
6875.398
6884.499
6893.392
6902.428
6911.493
6920.535
6929.67
6938.768
6947.709
6956.553
6965.358
6974.075
6982.706
6991.247
6999.678
7007.94
7015.956
7023.658
7030.99
7037.898
7044.323
7050.217
7055.55
7060.275
7064.369
7067.845
7070.689
7072.896
7074.462
7075.383
7075.643
7075.23
7074.136
7072.38
7069.999
7067.056
7063.664
7059.975
7056.175
7052.461
7048.994
7045.811
7042.747
7039.573
7036.169
7032.517
7028.629
7024.502
7020.133
7015.525
7010.697
7005.683
7000.531
6995.302
6990.048
6984.804
6979.608
6974.48
6969.415
6964.401
6959.413
6954.412
6949.334
6944.091
6938.616
6932.879
6926.885
6920.694
6914.535
6908.539
6902.732
6897.03
6891.289
6885.213
6878.499
6870.932
6861.958
6853.033
6844.309
6835.392
6825.63
6815.599
6805.729
6796.288
6786.675
6771.633
6758.851
6752.736
6753.164
6751.564
6749.244
6750.062
6754.548
6761.481
6770.492
6781.483
6793.502
6805.956
6818.675
6831.638
6844.968
6858.651
6872.388
6885.641
6897.63
6907.872
6916.04
6921.022
6926.896
6933.735
6939.8
6944.074
6947.757
6951.597
6955.525
6959.24
6962.862
6966.227
6969.195
6971.737
6973.812
6975.429
6976.671
6977.732
6978.735
6979.731
6980.652
6981.305
6981.23
6980.287
6978.607
6976.264
6973.113
6969.234
6964.908
6960.442
6956.029
6951.848
6948.162
6945.087
6942.486
6940.248
6938.333
6936.69
6935.288
6934.031
6932.819
6931.593
6930.338
6929.042
6927.673
6926.207
6924.624
6922.912
6921.063
6919.081
6916.988
6914.799
6912.469
6909.98
6907.33
6904.549
6901.628
6898.563
6895.369
6892.046
6888.598
6885.031
6881.355
6877.58
6873.722
6869.796
6865.822
6861.817
6857.806
6853.809
6849.852
6845.958
6842.152
6838.459
6834.903
6831.507
6828.293
6825.278
6822.484
6819.917
6817.599
6815.539
6813.741
6812.208
6810.941
6809.935
6809.182
6808.671
6808.387
6808.312
6808.425
6808.702
6809.119
6809.65
6810.267
6810.947
6811.666
6812.409
6813.166
6813.941
6814.76
6815.658
6816.74
6818.017
6819.816
6821.68
6825.183
4655.569
4612.06
4572.496
4532.908
4497.734
4457.366
4421.787
4386.428
4350.399
4313.803
4277.44
4241.077
4203.346
4165.672
4126.307
4082.033
4043.61
4006.332
3970.307
3935.848
3903.34
3873.455
3846.448
3822.878
3803.898
3790.261
3781.495
3780.318
3785.943
3797.808
3816.257
3843.757
3882.008
3932.332
3996.037
4073.347
4164.065
4267.699
4383.603
4511.092
4649.471
4797.722
4953.682
5115.584
5282.063
5451.465
5622.3
5791.183
5954.299
6106.705
6243.673
6360.549
6450.993
6515.137
6549.786
6553.517
6526.813
6472.093
6391.792
6289.562
6169.141
6034.776
5890.951
5740.474
5584.829
5427.046
5273.047
5127.427
4990.952
4863.798
4746.826
4641.126
4547.72
4467.044
4398.729
4341.965
4295.997
4260.56
4235.543
4219.738
4211.488
4209.415
4211.153
4213.901
4214.799
4212.416
4204.647
4188.159
4159.321
4115.848
4056.727
3982.643
3895.158
3798.312
3698.917
3611.475
3550.59
3521.696
3524.879
3557.26
3612.902
3684.905
3770.045
3866
3971.908
4086.457
4207.884
4334.504
4463.77
4592.805
4718.65
4838.726
4951.214
5054.686
5147.709
5228.771
5296.394
5348.387
5382.195
5396.922
5392.437
5367.438
5322.206
5261.813
5194.347
5128.276
5071.029
5031.613
5024.626
5058.258
5131.17
5234.536
5356.834
5480.414
5588.729
5682.3
5777.58
5862.137
5930.968
5989.343
6039.158
6080.029
6111.409
6132.92
6144.434
6146.153
6138.477
6121.823
6097.183
6065.389
6026.843
5982.054
5931.388
5876.596
5820.907
5764.594
5711.983
5668.054
5633.65
5617.886
5627.845
5662.185
5715.265
5784.273
5865.002
5949.423
6029.167
6077.602
6096.939
6160.24
6226.823
6267.017
6294.762
6320.71
6348.103
6379.267
6414.714
6454.439
6496.95
6538.498
6576.977
6611.323
6641.073
6665.39
6684.094
6697.605
6706.555
6711.666
6713.606
6712.733
6708.523
6699.794
6686.456
6667.635
6639.339
6595.176
6490.669
6387.411
6339.057
6307.284
6231.74
6131.301
6033.684
5956.515
5903.4
5834.695
5744.59
5773.528
5846.444
5874.328
5871.73
5866.307
5862.863
5869.948
5890.225
5909.949
5880.139
5674.09
5661.637
5748.618
5894.227
5928.699
5919.759
5910.795
5910.279
5919.738
5939.778
5969.712
6007.494
6047.825
6112.109
6176.03
6223.286
6263.964
6302.943
6340.844
6377.303
6412.396
6446.12
6478.278
6508.847
6537.905
6565.284
6590.817
6614.443
6636.103
6655.764
6673.447
6689.226
6703.226
6715.578
6726.413
6735.881
6744.157
6751.422
6757.844
6763.609
6768.99
6774.328
6779.862
6785.684
6791.835
6798.361
6805.296
6812.629
6820.361
6828.544
6837.176
6846.225
6855.804
6865.857
6876.092
6886.301
6896.597
6906.768
6916.552
6926.152
6935.635
6944.917
6953.864
6962.521
6971.033
6979.456
6987.791
6995.999
7004.011
7011.824
7019.384
7026.643
7033.57
7040.091
7046.154
7051.718
7056.755
7061.251
7065.178
7068.495
7071.201
7073.311
7074.827
7075.749
7076.081
7075.799
7074.87
7073.308
7071.156
7068.483
7065.386
7061.988
7058.435
7054.867
7051.382
7048.005
7044.669
7041.262
7037.693
7033.921
7029.925
7025.691
7021.208
7016.471
7011.49
7006.306
7000.981
6995.586
6990.184
6984.808
6979.521
6974.363
6969.326
6964.392
6959.529
6954.691
6949.798
6944.753
6939.384
6933.336
6927.028
6920.752
6914.51
6908.198
6902.175
6896.609
6891.311
6885.578
6877.861
6869.246
6861.291
6854.195
6845.854
6835.847
6825.159
6814.052
6802.898
6793.047
6782.329
6763.786
6753.273
6749.165
6747.827
6740.713
6731.219
6716.267
6722.15
6744.296
6761.974
6774.641
6787.849
6801.779
6815.711
6829.445
6843.261
6857.299
6871.582
6885.939
6898.747
6905.402
6910.173
6918.807
6928.949
6935.502
6939.583
6942.974
6945.958
6949.09
6952.38
6955.345
6958.336
6961.337
6964.247
6967.032
6969.556
6971.759
6973.687
6975.343
6976.704
6977.838
6978.711
6979.279
6979.393
6978.922
6977.805
6976.04
6973.457
6970.153
6966.38
6962.479
6958.625
6954.832
6951.215
6947.942
6945.125
6942.734
6940.7
6939.008
6937.631
6936.395
6935.151
6933.877
6932.544
6931.137
6929.653
6928.059
6926.316
6924.438
6922.453
6920.363
6918.162
6915.849
6913.414
6910.831
6908.133
6905.328
6902.392
6899.297
6896.064
6892.71
6889.231
6885.63
6881.92
6878.11
6874.214
6870.249
6866.232
6862.183
6858.124
6854.078
6850.068
6846.12
6842.258
6838.507
6834.893
6831.438
6828.164
6825.093
6822.238
6819.622
6817.254
6815.145
6813.303
6811.73
6810.428
6809.393
6808.617
6808.09
6807.797
6807.721
6807.841
6808.135
6808.578
6809.146
6809.813
6810.557
6811.358
6812.202
6813.082
6814.002
6814.985
6816.053
6817.288
6818.677
6820.481
6822.27
6825.516
4842.86
4828.869
4791.105
4742.803
4693.772
4648.887
4607.033
4568.036
4531.446
4494.665
4453.634
4418.457
4383.529
4348.217
4312.339
4275.965
4239.046
4201.365
4163.091
4124.929
4087.617
4049.642
4012.246
3975.717
3940.493
3906.817
3875.165
3845.709
3818.743
3795.312
3776.47
3763.638
3757.422
3757.914
3766.241
3783.444
3810.693
3849.117
3899.576
3962.707
4038.783
4127.76
4229.329
4342.911
4467.727
4602.806
4746.244
4896.479
5053.057
5214.812
5381.1
5548.306
5712.844
5870.477
6016.321
6145.231
6252.829
6334.378
6387.609
6411.228
6404.894
6368.956
6305.996
6218.99
6111.729
5989.044
5853.913
5709.061
5558.82
5405.816
5253.934
5107.58
4969.634
4840.656
4721.153
4612.05
4514.594
4430.036
4358.762
4300.04
4252.786
4216.589
4191.888
4179.01
4176.462
4182.599
4195.98
4213.08
4228.8
4239.402
4244.348
4243.535
4232.2
4204.243
4155.429
4082.878
3986.213
3867.576
3730.699
3593.604
3475.148
3395.152
3356.251
3360.702
3404.73
3475.417
3558.588
3652.18
3757.579
3874.875
4002.024
4136.609
4278.109
4423.946
4570.988
4715.625
4854.254
4984.296
5103.906
5211.305
5304.555
5380.873
5437.565
5470.746
5478.593
5458.983
5409.891
5332.068
5231.237
5125.112
5026.826
4942.724
4879.915
4861.816
4896.069
4982.31
5111.682
5264.47
5381.842
5499.549
5646.619
5771.767
5861.969
5936.55
6000.984
6056.097
6101.476
6136.62
6161.227
6174.868
6177.545
6169.592
6151.377
6123.277
6085.816
6039.159
5984.542
5922.335
5851.669
5779.882
5708.465
5637.868
5553.254
5417.068
5283.478
5296.323
5377.584
5517.911
5671.942
5798.168
5898.767
5984.493
6074.756
6150.204
6202.832
6235.374
6258.842
6281.541
6306.01
6334.944
6370.458
6412.569
6459.774
6508.282
6554.295
6597.513
6637.587
6672.167
6700.081
6721.38
6736.351
6745.546
6749.734
6749.904
6746.535
6739.744
6728.919
6711.93
6690.861
6660.381
6610.832
6437.588
6382.744
6387.081
6321.616
6210.533
6089.689
5964.416
5848.691
5797.445
5780.115
5772.19
5765.116
5769.523
5747.38
5749.586
5812.479
5829.876
5821.908
5788.978
5728.765
5850.152
5941.977
5957.519
5946.863
5930.918
5915.159
5900.176
5889.113
5885.737
5890.193
5871.122
5587.186
5657.081
5958.232
6118.251
6176.532
6221.151
6262.436
6302.104
6340.358
6377.29
6412.998
6447.537
6481.016
6513.134
6543.558
6572.108
6598.652
6623.06
6645.222
6665.083
6682.681
6698.121
6711.53
6723.083
6732.986
6741.427
6748.621
6754.851
6760.34
6765.277
6769.906
6774.456
6779.111
6784.037
6789.373
6795.154
6801.228
6808.473
6816.703
6825.411
6834.478
6844.113
6854.252
6864.241
6875.168
6886.876
6898.428
6909.491
6920.245
6930.795
6940.994
6950.682
6959.885
6968.65
6977.058
6985.228
6993.218
7001.017
7008.657
7016.042
7023.169
7030.067
7036.635
7042.81
7048.555
7053.832
7058.602
7062.855
7066.583
7069.737
7072.306
7074.319
7075.78
7076.689
7077.057
7076.874
7076.082
7074.694
7072.74
7070.283
7067.393
7064.183
7060.783
7057.307
7053.813
7050.321
7046.816
7043.245
7039.546
7035.669
7031.565
7027.205
7022.578
7017.665
7012.469
7007.034
7001.441
6995.791
6990.171
6984.648
6979.277
6974.086
6969.068
6964.223
6959.499
6954.851
6950.067
6944.234
6937.878
6932.864
6927.898
6921.588
6914.487
6907.467
6901.088
6895.399
6888.004
6876.502
6872.316
6871.061
6865.921
6857.098
6846.964
6836.171
6824.284
6807.348
6777.869
6769.711
6774.724
6771.625
6761.984
6751.91
6741.804
6710.567
6620.557
6628.825
6699.268
6739.69
6753.281
6765.951
6780.51
6796.174
6810.748
6825.04
6839.955
6854.765
6869.554
6884.203
6890.321
6899.988
6914.245
6926.273
6932.38
6936.272
6939.371
6942.201
6944.751
6946.992
6949.36
6951.932
6954.52
6957.101
6959.737
6962.393
6964.79
6967.443
6970.085
6972.341
6974.267
6975.959
6977.358
6978.269
6978.594
6978.339
6977.421
6975.895
6973.782
6971.155
6968.135
6964.884
6961.559
6958.13
6954.721
6951.529
6948.764
6946.397
6944.319
6942.446
6940.749
6939.207
6937.748
6936.293
6934.806
6933.302
6931.761
6930.09
6928.258
6926.298
6924.213
6922.005
6919.672
6917.205
6914.631
6911.955
6909.16
6906.242
6903.201
6900.034
6896.756
6893.374
6889.873
6886.243
6882.498
6878.648
6874.711
6870.702
6866.64
6862.545
6858.438
6854.342
6850.282
6846.282
6842.368
6838.565
6834.898
6831.391
6828.067
6824.946
6822.045
6819.385
6816.975
6814.828
6812.951
6811.35
6810.024
6808.969
6808.181
6807.647
6807.355
6807.286
6807.421
6807.737
6808.211
6808.819
6809.536
6810.341
6811.215
6812.145
6813.123
6814.151
6815.246
6816.422
6817.738
6819.173
6820.941
6822.649
6825.65
4831.237
4804.523
4748.826
4706.942
4665.64
4626.703
4589.878
4554.67
4520.487
4487.074
4454.49
4421.035
4387.105
4352.479
4317.222
4281.163
4244.288
4206.571
4167.99
4128.997
4090.781
4052.701
4014.976
3977.908
3941.752
3906.259
3871.633
3838.849
3808.671
3781.87
3759.911
3744.243
3735.43
3733.9
3740.665
3756.76
3783.173
3820.812
3870.367
3932.334
4006.911
4094.014
4193.461
4304.461
4425.654
4555.367
4692.242
4836.638
4988.756
5146.374
5307.472
5468.471
5625.425
5773.739
5908.683
6025.117
6118.996
6186.383
6225.046
6234.011
6213.972
6166.018
6093.032
5999.431
5887.512
5760.347
5622.712
5477.811
5330.976
5185.896
5044.088
4907.869
4778.567
4657.332
4546.176
4446.888
4359.992
4286.229
4226.213
4179.331
4143.362
4117.684
4105.198
4107.306
4121.38
4144.973
4177.427
4214.911
4247.518
4268.158
4281.511
4292.46
4292.499
4269.69
4217.025
4123.859
3960.847
3758.893
3599.658