/*--------------------------------*- C++ -*----------------------------------*\
| =========                 |                                                 |
| \\      /  F ield         | foam-extend: Open Source CFD                    |
|  \\    /   O peration     | Version:     3.1                                |
|   \\  /    A nd           | Web:         http://www.extend-project.de       |
|    \\/     M anipulation  |                                                 |
\*---------------------------------------------------------------------------*/
FoamFile
{
    version     2.0;
    format      ascii;
    class       volScalarField;
    location    "15";
    object      alpha1;
}
// * * * * * * * * * * * * * * * * * * * * * * * * * * * * * * * * * * * * * //

dimensions      [0 0 0 0 0 0 0];

internalField   nonuniform List<scalar> 
119952
(
1
1
1
1
1
1
1
1
1
1
1
1
1
1
1
1
1
1
1
1
1
1
1
1
1
1
1
1
1
1
1
1
1
1
1
1
1
1
1
1
1
1
1
1
1
1
1
1
1
1
1
1
1
1
1
1
1
1
1
1
1
1
1
1
1
1
1
1
0.9999999
1
1
1
1
1
1
0.9999999
1
1
0.9999999
1
1
1
1
0.9999999
1
1
1
1
1
1
1
1
1
1
1
1
1
1
0.9999999
1
1
1
1
1
1
1
1
1
1
1
1
1
1
1
1
1
1
1
1
1
1
1
1
1
1
1
1
1
1
1
1
1
1
1
1
1
1
1
1
1
1
0.9999997
0.9999998
0.9999999
1
1
1
1
1
1
1
1
1
1
1
1
0.9999999
1
1
1
1
1
0.9999999
1
1
1
1
1
1
1
1
1
1
1
1
0.9999999
1
0.9999997
0.9999999
1
1
0.9999999
0.9999997
1
1
1
1
0.9999998
0.9999999
1
1
1
1
0.9999996
0.9999996
1
1
1
1
0.9999997
1
1
1
1
1
1
1
0.9999998
1
1
1
1
1
1
1
1
1
1
1
1
1
1
1
1
1
1
1
1
1
1
1
1
1
1
1
1
1
0.9999999
1
1
1
1
0.9999999
0.9999999
1
0.9999999
1
1
0.9999997
1
0.9999999
0.9999996
1
1
0.9999996
1
1
0.9999999
1
0.9999999
1
0.9999999
1
1
0.9999999
1
1
1
1
0.9999999
1
1
1
1
1
1
1
1
1
1
0.9999999
0.9999998
1
1
1
1
1
1
0.9999999
0.9999999
1
1
1
1
1
1
0.9999997
0.9999997
0.9999997
1
1
1
1
0.9999999
1
1
1
1
1
1
1
1
1
1
1
1
1
1
1
1
1
1
1
1
1
1
1
1
1
1
1
1
0.9999999
1
1
1
1
1
1
1
1
0.9999998
1
1
1
1
0.9999999
1
1
1
1
1
1
1
1
1
1
1
1
1
1
0.9999973
0.9999063
0.9999728
0.9999977
0.9999974
0.9999983
0.9999999
1
1
1
1
1
1
1
1
1
1
1
1
1
1
1
1
1
1
1
0.9999977
0.9999962
0.9999983
0.9999995
0.9999996
0.9999996
0.9999993
0.9999996
1
1
1
1
0.9999993
0.9999977
0.9999981
0.9999993
0.9999999
0.9999999
0.99999
1
1
1
1
1
1
1
1
1
1
1
1
1
1
1
1
1
1
1
1
1
1
1
1
1
1
1
1
1
1
1
1
1
1
1
1
1
1
0.9999999
1
1
1
1
1
1
1
1
1
1
1
1
1
1
1
1
1
1
1
1
1
1
1
1
1
1
1
1
1
1
1
1
1
1
1
1
1
1
1
1
1
1
1
1
1
1
1
1
1
1
1
0.9999999
0.9999999
1
1
1
1
1
1
1
1
1
1
1
1
1
1
1
1
1
1
1
1
1
1
1
1
1
1
1
1
1
1
1
1
1
1
1
1
1
1
1
1
1
1
1
0.9999999
1
1
1
1
1
0.9999999
0.999999
0.9999906
0.9999267
0.9995467
0.9982428
0.9974196
0.998167
0.9995057
0.9999622
0.9999994
1
1
1
1
1
1
1
1
1
1
1
1
1
1
1
1
1
1
1
1
1
1
1
1
1
1
1
1
1
1
1
1
1
1
1
1
1
0.9999998
0.9999999
1
1
1
1
1
1
0.9999999
0.9999999
1
1
1
1
0.9999999
0.9999999
1
1
1
1
1
1
0.9999999
0.9999999
0.9999999
1
1
1
1
1
1
1
1
0.9999999
0.9999999
0.9999999
1
1
1
1
1
1
1
1
1
1
1
0.9999999
0.9999999
1
1
1
1
1
1
1
1
1
1
1
1
1
0.9999998
1
1
1
1
1
1
1
1
0.9999998
1
0.9999999
0.9999997
1
1
1
1
1
0.9999999
1
1
1
1
1
1
0.9999999
0.9999996
0.9999989
0.999999
0.9999994
0.9999998
1
1
1
1
1
1
1
1
0.9999999
0.9999994
0.9999979
0.999994
0.999993
0.9999961
0.9999993
1
1
1
1
1
1
0.9999998
0.9999997
0.9999997
0.9999999
1
1
1
1
1
1
1
1
1
1
1
1
1
1
1
1
1
1
1
1
1
1
1
1
1
1
1
1
1
1
1
1
1
1
1
1
1
1
1
1
1
1
1
1
1
1
1
1
0.9999999
0.9999998
0.9999998
0.9999999
1
1
1
1
1
1
1
1
0.9999998
0.9999976
0.9999757
0.9998665
0.9998435
0.9998435
0.9999168
0.9999882
0.9999996
1
1
1
1
1
1
1
0.9999999
0.9999997
0.9999996
0.9999997
0.9999999
1
1
1
1
0.9999997
0.9999954
0.9999274
0.9992486
0.9964579
0.9950784
0.9964478
0.998827
0.999884
0.9999977
1
1
0.9999999
0.9999974
0.9999572
0.9995684
0.9984308
0.9983662
0.9990784
0.9998111
0.9999724
1
1
1
1
1
1
1
1
1
1
1
1
1
1
1
1
1
1
1
1
1
1
1
1
1
1
1
1
1
1
1
1
1
1
1
1
1
1
1
1
1
1
1
1
1
1
1
1
1
1
1
1
1
1
1
1
1
1
1
1
1
1
1
1
1
1
1
1
1
1
1
1
1
1
1
1
1
1
1
1
1
1
1
1
1
1
1
1
1
1
1
1
1
1
1
1
1
1
1
1
1
1
1
1
1
1
1
1
1
1
1
1
1
1
1
1
1
1
1
1
1
1
1
1
1
1
1
1
1
1
1
1
1
0.9999999
0.9999999
0.9999999
1
1
1
1
1
1
1
1
1
1
1
1
1
1
1
1
1
1
1
1
1
1
1
1
1
1
1
1
1
1
1
1
1
1
1
1
1
1
1
1
1
1
0.9999999
0.9999976
0.9999584
0.9994955
0.9958212
0.9837169
0.9777212
0.9866026
0.9972792
0.9998493
0.999998
0.9999999
0.9999999
0.9999999
0.9999998
0.9999998
0.9999998
0.9999998
0.9999998
0.9999999
1
1
1
1
1
1
1
0.9999999
0.9999999
0.9999999
1
1
1
1
1
1
1
1
1
1
1
1
1
1
1
1
1
1
1
1
1
1
0.9999999
1
1
1
1
1
0.9999999
0.9999999
1
1
1
1
0.9999999
0.9999999
1
1
1
1
1
1
0.9999999
0.9999999
0.9999999
1
1
1
1
1
1
1
0.9999999
0.9999999
1
1
1
1
1
0.9999999
0.9999999
1
1
1
1
1
0.9999999
0.9999999
0.9999999
1
1
1
1
1
1
1
1
1
1
1
1
1
1
0.9999999
0.9999998
0.9999998
0.9999998
1
1
1
1
1
1
1
0.9999999
0.9999999
0.9999999
1
1
1
1
1
0.9999999
0.9999998
0.9999999
1
1
0.9999999
0.9999991
0.9999984
0.9999984
0.9999989
0.9999997
0.9999998
0.9999998
0.9999998
0.9999998
0.9999996
0.9999985
0.9999949
0.999988
0.999979
0.9999664
0.9999663
0.999981
0.9999965
0.9999998
1
1
1
1
1
1
1
1
0.9999999
0.9999999
0.9999999
1
1
1
1
0.9999999
0.9999999
0.9999999
1
1
1
1
1
1
1
0.9999999
0.9999999
0.9999999
1
1
1
1
1
1
1
1
0.9999999
0.9999999
1
1
1
1
1
1
1
1
1
1
1
1
1
1
1
1
1
1
1
1
1
1
0.9999998
0.9999991
0.999999
0.9999994
0.9999998
1
1
1
1
1
1
0.9999998
0.9999972
0.9999629
0.9998623
0.9998954
0.9999683
0.9999971
0.9999999
1
1
1
1
1
1
1
1
0.9999997
0.9999973
0.9999955
0.9999964
0.9999982
0.9999994
0.9999999
0.9999999
0.9999994
0.9999913
0.9998619
0.9979419
0.9886308
0.9870576
0.9880737
0.9952536
0.9993535
0.9999757
0.9999998
1
0.9999999
0.9999971
0.9999437
0.9989602
0.9961593
0.9961027
0.9969605
0.9991329
0.9999302
1
1
1
1
1
1
1
1
1
1
1
1
1
1
1
1
1
1
1
1
1
1
1
1
1
1
1
1
1
1
1
1
1
1
1
1
1
1
1
1
1
1
1
1
1
1
1
1
1
1
1
1
1
1
1
1
1
1
1
1
1
1
1
1
1
1
1
1
1
1
1
1
1
1
1
1
1
1
1
1
1
1
1
1
1
1
1
1
1
1
1
1
1
1
1
1
1
1
1
1
1
1
1
1
1
1
1
1
1
1
1
1
1
1
1
1
1
1
1
1
1
1
1
1
1
1
1
1
1
1
1
1
1
1
1
1
1
1
1
1
1
1
1
1
1
1
0.9999999
0.9999999
0.9999999
1
1
1
1
1
1
1
1
1
1
1
1
1
1
1
1
1
1
1
1
1
1
1
1
1
1
1
1
1
1
0.9999999
1
1
1
1
1
1
1
1
1
1
0.9999994
0.9999817
0.9995693
0.9931567
0.9384255
0.8800067
0.930444
0.9864186
0.9992845
0.9999664
0.9999602
0.9999571
0.999964
0.9999806
0.9999948
0.9999975
0.9999939
0.999975
0.9999815
0.9999941
0.9999995
1
1
1
1
1
1
1
1
1
0.9999999
0.9999999
0.9999999
1
1
1
1
1
1
1
1
1
1
1
1
1
1
1
1
1
1
1
1
1
1
1
1
1
1
1
1
1
1
1
1
1
1
1
1
1
1
1
1
1
1
1
1
1
1
1
1
1
1
0.9999998
0.9999999
1
1
1
1
1
1
1
1
1
1
1
1
1
0.9999999
0.9999999
1
1
1
1
1
1
1
1
1
1
1
1
1
1
0.9999999
0.9999998
0.9999999
1
1
1
1
1
1
1
1
1
1
0.9999999
1
1
1
1
1
0.9999997
0.9999997
0.9999999
1
1
0.9999998
0.9999997
0.9999997
0.9999992
0.9999967
0.9999916
0.9999869
0.9999873
0.9999933
0.9999968
0.9999901
0.9999314
0.9996831
0.9994854
0.9996109
0.9998495
0.9999787
0.9999992
1
1
1
1
1
1
1
1
1
1
1
1
1
1
1
0.9999999
0.9999997
0.9999997
0.9999998
0.9999999
1
1
1
1
1
1
1
0.9999999
0.9999999
1
1
1
1
1
1
1
0.9999999
0.9999999
0.9999999
0.9999999
1
1
1
1
1
1
1
1
1
1
1
1
1
1
1
1
1
1
1
1
1
1
1
0.9999999
0.9999992
0.9999987
0.9999987
0.9999991
0.9999998
1
1
1
1
0.9999999
0.9999998
0.9999992
0.9999971
0.9999934
0.9999945
0.9999983
0.9999998
1
1
1
1
1
1
1
0.9999999
0.9999986
0.9999852
0.9999566
0.9999496
0.9999605
0.9999845
0.9999977
0.9999955
0.9999604
0.9994945
0.9939945
0.9870576
0.9870571
0.9870576
0.9879739
0.9958461
0.9996
0.9999928
1
1
0.9999993
0.9999889
0.9998432
0.9982178
0.9961027
0.9961027
0.9965831
0.9991371
1
1
1
1
1
1
1
1
1
1
1
1
1
1
1
1
1
1
1
1
1
1
1
1
1
1
1
1
1
1
1
1
1
1
1
1
1
1
1
1
1
1
1
1
1
1
1
1
1
1
1
1
1
1
1
1
1
1
1
1
1
1
1
1
1
1
1
1
1
1
1
1
1
1
1
1
1
1
1
1
1
1
1
1
1
1
1
1
1
1
1
1
1
1
1
1
1
1
1
1
1
1
1
1
1
1
1
1
1
1
1
1
1
1
1
1
1
1
1
1
1
1
1
1
1
1
1
1
1
1
1
1
1
1
1
1
1
1
1
1
1
1
1
1
1
1
1
1
1
1
1
1
1
1
1
1
1
1
0.9999999
1
1
1
1
1
1
1
1
1
1
1
1
1
1
1
1
1
1
1
1
1
1
1
1
1
1
1
1
1
1
1
0.9999999
1
1
1
1
1
1
1
1
1
0.9999996
0.9999923
0.9998363
0.9962876
0.9276819
0.8106154
0.8106154
0.9126911
0.9889686
0.9993946
0.9991897
0.9982315
0.9982487
0.9988342
0.9991766
0.9991468
0.9995386
0.9998976
0.9999853
0.9999962
0.9999989
0.9999999
1
1
1
1
1
1
1
1
1
0.9999999
0.9999999
0.9999999
0.9999999
1
1
1
1
1
1
1
1
1
1
1
1
1
1
1
1
1
1
1
1
1
1
1
1
1
1
1
1
1
1
1
1
1
1
1
1
0.9999999
0.9999999
0.9999999
1
1
1
1
1
1
1
1
1
1
0.9999999
0.9999998
0.9999998
0.9999999
1
1
1
1
1
1
1
1
1
1
1
1
1
1
0.9999999
0.9999999
0.9999999
0.9999999
1
1
1
1
1
1
1
1
1
1
1
1
1
1
1
1
1
1
1
1
1
1
0.9999999
0.9999999
1
1
1
1
0.9999999
0.9999998
0.9999999
1
1
1
1
1
0.9999995
0.9999921
0.9999258
0.9997836
0.9998024
0.9999146
0.9999901
0.9999825
0.9998586
0.9988731
0.9972601
0.9980169
0.9992996
0.9999071
0.9999973
1
1
0.9999999
0.9999998
0.9999998
0.9999998
0.9999999
0.9999999
0.9999999
1
1
1
1
1
1
1
1
0.9999999
0.9999999
1
1
1
0.9999999
0.9999998
0.9999998
0.9999999
1
1
1
1
1
1
1
1
1
1
1
0.9999999
0.9999999
0.9999999
1
1
1
1
1
1
0.9999999
0.9999998
0.9999999
1
1
1
1
1
1
1
1
1
1
1
1
1
1
1
0.9999996
0.9999988
0.9999988
0.9999995
0.9999999
1
1
1
1
1
1
1
1
1
1
0.9999999
0.9999999
0.9999999
1
1
1
1
1
1
1
0.9999994
0.9999865
0.9998383
0.9995009
0.9995612
0.999823
0.9999815
0.9999883
0.9999092
0.9985522
0.989196
0.9870571
0.9870567
0.9910302
0.997738
0.9998191
0.9999961
0.9999999
1
1
0.9999997
0.9999958
0.9999337
0.999439
0.9985678
0.998735
0.9994174
0.9999211
1
1
1
1
1
1
1
1
1
1
1
1
1
1
1
1
1
1
1
1
1
1
1
1
1
1
1
1
1
1
1
1
1
1
1
1
1
1
1
1
1
1
1
1
1
1
1
1
1
1
1
1
1
1
1
1
1
1
1
1
1
1
1
1
1
1
1
1
1
1
1
1
1
1
1
1
1
1
1
1
1
1
1
1
1
1
1
1
1
1
1
1
1
1
1
1
1
1
1
1
1
1
1
1
1
1
1
1
1
1
1
1
1
1
1
1
1
1
1
1
1
1
1
1
1
1
1
1
1
1
1
1
1
1
1
1
1
1
1
1
1
1
1
1
1
1
1
1
1
1
1
1
1
1
1
1
1
1
1
1
1
1
1
1
1
1
1
1
1
1
1
1
1
1
1
1
1
1
1
1
1
1
1
1
1
1
1
1
1
1
1
1
1
0.9999999
0.9999999
0.9999999
1
1
1
1
1
1
1
1
1
1
1
1
0.9999999
0.9999991
0.9999881
0.9998062
0.9964729
0.9495121
0.8128582
0.8106154
0.871774
0.9708523
0.9976956
0.9967317
0.9852522
0.9772383
0.9794399
0.9847078
0.992741
0.9986408
0.9998366
0.9999744
0.999997
0.9999998
1
1
1
1
1
1
1
1
0.9999999
1
1
1
1
0.9999999
1
1
1
1
1
1
1
1
1
1
1
1
0.9999999
0.9999999
1
1
1
1
1
1
1
1
1
1
1
1
1
1
1
1
1
1
1
1
1
1
1
1
0.9999999
0.9999999
0.9999999
1
1
1
1
1
1
1
1
1
1
0.9999999
0.9999998
0.9999998
0.9999999
1
1
1
1
1
1
1
1
1
1
1
1
1
1
0.9999999
0.9999999
0.9999999
1
1
1
1
1
1
1
1
0.9999999
0.9999999
1
1
1
1
0.9999999
0.9999999
0.9999999
0.9999999
1
1
1
0.9999999
0.9999999
0.9999999
1
1
1
1
1
0.9999999
0.9999999
1
1
1
1
1
0.9999997
0.999992
0.9998319
0.999405
0.9993992
0.9997214
0.9999666
0.99998
0.9998385
0.9981382
0.9969485
0.9969485
0.9978844
0.9995676
0.9999806
0.9999998
0.9999999
0.9999994
0.9999953
0.9999867
0.9999867
0.9999917
0.9999976
0.9999998
1
1
1
1
1
1
1
1
1
1
1
1
1
1
0.9999997
0.9999996
0.9999996
0.9999998
1
1
1
1
1
1
1
1
1
1
1
1
1
0.9999999
0.9999999
1
1
1
1
0.9999999
0.9999997
0.9999997
0.9999999
1
1
1
1
1
1
1
1
1
1
1
1
1
1
1
0.9999998
0.9999995
0.9999996
0.9999999
1
1
1
1
1
1
1
1
1
1
1
1
1
1
1
1
1
1
1
1
0.9999995
0.9999874
0.9996774
0.9988826
0.998877
0.9994759
0.9999266
0.9999876
0.9999417
0.9992178
0.994124
0.9916293
0.9953479
0.9985222
0.9990675
0.9995345
0.9998792
0.9999901
0.9999998
1
0.9999998
0.9999988
0.9999954
0.9999872
0.9999689
0.9999441
0.9999407
0.9999664
1
1
1
1
1
1
1
1
1
1
1
1
1
1
1
1
1
1
1
1
1
1
1
1
1
1
1
1
1
1
1
1
1
1
1
1
1
1
1
1
1
1
1
1
1
1
1
1
1
1
1
1
1
1
1
1
1
1
1
1
1
1
1
1
1
1
1
1
1
1
1
1
1
1
1
1
1
1
1
1
1
1
1
1
1
1
1
1
1
1
1
1
1
1
1
1
1
1
1
1
1
1
1
1
1
1
1
1
1
1
1
1
1
1
1
1
1
1
1
1
1
1
1
1
1
1
1
1
1
1
1
1
1
1
1
1
1
1
1
1
1
1
1
1
1
1
1
1
1
0.9999999
0.9999999
0.9999999
0.9999999
1
1
1
1
1
0.9999999
0.9999999
0.9999999
0.9999999
0.9999999
1
1
1
1
1
1
1
1
1
1
1
1
1
0.9999999
0.9999999
0.9999999
0.9999999
0.9999999
0.9999999
0.9999999
1
1
1
0.9999999
0.9999999
0.9999999
0.9999999
0.9999999
0.9999996
0.999998
0.9999972
0.9999976
0.9999984
0.9999987
0.9999985
0.9999974
0.9999965
0.9999966
0.9999972
0.9999983
0.9999994
0.9999999
1
1
1
1
1
1
1
1
0.9999986
0.9999581
0.9992695
0.992364
0.9388365
0.8112189
0.826583
0.9169855
0.9839334
0.9932474
0.9905298
0.96601
0.8563973
0.6731134
0.7206573
0.8924719
0.9875939
0.999585
0.9999836
0.999994
0.9999977
0.9999997
1
1
1
1
1
0.9999998
0.9999991
0.9999993
0.9999998
1
1
1
1
1
1
1
1
1
1
1
1
1
1
1
1
1
0.9999999
0.9999999
0.9999999
1
1
1
1
1
1
1
1
1
1
1
1
1
1
1
1
1
1
1
1
1
1
1
1
1
0.9999999
1
1
1
1
1
1
1
1
1
1
1
1
0.9999999
0.9999999
1
1
1
1
1
1
1
1
1
1
1
1
1
1
1
1
0.9999999
0.9999999
0.9999999
1
1
1
1
1
0.9999999
0.9999999
0.9999999
0.9999999
0.9999998
0.9999996
0.9999993
0.9999988
0.9999979
0.9999964
0.9999929
0.999983
0.9999654
0.9999654
0.9999868
0.9999987
1
1
1
1
1
1
1
0.9999999
0.9999999
1
1
1
1
0.9999999
0.9999969
0.9999414
0.9995471
0.9993992
0.9996215
0.9999217
0.9999929
0.9999763
0.9998107
0.9984882
0.9969485
0.9981372
0.9995563
0.9999571
0.9999911
0.9999961
0.9999968
0.9999791
0.9998883
0.9998654
0.9999252
0.9999855
0.9999993
1
1
1
1
1
1
1
0.9999998
0.9999997
0.9999998
0.9999999
1
1
1
0.9999999
0.9999997
0.9999998
0.9999999
1
1
1
1
1
1
1
1
1
1
1
1
1
1
0.9999999
1
1
1
1
0.9999999
0.9999997
0.9999997
0.9999998
1
1
1
1
1
1
1
1
1
0.9999999
0.9999998
0.9999998
0.9999999
1
1
1
1
0.9999999
0.9999999
1
1
1
1
1
1
1
1
1
1
1
1
1
1
1
1
1
1
1
1
0.9999997
0.999994
0.999899
0.9992174
0.998877
0.9993255
0.9998488
0.999983
0.9999841
0.9999707
0.9999456
0.9996484
0.9953165
0.9808928
0.9817243
0.9919395
0.9988232
0.9999609
0.9999998
1
1
0.9999999
0.9999997
0.9999993
0.9999989
0.9999991
0.9999991
0.9999882
1
1
1
1
1
1
1
1
1
1
1
1
1
1
1
1
1
1
1
1
1
1
1
1
1
1
1
1
1
1
1
1
1
1
1
1
1
1
1
1
1
1
1
1
1
1
1
1
1
1
1
1
1
1
1
1
1
1
1
1
1
1
1
1
1
1
1
1
1
1
1
1
1
1
1
1
1
1
1
1
1
1
1
1
1
1
1
1
1
1
1
1
1
1
1
1
1
1
1
1
1
1
1
1
1
1
0.9999999
0.9999999
0.9999999
0.9999999
1
1
1
0.9999999
0.9999998
0.9999996
0.9999996
0.9999995
0.9999993
0.9999992
0.9999992
0.9999994
0.9999996
0.9999996
0.9999994
0.9999991
0.9999986
0.9999978
0.9999962
0.9999951
0.9999953
0.9999968
0.9999985
0.9999989
0.9999988
0.9999985
0.9999974
0.9999944
0.999989
0.9999845
0.999984
0.9999859
0.9999919
0.9999962
0.9999966
0.999996
0.9999928
0.999984
0.9999679
0.999948
0.9999341
0.9999382
0.9999648
0.9999887
0.9999933
0.9999929
0.9999892
0.9999756
0.9999411
0.9999067
0.999904
0.9999161
0.9999547
0.9999894
0.9999958
0.9999956
0.9999937
0.9999884
0.9999794
0.9999735
0.9999733
0.999977
0.999986
0.999988
0.9999862
0.9999747
0.9999251
0.999802
0.9997885
0.9999123
0.999989
0.9999949
0.9999937
0.999986
0.9999491
0.9998838
0.9999042
0.9999728
0.9999943
0.9999941
0.9999872
0.9999601
0.9999172
0.9999018
0.9999126
0.9999167
0.9999167
0.9999112
0.9999109
0.9999153
0.9999264
0.9999473
0.9999715
0.9999878
0.9999954
0.9999986
0.9999998
1
1
1
1
1
0.9999992
0.9999733
0.9992417
0.9854988
0.8626897
0.8070137
0.8512734
0.9596158
0.9893913
0.9893913
0.9714459
0.8915456
0.5593093
0.1396719
0.0622108
0.1754212
0.7402666
0.9816593
0.9997722
0.9999982
0.9999987
0.9999981
0.9999991
0.9999999
1
1
0.9999998
0.9999983
0.9999969
0.9999979
0.9999995
0.9999999
0.9999999
0.9999999
0.9999998
0.9999998
0.9999998
0.9999999
0.9999999
0.9999999
0.9999999
1
1
1
1
1
1
1
1
1
0.9999999
0.9999999
1
1
1
1
1
1
1
1
1
1
1
1
1
1
1
1
1
1
1
0.9999999
0.9999999
0.9999999
1
1
1
1
1
0.9999999
0.9999999
0.9999999
1
1
1
1
1
1
1
1
1
1
1
1
1
1
1
1
1
1
1
1
1
1
1
1
0.9999999
0.9999995
0.9999994
0.9999998
1
1
1
1
0.9999999
0.9999997
0.9999992
0.9999991
0.9999992
0.9999995
0.999999
0.9999928
0.9999673
0.9998981
0.9997228
0.9993009
0.9987483
0.9987812
0.9995031
0.9999418
0.9999978
0.9999999
1
1
1
1
1
1
1
0.9999998
0.9999996
0.9999998
0.9999999
1
1
1
0.999999
0.9999883
0.9999506
0.9999369
0.9999439
0.9999694
0.9999949
0.9999958
0.9999812
0.9999069
0.999721
0.9996989
0.9994747
0.9992615
0.9992596
0.9995145
0.9998706
0.9999341
0.999774
0.9997405
0.9998244
0.9999642
0.9999983
1
1
0.9999999
0.9999997
0.9999995
0.9999997
0.9999997
0.9999995
0.9999995
0.9999996
0.9999999
1
1
1
1
1
1
1
1
1
1
1
1
1
1
1
1
1
1
1
1
1
1
1
1
1
1
1
0.9999998
0.9999997
0.9999999
1
1
1
1
1
1
1
1
1
0.9999999
0.9999996
0.9999996
0.9999998
1
1
1
1
1
1
1
1
1
1
1
1
1
1
1
1
1
1
1
1
1
1
1
1
1
0.9999999
0.9999992
0.999996
0.9999746
0.999917
0.9998578
0.9998646
0.9999252
0.9999873
0.9999985
0.9999972
0.9999608
0.9991825
0.986209
0.9637151
0.9637151
0.9731362
0.9931282
0.9994816
0.9999909
1
1
1
1
0.9999998
0.9999996
0.9999996
0.9999992
0.9997593
1
1
1
1
1
1
1
1
1
1
1
1
1
1
1
1
1
1
1
1
1
1
1
1
1
1
1
1
1
1
1
1
1
1
1
1
1
1
1
1
1
1
1
1
1
1
1
1
1
1
1
1
1
1
1
1
1
1
1
1
1
1
1
1
1
1
1
1
1
1
1
1
1
1
1
1
1
1
1
1
1
1
1
1
1
1
1
1
1
1
1
1
1
1
1
1
1
1
1
1
1
1
1
1
1
1
1
1
1
0.9999999
0.9999994
0.9999982
0.9999959
0.9999934
0.9999926
0.9999928
0.999994
0.9999968
0.9999981
0.9999978
0.999995
0.9999848
0.9999605
0.9999266
0.9999083
0.999908
0.9999209
0.9999556
0.9999811
0.9999837
0.9999791
0.9999501
0.9998634
0.9997227
0.9995642
0.9994635
0.9994668
0.9996187
0.9998576
0.9999355
0.9999332
0.9998978
0.999784
0.9995377
0.9990869
0.998611
0.9985374
0.9987911
0.9993581
0.9997256
0.9997804
0.9997738
0.9997153
0.999463
0.9987554
0.9975777
0.9970297
0.9971992
0.9981439
0.9992767
0.9995992
0.9995936
0.9994679
0.998854
0.9969191
0.9939051
0.9929531
0.9935955
0.9961747
0.9987973
0.999393
0.9993788
0.9991792
0.9983142
0.9958961
0.9924144
0.991435
0.9930086
0.9976175
0.9996773
0.9997866
0.9997562
0.9996273
0.9990901
0.9968457
0.9935248
0.9953272
0.998863
0.9998781
0.999857
0.9995339
0.9972704
0.9904239
0.9912164
0.9971482
0.9997319
0.9999342
0.9999085
0.99965
0.9978126
0.9945355
0.9963086
0.9991578
0.9999356
0.9999346
0.9995631
0.9982862
0.998356
0.999364
0.9998953
0.999903
0.9996981
0.9984473
0.9955856
0.9947932
0.9953141
0.9968052
0.9986862
0.9994953
0.9993879
0.9995706
0.9998564
0.9999819
0.9999994
1
1
1
1
0.9999994
0.9999751
0.999227
0.9844916
0.8555972
0.7891048
0.8311843
0.9544009
0.9892076
0.9869268
0.9421962
0.6642512
0.1761999
0.01500483
0.004052446
0.01130545
0.2142375
0.8077319
0.9898345
0.9999172
0.9999998
0.9999998
0.9999995
0.9999997
0.9999999
0.9999999
0.9999987
0.9999933
0.9999928
0.9999965
0.9999994
0.9999997
0.9999994
0.9999974
0.9999919
0.9999878
0.9999881
0.9999901
0.9999937
0.9999973
0.9999992
0.9999998
1
1
1
1
1
1
1
1
1
1
0.9999999
1
1
1
1
1
1
1
0.9999999
0.9999999
0.9999999
1
1
1
1
1
1
1
1
1
1
0.9999999
1
1
1
1
1
0.9999998
0.9999997
0.9999999
1
1
1
1
1
1
1
1
1
1
1
1
1
1
1
1
0.9999999
0.9999998
0.9999998
0.9999998
0.9999999
0.9999999
0.9999999
0.9999996
0.9999978
0.9999969
0.999998
0.9999996
1
1
1
1
1
0.9999995
0.9999963
0.9999846
0.9999706
0.9999708
0.9999825
0.9999916
0.9999701
0.9995796
0.9954053
0.9776637
0.9749595
0.986277
0.9973539
0.9998562
0.9999968
0.9999999
0.9999999
0.9999998
0.9999994
0.9999978
0.9999975
0.999999
0.9999999
1
1
0.9999995
0.9999992
0.9999996
0.9999999
1
1
0.9999999
0.9999993
0.999998
0.9999976
0.9999978
0.9999985
0.9999994
0.9999996
0.9999995
0.9999993
0.999998
0.9999771
0.999607
0.9962892
0.9911079
0.9933479
0.9979504
0.9997666
0.999945
0.9998511
0.9998696
0.9999583
0.9999962
0.9999969
0.9999929
0.999981
0.9999796
0.9999864
0.9999964
0.9999996
0.9999999
0.9999999
0.9999998
0.9999999
1
1
1
1
1
1
1
0.9999999
0.9999998
0.9999998
0.9999999
1
1
1
1
1
1
1
1
1
1
1
1
1
0.9999999
1
1
1
1
0.9999999
0.9999999
0.9999999
1
1
1
1
1
1
1
1
0.9999997
0.9999996
0.9999996
0.9999998
1
1
1
1
1
1
1
1
1
1
1
1
1
1
1
1
1
1
1
1
1
1
1
0.9999998
0.9999968
0.9999664
0.999884
0.9998977
0.9999681
0.9999951
0.9999985
0.9999985
0.9999985
0.9999985
0.999996
0.9999339
0.9986962
0.9795959
0.9637151
0.9637151
0.9637151
0.9772269
0.9962563
0.9998747
0.9999993
1
1
0.9999999
0.9999991
0.9999887
0.9999856
0.9999778
0.9983634
1
1
1
1
1
1
1
1
1
1
1
1
1
1
1
1
1
1
1
1
1
1
1
1
1
1
1
1
1
1
1
1
1
1
1
1
1
1
1
1
1
1
1
1
1
1
1
1
1
1
1
1
1
1
1
1
1
1
1
1
1
1
1
1
1
1
1
1
1
1
1
1
1
1
1
1
1
1
1
1
1
1
1
1
1
1
1
1
1
1
1
1
1
1
1
1
1
1
1
1
1
1
1
1
1
1
1
1
1
1
1
0.9999999
0.9999993
0.9999957
0.9999836
0.9999581
0.9999331
0.9999284
0.9999315
0.9999458
0.9999669
0.9999731
0.9999643
0.9998972
0.9996159
0.9988506
0.997711
0.9972305
0.9972923
0.9978242
0.9988834
0.9996143
0.9996974
0.9995919
0.998854
0.9958599
0.9886475
0.9832713
0.9835489
0.9879398
0.9952264
0.9985185
0.9986749
0.9985751
0.9978425
0.9931397
0.9772026
0.9540831
0.9479373
0.9582923
0.9827592
0.9943582
0.9951288
0.9954494
0.9949592
0.9896419
0.9715008
0.9379756
0.9224995
0.9332771
0.9604563
0.9751001
0.9813062
0.9873416
0.9888846
0.9872111
0.9778313
0.9463007
0.89895
0.891924
0.9165596
0.964511
0.9875426
0.9875913
0.9813398
0.9643341
0.9349217
0.8620164
0.7981573
0.8175635
0.9110608
0.9818243
0.9849772
0.97769
0.9742869
0.9674821
0.9247611
0.8177063
0.8028367
0.882371
0.9779979
0.9950338
0.9941624
0.9930013
0.9897281
0.9686514
0.9025533
0.912135
0.9738231
0.9977955
0.9989438
0.99805
0.9911505
0.957509
0.9318334
0.9619203
0.9933965
0.9989807
0.9989628
0.998298
0.9935207
0.9743794
0.970182
0.9874183
0.9984916
0.9996422
0.999494
0.9974861
0.9962109
0.9977285
0.9995924
0.9998618
0.9998108
0.9992279
0.9960168
0.9830634
0.9208114
0.8004517
0.8050401
0.8865242
0.9686364
0.995374
0.9993407
0.9998539
0.9999637
0.9999956
0.9999999
1
1
1
0.9999997
0.9999901
0.9996399
0.9877716
0.8568408
0.7930058
0.8366064
0.9559665
0.9869688
0.9775523
0.8766718
0.4040944
0.05710531
0.002370366
0.001069809
0.003947428
0.0570954
0.5212425
0.9372161
0.9982305
0.9999923
1
1
1
0.9999999
0.9999993
0.9999916
0.9999837
0.9999885
0.9999971
0.9999993
0.9999992
0.9999983
0.999994
0.999976
0.9999151
0.9998099
0.9997839
0.9998
0.999847
0.9999087
0.9999579
0.9999845
0.999995
0.9999988
0.9999999
1
1
1
1
1
1
1
1
1
1
1
1
1
0.9999999
0.9999994
0.9999993
0.9999997
1
1
1
1
1
1
1
1
1
1
1
1
1
1
1
0.9999999
0.9999996
0.9999992
0.9999996
0.9999999
1
1
1
1
1
1
0.9999999
0.9999998
0.9999998
0.9999999
0.9999999
1
1
1
0.9999997
0.9999985
0.9999938
0.9999911
0.9999928
0.9999964
0.9999971
0.9999961
0.9999885
0.9999847
0.9999881
0.9999967
0.9999997
1
1
1
1
1
0.9999998
0.9999957
0.9999552
0.9997707
0.9994064
0.9993445
0.9995914
0.9999134
0.9998249
0.9980565
0.9704376
0.9340075
0.9340075
0.9579731
0.992706
0.9997262
0.9999934
0.9999859
0.9999239
0.9998272
0.9998929
0.9999765
0.9999982
0.9999999
1
1
1
0.9999998
0.9999992
0.9999992
0.9999995
0.9999999
1
1
1
0.9999999
0.9999998
0.9999998
0.9999998
0.9999999
1
1
1
0.9999991
0.9999742
0.999503
0.9922359
0.9747679
0.9778366
0.9911059
0.9986225
0.9999401
0.9999803
0.9999803
0.9999757
0.9999482
0.9998249
0.999634
0.9996699
0.9998597
0.9999786
0.999999
1
1
1
1
1
0.9999999
0.9999999
0.9999997
0.9999989
0.9999952
0.9999817
0.9999764
0.9999883
0.9999982
0.9999999
1
1
1
1
1
1
1
1
1
1
1
1
1
1
0.9999999
0.9999999
1
1
1
1
0.9999999
0.9999999
1
1
1
1
1
1
1
1
1
0.9999998
0.9999996
0.9999996
0.9999998
1
1
1
1
1
1
1
1
1
1
1
1
1
1
1
1
1
1
1
1
1
0.9999999
0.9999977
0.999964
0.999715
0.999594
0.9998198
0.9999748
0.9999984
0.9999985
0.9999985
0.9999985
0.9999985
0.9999958
0.9999313
0.9987638
0.9821669
0.9637151
0.9637151
0.9743252
0.9938087
0.9995943
0.9999937
0.9999984
0.999997
0.9999968
0.999996
0.9999904
0.9999486
0.9996644
0.9987014
0.9950144
1
1
1
1
1
0.9999999
1
1
1
1
1
1
1
1
1
1
1
1
1
1
1
1
1
1
1
1
1
1
1
1
1
1
1
1
1
1
1
1
1
1
1
1
1
1
1
1
1
1
1
1
1
1
1
1
1
1
1
1
1
1
1
1
1
1
1
1
1
1
1
1
1
1
1
1
1
1
1
1
1
1
1
1
1
1
1
1
1
1
1
1
1
1
1
1
1
1
1
1
1
1
1
1
1
1
1
1
1
1
1
1
1
1
1
1
1
0.9999999
0.9999995
0.9999977
0.9999937
0.9999904
0.9999889
0.9999874
0.9999843
0.9999798
0.9999724
0.9999245
0.9995683
0.9978523
0.9936219
0.9901348
0.9895544
0.9897617
0.9911681
0.9941745
0.996198
0.9964156
0.9953341
0.9866723
0.9523363
0.8959488
0.8766446
0.8821295
0.909915
0.9518534
0.9800155
0.9874325
0.986421
0.9749819
0.9260043
0.7624699
0.6145675
0.6308133
0.7447316
0.9010403
0.9676834
0.9642722
0.9393069
0.927386
0.9146005
0.7039646
0.2670061
0.261688
0.5488454
0.8538588
0.8850881
0.8606344
0.8577009
0.8834095
0.848233
0.459757
0.1152208
0.1514009
0.4963442
0.7118836
0.6763897
0.6746151
0.7729218
0.8712044
0.7860104
0.3469398
0.08336391
0.0803854
0.1821124
0.4954351
0.7682746
0.8663467
0.86197
0.6484553
0.2005058
0.05687124
0.05393859
0.04953409
0.1769924
0.684944
0.898502
0.8692473
0.5462639
0.1359484
0.05972213
0.05328945
0.05061858
0.1766198
0.7159696
0.9468141
0.9325927
0.7003064
0.2451539
0.1220227
0.1714698
0.5647381
0.9248304
0.9911736
0.9915163
0.9683157
0.7376165
0.4720159
0.5792794
0.8406477
0.970949
0.9912808
0.9886306
0.921484
0.5704822
0.5287853
0.7714024
0.9650277
0.9954199
0.9963017
0.992715
0.9829369
0.9870711
0.9959623
0.9996119
0.9998587
0.9996099
0.9968331
0.9812677
0.9134033
0.5355494
0.1339609
0.08791688
0.09754105
0.201211
0.6740815
0.9597497
0.9984858
0.9999794
0.9999991
0.9999996
0.9999994
0.9999987
0.9999986
0.9999985
0.9999959
0.9999148
0.9974538
0.940563
0.7891048
0.8397203
0.957423
0.9821647
0.9581989
0.7370891
0.2130363
0.01826913
0.0009488431
0.0008583077
0.002060512
0.02794003
0.3537972
0.871174
0.993649
0.9999365
0.9999999
1
1
0.9999995
0.9999929
0.9999736
0.9999808
0.9999934
0.9999962
0.9999963
0.9999953
0.9999884
0.9999574
0.9998472
0.999539
0.9986331
0.9956453
0.9920121
0.992197
0.9938326
0.9962314
0.9980978
0.9992077
0.9998073
0.9999845
0.9999997
1
1
1
1
1
1
1
1
1
1
1
0.9999997
0.9999984
0.9999956
0.9999969
0.9999992
0.9999999
1
1
1
0.9999999
0.9999998
0.9999999
1
1
1
1
0.9999999
1
1
1
0.9999999
0.9999993
0.9999978
0.9999986
0.9999997
1
1
1
1
1
1
0.9999999
0.9999994
0.9999986
0.9999985
0.9999988
0.9999993
0.9999995
0.9999992
0.9999968
0.9999817
0.999925
0.9998842
0.9999293
0.99998
0.9999754
0.9999386
0.9999223
0.9999506
0.9999886
0.9999991
0.9999998
0.9999998
0.9999998
0.9999997
0.9999997
0.9999998
0.9999999
0.9999993
0.9999833
0.9996752
0.9963707
0.9908083
0.9940531
0.9987011
0.9999116
0.9997175
0.9951405
0.9502198
0.9340075
0.9487619
0.9848079
0.9985
0.9995413
0.999418
0.9991313
0.9992488
0.9997341
0.9999577
0.999996
0.9999998
1
1
1
1
1
0.9999998
0.9999992
0.9999992
0.9999995
0.9999999
1
1
1
1
1
1
1
1
1
1
0.9999991
0.9999768
0.9993805
0.9879
0.9747322
0.9747322
0.9772705
0.9926813
0.9994087
0.9999781
0.9999769
0.9998606
0.9990582
0.9974406
0.9978331
0.9992786
0.9999176
0.9999974
1
1
1
1
0.9999999
0.9999997
0.9999988
0.9999937
0.999964
0.999813
0.9996886
0.9998238
0.9999648
0.9999981
1
1
1
1
1
1
1
1
1
1
1
1
1
0.9999999
0.9999999
1
1
1
1
1
1
1
1
0.9999999
1
1
1
1
1
1
1
1
1
1
1
0.9999999
0.9999998
0.9999998
0.9999998
0.9999999
1
1
1
1
1
1
1
1
1
1
1
1
1
1
1
1
1
1
0.9999988
0.9999733
0.9996359
0.9990972
0.9995303
0.999906
0.9999947
0.9999985
0.9999985
0.9999985
0.9999985
0.9999985
0.9999971
0.9999577
0.9992547
0.9920863
0.9814883
0.9865915
0.9959222
0.9996201
0.9999926
0.9999987
0.9999863
0.9998777
0.9997783
0.9997903
0.999723
0.999082
0.9974311
0.9923505
0.9457293
1
1
1
1
1
1
1
1
1
1
1
1
1
1
1
1
1
1
1
1
1
1
1
1
1
1
1
1
1
1
1
1
1
1
1
1
1
1
1
1
1
1
1
1
1
1
1
1
1
1
1
1
1
1
1
1
1
1
1
1
1
1
1
1
1
1
1
1
1
1
1
1
1
1
1
1
1
1
1
1
1
1
1
1
1
1
1
1
1
1
1
1
1
1
1
1
1
1
1
1
1
1
1
1
1
1
1
1
1
1
1
1
1
1
1
1
1
1
1
1
1
1
1
1
1
1
0.9999996
0.9999945
0.9999374
0.9995145
0.9981766
0.9971662
0.9970013
0.9968742
0.9964804
0.9956693
0.9950214
0.9942091
0.9869877
0.9430482
0.8394055
0.7868954
0.7869319
0.7885954
0.8071652
0.8628183
0.8951572
0.8926692
0.8829367
0.8286799
0.5528514
0.2451195
0.2190124
0.250967
0.374818
0.561424
0.7026375
0.790781
0.7937735
0.6000376
0.191494
0.03782338
0.02870315
0.02687693
0.03770278
0.2078668
0.6595541
0.700435
0.4393261
0.1122393
0.02006451
0.01191938
0.009999437
0.009693994
0.01668464
0.09077413
0.2761405
0.2736359
0.1514601
0.03805468
0.01251966
0.01161023
0.01115234
0.01336367
0.02501047
0.05618114
0.07114518
0.0640521
0.04205315
0.02624268
0.02330752
0.01833006
0.02076871
0.03824829
0.04100742
0.03856844
0.03331899
0.02746783
0.02134772
0.02090078
0.04084729
0.07629473
0.07389399
0.04832733
0.03577411
0.03803597
0.04746468
0.05253051
0.04807275
0.04399064
0.04051184
0.0390494
0.05999858
0.08254931
0.07295531
0.06457958
0.06429592
0.04845801
0.05044463
0.05860529
0.05907279
0.06048593
0.1779299
0.4615424
0.4647831
0.29494
0.09605036
0.0718951
0.07189728
0.07189742
0.2446071
0.6924825
0.6417594
0.2612067
0.07262015
0.08935388
0.3996575
0.7243462
0.724564
0.7623633
0.8992682
0.9722144
0.9817989
0.9910141
0.9981486
0.9995553
0.9972023
0.9557736
0.5943858
0.1225334
0.01479653
0.01189657
0.01189657
0.01189657
0.01836582
0.1841418
0.7658126
0.9833476
0.999758
0.9999986
0.9999988
0.9999783
0.9999678
0.9999799
0.9999735
0.9995738
0.9971284
0.9842345
0.9159162
0.9312815
0.9777584
0.9740319
0.9183937
0.5416361
0.1007316
0.005287617
0.0008508236
0.0008508236
0.001196283
0.01253369
0.2044775
0.7760522
0.9844993
0.9997921
0.9999993
0.9999995
0.999998
0.9999873
0.999955
0.9999619
0.9999847
0.9999917
0.9999918
0.9999854
0.9999563
0.9998779
0.9996431
0.9984431
0.991736
0.968508
0.9237511
0.8919967
0.8611382
0.7518053
0.713881
0.7936149
0.9275303
0.990041
0.9995745
0.9999951
1
1
1
1
0.9999999
0.9999999
1
0.9999999
0.9999999
0.9999998
0.9999992
0.9999963
0.9999839
0.9999767
0.9999889
0.9999983
0.9999999
1
1
0.9999998
0.9999993
0.9999993
0.9999998
1
1
1
1
0.9999999
0.9999999
1
1
1
0.9999996
0.9999974
0.9999972
0.9999983
0.9999997
1
1
1
1
1
0.9999998
0.999999
0.9999956
0.9999871
0.9999769
0.9999767
0.9999858
0.9999862
0.9999616
0.9998023
0.9993306
0.9993048
0.9997191
0.9999671
0.9999397
0.999705
0.999736
0.9999126
0.9999913
0.9999997
0.9999998
0.9999998
0.9999998
0.999999
0.9999932
0.9999845
0.9999858
0.999994
0.9999906
0.9998737
0.997952
0.9858206
0.98421
0.9934354
0.9992832
0.9998062
0.9984749
0.9909983
0.9885978
0.9907614
0.9962879
0.9974031
0.9877168
0.9838404
0.989197
0.9959646
0.9991417
0.9999118
0.9999971
0.9999999
1
1
1
1
1
1
1
0.9999998
0.9999993
0.9999992
0.9999996
0.9999999
1
1
1
1
1
1
1
1
1
0.9999997
0.9999928
0.9998732
0.998075
0.9819892
0.9747322
0.9763364
0.9913054
0.9990869
0.9999127
0.9996019
0.9973487
0.9911896
0.9930422
0.9978795
0.9997621
0.9999925
0.9999999
1
1
0.9999999
0.9999997
0.9999986
0.9999913
0.9999423
0.9996023
0.9984295
0.9985223
0.9995047
0.999949
0.9999985
1
1
1
1
1
1
1
1
1
1
1
1
1
1
0.9999999
0.9999999
1
1
1
1
1
1
1
1
0.9999999
0.9999999
1
1
1
1
1
1
1
1
1
1
1
1
0.9999999
0.9999998
0.9999998
0.9999999
0.9999999
1
1
1
1
1
1
1
1
1
1
1
1
1
1
1
0.9999996
0.999987
0.999742
0.9985052
0.9989328
0.9997232
0.9999771
0.9999985
0.9999985
0.9999985
0.9999985
0.9999985