/*--------------------------------*- C++ -*----------------------------------*\
| =========                 |                                                 |
| \\      /  F ield         | foam-extend: Open Source CFD                    |
|  \\    /   O peration     | Version:     3.1                                |
|   \\  /    A nd           | Web:         http://www.extend-project.de       |
|    \\/     M anipulation  |                                                 |
\*---------------------------------------------------------------------------*/
FoamFile
{
    version     2.0;
    format      ascii;
    class       volScalarField;
    location    "15";
    object      k;
}
// * * * * * * * * * * * * * * * * * * * * * * * * * * * * * * * * * * * * * //

dimensions      [0 2 -2 0 0 0 0];

internalField   nonuniform List<scalar> 
119952
(
0.07925851
0.07545711
0.07451988
0.07284251
0.07098705
0.06942887
0.06877291
0.06856168
0.0685766
0.06871286
0.06892288
0.06917093
0.06943837
0.06971788
0.07000703
0.07030414
0.0706092
0.07093103
0.07132177
0.07208559
0.07470559
0.07258308
0.07252427
0.07465998
0.07152497
0.06969858
0.06816346
0.06669828
0.06406782
0.03167731
0.09899916
0.0964348
0.0941091
0.09271025
0.09218983
0.09236124
0.09295366
0.09377779
0.09468471
0.09562781
0.09104816
0.09112979
0.09357102
0.09698217
0.1006168
0.1040424
0.1071151
0.1098015
0.1120701
0.1225984
0.1237112
0.1243758
0.1246263
0.1246907
0.1247245
0.1248268
0.1250055
0.1252458
0.1254443
0.1260571
0.1264018
0.1265367
0.1265912
0.1266123
0.1266168
0.1265911
0.1264561
0.1264037
0.1286868
0.1285596
0.1275808
0.127352
0.1272575
0.1269014
0.1261236
0.1251572
0.1241525
0.1231253
0.1220834
0.1210469
0.1200415
0.1190917
0.1182131
0.1174076
0.1166621
0.11595
0.1152261
0.1144671
0.1138846
0.1134525
0.1126936
0.1124208
0.1130934
0.1134318
0.1134827
0.1137766
0.114006
0.1117461
0.1096663
0.1079635
0.1064067
0.1050674
0.1038635
0.1027796
0.1018316
0.1010149
0.1003321
0.09981107
0.09946988
0.09927714
0.0991992
0.09922834
0.09930533
0.09932493
0.0992325
0.09911092
0.09920519
0.09974382
0.1006326
0.1014101
0.1017361
0.1013462
0.1001587
0.09829903
0.09617183
0.0943094
0.09334285
0.09381357
0.09627479
0.1012959
0.1093451
0.1207483
0.135756
0.1546357
0.1776792
0.2048916
0.2356439
0.2684174
0.3006639
0.3288015
0.3479592
0.35144
0.3291193
0.2901436
0.2600072
0.2501818
0.2478009
0.2362139
0.205789
0.173551
0.1501475
0.1347882
0.1245907
0.1172982
0.1113867
0.1062525
0.1017798
0.09793459
0.09469535
0.09197016
0.08957164
0.08729831
0.08517411
0.08318856
0.08104607
0.07867304
0.07606976
0.07141336
0.06677152
0.072695
0.08321031
0.0921911
0.09459352
0.09057391
0.0844647
0.07878681
0.07486698
0.07287737
0.07174931
0.07047681
0.06871661
0.06667985
0.06472479
0.0631128
0.06187426
0.06093596
0.0602214
0.05959217
0.05898912
0.05841724
0.0578742
0.05735693
0.05686088
0.05638596
0.05592888
0.05549222
0.05503385
0.05291218
0.04962394
0.04799638
0.04691807
0.04606116
0.04531941
0.04465586
0.0440531
0.04349703
0.04297525
0.04247669
0.04198775
0.04147379
0.04094584
0.04043276
0.03991688
0.03939992
0.03888815
0.03838727
0.0379018
0.03743484
0.0369982
0.03658956
0.03620394
0.03584134
0.03550241
0.03518904
0.03490319
0.03464451
0.03441179
0.03420409
0.0340212
0.03386349
0.03373113
0.03361837
0.03345962
0.03370107
0.03405674
0.0344321
0.0347977
0.035148
0.03549102
0.0358563
0.03627328
0.03646463
0.03537055
0.03609956
0.04127549
0.0451602
0.04734631
0.048338
0.04818399
0.04695746
0.04474028
0.04168236
0.03834547
0.03524809
0.03257613
0.0304071
0.02875584
0.02751232
0.02652081
0.0257253
0.02514452
0.02482246
0.02480401
0.02508659
0.02563119
0.02649662
0.0276866
0.03399793
0.03609061
0.03851228
0.04121228
0.04427133
0.04760326
0.0510385
0.05447354
0.05784956
0.0611587
0.06447987
0.06773742
0.07085163
0.07377123
0.07643157
0.07875623
0.08066764
0.08209948
0.08300787
0.08337771
0.08322116
0.08256586
0.08144134
0.07987978
0.07792091
0.07560944
0.07298972
0.07010882
0.06702786
0.06382524
0.06059044
0.05741237
0.05436552
0.05150287
0.04885489
0.0464354
0.04424133
0.04226515
0.04049731
0.0389289
0.03755655
0.03636244
0.03531564
0.03439075
0.03356969
0.03283247
0.03214363
0.03150426
0.03090943
0.03035325
0.02983192
0.02934308
0.02888771
0.02849904
0.02822639
0.02778007
0.02735047
0.02695754
0.02659073
0.02624746
0.02592787
0.02562807
0.02534442
0.02507682
0.02482481
0.02458791
0.02436664
0.0241621
0.0239784
0.02382152
0.02369631
0.0236096
0.02356952
0.02358482
0.02366409
0.023815
0.02404258
0.0243475
0.02472885
0.02518465
0.02571201
0.02630671
0.02696301
0.02767395
0.02843183
0.02922869
0.03005705
0.0309108
0.03178657
0.03268437
0.03360164
0.03453676
0.03548699
0.03644573
0.03740694
0.03836619
0.03932027
0.04026615
0.0412007
0.04212057
0.04302158
0.04389889
0.04474728
0.04556077
0.04633254
0.04705518
0.04772106
0.04832276
0.04885338
0.04930662
0.04967686
0.04995897
0.050148
0.05023872
0.05022522
0.0501005
0.04985655
0.04948588
0.04898464
0.04835786
0.04762645
0.04683368
0.04604352
0.04532003
0.04469645
0.04416452
0.04368762
0.04322278
0.04273509
0.04220012
0.04160181
0.0409312
0.04018735
0.03937712
0.03851658
0.03762124
0.0366891
0.03578492
0.03548179
0.1011119
0.09513143
0.09948703
0.1063813
0.1129824
0.1185778
0.1231623
0.1269066
0.1301108
0.1323576
0.1404431
0.1502463
0.1597127
0.1679107
0.1746555
0.1800392
0.1842865
0.1876138
0.21223
0.2123293
0.2122356
0.2117126
0.2110121
0.2103012
0.2096669
0.2091222
0.208644
0.2080834
0.2077619
0.2073031
0.2064661
0.2054512
0.2043798
0.2033047
0.2022422
0.2011913
0.200124
0.1992546
0.198456
0.1973516
0.1961237
0.1948975
0.1937032
0.1925459
0.1914167
0.1902932
0.189173
0.1880971
0.1869679
0.1858658
0.1848157
0.1838093
0.1828424
0.1818985
0.1809577
0.1800248
0.1890112
0.1877503
0.1865046
0.185328
0.1842135
0.1831593
0.1821619
0.1812052
0.1802722
0.1793184
0.1783307
0.1773464
0.1763708
0.1754084
0.1744755
0.1735813
0.1727395
0.1720095
0.171529
0.1710624
0.1701508
0.1691608
0.1683163
0.1674442
0.1664247
0.1652982
0.1641098
0.1628701
0.1615616
0.1601771
0.1587289
0.1572499
0.1557823
0.1543636
0.1530127
0.1517301
0.1505034
0.1493295
0.1482314
0.1472439
0.1463317
0.1455677
0.1451521
0.1449613
0.1446566
0.1442158
0.1435276
0.1422788
0.1405732
0.1390082
0.1376035
0.136215
0.1348199
0.1334212
0.1320387
0.1307071
0.1294709
0.1283993
0.1275708
0.1270214
0.1267489
0.1267448
0.1269394
0.1271754
0.1272621
0.1270288
0.1264022
0.1254436
0.1242916
0.1230718
0.1218466
0.1206086
0.1193049
0.1179272
0.1165977
0.1155962
0.1153389
0.116456
0.1198795
0.1264474
0.1368727
0.1516286
0.1709211
0.1947973
0.2232538
0.2561732
0.2932244
0.3335339
0.3756176
0.417119
0.4545661
0.4833004
0.4977845
0.4918706
0.4656493
0.4260123
0.3818632
0.3421509
0.3111409
0.2884228
0.269042
0.2493913
0.2287348
0.2077364
0.187571
0.1696124
0.1546982
0.1430708
0.1344259
0.1282539
0.124066
0.1213496
0.1196708
0.1187434
0.118186
0.1175954
0.116622
0.1144629
0.1102553
0.105165
0.1010844
0.09906543
0.09911533
0.1008166
0.103635
0.1071124
0.1108269
0.1145331
0.1179045
0.1203227
0.1211935
0.1203999
0.1183455
0.1156016
0.1126101
0.1096124
0.1066983
0.1038643
0.1012325
0.09886959
0.09672476
0.09476306
0.09294967
0.09127351
0.08970352
0.08825887
0.08689951
0.08574686
0.08314668
0.08039399
0.07868642
0.07751644
0.07660857
0.07583057
0.07511892
0.07444094
0.07377754
0.07311559
0.07244522
0.07175777
0.07104322
0.070297
0.06952331
0.06872488
0.0679039
0.06706381
0.06620935
0.06534613
0.06447985
0.06361603
0.06276035
0.06191804
0.06109379
0.06029167
0.05951504
0.05876592
0.05804688
0.05735999
0.05670675
0.05608796
0.05550336
0.05494987
0.05442327
0.05393378
0.05353111
0.05322122
0.05298148
0.05280819
0.05270047
0.05265257
0.05265596
0.05266573
0.05255135
0.0519059
0.05075979
0.04996398
0.04965764
0.04975016
0.05035392
0.05169786
0.0539376
0.05683886
0.05972838
0.06206889
0.06330715
0.0630564
0.06144726
0.05901845
0.05627226
0.05364324
0.05139273
0.04969462
0.04870806
0.04855562
0.04928781
0.05086949
0.05319006
0.05609375
0.06584468
0.06930262
0.07267687
0.07586778
0.07884881
0.08166422
0.0843824
0.08707838
0.08982045
0.09266107
0.09563338
0.09876692
0.1019873
0.1052034
0.1083025
0.1111547
0.1136251
0.1155914
0.1169629
0.1176858
0.1177368
0.1171444
0.1159324
0.1141321
0.1117912
0.1089691
0.1057219
0.1020908
0.0981439
0.09397831
0.08970006
0.08540942
0.08119021
0.0771089
0.07321211
0.06952981
0.06607767
0.06286129
0.05987974
0.05712823
0.05460695
0.05231049
0.05022242
0.0483276
0.04661133
0.04505775
0.04365168
0.04238276
0.04124043
0.04021419
0.03929176
0.03846369
0.03771783
0.03705812
0.03648391
0.03595458
0.03545981
0.03500847
0.03460372
0.03424239
0.0339209
0.03363625
0.03338479
0.03316286
0.03296739
0.03279612
0.03264789
0.03252297
0.03242348
0.03235352
0.0323191
0.03232783
0.03238858
0.03251106
0.03270493
0.0329789
0.03334028
0.0337954
0.03434939
0.03500427
0.03575797
0.03660468
0.03753548
0.03853903
0.0396022
0.04071083
0.04185042
0.0430068
0.04416684
0.04531927
0.0464547
0.04756496
0.04864978
0.04971559
0.05076002
0.0517793
0.0527719
0.05373759
0.05467671
0.05558943
0.05647526
0.05733275
0.05815918
0.05895028
0.05970012
0.0604014
0.06104609
0.06162611
0.06213376
0.06256187
0.06290395
0.0631542
0.06330736
0.06335862
0.06330303
0.0631346
0.06284591
0.06242933
0.06188009
0.06120128
0.06041102
0.05954899
0.05867185
0.05783098
0.05705514
0.05634519
0.05568036
0.05503168
0.05437177
0.0536778
0.05293256
0.05212484
0.05124937
0.05030738
0.0493053
0.04825433
0.04716564
0.04608715
0.04508565
0.05762916
0.06225628
0.06764933
0.07352197
0.07992782
0.08699888
0.09497368
0.1042727
0.1156519
0.1293846
0.1906446
0.2076789
0.224878
0.2416161
0.257377
0.2711977
0.2847303
0.300484
0.3266155
0.3932072
0.4043325
0.4131232
0.4204065
0.4260409
0.4304282
0.4336192
0.4356353
0.4364484
0.4364479
0.4356997
0.4354338
0.4348849
0.433555
0.4313606
0.4284128
0.4248608
0.4208394
0.4167897
0.4104938
0.4045845
0.3990249
0.3937499
0.3887268
0.3838888
0.379169
0.3745181
0.3699175
0.3654001
0.3607716
0.3560433
0.3512564
0.3464134
0.3415656
0.3367721
0.3320724
0.32748
0.3357439
0.331481
0.3271697
0.3228875
0.3186637
0.3144873
0.3103603
0.3062859
0.3022889
0.2983754
0.294523
0.2907795
0.2871863
0.2837305
0.280401
0.2771872
0.2740658
0.2710136
0.2680148
0.2650257
0.2620451
0.2591413
0.2563457
0.2536722
0.2511327
0.2487217
0.246411
0.2441529
0.2418887
0.239611
0.2373353
0.2350739
0.2328661
0.2307577
0.2287723
0.2269063
0.2251145
0.2233075
0.2214199
0.2195094
0.217587
0.2156764
0.213823
0.212067
0.210432
0.2089167
0.2074891
0.2061014
0.2047246
0.2033445
0.2019626
0.2006046
0.1993094
0.1981092
0.1970311
0.1960895
0.1952763
0.1944935
0.1935694
0.1924911
0.1913659
0.1902278
0.1890665
0.1878797
0.1866579
0.1853854
0.1840281
0.1825541
0.1809607
0.1792849
0.1775903
0.1759388
0.1743704
0.1728955
0.1715058
0.1701882
0.1689454
0.1677927
0.1667481
0.1658472
0.1651305
0.1645551
0.1639881
0.1632816
0.1623247
0.1610029
0.159405
0.1577513
0.1561374
0.1545376
0.1529317
0.1513172
0.1497104
0.1481529
0.1467093
0.145468
0.1445405
0.144012
0.143909
0.1442197
0.1448542
0.1456098
0.1462467
0.146533
0.1462968
0.1454836
0.1441502
0.1424187
0.1404235
0.1382715
0.1360517
0.1338925
0.1320152
0.1307585
0.1306089
0.132242
0.1365943
0.1447373
0.1574442
0.1752085
0.1981924
0.2263316
0.2595657
0.297883
0.3409848
0.3877964
0.4364704
0.4842963
0.5274223
0.5614516
0.5813867
0.5819329
0.5614542
0.5243243
0.4770385
0.4274042
0.3811612
0.3415847
0.3088936
0.2813348
0.2567777
0.233818
0.2122344
0.1926122
0.1756276
0.1617131
0.1511022
0.1436761
0.1389834
0.1363845
0.135322
0.1353608
0.1359487
0.1365295
0.1366573
0.1357078
0.1330099
0.1290142
0.1246047
0.1203989
0.1167426
0.1137747
0.1116721
0.1106589
0.1109196
0.1125175
0.1150529
0.1180686
0.121149
0.1238806
0.1259426
0.1271352
0.1273845
0.1267322
0.1253063
0.1232738
0.1207769
0.1179947
0.1151517
0.1123683
0.1096854
0.1071284
0.1047034
0.1024227
0.100289
0.09833186
0.0966577
0.09512248
0.09375641
0.09253673
0.09144798
0.09047499
0.08960026
0.0888048
0.08806879
0.08737238
0.08669632
0.08602251
0.08533549
0.0846243
0.08388208
0.08310483
0.08229108
0.08144173
0.08055987
0.07965033
0.0787192
0.07777329
0.07681984
0.0758662
0.07491959
0.07398688
0.07307451
0.07218835
0.0713335
0.07051427
0.06973384
0.06899475
0.0682977
0.06764569
0.06704381
0.06650975
0.06606113
0.06570061
0.06542929
0.06524896
0.06515653
0.06514776
0.06520922
0.06528206
0.06527372
0.06513013
0.06492497
0.06472697
0.06450653
0.06421771
0.06386664
0.06353009
0.06333933
0.06345851
0.06406769
0.06532309
0.06727992
0.06971891
0.07232134
0.07464588
0.07610956
0.07633488
0.07546252
0.07400885
0.072583
0.07179776
0.07192984
0.07306238
0.07507818
0.07778036
0.08083685
0.08400669
0.08712347
0.09006289
0.09274066
0.09514929
0.09735637
0.09946727
0.1015936
0.1038311
0.1062445
0.1088827
0.1117412
0.1147496
0.117796
0.1207378
0.123419
0.1256888
0.1274288
0.1285718
0.1290608
0.1289028
0.1281043
0.1266828
0.1246705
0.1221185
0.1190916
0.1156365
0.1118023
0.1076542
0.1032993
0.09884879
0.09439901
0.09002737
0.08579248
0.08173544
0.07788232
0.07424731
0.07083561
0.06764541
0.06466974
0.06191476
0.0593713
0.05702893
0.05487691
0.05290382
0.05109936
0.04945402
0.04795878
0.04660462
0.04538152
0.04428013
0.04328973
0.04240354
0.04160589
0.04088531
0.04024025
0.0396686
0.03916411
0.03871963
0.03832955
0.03798971
0.03769654
0.0374467
0.0372373
0.03706605
0.03693137
0.03683271
0.03677085
0.03674806
0.03676814
0.03683648
0.03695986
0.03714617
0.03740379
0.03774108
0.03816564
0.03868453
0.03930328
0.04002476
0.0408484
0.04176941
0.04277974
0.04386795
0.04501997
0.04621983
0.04745058
0.04869522
0.04993762
0.0511625
0.05235724
0.05351177
0.05461857
0.05567252
0.05668032
0.0576436
0.0585632
0.05944186
0.06028322
0.06109099
0.06186779
0.06261557
0.0633346
0.06402321
0.06467759
0.06529158
0.06585815
0.0663699
0.06681971
0.06720094
0.06750768
0.06773451
0.06787651
0.06792941
0.06788992
0.06775386
0.06751485
0.0671648
0.06669612
0.06610558
0.06540054
0.06460649
0.06376621
0.0629276
0.0621308
0.06139376
0.06070804
0.0600487
0.05938781
0.05870138
0.05797119
0.05718436
0.05633524
0.05542054
0.05444508
0.0534178
0.05235383
0.05128555
0.05029832
0.04337315
0.04912692
0.05427166
0.08340661
0.112969
0.1496778
0.174359
0.1990839
0.2224383
0.2442031
0.2631991
0.2796037
0.2955844
0.3119246
0.3284365
0.3451487
0.3620458
0.3788137
0.3950639
0.4108511
0.4261031
0.4406146
0.4545853
0.4681086
0.4811024
0.4935107
0.5052246
0.5162631
0.526605
0.5360046
0.5450754
0.5775029
0.5802805
0.5815999
0.5814353
0.5800042
0.5774642
0.5739237
0.5694773
0.5642861
0.5585945
0.5524457
0.5459524
0.5392274
0.5323549
0.5253924
0.5183904
0.5113878
0.504417
0.4974803
0.4905478
0.483656
0.4767598
0.4698447
0.4628933
0.4557944
0.4486614
0.4415807
0.4346133
0.4277791
0.4210622
0.4144436
0.4078956
0.4013985
0.3949765
0.3886439
0.3824814
0.3764485
0.3702052
0.3642823
0.3586679
0.3533015
0.3481323
0.3431241
0.3382526
0.3335021
0.3288622
0.3243277
0.3199041
0.3156216
0.3115073
0.3075774
0.3038387
0.3002832
0.2968802
0.2935788
0.290322
0.2870685
0.2838103
0.2805753
0.2774151
0.27439
0.2715538
0.2689276
0.266477
0.264125
0.2617853
0.2594004
0.2569541
0.2544713
0.2520227
0.2496922
0.2475433
0.2455794
0.2437591
0.2419807
0.2401735
0.2382867
0.2363055
0.234264
0.232242
0.2303287
0.2285867
0.2270267
0.2256098
0.2242689
0.2229367
0.2215706
0.220175
0.2187986
0.2175069
0.2163519
0.2153632
0.2145379
0.2138253
0.2131289
0.2123152
0.2113115
0.2101732
0.2089871
0.207804
0.2066471
0.205512
0.2043531
0.2030973
0.20167
0.2000426
0.1982588
0.1964146
0.1946102
0.1929112
0.1913374
0.1898751
0.1884987
0.1871904
0.1859561
0.1848194
0.1838056
0.18294
0.1822093
0.1815199
0.1807146
0.1796642
0.1783093
0.1767055
0.1749928
0.173264
0.1715318
0.1697837
0.1680192
0.1662677
0.1645919
0.1630901
0.1619029
0.1611902
0.1610877
0.1616464
0.1627982
0.1643605
0.1660781
0.1676538
0.168779
0.1691998
0.1687825
0.1675267
0.1655447
0.1630155
0.1601313
0.1570887
0.1541226
0.1515425
0.1497683
0.1493859
0.1511862
0.1561355
0.1654105
0.1798339
0.199891
0.225713
0.2573982
0.295168
0.3389888
0.387947
0.440345
0.4937843
0.5447617
0.5893006
0.6241429
0.6457944
0.6499303
0.6342312
0.6002252
0.5535745
0.5015042
0.449838
0.4024864
0.3612115
0.325736
0.2946702
0.2667913
0.2415945
0.2191905
0.1999613
0.1842207
0.1720537
0.1633378
0.1577817
0.154896
0.154038
0.1545495
0.155791
0.1570798
0.1579069
0.15769
0.1558099
0.1524345
0.1482114
0.1435336
0.1385388
0.1334372
0.1285744
0.1242726
0.1207756
0.1182832
0.1169135
0.1166844
0.1175004
0.1191424
0.1211396
0.1231072
0.1248095
0.1260498
0.1266893
0.1266571
0.1259474
0.1246086
0.1227134
0.1203906
0.1178084
0.1151111
0.112402
0.109757
0.1072337
0.1048688
0.1027365
0.1008209
0.09911548
0.09761267
0.09630458
0.09517579
0.09420448
0.09336562
0.0926327
0.09197848
0.09137573
0.09079834
0.09022316
0.08963147
0.08900917
0.08834628
0.08763678
0.08687838
0.08607215
0.08522196
0.08433384
0.08341532
0.08247489
0.0815216
0.08056471
0.07961348
0.07867695
0.07776361
0.07688123
0.07603665
0.07523566
0.07448331
0.07378389
0.07314226
0.07256597
0.07206544
0.07165332
0.07133664
0.07111856
0.07100009
0.07097934
0.07105377
0.07120817
0.07141034
0.07161466
0.07179294
0.07197181
0.07217391
0.07236611
0.07248685
0.07248387
0.07233112
0.07202955
0.07161514
0.07118226
0.07089452
0.07096379
0.07162517
0.07309367
0.07537812
0.07806345
0.08072804
0.08283088
0.0840033
0.08434577
0.08432263
0.08443702
0.08514054
0.08662485
0.08884738
0.09159576
0.09454566
0.09744438
0.1001214
0.1024687
0.1044459
0.1061033
0.1075537
0.1089456
0.1104219
0.112097
0.1140437
0.1163052
0.1188465
0.1215718
0.1243405
0.1269875
0.1293453
0.1312541
0.1326377
0.1334791
0.133755
0.1334522
0.1325626
0.1310856
0.1290371
0.1264576
0.123412
0.1199637
0.1161449
0.1120421
0.1077604
0.1034008
0.09904769
0.09476839
0.09061415
0.08662109
0.08281231
0.0792005
0.07579036
0.07258013
0.06957123
0.06676425
0.06415291
0.06173011
0.05948773
0.05741808
0.05551273
0.05376377
0.05216356
0.05070407
0.04937729
0.04817458
0.04708761
0.04610839
0.04522953
0.04444329
0.04374193
0.04311823
0.04256595
0.04208004
0.0416564
0.04129154
0.04098222
0.04072556
0.04051911
0.04036109
0.04025046
0.04018717
0.04017234
0.04020836
0.04029905
0.04044953
0.04066613
0.04095591
0.04132617
0.04178396
0.04233575
0.04298677
0.04373992
0.04459497
0.04554802
0.0465914
0.04771387
0.04890106
0.05013617
0.05140085
0.05267619
0.05394374
0.05518639
0.05638916
0.05753983
0.05862885
0.05964938
0.06059869
0.06148348
0.06230736
0.06307572
0.06379512
0.06447228
0.06511333
0.06572334
0.06630589
0.06686245
0.06739187
0.06789029
0.06835209
0.06877144
0.06914278
0.06946054
0.06971977
0.06991589
0.07004435
0.07010162
0.07008588
0.06999521
0.069825
0.06956753
0.06921309
0.06875176
0.06817788
0.06749893
0.06674209
0.06595473
0.06519005
0.06448105
0.06382935
0.06321302
0.06260205
0.06196941
0.06129555
0.06056783
0.05978073
0.05893157
0.05802469
0.05706744
0.05607735
0.0550821
0.05417761
0.02121463
0.02370505
0.02611947
0.03490316
0.046602
0.06642191
0.08046611
0.09546225
0.1116819
0.128224
0.145417
0.1643917
0.1847629
0.2057211
0.2276624
0.2524192
0.2904633
0.3083571
0.3265354
0.3449995
0.3639343
0.3825332
0.4002615
0.4172303
0.4338367
0.450144
0.4658884
0.4813233
0.4964409
0.5111771
0.5254401
0.5390834
0.5519569
0.5638556
0.5746901
0.5843619
0.5929044
0.6002386
0.6063756
0.6115176
0.6149702
0.6159995
0.6121087
0.6078624
0.6026909
0.5964505
0.5892699
0.581334
0.5728407
0.5639819
0.5549313
0.5458608
0.5368643
0.5279954
0.5193012
0.5108318
0.5026364
0.4947564
0.4872283
0.4800674
0.4732581
0.4667413
0.4604477
0.4542843
0.4481793
0.4420885
0.436041
0.4299696
0.42384
0.4178234
0.4120069
0.4063966
0.400942
0.395571
0.3902206
0.3848713
0.3795326
0.3742638
0.369097
0.3640553
0.3592201
0.3546263
0.350241
0.3460144
0.3419018
0.3378665
0.3338813
0.3299279
0.3260032
0.3221223
0.3183214
0.3146534
0.3111712
0.3079053
0.3048556
0.3019844
0.2992161
0.2964603
0.293648
0.2907511
0.2877921
0.2848496
0.2820346
0.2794485
0.2771446
0.2750877
0.273163
0.2712352
0.2691997
0.2670165
0.2647186
0.2624072
0.2602174
0.2582641
0.256579
0.2550963
0.2536911
0.2522362
0.2506391
0.2488712
0.2469795
0.2450817
0.2433188
0.241794
0.2405331
0.2394819
0.2385385
0.2375958
0.2365857
0.2355147
0.2344632
0.233538
0.2328103
0.2322996
0.2319725
0.2317337
0.2314284
0.2309044
0.2301042
0.2290954
0.2280028
0.2269269
0.2259213
0.2249748
0.224003
0.222892
0.2215252
0.2198498
0.2179259
0.2158958
0.2139089
0.212063
0.210385
0.2088483
0.2074089
0.2060266
0.2046976
0.2034515
0.202322
0.201329
0.2004653
0.1996582
0.1987539
0.1976004
0.1961471
0.1944543
0.1926373
0.1907873
0.1889406
0.1871062
0.1853056
0.1836022
0.1821205
0.1810441
0.1806097
0.1810845
0.1826605
0.1852769
0.1886154
0.1922321
0.1956522
0.1984194
0.2001655
0.2006573
0.1998491
0.1978631
0.1948904
0.1911778
0.1870077
0.1826827
0.1785424
0.1749827
0.1725039
0.1717865
0.1737203
0.179355
0.189842
0.2059989
0.2282878
0.257089
0.292775
0.335447
0.3846776
0.4391774
0.4965245
0.5526331
0.6027642
0.6440168
0.6755439
0.6954431
0.6999977
0.6872005
0.6573145
0.613612
0.561948
0.5083809
0.4576554
0.4120238
0.3717263
0.3360364
0.3041805
0.2757468
0.2507344
0.2293911
0.2119775
0.1985839
0.1890716
0.1830814
0.1800181
0.1791475
0.1797506
0.1810944
0.1824229
0.1831352
0.1827201
0.1807646
0.1773367
0.172836
0.1675514
0.1616503
0.1553557
0.1489429
0.1426663
0.1367672
0.1314985
0.1270819
0.1236558
0.1212613
0.1198508
0.119288
0.119401
0.1199958
0.1208466
0.1217097
0.1223078
0.1224916
0.122196
0.121397
0.1201141
0.1184009
0.1163373
0.1140231
0.1115737
0.1090948
0.1066946
0.1044522
0.1024079
0.1005821
0.09898585
0.09761746
0.09646414
0.09550525
0.09471523
0.09406496
0.09352258
0.09305467
0.09262825
0.09221328
0.09178434
0.09132105
0.09080828
0.09023609
0.08959965
0.08889863
0.08813657
0.08731998
0.08645746
0.08555929
0.08463644
0.08370045
0.0827634
0.08183703
0.08093279
0.08006143
0.07923273
0.0784554
0.07773713
0.07708473
0.07650474
0.0760046
0.07559278
0.0752785
0.07506898
0.07496844
0.07497804
0.07509618
0.0753158
0.07562997
0.07602455
0.07647669
0.07697753
0.07753688
0.07815154
0.07878749
0.07938779
0.07988554
0.0802127
0.08030403
0.08011052
0.07963062
0.07893553
0.07816839
0.07753776
0.07731187
0.07778276
0.07920509
0.08161484
0.08457104
0.08760118
0.09015614
0.09197378
0.09324116
0.09439047
0.0957995
0.09765366
0.09992515
0.1024275
0.1049343
0.1072505
0.1092335
0.1108141
0.1119885
0.1128284
0.1134957
0.1141639
0.1149915
0.1160959
0.1175583
0.1193908
0.1215301
0.1238528
0.1261944
0.1283651
0.1301983
0.1316529
0.1326982
0.1333158
0.1334863
0.1331807
0.1323619
0.130999
0.129086
0.1266497
0.1237438
0.1204228
0.1167714
0.1128803
0.1088435
0.104745
0.1006534
0.09662513
0.09270364
0.08891951
0.08529256
0.08183405
0.07854876
0.07543854
0.07250887
0.06975944
0.06718766
0.06478882
0.06255784
0.0604877
0.05857146
0.05680218
0.05517298
0.05367715
0.05230808
0.05105947
0.04992533
0.04889904
0.0479735
0.04714223
0.04639948
0.04573986
0.04515827
0.04465003
0.04421099
0.04383738
0.04352585
0.04327355
0.04307814
0.04293802
0.04285239
0.0428215
0.04284681
0.04293105
0.04307827
0.04329372
0.0435835
0.04395417
0.04441229
0.04496392
0.04561389
0.04636498
0.04721713
0.04816683
0.0492069
0.05032646
0.05151125
0.05274419
0.05400626
0.05527745
0.05653784
0.05776857
0.05895278
0.06007626
0.06112785
0.06209944
0.06298591
0.06378836
0.06451333
0.06516805
0.06576136
0.06630266
0.06680108
0.06726495
0.06770127
0.06811504
0.06850851
0.06888075
0.06922852
0.06954786
0.06983473
0.07008434
0.0702929
0.07045756
0.07057494
0.07064228
0.07065876
0.0706242
0.07053609
0.07038813
0.07017035
0.06986866
0.06946474
0.06894406
0.06831605
0.06762836
0.06694856
0.06632375
0.06575979
0.0652322
0.06470773
0.06415851
0.06356604
0.06291945
0.06221456
0.06145033
0.06063164
0.05976593
0.05887219
0.05797658
0.057178
0.009010284
0.01050145
0.01164994
0.01733461
0.02389999
0.03255412
0.03971204
0.04784401
0.05669542
0.06617674
0.07662861
0.08900185
0.1026438
0.1179725
0.1364287
0.1649554
0.1802476
0.1964155
0.2129159
0.2296948
0.246666
0.2636875
0.2805911
0.2972368
0.3134455
0.3291744
0.3445879
0.3614195
0.3784875
0.3960537
0.4141043
0.432097
0.4495408
0.4663483
0.4823135
0.4973534
0.5118109
0.5257449
0.5391421
0.5519143
0.5639259
0.5749972
0.5849152
0.5935685
0.6008496
0.6065495
0.6107045
0.6127199
0.6123101
0.6099788
0.605653
0.5992543
0.5905743
0.5805764
0.5694142
0.5574068
0.5449026
0.5322087
0.5195928
0.5072824
0.4954532
0.484222
0.4736455
0.4637272
0.4544409
0.4457641
0.4376887
0.4302302
0.4234255
0.4172927
0.411817
0.4069081
0.4024536
0.3982752
0.3942279
0.3902046
0.3859571
0.3816084
0.3773128
0.373253
0.3695288
0.3661302
0.3629518
0.3598452
0.3566813
0.3533913
0.3499725
0.3464809
0.343009
0.339645
0.3364589
0.3334845
0.330705
0.3280677
0.3255059
0.3229595
0.3203822
0.3177411
0.3150254
0.3122536
0.3094789
0.3067837
0.3042538
0.3019494
0.2998872
0.2980226
0.2962465
0.2944307
0.2924736
0.2903357
0.2880518
0.2857276
0.283518
0.2815774
0.2799871
0.2786971
0.2775471
0.2763493
0.2749637
0.2733371
0.2715139
0.2696303
0.2678795
0.2664306
0.2653307
0.2644803
0.2637055
0.2628408
0.2617724
0.260469
0.2590117
0.2575783
0.2563787
0.2555602
0.2551403
0.2550096
0.2550121
0.2549821
0.254818
0.2545642
0.254381
0.2544468
0.2548515
0.2555598
0.2564273
0.2572296
0.2576924
0.2576159
0.2570171
0.2560983
0.2551047
0.2542028
0.2534198
0.2526722
0.2518143
0.2506714
0.2491064
0.2470863
0.2447296
0.2422542
0.2398677
0.237693
0.2357543
0.2340078
0.2323922
0.2308483
0.2293653
0.2279755
0.2267123
0.2255798
0.2245481
0.223538
0.2223875
0.2209415
0.2191629
0.217148
0.2150269
0.2129019
0.2108395
0.2089009
0.2071828
0.205858
0.2052104
0.2056348
0.2075777
0.2114226
0.2172966
0.2247867
0.2328899
0.2405069
0.2466745
0.2506338
0.2519918
0.2507826
0.2473972
0.2423768
0.2362878
0.2295699
0.222597
0.215759
0.2094791
0.2042258
0.2005741
0.1992898
0.2013445
0.2078371
0.2198805
0.2382359
0.2635224
0.2962965
0.3368172
0.3850587
0.4402774
0.5003473
0.5609476
0.6164928
0.6638698
0.703037
0.733575
0.7528504
0.755738
0.741415
0.7115031
0.6678734
0.6152259
0.5594279
0.50556
0.4567169
0.4135409
0.3752541
0.3411174
0.3107732
0.2842529
0.2617883
0.2436425
0.2299136
0.2204186
0.2146835
0.2119576
0.2113386
0.2120055
0.213193
0.2140994
0.2140901
0.2127541
0.2098578
0.2054854
0.1999452
0.1935267
0.1864338
0.178894
0.1711517
0.1634298
0.1559377
0.1488823
0.1424435
0.1367489
0.1318795
0.1278778
0.1247425
0.1224276
0.1208402
0.1198436
0.1192688
0.1189256
0.1186348
0.1182418
0.1176261
0.11671
0.1154607
0.1138925
0.1120659
0.1100512
0.1079382
0.1058215
0.1037815
0.1018798
0.10016
0.0986494
0.0973598
0.09628952
0.09542625
0.09474927
0.09423086
0.09383748
0.09353157
0.09327477
0.09303153
0.09277126
0.09246894
0.0921055
0.09166834
0.09115112
0.09055303
0.08987791
0.08913331
0.08832939
0.08747847
0.08659376
0.08568938
0.08477992
0.08388009
0.08300432
0.08216629
0.08137864
0.08065271
0.07999849
0.07942461
0.07893879
0.07854871
0.07826245
0.07808848
0.07803458
0.07810839
0.07830934
0.07863132
0.07907169
0.07962795
0.08029463
0.08106597
0.0819428
0.082924
0.08399003
0.08510181
0.08620086
0.08721105
0.08804422
0.08860547
0.0888007
0.08856363
0.08789114
0.08685985
0.08562389
0.08440615
0.08348302
0.08316844
0.08377704
0.0855357
0.08832252
0.09162725
0.09492737
0.09777454
0.1000766
0.1020517
0.1039883
0.1060501
0.1082218
0.1103692
0.112322
0.1139301
0.1150995
0.1158054
0.1160821
0.1160648
0.1159402
0.1158976
0.1160981
0.1166603
0.1176502
0.1190482
0.1207601
0.1226318
0.1244601
0.1261315
0.1276002
0.1288198
0.1297515
0.1303627
0.1306117
0.1304354
0.1297636
0.1285482
0.1267802
0.1244715
0.1216921
0.11854
0.1151102
0.11149
0.1077602
0.1039865
0.1002238
0.09651737
0.09290001
0.08939544
0.08601948
0.08278205
0.07968891
0.07674835
0.07396585
0.07134374
0.06888113
0.06657563
0.06442191
0.06241392
0.06054527
0.05880971
0.05720138
0.055715
0.05434576
0.05308918
0.05194075
0.05089592
0.04995034
0.04909978
0.0483399
0.04766621
0.0470743
0.04655996
0.04611923
0.04574839
0.04544399
0.04520302
0.04502301
0.04490222
0.0448399
0.04483643
0.04489352
0.04501424
0.04520298
0.04546518
0.04580693
0.04623451
0.0467538
0.04736959
0.0480848
0.04889969
0.04981131
0.05081315
0.05189495
0.05304295
0.05424032
0.0554679
0.0567052
0.0579314
0.05912645
0.06027201
0.06135231
0.06235464
0.06326958
0.06409107
0.06481663
0.06545081
0.0660023
0.06648172
0.06690075
0.06727129
0.06760472
0.06791132
0.06819952
0.06847488
0.06873948
0.06899147
0.06922788
0.06944746
0.0696479
0.06982712
0.06998315
0.07011369
0.07021616
0.07028893
0.07033156
0.07034249
0.07031663
0.07024425
0.07010916
0.06988575
0.06954461
0.06907983
0.06853585
0.06799036
0.06749811
0.06706334
0.06665607
0.06624095
0.06579263
0.06529656
0.06474525
0.06413649
0.06347069
0.06275291
0.06198996
0.06120034
0.06040773
0.05970977
0.002192344
0.008502061
0.0126935
0.01757463
0.0230425
0.02932469
0.0365277
0.04447381
0.05341243
0.06422298
0.08057777
0.09047369
0.1012456
0.1126306
0.1246774
0.1373259
0.1505153
0.1641296
0.1779896
0.1919591
0.2060148
0.2219557
0.2382049
0.2545537
0.2708736
0.2870772
0.3030647
0.3187928
0.3342692
0.3494067
0.3643279
0.3793246
0.3948339
0.4106058
0.4266187
0.4427423
0.4585662
0.4736781
0.4878225
0.50106
0.5136787
0.5258246
0.5375106
0.5486883
0.5592486
0.5690216
0.5777333
0.5850754
0.5909335
0.5951191
0.5964734
0.5952456
0.5915302
0.5852835
0.5766822
0.5658723
0.5531842
0.5389779
0.5237609
0.5079721
0.4920153
0.4762512
0.4609855
0.4464785
0.432943
0.4205288
0.4093097
0.3992781
0.3903519
0.3823997
0.3753031
0.3689898
0.3634564
0.3587925
0.3550562
0.3521752
0.3499676
0.3480082
0.3461077
0.3440838
0.3418502
0.339374
0.336823
0.334428
0.3323885
0.3308003
0.3296185
0.3286695
0.3277246
0.3265983
0.3251952
0.3235158
0.3216434
0.3197113
0.3178491
0.3161479
0.3146495
0.3133419
0.3121621
0.3110193
0.3098309
0.3085386
0.3071073
0.3055273
0.3038267
0.302083
0.3004132
0.2989318
0.2977092
0.2967492
0.2959709
0.2952203
0.2943369
0.2932216
0.2918635
0.2903364
0.2887854
0.2874074
0.286391
0.2858013
0.285508
0.2852583
0.2848183
0.2840619
0.2829865
0.2816987
0.280395
0.2793267
0.2786967