/*--------------------------------*- C++ -*----------------------------------*\
| =========                 |                                                 |
| \\      /  F ield         | foam-extend: Open Source CFD                    |
|  \\    /   O peration     | Version:     3.1                                |
|   \\  /    A nd           | Web:         http://www.extend-project.de       |
|    \\/     M anipulation  |                                                 |
\*---------------------------------------------------------------------------*/
FoamFile
{
    version     2.0;
    format      ascii;
    class       volScalarField;
    location    "15";
    object      nut;
}
// * * * * * * * * * * * * * * * * * * * * * * * * * * * * * * * * * * * * * //

dimensions      [0 2 -1 0 0 0 0];

internalField   nonuniform List<scalar> 
119952
(
5.401681e-05
3.660167e-05
3.792393e-05
4.224007e-05
4.513837e-05
4.295292e-05
4.152188e-05
4.046663e-05
3.963437e-05
3.889573e-05
3.82136e-05
3.756239e-05
3.692272e-05
3.628229e-05
3.563594e-05
3.497884e-05
3.430608e-05
3.361621e-05
3.287869e-05
3.20581e-05
4.032296e-05
3.835589e-05
3.74897e-05
4.820732e-05
4.674229e-05
4.57025e-05
4.505285e-05
4.485079e-05
4.475861e-05
3.456208e-05
3.273681e-05
3.589906e-05
4.068652e-05
4.545276e-05
5.039684e-05
5.557462e-05
6.101538e-05
6.660567e-05
7.229443e-05
8.219478e-05
0.0003732315
0.000429513
0.0004925779
0.0005592291
0.0006273259
0.0006953428
0.0007625539
0.000828563
0.0008927161
0.001253676
0.001316109
0.001378081
0.001439504
0.001501142
0.00156338
0.001626467
0.001689979
0.00175362
0.00181566
0.001880466
0.001942235
0.0020024
0.002062334
0.002122464
0.002182759
0.002243213
0.002303226
0.002366068
0.002189759
0.002430248
0.002436989
0.002452343
0.002462863
0.002463299
0.002452545
0.002434886
0.00241427
0.002391739
0.002368523
0.002345939
0.002325185
0.002307056
0.002291772
0.00227904
0.002268356
0.002259543
0.002253429
0.002253068
0.002259173
0.002265758
0.002271892
0.002287727
0.002306101
0.002303917
0.002282354
0.002236689
0.002131651
0.001952251
0.001883498
0.001834947
0.001802533
0.001779906
0.001763496
0.001752854
0.001747397
0.001746079
0.00174764
0.00175013
0.001750295
0.001743617
0.001725364
0.0016907
0.001634966
0.001557177
0.001463836
0.00136899
0.00128924
0.001236171
0.001212269
0.001190098
0.001199498
0.001243279
0.001312789
0.001378091
0.001442276
0.001517658
0.001614698
0.00174134
0.001907896
0.002125165
0.00239979
0.002730927
0.003110596
0.003527543
0.00397116
0.00443025
0.004889707
0.005327015
0.005707386
0.005971452
0.005989273
0.005421744
0.003901457
0.002558844
0.001748888
0.001283115
0.001019427
0.000987521
0.00105964
0.001154777
0.00126329
0.001381113
0.001504047
0.001602114
0.001658519
0.001699483
0.001726484
0.001742023
0.001747961
0.001743316
0.001723993
0.00168194
0.001619978
0.001537797
0.001426488
0.001278471
0.001078474
0.0007950733
0.00063158
0.0005073577
0.0005297444
0.0006154911
0.0007206354
0.0008196115
0.0008969092
0.000960758
0.001013643
0.001083718
0.001156427
0.001214951
0.001253339
0.001275979
0.001290899
0.001304989
0.001320391
0.001336555
0.001352598
0.001364954
0.001372583
0.001377058
0.001378857
0.00137817
0.001375088
0.001369754
0.001362297
0.00135301
0.001339902
0.001132632
0.0009198542
0.0008420239
0.0008022164
0.0007763722
0.0007564906
0.000739505
0.0007240701
0.0007094813
0.0006953265
0.0006813004
0.0006669543
0.0006504945
0.0006321877
0.0006143553
0.0005964494
0.0005785977
0.0005610277
0.0005439157
0.0005273911
0.0005115632
0.0004967774
0.0004828028
0.000469463
0.0004567204
0.0004445465
0.0004329177
0.0004218265
0.0004112187
0.0004010256
0.0003911996
0.0003817237
0.0003726247
0.000364017
0.0003563024
0.0003540459
0.0003618002
0.0003700033
0.0003779424
0.000385289
0.0003917977
0.0003970391
0.0004003177
0.000400328
0.000388176
0.000312506
0.0002313841
0.000245704
0.0002881355
0.0003315352
0.0003726279
0.0004112644
0.0004446828
0.0004689986
0.0004758769
0.0004742076
0.0004699902
0.0004653886
0.0004623386
0.0004620149
0.0004625762
0.0004616032
0.0004588049
0.0004556261
0.0004540998
0.0004562042
0.0004617282
0.0004674226
0.000476843
0.0004935158
0.0007062864
0.0007679584
0.0008503425
0.0009527394
0.001076426
0.001211721
0.001345648
0.001471831
0.001588314
0.001695991
0.001803708
0.001909602
0.002010717
0.002105868
0.00219355
0.002271908
0.002339029
0.002393282
0.002433629
0.002459781
0.002472145
0.002471395
0.002457986
0.00243223
0.002394485
0.002345052
0.00228402
0.002211508
0.00212832
0.002036245
0.001937931
0.001836471
0.001734912
0.001636011
0.001541798
0.001453479
0.001371716
0.001296935
0.001229405
0.00116943
0.001117705
0.001073722
0.001036112
0.001003913
0.0009763569
0.0009520709
0.0009303738
0.0009119528
0.0008965469
0.0008838569
0.0008735971
0.0008655038
0.0008593361
0.0008548071
0.0008526541
0.0008493051
0.0008469423
0.0008462413
0.0008468893
0.000848802
0.0008517851
0.0008553553
0.00085924
0.0008635075
0.0008681548
0.0008731427
0.0008784431
0.0008840653
0.0008901606
0.0008969095
0.0009043198
0.0009125221
0.0009217479
0.0009322912
0.0009444736
0.0009586147
0.0009750036
0.0009940068
0.001016137
0.001041667
0.001070632
0.001102965
0.001138486
0.001176933
0.001217992
0.001261331
0.001306639
0.001353686
0.001402454
0.001453283
0.00150611
0.001560863
0.001617339
0.001675093
0.001733714
0.001792891
0.001852385
0.001911926
0.001971224
0.002029962
0.002087777
0.002144296
0.002199148
0.002251945
0.002302276
0.002349723
0.002393882
0.002434382
0.002470897
0.002503139
0.002530853
0.002553791
0.002571676
0.002584153
0.002590744
0.002590809
0.002583561
0.002568178
0.002544073
0.002511356
0.002471508
0.002428008
0.002386085
0.002350681
0.002323817
0.002303991
0.002287613
0.002270956
0.002251171
0.002226289
0.002194971
0.002156445
0.002110659
0.002058472
0.002001971
0.001944119
0.001888456
0.001841988
0.001660153
5.097662e-05
5.456389e-05
6.313757e-05
7.353618e-05
8.416449e-05
9.44687e-05
0.0001043254
0.0001137504
0.0001241259
0.0004443043
0.0005919087
0.0007482112
0.000899698
0.001039016
0.001164226
0.001276237
0.001377272
0.00146978
0.002104707
0.002203317
0.002305418
0.002405709
0.002503528
0.002598255
0.002689838
0.002778094
0.002862881
0.002943152
0.003020493
0.003094212
0.003164775
0.003234421
0.003304038
0.003373448
0.003442003
0.003509183
0.003574513
0.003622113
0.003653264
0.003687922
0.00372706
0.003770628
0.003817617
0.003866755
0.003916703
0.003966328
0.004014947
0.004063495
0.004110802
0.004158316
0.004206766
0.004256092
0.004305859
0.004355204
0.004403176
0.004448347
0.005213837
0.00525058
0.005286144
0.005322494
0.005359834
0.005398065
0.005436827
0.005475386
0.005513102
0.005549149
0.005583436
0.005616963
0.005650175
0.005683368
0.005716806
0.005750169
0.005782963
0.005815144
0.005848075
0.00587448
0.00588635
0.005894027
0.00590136
0.005903232
0.005897692
0.005885579
0.005866676
0.005842317
0.005812967
0.005779831
0.005744705
0.005709612
0.005676294
0.005645844
0.005618585
0.005594425
0.005573284
0.005555604
0.005542657
0.005534611
0.005528481
0.005525112
0.00552622
0.005520824
0.005496196
0.005454228
0.005390257
0.005298776
0.005200297
0.005120566
0.005048224
0.004982729
0.004924527
0.004873973
0.004832333
0.004800012
0.004776785
0.004761859
0.004752228
0.004741903
0.004723672
0.0046895
0.004628517
0.004529548
0.004386329
0.004201286
0.003987485
0.003765799
0.003558219
0.003382192
0.003248278
0.003160394
0.003118154
0.003119751
0.003164122
0.003251813
0.003385094
0.003575443
0.003853416
0.004239942
0.004748504
0.005378771
0.006113957
0.006925191
0.007777855
0.0086353
0.009465662
0.01
0.01000001
0.01000008
0.01000029
0.01000043
0.0100003
0.01000008
0.009012988
0.007225871
0.005646438
0.004494517
0.003753546
0.003338983
0.002975964
0.002678073
0.002620735
0.002665636
0.002765606
0.002908984
0.00304809
0.003122159
0.003218316
0.003330763
0.003453149
0.003576138
0.003688765
0.003777589
0.003823165
0.003801666
0.003577903
0.003360329
0.003061683
0.002691291
0.002381509
0.00215311
0.001987381
0.001815052
0.001606491
0.001491666
0.001456965
0.001479994
0.00154109
0.001634082
0.001757585
0.001907983
0.002076697
0.002251302
0.002425989
0.002598397
0.002764303
0.002898828
0.002990785
0.003075207
0.003152699
0.003223783
0.00328864
0.003347647
0.00340065
0.003448507
0.003491027
0.003533226
0.003426278
0.00334164
0.003304926
0.003290547
0.003285557
0.003283686
0.003281888
0.003278624
0.003273048
0.003264651
0.003253092
0.003238135
0.003219673
0.003197905
0.003173232
0.003146035
0.003116727
0.003085781
0.003053712
0.003021039
0.002988236
0.002955734
0.002923957
0.00289329
0.002864046
0.002836439
0.002810515
0.002786234
0.0027636
0.002742585
0.00272312
0.002705122
0.00268854
0.002673415
0.002660131
0.002649758
0.002643533
0.002640384
0.002638838
0.002637806
0.002635571
0.002628922
0.002610928
0.002563312
0.002456686
0.002272146
0.002090425
0.001945488
0.001800483
0.001646465
0.001503481
0.00139391
0.001324838
0.001288509
0.001190919
0.00114712
0.00114803
0.001199999
0.001310915
0.001476177
0.001607791
0.001694948
0.001769978
0.001827451
0.001869401
0.001905229
0.00194781
0.002008944
0.002096637
0.00221429
0.002796385
0.003017152
0.003256539
0.003512587
0.003784408
0.004068595
0.004358867
0.00464789
0.004928998
0.005196917
0.005448714
0.00569055
0.005919405
0.006132494
0.006326912
0.006499459
0.006646913
0.006766524
0.00685662
0.00691656
0.006946956
0.006952007
0.006933495
0.00689198
0.006827656
0.006740262
0.006628524
0.006489993
0.006325359
0.006138295
0.005933583
0.005716451
0.005491886
0.0052644
0.005037689
0.004814691
0.004597619
0.004388031
0.004186854
0.003994288
0.003811528
0.003640506
0.003481215
0.003333503
0.0031971
0.003071595
0.002956938
0.00285325
0.002760321
0.002677866
0.002605384
0.002542472
0.002488379
0.002442377
0.002404555
0.002373675
0.002348331
0.002328238
0.002313183
0.00230263
0.002295965
0.002292651
0.002292169
0.002294037
0.002297818
0.002303139
0.002309697
0.002317298
0.002325869
0.002335503
0.002346461
0.00235916
0.002374162
0.002392159
0.002413923
0.002440284
0.002472131
0.002510429
0.002556124
0.00260998
0.002672515
0.002744004
0.002824502
0.002913858
0.00301173
0.003117589
0.003230736
0.003350297
0.003475234
0.003604412
0.003736598
0.003870369
0.004005724
0.004143813
0.00428392
0.00442486
0.00456567
0.004705539
0.004843748
0.004979613
0.005112476
0.005241693
0.005366614
0.005486562
0.005600834
0.005708691
0.005809441
0.005902443
0.005987117
0.006062938
0.006129423
0.006186097
0.006232445
0.006267884
0.006291702
0.006302999
0.006300715
0.006283831
0.006251778
0.006205109
0.00614636
0.006080703
0.006015146
0.005955521
0.00590422
0.00585991
0.005818813
0.005776592
0.005729388
0.00567405
0.005608226
0.005530497
0.005440408
0.005338789
0.005227347
0.005108199
0.004983229
0.004855456
0.004727902
3.184858e-05
3.893584e-05
4.962184e-05
6.229493e-05
7.742262e-05
9.561794e-05
0.0001179833
0.0001460007
0.0001823549
0.0002465729
0.001017145
0.001186856
0.001370921
0.001563267
0.001752744
0.001902016
0.002036623
0.002190205
0.002506843
0.004575708
0.004809077
0.0049522
0.005082757
0.005196477
0.005298536
0.005390456
0.00547304
0.005548491
0.005643099
0.005830708
0.006025887
0.006175747
0.006281468
0.006356145
0.006410531
0.006451505
0.006483307
0.006514136
0.006414725
0.006395708
0.006414882
0.006451857
0.006495627
0.006540111
0.00658191
0.006619457
0.006652289
0.006680362
0.006702882
0.006722315
0.006740065
0.006756653
0.006772608
0.006788328
0.00680391
0.006817885
0.007595654
0.007611547
0.007621183
0.007627366
0.007631597
0.00763436
0.007636149
0.007637302
0.007638461
0.007639988
0.007641743
0.007644539
0.007649027
0.007654944
0.007661974
0.007669713
0.00767756
0.007685098
0.007692315
0.007698708
0.007704505
0.0077113
0.00771983
0.007730247
0.007742389
0.007755625
0.00776895
0.007781316
0.007791887
0.007801102
0.007809916
0.007819159
0.007829874
0.007842679
0.007857384
0.007873175
0.007888722
0.007903943
0.007901387
0.007899305
0.007898534
0.007900197
0.00790534
0.007914332
0.007926888
0.007942027
0.007958272
0.007974266
0.007989518
0.008004201
0.008018887
0.00803436
0.00805121
0.008069414
0.008088527
0.008107588
0.008125155
0.008138033
0.0081428
0.008141008
0.008135909
0.00812794
0.008116617
0.008101613
0.008081241
0.008054926
0.008022548
0.007984695
0.007943141
0.007900467
0.007859259
0.007821277
0.007787162
0.007756686
0.007729299
0.007704676
0.007683111
0.007664723
0.007648132
0.007633357
0.007618862
0.007598446
0.007564887
0.007516036
0.007450425
0.007366928
0.007276302
0.007190345
0.007110431
0.007035063
0.006965718
0.006903911
0.006851138
0.006808762
0.006777866
0.006758974
0.006750289
0.006746662
0.006741523
0.006726142
0.006687452
0.006610613
0.006483776
0.006301553
0.006068774
0.005800904
0.005520721
0.005253059
0.005018998
0.004832955
0.004703103
0.004633881
0.004628341
0.004690171
0.004826115
0.005046453
0.005369701
0.005824642
0.006417673
0.007136554
0.007950929
0.008820667
0.009708709
0.01
0.01000001
0.01000008
0.01000069
0.01000274
0.01000377
0.01000225
0.01000045
0.01000002
0.01
0.01
0.009443281
0.007841807
0.006519578
0.005560204
0.004927083
0.004532562
0.004296519
0.004160528
0.004088899
0.004063254
0.004074422
0.004117743
0.004198917
0.0043222
0.004482999
0.004667703
0.004861014
0.005045289
0.005192692
0.005277975
0.005150108
0.004984525
0.004890013
0.004555136
0.004190117
0.003822191
0.003472155
0.003159805
0.002899749
0.002699445
0.002562241
0.002486479
0.002361061
0.002208836
0.002141786
0.002144886
0.002201185
0.00229654
0.002420673
0.002566776
0.00272875
0.00290037
0.003075239
0.003247474
0.003415515
0.003577572
0.003734508
0.003882481
0.004024631
0.00412723
0.004213243
0.00429363
0.004280199
0.004437794
0.004507806
0.00457474
0.004638022
0.00469721
0.004751873
0.004801567
0.004845839
0.004884251
0.00491641
0.00494201
0.004960888
0.004973069
0.004978753
0.004978288
0.004972154
0.004960958
0.004945412
0.004926303
0.004904463
0.004880736
0.004855952
0.004830902
0.004806322
0.004782871
0.004761128
0.004741584
0.00472464
0.004710617
0.004699755
0.00469224
0.004688182
0.004687779
0.004691261
0.004699261
0.004712108
0.004729458
0.004750592
0.004774401
0.004798819
0.004820379
0.004832517
0.00482384
0.004783565
0.004710643
0.004611169
0.004479567
0.004304858
0.004083535
0.003823479
0.003540345
0.003253149
0.002982214
0.002746806
0.002560835
0.002429973
0.002241692
0.001996634
0.001869545
0.001866213
0.001994216
0.002249656
0.002591462
0.002760104
0.002898145
0.003056398
0.003239732
0.003452016
0.00369667
0.003953264
0.004236941
0.004546591
0.004876571
0.00521968
0.005567666
0.005912132
0.006245228
0.006560526
0.006853417
0.007120395
0.007365464
0.007595197
0.00781046
0.008010128
0.008191559
0.008351357
0.008485943
0.008592669
0.008672621
0.008393365
0.008125896
0.00797526
0.007927501
0.007980109
0.008129343
0.008342232
0.008465541
0.008326135
0.008157925
0.007965301
0.00775382
0.007528712
0.00729459
0.007055453
0.006814583
0.006574562
0.006337281
0.006103919
0.005874866
0.005649686
0.005431468
0.005221481
0.005020536
0.004829245
0.004648065
0.004477534
0.004318312
0.004170911
0.004035747
0.003912933
0.003802596
0.003704363
0.003618502
0.003543898
0.003479587
0.00342534
0.003380538
0.003344196
0.003315296
0.003292889
0.003276066
0.003263937
0.003255664
0.003250501
0.003247808
0.003247073
0.003247944
0.003250259
0.003254059
0.003259603
0.003267374
0.003278069
0.003292583
0.003311959
0.003337369
0.003370047
0.003411299
0.003462371
0.003524341
0.003598068
0.003684103
0.003782757
0.00389404
0.004017679
0.004153121
0.004299548
0.004455897
0.004620876
0.004792945
0.004970432
0.005151504
0.005334145
0.005516212
0.005698404
0.005880149
0.006060377
0.006238221
0.006412966
0.006583965
0.006750616
0.006912392
0.007068746
0.007219099
0.007362805
0.00749913
0.00762741
0.007746995
0.00785729
0.007957749
0.008047898
0.008127274
0.008195359
0.008251583
0.008295328
0.008325793
0.00834196
0.008342745
0.008327352
0.00829588
0.00825013
0.008194403
0.008134945
0.008077516
0.008025695
0.007979735
0.007936837
0.00789276
0.007843307
0.007784926
0.007714886
0.00763136
0.007533567
0.007421605
0.007296585
0.007160148
0.007013881
0.006861473
0.00671325
3.992629e-05
6.476531e-05
0.0001443321
0.0004888619
0.0008434494
0.001517409
0.002038672
0.002672635
0.00340327
0.004005001
0.004447644
0.004802983
0.005154222
0.005509747
0.005875529
0.0062449
0.006618768
0.006983629
0.007324339
0.007652291
0.007966819
0.008251707
0.008483354
0.008676381
0.008850018
0.009004299
0.009136974
0.009248358
0.009339524
0.009414341
0.009510305
0.009746301
0.009467507
0.009173173
0.008936541
0.008738573
0.008577424
0.008455262
0.008374763
0.008325097
0.008286929
0.008283621
0.008313387
0.0083695
0.008447801
0.008547584
0.008664098
0.008794685
0.00893438
0.009091785
0.009254023
0.009396375
0.009560848
0.009747817
0.009943373
0.009957405
0.009968494
0.009976656
0.009982468
0.00998615
0.009987603
0.00998669
0.009983221
0.009977133
0.009969004
0.009959195
0.00994912
0.009939973
0.009909321
0.009883483
0.00986144
0.009842044
0.009824508
0.009808252
0.009792905
0.009778269
0.009764338
0.009751208
0.009739154
0.009728835
0.009720721
0.009714915
0.009711229
0.009709163
0.009707889
0.009706471
0.009704223
0.009700955
0.009697221
0.0096942
0.009693187
0.009695088
0.009700231
0.009708139
0.009717283
0.009725779
0.009732241
0.009736428
0.009739118
0.009741734
0.009746103
0.009753583
0.009764459
0.009777576
0.00979101
0.009802466
0.009810358
0.009815049
0.009817853
0.009820892
0.009826518
0.009836303
0.009850464
0.009867778
0.009886163
0.00990357
0.009918712
0.009931419
0.009942693
0.00995403
0.0099665
0.009980263
0.009994714
0.01
0.01
0.01
0.01
0.01
0.009992412
0.009972297
0.009950172
0.009926279
0.009899665
0.009868147
0.009830439
0.009785977
0.009735852
0.009682774
0.009629998
0.009580005
0.009533816
0.009491164
0.009451166
0.009413009
0.009376261
0.009340905
0.00930672
0.009273176
0.009239286
0.00920245
0.009158402
0.009103411
0.009035809
0.008955973
0.008868285
0.008779561
0.008693389
0.008610451
0.008531613
0.008458275
0.008392239
0.00833527
0.008288909
0.00825458
0.00823217
0.008219107
0.008211322
0.00820241
0.008182109
0.008138393
0.008059183
0.007934187
0.007758337
0.007534653
0.007275668
0.007001755
0.006736505
0.006501684
0.006314636
0.006188209
0.006131783
0.006153543
0.006263855
0.006476695
0.006805572
0.007270043
0.007869806
0.008583827
0.009375506
0.01
0.01
0.01
0.01000007
0.01000114
0.01001086
0.01002258
0.01001238
0.01000228
0.01000012
0.01000001
0.01000001
0.01000001
0.01000001
0.01
0.009314824
0.00806241
0.007096696
0.006405355
0.005932161
0.00561835
0.005419323
0.005306446
0.005263647
0.005282561
0.005358079
0.00548542
0.005660104
0.005874948
0.006114412
0.006353689
0.00656655
0.006726721
0.006810919
0.006791452
0.006651836
0.006409085
0.006089789
0.005713593
0.005299596
0.004873258
0.004462352
0.004090244
0.003774148
0.003524001
0.003340924
0.003219765
0.003153564
0.003134395
0.003064849
0.002947883
0.00290425
0.002919858
0.002983389
0.003084782
0.003213538
0.003362126
0.003524652
0.003696213
0.003871537
0.004045265
0.004216624
0.00438733
0.004548134
0.004706054
0.004811357
0.004916724
0.005017832
0.005116313
0.005212073
0.00530475
0.005393747
0.005478328
0.005557684
0.005630979
0.005697401
0.005756223
0.005806882
0.00584903
0.00588255
0.005907547
0.005924337
0.005933439
0.005935548
0.005931505
0.005922254
0.005908807
0.005892202
0.00587348
0.005853661
0.005833704
0.005814518
0.005796932
0.005781685
0.005769431
0.005760729
0.00575608
0.005755922
0.005760695
0.005770889
0.005787063
0.005809712
0.005838979
0.005874632
0.005916029
0.00596193
0.006010417
0.00605647
0.006092907
0.006113242
0.006113778
0.006091701
0.006039203
0.005944611
0.005797671
0.00559265
0.005329162
0.00501339
0.004660219
0.004292785
0.003937579
0.003619554
0.00335992
0.003171372
0.003053493
0.002647639
0.002370512
0.002315438
0.002461842
0.002777842
0.003188888
0.003517472
0.003730972
0.003984736
0.004279143
0.004608181
0.004964793
0.005342233
0.005717824
0.006117382
0.006509915
0.006875142
0.007213158
0.007519866
0.007794373
0.008038075
0.008255174
0.008456532
0.008647774
0.008830414
0.009002905
0.009161678
0.009302262
0.009207493
0.008709725
0.008380453
0.008186553
0.008097364
0.008098235
0.008183742
0.008355419
0.008614565
0.008953849
0.009329807
0.009399452
0.009244067
0.009065779
0.008869751
0.008660525
0.008442014
0.008217551
0.007989838
0.007760934
0.007532253
0.00730455
0.007077815
0.006853084
0.006632392
0.006416704
0.006206895
0.006003734
0.005808113
0.0056209
0.005443019
0.005275403
0.005118865
0.004974145
0.004841756
0.004722108
0.004615175
0.004520758
0.00443854
0.004367904
0.004307993
0.004257831
0.004216382
0.004182572
0.004155302
0.004133488
0.004116109
0.004102249
0.004091148
0.004082235
0.004075166
0.004069853
0.004066482
0.004065523
0.004067725
0.004074093
0.004085843
0.004104355
0.004131122
0.004167673
0.004215494
0.004275923
0.004350068
0.004438749
0.004542467
0.004661375
0.004795278
0.004943628
0.00510554
0.005279813
0.005464963
0.005659223
0.005860627
0.006067025
0.006276106
0.006485439
0.006692889
0.006898526
0.00710137
0.007300601
0.007495587
0.007685856
0.007870984
0.008050653
0.008224535
0.008392259
0.008553357
0.008707267
0.008853375
0.008991109
0.009119903
0.009239106
0.009348351
0.009447387
0.009535778
0.009612989
0.009678481
0.009731574
0.009771339
0.00979669
0.009806667
0.00980084
0.00977998
0.009746902
0.009706327
0.009663711
0.009623677
0.009587946
0.009554761
0.009520182
0.009479804
0.009429767
0.009367164
0.009290064
0.009197561
0.009089504
0.008966645
0.008830197
0.008681558
0.008524818
0.008374154
2.236255e-05
3.623553e-05
5.475312e-05
0.0002379522
0.0003900871
0.0006627597
0.0009322989
0.001180033
0.001492252
0.001797961
0.002129903
0.002561406
0.003074438
0.003658237
0.004318784
0.005166417
0.006772687
0.007427488
0.008058403
0.008626725
0.009125798
0.009552802
0.009924426
0.01
0.01
0.01
0.01
0.01
0.01
0.01
0.01
0.01
0.01
0.01
0.01
0.01
0.01
0.01
0.01
0.009942246
0.009381138
0.00885177
0.00867116
0.00837933
0.008098043
0.007853773
0.007650692
0.007490677
0.007371503
0.007289197
0.007239694
0.007214325
0.007217288
0.007251882
0.007316983
0.00741002
0.007528353
0.007670024
0.007831469
0.008006923
0.008194965
0.008393195
0.008596618
0.008822786
0.009080162
0.00937832
0.009722543
0.01
0.01
0.01
0.01
0.01
0.01
0.01
0.01
0.01
0.01
0.01
0.01
0.01
0.01
0.01
0.01
0.01
0.01
0.01
0.01
0.01
0.01
0.01
0.01
0.01
0.01
0.01
0.01
0.01
0.01
0.01
0.01
0.01
0.01
0.01
0.01
0.01
0.01
0.01
0.01
0.01
0.01
0.01
0.01
0.01
0.01
0.01
0.01
0.01
0.01
0.01
0.01
0.01
0.01
0.01
0.01
0.01
0.01
0.01
0.01
0.01
0.01
0.01
0.01
0.01
0.01
0.01
0.01
0.01
0.01
0.01
0.01
0.01
0.01
0.01
0.01
0.01
0.01
0.01
0.01
0.01
0.01
0.01
0.01
0.01
0.01
0.01
0.01
0.01
0.01
0.01
0.01
0.01
0.01
0.009941716
0.00987854
0.009809291
0.009733498
0.009653044
0.009571134
0.009490242
0.009411362
0.009334756
0.009260684
0.009189669
0.009122315
0.009058694
0.008997628
0.00893604
0.008872113
0.008810534
0.008756132
0.008709933
0.008669806
0.008630697
0.00858502
0.008522117
0.008429972
0.008300482
0.008137343
0.007954196
0.007770406
0.007607139
0.007484333
0.007419046
0.007426239
0.007521377
0.007721241
0.008040056
0.008486138
0.009054594
0.009722736
0.01
0.01
0.01
0.01000003
0.01000062
0.01001291
0.01003868
0.01003868
0.01001584
0.01000185
0.0100001
0.01000013
0.01000029
0.01000029
0.01000019
0.01000014
0.01000014
0.01000008
0.009152746
0.008296494
0.007657477
0.007201042
0.006889703
0.006693922
0.006594213
0.006579002
0.006640539
0.006770804
0.006958994
0.007189758
0.007443651
0.00769868
0.007930321
0.008114475
0.008231695
0.008264315
0.008199664
0.008040022
0.007796082
0.007477048
0.007093491
0.006662752
0.006207459
0.005751436
0.005317793
0.004926693
0.004591636
0.0043186
0.00410831
0.003957969
0.003862032
0.003813607
0.003805716
0.003831412
0.003883542
0.003888964
0.003878063
0.003919643
0.004003461
0.004121105
0.004264466
0.00442625
0.004595176
0.004763939
0.004888233
0.005003242
0.005119914
0.005237953
0.005357047
0.005476829
0.005596725
0.005715918
0.005833396
0.005948006
0.006058492
0.00616354
0.006261835
0.006352154
0.006433468
0.006505009
0.006566292
0.006617125
0.006657607
0.006688114
0.006709269
0.006721905
0.006727022
0.006725718
0.006719172
0.006708612
0.006695258
0.006680326
0.006664987
0.00665035
0.006637441
0.006627199
0.006620472
0.006618027
0.006620562
0.006628741
0.006643236
0.006664724
0.006693848
0.006731087
0.006776691
0.006830745
0.006892887
0.006960861
0.007031832
0.007102194
0.007167676
0.007224499
0.007268327
0.007291766
0.007284286
0.007233916
0.007128765
0.006958117
0.006714433
0.006396918
0.00601501
0.005588998
0.005147462
0.004722627
0.004344448
0.004036171
0.003812101
0.003670812
0.003080514
0.002747645
0.002725499
0.002939304
0.003311181
0.003750836
0.00417688
0.004548686
0.004872447
0.00520047
0.005546925
0.005914527
0.006332505
0.006819927
0.007353828
0.007682357
0.007967996
0.008213183
0.008423621
0.008606501
0.008773956
0.008936055
0.009097351
0.009257797
0.009413854
0.00955977
0.008986708
0.008603014
0.008399172
0.008317
0.008319195
0.008382193
0.008506914
0.008708934
0.009002794
0.009392425
0.009823152
0.01
0.01
0.009868833
0.009709684
0.009534931
0.009348007
0.009152139
0.008950156
0.008744251
0.008536037
0.008326556
0.008116265
0.007905449
0.007695692
0.007487944
0.00728301
0.007081565
0.006884442
0.006692397
0.006506328
0.006327243
0.006156201
0.00599429
0.005842526
0.005701815
0.005572859
0.005456075
0.0053516
0.005259303
0.005178779
0.005109368
0.005050201
0.005000254
0.004958394
0.00492343
0.004894175
0.004869505
0.004848419
0.004830095
0.004813944
0.004799654
0.004787227
0.004776999
0.004769641
0.004766145
0.004767778
0.00477603
0.004792544
0.004819034
0.004857188
0.004908566
0.004974505
0.005056049
0.005153894
0.005268352
0.005399336
0.005546355
0.00570853
0.005884617
0.006073041
0.00627194
0.006479217
0.006692595
0.006909675
0.007127985
0.007345011
0.007559311
0.007770303
0.007977172
0.00817938
0.008376595
0.008568624
0.008755356
0.0089367
0.009112517
0.009282551
0.009446389
0.009603498
0.009753485
0.009896113
0.01
0.01
0.01
0.01
0.01000003
0.01000008
0.01000007
0.01000003
0.01
0.01
0.01000002
0.01000024
0.01000181
0.01000217
0.01000217
0.0100015
0.01000038
0.01000003
0.01
0.01
0.01
0.01
0.01
0.01
0.01000001
0.01000009
0.01000024
0.01000021
0.009854639
0.009711352
2.037526e-05
3.140192e-05
6.230942e-05
0.0001886543
0.0003033471
0.0004818087
0.0006177592
0.0007717927
0.0009535325
0.001131211
0.001339367
0.001608779
0.001916551
0.002283892
0.002762524
0.003683081
0.004119056
0.00458976
0.005086623
0.00560848
0.006160568
0.006733436
0.007311025
0.007878169
0.008417873
0.008920396
0.009402787
0.009929197
0.01
0.01
0.01
0.01
0.01
0.01
0.01
0.01
0.01
0.01
0.01
0.01
0.01
0.01
0.01
0.01
0.01
0.01
0.01
0.009741758
0.0092796
0.008813999
0.008359492
0.007940728
0.007594853
0.007261477
0.007000478
0.006794659
0.006634787
0.006518793
0.006443913
0.006405904
0.00640051
0.006424275
0.006476565
0.006560158
0.006677884
0.006831089
0.007022605
0.007251537
0.007519464
0.007823668
0.008139478
0.008460522
0.008787267
0.009119454
0.00948624
0.009926103
0.01
0.01
0.01
0.01
0.01
0.01
0.01
0.01
0.01
0.01
0.01
0.01
0.01
0.01
0.01
0.01
0.01
0.01
0.01
0.01
0.01
0.01
0.01
0.01
0.01
0.01
0.01
0.01
0.01
0.01
0.01
0.01
0.01
0.01
0.01
0.01
0.01
0.01
0.01
0.01
0.01
0.01
0.01
0.01
0.01
0.01
0.01
0.01
0.01
0.01
0.01
0.01
0.01
0.01
0.01
0.01
0.01
0.01
0.01
0.01
0.01
0.01
0.01
0.01
0.01
0.01
0.01
0.01
0.01
0.01
0.01
0.01
0.01
0.01
0.01
0.01
0.01
0.01
0.01
0.01
0.01
0.01
0.01
0.01
0.01
0.01
0.01
0.01
0.01
0.009933699
0.00985094
0.009770604
0.009694416
0.00962436
0.009562472
0.009509721
0.009464581
0.009422923
0.009382916
0.009343085
0.009303892
0.009266142
0.009229676
0.009193186
0.009154401
0.009110565
0.009059221
0.008998875
0.008928223
0.008843323
0.008746248
0.0086581
0.00859482
0.008559462
0.008549449
0.008560432
0.008587621
0.00862386
0.008656291
0.008667098
0.008646064
0.008593932
0.008520382
0.008441882
0.008378661
0.008351529
0.00838074
0.008486576
0.008688578
0.009001265
0.00942853
0.009963606
0.01
0.01
0.01
0.01000003
0.01000059
0.0100088
0.01003812
0.01003868
0.01002435
0.01000497
0.01000038
0.01000054
0.01000248
0.01000386
0.01000348
0.01000257
0.01000121
0.01000023
0.01000003
0.01
0.009939848
0.009245298
0.008723886
0.00835181
0.008107085
0.007972534
0.007936296
0.007988772
0.00811823
0.008307952
0.008536119
0.00877903
0.009015521
0.009225701
0.009390579
0.009496395
0.009533441
0.009495082
0.009381049
0.009195294
0.008941522
0.008623156
0.008248187
0.00782934
0.007382511
0.006926114
0.00647966
0.006060602
0.00568212
0.005353214
0.005079081
0.004861163
0.00469783
0.00458528
0.004518329
0.004490908
0.004496484
0.004528561
0.004581231
0.004649337
0.004728484
0.004814972
0.004905555
0.004997317
0.005093196
0.005195325
0.005303467
0.005417483
0.005536884
0.005661161
0.005789726
0.005921744
0.006056131
0.006191572
0.006326555
0.006459395
0.006588281
0.006711365
0.006826892
0.006933343
0.007029519
0.007114563
0.007187977
0.007249633
0.00729975
0.007338853
0.007367729
0.00738738
0.007398928
0.007403654
0.007402878
0.007397969
0.007390307
0.007381256
0.007372132
0.007364173
0.007358527
0.007356236
0.007358238
0.007365376
0.007378432
0.007398167
0.007425353
0.007460779
0.007505256
0.007559888
0.007624392
0.007697578
0.007778735
0.007866594
0.007959132
0.00805375
0.00814752
0.008236325
0.008313687
0.008370751
0.008396661
0.008378997
0.008304236
0.008158895
0.007931927
0.007618382
0.007223056
0.006762268
0.006262872
0.005758638
0.005285274
0.00487552
0.004554944
0.004334132
0.004072812
0.003378786
0.003132892
0.003215221
0.003517402
0.003941612
0.004400702
0.004833731
0.00523223
0.005614401
0.00600212
0.006418846
0.006881439
0.007385315
0.007803819
0.008066215
0.00828289
0.008462122
0.00861416
0.008751577
0.008887861
0.009030639
0.009181758
0.009338072
0.009212256
0.008768172
0.008524182
0.008434115
0.008464601
0.008568158
0.008700943
0.008862665
0.009085415
0.009397461
0.009779379
0.01
0.01
0.01
0.01
0.01
0.01
0.009934968
0.009769428
0.009595853