/*--------------------------------*- C++ -*----------------------------------*\
| =========                 |                                                 |
| \\      /  F ield         | foam-extend: Open Source CFD                    |
|  \\    /   O peration     | Version:     3.1                                |
|   \\  /    A nd           | Web:         http://www.extend-project.de       |
|    \\/     M anipulation  |                                                 |
\*---------------------------------------------------------------------------*/
FoamFile
{
    version     2.0;
    format      ascii;
    class       volScalarField;
    location    "15";
    object      omega;
}
// * * * * * * * * * * * * * * * * * * * * * * * * * * * * * * * * * * * * * //

dimensions      [0 0 -1 0 0 0 0];

internalField   nonuniform List<scalar> 
119952
(
400.8585
511.5663
486.5213
424.3997
381.1038
384.2252
390.3978
398.1176
406.8461
416.3333
426.483
437.2279
448.5497
460.466
473.0123
486.2299
500.1704
514.9237
530.7508
548.9003
460.4276
458.6453
463.2995
389.4904
381.2203
376.3138
372.1403
368.1146
360.3968
253.4332
823.5995
691.8988
585.809
508.7392
450.9215
406.2501
370.4433
341.0649
316.3435
288.9096
243.9456
212.17
189.9619
173.4212
160.39
149.6275
140.4689
132.5204
125.5383
97.79115
93.99763
90.25289
86.57585
83.0639
79.77876
76.74721
73.96866
71.42127
69.09019
67.03504
65.08059
63.19255
61.38252
59.65345
58.00767
56.43293
54.9039
53.42353
53.06148
52.8998
52.3518
51.93075
51.67057
51.51686
51.42561
51.40164
51.42444
51.4794
51.54413
51.59849
51.62666
51.62065
51.58154
51.51626
51.43024
51.31568
51.13366
50.80499
50.40985
50.07266
49.60342
49.14085
49.04097
49.23432
49.72177
50.86831
53.48246
57.23961
58.22481
58.83739
59.03177
59.02975
58.89635
58.63558
58.27617
57.85238
57.41003
57.03065
56.83036
56.93746
57.49463
58.69068
60.73846
63.78524
67.78936
72.39712
76.94858
80.68772
83.01176
83.58656
82.38879
79.66248
75.81536
71.32983
66.6806
62.14142
57.80824
53.87434
50.46124
47.66497
45.56447
44.21514
43.64307
43.83666
44.74238
46.24833
48.19183
50.38795
52.6798
55.06225
58.09707
64.82047
84.35804
113.3885
148.67
179.3094
192.6414
186.6628
162.0097
132.973
109.5393
92.85562
81.35944
73.21465
67.16037
62.52046
58.9521
56.21887
54.17476
52.75586
51.95592
51.90333
52.57731
54.09595
56.8151
61.53683
70.53462
87.69301
105.7214
119.1828
125.0749
123.5227
115.3021
103.485
91.89902
82.00484
73.8593
67.24754
62.04395
58.00796
54.82682
52.2578
50.1393
48.36271
46.86057
45.59181
44.52275
43.65873
42.97673
42.42176
41.97258
41.61818
41.35073
41.16501
41.05485
41.01391
41.07304
46.71614
53.94762
57.00121
58.48555
59.32871
59.90744
60.38615
60.84093
61.30821
61.80585
62.34649
62.95447
63.75733
64.76848
65.81332
66.92417
68.09553
69.31591
70.57577
71.86659
73.17736
74.47641
75.78574
77.11777
78.47544
79.86208
81.28343
82.74299
84.24838
85.80946
87.43387
89.12519
90.87827
92.66361
94.35346
94.50644
93.1483
92.04444
91.10409
90.31585
89.70957
89.38922
89.56961
90.6089
93.93839
111.411
132.9214
138.9995
136.242
128.6616
119.7941
110.9916
102.7142
94.95065
87.59062
80.8622
74.9975
69.9977
65.76802
62.24008
59.4763
57.45371
56.07025
55.18675
54.66301
54.37042
54.33194
54.83515
55.56675
56.10073
48.13618
46.99553
45.29032
43.25661
41.12807
39.28567
37.92857
37.01072
36.422
36.06074
35.74851
35.47201
35.23699
35.03127
34.84378
34.66524
34.48767
34.30413
34.10868
33.89639
33.66354
33.4086
33.13337
32.8422
32.54183
32.24212
31.9567
31.70182
31.49332
31.34457
31.26554
31.26233
31.33618
31.48076
31.68696
31.94776
32.25254
32.58848
32.94058
33.28879
33.60148
33.8658
34.08477
34.25672
34.3826
34.48532
34.54916
34.54593
34.47609
34.34182
34.14838
33.90289
33.61631
33.33974
33.10415
32.70918
32.2932
31.85561
31.39812
30.92295
30.43945
29.9619
29.49633
29.04065
28.59491
28.16025
27.73844
27.33068
26.93716
26.55955
26.20347
25.87291
25.57046
25.2977
25.05532
24.84315
24.65897
24.4943
24.33613
24.17725
24.01573
23.85092
23.68322
23.51362
23.3432
23.1729
23.00333
22.83455
22.66496
22.49003
22.31021
22.1267
21.94159
21.75743
21.57619
21.39906
21.22684
21.06052
20.90107
20.74943
20.6064
20.4724
20.34755
20.23174
20.12467
20.02584
19.93459
19.85011
19.77151
19.69791
19.6285
19.56267
19.50012
19.44108
19.38641
19.33778
19.29761
19.26886
19.25441
19.25568
19.2702
19.28893
19.29668
19.27953
19.23406
19.1687
19.09747
19.03286
18.9835
18.95537
18.95324
18.98087
19.04019
19.1293
19.23933
19.35131
19.42809
19.42734
19.8125
772.165
634.3137
562.1276
512.8694
472.8862
438.311
407.8509
380.882
355.8686
297.8986
237.2715
200.8073
177.5182
161.6055
150.0186
141.0703
133.8054
127.6475
100.8359
96.36803
92.05948
88.00423
84.2859
80.93943
77.94776
75.27541
72.87905
70.70088
68.78409
66.99706
65.23878
63.52022
61.85759
60.26615
58.75712
57.33279
55.98637
55.01061
54.32293
53.51297
52.62155
51.68835
50.73928
49.79522
48.8719
47.97717
47.1172
46.28947
45.48209
44.69737
43.93297
43.18734
42.46362
41.76578
41.09709
40.47006
36.25185
35.75801
35.28179
34.81977
34.36926
33.93055
33.50518
33.09451
32.69887
32.31458
31.93923
31.57335
31.2151
30.86346
30.51976
30.18716
29.87042
29.57958
29.33085
29.11959
28.906
28.70038
28.52162
28.36484
28.21861
28.08529
27.97322
27.87765
27.79331
27.71311
27.63048
27.54126
27.44436
27.34109
27.23332
27.12166
27.00445
26.87908
26.74375
26.6042
26.46869
26.34656
26.26607
26.25718
26.3194
26.44109
26.62724
26.85127
27.03176
27.14703
27.25781
27.33743
27.37722
27.37421
27.324
27.23057
27.1042
26.96412
26.84441
26.78701
26.83271
27.02736
27.4255
28.07684
29.01335
30.2357
31.69973
33.31128
34.93085
36.38816
37.51115
38.16253
38.2614
37.80019
36.84995
35.54824
34.07257
32.57106
31.10993
29.82292
28.82438
28.1902
27.9559
28.1288
28.70378
29.66581
30.9777
32.57979
34.39927
36.35976
38.40593
40.57041
43.09669
46.53478
51.66425
58.95653
67.62905
76.12629
82.89251
86.38043
86.16422
82.73151
77.02612
70.1771
63.14803
56.55945
50.75252
45.82433
41.76902
38.50585
35.92836
33.93315
32.44196
31.43364
30.91313
30.93259
31.65253
33.35217
36.01134
39.07602
42.44552
46.01039
49.87233
53.85032
57.50676
60.44117
62.32624
63.02597
62.57755
61.00094
58.36542
54.94443
51.16671
47.42253
43.94984
40.85208
38.15149
35.82976
33.84812
32.15055
30.67998
29.39499
28.26387
27.26498
26.37834
25.59336
24.89225
24.26872
24.26735
24.05825
23.80883
23.55731
23.31677
23.09313
22.88893
22.70493
22.54093
22.39615
22.26965
22.16022
22.06535
21.9822
21.9093
21.84492
21.78693
21.73317
21.6816
21.63035
21.5779
21.52292
21.46418
21.40056
21.33128
21.25611
21.17585
21.09153
21.00408
20.91457
20.82419
20.73398
20.64442
20.55419
20.45887
20.35423
20.24984
20.15662
20.07758
20.01974
19.99585
20.02819
20.16752
20.54597
21.39115
22.84444
24.28205
25.68198
27.58018
30.21635
33.49155
37.08838
40.71261
44.08195
46.76943
48.27657
48.18884
46.28978
42.92319
38.90297
34.99974
31.6489
29.0358
27.19341
26.05544
25.48545
25.30422
25.3215
25.36923
25.33261
23.54636
22.96955
22.31721
21.59883
20.83518
20.07185
19.35879
18.73503
18.22286
17.83001
17.55155
17.3563
17.22931
17.15507
17.11775
17.10215
17.09442
17.08283
17.05839
17.01508
16.94797
16.85044
16.72062
16.56014
16.37329
16.16689
15.94954
15.7305
15.51594
15.31016
15.11735
14.94099
14.78367
14.64723
14.53288
14.44118
14.37215
14.32562
14.30184
14.30248
14.32679
14.36902
14.4267
14.49754
14.57926
14.66917
14.76246
14.85421
14.94045
15.01725
15.08099
15.12846
15.15759
15.17297
15.17283
15.14722
15.10001
15.03647
14.95935
14.87099
14.77414
14.67134
14.56471
14.45611
14.34726
14.23975
14.13514
14.03487
13.94037
13.85291
13.77355
13.70311
13.64211
13.59068
13.54846
13.51437
13.48645
13.462
13.43808
13.4117
13.37989
13.33988
13.28924
13.22612
13.14932
13.05843
12.95383
12.83671
12.70902
12.57328
12.43235
12.28952
12.14507
11.99755
11.84897
11.70191
11.55841
11.42007
11.2881
11.1634
11.04656
10.93783
10.83722
10.74448
10.65915
10.5806
10.50808
10.44078
10.37791
10.31874
10.26262
10.20905
10.15771
10.10845
10.06135
10.0166
9.974409
9.934915
9.897998
9.863046
9.828748
9.79311
9.754019
9.710482
9.66345
9.615369
9.569023
9.526669
9.489978
9.460226
9.438379
9.424984
9.420133
9.422994
9.432184
9.446447
9.464873
9.491828
9.536081
628.6323
556.0543
496.7351
453.0697
419.8711
394.2774
374.4385
359.6343
349.6112
336.0486
187.4311
174.9823
164.0343
154.5584
146.8423
142.5844
139.8051
137.1945
130.2896
85.93362
84.07694
83.42217
82.7123
81.98649
81.23531
80.44203
79.59659
78.66074
77.34188
74.72502
72.26053
70.41818
69.02129
67.86512
66.82953
65.85453
64.91123
63.98235
63.99243
63.25875
62.20299
61.02893
59.84438
58.6976
57.60775
56.57838
55.60755
54.69765
53.82335
52.96439
52.11468
51.26997
50.43339
49.61047
48.80612
48.03249
44.2021
43.54975
42.92899
42.33277
41.75583
41.19367
40.64356
40.10394
39.57458
39.05443
38.54135
38.03755
37.54547
37.065
36.59644
36.1405
35.69699
35.26482
34.8419
34.4247
34.01193
33.6054
33.20613
32.81554
32.43607
32.06985
31.71741
31.37681
31.04366
30.71502
30.38897
30.06384
29.74072
29.42333
29.11558
28.82018
28.53625
28.25267
28.02291
27.78845
27.54777
27.30013
27.04792
26.79531
26.54661
26.30521
26.07212
25.84581
25.62415
25.40472
25.18587
24.96833
24.75521
24.55063
24.35933
24.18592
24.03354
23.89933
23.77185
23.64463
23.52115
23.40419
23.29376
23.1904
23.09767
23.01516
22.93886
22.863
22.78201
22.69295
22.59631
22.4949
22.39203
22.28987
22.18905
22.08896
21.98919
21.89156
21.80246
21.72665
21.6739
21.65642
21.67754
21.72443
21.78731
21.85483
21.90742
21.93933
21.95892
21.96677
21.95491
21.9176
21.8519
21.75916
21.64535
21.5222
21.4125
21.34567
21.34665
21.44168
21.6606
22.02667
22.55579
23.25348
24.10648
25.07947
26.11076
27.11157
27.9784
28.61013
28.92807
28.89426
28.52322
27.87925
27.06294
26.20495
25.43798
24.84913
24.53291
24.55085
24.92695
25.65923
26.73535
28.13967
29.8441
31.7907
33.90129
36.07346
38.17389
40.09204
41.75833
43.19881
44.82272
47.19855
50.51618
54.50328
58.46409
61.43384
62.693
62.06971
59.76412
56.19911
51.90501
47.40344
43.10491
39.27226
35.98599
33.24143
31.00233
29.21877
27.83823
26.82914
26.18077
25.86778
25.90642
26.3617
27.20032
28.32281
29.73777
31.49997
33.62253
36.00687
38.51095
40.9932
43.29005
45.25173
46.79297
47.85109
48.35364
48.25642
47.57378
46.35862
44.69923
42.71453
40.53862
38.29765
36.08888
33.98482
32.03338
30.25729
28.6582
27.22777
25.95179
24.81632
23.80328
22.9018
22.14025
21.43463
20.79868
20.22776
19.71702
19.26143
18.85578
18.49496
18.17411
17.88859
17.63407
17.40638
17.20166
17.01651
16.84801
16.69346
16.55039
16.41653
16.28982
16.16838
16.05052
15.93474
15.81973
15.70435
15.58772
15.46914
15.34815
15.22452
15.09819
14.96922
14.83776
14.70401
14.56806
14.43022
14.29121
14.15324
14.01944
13.89178
13.77287
13.66642
13.57762
13.51507
13.49384
13.53321
13.64541
13.82617
14.07994
14.44938
14.98459
15.72601
16.7038
17.94461
19.47016
21.27899
23.32443
25.50851
27.68752
29.66609
31.2226
32.13304
32.1973
31.35916
29.84633
28.04908
26.2972
24.7737
23.53419
22.55198
21.74908
21.04065
20.44813
19.8272
19.16237
18.46849
17.7675
17.08962
16.46722
15.92692
15.48559
15.15027
14.92115
14.78286
14.71209
14.69179
14.70589
14.73929
14.77831
14.81141
14.82994
14.82502
14.78875
14.71779
14.61106
14.4699
14.29784
14.1007
13.88584
13.65967
13.42787
13.19628
12.96867
12.7484
12.53853
12.34166
12.15974
11.9942
11.84601
11.71596
11.60494
11.51438
11.44661
11.39927
11.37059
11.35913
11.36345
11.3819
11.41239
11.45216
11.49839
11.54796
11.59783
11.64471
11.68615
11.71853
11.74015
11.75005
11.74781
11.7344
11.71107
11.67909
11.6401
11.59614
11.54941
11.50202
11.45587
11.41264
11.37374
11.34032
11.31321
11.29299
11.27994
11.27403
11.27489
11.28177
11.29356
11.30863
11.32496
11.34012
11.35155
11.35667
11.35287
11.33774
11.30914
11.26541
11.20547
11.12894
11.03618
10.92826
10.80696
10.67454
10.53374
10.3876
10.23942
10.09253
9.9467
9.803085
9.663293
9.528655
9.400209
9.278754
9.164763
9.058452
8.959807
8.868588
8.784368
8.706553
8.634405
8.567179
8.504167
8.444717
8.388238
8.334223
8.28231
8.232288
8.184115
8.137827
8.093404
8.050683
8.009284
7.968483
7.927214
7.884222
7.838555
7.790464
7.741485
7.693709
7.648896
7.608074
7.571781
7.54039
7.514199
7.493337
7.477897
7.467461
7.46172
7.460432
7.464318
7.474422
7.492395
362.5148
263.7566
376.0193
170.6139
133.9369
98.64038
85.52573
74.48976
65.36018
60.97452
59.17719
58.2146
57.34802
56.61324
55.89905
55.26888
54.69989
54.2431
53.93851
53.68995
53.48472
53.39678
53.58556
53.95206
54.36174
54.80835
55.29452
55.82214
56.38457
56.93491
57.31418
56.13349
56.64724
57.09308
57.41341
57.60933
57.68061
57.62571
57.44478
57.14812
56.75382
56.25458
55.66421
55.0058
54.29954
53.56001
52.7985
52.02326
51.24072
50.45486
49.67179
48.89459
48.11661
47.33549
46.55294
45.77442
45.00794
44.26139
43.53766
42.83724
42.15849
41.49959
40.85811
40.23184
39.62046
39.02362
38.44374
37.87218
37.35929
36.85768
36.37075
35.89717
35.43508
34.98321
34.54058
34.10646
33.67993
33.26026
32.84722
32.44187
32.0457
31.66033
31.28735
30.92781
30.58134
30.24568
29.91708
29.59178
29.26717
28.9426
28.6196
28.30196
27.99457
27.70126
27.42299
27.1572
26.89877
26.64226
26.38372
26.12177
25.85881
25.60005
25.35146
25.11659
24.89622
24.68569
24.48163
24.27769
24.06896
23.85363
23.63421
23.41619
23.20568
23.00687
22.82076
22.64526
22.47638
22.31006
22.1444
21.98091
21.8238
21.67798
21.54771
21.43575
21.34196
21.26213
21.18766
21.11137
21.03328
20.95677
20.88446
20.81818
20.75949
20.70836
20.66004
20.60806
20.547
20.47542
20.39612
20.3142
20.23442
20.15953
20.09013
20.02533
19.96429
19.90772
19.85871
19.82121
19.80023
19.80008
19.82004
19.8513
19.88358
19.90954
19.92556
19.93184
19.93055
19.92135
19.90054
19.86448
19.81208
19.74644
19.67571
19.61371
19.58053
19.59917
19.6858
19.84761
20.0878
20.40674
20.80283
21.27238
21.80878
22.40084
23.0256
23.64332
24.19882
24.62921
24.87693
24.90584
24.71427
24.33855
23.84888
23.3431
22.94231
22.75234
22.85112
23.28694
24.07475
25.21115
26.69144
28.49932
30.58584
32.86802
35.23507
37.52929
39.58652
41.30615
42.60572
43.4096
43.83816
44.2839
45.1328
46.53758
48.2927
49.92135
50.89854
50.8537
49.67334
47.4857
44.58021
41.30647
37.98911
34.87338
32.11107
29.77671
27.87612
26.36552
25.19261
24.32437
23.72493
23.35162
23.18437
23.2189
23.4236
23.78413
24.33769
25.12142
26.14138
27.38152
28.81315
30.38268
32.00075
33.56502
34.99436
36.24002
37.25958
38.01131
38.46237
38.58763
38.37571
37.83484
36.9928
35.8962
34.6006
33.16659
31.65551
30.11905
28.5967
27.13226
25.75783
24.489
23.3318
22.28382
21.34593
20.50571
19.75265
19.07872
18.47721
17.94162
17.4655
17.04272
16.6675
16.33437
16.03814
15.77394
15.53728
15.32416
15.13105
14.95482
14.79267
14.64216
14.50113
14.36768
14.24016
14.11712
13.9973
13.87961
13.76313
13.64716
13.53112
13.41461
13.29737
13.17923
13.06009
12.93993
12.81878
12.69678
12.57449
12.45285
12.33337
12.21731
12.10605
12.00131
11.90543
11.82177
11.75737
11.72024
11.71468
11.74281
11.81473
11.9509
12.1734
12.50275
12.96056
13.5727
14.36743
15.36733
16.58184
18.0046
19.60567
21.31752
23.04797
24.68587
26.09647
27.10878
27.52479
27.24809
26.40176
25.24384
24.00503
22.81993
21.73917
20.76289
19.87677
19.04322
18.24038
17.46572
16.72816
16.04413
15.43289
14.91076
14.4877
14.16687
13.94575
13.81482
13.7533
13.74302
13.76739
13.81115
13.86072
13.90471
13.93255
13.9337
13.90181
13.83595
13.73668
13.60536
13.44428
13.25696
13.0483
12.8243
12.59204
12.35657
12.12043
11.8865
11.65769
11.43668
11.2258
11.0269
10.84141
10.6704
10.51485
10.37577
10.2546
10.15181
10.06639
9.997798
9.945409
9.908455
9.88584
9.876129
9.877564
9.888071
9.905336
9.92679
9.949816
9.971734
9.990605
10.00486
10.01304
10.0144
10.00889
9.997098
9.98013
9.959519
9.937072
9.914683
9.894188
9.877292
9.865468
9.859908
9.861481
9.870709
9.887752
9.912391
9.94402
9.981642
10.02386
10.06886
10.11443
10.15813
10.19733
10.22935
10.25156
10.26145
10.25685
10.23601
10.19775
10.14157
10.06766
9.976903
9.870834
9.751584
9.621695
9.484028
9.341595
9.19743
9.05419
8.912554
8.773991
8.639799
8.511024
8.388431
8.272577
8.163729
8.061963
7.967158
7.878996
7.796969
7.720455
7.648827
7.581526
7.518101
7.457975
7.400554
7.345426
7.292385
7.241414
7.192589
7.145899
7.101126
7.057759
7.014884
6.971167
6.925168
6.876142
6.82499
6.773924
6.72522
6.680371
6.639897
6.603728
6.571679
6.543661
6.519635
6.499628
6.483474
6.47117
6.46276
6.459365
6.461381
6.469622
322.9959
217.5915
164.4845
146.6814
119.4656
100.2202
86.30935
80.89795
74.84115
71.31631
68.27401
64.18026
60.09647
56.23503
52.71446
48.85769
42.88745
41.51566
40.5211
39.99194
39.87972
40.04408
40.33094
40.68429
41.09734
41.57733
42.14963
42.78174
43.45513
44.16367
44.90372
45.67085
46.4619
47.27854
48.11735
48.97247
49.85407
50.77954
51.72633
52.69586
53.82294
54.77883
55.29204
55.712
56.00734
56.14553
56.12022
55.9351
55.60094
55.13316
54.54946
53.87166
53.11434
52.28964
51.41179
50.4968
49.56078
48.618
47.68108
46.75909
45.8565
44.97281
44.10595
43.25082
42.40482
41.56856
40.75164
39.96264
39.20948
38.49606
37.82306
37.18764
36.58426
36.00616
35.447
34.90275
34.37149
33.85439
33.35211
32.86817
32.40573
31.96621
31.54742
31.14593
30.75826
30.38135
30.01259
29.64973
29.29138
28.93708
28.58782
28.2463
27.9161
27.60037
27.30087
27.01727
26.74625
26.48215
26.21895
25.95199
25.67945
25.40365
25.13069
24.86822
24.623
24.39759
24.18829
23.98735
23.7861
23.5779
23.36024
23.13596
22.91269
22.70015
22.5055
22.33003
22.16905
22.01458
21.85767
21.69145
21.51347
21.32747
21.14213
20.96737
20.81035
20.67316
20.55312
20.44488
20.34352
20.24799
20.16253
20.09456
20.05003
20.03109
20.0355
20.05618
20.08182
20.10165
20.11157
20.11551
20.12062
20.13179
20.14991
20.17218
20.19308
20.20574
20.20344
20.18269
20.14631
20.10222
20.05946
20.02452
19.99979
19.98421
19.97534
19.97047
19.9694
19.97413
19.98715
20.01014
20.04331
20.08287
20.11976
20.14421
20.15176
20.14435
20.1269
20.10352
20.07579
20.04404
20.00992
19.97919
19.96428
19.98567
20.07304
20.26451
20.58817
21.02902
21.54095
22.07045
22.56708
22.98996
23.31567
23.54548
23.70697
23.83754
23.95012
24.03484
24.06665
24.01464
23.85549
23.5856
23.22898
22.83977
22.49901
22.30768
22.37083
22.75076
23.47979
24.57058
26.02722
27.84324
29.99039
32.40012
34.95086
37.44011
39.64447
41.45346
42.86875
43.84197
44.27603
44.23485
43.95533
43.72935
43.80006
44.1916
44.70639
45.01642
44.80523
43.88343
42.24117
40.02303
37.45703
34.78673
32.22031
29.90479
27.92454
26.3086
25.03814
24.06716
23.34824
22.8357
22.48117
22.24757
22.10953
22.04537
22.05674
22.1696
22.40876
22.78854
23.31705
23.99418
24.80533
25.71879
26.69103
27.67681
28.6333
29.5161
30.28089
30.88738
31.3092
31.53043
31.541
31.33986
30.93614
30.34511
29.58851
28.69554
27.70184
26.64996
25.56446
24.45956
23.36853
22.31783
21.32508
20.40116
19.55113
18.77567
18.07357
17.44189
16.8764
16.37215
15.92386
15.52613
15.17352
14.86061
14.58218
14.33337
14.10979
13.90755
13.72322
13.55383
13.39685
13.25012
13.11184
12.98048
12.85475
12.73361
12.61609
12.50145
12.38913
12.27865
12.1697
12.06209
11.95569
11.85042
11.74627
11.64323
11.54137
11.4409
11.34222
11.24592
11.15258
11.06269
10.97655
10.89474
10.8199
10.75537
10.70437
10.66966
10.65507
10.66778
10.71778
10.81609
10.97439
11.20608
11.52793
11.95991
12.5233
13.23865
14.12338
15.18581
16.41835
17.79555
19.27142
20.77728
22.23345
23.51939
24.46213
24.87892
24.71443
24.086
23.18332
22.16703
21.13551
20.13393
19.17385
18.25859
17.39465
16.5926
15.86633
15.22859
14.68669
14.24394
13.90008
13.65108
13.48932
13.39855
13.36058
13.35885
13.37821
13.40518
13.42763
13.43298
13.41267
13.36395
13.28754
13.18538
13.05904
12.9092
12.7368
12.5444
12.33671
12.11934
11.89546
11.66751
11.43806
11.20978
10.98539
10.76737
10.55766
10.35777
10.16891
9.992056
9.828078
9.677944
9.542601
9.422008
9.316235
9.225259
9.148941
9.086842
9.038272
9.002229
8.977399
8.96218
8.954713
8.95299
8.954949
8.958656
8.96231
8.964327
8.963588
8.95954
8.952157
8.941875
8.929553
8.916393
8.903829
8.8934
8.886642
8.884987
8.889683
8.901721
8.92179
8.950236
8.987034
9.031764
9.083592
9.14126
9.203077
9.266956
9.330484
9.391007
9.445729
9.491824
9.526575
9.547519
9.552601
9.540294
9.509703
9.460625
9.393552
9.309643
9.210639
9.098752
8.976527
8.846704
8.712062
8.575333
8.438383
8.30255
8.169318
8.039896
7.915227
7.79601
7.682721
7.575646
7.474887
7.380354
7.291755
7.208678
7.130565
7.056784
6.986763
6.920023
6.85624
6.795191
6.736758
6.681003
6.628095
6.578122
6.530932
6.486031
6.442393
6.398261
6.351512
6.301136
6.248514
6.196687
6.148385
6.104827
6.065964
6.031261
6.000271
5.972805
5.948831
5.928427
5.911587
5.898419
5.88896
5.883909
5.883176
5.887749
165.1265
121.8015
186.9691
91.88557
78.78761
67.56647
64.28401
61.99076
59.4583
58.50082
57.21257
55.32262
53.55651
51.65415
49.38551
44.78734
43.75944
42.79428
41.858
40.95491
40.03949
39.16091
38.37918
37.72917
37.23572
36.90133
36.64742
36.39968
36.34327
36.50538
36.86953
37.37657
37.95914
38.58797
39.26678
39.99995
40.76821
41.56284
42.38108
43.22005
44.0763
44.94429
45.82062
46.71622
47.64718
48.59151
49.55135
50.57766
51.5757
52.45108
53.20465
53.77464
54.09199
54.21751
54.1197
53.80724
53.30349
52.63447
51.82852
50.91502
49.92139
48.87102
47.78208
46.66769
45.53905
44.40843
43.28954
42.1975
41.14774
40.15187
39.21659
38.3386
37.51286
36.72849
35.97562
35.24859
34.54986
33.88227
33.249
32.65771
32.11285
31.6133
31.15214
30.7187
30.30211
29.89417
29.49065
29.09149
28.70032
28.32208
27.96143
27.62139
27.30212
27.00109
26.71409
26.43645
26.16378
25.89218
25.61884
25.34266
25.06502
24.79014
24.524
24.27245
24.03952
23.82579
23.62698
23.4352
23.24143
23.03861
22.82368
22.59888
22.3719
22.15417
21.95669
21.7843
21.63299
21.49251
21.35075
21.19768
21.02822
20.84454
20.65663
20.47882
20.32281
20.19184
20.08087
19.98031
19.87912
19.76831
19.64598
19.51985
19.40524
19.31855
19.26973
19.25878
19.28137
19.3315
19.40464
19.50845
19.66006
19.87451
20.15361
20.48301
20.83527
21.17563
21.46935
21.70057
21.88335
22.04812
22.22255
22.41934
22.62781
22.8235
22.98303
23.09035
23.14154
23.14606
23.12412
23.0986
23.08624
23.09364
23.11866
23.15494
23.19671
23.23891
23.2836
23.33279
23.38586
23.43843
23.48223
23.50627
23.49682
23.44724
23.35765
23.24158
23.1115
22.97632
22.84365
22.72345
22.63204
22.59553
22.6521
22.85117
23.24961
23.9076
24.84456
25.96259
27.09654
28.09837
28.85268
29.27817
29.34361
29.08009
28.58004
27.96516
27.32894
26.71302
26.12524
25.55816
25.0015
24.45371
23.93275
23.48294
23.17347
23.08977
23.32076
23.91061
24.8791
26.23543
27.97812
30.09565
32.54385
35.21296
37.88823
40.31249
42.39429
44.18419
45.62994
46.50712
46.56445
45.99391
45.17913
44.28503
43.50429
42.95158
42.58193
42.20893
41.60435
40.58864
39.10154
37.21028
35.06227
32.83627
30.69977
28.77959
27.15106
25.84072
24.83068
24.07311
23.51562
23.10859
22.79938
22.54435
22.31661
22.10174
21.90431
21.7443
21.64359
21.62014
21.68889
21.8603
22.13743
22.51445
22.97686
23.50319
24.06652
24.63557
25.17735
25.66103
26.06047
26.35393
26.52387
26.55783
26.44858
26.19702
25.81005
25.29955
24.68233
23.97953
23.21705
22.42522
21.6075
20.77603
19.95327
19.15677
18.4002
17.69248
17.0387
16.44107
15.89951
15.41228
14.97644
14.58819
14.24309
13.9363
13.66285
13.41799
13.19738
12.99714
12.81383
12.64455
12.48688
12.33885
12.19886
12.06562
11.93813
11.81558
11.69731
11.58283
11.47177
11.36393
11.2592
11.15757
11.05909
10.96386
10.87196
10.78351
10.69859
10.61732
10.5399
10.46653
10.39732
10.33195
10.2709
10.21507
10.16511
10.12229
10.08837
10.06562
10.05739
10.06808
10.10262
10.16657
10.26609
10.40829
10.60233
10.85998
11.19535
11.62499
12.16814
12.84478
13.67167
14.65731
15.7954
17.05837
18.39255
19.73537
21.01219
22.10039
22.83255
23.07957
22.85031
22.26346
21.4612
20.55235
19.60527
18.66351
17.75693
16.90877
16.13789
15.45803
14.87503
14.38901
13.99756
13.69604
13.47759
13.33021
13.23718
13.1827
13.15218
13.13245
13.11105
13.07641
13.02209
12.94639
12.85092
12.73904
12.61307
12.47264
12.31613
12.14333
11.95654
11.75828
11.55034
11.33561
11.11711
10.89774
10.68021
10.46672
10.25892
10.05824
9.865839
9.682498
9.508887
9.345712
9.193782
9.053586
8.925625
8.810313
8.707969
8.618609
8.542033
8.477748
8.424975
8.38267
8.349548
8.324148
8.304891
8.290164
8.278406
8.268208
8.258428
8.248275
8.237335
8.225578
8.213352
8.201352
8.190553
8.182116
8.177298
8.17736
8.183481
8.19669
8.217803
8.247372
8.285641
8.332513
8.38751
8.449746
8.517908
8.590259
8.664667
8.738666
8.809535
8.874409
8.93041
8.974805
9.005159
9.019481
9.016343
8.994962
8.955245
8.897769
8.82373
8.734842
8.633215
8.521216
8.401325
8.276014
8.147549
8.017451
7.887436
7.758984
7.633325
7.51145
7.394137
7.281975
7.17537
7.074522
6.979413
6.889664
6.804653
6.723862
6.646855
6.573392
6.503381
6.436736
6.373397
6.313399
6.256904
6.204049
6.15476
6.108595
6.064526
6.020627
5.974363
5.924344
5.872116
5.821359
5.775044
5.733991
5.697546
5.664824
5.635344
5.609016
5.58593
5.566251
5.550086
5.537602
5.52883
5.524288
5.523647
5.527992
67.72845
50.39908
48.59498
46.16227
45.13714
43.89278
42.90649
42.08198
41.39227
40.30206
37.60709
37.49118
37.39429
37.30895
37.20272
37.06328
36.92791
36.82623
36.76897
36.74238
36.59981
36.21694
35.8374
35.46754
35.1148
34.78545
34.50403
34.28906
34.15074
34.09236
34.10562
34.18243
34.34301
34.61705
35.0192
35.53789
36.13848
36.78384
37.46912
38.20288
38.97171
39.77243
40.60052
41.45467
42.33447
43.24084
44.15983
45.0822
46.03
47.06612
48.0763
49.0426
49.91865
50.64581
51.17689
51.47189
51.52061
51.32242
50.88482
50.22419
49.36691
48.34583
47.19711
45.95952
44.67174
43.36761
42.07248
40.80284
39.56565
38.36195
37.19454
36.07
35.00239
34.01538
33.12555
32.3336
31.63052
30.99827
30.41741
29.87032
29.3442
28.82869
28.32741
27.85039
27.40905
27.01161
26.65964
26.3466
26.05986
25.78574
25.51329
25.23611
24.95328
24.66896
24.38986
24.12272
23.8728
23.64277
23.43169
23.2354
23.04821
22.86445
22.67876
22.48651
22.28507
22.07556
21.86355
21.65724
21.46476
21.29217
21.14137
21.00787
20.88212
20.75339
20.61294
20.45613
20.28407
20.10504
19.93354
19.78418
19.66318
19.56578
19.4804
19.39383
19.2947
19.17616
19.03899
18.89408
18.75991
18.65296
18.5781
18.53005
18.49988
18.47933
18.4678
18.48709
18.56803
18.74381
19.03701
19.44288
19.92931
20.48174
21.0702
21.66474
22.30012
23.03744
23.91034
24.90444
25.96005
26.98466
27.88198
28.57576
29.04614
29.36021
29.62484
29.93484
30.30025
30.68225
31.02519
31.26821
31.37424
31.34522
31.22691
31.08462
30.97082
30.90883
30.89338
30.90372
30.92018
30.93419
30.9472
30.97207
31.01113
31.05199
31.0722
31.04258
30.93417
30.7299
30.44079
30.08629
29.69758
29.29635
28.89737
28.5168
28.17883
27.92202
27.80415
27.90368
28.30777
29.0772
30.20275
31.58891
33.07175
34.41464
35.45012
36.11211
36.32456
36.08682
35.42635
34.44232
33.25996
32.01244
30.78636
29.62329
28.54395
27.55946
26.6819
25.93677
25.37021
25.04604
25.03984
25.42456
26.22172
27.43298
29.04749
31.05164
33.4207
36.0692
38.80324
41.41353
43.92047
46.56896
49.37321
51.88303
53.22356
52.9844
51.95316
49.87776
47.37791
45.15553
43.40296
42.07557
40.99622
39.93376
38.6984
37.21146
35.49303
33.63453
31.76507
30.01282
28.4775
27.21464
26.23546
25.51311
24.99315
24.61686
24.33
24.07731
23.81571
23.52149
23.18673
22.8213
22.44759
22.09055
21.77235
21.51206
21.32476
21.21993
21.20129
21.26664
21.40781
21.61136
21.85935
22.13055
22.40234
22.65245
22.8601
23.00689
23.07753
23.06062
22.94895
22.73942
22.43315
22.03559
21.5565
21.00986
20.41319
19.79015
19.15222
18.50178
17.85381
17.2224
16.61851
16.04992
15.52182
15.03704
14.59642
14.19916
13.8431
13.52503
13.24094
12.98641
12.75709
12.54899
12.35851
12.18247
12.01824
11.86374
11.7173
11.57765
11.44382
11.31517
11.19118
11.07156
10.95608
10.84468
10.73741
10.63439
10.53586
10.44207
10.35331
10.26989
10.19206
10.12004
10.05404
9.994275
9.940961
9.894082
9.854438
9.822365
9.797852
9.781142
9.772964
9.774583
9.787849
9.81506
9.858471
9.919842
10.00024
10.10068
10.22288
10.36975
10.54634
10.76041
11.02329
11.3513
11.76539
12.28812
12.93972
13.73328
14.66944
15.73089
16.88291
18.07353
19.23754
20.28875
21.10015
21.54813
21.58327
21.25748
20.6715
19.92154
19.08693
18.22774
17.38942
16.60519
15.89644
15.27337
14.73835
14.29007
13.92455
13.63565
13.415
13.24902
13.12395
13.02664
12.94521
12.86909
12.78946
12.69981
12.59658
12.48058
12.3561
12.22686
12.09237
11.94858
11.79179
11.6206
11.43537
11.23892
11.03513
10.82743
10.61868
10.4112
10.2068
10.00701
9.813035
9.625515
9.444826
9.271405
9.10567
8.948168
8.799552
8.660569
8.531908
8.414194
8.307742
8.212674
8.128837
8.055824
7.992992
7.939489
7.894289
7.856237
7.824109
7.79668
7.772791
7.751425
7.731774
7.71329
7.695715
7.679097
7.663778
7.650358
7.639642
7.632568
7.630143
7.633371
7.643194
7.660432
7.685737
7.71955
7.762057
7.813144
7.872354
7.938848
8.011375
8.088271
8.167475
8.246581
8.322913
8.393646
8.455951
8.507143
8.544834
8.567077
8.572477
8.560267
8.530331
8.483183
8.4199
8.342019
8.251416
8.150172
8.040448
7.924396
7.803638
7.680055
7.55543
7.43133
7.309112
7.189926
7.074727
6.964272
6.859088
6.759319
6.664594
6.574536
6.488947
6.407649
6.330524
6.257488
6.188457
6.123312
6.061959
6.00441
5.95072
5.900808
5.854262
5.810153
5.766819
5.72207
5.674561
5.625525
5.578243
5.535223
5.496974
5.462738
5.431662
5.403408
5.378041
5.35576
5.336787
5.321274
5.309389
5.301188
5.297208
5.296994
5.301788
92.05189
38.96303
32.54178
31.21377
30.52885
30.23358
30.24773
30.43539
30.7514
31.15783
31.4974
31.64887
31.80179
31.94098
32.0691
32.17914
32.27926
32.37076
32.44117
32.46868
32.42897
32.33916
32.25288
32.17781
32.12138
32.08915
32.09326
32.13989
32.22874
32.36033
32.5358
32.75803
33.03739
33.38088
33.79772
34.28339
34.82263
35.42272
36.10261
36.84548
37.64808
38.51088
39.40624
40.33004
41.28256
42.2871
43.29877
44.29651
45.30051
46.29762
47.21229
47.97718
48.53649
48.84771
48.88679
48.64725
48.14569
47.40964
46.4403
45.27812
43.96661
42.55037
41.07268
39.57692
38.10502
36.69353
35.36742
34.137
32.99843
31.937
30.93991
30.01047
29.15904
28.39582
27.72984
27.16452
26.69221
26.28868
25.9253
25.5749
25.22003
24.85502
24.48655
24.12922
23.79974
23.5111
23.26755
23.06205
22.87966
22.7046
22.52472
22.33286
22.12782
21.91421
21.6999
21.49322
21.30117
21.1282
20.97467
20.83686