/*--------------------------------*- C++ -*----------------------------------*\
| =========                 |                                                 |
| \\      /  F ield         | foam-extend: Open Source CFD                    |
|  \\    /   O peration     | Version:     3.1                                |
|   \\  /    A nd           | Web:         http://www.extend-project.de       |
|    \\/     M anipulation  |                                                 |
\*---------------------------------------------------------------------------*/
FoamFile
{
    version     2.0;
    format      ascii;
    class       volScalarField;
    location    "15";
    object      pd;
}
// * * * * * * * * * * * * * * * * * * * * * * * * * * * * * * * * * * * * * //

dimensions      [1 -1 -2 0 0 0 0];

internalField   nonuniform List<scalar> 
119952
(
5113.454
3494.475
3256.218
3472.458
3703.333
3494.789
3428.727
3377.776
3348.535
3326.153
3309.438
3298.134
3290.243
3284.881
3281.448
3279.146
3276.575
3270.505
3251.059
3159.449
3528.5
3341.614
3261.591
3754.481
3740.102
3797.289
3863.522
4006.824
4414.292
7883.564
3069.104
3014.016
3012.882
3005.128
3000.108
2993.865
2994.627
2995.875
2996.814
2977.216
2973.481
2996.82
2997.418
3002.389
3008.448
3017.503
3028.976
3041.433
3056.033
3098.518
3106.144
3099.793
3109.867
3123.375
3135.59
3148.46
3161.149
3172.434
3190.187
3192.167
3197.127
3211.357
3223.807
3235.666
3248.844
3263.9
3289.554
3375.01
3553.183
3410.225
3351.328
3438.775
3476.683
3448.735
3396.631
3361.35
3336.83
3317.705
3303.813
3294.281
3287.759
3283.424
3280.819
3279.441
3278.56
3277.41
3277.309
3286
3327.57
3369.879
3389.328
3518.176
3705.608
3763.546
3800.107
3839.841
3792.252
3542.811
3519.195
3626.576
3690.519
3751.671
3813.985
3871.976
3927.53
3981.305
4033.373
4083.875
4133.277
4182.515
4232.462
4283.343
4335.092
4386.511
4435.184
4479.242
4519.61
4560.2
4604.395
4652.11
4701.13
4748.644
4792.011
4830.696
4864.534
4893.304
4916.412
4933.344
4944.5
4949.864
4949.379
4943.116
4931.601
4916.27
4900.31
4888.071
4884.435
4894.838
4926.077
4983.321
5066.423
5176.609
5276.564
5263.212
5293.724
5245.769
5205.587
5250.178
5219.807
5198.056
5216.184
5262.837
5329.481
5403.879
5479.575
5554.266
5623.909
5691.132
5755.708
5819.01
5881.717
5945.812
6013.393
6084.854
6161.18
6242.668
6320.513
6367.234
6310.212
6295.499
6359.51
6440.548
6492.159
6519.407
6537.914
6551.304
6561.336
6574.643
6594.009
6616.789
6640.202
6663.114
6685.648
6708.86
6733.724
6760.677
6789.742
6820.635
6852.945
6886.238
6920.227
6954.616
6989.145
7023.524
7057.534
7090.866
7124.164
7155.98
7183.442
7214.056
7242.197
7269.157
7294.554
7318.362
7340.58
7361.144
7380.081
7397.292
7412.913
7426.892
7439.055
7449.633
7458.741
7466.439
7472.811
7477.962
7482.01
7485.094
7487.285
7488.774
7489.677
7490.122
7490.228
7490.097
7489.847
7489.551
7489.262
7488.997
7488.698
7488.165
7486.855
7483.071
7477.466
7497.072
7512.558
7527.056
7541.527
7556.368
7571.886
7588.254
7605.539
7624.74
7645.184
7617.11
7620.666
7646.302
7664.819
7675.996
7683.446
7689.817
7696.584
7702.258
7705.591
7707.06
7707.173
7706.589
7706.397
7707.211
7708.248
7708.815
7708
7705.187
7699.815
7691.463
7679.939
7665.056
7645.454
7631.337
7601.892
7569.526
7540.382
7510.668
7482.392
7456.566
7434.449
7417.271
7406.086
7401.452
7403.872
7413.649
7430.574
7454.021
7482.995
7516.18
7552.021
7588.863
7625.133
7659.504
7691.064
7719.222
7743.592
7763.965
7780.304
7792.709
7801.356
7806.512
7808.548
7807.931
7805.17
7800.764
7795.129
7788.6
7781.603
7774.39
7767.131
7759.968
7753.034
7746.301
7739.88
7733.914
7728.456
7723.442
7718.321
7712.112
7705.753
7699.974
7694.609
7689.534
7684.737
7680.063
7673.69
7664.711
7662.854
7660.585
7656.085
7651.919
7648.011
7644.096
7640.348
7636.792
7633.385
7630.108
7626.942
7623.867
7620.831
7617.852
7614.895
7611.931
7608.932
7605.866
7602.701
7599.4
7595.928
7592.24
7588.278
7583.988
7579.414
7574.575
7569.478
7564.122
7558.52
7552.697
7546.687
7540.54
7534.313
7528.08
7521.905
7515.878
7510.065
7504.551
7499.436
7494.798
7490.674
7487.2
7484.376
7482.244
7480.833
7480.147
7480.163
7480.84
7482.118
7483.912
7486.118
7488.615
7491.27
7493.945
7496.501
7498.803
7500.727
7502.156
7502.986
7503.124
7502.484
7500.989
7498.57
7495.181
7490.81
7485.504
7479.391
7472.708
7465.823
7459.035
7452.436
7445.904
7439.235
7432.236
7424.73
7416.534
7407.449
7397.159
7385.239
7370.925
7352.967
7335.448
7344.819
7437.035
5730.63
5577.403
5396.185
5225.644
5061.41
4904.207
4754.529
4612.159
4477.629
4343.233
4223.362
4116.723
4015.388
3922.045
3836.852
3758.702
3687.547
3618.124
3546.574
3512.904
3453.089
3396.279
3352.282
3313.8
3279.042
3247.99
3219.215
3194.102
3174.988
3139.312
3118.01
3100.864
3083.992
3069.885
3057.608
3046.632
3038.773
3039.098
3014.518
2998.84
2994.386
2990.669
2987.05
2985.82
2986.087
2987.903
2990.965
2988.114
2994.323
3001.028
3006.187
3012.059
3020.07
3030.371
3043.465
3065.37
3064.372
3080.511
3098.651
3114.317
3127.416
3139.482
3151.347
3163.55
3175.325
3185.278
3196.36
3208.042
3217.971
3227.195
3238.156
3253.042
3274.767
3306.791
3345.728
3379.378
3384.288
3371.785
3371.755
3375.759
3369.701
3351.881
3329.472
3310.464
3297.345
3289.069
3283.787
3280.433
3278.69
3278.571
3280.168
3283.875
3290.749
3302.906
3323.336
3355.073
3399.446
3456.22
3527.955
3607.441
3669.97
3703.278
3707.849
3684.413
3640.951
3629.316
3669.33
3725.071
3783.816
3842.634
3899.336
3953.417
4005.019
4054.093
4100.62
4144.737
4186.996
4230.928
4275.855
4321.258
4369.126
4418.637
4469.277
4521.468
4575.807
4632.087
4688.892
4743.763
4793.948
4837.813
4875.15
4905.898
4930.489
4948.217
4957.803
4962.484
4961.435
4954.704
4942.306
4924.484
4902.61
4878.684
4855.976
4839.736
4836.095
4853.561
4901.018
4970.823
5035.785
5087.968
5109.435
5129.806
5160.293
5167.091
5184.053
5217.657
5240.989
5271.961
5327.675
5389.099
5453.762
5517.804
5581.368
5643.846
5704.713
5765.098
5825.228
5885.889
5947.626
6013.025
6080.459
6148.345
6216.268
6269.013
6309.368
6317.254
6332.741
6386.212
6445.159
6491.18
6521.057
6541.376
6559.159
6577.545
6598.394
6619.701
6638.445
6655.363
6672.838
6692.731
6715.186
6740.124
6767.345
6796.52
6827.765
6859.924
6893.004
6926.703
6960.732
6994.857
7028.883
7062.503
7095.381
7126.766
7156.239
7181.071
7210.995
7239.248
7265.77
7290.876
7314.429
7336.404
7356.775
7375.528
7392.651
7408.144
7421.984
7434.168
7444.793
7453.949
7461.708
7468.159
7473.404
7477.554
7480.731
7483.066
7484.689
7485.726
7486.303
7486.545
7486.569
7486.454
7486.309
7486.203
7486.176
7486.237
7486.353
7486.596
7487.625
7491.654
7501.659
7515.069
7528.452
7542.369
7556.842
7571.834
7587.226
7602.478
7616.705
7627.078
7626.98
7635.481
7651.45
7666.482
7678.336
7687.259
7694.842
7701.492
7706.622
7710.341
7712.504
7711.817
7710.154
7709.347
7709.836
7710.748
7711.243
7710.58
7708.051
7703.047
7695.108
7683.859
7668.921
7650.377
7626.249
7599.875
7568.63
7538.034
7508.036
7478.878
7451.988
7428.891
7410.795
7398.657
7393.35
7394.811
7403.752
7419.844
7442.48
7470.698
7503.215
7538.485
7574.712
7610.348
7644.101
7675.153
7703.024
7727.303
7747.753
7764.371
7777.35
7786.89
7793.083
7796.109
7796.439
7794.632
7791.183
7786.508
7780.939
7774.801
7768.347
7761.758
7755.172
7748.669
7742.502
7736.509
7730.784
7725.32
7720.019
7714.714
7709.249
7703.748
7698.419
7693.351
7688.513
7683.883
7679.435
7675.114
7670.103
7664.514
7659.687
7655.759
7652.097
7648.323
7644.494
7640.765
7637.195
7633.77
7630.468
7627.272
7624.165
7621.13
7618.14
7615.18
7612.22
7609.229
7606.173
7603.015
7599.719
7596.239
7592.532
7588.567
7584.326
7579.798
7574.988
7569.899
7564.533
7558.906
7553.041
7546.974
7540.752
7534.433
7528.081
7521.779
7515.595
7509.647
7503.929
7498.609
7493.745
7489.397
7485.568
7482.412
7479.944
7478.214
7477.178
7476.787
7477.031
7477.859
7479.192
7480.929
7482.95
7485.124
7487.318
7489.4
7491.24
7492.722
7493.739
7494.194
7494.006
7493.109
7491.443
7488.957
7485.624
7481.452
7476.434
7470.242
7462.097
7454.778
7449.155
7444.326
7438.698
7432.245
7425.363
7418.045
7410.183
7401.731
7392.604
7382.746
7372.633
7365.108
7363.521
7370.059
7383.264
3687.17
3745.021
3825.288
3924.15
4040.155
4172.325
4320.031
4482.818
4659.013
4844.995
5040.715
5246.636
5456.596
5670.327
5885.569
6097.532
6304.346
6500.394
6683.289
6867.49
7012.44
7135.366
7233.444
7304.506
7347.046
7360.155
7343.888
7299.117
7231.136
7135.222
7017.605
6880.221
6727.607
6562.968
6389.604
6210.688
6029.578
5849.574
5659.513
5484.32
5311.913
5144.744
4984.433
4830.728
4684.227
4545.78
4416.493
4295.406
4178.444
4073.256
3976.191
3885.913
3803.241
3727.302
3658.174
3604.313
3505.841
3451.697
3408.743
3367.458
3327.601
3290.823
3257.842
3228.279
3201.379
3175.721
3151.202
3129.822
3109.973
3091.147
3074.355
3060.293
3048.681
3038.778
3029.499
3019.911
3011.12
3002.618
2994.417
2987.725
2983.301
2981.369
2981.65
2983.246
2985.451
2988.906
2992.948
2996.884
3001.611
3008.164
3016.834
3027.51
3039.894
3053.85
3068.81
3085.305
3100.586
3113.661
3125.715
3137.796
3150.259
3162.598
3174.483
3185.827
3196.367
3205.436
3213.613
3222.092
3232.157
3245.265
3262.43
3283.826
3307.5
3329.839
3340.593
3335.489
3329.033
3328.143
3324.626
3313.752
3299.488
3287.29
3279.511
3275.512
3273.622
3272.996
3273.593
3275.712
3279.814
3286.54
3296.774
3311.751
3332.924
3362.1
3400.205
3445.55
3498.323
3555.54
3605.601
3637.819
3652.157
3653.735
3647.061
3652.834
3685.875
3738.429
3797.501
3856.752
3913.921
3968.052
4018.834
4065.511
4107.224
4144.76
4180.741
4216.203
4251.57
4291.361
4336.891
4387.639
4443.804
4505.24
4571.209
4639.932
4708.454
4773.413
4831.726
4881.227
4921.092
4951.449
4972.856
4984.823
4991.443
4989.928
4982.008
4968.474
4949.534
4924.892
4894.228
4859.051
4822.902
4789.919
4763.468
4749.941
4778.21
4843.34
4911.363
4954.792
4965.443
4986.729
5022.017
5074.318
5145.612
5220.095
5285.154
5341.942
5394.419
5444.25
5495.881
5548.544
5601.476
5654.369
5708.036
5762.508
5816.589
5872.463
5930.43
5990.588
6053.113
6114.985
6174.675
6230.225
6274.918
6299.553
6327.663
6378.544
6432.94
6475.745
6510.603
6542.115
6568.183
6587.049
6602.975
6620.709
6640.708
6661.66
6683.324
6704.996
6726.829
6750.057
6775.358
6802.962
6832.544
6863.973
6896.417
6929.496
6962.939
6996.466
7029.865
7062.838
7095.302
7127.128
7159.365
7190.044
7218.377
7245.062
7270.633
7295.003
7317.933
7339.307
7359.099
7377.3
7393.895
7408.873
7422.239
7434.015
7444.26
7453.052
7460.472
7466.61
7471.57
7475.47
7478.431
7480.581
7482.05
7482.967
7483.457
7483.642
7483.641
7483.565
7483.518
7483.606
7483.93
7484.632
7485.905
7488.135
7491.913
7498.017
7506.928
7518.138
7530.652
7543.9
7557.637
7571.654
7585.691
7599.204
7610.581
7620.974
7629.722
7638.866
7650.483
7662.479
7672.962
7681.904
7689.692
7696.313
7701.761
7705.135
7707.555
7710.484
7714.262
7718.594
7721.301
7720.386
7717.795
7715.093
7711.565
7705.994
7697.518
7685.514
7669.558
7650.641
7629.674
7603.214
7572.269
7540.57
7509.114
7478.367
7449.692
7424.661
7404.458
7390.057
7382.172
7381.954
7389.059
7403.494
7424.786
7452.058
7484.106
7519.438
7556.061
7592.185
7626.624
7658.728
7687.796
7713.132
7734.37
7751.539
7764.901
7774.771
7781.585
7785.556
7786.875
7785.982
7783.408
7779.571
7774.807
7769.411
7763.619
7757.614
7751.533
7745.488
7739.597
7733.876
7728.35
7723.013
7717.822
7712.721
7707.641
7702.552
7697.562
7692.745
7688.13
7683.628
7679.188
7674.634
7670.272
7666.261
7662.231
7658.081
7653.924
7649.843
7645.871
7642.045
7638.39
7634.896
7631.533
7628.284
7625.136
7622.076
7619.08
7616.123
7613.177
7610.209
7607.185
7604.068
7600.822
7597.407
7593.782
7589.908
7585.761
7581.329
7576.607
7571.593
7566.288
7560.702
7554.857
7548.785
7542.53
7536.147
7529.697
7523.251
7516.888
7510.71
7504.783
7499.187
7494.003
7489.306
7485.132
7481.491
7478.602
7476.411
7474.862
7473.963
7473.703
7474.033
7474.884
7476.159
7477.739
7479.494
7481.298
7483.019
7484.518
7485.689
7486.441
7486.683
7486.339
7485.365
7483.713
7481.342
7478.232
7474.402
7469.761
7462.814
7449.035
7441.648
7436.169
7435.888
7433.242
7427.491
7420.892
7413.944
7406.661
7399.094
7391.353
7383.09
7374.052
7369.057
7367.327
7371.799
7378.402
3677.284
3640.992
3611.662
3583.227
3560.869
3549.634
3552.316
3572.494
3606.974
3622.858
3622.427
3640.014
3680.109
3739.5
3818.022
3913.956
4025.998
4154.062
4296.548
4452.601
4622.247
4803.461
4993.445
5191.308
5394.941
5602.073
5810.136
6016.44
6218.661
6412.267
6593.609
6796.915
6945.212
7064.449
7157.436
7223.017
7259.525
7266.491
7244.553
7195.342
7121.067
7022.735
6902.122
6762.38
6607.288
6440.578
6265.884
6086.546
5905.506
5725.238
5547.609
5374.281
5205.708
5042.604
4886.077
4736.552
4594.715
4460.84
4335.031
4217.623
4108.538
4007.769
3915.181
3830.121
3751.853
3679.561
3612.505
3549.66
3487.927
3435.07
3390.884
3349.478
3310.216
3274.679
3243.217
3215.109
3189.157
3164.802
3142.072
3120.319
3099.658
3081.132
3065.331
3052.278
3041.588
3032.313
3023.589
3015.278
3006.612
2996.96
2987.851
2981.166
2976.65
2974.367
2975.044
2977.488
2980.725
2984.059
2987.376
2991.094
2995.688
3001.398
3010.061
3021.634
3035.238
3051.221
3067.682
3083.673
3098.779
3112.714
3125.802
3138.873
3152.218
3164.996
3177.105
3188.091
3197.278
3204.617
3210.786
3216.86
3224.025
3233.131
3244.655
3258.949
3275.342
3289.866
3296.977
3294.606
3288.482
3284.028
3279.713
3273.371
3266.322
3261.012
3258.964
3259.542
3261.079
3263.234
3266.322
3270.745
3277.073
3285.825
3297.472
3312.937
3333.332
3359.286
3391.019
3427.883
3468.781
3511.676
3551.765
3583.626
3605.96
3622.153
3636.664
3657.994
3694.901
3747.056
3806.968
3868.322
3927.885
3983.904
4035.14
4080.339
4118.008
4148.066
4175.119
4198.493
4221.634
4254.532
4296.101
4346.311
4406.427
4476.343
4554.402
4637.296
4720.445
4799.056
4868.981
4927.44
4973.297
5006.589
5027.875
5037.75
5037.894
5029.113
5013.149
4991.119
4963.152
4927.859
4884.77
4836.509
4786.401
4730.474
4628.928
4547.175
4619.271
4718.332
4767.165
4794.7
4815.205
4836.526
4893.181
4979.135
5080.899
5186.961
5284.735
5367.851
5437.881
5496.443
5546.201
5590.385
5632.232
5673.714
5716.267
5760.248
5807.884
5857.472
5909.288
5963.738
6020.963
6078.223
6134.607
6188.888
6235.753
6273.257
6312.982
6362.034
6412.449
6457.745
6497.809
6532.304
6560.331
6583.438
6605.654
6629.69
6654.138
6676.568
6697.147
6717.672
6739.467
6763.033
6788.681
6816.409
6845.661
6876.06
6907.32
6939.195
6971.444
7003.812
7036.162
7068.325
7100.174
7131.462
7162.081
7191.046
7218.435
7244.744
7270.012
7294.025
7316.586
7337.612
7357.088
7375.008
7391.361
7406.137
7419.338
7430.991
7441.145
7449.866
7457.231
7463.327
7468.258
7472.137
7475.086
7477.231
7478.7
7479.619
7480.115
7480.312
7480.332
7480.299
7480.336
7480.577
7481.172
7482.306
7484.225
7487.222
7491.688
7497.984
7506.433
7516.935
7528.848
7541.618
7554.905
7568.424
7581.86
7594.871
7606.809
7617.399
7626.705
7636.252
7646.934
7657.313
7666.409
7674.356
7681.431
7687.699
7693.239
7698.217
7702.945
7707.427
7710.983
7713.478
7716.432
7720.609
7723.252
7721.645
7717.296
7710.93
7701.951
7689.668
7673.835
7654.189
7630.768
7602.764
7571.137
7538.029
7504.707
7472.157
7441.91
7415.404
7393.656
7377.699
7368.457
7366.753
7372.76
7386.474
7407.425
7434.728
7467.115
7503.278
7540.947
7578.077
7613.77
7647.367
7677.906
7704.61
7727.047
7745.105
7758.907
7768.843
7775.483
7779.222
7780.495
7779.798
7777.531
7774.048
7769.65
7764.589
7759.102
7753.375
7747.55
7741.738
7736.029
7730.475
7725.089
7719.878
7714.826
7709.897
7705.049
7700.263
7695.581
7691.036
7686.64
7682.341
7678.117
7673.955
7669.942
7665.973
7661.858
7657.675
7653.592
7649.671
7645.884
7642.211
7638.658
7635.231
7631.923
7628.724
7625.623
7622.607
7619.654
7616.74
7613.839
7610.92
7607.948
7604.888
7601.702
7598.352
7594.796
7591
7586.939
7582.594
7577.954
7573.01
7567.762
7562.218
7556.397
7550.326
7544.048
7537.615
7531.089
7524.542
7518.053
7511.708
7505.589
7499.772
7494.351
7489.367
7484.921
7481.062
7477.821
7475.232
7473.321
7472.085
7471.492
7471.501
7472.049
7473.045
7474.362
7475.848
7477.398
7478.904
7480.214
7481.215
7481.815
7481.918
7481.494
7480.528
7478.983
7476.777
7473.875
7470.269
7465.485
7454.407
7441.535
7435.758
7429.538
7424.109
7426.415
7424.315
7418.392
7411.832
7405.07
7398.236
7391.504
7385.139
7377.981
7371.528
7369.105
7369.91
7375.406
4179.062
4136.899
4095.625
4052.247
4005.246
3954.867
3907.747
3860.673
3814.536
3769.646
3726.021
3685.554
3647.113
3612.789
3583.81
3560.035
3543.459
3538.636
3542.879
3552.265
3563.356
3581.538
3612.874
3660.176
3723.813
3803.292
3900.358
4013.995
4143.466
4287.861
4445.966
4616.391
4797.833
4988.757
5187.185
5390.783
5597.642
5805.154
6010.23
6210.022
6401.266
6578.283
6731.343
6874.021
6992.949
7085.533
7150.077
7185.217
7190.689
7167.271
7116.492
7040.47
6941.074
6820.171
6680.37
6525.133
6358.23
6183.529
6004.58
5824.553
5646.179
5470.846
5299.852
5134.455
4974.607
4820.611
4673.261
4533.02
4400.466
4276.601
4161.925
4056.345
3959.588
3871.045
3789.84
3714.913
3645.463
3580.297
3519.548
3463.318
3412.472
3367.455
3326.953
3290.353
3257.75
3228.825
3202.721
3178.36
3155.063
3132.429
3110.366
3089.666
3071.513
3056.502
3044.48
3035.104
3027.067
3019.186
3010.74
3001.263
2990.961
2980.994
2973.076
2968.773
2967.075
2968.342
2971.923
2975.648
2978.952
2981.857
2984.747
2988.15
2992.929
3001.431
3013.952
3029.439
3046.891
3064.541
3081.919
3098.634
3113.958
3128.139
3141.899
3155.63
3168.964
3181.273
3191.696
3199.605
3204.974
3208.135
3210.129
3212.546
3216.686
3223.037
3233.106
3244.854
3254.687
3256.867
3253.04
3245.841
3239.124
3234.258
3231.121
3230.116
3231.255
3235.718
3241.802
3246.672
3251.453
3256.946
3263.424
3271.444
3281.508
3293.677
3308.687
3327.476
3349.738
3375.502
3404.639
3436.459
3469.93
3503.245
3533.952
3560.706
3585.916
3613.168
3646.747
3691.198
3747.272
3811.097
3877.623
3942.897
4003.922
4058.031
4102.953
4136.261
4156.951
4168.758
4176.535
4187.309
4208.494
4241.64
4288.667
4351.623
4430.495
4522.663
4623.33
4725.885
4823.252
4909.572
4981.115
5036.128
5074.327
5096.387
5103.419
5097.437
5080.561
5054.899
5022.005
4981.721
4932.99
4876.601
4815.138
4745.585
4590.023
4385.753
4351.552
4469.494
4566.324
4573.3
4582.987
4589.195
4632.108
4724.836
4846.668
4985.051
5131.126
5268.206
5383.238
5475.059
5544.522
5595.477
5634.317
5666.869
5697.308
5728.367
5761.854
5799.095
5839.773
5883.374
5930.793
5983.189
6036.974
6089.997
6142.585
6192.683
6239.208
6286.21
6337.069
6388.909
6437.284
6480.35
6518.309
6552.016
6582.672
6611.792
6639.945
6666.368
6690.508
6713.31
6736.426
6760.443
6785.204
6810.8
6837.548
6865.591
6894.753
6924.755
6955.357
6986.254
7017.221
7048.131
7078.873
7109.291
7139.063
7167.969
7195.844
7222.645
7248.393
7272.991
7296.297
7318.198
7338.638
7357.595
7375.054
7390.998
7405.412
7418.298
7429.678
7439.594
7448.101
7455.272
7461.19
7465.958
7469.688
7472.502
7474.524
7475.879
7476.693
7477.091
7477.197
7477.137
7477.045
7477.058
7477.331
7478.036
7479.375
7481.586
7484.928
7489.692
7496.133
7504.435
7514.536
7526.075
7538.619
7551.739
7565.162
7578.565
7591.568
7603.637
7614.782
7625.033
7634.713
7644.477
7653.372
7661.003
7667.732
7673.602
7678.759
7683.299
7687.184
7690.597
7694.059
7698.098
7702.667
7707.443
7711.516
7715.01
7717.693
7717.195
7711.883
7702.466
7689.378
7672.579
7651.668
7626.775
7597.973
7565.85
7531.798
7497.189
7463.273
7431.642
7403.836
7380.816
7363.481
7352.874
7350.187
7355.553
7368.956
7389.883
7417.468
7449.647
7484.618
7523.545
7562.971
7600.695
7635.593
7667.268
7695.146
7718.737
7737.861
7752.672
7763.484
7770.373
7773.759
7774.676
7773.853
7771.619
7768.291
7764.138
7759.349
7754.123
7748.637
7743.027
7737.412
7731.879
7726.484
7721.256
7716.207
7711.326
7706.591
7701.978
7697.471
7693.077
7688.806
7684.656
7680.606
7676.639
7672.731
7668.856
7664.968
7661.048
7657.143
7653.321
7649.603
7645.969
7642.409
7638.936
7635.565
7632.302
7629.143
7626.077
7623.093
7620.173
7617.296
7614.435
7611.56
7608.638
7605.632
7602.506
7599.221
7595.739
7592.026
7588.054
7583.798
7579.243
7574.378
7569.199
7563.71
7557.928
7551.877
7545.597
7539.137
7532.559
7525.933
7519.336
7512.85
7506.561
7500.555
7494.901
7489.7
7485.006
7480.883
7477.375
7474.515
7472.324
7470.804
7469.936
7469.687
7470.003
7470.796
7471.934
7473.247
7474.61
7475.936
7477.118
7478.061
7478.653
7478.618
7477.795
7476.985
7475.903
7474.076
7471.395
7467.954
7462.148
7444.998
7436.973
7431.046
7429.833
7432.32
7428.811
7423.084
7417.113
7410.911
7404.533
7398.142
7391.916
7386.133
7380.54
7375.559
7373.188
7373.161
7374.933
4600.536
4551.71
4506.865
4464.408
4424.977
4380.668
4342.046
4303.29
4263.948
4223.67
4183.02
4141.993
4098.862
4055.174
4008.742
3955.715
3908.585
3861.937
3815.791
3770.481
3726.426
3684.437
3644.885
3608.646
3576.564
3549.718
3528.864
3516.114
3510.985
3512.79
3522.019
3541.398
3573.131
3619.281
3681.583
3760.678
3856.144
3967.874
4095.392
4237.82
4393.992
4562.522
4741.796
4930.246
5126.097
5326.718
5529.427
5732.397
5933.569
6129.4
6317.991
6495.97
6655.277
6794.964
6910.464
6998.801
7058.153
7087.631
7087.467
7058.888
7003.743
6924.171
6822.28
6700.013
6559.598
6404.21
6237.363
6063.037
5885.218
5706.865
5531.146
5360.298
5194.906
5035.416
4881.998
4733.854
4590.674
4453.417
4323.748
4203.258
4092.45
3991.5
3900.018
3816.816
3740.716
3670.557
3605.242
3543.828
3486.387
3432.917
3383.522
3339.091
3300.306
3266.872
3237.696
3211.732
3188.061
3165.54
3143.209
3120.689
3098.386
3077.452
3059.539
3045.728
3034.799
3027.292
3021.146
3014.237
3005.644
2995.391
2984.145
2973.025
2963.432
2958.518
2958.369
2961.157
2965.581
2969.767
2973.012
2975.232
2976.755
2978.354
2981.748
2989.931
3003.76
3021.647
3041.377
3060.565
3080.124
3099.066
3115.93
3130.992
3145.457
3160.139
3174.552
3187.416
3197.285
3203.578
3206.236
3205.222
3202.22
3199.126
3197.37
3198.445
3206.725
3215.463
3220.028
3218.166
3210.918
3200.7
3191.674
3186.432
3185.941
3190.687
3197.629
3208.478
3223.389
3231.09
3238.266
3246.344
3254.726
3263.989
3274.638
3286.087
3299.801
3317.287
3335.872
3355.664
3377.048
3400.306
3426.123
3454.332
3483.484
3511.488
3541.965
3577.79
3621.335
3674.751
3738.431
3810.069
3885.553
3960.189
4029.692
4090.383
4137.753
4166.396
4173.86
4164.954
4150.876
4142.89
4147.763
4169.053
4210.453
4274.882
4363.196
4473.214
4597.247
4725.249
4847.007
4954.44
5042.663
5109.336
5154.027
5177.858
5182.471
5170.375
5144.375
5107.343
5061.377
5006.682
4943.413
4872.112
4791.479
4639.345
4352.688
4288.804
4316.879
4388.498
4353.567
4299.158
4264.671
4270.168
4344.961
4492.905
4683.608
4883.081
5071.408
5244.786
5389.057
5503.22
5584.892
5639.232
5675.543
5701.107
5721.719
5741.53
5763.59
5789.406
5819.726
5852.701
5891.401
5938.591
5989.024
6038.599
6090.687
6144.13
6197.393
6251.478
6307.489
6363.33
6415.724
6463.46
6507.044
6546.994
6583.474
6617.006
6648.322
6677.785
6705.598
6732.378
6758.756
6784.916
6810.996
6837.183
6863.847
6891.381
6919.7
6948.501
6977.59
7006.833
7036.124
7065.289
7094.172
7122.696
7150.797
7178.255
7204.922
7230.648
7255.307
7278.809
7301.075
7322.034
7341.63
7359.829
7376.604
7391.933
7405.796
7418.189
7429.131
7438.658
7446.812
7453.66
7459.286
7463.788
7467.276
7469.872
7471.695
7472.866
7473.508
7473.739
7473.681
7473.461
7473.214
7473.087
7473.245
7473.874
7475.19
7477.433
7480.856
7485.715
7492.218
7500.484
7510.466
7521.938
7534.547
7547.977
7561.77
7575.572
7589.004
7601.677
7613.355
7623.807
7633.768
7643.115
7650.522
7656.714
7662.031
7666.149
7669.268
7671.604
7673.408
7675.316
7678.08
7681.929
7686.588
7691.787
7696.724
7701.02
7704.139
7705.718
7704.282
7697.386
7684.954
7667.666
7645.972
7620.393
7591.196
7558.778
7524.192
7488.855
7454.148
7421.487
7392.403
7368.118
7349.479
7337.388
7333.846
7338.92
7352.327
7373.336
7401.183
7432.358
7467.91
7506.589
7546.882
7587.348
7623.506
7655.959
7684.757
7709.392
7729.535
7745.287
7756.854
7764.162
7767.744
7768.773
7767.984
7765.782
7762.475
7758.334
7753.619
7748.57
7743.316
7737.932
7732.526
7727.182
7721.968
7716.925
7712.072
7707.402
7702.897
7698.535
7694.298
7690.179
7686.174
7682.277
7678.472
7674.736
7671.042
7667.364
7663.698
7660.044
7656.41
7652.81
7649.256
7645.754
7642.31
7638.938
7635.653
7632.462
7629.364
7626.353
7623.419
7620.548
7617.719
7614.908
7612.085
7609.218
7606.271
7603.208
7599.992
7596.585
7592.954
7589.069
7584.905
7580.441
7575.665
7570.568
7565.153
7559.431
7553.425
7547.171
7540.715
7534.115
7527.44
7520.766
7514.175
7507.755
7501.59
7495.766
7490.365
7485.452
7481.096
7477.347
7474.24
7471.797
7470.024
7468.908
7468.425
7468.541
7469.175
7470.126
7471.24
7472.438
7473.609
7474.669
7475.539
7476.089
7475.764
7474.175
7473.31
7472.875
7471.646
7469.204
7465.99
7461.14
7448.911
7439.715
7439.021
7436.508
7430.625
7425.852
7421.383
7416.206
7410.416
7404.356
7398.259
7392.311
7386.811
7381.934
7377.995
7374.961
7373.257
7373.235
4823.948
4806.214
4760.071
4702.223
4644.621
4592.892
4545.478
4501.936
4461.637
4421.32
4376.926
4338.873
4300.912
4262.328
4222.81
4182.307
4140.679
4097.585
4053.128
4008.044
3963.214
3916.762
3870.154
3823.637
3777.593
3732.324
3688.159
3645.224
3604.399
3566.945
3534.129
3507.914
3488.782
3477.708
3475.786
3483.645
3502.989
3535.263
3581.783
3643.624
3721.437
3815.36
3925.325
4050.891
4191.235
4345.211
4511.631
4688.607
4874.204
5066.089
5261.759
5459.619
5658.033
5855.375
6048.341
6232.884
6405.118
6559.457
6692.015
6799.753
6879.762
6930.197
6950.488
6941.449
6904.944
6843.419
6759.262
6654.49
6531.05
6390.629
6236.011
6070.699
5897.943
5722.329
5547.209
5375.553
5210.236
5052.269
4901.359
4756.634
4616.36
4479.73
4348.644
4225.05
4110.099
4004.7
3909.828
3825.209
3748.832
3679.287
3615.603
3556.098
3499.498
3445.551
3394.411
3346.612
3303.444
3266.782
3237.053
3212.309
3190.591
3170.447
3150.278
3129.075
3106.677
3083.806
3061.94
3043.165
3029.998
3022.853
3018.316
3014.764
3009.145
3000.295
2988.895
2976.054
2962.848
2950.964
2944.199
2945.758
2952.108
2958.554
2963.349
2966.297
2967.459
2967.125
2965.937
2966.186
2973.646
2990.507
3012.128
3034.85
3056.997
3079.405
3100.126
3117.903
3133.421
3148.949
3165.776
3182.622
3197.016
3206.606
3210.981
3210.219
3202.635
3192.491
3183.118
3175.469
3171.914
3179.88
3190.43
3187.313
3180.582
3165.914
3150.558
3139.413
3133.017
3135.126
3147.873
3164.377
3180.173
3202.054
3212.563
3221.521
3232.979
3244.347
3255.789
3267.55
3276.533
3286.795
3303.575
3318.709
3332.99
3347.383
3361.681
3379.411
3401.601
3429.411
3455.004
3488.009
3530.657
3583.12
3646.25
3720.419
3803.845
3892.723
3981.571
4064.272
4135.507
4188.875
4214.313
4204.601
4166.157
4119.715
4084.585
4068.07
4074.021
4107.8
4173.559
4272.657
4403.578
4557.471
4718.926
4871.842
5005.322
5113.718
5194.437
5247.137
5273.225
5275.165
5256.336
5220.75
5171.448
5110.714
5039.874
4959.126
4858.823
4677.491
4365.032
4308.995
4366.069
4362.111
4235.69
4086.471
3928.013
3624.359
3303.662
3583.886
4113.499
4535.323
4800.02
5025.458
5226.255
5388.817
5519.576
5614.927
5675.555
5711.696
5732.341
5744.74
5753.926
5764.169
5777.968
5797.059
5819.389
5848.305
5886.584
5929.956
5977.284
6029.898
6087.426
6148.035
6210.617
6274.051
6336.064
6394.396
6448.267
6497.813
6543.15
6584.413
6622.326
6657.806
6691.342
6723.101
6753.336
6782.41
6810.677
6838.424
6865.889
6893.403
6921.149
6949.02
6976.884
7004.683
7032.389
7059.969
7087.354
7114.444
7141.268
7167.537
7193.237
7218.245
7242.377
7265.505
7287.557
7308.472
7328.185
7346.641
7363.796
7379.622
7394.09
7407.178
7418.876
7429.203
7438.189
7445.857
7452.262
7457.484
7461.617
7464.782
7467.09
7468.653
7469.584
7469.997
7470.002
7469.714
7469.252
7468.748
7468.351
7468.229
7468.584
7469.646
7471.674
7474.941
7479.706
7486.178
7494.474
7504.59
7516.355
7529.469
7543.532
7558.108
7572.773
7587.099
7600.664
7613.134
7624.255
7634.257
7642.882
7649.518
7654.339
7657.699
7659.721
7660.415
7660.185
7659.444
7659.056
7660.068
7662.761
7666.718
7671.418
7676.67
7682.071
7686.314
7688.687
7688.314
7684.29
7675.231
7659.718
7638.647
7613.261
7584.035
7551.522
7516.755
7481.184
7446.25
7413.067
7383.044
7357.737
7338.342
7325.438
7321.064
7325.508
7338.88
7360.022
7388.151
7421.619
7456.556
7493.1
7535.132
7576.173
7612.715
7645.324
7674.432
7699.733
7720.725
7737.033
7748.792
7756.313
7760.397
7761.923
7761.479
7759.51
7756.341
7752.269
7747.627
7742.648
7737.465
7732.22
7727.017
7721.894
7716.9
7712.087
7707.48
7703.073
7698.843
7694.763
7690.809
7686.968
7683.232
7679.59
7676.028
7672.526
7669.063
7665.624
7662.203
7658.793
7655.388
7651.99
7648.615
7645.275
7641.98
7638.741
7635.569
7632.474
7629.457
7626.517
7623.646
7620.834
7618.062
7615.307
7612.541
7609.731
7606.845
7603.845
7600.696
7597.362
7593.81
7590.01
7585.936
7581.566
7576.885
7571.883
7566.56
7560.921
7554.988
7548.791
7542.375
7535.792
7529.109
7522.402
7515.751
7509.243
7502.966
7497.006
7491.444
7486.353
7481.801
7477.843
7474.515
7471.844
7469.835
7468.483
7467.768
7467.672
7468.069
7468.736
7469.593
7470.604
7471.633
7472.566
7473.312
7473.771
7473.708
7472.133
7470.647
7470.05
7469.056
7466.817
7463.766
7460.115
7455.92
7450.086
7435.065
7400.825
7396.032
7409.694
7418.053
7415.361
7409.911
7404.031
7398.086
7392.256
7386.807
7381.867
7377.717
7374.281
7371.969
7370.743
4808.601
4776.037
4708.913
4659.52
4611.65
4567.343
4526.09
4487.174
4449.78
4413.517
4378.251
4342.137
4305.403
4267.687
4228.961
4188.925
4147.465
4104.443
4059.728
4013.755
3967.884
3921.371
3874.487
3827.445
3779.986
3731.95
3684.04
3637.184
3592.341
3551.066
3515.141
3485.822
3463.924
3450.396
3446.427
3453.051
3471.593
3503.23
3549.082
3609.939
3686.381
3778.697
3886.835
4010.375
4148.546
4300.096
4463.83
4637.147
4817.346
5002.778
5192.521
5385.86
5580.333
5772.835
5959.803
6137.094
6300.421
6445.183
6567.253
6663.474
6731.359
6769.467
6777.603
6757.205
6710.806
6641.425
6552.148
6444.835
6321.074
6182.475
6030.628
5869.074
5700.552
5527.781
5355.734
5189.309
5031.451
4882.738
4741.917
4606.895
4476.143
4349.093
4226.747
4110.489
4001.49
3901.546
3813.424
3737.281
3669.349
3607.652
3551.904
3499.572
3448.632
3398.67
3349.946
3303.291