/*--------------------------------*- C++ -*----------------------------------*\
| =========                 |                                                 |
| \\      /  F ield         | foam-extend: Open Source CFD                    |
|  \\    /   O peration     | Version:     3.1                                |
|   \\  /    A nd           | Web:         http://www.extend-project.de       |
|    \\/     M anipulation  |                                                 |
\*---------------------------------------------------------------------------*/
FoamFile
{
    version     2.0;
    format      ascii;
    class       surfaceScalarField;
    location    "15";
    object      phi;
}
// * * * * * * * * * * * * * * * * * * * * * * * * * * * * * * * * * * * * * //

dimensions      [0 3 -1 0 0 0 0];

internalField   nonuniform List<scalar> 
275122
(
-0.0003936059
0.0003990827
-3.899267e-07
-5.086895e-06
-0.0003521907
0.0003357727
1.350484e-06
1.50675e-05
-0.0003491557
0.0003580596
-3.793388e-07
-8.524646e-06
-0.0003879468
0.0003982408
-4.635832e-07
-9.830412e-06
-0.0004238284
0.0004267698
-5.327923e-07
-2.408569e-06
-0.0004261299
0.0004252858
-4.746996e-07
1.318825e-06
-0.0004209837
0.0004193299
-4.33959e-07
2.087737e-06
-0.0004137593
0.0004117534
-4.139989e-07
2.419826e-06
-0.0004052299
0.0004030781
-4.171627e-07
2.569006e-06
-0.0003964431
0.0003942126
-4.010315e-07
2.631476e-06
-0.0003873616
0.0003850611
-3.73866e-07
2.674323e-06
-0.0003780807
0.0003757462
-3.251072e-07
2.659623e-06
-0.0003687164
0.0003663639
-2.950352e-07
2.64757e-06
-0.0003593286
0.0003569851
-2.69627e-07
2.613117e-06
-0.0003499733
0.0003476555
-2.465571e-07
2.564434e-06
-0.0003406821
0.000338387
-2.257902e-07
2.520918e-06
-0.0003314825
0.000329225
-2.121939e-07
2.469767e-06
-0.0003225541
0.0003203693
-1.934448e-07
2.378203e-06
-0.0003142462
0.0003125089
-2.420387e-07
1.979325e-06
-0.000308852
0.0003091925
-6.230367e-07
2.825439e-07
-0.0003423743
0.0003557458
-1.244699e-06
-1.212681e-05
-0.0003589857
0.000358678
-2.656773e-07
5.733695e-07
-0.0003615216
0.0003633945
-1.44807e-07
-1.728161e-06
-0.0004019813
0.0004161585
3.31135e-07
-1.450835e-05
-0.000417063
0.0004158987
5.855514e-07
5.786853e-07
-0.000416686
0.0004169294
-2.234474e-07
-1.994823e-08
-0.0004157164
0.000414172
-2.249175e-07
1.769327e-06
-0.000408339
0.0004040553
-1.942765e-07
4.478027e-06
-0.0003788406
0.0003535318
-2.709451e-07
2.557978e-05
-0.0002496411
0.0002560937
5.535072e-09
-6.458132e-06
-0.0002663181
0.0002799364
-7.075028e-08
-1.354752e-05
-0.0003187485
0.0003316135
8.195606e-09
-1.28732e-05
-0.000370884
0.0003841672
9.223408e-09
-1.329242e-05
-0.0004244388
0.0004379741
1.041166e-08
-1.354568e-05
-0.0004793277
0.000493248
1.211785e-08
-1.393244e-05
-0.0005357515
0.0005501472
9.296935e-09
-1.440505e-05
-0.000593629
0.0006082557
1.007983e-08
-1.463672e-05
-0.0006523511
0.0006671424
8.819542e-09
-1.480013e-05
-0.0007116327
0.0007265393
8.62897e-09
-1.491524e-05
-0.0007707038
0.000786796
2.327682e-07
-1.63249e-05
1.288403e-05
-0.0005342688
0.0005363164
9.584723e-10
-1.493255e-05
1.313291e-05
-0.0005423684
0.0005442106
-6.182181e-10
-1.497449e-05
1.340688e-05
-0.0005493574
0.0005509283
-1.398336e-09
-1.497632e-05
1.364254e-05
-0.0005554337
0.0005567956
-1.575731e-09
-1.500292e-05
1.39927e-05
-0.0005604295
0.0005615062
-1.763838e-09
-1.506768e-05
1.426398e-05
-0.0005644208
0.0005652783
-1.439453e-09
-1.512005e-05
1.446099e-05
-0.0005676829
0.0005684102
-1.203702e-09
-1.518712e-05
1.459868e-05
-0.000570459
0.0005711203
-1.245766e-09
-1.525865e-05
1.504904e-05
-0.0005728557
0.0005724849
-7.016142e-10
-1.467754e-05
1.313804e-05
-0.002331171
0.002340134
5.965098e-11
-6.179635e-05
1.334352e-05
1.308619e-05
1.32657e-05
1.416018e-05
-0.002345518
0.002349989
6.071484e-11
-6.208728e-05
1.468074e-05
1.413173e-05
1.464373e-05
1.448438e-05
-0.002353481
0.002356409
1.350915e-10
-6.135082e-05
1.475763e-05
1.445172e-05
1.472876e-05
1.457064e-05
-0.002359447
0.00236267
1.731644e-10
-6.169981e-05
1.469942e-05
1.453969e-05
1.466726e-05
1.47018e-05
-0.002365727
0.002368391
-2.568016e-11
-6.170681e-05
1.484965e-05
1.467038e-05
1.482164e-05
1.481909e-05
-0.002371127
0.002373546
1.009453e-10
-6.193541e-05
1.496567e-05
1.479227e-05
1.493951e-05
1.492088e-05
-0.002376072
0.002378441
2.832073e-10
-6.216291e-05
1.499994e-05
1.489437e-05
1.497842e-05
1.500029e-05
-0.002380995
0.002383389
-1.26336e-10
-6.232494e-05
1.499511e-05
1.496492e-05
1.497074e-05
1.496816e-05
-0.002386438
0.002389363
-2.190794e-10
-6.282465e-05
1.500868e-05
1.493877e-05
1.498498e-05
1.45416e-05
-0.002388922
0.002392532
-3.005442e-12
-6.197525e-05
1.466084e-05
1.451428e-05
1.464847e-05
1.531009e-05
-0.00239624
0.00239861
2.042666e-11
-6.381014e-05
1.541922e-05
1.530188e-05
1.540838e-05
1.526181e-05
-0.002400467
0.00240211
6.692348e-12
-6.241828e-05
1.513345e-05
1.525411e-05
1.512626e-05
1.516113e-05
-0.002403838
0.002405568
-1.911063e-11
-6.21684e-05
1.506609e-05
1.515219e-05
1.505879e-05
1.515537e-05
-0.002407239
0.002408749
-7.494424e-12
-6.199131e-05
1.509282e-05
1.514574e-05
1.508795e-05
1.517021e-05
-0.002410219
0.00241163
1.611385e-12
-6.196628e-05
1.511926e-05
1.515354e-05
1.511255e-05
1.52369e-05
-0.002413002
0.002414298
-3.129774e-11
-6.206779e-05
1.518479e-05
1.518244e-05
1.51673e-05
1.551247e-05
-0.00241573
0.002417172
2.229097e-11
-6.306733e-05
1.548162e-05
1.529955e-05
1.533188e-05
1.679357e-05
-0.002418027
0.002416556
1.579654e-11
-6.428073e-05
1.705605e-05
1.583737e-05
1.60648e-05
2.122213e-05
-0.002410797
0.002396423
5.31486e-11
-6.602816e-05
2.25472e-05
1.860706e-05
1.802605e-05
2.745096e-05
-0.002377768
0.002399674
5.945783e-11
-4.935675e-05
1.98785e-05
-0.002420273
0.002422835
4.735954e-11
-2.244052e-05
3.927588e-05
-0.002415958
0.002411902
1.506876e-11
-3.522004e-05
3.303777e-05
-0.002409109
0.002406698
7.224824e-11
-3.062711e-05
1.68971e-05
-0.002403667
0.002404365
8.521928e-11
-1.759426e-05
2.044448e-06
-0.002407866
0.002411121
6.716695e-11
-5.299759e-06
-3.296674e-06
-0.002413347
0.002415411
4.775706e-11
1.232778e-06
-5.942114e-06
-0.002417186
0.002418594
7.33855e-11
4.534339e-06
-7.753019e-06
-0.002419784
0.00242056
9.020765e-11
6.976279e-06
-9.218611e-06
-0.002421108
0.002421297
-1.055248e-11
9.030017e-06
-1.027724e-05
-0.002421255
0.002420879
-5.116533e-11
1.065416e-05
-1.104453e-05
-0.002420316
0.002419479
-9.124568e-11
1.188161e-05
-1.151047e-05
-0.002418498
0.002417329
-4.402885e-11
1.267923e-05
-1.167258e-05
-0.002416064
0.002414715
-2.231602e-11
1.302127e-05
-1.156572e-05
-0.00241332
0.002411944
-2.603347e-11
1.294151e-05
-1.123654e-05
-0.002410567
0.002409294
-1.906906e-11
1.250951e-05
-1.066733e-05
-0.002408054
0.002406998
3.721118e-11
1.172378e-05
-9.52603e-06
-0.002406022
0.002405204
9.298321e-11
1.034385e-05
-7.073674e-06
-0.002404376
0.002403487
2.87605e-11
7.961881e-06
-1.576926e-06
-0.002402489
0.002400184
-1.054623e-11
3.88205e-06
7.550162e-06
-0.002393321
0.002387348
-2.220003e-11
-1.57746e-06
1.035332e-06
-0.002387631
0.002387577
-1.591888e-11
-9.81255e-07
1.240326e-05
-0.002386304
0.002381561
-1.680537e-11
-7.660461e-06
3.39346e-05
-0.002364112
0.002345757
-7.803781e-12
-1.557982e-05
5.274545e-06
-0.002335292
0.002332666
-9.463587e-13
-2.647876e-06
-1.067396e-05
-0.002329457
0.002324005
5.171637e-12
1.612674e-05
-2.301425e-05
-0.002316529
0.002310193
7.683019e-12
2.935094e-05
-4.394045e-05
-0.002304884
0.002302161
7.293242e-12
4.66637e-05
-9.180107e-05
-0.002300004
0.002320387
3.60646e-12
7.141843e-05
-2.043947e-05
-0.002346316
0.002340887
-5.044206e-12
7.425564e-05
-1.417349e-05
-2.031391e-05
-1.389936e-05
-9.212576e-06
-0.002326967
0.00231982
-1.665495e-11
4.40098e-05
-9.603059e-06
-8.855027e-06
-9.191951e-06
-8.568145e-06
-0.002314787
0.002307659
-2.857309e-11
4.012257e-05
-8.227686e-06
-8.264966e-06
-7.933364e-06
-6.930892e-06
-0.002298586
0.002289537
-4.023803e-11
3.577402e-05
-6.677749e-06
-6.676346e-06
-6.439741e-06
-6.203018e-06
-0.002280939
0.002272917
-4.793078e-11
3.231034e-05
-6.145577e-06
-5.995311e-06
-5.944925e-06
-5.766662e-06
-0.002265239
0.00225785
-4.998919e-11
2.993271e-05
-5.677472e-06
-5.590062e-06
-5.509406e-06
-5.213061e-06
-0.002250592
0.002243712
-4.917066e-11
2.724254e-05
-5.106379e-06
-5.070041e-06
-4.973583e-06
-4.695949e-06
-0.002237133
0.002231049
-4.457188e-11
2.448076e-05
-4.61344e-06
-4.581018e-06
-4.50558e-06
-4.235181e-06
-0.002225272
0.002219987
-3.527325e-11
2.188625e-05
-4.155548e-06
-4.142496e-06
-4.067796e-06
-3.834718e-06
-0.002215034
0.002210638
-2.245707e-11
1.944937e-05
-3.772822e-06
-3.75345e-06
-3.692919e-06
-3.563711e-06
-0.00220662
0.002203133
-8.63416e-12
1.753452e-05
-3.540162e-06
-3.485237e-06
-3.457507e-06
-3.533772e-06
-0.002199939
0.002197032
3.706595e-12
1.692673e-05
-3.567923e-06
-3.447229e-06
-3.470639e-06
-3.863025e-06
-0.002194193
0.00219136
1.280695e-11
1.826047e-05
-3.969797e-06
-3.752992e-06
-3.842553e-06
-4.570792e-06
-0.002188402
0.002185294
1.707386e-11
2.142163e-05
-4.750809e-06
-4.417073e-06
-4.574865e-06
-5.689919e-06
-0.002181947
0.002178194
1.591996e-11
2.659342e-05
-5.9656e-06
-5.470549e-06
-5.714558e-06
-7.322743e-06
-0.002173962
0.002168965
9.388787e-12
3.439583e-05
-7.704099e-06
-7.016155e-06
-7.355183e-06
-9.42085e-06
-0.002163224
0.002156391
-3.903354e-12
4.456951e-05
-9.858486e-06
-9.027497e-06
-9.430316e-06
-1.1614e-05
-0.002148563
0.002139271
-2.57014e-11
5.573548e-05
-1.199592e-05
-1.122594e-05
-1.160758e-05
-1.325461e-05
-0.002128609
0.002115969
-5.213822e-11
6.561626e-05
-1.342812e-05
-1.303394e-05
-1.325932e-05
-1.36716e-05
-0.00210144
0.002084448
-7.784513e-11
7.167677e-05
-1.356168e-05
-1.374773e-05
-1.370355e-05
-1.271628e-05
-0.002065206
0.002043484
-9.826134e-11
7.261642e-05
-1.239745e-05
-1.30356e-05
-1.274503e-05
-1.085097e-05
-0.002019806
0.001994392
-1.14047e-10
6.873544e-05
-1.044626e-05
-1.122063e-05
-1.080301e-05
-8.623325e-06
-0.00196789
0.001940985
-1.168672e-10
6.10781e-05
-8.195712e-06
-8.892026e-06
-8.462838e-06
-6.297435e-06
-0.001914111
0.00188814
-1.090328e-10
5.083326e-05
-5.949751e-06
-6.505908e-06
-6.108924e-06
-4.349874e-06
-0.001863394
0.00184086
-9.210054e-11
3.953961e-05
-4.076294e-06
-4.433043e-06
-4.145999e-06
-2.660896e-06
0.001802706
-7.27401e-11
2.788772e-05
-2.436113e-06
-2.704212e-06
-2.471051e-06
-0.001820321
-1.16964e-06
-0.001787374
0.001775243
-5.173352e-11
1.645079e-05
-9.756949e-07
-1.185895e-06
-9.880746e-07
1.842241e-07
-0.001765427
0.001758685
-3.290447e-11
5.642977e-06
3.635502e-07
1.844156e-07
3.676411e-07
1.358232e-06
-0.001754216
0.001752588
-1.969233e-11
-4.1267e-06
1.509038e-06
1.367791e-06
1.518992e-06
2.42025e-06
-0.001752886
0.001755775
-1.094625e-11
-1.285917e-05
2.568201e-06
2.418308e-06
2.56334e-06
3.318038e-06
-0.001760096
0.001766566
-4.624533e-12
-1.994835e-05
3.426669e-06
3.312395e-06
3.421472e-06
4.013668e-06
-0.001774248
0.001783774
-1.078496e-12
-2.574302e-05
4.095089e-06
4.012801e-06
4.095638e-06
4.532453e-06
-0.001794296
0.001806255
1.507485e-12
-3.020077e-05
4.583218e-06
4.537357e-06
4.589239e-06
4.805201e-06
-0.001818877
0.001832316
6.202993e-12
-3.267667e-05
4.806205e-06
4.812757e-06
4.813831e-06
4.705938e-06
-0.001845961
0.001859685
1.324348e-11
-3.242646e-05
4.638976e-06
4.712505e-06
4.644914e-06
4.169195e-06
-0.001873148
0.001886076
2.317692e-11
-2.93491e-05
4.038885e-06
4.171753e-06
4.040563e-06
3.401963e-06
-0.001898374
0.001909826
3.559182e-11
-2.480426e-05
3.274518e-06
3.401894e-06
3.273958e-06
2.711106e-06
-0.001920566
0.001930797
5.584617e-11
-2.08919e-05
2.621203e-06
2.709501e-06
2.619362e-06
2.382943e-06
-0.001940693
0.001950957
8.076817e-11
-1.977616e-05
2.375305e-06
2.38069e-06
2.372866e-06
2.649862e-06
-0.001961568
0.001973595
1.087399e-10
-2.280836e-05
2.743578e-06
2.647478e-06
2.741038e-06
3.539521e-06
-0.001986642
0.002001941
1.392255e-10
-2.981696e-05
3.720067e-06
3.538806e-06
3.719545e-06
4.831355e-06
-0.002018701
0.002038315
1.740243e-10
-3.937649e-05
5.037576e-06
4.842264e-06
5.051496e-06
5.93545e-06
-0.002059692
0.002083928
2.165697e-10
-4.826298e-05
5.999992e-06
6.004286e-06
6.086747e-06
5.24616e-06
-0.00210972
0.002136707
2.791217e-10
-4.772645e-05
4.851452e-06
5.517636e-06
5.124263e-06
6.536186e-08
-0.002164013
0.002189496
3.54449e-10
-2.355475e-05
-1.703547e-06
7.079522e-07
-9.984477e-07
-2.194846e-05
-0.00221702
0.002261928
4.347284e-10
4.72301e-05
-2.802449e-05
-1.707701e-05
-2.508933e-05
-2.943049e-05
-0.002307913
0.002327769
3.732873e-10
0.0001007288
-2.965467e-05
-3.137569e-05
-3.012423e-05
-3.985749e-05
-0.002333197
0.002321146
3.515563e-10
0.0001687215
-4.048548e-05
-3.753586e-05
-3.879192e-05
-3.719704e-05
-0.002287709
0.002221685
1.063971e-10
0.0002137726
-3.453861e-05
-3.937371e-05
-3.66396e-05
-2.034472e-05
-0.002121549
0.001992575
-3.651574e-10
0.0002063925
-1.717755e-05
-2.162863e-05
-1.826703e-05
-7.185376e-06
-0.001851097
0.001714531
-8.879673e-10
0.0001660609
-7.055219e-06
-7.696187e-06
-7.55742e-06
-6.582743e-06
-0.001599274
0.001510515
-8.469977e-10
0.0001165093
-6.980259e-06
-6.905796e-06
-7.280779e-06
-5.848723e-06
-0.001446067
0.001399889
-5.949874e-10
6.93145e-05
-5.616805e-06
-5.964633e-06
-5.706213e-06
-3.288535e-06
-0.001366434
0.001343338
-3.924493e-10
3.55639e-05
-2.933624e-06
-3.303592e-06
-2.942044e-06
-8.169873e-07
-0.001327215
0.00131811
-2.551036e-10
1.171048e-05
-4.887765e-07
-8.13244e-07
-4.861845e-07
1.255021e-06
-0.001313737
0.001313211
-1.502764e-10
-4.985138e-06
1.495674e-06
1.257952e-06
1.502181e-06
2.511566e-06
-0.001315224
0.001320412
-6.554832e-11
-1.544713e-05
2.607714e-06
2.521838e-06
2.618483e-06
2.96554e-06
-0.00132709
0.001336008
-1.073105e-11
-2.087454e-05
3.004897e-06
2.973657e-06
3.012781e-06
3.02596e-06
-0.001345555
0.001356056
9.196365e-12
-2.258725e-05
3.011669e-06
3.031416e-06
3.016388e-06
2.740226e-06
-0.001366715
0.001377261
1.696171e-11
-2.143051e-05
2.694891e-06
2.747248e-06
2.70184e-06
2.336439e-06
-0.001387696
0.001397921
2.408808e-11
-1.946692e-05
2.281172e-06
2.340476e-06
2.28421e-06
1.802443e-06
-0.001407837
0.00141727
2.763732e-11
-1.650476e-05
1.729584e-06
1.808092e-06
1.731042e-06
1.02132e-06
-0.001426375
0.001435077
2.8758e-11
-1.254156e-05
8.954334e-07
1.024148e-06
8.978319e-07
2.242091e-07
-0.001443326
0.001450451
3.318394e-11
-7.838177e-06
1.298277e-07
2.274242e-07
1.318993e-07
-6.381312e-07
-0.001456905
0.001462023
3.539129e-11
-2.380985e-06
-7.329692e-07
-6.339657e-07
-7.322873e-07
-1.52507e-06
-0.001466066
0.00146869
4.670301e-11
3.741523e-06
-1.669063e-06
-1.510704e-06
-1.660547e-06
-2.687153e-06
-0.001470399
0.001470061
8.175446e-11
1.141607e-05
-2.874692e-06
-2.659857e-06
-2.856424e-06
-4.521934e-06
-0.001467662
0.001463256
7.776647e-11
2.293427e-05
-4.8457e-06
-4.420113e-06
-4.740617e-06
-7.119039e-06
-0.001456761
0.00144657
2.590142e-10
3.90558e-05
-7.748238e-06
-6.709892e-06
-7.287832e-06
-1.183235e-05
-0.001434099
0.001422602
3.216595e-10
5.837034e-05
-1.306687e-05
-1.048963e-05
-1.148502e-05
-2.328401e-05
-0.001411249
0.001400878
5.249221e-10
0.0001064442
-2.613638e-05
-2.185649e-05
-2.479736e-05
-2.637447e-05
-0.001395591
0.00138469
4.778372e-11
0.0001139534
-2.36299e-05
-2.701196e-05
-2.603659e-05
-1.213985e-05
-0.001354644
0.001309739
-1.84256e-10
9.30541e-05
-1.028228e-05
-1.428549e-05
-1.144177e-05
-3.687162e-06
-0.001255557
0.001196765
-1.510153e-10
7.165751e-05
-2.71939e-06
-3.684317e-06
-2.774655e-06
-2.66839e-08
-0.001136489
0.001078394
3.064252e-10
5.857229e-05
-1.4133e-07
-1.182382e-07
-1.912995e-07
-1.488323e-06
0.000977767
8.149441e-10
5.391719e-05
-0.001024825
-1.903796e-06
-1.526021e-06
-1.941443e-06
-3.472071e-06
-0.0009374307
0.0009030441
7.690597e-10
4.875376e-05
-3.694687e-06
-3.491712e-06
-3.709495e-06
-3.934945e-06
-0.0008730428
0.000846204
3.197241e-10
4.264275e-05
-3.967035e-06
-3.936018e-06
-3.966232e-06
-4.000236e-06
-0.0008215486
0.0007984809
-2.939238e-10
3.90443e-05
-3.991822e-06
-3.996651e-06
-3.98764e-06
-3.63268e-06
-0.0007772152
0.0007582704
-7.245775e-10
3.320965e-05
-3.502821e-06
-3.629115e-06
-3.499532e-06
-2.582375e-06
-0.000741961
0.0007286784
-8.288758e-10
2.328281e-05
-2.419374e-06
-2.580159e-06
-2.417475e-06
-1.561563e-06
-0.0007180287
0.0007097569
-7.260624e-10
1.432327e-05
-1.46499e-06
-1.560416e-06
-1.463741e-06
-1.04002e-06
-0.0007031112
0.0006976826
-5.587534e-10
9.529106e-06
-1.010637e-06
-1.039383e-06
-1.009993e-06
-8.946539e-07
-0.0006928728
0.0006886426
-3.893285e-10
7.8019e-06
-8.91459e-07
-8.942011e-07
-8.910151e-07
-8.859591e-07
-0.0006845045
0.0006807454
-2.441604e-10
7.299883e-06
-8.846142e-07
-8.856386e-07
-8.842963e-07
-8.605155e-07
-0.0006770842
0.0006738903
-1.427892e-10
6.618492e-06
-8.519255e-07
-8.602916e-07
-8.517063e-07
-7.461225e-07
-0.0006709703
0.0006686832
-8.193045e-11
5.235671e-06
-7.282705e-07
-7.459473e-07
-7.280826e-07
-5.604676e-07
-0.000666821
0.0006656833
-4.562844e-11
3.336063e-06
-5.387877e-07
-5.603519e-07
-5.386826e-07
-3.458093e-07
-0.0006650489
0.0006651499
-2.252753e-11
1.236424e-06
-3.22984e-07
-3.45758e-07
-3.22908e-07
-1.389767e-07
-0.0006657278
0.0006670688
-6.337841e-12
-8.309059e-07
-1.161535e-07
-1.389039e-07
-1.160482e-07
3.928514e-08
-0.0006688438
0.0006712986
3.894105e-12
-2.643615e-06
5.502598e-08
3.937131e-08
5.516326e-08
1.783146e-07
-0.0006741509
0.0006775966
1.055055e-11
-4.187338e-06
1.924507e-07
1.784215e-07
1.925034e-07
2.984677e-07
-0.0006813828
0.0006857035
1.520693e-11
-5.537735e-06
3.100507e-07
2.984917e-07
3.100266e-07
3.990559e-07
-0.000690326
0.0006954377
1.742274e-11
-6.727181e-06
4.086795e-07
3.990075e-07
4.087001e-07
4.818974e-07
-0.0007008238
0.0007066437
1.778572e-11
-7.762865e-06
4.895609e-07
4.819082e-07
4.895683e-07
5.478324e-07
-0.0007127038
0.0007191712
1.874232e-11
-8.671383e-06
5.540985e-07
5.478642e-07
5.541183e-07
5.986969e-07
-0.0007258622
0.0007328926
1.906035e-11
-9.435406e-06
6.037867e-07
5.987351e-07
6.038157e-07
6.333375e-07
-0.0007401043
0.0007476728
1.702085e-11
-1.011702e-05
6.409331e-07
6.333751e-07
6.408812e-07
6.615359e-07
-0.0007554104
0.0007633574
1.495173e-11
-1.065101e-05
6.905473e-07
6.616245e-07
6.903011e-07
8.499883e-07
-0.0007709539
0.0007783356
1.328707e-11
-1.098972e-05
9.530007e-07
8.507144e-07
9.542571e-07
1.423175e-06
-0.0001945217
0.0001947351
2.098702e-11
-1.636636e-06
7.958301e-07
-0.0001968007
0.0001977054
7.716977e-11
-1.700615e-06
6.942154e-07
-0.0002006282
0.0002017241
4.355641e-11
-1.790112e-06
6.579116e-07
-0.0002050488
0.0002061707
8.110396e-11
-1.779966e-06
5.904261e-07
-0.0002095931
0.0002107345
1.112019e-10
-1.731988e-06
5.340298e-07
-0.0002141663
0.0002153104
1.196201e-10
-1.678285e-06
4.748266e-07
-0.0002187374
0.0002198764
1.623086e-10
-1.614026e-06
4.087489e-07
-0.0002232866
0.0002244176
2.097165e-10
-1.539921e-06
3.395576e-07
-0.0002277949
0.0002289129
1.95471e-10
-1.457724e-06
2.635969e-07
-0.0002322366
0.0002333379
1.908672e-10
-1.365154e-06
1.894342e-07
-0.0002366047
0.0002376743
1.600793e-10
-1.259151e-06
8.918432e-08
-0.0002408597
0.0002419032
1.804042e-10
-1.132805e-06
-3.674933e-08
-0.0002449828
0.0002459943
1.863029e-10
-9.749431e-07
-1.327958e-07
-0.0002489984
0.0002499745
1.996596e-10
-8.435573e-07
-2.023241e-07
-0.0002528451
0.0002537794
1.997503e-10
-7.321396e-07
-2.81186e-07
-0.0002565276
0.0002574209
1.905968e-10
-6.122528e-07
-3.627132e-07
-0.0002600434
0.0002608938
1.846829e-10
-4.87844e-07
-4.431776e-07
-0.0002633851
0.0002641911
1.76044e-10
-3.629632e-07
-5.208051e-07
-0.0002665476
0.0002673084
1.62146e-10
-2.4022e-07
-5.940564e-07
-0.0002695291
0.0002702449
1.541937e-10
-1.219838e-07
-6.629478e-07
-0.0002723309
0.0002730043
1.445089e-10
-1.057715e-08
-7.271979e-07
-0.0002749567
0.0002755834
1.230426e-10
1.003592e-07
-7.87031e-07
-0.0002774081
0.0002779944
1.088644e-10
2.006788e-07
-8.428155e-07
-0.0002797014
0.0002802497
9.971703e-11
2.943811e-07
-8.944454e-07
-0.0002818467
0.0002823598
9.257924e-11
3.812372e-07
-9.421198e-07
-0.0002838552
0.0002843357
7.419561e-11
4.614693e-07
-9.86821e-07
-0.0002857389
0.0002861894
5.559578e-11
5.362766e-07
-1.028317e-06
-0.000287503
0.0002879256
5.877367e-11
6.056435e-07
-1.067027e-06
-0.0002891578
0.0002895543
7.328503e-11
6.70433e-07
-1.103234e-06
-0.0002907104
0.0002910829
8.655945e-11
7.306836e-07
-1.136125e-06
-0.0002921686
0.0002925195
9.750246e-11
7.850926e-07
-1.163884e-06
-0.0002935433
0.0002938771
9.845791e-11
8.298958e-07
-1.181896e-06
-0.0002948544
0.0002951806
1.037637e-10
8.556308e-07
-1.175379e-06
-0.0002961455
0.0002964855
1.048142e-10
8.352377e-07
-1.086817e-06
-0.0002975597
0.0002979967
8.211898e-11
6.496727e-07
4.285907e-07
-0.0002994085
0.000299324
1.095258e-10
-3.441598e-07
1.246265e-06
-0.0002993339
0.0002993882
6.951891e-11
-1.300597e-06
1.295375e-06
-0.0002995429
0.0002996077
6.252222e-11
-1.360274e-06
1.319962e-06
-0.0002997908
0.0002998395
4.043456e-11
-1.368757e-06
1.296974e-06
-0.0002999485
0.0002999614
2.504757e-11
-1.30987e-06
1.234284e-06
-0.0002999367
0.0002998949
-7.079383e-11
-1.192413e-06
1.102806e-06
-0.0002996712
0.0002995443
-3.705715e-10
-9.755025e-07
8.599288e-07
-0.0002990112
0.0002987633
-1.257261e-09
-6.107476e-07
4.388805e-07
-0.0002977435
0.0002972513
-3.58054e-09
5.6931e-08
-1.050023e-07
-0.0002951277
0.0002941252
-1.65068e-08
1.124048e-06
-4.713409e-06
-0.0002895418
0.0002882022
-6.626254e-08
6.119311e-06
-5.462836e-06
-0.0002862018
0.000284994
2.661371e-08
6.644043e-06
9.145394e-07
-0.0002791918
0.0002771431
1.930803e-08
1.114797e-06
1.628712e-06
-0.0002714316
0.0002696267
1.652486e-08
1.596837e-07
9.893792e-07
-0.0002640796
0.0002620722
3.291925e-08
9.850967e-07
5.6502e-07
-0.0002557249
0.0002535815
3.649947e-08
1.541828e-06
3.751439e-07
-0.000247408
0.0002455071
7.355756e-09
1.518458e-06
4.578706e-07
-0.0002404741
0.0002390286
-1.68305e-08
1.0045e-06
5.750131e-07
-0.0002352826
0.0002341779
-1.913419e-08
5.488575e-07
5.641908e-07
-0.0002310623
0.000230061
-1.137917e-08
4.484411e-07
5.277542e-07
-0.0002271327
0.0002262018
-4.509417e-09
4.077214e-07
5.34313e-07
-0.0002235428
0.0002227074
-1.332144e-09
3.024067e-07
5.787224e-07
-0.0002203232
0.0002195798
-3.400666e-10
1.650786e-07
6.715354e-07
-0.0002174995
0.000216885
-1.276465e-10
-5.691036e-08
8.24164e-07
-0.0002153053
0.000214892
-1.083442e-10
-4.107518e-07
9.635342e-07
-0.0002139585
0.00021375
-1.424893e-10
-7.549019e-07
1.027998e-06
-0.0002132778
0.0002131671
-1.606948e-10
-9.1713e-07
9.783958e-07
-0.0002128849
0.0002127881
-1.452418e-10
-8.815286e-07
8.765062e-07
-0.0002124019
0.0002122182
-1.147657e-10
-6.926754e-07
6.983368e-07
-0.0002114679
0.0002111275
-1.20104e-10
-3.577983e-07
4.673912e-07
-0.0002098212
0.0002092757
-1.793804e-10
7.823402e-08
1.980353e-07
-0.0002073213
0.0002065428
-2.425606e-10
5.80649e-07
-1.622025e-07
-0.0002039348
0.000202951
-2.917852e-10
1.146333e-06
-5.545066e-07
-0.0001997589
0.0001986145
-2.777001e-10
1.699226e-06
-7.116967e-07
-0.0001950994
0.000193743
-2.17655e-10
2.068331e-06
-1.39241e-06
-0.0001884646
0.000760768
-6.879453e-11
1.66153e-05
-1.561469e-06
-1.390271e-06
-1.567457e-06
-0.0001884709
-0.0001972626
-0.0001972736
-1.442878e-06
-0.0007500402
0.0007379748
-6.556198e-11
1.731436e-05
-1.176006e-06
-1.448315e-06
-1.181655e-06
-1.395663e-06
-0.0007260434
0.0007141807
-5.612571e-11
1.733061e-05
-1.331568e-06
-1.402685e-06
-1.338015e-06
-1.328708e-06
-0.0007022283
0.0006902225
-4.475863e-11
1.720947e-05
-1.268841e-06
-1.333457e-06
-1.272557e-06
-1.119215e-06
-0.0006782997
0.0006666377
-3.11986e-11
1.600757e-05
-1.050243e-06
-1.122868e-06
-1.053184e-06
-9.015224e-07
-0.0006553413
0.0006448254
-1.892477e-11
1.408118e-05
-8.801193e-07
-9.027075e-07
-8.808988e-07
-7.100453e-07
-0.0006349254
0.0006260481
-9.146698e-12
1.167562e-05
-6.890995e-07
-7.100804e-07
-6.890038e-07
-4.51208e-07
-0.0006178803
0.0006108746
-3.678901e-13
8.750795e-06
-4.215276e-07
-4.510304e-07
-4.213289e-07
-1.244108e-07
-0.0006046542
0.0005997263
5.759383e-12
5.354973e-06
-8.917213e-08
-1.243623e-07
-8.911468e-08
2.829888e-07
-0.0005956437
0.0005929018
1.198982e-11
1.513094e-06
3.315096e-07
2.828653e-07
3.314204e-07
7.363042e-07
-0.0005910446
0.0005906703
1.805266e-11
-2.6858e-06
7.939264e-07
7.36068e-07
7.93746e-07
1.238331e-06
-0.0005911695
0.0005932547
2.381513e-11
-7.15926e-06
1.299084e-06
1.237921e-06
1.298752e-06
1.768944e-06
-0.0005962047
0.0006007795
2.815391e-11
-1.177941e-05
1.833861e-06
1.768364e-06
1.833367e-06
2.317502e-06
-0.0006062091
0.0006132517
3.10641e-11
-1.644409e-05
2.383945e-06
2.316713e-06
2.383232e-06
2.86514e-06
-0.0006211212
0.0006305383
3.24576e-11
-2.100593e-05
2.930209e-06
2.864137e-06
2.929287e-06
3.390971e-06
-0.0006407305
0.0006523501
3.281598e-11
-2.530252e-05
3.451645e-06
3.389792e-06
3.45053e-06
3.873234e-06
-0.0006646679
0.000678239
3.191047e-11
-2.916812e-05
3.926596e-06
3.871878e-06
3.925277e-06
4.291051e-06
-0.0006924069
0.0007076055
2.926835e-11
-3.244709e-05
4.334652e-06
4.289527e-06
4.33315e-06
4.627683e-06
-0.0007232777
0.0007397252
2.56097e-11
-3.501989e-05
4.660132e-06
4.626054e-06
4.658512e-06
4.875831e-06
-0.0007565127
0.0007738138
2.112506e-11
-3.68435e-05
4.897068e-06
4.874111e-06
4.895334e-06
5.039117e-06
-0.0007913255
0.0008091097
1.583173e-11
-3.796047e-05
5.050847e-06
5.037307e-06
5.049007e-06
5.130103e-06
-0.0008269954
0.0008449559
9.906078e-12
-3.848539e-05
5.134155e-06
5.128263e-06
5.132285e-06
5.155979e-06
-0.0008629283
0.0008807944
3.876726e-12
-3.848024e-05
5.152899e-06
5.154148e-06
5.151048e-06
5.118558e-06
-0.0008985894
0.0009161069
-1.845372e-12
-3.796866e-05
5.108897e-06
5.116726e-06
5.10702e-06
5.021176e-06
-0.000933478
0.0009504217
-6.627731e-12
-3.699397e-05
5.005785e-06
5.019346e-06
5.003898e-06
4.867952e-06
-0.0009671579
0.0009833421
-1.011892e-11
-3.561098e-05
4.84727e-06
4.866136e-06
4.845433e-06
4.65698e-06
-0.0009992689
0.001014525
-1.252556e-11
-3.382675e-05
4.630189e-06
4.655186e-06
4.628371e-06
4.377651e-06
-0.00102947
0.001043615
-1.394032e-11
-3.158185e-05
4.342247e-06
4.375999e-06
4.340562e-06
4.025604e-06
-0.001057387
0.001070238
-1.472442e-11
-2.886214e-05
3.981198e-06
4.024115e-06
3.979622e-06
3.612607e-06
-0.001082649
0.001094042
-1.51182e-11
-2.573668e-05
3.56073e-06
3.611259e-06
3.559279e-06
3.161449e-06
-0.001104936
0.001114763
-1.598263e-11
-2.235762e-05
3.104796e-06
3.160228e-06
3.103465e-06
2.697159e-06
-0.001124068
0.001132314
-1.601629e-11
-1.891512e-05
2.638389e-06
2.696088e-06
2.637229e-06
2.242412e-06
-0.001140043
0.001146769
-1.483157e-11
-1.557625e-05
2.184135e-06
2.241515e-06
2.183101e-06
1.821815e-06
-0.001153007
0.001158311
-1.262382e-11
-1.248928e-05
1.771773e-06
1.820992e-06
1.770913e-06
1.484854e-06
-0.001163113
0.00116703
-1.07749e-11
-9.773409e-06
1.44412e-06
1.484246e-06
1.443471e-06
1.190077e-06
-0.001170482
0.001173162
-9.71268e-12
-7.365828e-06
1.153475e-06
1.18955e-06
1.152906e-06
9.301532e-07
-0.001175419
0.001177003
-9.023625e-12
-5.241031e-06
8.98944e-07
9.296852e-07
8.984137e-07
7.098971e-07
-0.001178201
0.001178816
-8.053576e-12
-3.403025e-06
6.845612e-07
7.095207e-07
6.841612e-07
5.30167e-07
-0.001179078
0.001178842
-6.535805e-12
-1.844374e-06
5.104926e-07
5.298971e-07
5.102163e-07
3.859066e-07
-0.001178287
0.001177314
-4.677681e-12
-5.413073e-07
3.716825e-07
3.857237e-07
3.715791e-07
2.743135e-07
-0.001176072
0.001174437
-3.051621e-12
5.61856e-07
2.624379e-07
2.740752e-07
2.622284e-07
1.87433e-07
-0.001172557
0.001170361
-1.609934e-12
1.462053e-06
1.801291e-07
1.871623e-07
1.798308e-07
1.203359e-07
-0.001167953
0.00116527
-5.894248e-13
2.208725e-06
1.166167e-07
1.201925e-07
1.1647e-07
6.003751e-08
-0.0011624
0.00115929
7.504614e-14
2.868702e-06
6.054326e-08
5.992887e-08
6.046793e-08
-2.138331e-08
-0.001156025
0.001152596
4.641952e-13
3.525018e-06
-2.673819e-08
-2.144252e-08
-2.677054e-08
-1.883414e-07
-0.001149114
0.001145703
3.861614e-13
4.311514e-06
-2.61654e-07
-1.8839e-07
-2.617042e-07
-3.434373e-07
-0.001142267
0.001138658
3.348791e-13
4.985702e-06
-3.451639e-07
-3.43444e-07
-3.4517e-07
-3.644008e-07
-0.00113496
0.001131183
9.265611e-13
5.234519e-06
-3.643735e-07
-3.643848e-07
-3.643408e-07
-3.651625e-07
-0.001127349
0.001123457
2.966135e-12
5.346345e-06
-3.622058e-07
-3.651267e-07
-3.621491e-07
-3.527257e-07
-0.001119517
0.001115553
9.272004e-12
5.360163e-06
-3.455017e-07
-3.526825e-07
-3.454237e-07
-3.337116e-07
-0.001111555
0.001107561
2.81071e-11
5.297005e-06
-3.179676e-07
-3.336906e-07
-3.178765e-07
-3.143137e-07
-0.001103529
0.001099524
7.937909e-11
5.184154e-06
-2.754415e-07
-3.144111e-07
-2.753957e-07
-3.12679e-07
-0.001095441
0.001091425
1.971692e-10
5.081279e-06
-2.200452e-07
-3.130094e-07
-2.200754e-07
-6.015605e-07
-0.001087993
0.001085431
1.590923e-10
4.142403e-06
-1.818683e-07
-6.025955e-07
-1.947231e-07
-1.07684e-07
-0.001082821
0.001077463
-2.112378e-10
5.75876e-06
-9.492644e-08
-1.051017e-07
-9.197965e-08
-2.17866e-07
-0.001072788
0.001069174
-8.974819e-11
4.803998e-06
-3.844688e-07
-2.091399e-07
-3.785009e-07
-2.342838e-07
-0.001065721
0.001062374
-3.77305e-11
4.364967e-06
-2.7918e-07
-2.293673e-07
-2.753472e-07
-1.965576e-07
-0.00105898
0.001055761
-1.282074e-11
4.056296e-06
-2.246725e-07
-1.936415e-07
-2.219326e-07
-1.558163e-07
-0.001052602
0.001049599
-9.40362e-12
3.646997e-06
-1.683188e-07
-1.535419e-07
-1.662661e-07
-9.835797e-08
-0.00104666
0.001043844
-7.166544e-12
3.208377e-06
-9.966957e-08
-9.663213e-08
-9.791979e-08
-3.575898e-08
-0.001041077
0.001038422
-5.144388e-12
2.790065e-06
-3.363225e-08
-3.392097e-08
-3.174732e-08
2.50988e-08
-0.001035829
0.001033334
-3.159804e-12
2.381812e-06
2.899832e-08
2.75098e-08
3.141349e-08
8.490361e-08
-0.001030891
0.001028552
-1.936296e-12
1.982525e-06
9.106632e-08
8.711634e-08
9.319655e-08
1.439561e-07
-0.001026263
0.001024078
-9.612432e-13
1.5905e-06
1.514441e-07
1.459317e-07
1.533235e-07
2.011957e-07
-0.001021942
0.001019905
-4.649155e-13
1.212279e-06
2.094052e-07
2.030131e-07
2.111012e-07
2.554044e-07
-0.001017916
0.001016018
-5.489758e-13
8.559736e-07
2.639679e-07
2.571856e-07
2.656351e-07
3.054852e-07
-0.001014169
0.001012406
-4.057413e-13
5.23045e-07
3.132253e-07
3.068841e-07
3.146438e-07
3.516393e-07
-0.001010688
0.001009034
3.901774e-13
2.312359e-07
3.579969e-07
3.530843e-07
3.59392e-07
3.939042e-07
-0.001007424
0.00100587