/*--------------------------------*- C++ -*----------------------------------*\
| =========                 |                                                 |
| \\      /  F ield         | foam-extend: Open Source CFD                    |
|  \\    /   O peration     | Version:     3.1                                |
|   \\  /    A nd           | Web:         http://www.extend-project.de       |
|    \\/     M anipulation  |                                                 |
\*---------------------------------------------------------------------------*/
FoamFile
{
    version     2.0;
    format      ascii;
    class       volScalarField;
    location    "17.5";
    object      alpha1;
}
// * * * * * * * * * * * * * * * * * * * * * * * * * * * * * * * * * * * * * //

dimensions      [0 0 0 0 0 0 0];

internalField   nonuniform List<scalar> 
119952
(
1
1
1
1
1
1
1
1
1
1
1
1
1
1
1
1
1
1
1
1
1
1
1
1
1
1
1
1
1
1
1
1
1
1
1
1
1
1
1
1
1
1
1
1
1
1
1
1
1
1
1
1
1
0.9999999
1
1
1
1
1
1
1
1
1
1
1
1
1
1
1
1
1
0.9999999
1
1
1
1
0.9999999
1
1
1
1
1
1
1
1
0.9999999
1
1
1
0.9999999
0.9999999
1
1
1
0.9999999
1
1
1
1
0.9999999
1
1
1
1
0.9999999
1
1
1
1
1
1
1
1
1
1
0.9999999
1
1
1
1
1
1
1
1
1
1
1
1
1
1
1
1
1
1
1
1
1
1
1
1
0.9999999
1
1
1
0.9999999
1
1
1
1
1
1
0.9999999
0.9999999
1
1
1
1
0.9999999
1
1
1
1
0.9999999
1
0.9999999
1
1
0.9999999
1
1
0.9999998
0.9999999
1
1
0.9999999
1
0.9999999
1
1
0.9999999
1
1
1
0.9999999
0.9999999
1
1
1
1
0.9999999
1
1
1
1
0.9999999
1
1
0.9999999
0.9999999
1
0.9999999
1
1
0.9999999
1
1
1
1
0.9999999
1
0.9999999
1
0.9999999
1
1
0.9999999
0.9999999
1
1
1
0.9999999
1
1
0.9999999
1
0.9999999
1
0.9999999
1
1
1
1
1
1
1
1
1
1
1
1
1
1
1
1
1
1
1
1
1
1
1
1
1
1
1
1
1
1
1
1
1
1
1
1
1
1
1
1
1
1
1
1
1
1
1
1
1
1
1
1
1
1
1
1
1
1
1
1
1
1
1
1
1
1
1
1
1
1
1
1
1
1
1
1
1
1
1
1
1
1
1
1
1
1
1
1
1
1
1
1
1
1
1
1
1
1
1
1
1
1
1
1
1
1
1
0.9999997
0.9999996
1
1
0.9999981
0.9999991
1
0.9999968
0.9999958
1
0.999999
0.9999855
0.9999989
1
0.9999998
0.9999722
0.9999875
0.9999999
0.9999999
0.999978
0.999979
0.9999996
1
0.9999991
0.9999836
0.999993
0.9999895
0.9999863
0.9999973
1
1
1
0.9999998
0.9999997
1
1
1
1
1
1
1
1
1
1
1
1
1
1
1
0.9999999
0.9999999
1
1
1
1
0.9999999
1
1
1
1
1
1
1
1
1
1
1
1
1
1
1
1
1
1
1
1
1
1
1
1
1
1
1
1
1
0.9999999
1
1
1
1
1
1
1
1
1
1
1
1
1
1
1
1
1
1
1
1
1
1
1
1
1
1
1
1
1
1
1
1
1
1
1
1
1
1
1
1
1
1
1
1
1
1
1
1
1
1
1
1
1
1
1
1
1
1
1
1
1
1
1
1
1
1
1
1
1
1
1
1
1
1
1
1
1
1
1
1
1
1
1
1
1
1
1
1
1
1
0.9999999
1
1
1
1
1
1
1
1
1
1
1
1
1
0.9999999
1
1
1
1
1
1
1
1
1
1
1
1
1
1
1
1
1
1
1
1
1
1
1
1
1
1
1
1
1
1
1
1
1
1
1
1
1
1
1
1
1
1
1
1
1
1
1
1
1
0.9999999
0.9999999
1
1
1
1
1
1
1
1
0.9999999
1
1
1
1
1
1
1
1
1
1
1
1
1
1
1
1
1
1
1
1
1
1
1
1
1
1
1
1
1
1
1
1
1
1
1
0.9999999
1
1
1
1
1
1
1
1
1
0.9999999
0.9999999
1
1
1
1
1
1
1
0.9999999
0.9999999
1
1
1
1
1
1
1
1
1
1
1
1
1
1
1
1
1
1
1
1
1
1
1
1
1
1
1
1
1
1
1
1
1
1
1
1
1
1
1
1
1
1
1
1
1
1
1
1
1
1
1
1
1
1
1
1
1
1
1
1
1
1
1
1
1
1
1
1
1
1
1
1
1
1
1
1
1
1
1
1
1
1
1
1
1
1
1
1
1
1
1
1
1
1
1
1
1
1
1
1
1
1
1
1
0.9999999
0.9999982
0.999996
0.9999962
0.9999983
0.9999997
0.9999999
0.9999999
0.9999999
0.9999997
0.9999997
0.9999997
0.9999998
0.9999999
1
0.9999999
0.9999988
0.999992
0.9999873
0.9999937
0.999999
1
1
1
1
1
0.9999999
0.9999991
0.9999911
0.9998997
0.9992748
0.9986672
0.9988484
0.9994287
0.999888
0.9999942
0.9999999
1
1
1
1
1
1
1
1
1
1
1
0.9999998
0.9999986
0.9999963
0.9999959
0.9999967
0.9999985
0.9999998
1
1
1
1
1
0.9999999
0.9999999
0.9999999
1
1
1
1
1
1
1
1
1
1
1
1
1
1
1
1
1
1
1
1
1
1
1
1
1
1
1
1
1
1
1
1
1
1
1
1
1
1
1
1
1
1
1
1
1
1
1
1
1
1
1
1
1
1
1
1
1
1
1
1
1
1
1
1
1
1
1
1
1
1
1
1
1
1
1
1
1
1
1
1
1
1
1
1
1
1
1
1
1
1
1
1
1
1
1
1
1
1
1
1
1
1
1
1
1
1
1
1
1
1
1
1
1
1
1
1
1
1
1
1
1
1
1
1
1
1
1
1
1
1
1
1
1
1
1
1
1
1
1
1
1
1
1
1
1
1
1
1
1
1
1
1
1
1
1
1
1
1
1
1
1
1
1
1
1
1
1
1
1
1
1
1
1
1
1
1
1
1
1
1
1
1
1
1
1
1
1
1
1
1
1
1
1
1
1
1
1
1
1
1
1
1
1
1
1
1
1
1
1
1
1
1
1
1
1
1
1
1
1
1
1
1
1
1
1
1
1
1
1
1
1
1
1
1
1
1
1
1
1
1
1
1
1
1
1
1
1
1
1
1
1
1
1
1
1
1
1
1
1
1
1
1
1
1
1
1
1
1
1
1
1
1
1
1
0.9999999
0.9999999
1
1
1
1
1
1
1
1
1
1
1
1
1
1
1
1
1
1
1
1
1
1
1
1
1
1
1
1
1
1
1
1
1
1
1
1
1
1
1
1
1
1
1
1
1
1
1
1
1
1
1
1
1
1
1
1
1
1
1
1
1
1
1
1
1
1
1
1
1
1
1
1
1
1
1
1
1
1
1
1
1
1
1
1
1
1
1
1
1
1
1
1
1
1
1
1
1
1
1
1
1
1
1
1
1
1
1
1
1
1
1
1
1
1
0.9999999
0.9999989
0.9999983
0.9999989
0.9999998
1
0.9999999
0.9999997
0.9999997
0.9999999
1
1
1
1
1
1
1
1
1
1
1
1
1
1
1
0.9999998
0.9999978
0.9999703
0.9995925
0.9956908
0.9921097
0.9951834
0.9985922
0.9998394
0.9999943
0.9999999
1
1
1
1
1
1
1
1
1
1
0.9999999
0.9999974
0.9999748
0.9999592
0.9999766
0.9999949
0.9999997
1
1
1
1
1
1
1
1
1
1
1
1
1
1
1
1
1
1
1
1
1
1
1
1
1
1
1
1
1
1
1
1
1
1
1
1
1
1
1
1
1
1
1
1
1
1
1
1
1
1
1
1
1
1
1
1
1
1
1
1
1
1
1
1
1
1
1
1
1
1
1
1
1
1
1
1
1
1
1
1
1
1
1
1
1
1
1
1
1
1
1
1
1
1
1
1
1
1
1
1
1
1
1
1
1
1
1
1
1
1
1
1
1
1
1
1
1
1
1
1
1
1
1
1
1
1
1
1
1
1
1
1
1
1
1
1
1
1
1
1
1
1
1
1
1
1
1
1
1
1
1
1
1
1
1
1
1
1
1
1
1
1
1
1
1
1
1
1
1
1
1
1
1
1
1
1
1
1
1
1
1
1
1
1
1
1
1
1
1
1
1
1
1
1
1
1
1
1
1
1
1
1
1
1
1
1
1
1
1
1
1
1
1
1
1
1
1
1
1
1
1
1
1
1
1
1
1
1
1
1
1
1
1
1
1
1
1
1
1
1
1
1
1
1
1
1
1
1
1
1
1
1
1
1
1
1
1
1
1
1
1
1
1
1
1
1
1
1
1
1
1
1
1
1
1
1
1
1
1
1
1
1
1
1
1
1
1
1
1
1
1
1
1
1
1
1
1
1
1
1
1
1
1
1
1
1
1
1
1
1
1
1
1
1
1
1
1
1
1
1
1
1
1
1
1
1
1
1
1
1
1
1
1
1
1
1
1
1
1
1
1
1
1
1
1
1
1
1
1
1
1
1
1
1
1
1
1
1
1
1
1
1
1
1
1
1
1
1
1
1
1
1
1
1
1
1
1
1
1
1
1
1
1
1
1
1
1
1
1
1
1
1
1
1
1
1
1
1
1
1
1
1
1
1
1
1
1
1
1
1
1
1
0.9999999
0.9999998
0.9999998
0.9999999
1
1
1
1
0.9999997
0.9999995
0.9999995
0.9999995
0.9999995
0.9999997
0.9999999
1
1
1
1
1
1
1
1
1
0.9999992
0.999987
0.9997814
0.9969442
0.9904378
0.990345
0.9912166
0.9964043
0.9994068
0.9999653
0.9999995
1
1
1
1
1
1
1
1
1
0.9999998
0.999996
0.9999593
0.9999453
0.9999457
0.999978
0.9999974
0.9999999
1
1
1
1
1
1
1
1
1
1
1
1
1
1
1
1
1
1
1
1
1
1
1
1
1
1
1
1
1
1
1
1
1
1
1
1
1
1
1
1
1
1
1
1
1
1
1
1
1
1
1
1
1
1
1
1
1
1
1
1
1
1
1
1
1
1
1
1
1
1
1
1
1
1
1
1
1
1
1
1
1
1
1
1
1
1
1
1
1
1
1
1
1
1
1
1
1
1
1
1
1
1
1
1
1
1
1
1
1
1
1
1
1
1
1
1
1
1
1
1
1
1
1
1
1
1
1
1
1
1
1
1
1
1
1
1
1
1
1
1
1
1
1
1
1
1
1
1
1
1
1
1
1
1
1
1
1
1
1
1
1
1
1
1
1
1
1
1
1
1
1
1
1
1
1
1
1
1
1
1
1
1
1
1
1
1
1
1
1
1
1
1
1
1
1
1
1
1
1
1
1
1
1
1
1
1
1
1
1
1
1
1
1
1
1
1
1
1
1
1
1
1
1
1
1
1
1
1
1
1
1
1
1
1
1
1
1
1
1
1
1
1
1
1
1
1
1
1
1
1
1
1
1
1
1
1
1
1
1
1
1
1
1
1
1
1
1
1
1
1
1
1
1
1
1
1
1
1
1
1
1
1
1
1
1
1
1
1
1
1
1
1
1
1
1
1
1
1
1
1
1
1
1
1
1
1
1
1
1
1
1
1
1
1
1
1
1
1
1
1
1
1
1
1
1
1
1
1
1
1
1
1
1
1
1
1
1
1
1
1
1
1
1
1
1
1
1
1
1
1
1
1
1
1
1
1
1
1
1
1
1
1
1
1
1
1
1
1
1
1
1
1
1
1
1
1
1
1
1
1
1
1
1
1
1
1
1
1
1
1
1
1
1
1
1
1
1
1
1
1
1
1
1
1
1
1
1
1
1
1
1
1
1
1
1
1
1
1
1
1
1
1
1
1
1
1
1
1
1
1
1
0.9999992
0.9999903
0.9999841
0.9999841
0.9999897
0.9999961
0.9999988
0.9999998
1
1
1
1
1
1
1
0.9999999
0.9999987
0.9999858
0.9998396
0.9979901
0.9910395
0.9903459
0.9903459
0.9958026
0.999493
0.9999872
1
1
1
1
1
1
1
1
1
1
0.9999992
0.9999879
0.9999482
0.9999617
0.9999894
0.9999992
1
1
1
1
1
1
0.9999999
1
1
1
1
1
1
1
1
1
1
1
1
1
1
1
1
1
1
1
1
1
1
1
1
1
1
1
1
1
1
1
1
1
1
1
1
1
1
1
1
1
1
1
1
1
1
1
1
1
1
1
1
1
1
1
1
1
1
1
1
1
1
1
1
1
1
1
1
1
1
1
1
1
1
1
1
1
1
1
1
1
1
1
1
1
1
1
1
1
1
1
1
1
1
1
1
1
1
1
1
1
1
1
1
1
1
1
1
1
1
1
1
1
1
1
1
1
1
1
1
1
1
1
1
1
1
1
1
1
1
1
1
1
1
1
1
1
1
1
1
1
1
1
1
1
1
1
1
1
1
1
1
1
1
1
1
1
1
1
1
1
1
1
1
1
1
1
1
1
1
1
1
1
1
1
1
1
1
1
1
1
1
1
1
1
1
1
1
1
1
1
1
1
1
1
1
1
1
1
1
1
1
1
1
1
1
1
1
1
1
1
1
1
1
1
1
1
1
1
1
1
1
1
1
1
1
1
1
1
1
1
1
1
1
1
1
1
1
1
1
1
1
1
1
1
1
1
1
1
1
1
1
1
1
1
1
1
1
1
1
1
1
1
1
1
1
1
1
1
1
1
1
1
1
1
1
1
1
1
1
1
1
1
1
1
1
1
1
1
1
1
1
1
1
1
1
1
1
1
1
1
1
1
1
1
1
1
1
1
1
1
1
1
1
1
1
1
1
1
1
1
1
1
1
1
1
1
1
1
1
1
1
1
1
1
1
1
1
0.9999998
0.9999993
0.9999981
0.9999968
0.9999958
0.9999974
0.9999994
1
1
1
1
1
1
1
1
1
1
1
1
1
1
1
1
1
1
1
1
1
1
1
1
1
1
1
1
1
1
0.9999999
0.9999997
0.9999997
0.9999998
1
1
1
1
1
1
1
1
1
1
1
1
1
1
1
1
1
1
1
1
1
1
1
1
1
1
1
1
1
1
1
1
1
1
1
1
1
1
1
1
1
1
1
1
1
1
1
1
1
1
1
1
1
1
1
1
1
0.9999998
0.9999986
0.9999855
0.999976
0.999976
0.9999829
0.9999961
0.9999998
1
1
1
1
1
1
1
1
0.9999994
0.99999
0.9998274
0.9973699
0.9904641
0.9919238
0.9973163
0.9997371
0.9999938
0.9999999
1
1
1
1
1
1
1
1
1
0.9999999
0.9999996
0.9999979
0.9999933
0.9999929
0.9999971
0.9999994
0.9999994
0.9999993
0.9999992
0.9999992
0.9999992
0.9999992
0.9999994
0.9999999
1
1
1
1
1
1
1
1
1
1
1
1
1
1
1
1
1
1
1
1
1
1
1
1
1
1
1
1
1
1
1
1
1
1
1
1
1
1
1
1
1
1
1
1
1
1
1
1
1
1
1
1
1
1
1
1
1
1
1
1
1
1
1
1
1
1
1
1
1
1
1
1
1
1
1
1
1
1
1
1
1
1
1
1
1
1
1
1
1
1
1
1
1
1
1
1
1
1
1
1
1
1
1
1
1
1
1
1
1
1
1
1
1
1
1
1
1
1
1
1
1
1
1
1
1
1
1
1
1
1
1
1
1
1
1
1
1
1
1
1
1
1
1
1
1
1
1
1
1
1
0.9999999
0.9999999
0.9999999
0.9999999
0.9999999
0.9999999
0.9999999
0.9999999
0.9999999
0.9999998
0.9999997
0.9999995
0.9999994
0.9999994
0.9999996
0.9999998
0.9999998
0.9999998
0.9999998
0.9999996
0.9999993
0.9999989
0.9999989
0.999999
0.9999994
0.9999997
0.9999998
0.9999998
0.9999997
0.9999994
0.9999991
0.9999989
0.999999
0.9999991
0.9999995
0.9999997
0.9999997
0.9999997
0.9999996
0.9999994
0.9999992
0.9999992
0.9999993
0.9999995
0.9999997
0.9999998
0.9999998
0.9999997
0.9999996
0.9999995
0.9999995
0.9999995
0.9999996
0.9999997
0.9999998
0.9999998
0.9999998
0.9999998
0.9999997
0.9999997
0.9999997
0.9999998
0.9999998
0.9999999
0.9999999
0.9999999
0.9999999
0.9999999
0.9999999
0.9999999
0.9999999
0.9999999
1
1
1
1
1
1
1
1
1
1
1
1
1
1
1
1
1
1
1
1
1
1
1
1
1
1
1
1
1
1
1
1
1
1
1
1
1
1
1
1
1
1
1
1
1
1
1
1
1
1
1
1
1
1
1
1
1
1
1
1
1
1
1
0.9999999
0.9999998
0.9999996
0.9999997
0.9999999
1
1
1
1
1
1
1
1
1
1
1
1
1
1
1
1
1
1
1
1
1
1
1
1
1
1
1
1
1
1
1
1
1
1
1
1
1
1
1
1
1
1
0.9999999
0.9999998
0.9999996
0.9999992
0.9999992
0.9999991
0.9999988
0.9999964
0.9999835
0.9999429
0.9998785
0.9998667
0.9999324
0.9999877
0.9999993
1
1
1
1
1
1
1
1
1
1
1
1
1
1
1
1
1
1
1
1
1
1
1
1
1
1
0.9999999
0.9999993
0.9999964
0.9999824
0.9999613
0.9999727
0.9999932
0.9999995
1
1
1
1
1
1
1
1
1
0.9999999
0.9999997
0.9999998
0.9999999
1
1
1
1
1
1
1
1
0.9999999
0.9999999
1
1
1
1
1
1
1
1
1
1
1
1
1
1
1
1
1
1
1
1
1
1
1
1
1
1
1
1
1
1
1
1
1
1
1
1
1
0.9999999
0.9999994
0.9999974
0.9999951
0.9999964
0.999999
0.9999999
1
1
1
1
1
1
1
1
0.999999
0.9999838
0.9998021
0.9982631
0.9955423
0.9974089
0.9987832
0.999639
0.9999576
0.9999988
1
1
1
1
1
1
1
1
1
1
1
1
1
0.9999995
0.9999954
0.9999884
0.9999925
0.9999983
0.9999999
1
1
1
1
1
1
1
1
1
1
1
1
1
1
1
1
1
1
1
1
1
1
1
1
1
1
1
1
1
1
1
1
1
1
1
1
1
1
1
1
1
1
1
1
1
1
1
1
1
1
1
1
1
1
1
1
1
1
1
1
1
1
1
1
1
1
1
1
1
1
1
1
1
1
1
1
1
1
1
1
1
1
1
1
1
1
1
1
1
1
1
1
1
1
1
1
1
1
1
1
1
1
1
1
1
1
1
1
1
1
1
1
1
1
1
1
1
1
1
1
1
0.9999999
0.9999999
0.9999997
0.9999997
0.9999996
0.9999995
0.9999994
0.9999994
0.9999996
0.9999996
0.9999995
0.9999992
0.9999988
0.9999979
0.9999963
0.9999947
0.9999947
0.9999961
0.9999981
0.9999984
0.9999982
0.9999968
0.999993
0.9999849
0.9999752
0.9999724
0.9999742
0.9999824
0.9999911
0.9999923
0.9999903
0.9999805
0.999956
0.9999182
0.9998904
0.999888
0.9999046
0.9999491
0.9999755
0.9999764
0.9999685
0.9999382
0.9998705
0.9997522
0.9996499
0.9996458
0.9997358
0.9998859
0.9999422
0.9999424
0.99993
0.9998823
0.9997622
0.9995758
0.9994898
0.9995207
0.9996773
0.9998684
0.999926
0.9999255
0.9999085
0.9998433
0.9996986
0.9995581
0.9995388
0.9995769
0.9997174
0.9998774
0.9999208
0.9999185
0.9998947
0.9998197
0.9997082
0.9996615
0.9996657
0.9997109
0.9998233
0.9999196
0.9999359
0.9999317
0.9999078
0.9998505
0.9997888
0.9997713
0.999777
0.9998314
0.999923
0.9999555
0.9999548
0.9999458
0.9999208
0.9998869
0.9998711
0.9998717
0.9998941
0.9999455
0.9999743
0.9999761
0.9999743
0.9999673
0.999953
0.9999416
0.9999417
0.9999582
0.9999849
0.999993
0.9999928
0.9999917
0.9999883
0.9999821
0.9999788
0.9999799
0.9999871
0.9999944
0.9999952
0.9999947
0.9999924
0.9999877
0.9999835
0.9999836
0.9999869
0.9999922
0.9999939
0.9999938
0.9999933
0.9999932
0.9999934
0.9999939
0.9999957
0.9999988
0.9999998
0.9999998
0.9999998
0.9999998
0.9999998
0.9999998
0.9999998
0.9999999
1
1
1
1
1
1
1
1
1
1
1
1
1
1
1
1
1
1
0.9999999
0.9999998
0.9999993
0.9999983
0.9999974
0.9999974
0.9999976
0.9999975
0.9999968
0.9999936
0.9999774
0.9999352
0.9999377
0.9999773
0.9999973
0.9999999
1
1
1
1
0.9999999
0.9999998
0.9999991
0.9999967
0.9999961
0.999998
0.9999997
1
1
1
1
1
1
1
1
1
1
1
1
1
1
1
1
1
1
1
1
1
1
1
1
1
1
1
1
1
1
0.9999999
0.9999993
0.9999973
0.9999915
0.9999825
0.9999815
0.9999846
0.9999789
0.9999174
0.9995298
0.9985242
0.998041
0.9988701
0.9997626
0.9999851
0.9999998
1
1
1
1
1
1
1
1
1
1
1
1
1
1
1
1
1
1
1
1
1
1
1
1
1
0.9999997
0.9999981
0.999984
0.9998676
0.9996058
0.9996785
0.999894
0.9999884
0.9999997
1
1
1
1
1
1
0.9999998
0.9999986
0.9999952
0.9999954
0.9999981
0.9999997
1
1
1
1
1
1
0.9999999
0.9999996
0.9999992
0.9999994
0.9999998
1
1
1
1
1
1
1
1
1
1
1
1
1
1
1
1
1
1
1
0.9999999
0.9999999
1
1
1
1
1
1
1
1
1
1
1
1
1
1
1
1
1
1
1
1
1
1
0.9999999
0.9999999
0.9999999
1
1
1
1
1
1
1
0.9999999
0.9999996
0.9999977
0.9999677
0.9992442
0.9939424
0.9924002
0.9962765
0.9994035
0.9999773
0.9999999
1
1
1
1
1
1
1
1
1
1
1
0.9999999
0.9999971
0.9999777
0.99998
0.9999937
0.9999995
1
1
1
1
1
1
1
1
1
1
1
1
1
1
1
1
1
1
1
1
1
1
1
1
1
1
1
1
1
1
1
1
1
1
1
1
1
1
1
1
1
1
1
1
1
1
1
1
1
1
1
1
1
1
1
1
1
1
1
1
1
1
1
1
1
1
1
1
1
1
1
1
1
1
1
1
1
1
1
1
1
1
1
1
1
1
1
1
1
1
1
1
1
1
1
1
1
1
1
1
1
1
1
1
1
1
1
1
1
1
1
1
1
1
1
1
1
1
1
0.9999999
0.9999997
0.9999991
0.999998
0.999997
0.9999968
0.9999969
0.9999976
0.9999988
0.9999989
0.9999981
0.9999941
0.9999827
0.9999618
0.9999427
0.9999392
0.9999438
0.999963
0.9999841
0.9999878
0.9999844
0.9999612
0.9998853
0.999749
0.9996033
0.9995436
0.9995685
0.9997328
0.9999126
0.9999431
0.9999266
0.9998308
0.999556
0.9989826
0.9983208
0.9982014
0.9985097
0.9992783
0.9997414
0.9997761
0.999721
0.9994127
0.9983351
0.9959125
0.9940988
0.9942269
0.9958962
0.9983825
0.9992721
0.9992659
0.9989988
0.9976044
0.9929167
0.9846996
0.9815875
0.9837848
0.9913139
0.9972312
0.9980412
0.9980312
0.9975243
0.9941582
0.9840324
0.9696585
0.9666695
0.9735169
0.9874219
0.9950157
0.9963591
0.9962955
0.9947303
0.9892082
0.9774016
0.9672922
0.9674495
0.9758909
0.9888706
0.9952707
0.9960204
0.9956334
0.9937323
0.9884246
0.9784252
0.97195
0.9732132
0.9819337
0.9926149
0.9962718
0.9963244
0.9958837
0.9941594
0.9892651
0.9813351
0.9788411
0.9818463
0.9898032
0.9961396
0.9973571
0.9972995
0.9969242
0.9950132
0.9882574
0.9816668
0.9859033
0.9957276
0.9991102
0.9991162
0.9989457
0.9985664
0.9973073
0.9933323
0.9898705
0.9920704
0.9973354
0.9994052
0.9994568
0.9993985
0.9991689
0.9983869
0.9968944
0.996531
0.9975153
0.9992883
0.9998554
0.9998644
0.9998426
0.9997485
0.9994435
0.9990566
0.9990829
0.9994525
0.9998445
0.9999265
0.9999212
0.9998797
0.9997221
0.9994454
0.999388
0.9995453
0.999823
0.9998372
0.9996686
0.999218
0.999165
0.9993041
0.999425
0.9996348
0.9998891
0.9999876
0.999996
0.9999952
0.9999926
0.9999894
0.9999879
0.9999877
0.9999907
0.9999976
0.9999998
0.9999999
0.9999998
0.9999997
0.9999997
0.9999997
0.9999999
1
1
0.9999999
0.9999998
0.9999998
0.9999998
0.9999998
0.9999997
0.9999995
0.9999993
0.999999
0.9999986
0.9999972
0.9999928
0.9999817
0.9999671
0.9999638
0.9999628
0.9999541
0.9998965
0.9996041
0.998902
0.9990427
0.9996951
0.9999698
0.999999
0.9999997
0.9999997
0.9999996
0.9999992
0.9999982
0.9999936
0.999971
0.999907
0.9999083
0.9999666
0.9999961
0.9999998
0.9999999
1
0.9999999
0.9999997
0.9999991
0.9999993
0.9999997
1
1
1
1
1
1
1
1
1
1
0.9999998
0.999999
0.9999985
0.999999
0.9999998
1
1
1
1
1
1
1
0.9999999
0.9999994
0.9999964
0.999976
0.9998505
0.9995358
0.9995445
0.9998069
0.9999232
0.9997708
0.9986351
0.9913137
0.9899256
0.9955477
0.9994111
0.9999804
0.9999999
1
1
1
1
1
1
1
1
1
1
1
1
1
1
1
1
1
1
1
1
1
1
1
1
0.9999998
0.9999987
0.999989
0.9998928
0.9991623
0.9987781
0.9992917
0.9998586
0.9999924
0.9999999
1
1
1
0.9999998
0.999999
0.9999934
0.9999621
0.9999466
0.9999635
0.9999915
0.9999992
0.9999999
1
1
1
1
0.9999998
0.9999988
0.9999939
0.9999925
0.9999956
0.9999992
0.9999999
1
1
1
1
1
1
1
1
1
1
1
1
1
1
1
1
1
1
0.9999999
0.9999995
0.9999996
0.9999999
1
1
1
1
1
1
1
1
1
1
1
1
1
1
1
1
1
1
1
1
1
1
1
1
1
1
1
1
1
1
1
0.9999999
0.9999993
0.9999981
0.9999909
0.9998385
0.9970353
0.9924002
0.9924002
0.9944232
0.9987388
0.9999333
0.9999994
1
1
1
1
1
1
1
1
1
1
1
0.9999998
0.9999966
0.9999709
0.9999706
0.9999887
0.9999988
1
1
1
1
1
1
1
1
1
1
1
1
1
1
1
1
1
1
1
1
1
1
1
1
1
1
1
1
1
1
1
1
1
1
1
1
1
1
1
1
1
1
1
1
1
1
1
1
1
1
1
1
1
1
1
1
1
1
1
1
1
1
1
1
1
1
1
1
1
1
1
1
1
1
1
1
1
1
1
1
1
1
1
1
1
1
1
1
1
1
1
1
1
1
1
1
1
1
1
1
1
1
1
1
1
1
1
1
1
1
1
1
1
1
1
1
1
1
1
1
1
1
0.9999999
0.9999994
0.9999974
0.9999921
0.999986
0.9999841
0.9999846
0.9999872
0.999991
0.9999913
0.9999845
0.99994
0.9997514
0.999251
0.9986278
0.9984615
0.9985379
0.9989143
0.9994939
0.999764
0.9997531
0.9994853
0.9981438
0.9940247
0.9886378
0.9878332
0.9897618
0.9948346
0.9984366
0.9989578
0.9989024
0.9982278
0.9937186
0.9775381
0.9554149
0.9527917
0.965191
0.987464
0.9962774
0.9967438
0.9966239
0.9932599
0.9744861
0.9273767
0.8973607
0.9079341
0.948837
0.9777437
0.9857804
0.9884666
0.9874545
0.9765493
0.9356544
0.8384083
0.7791744
0.7970925
0.8832465
0.9681263
0.9815191
0.9754139
0.9588637
0.93643
0.8463748
0.6132474
0.5659916
0.6712363
0.8739486
0.9520487
0.939079
0.9156412
0.9227917
0.9093746
0.6643011
0.3574866
0.4405118
0.7414212
0.8705875
0.8636538
0.8700868
0.9157544
0.9217918
0.7156476
0.2843468
0.3106319
0.6407709
0.8293401
0.822769
0.8350292
0.9037218
0.9445232
0.8667788
0.4179146
0.2817754
0.5065045
0.8127649
0.8562349
0.8736348
0.9253516
0.9559813
0.9042381
0.5294573
0.3906044
0.5971136
0.8606323
0.8944543
0.9012796
0.9322176
0.9630238
0.945594
0.7169347
0.513685
0.6457366
0.8873508
0.9795836
0.9865312
0.9865635
0.9844317
0.9564466
0.831387
0.779654
0.8372349
0.9387604
0.9846935
0.989384
0.9892448
0.9861874
0.9693234
0.9366385
0.9308291
0.9436091
0.9729336
0.9928736
0.9963597
0.996228
0.994618
0.9907574
0.9903018
0.9908593
0.992407
0.9952004
0.9976377
0.9981022
0.9978218
0.9973448
0.996641
0.9952562
0.9942568
0.9958784
0.9985274
0.9979362
0.9874073
0.9550107
0.9506452
0.9657334
0.9870827
0.9961647
0.998848
0.9996753
0.9998765
0.9998946
0.9998926
0.9998718
0.9997666
0.9996911
0.9998323
0.9999733
0.9999987
0.999999
0.9999984
0.9999966
0.9999935
0.9999924
0.999995
0.9999988
0.9999993
0.9999987
0.9999965
0.9999963
0.9999982
0.9999992
0.999999
0.9999982
0.9999958
0.9999908
0.9999808
0.9999564
0.9998898
0.9997614
0.9997108
0.999737
0.9997552
0.9996547
0.9987235
0.9937057
0.9916049
0.9957107
0.9992996
0.9999732
0.999997
0.9999968
0.9999959
0.9999948
0.9999937
0.9999752
0.9994605
0.9982093
0.9985753
0.9995121
0.9999377
0.9999909
0.9999932
0.9999904
0.999955
0.9999116
0.9999346
0.9999812
0.9999984
0.9999999
1
1
1
1
1
1
1
0.9999999
0.9999999
0.9999992
0.9999944
0.9999887
0.9999925
0.9999981
0.9999999
1
1
1
1
1
1
1
0.9999998
0.9999985
0.9999831
0.999812
0.998539
0.9949786
0.994769
0.9977984
0.9997828
0.9998716
0.9987885
0.9881096
0.9846009
0.989401
0.9975684
0.9998326
0.9999971
1
1
0.9999998
0.9999996
0.9999996
0.9999996
0.9999995
0.9999991
0.9999976
0.9999971
0.9999982
0.9999997
1
1
1
1
0.9999998
0.9999998
0.9999999
1
1
1
1
0.9999999
0.9999994
0.9999942
0.9999343
0.999186
0.9966877
0.9967509
0.9986744
0.9997934
0.9999919
0.9999999
0.9999999
0.9999997
0.9999985
0.9999897
0.9999146
0.9996913
0.9996854
0.9998657
0.9999756
0.999997
0.9999996
0.9999999
0.9999999
0.9999998
0.9999995
0.999997
0.9999781
0.9999378
0.9999482
0.9999813
0.9999973
0.9999997
1
1
1
1
0.9999999
0.9999999
1
1
1
1
1
0.9999999
0.9999999
1
1
1
1
1
0.9999999
0.9999993
0.9999981
0.9999987
0.9999997
1
1
1
1
1
1
1
1
1
1
1
1
1
1
1
1
1
1
1
1
1
1
1
1
1
1
1
1
1
1
1
1
0.9999995
0.9999874
0.999883
0.9995043
0.9989476
0.9946468
0.9924002
0.9959344
0.9991496
0.9999451
0.9999993
1
1
1
1
1
1
1
1
1
1
0.9999999
0.9999995
0.9999973
0.999986
0.9999511
0.9999457
0.9999754
0.9999968
0.9999999
1
1
1
1
0.9999999
0.9999998
0.9999998
1
1
1
1
1
0.9999989
1
1
1
1
1
1
1
1
1
1
1
1
1
1
1
1
1
1
1
1
1
1
1
1
1
1
1
1
1
1
1
1
1
1
1
1
1
1
1
1
1
1
1
1
1
1
1
1
1
1
1
1
1
1
1
1
1
1
1
1
1
1
1
1
1
1
1
1
1
1
1
1
1
1
1
1
1
1
1
1
1
1
1
1
1
1
1
1
1
1
1
1
1
1
1
1
1
1
1
1
1
1
1
1
1
1
1
1
1
1
1
1
1
1
0.9999999
0.9999998
0.9999998
0.9999997
0.9999995
0.9999992
0.9999979
0.9999908
0.9999318
0.9995399
0.998138
0.9964235
0.9960646
0.9961571
0.9965735
0.9974572
0.9981577
0.9981671
0.9970246
0.9893856
0.9611222
0.9221414
0.9147584
0.9224492
0.9458435
0.9710265
0.9859322
0.9891763
0.9861203
0.9613831
0.8627304
0.7072504
0.6885331
0.7486029
0.8808287
0.9645941
0.9695926
0.9589911
0.9440629
0.9198929
0.7094147
0.3268628
0.3419406
0.6176847
0.8799232
0.9045815
0.8864062
0.8877858
0.8869846
0.6758517
0.1915306
0.1080994
0.2824959
0.6613626
0.7093491
0.7076582
0.7717475
0.8005948
0.6127222
0.1922474
0.03517572
0.02843906
0.04188154
0.211229
0.6693788
0.8118806
0.730652
0.3543893
0.06877906
0.01373231
0.01038436
0.009962902
0.01992314
0.1827821
0.5841637
0.5445487
0.2359635
0.03879217
0.01477652
0.01426637
0.01272625
0.01788413
0.07506522
0.2259726
0.2352945
0.1496703
0.05245289
0.03932779
0.03686836
0.02894978
0.0302022
0.04855237
0.09581634
0.1113377
0.09910283
0.07214585
0.06895224
0.06990688
0.05742423
0.05157222
0.05722792
0.06821217
0.07180624
0.07278923
0.07970365
0.1050419
0.1152049
0.09849569
0.08370339
0.08714207
0.08730311
0.08012604
0.07700337
0.09008627
0.1466977
0.1794663
0.1587455
0.1293826
0.1346454
0.1461239
0.143778
0.1442447
0.1840685
0.2849831
0.2981219
0.2564813
0.2444689
0.2685902
0.2726199
0.2568273
0.2878866
0.4750131
0.5674225
0.4900379
0.3539544
0.3704682
0.4999019
0.5326682
0.4831187
0.5070446
0.7294857
0.9373342
0.957204
0.8941258
0.6789999
0.6797868
0.8603184
0.9821743
0.9923299
0.984415
0.8964647
0.716483
0.802593
0.9589532
0.9945888
0.9932904
0.9494331
0.736316
0.6841765
0.7739244
0.9442105
0.9434749
0.9364773
0.9467974
0.9711536
0.9910255
0.9957917
0.9954111
0.9942923
0.9962037
0.9991193
0.9999293
0.9999767
0.9999749
0.9999472
0.9997944
0.9995401
0.9996611
0.9999254
0.9999927
0.9999904
0.9999653
0.9999477
0.9999724
0.9999946
0.9999951
0.9999829
0.9999046
0.9998566
0.9998707
0.9998669
0.999792
0.9993736
0.9975041
0.9940056
0.9936652
0.9960797
0.9971395
0.9926434
0.9662869
0.9693256
0.9898468
0.9988761
0.9999624
0.9999816
0.9999542
0.9997113
0.9978016
0.9943135
0.9956243
0.9986517
0.9993085
0.9989966
0.9989427
0.9991448
0.9992492
0.9985458
0.9979081
0.9985055
0.999608
0.9999589
0.9999934
0.9999981
0.9999997
1
1
0.9999999
0.9999995
0.9999988
0.999999
0.9999995
0.9999995
0.9999985
0.9999883
0.9999533
0.9999579
0.9999856
0.9999983
0.9999999
1
1
1
1
0.9999999
0.9999999
0.9999998
0.9999991
0.999992
0.9999178
0.9991078
0.9918818
0.9716824
0.9764334
0.9924683
0.9991921
0.9999232
0.9998772
0.9985715
0.9829079
0.9874513
0.9961103
0.9994938
0.9999771
0.9999997
0.9999998
0.9999998
0.9999992
0.999992
0.9998943
0.9994352
0.9993941
0.9996926
0.9999529
0.9999979
0.9999999
1
1
1
0.9999999
0.9999999
0.9999999
0.9999998
0.9999995
0.9999995
0.9999998
1
0.9999999
0.9999982
0.9999722
0.9996365
0.9961692
0.9927907
0.9951602
0.9986093
0.9998743
0.9999964
0.999999
0.9999982
0.9999913
0.9999424
0.99957
0.9989151
0.9990268
0.9996097
0.9999299
0.9999908
0.9999988
0.9999991
0.9999991
0.9999986
0.9999948
0.9999633
0.9997572
0.9996109
0.9997233
0.9999271
0.9999908
0.9999987
0.9999998
0.9999999
0.9999999
0.9999998
0.9999994
0.9999992
0.9999996
0.9999999
1
1
0.9999999
0.9999997
0.9999997
0.9999998
1
1
1
1
1
0.9999995
0.9999965
0.9999934
0.9999961
0.9999992
1
1
1
1
1
1
1
1
1
1
1
0.9999999
0.9999995
0.9999994
0.9999996
0.9999999
1
1
1
1
1
1
1
1
1
1
1
1
0.9999999
0.9999999
1
1
0.9999999
0.9999983
0.9999438
0.9988603
0.9919383
0.991446
0.9963958
0.9994671
0.9999692
0.9999996
1
1
1
1
1
1
1
1
1
1
0.9999995
0.9999973
0.9999893
0.9999612
0.9998676
0.9996879
0.9996841
0.9998632
0.999983
0.9999995
0.9999997
0.9999995
0.9999986
0.9999956
0.999992
0.9999941
0.9999985
0.9999999
1
1
1
1
1
0.9999827
1
1
1
1
1
1
1
1
1
1
1
1
1
1
1
1
1
1
1
1
1
1
1
1
1
1
1
1
1
1
1
1
1
1
1
1
1
1
1
1
1
1
1
1
1
1
1
1
1
1
1
1
1
1
1
1
1
1
1
1
1
1
1
1
1
1
1
1
1
1
1
1
1
1
1
1
1
1
1
1
1
1
1
1
1
1
1
1
1
1
1
1
1
1
1
1
1
1
1
1
1
1
1
1
1
1
1
1
1
1
1
1
1
1
1
1
1
1
1
1
1
1
1
0.9999999
0.9999988
0.9999889
0.9999389
0.9998337
0.9997783
0.9997587
0.9997089
0.999558
0.9992967
0.998819
0.9969607
0.9844938
0.932225
0.8770625
0.8742914
0.8795777
0.8881893
0.9082683
0.930293
0.9303841
0.9162462
0.8531951
0.6013281
0.3340845
0.3221966
0.3861173
0.5371805
0.6642027
0.7472717
0.8070982
0.7870543
0.4972465
0.1219061
0.03667162
0.03589588
0.04824986
0.1997872
0.6254729
0.7293971
0.5771531
0.2173619
0.03683096
0.0104525
0.009597627
0.009696398
0.02463904
0.1658036
0.350137
0.2896321
0.1182061
0.02187502
0.008798137
0.008561964
0.009469417
0.01588753
0.03740046
0.05953137
0.05963012
0.04889227
0.02747294
0.01109177
0.007063149
0.007138462
0.00988721
0.01203245
0.01159706
0.01177656
0.01265431
0.01279196
0.01109703
0.009226145
0.01160314
0.01059564
0.005926081
0.003183835
0.00293591
0.003159507
0.003940176
0.005475456
0.01090212
0.01470284
0.01208192
0.004577209
0.001182481
0.001003318
0.001193925
0.002564197
0.007597323
0.01164764
0.009500314
0.004133942
0.001029577
0.0006008031
0.0005975008
0.0007219295
0.001468374
0.004366242
0.009827098
0.01076867
0.008538779
0.004206106
0.001557416
0.001069848
0.001114124
0.00159288
0.003293238
0.006039287
0.0071136
0.007013103
0.006119983
0.003983437
0.002220208
0.002025681
0.00243741
0.004369986
0.008012294
0.01054349
0.01107572
0.01082505
0.008991249
0.005789764
0.004322346
0.004343013
0.005218228
0.008786182
0.0164584
0.02273972
0.02305418
0.02203329
0.01979595
0.01791972
0.01863781
0.02738417
0.04820991
0.05669589
0.05228991
0.04504239
0.04815025
0.06365623
0.06735052
0.06141367
0.08271655
0.2389805
0.4055365
0.3700087
0.1944955
0.0886041
0.218573
0.7154654
0.8338484
0.6422104
0.21007
0.1114679
0.3285444
0.865978
0.9324807
0.6738418
0.1764049
0.1203692
0.3224032
0.8665906
0.9626203
0.9626203
0.7139022
0.2473763
0.2471757
0.3503289
0.5571866
0.7936517
0.9316851
0.9829948
0.9972933
0.9993854
0.9993817
0.9984769
0.9916929
0.9799943
0.9874135
0.9974447
0.9998441
0.9999333
0.9998348
0.9996088
0.9997129
0.9999229
0.9999762
0.9999686
0.9997123
0.9968173
0.9954913
0.9967099
0.9989375
0.9984926
0.9963443
0.9900896
0.9580715
0.9443343
0.9552499
0.9820216
0.976658
0.9307247
0.9380181
0.9800499
0.9978254
0.9998807
0.9998448
0.999263
0.9933655
0.9796097
0.9804714
0.9920113
0.9987211
0.9991579
0.9991012
0.9976114
0.9813341
0.9612029
0.9705294
0.9913529
0.9990499
0.9998515
0.9999517
0.9999914
0.9999994
0.9999996
0.9999996
0.9999993
0.9999965
0.9999865
0.9999866
0.9999952
0.9999985
0.9999977
0.9999851
0.9998969
0.9998526
0.9998981
0.9999764
0.9999984
1
1
1
0.9999999
0.9999997
0.9999992
0.9999986
0.9999974
0.9999916
0.9999408
0.9994175
0.9930187
0.9367474
0.9093654
0.9389578
0.9875733
0.9993321
0.9998529
0.9997668
0.9992045
0.9979197
0.9852039
0.9794154
0.9856537
0.996791
0.9997706
0.9999755
0.999976
0.9999673
0.9999557
0.9998433
0.9993894
0.9993551
0.9994643
0.9998375
0.9999869
0.9999998
0.9999999
0.9999999
0.9999996
0.9999976
0.9999965
0.9999978
0.9999995
0.9999998
0.9999996
0.9999995
0.9999996
0.9999998
0.9999992
0.9999786
0.999418
0.990576
0.9828196
0.9920441
0.9988037
0.9999542
0.9999977
0.9999973
0.9999889
0.9998851
0.9986527
0.9957117
0.9965771
0.9988527
0.9998327
0.9999827
0.9999975
0.9999977
0.9999972
0.9999927
0.9999651
0.999776
0.9987618
0.9982536
0.9988563
0.9997311
0.9999644
0.9999959
0.9999995
0.9999995
0.9999995
0.9999991
0.999997
0.9999932
0.9999944
0.9999984
0.9999999
1
1
0.9999998
0.9999996
0.9999996
0.9999998
1
1
1
1
0.9999999
0.9999995
0.9999959
0.999986
0.9999873
0.9999959
0.9999996
1
1
1
1
1
1
1
0.9999999
0.9999997
0.999998
0.9999939
0.9999938
0.9999973
0.9999996
1
1
1
1
1
1
1
1
1
1
1
1
1
0.9999999
0.9999996
0.9999997
0.9999999
1
0.9999998
0.999993
0.9997233
0.9932313
0.98576
0.9928727
0.998639
0.9999362
0.9999994
1
1
1
1
1
1
1
1
1
1
0.9999999
0.9999975
0.9999557
0.9996057
0.9981288
0.9967145
0.9974121
0.9992165
0.9999356
0.9999952
0.9999924
0.9999754
0.9999097
0.9998169
0.9998565
0.9999607
0.9999971
1
1
1
1
1
0.9999999
0.9999975
0.9997725
1
1
1
1
1
1
1
1
1
1
1
1
1
1
1
1
1
1
1
1
1
1
1
1
1
1
1
1
1
1
1
1
1
1
1
1
1
1
1
1
1
1
1
1
1
1
1
1
1
1
1
1
1
1
1
1
1
1
1
1
1
1
1
1
1
1
1
1
1
1
1
1
1
1
1
1
1
1
1
1
1
1
1
1
1
1
1
1
1
1
1
1
1
1
1
1
1
1
1
1
1
1
1
1
1
1
1
1
1
1
1
1
1
1
1
1
1
1
1
1
1
1
1
1
1
1
1
1
1
1
1
1
1
1
1
0.9999998
0.9999967
0.999947
0.9992945
0.9946729
0.9828362
0.9785339
0.9789251
0.9774935
0.9699819
0.9576878
0.9385369
0.9043411
0.7955186
0.459551
0.268441
0.2890363
0.3226443
0.3389627
0.396837
0.4806987
0.4446056
0.248099
0.06666678
0.02710152
0.02703388
0.02732935
0.03167258
0.05313576
0.07620967
0.07489038
0.05781855
0.02805513
0.01194121
0.01065513
0.01221234
0.01383125
0.01268581
0.01057391
0.009375088
0.008184147
0.006678556
0.00678364
0.01130347
0.0156119
0.01509536
0.006665656
0.00165333
0.001068844
0.001082001
0.001282161
0.002719348
0.01042359
0.01375662
0.01068195
0.003092507
0.0004048858
0.0002160569
0.000227771
0.0003818679
0.001713191
0.008717475
0.01068735
0.00645891
0.001298497
0.0001464074
9.595839e-05
0.0001045827
0.0002210463
0.001053124
0.003488228
0.003734839
0.002204051
0.0005632226
9.47607e-05
4.787264e-05
4.671833e-05
7.495478e-05
0.0004074187
0.001936156
0.002381664
0.001724706
0.0008125724
0.0003029362
7.441436e-05
3.697394e-05
5.136382e-05
0.0002166013
0.0007781944
0.001073397
0.001013254
0.0007064237
0.0002452956
3.435574e-05
1.765712e-05
2.329863e-05
0.000137938
0.0007378569
0.001108532
0.001013944
0.000708274
0.0002978376
6.696791e-05
3.308495e-05
4.909293e-05
0.0002272824
0.0007938643
0.0008883507
0.0006890176
0.0003202247
0.0001165754
0.0001295119
0.0005074333
0.00139261
0.0009953612
0.0004625639
0.0004770515
0.0005562795
0.0005476892
0.0004513604
0.0003033478
0.0003202005
0.0004641826
0.0005251876
0.001337674
0.001215898
0.001211902
0.001238412
0.001420678
0.002736466
0.01433267
0.01006999
0.002974716
0.002503939
0.00444403
0.009651176
0.01312942
0.01153876
0.006639959
0.004350974
0.006748933
0.01241298
0.01704712
0.02091921
0.02584642
0.02855583
0.02991577
0.03224496
0.0472957
0.07154015
0.1386542
0.0915747
0.08413506
0.08413506
0.1532407
0.5538298
0.3676969