/*--------------------------------*- C++ -*----------------------------------*\
| =========                 |                                                 |
| \\      /  F ield         | foam-extend: Open Source CFD                    |
|  \\    /   O peration     | Version:     3.1                                |
|   \\  /    A nd           | Web:         http://www.extend-project.de       |
|    \\/     M anipulation  |                                                 |
\*---------------------------------------------------------------------------*/
FoamFile
{
    version     2.0;
    format      ascii;
    class       volScalarField;
    location    "17.5";
    object      k;
}
// * * * * * * * * * * * * * * * * * * * * * * * * * * * * * * * * * * * * * //

dimensions      [0 2 -2 0 0 0 0];

internalField   nonuniform List<scalar> 
119952
(
0.08357795
0.08004591
0.07935086
0.07771978
0.07594104
0.0745797
0.07414828
0.07418479
0.0744697
0.07488822
0.07537803
0.07589777
0.07641973
0.07692611
0.07741167
0.07787697
0.0783231
0.07876933
0.07928824
0.08022722
0.08275478
0.08068027
0.08085575
0.082977
0.07995667
0.07843231
0.07716288
0.07599067
0.07357032
0.02449342
0.09944431
0.09715841
0.09493489
0.09356193
0.09303177
0.09317038
0.09373782
0.09454878
0.09547416
0.09645308
0.09166462
0.09161535
0.09396533
0.0973199
0.1008679
0.1042187
0.1072433
0.1099326
0.1122696
0.1226714
0.1239077
0.1246945
0.1250275
0.1251132
0.1251444
0.1252147
0.1253635
0.1255993
0.1258139
0.1264861
0.1269136
0.1271114
0.1271903
0.1271961
0.1271549
0.1270775
0.126914
0.1268668
0.1292089
0.1292213
0.1283851
0.1282713
0.1282861
0.1280133
0.1273226
0.1264173
0.1254879
0.1245981
0.1237528
0.1229425
0.1221529
0.1213737
0.1206033
0.1198472
0.1191092
0.1183856
0.1176493
0.1168834
0.116306
0.1158678
0.1150943
0.1147693
0.1153782
0.1156105
0.1156403
0.1160166
0.11655
0.1146117
0.1126552
0.1111768
0.1098473
0.1087317
0.1077483
0.1068679
0.1060875
0.1053944
0.1047755
0.1042177
0.1037058
0.1032254
0.1027654
0.1023189
0.1018833
0.1014595
0.1010499
0.1006556
0.1002745
0.09990247
0.09953392
0.09916401
0.09878977
0.09841076
0.09802865
0.09764572
0.09726316
0.09688031
0.0964951
0.0961055
0.09571091
0.09531247
0.09491272
0.09451535
0.09412482
0.09374531
0.09337888
0.09302473
0.09268136
0.09234928
0.0920323
0.09173661
0.09146756
0.0912263
0.09101185
0.09082382
0.09065794
0.09049968
0.09035106
0.09031481
0.09046032
0.09047129
0.09052114
0.09054728
0.09050513
0.09041289
0.09026512
0.09006378
0.08981377
0.08951368
0.08916217
0.08875764
0.08829798
0.08778104
0.08720547
0.08657082
0.08587786
0.0851316
0.08433847
0.08350973
0.08267272
0.08184103
0.0810065
0.08019105
0.07941618
0.07869764
0.07805832
0.0775052
0.07701878
0.07657811
0.07616246
0.07575385
0.07533791
0.07490472
0.07445495
0.07399775
0.07353135
0.07305855
0.07257731
0.07209697
0.07162233
0.07116969
0.07075057
0.07037301
0.0700378
0.06974352
0.06949846
0.06929498
0.06914178
0.06918062
0.06884167
0.06789628
0.0668383
0.06568108
0.06449505
0.06339697
0.06255671
0.0621016
0.06193467
0.06176724
0.06135633
0.06062263
0.05960577
0.05843945
0.05729557
0.05626603
0.05540726
0.054628
0.05387042
0.05315377
0.05246957
0.05180176
0.05114222
0.05049596
0.04987595
0.04929543
0.04875867
0.04826983
0.04783579
0.04746212
0.04715238
0.04690917
0.04673495
0.04662523
0.04648438
0.04688165
0.04746663
0.04805614
0.04869419
0.04940915
0.05019522
0.05101423
0.0518213
0.05258714
0.05330461
0.05398123
0.05462564
0.05523945
0.05581494
0.05632827
0.05675709
0.05708753
0.05730626
0.05739785
0.05735182
0.05715709
0.05680961
0.0563218
0.0557177
0.05502329
0.0542632
0.05345212
0.05258835
0.05170772
0.05084578
0.05001747
0.0492333
0.04850035
0.047829
0.04946777
0.04919743
0.04888207
0.04849805
0.04820044
0.04803336
0.0480516
0.04826656
0.04863328
0.04907899
0.04954026
0.04998283
0.05039827
0.05079517
0.05119188
0.0515992
0.05201607
0.05242764
0.0528032
0.05310038
0.05328373
0.0533302
0.05323325
0.05299802
0.05263681
0.05217518
0.05165119
0.05109548
0.05051426
0.04991691
0.04932226
0.04873007
0.04804405
0.04750337
0.0474218
0.04746005
0.04737424
0.04716118
0.04688037
0.04659207
0.04634064
0.04615004
0.0460237
0.0459427
0.04587063
0.04575133
0.04549644
0.0450744
0.04444285
0.04357828
0.04249731
0.04127272
0.03999939
0.03880991
0.03779598
0.03664924
0.03568146
0.03489554
0.03426935
0.03379397
0.0334658
0.03327172
0.03319399
0.03321658
0.03332535
0.03351484
0.03378737
0.03414873
0.03460502
0.0351609
0.03581776
0.03657249
0.0374176
0.03834273
0.03933543
0.04038536
0.04148639
0.0426355
0.04383227
0.04507644
0.04636063
0.04766975
0.0489893
0.05030601
0.05160706
0.05287858
0.05410508
0.05526942
0.05635263
0.05733355
0.05818878
0.0588934
0.05942216
0.05975233
0.05986818
0.05976731
0.05946789
0.05901111
0.05844953
0.05782113
0.05713428
0.056379
0.05554678
0.05464012
0.05367136
0.05265759
0.05161618
0.05056195
0.04950626
0.04845705
0.0474193
0.04639583
0.04538798
0.04439635
0.04342151
0.04246447
0.0415267
0.04061018
0.03971834
0.03885322
0.03801627
0.03721003
0.0364379
0.03570381
0.03501214
0.03436762
0.0337731
0.03322324
0.03271183
0.03223437
0.03178743
0.03136884
0.03097491
0.03060333
0.03024701
0.02988938
0.02948674
0.02903813
0.02924474
0.102872
0.09647679
0.1002014
0.1066555
0.1130216
0.1184982
0.1230103
0.1266978
0.129839
0.1317314
0.1391261
0.1484014
0.1575131
0.1655083
0.1721668
0.17753
0.1817758
0.1850885
0.2092047
0.2092454
0.2090893
0.2085084
0.2077584
0.2070287
0.2063938
0.205876
0.2054448
0.2049438
0.2046684
0.2042487
0.2034195
0.2023788
0.2012602
0.2001381
0.1990547
0.1980326
0.1970515
0.1963102
0.1956686
0.194713
0.1935837
0.192398
0.1911916
0.1899948
0.1888403
0.1877462
0.1867246
0.1858157
0.1848896
0.1839672
0.183037
0.1820747
0.1810911
0.1801119
0.1791669
0.1782946
0.1872453
0.1862466
0.1852641
0.1843101
0.1833574
0.1823897
0.1814133
0.1804426
0.1795039
0.1785898
0.1776965
0.1768478
0.1760202
0.1751751
0.1742962
0.1733842
0.1724706
0.1716555
0.1711074
0.1706275
0.1698085
0.1689875
0.1683472
0.1676575
0.1667551
0.1656794
0.1645301
0.1633665
0.1622144
0.161091
0.1599864
0.1588843
0.1577658
0.1566229
0.1554555
0.1542773
0.1531049
0.1519598
0.15087
0.149872
0.1489097
0.1480432
0.1474587
0.1470739
0.1466136
0.1460775
0.1454327
0.1444256
0.1430126
0.1417473
0.1406829
0.1396748
0.1386944
0.1377287
0.1367713
0.1358275
0.1349063
0.1340161
0.1331599
0.1323323
0.131524
0.1307256
0.1299306
0.1291379
0.1283526
0.1275831
0.1268363
0.1261147
0.1254147
0.1247281
0.1240455
0.1233592
0.122666
0.1219674
0.1212683
0.120573
0.1198832
0.1191972
0.1185117
0.1178236
0.1171308
0.1164339
0.1157366
0.1150458
0.1143686
0.1137079
0.1130623
0.1124293
0.1118101
0.1112123
0.1106467
0.110119
0.1096321
0.1091876
0.1087885
0.1084309
0.1081219
0.1078731
0.1076867
0.1075138
0.1073005
0.1070396
0.1067234
0.1063451
0.1059114
0.1054345
0.1049257
0.1043929
0.1038381
0.1032593
0.1026515
0.1020096
0.1013299
0.1006105
0.09985217
0.09905937
0.0982399
0.09740348
0.09656235
0.09573366
0.09493492
0.09418169
0.09348871
0.09286818
0.09232708
0.09187285
0.09151482
0.09124239
0.09103957
0.0908874
0.09076777
0.0906614
0.09055201
0.09042236
0.09026181
0.09005729
0.08979924
0.08947868
0.08910721
0.08869062
0.08823172
0.08772141
0.08716394
0.0865543
0.08590408
0.08521789
0.08450964
0.08384325
0.0829683
0.08164557
0.08052694
0.07954218
0.07864123
0.07778241
0.07693759
0.07611383
0.07536571
0.07475778
0.07431469
0.07401264
0.07380209
0.07362677
0.07344186
0.07323116
0.07300194
0.07277096
0.07254665
0.07231896
0.07207478
0.0718007
0.07148176
0.07110372
0.07065396
0.07013011
0.06955182
0.06893549
0.06829567
0.06764718
0.06700203
0.06636728
0.06574332
0.06512222
0.06448997
0.06385061
0.06326216
0.06274868
0.06228955
0.06188319
0.06154054
0.0612757
0.06109594
0.0609966
0.06095972
0.06095805
0.06096269
0.0609503
0.06090823
0.06083865
0.06076108
0.06071002
0.06073422
0.06089677
0.0612554
0.06183266
0.06262272
0.06358855
0.06466591
0.06577252
0.06681962
0.06772499
0.06842324
0.06886993
0.06904608
0.06895609
0.0686246
0.06808128
0.06737867
0.06660661
0.06788665
0.06702099
0.06626133
0.06553549
0.06483173
0.06417747
0.06358878
0.06307321
0.06263461
0.06226746
0.06195618
0.06168273
0.06143198
0.06119583
0.0609759
0.06078289
0.06063715
0.06056523
0.06058896
0.0607296
0.0610028
0.06141522
0.06195846
0.06260316
0.06330424
0.06401013
0.06465885
0.06518456
0.06554737
0.06571581
0.06564804
0.0653063
0.06471361
0.06399666
0.06326254
0.0625314
0.06180614
0.0610997
0.06043586
0.0598434
0.05935091
0.05898126
0.05874657
0.05864558
0.05866827
0.05879824
0.05900907
0.05926699
0.05953439
0.05975618
0.05986956
0.05982631
0.05960045
0.05921093
0.05869277
0.05805795
0.05733007
0.05653323
0.05572254
0.05495234
0.05426115
0.05366655
0.05317274
0.0527952
0.05255955
0.05247749
0.05254696
0.05276827
0.05314265
0.05367167
0.05435591
0.05519014
0.05615509
0.05723009
0.0583978
0.0596388
0.06093247
0.06225931
0.06360195
0.06494667
0.06629753
0.06765014
0.06898872
0.07030063
0.07157518
0.07280208
0.07396993
0.07506534
0.07607293
0.07697554
0.07775423
0.07838799
0.07885419
0.0791294
0.07918931
0.07901271
0.07859208
0.07794784
0.0771275
0.0761772
0.07512421
0.07398114
0.07275668
0.07146207
0.07011284
0.0687267
0.06732068
0.06590931
0.06450393
0.06311259
0.06174039
0.06039003
0.05906231
0.05775679
0.05647232
0.05520753
0.0539614
0.05273363
0.05152456
0.05033468
0.04916472
0.04801588
0.04688994
0.04578912
0.04471626
0.04367445
0.04266804
0.04170391
0.04078446
0.03990918
0.03907957
0.03829308
0.03754854
0.03683777
0.03616215
0.03551714
0.03491923
0.03442367
0.03402595
0.05894403
0.06365718
0.0691539
0.07512879
0.08164248
0.08883145
0.09694588
0.1064513
0.1181734
0.1324321
0.1955047
0.2128261
0.2303033
0.2471048
0.2626663
0.2759707
0.2893125
0.3046217
0.3299869
0.3982141
0.4091353
0.4174304
0.424182
0.4292763
0.433034
0.4355374
0.4368096
0.4369637
0.4362627
0.4347655
0.4337404
0.4325748
0.430782
0.4282201
0.4249495
0.4210935
0.416787
0.4124686
0.4060455
0.4000027
0.3943417
0.3890037
0.3839527
0.3790908
0.3743374
0.3696246
0.3649232
0.3602591
0.3554728
0.3505961
0.3457105
0.3408425
0.3360464
0.3313615
0.3267923
0.3223161
0.3303338
0.3260856
0.3217568
0.317439
0.3131766
0.3089838
0.3048807
0.3008837
0.297021
0.2932888
0.2896387
0.286081
0.2826212
0.2792218
0.2758674
0.2725714
0.2693566
0.2662545
0.263294
0.2604501
0.2577038
0.2550696
0.2525082
0.2499731
0.2474495
0.244952
0.2425163
0.2401787
0.237949
0.2358423
0.2338449
0.231894
0.2299419
0.2279696
0.2259862
0.2240252
0.2221279
0.2202992
0.2185171
0.2168599
0.2153041
0.213795
0.2122827
0.2107454
0.2091932
0.207658
0.2061776
0.2047807
0.203487
0.2022919
0.2011528
0.2000184
0.1988529
0.1976517
0.196452
0.1953148
0.1942961
0.1933887
0.1925057
0.1916215
0.1907689
0.189881
0.1888746
0.1877181
0.1864528
0.1851554
0.1838966
0.1827093
0.1815801
0.1804611
0.1793125
0.1781176
0.1768721
0.175594
0.1743158
0.1730681
0.1718921
0.1707971
0.1697974
0.1688882
0.168105
0.1673981
0.1666708
0.1658287
0.1648785
0.1637516
0.1625063
0.1612823
0.1601553
0.1590924
0.1580645
0.1570446
0.1560198
0.1549974
0.1539946
0.1530286
0.1521072
0.1512247
0.1503668
0.1495158
0.148657
0.1477843
0.1469041
0.146031
0.1451796
0.1443574
0.1435618
0.1427818
0.1420025
0.1412097
0.1403957
0.1395615
0.1387153
0.1378669
0.1370222
0.1361815
0.1353413
0.1344968
0.1336436
0.1327796
0.1319089
0.1310423
0.130192
0.1293642
0.1285566
0.1277636
0.1269843
0.1262275
0.1255065
0.12483
0.124199
0.1236185
0.1230905
0.122615
0.1222021
0.1218576
0.1215633
0.1212771
0.1209465
0.1205348
0.1200206
0.1193979
0.118677
0.1178783
0.1170239
0.1161322
0.115213
0.1142686
0.1132958
0.1122898
0.1112475
0.1101678
0.1090536
0.1079119
0.1067532
0.1055916
0.1044461
0.1033384
0.1022901
0.1013226
0.1004564
0.09970818
0.09908953
0.09860687
0.09827416
0.09807721
0.09799015
0.09798576
0.09803512
0.09811279
0.09819397
0.09826084
0.09829569
0.09828906
0.09822879
0.09810837
0.09791514
0.0976437
0.09730308
0.09688805
0.09638992
0.09580305
0.09513274
0.0943794
0.09357299
0.09271218
0.09193043
0.09103963
0.09007457
0.08907667
0.08806562
0.0870467
0.08602663
0.08501767
0.0840361
0.08309444
0.08219591
0.08133533
0.08050349
0.07969291
0.0789033
0.07814286
0.07742543
0.07676599
0.0761771
0.07566737
0.07523991
0.07489085
0.07460937
0.07437983
0.07418468
0.0740063
0.07383499
0.0736717
0.07351601
0.0733696
0.07323351
0.07310586
0.07298049
0.07285065
0.07271384
0.07257927
0.07246682
0.07238668
0.07234378
0.07234958
0.07241495
0.07254515
0.07273681
0.07297552
0.07323518
0.07348051
0.07367158
0.07376978
0.07374359
0.07357361
0.07325518
0.07279948
0.07223462
0.07160694
0.07100268
0.07050605
0.07016719
0.07002919
0.07011995
0.07044675
0.07099017
0.07170723
0.07252966
0.07337987
0.07416954
0.07483267
0.07529863
0.07555464
0.07554781
0.07528394
0.07495175
0.07446485
0.07381813
0.07307159
0.07228697
0.07150291
0.07075469
0.07006988
0.06946264
0.06893512
0.06847883
0.06807805
0.06771949
0.06738958
0.06706836
0.0667401
0.06639827
0.06605006
0.06570961
0.06539855
0.06514607
0.06498626
0.06495173
0.06506666
0.06534294
0.06577632
0.06634057
0.0669891
0.06766443
0.06830151
0.06882406
0.06915676
0.06926664
0.06918049
0.06893683
0.06855255
0.06803685
0.06740696
0.06669107
0.06592621
0.06515378
0.06441287
0.06373347
0.06313482
0.06263151
0.06224148
0.06198919
0.06190008
0.06198883
0.06224862
0.06264489
0.0631153
0.06362588
0.06415587
0.06467317
0.06514098
0.06553583
0.06583801
0.06602644
0.0660889
0.06602758
0.06585642
0.0655937
0.06526142
0.0649224
0.06464192
0.06447434
0.06444949
0.0645811
0.0648802
0.06534854
0.06598083
0.06677343
0.06771399
0.06878215
0.06995228
0.07119646
0.07248662
0.07379628
0.07510213
0.07638323
0.0776358
0.07884785
0.08000738
0.08110634
0.0821386
0.08309799
0.08397715
0.08476741
0.08545858
0.08603903
0.08649479
0.08680936
0.08696866
0.08695393
0.08673877
0.08629494
0.0856101
0.08470734
0.08363386
0.08243197
0.08112944
0.07974999
0.07831112
0.07683014
0.0753246
0.07381027
0.07230017
0.07080427
0.06932961
0.06788052
0.06645909
0.06506552
0.06369877
0.0623569
0.06103772
0.05973936
0.05846053
0.05720043
0.05595841
0.054734
0.05352716
0.0523383
0.05116859
0.05001975
0.04889426
0.04779473
0.0467246
0.04568929
0.04469274
0.04373729
0.04282444
0.04195242
0.04112121
0.04032886
0.03958059
0.03887429
0.03822499
0.03765264
0.04482284
0.05075138
0.05605159
0.0861272
0.1165739
0.1543444
0.1796537
0.2049631
0.2288154
0.2510156
0.2703934
0.2871089
0.3033767
0.3199886
0.3367526
0.3536766
0.370739
0.3875302
0.4037527
0.4195559
0.434792
0.4492719
0.4632059
0.4766307
0.4894572
0.5015932
0.5129123
0.5233855
0.5328099
0.5414729
0.5496495
0.5808869
0.5827488
0.5829506
0.581825
0.5795125
0.5761408
0.5718241
0.5666783
0.5608439
0.5545761
0.5479255
0.5410225
0.5339784
0.5268704
0.5197379
0.512597
0.5054582
0.498329
0.4912031
0.4840594
0.4769676
0.469922
0.4629398
0.4559071
0.4489009
0.4419509
0.4350429
0.428155
0.4212641
0.414372
0.4075211
0.4007672
0.394166
0.3877818
0.3816265
0.3757339
0.3700019
0.3640401
0.3583064
0.3527716
0.3473875
0.3421339
0.3370199
0.3320718
0.3273226
0.3227959
0.3184921
0.3143861
0.3104472
0.3066254
0.3028658
0.2991359
0.2954382
0.2918062
0.2882903
0.2849384
0.2817779
0.2788082
0.2759896
0.2732494
0.2705194
0.2677659
0.2649995
0.2622702
0.2596455
0.2571885
0.25493
0.2528394
0.250836
0.2488376
0.2467866
0.2446766
0.242537
0.2404433
0.2384556
0.2366331
0.2349955
0.2334968
0.2320503
0.2305765
0.2290323
0.2274222
0.225793
0.2242147
0.222754
0.2214499
0.2202968
0.2192394
0.2181952
0.2170944
0.2159117
0.2146728
0.2134394
0.2122874
0.2112775
0.2104113
0.2096307
0.20887
0.2080476
0.2070807
0.2059292
0.2046313
0.203288
0.2020057
0.2008431
0.1997908
0.198792
0.1977691
0.1966598
0.1954546
0.1941781
0.1928747
0.1915975
0.1904098
0.1893418
0.188386
0.1875178
0.1867125
0.1859147
0.1850565
0.1840839
0.1830042
0.1818549
0.1806868
0.1795465
0.1784791
0.1774679
0.176474
0.1754629
0.1744145
0.1733443
0.1722892
0.1712849
0.1703473
0.1694683
0.1686255
0.1677915
0.1669391
0.166053
0.1651401
0.1642252
0.1633359
0.1624879
0.1616797
0.1608954
0.1601109
0.1593024
0.158454
0.1575648
0.1566477
0.1557205
0.154795
0.1538735
0.1529523
0.1520248
0.1510832
0.1501203
0.149138
0.1481489
0.1471751
0.1462302
0.1453113
0.1444069
0.1435124
0.1426393
0.1418074
0.1410269
0.1402979
0.1396231
0.1390055
0.1384562
0.1379942
0.1376238
0.1373153
0.1370122
0.1366439
0.1361474
0.1354861
0.1346539
0.1336696
0.1325678
0.1313879
0.1301627
0.1289119
0.1276412
0.1263464
0.1250197
0.1236549
0.1222497
0.1208066
0.1193334
0.1178433
0.1163546
0.1148902
0.1134758
0.1121391
0.1109087
0.1098117
0.1088715
0.1081062
0.1075254
0.1071377
0.1069368
0.1068885
0.1069556
0.1070999
0.1072861
0.1074826
0.1076637
0.1078078
0.1079004
0.1079309
0.1078916
0.1077743
0.1075675
0.1072634
0.1068659
0.1063629
0.1057429
0.1050087
0.104162
0.1032221
0.1021959
0.1011169
0.0999885
0.09881935
0.09761823
0.09639317
0.09515179
0.09390331
0.09265874
0.09142874
0.0902203
0.08903505
0.08787028
0.08672182
0.08558748
0.08446974
0.08337662
0.08232063
0.08131706
0.08038225
0.07953189
0.07877896
0.07813171
0.07759268
0.07715852
0.07682112
0.07657092
0.07639981
0.07630887
0.07630486
0.07638244
0.07653512
0.07675279
0.07702135
0.07732561
0.07765471
0.07800679
0.07838989
0.07881725
0.07930356
0.07986407
0.08051043
0.08124525
0.08205704
0.0829171
0.08378016
0.08458869
0.08527971
0.08579316
0.08607964
0.0861056
0.08585502
0.08532813
0.08453969
0.08351777
0.08230418
0.08100826
0.07971445
0.07848345
0.07737527
0.07644256
0.07572461
0.07524109
0.07498946
0.07494338
0.07505765
0.07527461
0.07553079
0.07577151
0.07593928
0.07601628
0.07598697
0.07581948
0.07553447
0.07517801
0.07478391
0.07437075
0.07395537
0.07355488
0.07318949
0.07287901
0.07262815
0.07243058
0.07227318
0.07213527
0.07199346
0.07182607
0.07161297
0.07133926
0.07099902
0.0705959
0.07014455
0.06967118
0.06921063
0.06880151
0.06848264
0.06828861
0.06824116
0.06834376
0.06858403
0.06893489
0.0693481
0.06975874
0.07011292
0.07038343
0.07055193
0.07059584
0.07049555
0.07024254
0.06984165
0.06931133
0.06868158
0.06798794
0.06726304
0.06653192
0.06581533
0.06513707
0.06452741
0.06401979
0.06364568
0.06342933
0.06338431
0.06351583
0.06382642
0.06431456
0.0649696
0.06575358
0.06664778
0.06762977
0.06866253
0.06969608
0.0706741
0.0715426
0.07226277
0.07281971
0.07321923
0.07348793
0.07366736
0.07380324
0.0739367
0.07413125
0.0744375
0.0748856
0.0754877
0.07624068
0.07712928
0.0781301
0.07921686
0.08036026
0.0815297
0.08269518
0.08382769
0.08490356
0.08591026
0.08683543
0.08767262
0.08841951
0.08907533
0.08963935
0.09011217
0.09049308
0.0907791
0.09096381
0.09103287
0.09098074
0.09079932
0.09046963
0.08996283
0.08925094
0.08832887
0.08722546
0.08598131
0.08462909
0.08320841
0.08174344
0.08025194
0.07874947
0.07724886
0.07576007
0.0742906
0.0728457
0.0714285
0.07004021
0.06868046
0.06734762
0.06603937
0.06475319
0.06348687
0.06223872
0.06100751
0.05979216
0.05859164
0.05740519
0.05623238
0.05507347
0.0539294
0.05280196
0.05169361
0.05060744
0.04954665
0.04851651
0.04752092
0.04656203
0.04564057
0.04475725
0.04391249
0.04310728
0.04234412
0.04162342
0.04099077
0.02211142
0.02469194
0.02719117
0.03631689
0.04845266
0.06900224
0.0835213
0.09899648
0.1157037
0.1327138
0.1503712
0.1698253
0.1906705
0.2120855
0.2344696
0.2596993
0.298468
0.316614
0.3350442
0.3537816
0.3729967
0.3918639
0.4098173
0.4269703
0.4437812
0.4600966
0.4758368
0.4912509
0.5062864
0.5208866
0.5349383
0.5482875
0.5607924
0.5722216
0.5825036
0.591554
0.5993558
0.605762
0.610934
0.6141174
0.6161556
0.6159216
0.6109176
0.6053917
0.5990621
0.5918108
0.5837717
0.5751322
0.5660722
0.5567491
0.5473177
0.5379276
0.5286886
0.519681
0.5109746
0.5026258
0.4946598
0.4870714
0.4798215
0.4728445
0.4660729
0.4594365
0.4529171
0.4465402
0.4403433
0.4344053
0.4286805
0.4229758
0.4173288
0.4116984
0.4060303
0.4002984
0.394525
0.3887773
0.3831416
0.3777083
0.3725273
0.3676232
0.3629363
0.3583722
0.3539031
0.3494955
0.3451014
0.3407047
0.3363317
0.3320381
0.3278926
0.3239571
0.320263
0.3167974
0.3135097
0.3103241
0.3071587
0.3039534
0.3006935
0.2974162
0.2941985
0.2911363
0.2883093
0.2857445
0.2833792
0.2810968
0.2787843
0.2763736
0.2738655
0.2713323
0.2688907
0.2666558
0.2646896
0.2629576
0.2613442
0.2597197
0.2579881
0.2561208
0.2541621
0.2522182
0.2504069
0.248817
0.2474763
0.2463237
0.2452359
0.2440909
0.2428166
0.2414125
0.239944
0.2385166
0.2372384
0.2361812
0.2353422
0.2346383
0.2339383
0.2331249
0.2321472
0.2310357
0.2298824
0.2288038
0.2279025
0.2272244
0.2267226
0.2262648
0.2256841
0.2248708
0.2238013
0.2225373
0.2212198
0.220007
0.2189908
0.2181605
0.2174193
0.2166336
0.2157057
0.2146103
0.213396
0.2121243
0.2108795
0.2097486
0.2087773
0.2079472
0.2072005
0.2064797
0.205707
0.2048117
0.2037751
0.2026353
0.201478
0.2003846
0.199376
0.1984515
0.1975662
0.1966581
0.1956922
0.1946502
0.1935537
0.1924645
0.1914444
0.1905234
0.1896891
0.1889028
0.1881199
0.1872994
0.1864171
0.1854831
0.1845378
0.1836251
0.1827705
0.1819728
0.1812086
0.1804421
0.179636
0.1787637
0.1778221
0.176832
0.175823
0.1748148
0.1738117
0.1728098
0.1718014
0.1707744
0.1697154
0.168622
0.1675133
0.1664249
0.1653809
0.1643776
0.163395
0.162422
0.1614716
0.1605704
0.1597289
0.1589372
0.1581915
0.1575016
0.1568954
0.1564048
0.1560333
0.1557366
0.1554282
0.155002
0.1543672
0.1534757
0.1523277
0.1509615
0.1494374
0.1478227
0.1461741
0.1445254
0.1428854
0.141245
0.139589
0.1379046
0.1361853
0.1344315
0.1326513
0.1308593
0.1290764
0.1273286
0.1256464
0.1240627
0.1226118
0.1213265
0.1202356
0.1193621
0.1187206
0.1183192
0.1181522
0.1181758
0.1183411
0.1185995
0.1189058
0.1192212
0.1195132
0.119756
0.1199317
0.1200292
0.1200392
0.1199499
0.1197454
0.1194068
0.1189366
0.1183256
0.117563
0.1166509
0.1155987
0.1144248
0.1131484
0.1117927
0.1103792
0.108923
0.1074361
0.1059291
0.1044121
0.1028946
0.1013859
0.09989355
0.09842216
0.09697351
0.09554759
0.09414435
0.09276549
0.0914159
0.09010401
0.08884132
0.08764163
0.08652027
0.08549311
0.0845749
0.08377761
0.08310921
0.0825734
0.08217043
0.08189849
0.08175398
0.08173189
0.08184329
0.08210187
0.08249904
0.08301965
0.08364278
0.08434674
0.08511638
0.08594857
0.08685329
0.08784973
0.08896007
0.0902034
0.09158845
0.09310573
0.09472174
0.09637798
0.09799505
0.09948175
0.1007464
0.1017085
0.1023082
0.1025098
0.1022997
0.1016813
0.10067
0.09929269
0.09758723
0.09561212
0.09351063
0.09135252
0.08920486
0.08713376
0.08520062
0.08345713
0.08194052
0.08067015
0.07964593
0.07884972
0.07824817
0.07780169
0.07746596
0.07720122
0.07697267
0.07676022
0.07655688
0.07636265
0.07618107
0.07601933
0.07588878
0.07580296
0.07577219
0.07579894
0.07588244
0.0760164
0.07618477
0.07636589
0.07653304
0.07665736
0.07671257
0.07666758
0.07650376
0.07621145
0.07579192
0.07525854
0.07463573
0.07395671
0.07326133
0.07259239
0.07198963
0.07148527
0.07110231
0.07085114
0.07072449
0.07069905
0.07074581
0.07083617
0.07093864
0.07101749
0.07103759
0.07096992
0.07079505
0.07050569
0.07010714
0.06961414
0.06904507
0.06841775
0.0677499
0.0670619
0.06637794
0.06572395
0.06512562
0.06460636
0.06418536
0.06387776
0.06369766
0.06366202
0.06379317
0.06411406
0.06464587
0.06540268
0.06638331
0.06755292
0.06884929
0.07024185
0.07168786
0.07313687
0.07453515
0.07582869
0.07698065
0.07797961
0.07884072
0.07959677
0.08029063
0.08096757
0.08166715
0.08241696
0.0832292
0.08410136
0.08502722
0.08599014
0.08696508
0.08792239
0.0888292
0.08965208
0.09037147
0.090976
0.09146114
0.09182888
0.09208441
0.09223123
0.09228064
0.09224429
0.09213171
0.09195005
0.09170417
0.09139584
0.09102165
0.09056925
0.09001404
0.08932249
0.08846879
0.08745415
0.08630677
0.08505615
0.08374168
0.08239576
0.08103689
0.0796768
0.07832332
0.07698224
0.07565817
0.07435453
0.0730734
0.07181541
0.07057987
0.06936506
0.06816863
0.06698818
0.06582167
0.06466772
0.0635254
0.06239386
0.06127212
0.06015922
0.05905442
0.05795759
0.05686944
0.05579156
0.05472626
0.05367652
0.05264532
0.05163671
0.05065505
0.04970319
0.04878259
0.04789453
0.04704067
0.04622173
0.04543995
0.04469685
0.04404442
0.00951745
0.01107331
0.01227044
0.01825019
0.02513255
0.03420669
0.04167244
0.05014394
0.05934389
0.06917578
0.079996
0.09279093
0.1068739
0.1226747
0.1416804
0.1710572
0.1867121
0.2032364
0.220073
0.2371687
0.2544369
0.2717397
0.288911
0.3057963
0.3222127
0.3381597
0.3537549
0.3707422
0.3879475
0.4056706
0.4238695
0.4419903
0.4595189
0.4763616
0.492151
0.5070923
0.5214203
0.5351807
0.5483371
0.5607895
0.5723819
0.5828979
0.592174
0.6000435
0.6064114
0.6110822
0.61392
0.6140248
0.6119949
0.6078738
0.6018538
0.5939082
0.5838984
0.5727132
0.5606079
0.5478903
0.5349033
0.5219418
0.5092323
0.4969401
0.485178
0.4740209
0.4635289
0.453748
0.4447227
0.4364851
0.4290421
0.4223551
0.4163197
0.4107954
0.4056159
0.4006705
0.3959797
0.3915336
0.387343
0.3832154
0.3793535
0.3757658
0.3724024
0.3691258
0.3657893
0.3623002
0.3586469
0.354896
0.351164
0.3475755
0.3442215
0.3411374
0.3382931
0.3355976
0.3329496
0.3302653
0.3274831
0.3245796
0.32158
0.3185566
0.3156088
0.3128342
0.3102964
0.3080035
0.3058985
0.3038746
0.3018138
0.2996227
0.2972696
0.2948022
0.2923363
0.2900151
0.2879609
0.2862225
0.2847242
0.2832976
0.2817787
0.2800731
0.278182
0.2762026
0.2743036
0.272658
0.2713541
0.2703352
0.2694353
0.2684747
0.2673296
0.2659667
0.2644527
0.2629346
0.261588
0.2605441
0.2598209
0.2593161
0.2588523
0.2582572
0.2574374
0.2564079
0.2552771
0.2542043
0.2533461
0.2528008
0.2525537
0.2524592
0.2523019
0.2519092
0.2512276
0.250327
0.2493582
0.2485042
0.2479303
0.2477034
0.2477232
0.2477557
0.247536
0.2469178
0.2459197
0.2446795
0.2434206
0.242373
0.2416699
0.2412699
0.2409711
0.2405451
0.2398532
0.2388852
0.2377429
0.2365327
0.2353726
0.2343791
0.2336109
0.2330244
0.2325083
0.231957
0.2312772
0.2304082
0.2293522
0.2281838
0.2270394
0.2260351
0.2251899
0.2244445
0.2237148
0.2229235
0.2220156
0.2209772
0.2198543
0.2187438
0.2177395
0.2168801
0.2161373
0.2154485
0.2147466
0.2139714
0.2130956
0.2121457
0.2111893
0.2102902
0.2094757
0.2087329
0.2080232
0.2072985
0.2065082
0.2056124
0.2046069
0.2035262
0.2024147
0.2012964
0.2001733
0.1990424
0.197901
0.1967364
0.195528
0.1942709
0.1929974
0.1917506
0.1905678
0.1894428
0.1883484
0.1872698
0.1862228
0.1852367
0.1843175
0.1834472
0.1826189
0.181855
0.1812313
0.1807822
0.1804208
0.18003
0.1795579
0.1788565
0.1778053
0.1763548
0.1745319
0.1724123
0.1700986
0.167705
0.1653338
0.1630451
0.1608458
0.1587094
0.1566029
0.1545011
0.1523906
0.1502695
0.1481453
0.1460336
0.1439569
0.1419435
0.1400272
0.1382452
0.1366366
0.1352385
0.1340837
0.1331984
0.1326
0.1323001
0.1322845
0.1324928
0.1328616
0.1333288
0.1338397
0.1343493
0.1348205
0.1352243
0.1355427
0.1357626
0.1358676
0.1358324
0.1356251
0.1352123
0.1345818
0.1337424
0.1326908
0.1314403
0.1300154
0.1284471
0.1267671
0.1250048
0.1231852
0.1213273
0.1194461
0.1175541
0.1156623
0.1137801
0.1119159
0.1100764
0.1082673
0.1064933
0.104759
0.1030704
0.1014346
0.09986089
0.09835996
0.09694385
0.09562542
0.09441821
0.09333603
0.09239203
0.09159778
0.09096238
0.09049201
0.09019028
0.09005905
0.09009838
0.09030608
0.0906758
0.09122908
0.09197007
0.09287581
0.09391863
0.09507463
0.09633309
0.09770152
0.09920351
0.1008711
0.1027348
0.1048129
0.1071002
0.1095587
0.1121151
0.1146646
0.1170815
0.1192355
0.1210082
0.1223085
0.1230803
0.1233022
0.122978
0.1221244
0.1207645
0.1189299
0.1166632
0.1140156
0.1110951
0.1080432
0.1049305
0.1018291
0.09880831
0.09593114
0.09325085
0.09080838
0.08863052
0.08673035
0.08510449
0.08373693
0.08260243
0.08167311
0.08092212
0.08032586
0.07986483
0.07952536
0.07930012
0.07918645
0.07918423
0.07929323
0.07950926
0.07982122
0.08021114
0.08065588
0.08113439
0.08162237
0.08208973
0.08250096
0.08281465
0.08299687
0.08302226
0.08287402
0.08254589
0.08204314
0.08138209
0.08058879
0.07969741
0.07874745
0.07778021
0.07683557
0.07594925
0.07514925
0.07445284
0.07386631
0.07338712
0.07300512
0.07270202
0.07245238
0.07222715
0.0719975
0.07173794
0.07142936
0.07106094
0.07062975
0.07013836
0.06959244
0.06900015
0.06837239
0.0677223
0.06706391
0.06641153
0.0657791
0.06517862
0.06461998
0.06411401
0.06367747
0.06333535
0.063118
0.06305731
0.06318464
0.06352806
0.06410633
0.06492863
0.06599891
0.06730676
0.06881368
0.07044453
0.07216168
0.07392525
0.07569082
0.07741609
0.07905892
0.08058773
0.08199092
0.08327533
0.08445936
0.08556421
0.08660709
0.08759694
0.08853326
0.08940638
0.09019873
0.09088589
0.09143685
0.09183016
0.09206286
0.09213894
0.09206954
0.09187144
0.091565
0.09117299
0.09071892
0.09022586
0.08971548
0.08920611
0.08870962
0.08822792
0.0877508
0.08725461
0.08670228
0.08605299
0.08528169
0.08437829
0.08336128
0.08228378
0.08118293
0.08007683
0.0789724
0.0778717
0.0767762
0.07568787
0.07460866
0.0735399
0.07248203
0.07143449
0.07039594
0.06936449
0.06833821
0.06731567
0.06629626
0.06527991
0.06426669
0.06325633
0.06224819
0.0612417
0.06023683
0.05923438
0.05823611
0.0572445
0.05626257
0.05529343
0.05434037
0.05340698
0.05249584
0.05160872
0.05074757
0.04991416
0.04910974
0.0483362
0.04759815
0.04695064
0.002357263
0.009121679
0.01358175
0.01875953
0.02453546
0.03114947
0.03870879
0.04702437
0.0563571
0.06763093
0.08470068
0.09495717
0.1061046
0.1178632
0.1302813
0.1432953
0.1568411
0.1707977
0.1849806
0.1992513
0.2135895
0.2298401
0.2463707
0.2629722
0.2795135
0.2959237
0.3120913
0.328011
0.3436507
0.358893
0.3739471
0.3890409
0.4046138
0.4203903
0.4363475
0.4523735
0.4680537
0.4829651
0.4968258
0.5098575
0.5222877
0.5342278
0.5456647
0.5565186
0.5666653
0.5759138
0.5838711
0.5903786
0.5951996
0.5977885
0.5973136
0.5943899
0.5888003
0.580694
0.5702668
0.5578526
0.5437876
0.5284672
0.5124138
0.4960776
0.4798564
0.4641023
0.4491065
0.4350774
0.4221334
0.4103109
0.3995943
0.3899511
0.3813584
0.3738317
0.3673953
0.3620624
0.3577737
0.3543607
0.3515487
0.349063
0.3466227
0.3439452
0.3412234
0.3386788
0.3364408
0.3346758
0.3333882
0.3324179
0.3315085
0.3304228
0.3290244
0.3272992
0.3253422
0.3233184
0.3214036
0.3197256
0.318331
0.3171764
0.3161431
0.3150879
0.3138984
0.3125126
0.310917
0.3091505
0.307302
0.3055018
0.3038859
0.3025348
0.301448
0.300544
0.2996713
0.2986746
0.2974575