/*--------------------------------*- C++ -*----------------------------------*\
| =========                 |                                                 |
| \\      /  F ield         | foam-extend: Open Source CFD                    |
|  \\    /   O peration     | Version:     3.1                                |
|   \\  /    A nd           | Web:         http://www.extend-project.de       |
|    \\/     M anipulation  |                                                 |
\*---------------------------------------------------------------------------*/
FoamFile
{
    version     2.0;
    format      ascii;
    class       volScalarField;
    location    "17.5";
    object      nut;
}
// * * * * * * * * * * * * * * * * * * * * * * * * * * * * * * * * * * * * * //

dimensions      [0 2 -1 0 0 0 0];

internalField   nonuniform List<scalar> 
119952
(
5.470972e-05
3.727332e-05
3.873874e-05
4.317345e-05
4.619108e-05
4.404891e-05
4.266347e-05
4.164127e-05
4.084001e-05
4.013842e-05
3.948484e-05
3.885172e-05
3.822022e-05
3.757859e-05
3.692025e-05
3.624717e-05
3.555486e-05
3.484328e-05
3.408253e-05
3.324101e-05
4.156146e-05
3.960579e-05
3.874974e-05
4.957646e-05
4.81756e-05
4.724979e-05
4.67026e-05
4.659193e-05
4.668165e-05
3.161091e-05
3.261847e-05
3.586361e-05
4.067657e-05
4.543349e-05
5.034107e-05
5.54513e-05
6.082531e-05
6.635233e-05
7.199255e-05
8.183954e-05
0.0003739652
0.0004297566
0.0004923585
0.0005585374
0.0006259581
0.0006933818
0.0007603479
0.000826752
0.0008920853
0.00125464
0.001319371
0.001383378
0.001446133
0.001508124
0.001570278
0.001632997
0.001696456
0.001760789
0.001824156
0.00189104
0.001954871
0.002016393
0.002076659
0.002136236
0.002195648
0.002255748
0.002316648
0.002382133
0.002194769
0.002455435
0.00246741
0.002487555
0.002502144
0.002505838
0.002501391
0.002490414
0.002477058
0.002463468
0.002449746
0.00243544
0.002420114
0.002403772
0.002386868
0.002370152
0.002354464
0.002340767
0.002330427
0.00232638
0.002328809
0.002332546
0.002336403
0.002351388
0.002370617
0.002373738
0.002360946
0.002324707
0.002224069
0.002039093
0.001977051
0.001933668
0.001905019
0.001884174
0.001866762
0.001851898
0.001838957
0.001827302
0.001816456
0.00180598
0.001795469
0.001784651
0.001773406
0.001761735
0.001749712
0.001737424
0.0017249
0.001712077
0.001698831
0.001685039
0.001670641
0.001655669
0.00164024
0.001624528
0.001608706
0.001592903
0.001577186
0.001561579
0.001546102
0.0015308
0.00151575
0.001501051
0.001486804
0.001473098
0.001460002
0.001447542
0.001435692
0.001424405
0.001413647
0.001403404
0.001393648
0.001384284
0.001375105
0.001365812
0.001356067
0.001345544
0.001333892
0.001320899
0.001307437
0.001293564
0.001274447
0.001251329
0.001227917
0.001203334
0.001178462
0.001154321
0.001131356
0.001110127
0.001090945
0.00107408
0.001059742
0.001048144
0.001039465
0.001033825
0.001031262
0.001031701
0.001034952
0.001040718
0.001048617
0.001058231
0.001069317
0.001081324
0.001093594
0.001105749
0.001117467
0.001128476
0.001138994
0.00114909
0.001157709
0.001163933
0.001167039
0.001166514
0.001162041
0.001153518
0.001141215
0.001126022
0.001108443
0.001088222
0.001065424
0.001040311
0.001013413
0.0009852063
0.0009562935
0.0009273852
0.0008990988
0.0008718154
0.0008460622
0.000822177
0.0008021216
0.0006777428
0.000630054
0.0006074358
0.0005729775
0.000549393
0.0005227297
0.0004979122
0.0004758232
0.0004616764
0.00045762
0.0004617562
0.0004703731
0.0004802528
0.0004889404
0.0004949723
0.0004987244
0.0004983022
0.000498996
0.0005003346
0.0005007706
0.0005006236
0.0004997778
0.0004979496
0.0004949276
0.0004906753
0.0004852989
0.0004789404
0.0004716338
0.0004634649
0.0004545833
0.0004451364
0.0004352619
0.0004251248
0.0004149955
0.0004054811
0.0004015486
0.0004069009
0.0004092709
0.0004094947
0.0004100469
0.0004119153
0.0004154947
0.0004209921
0.0004277041
0.0004344558
0.0004401697
0.0004443225
0.0004469193
0.0004484279
0.0004493436
0.0004507584
0.0004531834
0.0004567774
0.0004617079
0.0004682277
0.0004762675
0.0004857331
0.0004963713
0.0005077803
0.0005199416
0.0005324508
0.0005449169
0.0005569007
0.0005656997
0.0005718629
0.0005778918
0.0005838297
0.0005896968
0.0005954139
0.0006008261
0.0007616545
0.0007748322
0.0007868692
0.0007971679
0.0008057365
0.0008126816
0.0008194031
0.0008268137
0.0008348321
0.0008426404
0.0008490664
0.0008531787
0.0008546838
0.0008538994
0.0008517086
0.0008492799
0.0008478847
0.0008487472
0.0008520154
0.0008573286
0.0008645125
0.00087345
0.0008840209
0.0008960699
0.0009094208
0.0009237555
0.0009385907
0.0009530022
0.0009652204
0.000973183
0.0009747687
0.0009666212
0.0009456701
0.0009308973
0.000932985
0.0009373292
0.0009377647
0.0009345507
0.000929696
0.0009254177
0.0009233669
0.0009244181
0.000928764
0.0009362801
0.0009469283
0.0009605657
0.0009768246
0.00099542
0.001014454
0.001031508
0.001045102
0.001055802
0.001064683
0.001073136
0.001082417
0.001090149
0.001100672
0.001113846
0.001128853
0.00114554
0.001164072
0.001183936
0.001204104
0.001223889
0.001242984
0.001261615
0.001280406
0.001300175
0.001321826
0.001346253
0.001374192
0.001406083
0.001442047
0.001481924
0.001525339
0.001571979
0.00162172
0.001674591
0.001730712
0.00179017
0.00185257
0.001917129
0.001983066
0.002049638
0.002116119
0.002181724
0.002245617
0.002306917
0.002364684
0.002417861
0.002465279
0.002505697
0.002537885
0.002560795
0.002573806
0.002577103
0.002572023
0.002561012
0.002546723
0.002530571
0.002512235
0.002490571
0.002464714
0.002434512
0.002400386
0.002363038
0.002323193
0.002281465
0.002238299
0.002193969
0.002148607
0.002102233
0.002054801
0.002006242
0.001956514
0.001905668
0.001853902
0.00180155
0.001748951
0.001696368
0.001644113
0.001592611
0.001542377
0.001494004
0.001448154
0.001405565
0.001366981
0.001332274
0.001301217
0.001273648
0.001249106
0.001227118
0.00120732
0.001189828
0.001174741
0.001162322
0.001153149
0.001149601
0.0009175548
5.020011e-05
5.369239e-05
6.185997e-05
7.188094e-05
8.224486e-05
9.236545e-05
0.0001020802
0.0001113843
0.0001216164
0.0004418426
0.0005839575
0.0007348353
0.0008819444
0.001018363
0.001142072
0.00125354
0.001354466
0.001446878
0.002071771
0.002167432
0.002266272
0.002363341
0.002458284
0.002550962
0.002641288
0.002729164
0.002814235
0.002895089
0.002972835
0.003046399
0.003115838
0.003183507
0.003250777
0.00331825
0.003386027
0.003454089
0.003521932
0.00357351
0.003608978
0.003646699
0.003687053
0.003730121
0.003775562
0.003823266
0.003873193
0.003925089
0.00397823
0.004032874
0.004086353
0.004138574
0.004189559
0.00423946
0.004289013
0.004339043
0.004390084
0.004441424
0.00522041
0.005267426
0.005311722
0.005354177
0.00539482
0.00543404
0.005472554
0.005510992
0.00554998
0.005589199
0.005628053
0.0056665
0.005703756
0.005739134
0.005772726
0.005804949
0.005836765
0.005869703
0.005906022
0.005938973
0.005960203
0.005978597
0.005996419
0.006007206
0.006008739
0.006003544
0.005995119
0.005985141
0.005973173
0.00595948
0.005943442
0.005924918
0.005903943
0.005881184
0.005857647
0.005834715
0.005813672
0.005795775
0.005781212
0.0057693
0.005758024
0.005748663
0.005743616
0.005739107
0.005722307
0.005692534
0.005645938
0.005576237
0.005501159
0.005447452
0.005399792
0.005355216
0.005313225
0.005272383
0.005232687
0.00519423
0.005157
0.005120905
0.005085613
0.005050642
0.005015573
0.004980172
0.004944419
0.004908477
0.004872566
0.004836806
0.004801115
0.00476522
0.004728764
0.004691438
0.004653092
0.004613786
0.004573769
0.00453339
0.004492987
0.004452801
0.004412977
0.004373614
0.004334836
0.004296812
0.004259752
0.004223893
0.004189479
0.004156707
0.004125652
0.004096223
0.004068269
0.004041664
0.004016366
0.003992334
0.003969386
0.003947008
0.003924541
0.003901216
0.003876249
0.003848715
0.003817771
0.003782529
0.003742122
0.003692931
0.003635776
0.003571934
0.003501944
0.003427699
0.003351281
0.003274555
0.003199319
0.003127025
0.003058944
0.002996188
0.00293976
0.002890555
0.002849346
0.002816721
0.002793062
0.00277856
0.002773152
0.002776575
0.002788428
0.002808119
0.002834891
0.002867902
0.002906204
0.002948693
0.002993919
0.003040702
0.003089392
0.003138745
0.00318747
0.00323432
0.003278147
0.00331787
0.003352504
0.003381021
0.003402377
0.003415236
0.003417674
0.003407934
0.003387314
0.003357418
0.003318562
0.003270667
0.003214555
0.003150812
0.003081273
0.003007097
0.00293067
0.002856288
0.002735136
0.002554402
0.00240462
0.002278078
0.002167493
0.002069068
0.001980818
0.001903244
0.00183792
0.00178554
0.001745193
0.001715167
0.001693802
0.001679867
0.001672866
0.001672946
0.001680367
0.001695177
0.001716911
0.001744784
0.001777991
0.001815658
0.001856781
0.001900202
0.001944405
0.001988479
0.002032708
0.002076517
0.002119318
0.002160545
0.002199612
0.002235912
0.002268824
0.002297775
0.002322374
0.002342874
0.002360455
0.00237485
0.002385451
0.00239256
0.002396909
0.002399206
0.002399608
0.002397461
0.002391345
0.002379392
0.002359723
0.002330846
0.002291967
0.002243198
0.002185682
0.002121588
0.002054003
0.001986509
0.001923825
0.001870234
0.001828413
0.001799738
0.001784505
0.001782203
0.001791766
0.001811754
0.001840457
0.001875978
0.001916445
0.001960183
0.00200568
0.002051505
0.002096804
0.002141352
0.002437584
0.002483778
0.002528442
0.002569322
0.002606254
0.002639943
0.002670242
0.002696753
0.002718918
0.002735784
0.002745962
0.002747899
0.002739982
0.002720787
0.002689526
0.002646175
0.002591796
0.002530168
0.00246534
0.002401595
0.002342988
0.002292906
0.002253678
0.002226455
0.002211449
0.002208094
0.002214863
0.002219308
0.002240451
0.002270051
0.002297395
0.002315918
0.002329573
0.002340703
0.002349195
0.002352555
0.00234875
0.002337157
0.002318626
0.002294974
0.002268311
0.002240415
0.002212505
0.002185555
0.002160893
0.002140166
0.002124808
0.002100523
0.002076383
0.002057577
0.002048373
0.002047546
0.002061952
0.002078529
0.002104708
0.002177825
0.002270352
0.002341462
0.002401339
0.002465503
0.002532626
0.002601012
0.002668967
0.002736196
0.002803385
0.00287107
0.002939459
0.003009089
0.003080785
0.003155635
0.003234875
0.003319499
0.00340957
0.003505104
0.003606517
0.003713743
0.0038262
0.003942912
0.004062532
0.004183541
0.004306354
0.004430499
0.004554282
0.004676273
0.004795277
0.004910277
0.005020362
0.005124678
0.005222391
0.005312643
0.005394521
0.00546704
0.005529206
0.005580134
0.005619105
0.005645785
0.005660655
0.005665391
0.005662376
0.00565314
0.00563783
0.005615908
0.00558694
0.005550918
0.005508273
0.005459696
0.005405937
0.005347673
0.00528544
0.005219611
0.0051504
0.005077892
0.005002078
0.004922907
0.004840338
0.004754386
0.004665153
0.00457283
0.004477682
0.004380052
0.004280373
0.004179185
0.004077123
0.003974885
0.003873197
0.003772756
0.003674422
0.00358025
0.003491335
0.003408059
0.00333081
0.00325951
0.003194183
0.003133698
0.003078369
0.003027751
0.002982626
0.00294481
0.002912513
3.229175e-05
3.95166e-05
5.040658e-05
6.334163e-05
7.880553e-05
9.743141e-05
0.0001203855
0.0001492585
0.0001869588
0.0002537809
0.001037656
0.001210511
0.001398464
0.001592764
0.001779754
0.001918995
0.002055332
0.002206225
0.002504363
0.004585111
0.004817528
0.004958092
0.005083386
0.005191791
0.005288464
0.005374679
0.005450736
0.005520836
0.005604798
0.005772395
0.005955653
0.006102703
0.006209281
0.006285219
0.006340142
0.006380778
0.006411627
0.006441215
0.00634365
0.00632189
0.006337672
0.006371976
0.006414029
0.00645717
0.006497798
0.006534077
0.006565324
0.006591334
0.006611524
0.006628546
0.006644466
0.006660348
0.006676897
0.006694181
0.0067116
0.006726961
0.007501039
0.007515763
0.007523845
0.007528403
0.007531341
0.007533655
0.007536159
0.007539292
0.007543495
0.007548596
0.007553675
0.007558744
0.007563925
0.007568894
0.007573844
0.007579403
0.007586207
0.007594852
0.007605723
0.007617899
0.007630434
0.007643309
0.007655828
0.007667519
0.007678682
0.007690132
0.007702865
0.007717548
0.007734007
0.007751991
0.007770675
0.007788644
0.007805283
0.007820813
0.007836145
0.007852468
0.007870974
0.007893303
0.007901886
0.007913795
0.007927532
0.00794163
0.007955245
0.007968436
0.007982011
0.007997082
0.008014494
0.008034371
0.008056276
0.008079273
0.008101791
0.00812253
0.008141114
0.008158095
0.008174888
0.008192939
0.008213044
0.008233633
0.008251396
0.008265624
0.008276489
0.008281947
0.008280817
0.008273913
0.008263773
0.008253024
0.008243158
0.008234038
0.008224176
0.008211016
0.008193732
0.008173507
0.008151767
0.00813029
0.008110357
0.008093009
0.008079361
0.008067094
0.00805626
0.008046541
0.008038808
0.008029077
0.008010221
0.00798055
0.007941277
0.007889645
0.007833774
0.007786
0.007744898
0.007705344
0.007666382
0.007627587
0.007588895
0.007550819
0.007513797
0.007477856
0.007442552
0.007407149
0.007370933
0.00733342
0.007294471
0.007254318
0.007213429
0.007172201
0.007130713
0.007088665
0.007045506
0.007000673
0.006953795
0.00690483
0.006854081
0.006802096
0.006749473
0.006696684
0.006644024
0.006591677
0.006539838
0.006488753
0.006438734
0.006390159
0.006343482
0.006299117
0.006257257
0.006217788
0.006180444
0.006145008
0.006111464
0.006079874
0.006050029
0.006021246
0.005992605
0.005963113
0.005931448
0.005896254
0.005856288
0.005809727
0.005754338
0.005687439
0.005607435
0.00551539
0.005412876
0.005302163
0.005186247
0.005068015
0.004950052
0.004834548
0.004723353
0.004618099
0.00452028
0.004431317
0.004352539
0.004285099
0.004229944
0.004187787
0.004159013
0.004143716
0.004141778
0.004152813
0.004176171
0.004211011
0.004256276
0.004310595
0.004372057
0.004437518
0.004506667
0.004578343
0.004650664
0.004721843
0.00479018
0.004854189
0.004912526
0.004964088
0.005007809
0.005042744
0.005067707
0.005081262
0.005081133
0.005064848
0.005034679
0.004990582
0.004933216
0.004862857
0.00478158
0.00468989
0.00459103
0.004485709
0.004376911
0.004268356
0.004159986
0.004052088
0.003944615
0.003837834
0.003732663
0.003630619
0.003533368
0.003442262
0.003358246
0.003282023
0.003214242
0.003155611
0.00310691
0.003068835
0.003041835
0.003026022
0.003021208
0.003026994
0.003042798
0.003067862
0.003101261
0.003141887
0.003188413
0.003239197
0.003294248
0.003354874
0.003420538
0.003490578
0.003564179
0.003640378
0.003718084
0.003796271
0.003874143
0.003951363
0.004027915
0.004103439
0.004177463
0.004249764
0.00431997
0.004387291
0.004450371
0.004507147
0.004554882
0.004590369
0.00461022
0.004611223
0.004590663
0.004546609
0.004478066
0.004385037
0.004268539
0.004130496
0.003978891
0.003824622
0.003674626
0.003535373
0.003412217
0.003308971
0.003227652
0.00316865
0.003130869
0.003112371
0.003110487
0.00312278
0.003146383
0.003179619
0.00321962
0.00326595
0.003314358
0.003367507
0.003423076
0.003480159
0.003537897
0.003594943
0.003651638
0.003708605
0.003764976
0.003818923
0.003868182
0.003910179
0.003942218
0.003961228
0.00396377
0.003946602
0.003906837
0.003844633
0.003762953
0.003666375
0.003560904
0.003453236
0.003349712
0.003255796
0.003175741
0.003112157
0.003065829
0.003036184
0.003021741
0.003020008
0.003027413
0.00304042
0.003056935
0.003075829
0.003095281
0.003112638
0.003125292
0.003131287
0.003129587
0.003120066
0.003103241
0.003079814
0.003050325
0.003015311
0.002975871
0.002933894
0.002891741
0.002851557
0.002814616
0.002781382
0.00275183
0.002684595
0.002606416
0.00254505
0.002509185
0.002499558
0.002506499
0.002533457
0.002589915
0.002679242
0.002799298
0.002946288
0.003113439
0.003234545
0.00333369
0.003436387
0.003542879
0.003653011
0.003766504
0.003883423
0.004003829
0.00412777
0.004255895
0.004388617
0.004525975
0.004667602
0.004812742
0.004960202
0.005108389
0.005255341
0.005398653
0.005537657
0.005671683
0.005800043
0.005922358
0.006038479
0.006148395
0.006252154
0.006349808
0.006441338
0.00652658
0.00660515
0.006676473
0.006740357
0.006796569
0.006844689
0.006884388
0.006915882
0.006940086
0.006957689
0.006968335
0.006971103
0.006966088
0.006953442
0.006933533
0.006906927
0.006874194
0.006835845
0.006792291
0.006743821
0.006690593
0.006632654
0.006569957
0.006502433
0.006429982
0.006352547
0.006270149
0.006182894
0.006090988
0.0059947
0.005894388
0.005790519
0.005683657
0.005574464
0.005463671
0.005352037
0.005240344
0.005129462
0.005021474
0.004917939
0.004819827
0.004727573
0.004641649
0.004561778
0.004487589
0.004419004
0.004355971
0.004298245
0.004248019
4.051872e-05
6.574911e-05
0.0001467745
0.0004976011
0.0008588037
0.001546608
0.00207772
0.002724194
0.00346783
0.004079247
0.004528067
0.004887679
0.005242326
0.005599195
0.005965641
0.006334392
0.006704968
0.007059914
0.007389922
0.007710294
0.008016528
0.008294221
0.008519396
0.008704394
0.008869091
0.00901263
0.009132189
0.009226933
0.009295611
0.009352276
0.009428618
0.009451343
0.009149551
0.008898075
0.008680252
0.008499444
0.008356491
0.00825273
0.008189932
0.008161161
0.00814781
0.008169538
0.008221435
0.008295635
0.008386187
0.008490327
0.008607517
0.008735601
0.008874469
0.009036758
0.009216913
0.009385727
0.009589181
0.009819468
0.009864069
0.00987778
0.009888783
0.009896917
0.009901891
0.009903363
0.009901397
0.009896601
0.009889825
0.009881914
0.009873846
0.009865799
0.009858424
0.009852008
0.009823547
0.009798364
0.00977544
0.009754033
0.009734023
0.009715669
0.009699414
0.00968567
0.009674612
0.009665926
0.009658902
0.00965291
0.009647208
0.009641189
0.009634826
0.009628732
0.00962388
0.009621264
0.009621531
0.009624644
0.009629953
0.00963629
0.009642288
0.009647136
0.009651003
0.009654943
0.009660466
0.009668818
0.009680576
0.009695414
0.009711727
0.009727429
0.009741195
0.009752829
0.009763405
0.009774567
0.009788288
0.009805596
0.009826135
0.009849241
0.00987287
0.009894783
0.009913774
0.009930051
0.009945034
0.009960759
0.009979099
0.01
0.01
0.01
0.01
0.01
0.01
0.01
0.01
0.01
0.01
0.01
0.01
0.01
0.01
0.01
0.01
0.01
0.01
0.01
0.01
0.01
0.01
0.01
0.01
0.01
0.01
0.01
0.01
0.01
0.01
0.01
0.01
0.01
0.01
0.01
0.01
0.01
0.01
0.009964268
0.009925548
0.009888503
0.009854455
0.009821132
0.009786996
0.009751551
0.009714944
0.009678228
0.009642523
0.009608281
0.009575049
0.009541759
0.009507282
0.009470779
0.009431834
0.009390608
0.00934781
0.009304258
0.009260379
0.009215982
0.00917039
0.009122762
0.009072439
0.009019169
0.0089632
0.008905218
0.008846094
0.008786563
0.008727054
0.008667769
0.008608868
0.008550563
0.008493126
0.008436911
0.008382435
0.008330125
0.008280376
0.008233183
0.008188168
0.008144975
0.008103594
0.008064318
0.008027141
0.007991415
0.007956139
0.007920368
0.007882746
0.007842214
0.0077978
0.007747288
0.007687421
0.007614961
0.007527455
0.007424325
0.007306778
0.007177351
0.007039369
0.006896295
0.00675129
0.006607018
0.00646567
0.006329126
0.006199142
0.006077478
0.005965918
0.005866187
0.005779858
0.005708254
0.005652361
0.005612799
0.005589841
0.005583392
0.005593022
0.005618007
0.005657308
0.005709525
0.005772763
0.00584424
0.005921143
0.006002632
0.006086195
0.006169424
0.00625012
0.006326382
0.006396617
0.006459555
0.00651417
0.006559667
0.006595289
0.006620103
0.006632693
0.006630826
0.00661236
0.00657836
0.006528767
0.00646378
0.006384577
0.006292322
0.006189031
0.006076227
0.005956432
0.005830367
0.005699282
0.005564622
0.005427494
0.005289032
0.005150669
0.005014053
0.004880878
0.004752726
0.004631054
0.004517261
0.004412748
0.004318916
0.004237079
0.004168322
0.004113366
0.004072537
0.004045807
0.004032878
0.004033225
0.004046162
0.004070885
0.004106486
0.004151911
0.00420588
0.004266417
0.00433304
0.004407584
0.004489523
0.004578043
0.004672063
0.004770276
0.004871385
0.004974364
0.005078627
0.005183993
0.005290434
0.005397906
0.005506273
0.00561506
0.005723173
0.005828718
0.005928892
0.006020103
0.00609827
0.006159191
0.006198939
0.006214181
0.006202326
0.006161514
0.00609046
0.00598826
0.005854196
0.005687397
0.005496648
0.005292013
0.005081872
0.00487492
0.004679297
0.004501777
0.004347274
0.004218579
0.004116624
0.004040659
0.003989074
0.00395923
0.003949035
0.003955025
0.003975969
0.004009552
0.004053087
0.004105526
0.004166283
0.004234311
0.00430814
0.004386239
0.004466819
0.004549319
0.004633736
0.004718121
0.004799678
0.004875172
0.004940793
0.004992293
0.00502523
0.005035039
0.005017645
0.004971703
0.004898066
0.004799846
0.004682253
0.004551999
0.004416583
0.004283534
0.004159516
0.0040496
0.003957103
0.003883663
0.003829195
0.003791991
0.003769463
0.003759136
0.003758763
0.003765731
0.003777008
0.003789616
0.003800966
0.003809026
0.00381238
0.003810144
0.00380169
0.003786372
0.00376351
0.003732721
0.003694229
0.003648864
0.003597788
0.003542264
0.003483597
0.003423333
0.003363628
0.003307279
0.003257581
0.003217244
0.003130824
0.003027163
0.00294834
0.002898241
0.002880308
0.00289544
0.002943866
0.003025795
0.00314054
0.003286386
0.003461363
0.003662332
0.003877857
0.004045618
0.004184369
0.004329754
0.004481425
0.00463871
0.004800667
0.004966125
0.005133744
0.005302103
0.00546958
0.00563432
0.005794273
0.005947211
0.006091131
0.006225674
0.006350963
0.00646754
0.006576239
0.00667803
0.006773909
0.006864941
0.006952035
0.007035792
0.007116372
0.007129245
0.007063551
0.006990585
0.006914595
0.006859338
0.006885012
0.007050606
0.007332461
0.007650225
0.007715556
0.007742086
0.007760951
0.007772567
0.007777363
0.007775723
0.007767953
0.007754284
0.007734851
0.0077097
0.007678783
0.00764198
0.007599131
0.007550071
0.007494674
0.007432891
0.007364767
0.007290436
0.007210112
0.007124093
0.007032775
0.006936668
0.006836397
0.006732697
0.006626384
0.006518339
0.006409492
0.006300958
0.006194792
0.006092377
0.005994444
0.005901631
0.005814447
0.005732603
0.005656055
0.005585042
0.005518866
0.005462383
2.277239e-05
3.689611e-05
5.574812e-05
0.0002428786
0.0003981242
0.0006765432
0.0009517428
0.001204568
0.001523082
0.001834669
0.00217289
0.002612629
0.003134401
0.003727543
0.004397413
0.005255121
0.006876357
0.007533278
0.008164478
0.008731638
0.009227493
0.009649409
0.01
0.01
0.01
0.01
0.01
0.01
0.01
0.01
0.01
0.01
0.01
0.01
0.01
0.01
0.01
0.01
0.01
0.009608113
0.009043094
0.008529879
0.008350163
0.008089679
0.007828439
0.007607859
0.007427925
0.007287719
0.007186051
0.007122692
0.007093698
0.007094787
0.007126916
0.007190776
0.007282291
0.007394901
0.007525003
0.00766881
0.007822868
0.00799233
0.008178432
0.008394751
0.008653562
0.008953983
0.009295274
0.00965716
0.01
0.01
0.01
0.01
0.01
0.01
0.01
0.01
0.01
0.01
0.01
0.01
0.01
0.01
0.01
0.01
0.01
0.01
0.01
0.01
0.01
0.01
0.01
0.01
0.01
0.01
0.01
0.01
0.01
0.01
0.01
0.01
0.01
0.01
0.01
0.01
0.01
0.01
0.01
0.01
0.01
0.01
0.01
0.01
0.01
0.01
0.01
0.01
0.01
0.01
0.01
0.01
0.01
0.01
0.01
0.01
0.01
0.01
0.01
0.01
0.01
0.01
0.01
0.01
0.01
0.01
0.01
0.01
0.01
0.01
0.01
0.01
0.01
0.01
0.01
0.01
0.01
0.01
0.01
0.01
0.01
0.01
0.01
0.01
0.01
0.01
0.01
0.01
0.01
0.01
0.01
0.01
0.01
0.01
0.01
0.01
0.01
0.01
0.01
0.01
0.01
0.01
0.01
0.01
0.01
0.01
0.01
0.01
0.01
0.01
0.01
0.01
0.01
0.01
0.01
0.01
0.01
0.01
0.01
0.01
0.01
0.01
0.01
0.01
0.01
0.01
0.01
0.01
0.01
0.01
0.01
0.01
0.01
0.01
0.00995177
0.009889986
0.009830741
0.009773488
0.009717566
0.009662774
0.009609464
0.009557908
0.009507643
0.009457731
0.009407519
0.00935658
0.009304906
0.00925245
0.009197937
0.009138549
0.009070634
0.008990815
0.008897065
0.008789307
0.008669198
0.008539454
0.008403165
0.008263243
0.008122088
0.00798154
0.007843096
0.007708203
0.007578497
0.007455887
0.007342463
0.007240345
0.007151517
0.007077674
0.007020114
0.006979701
0.006956853
0.00695155
0.006963363
0.006991447
0.007034512
0.007090752
0.007157638
0.007231751
0.007311121
0.007392914
0.007474416
0.007553216
0.007627324
0.007695212
0.007755756
0.007808184
0.007852052
0.007887056
0.007912745
0.007928252
0.00793203
0.007921622
0.007896233
0.007855795
0.007800236
0.007730222
0.007646818
0.007551515
0.007445831
0.007331339
0.007209267
0.007080521
0.006945943
0.006806336
0.006662565
0.006515694
0.006367037
0.006218132
0.006070714
0.005926719
0.005788276
0.005657663
0.005537196
0.005429064
0.005335134
0.005256791
0.005194871
0.005149683
0.005121086
0.005108587
0.00511145
0.005128811
0.005159748
0.005203309
0.005258501
0.005324032
0.00539782
0.005479807
0.005571428
0.005671556
0.005778597
0.005890687
0.006006071
0.00612349
0.006242401
0.006362917
0.006485525
0.006610725
0.006738693
0.006868946
0.007000027
0.007129344
0.007253295
0.007367564
0.007467639
0.007549275
0.007608883
0.007643743
0.007651983
0.007632325
0.007583733
0.007505122
0.007395202
0.007252324
0.007075194
0.006872393
0.006649894
0.006414664
0.006174641
0.005938093
0.005712888
0.005505697
0.005321692
0.005164182
0.005034808
0.004933517
0.004859468
0.004810678
0.004785378
0.004781274
0.004796063
0.004828017
0.004875471
0.004936683
0.005009917
0.005093488
0.005185641
0.005284227
0.005386575
0.005491336
0.005597027
0.00570055
0.005798054
0.005885286
0.005957698
0.00601053
0.006037907
0.00603648
0.006004376
0.005941516
0.005849846
0.005733302
0.005597563
0.005449599
0.005296921
0.005146755
0.005005429
0.004877943
0.004767579
0.00467577
0.004602474
0.004546747
0.004506965
0.004480799
0.00446543
0.004457915
0.00445547
0.004455639
0.004456388
0.00445609
0.004453361
0.004446843
0.004435132
0.004416889
0.004391005
0.004356677
0.004313354
0.004260777
0.004199034
0.004128718
0.004051278
0.003969344
0.003886782
0.003808188
0.00373819
0.003680671
0.003638501
0.003613105
0.003603745
0.003482065
0.003381575
0.003319506
0.003296678
0.003312822
0.003368291
0.003462125
0.003591986
0.003754106
0.003942719
0.004153
0.004378876
0.004612276
0.004844713
0.005068433
0.005261735
0.005438692
0.00561382
0.005784783
0.005949242
0.006104938
0.006249784
0.006383012
0.006505072
0.006616981
0.006720141
0.006816066
0.006862263
0.006861784
0.006840442
0.006805989
0.00676845
0.006737487
0.006719988
0.006717697
0.006729381
0.006762073
0.006852294
0.007054876
0.007392622
0.00781714
0.008090942
0.008148674
0.008199238
0.00824315
0.008280658
0.008311872
0.008336843
0.008355584
0.008368064
0.008374191
0.008373807
0.008366697
0.008352615
0.008331322
0.008302624
0.008266412
0.008222684
0.008171536
0.008113142
0.008047751
0.007975704
0.007897458
0.007813608
0.007724888
0.007632152
0.00753634
0.00743845
0.007339497
0.007240972
0.007144432
0.007050832
0.006960891
0.006875276
0.006794257
0.006717845
0.006646338
0.0065795
0.006523164
2.086691e-05
3.216404e-05
6.399093e-05
0.00019391
0.0003115312
0.0004950698
0.0006343129
0.0007920921
0.0009780379
0.001159484
0.001371988
0.001646979
0.001960896
0.002335318
0.002822999
0.003761003
0.004203786
0.004681223
0.005184528
0.005712372
0.006269806
0.006847188
0.007427905
0.007996302
0.008535177
0.009036663
0.00951644
0.01
0.01
0.01
0.01
0.01
0.01
0.01
0.01
0.01
0.01
0.01
0.01
0.01
0.01
0.01
0.01
0.01
0.01
0.01
0.009870021
0.009411992
0.008937089
0.008475258
0.008037684
0.007642486
0.007320344
0.00701872
0.006781551
0.00660048
0.006463744
0.006366772
0.006308055
0.006286154
0.006300432
0.006351716
0.006439741
0.006564981
0.00672571
0.006916873
0.007132989
0.00736548
0.007612167
0.007874046
0.008171804
0.008525436
0.008936029
0.009415447
0.00996717
0.01
0.01
0.01
0.01
0.01
0.01
0.01
0.01
0.01
0.01
0.01
0.01
0.01
0.01
0.01
0.01
0.01
0.01
0.01
0.01
0.01
0.01
0.01
0.01
0.01
0.01
0.01
0.01
0.01
0.01
0.01
0.01
0.01
0.01
0.01
0.01
0.01
0.01
0.01
0.01
0.01
0.01
0.01
0.01
0.01
0.01
0.01
0.01
0.01
0.01
0.01
0.01
0.01
0.01
0.01
0.01
0.01
0.01
0.01
0.01
0.01
0.01
0.01
0.01
0.01
0.01
0.01
0.01
0.01
0.01
0.01
0.01
0.01
0.01
0.01
0.01
0.01
0.01
0.01
0.01
0.01
0.01
0.01
0.01
0.01
0.01
0.01
0.01
0.01
0.01
0.01
0.01
0.01
0.01
0.01
0.01
0.01
0.01
0.01
0.01
0.01
0.01
0.01
0.01
0.01
0.01
0.01
0.01
0.01
0.01
0.01
0.01
0.01
0.01
0.01
0.01
0.01
0.01
0.01
0.01
0.01
0.01
0.01
0.01
0.01
0.01
0.01
0.01
0.01
0.01
0.01
0.01
0.01
0.01
0.01
0.01
0.01
0.01
0.01
0.01
0.01
0.01
0.01
0.009976535
0.009893737
0.009812285
0.009732892
0.009656243
0.009584712
0.009522769
0.009471372
0.009425575
0.009382479
0.009338507
0.009290846
0.009238213
0.009180483
0.009117892
0.009050265
0.008976873
0.008897448
0.008812888
0.008724645
0.008634331
0.008543919
0.008455714
0.008372218
0.008296016
0.008229568
0.008175023
0.00813409
0.008107976
0.00809737
0.008102423
0.008122727
0.008157306
0.008204567
0.008262167
0.008326708
0.00839513
0.008464609
0.008532635
0.008597133
0.008656574
0.00870999
0.008756804
0.008796788
0.008830031
0.008856707
0.008876746
0.008889604
0.008894122
0.008888418
0.008870418
0.008839847
0.008796426
0.008740466
0.008672723
0.008594256
0.008506204
0.008409661
0.008305536
0.008194455
0.008076864
0.007953116
0.007823561
0.007688657
0.007549093
0.007405891
0.007260487
0.007114787
0.006971171
0.00683241
0.006701503
0.006581442
0.006474951
0.006384246
0.006310897
0.006255778
0.006219124
0.006200635
0.006199621
0.006215195
0.006246373
0.006292169
0.006351587
0.006423491
0.006506342
0.0065976
0.006697636
0.006806117
0.006920564
0.007038402
0.007157571
0.007277026
0.007396877
0.007518098
0.007642006
0.007769708
0.007901589
0.008036875
0.00817339
0.008307702
0.008435489
0.008552087
0.008653079
0.008734777
0.008794521
0.008830728
0.008842687
0.008830116
0.008792669
0.008729677
0.008640156
0.008522817
0.008375808
0.008199961
0.008000995
0.00778239
0.007549025
0.007306942
0.007062988
0.006824265
0.006597604
0.006389001
0.006203287
0.006043672
0.005912011
0.005808868
0.005733951
0.005686255
0.005664257
0.005666198
0.005690199
0.00573431
0.005796507
0.005874686
0.005966589
0.006069663
0.006180986
0.006297291
0.006414963
0.006531332
0.00664356
0.006748116
0.00684066
0.00691578
0.006969057
0.006997033
0.006997064
0.006967629
0.006908582
0.006821314
0.006708807
0.006575546
0.006427203
0.006270148
0.006110918
0.005955664
0.005809585
0.005676558
0.005559094
0.005458479
0.005374863
0.005307363
0.005254318
0.005213624
0.005183005
0.005160205
0.005143138
0.005129941
0.005118913
0.005108399
0.005096714
0.005082154
0.005063022
0.005037652
0.005004393
0.004961709
0.004908296
0.004843245
0.004766384
0.004678731
0.004582801
0.004482441
0.004382298
0.004287278
0.004202043
0.004130454
0.004075174
0.004037707
0.004018508
0.004017135
0.004031713
0.003936914
0.003823827
0.003760532
0.00374424
0.003771847
0.003840429
0.003947769
0.004090268
0.004261899
0.004454598
0.004660468
0.004872601
0.005085437
0.005294712
0.005497113
0.005689255
0.005867786
0.006028186