/*--------------------------------*- C++ -*----------------------------------*\
| =========                 |                                                 |
| \\      /  F ield         | foam-extend: Open Source CFD                    |
|  \\    /   O peration     | Version:     3.1                                |
|   \\  /    A nd           | Web:         http://www.extend-project.de       |
|    \\/     M anipulation  |                                                 |
\*---------------------------------------------------------------------------*/
FoamFile
{
    version     2.0;
    format      ascii;
    class       volScalarField;
    location    "17.5";
    object      omega;
}
// * * * * * * * * * * * * * * * * * * * * * * * * * * * * * * * * * * * * * //

dimensions      [0 0 -1 0 0 0 0];

internalField   nonuniform List<scalar> 
119952
(
411.6535
526.9129
502.0704
438.4063
394.2069
398.2543
405.4019
414.1582
424.0045
434.6765
446.0427
458.0244
470.5794
483.694
497.3947
511.7291
526.7525
542.5887
559.5616
579.0195
484.5717
483.5267
489.1677
410.6071
403.0672
399.208
395.9661
392.9485
386.2294
222.8985
825.4623
694.4988
588.3791
511.0713
452.9712
408.019
371.9964
342.4618
317.6618
290.1581
245.1154
213.1796
190.8474
174.2406
161.1416
150.3049
141.0451
132.9692
125.8508
97.77414
93.91418
90.13769
86.45645
82.95954
79.69569
76.67786
73.89728
71.33126
68.97104
66.88705
64.92176
63.03898
61.24755
59.54215
57.91224
56.33497
54.78345
53.25764
52.83265
52.62666
52.03235
51.5652
51.27045
51.08604
50.9007
50.76158
50.66007
50.57835
50.51657
50.48058
50.474
50.49301
50.52786
50.56519
50.58868
50.57553
50.484
50.24261
49.94229
49.67438
49.26134
48.80915
48.67013
48.704
48.98048
49.90591
52.40397
56.20721
56.98145
57.49529
57.66203
57.7079
57.71936
57.70726
57.68894
57.67763
57.68128
57.70701
57.75974
57.84066
57.94801
58.07848
58.22861
58.39652
58.58307
58.7915
59.02563
59.28792
59.57826
59.89362
60.22884
60.57806
60.93633
61.30047
61.66879
62.03995
62.41184
62.78123
63.14424
63.49714
63.83676
64.16093
64.46895
64.76173
65.04101
65.30777
65.56189
65.8038
66.03696
66.2701
66.51676
66.79274
67.11459
67.49971
67.96498
68.5137
69.10549
69.81857
70.98003
72.30017
73.71927
75.24703
76.79934
78.32563
79.78489
81.12925
82.32661
83.33988
84.13577
84.68074
84.94559
84.90896
84.56191
83.91074
82.97759
81.80082
80.4283
78.91449
77.31355
75.68597
74.07365
72.52191
71.06806
69.73795
68.5327
67.44922
66.52688
65.79255
65.26131
64.94035
64.83242
64.93587
65.2418
65.71607
66.33749
67.13568
68.12061
69.30331
70.67439
72.23836
73.98415
75.88326
77.89778
79.99804
82.14345
84.28231
86.19862
90.44803
98.77573
105.3818
110.374
114.6492
118.2962
121.5597
124.1346
125.5134
125.4681
124.2702
122.3877
120.2417
118.1825
116.3683
114.6718
112.9155
111.0375
109.1829
107.575
106.1751
104.9858
104.0301
103.3327
102.9112
102.7737
102.926
103.3825
104.1499
105.23
106.6238
108.3311
110.3421
112.6156
114.9874
115.7628
115.2164
114.9917
114.9213
114.9757
115.0518
115.0271
114.8471
114.5635
114.2965
114.1682
114.2477
114.5338
114.966
115.437
115.8029
115.9502
115.7815
115.218
114.1997
112.7131
110.8152
108.593
106.1386
103.5331
100.869
98.2073
95.57319
92.9616
90.41979
87.98494
85.67133
83.48916
81.45653
79.60539
64.94778
63.49431
62.12224
60.83794
59.8216
59.10477
58.6422
58.37659
58.25516
58.24429
58.34675
58.58425
58.96714
59.48612
60.10492
60.75642
61.34805
61.77062
61.97446
61.93702
61.63442
61.05695
60.21718
59.14495
57.87949
56.48159
55.03058
53.61528
52.33443
51.29242
50.59894
50.41279
50.80424
51.02966
50.82805
50.63328
50.51825
50.46402
50.42548
50.34708
50.18659
49.92334
49.55371
49.0694
48.4415
47.62957
46.57585
45.28179
43.80961
42.24717
40.66329
39.09133
37.56929
36.16496
34.91814
33.61857
32.41787
31.32887
30.35769
29.50047
28.74891
28.10263
27.56738
27.1402
26.81077
26.56503
26.38801
26.26472
26.17971
26.11759
26.0646
26.01019
25.94756
25.87362
25.788
25.69078
25.58173
25.46025
25.32614
25.17998
25.02504
24.86518
24.70382
24.54385
24.3876
24.23706
24.09364
23.95813
23.83094
23.71251
23.60332
23.5038
23.41404
23.33351
23.26057
23.19167
23.12106
23.04211
22.95088
22.84905
22.74241
22.63698
22.5368
22.44397
22.35946
22.28386
22.21777
22.16205
22.11781
22.08648
22.06979
22.06978
22.08874
22.12911
22.19331
22.28325
22.39962
22.54181
22.70981
22.90377
23.12266
23.36417
23.62451
23.89807
24.17708
24.4511
24.70633
24.93725
25.13942
25.3087
25.44815
25.56302
25.65592
25.72079
25.74781
25.71522
25.57061
25.25931
25.34272
778.8498
638.7836
564.1492
513.5387
472.9744
438.1655
407.5974
380.5649
355.4924
298.141
238.247
201.9518
178.5975
162.5238
150.7495
141.623
134.2048
127.9227
100.9786
96.5407
92.26138
88.22611
84.51358
81.15713
78.14132
75.43555
73.00203
70.79016
68.84621
67.04596
65.28564
63.57102
61.91141
60.31437
58.7871
57.3328
55.94982
54.93484
54.21717
53.39431
52.50364
51.57956
50.63925
49.69437
48.75573
47.83234
46.9366
46.07525
45.24562
44.45184
43.68886
42.94763
42.2221
41.5096
40.81173
40.14357
35.86793
35.35818
34.87834
34.42362
33.98768
33.56428
33.14967
32.74231
32.34317
31.95267
31.57334
31.20936
30.86041
30.52292
30.19304
29.86833
29.549
29.24432
28.97169
28.73013
28.49039
28.2654
28.07463
27.90941
27.7521
27.59693
27.44401
27.29534
27.15716
27.03104
26.91815
26.81629
26.72211
26.63118
26.53889
26.44127
26.33532
26.21907
26.09661
25.9775
25.86125
25.75264
25.6735
25.62662
25.62141
25.66124
25.75882
25.90019
25.99682
26.02084
26.05339
26.08201
26.10362
26.12266
26.13786
26.14969
26.15984
26.1704
26.18364
26.20109
26.22313
26.24921
26.27822
26.30916
26.3419
26.37755
26.4181
26.46567
26.52166
26.58633
26.65873
26.7371
26.81945
26.90423
26.99056
27.07801
27.16607
27.25371
27.33938
27.42116
27.49709
27.56554
27.62553
27.67714
27.72134
27.7592
27.79126
27.81758
27.83863
27.85647
27.87502
27.89936
27.93502
27.9881
28.0654
28.17328
28.32067
28.51877
28.7769
29.1134
29.5124
29.96684
30.47548
31.0252
31.60326
32.19811
32.79626
33.38409
33.94574
34.46355
34.91834
35.29066
35.5625
35.71904
35.75007
35.65134
35.42536
35.08044
34.62967
34.09175
33.48803
32.83992
32.16866
31.49469
30.8382
30.21436
29.62228
29.0697
28.5617
28.10093
27.68874
27.32518
27.01026
26.7441
26.52905
26.36927
26.27496
26.25599
26.30615
26.41631
26.58734
26.82065
27.1154
27.47048
27.87941
28.33893
28.83629
29.35392
30.33425
31.9627
33.48843
34.91636
36.28211
37.59297
38.84132
39.99164
41.00599
41.86845
42.58252
43.15186
43.57184
43.82894
43.90182
43.77377
43.44403
42.92824
42.25417
41.44867
40.53721
39.54529
38.49769
37.41904
36.33706
35.26821
34.21634
33.19766
32.2253
31.31025
30.46083
29.68242
28.97682
28.34143
27.76899
27.25312
26.80083
26.42217
26.11227
25.86485
25.67495
25.53999
25.4608
25.44217
25.49181
25.61917
25.83469
26.14943
26.57466
27.12139
27.7996
28.61537
29.56871
30.65517
31.84043
33.06146
34.24976
35.33212
36.23745
36.90518
37.29261
37.38089
37.17731
36.71149
36.0282
35.17839
34.21513
33.18601
32.13398
31.10493
27.84998
26.98349
26.20639
25.50692
24.87544
24.31017
23.81386
23.38858
23.03659
22.76037
22.56265
22.44724
22.42058
22.49196
22.67162
22.97009
23.39581
23.93724
24.57631
25.28719
26.03633
26.78488
27.49215
28.11787
28.62568
28.98887
29.19316
29.23557
29.1272
28.89483
28.57499
28.19889
27.77918
27.34079
26.92946
26.5802
26.31449
26.14274
26.06538
26.07586
26.16525
26.32605
26.55207
26.83327
27.15002
27.47369
27.77148
28.01733
28.19308
28.28126
28.25986
28.10557
27.79433
27.32355
26.70245
25.93829
25.06981
24.14441
23.20478
22.28849
21.42486
20.63295
19.92259
19.29511
18.7486
18.27802
17.87641
17.5363
17.24971
17.0082
16.80309
16.62605
16.46985
16.32764
16.1923
16.05895
15.92506
15.79019
15.65574
15.52433
15.39528
15.26919
15.1481
15.03347
14.92618
14.82647
14.73398
14.64782
14.56669
14.48912
14.41356
14.33829
14.2614
14.18056
14.09287
13.99499
13.88392
13.7586
13.62105
13.4752
13.32502
13.1735
13.02264
12.87392
12.72864
12.58801
12.4531
12.32486
12.20408
12.09144
11.98749
11.89274
11.80755
11.73225
11.66702
11.61192
11.56691
11.53195
11.50697
11.4918
11.48608
11.48929
11.50074
11.51961
11.54505
11.57627
11.61218
11.64833
11.68162
11.71024
11.73275
11.74811
11.75529
11.75537
11.74718
11.73054
11.70755
11.68961
11.68267
635.7524
562.2702
502.226
457.9928
424.3507
398.4086
378.3069
363.3727
353.4027
339.9843
188.4099
175.815
164.6831
155.1421
147.5857
143.81
140.7619
138.0738
131.7648
86.84941
84.92639
84.19174
83.44477
82.68367
81.88275
81.03505
80.13774
79.14809
77.83736
75.31805
72.82836
70.8825
69.37712
68.13129
67.02524
65.99407
65.00487
64.03583
64.00818
63.27264
62.22186
61.04914
59.86138
58.70851
57.60989
56.56875
55.58343
54.65647
53.76564
52.89187
52.02984
51.17487
50.32972
49.49993
48.69067
47.91408
44.03841
43.38688
42.76494
42.16552
41.58311
41.01379
40.45571
39.90874
39.37446
38.85342
38.34408
37.8477
37.36437
36.8907
36.4237
35.96212
35.5061
35.05724
34.61789
34.18922
33.77316
33.37162
32.98248
32.60156
32.22551
31.85278
31.4839
31.12111
30.76658
30.42345
30.09326
29.77335
29.45978
29.14909
28.83895
28.52927
28.22115
27.90963
27.6538
27.40277
27.15903
26.92079
26.68462
26.44753
26.20809
25.96672
25.72559
25.48808
25.2582
25.03837
24.82819
24.62513
24.42577
24.22768
24.03115
23.83941
23.65701
23.48765
23.33008
23.18295
23.0495
22.92709
22.80869
22.68795
22.56267
22.43485
22.309
22.18952
22.07882
21.97792
21.88411
21.79206
21.6974
21.5975
21.49299
21.38488
21.27546
21.17207
21.07646
20.98892
20.91168
20.84898
20.80726
20.7791
20.76221
20.75526
20.74432
20.7144
20.67881
20.64702
20.61788
20.58902
20.55897
20.52723
20.49491
20.46424
20.4375
20.41605
20.39997
20.38828
20.37941
20.37191
20.36536
20.36069
20.35976
20.36454
20.37636
20.39544
20.42086
20.45086
20.48352
20.51742
20.55202
20.58734
20.62338
20.65961
20.6949
20.72768
20.75618
20.77876
20.7944
20.80327
20.80656
20.80551
20.80055
20.79145
20.77804
20.76154
20.74477
20.73159
20.72538
20.73053
20.75219
20.7954
20.86681
20.97476
21.12551
21.32367
21.56895
21.85426
22.17317
22.51871
22.88303
23.25925
23.64095
24.02131
24.39221
24.74365
25.06388
25.34005
25.55922
25.70952
25.78133
25.76824
25.66792
25.48233
25.21769
24.88395
24.49375
24.06135
23.60194
23.13096
22.66428
22.22117
21.80639
21.42199
21.07014
20.75159
20.46585
20.21198
19.98849
19.79434
19.62848
19.49119
19.38328
19.30788
19.27033
19.2787
19.32657
19.41418
19.53896
19.70098
19.89567
20.12401
20.3817
20.66835
21.0035
21.32897
21.65262
21.98291
22.32553
22.68121
23.04698
23.41685
23.78357
24.13948
24.47585
24.78207
25.04588
25.25435
25.39607
25.46336
25.45353
25.36861
25.21412
24.99753
24.72722
24.41141
24.05776
23.67361
23.26696
22.84712
22.41331
21.9596
21.49253
21.01933
20.54709
20.08194
19.62852
19.19006
18.76901
18.36816
17.99115
17.64049
17.31764
17.02438
16.76284
16.5353
16.34399
16.19107
16.07839
16.00754
15.98006
15.99788
16.06382
16.18208
16.35867
16.60179
16.92256
17.33616
17.84484
18.43478
19.09505
19.80815
20.54968
21.28963
21.99437
22.63021
23.16599
23.57684
23.84499
23.96347
23.9318
23.76216
23.46482
23.05116
22.61426
22.11275
21.56485
20.99662
20.43218
19.88986
19.37615
18.89387
18.44969
18.05093
17.70311
17.41047
17.17802
17.0123
16.92035
16.91078
16.9954
17.17981
17.46225
17.83739
18.29481
18.81895
19.39025
19.98487
20.57565
21.13528
21.6387
22.06358
22.39253
22.61634
22.73362
22.74579
22.65885
22.49166
22.27159
22.02394
21.76976
21.52692
21.30986
21.12975
20.9954
20.91453
20.89399
20.93808
21.04645
21.21463
21.43663
21.70746
22.0239
22.38047
22.76481
23.15412
23.51671
23.81584
24.01742
24.09171
24.01973
23.79448
23.41961
22.91146
22.29828
21.61516
20.89776
20.17639
19.47464
18.81101
18.19829
17.64284
17.14617
16.70696
16.32151
15.98462
15.68963
15.42946
15.1972
14.98677
14.79333
14.61364
14.4461
14.29063
14.14857
14.01961
13.90202
13.79427
13.69494
13.60253
13.5154
13.43172
13.3496
13.26721
13.18287
13.09505
13.00228
12.90268
12.7938
12.67242
12.53487
12.37877
12.20552
12.02035
11.82951
11.63796
11.44832
11.26221
11.08095
10.90566
10.7373
10.57663
10.42421
10.28046
10.14567
10.01998
9.903493
9.796144
9.697833
9.608385
9.527582
9.455204
9.390993
9.334647
9.285781
9.243932
9.208562
9.179105
9.154972
9.135635
9.120533
9.109065
9.098781
9.087697
9.074454
9.05844
9.038258
9.014294
8.986755
8.956902
8.92437
8.893163
8.863576
368.5186
268.0815
381.8891
173.0848
135.7399
99.79542
86.46677
75.23807
65.98231
61.53479
59.71497
58.74136
57.87064
57.14904
56.44869
55.83435
55.29318
54.89163
54.63559
54.41503
54.23694
54.16686
54.37074
54.75749
55.18685
55.65447
56.16531
56.72367
57.31844
57.89745
58.29587
57.15727
57.62203
57.97553
58.21149
58.32183
58.3033
58.15595
57.88256
57.49628
57.01644
56.44177
55.78607
55.07104
54.31569
53.53295
52.731
51.91601
51.09257
50.26437
49.43825
48.62123
47.81101
47.00856
46.21896
45.44553
44.69214
43.95741
43.23973
42.53748
41.84986
41.17788
40.52318
39.88762
39.27363
38.68177
38.11298
37.55599
37.05791
36.56798
36.08755
35.61476
35.14826
34.68828
34.23628
33.79452
33.36525
32.94998
32.54884
32.161
31.78385
31.41374
31.04736
30.68298
30.32106
29.96387
29.61466
29.27671
28.95219
28.64065
28.33865
28.04142
27.74487
27.44703
27.14881
26.8539
26.56748
26.29388
26.03444
25.78647
25.54488
25.3041
25.06058
24.81307
24.56439
24.31831
24.08201
23.85925
23.65035
23.45178
23.25819
23.06456
22.86791
22.66825
22.46843
22.27307
22.0868
21.91274
21.75084
21.59762
21.44795
21.29747
21.14436
20.99008
20.83895
20.6966
20.56695
20.45069
20.347
20.25135
20.15656
20.05644
19.94867
19.83567
19.72303
19.61664
19.5198
19.43225
19.35064
19.27102
19.18834
19.09958
19.00551
18.90872
18.81342
18.72388
18.64269
18.56981
18.50549
18.44894
18.3976
18.34785
18.29852
18.25071
18.20421
18.1571
18.11151
18.07
18.03148
17.99334
17.95322
17.91075
17.86765
17.8268
17.79075
17.7607
17.73646
17.71675
17.69954
17.68288
17.66618
17.65055
17.63815
17.63109
17.63062
17.6367
17.64806
17.66264
17.67828
17.69353
17.70812
17.72258
17.73737
17.75237
17.76683
17.77951
17.78887
17.79328
17.79173
17.78472
17.77396
17.76108
17.74649
17.72957
17.70972
17.68771
17.66599
17.6473
17.63391
17.62836
17.63414
17.65525
17.69656
17.76413
17.86233
17.99251
18.15274
18.33802
18.54253
18.76094
18.98885
19.22305
19.46115
19.70067
19.9379
20.16728
20.38128
20.57098
20.72689
20.83973
20.90131
20.90541
20.84851
20.73023
20.55339
20.3238
20.04982
19.74165
19.41059
19.0684
18.72693
18.39853
18.09409
17.81498
17.56246
17.3364
17.13566
16.95853
16.80304
16.66735
16.54974
16.44907
16.36484
16.29757
16.24895
16.22234
16.22165
16.24507
16.29143
16.35929
16.44724
16.55383
16.67823
16.81897
16.97609
17.14961
17.33891
17.54265
17.76016
17.9904
18.23128
18.47981
18.73203
18.98285
19.22566
19.45212
19.65257
19.81689
19.93584
20.00244
20.01296
19.96718
19.86804
19.72088
19.5325
19.31008
19.06039
18.78943
18.50259
18.20568
17.90725
17.61093
17.31217
17.01349
16.71787
16.42803
16.1461
15.87343
15.61098
15.35982
15.12153
14.89807
14.69154
14.5042
14.3383
14.19584
14.07806
13.98526
13.91673
13.87093
13.84593
13.83997
13.85213
13.88279
13.93408
14.01013
14.11757
14.26631
14.47133
14.73776
15.06316
15.44381
15.87211
16.33633
16.82105
17.30765
17.776
18.20506
18.5756
18.8702
19.07714
19.18735
19.20071
19.11893
18.95149
18.7066
18.39824
18.04438
17.66141
17.26284
16.86077
16.46695
16.08801
15.72791
15.39345
15.09072
14.82474
14.59994
14.42092
14.29309
14.22292
14.21768
14.28063
14.41302
14.61392
14.87984
15.20445
15.578
15.98742
16.41744
16.85133
17.27116
17.65962
18.00245
18.28804
18.50628
18.65134
18.72515
18.73526
18.69094
18.60229
18.48018
18.33583
18.18059
18.02598
17.88361
17.76451
17.67815
17.632
17.63211
17.68425
17.79421
17.96752
18.208
18.51538
18.88313
19.29877
19.74304
20.19418
20.62809
21.01896
21.34318
21.58003
21.71239
21.72689
21.61405
21.37332
21.01453
20.55664
20.02537
19.45002
18.85914
18.27575
17.71623
17.19209
16.71022
16.27342
15.88127
15.53108
15.21893
14.94065
14.69222
14.47019
14.27188
14.09529
13.93888
13.79935
13.6728
13.55579
13.4453
13.33856
13.23303
13.12643
13.01678
12.90247
12.78233
12.65519
12.51974
12.3745
12.21716
12.04436
11.85297
11.64341
11.42127
11.19429
10.96863
10.74754
10.53266
10.32502
10.12547
9.934621
9.7529
9.580589
9.417854
9.264757
9.121265
8.987259
8.862543
8.746855
8.639894
8.541342
8.450874
8.368157
8.292819
8.224436
8.162523
8.106541
8.05592
8.010074
7.968442
7.930488
7.895702
7.863352
7.831823
7.800062
7.767531
7.733552
7.697593
7.66013
7.62144
7.581701
7.542025
7.504192
329.7297
222.0704
167.8241
149.5269
121.7024
101.9924
87.75617
82.18422
75.96683
72.33663
69.20331
65.00171
60.83157
56.89687
53.3199
49.41832
43.40497
42.02871
41.03681
40.51721
40.42233
40.61015
40.92371
41.30562
41.74902
42.26859
42.8749
43.53353
44.22991
44.96015
45.72047
46.50699
47.31994
48.16127
49.02682
49.91147
50.83015
51.79591
52.74669
53.73995
54.87474
55.74855
56.18266
56.48708
56.66576
56.68485
56.54018
56.23865
55.7919
55.21421
54.52526
53.74773
52.90168
52.00472
51.07418
50.1263
49.17312
48.2227
47.2789
46.34195
45.41201
44.48819
43.57444
42.67914
41.81088
40.98274
40.19662
39.45335
38.74834
38.07443
37.42459
36.79358
36.17926
35.58249
35.00612
34.45403
33.9287
33.43131
32.9585
32.50721
32.07345
31.65317
31.24144
30.83498
30.4332
30.03783
29.65225
29.28057
28.92599
28.58938
28.26904
27.96095
27.65963
27.35955
27.05708
26.75184
26.44697
26.14832
25.86237
25.59378
25.34215
25.10227
24.8665
24.62774
24.38203
24.13026
23.87802
23.63347
23.40424
23.19351
22.99791
22.81008
22.62164
22.42625
22.22174
22.01127
21.80159
21.60058
21.41475
21.24595
21.09011
20.93984
20.78763
20.62854
20.46192
20.29145
20.12384
19.9666
19.82507
19.6998
19.58594
19.47551
19.36109
19.23886
19.10979
18.97914
18.85484
18.74462
18.65236
18.57601
18.50714
18.43601
18.35565
18.26331
18.16239
18.06092
17.96731
17.88632
17.81766
17.75627
17.69553
17.63034
17.55717
17.47662
17.39254
17.3109
17.23746
17.17476
17.122
17.07717
17.03624
16.99405
16.94768
16.89754
16.84687
16.80023
16.75983
16.72609
16.69819
16.67306
16.64788
16.62007
16.58911
16.55773
16.53015
16.50982
16.49793
16.49356
16.49465
16.49845
16.50238
16.5057
16.50992
16.51768
16.5312
16.55137
16.5775
16.6076
16.63889
16.66861
16.6952
16.71872
16.74023
16.76063
16.78002
16.79792
16.81356
16.82579
16.83324
16.83522
16.83251
16.82761
16.82283
16.81872
16.8144
16.80904
16.80339
16.79974
16.80006
16.805
16.81543
16.83325
16.86158
16.90415
16.96395
17.04173
17.13531
17.24004
17.35036
17.46163
17.57115
17.67812
17.78347
17.88918
17.9971
18.10746
18.21799
18.32399
18.41909
18.49607
18.54763
18.56701
18.54869
18.48902
18.38665
18.24271
18.06081
17.84676
17.60812
17.35355
17.09225
16.8335
16.58656
16.36107
16.16062
15.98501
15.83282
15.70185
15.58945
15.4929
15.40961
15.33724
15.27394
15.21851
15.17036
15.12943
15.09644
15.07353
15.06244
15.0622
15.07172
15.09024
15.11724
15.15256
15.19621
15.24861
15.31073
15.38348
15.46746
15.5633
15.67145
15.79181
15.92356
16.06488
16.21262
16.36209
16.50709
16.64015
16.75315
16.83824
16.8888
16.9003
16.8708
16.80109
16.69433
16.55544
16.39019
16.20438
16.00338
15.79196
15.57449
15.35565
15.14165
14.93543
14.73623
14.5461
14.36675
14.19915
14.04358
13.89998
13.76851
13.64992
13.54551
13.45693
13.38589
13.3337
13.30077
13.28618
13.28748
13.30088
13.32171
13.34517
13.36708
13.38457
13.3965
13.40348
13.40781
13.41351
13.42664
13.45599
13.51371
13.60671
13.73744
13.9064
14.11155
14.34815
14.60857
14.88286
15.15874
15.42276
15.66092
15.86052
16.01033
16.10292
16.13273
16.09878
16.00484
15.8568
15.66262
15.43163
15.17377
14.89918
14.61786
14.33931
14.07183
13.81858
13.58157
13.36446
13.17095
13.00413
12.86694
12.76303
12.69771
12.67357
12.69265
12.75633
12.86505
13.01793
13.2123
13.44344
13.70464
13.98738
14.28155
14.57629
14.86103
15.12574
15.3611
15.55965
15.71704
15.83169
15.90384
15.93516
15.92872
15.88887
15.82127
15.73288
15.63182
15.52676
15.42632
15.33883
15.27256
15.23591
15.23732
15.28492
15.38601
15.54608
15.76731
16.0474
16.37911
16.75158
17.1511
17.56361
17.97517
18.37293
18.7452
19.07983
19.36313
19.58132
19.72173
19.77297
19.72417
19.57137
19.31999
18.98429
18.58444
18.1433
17.68354
17.22497
16.78282
16.36724
15.98358
15.63376
15.31758
15.03342
14.77875
14.55039
14.34483
14.15812
13.98539
13.82219
13.66472
13.5099
13.35497
13.19741
13.03522
12.86694
12.69163
12.5089
12.31886
12.12177
11.91736
11.70423
11.48023
11.24472
11.00084
10.75491
10.51251
10.27672
10.0492
9.830817
9.622038
9.423066
9.23398
9.054804
8.885512
8.726026
8.576197
8.435811
8.304591
8.18221
8.068314
7.962544
7.864551
7.773985
7.690467
7.613571
7.54281
7.477648
7.417519
7.361847
7.310069
7.261649
7.216089
7.172878
7.131184
7.090144
7.049267
7.008095
6.966197
6.923593
6.880439
6.83684
6.79335
6.752003
169.6878
125.0683
191.7528
94.1168
80.67428
69.09468
65.69698
63.30569
60.67648
59.66081
58.30663
56.34007
54.50258
52.53021
50.18791
45.48181
44.41522
43.41523
42.44802
41.51843
40.5813
39.68631
38.89535
38.24222
37.75114
37.42086
37.17303
36.93671
36.89484
37.07445
37.45942
37.98933
38.59477
39.2464
39.95588
40.71177
41.49934
42.31176
43.14693
44.00269
44.87551
45.75717
46.65314
47.57749
48.53941
49.50702
50.49869
51.58385
52.50763
53.29828
53.94576
54.38708
54.56813
54.54592
54.30657
53.85938
53.23131
52.45124
51.54582
50.54009
49.4577
48.32121
47.1537
45.97693
44.81165
43.6762
42.5837
41.54054
40.54466
39.58899
38.66315
37.76372
36.90105
36.07996
35.30746
34.5912
33.93444
33.33192
32.77765
32.26042
31.76759
31.28879
30.81829
30.35558
29.90462
29.47166
29.06258
28.68093
28.32661
27.99531
27.68037
27.37477
27.07205
26.76758
26.45973
26.15043
25.84454
25.54874
25.26938
25.0099
24.76951
24.54326
24.32343
24.1014
23.87084
23.6301
23.38317
23.13824
22.90513
22.6923
22.50178
22.32694
22.15682
21.98076
21.79195
21.58981
21.38109
21.1778
20.99188
20.82893
20.68551
20.55233
20.41826
20.27399
20.11515
19.94433
19.77045
19.60526
19.4579
19.33137
19.2213
19.11814
19.01154
18.89432
18.76479
18.62723
18.4905
18.36522
18.25946
18.1743
18.10283
18.03391
17.95752
17.86836
17.76702
17.66023
17.55951
17.4765
17.41581
17.37277
17.33535
17.29091
17.23206
17.1572
17.07199
16.9876
16.91563
16.86184
16.82304
16.79067
16.7561
16.71422
16.66392
16.60605
16.54516
16.48876
16.44419
16.41409
16.39584
16.38522
16.37672
16.36416
16.34448
16.31929
16.29496
16.2791
16.27509
16.28195
16.2967
16.31507
16.33317
16.34861
16.36206
16.37837
16.40363
16.44154
16.49174
16.55132
16.61672
16.68454
16.75272
16.82188
16.89519
16.97544
17.06327
17.15709
17.25406
17.351
17.44467
17.53231
17.61284
17.68703
17.75602
17.81987
17.87775
17.92921
17.97456
18.01422
18.04865
18.07926
18.10912
18.1407
18.17635
18.21602
18.25876
18.30462
18.35521
18.41219
18.47511
18.54175
18.61125
18.68458
18.7683
18.86151
18.94625
19.00781
19.05008
19.06282
19.04001
18.98157
18.89238
18.78031
18.65547
18.5304
18.41775
18.32493
18.2512
18.19092
18.13723
18.08316
18.0222
17.94859
17.85741
17.74499
17.60935
17.45045
17.2703
17.07285
16.86367
16.6494
16.43726
16.23466
16.04906
15.88864
15.75729
15.65256
15.57099
15.50852
15.46105
15.42474
15.39608
15.37201
15.35019
15.3288
15.30601
15.27992
15.24885
15.21219
15.17198
15.12949
15.08463
15.03813
14.9913
14.94569
14.9029
14.86442
14.8317
14.80603
14.78867
14.78089
14.78384
14.79844
14.82508
14.86336
14.91185
14.96788
15.02747
15.08551
15.1361
15.1731
15.19084
15.18485
15.15243
15.09296
15.00791
14.90041
14.77474
14.63548
14.48713
14.33374
14.17898
14.02639
13.8797
13.74376
13.62109
13.51285
13.42027
13.34374
13.28309
13.23797
13.20848
13.19529
13.19956
13.22248
13.26479
13.3261
13.40432
13.49532
13.59312
13.6904
13.77954
13.85361
13.90735
13.93773
13.94397
13.92711
13.88934
13.83379
13.76479
13.68834
13.61248
13.54825
13.50373
13.48307
13.48904
13.52252
13.58223
13.6646
13.76384
13.87236
13.98135
14.08159
14.16386
14.22006
14.24378
14.23118
14.18118
14.09496
13.97585
13.82906
13.66106
13.47889
13.28954
13.09945
12.91399
12.7374
12.57309
12.42233
12.28594
12.16484
12.06038
11.97474
11.90934
11.86535
11.84411
11.84706
11.87554
11.93056
12.01239
12.12027
12.25221
12.40484
12.57349
12.75244
12.93539
13.11584
13.28747
13.44461
13.58269
13.69833
13.78911
13.85354
13.89107
13.90215
13.88828
13.85219
13.7978
13.73001
13.65437
13.57695
13.50426
13.44323
13.40101
13.38481
13.40162
13.45764
13.55744
13.70329
13.89488
14.12966
14.40295
14.70801
15.03665
15.38041
15.73094
16.08057
16.42373
16.75492
17.0681
17.35514
17.60458
17.80355
17.94052
18.00676
17.99513
17.90328
17.73626
17.50579
17.22779
16.91931
16.59607
16.27095
15.95342
15.64955
15.36225
15.09161
14.83516
14.59015
14.3539
14.12342
13.89587
13.66881
13.44016
13.20831
12.9723
12.73195
12.48799
12.24191
11.99553
11.7505
11.50775
11.26709
11.02689
10.78541
10.54301
10.30183
10.06431
9.8332
9.610718
9.397862
9.194892
9.001707
8.818142
8.644059
8.479334
8.323824
8.177347
8.039668
7.910506
7.789531
7.676391
7.570738
7.472248
7.380613
7.295514
7.216578
7.143365
7.075375
7.012071
6.952909
6.897357
6.844907
6.795088
6.747444
6.701465
6.65652
6.612132
6.567941
6.523621
6.479023
6.434237
6.389276
6.344582
6.302333
70.19365
52.01974
49.923
47.37773
46.29458
44.99139
43.95047
43.077
42.34293
41.20052
38.41732
38.27351
38.15025
38.03966
37.90825
37.74381
37.58474
37.4613
37.38464
37.34097
37.18155
36.78132
36.38597
36.00291
35.63996
35.30513
35.02299
34.80987
34.6774
34.62739
34.64853
34.73433
34.90553
35.1898
35.60248
36.13186
36.7429
37.39796
38.10421
38.85489
39.63935
40.45525
41.2983
42.16762
43.0649
43.99432
44.92192
45.86249
46.85904
47.92558
48.93186
49.86725
50.6753
51.28986
51.67618
51.81861
51.70561
51.34389
50.74783
49.94166
48.95648
47.8308
46.60452
45.31313
43.98546
42.6432
41.3038
39.98367
38.7001
37.47363
36.32327
35.26536
34.30531
33.43702
32.64343
31.90488
31.2068
30.54358
29.9164
29.33094
28.78987
28.30262
27.87168
27.49047
27.14488
26.81849
26.49758
26.17394
25.84602
25.51849
25.20001
24.89956
24.62367
24.37451
24.14874
23.93883
23.73619
23.53311
23.32346
23.10394
22.87526
22.64298
22.41641
22.20455
22.01329
21.84387
21.69108
21.54522
21.3957
21.23433
21.05776
20.86879
20.67685
20.49598
20.3377
20.20448
20.08902
19.979
19.86237
19.73062
19.58151
19.42146
19.26492
19.12693
19.0137
18.92076
18.83795
18.75394
18.65921
18.54871
18.42453
18.29611
18.1768
18.07722
17.99986
17.93826
17.88109
17.81766
17.74174
17.65308
17.55729
17.46462
17.38716
17.33292
17.29958
17.27511
17.24602
17.20428
17.14865
17.08316
17.0163
16.96117
16.93073
16.92566
16.93185
16.93135
16.91272
16.87384
16.82101
16.76767
16.72786
16.71512
16.73283
16.76446
16.79058
16.80077
16.79634
16.78841
16.7843
16.78931
16.80903
16.84915
16.90618
16.96959
17.03089
17.08763
17.13984
17.18904
17.24101
17.30368
17.38533
17.48546
17.5966
17.71047
17.82165
17.92874
18.03427
18.14544
18.27203
18.42082
18.59035
18.7716
18.95453
19.13361
19.30812
19.4828
19.66506
19.86639
20.08808
20.3252
20.56902
20.81121
21.04656
21.27322
21.49159
21.70342
21.90961
22.1073
22.28701
22.44303
22.5736
22.6816
22.77327
22.85741
22.94408
23.04172
23.15246
23.27346
23.40083
23.53522
23.68218
23.84668
24.02581
24.21001
24.39286
24.57529
24.76909
25.00623
25.25456
25.43543
25.45475
25.29206
25.01401
24.62978
24.16093
23.63469
23.07763
22.51375
21.96638
21.45761
20.99992
20.59029
20.21786
19.873
19.54989
19.24703
18.96562
18.70138
18.44856
18.20295
17.96225
17.72618
17.49649
17.27659
17.071
16.88471
16.7229
16.5909
16.49548
16.43736
16.40961
16.40534
16.41799
16.4415
16.47075
16.50133
16.53016
16.55518
16.57382
16.58185
16.57354
16.5429
16.48539
16.40126
16.29655
16.17477
16.04025
15.89741
15.75078
15.60446
15.46182
15.32522
15.19628
15.07623
14.96612
14.86694
14.77963
14.70488
14.643
14.5937
14.55587
14.52748
14.50549
14.48609
14.46492
14.43759
14.40024
14.35008
14.28578
14.20763
14.1174
14.01799
13.91288
13.80573
13.70002
13.59908
13.50612
13.42427
13.35677
13.30711
13.27785
13.26924
13.28058
13.31096
13.35998
13.42812
13.51651
13.62627
13.75786
13.91027
14.08025
14.26157
14.44607
14.62383
14.78444
14.91846
15.01865
15.08085
15.10411
15.09013
15.04188
14.96243
14.85469
14.72227
14.5699
14.40348
14.23005
14.06133
13.90388
13.76292
13.64239
13.54466
13.47025
13.41774
13.38386
13.36382
13.35164
13.34075
13.32475
13.2981
13.25662
13.1977
13.12051
13.02597
12.91661
12.79615
12.669
12.53972
12.41248
12.29066
12.17668
12.07197
11.9771
11.89203
11.81633
11.74941
11.69075
11.63997
11.59707
11.56251
11.53724
11.52267
11.52038
11.53188
11.55829
11.60002
11.65658
11.72647
11.80721
11.8956
11.98799
12.0805
12.1693
12.25094
12.32241
12.38117
12.42516
12.45292
12.4636
12.45705
12.43391
12.3957
12.34476
12.28416
12.21755
12.1492
12.0838
12.02634
11.98198
11.95584
11.9528
11.97708
12.03194
12.11949
12.24066
12.39497
12.58041
12.79373
13.03121
13.28922
13.56419
13.85245
14.15028
14.45359
14.75721
15.05689
15.3471
15.6211
15.87066
16.08532
16.25391
16.36737
16.42053
16.41273
16.34754
16.23138
16.0726
15.88059
15.66435
15.43136
15.1866
14.93136
14.66522
14.39075
14.10958
13.8227
13.53098
13.2354
12.93725
12.63822
12.34059
12.04712
11.76077
11.48416
11.21897
10.96561
10.72318
10.4895
10.26164
10.03703
9.814659
9.595789
9.383043
9.178414
8.982895
8.796606
8.619226
8.45044
8.290028
8.137821
7.993653
7.857351
7.728708
7.607475
7.493373
7.386107
7.285395
7.190978
7.102619
7.020068
6.943029
6.871137
6.803966
6.741056
6.681934
6.626134
6.573204
6.522712
6.474246
6.427407
6.381704
6.336678
6.292008
6.247447
6.202789
6.15812
6.1134
6.069079
6.027404
95.23522
40.13926
33.41032
32.01889
31.30162
30.98295
30.97922
31.15309
31.45825
31.85554
32.18385
32.31967
32.45712
32.58097
32.69368
32.78847
32.87388
32.95152
33.00922
33.02554
32.97648
32.87935
32.78653
32.70703
32.64911
32.61789
32.62611
32.67656
32.77027
32.90705
33.08732
33.31341
33.59506
33.93824
34.35351
34.83714
35.37506
35.99583
36.69355
37.45522
38.2786
39.15715
40.06635
41.0039
41.97325
43.02289
44.03482
45.04416
46.06994
47.05178
47.90287
48.56682
48.99433
49.15057
49.02231
48.61383
47.94491
47.0455
45.9249
44.63242
43.2185
41.73437
40.22883
38.74308
37.30535
35.92955
34.61989
33.37835
32.21059
31.13164
30.1673
29.32702
28.60862
27.99494
27.46048
26.977
26.51784
26.06392
25.61608
25.18568
24.78867
24.44041
24.14767
23.90371
23.6907
23.48809
23.27978
23.05732
22.82004
22.57398
22.32985
22.09909
21.89063
21.70847
21.55016
21.40787
21.27129
21.13212