/*--------------------------------*- C++ -*----------------------------------*\
| =========                 |                                                 |
| \\      /  F ield         | foam-extend: Open Source CFD                    |
|  \\    /   O peration     | Version:     3.1                                |
|   \\  /    A nd           | Web:         http://www.extend-project.de       |
|    \\/     M anipulation  |                                                 |
\*---------------------------------------------------------------------------*/
FoamFile
{
    version     2.0;
    format      ascii;
    class       volScalarField;
    location    "6.5";
    object      k;
}
// * * * * * * * * * * * * * * * * * * * * * * * * * * * * * * * * * * * * * //

dimensions      [0 2 -2 0 0 0 0];

internalField   nonuniform List<scalar> 
119952
(
0.0198356
0.01689304
0.01579691
0.01542141
0.01493381
0.01427617
0.01402107
0.01394375
0.01393489
0.01394633
0.01395057
0.01393425
0.01388827
0.01381297
0.01371609
0.01361042
0.01351452
0.01345237
0.01346148
0.01361723
0.0152544
0.01459113
0.01458357
0.01594206
0.01490018
0.01439513
0.01398679
0.01365905
0.01299716
0.01794819
0.06083523
0.05834263
0.05595086
0.05412562
0.05287896
0.05210412
0.05165909
0.05142126
0.05129899
0.0512541
0.04897182
0.04920608
0.05051647
0.05222422
0.05392478
0.05542286
0.05666567
0.05764693
0.05839557
0.06285756
0.06315575
0.06313578
0.06286749
0.0624477
0.0619562
0.0614525
0.06097067
0.06052773
0.06029844
0.06016876
0.06000414
0.05991351
0.059883
0.05987896
0.05986303
0.05979343
0.05963105
0.05924209
0.05964942
0.05922848
0.05862616
0.05832703
0.05794956
0.05733838
0.05652474
0.05564276
0.0547548
0.05387937
0.05302727
0.05220508
0.05141764
0.05066814
0.04996064
0.04930005
0.04869213
0.04814148
0.04765103
0.04722828
0.04695334
0.04681226
0.04662676
0.04662117
0.0469701
0.04726137
0.04749675
0.04775838
0.04788026
0.04722315
0.04671692
0.04627239
0.04589045
0.04552855
0.04515379
0.04476151
0.04435241
0.04392927
0.04349471
0.04305087
0.04259956
0.04214219
0.04167939
0.04121027
0.04073212
0.04024266
0.03974177
0.03923418
0.03872031
0.03820396
0.03768773
0.03717402
0.03666458
0.03615988
0.03566061
0.03516791
0.03468369
0.03420906
0.03374328
0.03329014
0.03285079
0.03242565
0.03201522
0.03161978
0.03123938
0.03087325
0.0305207
0.03018218
0.02985728
0.02954524
0.02924542
0.02895729
0.0286804
0.02841433
0.02815868
0.02791299
0.02767651
0.02744759
0.02723022
0.02704177
0.02689538
0.02674685
0.02658823
0.02641889
0.02624207
0.02606124
0.0258789
0.02569709
0.02551739
0.02534086
0.02516809
0.0249994
0.02483489
0.02467453
0.02451819
0.0243657
0.02421684
0.02407139
0.02392914
0.02378989
0.02365345
0.02351966
0.02338837
0.02325944
0.02313278
0.02300829
0.02288592
0.02276566
0.02264746
0.02253109
0.02241659
0.02230447
0.02219538
0.02208856
0.02198382
0.02188122
0.02178085
0.02168284
0.02158722
0.02149411
0.02140346
0.02131537
0.02122972
0.02114665
0.0210659
0.02098765
0.02091096
0.02083455
0.02076666
0.02068152
0.02043019
0.02015321
0.01986983
0.01959895
0.01934729
0.01911516
0.01890129
0.0187043
0.01852274
0.01835523
0.01820076
0.01805842
0.01792729
0.01780664
0.0176966
0.0175968
0.01750493
0.01742082
0.01734538
0.01727825
0.01721914
0.01716785
0.01712429
0.01708844
0.01706037
0.01704006
0.01702772
0.01702345
0.01702754
0.01704025
0.01706189
0.01709252
0.01712969
0.01717334
0.01716905
0.01728899
0.01743196
0.01757326
0.01770435
0.01782386
0.01793169
0.01802759
0.01811187
0.01818506
0.01824776
0.01830074
0.01834486
0.01838095
0.01840983
0.0184323
0.01844909
0.01846088
0.01846831
0.01847194
0.01847224
0.01846967
0.0184646
0.01845736
0.01844822
0.01843746
0.01842524
0.01841172
0.01839706
0.01838135
0.0183647
0.01834713
0.01832908
0.01831088
0.01829208
0.01818874
0.01826939
0.01829544
0.01826334
0.01819405
0.01810577
0.01801287
0.01792438
0.01784521
0.01777736
0.01772044
0.01767471
0.01763882
0.0176112
0.0175904
0.01757492
0.01756335
0.01755447
0.01754723
0.01754075
0.01753435
0.0175275
0.01751982
0.01751106
0.01750109
0.01748983
0.0174773
0.01746356
0.01744871
0.01743289
0.01741623
0.01739888
0.01738102
0.0173628
0.01734438
0.01732591
0.01730754
0.0172894
0.01727164
0.01725437
0.01723777
0.01722201
0.01720744
0.01719487
0.0171865
0.01718347
0.01717771
0.01716919
0.01716258
0.01715757
0.01715368
0.01715174
0.01715285
0.01716937
0.01724349
0.01721391
0.01718608
0.01715696
0.01712321
0.0170847
0.0170417
0.01699552
0.01694801
0.01690083
0.01685538
0.01681272
0.01677357
0.01673841
0.01670741
0.01668049
0.01665746
0.01663799
0.0166217
0.01660818
0.01659704
0.01658785
0.01658023
0.01657379
0.0165682
0.01656319
0.01655853
0.01655404
0.01654955
0.01654494
0.01654011
0.01653498
0.01652948
0.01652357
0.01651723
0.01651043
0.01650319
0.0164955
0.01648738
0.01647885
0.01646993
0.01646069
0.01645116
0.01644139
0.01643143
0.01642133
0.01641112
0.01640084
0.01639053
0.01638022
0.01636995
0.01635976
0.01634966
0.01633969
0.01632985
0.01632018
0.01631067
0.01630134
0.01629219
0.01628322
0.01627444
0.01626585
0.01625743
0.01624919
0.01624112
0.0162332
0.01622541
0.01621776
0.01621019
0.01620271
0.01619525
0.01618782
0.01618035
0.01617275
0.01616484
0.01615662
0.01614766
0.01613773
0.01612563
0.01610958
0.0160846
0.01603944
0.01594324
0.01578637
0.01596151
0.06714529
0.06876238
0.07711371
0.08438611
0.08982643
0.0939202
0.09711118
0.09967003
0.1018787
0.1046268
0.1132882
0.1220376
0.1294611
0.1353595
0.1398024
0.1430231
0.1452627
0.1467598
0.1642594
0.1631098
0.1617257
0.1599626
0.1580011
0.1559631
0.153882
0.1517601
0.1495861
0.1472861
0.145166
0.142805
0.1401453
0.1373768
0.1345859
0.1318256
0.1291313
0.1265271
0.1240163
0.1218615
0.11982
0.11758
0.1153881
0.1132671
0.1112337
0.1093024
0.1074803
0.1057705
0.1041728
0.1026461
0.1012048
0.0998698
0.09860521
0.09739155
0.09621553
0.09506417
0.09393431
0.09285758
0.0972845
0.09605897
0.09490194
0.09383752
0.09284262
0.09189402
0.09097976
0.09007516
0.08915207
0.08821063
0.08725879
0.08628203
0.08528572
0.08428039
0.08328719
0.08231331
0.08138767
0.08052621
0.07976226
0.07896995
0.07799637
0.07701364
0.07607503
0.07508212
0.0739852
0.0728049
0.07157492
0.07031266
0.06903024
0.06773972
0.06645293
0.06517944
0.06392754
0.06270296
0.06151117
0.06035571
0.05924235
0.05817803
0.05718092
0.05626797
0.05543386
0.05470059
0.05413883
0.05371183
0.0533535
0.05306209
0.05281062
0.05249496
0.05212399
0.05186873
0.05174298
0.05170749
0.05172865
0.05177971
0.05185236
0.05193874
0.05202999
0.05211694
0.05219093
0.05224428
0.0522705
0.05226453
0.05222258
0.0521418
0.05202042
0.05185814
0.05165615
0.05141649
0.05114136
0.05083102
0.05048385
0.05010647
0.04970492
0.04928439
0.04884932
0.04840372
0.04795114
0.04749425
0.04703568
0.04657831
0.04612454
0.04567633
0.04523535
0.04480273
0.04437938
0.04396608
0.04356301
0.04317025
0.0427879
0.04241594
0.04205425
0.04170263
0.04136085
0.04102862
0.04070568
0.0403921
0.04008929
0.0398003
0.039525
0.03926017
0.03900384
0.03875617
0.03851682
0.03828499
0.03806008
0.03784163
0.03762916
0.03742219
0.03722028
0.03702302
0.03683006
0.03664104
0.03645561
0.03627343
0.03609415
0.03591745
0.035743
0.03557048
0.0353996
0.03523009
0.03506169
0.03489417
0.03472734
0.03456102
0.03439506
0.03422936
0.03406384
0.03389846
0.0337332
0.03356804
0.03340295
0.03323808
0.03307356
0.03290944
0.03274563
0.03258232
0.03241935
0.03225705
0.03209509
0.03193401
0.03177309
0.03161333
0.03145318
0.03129461
0.03113428
0.03097641
0.03081576
0.03067011
0.03010543
0.02943525
0.02894942
0.02858144
0.0282875
0.02803924
0.0278193
0.02761681
0.02742483
0.02723896
0.02705636
0.02687536
0.02669493
0.02651425
0.02633304
0.02615119
0.0259689
0.02578629
0.02560338
0.02542039
0.02523751
0.02505492
0.02487288
0.02469165
0.02451151
0.02433276
0.02415566
0.02398051
0.02380753
0.02363693
0.02346878
0.02330292
0.02313894
0.02297545
0.02281307
0.0226546
0.02251582
0.0224002
0.02229613
0.02219938
0.02210859
0.02202292
0.02194168
0.02186444
0.02179087
0.02172074
0.02165382
0.0215899
0.02152875
0.02147016
0.0214139
0.02135974
0.02130747
0.02125685
0.02120767
0.0211597
0.02111275
0.02106659
0.02102105
0.02097594
0.02093108
0.0208863
0.02084146
0.0207964
0.020751
0.02070513
0.02065878
0.02061183
0.02056432
0.02051696
0.02126497
0.02120479
0.02116533
0.02113036
0.0210927
0.02105038
0.02100349
0.02095225
0.02089675
0.02083723
0.0207741
0.02070778
0.0206386
0.02056686
0.02049291
0.02041708
0.02033966
0.02026096
0.02018123
0.02010075
0.02001975
0.01993845
0.01985708
0.01977582
0.01969487
0.01961439
0.01953455
0.0194555
0.01937737
0.01930029
0.01922438
0.01914974
0.01907647
0.01900467
0.01893439
0.01886573
0.01879872
0.01873344
0.01866993
0.01860826
0.01854848
0.01849077
0.01843528
0.01838234
0.01833166
0.01828255
0.0182336
0.0181848
0.01813674
0.01809023
0.01804486
0.01800112
0.0179589
0.01792582
0.01789799
0.0178599
0.01781537
0.01777092
0.01772851
0.01768827
0.01764994
0.01761324
0.01757785
0.01754346
0.01750984
0.01747676
0.01744408
0.0174117
0.01737954
0.01734758
0.0173158
0.0172842
0.01725282
0.01722168
0.01719085
0.01716038
0.01713036
0.01710084
0.01707192
0.01704367
0.01701616
0.01698949
0.01696374
0.01693895
0.01691521
0.01689255
0.01687101
0.01685063
0.01683142
0.01681338
0.01679652
0.01678083
0.01676628
0.01675286
0.01674054
0.01672929
0.01671908
0.0167099
0.01670169
0.01669443
0.01668808
0.0166826
0.01667795
0.01667409
0.01667099
0.01666859
0.01666687
0.01666578
0.01666529
0.01666536
0.01666596
0.01666704
0.01666857
0.01667053
0.01667288
0.01667557
0.01667862
0.01668194
0.01668556
0.01668941
0.01669352
0.01669778
0.01670228
0.01670685
0.01671165
0.01671639
0.01672137
0.01672606
0.01673093
0.01673512
0.01673928
0.01674178
0.01674327
0.01674038
0.01673315
0.01671834
0.01670908
0.01673371
0.01679035
0.05996739
0.0626886
0.06594501
0.06955349
0.07352276
0.07784057
0.08251778
0.08754942
0.09288138
0.09802043
0.1335108
0.1466306
0.1599236
0.1735992
0.1878879
0.2029349
0.2191985
0.2379299
0.2643859
0.3028971
0.3119436
0.3205531
0.3283045
0.3350821
0.3410784
0.3460251
0.3500367
0.3537779
0.3581636
0.3618343
0.3630038
0.3627397
0.3614253
0.3592412
0.356324
0.3527743
0.3487405
0.3446051
0.3379435
0.3322475
0.3270016
0.3219233
0.3168996
0.3118504
0.3067354
0.3015893
0.2964622
0.2914258
0.2863492
0.2813173
0.2763
0.2713214
0.2664091
0.2615775
0.2568238
0.2521044
0.2561986
0.2517524
0.2472228
0.2426697
0.2381154
0.2335498
0.2289702
0.2243747
0.2197738
0.2151514
0.2105096
0.2059035
0.2013304
0.1967835
0.192272
0.1878094
0.1834086
0.179085
0.174852
0.1707064
0.1666626
0.1627536
0.1589868
0.1553551
0.1518659
0.1485238
0.1453322
0.1422882
0.1393947
0.136667
0.1340834
0.1316375
0.1293234
0.1271429
0.1250765
0.1231313
0.1212604
0.1194681
0.1178521
0.1163351
0.1148563
0.1133696
0.1118952
0.1104413
0.1090047
0.1075735
0.1061436
0.1047126
0.1032699
0.1018133
0.1003513
0.09888923
0.09743932
0.09600716
0.09461409
0.09325875
0.0919569
0.09065884
0.08932112
0.08797275
0.08662969
0.08527332
0.083881
0.08244892
0.08098532
0.07950083
0.07800507
0.07650646
0.07501269
0.07353084
0.07206719
0.07062692
0.06921436
0.06783308
0.06648713
0.06518142
0.06392389
0.06272215
0.06158021
0.0605077
0.05951579
0.05860245
0.05774305
0.05693293
0.05614094
0.05536275
0.05459092
0.05387937
0.05325795
0.05272928
0.0522919
0.05193962
0.05166538
0.05146352
0.05132873
0.05125495
0.05123496
0.05126043
0.05132267
0.0514127
0.05152071
0.0516368
0.05175102
0.0518518
0.05193374
0.05199411
0.0520305
0.05204094
0.05202408
0.05197949
0.05190741
0.05180833
0.05168288
0.05153075
0.0513525
0.05115091
0.05092907
0.05069012
0.05043693
0.05017212
0.04989812
0.04961721
0.04933117
0.04904142
0.04874933
0.04845603
0.04816244
0.04786932
0.0475773
0.0472869
0.04699854
0.04671257
0.04642933
0.04614929
0.045873
0.04560099
0.04533524
0.04507618
0.04482245
0.04457337
0.04432913
0.04409013
0.04385662
0.04362869
0.04340629
0.0431893
0.04297758
0.04277098
0.04256928
0.04237224
0.04217956
0.04199093
0.041806
0.0416244
0.04144575
0.04126966
0.04109573
0.04092358
0.04075282
0.04058308
0.04041401
0.04024529
0.0400766
0.03990769
0.03973832
0.03956828
0.03939743
0.03922566
0.0390529
0.03887907
0.03870417
0.03852814
0.03835111
0.03817302
0.03799414
0.0378143
0.03763397
0.03745266
0.03727127
0.03708863
0.03690652
0.03672233
0.0365398
0.03635324
0.03617095
0.035979
0.03578434
0.03559462
0.03540679
0.03521844
0.03502962
0.03484022
0.03465006
0.03445896
0.03426675
0.0340732
0.03387797
0.03368075
0.03348155
0.03328052
0.03307759
0.03287277
0.03266611
0.03245771
0.03224764
0.03203603
0.03182305
0.03160892
0.03139386
0.03117815
0.03096207
0.03074594
0.03053005
0.03031473
0.03010022
0.02988675
0.02967441
0.02946303
0.0292514
0.02903939
0.02882824
0.0286228
0.0284291
0.02824707
0.02807348
0.02790694
0.02774662
0.02759182
0.02744198
0.02729673
0.02715576
0.02701886
0.02688584
0.02675654
0.02663077
0.0265084
0.02638923
0.02627311
0.02615986
0.02604928
0.0259412
0.02583543
0.02573174
0.02562997
0.02552989
0.02543133
0.02533405
0.02523792
0.02514267
0.02504824
0.0249543
0.02486097
0.02476777
0.02467513
0.02458157
0.02448672
0.02440633
0.02432468
0.02423555
0.02413874
0.02403829
0.02393734
0.02383694
0.0237369
0.02363676
0.02353623
0.02343517
0.02333353
0.02323125
0.02312831
0.02302469
0.02292043
0.02281556
0.02271017
0.02260435
0.02249822
0.02239189
0.02228551
0.02217922
0.02207318
0.02196754
0.02186247
0.02175811
0.02165462
0.02155217
0.02145089
0.02135093
0.02125241
0.02115548
0.02106023
0.02096679
0.02087525
0.0207857
0.02069822
0.02061291
0.02052982
0.02044907
0.02037071
0.02029486
0.02022147
0.02015048
0.02008147
0.0200141
0.0199479
0.01988319
0.01981989
0.01975843
0.01969827
0.01963977
0.01958167
0.01952478
0.01946953
0.01941684
0.0193667
0.01931826
0.01927074
0.01922384
0.01917759
0.0191321
0.01908743
0.01904358
0.01900053
0.01895821
0.01891658
0.01887559
0.01883523
0.01879546
0.01875626
0.01871763
0.01867958
0.01864213
0.01860532
0.01856921
0.01853384
0.0184993
0.01846564
0.01843296
0.01840132
0.01837081
0.01834149
0.01831344
0.01828672
0.01826138
0.01823746
0.01821499
0.01819398
0.01817445
0.01815639
0.0181398
0.01812465
0.01811091
0.01809857
0.01808758
0.01807791
0.01806951
0.01806234
0.01805636
0.01805151
0.01804776
0.01804503
0.0180433
0.0180425
0.01804259
0.01804351
0.01804522
0.01804766
0.0180508
0.01805458
0.01805896
0.0180639
0.01806936
0.0180753
0.01808168
0.01808848
0.01809565
0.0181032
0.01811104
0.01811924
0.01812767
0.01813643
0.01814536
0.01815462
0.01816394
0.01817359
0.01818311
0.01819293
0.01820224
0.01821165
0.01821981
0.01822784
0.01823418
0.01824221
0.01825231
0.01827245
0.01830049
0.04821434
0.05225953
0.05581309
0.08024543
0.1057314
0.1364032
0.1572653
0.1778386
0.1969776
0.2142679
0.2287944
0.240848
0.2523589
0.2637805
0.274957
0.2859709
0.2968779
0.3077479
0.3185938
0.3293536
0.3399544
0.3504052
0.3605416
0.3702255
0.3795816
0.3886554
0.3973865
0.4057569
0.4137088
0.4214373
0.4308174
0.4559133
0.4593071
0.4615436
0.4627966
0.463078
0.4623133
0.460729
0.458026
0.455054
0.4518437
0.4475656
0.4424835
0.4368235
0.4307358
0.4243367
0.4177212
0.4109664
0.4041382
0.3972929
0.3904427
0.3836722
0.376963
0.3703392
0.3638138
0.3573967
0.3510913
0.3448897
0.3387916
0.3327753
0.3267401
0.3206889
0.3146647
0.308709
0.3028718
0.2971802
0.2916825
0.2863476
0.2808343
0.2755699
0.2705325
0.2656685
0.260933
0.2562882
0.2517019
0.2471467
0.2425989
0.2380393
0.2334646
0.2288738
0.2242575
0.2196174
0.2149626
0.2103157
0.2056904
0.2010944
0.1965349
0.1920219
0.1875662
0.1831797
0.1788809
0.17469
0.1706245
0.1666985
0.1629249
0.1593134
0.1558747
0.152615
0.1495353
0.1466363
0.1439164
0.141373
0.1389996
0.1367895
0.1347287
0.1327982
0.1309841
0.1292476
0.1275713
0.1259481
0.1243682
0.1228218
0.1212964
0.1197799
0.1182641
0.1167418
0.1152055
0.1136518
0.1120822
0.1104987
0.1089069
0.1073111
0.1057193
0.1041333
0.102556
0.1009783
0.09938296
0.09776772
0.09614403
0.09451488
0.09287161
0.09120766
0.08952561
0.08783349
0.08613961
0.08445098
0.08277381
0.081114
0.079477
0.07786756
0.07628954
0.07474613
0.0732402
0.07177462
0.07035242
0.06897715
0.06765097
0.06637501
0.06514972
0.06397425
0.06283616
0.06172551
0.06063124
0.05955033
0.05849006
0.05746887
0.05650418
0.05560607
0.05478089
0.05403025
0.05335341
0.05275014
0.0522208
0.05176539
0.05138284
0.05107101
0.05082675
0.05064599
0.0505237
0.05045386
0.05042935
0.05044241
0.05048575
0.0505524
0.05063546
0.05072839
0.05082548
0.05092183
0.05101305
0.05109525
0.05116511
0.05122006
0.05125829
0.05127878
0.0512811
0.05126537
0.05123209
0.05118197
0.051116
0.05103529
0.05094087
0.05083377
0.05071506
0.05058579
0.05044689
0.05029924
0.05014367
0.04998093
0.04981174
0.04963675
0.04945664
0.04927212
0.04908403
0.0488931
0.0486996
0.04850379
0.04830614
0.04810752
0.04790883
0.04771077
0.04751387
0.0473186
0.04712542
0.0469347
0.04674676
0.04656187
0.04638019
0.04620181
0.04602674
0.04585494
0.04568627
0.04552056
0.04535756
0.04519697
0.04503846
0.04488167
0.04472619
0.04457162
0.04441755
0.04426353
0.04410918
0.04395408
0.04379787
0.0436402
0.04348078
0.04331934
0.04315567
0.04298957
0.04282095
0.0426497
0.04247587
0.04229939
0.04212042
0.04193892
0.04175521
0.04156915
0.04138127
0.04119119
0.04099979
0.04080623
0.04061201
0.04041569
0.04022019
0.04002375
0.03983013
0.03963609
0.03943927
0.03923975
0.03903861
0.03883642
0.03863319
0.03842874
0.03822292
0.03801563
0.03780684
0.03759649
0.03738442
0.03717043
0.03695444
0.03673642
0.03651636
0.03629429
0.03607023
0.03584424
0.03561642
0.03538686
0.03515573
0.0349232
0.03468947
0.03445474
0.03421922
0.03398309
0.03374652
0.0335096
0.03327234
0.03303475
0.03279687
0.03255906
0.03232264
0.03209019
0.03186489
0.03164824
0.03143963
0.03123799
0.03104256
0.03085282
0.03066841
0.03048906
0.03031455
0.03014468
0.02997931
0.02981828
0.02966145
0.02950865
0.02935972
0.02921451
0.02907283
0.02893448
0.02879928
0.02866701
0.02853747
0.02841043
0.02828569
0.028163
0.02804218
0.02792295
0.02780519
0.02768855
0.02757308
0.02745824
0.0273444
0.02723063
0.02711803
0.02700457
0.02689161
0.02677724
0.02666226
0.02654767
0.02643351
0.02631929
0.02620453
0.0260889
0.02597222
0.02585446
0.02573568
0.02561594
0.02549533
0.02537394
0.02525182
0.02512906
0.02500574
0.02488197
0.02475784
0.02463349
0.02450903
0.0243846
0.02426036
0.02413644
0.02401301
0.02389022
0.02376825
0.02364725
0.02352739
0.02340883
0.02329172
0.02317623
0.02306249
0.02295064
0.02284083
0.02273316
0.02262775
0.02252472
0.02242417
0.02232619
0.02223088
0.02213829
0.02204846
0.02196137
0.02187697
0.02179509
0.02171554
0.02163802
0.02156248
0.02148893
0.02141745
0.02134794
0.02128041
0.02121498
0.02115209
0.02109134
0.021032
0.02097385
0.02091709
0.0208619
0.02080838
0.02075652
0.02070629
0.02065761
0.02061039
0.02056453
0.02051992
0.02047644
0.02043403
0.0203926
0.02035208
0.02031244
0.02027363
0.02023563
0.02019845
0.02016209
0.0201266
0.020092
0.02005835
0.02002572
0.01999416
0.01996375
0.01993455
0.01990664
0.01988008
0.01985492
0.01983122
0.019809
0.01978829
0.01976912
0.01975148
0.01973537
0.01972078
0.01970767
0.01969603
0.01968581
0.01967698
0.01966949
0.0196633
0.01965836
0.01965463
0.01965205
0.01965057
0.01965014
0.01965071
0.01965223
0.01965465
0.01965791
0.01966196
0.01966677
0.01967227
0.01967843
0.0196852
0.01969253
0.01970039
0.01970875
0.01971756
0.01972681
0.01973645
0.01974647
0.01975684
0.01976756
0.01977859
0.01978995
0.01980159
0.01981355
0.01982575
0.01983828
0.019851
0.019864
0.01987714
0.01989051
0.01990403
0.0199179
0.01993252
0.01994832
0.01996679
0.01998829
0.02001383
0.0249867
0.02718348
0.02925549
0.03707921
0.04828775
0.0667507
0.08036645
0.094912
0.110571
0.1264803
0.1428471
0.160724
0.1796249
0.1987838
0.2187034
0.2411463
0.2749529
0.2897889
0.3046282
0.3193783
0.3342212
0.3483475
0.3613298
0.3733449
0.384646
0.3953935
0.405681
0.4155939
0.4252354
0.4343721
0.4429218
0.4510312
0.4586637
0.4657788
0.4723292
0.4782835
0.483538
0.4880365
0.4918
0.4944992
0.4962738
0.496443
0.4947476
0.4930445
0.4904798
0.4867894
0.4820458
0.4757639
0.4691351
0.4619216
0.4543788
0.4465588
0.4383801
0.4299844
0.4215607
0.4132484
0.4051415
0.3973033
0.3897685
0.3825671
0.3756894
0.3691311
0.3628801
0.3569062
0.3511719
0.3456343
0.3402581
0.3349996
0.3298377
0.3247527
0.3197583
0.3148294
0.3098954
0.3049173
0.2999876
0.2951739
0.2905193
0.2860564
0.2817787
0.2776499
0.2736929
0.2699133
0.266266
0.2627008
0.2591757
0.2556529
0.2520985
0.2484846
0.2447917
0.2410062
0.2371198
0.2331308
0.2290477
0.2248809
0.2206259
0.2162917
0.2118982
0.2074657
0.2030153
0.1985669
0.194144
0.1897731
0.185479
0.1812825
0.1772014
0.1732525
0.1694509
0.1658096
0.1623405
0.1590536
0.1559563
0.1530523
0.1503432
0.1478252
0.1454923
0.1433323
0.1413296
0.1394656
0.1377146
0.1360544
0.1344638
0.1329227
0.1314152
0.1299277
0.1284485
0.1269679
0.1254785
0.123974
0.1224491
0.1209012
0.1193284
0.117731
0.1161092
0.1144656
0.1128016
0.1111184
0.1094147
0.1076835
0.1059232
0.1041412
0.1023436
0.1005295
0.09869774
0.09685149
0.09499803
0.09314549
0.09130138
0.08947254
0.0876654
0.08588586
0.08413904
0.08242905
0.08075899
0.07913112
0.07754708
0.07600801
0.07451477
0.07306712
0.07166367
0.07030204
0.06897876
0.06768611
0.06641603
0.06516284
0.06392444
0.06270377
0.06151013
0.0603546
0.05924617
0.05819083
0.0571916
0.05625017
0.05536843
0.05454878
0.05379352
0.0531044
0.05248242
0.05192794
0.05144065
0.05101946
0.05066236
0.0503665
0.05012843
0.04994414
0.04980901
0.04971793
0.04966578
0.0496475
0.04965802
0.04969228
0.04974528
0.04981228
0.04988906
0.04997189
0.05005734
0.05014241
0.05022461
0.05030187
0.05037251
0.05043525
0.05048911
0.05053333
0.05056736
0.05059086
0.05060363
0.05060559
0.05059677
0.05057727
0.05054727
0.05050699
0.05045674
0.05039689
0.05032786
0.05025019
0.05016442
0.05007103
0.04997038
0.04986265
0.04974791
0.04962672
0.04950005
0.0493691
0.04923499
0.04909851
0.04896034
0.04882115
0.04868159
0.04854223
0.04840356
0.04826597
0.04812976
0.04799512
0.04786217
0.04773089
0.04760123
0.04747302
0.04734604
0.04722
0.04709455
0.0469693
0.04684384
0.04671771
0.04659045
0.0464616
0.04633071
0.04619735
0.04606112
0.04592166
0.04577865
0.04563184
0.04548103
0.04532609
0.04516692
0.04500355
0.04483598
0.04466438
0.0444888
0.04430957
0.04412675
0.0439408
0.04375175
0.04356032
0.04336654
0.04317148
0.04297511
0.04277767
0.04257936
0.04238017
0.04217988
0.04197836
0.04177552
0.04157128
0.04136552
0.0411582
0.04094926
0.04073864
0.04052621
0.04031185
0.04009542
0.03987683
0.03965598
0.03943282
0.03920728
0.03897933
0.03874895
0.03851616
0.038281
0.03804353
0.03780387
0.03756213
0.03731846
0.03707301
0.03682592
0.03657734
0.03632741
0.03607625
0.03582406
0.03557118
0.0353182
0.03506622
0.03481691
0.03457237
0.03433419
0.0341027
0.03387746
0.03365795
0.03344389
0.0332351
0.03303146
0.03283285
0.03263918
0.03245034
0.03226623
0.03208676
0.03191181
0.03174125
0.03157494
0.03141271
0.03125438
0.03109978
0.03094868
0.03080088
0.03065614
0.03051424
0.03037494
0.030238
0.03010316
0.02997023
0.0298389
0.02970905
0.02958034
0.02945272
0.02932577
0.0291995
0.02907316
0.02894661
0.02881993
0.0286932
0.02856621
0.02843868
0.02831051
0.02818176
0.02805247
0.02792259
0.02779206
0.02766082
0.02752887
0.02739619
0.0272628
0.02712872
0.02699401
0.0268587
0.0267229
0.02658668
0.02645016
0.02631347
0.02617674
0.02604012
0.02590377
0.02576786
0.02563255
0.02549803
0.02536447
0.02523206
0.02510098
0.0249714
0.0248435
0.02471745
0.02459342
0.02447156
0.02435202
0.02423494
0.02412047
0.02400871
0.02389978
0.02379379
0.02369082
0.02359089
0.02349402
0.02340017
0.02330928
0.02322122
0.02313581
0.02305297
0.02297268
0.02289493
0.02281972
0.02274711
0.02267715
0.02260977
0.02254461
0.02248146
0.02242038
0.02236151
0.02230487
0.0222504
0.022198
0.0221476
0.02209914
0.02205252
0.02200767
0.02196448
0.02192285
0.02188268
0.02184389
0.02180638
0.02177007
0.02173492
0.02170085
0.02166786
0.02163591
0.02160502
0.02157519
0.02154645
0.02151883
0.02149239
0.02146717
0.02144321
0.02142058
0.02139933
0.02137948
0.02136109
0.02134417
0.02132874
0.02131481
0.02130236
0.02129138
0.02128184
0.02127371
0.02126694
0.0212615
0.02125733
0.0212544
0.02125264
0.02125201
0.02125247
0.02125395
0.02125641
0.02125979
0.02126406
0.02126915
0.02127503
0.02128165
0.02128896
0.02129692
0.02130548
0.02131461
0.02132427
0.02133442
0.02134503
0.02135607
0.0213675
0.02137931
0.02139148
0.02140399
0.02141681
0.02142996
0.02144341
0.02145717
0.02147124
0.02148563
0.02150033
0.02151538
0.02153076
0.02154654
0.02156272
0.02157937
0.02159665
0.02161465
0.02163383
0.02165422
0.02167696
0.02170116
0.02172707
0.00991347
0.01149981
0.01263926
0.01815309
0.02455602
0.03289128
0.04007892
0.04838758
0.05754216
0.06748103
0.07858629
0.09175088
0.1063471
0.1227371
0.1423134
0.1715838
0.1867332
0.2025016
0.2182538
0.2339095
0.2493647
0.2644948
0.2791807
0.2933425
0.3068707
0.3197442
0.3323044
0.3460656
0.3599122
0.3738454
0.3878393
0.4013692
0.4140295
0.4257657
0.4366556
0.4468016
0.4563051
0.4650326
0.4729377
0.4802355
0.4868942
0.4928958
0.4982123
0.5027775
0.506501
0.5092701
0.5109111
0.5112213
0.5105237
0.5089154
0.5062385
0.5020738
0.4965868
0.490657
0.4831793
0.4748326
0.4657106
0.455765
0.4452557
0.4344196
0.4234494
0.4125262
0.4018045
0.3914262
0.381526
0.3722039
0.3635288
0.3555287
0.3482074
0.3415427
0.3354929
0.3300032
0.3250039
0.3204256
0.3161836
0.3122083
0.3084258
0.3048222
0.3013521
0.2979679
0.2945094
0.2910162
0.2875431
0.2841195
0.280788
0.2775837
0.2745321
0.2716437
0.2689176
0.266338
0.2638878
0.2615425
0.2592581
0.2569829
0.2546674
0.2522671
0.2497461
0.2470798
0.244254
0.2412624
0.2381091
0.2348061
0.2313506
0.2277441
0.2239976
0.2201224
0.216133
0.2120482
0.2078905
0.2036844
0.1994572
0.1952379
0.191054
0.1869302
0.1828907
0.178958
0.1751527
0.1714934
0.1679966
0.1646759
0.1615425
0.1586047
0.155868
0.1533334
0.150998
0.1488535
0.1468862
0.1450781
0.1434041
0.1418355
0.1403437
0.138903
0.1374934
0.1360995
0.1347091
0.1333134
0.1319058
0.1304807
0.1290328
0.1275575
0.1260502
0.1245076
0.1229269
0.1213066
0.1196458
0.117944
0.1162008
0.1144147
0.1125866
0.1107218
0.1088265
0.1069045
0.1049591
0.1029956
0.101022
0.09904691
0.0970792
0.09512715
0.09319852
0.09130035
0.0894387
0.08761843
0.08584313
0.08411514
0.08243575
0.08080529
0.07922327
0.07768822
0.07619759
0.07474784
0.07333452
0.07195181
0.07059353
0.06925502
0.06793388
0.06663077
0.06535036
0.06409916
0.06288302
0.06170633
0.06057207
0.05948246
0.05843972
0.05744637
0.05650496
0.0556178
0.05478681
0.05401355
0.05329919
0.05264444
0.05204947
0.05151402
0.05103728
0.05061786
0.05025373
0.04994239
0.04968099
0.04946642
0.04929534
0.04916418
0.04906921
0.0490067
0.04897301
0.04896457
0.04897784
0.04900941
0.04905605
0.04911474
0.04918268
0.0492573
0.04933627
0.04941746
0.04949896
0.04957908
0.04965633
0.04972942
0.04979723
0.04985883
0.04991343
0.04996038
0.04999918
0.05002944
0.05005091
0.05006344
0.050067
0.0500616
0.05004727
0.05002404
0.0499919
0.049951
0.04990166
0.04984445
0.04978008
0.04970935
0.04963317
0.04955251
0.04946818
0.04938091
0.04929145
0.04920048
0.04910858
0.04901625
0.04892388
0.04883173
0.04874
0.04864875
0.04855798
0.04846756
0.04837732
0.04828696
0.04819617
0.04810454
0.04801163
0.04791697
0.04782005
0.04772039
0.04761748
0.04751085
0.04740006
0.04728473
0.0471645
0.04703911
0.04690834
0.04677207
0.04663024
0.04648289
0.0463301
0.04617207
0.04600897
0.04584116
0.04566894
0.04549279
0.04531311
0.04513044
0.04494516
0.0447576
0.04456824
0.04437727
0.04418466
0.04399038
0.04379449
0.04359704
0.04339804
0.04319746
0.04299524
0.04279128
0.04258547
0.04237767
0.04216774
0.04195552
0.04174088
0.04152369
0.04130381
0.04108116
0.04085563
0.04062716
0.04039572
0.04016129
0.0399239
0.03968361
0.0394405
0.03919466
0.03894623
0.03869533
0.03844215
0.03818689
0.03792986
0.03767153
0.03741255
0.03715389
0.03689685
0.03664296
0.03639349
0.03614908
0.03590978
0.03567545
0.03544602
0.03522151
0.03500191
0.03478724
0.03457749
0.03437264
0.03417269
0.03397758
0.03378727
0.03360168
0.0334207
0.03324422
0.03307208
0.03290411
0.03274013
0.03257992
0.03242328
0.03226997
0.03211974
0.03197235
0.03182753
0.03168504
0.0315446
0.03140599
0.03126893
0.03113318
0.03099846
0.03086451
0.03073103
0.03059788
0.03046492
0.03033176
0.03019805
0.03006369
0.02992875
0.02979329
0.02965733
0.02952079
0.02938358
0.02924566
0.02910697
0.02896751
0.02882729
0.02868631
0.02854462
0.02840225
0.02825928
0.0281158
0.02797189
0.02782769
0.02768332
0.02753893
0.02739469
0.02725076
0.02710733
0.02696458
0.0268227
0.0266819
0.02654237
0.02640431
0.02626793
0.0261334
0.02600091
0.02587066
0.02574282
0.02561756
0.02549503
0.02537539
0.02525877
0.02514527
0.02503497
0.02492796
0.02482429
0.02472397
0.02462696
0.02453319
0.02444257
0.02435506
0.0242706
0.02418915
0.02411071
0.02403529
0.02396286
0.02389331
0.02382649
0.02376237
0.02370095
0.02364221
0.02358614
0.0235327
0.02348183
0.02343346
0.02338752
0.02334392
0.02330255
0.0232633
0.02322606
0.02319069
0.02315709
0.02312515
0.02309475
0.02306582
0.02303827
0.02301205
0.02298711
0.02296343
0.02294098
0.02291977
0.0228998
0.02288108
0.02286363
0.02284749
0.02283267
0.02281921
0.02280714
0.02279647
0.02278723
0.02277942
0.02277302
0.022768
0.02276434
0.02276199
0.0227609
0.02276101
0.02276228
0.02276463
0.02276803
0.02277241
0.02277771
0.02278388
0.02279088
0.02279865
0.02280714
0.02281631
0.02282612
0.02283652
0.02284748
0.02285895
0.0228709
0.0228833
0.02289611
0.0229093
0.02292286
0.02293674
0.02295094
0.02296542
0.02298019
0.02299522
0.02301051
0.02302605
0.02304185
0.02305791
0.02307424
0.02309086
0.02310777
0.02312502
0.02314262
0.02316063
0.02317909
0.02319808
0.02321768
0.02323804
0.02325926
0.02328166
0.02330527
0.0233308
0.02335732
0.02338395
0.002825188
0.0101966
0.01462968
0.01962854
0.02521039
0.03168992
0.03917562
0.04763483
0.05732145
0.069281
0.08748043
0.09808868
0.1096715
0.1219547
0.1348945
0.148359
0.1622524
0.1764181
0.1906267
0.2047244
0.2186474
0.2343199
0.2499232
0.2652179
0.2801234
0.2945546
0.3084801
0.3218834
0.3348683
0.3474409
0.3595979
0.3717099
0.3841681
0.3967064
0.4093761
0.4219209