/*--------------------------------*- C++ -*----------------------------------*\
| =========                 |                                                 |
| \\      /  F ield         | foam-extend: Open Source CFD                    |
|  \\    /   O peration     | Version:     3.1                                |
|   \\  /    A nd           | Web:         http://www.extend-project.de       |
|    \\/     M anipulation  |                                                 |
\*---------------------------------------------------------------------------*/
FoamFile
{
    version     2.0;
    format      ascii;
    class       volScalarField;
    location    "6.5";
    object      nut;
}
// * * * * * * * * * * * * * * * * * * * * * * * * * * * * * * * * * * * * * //

dimensions      [0 2 -1 0 0 0 0];

internalField   nonuniform List<scalar> 
119952
(
3.720712e-05
2.298248e-05
2.285483e-05
2.573504e-05
2.757495e-05
2.589073e-05
2.497027e-05
2.44176e-05
2.402287e-05
2.366045e-05
2.329799e-05
2.29134e-05
2.24948e-05
2.204559e-05
2.157729e-05
2.110572e-05
2.064597e-05
2.022078e-05
1.981197e-05
1.944646e-05
2.649054e-05
2.476921e-05
2.431822e-05
3.324433e-05
3.134936e-05
3.048371e-05
2.974353e-05
2.944243e-05
2.877751e-05
2.706682e-05
2.628533e-05
2.876598e-05
3.236239e-05
3.588821e-05
3.948446e-05
4.322525e-05
4.71701e-05
5.124602e-05
5.54297e-05
6.280854e-05
0.0002704193
0.0003081749
0.0003495182
0.000392396
0.0004351342
0.0004767188
0.0005167595
0.000554951
0.0005907749
0.0008043649
0.0008344729
0.0008614462
0.0008851636
0.0009056017
0.0009230216
0.0009378999
0.0009506672
0.0009617385
0.0009729373
0.0009824417
0.0009912967
0.001001018
0.00101182
0.00102388
0.001037346
0.001052313
0.001068879
0.001087166
0.0009957627
0.001113945
0.001133439
0.001156794
0.001177068
0.00119013
0.00119971
0.001207411
0.001213429
0.001217491
0.001219257
0.001218486
0.001214978
0.00120866
0.001199675
0.001188412
0.001175524
0.001161939
0.00114886
0.001138008
0.001132225
0.001126888
0.001124313
0.001125612
0.001083019
0.001106216
0.001103397
0.001070543
0.001075761
0.001070742
0.001059836
0.001056868
0.001058872
0.001063419
0.001069454
0.001076534
0.001084395
0.001092861
0.001101755
0.001110906
0.00112015
0.001129337
0.001138319
0.001146925
0.001154938
0.001162168
0.001168524
0.001173961
0.001178454
0.001182034
0.001184754
0.001186677
0.00118784
0.001188243
0.001187893
0.001186818
0.001185081
0.001182746
0.001179795
0.001176319
0.001172414
0.001168135
0.001163533
0.001158649
0.001153518
0.001148148
0.001142538
0.00113671
0.001130674
0.001124437
0.001117997
0.001111356
0.001104516
0.001097483
0.001090266
0.001082881
0.001075368
0.001067912
0.001061243
0.001052584
0.001042524
0.001031956
0.00102122
0.00101053
0.001000029
0.0009897895
0.0009798197
0.0009701015
0.0009606075
0.0009513042
0.0009421554
0.0009331278
0.0009241904
0.0009153171
0.000906485
0.0008976751
0.0008888716
0.0008800615
0.0008712343
0.0008623821
0.0008534989
0.0008445802
0.0008356228
0.0008266244
0.0008175835
0.0008085003
0.0007993759
0.0007902123
0.0007810092
0.0007717811
0.0007625363
0.0007532472
0.0007439458
0.0007346268
0.0007252858
0.0007159237
0.0007065407
0.0006971393
0.0006877205
0.0006782857
0.0006688331
0.0006593649
0.0006498794
0.000640383
0.0006308754
0.0006213751
0.0006118898
0.0006025277
0.0005947249
0.0004927095
0.0004800746
0.0004541163
0.0004261651
0.0004057889
0.0003900861
0.0003773527
0.0003665743
0.000357136
0.0003486474
0.0003408525
0.000333586
0.0003267303
0.0003202019
0.000313942
0.0003079125
0.0003021197
0.0002965399
0.0002911044
0.0002858181
0.0002806749
0.0002756677
0.0002707913
0.0002660414
0.000261415
0.0002569102
0.0002525239
0.0002482575
0.0002441105
0.0002400856
0.0002361884
0.0002324296
0.0002288364
0.0002254957
0.0002225628
0.0002224444
0.000219404
0.0002220065
0.0002247246
0.0002282043
0.000231821
0.0002356077
0.0002395266
0.0002435277
0.0002475935
0.0002516931
0.000255839
0.000259984
0.0002641281
0.0002682629
0.0002723819
0.0002764807
0.0002805558
0.000284605
0.0002886269
0.0002926199
0.0002965839
0.0003005184
0.0003044234
0.0003082996
0.0003121426
0.0003159414
0.0003197438
0.0003235028
0.0003272343
0.0003309414
0.0003346311
0.0003381293
0.0003416487
0.0003457511
0.0004461385
0.0004255462
0.0004500497
0.0004647518
0.0004703956
0.0004755991
0.0004806322
0.0004855144
0.0004902521
0.0004948506
0.0004993033
0.0005036376
0.0005078522
0.0005119566
0.0005159635
0.0005198809
0.0005237166
0.0005274778
0.000531171
0.000534802
0.0005383761
0.0005418981
0.0005453725
0.0005488038
0.0005521962
0.0005555531
0.0005588782
0.000562175
0.0005654468
0.0005686965
0.0005719267
0.0005751397
0.0005783375
0.0005815218
0.000584694
0.000587855
0.0005910053
0.0005941448
0.0005972726
0.0006003871
0.0006034856
0.0006065624
0.0006096086
0.0006126092
0.0006155507
0.0006183845
0.0006208326
0.0006230219
0.0006251571
0.0006272249
0.000629214
0.0006311346
0.0006329985
0.0006352214
0.0006375627
0.000638111
0.0006385489
0.0006390372
0.0006395988
0.0006402319
0.0006409178
0.0006416476
0.0006424164
0.0006432193
0.0006440536
0.0006449151
0.0006458008
0.00064671
0.0006476405
0.0006485901
0.0006495571
0.0006505406
0.0006515408
0.00065256
0.0006536021
0.0006546706
0.0006557676
0.0006568945
0.0006580531
0.0006592464
0.0006604784
0.0006617532
0.000663074
0.0006644436
0.0006658646
0.0006673386
0.0006688665
0.0006704487
0.0006720857
0.0006737777
0.0006755239
0.0006773227
0.0006791721
0.0006810704
0.0006830166
0.0006850103
0.0006870508
0.0006891377
0.0006912699
0.0006934461
0.0006956648
0.0006979245
0.0007002241
0.0007025621
0.0007049377
0.0007073499
0.0007097977
0.0007122804
0.0007147971
0.000717347
0.0007199297
0.0007225446
0.0007251914
0.0007278702
0.0007305811
0.0007333245
0.0007361012
0.0007389122
0.0007417587
0.0007446428
0.0007475662
0.0007505321
0.0007535431
0.0007566044
0.0007597199
0.0007628985
0.0007661466
0.0007694755
0.0007728977
0.000776438
0.0007801163
0.0007839772
0.0007880648
0.0007924805
0.0007973803
0.0008030846
0.0008100196
0.0008198271
0.0006241918
5.566854e-05
6.186334e-05
7.353467e-05
8.458154e-05
9.419818e-05
0.0001027185
0.0001104988
0.0001177532
0.0001259992
0.0004046625
0.0005650077
0.0007263797
0.0008732896
0.001001111
0.001110519
0.001204836
0.001287583
0.001361673
0.00193405
0.002014184
0.002094335
0.002169327
0.00223782
0.002299204
0.002353103
0.002399396
0.002438228
0.002469311
0.002495363
0.002514201
0.002527597
0.002538361
0.002547804
0.002556663
0.002565494
0.002574775
0.002584805
0.002587869
0.002581533
0.002578235
0.002580203
0.002586705
0.002597299
0.002611418
0.002628487
0.002647902
0.002669198
0.002691571
0.002714202
0.00273711
0.002759433
0.002780427
0.002799435
0.002815771
0.002828922
0.002837842
0.003316846
0.003313099
0.003306325
0.003298818
0.003290296
0.003280342
0.003268477
0.003252158
0.003229165
0.003199487
0.003164708
0.003126407
0.003085405
0.003043275
0.003002102
0.002963371
0.002929168
0.002900252
0.002877624
0.002854205
0.002830008
0.002813533
0.002801487
0.002790583
0.002780025
0.002770487
0.002762044
0.002754109
0.002746012
0.002737101
0.002726766
0.002714428
0.002699616
0.002681969
0.002661335
0.002637735
0.002611509
0.002583202
0.002553689
0.002523526
0.002492326
0.002461301
0.002431556
0.00239882
0.002361534
0.002321096
0.002272779
0.002228131
0.002182164
0.002144645
0.002113798
0.002088573
0.002063198
0.002027811
0.00200024
0.001979146
0.001964624
0.001956519
0.001954272
0.001957269
0.001964939
0.001976689
0.001992067
0.002010778
0.002032406
0.002056586
0.002082757
0.00211065
0.002140226
0.002170594
0.002190245
0.002209565
0.002228669
0.002247506
0.002266022
0.002284155
0.002301839
0.002319036
0.002335732
0.002351933
0.002367652
0.002382903
0.002397705
0.002412069
0.00242599
0.002439481
0.002452541
0.002465162
0.002477339
0.002489069
0.002500344
0.00251116
0.002521513
0.002531407
0.002540863
0.002549938
0.002558777
0.002567602
0.002576245
0.002584383
0.002591969
0.002599026
0.00260554
0.002611499
0.002616902
0.002621756
0.002626072
0.002629863
0.002633143
0.002635927
0.002638228
0.002640062
0.002641439
0.002642368
0.002642859
0.002642916
0.002642544
0.002641748
0.002640531
0.002638896
0.002636848
0.002634391
0.00263153
0.002628271
0.002624622
0.002620591
0.002616189
0.002611425
0.002606316
0.002600869
0.00259509
0.002588993
0.002582595
0.002575905
0.002568925
0.002561668
0.002554128
0.002546326
0.002538244
0.002529916
0.002521298
0.00251246
0.002503314
0.00249402
0.002484416
0.002474922
0.0024654
0.002459688
0.002355452
0.002239036
0.002159332
0.002102663
0.002060575
0.002027825
0.002001116
0.001978343
0.001958141
0.001939618
0.001922186
0.001905468
0.001889207
0.001873236
0.001857458
0.001841811
0.001826275
0.001810831
0.001795455
0.001780141
0.001764892
0.001749714
0.001734621
0.001719629
0.001704761
0.001690038
0.00167549
0.001661149
0.001647054
0.001633255
0.001619818
0.001606847
0.001594529
0.001583256
0.00157428
0.00156787
0.001563792
0.001561534
0.0015603
0.001559805
0.001559893
0.001560454
0.001561402
0.001562676
0.001564229
0.00156602
0.001568019
0.001570196
0.001572525
0.001574985
0.001577553
0.001580211
0.001582943
0.001585733
0.001588567
0.001591432
0.001594317
0.00159721
0.001600103
0.001602985
0.00160585
0.001608688
0.001611492
0.001614255
0.001616972
0.001619632
0.001622232
0.001624758
0.001627175
0.001629201
0.001925312
0.001932442
0.001939479
0.001945877
0.001951527
0.00195648
0.001960821
0.001964627
0.001967968
0.001970913
0.001973525
0.001975858
0.001977947
0.001979824
0.001981517
0.001983049
0.001984442
0.001985713
0.001986877
0.001987949
0.001988942
0.001989868
0.001990738
0.001991564
0.001992355
0.001993122
0.001993873
0.001994617
0.001995363
0.001996118
0.001996887
0.001997679
0.001998496
0.001999343
0.002000223
0.002001136
0.002002083
0.002003061
0.002004064
0.002005086
0.002006113
0.002007133
0.002008122
0.00200907
0.002009913
0.002010574
0.002010949
0.002011093
0.002011072
0.002010954
0.002010684
0.002010313
0.002009831
0.002009797
0.002009573
0.002008487
0.002006941
0.002005271
0.002003539
0.002001742
0.001999877
0.001997935
0.0019959
0.001993753
0.001991478
0.001989065
0.00198651
0.001983813
0.001980976
0.001978009
0.001974919
0.001971722
0.001968434
0.001965076
0.001961672
0.001958248
0.001954828
0.00195144
0.00194811
0.001944867
0.001941736
0.001938745
0.001935918
0.001933278
0.001930845
0.001928638
0.001926672
0.001924962
0.001923518
0.001922349
0.001921459
0.001920853
0.001920531
0.001920494
0.001920741
0.00192127
0.001922077
0.001923159
0.001924511
0.001926126
0.001927997
0.001930116
0.001932475
0.001935066
0.001937881
0.00194091
0.001944144
0.001947576
0.001951196
0.001954996
0.001958969
0.001963106
0.001967402
0.001971849
0.001976444
0.001981181
0.001986059
0.001991073
0.001996227
0.002001516
0.002006949
0.002012523
0.002018253
0.002024135
0.0020302
0.002036439
0.002042905
0.002049581
0.00205656
0.002063817
0.002071513
0.002079612
0.002088395
0.002097789
0.002108201
0.002119534
0.002133341
0.002151357
0.00217281
2.860559e-05
3.360862e-05
4.109186e-05
4.956092e-05
5.917057e-05
7.00586e-05
8.253192e-05
9.673179e-05
0.000112877
0.0001403827
0.0006928643
0.0008210924
0.000956984
0.00110276
0.001261167
0.00143578
0.001638633
0.001912159
0.002466525
0.003900393
0.004109233
0.004288342
0.004444045
0.004571685
0.00469081
0.004800853
0.004905115
0.005017316
0.005331948
0.005610337
0.005693828
0.00574891
0.00579243
0.005828132
0.005857578
0.005882722
0.00590547
0.005928998
0.005839251
0.005854137
0.005900328
0.00595008
0.005994176
0.006029715
0.00605621
0.006075533
0.006089545
0.006099666
0.006106817
0.006114051
0.006121631
0.006129538
0.006137166
0.006143656
0.006147963
0.006147854
0.006772442
0.006765174
0.006748413
0.006724499
0.006694521
0.006658692
0.006617265
0.006570473
0.006518846
0.006462559
0.0064021
0.006338904
0.006273567
0.006206688
0.006139191
0.006071929
0.006005724
0.005941388
0.005879557
0.00582038
0.005764278
0.005712024
0.005663855
0.005619638
0.005579428
0.005543139
0.00551064
0.005481582
0.005455708
0.005432984
0.005412465
0.005393621
0.005375761
0.005358512
0.005340804
0.005322554
0.005302208
0.005282476
0.005254269
0.00522639
0.005196456
0.005159515
0.005116585
0.005068079
0.005014377
0.004955483
0.004891645
0.004823147
0.00475038
0.004674238
0.00459605
0.004517016
0.00443891
0.004362877
0.004290997
0.004223734
0.004162831
0.004106098
0.004052304
0.004005376
0.00396533
0.00393041
0.003899554
0.003872675
0.003849514
0.00382945
0.003811713
0.003795475
0.003779904
0.003764186
0.003747587
0.003729436
0.003709219
0.003686517
0.003661131
0.003632934
0.003602124
0.003568743
0.003532331
0.003493044
0.003451067
0.003404608
0.003352197
0.003294627
0.003231767
0.003164793
0.003097332
0.003033027
0.002972958
0.002917189
0.002866042
0.002819662
0.002778139
0.002741569
0.002710004
0.002683441
0.002661819
0.00264501
0.002632837
0.002625069
0.002621412
0.002621526
0.002625013
0.002625442
0.002625437
0.002630725
0.002640834
0.002655328
0.002673813
0.002695713
0.002720427
0.002747785
0.002777422
0.002806529
0.002830412
0.002854598
0.002879008
0.002903574
0.002928238
0.002952949
0.002977663
0.003002339
0.003026932
0.0030514
0.003075706
0.003099813
0.003123684
0.003147282
0.003170574
0.003193526
0.003216106
0.003238285
0.00326004
0.00328135
0.003302187
0.003322454
0.003342259
0.003361652
0.003380545
0.00339889
0.003416678
0.003433889
0.003450548
0.003466629
0.003482123
0.003497026
0.00351134
0.003525065
0.003538208
0.003550773
0.003562769
0.003574203
0.003585086
0.003595424
0.00360523
0.003614512
0.003623282
0.003631541
0.003639318
0.00364661
0.003653429
0.003659785
0.003665688
0.003671148
0.003676168
0.003680771
0.003684958
0.003688729
0.003692107
0.003695086
0.003697673
0.003699866
0.003701672
0.003703088
0.003704118
0.003704751
0.003704997
0.003704828
0.00370427
0.003703266
0.00370188
0.003699998
0.003697769
0.003694967
0.003691962
0.003687943
0.003675868
0.003668042
0.00366249
0.003657994
0.003653843
0.003649577
0.00364491
0.003639672
0.003633769
0.003627148
0.003619774
0.003611608
0.003602636
0.00359291
0.003582474
0.003571377
0.003559671
0.003547406
0.003534633
0.003521404
0.003507777
0.003493809
0.00347956
0.003465103
0.003450502
0.003435829
0.003421161
0.003406583
0.003392189
0.003378091
0.003364428
0.003351375
0.003338798
0.0033268
0.003315603
0.003305597
0.003297089
0.003289915
0.003283748
0.003278434
0.003273865
0.003269951
0.003266616
0.003263804
0.00326147
0.003259576
0.00325809
0.003256984
0.00325623
0.003255804
0.003255681
0.00325584
0.003256258
0.003256914
0.003257786
0.003258856
0.003260102
0.003261507
0.003263051
0.003264719
0.003266489
0.00326835
0.003270279
0.003272269
0.003274293
0.003276353
0.003278415
0.003280494
0.003282505
0.003285433
0.003280589
0.003276483
0.003272591
0.003268894
0.003265579
0.003262756
0.003260399
0.003258422
0.003256739
0.00325529
0.003254029
0.003252922
0.003251938
0.003251052
0.003250243
0.003249494
0.003248793
0.003248131
0.003247504
0.003246908
0.003246342
0.003245807
0.003245308
0.003244846
0.00324443
0.003244064
0.003243755
0.003243512
0.003243342
0.003243253
0.003243251
0.003243343
0.003243536
0.003243834
0.003244242
0.003244761
0.003245391
0.00324613
0.003246974
0.003247913
0.003248936
0.003250025
0.003251162
0.003252312
0.003253434
0.003254467
0.00325536
0.003256092
0.0032567
0.003257198
0.003257603
0.003257893
0.003258079
0.00325807
0.003257798
0.003257381
0.003256918
0.003256393
0.003255719
0.003254825
0.003253684
0.003252296
0.003250663
0.003248781
0.003246637
0.003244222
0.003241526
0.003238544
0.003235273
0.003231717
0.003227882
0.003223782
0.003219434
0.003214863
0.003210097
0.003205171
0.00320012
0.003194983
0.003189804
0.003184623
0.003179486
0.003174435
0.003169511
0.003164755
0.003160204
0.003155893
0.003151852
0.00314811
0.003144691
0.003141614
0.003138897
0.003136553
0.003134593
0.003133023
0.003131849
0.003131075
0.003130702
0.00313073
0.003131155
0.003131973
0.003133178
0.003134763
0.003136719
0.003139035
0.003141703
0.003144709
0.003148044
0.003151694
0.003155647
0.003159891
0.003164414
0.003169204
0.00317425
0.003179541
0.00318507
0.003190828
0.003196808
0.003203008
0.003209423
0.003216056
0.003222904
0.003229977
0.003237278
0.003244825
0.003252626
0.003260714
0.003269104
0.003277848
0.003286978
0.003296578
0.003306705
0.003317492
0.003329039
0.003341543
0.003355175
0.003370289
0.003387373
0.003406747
0.003427513
3.806567e-05
5.904388e-05
0.0001402216
0.0004577621
0.0007753544
0.001355798
0.00182075
0.002376617
0.003010739
0.003507633
0.003853011
0.00412034
0.004394325
0.004677349
0.004962374
0.005246532
0.005532086
0.005821123
0.006113537
0.006406973
0.006696854
0.006975659
0.007218097
0.007428268
0.007621011
0.00779899
0.007961304
0.008110715
0.008249726
0.008386868
0.008571683
0.009215659
0.008903462
0.008573604
0.008270823
0.007980916
0.007693485
0.00743981
0.007218808
0.006992132
0.006789719
0.006672789
0.006594626
0.006544363
0.006523052
0.006530833
0.006565935
0.006626181
0.006711655
0.006821255
0.006942719
0.007066918
0.007219372
0.007383527
0.00755821
0.00774049
0.007927854
0.008124917
0.008326002
0.008554947
0.008655413
0.008668021
0.008675697
0.00867902
0.008678722
0.00867515
0.008669018
0.008660963
0.008630813
0.008600928
0.008569934
0.008536433
0.008499422
0.008458111
0.008411946
0.00836061
0.008303995
0.008242202
0.008175719
0.008105147
0.008031084
0.007954336
0.007875878
0.007797895
0.00772124
0.00764587
0.007571826
0.007499245
0.007428322
0.007359317
0.007292626
0.007228677
0.007167854
0.007110484
0.007056846
0.007007125
0.006961452
0.006919783
0.00688186
0.006847328
0.006815735
0.006786636
0.006759551
0.006734052
0.006709313
0.006683412
0.006654623
0.006621871
0.006584604
0.006542322
0.006494732
0.006441575
0.006382604
0.006317673
0.006246878
0.00617041
0.006088585
0.00600203
0.00591173
0.005818751
0.005724479
0.005630198
0.0055375
0.005447513
0.005361525
0.005279886
0.005202684
0.005131261
0.005066606
0.005008685
0.004957025
0.004911273
0.004871132
0.004836161
0.004805716
0.004779004
0.00475516
0.0047333
0.004712566
0.004692132
0.004671245
0.004649221
0.004625492
0.004599571
0.004571091
0.004539686
0.004504927
0.004466382
0.004423673
0.004376061
0.004322637
0.00426316
0.004197782
0.004127057
0.00405299
0.003977769
0.003902792
0.00382896
0.003756986
0.003687452
0.003620908
0.003557902
0.003498943
0.003444465
0.003394812
0.003350238
0.003310913
0.003276916
0.003248237
0.003224785
0.003206399
0.003192869
0.003183925
0.003179272
0.003178612
0.00318165
0.003188092
0.003197649
0.003210027
0.003224939
0.003242111
0.003261293
0.003282244
0.003304734
0.003328563
0.003353551
0.00337954
0.003406389
0.003433971
0.003462174
0.003490891
0.003520023
0.003549486
0.003579197
0.003609083
0.003639074
0.003669104
0.003699112
0.00372904
0.003758831
0.003788432
0.003817788
0.00384684
0.003875498
0.003903615
0.003931104
0.003958011
0.003984435
0.00401041
0.004035896
0.00406086
0.004085282
0.004109123
0.004132401
0.004155076
0.004177139
0.004198583
0.004219404
0.004239603
0.00425918
0.004278132
0.004296494
0.004314259
0.00433144
0.004348054
0.004364117
0.004379648
0.004394664
0.004409185
0.004423229
0.004436815
0.004449959
0.004462679
0.004474989
0.004486903
0.004498432
0.004509586
0.004520369
0.004530788
0.004540844
0.004550537
0.004559862
0.004568817
0.004577387
0.004585572
0.004593346
0.004600711
0.004607627
0.004614109
0.004620092
0.004625624
0.004630606
0.004635156
0.004639118
0.004642248
0.004644628
0.004646307
0.004647352
0.004647843
0.004647804
0.004647204
0.004646029
0.004644235
0.004641797
0.004638692
0.004634903
0.00463041
0.004625203
0.004619278
0.004612664
0.004605372
0.004597425
0.004588857
0.004579703
0.004569998
0.004559803
0.00454916
0.004538123
0.004526744
0.0045151
0.004503245
0.004491246
0.004479172
0.004467095
0.004455083
0.004443242
0.004431648
0.004420411
0.004409697
0.004399734
0.004390732
0.004382736
0.004375627
0.004369315
0.004363707
0.004358745
0.004354384
0.00435059
0.004347321
0.004344571
0.004342303
0.004340495
0.004339117
0.004338171
0.004337621
0.004337447
0.004337629
0.004338147
0.00433898
0.004340107
0.004341508
0.004343162
0.004345049
0.004347147
0.004349441
0.004351906
0.004354529
0.004357283
0.004360165
0.004363138
0.004366205
0.004369326
0.004372545
0.004375779
0.004378652
0.004381094
0.004383231
0.004385226
0.004387134
0.004388959
0.004390691
0.004392328
0.004393874
0.004395339
0.004396739
0.004398085
0.004399389
0.004400657
0.004401894
0.004403105
0.004404295
0.004405469
0.004406633
0.004407794
0.004408961
0.004410141
0.004411344
0.004412582
0.004413865
0.004415206
0.004416618
0.004418113
0.004419705
0.004421407
0.004423232
0.004425192
0.004427299
0.004429563
0.004431994
0.004434598
0.004437383
0.004440348
0.004443496
0.004446822
0.004450318
0.004453972
0.004457762
0.004461662
0.004465639
0.004469654
0.004473663
0.004477633
0.004481559
0.004485443
0.004489288
0.004493084
0.004496814
0.004500471
0.004504074
0.004507583
0.00451092
0.004514062
0.004517017
0.004519785
0.004522353
0.004524703
0.004526809
0.004528642
0.00453017
0.004531363
0.004532192
0.004532633
0.004532668
0.004532286
0.004531481
0.004530254
0.004528616
0.004526582
0.004524178
0.004521433
0.004518384
0.004515074
0.004511548
0.004507855
0.004504047
0.004500174
0.00449629
0.004492444
0.004488685
0.004485059
0.004481608
0.004478371
0.004475382
0.004472673
0.004470269
0.004468193
0.004466464
0.004465098
0.00446411
0.00446351
0.004463306
0.004463505
0.004464111
0.004465124
0.004466545
0.004468372
0.0044706
0.004473224
0.004476237
0.004479629
0.004483392
0.004487516
0.004491988
0.004496797
0.004501933
0.004507381
0.004513132
0.004519175
0.0045255
0.0045321
0.004538967
0.004546097
0.004553488
0.00456114
0.004569055
0.004577242
0.004585709
0.004594473
0.004603551
0.004612974
0.004622773
0.004632994
0.004643691
0.004654937
0.004666819
0.004679439
0.004692953
0.004707471
0.004723278
0.004740419
0.004759416
0.004779837
0.004801418
2.280539e-05
3.576485e-05
5.243893e-05
0.0002331912
0.0003750665
0.0006117069
0.0008602151
0.0010898
0.001380712
0.001669504
0.001986333
0.002399707
0.002890355
0.003448302
0.004082935
0.00489753
0.006361639
0.006947299
0.007502378
0.007992861
0.008418624
0.008779571
0.009092325
0.009370895
0.009622524
0.009851565
0.01
0.01
0.01
0.01
0.01
0.01
0.01
0.01
0.01
0.01
0.01
0.01
0.01
0.009704001
0.009205248
0.008706736
0.008662532
0.008351685
0.007980019
0.007658427
0.007344824
0.007038326
0.006770705
0.006536355
0.00632461
0.006151616
0.006036747
0.005965788
0.005926622
0.005917042
0.005937249
0.005985225
0.006061674
0.006159857
0.006285785
0.006431468
0.006593856
0.006777087
0.006977844
0.007201545
0.007440721
0.007716394
0.008023905
0.008364213
0.008731322
0.009125848
0.009409091
0.009446582
0.009477002
0.00950181
0.009522004
0.009538342
0.009550875
0.009558318
0.00956124
0.009559783
0.00955319
0.0095407
0.009521694
0.009495745
0.009462573
0.009422157
0.009374703
0.009320631
0.009260563
0.009195465
0.00912803
0.009059361
0.008987802
0.008913394
0.008837326
0.008760624
0.008684175
0.008608732
0.008535011
0.00846367
0.00839519
0.008329881
0.00826792
0.008209409
0.00815439
0.008102879
0.008054899
0.008010414
0.007969397
0.007931649
0.007896887
0.007864497
0.007833864
0.007804022
0.007774091
0.00774294
0.007709344
0.007672382
0.007631284
0.007585418
0.00753431
0.007477591
0.007414997
0.007346415
0.007271862
0.00719149
0.007105642
0.007014902
0.006920024
0.006821996
0.006721904
0.006621022
0.00652058
0.006421817
0.006325802
0.00623332
0.006145423
0.006063252
0.005987486
0.00591831
0.0058557
0.005799578
0.005749733
0.005705746
0.005667013
0.005632801
0.005602304
0.005574688
0.005549107
0.005524733
0.00550077
0.005476476
0.005451163
0.005424205
0.005395018
0.005363021
0.005327621
0.005288258
0.005244343
0.005195224
0.005140469
0.005080019
0.005014136
0.004943664
0.00486977
0.004793529
0.004715828
0.004637389
0.004558835
0.00448079
0.004403913
0.004328878
0.00425633
0.004186862
0.00412101
0.004059248
0.004001981
0.003949531
0.003902141
0.003859969
0.003823095
0.003791519
0.00376517
0.003743921
0.003727605
0.003716024
0.003708943
0.003706098
0.003707208
0.003711987
0.003720151
0.003731419
0.003745509
0.003762154
0.0037811
0.00380211
0.003824962
0.003849453
0.003875394
0.003902609
0.003930937
0.003960232
0.003990359
0.004021196
0.004052631
0.004084564
0.004116899
0.004149553
0.004182443
0.004215497
0.00424864
0.004281802
0.004314904
0.004347854
0.004380551
0.004412875
0.004444663
0.004475859
0.004506532
0.004536805
0.004566693
0.004596145
0.004625095
0.004653547
0.004681439
0.004708747
0.004735448
0.004761508
0.004786946
0.004811731
0.00483586
0.004859334
0.00488216
0.004904349
0.004925916
0.00494688
0.004967263
0.004987091
0.00500639
0.005025189
0.005043516
0.0050614
0.00507887
0.005095951
0.005112668
0.005129043
0.005145096
0.005160841
0.00517629
0.005191452
0.00520633
0.005220925
0.00523523
0.005249241
0.00526294
0.005276318
0.005289348
0.005302017
0.005314289
0.00532616
0.005337585
0.005348576
0.005359077
0.005369031
0.005378392
0.005387109
0.00539514
0.005402452
0.005409021
0.005414821
0.00541983
0.005424031
0.005427413
0.005429963
0.005431672
0.005432532
0.005432542
0.005431708
0.005430036
0.005427546
0.005424258
0.0054202
0.005415403
0.005409905
0.005403748
0.005396981
0.005389656
0.005381828
0.005373555
0.005364899
0.005355925
0.005346698
0.005337285
0.005327758
0.005318193
0.00530868
0.005299325
0.005290262
0.005281654
0.00527367
0.005266412
0.005259882
0.005254026
0.005248797
0.005244166
0.005240111
0.005236613
0.005233656
0.005231224
0.005229303
0.005227877
0.005226935
0.005226458
0.00522642
0.005226831
0.005227658
0.00522888
0.005230481
0.00523244
0.005234738
0.005237355
0.005240272
0.005243466
0.005246923
0.005250602
0.005254518
0.005258631
0.005262928
0.005267384
0.005271994
0.005276727
0.005281578
0.005286495
0.00529144
0.005296398
0.005301368
0.00530634
0.005311296
0.00531623
0.005321146
0.005326044
0.005330921
0.005335769
0.005340585
0.005345367
0.005350116
0.005354832
0.005359516
0.005364171
0.005368801
0.005373412
0.005378011
0.005382606
0.005387209
0.00539183
0.005396482
0.00540118
0.005405938
0.005410772
0.005415699
0.005420737
0.005425903
0.005431215
0.005436691
0.005442348
0.005448204
0.005454273
0.005460572
0.005467113
0.005473908
0.005480964
0.005488289
0.005495884
0.005503747
0.005511873
0.005520246
0.005528848
0.005537655
0.005546637
0.005555761
0.005564993
0.005574313
0.005583711
0.005593179
0.00560271
0.005612295
0.005621925
0.005631575
0.005641187
0.005650724
0.00566018
0.00566955
0.005678814
0.005687937
0.005696883
0.005705612
0.005714085
0.005722261
0.005730096
0.00573755
0.005744586
0.005751169
0.00575727
0.005762869
0.00576795
0.005772507
0.005776543
0.005780068
0.005783101
0.005785668
0.005787804
0.005789546
0.005790938
0.005792029
0.005792867
0.005793504
0.005793992
0.005794381
0.00579472
0.005795056
0.005795432
0.005795886
0.005796454
0.005797166
0.00579805
0.005799131
0.005800429
0.005801964
0.005803753
0.005805811
0.005808151
0.005810783
0.005813717
0.00581696
0.005820517
0.005824391
0.005828584
0.005833097
0.005837926
0.005843069
0.005848522
0.005854278
0.005860331
0.005866675
0.005873301
0.005880202
0.005887372
0.005894803
0.005902492
0.005910434
0.005918629
0.005927076
0.005935779
0.005944745
0.005953983
0.005963506
0.005973334
0.00598349
0.005994006
0.006004919
0.006016277
0.006028139
0.006040573
0.006053673
0.006067527
0.006082279
0.006098021
0.006114982
0.006133158
0.006152961
0.006173845
0.00619533
2.111673e-05
3.172874e-05
6.382615e-05
0.0001838702
0.0002878888
0.0004418873
0.0005636874
0.0007036464
0.0008706795
0.001037824
0.001237567
0.001498453
0.001802939
0.002171441
0.002655003
0.003548881
0.003983252
0.004452368
0.004945654
0.005459781
0.005996642
0.006544659
0.007087334
0.007610189
0.008098844
0.008545742
0.008976241
0.009445928
0.009877055
0.01
0.01
0.01
0.01
0.01
0.01
0.01
0.01
0.01
0.01
0.01
0.01
0.01
0.01
0.01
0.01
0.01
0.01
0.0097825
0.009494989
0.009185794
0.008847036
0.00850593
0.008212427
0.007821469
0.007432143
0.00708046
0.006751013
0.006451532
0.006189899
0.005957775
0.005765108
0.005616345
0.0055139
0.005457178
0.005440481
0.005462023
0.005519301
0.005611813
0.005738244
0.00589608
0.00608663
0.006305862
0.006558952
0.00684043
0.007168573
0.007546019
0.007983431
0.008471188
0.009000001
0.009592503
0.009806604
0.009874485
0.009933905
0.009986471
0.01
0.01
0.01
0.01
0.01
0.01
0.01
0.01
0.01
0.01
0.01
0.01
0.01
0.01
0.01
0.01
0.01
0.01
0.00999191
0.009929879
0.009863319
0.009793315
0.009720908
0.009647099
0.00957283
0.009498958
0.009426285
0.009355523
0.0092872
0.009221642
0.009159192
0.009100095
0.009044503
0.00899248
0.008944044
0.008899132
0.008857647
0.008819396
0.008784121
0.008751387
0.00872066
0.008691198
0.008662165
0.008632595
0.008601386
0.008567453
0.008529824
0.008487711
0.008440535
0.00838788
0.008329457
0.008265106
0.008194782
0.008118541
0.008036554
0.007949146
0.007856789
0.007760147
0.00766003
0.007557423
0.007453411
0.007349147
0.0072458
0.007144461
0.007046275
0.006952429
0.006863899
0.006781331
0.006705081
0.006635364
0.006572224
0.0065155
0.006464829
0.006419687
0.006379431
0.006343341
0.006310645
0.006280549
0.006252248
0.006224957
0.006197912
0.006170379
0.00614167
0.006111112
0.006078046
0.006041845
0.006001911
0.005957679
0.005908691
0.005854728
0.005795803
0.005732229
0.005664577
0.005593497
0.005519603
0.005443442
0.005365518
0.005286349
0.005206498
0.005126563
0.005047156
0.004968886
0.004892341
0.004818094
0.004746684
0.004678609
0.004614319
0.004554208
0.004498606
0.00444777
0.004401883
0.004361058
0.004325349
0.004294752
0.004269204
0.004248591
0.004232755
0.004221507
0.004214634
0.004211901
0.004213053
0.004217826
0.004225955
0.004237177
0.004251232
0.004267869
0.004286851
0.004307946
0.00433094
0.004355632
0.004381833
0.004409373
0.004438094
0.004467852
0.004498517
0.004529969
0.004562101
0.004594814
0.004628015
0.004661617
0.004695537
0.004729685
0.004763971
0.004798291
0.004832539
0.004866609
0.004900386
0.004933708
0.004966551
0.004999002
0.005031177
0.005063007
0.005094472
0.005125496
0.005156028
0.005186024
0.005215445
0.005244254