/*--------------------------------*- C++ -*----------------------------------*\
| =========                 |                                                 |
| \\      /  F ield         | foam-extend: Open Source CFD                    |
|  \\    /   O peration     | Version:     3.1                                |
|   \\  /    A nd           | Web:         http://www.extend-project.de       |
|    \\/     M anipulation  |                                                 |
\*---------------------------------------------------------------------------*/
FoamFile
{
    version     2.0;
    format      ascii;
    class       volScalarField;
    location    "6.5";
    object      omega;
}
// * * * * * * * * * * * * * * * * * * * * * * * * * * * * * * * * * * * * * //

dimensions      [0 0 -1 0 0 0 0];

internalField   nonuniform List<scalar> 
119952
(
200.6628
242.3789
224.3157
195.4993
174.9741
174.4179
176.4737
179.7478
183.614
187.7897
192.1072
196.4829
200.8548
205.2256
209.6534
214.242
219.1546
224.6187
231.002
239.0398
208.3155
205.9188
208.0453
180.1382
174.1591
171.1826
168.7396
166.7537
162.4994
190.9014
645.5369
538.0757
451.6076
388.6437
341.449
305.0839
276.1266
252.5333
232.8351
211.5045
181.0959
159.6693
144.5317
133.0906
123.9268
116.259
109.6558
103.8775
98.84572
78.14557
75.68341
73.29045
71.02358
68.95713
67.12324
65.52138
64.13461
62.93575
61.97567
61.24411
60.53096
59.85258
59.18346
58.48239
57.7079
56.82094
55.78838
54.49221
53.97834
53.17004
51.72415
50.42129
49.23213
48.17824
47.11534
46.08437
45.12404
44.25443
43.49147
42.84422
42.31981
41.92092
41.64513
41.48397
41.42163
41.43204
41.47681
41.50082
41.46995
41.5412
41.47134
41.41851
41.58997
41.84053
42.12076
42.57666
43.37497
44.1032
44.07939
43.78258
43.339
42.81337
42.22136
41.57929
40.90059
40.19659
39.47766
38.75294
38.03023
37.31586
36.61485
35.9311
35.2678
34.62724
34.01022
33.42033
32.85687
32.32054
31.81059
31.32616
30.86661
30.43137
30.02005
29.63209
29.26695
28.92342
28.60097
28.30026
28.01979
27.75847
27.51553
27.29021
27.08184
26.88962
26.71307
26.55221
26.40663
26.27559
26.15876
26.05581
25.96648
25.89045
25.82735
25.7766
25.73677
25.70211
25.65878
25.69085
25.79833
25.9186
26.03574
26.14359
26.24132
26.33008
26.4119
26.48908
26.56381
26.63802
26.71331
26.79097
26.87205
26.95736
27.04755
27.14312
27.24447
27.35194
27.4658
27.58625
27.71351
27.84775
27.98914
28.13786
28.29409
28.45799
28.62974
28.80954
28.99768
29.19363
29.39741
29.61109
29.83468
30.06773
30.31056
30.56362
30.82746
31.10259
31.38953
31.68887
32.00119
32.32712
32.66716
33.02188
33.39154
33.77614
34.17439
34.57858
34.91809
37.19389
41.27792
44.37897
46.62473
48.29839
49.59749
50.65595
51.56197
52.37306
53.12741
53.85093
54.56093
55.27011
55.98745
56.71953
57.47283
58.24446
59.03059
59.84388
60.68679
61.55967
62.46339
63.39881
64.36701
65.36902
66.40597
67.479
68.58892
69.73667
70.92279
72.14686
73.40671
74.69322
75.96458
77.16177
77.18356
76.0403
74.99296
74.0047
73.05574
72.13321
71.23186
70.34643
69.47404
68.61303
67.7631
66.92425
66.09668
65.28098
64.47793
63.68823
62.91244
62.15106
61.40444
60.67286
59.95645
59.25526
58.56925
57.89829
57.24218
56.60065
55.97351
55.36054
54.76134
54.17555
53.60276
53.04244
52.49532
51.96268
51.44319
40.76925
40.37801
39.89726
39.29697
38.67819
38.06941
37.47745
36.91833
36.40007
35.9247
35.49033
35.0941
34.7322
34.39978
34.09234
33.80566
33.53599
33.28002
33.03498
32.79858
32.56895
32.34464
32.1245
31.90769
31.69361
31.48184
31.27211
31.06428
30.85828
30.65412
30.45185
30.25158
30.05343
29.85753
29.66403
29.4731
29.28491
29.09964
28.91751
28.73875
28.56368
28.39281
28.22702
28.06825
27.92053
27.78767
27.66882
27.55792
27.45323
27.35473
27.26208
27.17604
27.09778
27.02895
27.04596
26.97636
26.91427
26.84814
26.7718
26.68518
26.58952
26.48731
26.38166
26.27537
26.17078
26.06966
25.97328
25.88241
25.79735
25.71808
25.64433
25.57563
25.51137
25.45081
25.39318
25.33771
25.28369
25.23052
25.17761
25.12443
25.07051
25.01542
24.95883
24.90044
24.84005
24.7775
24.71268
24.64554
24.57607
24.50427
24.43021
24.35398
24.27571
24.19551
24.11351
24.02984
23.9446
23.85792
23.76993
23.68076
23.59056
23.49944
23.40755
23.31498
23.22184
23.12824
23.03426
22.93997
22.84544
22.75074
22.65592
22.56101
22.46605
22.37105
22.27602
22.18097
22.08587
21.9907
21.89542
21.79998
21.70432
21.60835
21.51197
21.41504
21.31739
21.21884
21.11913
21.01789
20.91459
20.80864
20.69904
20.58444
20.46231
20.32804
20.1718
19.97229
19.68253
19.25573
19.12951
629.3588
539.2873
494.8505
456.7205
421.5869
390.0218
362.0948
337.4841
314.8438
258.5534
200.5074
168.008
148.2453
135.2093
125.8892
118.7076
112.8181
107.7791
84.9303
80.98059
77.22055
73.73839
70.60491
67.8335
65.39533
63.24928
61.35033
59.64663
58.17429
56.79938
55.44608
54.12027
52.82429
51.56159
50.3339
49.14104
47.97899
47.0895
46.41428
45.60483
44.72056
43.78816
42.82668
41.85557
40.89058
39.94504
39.02775
38.13612
37.28712
36.48732
35.73386
35.02756
34.36963
33.76133
33.20499
32.72119
29.33043
28.99369
28.70314
28.4458
28.21711
28.01355
27.83552
27.69704
27.6084
27.57024
27.57247
27.59782
27.64166
27.69398
27.74296
27.77692
27.78525
27.76524
27.7181
27.66793
27.56047
27.37257
27.15523
26.90553
26.61314
26.27874
25.91374
25.5301
25.13836
24.74871
24.3706
24.01222
23.68023
23.37945
23.11291
22.88164
22.6851
22.52167
22.3915
22.29736
22.24182
22.22426
22.26509
22.39094
22.59273
22.86079
23.19351
23.56008
23.88637
24.18523
24.47868
24.75733
25.01665
25.24935
25.44928
25.61176
25.73264
25.80837
25.83638
25.8153
25.74526
25.62777
25.46528
25.26108
25.01937
24.74499
24.4428
24.11751
23.77373
23.41621
23.04941
22.67708
22.30251
21.92848
21.5573
21.19109
20.83166
20.48017
20.13744
19.80426
19.48113
19.16836
18.86611
18.5744
18.29331
18.02272
17.7624
17.51214
17.27172
17.04089
16.81939
16.60692
16.40319
16.20783
16.02041
15.84042
15.66736
15.50096
15.3421
15.19131
15.04796
14.91181
14.78266
14.66016
14.54394
14.4337
14.32907
14.22971
14.1353
14.04554
13.96015
13.87886
13.80142
13.72762
13.65724
13.59009
13.52598
13.46475
13.40625
13.35031
13.29682
13.24563
13.19663
13.14971
13.10477
13.06169
13.02041
12.98082
12.94287
12.90647
12.8716
12.83823
12.80633
12.77587
12.74682
12.71918
12.69292
12.66807
12.6446
12.62256
12.60188
12.58262
12.56462
12.54786
12.53183
12.51612
12.4993
12.46911
12.78117
13.14639
13.40666
13.59298
13.72796
13.82725
13.90189
13.95956
14.00554
14.04347
14.07583
14.10434
14.13023
14.15424
14.17693
14.19863
14.2196
14.24003
14.26011
14.27999
14.29974
14.31943
14.33908
14.35871
14.37827
14.39776
14.41707
14.4361
14.45461
14.47229
14.48853
14.50226
14.51146
14.51152
14.49112
14.44928
14.39822
14.345
14.28964
14.23215
14.17314
14.11315
14.05255
13.99166
13.93075
13.87003
13.80967
13.74981
13.69056
13.63198
13.57412
13.51702
13.46066
13.40506
13.35019
13.29601
13.2425
13.18962
13.13731
13.08555
13.03427
12.98344
12.93302
12.88297
12.83325
12.78385
12.73479
12.68609
12.63805
12.59326
11.04495
10.97305
10.91289
10.85904
10.80831
10.75931
10.71158
10.66474
10.61844
10.57238
10.52639
10.4804
10.43435
10.38823
10.34203
10.2958
10.24956
10.20337
10.15726
10.1113
10.06553
10.01999
9.974729
9.929793
9.885218
9.841039
9.79729
9.754001
9.7112
9.668915
9.627172
9.585998
9.545417
9.505456
9.466142
9.427506
9.389581
9.352409
9.316035
9.280531
9.245981
9.212531
9.180358
9.149673
9.120621
9.093202
9.067161
9.042248
9.018443
8.995846
8.974488
8.954388
8.935529
8.919219
8.906365
8.892216
8.876877
8.862104
8.848599
8.836438
8.825516
8.815722
8.806977
8.799217
8.792383
8.786419
8.78127
8.776886
8.773219
8.770224
8.767851
8.766046
8.764745
8.763876
8.763364
8.763133
8.763103
8.763194
8.763324
8.763411
8.763375
8.763139
8.762631
8.761779
8.760521
8.758797
8.756555
8.753746
8.750329
8.746271
8.741546
8.736135
8.730024
8.723202
8.715665
8.707412
8.698446
8.688773
8.678407
8.667363
8.65566
8.643318
8.630359
8.616808
8.60269
8.588031
8.572856
8.557192
8.541064
8.524497
8.507514
8.490135
8.47238
8.454262
8.435796
8.416988
8.397846
8.378366
8.358552
8.338384
8.317858
8.296939
8.275614
8.253819
8.231529
8.208639
8.185095
8.16072
8.135397
8.108818
8.080703
8.050435
8.017291
7.980012
7.93717
7.887745
7.832353
7.778214
7.727485
641.2858
558.02
490.4754
440.7055
402.7243
372.9706
349.0403
329.5502
313.3204
292.503
192.6939
178.58
167.1121
157.4224
148.9794
141.3412
133.7691
124.43
107.1896
77.65809
75.91286
74.74989
73.87515
73.29511
72.71204
72.07576
71.36156
70.51138
67.17311
64.49422
63.7539
63.09713
62.39615
61.63916
60.83129
59.96787
59.05381
58.12198
57.87446
56.7543
55.42091
54.10404
52.86791
51.71893
50.64808
49.63997
48.68381
47.77733
46.8901
46.0116
45.13503
44.26457
43.40915
42.57685
41.7738
41.0069
37.82958
37.21299
36.63422
36.0874
35.5687
35.07443
34.60194
34.14895
33.7136
33.29199
32.88134
32.4825
32.09186
31.70507
31.31879
30.93077
30.53897
30.14195
29.73897
29.32908
28.913
28.49315
28.07042
27.64504
27.2189
26.79417
26.37301
25.9575
25.55024
25.15505
24.77307
24.40615
24.05676
23.72728
23.41904
23.13386
22.8698
22.61593
22.42978
22.25917
22.10281
21.97293
21.86911
21.79155
21.73844
21.70797
21.69895
21.71044
21.73929
21.78181
21.83426
21.8926
21.95118
22.00547
22.04944
22.07969
22.08999
22.07907
22.04206
21.96367
21.84678
21.69578
21.51041
21.28992
21.0378
20.76038
20.46457
20.15728
19.84513
19.53432
19.23029
18.93769
18.66009
18.40032
18.16027
17.94181
17.74617
17.57542
17.43331
17.32234
17.24562
17.21269
17.22544
17.28054
17.37159
17.49332
17.62514
17.76422
17.91413
18.07537
18.24534
18.42051
18.59712
18.77156
18.94046
19.10046
19.2481
19.38005
19.49329
19.58527
19.6538
19.69723
19.71458
19.70538
19.6697
19.60806
19.52144
19.41105
19.27845
19.12576
18.95531
18.76944
18.57053
18.36102
18.14312
17.91878
17.6898
17.45783
17.22432
16.99051
16.75748
16.52618
16.29742
16.07178
15.8498
15.63192
15.41847
15.20973
15.0059
14.80712
14.61349
14.42509
14.24195
14.06412
13.8917
13.7251
13.56425
13.40894
13.25894
13.1141
12.97434
12.83971
12.71004
12.58534
12.46547
12.35029
12.23965
12.13339
12.03131
11.93324
11.83898
11.74833
11.66109
11.57705
11.49601
11.41777
11.34213
11.26893
11.19793
11.12899
11.06194
10.99663
10.9329
10.87063
10.80971
10.75
10.69142
10.63392
10.5774
10.52183
10.46717
10.41339
10.36048
10.30843
10.25727
10.20697
10.15762
10.10915
10.0617
10.01511
9.969667
9.92496
9.881581
9.838581
9.797216
9.755844
9.734937
9.703985
9.667409
9.627801
9.587062
9.546372
9.506425
9.467602
9.430086
9.393937
9.359138
9.325692
9.293628
9.262832
9.233171
9.204509
9.176723
9.149702
9.123335
9.097516
9.072144
9.047122
9.022366
8.997754
8.973206
8.948622
8.923886
8.898866
8.873391
8.84723
8.820047
8.791327
8.761057
8.728925
8.69472
8.65889
8.622484
8.585957
8.54922
8.512278
8.475187
8.437992
8.400738
8.363471
8.326233
8.289073
8.252026
8.215128
8.178408
8.14189
8.105594
8.069533
8.033717
7.998151
7.962832
7.92776
7.892926
7.858321
7.823931
7.789745
7.755742
7.721914
7.688233
7.654701
7.621279
7.587999
7.554799
7.521773
7.488664
7.45312
7.43962
7.42402
7.405614
7.384374
7.361109
7.336541
7.311051
7.284784
7.257798
7.230149
7.201895
7.173098
7.143817
7.114099
7.083992
7.053538
7.022782
6.991765
6.960531
6.929121
6.897576
6.865937
6.834244
6.802535
6.770849
6.739222
6.707691
6.676288
6.645049
6.614005
6.583187
6.552626
6.52235
6.492388
6.46277
6.433524
6.404683
6.376276
6.348345
6.320928
6.294083
6.267862
6.242342
6.217568
6.193603
6.170433
6.148045
6.126332
6.105318
6.084952
6.065326
6.046322
6.028021
6.010206
5.993245
5.977051
5.961722
5.947284
5.933637
5.920668
5.908329
5.89663
5.885597
5.875259
5.865633
5.856727
5.848543
5.841074
5.834312
5.828243
5.822845
5.818093
5.813951
5.810381
5.807341
5.804783
5.80266
5.80092
5.79951
5.798376
5.797465
5.796723
5.7961
5.795548
5.795019
5.794469
5.793858
5.793146
5.792298
5.791283
5.790074
5.788644
5.786971
5.785035
5.782818
5.780305
5.777483
5.774342
5.770876
5.76708
5.762953
5.758494
5.753706
5.748593
5.74316
5.737414
5.731365
5.72502
5.718389
5.711482
5.70431
5.696882
5.689206
5.681292
5.673143
5.664768
5.656165
5.647341
5.638286
5.629006
5.61948
5.609711
5.599664
5.589341
5.578679
5.567682
5.556244
5.544366
5.531863
5.518732
5.504645
5.489584
5.472994
5.454917
5.434643
5.412654
5.388337
5.363607
5.339292
382.1999
272.0383
398.0348
175.2994
136.3653
100.6074
86.37392
74.82847
65.42501
61.08619
59.38068
58.45345
57.42835
56.39529
55.40836
54.50665
53.66473
52.86745
52.11285
51.40549
50.7633
50.23256
49.94968
49.84008
49.80724
49.83407
49.91475
50.02726
50.14819
50.24966
50.26054
49.47159
50.02102
50.52544
50.98117
51.39061
51.73983
51.98051
52.12191
52.18813
52.09436
51.85625
51.51308
51.07132
50.53789
49.92238
49.23687
48.49385
47.70549
46.88459
46.0486
45.20486
44.35097
43.49346
42.63836
41.79047
40.95273
40.12788
39.31858
38.52518
37.7498
36.99679
36.26968
35.56957
34.89821
34.25649
33.64655
33.06187
32.53856
32.03955
31.56763
31.12173
30.70009
30.30088
29.92195
29.56085
29.21472
28.88055
28.55585
28.23808
27.92369
27.60977
27.29379
26.97083
26.63956
26.30105
25.95608
25.6055
25.25015
24.89085
24.52901
24.16625
23.80412
23.44405
23.08749
22.73591
22.39112
22.05488
21.72891
21.41511
21.11531
20.83108
20.56345
20.31311
20.08084
19.86982
19.68317
19.5183
19.37417
19.25128
19.14909
19.06705
19.00422
18.9595
18.93171
18.91962
18.92156
18.93556
18.95929
18.99011
19.02478
19.05992
19.09152
19.11575
19.12814
19.12509
19.10225
19.05335
18.97602
18.8702
18.73535
18.57108
18.37881
18.16182
17.92441
17.67125
17.40716
17.13688
16.86491
16.59535
16.33174
16.07713
15.83403
15.60463
15.39073
15.19426
15.01711
14.86103
14.72752
14.61914
14.53653
14.47882
14.44364
14.42925
14.43134
14.44751
14.47789
14.5225
14.58107
14.65246
14.73482
14.82619
14.92474
15.02857
15.1357
15.244
15.35128
15.45538
15.55419
15.64565
15.72772
15.79846
15.85645
15.90062
15.93005
15.94405
15.94229
15.92477
15.89178
15.84379
15.78142
15.70545
15.61685
15.51676
15.40638
15.28689
15.15948
15.02529
14.88539
14.74082
14.59251
14.44132
14.288
14.13328
13.97776
13.82199
13.66646
13.5116
13.35779
13.20537
13.05465
12.90593
12.75957
12.61595
12.47551
12.33847
12.20465
12.07386
11.94612
11.8216
11.70044
11.5827
11.46848
11.35773
11.25052
11.14683
11.04663
10.94984
10.85638
10.76614
10.67902
10.59482
10.51341
10.43463
10.3583
10.28425
10.21228
10.14221
10.07387
10.00706
9.941632
9.877412
9.814254
9.752025
9.690601
9.629877
9.569765
9.510191
9.451103
9.392462
9.334253
9.276462
9.219109
9.162197
9.10578
9.049863
8.994538
8.939786
8.885744
8.832341
8.779789
8.727947
8.677203
8.627447
8.579923
8.533749
8.488304
8.443464
8.399296
8.355866
8.313213
8.271309
8.230185
8.189853
8.150323
8.111602
8.073673
8.036496
8.000048
7.964252
7.929081
7.894482
7.860396
7.826762
7.793531
7.760612
7.727961
7.695517
7.663229
7.631002
7.59879
7.566518
7.534099
7.501431
7.468399
7.434829
7.400602
7.365618
7.329901
7.293667
7.257306
7.221116
7.185172
7.149403
7.113805
7.078372
7.04311
7.008028
6.973156
6.938472
6.904013
6.869788
6.835825
6.802094
6.768624
6.735416
6.702469
6.669779
6.637339
6.605139
6.573171
6.541418
6.509868
6.478501
6.447307
6.416256
6.38535
6.354546
6.323861
6.293233
6.262739
6.232227
6.201887
6.171374
6.141526
6.111999
6.082787
6.053889
6.025233
5.996705
5.968202
5.939651
5.911007
5.882245
5.853356
5.824338
5.795198
5.765943
5.736581
5.707123
5.677582
5.647973
5.618313
5.58862
5.558913
5.529212
5.499538
5.469913
5.440358
5.410896
5.38155
5.352342
5.323294
5.29443
5.265771
5.237339
5.209157
5.181244
5.153623
5.126317
5.099347
5.072738
5.046516
5.020708
4.995346
4.97046
4.946083
4.922239
4.898955
4.876238
4.854085
4.832468
4.811381
4.790816
4.77079
4.75129
4.732331
4.713946
4.696213
4.67908
4.662464
4.646337
4.630731
4.615686
4.601229
4.587378
4.574147
4.561546
4.549584
4.538266
4.527592
4.517561
4.508168
4.499407
4.491266
4.483731
4.476783
4.4704
4.464557
4.459227
4.454379
4.449982
4.446002
4.442405
4.439154
4.436216
4.433556
4.431139
4.428932
4.426904
4.425023
4.42326
4.421588
4.419979
4.418411
4.416858
4.4153
4.413715
4.412084
4.410388
4.40861
4.406736
4.404752
4.402647
4.40041
4.398034
4.395511
4.392837
4.390008
4.387022
4.383879
4.380577
4.377119
4.373505
4.369739
4.365823
4.361759
4.35755
4.353197
4.348702
4.344065
4.339285
4.334359
4.329285
4.324054
4.318662
4.313093
4.307338
4.301372
4.295178
4.288715
4.281956
4.274831
4.267299
4.259248
4.250618
4.241258
4.231125
4.22006
4.208134
4.195219
4.181793
4.168316
350.4192
232.9757
174.0626
159.0077
128.7445
109.122
93.42599
87.09117
80.08261
75.75923
71.91496
66.97653
62.14633
57.64686
53.56524
49.23835
43.22045
41.71245
40.60421
39.95795
39.70022
39.67705
39.74009
39.8409
39.9735
40.13509
40.32609
40.54677
40.79991
41.09531
41.44172
41.82472
42.23768
42.67673
43.14039
43.63182
44.15225
44.70641
45.29926
45.93615
46.60258
47.20937
47.62431
48.17086
48.73541
49.1939
49.56779
49.85572
49.97784
49.9733
49.85607
49.60755
49.2063
48.66691
48.01625
47.2772
46.46892
45.60916
44.71282
43.79605
42.86825
41.94083
41.02262
40.11853
39.23182
38.36388
37.51637
36.68874
35.883
35.10048
34.34801
33.62638
32.93574
32.27806
31.65427
31.06502
30.51031
29.99015
29.50292
29.04799
28.62525
28.23425
27.87194
27.53475
27.2195
26.92289
26.64165
26.37237
26.11194
25.85728
25.60533
25.3528
25.09279
24.82304
24.54726
24.26592
23.97763
23.68161
23.37761
23.06576
22.74677
22.42208
22.09349
21.76291
21.43241
21.10414
20.78032
20.46304
20.15426
19.85585
19.56939
19.2964
19.03829
18.79652
18.57222
18.36647
18.17957
18.01197
17.86333
17.73301
17.62007
17.52345
17.44223
17.37561
17.3228
17.28297
17.25535
17.23898
17.23266
17.23491
17.24393
17.25755
17.27326
17.28821
17.29933
17.30326
17.29657
17.27547
17.23611
17.1758
17.09291
16.98619
16.85499
16.69975
16.52216
16.32486
16.11102
15.8842
15.6481
15.4064
15.16263
14.92001
14.6814
14.44928
14.22579
14.01275
13.81177
13.62425
13.45135
13.29399
13.15298
13.02853
12.92023
12.82728
12.74884
12.68366
12.63101
12.59085
12.56326
12.54819
12.54522
12.55363
12.57255
12.60113
12.63847
12.68358
12.73533
12.7925
12.8538
12.91785
12.98322
13.04842
13.112
13.17259
13.22889
13.27964
13.32378
13.36038
13.38873
13.40825
13.41853
13.4193
13.41049
13.39219
13.36463
13.32811
13.28307
13.22999
13.16942
13.10193
13.02812
12.9486
12.86395
12.77472
12.68147
12.58471
12.48492
12.38254
12.27799
12.17167
12.06394
11.95515
11.84564
11.73576
11.62585
11.51626
11.40733
11.29936
11.19273
11.08764
10.98407
10.88191
10.78132
10.68254
10.5858
10.49117
10.39885
10.30895
10.22154
10.1367
10.05438
9.974607
9.897344
9.822518
9.750035
9.679781
9.611622
9.54541
9.480985
9.418176
9.356809
9.296706
9.237692
9.179594
9.122248
9.065501
9.009214
8.95326
8.897531
8.84194
8.786414
8.730908
8.675386
8.619843
8.564281
8.508731
8.453222
8.39782
8.342569
8.287562
8.23285
8.17856
8.124749
8.071583
8.019125
7.967485
7.916746
7.86696
7.818126
7.770241
7.723306
7.677314
7.632255
7.58812
7.544895
7.502563
7.461094
7.420453
7.380599
7.341489
7.303079
7.265313
7.228137
7.191493
7.155323
7.119564
7.084156
7.049039
7.014153
6.979438
6.944837
6.91029
6.875734
6.841109
6.806345
6.771376
6.736135
6.70057
6.664662
6.628447
6.592046
6.555656
6.519465
6.483549
6.447905
6.412507
6.377351
6.342442
6.307791
6.273407
6.2393
6.205481
6.171956
6.138733
6.105819
6.07323
6.040933
6.008945
5.977262
5.945874
5.91477
5.883938
5.853362
5.823027
5.792911
5.762996
5.733277
5.703706
5.674272
5.644967
5.615755
5.586636
5.557569
5.528556
5.499515
5.470461
5.441422
5.412414
5.383411
5.354376
5.325297
5.296182
5.267036
5.237855
5.208632
5.179362
5.150042
5.120672
5.091252
5.061786
5.032279
5.002738
4.973171
4.94359
4.914006
4.884435
4.85489
4.825389
4.795947
4.766585
4.737319
4.708169
4.679156
4.650297
4.621613
4.593124
4.564849
4.536808
4.509018
4.481501
4.454274
4.427357
4.400771
4.374535
4.34867
4.323199
4.298143
4.273522
4.249351
4.225647
4.202417
4.179664
4.157383
4.135572
4.114231
4.093365
4.072979
4.053085
4.033698
4.014821
3.996429
3.978509
3.961072
3.944143
3.927735
3.911857
3.896516
3.881722
3.867484
3.853813
3.840716
3.828198
3.816263
3.804911
3.79414
3.783945
3.774317
3.765247
3.75672
3.74872
3.74123
3.73423
3.727699
3.721613
3.715949
3.710684
3.705793
3.701251
3.697034
3.693117
3.689476
3.686088
3.68293
3.679979
3.677215
3.674616
3.672162
3.669833
3.667609
3.665473
3.663405
3.661389
3.659408
3.657449
3.655495
3.653535
3.651557
3.64955
3.647505
3.645415
3.643272
3.641072
3.638808
3.636479
3.634081
3.631611
3.629069
3.626452
3.62376
3.620992
3.618145
3.615217
3.612208
3.609112
3.605927
3.602646
3.599265
3.595772
3.59216
3.588414
3.584519
3.580453
3.576195
3.57171
3.566969
3.561923
3.556535
3.550749
3.544536
3.537841
3.530681
3.523012
3.515015
3.507008
173.1816
127.4575
198.0263
98.72772
85.29687
74.43364
71.10132
68.7669
66.0888
65.02168
63.50065
61.2304
58.98541
56.52332
53.60195
48.34871
46.87959
45.48178
44.13042
42.84229
41.58406
40.41384
39.3915
38.54602
37.89068
37.41562
37.02043
36.63648
36.43923
36.43941
36.6076
36.87929
37.19349
37.52439
37.86285
38.20541
38.55134
38.91231
39.29473
39.69045
40.0961
40.511
40.93759
41.37821
41.83586
42.315
42.82003
43.35039
43.8947
44.44727
45.00153
45.52179
45.96239
46.45199
46.91942
47.22445
47.39317
47.42066
47.29276
47.01966
46.60253
46.04648
45.36183
44.56545
43.68197
42.73599
41.75146
40.74818
39.74347
38.75112
37.78092
36.84041
35.93346
35.06297
34.22821
33.42967
32.66594
31.94499
31.26717
30.62974
30.03174
29.47153
28.94562
28.45044
27.98548
27.55032
27.1444
26.76685
26.41668
26.09249
25.79292
25.51638
25.2602
25.02127
24.79622
24.58193
24.37538
24.17395
23.97531
23.77722
23.57701
23.36798
23.15379
22.93523
22.71016
22.4768
22.23383
21.98051
21.71672
21.44281
21.15969
20.86874
20.57175
20.27082
19.968
19.66551
19.36565
19.07075
18.78307
18.50471
18.23763
17.98362
17.74429
17.52104
17.31498
17.12692
16.95722
16.80584
16.6722
16.55516
16.45329
16.36519
16.28966
16.22573
16.17262
16.12967
16.09632
16.07194
16.05574
16.04669
16.04348
16.0445
16.04784
16.05132
16.05249
16.04866
16.03699
16.01446
15.97817
15.92563
15.85491
15.76453
15.65366
15.52223
15.37105
15.20174
15.01651
14.81804
14.60922
14.3931
14.17267
13.95076
13.72996
13.51257
13.30057
13.09568
12.89931
12.71262
12.53653
12.37169
12.21853
12.07716
11.9474
11.8289
11.72122
11.62388
11.53667
11.45959
11.39267
11.3359
11.28914
11.25209
11.22438
11.20563
11.19541
11.19321
11.19849
11.21056
11.22872
11.25216
11.27999
11.3113
11.34513
11.3805
11.41642
11.4519
11.48601
11.51788
11.54673
11.57188
11.59274
11.60882
11.61975
11.62529
11.62526
11.61959
11.60827
11.59138
11.56904
11.54143
11.50874
11.47123
11.42915
11.38275
11.33232
11.27811
11.22041
11.15946
11.09553
11.02886
10.95968
10.88824
10.81477
10.7395
10.66268
10.58455
10.50537
10.42539
10.34485
10.26403
10.18321
10.10284
10.02307
9.943854
9.865121
9.78717
9.710167
9.634368
9.559966
9.487128
9.415991
9.346658
9.279199
9.213653
9.150023
9.088287
9.02839
8.970254
8.913774
8.858828
8.805274
8.752958
8.701715
8.651374
8.601762
8.552708
8.504044
8.455615
8.407275
8.358895
8.310363
8.261586
8.212493
8.163035
8.113185
8.06294
8.012313
7.961343
7.910078
7.858593
7.806967
7.755303
7.703704
7.652287
7.601159
7.550425
7.500202
7.45058
7.40162
7.353374
7.305896
7.25923
7.21341
7.168458
7.124384
7.081189
7.038862
6.997383
6.956725
6.91685
6.877719
6.839282
6.801487
6.764279
6.727597
6.691379
6.655561
6.620081
6.584874
6.54988
6.515036
6.480283
6.445561
6.410814
6.375987
6.341031
6.305906
6.270588
6.235079
6.199413
6.16367
6.127964
6.092407
6.057067
6.021957
5.987079
5.952436
5.918041
5.883906
5.850046
5.816474
5.783202
5.750242
5.717604
5.685297
5.653323
5.621692
5.590398
5.55944
5.528811
5.498504
5.468506
5.438805
5.409383
5.380222
5.351317
5.322616
5.294117
5.265795
5.237629
5.209591
5.181661
5.15381
5.126011
5.098236
5.070472
5.042705
5.014897
4.987009
4.959028
4.930958
4.902806
4.874575
4.846259
4.817854
4.789355
4.760763
4.732078
4.703303
4.674442
4.645502
4.61649
4.587415
4.558286
4.529117
4.49992
4.470711
4.441505
4.41232
4.383172
4.354082
4.325067
4.296149
4.267347
4.238681
4.210171
4.181838
4.153702
4.125782
4.098098
4.07067
4.043517
4.016658
3.990113
3.9639
3.938037
3.912541
3.88743
3.862721
3.838424
3.814548
3.791099
3.768079
3.745493
3.723345
3.701635
3.680368
3.659549
3.639183
3.619269
3.599806
3.580795
3.562246
3.544168
3.526569
3.509459
3.492847
3.476744
3.461159
3.446101
3.431578
3.417594
3.404153
3.391257
3.378906
3.367097
3.355826
3.345085
3.334866
3.325157
3.315948
3.307225
3.298973
3.291176
3.28382
3.276886
3.270358
3.264218
3.258449
3.253031
3.247948
3.243179
3.238707
3.234512
3.230579
3.226887
3.223421
3.220161
3.217091
3.214193
3.21145
3.208845
3.206362
3.203986
3.201702
3.199496
3.197354
3.195264
3.193216
3.191199
3.189204
3.187223
3.185248
3.183274
3.181293
3.179302
3.177296
3.175272
3.173225
3.171151
3.169049
3.166914
3.164742
3.162529
3.160272
3.157964
3.1556
3.153172
3.150674
3.148094
3.145422
3.142644
3.139744
3.136704
3.133505
3.130121
3.126533
3.122714
3.118649
3.114316
3.109719
3.104838
3.099758
3.094732
76.76567
54.75254
53.0653
50.57023
49.65563
48.55376
47.76327
47.09531
46.50529
45.38723
42.55722
42.39345
42.20603
41.9909
41.70986
41.359
40.98748
40.63839
40.32654
40.03326
39.59285
38.8782
38.18503
37.51342
36.88427
36.30518
35.80288
35.39484
35.08342
34.86494
34.72739
34.65547
34.66447
34.77457
34.98668
35.2795
35.61522
35.9595
36.29487
36.61287
36.91318
37.22129
37.53447
37.85375
38.18214
38.52336
38.87928
39.25213
39.6439
40.05701
40.49765
40.97615
41.47663
41.99344
42.50771
43.01881
43.51941
43.92644
44.26862
44.51177
44.60896
44.54411
44.30853
43.89716
43.31925
42.59209
41.73794
40.78397
39.75904
38.69275
37.61233
36.54268
35.50203
34.50523
33.5606
32.67302
31.84362
31.07271
30.35754
29.70087
29.10126
28.55261
28.0501
27.58951
27.16631
26.77323
26.40655
26.06438
25.74515
25.44785
25.17174
24.91604
24.67966
24.4612
24.25869
24.06957
23.89087
23.71922
23.55119
23.38307
23.21209
23.03638
22.85517
22.66852
22.47694
22.28029
22.08305
21.88439
21.68215
21.47436
21.25925
21.03543
20.80205
20.55878
20.30581
20.04381
19.77387
19.49753
19.21651
18.93273
18.6483
18.36546
18.08652
17.81376
17.54936
17.29539
17.05384
16.82647
16.61477
16.41993
16.24279
16.08374
15.94258
15.81841
15.70979
15.61495
15.53214
15.45988
15.39705
15.34287
15.29682
15.25852
15.22762
15.20359
15.18571
15.17296
15.16404
15.15739
15.15119
15.14342
15.13184
15.11414
15.08791
15.05075
15.00052
14.93536
14.85377
14.75487
14.63831
14.50441
14.35418
14.18922
14.01153
13.82347
13.62752
13.42626
13.22214
13.01749
12.81438
12.61465
12.41988
12.23134
12.05005
11.87682
11.7122
11.55651
11.40988
11.27228
11.1435
11.02334
10.91156
10.80803
10.71272
10.62563
10.54675
10.476
10.41326
10.35836
10.3111
10.27125
10.23858
10.21276
10.19345
10.18022
10.1726
10.17005
10.17199
10.17778
10.18676
10.19824
10.2115
10.22585
10.24061
10.25515
10.26888
10.28126
10.29184
10.30024
10.30612
10.30926
10.30946
10.30659
10.30058
10.29137
10.27898
10.26341
10.24471
10.22295
10.19819
10.17052
10.14003
10.10681
10.07098
10.03262
9.99183
9.94872
9.903387
9.855933
9.806463
9.755088
9.701926
9.6471
9.590743
9.533
9.474039
9.414065
9.3533
9.291985
9.230437
9.169021
9.107761
9.04647
8.985333
8.924599
8.864487
8.805201
8.746926
8.689817
8.634001
8.579572
8.526595
8.475101
8.425092
8.37654
8.329389
8.283558
8.238942
8.195417
8.152841
8.111062
8.069914
8.029231
7.988845
7.948591
7.908313
7.867865
7.827115
7.78595
7.744277
7.702025
7.659148
7.615621
7.571444
7.526639
7.481249
7.435338
7.388988
7.342296
7.295369
7.248323
7.201274
7.154338
7.107618
7.061206
7.015191
6.969659
6.92469
6.880347
6.836686
6.793745
6.751554
6.71013
6.669478
6.62959
6.590451
6.552036
6.514311
6.477237
6.440765
6.404843
6.369413
6.334416
6.299789
6.26547
6.231395
6.197503
6.163732
6.130024
6.096324
6.062583
6.028757
5.994814
5.960739
5.926533
5.892221
5.857853
5.823499
5.78923
5.755096
5.721124
5.687329
5.653725
5.620328
5.587157
5.55423
5.521566
5.489183
5.457097
5.425324
5.393877
5.362766
5.331999
5.301582
5.271515
5.241797
5.212424
5.183387
5.154676
5.126277
5.098173
5.070362
5.04279
5.015457
4.988338
4.961408
4.934642
4.908012
4.881491
4.855053
4.828671
4.802321
4.775973
4.749591
4.723149
4.696632
4.670034
4.643348
4.616565
4.589673
4.562663
4.535529
4.508266
4.480872
4.453347
4.425691
4.397909
4.370004
4.341984
4.313857
4.285633
4.257325
4.228944
4.200508
4.172031
4.143531
4.115027
4.086538
4.058085
4.029688
4.001369
3.973148
3.945047
3.917088
3.889292
3.861679
3.834271
3.807087
3.78015
3.753478
3.72709
3.701003
3.675232
3.649798
3.624717
3.6
3.575658
3.551698
3.528127
3.50495
3.482175
3.459805
3.437842
3.41629
3.395153
3.374433
3.354131
3.334251
3.314797
3.295776
3.277197
3.259072
3.241412
3.224227
3.207527
3.191321
3.175615
3.160414
3.145724
3.131546
3.117882
3.104732
3.092093
3.079959
3.068326
3.057186
3.046531
3.036352
3.02664
3.017384
3.008575
3.000202
2.992254
2.98472
2.977588
2.970846
2.964478
2.958468
2.952802
2.947462
2.942435
2.937703
2.933253
2.929067
2.92513
2.921426
2.917939
2.914653
2.911551
2.908619
2.905841
2.903203
2.900691
2.898292
2.895993
2.893783
2.891652
2.889589
2.887585
2.885632
2.883723
2.881851
2.880009
2.878192
2.876394
2.87461
2.872835
2.871065
2.869294
2.867518
2.865731
2.863929
2.862106
2.860254
2.858368
2.856438
2.854458
2.852416
2.850301
2.848102
2.845806
2.8434
2.84087
2.838205
2.835399
2.832452
2.829359
2.826103
2.822731
2.81944
104.7063
43.00101
36.34682
35.12633
34.57383
34.40164
34.53183
34.81498
35.20482
35.66323
36.01315
36.1227
36.20068
36.23129
36.22061
36.16344
36.07457
35.95816
35.80294
35.58889
35.29429
34.94611
34.60619
34.28424
33.99521
33.74662
33.55283
33.4192
33.33914
33.30975
33.3264
33.38606
33.49263
33.64669
33.84516
34.07224
34.3045
34.52203
34.71518
34.89088
35.08966
35.30206
35.53242
35.7865
36.06868
36.38158
36.72722
37.10606
37.51831
37.96359
38.43976
38.96205
39.52062
40.1074
40.65346
41.16301
41.60474
41.94233
42.13414
42.16306
42.00546
41.64924
41.09532
40.35804
39.46311
38.44596
37.3443
36.19802
35.04421
33.91442
32.83473
31.82437
30.89509
30.05302
29.29852
28.62881
28.03964
27.5293
27.08754
26.70471
26.37226
26.08192
25.82184
25.58584
25.36991
25.17052
24.9854
24.81342
24.65415
24.50778
24.37439
24.2535
24.14409
24.04403
23.94959