/*--------------------------------*- C++ -*----------------------------------*\
| =========                 |                                                 |
| \\      /  F ield         | foam-extend: Open Source CFD                    |
|  \\    /   O peration     | Version:     3.1                                |
|   \\  /    A nd           | Web:         http://www.extend-project.de       |
|    \\/     M anipulation  |                                                 |
\*---------------------------------------------------------------------------*/
FoamFile
{
    version     2.0;
    format      ascii;
    class       volScalarField;
    location    "6.5";
    object      p;
}
// * * * * * * * * * * * * * * * * * * * * * * * * * * * * * * * * * * * * * //

dimensions      [1 -1 -2 0 0 0 0];

internalField   nonuniform List<scalar> 
119952
(
8447.062
8278.111
8278.189
8349.257
8419.013
8431.432
8456.258
8482.879
8510.434
8537.751
8564.735
8591.134
8616.855
8641.744
8665.725
8688.741
8710.706
8731.347
8749.502
8760.872
8827.987
8823.933
8837.434
8915.688
8927.488
8953.477
8972.657
9000.164
9051.347
9617.84
5709.296
5741.127
5777.198
5820.871
5865.418
5911.486
5959.537
6009.699
6062.193
6094.95
6143.406
6195.476
6252.823
6309.8
6369.181
6430.931
6494.727
6560.776
6627.914
6701.195
6758.49
6818.363
6889.439
6962
7035.16
7108.774
7182.502
7255.781
7326.678
7390.532
7460.914
7528.515
7592.103
7653.636
7713.425
7771.796
7830.439
7897.066
7974.603
7995.637
8028.998
8081.213
8124.788
8157.11
8184.796
8213.279
8241.799
8269.781
8297.287
8324.19
8350.392
8375.793
8400.341
8423.998
8446.735
8468.583
8489.833
8511.444
8536.256
8560.896
8582.709
8616.632
8653.473
8675.252
8693.808
8709.567
8712.299
8687.556
8696.621
8713.31
8727.106
8740.639
8753.385
8765.286
8776.482
8787.068
8797.137
8806.749
8815.936
8824.722
8833.128
8841.183
8848.901
8856.272
8863.315
8870.054
8876.442
8882.544
8888.355
8893.891
8899.149
8904.152
8908.911
8913.438
8917.748
8921.852
8925.759
8929.47
8933.011
8936.384
8939.6
8942.669
8945.6
8948.405
8951.084
8953.655
8956.111
8958.459
8960.711
8962.869
8964.935
8966.909
8968.79
8970.572
8972.24
8973.84
8975.81
8978.197
8980.423
8981.818
8983.176
8984.574
8985.934
8987.263
8988.566
8989.841
8991.09
8992.315
8993.516
8994.696
8995.857
8996.999
8998.124
8999.23
9000.32
9001.393
9002.45
9003.488
9004.509
9005.511
9006.493
9007.454
9008.392
9009.306
9010.194
9011.055
9011.886
9012.689
9013.475
9014.247
9014.946
9015.606
9016.238
9016.832
9017.392
9017.914
9018.397
9018.842
9019.245
9019.605
9019.919
9020.181
9020.379
9020.481
9020.432
9020.19
9020.214
9053.54
9054.16
9054.084
9054.143
9054.193
9054.192
9054.149
9054.064
9053.944
9053.785
9053.586
9053.345
9053.07
9052.751
9052.383
9051.94
9051.422
9050.907
9050.332
9049.683
9048.961
9048.166
9047.292
9046.333
9045.282
9044.127
9042.856
9041.451
9039.888
9038.13
9036.115
9033.741
9030.817
9027.21
9021.552
9014.76
9021.075
9024.969
9027.701
9029.626
9031.234
9032.573
9033.715
9034.719
9035.623
9036.449
9037.216
9037.938
9038.625
9039.288
9039.934
9040.569
9041.2
9041.83
9042.465
9043.108
9043.763
9044.434
9045.123
9045.833
9046.568
9047.329
9048.119
9048.941
9049.799
9050.699
9051.66
9052.731
9053.694
9054.503
9039.175
9034.161
9026.393
9027.768
9029.149
9029.589
9030.382
9031.51
9032.691
9033.88
9035.119
9036.465
9037.859
9039.288
9040.763
9042.28
9043.831
9045.415
9047.029
9048.673
9050.344
9052.041
9053.764
9055.512
9057.285
9059.081
9060.9
9062.743
9064.608
9066.496
9068.407
9070.341
9072.298
9074.279
9076.286
9078.319
9080.381
9082.476
9084.61
9086.789
9089.028
9091.345
9093.776
9096.366
9099.053
9101.382
9102.82
9103.815
9105.04
9106.491
9108.035
9109.666
9111.193
9111.585
9107.061
9112.515
9115.365
9116.597
9118.135
9119.701
9121.16
9122.606
9124.064
9125.531
9127
9128.46
9129.903
9131.327
9132.728
9134.103
9135.45
9136.764
9138.042
9139.281
9140.48
9141.637
9142.75
9143.817
9144.839
9145.814
9146.74
9147.618
9148.446
9149.224
9149.952
9150.628
9151.252
9151.823
9152.34
9152.803
9153.21
9153.561
9153.855
9154.091
9154.267
9154.383
9154.438
9154.43
9154.359
9154.223
9154.021
9153.752
9153.415
9153.009
9152.531
9151.981
9151.358
9150.659
9149.884
9149.031
9148.097
9147.081
9145.979
9144.791
9143.512
9142.139
9140.668
9139.094
9137.412
9135.615
9133.695
9131.642
9129.445
9127.089
9124.558
9121.83
9118.878
9115.658
9112.116
9108.201
9103.822
9098.844
9093.082
9086.196
9077.714
9067.198
9057.131
9062.787
9111.442
7970.105
7860.572
7727.535
7591.631
7453.046
7314.036
7176.251
7040.744
6908.364
6753.918
6629.471
6510.701
6393.279
6283.217
6178.503
6079.273
5986.009
5897.704
5765.221
5705.855
5628.96
5555.925
5496.423
5444.491
5400.044
5363.694
5334.698
5316.012
5302.821
5288.435
5291.119
5299.07
5312.175
5330.533
5353.481
5380.49
5411.342
5449.838
5474.597
5507.981
5551.295
5593.502
5636.994
5682.411
5729.274
5777.348
5824.976
5876.684
5932.963
5987.323
6043.466
6102.157
6163.116
6226.456
6291.605
6359.313
6387.581
6462.11
6530.07
6597.438
6668.059
6741.603
6815.882
6889.561
6961.989
7033.434
7102.824
7169.61
7235.079
7299.185
7361.728
7422.767
7482.749
7541.787
7599.301
7653.142
7698.874
7739.007
7779.288
7818.537
7854.108
7885.928
7915.54
7944.212
7972.352
7999.91
8026.735
8052.747
8077.947
8102.363
8126.046
8149.087
8171.687
8194.188
8217.079
8240.697
8265.133
8290.314
8316.407
8342.017
8363.895
8380.535
8391.663
8397.02
8398.543
8405.048
8415.986
8428.311
8440.994
8453.272
8464.744
8475.496
8485.735
8495.569
8505.005
8514.023
8522.631
8530.852
8538.698
8546.189
8553.362
8560.221
8566.754
8572.964
8578.867
8584.483
8589.828
8594.913
8599.754
8604.36
8608.747
8612.936
8616.928
8620.727
8624.334
8627.772
8631.052
8634.179
8637.164
8640.02
8642.748
8645.363
8647.858
8650.251
8652.544
8654.74
8656.843
8658.857
8660.788
8662.64
8664.428
8666.176
8667.925
8669.729
8671.6
8673.429
8675.076
8676.545
8677.924
8679.265
8680.587
8681.884
8683.152
8684.387
8685.596
8686.781
8687.946
8689.092
8690.22
8691.33
8692.424
8693.502
8694.564
8695.61
8696.639
8697.651
8698.645
8699.62
8700.573
8701.505
8702.413
8703.295
8704.151
8704.978
8705.776
8706.544
8707.283
8707.989
8708.658
8709.287
8709.878
8710.432
8710.948
8711.428
8711.865
8712.266
8712.62
8712.94
8713.204
8713.446
8713.634
8713.85
8714.04
8714.249
8777.895
8777.823
8777.521
8777.626
8777.677
8777.666
8777.619
8777.534
8777.41
8777.248
8777.044
8776.788
8776.528
8776.213
8775.844
8775.424
8774.95
8774.42
8773.833
8773.182
8772.461
8771.667
8770.795
8769.839
8768.791
8767.642
8766.379
8764.987
8763.444
8761.721
8759.774
8757.537
8754.928
8751.999
8749.08
8747.267
8748.26
8750.771
8752.698
8754.298
8755.706
8756.92
8757.98
8758.931
8759.797
8760.595
8761.338
8762.04
8762.712
8763.361
8763.995
8764.621
8765.243
8765.867
8766.496
8767.135
8767.787
8768.454
8769.141
8769.85
8770.583
8771.343
8772.132
8772.953
8773.812
8774.712
8775.66
8776.66
8777.783
8780.091
8720.653
8723.332
8723.587
8722.737
8722.393
8722.892
8723.891
8725.048
8726.228
8727.432
8728.691
8730.018
8731.41
8732.853
8734.338
8735.86
8737.418
8739.008
8740.629
8742.279
8743.958
8745.663
8747.393
8749.149
8750.93
8752.734
8754.561
8756.412
8758.285
8760.18
8762.098
8764.038
8766.001
8767.988
8769.999
8772.035
8774.099
8776.193
8778.321
8780.488
8782.699
8784.955
8787.245
8789.529
8791.722
8793.728
8795.446
8796.917
8798.329
8799.808
8801.333
8802.859
8804.277
8805.35
8805.712
8806.263
8807.822
8809.903
8811.895
8813.596
8815.094
8816.526
8817.965
8819.421
8820.878
8822.322
8823.745
8825.145
8826.522
8827.876
8829.203
8830.5
8831.762
8832.987
8834.174
8835.319
8836.422
8837.481
8838.495
8839.463
8840.383
8841.255
8842.078
8842.851
8843.574
8844.244
8844.863
8845.428
8845.939
8846.396
8846.797
8847.141
8847.427
8847.655
8847.823
8847.93
8847.975
8847.957
8847.876
8847.728
8847.515
8847.234
8846.885
8846.465
8845.975
8845.411
8844.774
8844.061
8843.271
8842.403
8841.454
8840.422
8839.306
8838.102
8836.808
8835.42
8833.934
8832.346
8830.651
8828.841
8826.911
8824.85
8822.649
8820.292
8817.769
8815.051
8812.126
8808.946
8805.491
8801.692
8797.525
8792.888
8787.815
8782.335
8777.011
8772.754
8771.24
8772.83
8778.419
3407.027
3428.763
3469.611
3526.112
3594.096
3675.872
3770.32
3877.031
3995.445
4126.074
4252.262
4406.234
4570.541
4746.604
4934.399
5132.942
5341.109
5558.028
5780.796
6009.741
6246.829
6483.939
6718.357
6945.263
7161.98
7363.228
7544.201
7701.078
7836.575
7934.975
8003.705
8043.354
8054.09
8037.16
7994.598
7929.019
7843.917
7742.433
7619.787
7497.751
7365.378
7228.427
7089.136
6949.651
6811.64
6676.608
6546.002
6419.784
6296.445
6180.583
6068.122
5960.826
5858.94
5762.398
5671.989
5591.391
5412.286
5336.258
5271.486
5210.618
5154.305
5104.499
5062.466
5028.594
5002.804
4984.389
4974.205
4972.049
4975.621
4984.804
4999.868
5020.399
5045.628
5074.807
5107.176
5142.154
5179.048
5216.191
5254.964
5296.317
5339.774
5384.851
5431.304
5479.152
5528.653
5579.972
5632.745
5687.369
5744.021
5802.939
5863.915
5927.128
5992.29
6060.624
6131.799
6200.943
6269.645
6340.854
6413.916
6488.094
6562.557
6636.54
6709.538
6781.259
6851.501
6920.041
6986.928
7052.209
7115.716
7177.509
7237.31
7295.098
7350.296
7402.791
7450.944
7493.373
7533.157
7571.962
7608.536
7641.867
7672.637
7702
7730.541
7758.322
7785.26
7811.329
7836.57
7861.064
7884.898
7908.199
7931.131
7953.909
7976.746
7999.912
8023.511
8047.09
8070.421
8093.008
8113.246
8129.516
8141.919
8151.022
8157.979
8165.639
8175.714
8187.255
8199.358
8211.246
8222.488
8233.068
8243.163
8252.883
8262.232
8271.184
8279.733
8287.89
8295.68
8303.123
8310.228
8317.003
8323.46
8329.612
8335.462
8341.004
8346.263
8351.278
8356.057
8360.603
8364.925
8369.032
8372.94
8376.663
8380.207
8383.584
8386.803
8389.872
8392.802
8395.602
8398.279
8400.838
8403.285
8405.629
8407.875
8410.027
8412.09
8414.07
8415.974
8417.809
8419.587
8421.326
8423.049
8424.776
8426.508
8428.19
8429.764
8431.226
8432.609
8433.953
8435.264
8436.542
8437.788
8439.004
8440.194
8441.361
8442.508
8443.636
8444.746
8445.84
8446.919
8447.982
8449.031
8450.064
8451.083
8452.085
8453.07
8454.037
8454.984
8455.911
8456.814
8457.693
8458.547
8459.373
8460.17
8460.936
8461.671
8462.37
8463.034
8463.663
8464.257
8464.815
8465.335
8465.818
8466.262
8466.667
8467.035
8467.365
8467.662
8467.928
8468.185
8468.442
8468.793
8469.295
8470.157
8470.692
8470.739
8470.607
8470.528
8470.507
8470.478
8470.405
8470.284
8470.121
8469.924
8469.72
8469.428
8469.103
8468.73
8468.307
8467.832
8467.302
8466.712
8466.058
8465.336
8464.543
8463.674
8462.723
8461.685
8460.551
8459.312
8457.959
8456.477
8454.855
8453.085
8451.183
8449.245
8447.38
8445.881
8445.146
8445.418
8446.474
8447.767
8448.986
8450.067
8451.038
8451.93
8452.761
8453.536
8454.263
8454.95
8455.607
8456.241
8456.86
8457.47
8458.075
8458.68
8459.29
8459.908
8460.538
8461.183
8461.846
8462.528
8463.234
8463.965
8464.724
8465.51
8466.331
8467.181
8468.074
8468.99
8469.956
8470.931
8472.05
8472.857
8472.838
8472.999
8473.762
8474.949
8476.295
8477.66
8479.004
8480.33
8481.658
8483.008
8484.397
8485.828
8487.298
8488.801
8490.336
8491.902
8493.498
8495.124
8496.778
8498.459
8500.166
8501.9
8503.658
8505.44
8507.246
8509.076
8510.927
8512.801
8514.697
8516.615
8518.554
8520.516
8522.499
8524.505
8526.535
8528.589
8530.668
8532.775
8534.909
8537.069
8539.245
8541.417
8543.557
8545.632
8547.597
8549.403
8551.032
8552.557
8554.068
8555.606
8557.129
8558.632
8560.19
8562.095
8563.969
8565.445
8566.648
8567.808
8569.018
8570.281
8571.587
8572.934
8574.313
8575.71
8577.11
8578.503
8579.882
8581.243
8582.584
8583.9
8585.189
8586.446
8587.669
8588.855
8590.002
8591.109
8592.173
8593.192
8594.167
8595.095
8595.976
8596.808
8597.591
8598.323
8599.004
8599.633
8600.208
8600.73
8601.196
8601.607
8601.961
8602.257
8602.494
8602.671
8602.787
8602.841
8602.831
8602.758
8602.618
8602.412
8602.139
8601.796
8601.383
8600.899
8600.342
8599.711
8599.005
8598.222
8597.36
8596.418
8595.394
8594.286
8593.091
8591.807
8590.43
8588.958
8587.386
8585.709
8583.922
8582.019
8579.991
8577.83
8575.526
8573.065
8570.433
8567.611
8564.58
8561.313
8557.798
8554.011
8549.988
8545.786
8541.621
8537.769
8534.68
8532.645
8532.384
8534.069
3390.502
3343.063
3301.56
3247.736
3209.104
3153.393
3143.522
3156.505
3184.996
3182.699
3151.966
3134.348
3138.693
3160.751
3198.978
3250.936
3315.818
3392.72
3481.996
3583.335
3695.968
3820.402
3956.298
4104.505
4264.363
4436.159
4619.222
4813.434
5018.05
5228.758
5448.51
5665.992
5902.263
6140.372
6373.241
6598.58
6812.594
7010.757
7190.046
7346.164
7475.387
7572.623
7637.802
7672.284
7677.335
7654.645
7606.595
7536.138
7446.544
7341.44
7224.287
7098.172
6965.414
6828.685
6690.357
6552.36
6416.43
6283.955
6155.931
6032.768
5914.352
5801.036
5692.762
5589.398
5490.904
5397.163
5307.912
5222.622
5139.286
5063.638
4997.501
4936.211
4879.635
4829.817
4788.019
4754.643
4729.617
4712.992
4704.362
4702.727
4707.872
4719.569
4737.293
4760.229
4787.468
4818.316
4852.083
4888.05
4925.354
4964.002
5004.445
5046.705
5090.449
5135.439
5181.631
5229.155
5278.02
5328.409
5380.762
5434.991
5491.164
5549.348
5609.815
5672.362
5737.328
5803.715
5872.303
5942.292
6013.52
6086.023
6159.429
6233.436
6307.737
6381.838
6455.211
6527.531
6598.605
6668.15
6735.971
6802.024
6866.167
6928.313
6988.241
7045.886
7100.937
7153.111
7201.608
7245.866
7287.047
7326.244
7363.249
7397.602
7429.572
7459.852
7488.952
7517.061
7544.211
7570.435
7595.805
7620.422
7644.387
7667.818
7690.838
7713.591
7736.216
7758.832
7781.408
7803.714
7825.447
7846.164
7865.021
7881.208
7894.64
7905.826
7915.319
7924.587
7934.817
7945.999
7957.61
7969.083
7980.074
7990.519
8000.515
8010.141
8019.407
8028.296
8036.794
8044.909
8052.659
8060.057
8067.102
8073.81
8080.213
8086.318
8092.121
8097.63
8102.866
8107.848
8112.585
8117.083
8121.348
8125.388
8129.229
8132.891
8136.378
8139.697
8142.861
8145.877
8148.755
8151.503
8154.129
8156.64
8159.041
8161.34
8163.543
8165.654
8167.679
8169.625
8171.497
8173.305
8175.058
8176.769
8178.45
8180.11
8181.746
8183.338
8184.859
8186.303
8187.666
8188.98
8190.259
8191.506
8192.723
8193.912
8195.076
8196.217
8197.339
8198.443
8199.531
8200.604
8201.663
8202.709
8203.743
8204.762
8205.768
8206.76
8207.736
8208.695
8209.636
8210.556
8211.456
8212.331
8213.182
8214.006
8214.801
8215.566
8216.299
8216.998
8217.663
8218.293
8218.886
8219.443
8219.962
8220.444
8220.888
8221.296
8221.668
8222.008
8222.317
8222.608
8222.887
8223.188
8223.506
8223.884
8224.136
8224.315
8224.492
8224.639
8224.742
8224.799
8224.807
8224.76
8224.665
8224.528
8224.352
8224.139
8223.866
8223.543
8223.173
8222.755
8222.284
8221.76
8221.179
8220.537
8219.83
8219.056
8218.209
8217.287
8216.285
8215.197
8214.02
8212.748
8211.381
8209.921
8208.386
8206.815
8205.277
8203.875
8202.769
8202.135
8202.124
8202.698
8203.591
8204.524
8205.393
8206.201
8206.968
8207.701
8208.4
8209.066
8209.703
8210.318
8210.918
8211.507
8212.091
8212.674
8213.26
8213.853
8214.456
8215.072
8215.705
8216.356
8217.028
8217.724
8218.445
8219.193
8219.97
8220.778
8221.615
8222.485
8223.382
8224.306
8225.241
8226.114
8226.903
8227.807
8228.839
8229.869
8230.847
8231.834
8232.894
8234.036
8235.24
8236.491
8237.786
8239.131
8240.524
8241.964
8243.444
8244.961
8246.513
8248.098
8249.715
8251.362
8253.039
8254.743
8256.474
8258.23
8260.011
8261.817
8263.645
8265.496
8267.37
8269.265
8271.181
8273.119
8275.077
8277.056
8279.056
8281.076
8283.118
8285.18
8287.261
8289.359
8291.468
8293.579
8295.678
8297.746
8299.761
8301.693
8303.514
8305.213
8306.826
8308.405
8309.985
8311.57
8313.175
8314.812
8316.441
8317.848
8319.084
8320.336
8321.695
8323.13
8324.581
8326.023
8327.457
8328.89
8330.321
8331.744
8333.154
8334.546
8335.919
8337.27
8338.595
8339.891
8341.156
8342.385
8343.578
8344.732
8345.845
8346.916
8347.944
8348.927
8349.864
8350.753
8351.595
8352.387
8353.129
8353.82
8354.459
8355.045
8355.577
8356.053
8356.474
8356.838
8357.144
8357.391
8357.578
8357.704
8357.768
8357.768
8357.703
8357.573
8357.376
8357.111
8356.777
8356.372
8355.896
8355.348
8354.725
8354.028
8353.253
8352.401
8351.469
8350.455
8349.359
8348.177
8346.907
8345.547
8344.093
8342.543
8340.892
8339.136
8337.269
8335.287
8333.18
8330.943
8328.566
8326.04
8323.353
8320.498
8317.465
8314.26
8310.895
8307.423
8303.923
8300.548
8297.462
8294.873
8293.033
8292.198
8292.28
3917.599
3862.411
3807.247
3725.88
3652.64
3542.928
3470.55
3396.714
3325.403
3255.539
3188.422
3127.008
3068.157
3014.561
2968.665
2929.306
2833.432
2815.714
2808.355
2804.53
2797.108
2791.549
2794.726
2810.104
2838.546
2880.053
2934.475
3001.032
3078.389
3167.123
3268.602
3381.774
3506.309
3642.436
3790.446
3950.552
4122.421
4305.079
4498.092
4700.519
4911.309
5131.117
5351.152
5581.68
5815.086
6046.193
6270.547
6486.202
6684.297
6863.303
7018.889
7147.159
7244.491
7309.725
7343.748
7348.179
7325.044
7276.907
7206.76
7117.961
7013.817
6897.617
6772.808
6642.17
6508.002
6372.404
6237.466
6104.735
5975.285
5850.257
5730.079
5614.41
5503.473
5397.605
5296.817
5200.698
5108.861
5020.724
4936.459
4856.484
4782.307
4714.548
4652.259
4595.532
4545.62
4503.661
4470.292
4445.73
4429.91
4422.33
4422.511
4430.149
4444.606
4465.018
4490.674
4520.667
4553.982
4589.911
4627.818
4667.203
4707.821
4749.642
4792.621
4836.654
4881.666
4927.692
4974.849
5023.272
5073.184
5124.816
5178.227
5233.561
5290.935
5350.548
5412.352
5476.407
5542.444
5610.698
5680.964
5752.667
5825.433
5899.11
5973.521
6048.369
6123.184
6197.469
6270.856
6343.054
6413.769
6482.767
6549.912
6615.042
6678.014
6738.647
6796.793
6852.212
6904.618
6953.713
6999.314
7041.788
7081.727
7119.337
7154.56
7187.538
7218.667
7248.35
7276.833
7304.234
7330.638
7356.139
7380.844
7404.861
7428.297
7451.256
7473.838
7496.128
7518.164
7539.897
7561.172
7581.72
7601.194
7619.162
7635.224
7649.267
7661.562
7672.531
7682.971
7693.636
7704.712
7715.974
7727.104
7737.871
7748.194
7758.098
7767.629
7776.802
7785.609
7794.039
7802.097
7809.794
7817.138
7824.142
7830.822
7837.191
7843.255
7849.018
7854.492
7859.689
7864.624
7869.308
7873.752
7877.966
7881.964
7885.764
7889.379
7892.816
7896.086
7899.198
7902.164
7904.991
7907.688
7910.263
7912.724
7915.076
7917.327
7919.482
7921.547
7923.529
7925.432
7927.265
7929.034
7930.748
7932.416
7934.044
7935.638
7937.198
7938.714
7940.176
7941.569
7942.905
7944.187
7945.432
7946.639
7947.818
7948.973
7950.104
7951.215
7952.307
7953.383
7954.445
7955.493
7956.53
7957.555
7958.569
7959.571
7960.562
7961.54
7962.504
7963.454
7964.386
7965.3
7966.194
7967.066
7967.914
7968.735
7969.529
7970.293
7971.026
7971.726
7972.392
7973.022
7973.616
7974.173
7974.694
7975.177
7975.624
7976.036
7976.414
7976.762
7977.082
7977.384
7977.672
7977.96
7978.24
7978.515
7978.753
7978.994
7979.211
7979.358
7979.433
7979.457
7979.441
7979.385
7979.287
7979.149
7978.971
7978.751
7978.483
7978.169
7977.809
7977.4
7976.941
7976.429
7975.862
7975.236
7974.55
7973.799
7972.981
7972.094
7971.135
7970.103
7968.996
7967.816
7966.567
7965.262
7963.924
7962.59
7961.318
7960.188
7959.299
7958.755
7958.637
7958.93
7959.496
7960.162
7960.834
7961.492
7962.137
7962.77
7963.387
7963.985
7964.567
7965.135
7965.695
7966.25
7966.804
7967.361
7967.923
7968.495
7969.08
7969.679
7970.296
7970.932
7971.591
7972.274
7972.983
7973.719
7974.483
7975.276
7976.099
7976.949
7977.825
7978.718
7979.618
7980.514
7981.456
7982.453
7983.418
7984.312
7985.218
7986.209
7987.304
7988.483
7989.718
7990.997
7992.314
7993.674
7995.078
7996.522
7998.006
7999.526
8001.08
8002.668
8004.287
8005.935
8007.613
8009.319
8011.051
8012.809
8014.591
8016.398
8018.228
8020.08
8021.954
8023.849
8025.765
8027.701
8029.657
8031.631
8033.624
8035.635
8037.664
8039.708
8041.765
8043.832
8045.901
8047.966
8050.017
8052.036
8054.01
8055.917
8057.745
8059.487
8061.164
8062.802
8064.426
8066.045
8067.658
8069.242
8070.76
8072.2
8073.623
8075.062
8076.519
8077.978
8079.427
8080.862
8082.289
8083.715
8085.138
8086.555
8087.959
8089.349
8090.719
8092.067
8093.391
8094.686
8095.95
8097.181
8098.375
8099.532
8100.649
8101.725
8102.759
8103.748
8104.692
8105.59
8106.44
8107.241
8107.993
8108.694
8109.343
8109.939
8110.481
8110.969
8111.4
8111.775
8112.092
8112.349
8112.547
8112.683
8112.757
8112.768
8112.713
8112.593
8112.406
8112.151
8111.827
8111.433
8110.967
8110.428
8109.816
8109.129
8108.366
8107.525
8106.605
8105.604
8104.522
8103.355
8102.103
8100.763
8099.333
8097.809
8096.189
8094.47
8092.647
8090.717
8088.674
8086.515
8084.234
8081.826
8079.288
8076.62
8073.825
8070.921
8067.929
8064.908
8061.919
8059.083
8056.49
8054.33
8052.688
8051.745
8051.239
4321.472
4265.698
4205.605
4132.059
4071.38
3973.982
3914.094
3852.226
3788.182
3723.24
3657.5
3590.822
3522.495
3452.863
3379.088
3232.513
3158.929
3086.606
3014.999
2944.944
2877.209
2813.082
2752.818
2697.197
2647.822
2605.759
2571.229
2545.886
2528.16
2515.733
2507.729
2506.638
2514.579
2533.137
2563.114
2604.61
2657.512
2722.308
2799.26
2887.471
2986.933
3097.64
3219.504
3352.622
3497.355
3654.044
3821.559
3998.729
4185.614
4382.736
4590.579
4807.756
5028.763
5255.418
5485.882
5714.291
5936.532
6148.551
6344.668
6520.881
6673.107
6797.791
6892.163
6954.915
6986.55
6988.754
6963.857
6914.646
6844.195
6755.85
6652.919
6538.744
6416.494
6289.046
6158.716
6027.407
5897.394
5770.162
5646.493
5526.905
5411.62
5300.889
5194.726
5093.22
4996.43
4903.81
4814.775
4728.905
4646.392
4567.546
4492.865
4423.136
4358.905
4300.69
4249.449
4206.348
4172.331
4147.864
4132.916
4127.121
4129.969
4140.829
4158.874
4183.173
4212.648
4246.286
4283.117
4322.329
4363.244
4405.335
4448.227
4491.727
4535.815
4580.493
4625.756
4671.701
4718.5
4766.363
4815.508
4866.163
4918.516
4972.773
5029.093
5087.648
5148.5
5211.727
5277.296
5345.194
5415.239
5487.023
5560.224
5634.614
5709.919
5785.767
5861.699
5937.243
6011.991
6085.6
6157.763
6228.217
6296.76
6363.19
6427.323
6488.972
6547.961
6604.099
6657.201
6707.141
6753.853
6797.477
6838.359
6876.771
6912.83
6946.672
6978.568
7008.834
7037.722
7065.4
7091.987
7117.598
7142.349
7166.351
7189.705
7212.501
7234.818
7256.706
7278.174
7299.177
7319.592
7339.224
7357.838
7375.188
7391.059
7405.376
7418.293
7430.133
7441.357
7452.407
7463.48
7474.534
7485.422
7495.998
7506.186
7515.979
7525.4
7534.465
7543.171
7551.516
7559.501
7567.133
7574.424
7581.383
7588.018
7594.341
7600.36
7606.082
7611.517
7616.675
7621.571
7626.217
7630.623
7634.801
7638.764
7642.524
7646.094
7649.485
7652.707
7655.772
7658.688
7661.465
7664.112
7666.637
7669.046
7671.347
7673.547
7675.652
7677.668
7679.601
7681.457
7683.244
7684.967
7686.633
7688.249
7689.821
7691.353
7692.844
7694.291
7695.687
7697.027
7698.313
7699.556
7700.758
7701.931
7703.071
7704.186
7705.277
7706.351
7707.408
7708.452
7709.482
7710.501
7711.51
7712.51
7713.5
7714.481
7715.453
7716.414
7717.363
7718.3
7719.222
7720.127
7721.014
7721.881
7722.725
7723.544
7724.337
7725.101
7725.834
7726.535
7727.202
7727.835
7728.431
7728.991
7729.515
7730.002
7730.454
7730.87
7731.254
7731.609
7731.936
7732.241
7732.529
7732.804
7733.066
7733.318
7733.558
7733.777
7733.953
7734.071
7734.134
7734.153
7734.136
7734.082
7733.989
7733.855
7733.681
7733.464
7733.204
7732.899
7732.548
7732.149
7731.701
7731.201
7730.649
7730.041
7729.375
7728.649
7727.862
7727.013
7726.1
7725.125
7724.089
7722.997
7721.859
7720.689
7719.512
7718.36
7717.283
7716.338
7715.592
7715.107
7714.924
7715.034
7715.365
7715.819
7716.323
7716.846
7717.377
7717.911
7718.444
7718.971
7719.493
7720.01
7720.525
7721.04
7721.56
7722.086
7722.621
7723.169
7723.731
7724.31
7724.908
7725.528
7726.171
7726.838
7727.532
7728.254
7729.004
7729.782
7730.589
7731.423
7732.28
7733.159
7734.057
7734.977
7735.923
7736.873
7737.8
7738.723
7739.694
7740.745
7741.873
7743.063
7744.301
7745.579
7746.899
7748.26
7749.663
7751.106
7752.589
7754.108
7755.662
7757.249
7758.868
7760.518
7762.196
7763.903
7765.637
7767.397
7769.181
7770.99
7772.821
7774.675
7776.55
7778.446
7780.362
7782.297
7784.25
7786.22
7788.207
7790.21
7792.226
7794.254
7796.292
7798.334
7800.375
7802.41
7804.43
7806.412
7808.354
7810.25
7812.086
7813.859
7815.577
7817.256
7818.911
7820.548
7822.162
7823.744
7825.293
7826.818
7828.325
7829.813
7831.285
7832.747
7834.201
7835.649
7837.091
7838.53
7839.962
7841.385
7842.794
7844.187
7845.56
7846.911
7848.236
7849.534
7850.801
7852.034
7853.232
7854.394
7855.516
7856.598
7857.637
7858.633
7859.585
7860.491
7861.349
7862.159
7862.921
7863.631
7864.29
7864.897
7865.45
7865.948
7866.39
7866.776
7867.103
7867.372
7867.581
7867.728
7867.813
7867.835
7867.792
7867.683
7867.507
7867.263
7866.95
7866.566
7866.111
7865.584
7864.983
7864.308
7863.557
7862.729
7861.823
7860.838
7859.771
7858.623
7857.391
7856.074
7854.67
7853.176
7851.592
7849.914
7848.14
7846.268
7844.295
7842.22
7840.04
7837.756
7835.37
7832.887
7830.317
7827.683
7825.011
7822.353
7819.759
7817.327
7815.116
7813.28
7811.808
7810.889
7810.192
4352.232
4303.79
4251.538
4182.072
4109.625
4040.852
3974.606
3911.887
3852.133
3791.245
3658.916
3598.15
3537.422
3475.187
3411.052
3345.323
3278.067
3208.962
3138.204
3066.683
2995.95
2923.194
2850.48
2778.133
2706.955
2637.47
2570.577
2506.572
2446.28
2391.155
2342.644
2302.736
2271.29
2247.498
2231.243
2222.902
2223.485
2233.786
2254.534
2286.136
2328.568
2382.075
2446.646
2522.463
2609.365
2707.189
2815.839
2935.205
3065.317
3206.474
3358.737
3520.782
3692.273
3874.109
4066.209
4268.369
4480.014
4697.328
4919.782
5145.429
5369.614
5587.6
5794.711
5985.855
6156.444
6302.507
6420.811
6509.16
6566.612
6593.728
6592.238
6564.667
6513.944
6443.212
6355.761
6254.842
6143.791
6025.445
5902.802
5778.239
5653.74
5530.722
5410.185
5293.685
5181.568
5073.583
4970.202
4871.487
4776.964
4686.149
4598.376
4512.985
4429.617
4348.294
4269.286
4193.224
4121.18
4054.246
3993.302
3939.443
3894.179
3858.948
3834.5
3820.819
3817.452
3823.744
3838.805
3861.531
3890.742
3925.234
3963.841
4005.469
4049.151
4094.083
4139.642
4185.383
4231.058
4276.623
4322.161
4367.787
4413.666
4460.035
4507.161
4555.315
4604.783
4655.838
4708.745
4763.732
4821.005
4880.708
4942.963
5007.811
5075.217
5145.054
5217.061
5290.913
5366.276
5442.77
5519.959
5597.367
5674.513
5750.956
5826.314
5900.252
5972.473
6042.729
6110.761
6176.351
6239.31
6299.466
6356.672
6410.807
6461.795
6509.619
6554.378
6596.297
6635.617
6672.512
6707.145
6739.742
6770.568
6799.862
6827.811
6854.564
6880.253
6905.002
6928.925
6952.124
6974.683
6996.666
7018.112
7039.024
7059.365
7079.046
7097.936
7115.881
7132.731
7148.368
7162.759
7176.007
7188.331
7200.008
7211.314
7222.419
7233.355
7244.066
7254.469
7264.509
7274.173
7283.472
7292.418
7301.014
7309.261
7317.16
7324.718
7331.941
7338.839
7345.419
7351.69
7357.662
7363.341
7368.737
7373.859
7378.719
7383.33
7387.7
7391.842
7395.767
7399.487
7403.015
7406.363
7409.541
7412.559
7415.427
7418.155
7420.752
7423.225
7425.582
7427.831
7429.977
7432.029
7433.992
7435.873
7437.677
7439.411
7441.082
7442.694
7444.254
7445.767
7447.235
7448.659
7450.039
7451.371
7452.653
7453.89
7455.084
7456.24
7457.363
7458.462
7459.536
7460.586
7461.618
7462.633
7463.637
7464.632
7465.617
7466.594
7467.563
7468.526
7469.481
7470.429
7471.369
7472.3
7473.22
7474.128
7475.022
7475.899
7476.758
7477.596
7478.412
7479.202
7479.964
7480.698
7481.4
7482.069
7482.704
7483.304
7483.869
7484.397
7484.89
7485.346
7485.769
7486.159
7486.52
7486.852
7487.159
7487.446
7487.716
7487.969
7488.206
7488.424
7488.612
7488.76
7488.865
7488.926
7488.948
7488.933
7488.881
7488.789
7488.658
7488.487
7488.274
7488.02
7487.721
7487.378
7486.988
7486.551
7486.064
7485.526
7484.936
7484.292
7483.593
7482.838
7482.027
7481.16
7480.241
7479.274
7478.265
7477.225
7476.17
7475.123
7474.113
7473.177
7472.359
7471.704
7471.25
7471.02
7471.007
7471.175
7471.465
7471.826
7472.225
7472.649
7473.088
7473.537
7473.993
7474.451
7474.913
7475.38
7475.853
7476.335
7476.827
7477.331
7477.851
7478.388
7478.943
7479.521
7480.121
7480.745
7481.395
7482.073
7482.779
7483.513
7484.276
7485.068
7485.887
7486.732
7487.602
7488.495
7489.41
7490.341
7491.281
7492.233
7493.213
7494.237
7495.316
7496.451
7497.638
7498.871
7500.147
7501.467
7502.828
7504.231
7505.675
7507.158
7508.677
7510.232
7511.82
7513.441
7515.092
7516.773
7518.483
7520.22
7521.982
7523.77
7525.582
7527.416
7529.273
7531.151
7533.048
7534.965
7536.9
7538.851
7540.819
7542.802
7544.797
7546.803
7548.819
7550.84
7552.861
7554.878
7556.888
7558.886
7560.848
7562.775
7564.668
7566.514
7568.314
7570.066
7571.773
7573.449
7575.104
7576.738
7578.346
7579.933
7581.496
7583.032
7584.542
7586.036
7587.52
7588.999
7590.47
7591.934
7593.388
7594.833
7596.265
7597.682
7599.08
7600.458
7601.813
7603.142
7604.444
7605.715
7606.952
7608.155
7609.321
7610.449
7611.536
7612.582
7613.585
7614.544
7615.458
7616.325
7617.145
7617.916
7618.637
7619.306
7619.922
7620.485
7620.994
7621.447
7621.844
7622.183
7622.463
7622.683
7622.842
7622.939
7622.972
7622.94
7622.843
7622.678
7622.446
7622.145
7621.773
7621.33
7620.815
7620.227
7619.565
7618.827
7618.014
7617.123
7616.154
7615.106
7613.977
7612.768
7611.476
7610.1
7608.639
7607.093
7605.459
7603.737
7601.926
7600.026
7598.037
7595.96
7593.799
7591.559
7589.25
7586.886
7584.49
7582.089
7579.729
7577.453
7575.337
7573.423
7571.824
7570.508
7569.645
7568.912
4096.317
4027.612
3885.237
3822.281
3759.178
3698.504
3639.834
3582.648
3526.168
3469.935
3414.091
3356.256
3296.885
3235.754
3172.801
3107.76
3040.689
2971.47
2900.093
2827.456
2755.488
2682.793
2609.523
2536.233
2463.138
2390.406
2319.231
2250.924
2186.624
2127.466
2075.337
2031.812
1997.062
1970.933
1953.611
1945.426
1946.869
1958.306
1980.034
2012.169
2054.971
2108.388
2172.484
2247.305
2332.839
2428.999
2535.631
2652.556
2779.683
2917.021
3064.014
3220.092
3385.952
3562.591
3749.346
3946.157
4151.938
4364.386
4581.668
4801.354
5019.282
5230.534
5430.104
5613.027
5774.72
5911.409
6020.336
6099.899
6149.687
6170.579
6164.41
6133.795
6081.624
6011.099
5925.338
5827.529
5720.973
5608.52
5492.503
5374.801
5257.854
5142.881
5030.519
4922.578
4819.718
4721.586
4627.963
4538.488
4452.359
4368.763
4286.724
4205.383
4124.348
4043.561
3963.438
3884.97
3809.581
3738.735
3673.577