/*--------------------------------*- C++ -*----------------------------------*\
| =========                 |                                                 |
| \\      /  F ield         | foam-extend: Open Source CFD                    |
|  \\    /   O peration     | Version:     3.1                                |
|   \\  /    A nd           | Web:         http://www.extend-project.de       |
|    \\/     M anipulation  |                                                 |
\*---------------------------------------------------------------------------*/
FoamFile
{
    version     2.0;
    format      ascii;
    class       volScalarField;
    location    "15";
    object      k;
}
// * * * * * * * * * * * * * * * * * * * * * * * * * * * * * * * * * * * * * //

dimensions      [0 2 -2 0 0 0 0];

internalField   nonuniform List<scalar> 
119952
(
0.07920912
0.07504422
0.07380971
0.07193222
0.06988326
0.06809331
0.06719982
0.06672885
0.06644966
0.06625188
0.06607785
0.0658853
0.06564979
0.06536088
0.06501863
0.06462812
0.06419803
0.06374374
0.06332346
0.06323242
0.06564167
0.06297386
0.06212341
0.06443047
0.06106258
0.05903161
0.05749144
0.05619134
0.0539754
0.0237596
0.09977982
0.09664248
0.0942072
0.09288313
0.09251966
0.09286593
0.09363499
0.09462149
0.09567501
0.09676373
0.09243955
0.09284886
0.09559486
0.0992753
0.1031426
0.1067788
0.1100467
0.1129329
0.1154017
0.1270581
0.1282797
0.1290625
0.1294238
0.1295811
0.1297183
0.1299062
0.1301724
0.1304988
0.1307753
0.1314646
0.1318479
0.1319896
0.1320239
0.1319994
0.1319347
0.1318202
0.1316085
0.1314775
0.1337724
0.133447
0.1322948
0.1319599
0.131739
0.1311996
0.1302144
0.1290745
0.1279095
0.126734
0.1255573
0.1243897
0.1232446
0.1221347
0.1210681
0.1200453
0.1190577
0.1180848
0.1170942
0.1160707
0.1152621
0.114529
0.1135865
0.1130128
0.1133594
0.1134024
0.1132
0.113256
0.1132482
0.110941
0.1088797
0.107273
0.1059755
0.1049364
0.104122
0.1035174
0.1031216
0.1028819
0.1027605
0.1027157
0.1027026
0.1026711
0.1025687
0.1023339
0.1019441
0.1014726
0.1009353
0.1003234
0.09964022
0.0988873
0.09806895
0.09719509
0.09628224
0.09535162
0.09442501
0.09352395
0.09266814
0.09187491
0.09115853
0.09052833
0.08998489
0.08951641
0.08910014
0.0887093
0.08832167
0.08792565
0.08752218
0.08712274
0.08674372
0.086398
0.08608675
0.08579404
0.08549362
0.08515087
0.0847303
0.08420899
0.08358827
0.08285934
0.08204945
0.08120967
0.08039946
0.07951682
0.07857448
0.07756913
0.07651369
0.0754344
0.07436056
0.0733237
0.07235154
0.07146476
0.07066348
0.06993553
0.06926337
0.06863945
0.0680656
0.06755069
0.06710724
0.06674805
0.06648299
0.06631243
0.06621853
0.06616313
0.06609756
0.06597747
0.06579038
0.06562588
0.06569739
0.0661092
0.0667224
0.06731392
0.06770252
0.06771447
0.06723916
0.06641227
0.06545603
0.06450674
0.0636023
0.062721
0.06180085
0.06077553
0.05961728
0.05833879
0.05696048
0.0554942
0.05396328
0.05240313
0.05091361
0.04966778
0.04867303
0.04717756
0.0442696
0.0420463
0.04043979
0.03924271
0.03835593
0.0377027
0.03722764
0.03687792
0.03659464
0.03630673
0.03592702
0.03536633
0.03455412
0.03345656
0.03209391
0.03052668
0.02882481
0.02705467
0.02528204
0.02358578
0.022063
0.02079424
0.0198052
0.01908006
0.01859896
0.01835414
0.01834526
0.01857033
0.01902266
0.01969173
0.02056403
0.02162288
0.02284918
0.02422731
0.02584256
0.02807914
0.03048953
0.03286516
0.03514279
0.03734827
0.03955039
0.04178754
0.04404825
0.04631306
0.04866934
0.05101375
0.05323224
0.0552784
0.05710607
0.05867301
0.05994588
0.06090459
0.06154465
0.06187693
0.06192521
0.06172288
0.06130787
0.06071273
0.05996235
0.05908151
0.0580963
0.05703163
0.05590843
0.05474897
0.05357466
0.05239593
0.05121846
0.05004495
0.04887569
0.05309802
0.05171321
0.05026832
0.04880377
0.04740312
0.04608817
0.0448603
0.04371342
0.04263893
0.04162828
0.04067492
0.03977496
0.03892653
0.03812895
0.03738211
0.0366861
0.03604078
0.03544559
0.03489929
0.03439996
0.0339452
0.0335318
0.03315609
0.03281485
0.03250358
0.03222091
0.03195854
0.03171334
0.03148213
0.0312613
0.03104738
0.03083721
0.03062809
0.03041779
0.03020463
0.02998754
0.02976619
0.02954081
0.02931237
0.02908244
0.02885133
0.02862388
0.02840599
0.02819936
0.028011
0.0278496
0.02770005
0.02757994
0.02749481
0.02745096
0.02745543
0.02751014
0.02761252
0.02779204
0.02810573
0.02826031
0.02843159
0.02862278
0.02882309
0.0290212
0.02921058
0.02937836
0.02950431
0.02956402
0.02952874
0.02936868
0.02906396
0.02861308
0.02803639
0.02737106
0.02667413
0.02601413
0.02545487
0.02505029
0.02483739
0.02483211
0.025033
0.02542795
0.02599735
0.02671477
0.02755116
0.02847693
0.02946549
0.03049409
0.03156065
0.0327217
0.03397812
0.03531253
0.03677951
0.03837067
0.04003431
0.04179002
0.04365793
0.04559644
0.04759505
0.04962262
0.05162193
0.05353682
0.05533221
0.05700123
0.05854993
0.05998375
0.06130454
0.06251143
0.06359873
0.06455384
0.06535462
0.0659642
0.06633153
0.06640339
0.06613141
0.06545718
0.06431706
0.0626755
0.06055973
0.05807975
0.05540231
0.0527023
0.05014223
0.04784484
0.04587049
0.04418518
0.04265695
0.04115207
0.03963558
0.03817081
0.03683134
0.03566469
0.03468354
0.03385885
0.03311817
0.03238825
0.03163858
0.03087719
0.03012821
0.02940123
0.02869455
0.02802424
0.02804448
0.09387662
0.09045208
0.09787057
0.1066217
0.1140958
0.1200627
0.1248238
0.128693
0.132045
0.1356492
0.1465063
0.1583373
0.1689735
0.1778999
0.1850452
0.1906188
0.1949033
0.1982106
0.2243826
0.2244073
0.224244
0.2236954
0.2230082
0.2223528
0.2217819
0.2212791
0.2208107
0.2202233
0.2198078
0.2192015
0.2181936
0.2169975
0.2157504
0.2145222
0.2133357
0.21219
0.2110485
0.2100903
0.2091479
0.2078946
0.2065059
0.2051098
0.2037421
0.2024195
0.2011428
0.1998968
0.1986792
0.197523
0.1963094
0.1951087
0.1939375
0.1927886
0.1916708
0.1905887
0.1895432
0.1885506
0.1980143
0.1968021
0.195607
0.1944671
0.1933754
0.1923267
0.1913191
0.1903428
0.1893917
0.1884221
0.1874203
0.1864208
0.1854189
0.184405
0.1833943
0.1823908
0.1814166
0.1805505
0.1799542
0.1793592
0.1782851
0.1771364
0.176137
0.1750951
0.1739009
0.1725994
0.1712518
0.1698701
0.168442
0.1669565
0.165413
0.163822
0.1622025
0.1605741
0.158953
0.1573459
0.1557573
0.1541962
0.1526942
0.1512882
0.149922
0.1486715
0.1477216
0.1468729
0.1458397
0.1447151
0.1433991
0.1417458
0.1398769
0.1382187
0.1368119
0.1355551
0.1344521
0.1335506
0.1328588
0.132369
0.1320685
0.1319318
0.1319187
0.1319758
0.1320426
0.1320594
0.1319741
0.1317457
0.1313483
0.1308438
0.130252
0.1295738
0.128804
0.1279296
0.126933
0.1258002
0.1245284
0.1231293
0.1216279
0.1200573
0.118453
0.1168488
0.1152732
0.1137477
0.1122852
0.1108912
0.1095653
0.1083047
0.1071073
0.1059742
0.1049105
0.1039256
0.1030298
0.1022316
0.1015349
0.1009365
0.100426
0.09998696
0.09959827
0.09924137
0.09889969
0.09855849
0.09820315
0.0978142
0.09737631
0.0968855
0.09633772
0.09573417
0.09507862
0.09437976
0.09365198
0.09291377
0.09218319
0.09147344
0.09079208
0.09014191
0.08952335
0.08893631
0.0883815
0.08786182
0.08738402
0.08695814
0.08659355
0.08629435
0.08605633
0.08586083
0.08567201
0.08545356
0.08520062
0.08494963
0.08474983
0.0846337
0.08460476
0.08463938
0.08470435
0.08477718
0.0848965
0.08511826
0.08548655
0.08601756
0.08667764
0.08738449
0.08801374
0.08844259
0.08856172
0.08830748
0.08763161
0.08655248
0.08510856
0.08342655
0.08156607
0.07973567
0.07718865
0.0736527
0.07098136
0.06894702
0.06741459
0.0662986
0.06554404
0.06510956
0.06495532
0.06503481
0.06528676
0.06562764
0.0659459
0.06609926
0.06592472
0.06527702
0.06407399
0.06231163
0.06004945
0.0573985
0.05452575
0.05162643
0.04890592
0.04656348
0.04476242
0.04361097
0.04317139
0.04347239
0.0445072
0.04622987
0.04855944
0.05138834
0.05459124
0.0580371
0.06161241
0.06526842
0.06897357
0.07259323
0.0760436
0.0793077
0.08242298
0.08546213
0.08849844
0.09157871
0.0947185
0.09790582
0.1011139
0.1042446
0.1071946
0.1098725
0.112187
0.1140552
0.1154135
0.1162259
0.1164884
0.1162204
0.1154618
0.1142732
0.1127517
0.1109543
0.1089247
0.1067072
0.1043442
0.101861
0.09929043
0.09667329
0.09402781
0.09137275
0.0887206
0.08606083
0.08735904
0.08487169
0.08241863
0.08002066
0.07768271
0.07540742
0.07319723
0.07105321
0.06897576
0.06696569
0.06502478
0.0631558
0.06136232
0.0596482
0.05801722
0.05647271
0.05501717
0.05365201
0.05237748
0.0511924
0.05009435
0.04907952
0.04814317
0.04727984
0.04648338
0.04574717
0.04506438
0.04442795
0.04383122
0.04326786
0.042732
0.04221839
0.04172248
0.04124054
0.04076967
0.04030794
0.0398542
0.03940807
0.03897002
0.03854135
0.0381237
0.03771907
0.03733036
0.03696045
0.03661193
0.036287
0.0359867
0.03571366
0.03546912
0.03525382
0.0350677
0.03490949
0.03477887
0.03468202
0.03461029
0.03454094
0.03447684
0.03442781
0.03440079
0.03440338
0.0344442
0.03453157
0.03467258
0.03486911
0.03511281
0.03538211
0.03564397
0.03586038
0.0359979
0.03603781
0.03598388
0.03586401
0.03572516
0.03562445
0.03561944
0.03576005
0.03608143
0.03659887
0.03730907
0.03819686
0.03924042
0.04040935
0.04166191
0.04296264
0.04431433
0.04572169
0.04717364
0.04869895
0.05032514
0.05202733
0.05378226
0.05558457
0.05742054
0.05928595
0.06119254
0.06313913
0.06509408
0.06700902
0.068847
0.07058885
0.07222317
0.07374072
0.07513635
0.07640905
0.07755172
0.07855128
0.07938503
0.08001672
0.08039457
0.080455
0.0801414
0.07939438
0.07816701
0.07644681
0.07427978
0.07181253
0.06923262
0.06671163
0.06436499
0.06224037
0.06032223
0.05855224
0.05684976
0.05512436
0.05329407
0.05131946
0.04924795
0.04716447
0.04513529
0.04321276
0.04143074
0.03980235
0.0383291
0.03700359
0.03581697
0.03477024
0.03384505
0.03310396
0.03253079
0.05546109
0.05983508
0.06492073
0.07050001
0.07659816
0.08332532
0.09087058
0.09951945
0.1097101
0.1213665
0.1767184
0.1932224
0.2095786
0.2260754
0.242395
0.2583419
0.2736595
0.2912544
0.3203376
0.3804534
0.3917
0.4018862
0.4108411
0.4183007
0.4245666
0.4295798
0.433604
0.4365975
0.4393112
0.4420503
0.4449077
0.446506
0.4466503
0.4455814
0.4435629
0.440797
0.4374511
0.4340104
0.4278514
0.4223515
0.4172878
0.4125105
0.4079144
0.4033998
0.3989026
0.3943717
0.3897941
0.3852285
0.3804938
0.3756975
0.3708394
0.3659522
0.3610793
0.3562483
0.3514593
0.3466935
0.3554957
0.3509343
0.3462905
0.3416699
0.3371216
0.3326446
0.3282398
0.3239013
0.3196434
0.3154609
0.3113183
0.3072539
0.3033089
0.2994745
0.2957568
0.2921663
0.2886998
0.2853505
0.2821067
0.2789132
0.2757476
0.2726579
0.2696547
0.2667427
0.2639379
0.2612495
0.2586722
0.2561822
0.2537335
0.2513131
0.2489155
0.2465252
0.2441574
0.2418466
0.2396238
0.2375109
0.2355007
0.2335386
0.231561
0.2296351
0.227757
0.2259231
0.2241434
0.2224389
0.220832
0.21933
0.2179162
0.2165539
0.2152133
0.2138739
0.2125228
0.2111655
0.2098297
0.2085453
0.2073502
0.2062674
0.2053013
0.2043603
0.2032713
0.2020355
0.2007524
0.1994546
0.1981283
0.196745
0.1953296
0.1938898
0.1924051
0.1908447
0.1891894
0.1874428
0.1856285
0.1837791
0.1819263
0.1800925
0.1782905
0.1765264
0.1748088
0.1731479
0.1715283
0.1699836
0.1685363
0.1671156
0.1656179
0.1640072
0.1622694
0.1603862
0.1584298
0.1565941
0.1549392
0.1534641
0.1521871
0.1511493
0.1503549
0.1498104
0.1495129
0.1494411
0.1495487
0.1497656
0.1500073
0.1501917
0.1502526
0.1501487
0.1498598
0.1493923
0.1488056
0.1481143
0.14732
0.1464058
0.1453398
0.1440886
0.1426323
0.140973
0.1391361
0.1371629
0.1351013
0.1329975
0.1308905
0.1288099
0.1267749
0.1247964
0.1228798
0.1210276
0.1192425
0.1175291
0.1158953
0.1143516
0.1129099
0.1115809
0.1103723
0.109287
0.1083225
0.1074709
0.1067214
0.1060613
0.1054768
0.1049541
0.1044809
0.1040429
0.1036252
0.103217
0.1028099
0.1023988
0.101981
0.1015556
0.1011232
0.100687
0.1002517
0.09982143
0.09939732
0.09897778
0.09855886
0.09813532
0.0977018
0.09725459
0.09679353
0.09632273
0.09584865
0.09537735
0.09491212
0.09445023
0.09398048
0.09348924
0.09297466
0.09245297
0.09195032
0.09148912
0.09107566
0.09069792
0.09033585
0.08997901
0.08964309
0.0893732
0.08923699
0.08930755
0.0896434
0.09025848
0.09111929
0.09213855
0.09319517
0.09415931
0.094929
0.09539776
0.09549412
0.09515891
0.09440625
0.09323502
0.09191673
0.09025899
0.08837595
0.08641684
0.08451831
0.08278474
0.08129645
0.0801126
0.07927289
0.07879747
0.07868703
0.07892216
0.0794588
0.08022088
0.08109278
0.08191028
0.08249965
0.08269437
0.08235132
0.08137982
0.07976178
0.07756189
0.07503495
0.07250376
0.07025341
0.06852753
0.06752934
0.06739215
0.06817463
0.06986066
0.07236377
0.07553998
0.07920733
0.08317045
0.0872513
0.09132234
0.09527971
0.09903295
0.1025373
0.1057933
0.108836
0.1117436
0.1146215
0.1175552
0.1205936
0.1237437
0.1269984
0.1302593
0.1334041
0.1363146
0.1388712
0.1409622
0.142499
0.1434266
0.1437212
0.1434233
0.1425522
0.1411959
0.1394121
0.1372592
0.1347979
0.1320886
0.1291882
0.1261515
0.1230226
0.1198272
0.1165778
0.1133035
0.1100365
0.1068089
0.1034888
0.100307
0.09726989
0.09436401
0.09157806
0.08890321
0.08632999
0.08384844
0.08144988
0.07912822
0.07688042
0.07470618
0.0726073
0.070587
0.06864927
0.06679833
0.06503818
0.06337211
0.06180227
0.06032945
0.05895297
0.05767069
0.05647912
0.05537361
0.0543485
0.05339739
0.05251335
0.0516891
0.05091732
0.05019083
0.04950281
0.04884697
0.04821765
0.04761002
0.04702015
0.0464452
0.04588334
0.04533357
0.04479582
0.04427082
0.04375997
0.04326572
0.04279095
0.04233805
0.04190939
0.04150601
0.04112884
0.0407806
0.04046346
0.04017901
0.0399274
0.03970744
0.03951627
0.03935022
0.03920202
0.03906785
0.03894323
0.03882164
0.03869789
0.03857065
0.03844392
0.03832757
0.03823657
0.03818916
0.03820371
0.03829414
0.03846573
0.03871249
0.03901683
0.0393526
0.03969217
0.04001518
0.04031629
0.04060899
0.04092372
0.04130058
0.04177897
0.04238896
0.04314819
0.04406244
0.04512426
0.04630974
0.04758073
0.04889876
0.05024096
0.0515921
0.05294938
0.05433951
0.05578744
0.05729456
0.05885153
0.06044383
0.06204874
0.06366286
0.06530725
0.06699405
0.06870829
0.07041814
0.07209124
0.073703
0.07523364
0.07666581
0.07798642
0.07919133
0.08027301
0.08121939
0.08201391
0.08263479
0.08305884
0.08324967
0.08314538
0.08267046
0.08176466
0.08039822
0.07857753
0.07642211
0.07412786
0.07188741
0.0698287
0.0679908
0.06633431
0.06477768
0.06322904
0.06160307
0.0598326
0.0578873
0.05578625
0.05361287
0.05145416
0.04936891
0.04739788
0.045567
0.04389059
0.04236962
0.04099782
0.03977335
0.03867836
0.0377077
0.0368873
0.04072446
0.04604227
0.05078229
0.07774478
0.105318
0.1395574
0.1628311
0.1862244
0.2084715
0.2292089
0.2472382
0.2628244
0.2780291
0.2936069
0.3093638
0.3253624
0.3416145
0.3580475
0.3744702
0.3903885
0.4056855
0.4203519
0.43447
0.4482582
0.4617087
0.4747833
0.4874608
0.4997287
0.5116686
0.5231946
0.5348655
0.5697551
0.5749429
0.5800362
0.5835948
0.5851114
0.5852962
0.5842439
0.5820221
0.5788598
0.5751028
0.5706844
0.5657028
0.5602516
0.5543883
0.5481677
0.5416541
0.5349121
0.528009
0.5209959
0.5138905
0.5067919
0.4996978
0.4926413
0.4856473
0.4787179
0.4717977
0.464819
0.4578213
0.450822
0.4438479
0.4369401
0.4301257
0.4234195
0.4168449
0.4103692
0.4040417
0.3977543
0.3910456
0.3846006
0.3784288
0.3724974
0.3667948
0.3613177
0.356053
0.3509733
0.3460465
0.3412417
0.3365351
0.3319287
0.3274324
0.3230614
0.318844
0.314808
0.3109622
0.307291
0.3037576
0.300315
0.2969255
0.2935756
0.2902752
0.2870602
0.2839782
0.2810643
0.2783244
0.2757309
0.2732317
0.270771
0.2683052
0.2658127
0.2633134
0.2608524
0.2584901
0.2562633
0.2541941
0.2522438
0.2503758
0.2485462
0.2467197
0.2448882
0.2430832
0.2413576
0.2397601
0.2383145
0.2370051
0.2357801
0.2345734
0.2333316
0.2320399
0.2307185
0.2294123
0.2281709
0.2270306
0.2260007
0.2250604
0.2241407
0.2231098
0.2218971
0.2205567
0.2191787
0.2177884
0.2164003
0.2150391
0.213699
0.2123319
0.2108699
0.2092648
0.2075094
0.2056333
0.2036865
0.201722
0.1997822
0.1978882
0.1960419
0.1942314
0.192444
0.1906661
0.1888893
0.1871135
0.1853204
0.1834669
0.18152
0.179484
0.1773886
0.1752941
0.1732883
0.1714345
0.1697686
0.1683281
0.1671713
0.1663249
0.1658133
0.1656457
0.1657995
0.1662083
0.1667633
0.1673333
0.1677955
0.1680574
0.1680693
0.1678236
0.1673448
0.1667293
0.1660133
0.16521
0.1642957
0.163214
0.1618988
0.160303
0.1584162
0.1562666
0.1539102
0.1514154
0.1488483
0.1462639
0.1437017
0.1411862
0.1387298
0.1363373
0.1340103
0.1317508
0.1295637
0.1274575
0.1254446
0.1235389
0.1217539
0.1201005
0.118585
0.1172082
0.1159657
0.1148486
0.1138453
0.1129428
0.1121283
0.11139
0.1107169
0.1100994
0.1095302
0.1090051
0.1085219
0.1080792
0.1076748
0.1073062
0.1069716
0.1066696
0.1063974
0.1061498
0.1059189
0.1056937
0.1054604
0.1052032
0.1049081
0.1045654
0.1041713
0.1037264
0.1032327
0.1026922
0.1021058
0.1014709
0.100785
0.1000532
0.09929135
0.09852131
0.09776401
0.09703113
0.09632059
0.09561994
0.0949163
0.09420841
0.09351231
0.09286726
0.09233256
0.09198062
0.09187369
0.0920574
0.09254449
0.09332006
0.09432801
0.09549037
0.09668913
0.09780447
0.09868785
0.09923862
0.09935841
0.09906097
0.09832279
0.09717202
0.09567923
0.09395991
0.09214301
0.09035294
0.08869935
0.08727117
0.08613429
0.08533246
0.08488956
0.08481117
0.08508514
0.08568183
0.08655029
0.08759812
0.08867584
0.08965832
0.09040235
0.09075215
0.09056577
0.08977039
0.08842543
0.08669964
0.08491604
0.08347168
0.08267696
0.08272878
0.08372622
0.08565898
0.08841291
0.09181398
0.09565448
0.0997187
0.1038467
0.107923
0.1118536
0.1155805
0.1190786
0.1223411
0.1254015
0.1283354
0.1312262
0.1341477
0.1371281
0.1401573
0.1432008
0.1461677
0.1489525
0.1514373
0.1535054
0.1550524
0.1560273
0.1563753
0.1561425
0.1553718
0.1540858
0.1523262
0.1501469
0.1476068
0.1447663
0.141683
0.1384098
0.1349959
0.1314901
0.1279419
0.1243818
0.1208175
0.1172899
0.1138211
0.1104674
0.1072515
0.1041695
0.1012138
0.09837617
0.09564603
0.09301139
0.09046098
0.08798611
0.08558148
0.08324487
0.08097671
0.07877949
0.07665712
0.07461445
0.07265672
0.07078896
0.06901544
0.06733922
0.06576182
0.06428315
0.06290155
0.06161394
0.06041595
0.05930208
0.05826593
0.05730043
0.05639815
0.05555153
0.0547531
0.05399577
0.05327304
0.05257904
0.05190874
0.05125823
0.05062507
0.05000777
0.04940539
0.04881798
0.04824642
0.04769184
0.04715608
0.04664202
0.04615265
0.04569084
0.04525928
0.04486078
0.04449809
0.04417335
0.04388751
0.04364007
0.04342868
0.04324982
0.04309775
0.04296479
0.0428419
0.04271951
0.04258825
0.04244068
0.04227353
0.04208952
0.04189806
0.041715
0.0415612
0.04146037
0.04143646
0.04151057
0.04169698
0.04199911
0.04240718
0.04289985
0.04345056
0.04403689
0.04464863
0.04529043
0.04597823
0.04673294
0.04757508
0.04852037
0.04957413
0.05072566
0.05194728
0.05320288
0.05446144
0.0557003
0.05691109
0.0581084
0.05931453
0.06054708
0.06181368
0.06310726
0.06440787
0.06571059
0.06703613
0.06840474
0.0698169
0.07125618
0.0726968
0.07411243
0.07547868
0.07677084
0.07796143
0.07904269
0.0800094
0.08085411
0.08156918
0.0821503
0.08259954
0.08291585
0.08306929
0.08298485
0.08255826
0.08170039
0.08036874
0.07862799
0.07666936
0.07472484
0.07296637
0.07144347
0.07009419
0.06880076
0.06744326
0.0659433
0.06425877
0.06238497
0.06035411
0.05823815
0.05613113
0.05409035
0.05215154
0.05034068
0.04867377
0.04715044
0.04575868
0.04448499
0.0433133
0.04224231
0.04130989
0.01957227
0.0218752
0.02410751
0.03217641
0.04298288
0.06128475
0.0743625
0.0883883
0.1036293
0.1192474
0.1355317
0.1535797
0.1730488
0.1931542
0.2143015
0.2382665
0.2750915
0.2925226
0.3102806
0.3282162
0.3465616
0.364533
0.3816672
0.3980953
0.4140356
0.4298594
0.4457067
0.4611846
0.4763518
0.4912869
0.5059244
0.5201844
0.5339685
0.5470895
0.5594001
0.5708375
0.5813633
0.5910074
0.5998037
0.6080306
0.6155208
0.6205827
0.6200403
0.6195644
0.6182781
0.6156767
0.6117285
0.6065264
0.6002237
0.592999
0.5850802
0.5767506
0.5681363
0.5593362
0.5504624
0.5416117
0.532859
0.5242556
0.5158372
0.5076361
0.4996698
0.4919456
0.4844898
0.4773049
0.4703832
0.463706
0.4572302
0.4509075
0.4446755
0.4385319
0.432412
0.4262182
0.4200672
0.4140431
0.4081919
0.4025225
0.3969984
0.3915806
0.386201
0.3807928
0.375443
0.3702268
0.3651713
0.3603037
0.355651
0.3512138
0.3469604
0.3428402
0.3388058
0.334821
0.3308674
0.3269539
0.323117
0.3194114
0.3158929
0.3125898
0.3094905
0.3065479
0.3036946
0.3008623
0.2980111
0.2951499
0.2923325
0.2896383
0.2871401
0.2848692
0.2828011
0.2808544
0.2789313
0.2769542
0.2748898
0.2727623
0.2706428
0.2686239
0.2667796
0.2651406
0.2636763
0.2623106
0.2609581
0.2595614
0.2581161
0.2566743
0.2553206
0.2541335
0.25315
0.2523447
0.2516318
0.2509004
0.2500662
0.2491126
0.2480791
0.2470351
0.2460539
0.2451846
0.2444308
0.2437404
0.2429993
0.2420706
0.2408943
0.2395304
0.238115
0.2366921
0.2353223
0.2340437
0.2328409
0.2316306
0.2302936
0.2287427
0.2269615
0.2249922
0.2229083
0.2207914
0.2187087
0.2166955
0.2147513
0.2128467
0.2109418
0.2090012
0.2070049
0.2049537
0.2028552
0.2007043
0.1984939
0.1962357
0.1939629
0.1917256
0.1895907
0.1876209
0.1858661
0.1843872
0.1832847
0.1826155
0.1824255
0.1827383
0.18352
0.1846505
0.1859329
0.1871389
0.1880705
0.1885991
0.1886774
0.1883275
0.1876335
0.1867714
0.1858187
0.1848047
0.1836999
0.1824165
0.1808467
0.1789105
0.1765861
0.1739125
0.1709719
0.1678639
0.1646835
0.1615066
0.1583852
0.1553475
0.1524042
0.1495542
0.1467922
0.1441137
0.1415184
0.1390118
0.1366048
0.1343115
0.1321469
0.1301241
0.1282515
0.1265321
0.1249625
0.1235343
0.1222357
0.121053
0.1199723
0.118981
0.1180693
0.1172294
0.1164566
0.1157502
0.1151114
0.1145421
0.1140429
0.113613
0.1132515
0.1129555
0.1127198
0.1125368
0.1123964
0.1122831
0.1121756
0.1120483
0.111876
0.1116392
0.1113261
0.1109315
0.1104539
0.1098931
0.1092489
0.1085203
0.1077085
0.1068198
0.1058678
0.1048706
0.1038482
0.1028171
0.1017869
0.10076
0.09973392
0.09870665
0.09768247
0.09667947
0.09573238
0.09489098
0.09420986
0.09374416
0.09354026
0.093632
0.09403047
0.09472377
0.09566728
0.09678845
0.0979815
0.09912688
0.1000931
0.1007625
0.1010488
0.1008935
0.1002898
0.09928593
0.0979722
0.09646464
0.09488777
0.09335963
0.09198102
0.09083033
0.08996195
0.08940761
0.08918142
0.08928618
0.08971484
0.09044677
0.09145171
0.0926866
0.09405698
0.09547383
0.09680688
0.09788005
0.09849777
0.0985258
0.09800163
0.09716597
0.09638588
0.09601365
0.09634984
0.09755825
0.0996299
0.1024667
0.1059121
0.1097716
0.1138488
0.1179702
0.1220016
0.1258533
0.1294793
0.1328717
0.1360417
0.1389891
0.1417637
0.1444429
0.1470805
0.1496873
0.1522694
0.154781
0.1571477
0.159268
0.1610344
0.1623219
0.1630913
0.1633529
0.1631012
0.1623509
0.1611277
0.1594616
0.1573867
0.1549423
0.1521719
0.1491221
0.1458402
0.1423736
0.1387697
0.1350789
0.1313561
0.1276479
0.123995
0.1204355
0.1170031
0.1137149
0.1105717
0.1075663
0.1046879
0.101923
0.09925715
0.09667559
0.09416585
0.09172025
0.08933431
0.08700652
0.08473792
0.08253163
0.08039257
0.07832688
0.07634111
0.07444151
0.07263339
0.07092064
0.06930555
0.06778875
0.06636923
0.06504437
0.06381011
0.0626611
0.06159101
0.06059277
0.05965891
0.05878174
0.05795356
0.05716719
0.05641641
0.05569489
0.05499727
0.05431915
0.0536579
0.05301253
0.05238297
0.05177004
0.05117533
0.05060096
0.05004961
0.04952439
0.04902869
0.04856594
0.04813964
0.04775314
0.04740927
0.04710987
0.04685532
0.04664415
0.04647296
0.04633601
0.04622528
0.04613105
0.04604178
0.04594463
0.04582723
0.04568044
0.04550095
0.04529269
0.04506641
0.04483833
0.0446289
0.0444621
0.04436486
0.04436539
0.04448956
0.04475559
0.04516863
0.04571859
0.04638326
0.0471357
0.04795197
0.04881603
0.04972161
0.0506715
0.05167371
0.05273414
0.05384851
0.05499867
0.05615697
0.05729516
0.05839079
0.05943411
0.0604325
0.06140382
0.06236909
0.06334341
0.06432735
0.0653093
0.06629022
0.06728974
0.06833187
0.06942745
0.07056987
0.07174069
0.07291758
0.07407509
0.07518686
0.07622649
0.07717421
0.07802132
0.07876756
0.07941169
0.07995571
0.08042352
0.08084843
0.08123881
0.08154634
0.08165392
0.08141019
0.08068769
0.07947166
0.07792123
0.0763065
0.07485701
0.07363788
0.07256722
0.07149601
0.0702778
0.06886334
0.06725366
0.06546983
0.06355041
0.06155423
0.05956758
0.05764885
0.05582988
0.05413581
0.05258244
0.05116526
0.04985917
0.04863531
0.04746927
0.04637227
0.04539612
0.008101813
0.009479299
0.01053425
0.01567833
0.02164301
0.02951084
0.03607589
0.04356521
0.05174483
0.06054851
0.07029494
0.08186945
0.09469768
0.1091633
0.1266417
0.1536746
0.1683143
0.1838553
0.1997759
0.2160223
0.2325047
0.2490676
0.2655429
0.2818036
0.2976834
0.313049
0.3281781
0.3448127
0.3617629
0.3791101
0.3969286
0.4146757
0.4319145
0.448568
0.4647143
0.4802694
0.4949496
0.5091668
0.522949
0.536287
0.549121
0.5613475
0.5728229
0.5833789
0.5928948
0.6012814
0.6084124
0.6142592
0.6187186
0.6220346
0.6230998
0.6215811
0.6172639
0.6115262
0.6041779
0.5953417
0.5852161
0.5740983
0.5622896
0.5500694
0.537691
0.5253824
0.5133264
0.5016578
0.4904759
0.4798494
0.4698176
0.4603825
0.4515308
0.4432335
0.4354657
0.4282139
0.421475
0.4152537
0.409533
0.4043076
0.3994864
0.3949682
0.390643
0.3863019
0.3818923
0.3774741
0.3731647
0.3690611
0.3652088
0.3615891
0.3581296
0.3547331
0.3513236
0.3478588
0.3443579
0.3408812
0.3374958
0.3342673
0.3312447
0.3284333
0.3257891
0.3232424
0.3207229
0.3181739
0.3155665
0.3129132
0.3102699
0.3077151
0.3053336
0.3031817
0.3012646
0.2995197
0.2978435
0.2961369
0.2943428
0.2924721
0.2906038
0.2888601
0.2873526
0.2861291
0.2851447
0.2842724
0.2833654
0.2823194
0.2811032
0.2797683
0.2784334
0.2772406
0.2762971
0.2756279
0.2751615
0.2747641
0.2743049
0.2737136
0.2730123
0.2723082
0.2717434
0.2714336
0.2714144
0.2716089
0.2718448
0.2719269
0.2717401
0.2712996
0.2707091
0.2701002
0.2695903
0.2692391
0.2690067
0.2687531
0.2682492
0.267328
0.2660105
0.2644929
0.262906
0.2613545
0.2599137
0.2586187
0.257422
0.2561919
0.2547546
0.2529877
0.2508835
0.2485168
0.2459999
0.2434517
0.2409674
0.2385983
0.2363412
0.2341473
0.2319494
0.2296861
0.2273279
0.2248885
0.2224064
0.21991
0.2174136
0.2149322
0.212492
0.2101407
0.2079441
0.205973
0.2042985
0.2030188
0.2023153
0.2022956
0.2030518
0.2046499
0.2070061
0.2098256
0.2126804
0.2151372
0.2168789
0.2177493
0.2177569
0.2170195
0.2157331
0.214211
0.2125769
0.2108658
0.2090335
0.2069607
0.2045126
0.2016077
0.1982441
0.1944815
0.1904362
0.1862501
0.1820548
0.1779502
0.1739986
0.1702281
0.1666408
0.163223
0.1599545
0.156817
0.1537984
0.1508952
0.1481122
0.1454601
0.1429523
0.1406014
0.1384164
0.1364004
0.1345503
0.1328572
0.1313084
0.1298888
0.1285835
0.127379
0.126265
0.1252344
0.1242838
0.1234139
0.1226289
0.1219337
0.1213306
0.1208193
0.1203995
0.1200677
0.1198174
0.1196411
0.1195285
0.1194625
0.1194164
0.1193558
0.1192456
0.1190574
0.1187736
0.1183858
0.1178911
0.1172881
0.1165753
0.1157518
0.1148187
0.1137816
0.1126508
0.1114408
0.1101692
0.1088542
0.1075132
0.1061607
0.1048076
0.1034622
0.1021325
0.1008311
0.09957797
0.09840161
0.09733744
0.09642703
0.09571397
0.09523894
0.09503307
0.09511439
0.09548236
0.09611483
0.09696434
0.09795764
0.09899816
0.09997186
0.1007624
0.1012662
0.1014095
0.1011623
0.1005434
0.09961522
0.09847246
0.09722543
0.09598461
0.094848
0.09389232
0.09316967
0.09271068
0.09253104
0.09263641
0.09302407
0.09368635
0.09461594
0.09581362
0.09728685
0.09898896
0.1008544
0.1027696
0.1045243
0.1058612
0.1066153
0.106854
0.1068786
0.1070833
0.107808
0.1092582
0.1114875
0.1144249
0.1179178
0.121774
0.1257993
0.1298241
0.1337193
0.1374006
0.1408238
0.1439749
0.146863
0.1494948
0.151872
0.154052
0.1560533
0.157917
0.1596535
0.161238
0.1626016
0.1636364
0.1643313
0.1646636
0.1646242
0.1642158
0.163446
0.1623205
0.1608404
0.1590079
0.1568324
0.1543327
0.151537
0.1484814
0.1452079
0.1417639
0.1382008
0.1345542
0.1309009
0.1273051
0.1238076
0.1204374
0.11721
0.1141284
0.1111867
0.1083735
0.1056741
0.1030727
0.1005533
0.09810031
0.09570344
0.09335628
0.09105554
0.08880078
0.08659369
0.08443815
0.082341
0.08031002
0.07835308
0.07647746
0.07468935
0.07299353
0.07139306
0.06988921
0.0684814
0.06716729
0.06594296
0.06480314
0.06374152
0.06275098
0.06182417
0.06095319
0.06012923
0.05934406
0.05859123
0.05786521
0.0571616
0.05647729
0.05581057
0.05516095
0.05452902
0.05391626
0.05332487
0.05275769
0.05221815
0.05171006
0.05123742
0.05080429
0.05041454
0.05007158
0.04977785
0.04953436
0.04934013
0.04919198
0.04908441
0.0490097
0.04895785
0.04891626
0.04886991
0.04880291
0.04870168
0.04855853
0.04837356
0.04815395
0.04791151
0.047661
0.04742015
0.04721067
0.04705908
0.04699615
0.04705394
0.0472602
0.04763188
0.04817092
0.0488639
0.04968529
0.05060314
0.05158635
0.05261121
0.05366368
0.05473588
0.05581914
0.05689865
0.05795348
0.05896109
0.05990316
0.06077166
0.06157228
0.0623217
0.06304135
0.06374897
0.06445145
0.0651464
0.06584201
0.06655933
0.06732183
0.06814241
0.06901956
0.0699411
0.0708889
0.07184294
0.07278411
0.07369185
0.074546
0.0753341
0.07605066
0.07669023
0.0772555
0.07777772
0.07831125
0.07889012
0.07949133
0.08002683
0.08034654
0.08025752
0.0796261
0.07853004
0.07726619
0.07611448
0.07515362
0.07429182
0.07334789
0.07218292
0.07080504
0.06925239
0.06756466
0.06578315
0.06394447
0.06211324
0.06035711
0.05870599
0.05717851
0.05578886
0.05452904
0.05335993
0.05223229
0.05111238
0.0500241
0.04903524
0.0018961
0.00747119
0.01119285
0.01555502
0.02048025
0.02617535
0.03273844
0.04002791
0.0482609
0.05824427
0.07334802
0.08257933
0.09266092
0.1033629
0.114731
0.1267125
0.1392578
0.1522638
0.165558
0.1790094
0.1925896
0.2080308
0.223836
0.2398053
0.2558198
0.271758
0.2875298
0.3030426
0.3183407
0.3334116
0.3482219
0.3631858
0.3787622
0.3947127
0.4110615
0.4275958
0.4438963
0.4595733
0.4744406
0.4883921
0.5014031
0.5138053
0.5257746
0.5373788
0.5485725
0.5592882
0.5694096
0.5788042
0.5871332
0.5942336
0.6000246
0.6042579
0.6065556
0.6060643
0.6034677
0.5985252
0.591131
0.5813681
0.569731
0.5565584
0.5422141
0.5270777
0.5115316
0.4959229
0.4805474
0.4656467
0.4514132
0.4380015
0.425526
0.4140567
0.4036249
0.3942147
0.3857629
0.3781799
0.371369
0.3652602
0.3598199
0.3551174
0.3511079
0.3477351
0.3447267
0.3420014
0.3394666
0.3370187
0.3345404
0.332018
0.3295426
0.3272406
0.3252144
0.3234989
0.3220401
0.3207143
0.3193787
0.3179267
0.3163149
0.3145667
0.3127607
0.3110008
0.3093891
0.3079939
0.3068184
0.3058004
0.3048447
0.3038597
0.302778
0.301575
0.3002837
0.2989857
0.2977987
0.2968441
0.2961881
0.2958084
0.2955882
0.2953632
0.2950155
0.2945152
0.2939288