/*--------------------------------*- C++ -*----------------------------------*\
| =========                 |                                                 |
| \\      /  F ield         | foam-extend: Open Source CFD                    |
|  \\    /   O peration     | Version:     3.1                                |
|   \\  /    A nd           | Web:         http://www.extend-project.de       |
|    \\/     M anipulation  |                                                 |
\*---------------------------------------------------------------------------*/
FoamFile
{
    version     2.0;
    format      ascii;
    class       volScalarField;
    location    "15";
    object      omega;
}
// * * * * * * * * * * * * * * * * * * * * * * * * * * * * * * * * * * * * * //

dimensions      [0 0 -1 0 0 0 0];

internalField   nonuniform List<scalar> 
119952
(
400.7174
510.1434
484.1767
421.7224
378.1151
380.4971
385.8907
392.7406
400.4631
408.78
417.5513
426.6722
436.0874
445.7826
455.7781
466.1138
476.8464
488.065
500.0387
514.0341
431.5514
427.1792
428.7857
361.8289
352.2629
346.3717
341.8394
337.9703
330.9055
219.559
826.8477
692.6519
586.1203
509.2163
451.7277
407.3578
371.7979
342.5958
317.9942
290.6214
244.3617
211.8008
189.1509
172.3778
159.2333
148.4294
139.264
131.3309
124.37
96.92674
93.07876
89.30777
85.63775
82.16181
78.93208
75.9632
73.25382
70.78041
68.52812
66.5586
64.69459
62.90218
61.19139
59.56224
58.01323
56.53452
55.09682
53.70478
53.43839
53.34495
52.87077
52.52645
52.34316
52.29005
52.34595
52.4608
52.63383
52.85612
53.11594
53.40025
53.69623
53.99236
54.27975
54.55105
54.79679
54.99654
55.09631
55.02375
54.65319
54.43743
53.8784
53.24166
52.91453
52.9052
53.04792
53.686
55.55393
58.17447
58.33257
58.0578
57.43548
56.68481
55.87247
55.01603
54.14081
53.32146
52.57815
51.93157
51.40182
51.00791
50.77496
50.76427
50.97926
51.35272
51.89036
52.61087
53.53435
54.67618
56.03992
57.61133
59.3557
61.21868
63.13141
65.02087
66.81801
68.46193
69.90086
71.09329
72.01091
72.64138
72.98888
73.07211
72.92078
72.57077
72.05838
71.41522
70.66571
69.82819
68.91788
67.94832
66.93286
65.88688
64.81951
63.73161
62.632
61.50707
60.34292
59.27042
58.32853
57.45155
56.64721
55.93545
55.3407
54.88221
54.56888
54.39967
54.36364
54.45496
54.67784
55.04517
55.57027
56.26429
57.12884
58.15688
59.33261
60.63046
62.01954
63.47416
64.98509
66.57008
68.28699
70.23028
72.4475
74.7588
76.7992
78.28345
79.09166
79.24752
78.88639
78.18191
77.2204
75.97068
74.41681
72.58954
70.56552
68.45965
66.40909
64.53294
62.89269
61.50169
60.35201
59.45343
58.83241
58.52776
58.4204
58.32431
58.0179
61.43332
66.67658
69.60961
71.25672
72.25145
72.8891
73.29594
73.52035
73.55158
73.36342
72.91856
72.19329
71.19134
69.95066
68.54525
67.05241
65.54836
64.1107
62.81687
61.76672
61.03726
60.60617
60.36849
60.28519
60.41781
60.82387
61.49862
62.39482
63.45561
64.62587
65.85577
67.10373
68.33755
69.52553
70.58842
70.65948
69.13796
68.34812
68.05947
67.91055
67.71836
67.47983
67.24803
67.14587
67.33797
67.4553
67.41545
67.28157
67.0562
66.74381
66.35179
65.88965
65.3681
64.79831
64.19127
63.55706
62.90355
62.2354
61.55692
60.87422
60.19288
59.51706
58.85034
58.19496
57.5525
56.92346
56.3099
55.71203
55.12763
54.54343
43.32932
41.77156
40.32566
39.03567
37.94771
37.06392
36.36635
35.83052
35.43005
35.13946
34.9357
34.79846
34.71015
34.65574
34.62251
34.59987
34.57927
34.55411
34.51965
34.47278
34.41191
34.33677
34.24781
34.14687
34.03549
33.9167
33.78981
33.65705
33.51957
33.37776
33.23141
33.07979
32.92185
32.75629
32.58181
32.39733
32.20227
31.99672
31.78178
31.55946
31.33253
31.1069
30.89177
30.69504
30.52905
30.40968
30.33677
30.31808
30.35927
30.46328
30.62905
30.8702
31.21296
31.69391
32.33869
32.93877
33.60413
34.27994
34.92535
35.49848
35.95269
36.24532
36.3331
36.18002
35.77238
35.12325
34.2673
33.25711
32.15916
31.04712
29.97987
28.99428
28.11614
27.35772
26.71649
26.17577
25.71043
25.29216
24.89289
24.49718
24.10213
23.72213
23.3955
23.17348
23.04622
22.96391
22.93602
22.91294
22.83072
22.73829
22.65249
22.52935
22.35698
22.15101
21.93087
21.72646
21.55873
21.43386
21.34583
21.28441
21.24101
21.20978
21.18677
21.1693
21.15535
21.14271
21.12937
21.11404
21.09525
21.07011
21.03696
21.00191
20.97981
20.99014
21.05241
21.18035
21.37531
21.61956
21.88401
22.13287
22.34973
22.58104
22.99133
23.76125
24.86935
26.16877
27.54569
28.8875
30.06666
30.96776
31.52684
31.69807
31.48911
30.9627
30.22175
29.4037
28.47243
27.40498
26.77672
744.0488
618.5314
557.551
513.453
475.2108
441.0435
410.5877
383.5483
358.4999
297.2853
233.4638
196.5589
173.7109
158.504
147.6374
139.3171
132.5556
126.8111
100.4064
95.8593
91.48825
87.40043
83.68201
80.36372
77.42187
74.81399
72.49176
70.39362
68.55784
66.83955
65.1389
63.46634
61.83853
60.27348
58.78444
57.37699
56.04787
55.10354
54.44724
53.66335
52.79562
51.88356
50.95197
50.02096
49.10605
48.21659
47.36136
46.54084
45.74386
44.97183
44.22021
43.48403
42.76317
42.05986
41.37803
40.73221
36.58732
36.08312
35.60281
35.1428
34.69965
34.27148
33.85856
33.46155
33.08116
32.71467
32.36062
32.02016
31.69119
31.3713
31.06047
30.76084
30.47599
30.21641
29.99851
29.8163
29.62819
29.44908
29.29971
29.17356
29.06311
28.974
28.90647
28.86165
28.83692
28.82804
28.83047
28.84011
28.85376
28.86902
28.88362
28.89433
28.89642
28.88408
28.8525
28.79936
28.72546
28.62655
28.52533
28.4632
28.42116
28.39535
28.39377
28.39736
28.3336
28.17292
27.98227
27.75475
27.49719
27.21793
26.94219
26.67878
26.43459
26.21607
26.0284
25.87515
25.75843
25.67982
25.64216
25.65374
25.73489
25.88032
26.09063
26.37146
26.72727
27.15986
27.66663
28.23967
28.86598
29.52856
30.2082
30.88507
31.53996
32.1551
32.71483
33.20601
33.61833
33.94451
34.18058
34.32615
34.3845
34.36245
34.26976
34.11833
33.92096
33.69013
33.43655
33.16823
32.88993
32.60264
32.30432
31.99183
31.66173
31.31074
30.93949
30.5498
30.14038
29.71529
29.28044
28.84283
28.41036
27.9917
27.59572
27.23135
26.90796
26.63509
26.42205
26.27721
26.20779
26.21986
26.31848
26.50762
26.79024
27.16878
27.6456
28.22283
28.90169
29.68146
30.55524
31.50169
32.48336
33.45968
34.3983
35.28077
36.10343
36.87045
37.58435
38.23944
38.81968
39.30072
39.6503
39.83677
39.83419
39.63126
39.22685
38.63606
37.88442
37.01228
36.06103
35.07879
34.0999
33.16327
32.28952
31.49562
31.49836
31.37946
31.3167
31.32651
31.42341
31.60826
31.87065
32.19087
32.54161
32.88961
33.19537
33.41227
33.48803
33.37129
33.02017
32.4129
31.55806
30.49546
29.29267
28.0387
26.83087
25.75933
24.89159
24.26688
23.89714
23.76702
23.83703
24.05332
24.35673
24.68807
24.99219
25.22203
25.34183
25.32843
25.17019
24.86598
24.43504
23.91386
23.35169
22.79932
22.29111
21.84259
21.45948
21.14438
20.89825
20.72166
20.59944
20.50616
20.43394
20.37394
20.31728
20.25573
20.18244
20.0925
19.98313
19.8534
19.70376
19.53595
19.3488
19.14449
18.92631
18.69774
18.46246
18.22572
17.99079
17.75902
17.53271
17.31362
17.10273
16.90259
15.43635
15.22851
15.04596
14.88007
14.72653
14.58364
14.45094
14.32835
14.2158
14.11313
14.02003
13.93604
13.86054
13.79277
13.73183
13.67674
13.62644
13.57988
13.53604
13.49403
13.45305
13.41248
13.37182
13.33079
13.28924
13.24713
13.20453
13.16149
13.11809
13.07439
13.03038
12.98597
12.941
12.89525
12.84844
12.80029
12.75056
12.69909
12.64584
12.59103
12.53511
12.47876
12.42311
12.36954
12.31971
12.2747
12.23571
12.20664
12.19326
12.19925
12.22854
12.2852
12.37459
12.50509
12.67828
12.89351
13.15869
13.47746
13.84937
14.27031
14.73102
15.21674
15.70802
16.18206
16.61469
16.98206
17.26289
17.44123
17.50915
17.46841
17.33068
17.11539
16.84564
16.54377
16.22771
15.90914
15.59351
15.28083
14.96782
14.65168
14.33404
14.02245
13.72778
13.45889
13.21945
13.01198
12.83073
12.66043
12.49569
12.33908
12.18842
12.04079
11.89345
11.74493
11.60234
11.47486
11.36808
11.28223
11.21429
11.16083
11.11887
11.08601
11.06063
11.04199
11.03038
11.0237
11.0183
11.01179
11.00215
10.98685
10.96372
10.93187
10.89435
10.86043
10.84152
10.84104
10.86014
10.89551
10.93932
10.98373
11.02874
11.0856
11.17357
11.31256
11.51851
11.80361
12.15543
12.54684
12.94829
13.32057
13.62395
13.82704
13.9126
13.87934
13.74022
13.52243
13.27795
13.02691
12.78554
616.7142
545.146
486.6208
443.6645
411.0346
385.8644
366.2613
351.3418
340.5116
325.469
187.8111
175.3312
164.7882
155.4783
147.4464
141.0413
137.7096
135.3621
125.4226
83.84172
82.10333
81.49318
80.89345
80.25909
79.56757
78.87907
78.15622
77.31741
75.68578
72.50104
70.40995
69.14528
68.20088
67.36388
66.55882
65.75865
64.95371
64.1437
64.2435
63.4498
62.32519
61.11958
59.94427
58.83647
57.80152
56.8322
55.92024
55.06448
54.23274
53.40843
52.58213
51.75374
50.93065
50.12081
49.32986
48.56973
44.94166
44.29223
43.6731
43.07637
42.49734
41.93237
41.37954
40.83791
40.30749
39.78719
39.27439
38.77034
38.27653
37.79176
37.316
36.85033
36.39563
35.95252
35.52069
35.0978
34.68273
34.27676
33.8794
33.49024
33.11038
32.74137
32.38418
32.03841
31.70157
31.37202
31.04785
30.7262
30.40612
30.08885
29.77635
29.47106
29.17361
28.87581
28.63415
28.39245
28.15099
27.90926
27.66778
27.4287
27.1951
26.9697
26.75377
26.54687
26.34756
26.1539
25.96401
25.77735
25.59532
25.42072
25.2575
25.10944
24.9791
24.86409
24.75355
24.64323
24.53724
24.43846
24.34791
24.27041
24.20558
24.15403
24.11452
24.08365
24.05738
24.03255
24.00739
23.98136
23.95452
23.92683
23.89744
23.86466
23.82576
23.77782
23.72194
23.65774
23.58484
23.50998
23.43597
23.35328
23.26162
23.15293
23.01998
22.85157
22.65817
22.44915
22.22875
22.0064
21.79571
21.60146
21.42806
21.27903
21.15624
21.05954
20.98702
20.93609
20.9048
20.89374
20.90922
20.96498
21.06204
21.20435
21.39543
21.63663
21.9258
22.25703
22.62129
23.00773
23.40491
23.80169
24.18761
24.55304
24.88922
25.18823
25.44312
25.64802
25.79852
25.89201
25.92818
25.90924
25.83993
25.72723
25.57969
25.40648
25.21642
25.01706
24.81404
24.61076
24.40858
24.20708
24.00468
23.79917
23.58868
23.37166
23.14587
22.9103
22.66529
22.41228
22.15394
21.89366
21.63544
21.38395
21.14471
20.92371
20.72707
20.56074
20.43033
20.34123
20.29867
20.30775
20.37356
20.50145
20.69702
20.96543
21.31069
21.73497
22.23634
22.80617
23.42944
24.08868
24.76708
25.45054
26.12897
26.79441
27.43927
28.05588
28.6374
29.17645
29.66418
30.09021
30.44517
30.71936
30.90317
30.98537
30.95789
30.81233
30.54628
30.15852
29.65964
29.06252
28.39898
27.69178
27.03533
26.33803
25.65665
25.03443
24.5013
24.07763
23.77643
23.60463
23.56394
23.65093
23.85635
24.16398
24.54955
24.97997
25.41336
25.79962
26.08171
26.20044
26.1049
25.77291
25.22191
24.50476
23.69858
22.88905
22.14905
21.52649
21.04215
20.69198
20.45209
20.28552
20.14982
20.00496
19.81942
19.57411
19.26431
18.89843
18.49367
18.07197
17.65844
17.27711
16.94668
16.67855
16.47756
16.34396
16.27415
16.26206
16.2959
16.35601
16.42816
16.5004
16.56197
16.60345
16.61739
16.59883
16.54477
16.45362
16.3244
16.15851
15.96037
15.73554
15.48984
15.22892
14.95773
14.68007
14.3999
14.12148
13.84806
13.58273
13.32927
13.08597
12.88398
12.68683
12.49858
12.31999
12.15116
11.99217
11.84288
11.70294
11.57189
11.44928
11.33466
11.22764
11.12782
11.03478
10.94808
10.86719
10.79159
10.72069
10.6539
10.59063
10.53031
10.47243
10.41654
10.36227
10.30935
10.25756
10.20677
10.1569
10.10787
10.05963
10.01213
9.965262
9.918916
9.872931
9.827127
9.781323
9.73534
9.689014
9.642244
9.595008
9.547367
9.499362
9.451178
9.403309
9.356411
9.311895
9.271354
9.235747
9.206687
9.186102
9.176415
9.180386
9.201189
9.241796
9.307508
9.402394
9.530402
9.695313
9.899964
10.14592
10.4331
10.75936
11.12023
11.50885
11.91584
12.32917
12.73416
13.11424
13.45233
13.7326
13.94267
14.07527
14.12903
14.10815
14.02081
13.8771
13.68685
13.45828
13.19803
12.91249
12.60908
12.29649
11.98368
11.67872
11.38847
11.11769
10.86712
10.63531
10.42199
10.22632
10.04701
9.883179
9.733489
9.59475
9.467928
9.356391
9.262056
9.184288
9.12075
9.068906
9.026495
8.991731
8.963539
8.939488
8.917274
8.895715
8.87435
8.853111
8.832619
8.813901
8.797119
8.779049
8.757141
8.732022
8.70696
8.687282
8.676376
8.675995
8.683844
8.696226
8.711852
8.733279
8.76765
8.824606
8.913764
9.043944
9.222529
9.440695
9.677564
9.908661
10.10786
10.25337
10.3302
10.33279
10.26415
10.13677
9.968552
9.791516
9.613703
351.2819
255.3439
365.5003
166.1446
130.8021
96.95775
84.24344
73.59527
64.70824
60.47959
58.74039
57.82065
56.95512
56.15239
55.36656
54.65159
53.99106
53.36961
52.8092
52.38307
52.06422
51.87834
51.9856
52.26652
52.59309
52.95723
53.3486
53.75672
54.1543
54.46563
54.6042
53.31588
53.86655
54.47379
54.99191
55.41646
55.75209
55.97839
56.08223
56.07182
55.9604
55.72337
55.38649
54.97482
54.50078
53.97152
53.39384
52.77469
52.12161
51.44297
50.75051
50.05073
49.33965
48.6193
47.89304
47.1634
46.4329
45.70587
44.98485
44.27305
43.5753
42.89411
42.23037
41.58433
40.9565
40.34491
39.75088
39.16242
38.6225
38.09026
37.57024
37.06248
36.5673
36.08558
35.61762
35.16282
34.71963
34.28625
33.86101
33.44318
33.03247
32.62924
32.23494
31.85166
31.48088
31.1228
30.77608
30.43831
30.10677
29.77933
29.45535
29.13625
28.825
28.52475
28.23747
27.96316
27.69972
27.4437
27.19134
26.93958
26.68777
26.43732
26.19163
25.95376
25.72654
25.50922
25.30245
25.10322
24.90837
24.71595
24.52663
24.34318
24.16903
24.00699
23.85786
23.71991
23.58955
23.46288
23.33776
23.2142
23.09409
22.98029
22.8755
22.78136
22.69799
22.62259
22.54764
22.46755
22.3837
22.29955
22.22096
22.15099
22.09137
22.04255
22.00227
21.96604
21.92927
21.88913
21.84497
21.79786
21.74975
21.70249
21.65681
21.61195
21.56573
21.5157
21.45981
21.39623
21.32404
21.24373
21.15491
21.05429
20.94064
20.81288
20.67101
20.51371
20.34377
20.16611
19.98609
19.81426
19.65909
19.52512
19.41633
19.33493
19.28008
19.24747
19.23037
19.22157
19.21527
19.20865
19.20348
19.20987
19.23875
19.29457
19.3811
19.49976
19.64857
19.82247
20.01465
20.21794
20.42578
20.6325
20.83321
21.02338
21.19852
21.35405
21.48526
21.58753
21.65672
21.6896
21.68443
21.64132
21.56242
21.45188
21.31546
21.15986
20.99197
20.81813
20.64355
20.47193
20.30538
20.14451
19.98885
19.83704
19.68731
19.53778
19.38648
19.23182
19.07286
18.90942
18.74205
18.57176
18.40007
18.22913
18.06159
17.9006
17.74947
17.61161
17.49035
17.389
17.31087
17.25952
17.23899
17.25401
17.30987
17.41195
17.56525
17.77382
18.03969
18.36185
18.73626
19.15664
19.61514
20.10272
20.61003
21.12695
21.64306
22.14848
22.63474
23.0949
23.52383
23.91836
24.27795
24.6025
24.89162
25.14257
25.35107
25.50953
25.60914
25.63785
25.58485
25.43848
25.1956
24.85182
24.42322
23.92669
23.38027
22.8087
22.24102
21.70641
21.23148
20.83887
20.5466
20.36809
20.31189
20.38151
20.57494
20.8838
21.29262
21.77864
22.3114
22.8503
23.34544
23.74179
23.97867
24.00154
23.78513
23.35394
22.77468
22.12666
21.4817
20.89121
20.37975
19.94776
19.57789
19.24363
18.9183
18.58174
18.22375
17.84581
17.45963
17.08267
16.73408
16.43111
16.18507
16.00076
15.87898
15.81751
15.81169
15.85496
15.9383
16.04401
16.15727
16.26646
16.36123
16.43239
16.472
16.47415
16.43332
16.34526
16.20928
16.02828
15.8073
15.55261
15.27109
14.9696
14.65462
14.33168
14.00564
13.68068
13.36116
13.05209
12.75643
12.47536
12.21073
11.9631
11.7321
11.5162
11.3141
11.12474
10.94713
10.78028
10.62324
10.47519
10.33545
10.20345
10.07872
9.960877
9.849542
9.744364
9.644991
9.551059
9.462194
9.378005
9.298093
9.222063
9.149534
9.080164
9.013653
8.949744
8.888217
8.82888
8.771565
8.71611
8.662353
8.61012
8.559223
8.509444
8.460557
8.412326
8.36444
8.316688
8.268991
8.221286
8.173553
8.125979
8.078804
8.032152
7.986264
7.94152
7.898441
7.857688
7.820195
7.787163
7.760107
7.740836
7.731468
7.73454
7.753143
7.790245
7.849039
7.932827
8.044685
8.187274
8.36276
8.572727
8.81806
9.098705
9.413253
9.758327
10.12797
10.51328
10.90253
11.28154
11.63464
11.94589
12.20077
12.38797
12.50072
12.53713
12.49958
12.39356
12.22696
12.00961
11.75277
11.46812
11.16669
10.85831
10.55171
10.25384
9.969638
9.703087
9.45718
9.233388
9.032168
8.853018
8.693936
8.551445
8.424571
8.314039
8.219854
8.14074
8.074479
8.018643
7.970985
7.929021
7.889869
7.85173
7.81306
7.773755
7.735193
7.699173
7.667943
7.644192
7.629394
7.622238
7.618705
7.612674
7.599468
7.581658
7.564022
7.550953
7.544672
7.544644
7.548737
7.555037
7.56546
7.586183
7.625017
7.689097
7.784025
7.91022
8.054923
8.201569
8.332405
8.432462
8.490445
8.499954
8.459369
8.375038
8.256052
8.121365
7.985093
310.2879
209.0349
158.0254
141.3765
115.3364
97.13709
83.87229
78.80457
73.08523
69.78159
66.92549
63.04693
59.13239
55.40766
51.98404
48.1935
42.29547
40.92407
39.9119
39.35237
39.19011
39.28364
39.48611
39.74532
40.0552
40.4166
40.83652
41.34044
41.91193
42.52924
43.18281
43.86745
44.57615
45.30353
46.04368
46.79545
47.56071
48.34135
49.15216
50.01792
50.92366
51.75113
52.40143
53.09735
53.73594
54.25586
54.63756
54.86922
54.9465
54.87095
54.654
54.31905
53.87361
53.32648
52.69267
51.98808
51.22732
50.42321
49.58704
48.7301
47.86158
46.98936
46.12277
45.26698
44.42548
43.60009
42.78982
41.99364
41.2093
40.44158
39.69638
38.97833
38.28994
37.63256
37.00628
36.40953
35.83864
35.28934
34.756
34.23587
33.73048
33.24209
32.77101
32.31798
31.88426
31.46995
31.07323
30.6909
30.31956
29.95607
29.59804
29.24463
28.8969
28.55761
28.23049
27.91842
27.62217
27.34013
27.06869
26.80315
26.53963
26.27682
26.01661
25.76358
25.5232
25.29941
25.09291
24.90041
24.71631
24.53485
24.35205
24.16723
23.9831
23.80483
23.63772
23.48535
23.34783
23.22206
23.10331
22.9876
22.87357
22.76335
22.6615
22.57285
22.50025
22.44287
22.39589
22.35244
22.30683
22.25737
22.20584
22.15591
22.11134
22.0741
22.04323
22.01458
21.98087
21.93441
21.87258
21.79987
21.7264
21.65734
21.59568
21.54344
21.50005
21.46108
21.41962
21.37
21.31026
21.24178
21.16804
21.09329
21.02126
20.95389
20.89081
20.82954
20.76662
20.69867
20.62339
20.53998
20.44863
20.34911
20.24045
20.12218
19.99462
19.85887
19.71688
19.57147
19.4265
19.28846
19.17159
19.0841
19.0318
19.01995
19.04964
19.11439
19.20021
19.28919
19.36467
19.41486
19.43433
19.42434
19.39577
19.372
19.35857
19.35841
19.37176
19.39565
19.4254
19.45677
19.48718
19.51567
19.54246
19.56805
19.5924
19.6145
19.6321
19.64191
19.63993
19.62198
19.5843
19.5241
19.44006
19.33259
19.20389
19.05768
18.89873
18.73226
18.56329
18.39616
18.23408
18.07908
17.93199
17.79261
17.66001
17.53273
17.40911
17.28748
17.1663
17.04452
16.92157
16.79739
16.67223
16.54664
16.42165
16.29856
16.17888
16.06434
15.95677
15.85792
15.76926
15.69211
15.62801
15.57912
15.54855
15.54017
15.55838
15.60773
15.69244
15.81595
15.98041
16.18651
16.43337
16.7184
17.03729
17.38405
17.75103
18.12935
18.5096
18.88272
19.24082
19.57813
19.8916
20.18114
20.4486
20.697
20.92949
21.14869
21.3552
21.54673
21.71713
21.85657
21.95177
21.98823
21.9525
21.83338
21.6277
21.33735
20.97194
20.54911
20.09219
19.6276
19.18248
18.78248
18.45032
18.20501
18.06149
18.03032
18.11758
18.32496
18.64907
19.08054
19.60302
20.19547
20.82925
21.46373
22.0465
22.51015
22.78098
22.80351
22.57217
22.1406
21.5938
21.00966
20.43998
19.91096
19.42697
18.97812
18.55076
18.13513
17.72955
17.34071
16.9807
16.66336
16.4008
16.20059
16.0653
15.99201
15.97353
16.0015
16.06755
16.16243
16.27357
16.38859
16.49777
16.59226
16.66384
16.70428
16.70344
16.65362
16.5517
16.39892
16.19915
15.9575
15.67994
15.37294
15.04328
14.69758
14.34201
13.98237
13.62403
13.27247
12.93289
12.60851
12.30049
12.00926
11.73541
11.47871
11.23823
11.01285
10.8014
10.6027
10.41558
10.23892
10.07173
9.913112
9.76235
9.618875
9.482241
9.352097
9.228154
9.110166
8.997908
8.891161
8.789694
8.693259
8.601588
8.51441
8.431457
8.35247
8.277203
8.205416
8.136878
8.07136
8.008631
7.948441
7.890517
7.834541
7.780162
7.727178
7.675384
7.624673
7.5749
7.525835
7.477295
7.429147
7.381322
7.333802
7.286618
7.239877
7.193779
7.148629
7.104869
7.063117
7.0242
6.989171
6.959314
6.936148
6.921452
6.917246
6.92574
6.949342
6.990556
7.051823
7.135459
7.243717
7.378895
7.543386
7.739535
7.96927
8.233539
8.531654
8.860682
9.215016
9.586167
9.962777
10.33089
10.67469
10.9778
11.22515
11.40469
11.5086
11.53396
11.48291
11.36228
11.18238
10.95536
10.69371
10.40933
10.11317
9.814779
9.522209
9.242265
8.98024
8.739804
8.522949
8.329789
8.158696
8.006764
7.872373
7.754919
7.653507
7.566448
7.491509
7.426402
7.368566
7.315114
7.263229
7.211718
7.160315
7.109551
7.060574
7.015049
6.975797
6.946533
6.930176
6.926924
6.932806
6.940066
6.939706
6.928193
6.909584
6.891276
6.879554
6.875425
6.875298
6.874561
6.872132
6.872999
6.884239
6.912598
6.962845
7.036446
7.125908
7.21926
7.304196
7.370802
7.411042
7.418855
7.390615
7.328581
7.238047
7.13276
7.023583
156.6266
115.7343
178.0411
87.72467
75.33151
64.77529
61.72479
59.62418
57.29578
56.47499
55.34079
53.62074
52.01292
50.27031
48.16399
43.80041
42.85822
41.96856
41.09773
40.25022
39.3797
38.53352
37.76919
37.12362
36.62318
36.27833
36.00876
35.72943
35.63346
35.74779
36.0526
36.48917
36.99511
37.54227
38.12232
38.74
39.41333
40.12225
40.85726
41.61349
42.38771
43.17602
43.97299
44.77106
45.57166
46.38226
47.21267
48.03983
48.89862
49.82789
50.73143
51.54542
52.20575
52.78185
53.18917
53.40469
53.41881
53.2399
52.8826
52.365
51.70851
50.9375
50.07483
49.14081
48.15479
47.13435
46.095
45.04804
44.00321
42.96832
41.95072
40.95831
39.99853
39.07934
38.20497
37.37968
36.6004
35.86193
35.15701
34.48333
33.84015
33.22591
32.64386
32.09709
31.58672
31.1106
30.66338
30.23759
29.82638
29.42469
29.03084
28.64624
28.27369
27.91684
27.57918
27.26211
26.9639
26.68054
26.40712
26.13884
25.87199
25.60528
25.34042
25.08144
24.83427
24.60437
24.39453
24.20314
24.02497
23.85344
23.68321
23.51254
23.34426
23.18509
23.04277
22.92243
22.82396
22.74136
22.66586
22.59029
22.51163
22.43203
22.35815
22.29861
22.2602
22.24472
22.24784
22.26131
22.27737
22.2925
22.30935
22.33576
22.38086
22.45086
22.54584
22.65772
22.77135
22.87028
22.94667
23.00447
23.05455
23.10848
23.17409
23.2505
23.32641
23.38404
23.40047
23.36797
23.29761
23.21492
23.13652
23.06861
23.0093
22.95538
22.89935
22.83108
22.74115
22.62578
22.48888
22.33869
22.18451
22.03438
21.89324
21.76315
21.64299
21.52881
21.41607
21.3005
21.17979
21.05418
20.92549
20.79506
20.66312
20.52979
20.39552
20.26236
20.1337
20.01387
19.90844
19.82768
19.79531
19.8239
19.9254
20.11563
20.39433
20.73187
21.08304
21.40288
21.65825
21.83128
21.91863
21.9273
21.87461
21.79635
21.69818
21.57717
21.42827
21.2471
21.03539
20.80381
20.56616
20.33024
20.10239
19.88846
19.69233
19.51511
19.35533
19.20948
19.07275
18.93977
18.80532
18.66509
18.51607
18.35693
18.18805
18.01128
17.82963
17.64666
17.46599
17.29078
17.12339
16.96528
16.81695
16.67809
16.5478
16.42473
16.30739
16.19432
16.08417
15.97597
15.86923
15.76383
15.65978
15.55723
15.45665
15.35865
15.26395
15.17345
15.08818
15.00892
14.93587
14.86882
14.80752
14.75239
14.70486
14.66741
14.6432
14.6358
14.6488
14.68562
14.74928
14.84215
14.96574
15.12032
15.3047
15.51608
15.74995
16.00028
16.25993
16.52126
16.77694
17.02087
17.24892
17.45943
17.65308
17.83273
18.0028
18.1684
18.33409
18.50269
18.67433
18.84554
19.00901
19.1536
19.26542
19.32858
19.32921
19.25721
19.10771
18.88298
18.59264
18.2529
17.88468
17.51143
17.157
16.84391
16.59218
16.41866
16.33695
16.35769
16.48852
16.73334
17.09126
17.556
18.11603
18.75723
19.4592
20.18914
20.89575
21.50032
21.90856
22.05043
21.91886
21.56982
21.08729
20.54748
20.00142
19.47477
18.97635
18.5076
18.06975
17.66724
17.30783
17.00057
16.75311
16.56947
16.44929
16.38807
16.37731
16.40557
16.46091
16.53255
16.61142
16.68879
16.75802
16.81304
16.84549
16.84492
16.80257
16.71396
16.5788
16.39962
16.18017
15.92451
15.63703
15.32278
14.98729
14.63637
14.27597
13.912
13.55045
13.19679
12.85423
12.52434
12.20882
11.90871
11.62462
11.3567
11.10455
10.86741
10.64425
10.43394
10.23532
10.04726
9.8686
9.698352
9.535736
9.380147
9.231133
9.088371
8.951622
8.820681
8.69541
8.575704
8.461468
8.352593
8.248946
8.150371
8.056696
7.967732
7.883274
7.803103
7.726981
7.654643
7.585791
7.520077
7.457194
7.396956
7.339178
7.283503
7.229588
7.17713
7.125858
7.075535
7.02597
6.977007
6.928531
6.88047
6.832801
6.785567
6.738889
6.692984
6.648176
6.604927
6.563859
6.525764
6.491603
6.462494
6.43971
6.424684
6.419029
6.424505
6.442932
6.476089
6.525683
6.593477
6.681524
6.79233
6.92881
7.093988
7.290546
7.520306
7.78368
8.079132
8.40275
8.747945
9.105291
9.4626
9.805407
10.11796
10.38456
10.5912
10.72727
10.78708
10.77066
10.68328
10.53417
10.33477
10.09739
9.83424
9.556753
9.275247
8.998726
8.734557
8.488198
8.262959
8.059949
7.878478
7.716584
7.572758
7.445875
7.334508
7.23675
7.150478
7.073489
7.003427
6.93821
6.876173
6.815929
6.756874
6.699171
6.643253
6.590304
6.543563
6.50797
6.487655
6.483678
6.493146
6.509022
6.52023
6.517068
6.499703
6.478248
6.462156
6.45331
6.447215
6.4374
6.422363
6.408638
6.403378
6.412796
6.440219
6.4847
6.540245
6.59918
6.653862
6.697599
6.724584
6.729345
6.7072
6.657573
6.583832
6.496902
6.406119
63.05957
47.46722
46.24463
44.00302
43.0739
41.93688
41.0593
40.32615
39.7318
38.75543
36.24796
36.19783
36.16664
36.14693
36.10657
36.03224
35.95899
35.91608
35.91297
35.93483
35.83702
35.49633
35.15364
34.81351
34.48437
34.16905
33.89069
33.67161
33.52165
33.44584
33.44081
33.49574
33.62932
33.87658
34.24802
34.73124
35.29085
35.8907
36.51154
37.15053
37.82977
38.53807
39.27338
40.03545
40.81903
41.62287
42.4458
43.29011
44.12592
44.95868
45.80768
46.72466
47.58684
48.45648
49.28738
50.0066
50.55944
50.90785
51.04845
50.96691
50.66373
50.15084
49.4506
48.58979
47.59659
46.4999
45.32823
44.11052
42.87328
41.63867
40.42503
39.24492
38.1043
37.00635
35.95161
34.94352
33.98906
33.10463
32.2935
31.55585
30.88605
30.27537
29.71292
29.18781
28.68796
28.20762
27.74834
27.31526
26.91391
26.54748
26.2146
25.9091
25.62197
25.34436
25.06984
24.79564
24.52302
24.25636
24.00181
23.76538
23.55036
23.35578
23.17732
23.0092
22.84565
22.68239
22.51832
22.3561
22.20248
22.06693
21.95706
21.8754
21.81787
21.77573
21.74128
21.71121
21.68788
21.67893
21.69481
21.74409
21.82906
21.94032
22.05725
22.16152
22.24709
22.32236
22.4072
22.52539
22.69453
22.91762
23.18086
23.45841
23.72299
23.96037
24.17321
24.38183
24.61503
24.89682
25.23586
25.62076
26.01902
26.38562
26.68243
26.90166
27.06547
27.20831
27.36244
27.54866
27.76197
27.96627
28.11559
28.1638
28.10509
27.97856
27.84221
27.71602
27.61256
27.52229
27.43129
27.31649
27.15425
26.9321
26.65495
26.34011
26.00791
25.67638
25.35803
25.05775
24.77555
24.50747
24.245
23.98638
23.72927
23.47417
23.22579
22.9895
22.76934
22.56487
22.37738
22.20591
22.05583
21.93501
21.85323
21.82205
21.85973
22.00461
22.27785
22.69704
23.28252
24.01247
24.80581
25.56679
26.21617
26.70944
27.0392
27.21875
27.2683
27.21326
27.08775
26.88897
26.60133
26.20997
25.71135
25.1206
24.47058
23.79902
23.13016
22.48333
21.87977
21.3354
20.85044
20.4212
20.04114
19.7021
19.39545
19.11293
18.84742
18.59335
18.34699
18.1064
17.87125
17.64242
17.42147
17.21021
17.01021
16.82253
16.64758
16.48515
16.33442
16.19422
16.06314
15.93972
15.82261
15.71067
15.60306
15.49941
15.39967
15.3039
15.21211
15.12432
15.04055
14.961
14.88609
14.8163
14.75171
14.69161
14.63452
14.57882
14.52346
14.4686
14.41552
14.36636
14.32365
14.29012
14.26863
14.26209
14.27335
14.3049
14.35849
14.43485
14.53347
14.65248
14.78863
14.93742
15.09342
15.25091
15.40446
15.54975
15.68411
15.80686
15.91942
16.02518
16.12888
16.23579
16.35076
16.47716
16.61586
16.76445
16.91678
17.06313
17.19057
17.28509
17.3333
17.32395
17.25012
17.11071
16.91094
16.66197
16.37966
16.08287
15.79171
15.52586
15.30336
15.14017
15.05023
15.04556
15.13591
15.32841
15.62747
16.03451
16.54645
17.15398
17.84481
18.60165
19.39191
20.15591
20.80171
21.23168
21.38724
21.27775
20.9665
20.53238
20.0417
19.53936
19.05216
18.59577
18.18077
17.81567
17.5075
17.26077
17.07618
16.95024
16.8758
16.84305
16.8403
16.85473
16.87407
16.89036
16.89908
16.89558
16.87426
16.82922
16.7553
16.64913
16.50874
16.33419
16.12768
15.89231
15.63079
15.3457
15.04034
14.71874
14.3854
14.04539
13.704
13.36545
13.0318
12.70447
12.38584
12.0781
11.78279
11.50101
11.23343
10.98017
10.74088
10.51483
10.30105
10.09842
9.905806
9.722132
9.546487
9.3781
9.216355
9.060796
8.91109
8.76694
8.62816
8.494703
8.366585
8.243856
8.126558
8.014665
7.908131
7.806879
7.710799
7.619744
7.533529
7.451919
7.374629
7.301333
7.231877
7.166049
7.103474
7.043761
6.98651
6.93134
6.877902
6.82589
6.775046
6.725163
6.676075
6.627657
6.579825
6.532543
6.485838
6.439804
6.39462
6.350555
6.307987
6.267416
6.229467
6.194884
6.164507
6.139268
6.120201
6.108462
6.105319
6.112076
6.129967
6.160119
6.203689
6.262181
6.337737
6.433163
6.551642
6.696342
6.870031
7.074678
7.31098
7.577904
7.872291
8.188579
8.518686
8.852124
9.176317
9.477063
9.739372
9.949008
10.09459
10.16942
10.17233
10.10724
9.982005
9.807007
9.593925
9.354685
9.100707
8.842397
8.588677
8.346525
8.120641
7.913444
7.725512
7.556095
7.404137
7.268448
7.14753
7.039587
6.942741
6.855097
6.774879
6.700607
6.630996
6.564897
6.501435
6.440118
6.380785
6.324062
6.272594
6.231257
6.204481
6.194246
6.200023
6.21787
6.237904
6.245508
6.232843
6.209906
6.18807
6.170571
6.153769
6.130549
6.102076
6.076743
6.061534
6.061331
6.077619
6.107022
6.143829
6.183292
6.220567
6.250524
6.268529
6.270152
6.250719
6.207662
6.143481
6.067759
5.989565
86.92225
36.89617
31.04473
29.83446
29.218
28.97847
29.02973
29.24941
29.59423
30.02724
30.39733
30.59155
30.78856
30.97251
31.14583
31.30066
31.44447
31.57813
31.68823
31.75171
31.7426
31.6765
31.60866
31.54715
31.49825
31.46942
31.46911
31.509
31.59014
31.71315
31.87917
32.09265
32.36523
32.70639
33.12033
33.5992
34.1227
34.67111
35.2445
35.88032
36.56586
37.2994
38.08229
38.90961
39.75723
40.62472
41.5099
42.45022
43.34532
44.22648
45.10452
45.98713
46.82127
47.54684
48.11426
48.47486
48.59974
48.48499
48.10939
47.49351
46.6631
45.64872
44.48566
43.21085
41.86043
40.46777
39.06215
37.67212
36.32331
35.03717
33.8295
32.70803
31.67189
30.71237
29.827
29.01187
28.26535
27.58853
26.98435
26.45352
25.98775
25.57499
25.19911
24.8442
24.49866
24.15872
23.82818
23.51532
23.22939
22.97665
22.75679
22.56251
22.38275
22.20696
22.02844
21.84547
21.66093
21.48148
21.3159
21.17307
21.05835
20.97072