/*--------------------------------*- C++ -*----------------------------------*\
| =========                 |                                                 |
| \\      /  F ield         | foam-extend: Open Source CFD                    |
|  \\    /   O peration     | Version:     3.1                                |
|   \\  /    A nd           | Web:         http://www.extend-project.de       |
|    \\/     M anipulation  |                                                 |
\*---------------------------------------------------------------------------*/
FoamFile
{
    version     2.0;
    format      ascii;
    class       volScalarField;
    location    "15";
    object      pd;
}
// * * * * * * * * * * * * * * * * * * * * * * * * * * * * * * * * * * * * * //

dimensions      [1 -1 -2 0 0 0 0];

internalField   nonuniform List<scalar> 
119952
(
5405.696
3818.67
3592.274
3813.971
4046.691
3856.666
3802.565
3769.196
3755.317
3751.273
3754.484
3764.289
3779.757
3800.056
3824.584
3852.748
3883.645
3914.91
3935.202
3901.001
4248.267
4135.119
4126.709
4560.708
4588.762
4687.464
4772.792
4920.9
5262.186
7877.457
3317.149
3258.947
3256.449
3247.875
3241.109
3234.173
3232.477
3233.076
3236.36
3214.967
3211.481
3234.385
3236.69
3243.112
3250.768
3261.247
3274.284
3288.431
3304.88
3347.377
3359.308
3356.266
3369.023
3386.233
3402.084
3418.373
3434.66
3449.25
3470.614
3476.362
3485.264
3503.72
3520.285
3536.231
3553.716
3573.009
3603.327
3692.74
3871.419
3737.8
3686.977
3782.246
3829.278
3813.013
3774.745
3754.426
3746.294
3745.067
3750.855
3762.918
3780.208
3802.038
3828.013
3857.678
3890.395
3925.569
3964.417
4013.539
4088.236
4173.537
4235.733
4385.246
4578.159
4666.936
4734.163
4800.15
4793.918
4618.486
4626.876
4725.633
4787.938
4840.936
4887.333
4923.371
4950.984
4970.739
4983.146
4988.718
4988.507
4983.748
4975.94
4966.808
4958.163
4951.881
4949.967
4953.51
4963.528
4980.755
5005.425
5037.345
5075.969
5120.474
5169.944
5223.378
5279.843
5338.542
5398.82
5460.181
5522.248
5584.692
5647.181
5709.371
5770.938
5831.61
5891.185
5949.538
6006.606
6062.347
6116.687
6169.474
6220.557
6269.705
6316.585
6361.197
6403.345
6443.25
6482.562
6521.713
6558.288
6589.466
6619.668
6648.264
6675.514
6701.6
6726.805
6751.397
6775.659
6800.03
6824.761
6850.012
6875.946
6902.658
6930.175
6958.513
6987.666
7017.617
7048.337
7079.79
7111.896
7144.465
7177.133
7209.264
7239.774
7267.646
7293.552
7319.308
7346.232
7374.631
7403.909
7432.896
7460.308
7485.726
7509.461
7531.779
7552.944
7573.32
7593.262
7612.986
7632.53
7651.879
7670.999
7689.832
7708.268
7726.093
7743.169
7759.941
7777.677
7796.993
7812.337
7827.393
7842.718
7857.196
7870.997
7883.98
7896.216
7907.761
7918.652
7928.976
7938.749
7947.959
7956.572
7964.531
7971.77
7978.227
7983.824
7988.508
7992.247
7994.987
7996.643
7997.124
7996.316
7993.996
7989.795
7983.272
7974.002
7961.625
7945.834
7926.388
7903.117
7875.931
7844.779
7809.446
7770.728
7734.826
7696.105
7656.624
7617.628
7580.643
7547.145
7518.532
7495.953
7480.494
7473.196
7474.056
7483.476
7501.199
7526.575
7558.647
7596.168
7637.692
7681.691
7726.68
7771.322
7814.488
7855.305
7893.22
7927.905
7959.16
7986.908
8011.193
8032.167
8050.037
8065.068
8077.522
8087.644
8095.74
8101.73
8110.472
8112.682
8111.063
8110.872
8110.634
8109.606
8108.158
8106.333
8104.097
8101.475
8098.508
8095.225
8091.651
8087.819
8083.756
8079.495
8075.065
8070.496
8065.818
8061.054
8056.23
8051.364
8046.485
8041.591
8036.723
8031.844
8026.993
8022.182
8017.402
8012.662
8007.964
8003.311
7998.707
7994.155
7989.66
7985.228
7980.866
7976.584
7972.391
7968.248
7964.309
7960.662
7957.081
7953.764
7950.767
7947.457
7942.835
7937.944
7933.475
7929.36
7925.51
7921.975
7918.531
7912.899
7905.205
7905.097
7904.708
7901.862
7899.081
7896.701
7894.424
7892.215
7890.104
7888.056
7886.065
7884.139
7882.266
7880.419
7878.556
7876.608
7874.527
7872.238
7869.659
7866.694
7863.235
7859.159
7854.411
7848.914
7842.791
7836.075
7828.87
7821.291
7813.464
7805.53
7796.947
7787.964
7781.311
7773.055
7765.38
7759.52
7754.662
7750.873
7749.195
7749.304
7751.593
7756.14
7762.574
7770.397
7779.089
7788.212
7797.403
7806.331
7814.679
7822.154
7828.492
7833.439
7836.767
7838.245
7837.624
7834.627
7829.162
7821.234
7810.843
7798.174
7783.642
7767.993
7752.018
7736.326
7721.304
7706.881
7693.438
7683.644
7673.83
7664.254
7654.286
7642.799
7630.933
7619.166
7607.84
7596.955
7586.31
7575.421
7563.846
7551.139
7536.667
7519.692
7504.568
7510.386
7572.73
6398.096
6247.228
6068.976
5896.664
5726.934
5561.344
5400.746
5245.293
5095.429
4942.307
4803.556
4679.381
4555.434
4441.926
4336.13
4238.078
4148.314
4062.823
3967.222
3917.458
3843.56
3772.165
3713.781
3661.316
3613.686
3570.992
3531.439
3497.339
3469.998
3427.758
3399.647
3375.645
3352.447
3332.579
3314.826
3299.198
3287.613
3284.705
3258.442
3241.742
3235.861
3230.859
3226.126
3223.743
3223.01
3224.185
3227.08
3224.902
3231.729
3239.673
3246.487
3254.082
3263.723
3275.496
3290.058
3313.704
3314.831
3333.026
3354.723
3374.245
3390.869
3406.16
3421.404
3436.811
3451.897
3465.364
3480.257
3496.112
3510.467
3524.075
3539.404
3558.756
3584.875
3620.555
3662.29
3699.551
3710.768
3706.077
3715.806
3731.121
3737.125
3731.52
3723.267
3720.307
3724.818
3735.885
3752.149
3772.828
3797.718
3826.823
3860.281
3898.41
3942.129
3993.112
4053.592
4125.466
4208.866
4303.918
4410.091
4520.443
4613.4
4680.02
4720.319
4733.564
4726.291
4740.359
4783.255
4835.143
4883.445
4923.025
4953.057
4974.341
4987.748
4993.897
4993.409
4987.289
4977.017
4964.326
4951.143
4939.56
4931.291
4928.174
4931.289
4941.827
4960.504
4987.384
5022.081
5063.887
5111.876
5164.987
5222.169
5282.438
5344.925
5408.894
5473.738
5538.955
5604.111
5668.819
5732.738
5795.581
5857.125
5917.223
5975.787
6032.773
6088.15
6141.855
6193.797
6243.85
6291.852
6337.699
6381.284
6422.792
6462.295
6499.911
6535.841
6569.699
6601.09
6630.199
6657.509
6683.494
6708.426
6732.627
6756.381
6779.991
6803.781
6828.014
6852.923
6878.647
6905.27
6932.826
6961.315
6990.706
7020.935
7051.928
7083.581
7115.715
7148.076
7180.321
7211.922
7242.378
7271.48
7299.561
7327.424
7355.707
7384.564
7413.548
7441.895
7469.029
7494.592
7518.658
7541.388
7563
7583.772
7603.936
7623.604
7642.844
7661.68
7680.094
7698.117
7715.77
7733.003
7750.125
7767.502
7786.219
7801.429
7817.441
7831.357
7846.025
7860.46
7874.18
7887.225
7899.595
7911.31
7922.417
7932.948
7942.892
7952.191
7960.782
7968.611
7975.633
7981.822
7987.046
7991.331
7994.639
7996.992
7998.426
7998.831
7998.053
7995.874
7991.919
7985.697
7976.738
7964.647
7949.094
7929.829
7906.693
7879.632
7848.739
7814.41
7777.578
7739.445
7699.845
7659.408
7619.461
7581.454
7546.859
7517.03
7493.161
7476.243
7466.767
7466.356
7474.201
7490.181
7513.849
7544.34
7580.468
7620.82
7663.882
7708.154
7752.335
7795.217
7835.844
7873.755
7908.644
7940.27
7968.514
7993.398
8015.057
8033.653
8049.473
8062.719
8073.669
8082.878
8091.476
8091.281
8095.668
8100.183
8101.667
8101.539
8100.943
8100.084
8098.848
8097.171
8095.073
8092.599
8089.787
8086.663
8083.255
8079.59
8075.697
8071.607
8067.348
8062.951
8058.438
8053.837
8049.17
8044.455
8039.709
8034.938
8030.184
8025.438
8020.706
8015.997
8011.318
8006.674
8002.069
7997.507
7992.993
7988.532
7984.128
7979.788
7975.519
7971.331
7967.235
7963.249
7959.365
7955.617
7951.946
7948.244
7944.373
7940.206
7935.879
7931.594
7927.513
7923.686
7920.064
7916.579
7912.743
7908.328
7904.625
7902.201
7900.213
7898.132
7895.985
7893.923
7892.015
7890.245
7888.546
7886.915
7885.36
7883.82
7882.217
7880.488
7878.583
7876.451
7874.061
7871.354
7868.244
7864.641
7860.468
7855.649
7850.141
7843.954
7837.132
7829.805
7822.167
7814.241
7806.125
7798.75
7790.173
7774.983
7761.013
7754.045
7746.807
7741.766
7738.274
7735.445
7734.73
7743.047
7751.675
7758.701
7765.828
7773.363
7781.293
7789.325
7797.104
7804.223
7810.407
7815.511
7819.257
7821.461
7821.956
7820.451
7816.719
7810.73
7802.496
7792.184
7780.212
7766.757
7752.44
7738.14
7724.302
7708.651
7691.855
7681.414
7671.379
7665.783
7657.397
7646.985
7635.94
7625.002
7614.452
7604.483
7595.016
7585.858
7576.536
7566.821
7556.9
7547.157
7539.487
7534.503
7534.627
7536.258
3746.837
3784.354
3843.648
3918.041
4010.361
4118.928
4243.421
4383.207
4537.813
4705.158
4882.683
5072.621
5268.803
5470.608
5676.22
5883.126
6086.916
6285.888
6480.089
6685.086
6854.228
7009.777
7149.156
7267.917
7363.214
7433.631
7478.05
7495.368
7491.203
7457.48
7397.89
7316.109
7214.373
7094.963
6960.421
6813.377
6656.89
6494.142
6315.388
6146.774
5975.295
5805.386
5638.548
5475.774
5318.251
5166.727
5022.175
4883.958
4749.105
4624.898
4506.582
4395.659
4292.844
4197.604
4110.402
4040.05
3918.109
3849.606
3792.414
3735.991
3681.144
3630.393
3584.839
3544.153
3507.519
3473.573
3441.806
3413.597
3387.348
3362.305
3339.376
3319.378
3302.294
3287.767
3274.994
3263.051
3252.624
3243.075
3234.099
3226.485
3221.003
3217.887
3216.918
3217.658
3219.776
3223.944
3229.377
3235.208
3241.983
3250.335
3260.455
3272.495
3285.982
3301.213
3317.939
3336.928
3356.032
3372.978
3388.601
3403.935
3419.202
3434.49
3449.545
3464.39
3478.785
3492.108
3504.914
3518.198
3532.988
3550.637
3571.622
3595.423
3621.329
3648.209
3664.935
3667.929
3671.428
3681.313
3688.919
3690.274
3689.282
3691.732
3700.319
3714.674
3733.614
3756.567
3783.54
3814.838
3850.941
3892.486
3940.256
3995.108
4057.963
4130.039
4212.104
4300.669
4393.404
4488.622
4576.611
4646
4697.841
4733.474
4760.69
4787.903
4826.529
4874.031
4919.314
4955.676
4981.9
4998.881
5007.391
5008.021
5001.498
4989.043
4972.387
4953.583
4934.815
4918.167
4905.493
4898.567
4898.985
4907.836
4925.926
4953.298
4989.395
5033.333
5084.061
5140.426
5201.255
5265.439
5331.978
5400.005
5468.786
5537.704
5606.238
5673.942
5740.443
5805.446
5868.732
5930.167
5989.68
6047.249
6102.874
6156.541
6208.218
6257.846
6305.343
6350.658
6393.751
6434.618
6473.305
6509.912
6544.475
6576.918
6607.083
6635.091
6661.355
6686.259
6710.111
6733.22
6755.895
6778.477
6801.313
6824.702
6848.882
6874.009
6900.164
6927.376
6955.627
6984.857
7014.976
7045.877
7077.422
7109.417
7141.615
7173.734
7205.438
7236.385
7266.413
7295.755
7324.89
7354.146
7383.55
7412.801
7441.328
7468.729
7494.87
7519.739
7543.321
7565.692
7587.087
7607.745
7627.791
7647.287
7666.299
7684.87
7702.956
7720.638
7737.965
7755.058
7771.961
7788.297
7803.393
7820.329
7836.422
7851.147
7864.949
7878.197
7890.95
7903.163
7914.826
7925.967
7936.6
7946.707
7956.226
7965.071
7973.193
7980.608
7987.337
7993.108
7997.448
8000.349
8002.062
8002.806
8002.662
8001.696
7999.719
7995.962
7989.678
7980.475
7967.962
7951.76
7931.625
7907.475
7879.326
7847.359
7811.991
7773.735
7733.197
7691.1
7648.404
7606.458
7566.871
7531.106
7500.449
7476.177
7459.285
7450.746
7450.14
7458.63
7475.713
7500.783
7532.894
7570.736
7612.703
7657.228
7702.654
7747.533
7790.878
7832.03
7870.453
7905.59
7937.123
7964.972
7989.201
8010.004
8027.756
8042.782
8055.379
8065.955
8074.443
8080.441
8083.243
8086.857
8090.357
8092.124
8092.698
8092.793
8092.569
8091.936
8090.84
8089.299
8087.356
8085.049
8082.407
8079.458
8076.227
8072.742
8069.029
8065.117
8061.034
8056.806
8052.458
8048.016
8043.497
8038.918
8034.299
8029.661
8025.014
8020.369
8015.735
8011.117
8006.525
8001.962
7997.435
7992.951
7988.51
7984.115
7979.774
7975.493
7971.282
7967.14
7963.078
7959.085
7955.119
7951.191
7947.257
7943.256
7939.114
7934.837
7930.594
7926.507
7922.609
7918.88
7915.273
7911.933
7909.227
7906.562
7903.676
7900.788
7898.099
7895.675
7893.549
7891.698
7890.045
7888.523
7887.112
7885.785
7884.484
7883.135
7881.667
7880.015
7878.115
7875.912
7873.35
7870.359
7866.864
7862.791
7858.072
7852.66
7846.543
7839.752
7832.393
7824.632
7816.632
7808.622
7800.802
7792.852
7785.486
7778.677
7768.163
7747.339
7740.434
7736.476
7733.35
7730.946
7730.098
7731.767
7748.453
7760.64
7767.614
7774.423
7781.49
7788.442
7794.819
7800.268
7804.828
7808.328
7810.518
7811.023
7809.529
7805.856
7799.935
7791.76
7781.642
7769.816
7756.659
7742.948
7729.556
7716.921
7703.394
7685.583
7678.594
7673.319
7664.693
7654.297
7643.577
7632.802
7622.384
7612.467
7603.296
7595.077
7587.533
7580.019
7572.345
7564.705
7557.575
7551.18
7546.68
7543.888
7542.598
3862.58
3823.555
3789.313
3755.243
3726.868
3706.96
3699.623
3709.044
3732.171
3734.894
3720.503
3720.782
3742.327
3781.788
3838.505
3911.505
4000.705
4105.373
4225.424
4360.227
4508.62
4670.678
4843.371
5026.007
5216.642
5413.153
5613.385
5814.849
6015.063
6211.7
6403.934
6625.853
6800.322
6952.842
7086.413
7199.331
7289.405
7355.062
7395.067
7409.408
7398.855
7362.074
7299.601
7214.148
7108.713
6986.05
6848.807
6699.641
6541.226
6376.283
6207.371
6037.254
5867.432
5699.697
5535.554
5376.214
5222.387
5074.522
4933.212
4798.709
4670.519
4548.948
4434.764
4328.36
4229.802
4138.635
4054.177
3974.678
3896.29
3828.29
3769.707
3713.496
3659.345
3609.65
3565.418
3526.198
3490.836
3458.649
3429.276
3401.577
3375.173
3350.643
3328.457
3309.045
3292.477
3278.323
3266.153
3255.816
3246.137
3236.098
3226.695
3218.914
3213.17
3209.789
3208.694
3209.777
3212.798
3217.106
3222.322
3228.534
3235.698
3244.047
3253.986
3265.989
3280.351
3297.241
3315.806
3334.924
3353.547
3371.144
3387.846
3404.098
3419.879
3435.085
3450.027
3464.353
3477.354
3489.021
3500.29
3511.809
3523.942
3537.193
3551.749
3567.824
3585.409
3603.179
3615.891
3621.471
3625.331
3631.715
3638.718
3644.138
3649.203
3657.011
3669.628
3686.99
3708.214
3733.1
3761.89
3795.036
3833.176
3877.015
3927.211
3984.34
4048.927
4121.363
4201.141
4286.349
4374.996
4464.759
4550.383
4625.59
4689.343
4742.806
4788.844
4830.959
4875.126
4921.477
4964.069
4997.81
5021.084
5034.052
5037.166
5031.039
5016.635
4995.557
4969.96
4942.341
4915.273
4890.994
4871.535
4858.985
4855.121
4861.199
4878.016
4905.537
4942.963
4989.207
5043.116
5103.411
5168.748
5237.837
5309.495
5382.682
5456.506
5530.219
5603.198
5674.932
5745.004
5813.101
5878.999
5942.565
6003.739
6062.517
6118.93
6173.012
6224.791
6274.274
6321.449
6366.299
6408.798
6448.948
6486.786
6522.351
6555.662
6586.743
6615.598
6642.337
6667.246
6690.668
6712.948
6734.437
6755.535
6776.65
6798.138
6820.32
6843.464
6867.743
6893.237
6919.958
6947.863
6976.861
7006.822
7037.587
7068.971
7100.762
7132.735
7164.664
7196.311
7227.47
7258.074
7288.255
7318.238
7348.169
7378.031
7407.601
7436.515
7464.502
7491.388
7517.074
7541.538
7564.875
7587.282
7608.907
7629.81
7650.02
7669.579
7688.615
7707.186
7725.341
7743.018
7760.188
7776.807
7792.967
7808.813
7824.814
7840.064
7854.232
7867.631
7880.466
7892.8
7904.648
7916.02
7926.946
7937.454
7947.542
7957.167
7966.237
7974.623
7982.21
7988.977
7994.917
8000.127
8004.543
8007.649
8009.256
8009.442
8008.371
8006.095
8002.181
7996.034
7987.13
7974.925
7958.835
7938.631
7914.309
7885.761
7853.029
7816.511
7776.779
7734.509
7690.517
7645.839
7601.756
7559.805
7521.663
7488.893
7462.618
7443.726
7433.093
7431.12
7438.344
7454.602
7479.362
7511.721
7550.259
7593.284
7638.785
7685.132
7731.195
7776.027
7818.796
7858.617
7894.882
7927.303
7955.827
7980.565
8001.733
8019.593
8034.406
8046.639
8056.734
8064.715
8070.802
8075.346
8079.432
8082.856
8085.161
8086.476
8087.139
8087.32
8087.039
8086.296
8085.099
8083.487
8081.498
8079.163
8076.509
8073.562
8070.345
8066.884
8063.209
8059.346
8055.323
8051.164
8046.891
8042.526
8038.086
8033.594
8029.064
8024.511
8019.945
8015.376
8010.814
8006.268
8001.738
7997.23
7992.763
7988.333
7983.937
7979.579
7975.242
7970.96
7966.731
7962.555
7958.431
7954.365
7950.301
7946.214
7942.08
7937.877
7933.623
7929.401
7925.286
7921.321
7917.524
7913.923
7910.588
7907.466
7904.333
7901.277
7898.463
7895.942
7893.692
7891.689
7889.904
7888.303
7886.863
7885.571
7884.414
7883.345
7882.288
7881.154
7879.851
7878.292
7876.399
7874.1
7871.327
7868.013
7864.094
7859.507
7854.199
7848.148
7841.393
7834.045
7826.261
7818.194
7810.026
7801.931
7793.997
7786.568
7779.644
7772.89
7767.173
7762.555
7758.468
7751.429
7729.336
7731.075
7745.621
7754.575
7759.148
7764.286
7770.344
7776.85
7783.276
7788.645
7791.836
7795.903
7800.186
7803.186
7803.73
7802.017
7798.23
7792.521
7784.936
7775.529
7764.226
7751.006
7736.793
7722.612
7709.489
7698.608
7690.424
7682.13
7671.211
7661.407
7652.092
7641.631
7630.965
7620.679
7610.788
7601.425
7593.724
7587.637
7581.874
7576.022
7570.331
7564.797
7560.015
7556.267
7553.908
7551.287
4360.456
4320.585
4281.175
4239.208
4194.077
4144.692
4098.309
4051.429
4004.891
3958.804
3913.71
3871.146
3829.782
3791.316
3757.314
3727.367
3701.703
3687.345
3681.441
3679.605
3677.747
3680.873
3694.763
3722.765
3766.194
3825.292
3898.705
3988.22
4094.04
4215.429
4351.657
4501.686
4664.486
4838.913
5023.15
5215.073
5412.53
5613.468
5815.259
6015.87
6211.798
6399.133
6567.75
6735.45
6886.866
7019.891
7132.347
7222.499
7288.143
7327.721
7340.751
7327.872
7289.372
7225.987
7139.864
7033.885
6910.916
6773.65
6624.7
6466.696
6302.206
6133.541
5963.552
5794.767
5628.88
5466.871
5309.753
5158
5012.091
4872.881
4740.226
4613.787
4494.375
4382.749
4279.199
4183.526
4095.337
4013.226
3936.954
3866.009
3800.945
3741.748
3686.416
3634.512
3587.145
3545.019
3507.766
3474.399
3444.08
3415.902
3389
3363.361
3339.441
3317.678
3298.607
3282.489
3269.108
3258.004
3248.319
3238.841
3229.134
3219.808
3211.59
3205.161
3201.55
3200.284
3201.405
3204.781
3209.653
3215.28
3221.562
3228.426
3236.231
3245.782
3257.986
3273.359
3291.715
3312.081
3332.931
3352.917
3371.915
3389.744
3406.451
3422.242
3437.08
3451.489
3464.834
3476.449
3486.041
3494.951
3503.499
3511.722
3519.805
3528.271
3537.858
3548.829
3559.881
3567.015
3571.471
3575.225
3580.2
3586.799
3594.613
3604.009
3616.175
3632.425
3652.595
3675.653
3701.979
3732.082
3766.487
3805.975
3851.36
3903.263
3962.072
4028.022
4101.063
4180.558
4265.323
4353.658
4443.356
4531.345
4614.077
4689.655
4757.77
4819.181
4875.414
4928.28
4977.396
5019.725
5052.107
5072.974
5081.79
5078.506
5063.768
5038.874
5006.093
4968.295
4928.597
4890.158
4855.5
4826.976
4806.873
4797.06
4799.304
4814.481
4842.253
4881.327
4930.363
4988.258
5053.617
5124.835
5200.317
5278.603
5358.417
5438.68
5518.498
5597.142
5674.024
5748.686
5820.789
5890.104
5956.498
6019.923
6080.4
6137.996
6192.802
6244.909
6294.392
6341.304
6385.674
6427.519
6466.855
6503.701
6538.08
6570.013
6599.548
6626.751
6651.746
6674.773
6696.178
6716.371
6735.76
6754.809
6773.975
6793.655
6814.244
6836.069
6859.313
6884.038
6910.234
6937.829
6966.683
6996.607
7027.373
7058.739
7090.465
7122.328
7154.135
7185.729
7217.002
7247.927
7278.578
7309.077
7339.509
7369.849
7399.939
7429.517
7458.33
7486.181
7512.96
7538.628
7563.216
7586.81
7609.488
7631.307
7652.354
7672.726
7692.519
7711.746
7730.412
7748.473
7765.92
7782.824
7799.295
7815.214
7830.531
7845.067
7858.737
7871.641
7883.876
7895.542
7906.717
7917.455
7927.8
7937.787
7947.432
7956.703
7965.531
7973.845
7981.59
7988.643
7994.936
8000.386
8004.857
8008.555
8011.685
8013.842
8014.288
8012.546
8008.555
8002.142
7992.774
7979.961
7963.26
7942.348
7917.066
7887.36
7853.286
7815.172
7773.711
7729.682
7683.934
7637.534
7591.721
7547.855
7507.622
7472.752
7444.738
7424.51
7412.68
7409.939
7416.618
7432.798
7457.957
7491.346
7531.184
7575.288
7621.918
7669.765
7717.827
7764.648
7809.044
7850.167
7887.463
7920.671
7949.77
7974.912
7996.362
8014.454
8029.546
8041.935
8051.725
8059.162
8065.097
8069.9
8073.846
8077.055
8079.455
8081.055
8082.003
8082.433
8082.403
8081.946
8081.057
8079.742
8078.04
8075.985
8073.605
8070.923
8067.954
8064.721
8061.259
8057.597
8053.763
8049.78
8045.671
8041.456
8037.155
8032.787
8028.368
8023.91
8019.427
8014.93
8010.427
8005.931
8001.441
7996.958
7992.499
7988.058
7983.646
7979.257
7974.917
7970.599
7966.308
7962.05
7957.818
7953.602
7949.381
7945.144
7940.884
7936.599
7932.308
7928.053
7923.887
7919.856
7915.989
7912.307
7908.811
7905.475
7902.279
7899.273
7896.517
7894.023
7891.772
7889.74
7887.915
7886.292
7884.867
7883.63
7882.555
7881.595
7880.687
7879.746
7878.682
7877.395
7875.787
7873.767
7871.258
7868.198
7864.52
7860.152
7855.031
7849.134
7842.493
7835.207
7827.412
7819.264
7810.947
7802.627
7794.453
7786.656
7779.376
7772.729
7766.932
7761.928
7757.827
7754.874
7753.372
7752.283
7752.037
7753.514
7757.102
7761.965
7767.639
7773.691
7779.533
7783.357
7783.843
7787.566
7790.392
7795.118
7797.033
7795.18
7791.093
7785.448
7778.363
7769.658
7759.104
7746.185
7731.36
7715.573
7700.333
7688.681
7682.162
7676.358
7668.308
7659.595
7651.132
7641.029
7630.287
7619.5
7608.621
7597.281
7588.235
7582.335
7580.004
7578.288
7574.538
7570.258
7566.998
7564.43
7562.836
7560.774
4754.468
4708.908
4667.974
4627.47
4591.622
4550.601
4514.572
4478.334
4441.247
4403.203
4364.665
4325.778
4284.525
4242.464
4197.39
4145.537
4098.993
4052.532
4006.093
3959.98
3914.451
3870.37
3827.911
3787.6
3750.734
3718.412
3690.879
3669.505
3654.399
3644.766
3640.862
3645.308
3660.297
3687.616
3728.93
3785.254
3857.862
3946.009
4049.841
4169.226
4303.59
4451.954
4613.07
4785.536
4967.622
5157.435
5352.771
5551.753
5751.441
5949.1
6142.517
6328.368
6502.161
6666.611
6816.692
6948.37
7058.585
7145.419
7207.093
7242.337
7250.671
7232.63
7189.316
7122.142
7033.245
6925.358
6801.332
6663.762
6515.144
6357.859
6194.292
6027.27
5859.119
5692.331
5529.401
5371.345
5218.634
5071.915
4931.147
4795.915
4666.037
4542.28
4425.994
4317.814
4218.054
4126.565
4042.784
3965.534
3894.219
3827.871
3765.681
3707.71
3653.799
3603.932
3558.809
3519.138
3484.554
3453.779
3425.728
3399.348
3373.822
3349.073
3325.51
3303.903
3285.539
3270.5
3257.936
3248.041
3239.481
3230.626
3221.224
3211.612
3202.443
3194.396
3189.237
3189.181
3190.896
3194.59
3200.47
3206.658
3212.927
3219.232
3226.173
3235.026
3247.19
3263.538
3283.935
3307.645
3331.512
3353.632
3374.206
3392.824
3409.764
3425.28
3439.675
3453.478
3466.289
3476.124
3482.718
3488.658
3493.764
3497.821
3500.806
3503.289
3505.996
3510.558
3516.538
3517.445
3518.402
3520.995
3525.254
3531.711
3540.815
3553.209
3569.13
3589.399
3612.564
3636.511
3663.667
3694.543
3729.468
3769.468
3815.673
3868.761
3928.855
3995.933
4069.892
4150.29
4236.388
4327.017
4420.48
4514.59
4606.794
4694.992
4777.86
4854.7
4925.06
4988.392
5043.526
5088.347
5120.694
5139.221
5143.353
5132.731
5107.48
5069.101
5020.814
4966.741
4911.131
4858.106
4810.025
4769.813
4739.872
4722.447
4719.988
4733.58
4762.165
4803.5
4855.847
4918.546
4990.138
5068.789
5152.444
5239.157
5327.295
5415.549
5502.874
5588.436
5671.577
5751.803
5828.764
5902.233
5972.084
6038.287
6100.893
6160.015
6215.807
6268.436
6318.048
6364.763
6408.669
6449.821
6488.252
6523.984
6557.035
6587.423
6615.198
6640.441
6663.3
6683.989
6702.856
6720.367
6737.074
6753.592
6770.311
6787.652
6806.222
6826.45
6848.49
6872.361
6898.031
6925.393
6954.254
6984.351
7015.369
7046.975
7078.861
7110.78
7142.568
7174.127
7205.417
7236.459
7267.33
7298.132
7328.936
7359.74
7390.434
7420.809
7450.63
7479.687
7507.821
7534.922
7560.94
7585.891
7609.827
7632.805
7654.901
7676.188
7696.737
7716.591
7735.794
7754.362
7772.3
7789.603
7806.229
7822.054
7837.042
7851.168
7864.392
7876.733
7888.283
7899.171
7909.519
7919.423
7928.957
7938.177
7947.119
7955.781
7964.128
7972.115
7979.693
7986.784
7993.274
7998.932
8003.711
8007.749
8010.884
8013.137
8014.593
8014.652
8012.335
8006.583
7996.837
7983.032
7965.169
7943.061
7916.488
7885.517
7850.299
7811.093
7768.428
7723.018
7675.788
7627.871
7580.569
7535.307
7493.59
7456.867
7426.865
7405
7392.128
7388.791
7395.194
7411.548
7437.268
7471.12
7511.376
7556.323
7604.661
7654.736
7704.761
7753.258
7799.079
7841.369
7879.581
7913.494
7943.127
7968.671
7990.447
8008.823
8024.211
8036.646
8046.216
8053.546
8059.474
8064.354
8068.306
8071.515
8074.032
8075.861
8077.075
8077.765
8077.985
8077.757
8077.092
8076.019
8074.568
8072.757
8070.615
8068.18
8065.456
8062.447
8059.193
8055.731
8052.09
8048.287
8044.343
8040.28
8036.121
8031.882
8027.578
8023.224
8018.83
8014.407
8009.968
8005.525
8001.06
7996.614
7992.172
7987.741
7983.321
7978.916
7974.525
7970.143
7965.775
7961.419
7957.07
7952.722
7948.367
7944.001
7939.624
7935.243
7930.876
7926.555
7922.32
7918.21
7914.253
7910.47
7906.865
7903.45
7900.234
7897.232
7894.464
7891.936
7889.64
7887.556
7885.676
7884.01
7882.576
7881.355
7880.3
7879.361
7878.489
7877.614
7876.659
7875.534
7874.129
7872.339
7870.085
7867.309
7863.94
7859.879
7855.043
7849.392
7842.949
7835.798
7828.071
7819.92
7811.491
7802.993
7794.624
7786.573
7778.999
7772.064
7765.949
7760.745
7756.565
7753.578
7751.865
7751.112
7751.393
7753.027
7756.101
7760.441
7765.695
7771.312
7776.85
7781.634
7782.202
7783.176
7785.559
7788.213
7791.6
7790.176
7785.776
7780.22
7773.54
7765.129
7754.597
7741.54
7725.489
7706.832
7687.271
7673.522
7667.34
7665.205
7665.56
7659.78
7651.895
7642.17
7631.645
7619.764
7590.526
7496.642
7502.765
7558.094
7582.426
7581.432
7577.582
7573.866
7572.159
7571.199
7570.728
7570.017
4949.983
4936.359
4897.202
4846.065
4794.113
4746.928
4703.27
4663.124
4625.789
4588.412
4547.054
4511.496
4475.957
4439.696
4402.409
4364.045
4324.456
4283.263
4240.518
4196.849
4153.123
4107.336
4060.973
4014.276
3967.699
3921.364
3875.665
3830.676
3786.632
3744.662
3706.191
3673.197
3645.891
3624.757
3610.986
3605.552
3609.82
3625.223
3653.045
3694.283
3749.939
3820.797
3907.136
4009.089
4126.514
4258.902
4405.336
4564.605
4735.191
4915.23
5102.843
5295.694
5490.552
5685.753
5879.159
6068.37
6251.076
6423.547
6583.711
6728.757
6854.892
6959.031
7039.04
7093.412
7121.215
7122.177
7096.941
7046.991
6974.371
6881.544
6771.159
6646.094
6508.729
6361.316
6206.063
6044.859
5880.778
5716.206
5553.2
5394.175
5241.021
5094.773
4955.336
4821.701
4692.641
4568.425
4450.218
4338.991
4235.575
4140.843
4055.094
3977.498
3906.5
3840.752
3779.066
3720.665
3665.455
3613.637
3565.739
3522.862
3486.183
3455.266
3428.095
3403.201
3379.436
3355.638
3331.706
3308.198
3286.053
3266.499
3253.914
3244.559
3236.306
3229.712
3221.604
3212.107
3201.683
3190.992
3181.161
3174.556
3175.039
3178.727
3183.72
3189.905
3196.311
3202.34
3207.773
3213.41
3221.08
3232.934
3250.59
3274.36
3302.7
3330.471
3355.356
3377.609
3397.165
3414.688
3430.023
3443.875
3457.164
3469.183
3476.183
3479.118
3481.848
3483.896
3484.02
3481.253
3476.879
3475.214
3473.481
3469.565
3463.397
3460.755
3461.865
3465.758
3472.534
3482.679
3497.321
3514.922
3539.583
3568.601
3591.378
3618.24
3649.421
3684.309
3724.202
3770.675
3824.458
3885.413
3953.575
4028.956
4111.086
4199.715
4294.578
4394.607
4497.786
4601.739
4704.317
4803.469
4897.09
4982.98
5058.766
5122.367
5171.824
5205.511
5222.259
5221.2
5201.672
5163.307
5107.752
5039.535
4964.396
4887.912
4815.76
4751.486
4697.093
4655.144
4628.744
4620.989
4633.548
4663.928
4708.106
4763.816
4832.409
4911.746
4999.616
5093.437
5190.621
5289.006
5386.973
5483.316
5577.109
5667.644
5754.415
5837.083
5915.439
5989.374
6058.88
6124.042
6185.024
6242.046
6295.359
6345.2
6391.775
6435.232
6475.669
6513.143
6547.685
6579.308
6608.012
6633.84
6656.864
6677.255
6695.209
6711.048
6725.158
6738.293
6751.599
6765.358
6779.856
6795.98
6814.318
6834.987
6857.936
6883.107
6910.354
6939.434
6970.003
7001.608
7033.77
7066.076
7098.234
7130.092
7161.61
7192.827
7223.833
7254.744
7285.683
7316.751
7347.991
7379.337
7410.613
7441.6
7472.053
7501.744
7530.49
7558.176
7584.752
7610.214
7634.575
7657.877
7680.182
7701.574
7722.128
7741.911
7760.958
7779.268
7796.816
7813.549
7829.385
7844.256
7858.115
7870.928
7882.724
7893.598
7903.689
7913.146
7922.103
7930.676
7938.959
7947.018
7954.878
7962.524
7969.924
7977.036
7983.789
7990.087
7995.819
8000.908
8005.109
8008.157
8010.185
8011.241
8011.305
8009.826
8005.399
7996.92
7983.625
7965.347
7942.306
7914.682
7882.676
7846.486
7806.374
7762.788
7716.413
7668.168
7619.195
7570.815
7524.452
7481.598
7443.782
7412.443
7389.071
7374.935
7370.677
7376.531
7392.539
7418.107
7451.887
7492.66
7539.174
7589.355
7641.115
7692.595
7742.328
7789.203
7832.373
7871.267
7905.693
7935.74
7961.657
7983.728
8002.326
8017.51
8029.398
8038.734
8046.333
8052.608
8057.78
8062.022
8065.499
8068.301
8070.464
8072.038
8073.079
8073.617
8073.656
8073.233
8072.409
8071.199
8069.612
8067.678
8065.419
8062.858
8060.029
8056.961
8053.684
8050.237
8046.629
8042.865
8038.969
8034.963
8030.866
8026.693
8022.452
8018.154
8013.81
8009.434
8005.027
8000.626
7996.21
7991.78
7987.343
7982.905
7978.468
7974.03
7969.591
7965.149
7960.702
7956.246
7951.778
7947.296
7942.802
7938.301
7933.806
7929.337
7924.922
7920.594
7916.389
7912.335
7908.457
7904.772
7901.296
7898.038
7895.005
7892.202
7889.636
7887.297
7885.158
7883.205
7881.479
7880.038
7878.855
7877.832
7876.898
7876.011
7875.111
7874.143
7873.044
7871.713
7870.039
7867.961
7865.453
7862.428
7858.741
7854.263
7848.941
7842.786
7835.872
7828.317
7820.269
7811.889
7803.202
7794.482
7786.367
7778.807
7771.806
7765.549
7760.242
7756.015
7752.978
7751.165
7750.487
7750.976
7752.736
7755.739
7759.804
7764.63
7769.866
7775.143
7780.107
7783.97
7783.971
7785.9
7789.009
7789.182
7784.971
7777.795
7772.694
7768.375
7761.826
7751.807
7738.698
7720.406
7684.329
7621.679
7592.194
7604.412
7645.534
7666.144
7662.176
7653.776
7644.345
7634.702
7622.292
7568.822
7442.51
7434.287
7504.787
7575.283
7582.633
7578.911
7575.327
7575.556
7576.917
7577.939
7578.63
4938.613
4910.764
4851.481
4806.934
4763.448
4722.936
4685.046
4649.173
4614.604
4580.983
4548.2
4514.524
4480.144
4444.732
4408.248
4370.393
4331.031
4289.99
4247.096
4202.703
4158.031
4112.226
4065.571
4018.466
3971.147
3923.043
3874.12
3825.355
3777.582
3731.708
3689.646
3653.162
3622.848
3599.365
3583.83
3577.316
3580.963
3595.869
3623.049
3663.62
3718.271
3787.695
3872.372
3972.534
4088.036
4218.414
4362.741
4519.87
4688.053
4865.219
5048.594
5235.862
5424.904
5614.608
5803.872
5989.21
6167.25
6334.412
6487.649
6624.244
6741.085
6835.434
6905.273
6949.353
6967.11
6958.562
6924.576
6866.921
6787.942
6690.634
6577.688
6451.883
6315.793
6171.31
6020.113
5864.089
5704.558
5543.716
5385.183
5231.443
5084.704
4946.388
4815.672
4690.87
4570.448
4454.21
4342.917
4237.512
4139.303
4049.928
3970.789
3900.82
3837.344
3778.366
3722.447
3668.671
3616.769
3567.085
3520.658
3479.782