/*--------------------------------*- C++ -*----------------------------------*\
| =========                 |                                                 |
| \\      /  F ield         | foam-extend: Open Source CFD                    |
|  \\    /   O peration     | Version:     3.1                                |
|   \\  /    A nd           | Web:         http://www.extend-project.de       |
|    \\/     M anipulation  |                                                 |
\*---------------------------------------------------------------------------*/
FoamFile
{
    version     2.0;
    format      ascii;
    class       surfaceScalarField;
    location    "15";
    object      phi;
}
// * * * * * * * * * * * * * * * * * * * * * * * * * * * * * * * * * * * * * //

dimensions      [0 3 -1 0 0 0 0];

internalField   nonuniform List<scalar> 
275122
(
-0.000390487
0.0003957052
-3.847937e-07
-4.833409e-06
-0.0003486836
0.0003323035
1.337314e-06
1.504278e-05
-0.0003449224
0.0003535018
-3.644792e-07
-8.214907e-06
-0.0003821913
0.0003920951
-4.723284e-07
-9.431544e-06
-0.0004166006
0.000419277
-5.353739e-07
-2.140966e-06
-0.0004177901
0.0004167276
-4.663553e-07
1.528866e-06
-0.0004118033
0.000409916
-4.388348e-07
2.326144e-06
-0.0004034922
0.0004012664
-4.377841e-07
2.663581e-06
-0.0003940954
0.0003915967
-3.865717e-07
2.885336e-06
-0.0003840418
0.0003814826
-3.490293e-07
2.908283e-06
-0.0003736695
0.0003710259
-3.161898e-07
2.959815e-06
-0.0003629725
0.0003602626
-2.865873e-07
2.996573e-06
-0.0003520458
0.0003492853
-2.570473e-07
3.017569e-06
-0.0003409723
0.0003381681
-2.27738e-07
3.031877e-06
-0.000329826
0.0003269976
-2.004543e-07
3.028838e-06
-0.0003186779
0.0003158556
-1.754252e-07
2.997755e-06
-0.0003076011
0.0003048074
-1.502459e-07
2.943897e-06
-0.0002966713
0.0002939391
-1.284158e-07
2.860641e-06
-0.0002864199
0.0002841152
-1.685224e-07
2.473219e-06
-0.0002792493
0.0002791903
-5.14299e-07
5.732779e-07
-0.0003071144
0.0003186813
-1.106996e-06
-1.045985e-05
-0.0003199317
0.0003188092
-1.625948e-07
1.285086e-06
-0.0003191401
0.0003202878
-1.226628e-07
-1.025071e-06
-0.0003524736
0.0003643392
3.152088e-07
-1.218079e-05
-0.0003634225
0.0003617252
5.032223e-07
1.19404e-06
-0.0003616795
0.0003615731
-1.869808e-07
2.93316e-07
-0.0003599608
0.000358519
-2.03277e-07
1.645081e-06
-0.0003534334
0.0003498581
-1.780982e-07
3.753404e-06
-0.0003283599
0.0003067106
-2.532813e-07
2.190262e-05
-0.0002060503
0.0002114041
4.965158e-09
-5.358739e-06
-0.0002639532
0.0002774435
-7.070373e-08
-1.341959e-05
-0.0003160091
0.0003287914
7.345722e-09
-1.278965e-05
-0.000367817
0.0003810286
8.380419e-09
-1.321998e-05
-0.0004210493
0.0004345507
9.433334e-09
-1.351083e-05
-0.0004757547
0.0004896339
1.218241e-08
-1.389134e-05
-0.0005319586
0.0005462653
1.0364e-08
-1.431711e-05
-0.0005895262
0.0006040922
8.343405e-09
-1.457425e-05
-0.0006480054
0.0006627189
1.150171e-08
-1.472494e-05
-0.0007069968
0.0007218306
1.371533e-08
-1.48475e-05
-0.0007659015
0.0007819167
2.305221e-07
-1.624575e-05
1.283652e-05
-0.000530693
0.0005326801
7.171087e-10
-1.482437e-05
1.307352e-05
-0.0005386859
0.0005405331
-4.468188e-10
-1.492022e-05
1.335646e-05
-0.0005456904
0.0005472685
-1.12622e-09
-1.493337e-05
1.361529e-05
-0.0005517845
0.0005531412
-1.434097e-09
-1.497057e-05
1.396853e-05
-0.0005567687
0.0005578425
-1.691502e-09
-1.504056e-05
1.424373e-05
-0.0005607533
0.0005616103
-1.300602e-09
-1.509948e-05
1.444335e-05
-0.0005640153
0.0005647426
-9.029286e-10
-1.516977e-05
1.458744e-05
-0.0005668073
0.0005674766
-8.015356e-10
-1.525592e-05
1.506509e-05
-0.0005692664
0.0005689324
-6.69519e-10
-1.473043e-05
1.328567e-05
-0.002316357
0.002325013
-1.441326e-10
-6.22099e-05
1.354075e-05
1.324362e-05
1.348432e-05
1.421252e-05
-0.002331054
0.002336043
-1.604557e-10
-6.284084e-05
1.474421e-05
1.418544e-05
1.470984e-05
1.457908e-05
-0.002340118
0.002343794
-1.059751e-10
-6.25038e-05
1.486276e-05
1.454926e-05
1.483622e-05
1.468481e-05
-0.002347695
0.002351437
4.593239e-12
-6.272313e-05
1.483283e-05
1.465811e-05
1.480548e-05
1.472924e-05
-0.002355059
0.002358571
8.14299e-12
-6.27797e-05
1.492885e-05
1.47053e-05
1.490485e-05
1.494619e-05
-0.002361821
0.002364883
4.212462e-11
-6.303602e-05
1.506525e-05
1.492128e-05
1.504093e-05
1.503641e-05
-0.002367963
0.002370782
1.146613e-10
-6.306761e-05
1.511096e-05
1.501294e-05
1.508791e-05
1.505365e-05
-0.002373781
0.002376575
-4.41761e-10
-6.299073e-05
1.506761e-05
1.502876e-05
1.504731e-05
1.501759e-05
-0.002379933
0.002383034
-3.839666e-10
-6.317255e-05
1.504297e-05
1.499205e-05
1.501942e-05
1.456031e-05
-0.002382833
0.002386498
-1.101511e-10
-6.203888e-05
1.464647e-05
1.453325e-05
1.463465e-05
1.523307e-05
-0.002390282
0.002392601
-7.288132e-12
-6.34377e-05
1.533497e-05
1.52257e-05
1.532499e-05
1.511672e-05
-0.002394353
0.002395816
1.528998e-11
-6.163951e-05
1.497727e-05
1.511071e-05
1.497171e-05
1.494487e-05
-0.002397307
0.002398654
7.987626e-12
-6.090975e-05
1.484236e-05
1.49385e-05
1.483679e-05
1.484968e-05
-0.002399886
0.002400847
-6.24277e-12
-6.020617e-05
1.477871e-05
1.48421e-05
1.477513e-05
1.477385e-05
-0.00240171
0.002402391
-1.816004e-11
-5.96258e-05
1.470868e-05
1.475992e-05
1.470245e-05
1.473771e-05
-0.002403029
0.002403452
-2.563513e-11
-5.918481e-05
1.467803e-05
1.468791e-05
1.465817e-05
1.490147e-05
-0.002403882
0.002403995
-1.986439e-11
-5.928551e-05
1.486635e-05
1.469491e-05
1.470929e-05
1.605218e-05
-0.002403818
0.00240154
2.473351e-11
-6.055731e-05
1.630643e-05
1.510475e-05
1.537227e-05
2.046391e-05
-0.002394741
0.002378793
4.362867e-11
-6.127259e-05
2.17466e-05
1.780897e-05
1.72009e-05
2.381705e-05
-0.002358738
0.002379467
1.644972e-11
-4.454624e-05
1.647308e-05
-0.002397528
0.002399237
1.102262e-11
-1.818275e-05
3.567238e-05
-0.002391578
0.002385383
9.852014e-12
-2.947752e-05
2.894322e-05
-0.002381531
0.002377716
-1.974786e-12
-2.512785e-05
1.26015e-05
-0.002373249
0.002372407
-2.047457e-11
-1.175981e-05
-1.972752e-06
-0.002374043
0.002375513
-5.488231e-11
5.030872e-07
-7.774121e-06
-0.00237585
0.002375794
-1.254402e-10
7.830158e-06
-1.074742e-05
-0.0023755
0.002374576
-2.096712e-10
1.167173e-05
-1.317309e-05
-0.002373346
0.002371611
-1.657441e-10
1.490836e-05
-1.516895e-05
-0.002369517
0.002366916
-1.139201e-10
1.776993e-05
-1.68912e-05
-0.002363984
0.002360563
-1.064399e-10
2.031211e-05
-1.840166e-05
-0.002356821
0.002352619
-1.245098e-10
2.260298e-05
-1.970814e-05
-0.002348103
0.002343172
-1.416402e-10
2.463965e-05
-2.079284e-05
-0.002337924
0.002332347
-1.512271e-10
2.63702e-05
-2.162786e-05
-0.002326449
0.002320331
-1.543438e-10
2.774607e-05
-2.217944e-05
-0.00231388
0.002307355
-1.483092e-10
2.870473e-05
-2.235975e-05
-0.002300479
0.002293703
-1.333434e-10
2.91354e-05
-2.187807e-05
-0.002286548
0.002279676
-1.064844e-10
2.875052e-05
-1.973205e-05
-0.002272213
0.002264846
-7.486093e-11
2.709913e-05
-1.588835e-05
-0.002256717
0.002248727
-4.493251e-11
2.38792e-05
-6.29174e-06
-0.002235983
0.00222354
-1.804391e-11
1.873518e-05
-1.243989e-05
-0.002215808
0.002209611
4.589809e-12
1.863745e-05
-4.615323e-07
-0.00220227
0.002190157
2.8546e-11
1.257459e-05
1.807469e-05
-0.002166856
0.002145467
4.186361e-11
3.314086e-06
-3.826961e-06
-0.002131105
0.002121773
4.162082e-11
1.315836e-05
-1.629506e-05
-0.002113721
0.002103799
2.921349e-11
2.62176e-05
-2.495874e-05
-0.002093259
0.002083704
1.362565e-11
3.451391e-05
-4.057356e-05
-0.00207572
0.002070394
9.391733e-13
4.589953e-05
-7.946595e-05
-0.002067079
0.002083083
-6.921374e-12
6.34622e-05
-1.654138e-05
-0.002105023
0.002100011
-9.869548e-12
6.042884e-05
-1.135683e-05
-1.641084e-05
-1.110735e-05
-6.742771e-06
-0.002089916
0.002086237
-1.29884e-11
3.030224e-05
-6.915839e-06
-6.423461e-06
-6.541021e-06
-4.97395e-06
-0.002084368
0.002081194
-1.336573e-11
2.160838e-05
-4.469561e-06
-4.733938e-06
-4.257357e-06
-3.030314e-06
-0.002077425
0.002075008
-6.114969e-12
1.37845e-05
-2.836167e-06
-2.843268e-06
-2.658063e-06
-1.982732e-06
-0.002073375
0.002072878
-1.556026e-12
7.880014e-06
-1.836244e-06
-1.84983e-06
-1.71374e-06
-1.084674e-06
-0.002073198
0.002074564
2.101575e-12
2.608112e-06
-9.523116e-07
-1.029726e-06
-9.07892e-07
-3.419785e-07
-0.002076659
0.00207947
6.799739e-12
-1.716181e-06
-2.426097e-07
-3.012384e-07
-2.095439e-07
2.235032e-07
-0.002083007
0.002087241
7.762781e-12
-5.353715e-06
3.090582e-07
2.5463e-07
3.330726e-07
6.441513e-07
-0.002092015
0.002097366
5.994277e-12
-8.103582e-06
7.066789e-07
6.725662e-07
7.299812e-07
8.998581e-07
-0.002103179
0.002109412
2.373855e-12
-9.94192e-06
9.326125e-07
9.221423e-07
9.545487e-07
9.94967e-07
-0.00211598
0.002122757
-6.814969e-13
-1.080074e-05
9.975912e-07
1.015022e-06
1.016779e-06
9.12143e-07
-0.002129743
0.002136714
-3.733544e-12
-1.060025e-05
8.856798e-07
9.306822e-07
9.00871e-07
6.536401e-07
-0.002143752
0.002150537
-5.762171e-12
-9.326142e-06
6.022328e-07
6.707088e-07
6.139076e-07
2.362213e-07
-0.002157229
0.002163439
-4.737589e-12
-7.027161e-06
1.63394e-07
2.467325e-07
1.710067e-07
-3.209928e-07
-0.002169416
0.002174707
-2.14821e-12
-3.828336e-06
-4.26768e-07
-3.063244e-07
-4.086697e-07
-9.909894e-07
-0.002179622
0.002183646
1.884261e-12
1.43671e-07
-1.114167e-06
-9.707154e-07
-1.092015e-06
-1.729729e-06
-0.0021872
0.002189704
5.851174e-12
4.61458e-06
-1.855025e-06
-1.704561e-06
-1.82969e-06
-2.54769e-06
-0.002191605
0.002192429
5.84097e-12
9.612755e-06
-2.698518e-06
-2.52084e-06
-2.66938e-06
-3.438987e-06
-0.002192599
0.002191658
1.024638e-12
1.49559e-05
-3.59993e-06
-3.409297e-06
-3.566553e-06
-4.368775e-06
-0.002190005
0.002187218
-2.675955e-12
2.052761e-05
-4.535593e-06
-4.336485e-06
-4.499988e-06
-5.318546e-06
-0.002183678
0.002178989
-1.196123e-12
2.622913e-05
-5.487155e-06
-5.284379e-06
-5.450105e-06
-6.263056e-06
-0.002173507
0.002166857
6.876322e-12
3.195717e-05
-6.427467e-06
-6.227031e-06
-6.389066e-06
-7.169561e-06
-0.002159368
0.002150698
1.499795e-11
3.757903e-05
-7.323039e-06
-7.13217e-06
-7.283832e-06
-8.000342e-06
-0.002141156
0.00213045
1.818464e-11
4.290195e-05
-8.135487e-06
-7.963043e-06
-8.097219e-06
-8.713916e-06
-0.002118868
0.002106184
1.611174e-11
4.769411e-05
-8.82517e-06
-8.680651e-06
-8.790288e-06
-9.280405e-06
0.002078167
1.174722e-11
5.171036e-05
-9.362556e-06
-9.244569e-06
-9.326195e-06
-0.002092664
-9.670566e-06
-0.002062927
0.002046877
7.745092e-12
5.476331e-05
-9.720451e-06
-9.636479e-06
-9.686442e-06
-9.872859e-06
-0.002030209
0.002012926
4.524682e-12
5.674751e-05
-9.889621e-06
-9.842311e-06
-9.859621e-06
-9.886592e-06
-0.001995168
0.001976998
2.4178e-12
5.763672e-05
-9.871025e-06
-9.861372e-06
-9.846919e-06
-9.719506e-06
-0.0019585
0.001939783
1.639505e-12
5.746868e-05
-9.673539e-06
-9.701533e-06
-9.657149e-06
-9.388242e-06
-0.00192088
0.001901938
1.093109e-12
5.63318e-05
-9.316091e-06
-9.378346e-06
-9.307794e-06
-8.921596e-06
-0.001882945
0.001864082
-2.609856e-13
5.436307e-05
-8.830061e-06
-8.919252e-06
-8.828892e-06
-8.358782e-06
-0.001845295
0.001826797
-2.653497e-12
5.173534e-05
-8.255803e-06
-8.362748e-06
-8.260496e-06
-7.740584e-06
-0.001808499
0.001790638
-7.073535e-12
4.862977e-05
-7.633044e-06
-7.750638e-06
-7.643871e-06
-7.100667e-06
-0.001773088
0.001756103
-1.151475e-11
4.521022e-05
-6.993481e-06
-7.11837e-06
-7.012238e-06
-6.462718e-06
-0.001739524
0.001723611
-1.371164e-11
4.161096e-05
-6.358755e-06
-6.489772e-06
-6.387024e-06
-5.84056e-06
-0.001708176
0.001693479
-1.456923e-11
3.793468e-05
-5.740862e-06
-5.877573e-06
-5.779054e-06
-5.239548e-06
-0.001679304
0.001665908
-1.626366e-11
3.425586e-05
-5.143774e-06
-5.285714e-06
-5.190942e-06
-4.659632e-06
-0.001653051
0.001640983
-1.881003e-11
3.06265e-05
-4.567118e-06
-4.712227e-06
-4.620008e-06
-4.101136e-06
-0.001629448
0.00161869
-2.209009e-11
2.709079e-05
-4.012214e-06
-4.154668e-06
-4.064562e-06
-3.569468e-06
-0.001608442
0.001598944
-2.598128e-11
2.370059e-05
-3.485967e-06
-3.616629e-06
-3.530359e-06
-3.075986e-06
-0.001589934
0.001581644
-2.945791e-11
2.050804e-05
-2.99981e-06
-3.110528e-06
-3.031547e-06
-2.63349e-06
-0.001573814
0.001566675
-3.189109e-11
1.758235e-05
-2.568685e-06
-2.653986e-06
-2.586978e-06
-2.245203e-06
-0.001559976
0.001553926
-2.97505e-11
1.494436e-05
-2.194008e-06
-2.255127e-06
-2.20038e-06
-1.933956e-06
-0.00154831
0.001543337
-2.43676e-11
1.262884e-05
-1.893986e-06
-1.934899e-06
-1.893419e-06
-1.68211e-06
-0.001538779
0.001534821
-1.761554e-11
1.06328e-05
-1.65371e-06
-1.684075e-06
-1.65516e-06
-1.461655e-06
-0.001531211
0.001528189
-9.305387e-12
8.808425e-06
-1.449575e-06
-1.445508e-06
-1.429591e-06
-1.277162e-06
-0.001525573
0.001523474
-4.128445e-12
7.153717e-06
-1.251906e-06
-1.276793e-06
-1.249054e-06
-1.057429e-06
-0.001521697
0.001520344
-8.198662e-14
5.495034e-06
-1.014668e-06
-1.056552e-06
-1.013543e-06
-7.118405e-07
-0.001518878
0.001517611
1.54552e-12
3.889262e-06
-6.003471e-07
-7.099343e-07
-6.002149e-07
-5.218062e-07
-0.001517172
0.001516487
6.029469e-13
2.850623e-06
-5.688349e-07
-5.129854e-07
-5.621647e-07
-7.47057e-07
-0.001516724
0.001517122
2.288558e-12
2.539471e-06
-7.281954e-07
-7.408747e-07
-7.218759e-07
-7.512962e-07
-0.001517705
0.001518571
-4.593723e-13
2.107305e-06
-7.419801e-07
-7.444953e-07
-7.353019e-07
-7.484155e-07
-0.001519604
0.001520779
3.131572e-14
1.787813e-06
-7.403268e-07
-7.411942e-07
-7.329068e-07
-7.865049e-07
-0.001522097
0.001523564
1.720958e-12
1.670298e-06
-7.914478e-07
-7.769033e-07
-7.820687e-07
-8.626171e-07
-0.001525154
0.001526797
-1.602016e-12
1.810065e-06
-8.715933e-07
-8.54587e-07
-8.642097e-07
-9.68624e-07
-0.001528517
0.001530258
2.096883e-13
2.153143e-06
-9.831082e-07
-9.637044e-07
-9.787856e-07
-1.098319e-06
-0.001532024
0.001533753
9.175544e-12
2.695329e-06
-1.116215e-06
-1.095798e-06
-1.11411e-06
-1.242704e-06
-0.001535446
0.001537026
1.723467e-11
3.428548e-06
-1.262701e-06
-1.241708e-06
-1.261853e-06
-1.384535e-06
-0.001538514
0.001539819
2.99853e-11
4.272515e-06
-1.402732e-06
-1.384889e-06
-1.40477e-06
-1.52988e-06
-0.001540986
0.001541924
3.59837e-11
5.217026e-06
-1.549919e-06
-1.528154e-06
-1.547631e-06
-1.683141e-06
-0.001542689
0.001543208
3.939493e-11
6.268733e-06
-1.707932e-06
-1.686846e-06
-1.709166e-06
-1.868721e-06
-0.001543538
0.001543549
4.777096e-11
7.509912e-06
-1.896305e-06
-1.864961e-06
-1.891923e-06
-2.083348e-06
-0.00154334
0.001542775
5.566369e-11
8.952257e-06
-2.116674e-06
-2.07691e-06
-2.110134e-06
-2.330586e-06
-0.001541961
0.001540751
6.001216e-11
1.059311e-05
-2.3676e-06
-2.323668e-06
-2.360895e-06
-2.596682e-06
-0.001539265
0.001537346
6.399936e-11
1.237263e-05
-2.635847e-06
-2.590529e-06
-2.63007e-06
-2.869214e-06
-0.00153512
0.001532424
6.871085e-11
1.424163e-05
-2.908412e-06
-2.864376e-06
-2.904024e-06
-3.13786e-06
-0.001529391
0.001525853
7.260796e-11
1.615812e-05
-3.175399e-06
-3.134143e-06
-3.172229e-06
-3.391673e-06
-0.001521943
0.001517496
7.435572e-11
1.807607e-05
-3.425706e-06
-3.388393e-06
-3.422941e-06
-3.622695e-06
-0.001512645
0.001507229
7.300318e-11
1.99553e-05
-3.652607e-06
-3.617217e-06
-3.647311e-06
-3.832949e-06
-0.001501382
0.001494949
6.752624e-11
2.179813e-05
-3.860139e-06
-3.822521e-06
-3.849638e-06
-4.037936e-06
-0.001488061
0.001480569
5.728835e-11
2.36679e-05
-4.066537e-06
-4.021697e-06
-4.050087e-06
-4.263817e-06
-0.001472605
0.001464034
4.32026e-11
2.56518e-05
-4.299553e-06
-4.240911e-06
-4.276006e-06
-4.544568e-06
-0.001454992
0.00144536
2.786981e-11
2.784425e-05
-4.595877e-06
-4.511244e-06
-4.560599e-06
-4.920025e-06
-0.001435297
0.0014247
1.561933e-11
3.032735e-05
-4.994747e-06
-4.871681e-06
-4.943795e-06
-5.404999e-06
0.00140236
8.394314e-12
3.308679e-05
-0.001413755
-5.489829e-06
-5.353261e-06
-5.443961e-06
-5.791438e-06
-0.001390659
0.00137847
9.066223e-12
3.538416e-05
-5.826397e-06
-5.768311e-06
-5.80829e-06
-5.729338e-06
-0.001365834
0.001352558
1.812514e-11
3.613634e-05
-5.67204e-06
-5.754115e-06
-5.704283e-06
-5.24428e-06
-0.001338726
0.001324298
2.700195e-11
3.530361e-05
-5.142877e-06
-5.293711e-06
-5.195012e-06
-4.586603e-06
-0.001309427
0.001294169
3.114978e-11
3.348171e-05
-4.478536e-06
-4.633925e-06
-4.525088e-06
-3.950615e-06
-0.001278644
0.001262953
3.954886e-11
3.137559e-05
-3.858305e-06
-3.985391e-06
-3.890528e-06
-3.481025e-06
-0.001247171
0.001231407
6.196082e-11
2.961253e-05
-3.423015e-06
-3.502738e-06
-3.442146e-06
-3.262217e-06
-0.001215721
0.001200241
9.82815e-11
2.851239e-05
-3.244646e-06
-3.272868e-06
-3.253264e-06
-3.23146e-06
-0.001184976
0.001169991
1.407571e-10
2.791001e-05
-3.228759e-06
-3.234167e-06
-3.230321e-06
-3.207745e-06
-0.001155229
0.001140716
1.664458e-10
2.73216e-05
-3.199145e-06
-3.205448e-06
-3.196667e-06
-3.111991e-06
-0.001126408
0.001112369
1.554224e-10
2.643628e-05
-3.091188e-06
-3.107662e-06
-3.086758e-06
-2.963173e-06
-0.001098605
0.001085233
9.56462e-11
2.517302e-05
-2.941206e-06
-2.959399e-06
-2.937144e-06
-2.798834e-06
-0.001072264
0.001059856
1.101946e-11
2.355747e-05
-2.779319e-06
-2.795532e-06
-2.77603e-06
-2.62797e-06
-0.001047977
0.001036809
-7.052238e-11
2.163681e-05
-2.609302e-06
-2.625017e-06
-2.606296e-06
-2.460992e-06
-0.001026235
0.001016432
-1.127231e-10
1.961037e-05
-2.445432e-06
-2.458253e-06
-2.442734e-06
-2.319008e-06
-0.001007187
0.0009986557
-1.177334e-10
1.777998e-05
-2.307416e-06
-2.31665e-06
-2.305089e-06
-2.199782e-06
-0.0009905634
0.0009830662
-9.717353e-11
1.626929e-05
-2.188133e-06
-2.197889e-06
-2.186155e-06
-2.096864e-06
-0.0009758728
0.0009691581
-6.264606e-11
1.507582e-05
-2.085958e-06
-2.094859e-06
-2.083423e-06
-2.004375e-06
-0.000962648
0.0009565279
-2.587999e-11
1.410811e-05
-1.993025e-06
-2.001503e-06
-1.989044e-06
-1.940065e-06
-0.000950546
0.0009449188
1.689408e-11
1.337208e-05
-1.935077e-06
-1.937275e-06
-1.93245e-06
-1.895529e-06
-0.0009393967
0.0009342156
5.92829e-11
1.276028e-05
-1.897943e-06
-1.891696e-06
-1.89409e-06
-1.901828e-06
-0.0009291122
0.0009243469
1.086465e-10
1.241168e-05
-1.916783e-06
-1.905623e-06
-1.922212e-06
-1.845153e-06
-0.0009195251
0.0009150299
1.591959e-10
1.189796e-05
-1.847114e-06
-1.854436e-06
-1.856158e-06
-1.619315e-06
-0.0009103425
0.0009061316
2.096475e-10
1.070871e-05
-1.612149e-06
-1.638786e-06
-1.62776e-06
-9.691163e-07
-0.0009010798
0.0008949561
2.34222e-10
9.611886e-06
-7.471031e-07
-1.001914e-06
-7.702785e-07
-7.758779e-07
-0.0002193478
0.0002182236
-2.437359e-09
1.902448e-06
-1.256797e-06
-0.0002146059
0.0002136249
-2.1963e-09
2.240023e-06
-1.351396e-06
-0.0002112096
0.0002105302
-6.186967e-10
2.031366e-06
-1.44913e-06
-0.0002087526
0.0002082204
3.199528e-10
1.980996e-06
-1.498058e-06
-0.0002067158
0.0002062298
3.667602e-10
1.983642e-06
-1.53608e-06
-0.0002048007
0.0002043241
1.349458e-11
2.012609e-06
-1.545767e-06
-0.0002028793
0.0002023893
-3.31602e-10
2.036138e-06
-1.537174e-06
-0.0002009
0.000200394
-5.733265e-10
2.043761e-06
-1.500908e-06
-0.0001988566
0.0001983381
-6.887774e-10
2.020124e-06
-1.440285e-06
-0.0001967743
0.0001962504
-5.414405e-10
1.96481e-06
-1.361086e-06
-0.0001946821
0.0001941609
-3.127823e-10
1.882552e-06
-1.275282e-06
-0.0001926105
0.0001920994
-1.42921e-10
1.786562e-06
-1.196405e-06
-0.0001905904
0.0001900974
-2.065606e-11
1.689424e-06
-1.13237e-06
-0.0001886552
0.0001881892
4.143388e-11
1.598395e-06
-1.088715e-06
-0.0001868364
0.0001864032
-4.977971e-12
1.521936e-06
-1.060404e-06
-0.0001851544
0.0001847585
-8.080928e-11
1.456418e-06
-1.040913e-06
-0.0001836257
0.0001832695
-1.528283e-10
1.397228e-06
-1.028339e-06
-0.0001822533
0.0001819349
-1.888538e-10
1.346899e-06
-1.019695e-06
-0.0001810285
0.0001807472
-1.770386e-10
1.301183e-06
-1.018883e-06
-0.0001799551
0.0001797125
-1.606335e-10
1.261667e-06
-1.022171e-06
-0.0001790349
0.0001788292
-9.960393e-11
1.228005e-06
-1.009948e-06
-0.0001782506
0.0001780704
2.066049e-11
1.190112e-06
-9.693504e-07
-0.0001775399
0.0001773647
7.414251e-11
1.144524e-06
-9.241632e-07
-0.000176825
0.000176638
2.545604e-11
1.111098e-06
-9.085258e-07
-0.0001760422
0.0001758255
-6.284765e-11
1.125328e-06
-9.360655e-07
-0.000175104
0.0001748278
-1.544748e-10
1.212342e-06
-1.001623e-06
-0.0001738788
0.0001735074
-2.316002e-10
1.373195e-06
-1.093514e-06
-0.0001722259
0.0001717271
-2.80872e-10
1.592624e-06
-1.201121e-06
-0.0001700276
0.0001693775
-3.153905e-10
1.851592e-06
-1.314959e-06
-0.0001672019
0.0001663862
-3.516285e-10
2.131e-06
-1.425438e-06
-0.0001637072
0.0001627224
-3.9044e-10
2.41066e-06
-1.521743e-06
-0.0001595473
0.0001583989
-4.279388e-10
2.670565e-06
-1.597488e-06
-0.0001547687
0.000153474
-4.582349e-10
2.892653e-06
-1.649324e-06
-0.0001494574
0.0001480544
-4.68708e-10
3.052832e-06
-1.632013e-06
-0.0001437856
0.0001423379
-4.755986e-10
3.080123e-06
-1.018483e-06
-0.0001379026
0.0001362339
-4.33709e-10
2.687646e-06
-6.521079e-07
-0.0001310462
0.0001293634
-4.312903e-10
2.335395e-06
-6.543632e-07
-0.0001243559
0.0001227002
-3.983864e-10
2.310438e-06
-6.837851e-07
-0.0001178449
0.0001162687
-3.637826e-10
2.260419e-06
-6.671065e-07
-0.0001117025
0.0001102425
-3.190955e-10
2.127414e-06
-6.04158e-07
-0.0001060789
0.0001047755
-2.665392e-10
1.907797e-06
-4.937486e-07
-0.0001011303
0.0001000193
-2.067738e-10
1.604921e-06
-3.373015e-07
-9.69939e-05
9.610701e-05
-1.458362e-10
1.224338e-06
-1.309611e-07
-9.37768e-05
9.313338e-05
-5.122046e-11
7.744277e-07
9.300926e-08
-9.15548e-05
9.117654e-05
2.356171e-12
2.852482e-07
3.36378e-07
-9.043254e-05
9.033979e-05
7.86067e-11
-2.437004e-07
6.309468e-07
-9.044492e-05
9.063047e-05
1.408009e-10
-8.166371e-07
9.319667e-07
-9.158719e-05
9.205911e-05
1.985472e-10
-1.404085e-06
1.24256e-06
-9.386653e-05
9.461867e-05
2.547906e-10
-1.994955e-06
1.554928e-06
-9.724871e-05
9.82679e-05
3.06442e-10
-2.57443e-06
1.859626e-06
-0.0001016711
0.0001029368
3.535931e-10
-3.125669e-06
2.147097e-06
-0.000107042
0.0001085267
3.950433e-10
-3.632176e-06
2.40877e-06
-0.0001132438
0.0001149145
4.279659e-10
-4.079898e-06
2.63829e-06
-0.0001201396
0.00012196
4.529141e-10
-4.459221e-06
2.83198e-06
-0.0001275827
0.0001295158
4.716621e-10
-4.765558e-06
2.98857e-06
-0.0001354261
0.0001374357
4.819753e-10
-4.998688e-06
3.108666e-06
-0.0001435281
0.0001455802
4.842781e-10
-5.161322e-06
3.1964e-06
-0.0001517587
0.0001538247
4.8349e-10
-5.262802e-06
3.25799e-06
-0.0001600131
0.0001620714
4.782406e-10
-5.316757e-06
3.295384e-06
-0.0001682106
0.0001702424
4.599995e-10
-5.327665e-06
3.309474e-06
-0.0001762774
0.0001782654
4.552167e-10
-5.29786e-06
3.303168e-06
-0.0001841472
0.0001860769
4.456632e-10
-5.233262e-06
3.281188e-06
-0.0001917676
0.0001936283
4.195492e-10
-5.142244e-06
3.2451e-06
-0.0001991012
0.0002008855
4.019369e-10
-5.029772e-06
3.199847e-06
-0.0002061218
0.0002078259
3.839973e-10
-4.904409e-06
3.15244e-06
-0.0002128231
0.0002144488
3.620358e-10
-4.778506e-06
3.104674e-06
-0.0002192135
0.0002207605
3.459061e-10
-4.652074e-06
3.061219e-06
-0.0002252977
0.000226765
3.472428e-10
-4.528815e-06
3.015462e-06
-0.0002310683
0.0002324693
3.400233e-10
-4.416848e-06
2.942154e-06
-0.0002365455
0.0002379598
4.829343e-10
-4.356929e-06
2.884091e-06
-0.0002405436
0.0009842618
-1.375477e-12
-2.030473e-05
1.979097e-06
2.882067e-06
1.973583e-06
-0.0002405454
-0.0002462937
-0.0002462932
2.216752e-06
-0.0009966356
0.001007222
1.017398e-10
-2.00747e-05
2.538472e-06
2.20472e-06
2.528093e-06
2.351454e-06
-0.00101698
0.001026182
1.381795e-10
-1.880546e-05
2.459712e-06
2.341451e-06
2.451363e-06
2.341898e-06
-0.001035189
0.001043811
2.456269e-11
-1.810679e-05
2.408298e-06
2.333935e-06
2.400647e-06
2.329966e-06
-0.001052215
0.001060192
-1.231175e-11
-1.733753e-05
2.358658e-06
2.321903e-06
2.350697e-06
2.283209e-06
-0.001067969
0.001075387
-1.471197e-11
-1.656586e-05
2.297794e-06
2.276085e-06
2.290919e-06
2.228181e-06
-0.00108263
0.00108953
-3.817644e-11
-1.581445e-05
2.235175e-06
2.221612e-06
2.228769e-06
2.170361e-06
-0.001096262
0.001102655
-4.400534e-11
-1.506605e-05
2.172465e-06
2.163927e-06
2.166167e-06
2.109756e-06
-0.001108884
0.001114775
-3.013702e-11
-1.431642e-05
2.10895e-06
2.103579e-06
2.102888e-06
2.046662e-06
-0.001120502
0.001125892
-1.62262e-11
-1.35595e-05
2.04362e-06
2.040983e-06
2.037968e-06
1.980607e-06
-0.001131117
0.001136009
-8.845749e-12
-1.279452e-05
1.97581e-06
1.975401e-06
1.970706e-06
1.91296e-06
-0.001140736
0.001145135
-6.867655e-12
-1.202991e-05
1.90735e-06
1.908259e-06
1.902723e-06
1.845971e-06
-0.001149368
0.001153281
-7.589749e-12
-1.127681e-05
1.839814e-06
1.841729e-06
1.835637e-06
1.780634e-06
-0.001157031
0.001160473
-9.005263e-12
-1.054422e-05
1.774373e-06
1.776781e-06
1.770565e-06
1.717899e-06
-0.001163753
0.001166741
-1.020953e-11
-9.840344e-06
1.711883e-06
1.714423e-06
1.708446e-06
1.658748e-06
-0.001169572
0.001172129
-1.196114e-11
-9.173629e-06
1.652873e-06
1.655654e-06
1.649831e-06
1.603603e-06
-0.001174535
0.001176688
-1.297494e-11
-8.550082e-06
1.597962e-06
1.600818e-06
1.595186e-06
1.553184e-06
-0.001178699
0.001180479
-1.38075e-11
-7.976148e-06
1.547806e-06
1.55062e-06
1.545278e-06
1.506842e-06
-0.001182128
0.001183569
-1.439755e-11
-7.454819e-06
1.502062e-06
1.504573e-06
1.499898e-06
1.464739e-06
-0.001184893
0.001186032
-1.458155e-11
-6.985824e-06
1.460837e-06
1.462713e-06
1.458686e-06
1.428807e-06
-0.001187063
0.001187934
-1.402453e-11
-6.574468e-06
1.424862e-06
1.426866e-06
1.422967e-06
1.394851e-06
-0.001188714
0.001189355
-1.355924e-11
-6.209131e-06
1.391319e-06
1.393112e-06
1.389416e-06
1.366663e-06
-0.001189917
0.001190358
-1.263007e-11
-5.898356e-06
1.363384e-06
1.365466e-06
1.362127e-06
1.341357e-06
-0.001190727
0.001190991
-1.090686e-11
-5.621941e-06
1.338544e-06
1.340414e-06
1.337702e-06
1.318077e-06
-0.001191194
0.00119134
-8.208214e-12
-5.388941e-06
1.305361e-06
1.315828e-06
1.303499e-06
1.297389e-06
-0.00119147
0.001191479
-6.205616e-12
-5.204098e-06
1.3009e-06
1.296572e-06
1.29969e-06
1.28167e-06
-0.001191452
0.001191372
-5.275949e-12
-5.036025e-06
1.277498e-06
1.280524e-06
1.276254e-06
1.263586e-06
-0.00119126
0.001191104
-3.019547e-12
-4.891517e-06
1.261312e-06
1.262574e-06
1.260324e-06
1.249271e-06
-0.001190922
0.001190702
-6.446754e-13
-4.771679e-06
1.247582e-06
1.248348e-06
1.246679e-06
1.237827e-06
-0.001190459
0.001190184
1.770117e-12
-4.671526e-06
1.236476e-06
1.236973e-06
1.235614e-06
1.228519e-06
-0.00118989
0.001189567
3.635711e-12
-4.58735e-06
1.227415e-06
1.227724e-06
1.226609e-06
1.221126e-06
-0.001189228
0.001188863
4.975338e-12
-4.516568e-06
1.220335e-06
1.220399e-06
1.219616e-06
1.215608e-06
-0.001188484
0.001188081
5.124617e-12
-4.45715e-06
1.215116e-06
1.214937e-06
1.214441e-06
1.211705e-06
-0.001187665
0.001187226
4.973422e-12
-4.406619e-06
1.211445e-06
1.211071e-06
1.210792e-06
1.209142e-06
-0.001186776
0.001186304
4.232434e-12
-4.36309e-06
1.209136e-06
1.208556e-06
1.208561e-06
1.207549e-06
-0.001185821
0.001185316
3.211101e-12
-4.324941e-06
1.207712e-06
1.207009e-06
1.207169e-06
1.206357e-06
-0.001184802
0.001184266
2.54149e-12
-4.288952e-06
1.206604e-06
1.205836e-06
1.206052e-06
1.204618e-06
-0.001183721
0.001183154
2.694225e-12
-4.250579e-06
1.204636e-06
1.204166e-06
1.20416e-06
1.200516e-06
-0.001182578
0.001181982
1.844304e-12
-4.202994e-06
1.199511e-06
1.200193e-06
1.199231e-06
1.195855e-06
-0.001181387
0.001180763
-5.762758e-12
-4.153917e-06
1.195256e-06
1.193871e-06
1.193038e-06
1.190531e-06
-0.001180113
0.001179422
-5.849835e-11
-4.060059e-06
1.185631e-06
1.190295e-06
1.185296e-06
1.164867e-06
-0.001178726
0.001178018
7.284879e-12
-3.946643e-06
1.162899e-06
1.164729e-06
1.162523e-06
1.129522e-06
-0.001177301
0.001176539
-1.669848e-12
-3.755593e-06
1.12991e-06
1.12914e-06
1.129528e-06
1.076141e-06
-0.001175753
0.001174903
-2.546554e-12
-3.45207e-06
1.075064e-06
1.07577e-06
1.074711e-06
9.757442e-07
-0.001174011
0.001173098
-3.302904e-12
-2.964887e-06
9.637017e-07
9.754362e-07
9.634002e-07
7.662095e-07
-0.001172281
0.001171601
-5.904321e-12
-2.190976e-06
6.698481e-07
7.659102e-07
6.695041e-07
5.353115e-07
-0.001170964
0.001170254
-8.147105e-12
-1.40227e-06
5.21308e-07
5.350248e-07
5.210153e-07
4.306463e-07
-0.001169492
0.001168676
-8.43324e-12
-8.867266e-07
4.206975e-07
4.304051e-07
4.204577e-07
3.364836e-07
-0.001167816
0.001166904
-6.181707e-12
-4.153502e-07
3.273133e-07
3.362758e-07
3.270992e-07
2.395577e-07
-0.00116595
0.001164923
-2.196234e-12
8.581687e-08
2.31255e-07
2.393795e-07
2.310609e-07
1.349951e-07
-0.001163835
0.001162659
4.574906e-12
6.415636e-07
1.32573e-07
1.348385e-07
1.323837e-07
2.176326e-08
-0.001161431
0.001160066
2.187655e-11
1.243019e-06
3.922824e-08
2.148432e-08
3.90423e-08
-9.768322e-08
-0.001158636
0.001157052
7.301994e-11
1.889686e-06
-5.425487e-08
-9.835448e-08
-5.509467e-08
-4.970727e-07
-0.0011561
0.001155423
1.648766e-10
1.876988e-06
-9.697537e-08
-5.008845e-07
-1.048995e-07
-1.491511e-07
-0.001155069
0.001151582
3.108526e-11
4.035393e-06
-1.259707e-07
-1.480195e-07
-1.243918e-07
-3.931011e-07
-0.001148561
0.001146492
2.892258e-12
4.007745e-06
-5.811288e-07
-3.875276e-07
-5.766989e-07
-5.597582e-07
-0.001144449
0.001142256
2.019322e-11
4.552431e-06
-6.221493e-07
-5.572728e-07
-6.197557e-07
-6.53283e-07
-0.001139845
0.00113733
2.547789e-11
5.207438e-06
-6.939221e-07
-6.520127e-07
-6.929384e-07
-6.969219e-07
-0.001134614
0.001131706
2.714187e-11
5.743855e-06
-7.219825e-07
-6.957989e-07
-7.208834e-07
-7.259556e-07
-0.001128597
0.001125242
4.254503e-11
6.268301e-06
-7.322981e-07
-7.250169e-07
-7.308942e-07
-7.154935e-07
-0.00112163
0.001117747
4.221026e-11
6.739069e-06
-7.157958e-07
-7.125324e-07
-7.128694e-07
-6.953034e-07
-0.001113629
0.001109259
4.15464e-11
7.143599e-06
-6.936063e-07
-6.932635e-07
-6.918234e-07
-6.638799e-07
-0.001104701
0.001099931
3.840226e-11
7.41196e-06
-6.582884e-07
-6.625894e-07
-6.570968e-07
-6.047227e-07
-0.001095029
0.001089981
1.758222e-11
7.443656e-06
-5.942265e-07
-6.036503e-07
-5.932257e-07
-5.190689e-07
-0.001084875
0.001079703
-1.606132e-11
7.217814e-06
-5.050576e-07
-5.181742e-07
-5.041578e-07
-4.146847e-07
-0.001074545
0.001069402
-3.963458e-11
6.769406e-06
-3.994666e-07
-4.135999e-07
-3.983542e-07
-3.012055e-07
-0.001064333
0.001059348
-4.68418e-11
6.156192e-06
-2.85256e-07
-2.999541e-07
-2.840337e-07
-1.857729e-07
-0.001054475
0.001049733
-4.161329e-11
5.451355e-06
-1.701767e-07
-1.845408e-07
-1.6908e-07
-7.385487e-08
-0.001045127
0.001040678