/*--------------------------------*- C++ -*----------------------------------*\
| =========                 |                                                 |
| \\      /  F ield         | foam-extend: Open Source CFD                    |
|  \\    /   O peration     | Version:     3.1                                |
|   \\  /    A nd           | Web:         http://www.extend-project.de       |
|    \\/     M anipulation  |                                                 |
\*---------------------------------------------------------------------------*/
FoamFile
{
    version     2.0;
    format      ascii;
    class       volScalarField;
    location    "14";
    object      nut;
}
// * * * * * * * * * * * * * * * * * * * * * * * * * * * * * * * * * * * * * //

dimensions      [0 2 -1 0 0 0 0];

internalField   nonuniform List<scalar> 
119952
(
4.757736e-05
3.171198e-05
3.311975e-05
3.763649e-05
4.109274e-05
3.970133e-05
3.891e-05
3.84853e-05
3.821395e-05
3.797774e-05
3.771544e-05
3.738116e-05
3.694436e-05
3.639623e-05
3.570085e-05
3.488128e-05
3.392422e-05
3.283324e-05
3.159517e-05
3.020583e-05
3.672691e-05
3.415364e-05
3.224818e-05
3.899284e-05
3.574139e-05
3.42709e-05
3.486592e-05
3.705961e-05
3.901513e-05
2.204682e-05
2.818062e-05
3.011623e-05
3.398526e-05
3.833624e-05
4.326791e-05
4.877465e-05
5.482523e-05
6.129702e-05
6.810208e-05
7.934349e-05
0.0003445311
0.0004261869
0.0005176972
0.0006130677
0.0007077484
0.0007983472
0.0008824868
0.000958558
0.001025378
0.0014583
0.001503943
0.001536309
0.001555038
0.001559694
0.001551496
0.001533623
0.00151065
0.001488611
0.00147489
0.001475768
0.001494093
0.001534184
0.001599055
0.001689065
0.001803114
0.001939502
0.002096216
0.002274255
0.002362709
0.002607464
0.00275582
0.002912829
0.003060032
0.003184377
0.003287705
0.00337468
0.003447056
0.003504962
0.00354373
0.003559566
0.003552492
0.003519975
0.003460358
0.003373383
0.003259865
0.003122135
0.002964615
0.00279299
0.002621883
0.002413807
0.002193061
0.001991954
0.001775703
0.001574097
0.001424888
0.001323784
0.001254213
0.001194145
0.001180514
0.001181759
0.001192006
0.00120787
0.001229281
0.001257388
0.001293052
0.00133618
0.001384679
0.001435994
0.001487493
0.001536056
0.001581039
0.001623249
0.001662668
0.001699514
0.001734123
0.001766818
0.001797543
0.00182561
0.001849683
0.001867735
0.001877447
0.001876645
0.001862924
0.001833288
0.001787994
0.001729908
0.001664152
0.001594057
0.00152282
0.00145312
0.00138708
0.001326263
0.001271731
0.001224132
0.001183761
0.001150597
0.001124337
0.001104468
0.001090345
0.001081276
0.001076584
0.001075648
0.001077928
0.001082905
0.001090038
0.001098868
0.001110036
0.001121031
0.001131491
0.001143002
0.00115667
0.001172827
0.001189995
0.001207637
0.001226358
0.001246592
0.001268729
0.001293147
0.001320177
0.001350028
0.001382681
0.00141788
0.001455124
0.001493819
0.001533204
0.001572162
0.001609351
0.001643301
0.001672193
0.001694676
0.001710572
0.001720604
0.001726188
0.001728969
0.001730186
0.001730064
0.001727458
0.001718163
0.00169754
0.001663776
0.001615919
0.001554988
0.00148479
0.001406626
0.001324253
0.001242934
0.001168333
0.00110474
0.001053739
0.001014047
0.0009825372
0.0009554375
0.0009290291
0.0008999794
0.0008650369
0.000820483
0.0007667501
0.0006373932
0.0005412901
0.0004819746
0.000408974
0.0003708546
0.0003548713
0.000353373
0.0003596003
0.000369138
0.000378285
0.0003850929
0.0003888694
0.0003888476
0.0003852151
0.0003829132
0.0003814291
0.0003802143
0.0003785699
0.0003756189
0.0003715719
0.0003666314
0.0003607033
0.0003538658
0.0003462536
0.0003381084
0.0003296259
0.0003212031
0.0003127283
0.0003042381
0.0002957248
0.0002870941
0.0002783267
0.0002694213
0.0002603428
0.0002510197
0.0002431788
0.0002255718
0.0002064802
0.0001664922
0.0001513174
0.0001815948
0.000220227
0.0002546432
0.0002789499
0.0002798714
0.0002794498
0.0002966417
0.0003179045
0.0003364651
0.0003503123
0.000349703
0.0003518598
0.0003569847
0.0003605541
0.0003617275
0.0003615324
0.0003601511
0.0003580882
0.0003556443
0.0003538124
0.0003535168
0.0003547834
0.0003565336
0.0003572471
0.000356306
0.000353961
0.0003508821
0.0003476994
0.0003448614
0.0003425432
0.0004513152
0.0004563664
0.0004622123
0.0004689239
0.0004766255
0.0004857733
0.0004968759
0.0005103102
0.000526213
0.0005446056
0.0005655154
0.0005889354
0.0006144985
0.0006418552
0.0006706968
0.0007006672
0.0007313788
0.0007624539
0.0007935635
0.0008244532
0.0008549523
0.0008849724
0.0009144977
0.0009435725
0.00097229
0.001000786
0.001029251
0.001057962
0.00108737
0.001117988
0.001149328
0.001180816
0.001211961
0.001242422
0.001271919
0.001300191
0.001326984
0.001352057
0.001375178
0.001396137
0.001414759
0.001430904
0.001444479
0.001455422
0.001463669
0.001469017
0.001471327
0.001471349
0.00146959
0.001466414
0.001462198
0.0014573
0.001452055
0.001447361
0.001440904
0.001436872
0.00143824
0.00144407
0.001453143
0.001464419
0.001477039
0.001490321
0.001503777
0.001517089
0.001530083
0.001542698
0.001554936
0.001566835
0.001578438
0.00158978
0.00160087
0.001611697
0.001622214
0.001632348
0.001641999
0.001651046
0.001659347
0.00166674
0.001673023
0.001677966
0.001681295
0.001682691
0.001681843
0.001678482
0.001672506
0.001664263
0.001654442
0.00164341
0.001630991
0.001616837
0.001600725
0.0015826
0.001562414
0.001540033
0.001515296
0.001488122
0.001458575
0.001426858
0.001393282
0.001358232
0.001322135
0.001285441
0.001248605
0.001212069
0.001176251
0.001141525
0.001108218
0.001076605
0.001046914
0.001019321
0.0009939446
0.0009708447
0.0009500283
0.0009314587
0.0009150649
0.0009007474
0.0008883839
0.0008778359
0.0008689557
0.0008615928
0.0008556011
0.0008508444
0.0008471994
0.0008445559
0.0008428133
0.0008418866
0.0008417061
0.0008422073
0.0008433361
0.0008450537
0.0008473317
0.0008501666
0.0008535752
0.0008576516
0.0008625585
0.0008687224
0.0008770678
0.000890541
0.000732303
5.092566e-05
5.464349e-05
6.38053e-05
7.491216e-05
8.621635e-05
9.7128e-05
0.0001075502
0.0001175471
0.0001285447
0.0004258502
0.0005800121
0.0007427992
0.0009005441
0.001046229
0.001178047
0.001297399
0.001406504
0.001507474
0.002185806
0.00230791
0.002429576
0.002542519
0.002642744
0.002727329
0.002793502
0.002839124
0.002864094
0.002869934
0.002861986
0.002843129
0.002820958
0.002802374
0.002792129
0.002793646
0.002809456
0.002841469
0.002890624
0.002948869
0.003012932
0.003097882
0.003204739
0.003332796
0.003480459
0.003645444
0.003824853
0.004015021
0.00421141
0.004408931
0.004601369
0.004784231
0.004952454
0.005101394
0.005226908
0.005325266
0.00539344
0.005428404
0.006210574
0.00616542
0.00609052
0.005989826
0.005867881
0.005730129
0.00558262
0.005431565
0.005283097
0.005145525
0.005028712
0.004941779
0.004891796
0.004883432
0.004919251
0.004999293
0.005122434
0.005285615
0.005487353
0.005715193
0.005951443
0.006193011
0.00643149
0.006652921
0.006849967
0.007022924
0.007174631
0.007306867
0.007420178
0.007512818
0.007582601
0.007624486
0.007634087
0.007607666
0.007542368
0.007436353
0.007289097
0.007101006
0.00687289
0.006603271
0.006286263
0.005927766
0.005535767
0.005113179
0.00468363
0.004274681
0.003901174
0.003570182
0.003296304
0.003087135
0.002928536
0.002813915
0.002737073
0.002692639
0.002676192
0.00268398
0.002712534
0.002758517
0.002818761
0.002890316
0.002970445
0.003056615
0.003146267
0.003239293
0.003337808
0.003444232
0.003557694
0.003676368
0.003797489
0.003917316
0.004031308
0.004134521
0.004222234
0.004290133
0.004334376
0.004351732
0.004339761
0.004296943
0.00422716
0.004138498
0.004035043
0.003920934
0.003800365
0.003677349
0.00355553
0.003438055
0.003327495
0.003225825
0.003134451
0.003054265
0.002985719
0.002928911
0.002883669
0.002849609
0.002826214
0.002812904
0.002809088
0.002814425
0.002827844
0.002848657
0.002876276
0.00291028
0.002952909
0.00300506
0.003067297
0.003140313
0.00322491
0.003321949
0.003432264
0.003556504
0.003694949
0.003847331
0.004012713
0.004189332
0.004374491
0.004564572
0.00475526
0.004941954
0.005120329
0.005286946
0.00543985
0.00557895
0.005705869
0.005823069
0.005932442
0.006033952
0.006124862
0.006200214
0.006254203
0.006281937
0.006279927
0.00624532
0.006175528
0.006067918
0.005925091
0.005763922
0.005596566
0.005435717
0.005291162
0.005167126
0.00506222
0.004971033
0.004885918
0.004797854
0.004696996
0.004573406
0.004418213
0.004231585
0.003882963
0.003400966
0.003001672
0.002672819
0.002404982
0.002186803
0.002007634
0.001860871
0.001742455
0.001649338
0.001578558
0.001527044
0.001491641
0.001469362
0.00145767
0.001454695
0.001459192
0.001470226
0.001486979
0.001508626
0.001534185
0.001562538
0.001592572
0.001623253
0.001653632
0.001682843
0.001710118
0.001734553
0.001755019
0.001770131
0.001778227
0.001777501
0.001765936
0.001741474
0.001701319
0.001642123
0.001556891
0.001431708
0.001271904
0.001128127
0.001016284
0.0009261573
0.00085575
0.0008062345
0.000776856
0.0007515836
0.0007029802
0.0006786735
0.0006774964
0.0006970872
0.0007412159
0.000807096
0.0008871083
0.0009715451
0.001049547
0.001113643
0.001161493
0.001195092
0.001219753
0.001243683
0.001274974
0.001307709
0.001343067
0.001380053
0.001414559
0.001444223
0.001468552
0.00148776
0.001503216
0.001515895
0.001714312
0.001734951
0.001756119
0.001777961
0.001801039
0.001825948
0.001853145
0.001882964
0.001915857
0.001952931
0.00199506
0.002042849
0.002096676
0.002156655
0.00222263
0.002294201
0.002370767
0.002451598
0.002535897
0.002622864
0.002711738
0.00280183
0.002892534
0.002983337
0.003073795
0.003163515
0.003252128
0.00333927
0.003424572
0.003507694
0.003588231
0.00366764
0.003746905
0.003824477
0.003899336
0.00397076
0.004038171
0.004101061
0.004158971
0.004211489
0.004258264
0.004299027
0.004333606
0.004361933
0.004384022
0.004399943
0.004409989
0.00441475
0.004414904
0.004411163
0.00440429
0.004395057
0.004384205
0.004372586
0.004360438
0.004348469
0.004337732
0.004328991
0.004322756
0.004319321
0.004318802
0.004321158
0.004326235
0.004333817
0.004343659
0.004355512
0.004369134
0.004384285
0.004400725
0.004418203
0.004436453
0.004455189
0.004474102
0.004492865
0.004511127
0.004528517
0.004544641
0.004559078
0.00457138
0.00458107
0.004587639
0.004590573
0.004589378
0.004583649
0.004573185
0.004558182
0.004539113
0.004516189
0.004489342
0.004458383
0.004423186
0.004383704
0.004339767
0.004291043
0.004237172
0.00417793
0.004113308
0.00404351
0.003968909
0.003890013
0.003807427
0.003721835
0.003633972
0.00354461
0.00345454
0.003364559
0.003275453
0.003187985
0.003102876
0.003020786
0.002942305
0.002867939
0.002798108
0.002733145
0.0026733
0.002618748
0.002569594
0.002525849
0.002487113
0.002452918
0.002422888
0.0023967
0.002374064
0.002354714
0.002338407
0.002324916
0.002314056
0.002305714
0.002299976
0.002296645
0.00229556
0.002296537
0.002299515
0.002304372
0.002311157
0.002320058
0.002332078
0.002349362
0.002369216
2.995289e-05
3.667335e-05
4.680609e-05
5.887237e-05
7.333278e-05
9.079442e-05
0.0001123626
0.0001395447
0.0001751004
0.0002381741
0.0009591354
0.001121476
0.001298592
0.001482074
0.001657908
0.001789256
0.001923759
0.002069957
0.002349072
0.004352569
0.004591755
0.004746427
0.004884617
0.005009365
0.005124803
0.00523248
0.005333566
0.00543022
0.00554552
0.005752673
0.005980024
0.00617044
0.006318305
0.006433444
0.006524862
0.006596566
0.006650447
0.006693588
0.006586896
0.006565089
0.006580765
0.006611749
0.006646711
0.006680395
0.006711171
0.006739562
0.00676726
0.006796147
0.006828168
0.006867747
0.006917338
0.00697759
0.007047482
0.007124341
0.00720423
0.007281068
0.008263327
0.008316871
0.008349691
0.008362344
0.00835433
0.008324259
0.008270353
0.008191334
0.00808805
0.007964496
0.007828813
0.007693447
0.007564319
0.007440234
0.007321206
0.007209758
0.007110346
0.007033564
0.006983089
0.006960816
0.006968225
0.007006859
0.007076773
0.007177083
0.007305994
0.007460542
0.007636501
0.00782812
0.008028036
0.008229559
0.008426044
0.008610583
0.008776677
0.008918696
0.009031722
0.009112072
0.009157164
0.009168216
0.00911977
0.009041679
0.008936727
0.008808432
0.008661382
0.008498572
0.008320154
0.008130274
0.007936011
0.007746308
0.007574351
0.0074361
0.007340693
0.007294543
0.007301669
0.007363528
0.007478705
0.00764245
0.007847302
0.008081064
0.008325425
0.008564354
0.00878562
0.00898067
0.009146839
0.009286958
0.009406526
0.009510461
0.009601512
0.009681037
0.00974348
0.009784648
0.009800193
0.009786046
0.009738715
0.009655358
0.009533852
0.009372278
0.009168678
0.008920464
0.008622691
0.008274006
0.007877827
0.007437943
0.006968384
0.006490408
0.006024479
0.005583781
0.005184221
0.004841769
0.004555572
0.004321771
0.004137946
0.004000228
0.003904148
0.003845099
0.003818527
0.003820162
0.003846156
0.003893162
0.003958331
0.004039331
0.004134461
0.004242473
0.004361745
0.004490578
0.004632
0.004786866
0.004951623
0.005121272
0.005289659
0.005450137
0.005596306
0.005722567
0.005824066
0.005896849
0.005938184
0.005946477
0.005920944
0.005863325
0.005779954
0.00567503
0.005553132
0.005418961
0.005277105
0.005131856
0.004987078
0.004846127
0.004711819
0.004586431
0.004471719
0.004368973
0.004279062
0.004202502
0.004139519
0.004090132
0.004054209
0.004031715
0.004022216
0.004025289
0.004040691
0.004067871
0.00410638
0.004159639
0.004229053
0.004316076
0.004422248
0.004549106
0.004698019
0.00486994
0.005065111
0.005282814
0.005521187
0.00577702
0.006045627
0.006321026
0.006596557
0.006865646
0.007122586
0.007363413
0.007586541
0.007792772
0.007984667
0.008164932
0.008334018
0.008490363
0.008629466
0.008744946
0.008830648
0.008882806
0.008900081
0.008881845
0.008828521
0.008742353
0.008626962
0.008491622
0.008349408
0.008212865
0.008090102
0.007982996
0.007888695
0.00780123
0.007713127
0.00761547
0.007498819
0.007353659
0.007170786
0.006941956
0.00666326
0.006367182
0.006057654
0.005743067
0.005431361
0.005129239
0.004842358
0.004575385
0.004331938
0.00411419
0.003922709
0.003756644
0.003614243
0.003493346
0.003391946
0.003308576
0.003242374
0.003192866
0.003159603
0.003141965
0.003139137
0.003150116
0.003173741
0.003208719
0.003253631
0.003306904
0.003366712
0.003430889
0.003496868
0.003561614
0.003621666
0.00367323
0.003712086
0.003733403
0.003731926
0.003701215
0.003633078
0.003521092
0.003371947
0.003196411
0.002997153
0.002777421
0.002544552
0.002309992
0.00208833
0.001891856
0.001727351
0.001598679
0.001506826
0.001450249
0.001373891
0.001261801
0.001206807
0.001199469
0.001227649
0.001280713
0.001348025
0.001419287
0.001487412
0.001547297
0.001595729
0.001632888
0.001664556
0.001697886
0.001743001
0.001804573
0.001890356
0.001993192
0.002108528
0.002161235
0.002214895
0.002270242
0.002326081
0.002382486
0.002439921
0.00249852
0.002558398
0.002620014
0.002684006
0.002751129
0.002822176
0.002897915
0.002979015
0.003065978
0.003159079
0.003258339
0.003363521
0.003474146
0.003589539
0.003708874
0.003831233
0.003955656
0.004081187
0.004206915
0.004331997
0.004455668
0.004577248
0.004696129
0.004811763
0.004923642
0.005031288
0.005134067
0.005232932
0.005329087
0.005421796
0.005510566
0.005595002
0.005674746
0.005749447
0.005818766
0.00588238
0.005940006
0.005991418
0.00603647
0.006075092
0.006107292
0.006133206
0.006153169
0.006167664
0.006177269
0.006182639
0.006184493
0.006183562
0.006180599
0.006176211
0.006171012
0.006165776
0.006161159
0.006157685
0.006155767
0.006155693
0.006157621
0.006161594
0.006167574
0.006175485
0.006185234
0.006196718
0.00620982
0.006224398
0.006240279
0.006257246
0.00627504
0.006293357
0.006311856
0.006330162
0.006347865
0.006364532
0.006379695
0.006392866
0.006403528
0.006411148
0.006415193
0.006415155
0.006410607
0.006401239
0.006386917
0.006367688
0.006343569
0.00631453
0.00628049
0.00624138
0.006197215
0.006147845
0.006092883
0.006031836
0.005964324
0.005890202
0.005809555
0.005722647
0.005629893
0.005531826
0.00542908
0.005322374
0.005212491
0.005100269
0.004986591
0.004872365
0.004758514
0.004645955
0.00453557
0.004428197
0.004324604
0.00422548
0.004131421
0.004042927
0.003960397
0.00388413
0.003814307
0.003750938
0.00369395
0.003643172
0.003598367
0.003559254
0.00352552
0.003496835
0.00347285
0.003453186
0.003437364
0.003424649
0.00341488
0.003408257
0.003404881
0.003404527
0.003407121
0.003412486
0.003420874
0.00343228
0.003447309
0.003464475
3.73113e-05
6.033817e-05
0.0001347506
0.0004575628
0.0007906623
0.001427452
0.001918765
0.002518108
0.00320517
0.003771443
0.004188075
0.004523414
0.004855152
0.005187036
0.005527715
0.005872297
0.006221681
0.006560473
0.006880456
0.007195989
0.007504722
0.007792954
0.008030619
0.008227974
0.008403411
0.008557326
0.008687322
0.008794025
0.008885882
0.008971513
0.009082441
0.009156509
0.008885061
0.008714029
0.008574315
0.008482076
0.008436068
0.008440706
0.008494908
0.00859181
0.008709126
0.008867398
0.009067844
0.009299132
0.009571685
0.009904777
0.01
0.01
0.01
0.01
0.01
0.01
0.01
0.01
0.01
0.01
0.01
0.01
0.01
0.01
0.01
0.01
0.01
0.01
0.01
0.01
0.01
0.01
0.01
0.01
0.01
0.01
0.01
0.01
0.01
0.01
0.01
0.01
0.01
0.01
0.01
0.01
0.009836744
0.009687456
0.009555744
0.009437458
0.009342382
0.009278113
0.009246485
0.009248662
0.009284893
0.009354312
0.009454865
0.009583143
0.009734295
0.009902191
0.01
0.01
0.01
0.01
0.01
0.01
0.01
0.01
0.01
0.01
0.01
0.01
0.01
0.01
0.01
0.01
0.01
0.01
0.009901715
0.009713288
0.009543882
0.009404417
0.00931015
0.00926855
0.009284647
0.009360117
0.009491911
0.009672465
0.009891066
0.01
0.01
0.01
0.01
0.01
0.01
0.01
0.01
0.01
0.01
0.01
0.01
0.01
0.01
0.01
0.01
0.01000001
0.01000008
0.01000047
0.01000049
0.0100002
0.01000003
0.01
0.009799809
0.009393797
0.008949917
0.008481139
0.008001624
0.007527305
0.007074658
0.006659281
0.006289735
0.005969495
0.005699969
0.005480602
0.005309
0.005181387
0.005093256
0.005040035
0.005017591
0.005022537
0.005052308
0.005105147
0.005179999
0.005276202
0.005393073
0.005529468
0.00568288
0.005853029
0.006039669
0.006236486
0.006435782
0.006629445
0.006810029
0.006971358
0.007108235
0.007216472
0.007293482
0.007337927
0.007349331
0.007327808
0.007276246
0.007197994
0.007096839
0.006976873
0.006842315
0.006697348
0.006545978
0.006391938
0.006238628
0.006089069
0.005945875
0.005811254
0.00568701
0.005574585
0.005475106
0.005389453
0.005318314
0.005262291
0.005221814
0.005197275
0.005189111
0.005197672
0.005222901
0.005266357
0.005331667
0.005420884
0.005536128
0.005679388
0.005852252
0.006055558
0.006289004
0.00655085
0.006837766
0.007144589
0.007464289
0.007788522
0.008108917
0.008418039
0.008709817
0.008980413
0.009230405
0.009462271
0.009679663
0.009885685
0.01
0.01000001
0.01000005
0.01000015
0.01000042
0.01000226
0.01000283
0.01000182
0.01000035
0.01000002
0.01
0.01
0.01
0.01
0.01
0.01
0.01
0.009954366
0.009875345
0.00978177
0.009665856
0.009520965
0.009340798
0.009120824
0.00886182
0.008570503
0.008254108
0.007922175
0.007584427
0.007249128
0.006923449
0.006613467
0.006323875
0.006057497
0.005815512
0.005597522
0.005402108
0.005227674
0.005073059
0.004937808
0.004822061
0.004726219
0.004650647
0.004595497
0.004560602
0.004545442
0.004549131
0.004570438
0.004607802
0.004659247
0.004722391
0.004794373
0.004871807
0.004950806
0.005027141
0.005096517
0.005154313
0.00519572
0.005215927
0.005209057
0.005167992
0.005087934
0.004969388
0.00481311
0.004617438
0.004381958
0.00410963
0.003808742
0.00349304
0.003177731
0.002877048
0.002603651
0.002367827
0.002176574
0.002032901
0.001935583
0.001880306
0.001860385
0.001866335
0.001774378
0.001728536
0.001728073
0.001757291
0.001802712
0.001849276
0.001883647
0.001900963
0.001905461
0.001906277
0.001913455
0.001933636
0.001972241
0.002034819
0.002125791
0.002256993
0.002426036
0.002576346
0.002655358
0.002740467
0.002831534
0.002927663
0.003028372
0.003133371
0.003242304
0.003354922
0.003471164
0.003591134
0.003715025
0.003843029
0.003975257
0.004111677
0.004252056
0.004395938
0.004542671
0.004691432
0.004841271
0.00499116
0.005140053
0.005286939
0.005430886
0.005571074
0.005706808
0.005837519
0.005962754
0.006082156
0.006195432
0.006302355
0.00640474
0.006502994
0.006597212
0.006687455
0.006773726
0.00685597
0.006934064
0.007007839
0.007077086
0.007141585
0.007201134
0.007255563
0.007304744
0.007348619
0.007387249
0.007420813
0.007449594
0.007473959
0.007494351
0.007511264
0.007525229
0.007536765
0.007546367
0.007554578
0.007561921
0.007568863
0.007575809
0.007583087
0.007590922
0.007599438
0.007608692
0.007618709
0.007629514
0.007641136
0.007653602
0.007666919
0.007681062
0.007695961
0.00771149
0.007727468
0.007743667
0.007759812
0.007775588
0.00779064
0.007804577
0.007816977
0.007827388
0.007835337
0.007840336
0.00784191
0.00783962
0.007833088
0.007821997
0.007806117
0.007785285
0.007759353
0.007728166
0.007691613
0.007649705
0.00760234
0.007549175
0.007489651
0.007423253
0.007349695
0.007268915
0.007181027
0.007086294
0.006985109
0.006877979
0.006765515
0.006648418
0.006527465
0.006403504
0.006277447
0.006150254
0.006022907
0.005896391
0.005771672
0.005649669
0.005531241
0.005417165
0.005308127
0.005204701
0.005107352
0.00501652
0.004932834
0.004856441
0.004787351
0.004725467
0.00467061
0.004622528
0.004580918
0.004545432
0.004515689
0.00449128
0.004471766
0.004456694
0.004445258
0.004437197
0.004432919
0.004432285
0.004435192
0.004441508
0.0044513
0.004464316
0.004480356
2.088164e-05
3.361254e-05
5.050388e-05
0.000219559
0.0003601887
0.0006104523
0.0008630391
0.001096994
0.001393172
0.001685042
0.002002614
0.002415106
0.002905885
0.003463886
0.004095169
0.004904385
0.006440641
0.007068991
0.007677212
0.008221729
0.008701428
0.009114454
0.009477363
0.009804244
0.01
0.01
0.01
0.01
0.01
0.01
0.01
0.01
0.01
0.01
0.01
0.01
0.01
0.01
0.009714538
0.009251282
0.008715699
0.008240392
0.00810009
0.00790989
0.007720065
0.007578496
0.007492758
0.007456515
0.007475604
0.007543259
0.007660331
0.007817197
0.008019656
0.008277605
0.008594895
0.008979246
0.009445125
0.009986915
0.01
0.01
0.01
0.01
0.01
0.01
0.01
0.01
0.01
0.01
0.01
0.01
0.01
0.01
0.01
0.01
0.01
0.01
0.01
0.01
0.01
0.01
0.01
0.01
0.01
0.01
0.01
0.01
0.01
0.01
0.01
0.01
0.01
0.01
0.01
0.01
0.01
0.01
0.01
0.01
0.01
0.01
0.01
0.01
0.01
0.01
0.01
0.01
0.01
0.01
0.01
0.01
0.01
0.01
0.01
0.01
0.01
0.01
0.01
0.01
0.01
0.01
0.01
0.01
0.01000001
0.01000002
0.01000005
0.01000003
0.01000001
0.01
0.01
0.01
0.01
0.01
0.01
0.01
0.01
0.01
0.01
0.01
0.01
0.01
0.01
0.01
0.01
0.01000001
0.01000001
0.01
0.01
0.01
0.01
0.01
0.01
0.01000001
0.01000024
0.01000085
0.01000074
0.01000032
0.01000005
0.01
0.01
0.01
0.01
0.01
0.01
0.009653634
0.009193834
0.008742264
0.008310623
0.007910281
0.007549303
0.007232755
0.006963278
0.006741037
0.006563982
0.00642856
0.006330633
0.00626631
0.00623252
0.006227268
0.006249593
0.006299316
0.006376603
0.006481415
0.006612898
0.00676877
0.006944683
0.007138218
0.007344202
0.007553611
0.007757504
0.007948154
0.008119689
0.008267541
0.008387993
0.008479
0.008539852
0.00857058
0.008571611
0.008543622
0.008488899
0.008410232
0.008310743
0.008193763
0.008062704
0.007920949
0.007771764
0.007618326
0.007463674
0.007310637
0.007161787
0.007019422
0.006885569
0.006762012
0.006650368
0.006552102
0.006468592
0.006401143
0.006351041
0.00631961
0.006308173
0.00631793
0.006349783
0.006407921
0.00649517
0.006614095
0.006766822
0.006954706
0.007177926
0.007435082
0.007722856
0.008035856
0.008366832
0.008706742
0.009044999
0.009373172
0.009685365
0.009977793
0.01
0.01
0.01
0.01
0.01000004
0.01000021
0.0100007
0.01000188
0.0100042
0.01000434
0.01000434
0.01000292
0.01000067
0.01000005
0.01
0.01
0.01
0.01
0.01
0.01
0.01
0.01000002
0.01000007
0.01000022
0.01000051
0.01000063
0.01000057
0.01000035
0.01000032
0.01000145
0.01000302
0.00990108
0.00960207
0.009293622
0.008983104
0.00867658
0.008378477
0.008093326
0.007823809
0.007571405
0.007336413
0.0071185
0.006917389
0.006733395
0.006567519
0.006421096
0.006295364
0.006191286
0.006109497
0.00605023
0.006013339
0.005998282
0.006004043
0.006029031
0.006071166
0.006127807
0.006195685
0.006270952
0.006349303
0.0064263
0.006497662
0.006559287
0.00660722
0.006637352
0.006644785
0.006624065
0.006570673
0.006481637
0.006353889
0.006183646
0.005967849
0.005705637
0.005399734
0.005057442
0.004689595
0.004309651
0.003932553
0.003573926
0.00324867
0.002968297
0.002739573
0.002564253
0.002439509
0.002359559
0.002315407
0.002298594
0.002301086
0.002315451
0.002313262
0.002293194
0.002297027
0.00230643
0.002307697
0.002292372
0.002261096
0.002220176
0.002181163
0.002155427
0.002152481
0.002177948
0.002237541
0.002338111
0.002487384
0.002683937
0.002912187
0.003094086
0.003212678
0.003341153
0.003478529
0.003623498
0.003775046
0.003932065
0.004093505
0.004258495
0.004426328
0.004596405
0.004768142
0.004940906
0.005113987
0.005286584
0.005457796
0.005626646
0.005792127
0.005953257
0.006109139
0.006259006
0.00640225
0.006538437
0.006667308
0.006788762
0.006902823
0.007009598
0.007109898
0.007205341
0.007296672
0.007384513
0.00746934
0.007551487
0.007631147
0.007708384
0.007783148
0.0078553
0.007924642
0.007990953
0.008054006
0.00811359
0.008169544
0.00822177
0.008270242
0.008315003
0.008356167
0.008393906
0.008428432
0.00845998
0.008488791
0.008515137
0.008539308
0.008561593
0.008582277
0.00860163
0.008619871
0.008637146
0.008653554
0.008669188
0.008684169
0.008698643
0.008712767
0.008726687
0.00874054
0.008754423
0.008768376
0.008782382
0.008796377
0.008810251
0.00882385
0.008836977
0.008849387
0.008860792
0.008870869
0.008879257
0.008885566
0.008889381
0.008890283
0.008887858
0.008881714
0.0088715
0.008856925
0.008837714
0.008813591
0.008784318
0.00874976
0.008709797
0.008664135
0.00861226
0.008553613
0.008487766
0.008414487
0.008333721
0.00824556
0.008150229
0.008048078
0.007939568
0.007825262
0.007705815
0.007581978
0.007454593
0.007324575
0.007192899
0.007060564
0.006928576
0.006797924
0.00666956
0.006544381
0.006423207
0.006306769
0.0061957
0.006090532
0.005992224
0.005901254
0.005817839
0.005742068
0.005673918
0.005613268
0.005559916
0.005513593
0.005473979
0.005440714
0.005413411
0.005391657
0.005374985
0.00536276
0.005354231
0.005349836
0.005349529
0.005353064
0.005360466
0.005371323
0.005385692
1.867416e-05
2.860898e-05
5.58862e-05
0.0001667193
0.0002676455
0.0004220521
0.0005431415
0.0006826854
0.0008488968
0.00101406
0.001209319
0.0014637
0.00175741
0.002109716
0.002569778
0.003448577
0.003873433
0.004332949
0.004818144
0.005327366
0.005865206
0.006422251
0.006983215
0.007534405
0.008060827
0.008550722
0.009023548
0.009537731
0.01
0.01
0.01
0.01
0.01
0.01
0.01
0.01
0.01
0.01
0.01
0.01
0.01
0.01
0.01
0.01
0.01
0.009963319
0.009516196
0.009048546
0.008595677
0.008155102
0.007759263
0.007405877
0.007142773
0.006902694
0.006735916
0.006634662
0.006596826
0.006615481
0.006697643
0.006839039
0.007046209
0.007322438
0.007680783
0.008141071
0.008688578
0.009306737
0.01
0.01
0.01
0.01
0.01
0.01
0.01
0.01
0.01
0.01
0.01
0.01
0.01
0.01
0.01
0.01
0.01
0.01
0.01
0.01
0.01
0.01
0.01
0.01
0.01
0.01
0.01
0.01
0.01
0.01
0.01
0.01
0.01
0.01
0.01
0.01
0.01
0.01
0.01
0.01
0.01
0.01
0.01
0.01
0.01
0.01
0.01
0.01
0.01
0.01
0.01
0.01
0.01
0.01
0.01
0.01
0.01
0.01
0.01
0.01
0.01
0.01
0.01
0.01
0.01000002
0.01000014
0.0100006
0.01000056
0.01000018
0.01000002
0.01
0.01
0.01
0.01
0.01
0.01
0.01
0.01
0.01
0.01
0.01
0.01
0.01
0.01
0.01
0.01
0.01000002
0.01000003
0.01000002
0.01
0.01
0.01
0.01
0.01
0.01
0.01000008
0.0100008
0.0100007
0.01000026
0.01000004
0.01
0.01
0.01
0.01
0.01
0.01
0.01
0.01
0.01
0.01
0.009699096
0.009305757
0.008943084
0.008616348
0.008330058
0.008086466
0.007885209
0.007723952
0.007599445
0.007508553
0.007448975
0.007419576
0.007420324
0.007451911
0.007515147
0.007610199
0.007735872
0.007889076
0.008064612
0.008255515
0.008456836
0.008659368
0.008854371
0.00903451
0.009194996
0.009332636
0.009445121
0.009531425
0.009591466
0.0096257
0.009634676
0.009618064
0.009577546
0.009515167
0.009433217
0.009334153
0.009220513
0.009094774
0.008959048
0.008815793
0.008667842
0.008517877
0.008368416
0.008221811
0.008080246
0.007945811
0.007820582
0.007706607
0.007605926
0.007520593
0.007452716
0.007404478
0.007378119
0.007375839
0.007399501
0.00745233
0.007538186
0.007659652
0.007818577
0.008015582
0.008249683
0.00851803
0.008815445
0.009133965
0.009465307
0.009800409
0.01
0.01
0.01
0.01
0.01
0.01
0.01000002
0.01000026
0.01000143
0.01000583
0.01001059
0.01001058
0.01000842
0.0100025
0.01000025
0.01000003
0.01000004
0.01000006
0.01000006
0.01000006
0.01000005
0.01000005
0.01000006
0.01000008
0.01000008
0.01000014
0.01000173
0.01001185
0.01001355
0.01001355
0.01001355
0.01001271
0.01000403
0.01000051
0.01000049
0.01000248
0.01000302
0.01000248
0.01000076
0.01000006
0.009753583
0.009503454
0.009261583
0.009029325
0.008807094
0.00859508
0.008394595
0.00820747
0.008036061
0.007882685
0.00774904
0.00763619
0.007544865
0.007475578
0.007428344
0.007402852
0.007398316
0.007413276
0.007445609
0.007492559
0.0075508
0.007616408
0.007685017
0.007752321
0.0078146
0.007868845
0.007912296
0.007941703
0.007952908
0.007941251
0.007902315
0.007832039
0.007726245
0.00758067
0.007391608
0.007156581
0.006874975
0.006548888
0.006183791
0.005788309
0.00537409
0.004955513
0.00454828
0.004167213
0.003824712
0.003529988
0.003287753
0.003097347
0.002954215
0.002851776
0.002782532
0.00273884
0.002713623
0.002700896
0.002696009
0.002695714
0.00269815
0.002702755
0.002709891
0.002720498
0.002717701
0.002631878
0.002533642
0.002442525
0.00237658
0.002349695
0.002368398
0.002437318
0.002560926
0.002744962
0.002987714
0.003271044
0.003565923
0.00372319
0.003889786
0.004066795
0.004252127
0.004443912
0.004640301
0.004839493
0.005039847
0.005239879
0.005438241
0.005633693
0.00582507
0.006011258
0.006191211
0.006363978
0.006528746
0.006684876
0.006831928
0.006969682
0.007098131
0.007217473
0.007328069
0.007430407
0.00752513
0.007613968
0.007698379
0.007779561
0.007858482
0.007935886
0.008012311
0.008088101
0.008163418
0.008238261
0.008312509
0.008385956
0.008458341
0.008529371
0.008598745
0.008666172
0.008731383
0.008794158
0.00885433
0.008911785
0.008966428
0.00901818
0.009066973
0.009112763
0.009155544
0.009195339
0.009232213
0.009266276
0.009297645
0.009326412
0.009352657
0.009376504
0.009398157
0.009417873
0.009435924
0.009452576