/*--------------------------------*- C++ -*----------------------------------*\
| =========                 |                                                 |
| \\      /  F ield         | foam-extend: Open Source CFD                    |
|  \\    /   O peration     | Version:     3.1                                |
|   \\  /    A nd           | Web:         http://www.extend-project.de       |
|    \\/     M anipulation  |                                                 |
\*---------------------------------------------------------------------------*/
FoamFile
{
    version     2.0;
    format      ascii;
    class       volScalarField;
    location    "14";
    object      omega;
}
// * * * * * * * * * * * * * * * * * * * * * * * * * * * * * * * * * * * * * //

dimensions      [0 0 -1 0 0 0 0];

internalField   nonuniform List<scalar> 
119952
(
329.8513
422.9485
409.0154
364.52
334.3097
342.825
353.7841
365.9696
378.7559
391.7851
404.7944
417.5479
429.8656
441.5379
452.3896
462.2072
470.8089
478.01
483.696
488.4511
397.3997
383.3878
370.6879
293.3047
266.789
248.7617
241.6427
241.1897
238.8295
150.0645
653.3119
540.5274
456.9892
399.4608
358.2395
327.4044
303.2156
283.5846
267.127
247.7894
203.4311
173.2118
152.9765
138.6069
127.8799
119.5407
112.8481
107.3471
102.7128
80.93046
78.23549
75.78154
73.6545
71.88852
70.4831
69.38597
68.49327
67.65218
66.73354
65.59008
63.97437
61.84782
59.30517
56.46772
53.48555
50.49801
47.59943
44.87208
43.27367
42.0876
40.73039
39.65925
38.90543
38.37161
37.95447
37.64402
37.43606
37.32885
37.35261
37.53398
37.86102
38.34352
38.99177
39.81482
40.82293
42.02106
43.39975
44.94797
46.58904
48.89658
51.681
54.67597
58.88011
63.77957
68.33342
72.44144
76.04968
79.04924
78.93364
77.43764
74.89953
71.70352
68.09665
64.29778
60.47235
56.74724
53.20986
49.9152
46.90091
44.20302
41.81313
39.70255
37.86638
36.2902
34.95416
33.83749
32.92037
32.18543
31.61864
31.21117
30.95601
30.84857
30.89441
31.12034
31.52782
32.09821
32.7938
33.59757
34.48915
35.44544
36.43912
37.43914
38.4112
39.31886
40.12571
40.79848
41.31008
41.64169
41.78383
41.73633
41.50737
41.11177
40.56903
39.90235
39.1374
38.29619
37.38163
36.52931
35.71695
34.91652
34.11513
33.32135
32.57687
31.90198
31.29067
30.74208
30.25645
29.83347
29.47223
29.17195
28.93265
28.75522
28.64094
28.58704
28.59081
28.65035
28.76423
28.93192
29.16
29.44969
29.79629
30.19134
30.62436
31.0854
31.56819
32.07297
32.6081
33.21926
33.96277
34.85558
35.91506
37.13914
38.50068
40.0253
41.68541
43.40463
45.05587
46.50379
47.66821
48.56134
49.27113
49.92131
50.64375
51.5718
52.86625
54.7817
57.44402
62.90342
74.43842
85.82105
95.41468
102.0817
105.7541
107.1473
106.8092
105.3836
103.4548
101.4359
99.5174
97.72643
95.97435
94.22064
92.49924
90.8318
89.27795
87.98866
86.98285
86.25138
85.82005
85.69969
85.88705
86.3768
87.16453
88.18424
89.44613
90.9864
92.82128
94.98147
97.49539
100.401
103.746
107.5985
110.9767
113.9532
121.9202
141.4635
159.2161
160.4774
149.6619
135.1315
122.4364
115.2541
108.9039
100.3271
91.1752
82.83127
76.1701
71.40967
67.52625
63.95662
60.8092
58.03193
55.43999
52.97259
50.61361
48.405
46.34852
44.42874
42.64979
41.03514
39.58967
38.3062
37.16613
36.149
35.24525
34.4511
33.76134
27.4991
26.79238
26.08688
25.42072
24.83395
24.32759
23.89904
23.53966
23.2383
22.98268
22.75869
22.55419
22.36507
22.18717
22.01756
21.85582
21.70327
21.56189
21.43328
21.31812
21.21611
21.12623
21.04712
20.97729
20.9152
20.85919
20.80714
20.756
20.70093
20.637
20.56839
20.4981
20.42801
20.35867
20.29021
20.22274
20.15633
20.09108
20.0271
19.96453
19.90355
19.8444
19.7874
19.73329
19.68415
19.643
19.60772
19.57458
19.543
19.51226
19.48154
19.45003
19.41824
19.38784
19.36745
19.25643
19.08521
18.87414
18.64538
18.41694
18.20043
18.00175
17.82247
17.66141
17.51599
17.38317
17.26005
17.14415
17.03353
16.92674
16.82274
16.72087
16.62072
16.52213
16.42504
16.32953
16.23571
16.14379
16.05416
15.96735
15.88416
15.80566
15.73295
15.66704
15.60804
15.55385
15.50147
15.45014
15.4012
15.35645
15.3171
15.28394
15.25801
15.2408
15.23381
15.23818
15.25454
15.28305
15.3235
15.37538
15.43784
15.50973
15.58949
15.67523
15.76474
15.85559
15.94534
16.03134
16.11088
16.18134
16.2404
16.28612
16.31708
16.33242
16.3318
16.31543
16.28398
16.23848
16.18023
16.11071
16.03151
15.94422
15.85034
15.75126
15.64823
15.54222
15.43422
15.32492
15.21476
15.10395
14.99233
14.87942
14.76394
14.64317
14.51109
14.35347
14.1403
13.83911
13.77225
741.7226
607.4241
538.3833
491.0584
452.1081
418.086
388.0084
361.438
336.9654
280.3348
221.6714
187.0107
165.2008
150.4602
139.8297
131.6707
125.0625
119.4952
94.38161
89.84183
85.58033
81.7273
78.3686
75.50951
73.10755
71.10409
69.43957
68.03037
66.87123
65.7505
64.55203
63.25064
61.83263
60.29407
58.6413
56.89035
55.05952
53.43413
51.9542
50.31214
48.60146
46.88892
45.22854
43.66301
42.21889
40.91209
39.75274
38.74283
37.8663
37.11205
36.46398
35.90817
35.4353
35.0387
34.71364
34.46448
31.76445
31.64007
31.56645
31.53427
31.53181
31.54421
31.55517
31.5473
31.50249
31.3967
31.20738
30.91773
30.521
30.02565
29.45239
28.82986
28.18943
27.56352
26.98767
26.49261
26.05497
25.67164
25.35656
25.09649
24.8704
24.66879
24.49174
24.34055
24.21764
24.12782
24.08074
24.08119
24.13261
24.23853
24.40215
24.62552
24.90978
25.25721
25.67348
26.17492
26.79543
27.55511
28.4802
29.61044
30.91112
32.31511
33.76441
35.18949
36.42031
37.33267
37.95502
38.23516
38.15962
37.74661
37.03614
36.08328
34.94769
33.68451
32.34121
30.95775
29.56898
28.20678
26.90015
25.66294
24.50124
23.42064
22.43489
21.5524
20.77641
20.10581
19.53608
19.06058
18.67177
18.36316
18.1301
17.96958
17.88092
17.86697
17.92133
18.02827
18.18148
18.37445
18.59969
18.84869
19.11198
19.37942
19.64049
19.88464
20.10165
20.28198
20.41713
20.49992
20.52477
20.48795
20.38759
20.22388
19.99877
19.71684
19.38751
19.01614
18.61233
18.18812
17.74517
17.29106
16.83484
16.38502
15.94924
15.5342
15.14553
14.7879
14.4649
14.17902
13.93169
13.72327
13.553
13.41911
13.31888
13.24903
13.20616
13.187
13.18884
13.20988
13.24928
13.30666
13.38132
13.4716
13.57481
13.68786
13.80825
13.93492
14.06867
14.21294
14.3759
14.57327
14.82017
15.1064
15.41891
15.73498
16.029
16.28286
16.49158
16.66211
16.80878
16.95115
17.11339
17.32415
17.61552
18.00146
18.91096
20.43523
21.98602
23.47681
24.83676
26.04239
27.10367
28.02409
28.79561
29.40246
29.83065
30.07428
30.13964
30.04291
29.80394
29.43828
28.95542
28.36363
27.67367
26.90224
26.0732
25.21474
24.3553
23.52044
22.73179
22.00607
21.35519
20.78796
20.31144
19.93191
19.65594
19.49049
19.44636
19.53926
19.79851
20.2818
21.11765
22.57031
24.72504
26.99293
29.2976
31.94331
34.98648
38.33472
41.70156
44.64133
47.00654
48.67573
49.40586
48.97639
47.29941
44.6323
41.49771
38.39056
35.60062
33.21288
31.18967
29.44279
27.86914
26.37176
24.88627
23.39624
21.92043
20.49337
19.15191
17.9224
16.81953
15.85102
15.01847
14.31646
13.28721
12.76978
12.35153
12.01486
11.74834
11.54288
11.39007
11.2824
11.21205
11.16922
11.14525
11.13263
11.1251
11.1178
11.10714
11.09075
11.06728
11.03626
10.99789
10.95284
10.90213
10.84695
10.78858
10.72831
10.66746
10.60736
10.54931
10.49461
10.44445
10.39973
10.36138
10.32681
10.29389
10.26389
10.23719
10.21374
10.19327
10.17537
10.15958
10.14542
10.13242
10.12015
10.10825
10.0965
10.08472
10.07256
10.05936
10.04471
10.02838
10.01017
9.989843
9.967233
9.942172
9.914915
9.884715
9.84977
9.809797
9.764443
9.713484
9.656958
9.595218
9.528825
9.458446
9.384778
9.308505
9.230274
9.150687
9.070301
8.989625
8.909118
8.829192
8.750208
8.672478
8.596269
8.521805
8.449271
8.378833
8.310637
8.244833
8.18158
8.121057
8.063444
8.008879
7.957362
7.908568
7.86183
7.816539
7.77255
7.729991
7.689055
7.649907
7.61277
7.577991
7.545939
7.516915
7.491111
7.468633
7.449532
7.433816
7.421455
7.41238
7.406478
7.403586
7.403489
7.40591
7.410506
7.416857
7.424468
7.432776
7.441166
7.448986
7.455563
7.460225
7.462315
7.461214
7.456348
7.447209
7.433406
7.415277
7.393316
7.367907
7.339375
7.308038
7.274194
7.238145
7.200151
7.160451
7.119059
7.075704
7.03051
6.983676
6.935062
6.884512
6.831356
6.774871
6.714276
6.650566
6.58979
6.535395
583.5659
515.956
460.8676
420.3968
389.723
366.1742
348.0298
334.6586
325.8826
313.9683
174.4304
162.9344
152.7623
144.0793
137.3398
134.1671
131.4272
129.1367
123.7225
81.07872
79.36039
78.78484
78.21178
77.61428
76.97922
76.30487
75.58571
74.79233
73.67141
71.3304
69.01612
67.26183
65.95702
64.90821
63.98632
63.12277
62.28236
61.43913
61.55328
60.84697
59.77737
58.57197
57.34878
56.15938
55.02098
53.93406
52.89425
51.89947
50.92773
49.95872
48.98861
48.02382
47.08002
46.17379
45.31842
44.5264
41.00929
40.46361
39.9836
39.55766
39.18031
38.84986
38.56596
38.3248
38.11765
37.92835
37.73521
37.51247
37.24357
36.92752
36.56449
36.1532
35.69101
35.16557
34.58187
33.94907
33.2804
32.59105
31.89597
31.20992
30.54686
29.9192
29.33703
28.80754
28.33484
27.91955
27.55925
27.24917
26.98348
26.7563
26.56177
26.39466
26.24973
26.1186
26.05599
26.00222
25.95793
25.92246
25.89301
25.86771
25.8459
25.8204
25.77869
25.70861
25.59583
25.42642
25.19968
24.92349
24.61292
24.28806
23.97005
23.67874
23.4297
23.23816
23.09297
22.97654
22.87734
22.78393
22.68604
22.57982
22.46869
22.35879
22.25588
22.16505
22.09709
22.05382
22.03719
22.04948
22.09251
22.16654
22.27015
22.40173
22.5622
22.75703
23.0003
23.31121
23.70494
24.19779
24.79418
25.47524
26.20897
26.96095
27.67741
28.28173
28.73858
29.02444
29.11405
28.99923
28.68951
28.20844
27.58824
26.86317
26.06439
25.21732
24.34152
23.45225
22.56308
21.68804
20.84331
20.04476
19.29387
18.59559
17.95917
17.38991
16.88897
16.45389
16.0803
15.76337
15.49876
15.28245
15.11134
14.98399
14.90094
14.86178
14.85973
14.89068
14.95017
15.03334
15.1349
15.24923
15.37043
15.49243
15.60915
15.71463
15.8032
15.86959
15.90917
15.918
15.89297
15.8319
15.73357
15.59761
15.42539
15.21901
14.98185
14.71987
14.44045
14.14345
13.83398
13.51812
13.20244
12.8936
12.59802
12.32167
12.06969
11.84616
11.65394
11.49455
11.36801
11.27278
11.20609
11.1645
11.1445
11.14312
11.15847
11.19009
11.23873
11.30534
11.38956
11.48801
11.59456
11.70215
11.80457
11.89826
11.98267
12.05987
12.13561
12.2199
12.32653
12.46373
12.62601
12.79992
12.96801
13.11622
13.23899
13.33829
13.41964
13.49137
13.56434
13.65248
13.77207
13.94307
14.17859
14.45475
14.77157
15.11868
15.48236
15.84799
16.20057
16.52455
16.80477
17.02906
17.19033
17.28717
17.3229
17.30358
17.23544
17.12285
16.96793
16.77165
16.53548
16.26214
15.95589
15.62243
15.26857
14.90178
14.52977
14.16025
13.80064
13.45794
13.13871
12.84891
12.59379
12.37831
12.20758
12.0879
12.028
12.04227
12.15036
12.37076
12.70186
13.14248
13.71681
14.45629
15.39025
16.53675
17.88904
19.4254
21.11761
22.90348
24.6874
26.35488
27.77836
28.84474
29.47961
29.66374
29.44229
28.88593
28.09448
27.17207
26.20315
25.24181
24.31038
23.40345
22.49499
21.55167
20.54916
19.48449
18.37686
17.26418
16.18011
15.15618
14.23666
13.40824
12.67203
12.03162
11.48675
11.0321
10.65991
10.36109
10.12612
9.945127
9.808202
9.705845
9.629346
9.571002
9.524239
9.483692
9.445224
9.405866
9.363715
9.317817
9.268007
9.214721
9.158818
9.101423
9.043799
8.987259
8.933083
8.882469
8.836488
8.796075
8.762025
8.735126
8.71449
8.698212
8.685768
8.676561
8.669924
8.66514
8.661468
8.658167
8.654525
8.649893
8.643708
8.635519
8.624964
8.611705
8.595393
8.575839
8.553012
8.526941
8.497689
8.465346
8.429984
8.391695
8.350427
8.305837
8.257971
8.206864
8.152533
8.09505
8.034567
7.971286
7.90544
7.837286
7.767108
7.695229
7.622009
7.547841
7.473132
7.398297
7.323736
7.24982
7.176886
7.105229
7.035099
6.966706
6.900224
6.835792
6.77353
6.713538
6.6559
6.600682
6.547907
6.49752
6.44929
6.402778
6.357568
6.313498
6.270551
6.228772
6.188216
6.149018
6.111416
6.075626
6.041765
6.009879
5.979989
5.952117
5.92628
5.90249
5.880747
5.861039
5.843333
5.827576
5.813682
5.80153
5.79096
5.781766
5.773705
5.766494
5.759817
5.753332
5.746677
5.739485
5.731391
5.722047
5.711135
5.698402
5.683597
5.666503
5.647023
5.625153
5.600954
5.574552
5.546102
5.515816
5.483921
5.450812
5.417112
5.382871
5.347615
5.31118
5.273345
5.234268
5.193544
5.151871
5.108852
5.066926
5.026871
340.232
246.9398
351.9769
158.6441
124.0601
90.84012
78.60864
68.30796
59.87034
55.79341
54.11744
53.21491
52.39953
51.72995
51.0758
50.49289
49.96731
49.56176
49.28588
49.04153
48.83021
48.71668
48.87252
49.21727
49.6237
50.08287
50.60616
51.18846
51.79854
52.40157
52.81565
51.54283
52.057
52.4444
52.73391
52.91937
53.00231
52.98238
52.86394
52.6547
52.36865
51.99573
51.54212
51.02442
50.45362
49.83329
49.17213
48.48912
47.79206
47.08827
46.38855
45.69477
45.00147
44.30705
43.61196
42.91695
42.22255
41.52998
40.8418
40.16186
39.49482
38.8453
38.21833
37.6209
37.06035
36.54098
36.06592
35.62898
35.27705
34.95381
34.65804
34.38629
34.13801
33.91624
33.72304
33.55503
33.40224
33.24835
33.07405
32.88107
32.6654
32.41252
32.11231
31.76063
31.36081
30.93106
30.47116
29.98451
29.48141
28.97265
28.46935
27.98231
27.52141
27.09512
26.70966
26.36843
26.07157
25.8171
25.60089
25.41664
25.25712
25.11533
24.98515
24.86125
24.7398
24.61819
24.49904
24.38263
24.2705
24.16636
24.07568
24.00001
23.93354
23.86766
23.79117
23.69364
23.57181
23.42706
23.26016
23.07963
22.89925
22.73553
22.60398
22.51683
22.48141
22.49737
22.54839
22.60106
22.62469
22.60504
22.54185
22.44421
22.32599
22.20023
22.07631
21.96268
21.86491
21.78323
21.71841
21.672
21.64537
21.6373
21.64292
21.65546
21.67027
21.68803
21.71643
21.76979
21.86336
22.01116
22.22281
22.49781
22.82582
23.18741
23.55488
23.89172
24.16437
24.34558
24.41286
24.35225
24.16114
23.84832
23.43139
22.93257
22.3741
21.775
21.14966
20.50849
19.85964
19.21097
18.57148
17.95178
17.36433
16.81585
16.30889
15.84859
15.4368
15.07206
14.75086
14.46928
14.22375
14.01076
13.82727
13.67149
13.54301
13.44271
13.36951
13.32099
13.29468
13.28787
13.29762
13.32069
13.35367
13.39292
13.4347
13.47525
13.51085
13.5379
13.55305
13.55323
13.53573
13.49823
13.43886
13.35621
13.24964
13.11912
12.96545
12.79071
12.59902
12.39393
12.17687
11.95219
11.72505
11.5012
11.28666
11.08734
10.90863
10.75501
10.62978
10.5347
10.4697
10.43282
10.42081
10.42996
10.457
10.49956
10.55676
10.62958
10.72026
10.83051
10.95878
11.0988
11.23984
11.37058
11.48213
11.57038
11.63565
11.68161
11.71622
11.7519
11.8042
11.88456
11.99218
12.11714
12.24171
12.34943
12.43375
12.49624
12.53966
12.56681
12.58328
12.59796
12.62226
12.67057
12.75406
12.8744
13.02863
13.21016
13.41035
13.61949
13.82645
14.01826
14.18189
14.30776
14.39085
14.43074
14.43042
14.39468
14.3283
14.23466
14.11538
13.97098
13.80198
13.60959
13.39599
13.16419
12.91786
12.66111
12.39826
12.13385
11.87236
11.61819
11.37566
11.14887
10.94168
10.75728
10.59865
10.46886
10.37159
10.31246
10.29926
10.33957
10.43757
10.59968
10.83868
11.17067
11.61325
12.18208
12.88664
13.73177
14.7157
15.824
17.02367
18.25937
19.4574
20.54781
21.47409
22.19672
22.69867
22.97709
23.04484
22.9277
22.66281
22.29511
21.87005
21.4253
20.98302
20.54873
20.10616
19.63145
19.09725
18.48337
17.77713
16.98425
16.12534
15.23671
14.35916
13.52343
12.75117
12.05561
11.44211
10.91211
10.46332
10.09004
9.784441
9.537544
9.340012
9.182702
9.057022
8.955273
8.870868
8.798393
8.733612
8.673456
8.615919
8.559907
8.505035
8.451451
8.39967
8.350428
8.304568
8.262938
8.226328
8.195413
8.170728
8.15263
8.14128
8.135452
8.133829
8.13534
8.138988
8.143799
8.148823
8.153134
8.155852
8.156167
8.153371
8.146882
8.136255
8.12116
8.101369
8.076802
8.047533
8.013734
7.975647
7.933553
7.887731
7.838461
7.785987
7.730435
7.671993
7.610872
7.547281
7.481438
7.413578
7.343924
7.272672
7.199993
7.126059
7.051076
6.975293
6.899
6.822516
6.74618
6.670325
6.595267
6.521291
6.448649
6.377559
6.308201
6.240724
6.175244
6.111854
6.050622
5.991597
5.934796
5.880193
5.827695
5.777101
5.728104
5.680424
5.633918
5.588503
5.544125
5.500758
5.458492
5.417548
5.37811
5.340243
5.303923
5.269128
5.235859
5.204127
5.173946
5.145329
5.118288
5.092827
5.068939
5.0466
5.025763
5.006357
4.988286
4.97143
4.95564
4.940746
4.926554
4.912854
4.899426
4.886047
4.8725
4.858581
4.844056
4.828474
4.811587
4.793229
4.773299
4.751757
4.728616
4.703934
4.677807
4.650358
4.621744
4.592121
4.561673
4.530801
4.499596
4.467667
4.435042
4.401696
4.367806
4.333484
4.299349
4.267322
302.8717
203.6662
153.7585
137.7734
111.9367
93.80548
80.47805
75.19002
69.30981
65.81684
62.79557
58.82899
54.89641
51.20673
47.85513
44.21239
38.61087
37.3051
36.33795
35.79729
35.63051
35.71668
35.91727
36.17948
36.49524
36.88524
37.3535
37.87292
38.43346
39.03386
39.67483
40.358
41.08621
41.86186
42.68246
43.54674
44.45226
45.39854
46.37103
47.36573
48.48225
49.3683
49.88018
50.2689
50.56163
50.73468
50.78276
50.718
50.54871
50.28949
49.95081
49.54604
49.0804
48.55495
47.97447
47.3476
46.68166
45.99449
45.30792
44.63008
43.9629
43.3067
42.65927
42.01636
41.37567
40.73654
40.09837
39.45922
38.81808
38.17738
37.54234
36.91983
36.31683
35.74155
35.20436
34.71429
34.27634
33.89149
33.5564
33.2657
33.01135
32.78265
32.5681
32.36336
32.17103
31.99335
31.8276
31.66577
31.49666
31.31592
31.11345
30.88031
30.61036
30.29935
29.94651
29.55504
29.13256
28.69446
28.24984
27.808
27.37937
26.97369
26.59948
26.26369
25.9714
25.72474
25.52244
25.36039
25.23273
25.13152
25.04734
24.97103
24.89474
24.8119
24.71759
24.60924
24.48691
24.35378
24.21546
24.07408
23.93337
23.79704
23.66775
23.5461
23.43029
23.31627
23.19939
23.07719
22.95449
22.84362
22.75491
22.70292
22.70211
22.76155
22.88694
23.08179
23.33515
23.60405
23.81961
23.92683
23.91504
23.80795
23.64012
23.4426
23.23789
23.0395
22.86007
22.69748
22.55084
22.42105
22.31032
22.22081
22.15046
22.0902
22.02543
21.9414
21.83042
21.69665
21.55568
21.42787
21.33212
21.28326
21.28863
21.34539
21.44337
21.56605
21.69254
21.79836
21.85957
21.85562
21.77168
21.60069
21.34424
21.01153
20.61676
20.17573
19.70284
19.20941
18.70358
18.19135
17.67818
17.17029
16.67532
16.20208
15.75977
15.35311
14.98368
14.65176
14.3551
14.08987
13.85205
13.63822
13.44506
13.26991
13.11137
12.96926
12.84445
12.7376
12.64763
12.57336
12.51352
12.46662
12.43097
12.40466
12.38559
12.37151
12.36009
12.34893
12.33569
12.31805
12.29382
12.26093
12.21749
12.16182
12.09251
12.00846
11.90902
11.79406
11.66427
11.52155
11.36944
11.20992
11.04618
10.88244
10.72366
10.57528
10.4428
10.33134
10.24523
10.18743
10.15924
10.15992
10.18667
10.2355
10.30253
10.38486
10.48114
10.59236
10.72144
10.87193
11.04562
11.23867
11.43871
11.62757
11.78896
11.91295
11.99814
12.0492
12.07373
12.08321
12.094
12.12552
12.18746
12.28078
12.39711
12.51417
12.60709
12.66761
12.70156
12.71183
12.69638
12.65662
12.60087
12.54307
12.49978
12.4823
12.49289
12.52954
12.58963
12.66967
12.7643
12.86506
12.95995
13.03578
13.0837
13.10035
13.08649
13.04558
12.98222
12.90081
12.80424
12.69341
12.56785
12.42702
12.2712
12.1016
11.91997
11.72846
11.52957
11.32613
11.12089
10.91669
10.71639
10.52276
10.33849
10.16623
10.00833
9.866636
9.742515
9.637378
9.553472
9.494266
9.464017
9.467057
9.508559
9.595737
9.737753
9.945007
10.22825
10.597
11.05952
11.62122
12.28238
13.03402
13.85411
14.70852
15.55546
16.35256
17.06428
17.66182
18.13827
18.49231
18.72657
18.84671
18.86362
18.79489
18.66408
18.49733
18.31996
18.14454
17.97644
17.8102
17.63392
17.42564
17.15912
16.80506
16.33751
15.75271
15.06881
14.32349
13.56201
12.82249
12.13099
11.50396
10.94905
10.46771
10.05796
9.714397
9.42969
9.195629
9.003918
8.846736
8.717007
8.608596
8.516473
8.436752
8.36659
8.304032
8.247848
8.19738
8.152384
8.112892
8.079089
8.051209
8.029465
8.013988
8.004788
8.001737
8.004411
8.011404
8.021295
8.032831
8.044853
8.056272
8.066055
8.073235
8.076915
8.076296
8.070719
8.059683
8.042848
8.020024
7.991174
7.956412
7.915977
7.870199
7.819481
7.764257
7.704965
7.642029
7.575816
7.506688
7.434997
7.361078
7.285268
7.207904
7.12929
7.049655
6.969167
6.887972
6.806235
6.724164
6.642001
6.560015
6.478497
6.397736
6.317999
6.23952
6.162506
6.087138
6.013567
5.941914
5.872278
5.804733
5.73933
5.676101
5.615043
5.556107
5.499183
5.444099
5.390639
5.338618
5.287919
5.238449
5.19012
5.142842
5.096626
5.051644
5.008074
4.966003
4.925411
4.886258
4.848515
4.812169
4.777217
4.743659
4.711502
4.680754
4.651419
4.623493
4.596953
4.571764
4.547872
4.525209
4.503688
4.483206
4.463643
4.444863
4.42672
4.409062
4.391735
4.374583
4.357456
4.339972
4.321867
4.302964
4.283133
4.262285
4.240379
4.217406
4.193394
4.168392
4.142473
4.11572
4.088235
4.060142
4.031646
4.003035
3.974069
3.94477
3.9152
3.885506
3.855933
3.828439
147.4341
109.4534
169.3685
84.42267
72.74428
62.94506
60.03756
57.95944
55.60032
54.68013
53.42497
51.54437
49.74564
47.80361
45.49684
40.99886
39.91087
38.8836
37.89505
36.95028
36.00876
35.11543
34.32125
33.65422
33.13286
32.75892
32.45481
32.15376
32.01895
32.07477
32.30558
32.66415
33.09519
33.57289
34.11357
34.70069
35.32518
35.98345
36.67485
37.39956
38.15979
38.95799
39.79526
40.68037
41.63039
42.62538
43.6458
44.69898
45.67051
46.50778
47.22324
47.77691
48.11095
48.29429
48.3191
48.19901
47.95614
47.61886
47.20807
46.74448
46.2412
45.70702
45.14822
44.56885
43.98345
43.41083
42.85508
42.32762
41.82282
41.33682
40.86637
40.40582
39.94486
39.47487
38.99222
38.49703
37.99047
37.47178
36.94064
36.4009
35.86148
35.33347
34.82838
34.36046
33.94651
33.59987
33.32477
33.11634
32.9628
32.84708
32.74878
32.6446
32.51611
32.35791
32.17216
31.95951
31.72046
31.46452
31.20851
30.94272
30.65817
30.35069
30.01842
29.66018
29.27612
28.86899
28.44492
28.01465
27.5968
27.20561
26.85141
26.54242
26.28414
26.07939
25.92788
25.82529
25.76398
25.73475
25.72712
25.72891
25.72782
25.71369
25.67887
25.61787
25.52856
25.41424
25.28585
25.14927
24.9961
24.82569
24.64172
24.45098
24.26178
24.082
23.91743
23.77119
23.64458
23.53947
23.46184
23.43195
23.4702
23.59387
23.81372
24.12698
24.53481
25.04692
25.63532
26.196
26.5903
26.73537
26.65063
26.41358
26.09636
25.74948
25.40431
25.08122
24.78943
24.51695
24.26446
24.03729
23.84003
23.67636
23.54369
23.42594
23.2955
23.12198
22.88402
22.5824
22.23978
21.88815
21.55701
21.26986
21.04178
20.87601
20.76576
20.69788
20.65482
20.61689
20.56401
20.47829
20.34535
20.15641
19.90941
19.60856
19.26272
18.88301
18.4803
18.06361
17.63971
17.21377
16.79044
16.37477
15.97268
15.59064
15.235
14.91093
14.61919
14.35762
14.12245
13.90911
13.71326
13.53109
13.35944
13.19637
13.0412
12.8944
12.75728
12.63036
12.51345
12.40642
12.30903
12.22088
12.14137
12.06962
12.00455
11.94494
11.88948
11.83672
11.78521
11.73344
11.67992
11.62321
11.56191
11.49476
11.42063
11.33858
11.24794
11.14844
11.0404
10.92495
10.80453
10.68224
10.56083
10.44417
10.33681
10.24378
10.17017
10.12068
10.09912
10.1077
10.14689
10.21497
10.30809
10.42164
10.55193
10.69714
10.85751
11.0357
11.23615
11.46224
11.71335
11.97974
12.23905
12.46611
12.64282
12.76296
12.83373
12.86852
12.87978
12.88192
12.89557
12.94158
13.02288
13.13441
13.26297
13.37731
13.44765
13.47513
13.47534
13.44947
13.38768
13.28592
13.15147
13.00346
12.86856
12.76129
12.6799
12.62071
12.58393
12.57025
12.5775
12.59752
12.61605
12.61832
12.59598
12.54859
12.47978
12.39448
12.2977
12.19369
12.08477
11.97079
11.84992
11.72052
11.58225
11.43566
11.28194
11.12241
10.95864
10.7924
10.62539
10.45936
10.29603
10.13693
9.983542
9.8376
9.701011
9.575354
9.461343
9.359104
9.26908
9.19273
9.132544
9.091612
9.073662
9.083591
9.127482
9.212163
9.344784
9.532383
9.78145
10.09737
10.48313
10.93743
11.4532
12.01666
12.60718
13.19841
13.76368
14.28219
14.74012
15.12946
15.4467
15.69061
15.86215
15.96689
16.01458
16.01761
15.9903
15.94682
15.89929
15.85739
15.82855
15.81462
15.80992
15.79943
15.75521
15.6434
15.43005
15.09267
14.62897
14.06013
13.4253
12.76969
12.13155
11.53568
10.99613
10.51924
10.10531
9.751767
9.453577
9.204279
8.996977
8.824944
8.682065
8.563095
8.463714
8.380466
8.310679
8.252368
8.204102
8.164873
8.133958
8.110817
8.094992
8.086043
8.083489
8.086778
8.09534
8.108135
8.123499
8.139979
8.156283
8.171245
8.183805
8.192991
8.197911
8.19776
8.19186
8.179695
8.160918
8.135343
8.10293
8.063772
8.018085
7.966205
7.908569
7.845678
7.778054
7.70622
7.63068
7.551925
7.470422
7.386609
7.300925
7.21382
7.125697
7.03685
6.947475
6.857727
6.767785
6.677856
6.588162
6.498933
6.410427
6.322913
6.236618
6.151734
6.068428
5.986851
5.90713
5.829373
5.753668
5.68008
5.608659
5.53943
5.472389
5.407488
5.344627
5.283667
5.224464
5.16689
5.110843
5.056233
5.002964
4.950926
4.900073
4.850512
4.802405
4.755867
4.710907
4.667488
4.625551
4.585044
4.545931
4.508192
4.471817
4.436807
4.403166
4.370896
4.339986
4.310412
4.282135
4.25511
4.229278
4.204569
4.1809
4.158174
4.136284
4.115116
4.094551
4.074465
4.05473
4.035143
4.015406
3.995355
3.974857
3.953807
3.932136
3.909802
3.886789
3.863106
3.838779
3.81385
3.788371
3.762411
3.73606
3.709453
3.682846
3.656147
3.629336
3.602518
3.575869
3.551321
60.76436
44.28647
43.78436
42.01058
41.35174
40.42963
39.71298
39.07951
38.52857
37.53758
34.97542
34.8377
34.69315
34.545
34.35975
34.12965
33.89321
33.68461
33.51656
33.37628
33.12968
32.65123
32.18279
31.73043
31.30312
30.90455
30.555
30.27171
30.05956
29.91815
29.84181
29.82144
29.87066
30.01504
30.26376
30.61091
31.03053
31.49391
32.01886
32.59135
33.20258
33.85415
34.54758
35.28273
36.05681
36.87653
37.75417
38.67968
39.65487
40.72327
41.80491
42.77367
43.6376
44.34862
44.87975
45.22096
45.36053
45.30349
45.08233
44.72238
44.25945
43.73117
43.17109
42.60633
42.0567
41.53732
41.0575
40.63463
40.27554
39.97629
39.73172
39.52849
39.34466
39.16504
38.98125
38.78695
38.57436
38.33077
38.04533
37.71743
37.3556
36.96935
36.56363
36.14341
35.72061
35.3118
34.93362
34.60424
34.34727
34.18662
34.13365
34.17997
34.30147
34.46366
34.62641
34.75191
34.80114
34.75258
34.6099
34.37557
34.03829
33.59408
33.0876
32.57051
32.05516
31.54775
31.05186
30.56956
30.09998
29.64033
29.18897
28.74794
28.32532
27.94191
27.62248
27.37348
27.19614
27.08768
27.04214
27.04913
27.09408
27.16211
27.24024
27.31502
27.37191
27.3992
27.38963
27.33824
27.24374
27.11388
26.97298
26.83417
26.68358
26.5108
26.30559
26.06833
25.81135
25.55317
25.3123
25.10355
24.93762
24.82225
24.76491
24.77606
24.87773
25.10464
25.47803
25.9977
26.63971
27.41456
28.35563
29.38824
30.29826
30.86353
30.99865
30.80537
30.44823
30.01801
29.56252
29.11153
28.70397
28.32605
27.95634
27.59614
27.25619
26.93676
26.64336
26.37865
26.10818
25.784
25.38879
24.89974
24.31818
23.68096
23.03472
22.42024
21.87034
21.40292
21.02145
20.71879
20.48093
20.28969
20.12548
19.96935
19.80405
19.61541
19.394
19.13585
18.84232
18.51889
18.17334
17.814
17.44832
17.08233
16.72094
16.36857
16.02953
15.70819
15.40866
15.13436
14.88748
14.66809
14.47196
14.29382
14.12832
13.97071
13.81703
13.66441
13.51167
13.35907
13.20799
13.05958
12.91394
12.77193
12.63448
12.50246
12.37653
12.25702
12.14393
12.03689
11.9353
11.8385
11.74578
11.65629
11.56918
11.4835
11.39833
11.31282
11.22616
11.13759
11.04653
10.95256
10.85559
10.75602
10.65489
10.55421
10.45724
10.36722
10.28796
10.22391
10.17987
10.1605
10.17012
10.21207
10.28805
10.39771
10.53797
10.70346
10.88808
11.08784
11.3022
11.53259
11.78336
12.05886
12.35981
12.67989
13.00064
13.29191
13.52673
13.69242
13.78731
13.82932
13.84637
13.85847
13.88159
13.93702
14.03478
14.16628
14.30611
14.4325
14.51573
14.52952
14.49531
14.44627
14.37969
14.2745
14.11716
13.91271
13.68451
13.4694
13.28688
13.13012
12.99376
12.87974
12.79108
12.72875
12.68531
12.64222
12.58069
12.49417
12.38754
12.26785
12.14105
12.01222
11.88523
11.7616
11.64009
11.5178
11.39238
11.26317
11.13037
10.99452
10.85635
10.71693
10.5773
10.43827
10.30067
10.16539
10.03294
9.903635
9.778341
9.658814
9.547042
9.44389
9.348701
9.260348
9.178585
9.10446
9.039991
8.988119
8.952947
8.93949
8.953058
8.998767
9.08145
9.205697
9.375646
9.594386
9.863018
10.17964
10.5385
10.92943
11.33838
11.74927
12.14595
12.51414
12.84398
13.13048
13.37074
13.56397
13.71205
13.81877
13.88969
13.93253
13.95657
13.97144
13.98653
14.01009
14.04799
14.10423
14.18074
14.27411
14.37303
14.45595
14.49439
14.4543
14.30441
14.029
13.63458
13.14833
12.60956
12.0578
11.52468
11.02987
10.58336
10.18932
9.847381
9.554593
9.306797
9.098882
8.925591
8.782003
8.663766
8.567155
8.48906
8.426934
8.378689
8.342605
8.317225
8.30127
8.293564
8.292978
8.298396
8.308702
8.322954
8.339364
8.35634
8.372515
8.386712
8.397916
8.405239
8.407881
8.405141
8.396428
8.381278
8.35937
8.33052
8.294669
8.251856
8.202207
8.14595
8.083433
8.015122
7.941523
7.86317
7.780621
7.694426
7.605127
7.513231
7.41925
7.323714
7.227106
7.129812
7.032085
6.934114
6.836113
6.738321
6.640961
6.544226
6.44834
6.353557
6.260085
6.168086
6.077703
5.989065
5.902288
5.817476
5.734722
5.654103
5.575675
5.499476
5.425516
5.353763
5.284148
5.216575
5.15095
5.08719
5.025215
4.964941
4.906265
4.849075
4.793316
4.739055
4.686429
4.635539
4.586391
4.538913
4.493012
4.448614
4.405666
4.364131
4.323985
4.285221
4.247845
4.211875
4.177326
4.144154
4.112314
4.081765
4.052461
4.024354
3.997379
3.971461
3.946514
3.922447
3.899158
3.876543
3.854494
3.832895
3.811492
3.790127
3.768672
3.747021
3.725094
3.702833
3.6802
3.657176
3.633762
3.609968
3.58582
3.561354
3.536619
3.511686
3.486652
3.461712
3.436833
3.412016
3.387423
3.364956
84.31714
34.77489
29.73992
28.75755
28.24894
28.05185
28.1044
28.29164
28.57661
28.93214
29.22077
29.30881
29.38046
29.42686
29.44998
29.44635
29.42659
29.3948
29.34128
29.2474
29.09182
28.88924
28.69398
28.5132
28.35354
28.22246
28.12563
28.07009
28.0546
28.07596
28.13253
28.22705
28.36676
28.55789
28.80583
29.10895
29.45595
29.88324
30.38266
30.94461
31.56755
32.25446
33.00885
33.82799
34.68768
35.60093
36.62005
37.68315
38.74795
39.78033
40.72143
41.50833
42.10978
42.49676
42.65552
42.58729
42.30794
41.85528
41.2574
40.57671
39.87482
39.21087
38.6235
38.14346
37.78748
37.57671
37.51239
37.57787
37.75016
37.99281
38.26104
38.525
38.75533
38.93544
39.05129
39.10191
39.08864
39.00081
38.83261
38.59652
38.31502
38.00678
37.68169
37.35539
37.05309
36.79991
36.62109
36.54952
36.63458
36.91183
37.36141
37.91718
38.50096
39.0425
39.47249
39.76321
39.87337
39.79503
39.56632
39.18896
38.61857