/*--------------------------------*- C++ -*----------------------------------*\
| =========                 |                                                 |
| \\      /  F ield         | foam-extend: Open Source CFD                    |
|  \\    /   O peration     | Version:     3.1                                |
|   \\  /    A nd           | Web:         http://www.extend-project.de       |
|    \\/     M anipulation  |                                                 |
\*---------------------------------------------------------------------------*/
FoamFile
{
    version     2.0;
    format      ascii;
    class       volScalarField;
    location    "7.5";
    object      omega;
}
// * * * * * * * * * * * * * * * * * * * * * * * * * * * * * * * * * * * * * //

dimensions      [0 0 -1 0 0 0 0];

internalField   nonuniform List<scalar> 
119952
(
33205.08
33482.15
33946.48
33863.53
33764.86
33705.41
32618.99
32845.2
38174.27
32708.11
32662.86
32623.77
32479.08
32471.63
32660.94
32369.62
33056.26
32004.84
31885.99
31465.21
84816.74
34318.84
34386.67
71264.54
34026.57
34183.14
34009.31
33989.9
33680.12
34133.39
91671.25
52902.83
34243.22
34174.09
53717.96
47929.65
42887.75
33785.13
33707.16
32873.5
11895.5
4.630399e+08
5607815
20.16694
10364.92
12105.07
0.09411063
2.389361e-08
3271864
2.131255e+08
12101.68
16384
12288
12160
7961.681
3.405804e+12
8.913005e+09
12288
3.817643e+25
4.31328e+12
3779.252
2.037536e+11
2.832085e+10
3.844413e+10
4.892903e+15
1.478666e+09
2689.265
12061.73
3402068
1142906
4169.447
3228.12
5.073521e+07
12101.45
133517.8
901021.6
12393.14
10730.84
11907.75
4655.603
12101.38
8647.314
6155.449
5211.098
12101.45
12101.38
12102
714067.6
61875.35
12160
4561.175
141574.6
0.7438011
4004.178
6069.499
6109.577
5865.394
182368.9
11821.62
12096
4722463
1.711987e+15
44239.34
3.322704e+15
1.34006e+22
12092.66
12147.92
715.9516
214990
58155.5
1.906531e+08
31174.81
9648806
18141.7
4.828595e+08
1344.604
12104
83394.53
839465.4
2.913887e+17
5.691935e+10
5.738204e+10
3.976822e+07
1.246346e+12
1.618489e+16
2.455245e+09
3.024844e+12
12149.71
1.842782e+09
12101.75
1.009959e+08
1.559832e+08
11138.87
12101.56
27385.51
1.285574e+09
1.29111e+09
11904
12152
3.27957e+12
5.532698e+14
6.810035e+13
16854.02
18500.76
1.845049e+13
2.068667e+15
4.698688e+09
4.854815e+07
12321.19
5095.563
1.645856e+09
21170
7.092725e+10
4.919639e+11
3.721643e+14
3.721643e+14
1.022155e+56
3.16489e+21
12486
1898.222
12040
2.622153e+10
3.212729e+10
4.671067e+11
1.442724e+13
2.993229e+12
687940.7
55125.56
7.143673e+07
1052708
4790.572
5676.062
4086.936
5997.199
403699.4
12101.56
11960.77
7.388614e+17
2.052685e+16
12101.44
1.588653e+11
4.083846e+09
138784.9
11708.74
203322.5
2573.632
1.544816e+08
12104
1.608668e+10
12101
12160
1.97349e+07
242726.5
3.015981e+07
12101.67
26434.56
8.186867e+17
3.116438e+11
61283.86
8449.611
21762.8
6.372888e+12
12101.67
1.33659e+10
12145.53
3.937706e+14
12101.67
311.6148
2.882779e+10
87629.92
1.693207e+07
5041.698
12100.75
120384.7
13631.94
12104
12122.44
12102.94
46.54304
5.147828e+08
4792781
12100.8
12014.88
12032
4750.946
1.558429e+08
926615.3
1.045194e+08
7.092559e+15
12091.88
9.02771e+09
1089410
17.65001
4.768213e+08
1.853316e+09
1.881536e+15
7748.408
0.002055355
23.67194
1224.268
4701319
12119.93
12288
12101.71
12102.82
47.80584
12011.39
0.3861448
12099.5
1.143062e+08
2246486
962511.1
2.836537e+11
19969.1
0.232596
443948.4
46320.25
12090.02
16384
6.108398e+10
3462.101
3.288152e+08
1.449505e+13
7.706659e+14
3444.496
3306.779
12544
11547
1.821596e+07
1.065462e+07
2.392359e+09
1.576773e+09
10890.69
11371.49
7847.678
4140.616
6557.736
272994.5
6331.904
4036.27
12099.01
10576.66
8124.579
1975.905
3.618014e+07
16384
1594245
11331.98
1.320624e+10
1.263222e+07
64136.8
6.81563e+12
1.310455e+10
2.487189e+15
5.921729e+13
5217.268
1.255449e+10
6.354249e+07
74226.68
48081.48
403714.6
3321.799
160.929
6067.61
12101.39
11794.12
8743286
8791577
6299.743
24813.65
8496019
2.181412e+13
1854.262
1.876268e+08
98.63473
20489.98
8.792317e+13
12096
12102
3417.609
19156.3
2.098208e+12
2.121768e+12
1.570373e+07
6.244049e+07
1.324855e+10
2063775
5.441644e+13
4.003023e+09
2000585
7.604897e+11
12118.54
53809.74
11136
859672
1.160888e+28
1.893764e+13
2.946148e+14
12097.68
6241.638
398073.5
4029.795
3119.729
1.728484e+08
12082.41
12101.64
1.239775e+07
4.920015e+09
241458.4
3.620231e+07
2.409429e+09
99336.48
2.893886e+11
2.104061e+09
1.590746e+08
6.857292e+11
1.775015e+18
2.766259e+08
14001.2
2.720797e+09
3713430
12094.27
12123.02
8580.472
10029.15
187196.2
1.061319e+10
3501.63
4730537
4.178608e+07
1.605427e+08
12096
2.298967e+09
1209736
8214934
12697
12100
1.148058e+17
1.085396e+14
1.612205e+10
1.81836e+10
3.003495e+14
1.034796e+12
12073.12
12032
2242.013
8931.326
8.4467e+21
1.512434e+27
1.024819e+18
1.090134e+13
12095.38
12101.05
1159780
11863.57
32613.28
12102.09
8.175347e+07
2974.789
20446.56
2850.37
2948.798
11822.9
1.996267e+11
1.996267e+11
6.797344e+10
33132.98
33443.29
64677.14
58967.51
52607.73
47489.58
39861.59
33987.54
33981.47
10264.26
10817.49
3202.437
1.020522e+13
1.288418e+09
3.014862e+13
4.081659e+20
157520.6
9.115809e+08
16384
4283.446
1516310
1.281602e+07
2423.105
7018.291
13303.71
3365882
1.419696e+11
7.382703e+10
12112
6.642687e+11
6.453725e+19
1.181814e+15
2009.481
12100
1.084908e+18
7.664671e+17
2.787777e+09
1.205723e+14
5.166987e+10
897494.1
17554.72
12077.14
12101.45
24588.68
6185.695
19890.99
12083.03
4336851
459551.8
6.398582e+07
6.396996e+07
2030.674
11104.25
12798.3
4673835
12061.15
7.491531e+08
6.678666e+09
8.837304e+09
12157.44
12130.23
12109.73
11390.62
12150.9
66903.04
876579.6
4484626
12101.47
686.7974
12099.31
12096
12288
2.368217e+10
1.020131e+10
12172.86
13022.11
12113.68
12101.45
12101.45
12101
12096
12101
12073.69
4559.456
1372.929
12101.44
12101.45
14877.63
12105.56
1.031159e+07
12106.2
12112
12288
12128
12112.44
12116.14
7.667895e+09
12032
12120
3.507235e+08
12107.56
238752.5
12101.24
12096.17
12101.11
13231.62
59604.99
2.900596e+14
6.25448e+14
1.569776e+14
2.574773e+08
1.822452e+09
12107.78
12096
12160
12096
422971
9199.534
2422.249
5847.762
1958.72
12101
12101.5
12101.43
3653.542
2.84358e+07
12101
6.763553e+09
7.519774e+08
4.687359e+11
4.113798e+14
3.229112e+08
12101
12101.38
12288
1.759531e+08
116313.3
12101.57
12094.88
12104.38
12101.12
12101.41
1.833672e+07
1404480
1.257933e+07
12160
6.124863e+11
5.260379e+10
12096
12288
2.074099e+08
1.866367e+09
19914.88
344151.4
10185.71
25322.67
12288
8192
11264
4.889853e+16
5.433219e+15
6.232725e+24
1.199733e+17
1.079759e+18
4.786782e+29
11648
12288
12160
2.638473e+12
1.869592e+18
1.142169e+17
1.399256e+16
1.30609e+13
7.55733e+10
1.278728e+09
5018973
93241.15
3705.881
4066.795
5821.129
4092.86
7395.191
12100.79
8.531244e+08
11982.71
718104.3
1.532295e+14
3.963295e+12
18224.84
12101.45
12101.44
1393.717
12093.85
12101.47
6666978
12262.22
12101.24
12101.22
9077.611
12100
5376.517
12094.91
703820.8
6270698
3163665
6459.466
2101948
342878.1
12101.45
11922.02
12101.5
4.44151e+07
1.014712e+09
41092.66
12101.9
12101.75
786.3298
5.089828e+11
1342.151
2709.04
2687.954
12101.45
12101.45
0.05210793
12101.45
12091.49
2.161415
5.947633e+09
1.405434e+07
15114.85
1.896419e+09
1.313935e+07
12101.45
12100.11
12096.03
4.9502e+07
29959.73
1.055012e+10
1.390118e+08
2.195441e+07
2.129108e+16
3.145315e+13
2.72498e+21
12101.72
12092.88
12101.5
12101.45
8601.408
4616.633
1.560246e+07
11559.04
11888.64
12101.45
3.268451e+07
2352.053
12095.03
12101.45
12101.45
12101.45
7840.023
12172.17
482341.1
6059.105
1330.326
38779.04
12101.44
12180.64
312.8889
2.884609e+32
80962.14
1e-15
1e-15
2389.333
12032
1.174846e+10
16041.15
2894.986
12096.08
12101.44
5089.688
12077.58
11236.14
5272.893
4716.101
4135.293
12100.77
12095.73
12117.09
11945.66
6582.348
3017.338
12095.85
12101.5
2.431707e+12
12120.34
306990.5
12432.63
6.499866e+08
1.852165e+12
12857.99
1.027936e+10
1.634733e+16
1.81637e+15
12288
2.340079e+07
2.818938e+10
12459.56
12190.07
189890.2
3.060436e+10
12120
1.157529e+14
63114.67
12119.29
12119.32
12118.91
1.094462e+14
1.944023e+09
19271.9
12116.62
140168.4
12114.76
7.807594e+09
1.028079e+17
1201885
5.095507e+09
12100.63
12101.48
12101.13
12101.38
12099.29
12101.21
12099.27
12101.45
16084.31
1027127
12099.97
12102.53
12093.29
1.228262e+10
12288
1.077053e+17
9.676078e+17
56300.84
3.019796e+08
2893.434
38.5062
2567.353
12101.45
12043.07
2525.835
811.998
11929.12
9834.815
12074.48
12099.2
1117888
8.296424e+12
3.678016e+10
12032.74
12101.42
12101.44
12101.39
3932413
12092.16
12008.19
11408.76
12101.48
12101.21
12101.67
12092.71
11539.8
2366.743
2.194684e+11
1.58269e+09
6.798194e+09
3.670143e+11
2563.645
6941.34
12101.4
9919.21
873.1993
12101.48
16436.59
102120.5
3287.304
12101.35
12102.24
3968
1.65845e+08
7.024076e+10
1344.606
1641.141
1344.273
3.717244e+11
3.218135e+12
3.150316e+08
9.869136e+10
12100
12102.38
12101.41
7432.443
283484.9
12101.46
12101.44
11366
12063.36
11158.63
6667.677
1479.748
3.56662e+11
6783.069
16335.99
34152.36
34683.05
34629.5
34223.22
33791.55
33292.78
32908.57
32488.71
32230.88
31703.91
12032
12107.5
5.50344e+09
12106.17
12325.66
12024.26
12388.5
12083.46
12008.83
6.891961e+08
12068.55
12101.45
10887.35
12101.47
16665.14
3945.169
12240.9
4299.137
3737.402
2117.729
2.675827e+13
2.675854e+13
4.178659e+17
13297.44
5.676906e+07
382161.7
8.209715e+11
42035.88
12103
7.401729e+12
7.388552e+12
8.177354e+17
3.04065e+12
11776
149837.4
12710.32
6.406953e+17
7.578796e+11
3523247
286802.6
1.285809e+07
4.992234e+12
8.85093e+23
5.325234e+18
5.217724e+14
2.76139e+11
12096
9458.572
12101.13
6289.915
5800.227
12101.43
812878.5
14509.12
7241218
12102
12104
16384
2.516433e+11
9.241104e+14
2.131133e+07
6331296
1.321599e+17
4.587656e+19
6.160878e+13
2.088534e+10
4.68333e+07
2840.187
5160.152
12101.5
12101.44
1766.879
12101.5
12101
12101.38
5.836968e+08
11149.15
14175.43
12100
12096
12104
12102
12096
12032
12101.25
14893.71
12096
12101.45
12101.45
12101.33
10809.91
12101.44
12101.45
12101.43
12099.88
3252292
18247.33
11179.69
28650.57
8420875
12101.5
12101.45
12101.45
12101.43
12099.52
163250.2
4.038521e+07
4.542855e+09
5.371363e+10
2.890021e+08
3123057
45073.07
4575.913
40297.35
348203.1
12101.31
12101.45
12080
12101.44
69106.18
5.98056e+07
6.52663e+08
12332.4
12101.38
8.519926e+08
14336
12128
12101.25
12101.45
12101.45
12101.55
12097.7
12101.65
12101.45
12089.88
3.917072e+07
2.078504e+14
1.412798e+15
4.947116e+08
12102
12101.45
13598.07
1502107
2.812731e+10
2.954661e+08
4191239
63767.25
4910.356
4047.007
338427.8
12336.21
14426.74
9045.794
4236.562
454647
11755.45
12101.24
1492812
3.702418e+15
2.64282e+13
4.942049e+10
1.454129e+09
1.526079e+12
1.583403e+09
12126.46
12100.77
11928.02
12101.18
12078.71
11873.14
12101.45
56962.12
2.329779e+09
5887813
12101.45
11147.67
7.230402e+08
1.50742e+11
254743.9
12101.45
12101.45
12101.44
12081.88
9732.641
1115693
4.019582e+13
6.324439e+12
5.433873e+15
811.946
6.381831e+07
7.617613e+13
1.199754e+17
1.305912e+07
98085.42
2804.798
1351.114
2.931642e+11
12102.89
1.484759e+11
3.845265e+09
8.608326e+07
2162950
41713.64
6039.688
10300.89
666.0313
5980.826
6026.288
5975.855
541768.3
2.945195e+08
1.85069e+18
4.043674e+11
6067.473
4920.996
3185.859
181113.2
1815939
572.9105
593.8787
3943.748
2894.933
9325.839
13364.34
84.20447
12101.49
12101.57
670539
12101.17
0.01173784
647747.3
145.3228
533.907
228.3314
12101.39
12101.44
12101.4
12101.45
12101.91
3815.55
1.147477e+07
9812.883
16384
2.647267e+10
12096
12800
7680
3568.009
12100.53
12097.68
2.630028e+09
12089.19
2.208162e+12
1.642961e+10
2310384
2.387218e+10
3096490
2099637
1.258737e+07
12101.44
12101.44
3944.874
12101.47
12101.43
12101.47
1491552
215067.6
1923250
1.573324e+13
1.998438e+19
2.173438e+13
1.623427e+10
3.984298e+12
1362543
12038.41
2096494
12101.46
12101.45
4918.097
12101.44
12096
6.469536e+09
8781.056
11833.95
37967.31
12288
12032
12101
12101.45
12101.45
12101.2
1.393132e+08
7.042098e+07
9.544372e+08
5165208
1e-15
1080.889
9728
5.196109e+15
7.301987e+13
1.032211e+12
1.163396e+10
1.644013e+08
1785121
283.6562
7246.021
7290.43
6068.233
6055.977
6050.879
6047.51
5843.344
10990.55
3563.428
12099.57
14202.55
6150.436
4124.251
288.2022
66.0922
64.68993
2.181442e+10
12101.47
12101.45
12101.48
12099.65
11071.85
14853.13
1.142154e+09
1.81637e+15
1048576
120562.4
12101.5
12101.45
12101.45
12101.44
12101.45
12101.5
12100
12288
12101.5
12101.44
12101.45
12101.38
11264
12105.37
12103.12
12100
12101.45
12101.45
12098.18
11832.12
12101.46
16384
12642.88
14536.74
7.345233e+07
23237.86
734.5272
13257.97
11987.11
85011.69
1305172
9207886
7948305
6.244444e+07
1.629735e+07
12110.89
8.540107e+09
8470106
133769.3
7125153
200210.1
7971.747
374.3926
1259.022
36.33154
380.394
5843.602
11456.24
7353.901
1992.923
57.05356
2.271032
1760.016
255.6916
49.81569
10864.05
187.6357
58.21656
9.661743
0.1311331
167.8141
33.29741
12070.06
12866.82
1006.093
4948.797
4068.515
6010.266
5391.535
11849.16
7.445971e+09
2.034338e+08
12102.54
12101.33
28277.43
11848.35
6069.602
188.0324
255.64
589.5647
4513.532
6000.936
7206.034
12101.7
1.223944e+09
5.158115e+11
12336.8
12101.45
12101.44
12098.46
12101.41
2.893608e+07
2.266259e+12
1.548994e+11
1.876233e+10
15724.45
12115.68
11044.47
21216.56
12178.58
14656.72
11087.62
4788.813
12090.25
7517.043
4224.432
2808.129
3892.615
5703.766
33172.09
34423.94
3277398
4370.345
3.639811e+11
2.827322e+09
3.772973e+12
206474.2
12500.49
1.014949e+13
2.506168e+11
1.25924e+10
2537681
9969984
6420.738
552162
132.071
12094.5
44946.92
6.786358e+09
13366.47
1.230608e+08
12128
12118.7
1660.132
8436.987
9844.029
3416.31
6064.344
10584.83
12101.45
12101.75
12101.45
12101.45
12065.49
12101.45
12101.45
12101.45
907.4758
846.5185
2110007
1.46638e+11
12101.56
6.919979e+11
1.179618e+12
2.733808e+08
80673.81
2.207275e+07
12097.29
12105.7
7788535
8.310175e+11
5.995237e+12
2.401992e+16
1.404046e+21
1.263642e+22
7.56288e+24
2.961281e+25
2.589524e+26
1.62893e+19
1.149939e+14
12163.5
9.532497e+07
4.864494e+13
1.541321e+16
1.07574e+14
2.583998e+10
10495.86
157883.2
54881.56
2187.25
6001.057
8821.907
12101.45
12101.5
2078828
8961654
5.00437e+07
1.547773e+09
2.204688e+09
2.264784e+12
8.316994e+15
1.854666e+08
3.498971e+08
3589511
42744.82
5080.631
11246.57
5238.815
4072.366
11590.02
3.038115e+09
3.925925e+08
5329781
6.538537e+08
5.699315e+09
5.976476e+08
6988360
13363.17
36880.8
1.544772e+09
2.597107e+11
3.110029e+10
1.251375e+10
1.087888e+11
4.266107e+11
6.142943e+10
288064.1
12101.45
12101.45
12101.43
12100.05
12052.18
12100.56
12101.45
12101.27
12089.68
11403.75
4881.743
4053.3
11143.75
5559.903
12101.37
12098.78
11966.21
7797.91
4175.946
4037.052
4076.247
8806.152
60516.07
5082.313
4050.94
4033.961
4033.028
4033.504
4034.138
4195.007
11278.54
12101.45
12101.35
12091.37
11222.86
5361.903
4292.201
12101.24
12101.38
12101.45
12101.45
12101.42
12099.97
11988.24
9278.221
3498.824
10934.11
11997.71
8006.364
3532.673
2.449522e+08
1.669095e+09
1.447353e+07
12101.73
12100.85
12061.46
9911.963
32168.7
4768.073
4048.818
4034.1
4033.828
4033.813
4034.174
4118.413
4025.314
606.9384
2926.813
3023.256
3025.037
3408.704
8179.337
4.359085e+09
7.826026e+07
1346990
27316.51
1800019
35272.16
8079.552
3372.287
3035.581
4187.329
4040.142
4033.255
11639.14
6063.233
5879.694
3917.448
12017.42
8349.51
4559.534
180029.3
6237.169
12099.71
12048.04
10436.58
3741.729
1756.412
4065.857
4.210162e+07
7304891
121819.4
7307.514
5.743648e+08
6.855852e+14
1.900164e+13
1.175321e+08
871120.8
12955.18
0.0245454
4904253
12101.46
2.068824e+09
3.424614e+07
574014.4
14866.27
4207.57
4060.64
4132.287
4035.839
4067.108
4039.984
4033.498
4035.277
6265.674
2013.349
2364.176
3017.194
3012.494
3024.738
3105
6012.785
5930.409
3877.034
8172.385
7473.664
2009.444
10481.23
12093.31
12101.37
12092.59
0.4644283
1230.082
89350.7
5829581
18486.98
4431.509
329.2207
375.1276
12101.43
12100.99
12082.81
220893.2
22238.03
27290.46
2.882606e+08
3.079497e+10
7.498098e+09
2.707883e+12
5.029587e+13
4367.32
5037.736
12101.44
12101.45
11264
12101.25
1.987346e+13
1.478548e+11
289419.9
11891.22
10236.66
207416
9489.645
11556.7
11197.88
3162.274
180424.9
85936.06
4282997
62455.11
11710.66
145353.9
1.672502e+11
12032
2.29765e+18
7.952849e+21
7.157335e+22
8.864823e+17
6.906705e+07
1.881136e+07
12731.26
57.41758
12101.48
1.735504e+12
3.844336e+11
12101.44
12100.72
12101.31
12101.44
12095.11
12043.66
12097.7
12097.98
12081.61
12101.5
12288
12032
8.589935e+09
9.544372e+08
1e-15
1347.556
12128
4.675325e+16
6.571788e+14
9.289902e+12
1.047055e+11
1.479611e+09
1.606581e+07
12141.88
8862.88
6135.856
6054.537
6050.83
6050.735
6050.724
6050.535
6049.076
5929.367
920.4959
4171.416
4036.623
4028.023
3846.526
1821.414
4364.038
12287.28
12101.43
12101.46
12099.96
11998.54
8382.464
12101.37
12101.75
4509.694
16384
12096
12102
12101.44
12101.45
12101.44
12100.76
84153.53
12101.85
12103
12101.44
12101.45
12101.44
12101.44
12104
12101.5
12101.45
12101.45
12101.42
12099.51
11968.53
7809.269
12099.63
12101.44
12101.45
12101.45
12102.99
12095.97
10843.67
4485.557
2196.375
4286.976
4877.682
5266.019
4406.38
2610.117
4025.047
4232.329
12953.07
4758.199
4055.026
10394.03
4360.452
4032.16
3857.079
3032.827
3718.023
3825.929
3969.686
3742.478
3898.724
3711.323
2973.638
2594.068
2434.024
3795.207
2883.537
3845.132
5856.563
4670.33
1873.005
2593.489
2351.662
1904.406
8657.664
3813.6
258.076
44.21352
0.03995563
2894.533
3020.917
3036.148
11748.51
3477.22
10353.78
4374.613
3094.202
3027.872
3021.538
1921.974
3895.006
3093.942
3031.039
3025.754
3025.463
3698.716
4500.7
607116.1
12181.41
10973.18
8617.297
3435.386
4865.291
3197.795
2657981
242320.3
30225.89
4499.427
3082.34
3023
3025.241
2237.643
0.01140151
2834.327
3989.513
4890.465
4067.981
4030.428
3357.342
35390.49
4093.708
30375.48
34491.64
35248.44
9197.684
74.55357
659370.5
2.769904e+11
1.993195e+11
1.501373e+09
4769.746
1.226429e+07
12288
12100
11091.23
1.336682e+15
12101.46
7.680892e+08
4.131645e+19
8.978792e+16
9.595713e+13
7.698059e+13
8.553424e+12
10620.17
7448.253
2990.715
10559.91
12161.19
12431.52
3620.99
5018681
18240
12160
12112
15501.69
12101.45
6191.867
45703.2
7110.002
4400.133
4033.814
6476.349
33396.26
12101.44
1.488908e+08
2546377
41470.64
1420938
1.281051e+07
1197936
24668.98
4852.064
7.835804e+07
1.758526e+10
2.063464e+12
6.511963e+10
8.723618e+07
1481.309
15.60006
54937.92
2.94445e+07
75191.8
6.919033e+07
3420641
3.429211e+11
5.349242e+11
5.943602e+10
1.84615e+34
1.661535e+35
1.37439e+11
2.877249e+25
1.809923e+18
262144
12101
12101
0.0001169765
0.1339332
12112
12101.38
12101.45
12101.44
2.943326e+08
6065131
69323.38
12066.26
3.372842e+09
9.50476e+11
1.056087e+11
12160
12101.5
12101.45
12101.45
1269545
3.561426e+09
3.633438e+07
379344.7
9886.464
6090.14
6051.107
6050.089
6044.21
5578.259
4074.006
7223.56
4489.316
4045.421
4720.186
10025.8
4742.608
4051.109
4034.962
11984
8382.413
262977.3
40104.29
17658.68
118426.3
453865
74611.26
5002.875
12098.76
11984.08
10179.87
6359.619
8163.944
13411.11
12100.83
12050.88
9675.419
2612.212
2038.454
3549.517
4022.907
4032.944
4636.494
4067.162
4034.393
4032.892
4032.719
4022.728
3862.268
4029.809
4033.466
4033.086
4012.774
3242.648
2125.233
2063.302
3751.446
4027.523
4034.05
10867.64
4964.291
4060.88
4034.262
4033.235
4018.815
4094.644
12101.24
12094.58
11794.52
6865.965
2471.848
2036.507
2017.661
2016.94
2017.018
2067.624
2990.905
3023.916
3313.126
4967.53
2361.982
7257.499
2483.072
3962.844
4031.624
4033.798
4033.824
4033.786
4033.404
4032.504
3991.584
4031.207
4032.861
4031.342
3901.635
2478.395
2944.368
3022.241
3025.275
3025.218
8157.25
3202.997
3028.899
3005.071
3026.577
3025.151
3024.781
3015.927
2601.53
2587.782
3586.838
2233.247
2941.365
2326.857
2042.668
2018.245
2023.668
3981.955
3880.064
3068.482
3026.732
3074.477
3028.603
3025.505
3025.358
3025.194
3847.136
4055.726
4028.194
2967.606
5740207
5.072982e+12
1.507577e+15
12127.5
1301026
12125.1
305.6104
12288
2.264807e+12
2.116936e+10
3.568465e+08
6802782
132918.8
6177.025
4069.427
4034.423
4033.834
4033.823
4033.819
4032.384
3976.628
3473.536
38.51433
2813.386
3003.776
3025.067
3025.368
3025.368
3025.37
2518.84
79549.89
94489.85
11667.82
20638.63
9962.706
12036.53
12024.75
12092.43
11856.51
12235.33
690585.8
5919364
8.863263e+08
5442232
10048.61
5984.158
6007.119
8579.183
383.3039
30761.62
448687.8
3601482
6.057617e+08
1.493242e+07
429414.4
7956.951
4209787
5.297179e+07
746861.7
16133.53
20990.71
2.026754e+07
1.697446e+12
4.002224e+10
1.013597e+09
1.761234e+07
20436.55
8156.835
378.5998
45107.36
91110.43
7195.829
11966.67
8044.992
3384.522
3039.798
3031.178
3032.98
4004.283
12057.3
12101.45
10240
2.552944e+17
2.502958e+17
2.252663e+18
3.67496e+12
12119.39
2.611565e+09
3.647378e+07
511533.2
11541.39
12184.31
1.724399e+12
2.419992e+10
6738.923
12101.52
25814.7
5134.157
5160.549
5986.358
5686.549
12108.69
12114
2711.333
1865472
9.544372e+08
1e-15
1342.948
2689.05
12100
378820.5
5.173553e+08
1095329
113413
7719.885
11911.36
6133.763
6051.911
6050.75
6050.732
6050.677
6048.687
5957.179
4214.859
3569.216
2995.372
2623.717
3983.36
4021.29
3459.746
3503.694
4211.847
5894.402
10789.36
12096.21
11826.12
6471.686
4126.93
4036.282
4390.53
12101.31
12101.5
12101.45
12101.45
12101.44
12100.94
113467.4
10657.51
4702.474
4056.152
6045.185
12101.43
12100.68
12068.94
10747.86
8006.243
12101.44
12101.19
12089.62
11795.66
7091.338
4405.352
4055.725
4034.276
4078.063
12100.64
12101.44
12101.29
12097.77
11899.92
7314.732
16465.72
156383.1
9477.499
58755.46
12126.23
12112.93
5662.474
4178.767
4038.855
4033.971
4033.577
4024.875
3971.568
3690.847
3280.071
2564.941
3007.526
3779.384
3823.324
3703.475
3621.906
2619.707
2837.172
3285.768
3741.49
3898.067
3704.558
3902.698
3647.104
1403.597
3042.388
3388.78
3509.575
3289.785
3399.092
2310.396
3754.047
4087.468
4925.45
3272.854
3034.239
3025.609
3025.407
3025.412
3025.285
3025.325
3025.386
3025.411
3027.72
3069.855
3051.033
4000.275
4031.047
3656.351
3015.442
3196.569
3037.143
3025.562
3026.094
3025.896
3025.614
3025.404
3025.378
3025.384
3025.612
3028.527
3025.722
3025.55
3025.535
3025.528
3025.41
3025.371
3025.417
3025.704
3080.264
4002.038
4033.015
4033.809
4339.128
130884.5
3938081
31792.4
34382.78
34409.93
23060.39
11081.72
12082.38
297931.5
3553022
4.82228e+09
3261014
3.515092e+12
1.773685e+10
1.731663e+12
1.038116e+07
12101.07
12101.45
12101.45
12102
12104
546323.8
0.00274667
2950.696
12099.32
12112.34
3707.316
2.247611e+09
6.27249e+07
4.21508e+16
5.769637e+12
92942.88
1.409973e+07
133372.3
15778.05
2337.474
6134.646
11176.85
15441.7
6891078
3.808144e+09
4.231385e+08
3.818306e+09
2.546161e+27
2.291545e+28
5.000072e+21
4.055497e+17
1.55944e+13
2.067751e+11
1119550
12318.44
7169.81
4746.832
4115.866
5735.923
12316.88
5435.342
4004.152
3090.735
3029.572
212.3344
2581.295
3005.481
3056.96
342503.1
8.907997e+07
1.218803e+10
6.474884e+08
1.607653e+07
441687.3
13317.92
2288.384
6726.717
4520.151
6244.987
12112
12101
5.738076e+12
6.37564e+11
1e-15
1.84615e+34
1.527099e+10
1e-15
3.20256e+16
2.882304e+17
3.20256e+16
2823.667
13312
16384
12288
12100
12101.44
12101.45
12096.47
851198.9
14908.67
1.422622e+10
12102
12099.89
12075.99
10804.25
11255.89
11384.91
11503.44
6107.728
8864.834
6108.412
6051.565
6050.132
6048.06
5906.559
3687.614
3052.463
3023.591
3961.918
4019.135
4011.07
3690.63
4025.363
4032.732
4032.345
4032.447
4010.619
4032.8
4033.789
4034.107
4033.871
4033.814
4033.457
4034.278
4033.907
4033.743
4052.126
4031.338
3867.992
2367.18
2036.297
2016.702
6044.449
2141.456
2018.327
2015.251
2015.264
2015.38
3545.87
2340.982
3001.644
3822.4
2683.539
2072.328
2026.786
2016.544
2015.719
3715.614
2553.942
2061.004
2018.143
2016.073
2016.032
2016.053
2016.103
3749.828
4027.469
4033.391
4032.745
4014.136
3377.341
2156.329
2022.793
2016.106
3992.757
2453.964
2042.343
2016.821
2015.833
2015.853
2015.899
2015.944
2016.11
2016.111
2065.562
2022.297
2017.444
2016.006
2015.838
2015.807
2015.749
2015.835
2037.483
3987.101
4027.761
3904.44
2623.625
2062.039
2017.747
2019.732
2028.234
2051.832
2017.997
2015.627
2015.548
2926.913
3003.827
2722.396
2110.426
2124.096
2025.543
2016.093
2950.2
2497.536
2063.869
2018.261
2015.636
2015.524
2015.533
2015.52
2015.539
2015.524
2015.522
2015.524
2015.526
2019.318
2015.844
2756.452
3013.981
3025.029
3025.364
3025.357
3024.437
2975.956
2729.717
23.39235
2803.527
3017.4
3025.107
5278.978
1.31268e+08
12101
33790.21
12101.39
12101.42
1850737
7071075
81307.66
7823.711
4766.879
3220.621
477.3109
3936.423
4031.777
4033.786
4033.81
4025.498
3362.106
1319.676
1706.343
29092.43
58880.7
2210.525
2955.997
3023.667
3025.343
3070.468
101929.1
1.636069e+07
14130.1
234.0374
11473.96
588.1739
765.1547
10.40467
3111.616
193.1303
3150231
16393.32
1.718037e+08
1.704615e+11
1.377399e+09
846843.4
28181.33
8801.686
239540.4
12085.08
12098.57
12272.06
17905.38
962669
323322.7
10935.22
3143.64
3031.91
3098.491
3029.112
6001.126
5981.532
6036.872
12117.22
12112.64
6940.276
4621.007
4609.708
4181.125
13129.71
12101.42
70601.47
7235.477
12060.78
10329.09
3780.762
3661.296
3862.824
99421.37
5922.495
11714.18
12101.45
12160
2716.444
1344.604
2.502958e+17
3748.003
12101.31
12096.4
11108.85
7073.822
6072.888
8625.428
2.643633e+07
41804.24
6633.785
12102.08
12053.91
11196.47
6234.648
6033.269
6774.668
12101.45
12104
1865480
1.677722e+07
1864135
2701.229
12086.53
12101.45
8192
12104
12101.41
12101.4
12098.28
7164.606
11377.23
5501.307
6047.549
6050.705
6047.73
5872.906
3829.98
3098.561
3029.23
3025.59
3025.022
3024.212
3145.675
3030.96
3029.767
2978.407
4144.184
13075.3
56623.49
11565.98
5132.692
4066.772
4034.614
4034.022
4034.329
4391.382
12101.31
12098.31
11993.22
11860.34
160938.1
2.128792e+11
4058.23
4033.86
4033.886
4033.844
5809.089
4164.055
4039.262
4034.009
4033.854
7738.996
4387.104
4049.11
4034.461
4441.23
12079.48
4661.12
4046.173
4033.91
9281.086
12100.86
12072.94
11720.19
33502.84
11276.14
194965.9
1.767875e+07
39044.91
12110.34
12101.45
12101.58
12099.57
11942.41
7700.441
4232.845
3562.8
3134.78
470.0156
1628.811
2903.291
3878.118
4763.304
17901.8
26065.41
5537.353
4147.184
4113.076
3956.399
3712.755
3724.466
3660.511
1844.853
2632.269
1831.083
4159.888
4011.375
4204.506
4074.418
4352.446
4460.54
4303.996
6000.821
8317.744
3344.907
6023.101
6276.256
3312.456
3037.108
3027.861
3028.775
3027.091
3031.359
3423.431
24822.21
77657.02
4224.947
4035.991
4010.772
97.77065
189.6226
5933.849
5472.792
3301.159
3041.774
3027.023
3026.029
3028.126
3070.005
3084.887
4066.133
3073.316
3030.154
3496.568
3058.872
3027.274
3026.271
3027.054
3199.19
3288.885
4097.492
4036.229
4033.89
4033.859
35436
1.17328e+07
4.43734e+08
541257.2
70611.05
12094.69
12086.89
12112.21
6065.785
2337.729
4.197843e+07
2.999197e+08
12099.6
13069.75
12088.67
12101.44
12101
12101.44
22087.49
11083.48
6020.496
12101.26
12101.2
12108.17
12101.47
12102
0.6970038
4893777
4.682105e+08
26.17987
9116.784
8149.732
9399.921
454577.8
3.405045e+08
5.297825e+11
1.364861e+07
12101.8
12106.82
11955.71
8630.207
4282.446
4053.734
11979.39
12100.12
12837.48
1.250847e+10
99189.14
3.435974e+10
2.353256e+19
2.117931e+20
1.377368e+08
9.328411e+08
21150.78
12559.98
12100.99
12103.14
6468.001
6054.899
2228.557
3982.291
8999.521
4188.677
3085.557
3027.352
3025.417
3025.173
3025.276
3025.348
3053.461
10161.12
681456.8
9.795002e+07
6329480
237714.7
14065.16
2474.802
1256.616
3943.623
11503.28
20576.74
12101.45
1821291
2.162326e+22
2.402584e+21
1e-15
1e-15
1e-15
1e-15
1e-15
3.20256e+16
1e-15
1e-15
1479.111
1820.444
16839.11
131072
12288
12112
12101.38
6121.136
7835.181
12307.42
2.936448e+09
3.066341e+07
324565.1
9354.514
6084.957
6051.003
6049.942
6029.362
6049.463
6043.19
5787.79
3592.442
3050.63
3024.203
2985.715
2295.232
2034.602
2015.507
2014.931
2014.794
2014.638
3285.877
2268.106
2037.963
2027.51
2015.415
2187.63
3991.979
4031.504
4030.629
3971.164
3003.85
4008.632
4026.884
3846.956
2415.452
1954.687
1408.77
1164.214
1122.223
1122.933
1146.196
752.5487
344.5062
234.793
308.384
396.3159
456.3275
492.6654
514.2235
505.5585
536.0063
189.5418
120.6622
131.5506
142.5586
139.1135
148.9117
158.6059
166.7694
175.3153
194.6982
204.8512
211.8588
218.4295
3763.299
2224.879
485.7411
243.168
230.2258
235.2285
243.4432
269.4703
287.0002
327.3056
302.4681
229.1626
214.3444
210.1265
199.2811
217.2368
567.2013
614.6307
582.0593
553.2838
537.2271
529.6241
526.7481
526.5058
527.5952
529.5238
531.9524
624.2613
547.4419
538.4318
538.9313
539.885
540.6538
541.2771
541.8442
542.4505
543.1864
544.1272
545.3368
547.4122
566.1801
416.0706
499.2582
545.4562
555.9798
558.8273
560.5655
561.2972
561.6339
561.3685
560.434
558.7781
556.3374
553.0866
549.0009
544.0567
538.2228
531.4552
523.9486
514.8901
504.8328
1353.789
2745.021
3013.246
3024.236
3021.708
2881.269
2186.746
2158.945
2453.248
2943.196
3021.561
2748.162
12088.02
12101.45
12096
1225702
15588.14
17228.79
6523.652
6105.204
4101.319
3069.65
6012.557
6019.501
4309.065
4035.676
4033.794
4033.654
4020.136
3262.846
1841.807
10280.28
4953.602
8351.381
7016.987
93377.05
3321.325
3012.791
3075.804
24098.27
27184.01
13565.63
577.2262
3799.086
3548.231
3217.654
2664.619
2579.355
3490.184
220.3755
12204.92
21162.52
2.941257e+07
4.858862e+07
1.893516e+07
748417.7
91927.85
513656.5
13290.22
50.68109
2997.444
734.0564
755355.4
12146.53
225011.7
286073.8
11039.59
3170.181
3028.459
3025.438
2999.145
5821.534
6043.287
6023.308
6050.065
6050.705
5788.22
4095.838
4035.437
4033.932
13121.8
10518.66
12455.35
35303.3
16341.51
33875.1
4805949
506662.3
103332.3
1272869
71553.14
12060.19
12101.45
12288
12101.44
5.180133e-06
2392.36
11782.25
8080.386
6127.72
6087.727
10479.46
2.802755e+07
8.298996e+09
81993.2
12457.96
12101.45
12101.44
12101.28
11374.54
6112.222
2913.337
12101.03
12101.47
4.129725e+09
3.71675e+10
4.226887e+09
12224.53
12101.32
12101.45
12101.45
12096
12101.45
12101.45
12101.45
6476.187
6056.683
6050.855
6050.645
6050.736
6050.734
6050.715
6049.542
5972.285
4778.818
3359.208
3043.404
3089.859
11787.95
3473.06
3042.171
9190.933
14729.07
12770.38
12172.82
506594.2
16319.16
4306.751
4040.367
5329.922
7654.699
9757.449
4814.838
4078.334
12037.49
12101.42
426200.2
1.597105e+15
158284.6
4040.726
4040.587
4033.307
4033.739
4026.075
4038.298
4040.6
4034.081
4033.334
4436.812
4231.843