/*--------------------------------*- C++ -*----------------------------------*\
| =========                 |                                                 |
| \\      /  F ield         | foam-extend: Open Source CFD                    |
|  \\    /   O peration     | Version:     3.1                                |
|   \\  /    A nd           | Web:         http://www.extend-project.de       |
|    \\/     M anipulation  |                                                 |
\*---------------------------------------------------------------------------*/
FoamFile
{
    version     2.0;
    format      ascii;
    class       volScalarField;
    location    "7.5";
    object      p;
}
// * * * * * * * * * * * * * * * * * * * * * * * * * * * * * * * * * * * * * //

dimensions      [1 -1 -2 0 0 0 0];

internalField   nonuniform List<scalar> 
119952
(
7217.522
7253.693
7259.432
7276.332
7324.512
7334.639
7342.285
7314.55
7242.298
7122.901
7000.888
6858.596
6703.286
6553.424
6418.816
6248.878
6181.869
6060.541
5994.253
5934.372
5942.617
5939.85
5947.988
6039.802
6095.224
6219.371
6269.946
6380.026
6446.558
8221.671
5482.256
5298.399
5426.254
5308.92
5274.374
5290.206
5346.245
5441.885
5365.157
5338.568
5741.39
5810.616
5928.452
5995.036
6047.677
6079.023
6098.205
6117.096
6213.525
6210.771
6196.782
6197.137
6207.968
6233.473
6257.28
6311.97
6354.164
6405.618
6458.115
6525.975
6589.399
6647.94
6706.444
6765.403
6821.448
6875.421
6919.11
6934.257
6948.926
6956.193
6997.925
7030.597
7055.793
7068.696
7070.143
7043.864
6970.1
6856.357
6716.604
6565.181
6409.888
6260.196
6120.183
5994.246
5887.331
5796.014
5723.876
5669.761
5654.463
5653.072
5669.846
5727.297
5804.498
5892.494
5986.63
6096.751
6236.912
6386.343
6529.948
6661.819
6794.109
6905.274
7026.187
7125.713
7211.595
7274.945
7313.421
7336.711
7347.779
7352.034
7372.347
7400.741
7323.725
7328.489
7329.791
7313.802
7298.082
7282.899
7256.681
7224.242
7189.684
7161.415
7137.87
7108.148
7057.773
6980.702
6921.188
6904.422
6916.02
6937.088
6955.009
6965.527
6968.371
6969.9
6969.611
6967.929
6963.945
6956.719
6945.476
6931.411
6920.215
6903.338
6887.304
6869.985
6853.085
6833.296
6811.901
6791.842
6777.634
6760.358
6747.664
6739.808
6736.863
6741.534
6753.549
6772.182
6776.948
6795.982
6815.647
6832.868
6849.232
6866.72
6887.431
6899.487
6911.337
6926.437
6940.698
6948.838
6959.112
6968.519
6976.199
6981.626
6986.606
6992.614
6998.303
7004.338
7010.616
7013.569
7018.859
7023.632
7027.256
7030.457
7033.176
7033.989
7036.728
7050.775
7057.32
7060.173
7061.789
7066.265
7071.744
7075.496
7077.609
7083.39
7088.924
7095.904
7102.438
7129.912
7070.506
7079.18
7082.004
7103.223
7080.753
7133.331
7138.185
7139.244
7142.931
7148.056
7151.771
7156.024
7162.004
7169.404
7166.858
7171.837
7172.809
7163.143
7222.717
7201.75
7203.494
7202.592
7228.325
7216.471
7218.743
7222.377
7224.442
7228.24
7232.421
7237.722
7244.293
7255.057
7262.902
7271.856
7283.005
7296.659
7303.479
7309.218
7319.881
7323.976
7328.091
7333.354
7339.777
7346.364
7352.633
7361.485
7369.126
7377.121
7387.282
7395.582
7404.082
7472.605
7451.363
7451.007
7462.56
7472.861
7480.567
7487.273
7498.028
7495.599
7524.507
7531.999
7542.409
7555.577
7567.763
7581.395
7584.385
7635.26
7622.028
7525.209
7580.1
7586.202
7600.74
7613.277
7624.901
7636.376
7641.231
7646.231
7658.906
7678.224
7692.688
7714.464
7734.382
7751.532
7767.147
7780.391
7786.836
7794.907
7809.192
7819.011
7827.662
7836.354
7843.482
7849.157
7855.918
7862.707
7869.244
7876.26
7884.56
7898.291
7916.323
7934.423
7958.232
7972.229
7984.37
7990.206
7998.401
8005.746
8011.459
8017.018
8024.139
8031.188
8038.454
8045.474
8055.412
8065.317
8081.235
8098.747
8114.339
8126.696
8133.598
8135.782
8127.791
8111.025
8123.441
8128.746
8135.73
8136.659
8132.906
8142.294
8144.201
8146.695
8150.749
8155.23
8157.947
8162.241
8167.397
8172.589
8177.867
8183.098
8188.276
8193.386
8197.579
8201.192
8205.645
8210.17
8213.116
8213.982
8215.345
8215.99
8216.906
8216.421
8214.973
8212.39
8206.356
8195.59
8177.958
8165.417
8181.053
8239.177
8261.861
8273.194
8281.273
8282.846
8280.546
8275.241
8271.345
8265.808
8260.456
8255.105
8250.505
8248.956
8254.951
8249.581
8241.414
8243.905
8237.917
8231.108
8224.213
8218.454
8214.556
8220.008
8199.76
8205.372
8198.502
8193.714
8189.172
8184.106
8179.031
8174.08
8170.144
8164.139
8156.962
8153.623
8148.118
8141.522
8135.328
8128.417
8120.814
8112.7
8104.611
8095.018
8085.803
8073.955
8049.89
8000.132
7953.013
7939.13
5290.739
5396.008
5460.071
5519.588
5605.114
5674.24
5735.681
5790.885
5852.032
5882.487
5908.897
5920.769
5948.534
5979.316
6011.475
6045.469
6070.998
6058.198
5965.402
5955.802
5901.318
5866.044
5831.068
5832.808
5810.312
5788.8
5765.699
5723.785
5666.302
5610.271
5550.82
5496.295
5439.788
5394.666
5352.33
5269.76
5180.937
5161.888
5070.393
4985.372
4941.314
4936.173
4967.89
5021.309
5106.725
5246.636
5406.623
5486.749
5580.371
5668.346
5736.401
5789.711
5827.655
5854.461
5876.274
5921.248
5865.567
5869.983
5874.889
5890.218
5915.262
5949.488
5992.718
6039.569
6094.99
6153.366
6212.514
6275.656
6339.437
6400.936
6459.654
6514.75
6563.602
6604.724
6635.429
6659.522
6680.08
6703.424
6735.484
6765.534
6783.873
6767.979
6690.629
6573.24
6437.92
6292.707
6148.792
6006.534
5867.172
5734.64
5614.794
5509.305
5420.378
5353.959
5311.412
5292.348
5301.273
5337.634
5393.875
5467.689
5561.028
5671.668
5797.791
5930.338
6066.373
6200.379
6329.381
6462.885
6581.926
6693.774
6792.904
6876.527
6940.108
6983.995
7011.197
7025.536
7031.495
7035.356
7042.326
7040.553
7025.011
7011.652
6998.814
6985.068
6965.928
6935.317
6893.417
6858.363
6851.067
6840.613
6786.291
6695.537
6607.196
6566.399
6569.905
6604.471
6636.537
6654.903
6662.79
6665.373
6666.601
6667.017
6664.402
6658.768
6649.462
6636.985
6622.681
6607.669
6591.689
6574.352
6555.961
6537.138
6517.383
6496.762
6476.053
6459.279
6445.918
6435.333
6429.92
6430.153
6435.975
6447.174
6460.379
6474.79
6492.235
6511.232
6530.567
6548.506
6565.607
6581.936
6596.836
6610.134
6623.033
6635.174
6646.043
6655.182
6663.065
6669.946
6676.124
6681.703
6687.556
6693.71
6700.406
6706.73
6711.533
6715.325
6718.489
6721.264
6724.748
6727.86
6731.409
6736.614
6743.692
6751.4
6756.157
6759.137
6761.799
6765.744
6769.631
6772.248
6773.21
6779.974
6785.22
6774.884
6831.564
6813.698
6810.619
6818.762
6831.103
6840.885
6852.337
6859.771
6863.528
6867.905
6872.391
6876.711
6881.028
6885.268
6890.106
6896.444
6901.746
6909.361
6922.169
6909.261
6919.539
6925.078
6927.437
6932.853
6939.263
6942.513
6945.627
6948.417
6951.664
6956.536
6962.452
6971.278
6980.777
6991.967
7002.891
7012.303
7019.917
7025.916
7034.397
7041.095
7046.305
7051.464
7056.716
7062.945
7069.642
7076.988
7085.081
7093.987
7104.396
7116.045
7129.055
7143.355
7160.873
7163.938
7176.053
7187.871
7196.3
7205.014
7213.954
7223.788
7232.901
7244.683
7255.92
7267.513
7279.628
7293.175
7307.485
7321.922
7333.292
7333.8
7225.653
7258.282
7287.475
7301.359
7310.545
7320.399
7331.132
7341.571
7350.838
7362.645
7378.802
7397.555
7415.88
7432.597
7447.394
7459.667
7469.702
7479.043
7488.975
7501.145
7513.033
7523.371
7531.612
7538.544
7544.268
7550.044
7557.734
7566.109
7575.034
7586.797
7601.82
7618.44
7634.402
7645.942
7661.42
7676.92
7686.358
7692.681
7698.952
7705.662
7712.52
7718.974
7725.837
7733.997
7743.936
7754.347
7766.722
7779.827
7793.733
7806.458
7815.369
7819.49
7820.141
7818.682
7817.975
7819.461
7822.289
7826.286
7829.622
7831.803
7834.767
7838.083
7841.759
7845.787
7850.102
7854.502
7859.271
7864.153
7869.149
7874.099
7878.693
7882.485
7885.719
7891.086
7899.393
7906.779
7910.424
7908.984
7905.879
7907.072
7909.285
7910.958
7910.883
7909.19
7906.161
7900.678
7895.826
7890.734
7889.736
7900.806
7925.994
7946.758
7960.033
7965.286
7966.134
7965.045
7962.77
7959.838
7956.705
7953.197
7949.54
7945.966
7943.272
7941.339
7939.994
7937.746
7933.154
7927.198
7922.645
7917.765
7913.164
7908.837
7904.482
7899.998
7895.388
7890.744
7886.102
7881.355
7876.54
7871.755
7866.801
7861.654
7856.375
7850.888
7845.323
7839.867
7833.918
7826.976
7819.408
7811.614
7803.695
7795.331
7786.155
7774.108
7757.493
7732.862
7699.29
7670.614
7661.763
3795.618
3912.877
4001.3
4071.694
4278.414
4359.841
4538.217
4639.509
4754.291
4772.901
4981.72
5038.656
5059.94
5120.587
5127.21
5138.781
5146.644
5143.939
5126.065
5071.152
5055.888
5034.155
5010.678
4990.232
4973.342
4956.612
4932.015
4909.383
4885.003
4858.18
4817.292
4772.927
4743.929
4732.37
4736.735
4759.919
4807.247
4890.711
4983.124
5067.889
5162.57
5252.753
5336.206
5408.956
5467.01
5509.332
5564.916
5593.829
5617.028
5640.098
5669.876
5701.884
5732.729
5760.286
5782.777
5777.35
5645.659
5580.446
5512.127
5468.326
5482.382
5498.273
5490.677
5480.861
5467.237
5441.23
5381.987
5299.73
5218.219
5142.7
5074.638
5007.438
4928.93
4838.548
4748.618
4658.798
4585.59
4542.278
4532.336
4557.56
4614.118
4702.29
4820.837
4950.6
5069.975
5184.656
5295.132
5390.453
5463.311
5515.705
5549.169
5575.045
5592.759
5596.709
5596.241
5596.063
5602.338
5614.066
5634.946
5666.965
5713.819
5768.387
5821.889
5888.23
5950.368
6014.369
6078.118
6141.649
6202.73
6259.625
6310.753
6355.414
6391.31
6416.799
6441.638
6468.105
6486.973
6510.637
6530.581
6519.28
6444.809
6317.661
6165.498
6011.585
5863.823
5719.89
5578.998
5444.062
5321.265
5213.092
5121.516
5053.764
5011.913
4997.818
5011.012
5047.253
5102.787
5178.138
5271.464
5380.878
5503.158
5633.005
5767.973
5897.646
6024.619
6149.497
6266.589
6378.249
6478.983
6567.048
6638.253
6690.666
6726.842
6748.357
6761.84
6768.551
6767.794
6761.337
6753.589
6741.486
6727.522
6714.978
6696.744
6673.953
6640.422
6604.869
6581.308
6554.216
6504.595
6425.984
6353.001
6324.244
6343.589
6373.453
6400.725
6413.687
6419.03
6419.024
6418.928
6419.621
6418.611
6413.447
6403.988
6390.905
6375.877
6359.923
6343.229
6325.588
6307.062
6287.276
6266.74
6245.769
6226.354
6208.175
6192.51
6181.338
6176.093
6176.843
6182.196
6192.606
6207.477
6225.27
6244.508
6264.795
6285.392
6303.56
6320.552
6335.958
6350.537
6364.041
6376.332
6387.671
6397.7
6406.534
6414.573
6421.858
6428.088
6433.363
6438.111
6442.169
6453.122
6464.972
6470.202
6472.179
6474.217
6476.836
6480.441
6484.438
6487.873
6491.966
6495.907
6499.685
6503.126
6506.493
6509.472
6511.484
6511.865
6514.861
6524.864
6534.171
6533.579
6526.122
6520.325
6518.283
6520.543
6527.597
6533.373
6538.431
6543.959
6550.265
6556.477
6562.075
6567.199
6571.91
6576.383
6580.751
6585.185
6589.945
6595.138
6600.937
6606.825
6611.507
6615.057
6618.779
6622.918
6627.333
6631.976
6636.002
6639.373
6643.292
6648.014
6653.737
6661.075
6669.58
6678.741
6687.921
6696.697
6704.971
6712.39
6720.371
6727.928
6734.13
6739.634
6745.52
6752.156
6758.996
6766.131
6773.986
6782.748
6792.543
6803.107
6814.341
6826.054
6837.822
6849.34
6860.114
6870.314
6880.281
6889.928
6899.37
6908.868
6918.728
6929.017
6939.917
6951.506
6963.015
6974.56
6986.23
6998.338
7009.828
7019.913
7029.406
7042.397
7048.944
7054.03
7060.552
7068.208
7076.055
7084.48
7093.266
7102.574
7113.95
7128.566
7146.37
7163.908
7180.189
7195.537
7209.564
7222.569
7235.094
7247.843
7259.052
7268.441
7277.022
7285.454
7293.597
7301.233
7308.444
7316.568
7325.255
7334.873
7345.518
7359.012
7374.544
7390.861
7406.183
7418.386
7427.743
7436.444
7445.025
7453.071
7460.521
7467.664
7474.7
7481.982
7489.242
7496.554
7504.724
7516.44
7529.741
7541.917
7553.522
7563.173
7570.058
7574.475
7575.828
7575.747
7576.952
7579.454
7582.082
7585.133
7587.859
7590.9
7594.419
7598.165
7602.096
7606.267
7610.81
7615.672
7620.858
7626.227
7631.531
7636.964
7642.24
7647.304
7650.909
7652.616
7655.63
7660.12
7659.723
7657.35
7660.269
7664.255
7664.907
7663.849
7663.668
7662.09
7659.736
7657.987
7656.975
7660.285
7670.457
7689.18
7704.449
7714.494
7720.289
7721.546
7720.383
7717.856
7714.687
7711.247
7708.03
7705.156
7702.522
7700.009
7697.247
7693.667
7689.681
7685.799
7682.485
7677.411
7671.293
7666.368
7662.495
7658.737
7654.712
7650.5
7646.089
7641.513
7636.781
7631.9
7626.904
7621.766
7616.581
7611.362
7605.885
7600.21
7594.26
7587.92
7581.202
7574.151
7566.941
7559.749
7551.868
7542.12
7530.456
7514.067
7492.637
7471.27
7454.136
7443.694
3071.37
2987.952
2743.603
3096.803
3078.617
3134.359
3118.511
3153.283
3188.926
3191.795
3213.223
3266.413
3327.663
3450.879
3607.804
3773.421
3938.546
4062.079
4211.874
4355.557
4459.627
4622.209
4701.59
4761.638
4809.964
4837.086
4859.013
4865.448
4869.93
4863.829
4848.604
4760.713
4749.569
4723.827
4695.167
4674.245
4658.297
4638.014
4617.249
4592.632
4559.31
4516.063
4462.604
4421.258
4406.864
4395.84
4396.152
4428.761
4485.351
4570.194
4666.391
4764.774
4864.374
4967.967
5065.177
5146.027
5208.815
5255.367
5280.773
5292.591
5307.186
5331.364
5364.654
5396.54
5417.391
5430.077
5432.77
5417.222
5367.403
5294.3
5203.697
5173.781
5212.851
5244.359
5250.726
5255.242
5239.651
5198.723
5136.863
5059.931
4979.905
4893.98
4803.843
4709.056
4603.308
4489.19
4378.756
4277.997
4204.427
4171.794
4176.394
4216.98
4290.614
4389.398
4512.765
4655.555
4795.781
4925.791
5044.79
5147.33
5227.39
5283.079
5316.834
5336.458
5344.545
5344.322
5337.716
5327.813
5326.58
5331.721
5346.986
5384.201
5429.755
5481.953
5541.296
5607.072
5673.978
5741.225
5807.849
5874.294
5938.341
5997.605
6051.361
6099.436
6140.959
6173.448
6197.749
6221.338
6238.171
6248.295
6268.822
6253.77
6171.243
6027.671
5868.339
5719.006
5574.111
5427.109
5281.317
5142.158
5014.964
4903.788
4809.477
4739.789
4697.884
4681.24
4700.026
4741.962
4801.928
4880.654
4976.776
5088.23
5211.011
5339.769
5468.783
5595.633
5718.154
5836.736
5950.193
6058.263
6159.56
6251.517
6329.754
6391.401
6434.604
6463.815
6481.129
6489.899
6491.821
6490.315
6487.88
6482.393
6467.583
6444.78
6421.283
6393.111
6359.907
6320.534
6292.621
6270.797
6229.583
6172.178
6122.585
6106.285
6115.98
6138.031
6159.126
6170.421
6174.742
6177.253
6179.552
6180.106
6177.34
6170.658
6159.789
6145.712
6129.335
6112.345
6094.699
6076.735
6057.452
6037.018
6015.56
5993.885
5972.847
5953.635
5937.465
5926.217
5921.637
5921.892
5927.924
5938.92
5952.269
5973.833
5997.447
6019.661
6042.73
6064.016
6079.673
6092.942
6105.991
6118.917
6131.199
6142.646
6152.657
6161.526
6169.232
6175.995
6181.98
6188.308
6195.244
6202.089
6210.769
6219.088
6224.445
6226.67
6228.875
6230.815
6233.422
6236.035
6238.458
6241.563
6248.08
6255.799
6260.023
6261.73
6266.667
6275.847
6284.303
6289.724
6295.21
6284.972
6272.644
6271.665
6266.301
6259.503
6264.952
6274.189
6285.711
6295.712
6301.24
6305.784
6310.659
6315.667
6320.402
6325.12
6329.859
6334.584
6339.253
6343.947
6348.747
6353.573
6358.288
6362.597
6366.571
6370.571
6374.955
6380.562
6385.955
6390.472
6394.463
6398.895
6404.013
6409.759
6416.311
6423.602
6431.75
6440.349
6448.935
6457.181
6465.331
6472.991
6480.169
6486.919
6493.142
6500.15
6507.43
6514.729
6522.215
6530.12
6538.758
6548.235
6558.38
6568.864
6579.815
6590.907
6601.807
6612.669
6623.233
6633.383
6643.22
6652.96
6662.769
6672.835
6683.132
6693.544
6704.379
6715.538
6726.626
6737.947
6748.948
6758.804
6766.93
6773.192
6778.018
6784.065
6793.731
6806.094
6818.522
6829.848
6840.917
6852.087
6863.572
6876.519
6891.141
6906.702
6922.243
6936.902
6950.109
6962.094
6973.787
6985.394
6996.774
7007.937
7018.5
7028.72
7038.265
7047.049
7055.551
7064.606
7073.652
7082.913
7093.22
7104.801
7117.598
7130.982
7144.271
7156.502
7167.361
7177.983
7188.223
7197.862
7206.762
7214.8
7222.317
7230.074
7238.162
7246.675
7255.929
7265.935
7276.319
7286.884
7297.212
7306.277
7314.026
7320.084
7324.163
7327.581
7330.027
7332.751
7335.162
7337.324
7340.707
7344.175
7347.809
7351.86
7356.081
7360.479
7365.008
7369.746
7374.583
7379.528
7384.428
7389.273
7394.35
7400.366
7406.791
7408.873
7407.783
7408.786
7412.75
7417.94
7422.454
7424.883
7425.762
7424.755
7421.907
7422.286
7422.65
7422.338
7422.773
7424.671
7430.241
7437.04
7446.177
7453.298
7459.437
7465.125
7467.582
7468.465
7468.085
7466.457
7464.027
7461.449
7458.721
7455.984
7453.201
7450.386
7447.47
7444.265
7440.789
7437.112
7432.593
7427.332
7422.707
7418.525
7414.419
7410.231
7405.813
7401.253
7396.492
7391.604
7386.593
7381.513
7376.414
7371.259
7365.995
7360.456
7354.706
7348.732
7342.599
7336.088
7329.11
7321.742
7314.008
7305.622
7295.914
7284.681
7272.575
7258.993
7243.881
7232.152
7222.77
2963.766
2982.328
2975.962
2919.395
2885.11
2835.445
2847.55
2846.339
2846.526
2837.515
2761.634
2752.892
2745.361
2720.498
2766.64
2783.349
2787.197
2799.118
2814.3
2815
2815.312
2841.708
2896.649
2990.314
3118.482
3277.491
3453.527
3626.033
3755.648
3909.105
4056.907
4174.911
4295.765
4386.278
4448.45
4491.902
4521.816
4540.094
4546.402
4544.357
4541.256
4532.714
4521.742
4496.98
4465.118
4431.217
4405.811
4388.55
4369.213
4346.573
4320.592
4288.035
4247.091
4198.969
4159.465
4143.889
4121.832
4100.497
4125.881
4185.582
4275.353
4374.868
4482.52
4607.538
4733.818
4851.325
4938.819
4999.99
5041.592
5057.982
5059.305
5060.533
5085.844
5123.187
5156.568
5175.817
5183.045
5180.026
5155.682
5103.275
5032.755
4960.884
4933.367
4949.854
4970.741
4986.115
4995.145
4982.045
4931.096
4862.787
4789.143
4712.067
4625.743
4524.598
4410.691
4280.375
4140.77
4013.461
3911.1
3848.99
3831.762
3851.346
3904.313
3989.599
4099.829
4230.898
4380.557
4529.488
4668.545
4797.305
4906.082
4991.595
5052.251
5085.965
5100.082
5100.964
5088.783
5073.28
5057.18
5045.408
5043.635
5058.446
5094.293
5138.099
5190.473
5253.624
5320.457
5393.102
5465.454
5535.057
5604.85
5672.983
5735.423
5791.358
5841.177
5885.842
5925.534
5949.815
5968.336
5980.993
5984.064
5990.905
5978.093
5893.158
5751.311
5594.678
5445.423
5295.876
5138.677
4985.689
4844.53
4715.829
4600.269
4500.686
4427.809
4387.602
4381.224
4397.853
4441.611
4505.311
4587.325
4685.306
4797.905
4920.696
5048.494
5177.446
5302.353
5421.233
5534.029
5642.003
5745.571
5845.041
5938.485
6022.815
6092.959
6145.25
6181.651
6203.258
6214.716
6219.58
6220.038
6217.989
6210.262
6194.178
6168.341
6139.934
6104.558
6064.436
6030.571
6008.645
5990.929
5963.883
5923.313
5889.061
5876.978
5882.696
5897.002
5911.883
5923.063
5928.744
5930.274
5931.192
5932.595
5931.559
5925.04
5912.568
5896.119
5878.425
5861.111
5843.909
5826.218
5807.136
5786.398
5764.342
5741.248
5718.343
5695.352
5676.256
5670.27
5670.639
5669.845
5674.567
5685.624
5704.713
5720.757
5740.353
5769.323
5792.344
5812.341
5828.481
5843.831
5859.152
5873.108
5885.543
5896.658
5906.617
5915.306
5922.497
5928.432
5933.424
5938.262
5946.447
5960.983
5967.388
5963.437
5970.317
5981.334
5985.605
5985.894
5986.789
5989.295
5992.405
5997.708
6003.229
6007.326
6013.451
6018.858
6022.647
6026.119
6034.769
6038.494
6035.886
6032.46
6028.864
6029.549
6029.286
6029.021
6028.49
6030.546
6037.209
6045.054
6052.625
6059.405
6066.18
6071.651
6076.225
6080.36
6084.621
6089.041
6093.563
6098.039
6102.527
6107.228
6112.254
6117.32
6122.264
6126.937
6131.644
6135.842
6139.63
6143.7
6148.158
6153.353
6159.081
6165.233
6171.961
6179.236
6186.987
6195.312
6204.075
6212.587
6221.071
6227.024
6232.137
6238.803
6246.524
6254.336
6261.985
6269.565
6277.291
6285.337
6293.912
6303.191
6313.121
6323.439
6333.96
6344.604
6355.239
6365.866
6376.278
6386.414
6396.406
6406.358
6416.441
6426.65
6436.983
6447.448
6458.202
6469.105
6479.984
6490.856
6501.654
6512.295
6522.657
6532.555
6542.3
6552.063
6561.997
6571.846
6581.582
6591.481
6601.301
6611.298
6622.04
6633.792
6646.555
6660.714
6675.684
6690.018
6703.407
6715.635
6727.644
6739.601
6751.774
6763.732
6774.547
6784.788
6794.466
6803.653
6812.73
6822.147
6831.353
6840.889
6851.128
6862.167
6874.145
6886.562
6898.815
6910.75
6922.433
6933.484
6943.562
6952.874
6961.734
6970.191
6978.399
6986.596
6994.533
7002.533
7010.921
7019.787
7029.228
7039.015
7048.406
7057.215
7065.086
7071.615
7076.594
7080.897
7084.395
7087.792
7090.961
7093.843
7097.443
7101.309
7105.214
7109.296
7113.447
7117.8
7122.251
7126.743
7131.212
7135.741
7140.403
7145.359
7150.308
7155.133
7160.398
7162.458
7163.53
7166.932
7170.797
7174.139
7176.633
7177.837
7179.184
7180.641
7180.283
7180.749
7181.972
7182.952
7183.969
7186.373
7190.961
7195.788
7201.637
7206.83
7211.073
7215.299
7219.16
7221.21
7221.976
7221.498
7219.813
7217.227
7214.282
7211.398
7208.55
7205.666
7202.685
7199.455
7195.913
7191.929
7187.53
7182.744
7178.126
7173.752
7169.524
7165.282
7160.867
7156.3
7151.556
7146.704
7141.729
7136.67
7131.578
7126.418
7121.122
7115.674
7109.99
7103.972
7097.808
7091.33
7084.541
7077.597
7070.454
7062.493
7053.944
7044.528
7033.979
7022.993
7012.03
7003.967
6996.587
2777.549
2803.022
2906.038
2767.222
2746.349
2702.935
2712.538
2715.544
2703.449
2695.2
2685.492
2692.415
2675.252
2626.005
2608.273
2562.54
2492.792
2452.234
2450.479
2395.34
2353.333
2338.228
2338.406
2348.063
2415.741
2529.665
2526.846
2492.792
2567.445
2587.247
2561.446
2572.821
2619.032
2700.499
2824.978
2984.141
3147.109
3306.217
3463.107
3613.789
3754.12
3877.488
3985.4
4074.75
4136.537
4177.139
4206.652
4224.871
4228.983
4229.106
4229.19
4224.996
4211.369
4193.768
4168.235
4137.898
4110.853
4091.557
4071.298
4043.715
4006.363
3967.349
3954.232
3932.67
3883.207
3835.128
3808.963
3803.68
3833.245
3901.199
3999.818
4129.818
4257.79
4374.262
4498.113
4622.99
4721.458
4789.728
4838.697
4857.688
4852.768
4848.352
4860.054
4900.474
4935.759
4950.328
4951.784
4944.453
4916.009
4864.041
4792.165
4728.948
4701.45
4701.794
4706.276
4716.197
4716.821
4692.434
4643.371
4579.402
4511.254
4434.288
4343.863
4233.955
4106.757
3960.905
3808.542
3674.192
3576.624
3521.727
3508.796
3532.528
3595.499
3691.018
3811.452
3951.582
4106.835
4266.947
4414.247
4548.207
4662.804
4755.044
4818.626
4852.464
4863.365
4856.736
4838.349
4813.923
4787.231
4764.629
4752.536
4761.145
4790.189
4835.691
4893.998
4961.608
5034.71
5110.366
5186.205
5259.652
5331.392
5402.171
5469.75
5531.478
5585.258
5632.824
5671.364
5701.949
5720.543
5728.624
5727.809
5717.05
5701.037
5625.446
5490.191
5325.551
5171.572
5012.877
4846.181
4689.735
4546.104
4412.317
4290.186
4186.952
4113.521
4075.551
4069.159
4096.416
4146.036
4214.333
4298.776
4398.33
4510.881
4633.29
4761.796
4891.518
5017.556
5136.046
5245.679
5348.255
5445.587
5540.012
5632.862
5719.965
5797.152
5858.24
5900.139
5927.261
5942.717
5949.217
5947.585
5941.234
5928.762
5910.631
5883.643
5853.428
5814.936
5771.692
5741.106
5720.803
5703.21
5683.973
5660.94
5639.9
5630.711
5637.274
5650.418
5663.093
5670.387
5675.224
5680.082
5684.073
5684.548
5681.459
5674.231
5662.388
5646.735
5629.214
5611.526
5594.074
5576.089
5556.548
5534.886
5512.108
5488.03
5465.289
5443.231
5421.362
5410.733
5412.813
5417.874
5425.15
5437.447
5458.113
5479.131
5501.33
5527.978
5545.437
5559.522
5578.123
5597.026
5614.611
5629.172
5641.237
5651.198
5660.374
5668.684
5675.901
5681.211
5687.897
5699.317
5708.952
5718.27
5719.883
5715.74
5720.054
5731.114
5738.633
5739.28
5739.529
5742.621
5749.205
5758.57
5761.292
5760.621
5767.335
5774.764
5776.874
5777.745
5780.822
5781.479
5780.916
5781.86
5783.146
5787.316
5792.511
5792.496
5789.132
5789.085
5791.264
5795.11
5802.428
5808.959
5815.452
5822.988
5829.687
5834.717
5839.023
5843.004
5847.078
5851.363
5855.813
5860.471
5865.394
5870.364
5875.248
5880.05
5885.027
5889.138
5892.529
5896.914
5901.935
5907.557
5913.556
5920.004
5926.64
5933.065
5939.56
5947.638
5956.622
5964.705
5972.025
5978.974
5985.871
5993.036
6000.412
6008.176
6016.186
6024.123
6032.129
6040.319
6048.892
6058.042
6067.766
6077.732
6087.873
6098.234
6108.607
6118.923
6129.204
6139.429
6149.617
6159.803
6170.055
6180.323
6190.614
6200.974
6211.584
6222.327
6233.07
6243.715
6254.204
6264.417
6274.194
6283.592
6292.488
6301.27
6310.309
6319.862
6330.382
6341.72
6353.008
6364.399
6376.198
6388.811
6402.62
6416.74
6430.753
6444.332
6457.54
6470.498
6482.372
6493.161
6503.871
6515.881
6527.532
6537.984
6547.95
6557.722
6567.588
6577.388
6587.057
6597.009
6607.524
6618.717
6630.43
6642.28
6654.009
6665.502
6676.548
6686.933
6696.726
6706.143
6715.314
6724.267
6732.943
6741.346
6749.498
6757.835
6766.588
6775.868
6785.334
6794.564
6803.227
6811.321
6818.698
6825.203
6830.551
6834.927
6839.024
6843.067
6847.061
6850.585
6854.468
6858.477
6862.621
6866.805
6871.332
6875.856
6880.444
6884.907
6889.431
6894.111
6898.669
6903.301
6908.424
6912.756
6916.479
6919.095
6921.706
6925.151
6928.255
6931.109
6933.774
6935.714
6937.148
6938.217
6938.76
6939.749
6941.22
6942.717
6944.077
6946.479
6950.056
6954.059
6958.542
6962.766
6965.899
6969.461
6972.519
6973.063
6972.929
6972.865
6972.235
6970.873
6968.781
6966.031
6963.108
6960.183
6957.308
6954.288
6950.603
6946.628
6942.268
6937.964
6933.63
6929.059
6924.609
6920.226
6915.893
6911.37
6906.692
6901.871
6896.897
6891.775
6886.566
6881.425
6876.121
6870.631
6864.945
6859.014
6852.975
6846.772
6840.207
6833.313
6825.982
6818.401
6810.725
6802.788
6794.742
6786.506
6779.39
6772.799
6765.817
2563.24
2532.55
2533.595
2538.501
2538.583
2538.271
2530.311
2500.888
2472.643
2451.743
2358.128
2384.958
2408.068
2418.113
2419.528
2403.291
2391.895
2387.4
2268.766
2256.788
2281.926
2271.867
2241.295
2156.96
2066.764
2022.713
2027.659
2044.646
2072.002
2092.638
2141.194
2213.314
2240.57
2290.249
2324.213
2285.368
2284.715
2319.085
2399.463
2518.75
2678.83
2837.066
2987.693
3140.179
3291.585
3428.004
3546.477
3648.061
3729.8
3786.33
3819.422
3839.868
3856.357
3869.854
3881.54
3888.257
3889.112
3877.509
3857.864
3831.43
3805.592
3779.79
3763.639
3751.306
3739.76
3712.489
3660.949
3636.28
3627.063
3598.466
3577.299
3566.147
3566.976
3606.123
3675.557
3775.865
3890.367
4000.842
4128.212
4287.084
4447.985
4539.043
4577.095
4619.509
4645.115
4647.367
4647.875
4663.572
4700.845
4730.685
4739.898
4734.054
4723.898
4695.007
4645.302
4577.236
4509.718
4461.539
4448.711
4456.94
4456.362
4445.005
4413.793
4361.369
4299.625
4232.73
4154.545
4060.62
3944.3
3812.699
3666.541
3512.898
3380.766
3290.002
3241.702
3236.181
3265.614
3329.605
3429.825
3554.404
3697.312
3854.782
4017.442
4168.797
4302.733
4418.06
4512.348
4578.665
4613.142
4619.962
4606.989
4579.778
4543.378
4505.381
4471.278
4449.222
4452.238
4481.047
4529.03
4591.219
4665.347
4744.35
4823.928
4903.397
4982.433
5058.356
5131.49
5201.246
5264.935
5322.315
5372.818
5412.28
5444.527
5462.547
5466.567
5464.815
5451.498
5412.281
5357.678
5227.438
5062.123
4898.545
4739.466
4567.263
4403.004
4257.186
4122.24
3997.114
3891.42
3817.945
3783.383
3785.474
3816.101
3870.651
3942.686
4029.33
4129.623
4241.375
4361.684
4487.704
4616.391
4742.574
4860.512
4967.841
5066.216
5158.655
5244.937
5336.066
5423.842
5505.495
5572.653
5621.816
5649.001
5664.648
5670.94
5668.522
5660.697
5645.516
5623.897
5593.866
5556.41
5512.961
5469.46
5437.197
5420.922
5415.31
5410.674
5400.534
5385.654
5383.976
5396.725
5404.759
5410.427
5417.917
5426.061
5430.739
5432.536
5433.526
5431.541
5424.004
5410.326
5393.463
5375.616
5358.584
5341.714
5323.95
5304.171
5281.819
5258.025
5233.907
5210.631
5192.49
5172.317
5155.32
5149.908
5156.293
5165.667
5181.907
5203.889
5231.156
5264.068
5287.457
5300.289
5312.39
5332.561
5353.284
5371.409
5386.619
5399.145
5409.241
5416.671
5421.709
5427.584
5438.736
5450.798
5460.441
5465.087
5468.525
5470.839
5470.985
5472.49
5477.828
5485.343
5489.163
5493.48
5500.947
5508.093
5512.61
5514.954
5516.954
5521.392
5525.961
5528.259
5529.471
5530.165
5532.803
5535.484
5535.588
5536.689
5538.679
5542.672
5545.481
5545.561
5546.756
5549.459
5552.97
5557.548
5561.397
5566.157
5572.492
5580.371
5588.141
5593.504
5597.682
5601.306
5605.02
5609.315
5614.177
5619.126
5624.099
5628.983
5633.776
5638.419
5642.762
5647.116
5651.809
5656.819
5661.877
5667.536
5674.331
5681.467
5687.993
5694.409
5701.631
5709.64
5718.26
5726.147
5733.089
5740.117
5747.801
5755.415
5762.376
5769.887
5777.953
5786.151
5794.542
5803.207
5812.285
5821.814
5831.56
5841.491
5851.653
5861.97
5872.257
5882.486
5892.658
5902.874
5913.114
5923.351
5933.687
5944.088
5954.526
5965.03
5975.694
5986.368
5996.938
6007.421
6017.889
6028.299
6038.624
6048.717
6058.854
6069.328
6080.113
6090.855
6101.649
6112.655
6123.978
6135.557
6147.499
6159.821
6172.501
6185.545
6198.534
6211.461
6224.112
6236.132
6246.856
6256.988
6268.68
6280.696
6292.262
6303.205
6313.554
6323.578
6333.538
6343.515
6353.778
6364.424
6375.38
6386.605
6397.945
6409.255
6420.304
6430.916
6441.152
6451.195
6460.941
6470.391
6479.578
6488.405
6497.029
6505.567
6514.063
6522.569
6531.263
6540.037
6548.702
6556.956
6564.71
6571.925
6578.496
6584.116
6589.011
6593.845
6598.35
6602.943
6607.084
6611.455
6615.45
6619.549
6623.931
6629.028
6633.998
6638.577
6642.814
6647.287
6652.129
6656.662
6660.715
6665.03
6669.017
6672.689
6675.905
6678.972
6682.091
6685.034
6687.826
6690.362
6692.421
6694.178
6695.731
6697.021
6698.427
6700.05
6701.804
6703.603
6705.966
6708.978
6712.344
6715.91
6719.358
6722.391
6725.714
6727.639
6726.928
6725.861
6725.577
6725.405
6724.561
6722.914
6720.54
6717.904
6715.111
6712.722
6709.841
6705.705
6701.628
6697.724
6693.729
6689.53
6684.836
6680.118
6675.579
6671.102
6666.472
6661.781
6656.904
6651.967
6646.958
6641.976
6636.579
6631.003
6625.402
6619.824
6614.196
6608.536
6602.488
6596.015
6589.481
6582.632
6575.809
6568.988
6562.215
6555.356
6548.596
6543.045
6537.829
6532.531
2313.138
2282.667
2220.097
2221.667
2222.941
2217.219
2195.763
2155.687
2107.779
2077.656
2086.181
2139.93
2197.382
2242.264
2244.716
2224.485
2188.14
2137.366
2075.911
2045.703
2024.81
1983.668
1924.189
1845.91
1784.564
1741.064
1749.262
1769.364
1799.723
1820.688
1846.193
1908.575
2046.78
2032.333
2015.784
2022.423
2029.184
2057.323
2125.497
2235.741
2374.527
2521.48
2666.723
2808.074
2947.133
3078.726
3189.944
3280.912
3347.367
3388.538
3402.133
3408.412
3416.289
3432.892
3451.961
3472.818
3478.578
3472.076
3459.821
3439.183
3414.594
3393.179
3383.685
3388.076
3389.966
3385.649
3387.664
3365.035
3345.979
3345.336
3353.842
3352.971
3326.557
3334.744
3412.027
3525.907
3656.9
3799.781
3941.618
4070.803
4193.643
4280.798
4349.993
4428.408
4472.955
4481.282
4480.506
4494.938
4521.12
4538.445
4538.02
4525.265
4510.268
4484.363
4442.694
4391.769
4338.151
4300.473
4265.981
4246.049