/*--------------------------------*- C++ -*----------------------------------*\
| =========                 |                                                 |
| \\      /  F ield         | foam-extend: Open Source CFD                    |
|  \\    /   O peration     | Version:     3.1                                |
|   \\  /    A nd           | Web:         http://www.extend-project.de       |
|    \\/     M anipulation  |                                                 |
\*---------------------------------------------------------------------------*/
FoamFile
{
    version     2.0;
    format      ascii;
    class       surfaceScalarField;
    location    "7.5";
    object      phi;
}
// * * * * * * * * * * * * * * * * * * * * * * * * * * * * * * * * * * * * * //

dimensions      [0 3 -1 0 0 0 0];

internalField   nonuniform List<scalar> 
275122
(
-1.083037e-05
1.14393e-05
-4.515258e-07
-1.573968e-07
-1.157486e-05
1.230922e-05
-1.721456e-07
-5.622179e-07
-1.84171e-05
2.013757e-05
-1.24409e-07
-1.59606e-06
-2.67517e-05
2.736965e-05
-5.682636e-08
-5.611174e-07
-2.845369e-05
2.967725e-05
3.415267e-09
-1.22697e-06
-3.643678e-05
3.797401e-05
1.447332e-08
-1.551701e-06
-3.936994e-05
3.923879e-05
-3.237222e-08
1.635215e-07
-3.406004e-05
3.11118e-05
-9.081811e-10
2.949146e-06
-1.67061e-05
1.166693e-05
2.182714e-07
4.8209e-06
6.353855e-06
-1.251846e-05
1.068895e-07
6.05772e-06
2.854859e-05
-3.347847e-05
-1.790767e-07
5.108953e-06
4.740652e-05
-5.184337e-05
-1.150449e-07
4.551892e-06
6.348951e-05
-6.740643e-05
-4.676535e-08
3.963684e-06
7.675632e-05
-7.973515e-05
-7.163587e-09
2.985996e-06
8.679877e-05
-8.856968e-05
-6.09879e-09
1.777003e-06
9.356053e-05
-9.511224e-05
-1.389048e-07
1.69061e-06
9.830466e-05
-9.84162e-05
-4.107098e-08
1.526103e-07
0.0001018407
-0.0001017146
-1.444062e-07
1.833709e-08
0.0001035893
-0.0001030754
-1.812909e-07
-3.325328e-07
0.0001036624
-0.0001040136
-1.815954e-07
5.327411e-07
0.0001119014
-0.0001172871
1.751063e-07
5.21055e-06
0.0001216915
-0.0001217365
5.819606e-08
-1.32135e-08
0.000120054
-0.0001200127
8.127758e-08
-1.226452e-07
0.0001300261
-0.0001332339
1.290249e-07
3.078858e-06
0.0001342863
-0.0001332464
-9.070251e-08
-9.492278e-07
0.0001249846
-0.0001196407
1.013321e-07
-5.445211e-06
0.00010596
-0.0001014055
-1.122746e-07
-4.44222e-06
8.33319e-05
-7.613745e-05
-6.941065e-08
-7.125036e-06
5.399919e-05
-4.758931e-05
-2.693525e-08
-6.382949e-06
-3.94145e-06
3.837843e-06
-3.73445e-08
1.409517e-07
4.794302e-05
-5.795186e-05
-2.629319e-07
1.027176e-05
8.915375e-05
-0.0001042755
-2.447081e-07
1.536644e-05
0.0001226508
-0.0001270336
1.354091e-07
4.247362e-06
0.0001513093
-0.0001580417
9.887444e-08
6.633558e-06
0.0001751629
-0.0001813362
-3.24009e-07
6.49727e-06
0.0001969862
-0.0002010741
-1.271159e-07
4.21498e-06
0.000213272
-0.0002172861
9.794477e-08
3.916172e-06
0.0002269943
-0.0002283265
1.151834e-07
1.217037e-06
0.0002326024
-0.0002350145
-4.006993e-07
2.812856e-06
0.0002626085
-0.0002728716
-4.135498e-07
1.067667e-05
-5.793294e-06
0.0001626042
-0.0001580609
-1.949346e-07
1.444949e-06
-2.129244e-06
0.0001500165
-0.0001485078
-8.708521e-08
7.075857e-07
-1.549394e-06
0.0001404954
-0.0001363842
-1.940959e-08
-2.542454e-06
-9.53873e-07
0.0001278365
-0.0001251464
7.867234e-08
-1.814903e-06
1.650865e-07
0.0001174045
-0.0001150313
9.874766e-08
-2.637092e-06
-1.520074e-07
0.0001065732
-0.0001031618
1.574246e-07
-3.416781e-06
1.450716e-06
9.491487e-05
-9.336721e-05
3.366082e-07
-3.334988e-06
8.772244e-07
8.949275e-05
-8.832459e-05
5.743778e-07
-2.61976e-06
-7.015837e-06
9.007323e-05
-8.725604e-05
-5.436976e-08
4.253017e-06
-2.622779e-06
0.0003235663
-0.0003272452
-7.50496e-07
1.467842e-05
-1.592281e-06
-4.392751e-06
-1.641173e-06
8.13565e-07
0.0003244741
-0.0003207185
2.322147e-07
-6.794922e-06
4.225759e-07
4.178448e-07
1.153046e-06
-1.066252e-07
0.0003107456
-0.0002981907
3.73069e-07
-1.14343e-05
-3.619445e-07
-4.719055e-07
-5.532036e-07
2.795602e-07
0.0002771362
-0.0002610446
7.801846e-07
-1.796287e-05
2.843762e-07
2.420891e-07
2.850516e-07
1.250789e-07
0.0002448757
-0.0002376445
5.025553e-07
-7.493927e-06
-2.487822e-07
1.886839e-07
-3.047841e-07
-2.887825e-07
0.0002225492
-0.000216928
1.734252e-07
-5.418687e-06
2.290988e-07
-4.696109e-07
1.534205e-07
3.502983e-06
0.0002126379
-0.0001876527
3.23614e-07
-4.129114e-05
4.325892e-06
3.545493e-06
4.60801e-06
4.569191e-06
0.0001562806
-0.0001359529
4.357369e-07
-3.932308e-05
4.758644e-06
4.486706e-06
4.745035e-06
3.054902e-06
0.0001108528
-8.809745e-05
1.565034e-07
-3.279692e-05
1.92724e-06
3.068226e-06
1.83468e-06
1.436941e-05
4.696996e-05
-4.67022e-05
-5.245457e-07
-4.499665e-05
7.30314e-06
1.605262e-05
7.528269e-06
6.811274e-06
2.665414e-05
-9.276905e-06
-2.547093e-08
-4.330885e-05
4.228605e-06
6.691298e-06
8.225912e-06
5.154284e-06
-5.80272e-06
2.95858e-05
-1.128049e-07
-4.066249e-05
4.052595e-06
6.267246e-06
1.518098e-06
2.306121e-06
-4.878582e-05
7.338413e-05
-3.946454e-07
-4.21822e-05
4.873101e-06
8.22389e-06
2.575425e-06
9.19257e-06
-9.315629e-05
0.000109794
-3.391877e-07
-5.03618e-05
9.112636e-06
9.05576e-06
6.702352e-06
8.924798e-06
-0.0001279881
0.0001472105
-4.232168e-07
-5.163804e-05
5.882948e-06
9.228481e-06
8.802576e-06
9.942701e-06
-0.0001666059
0.00018423
-8.894243e-07
-5.528985e-05
1.015681e-05
9.22314e-06
9.232553e-06
4.509772e-06
-0.0002012054
0.0002242682
-8.411947e-07
-4.205283e-05
5.430749e-06
4.566839e-06
5.323871e-06
-1.483237e-06
-0.000243823
0.0002649277
-2.927874e-07
-1.708089e-05
1.430242e-06
-1.133115e-06
-2.544892e-06
-3.31553e-06
-0.0002875852
0.000300155
-3.229271e-07
-4.764725e-06
1.589562e-06
-5.138814e-06
-6.17376e-07
-2.592116e-05
-0.0003349267
0.0003666282
5.107063e-07
-6.291129e-06
3.062887e-06
-0.0003781794
0.0003866221
2.552366e-07
-1.176087e-05
-1.780066e-06
-0.000386897
0.0003872955
-6.312006e-07
2.01272e-06
2.132487e-06
-0.0003773585
0.0003542978
-2.355701e-06
2.328389e-05
1.948901e-05
-0.0003292188
0.0002970101
1.380913e-06
1.133873e-05
4.173758e-05
-0.0002583746
0.0002439366
5.91316e-07
-2.789091e-05
-2.401627e-05
-0.0002189427
0.0001853859
-1.720165e-06
5.929316e-05
-8.4723e-05
-0.0001451841
9.854562e-05
-4.412488e-07
0.0001318027
-0.000100132
-5.437611e-05
-3.627752e-06
1.812952e-06
0.0001563229
-9.073425e-05
5.008832e-05
-0.0001049877
-5.148395e-07
0.0001461484
-8.075703e-05
0.0001443448
-0.0001939003
-1.011189e-06
0.0001313238
-7.226033e-05
0.0002269626
-0.000265394
-3.948243e-07
0.0001110865
-6.097804e-05
0.0002951892
-0.0003257922
-8.317561e-08
9.16642e-05
-4.967697e-05
0.0003489319
-0.0003732418
-2.350283e-07
7.422193e-05
-4.146021e-05
0.0003925069
-0.0004121551
-2.787965e-07
6.138723e-05
-2.905667e-05
0.0004333347
-0.0004540629
-2.117861e-07
4.999669e-05
-2.642336e-05
0.0004670451
-0.0004826149
-2.359767e-07
4.222906e-05
-1.716409e-05
0.0004989297
-0.0005152788
3.66943e-08
3.347649e-05
-1.305531e-05
0.000526601
-0.0005384456
6.862283e-07
2.421365e-05
-7.302874e-06
0.0005494309
-0.0005583837
9.937101e-07
1.526196e-05
-1.550285e-05
0.0005578836
-0.0005517177
1.29376e-06
8.043204e-06
-3.208344e-06
0.0005492739
-0.0005440627
8.358654e-07
-2.838756e-06
1.30023e-05
0.0005408678
-0.0005389359
4.941445e-08
-1.498362e-05
9.650758e-06
0.0005323115
-0.0005123311
-1.685703e-07
-2.946253e-05
2.732986e-05
0.0004996307
-0.0004859987
-2.236939e-07
-4.073817e-05
4.295131e-05
0.0004685341
-0.000454746
-6.7152e-08
-5.667226e-05
7.366608e-05
0.0004403807
-0.0004277334
-6.325953e-07
-8.568079e-05
8.798692e-05
0.0004183646
-0.0004039104
2.028046e-08
-0.0001024613
5.998894e-05
0.0003907703
-0.0003557851
2.250478e-07
-9.519926e-05
1.473592e-05
0.0003139006
-0.0002820621
5.50185e-07
-7.301798e-05
5.742086e-06
9.541676e-06
1.060957e-05
4.194928e-06
0.0002315662
-0.0001790734
-9.446283e-08
-7.350459e-05
5.370649e-06
3.225936e-06
8.314697e-06
1.628058e-05
0.0001499802
-0.0001152443
1.428944e-07
-9.888656e-05
1.568259e-05
1.533585e-05
1.670875e-05
1.165738e-05
8.535895e-05
-3.544292e-05
9.699253e-07
-0.0001001536
7.808714e-06
1.208013e-05
1.772144e-05
8.747257e-06
-2.821856e-05
6.914961e-05
3.949549e-07
-0.0001160139
2.282736e-05
1.713704e-05
2.597625e-05
1.096764e-05
-0.000102939
0.000154062
-1.181275e-07
-0.0001208406
1.599759e-05
2.145238e-05
2.141806e-05
2.013435e-05
-0.0001999925
0.000245415
-3.39509e-07
-0.0001269889
2.002568e-05
2.09839e-05
2.076203e-05
2.150406e-05
-0.0002907897
0.0003350085
2.624599e-07
-0.0001251729
1.887459e-05
1.952644e-05
2.07865e-05
1.183273e-05
-0.00038593
0.0004325923
5.427822e-07
-0.0001037553
1.178999e-05
1.623026e-05
1.669726e-05
1.250451e-05
-0.0004764563
0.0005202127
2.333527e-07
-9.27159e-05
1.310276e-05
1.10199e-05
1.209899e-05
1.050007e-05
-0.0005594127
0.0005965989
1.39391e-07
-7.559307e-05
1.039853e-05
9.963742e-06
7.405203e-06
6.479978e-06
-0.0006303949
0.0006640223
3.893432e-08
-5.552409e-05
4.449001e-06
6.250619e-06
4.678209e-06
4.833994e-06
-0.0006899569
0.0007117338
5.723969e-08
-3.640012e-05
3.539601e-06
3.574461e-06
2.61787e-06
4.960303e-06
-0.0007244142
0.0007218183
2.573313e-07
-1.72056e-05
3.131374e-06
4.244471e-06
7.20802e-06
1.489488e-06
-0.0007104988
0.0007002115
3.265914e-07
-1.439907e-06
3.129827e-06
4.113677e-06
2.667704e-06
2.14405e-06
-0.0006764885
0.0006598897
-3.794411e-07
1.436051e-05
7.363424e-07
6.180598e-07
-8.8074e-07
-2.31765e-06
-0.0006515845
0.000640495
-2.42654e-07
1.771602e-05
-3.110712e-06
1.380139e-07
-1.093543e-06
-3.716543e-06
-0.0006314319
0.0006188396
-4.258297e-07
2.528823e-05
-3.855557e-06
-2.276502e-06
-2.421497e-06
-3.468876e-06
-0.0006098433
0.0005972967
-4.815398e-07
2.750314e-05
-4.259397e-06
-3.754923e-06
-2.991823e-06
-5.021113e-06
-0.0005824854
0.0005693459
9.375833e-08
3.05448e-05
-4.245909e-06
-3.803761e-06
-4.428253e-06
-4.509685e-06
-0.0005600541
0.0005444518
1.837548e-07
3.183677e-05
-3.784757e-06
-3.778837e-06
-4.34499e-06
-5.686372e-06
-0.0005282888
0.0005115306
-3.302193e-07
3.969256e-05
-5.168303e-06
-5.373154e-06
-6.376292e-06
-5.073745e-06
-0.0004997933
0.0004817354
-9.062992e-07
4.290849e-05
-4.21162e-06
-6.618894e-06
-8.040106e-06
-7.289795e-06
-0.0004587829
0.0004396813
-4.570709e-07
4.673472e-05
-7.301034e-06
-5.941243e-06
-6.643981e-06
-4.943084e-06
-0.0004297539
0.0004252343
6.03524e-07
2.282345e-05
-4.97228e-06
-4.163646e-06
-4.828365e-06
-4.799077e-06
0.0004199497
1.092662e-06
2.074532e-05
-5.331262e-06
-3.512922e-06
-3.858047e-06
-0.0004242863
-8.644503e-06
-0.0004093613
0.000381244
1.497015e-06
5.884047e-05
-9.362968e-06
-6.692013e-06
-7.520641e-06
-1.410111e-05
-0.0003432501
0.0003013553
1.967497e-07
9.954446e-05
-1.444953e-05
-1.456812e-05
-1.472762e-05
-1.186255e-05
-0.0002637013
0.0002299187
-6.94587e-07
8.970492e-05
-1.28634e-05
-1.508941e-05
-1.541237e-05
-6.74963e-06
-0.000204351
0.0001914778
-4.503871e-07
4.117116e-05
-7.523381e-06
-5.663224e-06
-7.911381e-06
-1.822834e-06
-0.0001884401
0.0001939501
4.221229e-07
1.124755e-07
-8.085693e-07
-2.167376e-06
-1.245794e-06
3.482395e-06
-0.0001994879
0.0002079121
6.396467e-07
-2.020293e-05
4.443881e-06
1.038913e-06
2.173876e-06
3.825277e-06
-0.0002139337
0.0002193034
4.678975e-07
-2.283435e-05
4.633639e-06
4.379627e-06
4.15819e-06
2.135973e-06
-0.0002267517
0.0002307882
1.631721e-07
-1.555491e-05
3.054593e-06
3.23116e-06
2.933525e-06
4.679388e-07
-0.0002340013
0.0002364962
-2.781032e-07
-4.870888e-06
3.618422e-07
1.307724e-06
5.166224e-07
1.338198e-07
-0.0002370414
0.0002367307
-4.784709e-07
4.741015e-07
-2.719809e-08
1.9208e-07
1.637535e-08
-3.40627e-07
-0.0002363903
0.0002363777
-4.308566e-07
2.218332e-06
-3.612162e-07
-5.089833e-07
-5.640718e-07
-4.276766e-07
-0.0002362127
0.0002362224
-2.101863e-07
2.994919e-06
-3.957024e-07
-8.492413e-07
-1.121821e-06
-1.018256e-06
-0.0002347603
0.0002334687
3.132223e-08
5.36247e-06
-1.15498e-06
-8.44838e-07
-1.084101e-06
-1.729982e-06
-0.000233698
0.0002326714
1.774531e-07
6.743314e-06
-7.958559e-07
-1.621063e-06
-1.747242e-06
-1.36575e-06
-0.0002277404
0.0002238391
2.91972e-07
1.246723e-05
-2.489854e-06
-2.671156e-06
-2.331152e-06
-2.560222e-06
-0.0002189156
0.0002113543
5.903308e-07
1.823419e-05
-7.754534e-07
-3.66898e-06
-4.258504e-06
-9.49091e-07
-0.0002016834
0.0001896985
6.141073e-07
1.624493e-05
-1.231729e-06
-1.222602e-06
-1.470754e-06
-3.762924e-06
-0.0001809397
0.0001787107
7.781262e-07
1.55659e-05
-3.86779e-06
-3.470298e-06
-3.013985e-06
-2.363377e-06
-0.0001759165
0.0001687066
9.896229e-07
1.712873e-05
-8.017981e-07
-4.474515e-06
-3.268707e-06
-3.603404e-06
-0.000161231
0.0001520911
2.804706e-07
2.144585e-05
-3.73765e-06
-3.768758e-06
-1.476682e-06
-1.742703e-06
-0.0001419784
0.0001311645
4.916443e-07
2.024603e-05
-1.770126e-06
-4.805617e-06
-1.605399e-06
-4.4826e-06
-0.0001221638
0.000115585
3.293437e-07
2.316678e-05
-4.655531e-06
-5.207171e-06
-2.572004e-06
-5.575217e-06
-0.0001076546
0.0001017988
2.599744e-07
2.548563e-05
-5.020842e-06
-5.733189e-06
-3.560483e-06
-5.96563e-06
-9.301984e-05
9.721636e-05
1.221963e-07
1.792764e-05
-6.191098e-06
-4.134762e-06
-5.954865e-06
-2.64184e-06
-8.133603e-05
7.289218e-05
1.523624e-06
1.698932e-05
-3.165034e-06
-2.855727e-06
-1.406492e-06
8.700903e-08
-6.756068e-05
5.783278e-05
1.413227e-06
7.750148e-06
5.957758e-07
1.547383e-07
-2.729945e-07
-1.646839e-06
-3.957433e-05
2.585477e-05
2.330852e-06
1.760668e-05
-1.879405e-06
-1.498251e-06
-1.193472e-06
-2.385288e-06
-1.14315e-05
1.759392e-06
-1.59763e-06
1.968654e-05
-2.48617e-06
-1.813413e-06
-1.731937e-06
-2.322389e-06
4.99582e-06
-1.23022e-05
-2.956473e-08
1.499562e-05
-2.00827e-06
-1.626082e-06
-1.702936e-06
-1.513182e-06
1.726679e-05
-1.68929e-05
-1.750415e-06
6.691114e-06
-1.305774e-06
-1.316244e-06
-1.179388e-06
-5.174542e-07
1.593983e-05
-1.193107e-05
-1.059357e-06
-1.502867e-06
-2.41897e-07
-4.951546e-07
-1.920248e-07
3.511058e-07
6.136567e-06
-7.215062e-06
-5.57667e-07
-1.156379e-06
8.321124e-07
7.757016e-07
8.336217e-07
1.917119e-06
-2.46027e-06
7.824023e-06
-1.659902e-06
-1.101008e-05
1.929189e-06
2.043585e-06
1.41634e-06
1.988957e-06
-7.982029e-06
1.414539e-05
-3.480347e-07
-1.150344e-05
1.009625e-06
1.731409e-06
9.581162e-07
2.320661e-06
-1.783009e-05
2.618532e-05
-6.502e-07
-1.437069e-05
1.505228e-06
1.347259e-06
1.492506e-06
2.954651e-06
-3.060747e-05
3.840743e-05
5.652805e-07
-1.725998e-05
1.998566e-06
1.920691e-06
2.020839e-06
2.084692e-06
-4.189033e-05
4.490519e-05
1.958564e-07
-1.083642e-05
1.978726e-06
2.087285e-06
1.474999e-06
1.097641e-06
-4.899674e-05
5.650868e-05
3.708733e-08
-1.271447e-05
1.012776e-06
1.427388e-06
1.627643e-06
1.143538e-06
-6.239038e-05
7.185757e-05
2.423534e-07
-1.432754e-05
1.271979e-06
1.076447e-06
1.126037e-06
2.215911e-06
-8.254599e-05
8.849399e-05
5.117233e-07
-1.411417e-05
1.824255e-06
1.481775e-06
2.132506e-06
1.315212e-06
-9.342738e-05
9.493693e-05
7.59728e-07
-7.042977e-06
1.342385e-06
1.007139e-06
1.108966e-06
6.539408e-07
-0.0001030717
0.0001120956
2.227884e-07
-1.209932e-05
6.91567e-07
7.789435e-07
7.282596e-07
9.430277e-07
-0.0001203128
0.0001278363
1.111359e-07
-1.162312e-05
9.844997e-07
1.005569e-06
1.055444e-06
1.420894e-06
-0.0001343191
0.0001408019
1.635133e-07
-1.219411e-05
1.424177e-06
1.618141e-06
1.084585e-06
9.859177e-07
-0.0001436951
0.0001475927
-6.488584e-08
-7.99968e-06
9.513432e-07
1.1934e-06
1.036331e-06
9.146552e-07
-0.000153295
0.0001574517
-1.023341e-07
-7.613713e-06
8.873939e-07
8.770787e-07
8.802394e-07
9.24442e-07
-0.0001612624
0.0001633237
1.517506e-07
-5.771664e-06
9.514881e-07
8.538205e-07
8.28851e-07
1.04769e-06
-0.0001647221
0.0001640571
1.955835e-07
-3.06712e-06
9.999104e-07
7.015723e-07
7.874274e-07
2.320507e-07
-0.0001633571
0.0001625349
2.109753e-07
-1.060694e-06
6.023927e-07
4.966859e-07
3.408059e-07
3.854958e-08
0.0001616258
1.229198e-08
-1.125296e-07
-0.0001616249
4.587918e-10
4.57639e-08
1.458564e-08
-1.636915e-07
-0.0001617523
0.0001618908
-9.525138e-08
5.824287e-07
-1.693325e-07
-1.391642e-07
-1.534278e-07
-1.599901e-07
-0.0001619888
0.0001616577
-1.506008e-07
1.063875e-06
-1.494558e-07
-1.386902e-07
-1.340416e-07
-1.033827e-07
-0.0001610365
0.0001602342
-1.529195e-07
1.34225e-06
-1.035155e-07
-9.645695e-08
-8.369497e-08
1.465848e-07
-0.0001599106
0.0001597821
-2.711025e-08
-2.773174e-07
1.614265e-07
1.644082e-07
-3.955111e-08
4.357425e-09
-0.0001598839
0.0001606338
-3.293088e-08
-4.406998e-07
-1.512667e-07
6.625595e-09
-1.359739e-07
-1.110338e-07
-0.0001632531
0.000166099
-1.243287e-08
-2.430271e-06
-9.676408e-08
-1.044889e-07
-9.093749e-08
-4.763113e-08
-0.0001689205
0.0001716458
3.474761e-08
-2.57595e-06
-4.349755e-08
-4.851302e-08
-4.4434e-08
3.386695e-08
-0.0001740215
0.0001765118
-1.906692e-08
-2.539993e-06
-2.116127e-08
2.334855e-08
3.270968e-08
3.353967e-08
-0.0001784804
0.000180345
2.93738e-08
-2.03259e-06
2.521477e-08
4.414604e-08
3.573184e-08
1.18492e-07
-0.0001819087
0.0001836616
4.687385e-08
-2.073908e-06
1.11813e-07
1.053514e-07
-6.155309e-08
7.17727e-07
-0.000186102
0.0001892413
-4.202997e-07
-5.033621e-06
1.020608e-06
2.352353e-07
3.410301e-07
1.318478e-06
-0.0002007846
0.0002180797
-1.092471e-06
-2.198059e-05
1.711939e-06
1.516367e-06
1.23125e-06
1.009622e-06
-0.000232532
0.000240854
-4.527135e-07
-1.373363e-05
1.740188e-06
2.007499e-06
1.107024e-06
1.860067e-06
-0.0002498679
0.0002483667
6.861411e-07
-6.331791e-06
2.882086e-06
1.424337e-06
9.804038e-07
9.195559e-07
-0.0002483363
0.0002465295
6.684131e-08
-3.219006e-06
1.773759e-06
1.406982e-06
8.586734e-07
3.741728e-07
-0.0002465031
0.000246963
-1.723304e-07
-2.425221e-06
8.422976e-07
6.523485e-07
2.688099e-07
-1.79874e-07
-0.0002480954
0.0002483279
2.402042e-08
-5.022591e-07
4.937703e-07
6.987233e-08
-1.380517e-07
-2.065795e-07
-0.0002491513
0.0002478483
4.249271e-07
3.619093e-07
6.702922e-07
7.733514e-08
-2.489218e-08
-9.440453e-08
-0.0002469059
0.0002434278
6.710137e-07
1.910681e-06
6.224423e-07
1.471201e-07
2.212265e-07
-2.586677e-07
-0.0002416338
0.0002391778
4.576898e-07
3.381014e-06
-4.825268e-08
-3.584765e-07
-7.173266e-07
-7.42709e-07
-0.0002385976
0.0002359404
2.146771e-07
4.806773e-06
-3.009843e-07
-5.10416e-07
-8.101813e-07
-9.470304e-07
-0.00023383
0.0002298895
1.275903e-07
7.0784e-06
-5.183008e-07
-7.429117e-07
-1.057192e-06
-1.281954e-06
-0.0002265791
0.000219882
4.944995e-07
1.099944e-05
-9.098382e-07
-1.128164e-06
-1.47697e-06
-4.285487e-06
-0.0002128986
0.0001925007
7.438655e-07
3.86046e-05
-4.755848e-06
-4.324683e-06
-5.584507e-06
-9.099362e-06
-3.930823e-05
4.083673e-05
1.153501e-07
7.455514e-06
1.662584e-06
-3.194832e-05
2.919164e-05
1.590318e-07
9.350657e-07
1.082256e-06
-3.06072e-05
3.061423e-05
2.603299e-07
-1.349615e-06
3.549184e-07
-2.950638e-05
2.934488e-05
2.502696e-07
-4.436802e-07
8.669692e-07
-3.097734e-05
3.333618e-05
2.276818e-07
-3.453494e-06
-7.699249e-07
-3.638607e-05
3.564216e-05
-9.961693e-07
2.510009e-06
9.638068e-07
-4.029276e-05
4.158963e-05
-3.93336e-07
-1.867347e-06
8.315495e-07
-4.513089e-05
4.546498e-05
-1.232441e-07
-1.042395e-06
7.007083e-09
-4.648345e-05
4.714845e-05
-1.128672e-07
-5.591475e-07
-3.18397e-08
-4.802649e-05
4.842482e-05
-7.10324e-08
-2.954543e-07
-1.333022e-07
-4.897153e-05
4.907445e-05
-1.146524e-07
1.450369e-07
-1.275811e-07
-4.97014e-05
4.987678e-05
-9.209579e-08
4.429343e-08
-1.23666e-07
-5.058891e-05
5.088828e-05
-7.493062e-08
-1.007667e-07
3.590295e-07
-5.132355e-05
5.179065e-05
3.352841e-09
-8.294855e-07
2.697086e-07
-5.384791e-05
5.506231e-05
2.754822e-08
-1.511651e-06
6.937749e-08
-5.628376e-05
5.655018e-05
-1.621459e-07
-1.736503e-07
-7.891039e-08
-5.747703e-05
5.782567e-05
-2.399701e-07
-2.976628e-08
-2.674249e-08
-5.970761e-05
6.050251e-05
-4.22725e-07
-3.454335e-07
-2.171615e-06
-6.213998e-05
6.308528e-05
-8.55789e-07
2.082102e-06
1.131773e-06
-6.378645e-05
6.634962e-05
-7.511292e-08
-3.619833e-06
3.242777e-07
-6.739481e-05
6.745743e-05
2.255546e-07
-6.124488e-07
-1.726502e-07
-6.802911e-05
6.807471e-05
1.110436e-07
1.600638e-08
-7.847979e-07
-6.768732e-05
6.739469e-05
1.126252e-08
1.066163e-06
-2.340726e-07
-6.503676e-05
6.621583e-05
1.677081e-07
-1.112704e-06
-9.385725e-08
-6.709654e-05
6.769689e-05
2.22467e-07
-7.289629e-07
-4.953089e-08
-6.768189e-05
6.753894e-05
2.848451e-07
-9.236278e-08
-5.72698e-07
-6.705161e-05
6.641385e-05
1.996656e-07
1.010784e-06
-7.050243e-07
-6.451155e-05
6.386732e-05
2.697691e-07
1.079486e-06
-5.786474e-07
-6.206041e-05
6.147794e-05
2.436382e-07
9.17475e-07
-2.543376e-07
-6.00627e-05
5.962481e-05
2.518914e-07
4.403349e-07
-3.733991e-07
-5.902811e-05
5.852403e-05
2.582341e-07
6.192447e-07
-2.484523e-07
-5.758877e-05
5.72905e-05
2.823468e-07
2.643696e-07
-6.620785e-08
-5.743011e-05
5.767463e-05
-1.008545e-07
-7.745459e-08
2.278106e-08
-5.911681e-05
5.988223e-05
-2.866389e-07
-5.015607e-07
4.400805e-08
-6.144068e-05
6.224046e-05
-3.012834e-07
-5.425054e-07
6.040464e-07
-6.529286e-05
6.552861e-05
-1.925613e-07
-6.472414e-07
3.010055e-07
-6.704446e-05
6.74231e-05
-2.00703e-07
-4.78941e-07
4.519295e-07
-6.823722e-05
6.861047e-05
-1.941914e-07
-6.309838e-07
4.13477e-07
-6.912121e-05
6.899563e-05
-1.791535e-07
-1.087477e-07
7.529216e-07
-7.086549e-05
7.099053e-05
-6.276923e-09
-8.716859e-07
2.479352e-07
-7.080384e-05
7.07425e-05
4.238089e-08
-2.289751e-07
4.619333e-08
-6.972414e-05
6.963169e-05
3.462249e-08
1.163112e-08
-1.263193e-08
-6.830099e-05
6.816752e-05
7.141749e-08
7.469016e-08
1.877361e-08
-6.671656e-05
6.619435e-05
8.982682e-08
4.136129e-07
3.711644e-08
-6.556384e-05
6.501897e-05
1.146496e-07
3.931027e-07
-4.828218e-08
-6.341185e-05
6.291963e-05
9.053012e-08
4.499725e-07
7.565823e-08
-6.179237e-05
6.159027e-05
1.111187e-07
1.531934e-08
2.01818e-07
-6.055047e-05
6.038602e-05
1.225823e-07
-1.599543e-07
2.560066e-07
-5.971951e-05
5.965752e-05
6.799706e-08
-2.620169e-07
3.908587e-07
-5.973049e-05
5.99386e-05
-5.096147e-08
-5.48008e-07
1.089319e-06
-6.103318e-05
6.178854e-05
-2.675496e-07
-1.577125e-06
2.05686e-07
-6.675278e-05
7.080647e-05
-6.306314e-07
-3.628738e-06
3.16746e-06
-7.111977e-05
7.296396e-05
2.135493e-07
-5.225202e-06
1.073911e-06
-7.493872e-05
7.629139e-05
3.096603e-07
-2.736246e-06
4.991874e-07
-7.713556e-05
7.751521e-05
8.748729e-08
-9.663248e-07
2.318698e-07
-7.731796e-05
7.718793e-05
7.51053e-08
-1.769482e-07
3.401905e-07
-7.687708e-05
7.661676e-05
9.248378e-08
-1.723591e-07
2.564759e-07
-7.624004e-05
7.614354e-05
1.293643e-08
-1.729101e-07
1.733312e-08
-7.532543e-05
7.51154e-05
9.187496e-09
1.835069e-07
7.663114e-07
-7.538284e-05
7.551553e-05
-2.202835e-08
-8.769722e-07
-3.102213e-07
-7.661649e-05
7.638648e-05
-1.10981e-07
6.512182e-07
4.971791e-07
-7.657041e-05
7.638093e-05
2.060013e-07
-5.137051e-07
3.51197e-08
-7.509325e-05
7.434532e-05
2.8052e-07
4.322936e-07
-1.310547e-07
-7.304622e-05
7.276387e-05
1.581396e-07
2.552636e-07
-2.391715e-08
-7.143248e-05
7.082573e-05
1.9061e-07
4.400552e-07
-4.883161e-08
-6.927912e-05
6.889121e-05
1.112558e-07
3.254846e-07
3.678118e-07
-6.81326e-05
6.811188e-05
5.150317e-09
-3.522425e-07
2.586464e-07
-6.979795e-05
7.008196e-05
-2.857286e-07
-2.569221e-07
7.694355e-07
-7.01904e-05
6.970992e-05
1.541692e-07
-4.431345e-07
-6.524961e-06
-6.428929e-05
6.325927e-05
2.37088e-08
7.53127e-06
3.136272e-06
-5.569756e-05
0.0002543921
-1.567458e-07
1.880131e-05
-4.540607e-06
3.931587e-06
-4.916082e-06
-5.21912e-05
-8.450275e-05
-7.825634e-05
-7.560409e-07
-0.0002440583
0.0002396738
-3.025703e-07
8.036752e-06
-8.081973e-07
-9.05689e-07
-8.797246e-07
-3.988797e-07
-0.0002343116
0.0002307996
-3.929036e-07
4.976578e-06
-1.483119e-07
-2.49549e-07
-2.749527e-07
-1.190836e-07
-0.0002286529
0.0002270638
-3.107181e-07
1.651002e-06
4.612319e-07
8.575502e-10
-9.419537e-08
3.096763e-08
-0.0002261516
0.0002236661
-5.428388e-08
1.659157e-06
6.573599e-07
2.117109e-07
-1.939324e-08
2.783795e-07
-0.0002209098
0.0002156491
4.630722e-07
3.338136e-06
7.895098e-07
3.250507e-07
6.651444e-08
8.155318e-07
-0.0002104065
0.0002008255
1.079658e-06
5.041444e-06
1.573329e-06
6.742799e-07
3.968079e-07
2.154328e-07
-0.0001930476
0.0001867132
6.155428e-07
4.049322e-06
6.95409e-07
5.899061e-07
1.687986e-07
-7.244988e-07
-0.0001831426
0.0001812177
-3.206942e-08
3.6681e-06
-1.586802e-07
-2.610688e-07
-5.668485e-07
-8.01556e-07
-0.0001802397
0.0001801301
-6.299706e-07
2.627409e-06
-2.559843e-07
-4.708987e-07
-3.593793e-07
1.51474e-06
-0.0001839379
0.0001839179
2.177464e-07
-5.812059e-06
2.20882e-06
1.22587e-06
6.648451e-07
1.034204e-06
-0.0001870102
0.0001924458
7.261665e-08
-1.082007e-05
1.680567e-06
1.755398e-06
8.417198e-07
1.050697e-06
-0.0002001156
0.0002071891
-1.409917e-07
-1.15044e-05
1.391977e-06
1.065334e-06
1.063919e-06
1.056299e-06
-0.0002143145
0.0002209617
5.456125e-08
-1.124921e-05
1.220664e-06
1.156244e-06
1.114233e-06
1.12743e-06
-0.0002271236
0.0002315867
5.627759e-07
-9.651369e-06
1.158104e-06
1.180013e-06
1.159925e-06
1.284177e-06
-0.0002350886
0.0002359075
1.144616e-06
-6.928214e-06
1.317441e-06
1.186918e-06
1.176115e-06
1.782476e-06
-0.0002344675
0.0002314273
1.522793e-06
-3.928617e-06
8.864716e-07
1.374986e-06
1.402096e-06
9.229085e-07
-0.0002273574
0.0002225087
1.516531e-06
-1.36873e-08
6.350327e-07
7.902711e-07
9.976959e-07
3.193276e-07
-0.000220314
0.0002172094
1.671462e-06
5.691964e-07
7.442199e-08
3.504204e-07
1.19755e-07
5.092939e-07
-0.0002135121
0.0002104082
9.891128e-07
5.317282e-07
3.765128e-07
3.146069e-07
3.825893e-07
2.196884e-07
-0.0002071472
0.0002044114
-1.52362e-07
1.908718e-06
2.418976e-07
3.029553e-07
2.149295e-07
-2.630544e-07
-0.0002022077
0.0001995856
-6.574457e-07
4.138777e-06
-3.2151e-07
-1.267974e-07
-1.478962e-07
-3.413034e-07
-0.0001974944
0.0001951974
-9.864405e-07
4.496607e-06
-3.328422e-07
-2.629776e-07
-2.760751e-07
-4.435106e-07
-0.0001930062
0.0001900773
-8.725518e-07
5.579319e-06
-5.061507e-07
-4.031405e-07
-4.25084e-07
-6.629083e-07
-0.0001859209
0.0001831455
-8.056696e-07
6.528325e-06
-6.847762e-07
-6.597978e-07
-9.397685e-07
-7.308483e-07
-0.000179511
0.0001765174
-6.815098e-07
7.081628e-06
-1.130752e-06
-7.83003e-07
-7.619326e-07
-9.641509e-07
-0.0001727477
0.0001684289
-6.129789e-07
8.848402e-06
-9.815936e-07
-9.731568e-07
-9.977987e-07
-1.07678e-06
-0.0001649282
0.0001613971
-8.674695e-07
8.745644e-06
-1.108632e-06
-1.066619e-06
-1.095078e-06
-1.2448e-06
-0.0001575807
0.0001534428
-1.055594e-06
1.007558e-05
-1.22832e-06
-1.212372e-06
-1.196658e-06
-9.804433e-07
-0.000150976
0.0001511576
-8.831842e-07
4.34174e-06
-8.620478e-07
-9.520789e-07
-8.455093e-07
-1.284055e-08
-0.0001553343
0.0001612609
-5.370945e-07
-5.651821e-06
9.247014e-08
3.680854e-08
1.458767e-07
1.044384e-06
-0.0001696281
0.0001785048
-1.421621e-07
-1.316327e-05
1.198698e-06
1.011105e-06
1.174577e-06
2.408763e-06
-0.000187539
0.000200358
1.175843e-07
-2.236438e-05
2.243206e-06
2.389745e-06
2.386163e-06
3.540295e-06
-0.0002117009
0.0002221532
9.359317e-08
-2.445047e-05
3.926477e-06
4.136817e-06
2.300929e-06
1.997655e-06
-0.0002282553
0.0002331025
-9.379973e-08
-1.518838e-05
2.754479e-06
3.468081e-06
2.2148e-06
1.376677e-06
-0.0002384168
0.0002387745
3.364141e-07
-5.486262e-06
1.11108e-06
1.258397e-06
1.046019e-06
2.873277e-07
-0.0002381475
0.0002368705
3.768468e-07
-1.434986e-07
2.55301e-07
2.658073e-07
2.352046e-07
1.071846e-07
-0.00023567
0.0002342823
5.994532e-08
1.027195e-06
9.456627e-08
6.207032e-08
3.672594e-08
-3.340195e-08
-0.0002314389
0.0002282174
-4.035691e-08
3.535394e-06
-3.351991e-08
-9.336538e-08
-1.132888e-07
-5.175099e-07
-0.000223821
0.0002212988
-2.09568e-07
4.109359e-06
-3.380797e-07
-2.036535e-07
-3.182971e-07
-6.610006e-07
-0.0002188274
0.0002159676
-3.251883e-07
5.973202e-06
-7.451551e-07
-6.552273e-07
-7.268029e-07
-8.950541e-07
-0.0002128521
0.0002099545
-1.850001e-07
6.677757e-06
-9.220031e-07
-8.736405e-07
-9.045109e-07
-9.249797e-07
-0.0002060904
0.0002023238
5.794148e-08
7.527765e-06
-9.426712e-07
-9.651534e-07
-9.863046e-07
-9.20589e-07
-0.0001963813
0.0001897427
5.794333e-07
9.817632e-06
-8.412087e-07
-1.039996e-06
-9.566867e-07
-8.426087e-07
-0.0001859431
0.000179009
1.142361e-06
8.920987e-06
-7.375648e-07
-7.977343e-07
-7.51396e-07
-3.136079e-07
-0.0001747159
0.000172947
8.586301e-07
2.15781e-06
-1.544743e-07
-4.674462e-07
-3.119989e-07
-7.985424e-08
-0.0001727476
0.0001745219
7.862051e-07
-2.197725e-06
-4.827975e-08
-1.27024e-07
-1.075963e-07
4.320844e-07
-0.0001793736
0.0001848438
7.037426e-07
-7.957896e-06
5.05579e-07
3.860837e-07
4.60198e-07
9.607476e-07
-0.0001909027
0.0001960923
2.688555e-07
-9.325137e-06
1.001808e-06
9.304388e-07
9.737711e-07
1.105071e-06
-0.0002002251
0.0002033748
-3.899705e-07
-7.02185e-06
1.062828e-06
1.067155e-06
1.02708e-06
3.035204e-07
-0.0002051352
0.0002056683
-3.108378e-07
-2.867721e-06
7.735914e-07
8.572761e-07
7.110331e-07
-8.868699e-07
-0.0002036877
0.00020405
-2.451653e-08
4.240849e-06
-1.584523e-06
-7.633817e-07
-1.343846e-06
-5.050447e-06
-0.0002054831
0.0002106675
2.005466e-07
1.665734e-05
-6.197902e-06
-4.798994e-06
-5.994927e-06
-3.21603e-06
-0.00020846
0.0001908894
1.01053e-07
2.575385e-05
3.2625e-08
-3.710055e-06
-1.39079e-06
-3.685418e-06
-0.0002057723
0.0001953498
-1.365528e-06
1.392614e-05
5.32677e-07
9.609791e-07
5.364956e-08
-2.990816e-07
-0.0001859073
0.0001789274
-8.467487e-07
1.241089e-05
-8.791256e-07
-1.12004e-06
-2.286018e-06
-7.64975e-07
-0.0001721192
0.0001647477
-4.740707e-07
1.068578e-05
-5.521254e-07
-1.014154e-06
-5.089537e-07
1.144981e-06
-0.0001506698
0.0001369615
-7.826777e-08
1.130008e-05
9.715813e-07
1.892979e-06
-1.523039e-06
-1.918223e-06
-0.0001325312
0.000123953
1.245945e-06
1.487236e-05
-5.296806e-07
-3.419474e-06
-1.672701e-06
7.26136e-07
-0.0001169565
0.0001076296
6.065277e-07
2.792724e-06
2.323535e-07
3.236399e-06
1.732715e-06
-1.031317e-06
-0.0001023076
9.972941e-05
1.214605e-06
9.761318e-06
-8.285884e-07
-3.87455e-06
-2.663328e-06
-2.077936e-06
-9.526448e-05
9.378854e-05
1.267551e-06
9.23057e-06
-2.547431e-06
-3.054777e-06
-1.34203e-06
-5.331807e-07
-8.970864e-05
8.310046e-05
1.149983e-06
9.571181e-06
-1.614014e-06
-9.02018e-07
-1.063775e-06
-4.420666e-07
-7.979724e-05
7.530641e-05
9.560255e-07
7.978113e-06
-6.382386e-07
-1.978731e-06
-1.384267e-06
-1.45601e-06
-7.02012e-05
6.745646e-05
1.069637e-06
7.196554e-06
-1.299801e-06
-1.403738e-06
-1.361901e-06
-3.60316e-07
-6.269748e-05
5.859002e-05
1.115955e-06
6.369174e-06
-6.560591e-07