/*--------------------------------*- C++ -*----------------------------------*\
| =========                 |                                                 |
| \\      /  F ield         | foam-extend: Open Source CFD                    |
|  \\    /   O peration     | Version:     3.1                                |
|   \\  /    A nd           | Web:         http://www.extend-project.de       |
|    \\/     M anipulation  |                                                 |
\*---------------------------------------------------------------------------*/
FoamFile
{
    version     2.0;
    format      ascii;
    class       volScalarField;
    location    "22";
    object      alpha;
}
// * * * * * * * * * * * * * * * * * * * * * * * * * * * * * * * * * * * * * //

dimensions      [0 0 -1 0 0 0 0];

internalField   nonuniform List<scalar> 
2539
(
0.00548346
0.00549242
0.00550644
0.0055203
0.00553423
0.00554821
0.00556224
0.00557633
0.00559047
0.00560467
0.00561892
0.00563323
0.00564759
0.00566201
0.00567648
0.00569101
0.0057056
0.00572024
0.00573495
0.00574971
0.00576452
0.0057794
0.00579434
0.00580933
0.00582439
0.0058395
0.00585467
0.00586991
0.0058852
0.00590056
0.00591598
0.00593146
0.005947
0.0059626
0.00597827
0.005994
0.00600979
0.00602565
0.00604157
0.00605756
0.00607361
0.00608973
0.00610591
0.00612216
0.00613847
0.00615486
0.00617131
0.00618782
0.00620441
0.00622106
0.00623779
0.00625458
0.00627144
0.00628837
0.00630538
0.00632245
0.00633959
0.00635681
0.0063741
0.00639146
0.0064089
0.00642641
0.00644399
0.00646164
0.00647938
0.00649718
0.00651507
0.00653302
0.00655106
0.00656917
0.00658736
0.00660563
0.00662398
0.00664241
0.00666091
0.0066795
0.00669816
0.00671691
0.00673574
0.00675465
0.00677364
0.00679272
0.00681188
0.00683113
0.00685046
0.00686987
0.00688937
0.00690896
0.00692863
0.00694839
0.00696824
0.00698817
0.0070082
0.00702832
0.00704852
0.00706882
0.00708921
0.00710969
0.00713026
0.00715092
0.00717168
0.00719254
0.00721348
0.00723453
0.00725567
0.00727691
0.00729824
0.00731968
0.00734121
0.00736284
0.00738457
0.0074064
0.00742834
0.00745037
0.00747251
0.00749475
0.0075171
0.00753955
0.00756211
0.00758477
0.00760755
0.00763042
0.00765341
0.00767651
0.00769972
0.00772303
0.00774646
0.00777001
0.00779366
0.00781743
0.00784131
0.00786531
0.00788943
0.00791366
0.00793801
0.00796249
0.00798708
0.00801179
0.00803662
0.00806157
0.00808665
0.00811185
0.00813718
0.00816263
0.00818821
0.00821392
0.00823976
0.00826573
0.00829182
0.00831805
0.00834441
0.00837091
0.00839754
0.0084243
0.0084512
0.00847824
0.00850542
0.00853274
0.0085602
0.0085878
0.00861554
0.00864343
0.00867146
0.00869964
0.00872796
0.00875644
0.00878506
0.00881384
0.00884276
0.00887184
0.00890108
0.00893047
0.00896002
0.00898972
0.00901959
0.00904961
0.0090798
0.00911015
0.00914066
0.00917134
0.00920219
0.00923321
0.0092644
0.00929575
0.00933145
0.00416715
0.0041814
0.0041861
0.00419031
0.0041945
0.00419869
0.00420289
0.00420709
0.0042113
0.00421552
0.00421975
0.00422398
0.00422822
0.00423247
0.00423672
0.00424098
0.00424525
0.00424953
0.00425381
0.0042581
0.0042624
0.0042667
0.00427101
0.00427533
0.00427965
0.00428399
0.00428832
0.00429267
0.00429703
0.00430139
0.00430576
0.00431013
0.00431451
0.0043189
0.0043233
0.00432771
0.00433212
0.00433654
0.00434097
0.0043454
0.00434984
0.00435429
0.00435875
0.00436322
0.00436769
0.00437217
0.00437666
0.00438115
0.00438565
0.00439016
0.00439468
0.00439921
0.00440374
0.00440828
0.00441283
0.00441739
0.00442195
0.00442653
0.00443111
0.00443569
0.00444029
0.00444489
0.0044495
0.00445412
0.00445875
0.00446339
0.00446803
0.00447268
0.00447734
0.00448201
0.00448668
0.00449137
0.00449606
0.00450076
0.00450547
0.00451018
0.00451491
0.00451964
0.00452438
0.00452913
0.00453389
0.00453866
0.00454343
0.00454821
0.004553
0.0045578
0.00456261
0.00456743
0.00457225
0.00457708
0.00458193
0.00458678
0.00459163
0.0045965
0.00460138
0.00460626
0.00461116
0.00461606
0.00462097
0.00462589
0.00463082
0.00463575
0.0046407
0.00464565
0.00465062
0.00465559
0.00466057
0.00466556
0.00467056
0.00467557
0.00468058
0.00468561
0.00469064
0.00469569
0.00470074
0.0047058
0.00471087
0.00471595
0.00472104
0.00472614
0.00473125
0.00473637
0.0047415
0.00474663
0.00475178
0.00475693
0.0047621
0.00476727
0.00477245
0.00477764
0.00478285
0.00478806
0.00479328
0.00479851
0.00480375
0.004809
0.00481426
0.00481953
0.00482481
0.0048301
0.00483539
0.0048407
0.00484602
0.00485135
0.00485669
0.00486204
0.00486739
0.00487276
0.00487814
0.00488353
0.00488892
0.00489433
0.00489975
0.00490518
0.00491062
0.00491607
0.00492152
0.00492699
0.00493247
0.00493796
0.00494346
0.00494897
0.00495449
0.00496002
0.00496557
0.00497112
0.00497668
0.00498226
0.00498784
0.00499343
0.00499904
0.00500466
0.00501028
0.00501592
0.00502157
0.00502723
0.0050329
0.00503858
0.00504427
0.00504997
0.00505569
0.00506141
0.00506715
0.00507289
0.00507865
0.00508442
0.0050902
0.00509599
0.0051018
0.00510761
0.00511344
0.00511927
0.00512512
0.00513098
0.00513685
0.00514273
0.00514863
0.00515448
0.00516159
0.00514346
0.0026879
0.00301432
0.00344099
0.00372699
0.00392055
0.00406448
0.0041809
0.00428132
0.00437186
0.00445593
0.0045355
0.00461178
0.00468552
0.00475727
0.00482738
0.00489613
0.00496374
0.00503037
0.00509615
0.00516121
0.00522564
0.00528951
0.0053529
0.00541588
0.0054785
0.0055408
0.00560282
0.00566462
0.00572622
0.00578766
0.00584897
0.00591017
0.00597129
0.00603236
0.00609339
0.0061544
0.00621542
0.00627647
0.00633756
0.0063987
0.00645992
0.00652123
0.00658265
0.00664418
0.00670584
0.00676765
0.00682962
0.00689177
0.0069541
0.00701663
0.00707936
0.00714233
0.00720553
0.00726898
0.00733269
0.00739668
0.00746096
0.00752555
0.00759045
0.00765569
0.00772127
0.00778723
0.00785356
0.0079203
0.00798746
0.00805506
0.00812312
0.00819167
0.00826073
0.00833033
0.00840049
0.00847126
0.00854267
0.00861475
0.00868756
0.00876114
0.00883555
0.00891085
0.00898711
0.00906443
0.00914289
0.00922262
0.00930375
0.00938645
0.00947091
0.00955738
0.00964617
0.00973766
0.00983233
0.00993081
0.0100339
0.0101426
0.0102582
0.0103825
0.0105174
0.0106656
0.0108299
0.0110136
0.0112195
0.0114497
0.0120839
0.0123775
0.0126561
0.0129217
0.0131763
0.0134212
0.0136576
0.0138865
0.0141086
0.0143246
0.0145352
0.0147407
0.0149418
0.0151386
0.0153317
0.0155211
0.0157073
0.0158905
0.0160708
0.0162484
0.0164235
0.0165963
0.0167669
0.0169354
0.0171019
0.0172665
0.0174294
0.0175906
0.0177502
0.0179083
0.018065
0.0182202
0.0183741
0.0185268
0.0186782
0.0188285
0.0189776
0.0191257
0.0192727
0.0194187
0.0195638
0.0197079
0.0198512
0.0199936
0.0201351
0.0202758
0.0204158
0.020555
0.0206934
0.0208312
0.0209682
0.0211046
0.0212403
0.0213754
0.0215099
0.0216437
0.021777
0.0219097
0.0220419
0.0221735
0.0223046
0.0224352
0.0225653
0.0226949
0.022824
0.0229527
0.0230809
0.0232087
0.023336
0.0234629
0.0235894
0.0237154
0.0238411
0.0239664
0.0240913
0.0242158
0.02434
0.0244638
0.0245873
0.0247104
0.0248331
0.0249556
0.0250777
0.0251995
0.0253209
0.0254421
0.025563
0.0256835
0.0258038
0.0259238
0.0260435
0.0261628
0.0262819
0.0264007
0.0265195
0.0266388
0.0267585
0.0268776
0.0269916
0.0270928
0.0271772
0.0272536
0.0273298
0.0274059
0.0274819
0.0275578
0.0276335
0.0277092
0.0277848
0.0278602
0.0279356
0.0280108
0.0280859
0.028161
0.0282359
0.0283107
0.0283854
0.02846
0.0285346
0.028609
0.0286833
0.0287575
0.0288317
0.0289057
0.0289796
0.0290535
0.0291272
0.0292009
0.0292745
0.0293479
0.0294213
0.0294946
0.0295678
0.0296409
0.0297139
0.0297869
0.0298597
0.0299325
0.0300052
0.0300778
0.0301503
0.0302227
0.030295
0.0303673
0.0304395
0.0305116
0.0305836
0.0306555
0.0307274
0.0307991
0.0308708
0.0309425
0.031014
0.0310854
0.0311568
0.0312281
0.0312994
0.0313705
0.0314416
0.0315126
0.0315835
0.0316544
0.0317251
0.0317958
0.0318665
0.031937
0.0320075
0.0320779
0.0321483
0.0322186
0.0322888
0.0323589
0.032429
0.032499
0.0325689
0.0326387
0.0327085
0.0327783
0.0328479
0.0329175
0.032987
0.0330565
0.0331259
0.0331952
0.0332644
0.0333336
0.0334028
0.0334718
0.0335408
0.0336098
0.0336786
0.0337474
0.0338162
0.0338849
0.0339535
0.0340221
0.0340905
0.034159
0.0342274
0.0342957
0.0343639
0.0344321
0.0345003
0.0345683
0.0346363
0.0347043
0.0347722
0.03484
0.0349078
0.0349755
0.0350432
0.0351108
0.0351783
0.0352458
0.0353132
0.0353806
0.0354479
0.0355152
0.0355824
0.0356496
0.0357167
0.0357837
0.0358507
0.0359176
0.0359845
0.0360513
0.0361181
0.0361848
0.0362514
0.036318
0.0363846
0.0364511
0.0365175
0.0365839
0.0366502
0.0367165
0.0367828
0.0368489
0.0369151
0.0369811
0.0370472
0.0371131
0.037179
0.0372449
0.0373107
0.0373765
0.0374422
0.0375079
0.0375735
0.0376391
0.0377046
0.03777
0.0378355
0.0379008
0.0379661
0.0380314
0.0380966
0.0381618
0.0382269
0.038292
0.038357
0.038422
0.0384869
0.0385518
0.0386166
0.0386814
0.0387461
0.0388108
0.0388755
0.0389401
0.0390046
0.0390691
0.0391336
0.039198
0.0392623
0.0393266
0.0393909
0.0394551
0.0395193
0.0395834
0.0396475
0.0397115
0.0397755
0.0398395
0.0399034
0.0399672
0.040031
0.0400948
0.0401585
0.0402222
0.0402858
0.0403494
0.040413
0.0404765
0.0405399
0.0406033
0.0406667
0.04073
0.0407933
0.0408565
0.0409197
0.0409829
0.041046
0.041109
0.0411721
0.041235
0.041298
0.0413608
0.0414237
0.0414865
0.0415493
0.041612
0.0416747
0.0417373
0.0417999
0.0418624
0.0419249
0.0419874
0.0420498
0.0421122
0.0421746
0.0422369
0.0422991
0.0423613
0.0424235
0.0424856
0.0425477
0.0426098
0.0426718
0.0427338
0.0427957
0.0428576
0.0429194
0.0429812
0.043043
0.0431047
0.0431664
0.0432281
0.0432897
0.0433512
0.0434128
0.0434742
0.0435357
0.0435971
0.0436585
0.0437198
0.0437811
0.0438423
0.0439035
0.0439647
0.0440258
0.0440869
0.044148
0.044209
0.04427
0.0443309
0.0443918
0.0444526
0.0445135
0.0445742
0.044635
0.0446957
0.0447563
0.044817
0.0448776
0.0449381
0.0449986
0.0450591
0.0451195
0.0451799
0.0452403
0.0453006
0.0453609
0.0454211
0.0454813
0.0455415
0.0456016
0.0456617
0.0457218
0.0457818
0.0458418
0.0459017
0.0459616
0.0460215
0.0460813
0.0461411
0.0462009
0.0462606
0.0463203
0.0463799
0.0464395
0.0464991
0.0465586
0.0466181
0.0466776
0.046737
0.0467964
0.0468558
0.0469151
0.0469744
0.0470336
0.0470928
0.047152
0.0472111
0.0472702
0.0473293
0.0473883
0.0474473
0.0475063
0.0475652
0.0476241
0.0476829
0.0477417
0.0478005
0.0478592
0.0479179
0.0479766
0.0480352
0.0480938
0.0481524
0.0482109
0.0482694
0.0483279
0.0483863
0.0484447
0.048503
0.0485613
0.0486196
0.0486778
0.048736
0.0487942
0.0488524
0.0489105
0.0489685
0.0490266
0.0490846
0.0491425
0.0492004
0.0492583
0.0493162
0.049374
0.0494318
0.0494896
0.0495473
0.0496052
0.0496629
0.0497201
0.0497761
0.049832
0.0498925
0.0499632
0.0500398
0.0501164
0.0501929
0.0502693
0.0503457
0.050422
0.0504983
0.0505746
0.0506508
0.050727
0.0508031
0.0508792
0.0509552
0.0510312
0.0511071
0.051183
0.0512588
0.0513346
0.0514104
0.0514861
0.0515617
0.0516373
0.0517129
0.0517884
0.0518639
0.0519393
0.0520147
0.05209
0.0521653
0.0522405
0.0523157
0.0523909
0.052466
0.0525411
0.0526161
0.0526911
0.052766
0.0528409
0.0529157
0.0529905
0.0530653
0.05314
0.0532146
0.0532892
0.0533638
0.0534383
0.0535128
0.0535873
0.0536616
0.053736
0.0538103
0.0538846
0.0539588
0.0540329
0.0541071
0.0541812
0.0542552
0.0543292
0.0544031
0.054477
0.0545509
0.0546247
0.0546985
0.0547722
0.0548459
0.0549196
0.0549932
0.0550667
0.0551402
0.0552137
0.0552871
0.0553605
0.0554339
0.0555072
0.0555804
0.0556536
0.0557268
0.0557999
0.055873
0.055946
0.056019
0.056092
0.0561649
0.0562378
0.0563106
0.0563834
0.0564561
0.0565288
0.0566015
0.0566741
0.0567466
0.0568192
0.0568916
0.0569641
0.0570365
0.0571088
0.0571811
0.0572534
0.0573256
0.0573978
0.05747
0.0575421
0.0576141
0.0576861
0.0577581
0.05783
0.0579019
0.0579738
0.0580456
0.0581173
0.0581891
0.0582607
0.0583324
0.058404
0.0584755
0.058547
0.0586185
0.0586899
0.0587613
0.0588327
0.058904
0.0589752
0.0590464
0.0591176
0.0591888
0.0592599
0.0593309
0.0594019
0.0594729
0.0595438
0.0596147
0.0596855
0.0597563
0.0598271
0.0598978
0.0599685
0.0600391
0.0601097
0.0601803
0.0602508
0.0603213
0.0603917
0.0604621
0.0605325
0.0606028
0.060673
0.0607433
0.0608135
0.0608836
0.0609537
0.0610238
0.0610938
0.0611638
0.0612337
0.0613036
0.0613735
0.0614433
0.0615131
0.0615828
0.0616525
0.0617221
0.0617918
0.0618613
0.0619309
0.0620004
0.0620698
0.0621392
0.0622086
0.0622779
0.0623473
0.0624166
0.0624855
0.0625537
0.0626219
0.0626937
0.0627739
0.0628564
0.0629019
0.0926738
0.092568
0.0925335
0.0925653
0.0925896
0.0926123
0.0926328
0.0926455
0.092647
0.0926408
0.0926328
0.0926229
0.0926064
0.0925805
0.0925476
0.0925105
0.092467
0.0924176
0.0923613
0.0922977
0.0922299
0.0921567
0.0920797
0.0919977
0.0919075
0.0918094
0.0917043
0.0915937
0.091479
0.0913591
0.0912311
0.0910956
0.0909542
0.0908088
0.0906592
0.0905039
0.0903437
0.0901772
0.0900023
0.0898219
0.0896379
0.0894457
0.0892446
0.0890393
0.0888296
0.0886142
0.0883943
0.0881694
0.0879374
0.0877001
0.0874587
0.0872121
0.0869575
0.0866953
0.0864272
0.0861548
0.0858783
0.0855964
0.0853105
0.0850192
0.0847196
0.0844122
0.084099
0.0837825
0.0834633
0.0831401
0.0828117
0.0824752
0.0821314
0.0817817
0.0814274
0.0810685
0.0807035
0.0803344
0.0799611
0.0795827
0.0792002
0.078812
0.0784148
0.0780092
0.0775975
0.0771832
0.0767688
0.0763542
0.0759389
0.0755206
0.0750881
0.0746264
0.0741313
0.0736233
0.0731554
0.0727976
0.0725836
0.0724189
0.0720225
0.0710121
0.0692153
0.0671117
0.066046
0.06796
0.0745058
0.0572794
0.0653707
0.06544
0.0655092
0.0655784
0.0656475
0.0657166
0.0657857
0.0658547
0.0659237
0.0659926
0.0660615
0.0661304
0.0661992
0.066268
0.0663367
0.0664054
0.0664741
0.0665427
0.0666113
0.0666798
0.0667483
0.0668168
0.0668852
0.0669536
0.0670219
0.0670902
0.0671585
0.0672267
0.0672949
0.067363
0.0674311
0.0674992
0.0675672
0.0676352
0.0677031
0.067771
0.0678389
0.0679067
0.0679745
0.0680422
0.0681099
0.0681776
0.0682452
0.0683128
0.0683803
0.0684478
0.0685153
0.0685827
0.0686501
0.0687174
0.0687847
0.068852
0.0689192
0.0689864
0.0690536
0.0691207
0.0691877
0.0692547
0.0693217
0.0693887
0.0694556
0.0695225
0.0695893
0.0696561
0.0697228
0.0697895
0.0698562
0.0699228
0.0699894
0.070056
0.0701225
0.070189
0.0702554
0.0703218
0.0703882
0.0704545
0.0705207
0.070587
0.0706532
0.0707194
0.0707855
0.0708515
0.0709171
0.0709829
0.0710502
0.0711207
0.0711901
0.0712412
0.0712571
0.0712533
0.0712495
0.0712457
0.0712419
0.0712381
0.0712343
0.0712305
0.0712267
0.0712229
0.0712191
0.0712153
0.0712115
0.0712078
0.071204
0.0712002
0.0711964
0.0711926
0.0711889
0.0711851
0.0711813
0.0711776
0.0711738
0.07117
0.0711663
0.0711625
0.0711588
0.071155
0.0711513
0.0711475
0.0711438
0.07114
0.0711363
0.0711325
0.0711288
0.0711251
0.0711213
0.0711176
0.0711139
0.0711102
0.0711064
0.0711027
0.071099
0.0710953
0.0710916
0.0710879
0.0710842
0.0710804
0.0710767
0.071073
0.0710693
0.0710656
0.071062
0.0710583
0.0710546
0.0710509
0.0710472
0.0710435
0.0710398
0.0710362
0.0710325
0.0710288
0.0710251
0.0710215
0.0710178
0.0710141
0.0710105
0.0710068
0.0710031
0.0709995
0.0709958
0.0709922
0.0709885
0.0709849
0.0709812
0.0709776
0.070974
0.0709703
0.0709667
0.070963
0.0709594
0.0709558
0.0709522
0.0709485
0.0709449
0.0709413
0.0709377
0.0709341
0.0709304
0.0709268
0.0709232
0.0709196
0.070916
0.0709124
0.0709088
0.0709052
0.0709016
0.070898
0.0708944
0.0708908
0.0708873
0.0708837
0.0708801
0.0708765
0.0708729
0.0708694
0.0708658
0.0708622
0.0708586
0.0708551
0.0708515
0.0708479
0.0708444
0.0708408
0.0708373
0.0708337
0.0708302
0.0708266
0.0708231
0.0708195
0.070816
0.0708124
0.0708089
0.0708054
0.0708018
0.0707983
0.0707948
0.0707912
0.0707877
0.0707842
0.0707807
0.0707772
0.0707736
0.0707701
0.0707666
0.0707631
0.0707596
0.0707561
0.0707526
0.0707491
0.0707456
0.0707421
0.0707386
0.0707351
0.0707316
0.0707281
0.0707246
0.0707211
0.0707177
0.0707142
0.0707107
0.0707072
0.0707038
0.0707003
0.0706968
0.0706934
0.0706899
0.0706864
0.070683
0.0706795
0.070676
0.0706726
0.0706691
0.0706657
0.0706622
0.0706588
0.0706554
0.0706519
0.0706485
0.070645
0.0706416
0.0706382
0.0706347
0.0706313
0.0706279
0.0706245
0.070621
0.0706176
0.0706142
0.0706108
0.0706074
0.0706039
0.0706005
0.0705971
0.0705937
0.0705903
0.0705869
0.0705835
0.0705801
0.0705767
0.0705733
0.0705699
0.0705666
0.0705632
0.0705598
0.0705564
0.070553
0.0705496
0.0705463
0.0705429
0.0705395
0.0705361
0.0705328
0.0705294
0.070526
0.0705227
0.0705193
0.070516
0.0705126
0.0705093
0.0705059
0.0705026
0.0704992
0.0704959
0.0704925
0.0704892
0.0704858
0.0704825
0.0704792
0.0704758
0.0704725
0.0704692
0.0704658
0.0704625
0.0704592
0.0704559
0.0704526
0.0704492
0.0704459
0.0704426
0.0704393
0.070436
0.0704327
0.0704294
0.0704261
0.0704228
0.0704195
0.0704162
0.0704129
0.0704096
0.0704063
0.070403
0.0703997
0.0703964
0.0703932
0.0703899
0.0703866
0.0703833
0.07038
0.0703768
0.0703735
0.0703702
0.070367
0.0703637
0.0703604
0.0703572
0.0703539
0.0703507
0.0703474
0.0703442
0.0703409
0.0703377
0.0703344
0.0703312
0.0703279
0.0703247
0.0703214
0.0703182
0.070315
0.070312
0.0703091
0.0703055
0.0702999
0.0702923
0.0702914
0.070315
0.0703633
0.0703471
0.0700565
0.0694462
0.0694451
0.0725677
0.0804253
0.0821802
0.0539691
0.0172812
0.00446737
0.00251955
0.00235529
0.0023455
0.0023432
0.0023412
0.00233918
0.00233712
0.00233502
0.00233289
0.00233071
0.0023285
0.00232625
0.00232395
0.00232164
0.00231976
0.00231907
0.00231914
0.00231919
0.0023192
0.00231915
0.00231905
0.0023189
0.0023187
0.00231844
0.00231812
0.00231775
0.00231732
0.00231683
0.00231628
0.00231567
0.00231501
0.00231428
0.00231349
0.00231264
0.00231172
0.00231075
0.00230971
0.00230861
0.00230745
0.00230623
0.00230494
0.00230359
0.00230219
0.00230072
0.00229919
0.00229761
0.00229597
0.00229428
0.00229253
0.00229073
0.00228888
0.00228698
0.00228503
0.00228304
0.00228101
0.00227894
0.00227684
0.0022747
0.00227253
0.00227034
0.00226812
0.00226588
0.00226362
0.00226135
0.00225906
0.00225677
0.00225448
0.00225218
0.00224989
0.0022476
0.00224532
0.00224305
0.0022408
0.00223857
0.00223635
0.00223416
0.002232
0.00222987
0.00222776
0.00222569
0.00222366
0.00222166
0.0022197
0.00221779
0.00221591
0.00221408
0.00221229
0.00221054
0.00220884
0.00220719
0.00220558
0.00220402
0.00220251
0.00220104
0.00219962
0.00219825
0.00219692
0.00219564
0.0021944
0.0021932
0.00219205
0.00219095
0.00218988
0.00218885
0.00218787
0.00218692
0.00218601
0.00218514
0.0021843
0.0021835
0.00218273
0.00218199
0.00218128
0.00218061
0.00217996
0.00217934
0.00217875
0.00217818
0.00217764
0.00217712
0.00217662
0.00217614
0.00217569
0.00217525
0.00217483
0.00217443
0.00217405
0.00217368
0.00217333
0.00217299
0.00217266
0.00217235
0.00217205
0.00217176
0.00217148
0.00217121
0.00217095
0.0021707
0.00217046
0.00217023
0.00217
0.00216978
0.00216957
0.00216936
0.00216916
0.00216896
0.00216877
0.00216858
0.0021684
0.00216822
0.00216805
0.00216787
0.0021677
0.00216754
0.00216737
0.00216721
0.00216705
0.0021669
0.00216674
0.00216659
0.00216643
0.00216628
0.00216613
0.00216598
0.00216584
0.00216569
0.00216554
0.0021654
0.00216525
0.00216511
0.00216496
0.00216482
0.00216468
0.00216453
0.00216439
0.00216425
0.0021641
0.00216396
0.00216382
0.00216368
0.00216353
0.00216339
0.00216325
0.00216311
0.00216296
0.00216282
0.00216267
0.00216253
0.00216239
0.00216224
0.0021621
0.00216195
0.00216181
0.00216166
0.00216152
0.00216137
0.00216122
0.00216108
0.00216093
0.00216078
0.00216064
0.00216049
0.00216034
0.00216019
0.00216004
0.00215989
0.00215974
0.00215959
0.00215944
0.00215929
0.00215914
0.00215899
0.00215884
0.00215868
0.00215853
0.00215838
0.00215822
0.00215807
0.00215792
0.00215776
0.00215761
0.00215745
0.00215729
0.00215714
0.00215698
0.00215682
0.00215667
0.00215651
0.00215635
0.00215619
0.00215603
0.00215587
0.00215571
0.00215555
0.00215539
0.00215523
0.00215507
0.0021549
0.00215474
0.00215458
0.00215441
0.00215425
0.00215408
0.00215392
0.00215375
0.00215359
0.00215342
0.00215325
0.00215309
0.00215292
0.00215275
0.00215258
0.00215241
0.00215224
0.00215207
0.0021519
0.00215173
0.00215156
0.00215139
0.00215121
0.00215104
0.00215087
0.00215069
0.00215052
0.00215035
0.00215017
0.00214999
0.00214982
0.00214964
0.00214947
0.00214929
0.00214911
0.00214893
0.00214875
0.00214858
0.0021484
0.00214822
0.00214804
0.00214786
0.00214767
0.00214749
0.00214731
0.00214713
0.00214695
0.00214677
0.00214658
0.0021464
0.00214622
0.00214603
0.00214585
0.00214566
0.00214548
0.00214529
0.00214511
0.00214492
0.00214474
0.00214455
0.00214436
0.00214418
0.00214399
0.0021438
0.00214361
0.00214342
0.00214324
0.00214305
0.00214286
0.00214267
0.00214248
0.00214229
0.0021421
0.00214191
0.00214172
0.00214153
0.00214134
0.00214114
0.00214095
0.00214076
0.00214057
0.00214037
0.00214018
0.00213998
0.00213979
0.00213959
0.0021394
0.0021392
0.00213901
0.00213881
0.00213861
0.00213841
0.00213821
0.00213801
0.00213781
0.00213761
0.00213741
0.00213721
0.00213701
0.0021368
0.0021366
0.00213639
0.00213618
0.00213598
0.00213577
0.00213556
0.00213535
0.00213514
0.00213492
0.00213471
0.00213449
0.00213428
0.00213406
0.00213384
0.00213361
0.00213339
0.00213317
0.00213294
0.00213271
0.00213248
0.00213225
0.00213202
0.00213178
0.00213154
0.0021313
0.00213106
0.00213081
0.00213057
0.00213032
0.00213007
0.00212981
0.00212955
0.00212929
0.00212903
0.00212877
0.0021285
0.00212823
0.00212795
0.00212768
0.0021274
0.00212711
0.00212683
0.00212654
0.00212624
0.00212595
0.00212565
0.00212534
0.00212504
0.00212473
0.00212441
0.0021241
0.00212377
0.00212345
0.00212312
0.00212279
0.00212245
0.00212211
0.00212177
0.00212142
0.00212107
0.00212072
0.00212036
0.00212
0.00211963
0.00211927
0.00211889
0.00211852
0.00211814
0.00211775
0.00211737
0.00211698
0.00211659
0.00211619
0.00211579
0.00211539
0.00211498
0.00211457
0.00211416
0.00211375
0.00211333
0.00211292
0.0021125
0.00211207
0.00211165
0.00211122
0.00211079
0.00211036
0.00210993
0.0021095
0.00210906
0.00210863
0.00210819
0.00210775
0.00210731
0.00210688
0.00210644
0.002106
0.00210556
0.00210512
0.00210468
0.00210424
0.0021038
0.00210336
0.00210293
0.00210249
0.00210205
0.00210162
0.00210119
0.00210076
0.00210033
0.0020999
0.00209947
0.00209905
0.00209863
0.00209821
0.00209779
0.00209737
0.00209696
0.00209655
0.00209614
0.00209574
0.00209534
0.00209494
0.00209454
0.00209415
0.00209376
0.00209337
0.00209298
0.0020926
0.00209223
0.00209185
0.00209148
0.00209111
0.00209075
0.00209038
0.00209003
0.00208967
0.00208932
0.00208897
0.00208863
0.00208829
0.00208795
0.00208761
0.00208728
0.00208695
0.00208663
0.0020863
0.00208598
0.00208567
0.00208535
0.00208504
0.00208474
0.00208443
0.00208413
0.00208383
0.00208354
0.00208325
0.00208296
0.00208267
0.00208238
0.0020821
0.00208182
0.00208155
0.00208127
0.002081
0.00208073
0.00208046
0.0020802
0.00207993
0.00207967
0.00207941
0.00207916
0.0020789
0.00207865
0.0020784
0.00207815
0.0020779
0.00207766
0.00207741
0.00207717
0.00207693
0.00207669
0.00207646
0.00207622
0.00207599
0.00207576
0.00207552
0.00207529
0.00207507
0.00207484
0.00207461
0.00207439
0.00207417
0.00207395
0.00207373
0.00207351
0.00207329
0.00207307
0.00207286
0.00207264
0.00207243
0.00207221
0.002072
0.00207179
0.00207158
0.00207137
0.00207117
0.00207096
0.00207075
0.00207055
0.00207034
0.00207014
0.00206994
0.00206974
0.00206954
0.00206934
0.00206914
0.00206894
0.00206874
0.00206854
0.00206835
0.00206815
0.00206795
0.00206776
0.00206757
0.00206737
0.00206718
0.00206699
0.0020668
0.00206661
0.00206642
0.00206623
0.00206604
0.00206585
0.00206566
0.00206547
0.00206529
0.0020651
0.00206491
0.00206473
0.00206454
0.00206436
0.00206417
0.00206399
0.00206381
0.00206362
0.00206344
0.00206326
0.00206308
0.00206289
0.00206271
0.00206253
0.00206235
0.00206217
0.00206199
0.00206181
0.00206163
0.00206145
0.00206127
0.00206109
0.00206091
0.00206074
0.00206056
0.00206038
0.0020602
0.00206002
0.00205985
0.00205967
0.00205949
0.00205932
0.00205914
0.00205897
0.00205879
0.00205861
0.00205844
0.00205826
0.00205809
0.00205791
0.00205774
0.00205757
0.00205739
0.00205722
0.00205705
0.00205687
0.0020567
0.00205653
0.00205636
0.00205619
0.00205602
0.00205585
0.00205568
0.00205551
0.00205534
0.00205517
0.002055
0.00205483
0.00205467
0.0020545
0.00205433
0.00205417
0.002054
0.00205384
0.00205368
0.00205351
0.00205335
0.00205319
0.00205303
0.00205287
0.00205271
0.00205256
0.0020524
0.00205224
0.00205209
0.00205194
0.00205178
0.00205163
0.00205148
0.00205133
0.00205118
0.00205104
0.00205089
0.00205074
0.0020506
0.00205046
0.00205032
0.00205018
0.00205004
0.0020499
0.00204976
0.00204963
0.00204949
0.00204936
0.00204923
0.0020491
0.00204897
0.00204884
0.00204872
0.00204859
0.00204847
0.00204835
0.00204823
0.00204811
0.00204799
0.00204788
0.00204776
0.00204765
0.00204754
0.00204743
0.00204732
0.00204721
0.00204711
0.002047
0.0020469
0.00204679
0.00204669
0.00204659
0.0020465
0.0020464
0.0020463
0.00204621
0.00204612
0.00204602
0.00204593
0.00204584
0.00204576
0.00204567
0.00204558
0.0020455
0.00204542
0.00204533
0.00204525
0.00204517
0.00204509
0.00204501
0.00204494
0.00204486
0.00204479
0.00204471
0.00204464
0.00204457
0.0020445
0.00204443
0.00204436
0.00204429
0.00204422
0.00204415
0.00204409
0.00204402
0.00204396
0.00204389
0.00204383
0.00204377
0.00204371
0.00204365
0.00204359
0.00204353
0.00204347
0.00204341
0.00204335
0.00204329
0.00204324
0.00204318
0.00204313
0.00204307
0.00204302
0.00204296
0.00204291
0.00204286
0.00204281
0.00204275
0.0020427
0.00204265
0.0020426
0.00204255
0.0020425
0.00204245
0.00204241
0.00204236
0.00204231
0.00204226
0.00204221
0.00204217
0.00204212
0.00204208
0.00204203
0.00204198
0.00204194
0.00204189
0.00204185
0.00204181
0.00204176
0.00204172
0.00204168
0.00204163
0.00204159
0.00204155
0.0020415
0.00204146
0.00204142
0.00204138
0.00204134
0.0020413
0.00204126
0.00204122
0.00204118
0.00204114
0.0020411
0.00204106
0.00204102
0.00204098
0.00204094
0.0020409
0.00204087
0.00204083
0.00204079
0.00204075
0.00204072
0.00204068
0.00204064
0.00204061
0.00204057
0.00204053
0.0020405
0.00204046
0.00204043
0.00204039
0.00204036
0.00204032
0.00204029
0.00204026
0.00204022
0.00204019
0.00204015
0.00204012
0.00204009
0.00204006
0.00204002
0.00203999
0.00203996
0.00203993
0.0020399
0.00203986
0.00203983
0.0020398
0.00203977
0.00203974
0.00203971
0.00203968
0.00203965
0.00203962
0.00203959
0.00203956
0.00203953
0.00203951
0.00203948
0.00203945
0.00203942
0.00203939
0.00203937
0.00203934
0.00203931
0.00203929
0.00203926
0.00203923
0.00203921
0.00203918
0.00203915
0.00203913
0.0020391
0.00203908
0.00203905
0.00203903
0.00203901
0.00203898
0.00203896
0.00203893
0.00203891
0.00203889
0.00203886
0.00203884
0.00203882
0.0020388
0.00203877
0.00203875
0.00203873
0.00203871
0.00203869
0.00203867
0.00203865
0.00203862
0.0020386
0.00203858
0.00203856
0.00203854
0.00203852
0.00203851
0.00203849
0.00203847
0.00203845
0.00203843
0.00203841
0.00203839
0.00203838
0.00203836
0.00203834
0.00203832
0.00203831
0.00203829
0.00203827
0.00203826
0.00203824
0.00203822
0.00203821
0.00203819
0.00203818
0.00203816
0.00203814
0.00203813
0.00203812
0.0020381
0.00203809
0.00203807
0.00203806
0.00203804
0.00203803
0.00203802
0.002038
0.00203799
0.00203798
0.00203796
0.00203795
0.00203794
0.00203793
0.00203791
0.0020379
0.00203789
0.00203788
0.00203787
0.00203786
0.00203785
0.00203783
0.00203782
0.00203781
0.0020378
0.00203779
0.00203778
0.00203777
0.00203776
0.00203775
0.00203774
0.00203773
0.00203772
0.00203772
0.00203771
0.0020377
0.00203769
0.00203768
0.00203767
0.00203767
0.00203766
0.00203765
0.00203764
0.00203764
0.00203763
0.00203762
0.00203761
0.00203761
0.0020376
0.0020376
0.00203759
0.00203758
)
;

boundaryField
{
    inlet
    {
        type            calculated;
        value           uniform 0.00548494;
    }
    outlet
    {
        type            calculated;
        value           uniform 0.00203758;
    }
    right
    {
        type            empty;
    }
    left
    {
        type            empty;
    }
    atmosphere
    {
        type            empty;
    }
    bottomWall
    {
        type            empty;
    }
}


// ************************************************************************* //
