/*--------------------------------*- C++ -*----------------------------------*\
| =========                 |                                                 |
| \\      /  F ield         | foam-extend: Open Source CFD                    |
|  \\    /   O peration     | Version:     3.1                                |
|   \\  /    A nd           | Web:         http://www.extend-project.de       |
|    \\/     M anipulation  |                                                 |
\*---------------------------------------------------------------------------*/
FoamFile
{
    version     2.0;
    format      ascii;
    class       volVectorField;
    location    "22";
    object      HU;
}
// * * * * * * * * * * * * * * * * * * * * * * * * * * * * * * * * * * * * * //

dimensions      [0 2 -1 0 0 0 0];

internalField   nonuniform List<vector> 
2539
(
(0.624831 0 0)
(0.624657 0 0)
(0.624664 0 0)
(0.624663 0 0)
(0.624663 0 0)
(0.624662 0 0)
(0.624662 0 0)
(0.624662 0 0)
(0.624661 0 0)
(0.624661 0 0)
(0.624661 0 0)
(0.62466 0 0)
(0.62466 0 0)
(0.624659 0 0)
(0.624659 0 0)
(0.624659 0 0)
(0.624658 0 0)
(0.624658 0 0)
(0.624658 0 0)
(0.624657 0 0)
(0.624657 0 0)
(0.624656 0 0)
(0.624656 0 0)
(0.624656 0 0)
(0.624655 0 0)
(0.624655 0 0)
(0.624655 0 0)
(0.624654 0 0)
(0.624654 0 0)
(0.624653 0 0)
(0.624653 0 0)
(0.624653 0 0)
(0.624652 0 0)
(0.624652 0 0)
(0.624651 0 0)
(0.624651 0 0)
(0.624651 0 0)
(0.62465 0 0)
(0.62465 0 0)
(0.624649 0 0)
(0.624649 0 0)
(0.624649 0 0)
(0.624648 0 0)
(0.624648 0 0)
(0.624647 0 0)
(0.624647 0 0)
(0.624646 0 0)
(0.624646 0 0)
(0.624646 0 0)
(0.624645 0 0)
(0.624645 0 0)
(0.624644 0 0)
(0.624644 0 0)
(0.624643 0 0)
(0.624643 0 0)
(0.624643 0 0)
(0.624642 0 0)
(0.624642 0 0)
(0.624641 0 0)
(0.624641 0 0)
(0.62464 0 0)
(0.62464 0 0)
(0.624639 0 0)
(0.624639 0 0)
(0.624639 0 0)
(0.624638 0 0)
(0.624638 0 0)
(0.624637 0 0)
(0.624637 0 0)
(0.624636 0 0)
(0.624636 0 0)
(0.624635 0 0)
(0.624635 0 0)
(0.624634 0 0)
(0.624634 0 0)
(0.624633 0 0)
(0.624633 0 0)
(0.624632 0 0)
(0.624632 0 0)
(0.624631 0 0)
(0.624631 0 0)
(0.62463 0 0)
(0.62463 0 0)
(0.624629 0 0)
(0.624629 0 0)
(0.624628 0 0)
(0.624628 0 0)
(0.624627 0 0)
(0.624627 0 0)
(0.624626 0 0)
(0.624626 0 0)
(0.624625 0 0)
(0.624625 0 0)
(0.624624 0 0)
(0.624624 0 0)
(0.624623 0 0)
(0.624623 0 0)
(0.624622 0 0)
(0.624622 0 0)
(0.624621 0 0)
(0.62462 0 0)
(0.62462 0 0)
(0.624619 0 0)
(0.624619 0 0)
(0.624618 0 0)
(0.624618 0 0)
(0.624617 0 0)
(0.624617 0 0)
(0.624616 0 0)
(0.624615 0 0)
(0.624615 0 0)
(0.624614 0 0)
(0.624614 0 0)
(0.624613 0 0)
(0.624612 0 0)
(0.624612 0 0)
(0.624611 0 0)
(0.624611 0 0)
(0.62461 0 0)
(0.62461 0 0)
(0.624609 0 0)
(0.624608 0 0)
(0.624608 0 0)
(0.624607 0 0)
(0.624606 0 0)
(0.624606 0 0)
(0.624605 0 0)
(0.624605 0 0)
(0.624604 0 0)
(0.624603 0 0)
(0.624603 0 0)
(0.624602 0 0)
(0.624601 0 0)
(0.624601 0 0)
(0.6246 0 0)
(0.624599 0 0)
(0.624599 0 0)
(0.624598 0 0)
(0.624597 0 0)
(0.624597 0 0)
(0.624596 0 0)
(0.624595 0 0)
(0.624595 0 0)
(0.624594 0 0)
(0.624593 0 0)
(0.624593 0 0)
(0.624592 0 0)
(0.624591 0 0)
(0.624591 0 0)
(0.62459 0 0)
(0.624589 0 0)
(0.624588 0 0)
(0.624588 0 0)
(0.624587 0 0)
(0.624586 0 0)
(0.624585 0 0)
(0.624585 0 0)
(0.624584 0 0)
(0.624583 0 0)
(0.624582 0 0)
(0.624582 0 0)
(0.624581 0 0)
(0.62458 0 0)
(0.624579 0 0)
(0.624579 0 0)
(0.624578 0 0)
(0.624577 0 0)
(0.624576 0 0)
(0.624575 0 0)
(0.624575 0 0)
(0.624574 0 0)
(0.624573 0 0)
(0.624572 0 0)
(0.624571 0 0)
(0.624571 0 0)
(0.62457 0 0)
(0.624569 0 0)
(0.624568 0 0)
(0.624567 0 0)
(0.624566 0 0)
(0.624566 0 0)
(0.624565 0 0)
(0.624564 0 0)
(0.624563 0 0)
(0.624352 0 0)
(0.624439 0 0)
(0.62486 0 0)
(0.624882 0 0)
(0.624883 0 0)
(0.624883 0 0)
(0.624883 0 0)
(0.624883 0 0)
(0.624883 0 0)
(0.624883 0 0)
(0.624883 0 0)
(0.624883 0 0)
(0.624883 0 0)
(0.624883 0 0)
(0.624883 0 0)
(0.624883 0 0)
(0.624883 0 0)
(0.624883 0 0)
(0.624883 0 0)
(0.624883 0 0)
(0.624883 0 0)
(0.624883 0 0)
(0.624883 0 0)
(0.624883 0 0)
(0.624883 0 0)
(0.624883 0 0)
(0.624883 0 0)
(0.624883 0 0)
(0.624883 0 0)
(0.624883 0 0)
(0.624883 0 0)
(0.624883 0 0)
(0.624883 0 0)
(0.624883 0 0)
(0.624883 0 0)
(0.624883 0 0)
(0.624883 0 0)
(0.624883 0 0)
(0.624883 0 0)
(0.624883 0 0)
(0.624883 0 0)
(0.624883 0 0)
(0.624883 0 0)
(0.624883 0 0)
(0.624883 0 0)
(0.624883 0 0)
(0.624883 0 0)
(0.624883 0 0)
(0.624883 0 0)
(0.624883 0 0)
(0.624883 0 0)
(0.624883 0 0)
(0.624883 0 0)
(0.624883 0 0)
(0.624883 0 0)
(0.624883 0 0)
(0.624883 0 0)
(0.624883 0 0)
(0.624882 0 0)
(0.624882 0 0)
(0.624882 0 0)
(0.624882 0 0)
(0.624882 0 0)
(0.624882 0 0)
(0.624882 0 0)
(0.624882 0 0)
(0.624882 0 0)
(0.624882 0 0)
(0.624882 0 0)
(0.624882 0 0)
(0.624882 0 0)
(0.624882 0 0)
(0.624882 0 0)
(0.624882 0 0)
(0.624882 0 0)
(0.624882 0 0)
(0.624882 0 0)
(0.624882 0 0)
(0.624882 0 0)
(0.624882 0 0)
(0.624882 0 0)
(0.624882 0 0)
(0.624882 0 0)
(0.624882 0 0)
(0.624882 0 0)
(0.624882 0 0)
(0.624882 0 0)
(0.624882 0 0)
(0.624882 0 0)
(0.624882 0 0)
(0.624882 0 0)
(0.624882 0 0)
(0.624882 0 0)
(0.624882 0 0)
(0.624882 0 0)
(0.624882 0 0)
(0.624882 0 0)
(0.624882 0 0)
(0.624882 0 0)
(0.624882 0 0)
(0.624882 0 0)
(0.624882 0 0)
(0.624882 0 0)
(0.624882 0 0)
(0.624882 0 0)
(0.624882 0 0)
(0.624882 0 0)
(0.624881 0 0)
(0.624881 0 0)
(0.624881 0 0)
(0.624881 0 0)
(0.624881 0 0)
(0.624881 0 0)
(0.624881 0 0)
(0.624881 0 0)
(0.624881 0 0)
(0.624881 0 0)
(0.624881 0 0)
(0.624881 0 0)
(0.624881 0 0)
(0.624881 0 0)
(0.624881 0 0)
(0.624881 0 0)
(0.624881 0 0)
(0.624881 0 0)
(0.624881 0 0)
(0.624881 0 0)
(0.624881 0 0)
(0.624881 0 0)
(0.624881 0 0)
(0.624881 0 0)
(0.624881 0 0)
(0.624881 0 0)
(0.624881 0 0)
(0.624881 0 0)
(0.624881 0 0)
(0.624881 0 0)
(0.624881 0 0)
(0.624881 0 0)
(0.62488 0 0)
(0.62488 0 0)
(0.62488 0 0)
(0.62488 0 0)
(0.62488 0 0)
(0.62488 0 0)
(0.62488 0 0)
(0.62488 0 0)
(0.62488 0 0)
(0.62488 0 0)
(0.62488 0 0)
(0.62488 0 0)
(0.62488 0 0)
(0.62488 0 0)
(0.62488 0 0)
(0.62488 0 0)
(0.62488 0 0)
(0.62488 0 0)
(0.62488 0 0)
(0.62488 0 0)
(0.62488 0 0)
(0.62488 0 0)
(0.62488 0 0)
(0.62488 0 0)
(0.62488 0 0)
(0.62488 0 0)
(0.624879 0 0)
(0.624879 0 0)
(0.624879 0 0)
(0.624879 0 0)
(0.624879 0 0)
(0.624879 0 0)
(0.624879 0 0)
(0.624879 0 0)
(0.624879 0 0)
(0.624879 0 0)
(0.624879 0 0)
(0.624879 0 0)
(0.624879 0 0)
(0.624879 0 0)
(0.624879 0 0)
(0.624879 0 0)
(0.624879 0 0)
(0.624879 0 0)
(0.624879 0 0)
(0.624879 0 0)
(0.624879 0 0)
(0.624879 0 0)
(0.624878 0 0)
(0.624878 0 0)
(0.624878 0 0)
(0.624878 0 0)
(0.624878 0 0)
(0.624878 0 0)
(0.624878 0 0)
(0.624878 0 0)
(0.624878 0 0)
(0.624878 0 0)
(0.624878 0 0)
(0.624884 0 0)
(0.624754 0 0)
(0.627379 0 0)
(0.59745 0 0)
(0.604943 0 0)
(0.613007 0 0)
(0.617598 0 0)
(0.619859 0 0)
(0.621054 0 0)
(0.621734 0 0)
(0.62215 0 0)
(0.622425 0 0)
(0.62262 0 0)
(0.622765 0 0)
(0.62288 0 0)
(0.622974 0 0)
(0.623053 0 0)
(0.623121 0 0)
(0.62318 0 0)
(0.623233 0 0)
(0.62328 0 0)
(0.623322 0 0)
(0.623361 0 0)
(0.623396 0 0)
(0.623428 0 0)
(0.623458 0 0)
(0.623485 0 0)
(0.623511 0 0)
(0.623535 0 0)
(0.623557 0 0)
(0.623578 0 0)
(0.623598 0 0)
(0.623616 0 0)
(0.623633 0 0)
(0.62365 0 0)
(0.623665 0 0)
(0.62368 0 0)
(0.623694 0 0)
(0.623707 0 0)
(0.62372 0 0)
(0.623732 0 0)
(0.623743 0 0)
(0.623754 0 0)
(0.623765 0 0)
(0.623774 0 0)
(0.623784 0 0)
(0.623793 0 0)
(0.623801 0 0)
(0.62381 0 0)
(0.623817 0 0)
(0.623825 0 0)
(0.623832 0 0)
(0.623839 0 0)
(0.623845 0 0)
(0.623851 0 0)
(0.623857 0 0)
(0.623862 0 0)
(0.623868 0 0)
(0.623873 0 0)
(0.623877 0 0)
(0.623881 0 0)
(0.623886 0 0)
(0.623889 0 0)
(0.623893 0 0)
(0.623896 0 0)
(0.623899 0 0)
(0.623901 0 0)
(0.623904 0 0)
(0.623906 0 0)
(0.623907 0 0)
(0.623908 0 0)
(0.623909 0 0)
(0.62391 0 0)
(0.62391 0 0)
(0.623909 0 0)
(0.623908 0 0)
(0.623906 0 0)
(0.623904 0 0)
(0.623901 0 0)
(0.623898 0 0)
(0.623893 0 0)
(0.623888 0 0)
(0.623881 0 0)
(0.623873 0 0)
(0.623863 0 0)
(0.623852 0 0)
(0.623838 0 0)
(0.623822 0 0)
(0.623802 0 0)
(0.623777 0 0)
(0.623748 0 0)
(0.623711 0 0)
(0.623666 0 0)
(0.62361 0 0)
(0.62354 0 0)
(0.623452 0 0)
(0.623343 0 0)
(0.623207 0 0)
(0.623042 0 0)
(0.622845 0 0)
(0.622621 0 0)
(0.62238 0 0)
(0.622149 0 0)
(0.621748 0 0)
(0.621994 0 0)
(0.622201 0 0)
(0.622377 0 0)
(0.622529 0 0)
(0.622662 0 0)
(0.622779 0 0)
(0.622882 0 0)
(0.622975 0 0)
(0.623058 0 0)
(0.623133 0 0)
(0.623202 0 0)
(0.623265 0 0)
(0.623322 0 0)
(0.623375 0 0)
(0.623424 0 0)
(0.62347 0 0)
(0.623512 0 0)
(0.623552 0 0)
(0.623589 0 0)
(0.623624 0 0)
(0.623656 0 0)
(0.623687 0 0)
(0.623716 0 0)
(0.623744 0 0)
(0.62377 0 0)
(0.623795 0 0)
(0.623819 0 0)
(0.623841 0 0)
(0.623863 0 0)
(0.623884 0 0)
(0.623903 0 0)
(0.623922 0 0)
(0.62394 0 0)
(0.623958 0 0)
(0.623974 0 0)
(0.62399 0 0)
(0.624006 0 0)
(0.624021 0 0)
(0.624035 0 0)
(0.624049 0 0)
(0.624062 0 0)
(0.624075 0 0)
(0.624088 0 0)
(0.6241 0 0)
(0.624112 0 0)
(0.624123 0 0)
(0.624134 0 0)
(0.624145 0 0)
(0.624155 0 0)
(0.624165 0 0)
(0.624175 0 0)
(0.624185 0 0)
(0.624194 0 0)
(0.624203 0 0)
(0.624212 0 0)
(0.624221 0 0)
(0.624229 0 0)
(0.624237 0 0)
(0.624245 0 0)
(0.624253 0 0)
(0.624261 0 0)
(0.624268 0 0)
(0.624275 0 0)
(0.624282 0 0)
(0.624289 0 0)
(0.624296 0 0)
(0.624303 0 0)
(0.624309 0 0)
(0.624316 0 0)
(0.624322 0 0)
(0.624328 0 0)
(0.624334 0 0)
(0.62434 0 0)
(0.624346 0 0)
(0.624351 0 0)
(0.624357 0 0)
(0.624362 0 0)
(0.624368 0 0)
(0.624373 0 0)
(0.624378 0 0)
(0.624383 0 0)
(0.624388 0 0)
(0.624393 0 0)
(0.624398 0 0)
(0.624402 0 0)
(0.624407 0 0)
(0.624412 0 0)
(0.624416 0 0)
(0.624421 0 0)
(0.624425 0 0)
(0.624429 0 0)
(0.624434 0 0)
(0.624437 0 0)
(0.624438 0 0)
(0.624438 0 0)
(0.624439 0 0)
(0.624457 0 0)
(0.624511 0 0)
(0.624606 0 0)
(0.624663 0 0)
(0.624665 0 0)
(0.624667 0 0)
(0.624668 0 0)
(0.62467 0 0)
(0.624671 0 0)
(0.624673 0 0)
(0.624675 0 0)
(0.624676 0 0)
(0.624678 0 0)
(0.624679 0 0)
(0.624681 0 0)
(0.624682 0 0)
(0.624684 0 0)
(0.624685 0 0)
(0.624687 0 0)
(0.624688 0 0)
(0.62469 0 0)
(0.624691 0 0)
(0.624693 0 0)
(0.624694 0 0)
(0.624695 0 0)
(0.624697 0 0)
(0.624698 0 0)
(0.6247 0 0)
(0.624701 0 0)
(0.624702 0 0)
(0.624704 0 0)
(0.624705 0 0)
(0.624706 0 0)
(0.624708 0 0)
(0.624709 0 0)
(0.62471 0 0)
(0.624711 0 0)
(0.624713 0 0)
(0.624714 0 0)
(0.624715 0 0)
(0.624716 0 0)
(0.624718 0 0)
(0.624719 0 0)
(0.62472 0 0)
(0.624721 0 0)
(0.624723 0 0)
(0.624724 0 0)
(0.624725 0 0)
(0.624726 0 0)
(0.624727 0 0)
(0.624728 0 0)
(0.62473 0 0)
(0.624731 0 0)
(0.624732 0 0)
(0.624733 0 0)
(0.624734 0 0)
(0.624735 0 0)
(0.624736 0 0)
(0.624737 0 0)
(0.624738 0 0)
(0.624739 0 0)
(0.624741 0 0)
(0.624742 0 0)
(0.624743 0 0)
(0.624744 0 0)
(0.624745 0 0)
(0.624746 0 0)
(0.624747 0 0)
(0.624748 0 0)
(0.624749 0 0)
(0.62475 0 0)
(0.624751 0 0)
(0.624752 0 0)
(0.624753 0 0)
(0.624754 0 0)
(0.624755 0 0)
(0.624756 0 0)
(0.624757 0 0)
(0.624758 0 0)
(0.624759 0 0)
(0.62476 0 0)
(0.624761 0 0)
(0.624761 0 0)
(0.624762 0 0)
(0.624763 0 0)
(0.624764 0 0)
(0.624765 0 0)
(0.624766 0 0)
(0.624767 0 0)
(0.624768 0 0)
(0.624769 0 0)
(0.62477 0 0)
(0.624771 0 0)
(0.624771 0 0)
(0.624772 0 0)
(0.624773 0 0)
(0.624774 0 0)
(0.624775 0 0)
(0.624776 0 0)
(0.624777 0 0)
(0.624777 0 0)
(0.624778 0 0)
(0.624779 0 0)
(0.62478 0 0)
(0.624781 0 0)
(0.624782 0 0)
(0.624782 0 0)
(0.624783 0 0)
(0.624784 0 0)
(0.624785 0 0)
(0.624786 0 0)
(0.624786 0 0)
(0.624787 0 0)
(0.624788 0 0)
(0.624789 0 0)
(0.62479 0 0)
(0.62479 0 0)
(0.624791 0 0)
(0.624792 0 0)
(0.624793 0 0)
(0.624793 0 0)
(0.624794 0 0)
(0.624795 0 0)
(0.624796 0 0)
(0.624796 0 0)
(0.624797 0 0)
(0.624798 0 0)
(0.624799 0 0)
(0.624799 0 0)
(0.6248 0 0)
(0.624801 0 0)
(0.624802 0 0)
(0.624802 0 0)
(0.624803 0 0)
(0.624804 0 0)
(0.624804 0 0)
(0.624805 0 0)
(0.624806 0 0)
(0.624806 0 0)
(0.624807 0 0)
(0.624808 0 0)
(0.624809 0 0)
(0.624809 0 0)
(0.62481 0 0)
(0.624811 0 0)
(0.624811 0 0)
(0.624812 0 0)
(0.624813 0 0)
(0.624813 0 0)
(0.624814 0 0)
(0.624815 0 0)
(0.624815 0 0)
(0.624816 0 0)
(0.624817 0 0)
(0.624817 0 0)
(0.624818 0 0)
(0.624818 0 0)
(0.624819 0 0)
(0.62482 0 0)
(0.62482 0 0)
(0.624821 0 0)
(0.624822 0 0)
(0.624822 0 0)
(0.624823 0 0)
(0.624824 0 0)
(0.624824 0 0)
(0.624825 0 0)
(0.624825 0 0)
(0.624826 0 0)
(0.624827 0 0)
(0.624827 0 0)
(0.624828 0 0)
(0.624828 0 0)
(0.624829 0 0)
(0.62483 0 0)
(0.62483 0 0)
(0.624831 0 0)
(0.624831 0 0)
(0.624832 0 0)
(0.624833 0 0)
(0.624833 0 0)
(0.624834 0 0)
(0.624834 0 0)
(0.624835 0 0)
(0.624835 0 0)
(0.624836 0 0)
(0.624837 0 0)
(0.624837 0 0)
(0.624838 0 0)
(0.624838 0 0)
(0.624839 0 0)
(0.624839 0 0)
(0.62484 0 0)
(0.624841 0 0)
(0.624841 0 0)
(0.624842 0 0)
(0.624842 0 0)
(0.624843 0 0)
(0.624843 0 0)
(0.624844 0 0)
(0.624844 0 0)
(0.624845 0 0)
(0.624845 0 0)
(0.624846 0 0)
(0.624846 0 0)
(0.624847 0 0)
(0.624848 0 0)
(0.624848 0 0)
(0.624849 0 0)
(0.624849 0 0)
(0.62485 0 0)
(0.62485 0 0)
(0.624851 0 0)
(0.624851 0 0)
(0.624852 0 0)
(0.624852 0 0)
(0.624853 0 0)
(0.624853 0 0)
(0.624854 0 0)
(0.624854 0 0)
(0.624855 0 0)
(0.624855 0 0)
(0.624856 0 0)
(0.624856 0 0)
(0.624857 0 0)
(0.624857 0 0)
(0.624858 0 0)
(0.624858 0 0)
(0.624859 0 0)
(0.624859 0 0)
(0.62486 0 0)
(0.62486 0 0)
(0.624861 0 0)
(0.624861 0 0)
(0.624862 0 0)
(0.624862 0 0)
(0.624863 0 0)
(0.624863 0 0)
(0.624864 0 0)
(0.624864 0 0)
(0.624864 0 0)
(0.624865 0 0)
(0.624865 0 0)
(0.624866 0 0)
(0.624866 0 0)
(0.624867 0 0)
(0.624867 0 0)
(0.624868 0 0)
(0.624868 0 0)
(0.624869 0 0)
(0.624869 0 0)
(0.62487 0 0)
(0.62487 0 0)
(0.624871 0 0)
(0.624871 0 0)
(0.624871 0 0)
(0.624872 0 0)
(0.624872 0 0)
(0.624873 0 0)
(0.624873 0 0)
(0.624874 0 0)
(0.624874 0 0)
(0.624875 0 0)
(0.624875 0 0)
(0.624875 0 0)
(0.624876 0 0)
(0.624876 0 0)
(0.624877 0 0)
(0.624877 0 0)
(0.624878 0 0)
(0.624878 0 0)
(0.624878 0 0)
(0.624879 0 0)
(0.624879 0 0)
(0.62488 0 0)
(0.62488 0 0)
(0.624881 0 0)
(0.624881 0 0)
(0.624881 0 0)
(0.624882 0 0)
(0.624882 0 0)
(0.624883 0 0)
(0.624883 0 0)
(0.624884 0 0)
(0.624884 0 0)
(0.624884 0 0)
(0.624885 0 0)
(0.624885 0 0)
(0.624886 0 0)
(0.624886 0 0)
(0.624886 0 0)
(0.624887 0 0)
(0.624887 0 0)
(0.624888 0 0)
(0.624888 0 0)
(0.624888 0 0)
(0.624889 0 0)
(0.624889 0 0)
(0.62489 0 0)
(0.62489 0 0)
(0.62489 0 0)
(0.624891 0 0)
(0.624891 0 0)
(0.624892 0 0)
(0.624892 0 0)
(0.624892 0 0)
(0.624893 0 0)
(0.624893 0 0)
(0.624894 0 0)
(0.624894 0 0)
(0.624894 0 0)
(0.624895 0 0)
(0.624895 0 0)
(0.624896 0 0)
(0.624896 0 0)
(0.624896 0 0)
(0.624897 0 0)
(0.624897 0 0)
(0.624897 0 0)
(0.624898 0 0)
(0.624898 0 0)
(0.624899 0 0)
(0.624899 0 0)
(0.624899 0 0)
(0.6249 0 0)
(0.6249 0 0)
(0.6249 0 0)
(0.624901 0 0)
(0.624901 0 0)
(0.624902 0 0)
(0.624902 0 0)
(0.624902 0 0)
(0.624903 0 0)
(0.624903 0 0)
(0.624903 0 0)
(0.624904 0 0)
(0.624904 0 0)
(0.624905 0 0)
(0.624905 0 0)
(0.624905 0 0)
(0.624906 0 0)
(0.624906 0 0)
(0.624906 0 0)
(0.624907 0 0)
(0.624907 0 0)
(0.624907 0 0)
(0.624907 0 0)
(0.624908 0 0)
(0.624909 0 0)
(0.624912 0 0)
(0.624915 0 0)
(0.62491 0 0)
(0.624881 0 0)
(0.624859 0 0)
(0.62486 0 0)
(0.62486 0 0)
(0.624861 0 0)
(0.624861 0 0)
(0.624862 0 0)
(0.624862 0 0)
(0.624863 0 0)
(0.624863 0 0)
(0.624864 0 0)
(0.624864 0 0)
(0.624865 0 0)
(0.624865 0 0)
(0.624866 0 0)
(0.624866 0 0)
(0.624867 0 0)
(0.624867 0 0)
(0.624868 0 0)
(0.624868 0 0)
(0.624869 0 0)
(0.624869 0 0)
(0.62487 0 0)
(0.62487 0 0)
(0.624871 0 0)
(0.624871 0 0)
(0.624872 0 0)
(0.624872 0 0)
(0.624873 0 0)
(0.624873 0 0)
(0.624874 0 0)
(0.624874 0 0)
(0.624875 0 0)
(0.624875 0 0)
(0.624875 0 0)
(0.624876 0 0)
(0.624876 0 0)
(0.624877 0 0)
(0.624877 0 0)
(0.624878 0 0)
(0.624878 0 0)
(0.624879 0 0)
(0.624879 0 0)
(0.62488 0 0)
(0.62488 0 0)
(0.624881 0 0)
(0.624881 0 0)
(0.624882 0 0)
(0.624882 0 0)
(0.624882 0 0)
(0.624883 0 0)
(0.624883 0 0)
(0.624884 0 0)
(0.624884 0 0)
(0.624885 0 0)
(0.624885 0 0)
(0.624886 0 0)
(0.624886 0 0)
(0.624886 0 0)
(0.624887 0 0)
(0.624887 0 0)
(0.624888 0 0)
(0.624888 0 0)
(0.624889 0 0)
(0.624889 0 0)
(0.62489 0 0)
(0.62489 0 0)
(0.62489 0 0)
(0.624891 0 0)
(0.624891 0 0)
(0.624892 0 0)
(0.624892 0 0)
(0.624893 0 0)
(0.624893 0 0)
(0.624893 0 0)
(0.624894 0 0)
(0.624894 0 0)
(0.624895 0 0)
(0.624895 0 0)
(0.624896 0 0)
(0.624896 0 0)
(0.624896 0 0)
(0.624897 0 0)
(0.624897 0 0)
(0.624898 0 0)
(0.624898 0 0)
(0.624898 0 0)
(0.624899 0 0)
(0.624899 0 0)
(0.6249 0 0)
(0.6249 0 0)
(0.624901 0 0)
(0.624901 0 0)
(0.624901 0 0)
(0.624902 0 0)
(0.624902 0 0)
(0.624903 0 0)
(0.624903 0 0)
(0.624903 0 0)
(0.624904 0 0)
(0.624904 0 0)
(0.624905 0 0)
(0.624905 0 0)
(0.624905 0 0)
(0.624906 0 0)
(0.624906 0 0)
(0.624907 0 0)
(0.624907 0 0)
(0.624907 0 0)
(0.624908 0 0)
(0.624908 0 0)
(0.624908 0 0)
(0.624909 0 0)
(0.624909 0 0)
(0.62491 0 0)
(0.62491 0 0)
(0.62491 0 0)
(0.624911 0 0)
(0.624911 0 0)
(0.624912 0 0)
(0.624912 0 0)
(0.624912 0 0)
(0.624913 0 0)
(0.624913 0 0)
(0.624913 0 0)
(0.624914 0 0)
(0.624914 0 0)
(0.624915 0 0)
(0.624915 0 0)
(0.624915 0 0)
(0.624916 0 0)
(0.624916 0 0)
(0.624917 0 0)
(0.624917 0 0)
(0.624917 0 0)
(0.624918 0 0)
(0.624918 0 0)
(0.624918 0 0)
(0.624919 0 0)
(0.624919 0 0)
(0.624919 0 0)
(0.62492 0 0)
(0.62492 0 0)
(0.624921 0 0)
(0.624921 0 0)
(0.624921 0 0)
(0.624922 0 0)
(0.624922 0 0)
(0.624922 0 0)
(0.624923 0 0)
(0.624923 0 0)
(0.624923 0 0)
(0.624924 0 0)
(0.624924 0 0)
(0.624925 0 0)
(0.624925 0 0)
(0.624925 0 0)
(0.624926 0 0)
(0.624926 0 0)
(0.624926 0 0)
(0.624927 0 0)
(0.624927 0 0)
(0.624927 0 0)
(0.624928 0 0)
(0.624928 0 0)
(0.624928 0 0)
(0.624929 0 0)
(0.624929 0 0)
(0.624929 0 0)
(0.62493 0 0)
(0.62493 0 0)
(0.62493 0 0)
(0.624931 0 0)
(0.624933 0 0)
(0.624935 0 0)
(0.624931 0 0)
(0.624914 0 0)
(0.624894 0 0)
(0.624929 0 0)
(0.625117 0 0)
(0.625363 0 0)
(0.62517 0 0)
(0.62503 0 0)
(0.625044 0 0)
(0.625047 0 0)
(0.625048 0 0)
(0.625057 0 0)
(0.625074 0 0)
(0.625088 0 0)
(0.625092 0 0)
(0.625093 0 0)
(0.6251 0 0)
(0.625115 0 0)
(0.625127 0 0)
(0.625132 0 0)
(0.625141 0 0)
(0.62515 0 0)
(0.625159 0 0)
(0.625172 0 0)
(0.625177 0 0)
(0.625186 0 0)
(0.625192 0 0)
(0.625197 0 0)
(0.625209 0 0)
(0.625221 0 0)
(0.625232 0 0)
(0.625241 0 0)
(0.625247 0 0)
(0.625253 0 0)
(0.625266 0 0)
(0.625278 0 0)
(0.625288 0 0)
(0.625294 0 0)
(0.6253 0 0)
(0.625309 0 0)
(0.625317 0 0)
(0.625325 0 0)
(0.625339 0 0)
(0.625349 0 0)
(0.625353 0 0)
(0.625365 0 0)
(0.625381 0 0)
(0.625389 0 0)
(0.625395 0 0)
(0.625405 0 0)
(0.625413 0 0)
(0.62542 0 0)
(0.625432 0 0)
(0.625442 0 0)
(0.625449 0 0)
(0.625457 0 0)
(0.62547 0 0)
(0.625484 0 0)
(0.625495 0 0)
(0.625503 0 0)
(0.62551 0 0)
(0.625521 0 0)
(0.625529 0 0)
(0.625537 0 0)
(0.625552 0 0)
(0.625566 0 0)
(0.625578 0 0)
(0.625587 0 0)
(0.625592 0 0)
(0.6256 0 0)
(0.625609 0 0)
(0.625624 0 0)
(0.625639 0 0)
(0.625652 0 0)
(0.625662 0 0)
(0.625671 0 0)
(0.625685 0 0)
(0.625695 0 0)
(0.625704 0 0)
(0.625716 0 0)
(0.625726 0 0)
(0.625737 0 0)
(0.625755 0 0)
(0.625774 0 0)
(0.62579 0 0)
(0.6258 0 0)
(0.625804 0 0)
(0.625808 0 0)
(0.625813 0 0)
(0.625818 0 0)
(0.625838 0 0)
(0.62589 0 0)
(0.625961 0 0)
(0.626013 0 0)
(0.625985 0 0)
(0.625822 0 0)
(0.625539 0 0)
(0.625327 0 0)
(0.625543 0 0)
(0.626513 0 0)
(0.628143 0 0)
(0.62946 0 0)
(0.62861 0 0)
(0.623765 0 0)
(0.61507 0 0)
(0.607194 0 0)
(0.610951 0 0)
(0.624943 0 0)
(0.624943 0 0)
(0.624944 0 0)
(0.624944 0 0)
(0.624944 0 0)
(0.624945 0 0)
(0.624945 0 0)
(0.624945 0 0)
(0.624946 0 0)
(0.624946 0 0)
(0.624946 0 0)
(0.624947 0 0)
(0.624947 0 0)
(0.624947 0 0)
(0.624948 0 0)
(0.624948 0 0)
(0.624948 0 0)
(0.624949 0 0)
(0.624949 0 0)
(0.624949 0 0)
(0.62495 0 0)
(0.62495 0 0)
(0.62495 0 0)
(0.62495 0 0)
(0.624951 0 0)
(0.624951 0 0)
(0.624951 0 0)
(0.624952 0 0)
(0.624952 0 0)
(0.624952 0 0)
(0.624953 0 0)
(0.624953 0 0)
(0.624953 0 0)
(0.624954 0 0)
(0.624954 0 0)
(0.624954 0 0)
(0.624955 0 0)
(0.624955 0 0)
(0.624955 0 0)
(0.624956 0 0)
(0.624956 0 0)
(0.624956 0 0)
(0.624956 0 0)
(0.624957 0 0)
(0.624957 0 0)
(0.624957 0 0)
(0.624958 0 0)
(0.624958 0 0)
(0.624958 0 0)
(0.624959 0 0)
(0.624959 0 0)
(0.624959 0 0)
(0.62496 0 0)
(0.62496 0 0)
(0.62496 0 0)
(0.62496 0 0)
(0.624961 0 0)
(0.624961 0 0)
(0.624961 0 0)
(0.624962 0 0)
(0.624962 0 0)
(0.624962 0 0)
(0.624963 0 0)
(0.624963 0 0)
(0.624963 0 0)
(0.624963 0 0)
(0.624964 0 0)
(0.624964 0 0)
(0.624964 0 0)
(0.624965 0 0)
(0.624965 0 0)
(0.624965 0 0)
(0.624966 0 0)
(0.624966 0 0)
(0.624966 0 0)
(0.624966 0 0)
(0.624967 0 0)
(0.624967 0 0)
(0.624967 0 0)
(0.624968 0 0)
(0.624968 0 0)
(0.624969 0 0)
(0.624969 0 0)
(0.624968 0 0)
(0.624962 0 0)
(0.624957 0 0)
(0.624977 0 0)
(0.625049 0 0)
(0.625101 0 0)
(0.625101 0 0)
(0.625101 0 0)
(0.625101 0 0)
(0.625101 0 0)
(0.625101 0 0)
(0.625102 0 0)
(0.625102 0 0)
(0.625102 0 0)
(0.625102 0 0)
(0.625102 0 0)
(0.625102 0 0)
(0.625102 0 0)
(0.625102 0 0)
(0.625102 0 0)
(0.625102 0 0)
(0.625103 0 0)
(0.625103 0 0)
(0.625103 0 0)
(0.625103 0 0)
(0.625103 0 0)
(0.625103 0 0)
(0.625103 0 0)
(0.625103 0 0)
(0.625103 0 0)
(0.625103 0 0)
(0.625104 0 0)
(0.625104 0 0)
(0.625104 0 0)
(0.625104 0 0)
(0.625104 0 0)
(0.625104 0 0)
(0.625104 0 0)
(0.625104 0 0)
(0.625104 0 0)
(0.625104 0 0)
(0.625105 0 0)
(0.625105 0 0)
(0.625105 0 0)
(0.625105 0 0)
(0.625105 0 0)
(0.625105 0 0)
(0.625105 0 0)
(0.625105 0 0)
(0.625105 0 0)
(0.625106 0 0)
(0.625106 0 0)
(0.625106 0 0)
(0.625106 0 0)
(0.625106 0 0)
(0.625106 0 0)
(0.625106 0 0)
(0.625106 0 0)
(0.625106 0 0)
(0.625106 0 0)
(0.625107 0 0)
(0.625107 0 0)
(0.625107 0 0)
(0.625107 0 0)
(0.625107 0 0)
(0.625107 0 0)
(0.625107 0 0)
(0.625107 0 0)
(0.625107 0 0)
(0.625108 0 0)
(0.625108 0 0)
(0.625108 0 0)
(0.625108 0 0)
(0.625108 0 0)
(0.625108 0 0)
(0.625108 0 0)
(0.625108 0 0)
(0.625108 0 0)
(0.625109 0 0)
(0.625109 0 0)
(0.625109 0 0)
(0.625109 0 0)
(0.625109 0 0)
(0.625109 0 0)
(0.625109 0 0)
(0.625109 0 0)
(0.625109 0 0)
(0.625109 0 0)
(0.62511 0 0)
(0.62511 0 0)
(0.62511 0 0)
(0.62511 0 0)
(0.62511 0 0)
(0.62511 0 0)
(0.62511 0 0)
(0.62511 0 0)
(0.62511 0 0)
(0.625111 0 0)
(0.625111 0 0)
(0.625111 0 0)
(0.625111 0 0)
(0.625111 0 0)
(0.625111 0 0)
(0.625111 0 0)
(0.625111 0 0)
(0.625111 0 0)
(0.625112 0 0)
(0.625112 0 0)
(0.625112 0 0)
(0.625112 0 0)
(0.625112 0 0)
(0.625112 0 0)
(0.625112 0 0)
(0.625112 0 0)
(0.625112 0 0)
(0.625113 0 0)
(0.625113 0 0)
(0.625113 0 0)
(0.625113 0 0)
(0.625113 0 0)
(0.625113 0 0)
(0.625113 0 0)
(0.625113 0 0)
(0.625113 0 0)
(0.625114 0 0)
(0.625114 0 0)
(0.625114 0 0)
(0.625114 0 0)
(0.625114 0 0)
(0.625114 0 0)
(0.625114 0 0)
(0.625114 0 0)
(0.625115 0 0)
(0.625115 0 0)
(0.625115 0 0)
(0.625115 0 0)
(0.625115 0 0)
(0.625115 0 0)
(0.625115 0 0)
(0.625115 0 0)
(0.625115 0 0)
(0.625116 0 0)
(0.625116 0 0)
(0.625116 0 0)
(0.625116 0 0)
(0.625116 0 0)
(0.625116 0 0)
(0.625116 0 0)
(0.625116 0 0)
(0.625116 0 0)
(0.625117 0 0)
(0.625117 0 0)
(0.625117 0 0)
(0.625117 0 0)
(0.625117 0 0)
(0.625117 0 0)
(0.625117 0 0)
(0.625117 0 0)
(0.625118 0 0)
(0.625118 0 0)
(0.625118 0 0)
(0.625118 0 0)
(0.625118 0 0)
(0.625118 0 0)
(0.625118 0 0)
(0.625118 0 0)
(0.625118 0 0)
(0.625119 0 0)
(0.625119 0 0)
(0.625119 0 0)
(0.625119 0 0)
(0.625119 0 0)
(0.625119 0 0)
(0.625119 0 0)
(0.625119 0 0)
(0.62512 0 0)
(0.62512 0 0)
(0.62512 0 0)
(0.62512 0 0)
(0.62512 0 0)
(0.62512 0 0)
(0.62512 0 0)
(0.62512 0 0)
(0.625121 0 0)
(0.625121 0 0)
(0.625121 0 0)
(0.625121 0 0)
(0.625121 0 0)
(0.625121 0 0)
(0.625121 0 0)
(0.625121 0 0)
(0.625121 0 0)
(0.625122 0 0)
(0.625122 0 0)
(0.625122 0 0)
(0.625122 0 0)
(0.625122 0 0)
(0.625122 0 0)
(0.625122 0 0)
(0.625122 0 0)
(0.625123 0 0)
(0.625123 0 0)
(0.625123 0 0)
(0.625123 0 0)
(0.625123 0 0)
(0.625123 0 0)
(0.625123 0 0)
(0.625123 0 0)
(0.625124 0 0)
(0.625124 0 0)
(0.625124 0 0)
(0.625124 0 0)
(0.625124 0 0)
(0.625124 0 0)
(0.625124 0 0)
(0.625124 0 0)
(0.625125 0 0)
(0.625125 0 0)
(0.625125 0 0)
(0.625125 0 0)
(0.625125 0 0)
(0.625125 0 0)
(0.625125 0 0)
(0.625125 0 0)
(0.625126 0 0)
(0.625126 0 0)
(0.625126 0 0)
(0.625126 0 0)
(0.625126 0 0)
(0.625126 0 0)
(0.625126 0 0)
(0.625126 0 0)
(0.625127 0 0)
(0.625127 0 0)
(0.625127 0 0)
(0.625127 0 0)
(0.625127 0 0)
(0.625127 0 0)
(0.625127 0 0)
(0.625127 0 0)
(0.625128 0 0)
(0.625128 0 0)
(0.625128 0 0)
(0.625128 0 0)
(0.625128 0 0)
(0.625128 0 0)
(0.625128 0 0)
(0.625129 0 0)
(0.625129 0 0)
(0.625129 0 0)
(0.625129 0 0)
(0.625129 0 0)
(0.625129 0 0)
(0.625129 0 0)
(0.625129 0 0)
(0.62513 0 0)
(0.62513 0 0)
(0.62513 0 0)
(0.62513 0 0)
(0.62513 0 0)
(0.62513 0 0)
(0.62513 0 0)
(0.62513 0 0)
(0.625131 0 0)
(0.625131 0 0)
(0.625131 0 0)
(0.625131 0 0)
(0.625131 0 0)
(0.625131 0 0)
(0.625131 0 0)
(0.625132 0 0)
(0.625132 0 0)
(0.625132 0 0)
(0.625132 0 0)
(0.625131 0 0)
(0.625132 0 0)
(0.625135 0 0)
(0.625142 0 0)
(0.625139 0 0)
(0.625102 0 0)
(0.625029 0 0)
(0.625043 0 0)
(0.625438 0 0)
(0.626301 0 0)
(0.626355 0 0)
(0.622165 0 0)
(0.611961 0 0)
(0.609259 0 0)
(0.654042 0 0)
(0.763117 0 0)
(0.82991 0 0)
(0.736826 0 0)
(0.649934 0 0)
(0.638171 0 0)
(0.637628 0 0)
(0.637658 0 0)
(0.637708 0 0)
(0.637756 0 0)
(0.637798 0 0)
(0.637836 0 0)
(0.637869 0 0)
(0.637897 0 0)
(0.637919 0 0)
(0.637937 0 0)
(0.637951 0 0)
(0.637948 0 0)
(0.637875 0 0)
(0.637805 0 0)
(0.637793 0 0)
(0.637777 0 0)
(0.637756 0 0)
(0.637728 0 0)
(0.637695 0 0)
(0.637655 0 0)
(0.637609 0 0)
(0.637556 0 0)
(0.637497 0 0)
(0.637432 0 0)
(0.637359 0 0)
(0.63728 0 0)
(0.637194 0 0)
(0.637101 0 0)
(0.637001 0 0)
(0.636894 0 0)
(0.63678 0 0)
(0.636658 0 0)
(0.63653 0 0)
(0.636394 0 0)
(0.636251 0 0)
(0.6361 0 0)
(0.635942 0 0)
(0.635777 0 0)
(0.635605 0 0)
(0.635425 0 0)
(0.635239 0 0)
(0.635045 0 0)
(0.634845 0 0)
(0.634637 0 0)
(0.634423 0 0)
(0.634202 0 0)
(0.633975 0 0)
(0.633742 0 0)
(0.633503 0 0)
(0.633257 0 0)
(0.633007 0 0)
(0.632751 0 0)
(0.63249 0 0)
(0.632224 0 0)
(0.631954 0 0)
(0.631679 0 0)
(0.631401 0 0)
(0.631119 0 0)
(0.630834 0 0)
(0.630547 0 0)
(0.630257 0 0)
(0.629965 0 0)
(0.629671 0 0)
(0.629376 0 0)
(0.629081 0 0)
(0.628784 0 0)
(0.628488 0 0)
(0.628192 0 0)
(0.627897 0 0)
(0.627603 0 0)
(0.62731 0 0)
(0.627019 0 0)
(0.626731 0 0)
(0.626444 0 0)
(0.626161 0 0)
(0.62588 0 0)
(0.625603 0 0)
(0.62533 0 0)
(0.62506 0 0)
(0.624795 0 0)
(0.624533 0 0)
(0.624277 0 0)
(0.624025 0 0)
(0.623778 0 0)
(0.623535 0 0)
(0.623298 0 0)
(0.623066 0 0)
(0.62284 0 0)
(0.622618 0 0)
(0.622402 0 0)
(0.622192 0 0)
(0.621986 0 0)
(0.621786 0 0)
(0.621592 0 0)
(0.621403 0 0)
(0.621219 0 0)
(0.62104 0 0)
(0.620866 0 0)
(0.620697 0 0)
(0.620534 0 0)
(0.620375 0 0)
(0.620221 0 0)
(0.620072 0 0)
(0.619927 0 0)
(0.619786 0 0)
(0.61965 0 0)
(0.619519 0 0)
(0.619391 0 0)
(0.619267 0 0)
(0.619147 0 0)
(0.61903 0 0)
(0.618917 0 0)
(0.618808 0 0)
(0.618701 0 0)
(0.618598 0 0)
(0.618498 0 0)
(0.618401 0 0)
(0.618307 0 0)
(0.618215 0 0)
(0.618125 0 0)
(0.618039 0 0)
(0.617954 0 0)
(0.617872 0 0)
(0.617791 0 0)
(0.617713 0 0)
(0.617637 0 0)
(0.617562 0 0)
(0.617489 0 0)
(0.617418 0 0)
(0.617348 0 0)
(0.61728 0 0)
(0.617213 0 0)
(0.617147 0 0)
(0.617082 0 0)
(0.617019 0 0)
(0.616957 0 0)
(0.616896 0 0)
(0.616835 0 0)
(0.616776 0 0)
(0.616717 0 0)
(0.616659 0 0)
(0.616602 0 0)
(0.616546 0 0)
(0.61649 0 0)
(0.616435 0 0)
(0.61638 0 0)
(0.616326 0 0)
(0.616273 0 0)
(0.616219 0 0)
(0.616167 0 0)
(0.616114 0 0)
(0.616062 0 0)
(0.616011 0 0)
(0.61596 0 0)
(0.615909 0 0)
(0.615858 0 0)
(0.615807 0 0)
(0.615757 0 0)
(0.615707 0 0)
(0.615658 0 0)
(0.615608 0 0)
(0.615559 0 0)
(0.615509 0 0)
(0.61546 0 0)
(0.615411 0 0)
(0.615362 0 0)
(0.615314 0 0)
(0.615265 0 0)
(0.615217 0 0)
(0.615168 0 0)
(0.61512 0 0)
(0.615072 0 0)
(0.615024 0 0)
(0.614976 0 0)
(0.614928 0 0)
(0.61488 0 0)
(0.614832 0 0)
(0.614785 0 0)
(0.614737 0 0)
(0.614689 0 0)
(0.614642 0 0)
(0.614594 0 0)
(0.614547 0 0)
(0.614499 0 0)
(0.614452 0 0)
(0.614405 0 0)
(0.614358 0 0)
(0.61431 0 0)
(0.614263 0 0)
(0.614216 0 0)
(0.614169 0 0)
(0.614122 0 0)
(0.614075 0 0)
(0.614028 0 0)
(0.613982 0 0)
(0.613935 0 0)
(0.613888 0 0)
(0.613841 0 0)
(0.613795 0 0)
(0.613748 0 0)
(0.613702 0 0)
(0.613655 0 0)
(0.613609 0 0)
(0.613562 0 0)
(0.613516 0 0)
(0.613469 0 0)
(0.613423 0 0)
(0.613377 0 0)
(0.613331 0 0)
(0.613285 0 0)
(0.613239 0 0)
(0.613193 0 0)
(0.613147 0 0)
(0.613101 0 0)
(0.613055 0 0)
(0.613009 0 0)
(0.612963 0 0)
(0.612918 0 0)
(0.612872 0 0)
(0.612826 0 0)
(0.612781 0 0)
(0.612735 0 0)
(0.61269 0 0)
(0.612644 0 0)
(0.612599 0 0)
(0.612554 0 0)
(0.612508 0 0)
(0.612463 0 0)
(0.612418 0 0)
(0.612373 0 0)
(0.612328 0 0)
(0.612283 0 0)
(0.612238 0 0)
(0.612193 0 0)
(0.612148 0 0)
(0.612103 0 0)
(0.612058 0 0)
(0.612013 0 0)
(0.611969 0 0)
(0.611924 0 0)
(0.611879 0 0)
(0.611835 0 0)
(0.61179 0 0)
(0.611746 0 0)
(0.611702 0 0)
(0.611657 0 0)
(0.611613 0 0)
(0.611569 0 0)
(0.611524 0 0)
(0.61148 0 0)
(0.611436 0 0)
(0.611392 0 0)
(0.611348 0 0)
(0.611304 0 0)
(0.61126 0 0)
(0.611216 0 0)
(0.611172 0 0)
(0.611128 0 0)
(0.611084 0 0)
(0.61104 0 0)
(0.610997 0 0)
(0.610953 0 0)
(0.61091 0 0)
(0.610866 0 0)
(0.610822 0 0)
(0.610779 0 0)
(0.610736 0 0)
(0.610692 0 0)
(0.610649 0 0)
(0.610606 0 0)
(0.610562 0 0)
(0.610519 0 0)
(0.610476 0 0)
(0.610433 0 0)
(0.61039 0 0)
(0.610347 0 0)
(0.610304 0 0)
(0.610261 0 0)
(0.610218 0 0)
(0.610175 0 0)
(0.610133 0 0)
(0.61009 0 0)
(0.610048 0 0)
(0.610005 0 0)
(0.609962 0 0)
(0.60992 0 0)
(0.609878 0 0)
(0.609835 0 0)
(0.609793 0 0)
(0.609751 0 0)
(0.609709 0 0)
(0.609667 0 0)
(0.609625 0 0)
(0.609583 0 0)
(0.609541 0 0)
(0.609499 0 0)
(0.609457 0 0)
(0.609416 0 0)
(0.609374 0 0)
(0.609332 0 0)
(0.609291 0 0)
(0.609249 0 0)
(0.609208 0 0)
(0.609166 0 0)
(0.609125 0 0)
(0.609084 0 0)
(0.609043 0 0)
(0.609002 0 0)
(0.60896 0 0)
(0.608919 0 0)
(0.608878 0 0)
(0.608838 0 0)
(0.608797 0 0)
(0.608756 0 0)
(0.608715 0 0)
(0.608674 0 0)
(0.608633 0 0)
(0.608593 0 0)
(0.608552 0 0)
(0.608512 0 0)
(0.608471 0 0)
(0.60843 0 0)
(0.60839 0 0)
(0.608349 0 0)
(0.608309 0 0)
(0.608268 0 0)
(0.608228 0 0)
(0.608187 0 0)
(0.608147 0 0)
(0.608106 0 0)
(0.608066 0 0)
(0.608025 0 0)
(0.607985 0 0)
(0.607944 0 0)
(0.607903 0 0)
(0.607863 0 0)
(0.607822 0 0)
(0.607781 0 0)
(0.60774 0 0)
(0.6077 0 0)
(0.607659 0 0)
(0.607618 0 0)
(0.607577 0 0)
(0.607535 0 0)
(0.607494 0 0)
(0.607453 0 0)
(0.607411 0 0)
(0.60737 0 0)
(0.607328 0 0)
(0.607286 0 0)
(0.607244 0 0)
(0.607202 0 0)
(0.60716 0 0)
(0.607117 0 0)
(0.607074 0 0)
(0.607032 0 0)
(0.606989 0 0)
(0.606945 0 0)
(0.606902 0 0)
(0.606858 0 0)
(0.606815 0 0)
(0.60677 0 0)
(0.606726 0 0)
(0.606682 0 0)