/*--------------------------------*- C++ -*----------------------------------*\
| =========                 |                                                 |
| \\      /  F ield         | foam-extend: Open Source CFD                    |
|  \\    /   O peration     | Version:     3.1                                |
|   \\  /    A nd           | Web:         http://www.extend-project.de       |
|    \\/     M anipulation  |                                                 |
\*---------------------------------------------------------------------------*/
FoamFile
{
    version     2.0;
    format      ascii;
    class       volVectorField;
    location    "22";
    object      U;
}
// * * * * * * * * * * * * * * * * * * * * * * * * * * * * * * * * * * * * * //

dimensions      [0 1 -1 0 0 0 0];

internalField   nonuniform List<vector> 
2539
(
(0.728634 0 0)
(0.729028 0 0)
(0.72983 0 0)
(0.730616 0 0)
(0.731405 0 0)
(0.732196 0 0)
(0.732989 0 0)
(0.733784 0 0)
(0.734581 0 0)
(0.735379 0 0)
(0.73618 0 0)
(0.736982 0 0)
(0.737787 0 0)
(0.738593 0 0)
(0.739402 0 0)
(0.740212 0 0)
(0.741024 0 0)
(0.741839 0 0)
(0.742655 0 0)
(0.743473 0 0)
(0.744293 0 0)
(0.745116 0 0)
(0.74594 0 0)
(0.746767 0 0)
(0.747595 0 0)
(0.748426 0 0)
(0.749258 0 0)
(0.750093 0 0)
(0.75093 0 0)
(0.751769 0 0)
(0.752609 0 0)
(0.753453 0 0)
(0.754298 0 0)
(0.755145 0 0)
(0.755994 0 0)
(0.756846 0 0)
(0.7577 0 0)
(0.758556 0 0)
(0.759414 0 0)
(0.760274 0 0)
(0.761136 0 0)
(0.762001 0 0)
(0.762868 0 0)
(0.763737 0 0)
(0.764608 0 0)
(0.765482 0 0)
(0.766358 0 0)
(0.767236 0 0)
(0.768116 0 0)
(0.768999 0 0)
(0.769884 0 0)
(0.770771 0 0)
(0.771661 0 0)
(0.772553 0 0)
(0.773447 0 0)
(0.774343 0 0)
(0.775242 0 0)
(0.776144 0 0)
(0.777047 0 0)
(0.777953 0 0)
(0.778862 0 0)
(0.779773 0 0)
(0.780686 0 0)
(0.781602 0 0)
(0.78252 0 0)
(0.78344 0 0)
(0.784364 0 0)
(0.785289 0 0)
(0.786217 0 0)
(0.787148 0 0)
(0.788081 0 0)
(0.789016 0 0)
(0.789954 0 0)
(0.790895 0 0)
(0.791838 0 0)
(0.792784 0 0)
(0.793733 0 0)
(0.794684 0 0)
(0.795637 0 0)
(0.796593 0 0)
(0.797552 0 0)
(0.798514 0 0)
(0.799478 0 0)
(0.800445 0 0)
(0.801414 0 0)
(0.802386 0 0)
(0.803361 0 0)
(0.804339 0 0)
(0.805319 0 0)
(0.806303 0 0)
(0.807289 0 0)
(0.808277 0 0)
(0.809269 0 0)
(0.810263 0 0)
(0.81126 0 0)
(0.81226 0 0)
(0.813263 0 0)
(0.814268 0 0)
(0.815277 0 0)
(0.816288 0 0)
(0.817303 0 0)
(0.81832 0 0)
(0.81934 0 0)
(0.820363 0 0)
(0.82139 0 0)
(0.822419 0 0)
(0.823451 0 0)
(0.824486 0 0)
(0.825524 0 0)
(0.826565 0 0)
(0.827609 0 0)
(0.828657 0 0)
(0.829707 0 0)
(0.830761 0 0)
(0.831817 0 0)
(0.832877 0 0)
(0.83394 0 0)
(0.835006 0 0)
(0.836075 0 0)
(0.837148 0 0)
(0.838224 0 0)
(0.839303 0 0)
(0.840385 0 0)
(0.84147 0 0)
(0.842559 0 0)
(0.843651 0 0)
(0.844747 0 0)
(0.845846 0 0)
(0.846948 0 0)
(0.848053 0 0)
(0.849162 0 0)
(0.850275 0 0)
(0.85139 0 0)
(0.85251 0 0)
(0.853633 0 0)
(0.854759 0 0)
(0.855889 0 0)
(0.857022 0 0)
(0.858159 0 0)
(0.859299 0 0)
(0.860443 0 0)
(0.861591 0 0)
(0.862742 0 0)
(0.863897 0 0)
(0.865056 0 0)
(0.866218 0 0)
(0.867385 0 0)
(0.868554 0 0)
(0.869728 0 0)
(0.870906 0 0)
(0.872087 0 0)
(0.873272 0 0)
(0.874461 0 0)
(0.875654 0 0)
(0.87685 0 0)
(0.878051 0 0)
(0.879256 0 0)
(0.880464 0 0)
(0.881677 0 0)
(0.882893 0 0)
(0.884114 0 0)
(0.885339 0 0)
(0.886567 0 0)
(0.8878 0 0)
(0.889037 0 0)
(0.890279 0 0)
(0.891524 0 0)
(0.892774 0 0)
(0.894028 0 0)
(0.895286 0 0)
(0.896548 0 0)
(0.897815 0 0)
(0.899086 0 0)
(0.900362 0 0)
(0.901642 0 0)
(0.902926 0 0)
(0.904215 0 0)
(0.905509 0 0)
(0.906807 0 0)
(0.908109 0 0)
(0.909416 0 0)
(0.910728 0 0)
(0.912044 0 0)
(0.913365 0 0)
(0.914691 0 0)
(0.916636 0 0)
(0.918331 0 0)
(0.918792 0 0)
(0.919189 0 0)
(0.919582 0 0)
(0.919976 0 0)
(0.92037 0 0)
(0.920765 0 0)
(0.92116 0 0)
(0.921555 0 0)
(0.921951 0 0)
(0.922347 0 0)
(0.922744 0 0)
(0.923141 0 0)
(0.923539 0 0)
(0.923937 0 0)
(0.924335 0 0)
(0.924734 0 0)
(0.925133 0 0)
(0.925533 0 0)
(0.925933 0 0)
(0.926333 0 0)
(0.926734 0 0)
(0.927136 0 0)
(0.927538 0 0)
(0.92794 0 0)
(0.928343 0 0)
(0.928746 0 0)
(0.929149 0 0)
(0.929553 0 0)
(0.929958 0 0)
(0.930363 0 0)
(0.930768 0 0)
(0.931174 0 0)
(0.93158 0 0)
(0.931987 0 0)
(0.932394 0 0)
(0.932802 0 0)
(0.93321 0 0)
(0.933618 0 0)
(0.934027 0 0)
(0.934436 0 0)
(0.934846 0 0)
(0.935256 0 0)
(0.935667 0 0)
(0.936078 0 0)
(0.93649 0 0)
(0.936902 0 0)
(0.937315 0 0)
(0.937728 0 0)
(0.938141 0 0)
(0.938555 0 0)
(0.938969 0 0)
(0.939384 0 0)
(0.939799 0 0)
(0.940215 0 0)
(0.940631 0 0)
(0.941048 0 0)
(0.941465 0 0)
(0.941883 0 0)
(0.942301 0 0)
(0.94272 0 0)
(0.943139 0 0)
(0.943558 0 0)
(0.943978 0 0)
(0.944399 0 0)
(0.94482 0 0)
(0.945241 0 0)
(0.945663 0 0)
(0.946085 0 0)
(0.946508 0 0)
(0.946931 0 0)
(0.947355 0 0)
(0.947779 0 0)
(0.948204 0 0)
(0.948629 0 0)
(0.949055 0 0)
(0.949481 0 0)
(0.949908 0 0)
(0.950335 0 0)
(0.950763 0 0)
(0.951191 0 0)
(0.95162 0 0)
(0.952049 0 0)
(0.952479 0 0)
(0.952909 0 0)
(0.953339 0 0)
(0.95377 0 0)
(0.954202 0 0)
(0.954634 0 0)
(0.955067 0 0)
(0.9555 0 0)
(0.955934 0 0)
(0.956368 0 0)
(0.956802 0 0)
(0.957238 0 0)
(0.957673 0 0)
(0.958109 0 0)
(0.958546 0 0)
(0.958983 0 0)
(0.959421 0 0)
(0.959859 0 0)
(0.960298 0 0)
(0.960737 0 0)
(0.961177 0 0)
(0.961617 0 0)
(0.962058 0 0)
(0.962499 0 0)
(0.962941 0 0)
(0.963383 0 0)
(0.963826 0 0)
(0.964269 0 0)
(0.964713 0 0)
(0.965158 0 0)
(0.965603 0 0)
(0.966048 0 0)
(0.966494 0 0)
(0.966941 0 0)
(0.967388 0 0)
(0.967835 0 0)
(0.968284 0 0)
(0.968732 0 0)
(0.969181 0 0)
(0.969631 0 0)
(0.970082 0 0)
(0.970532 0 0)
(0.970984 0 0)
(0.971436 0 0)
(0.971888 0 0)
(0.972341 0 0)
(0.972795 0 0)
(0.973249 0 0)
(0.973703 0 0)
(0.974159 0 0)
(0.974614 0 0)
(0.975071 0 0)
(0.975528 0 0)
(0.975985 0 0)
(0.976443 0 0)
(0.976902 0 0)
(0.977361 0 0)
(0.97782 0 0)
(0.978281 0 0)
(0.978741 0 0)
(0.979203 0 0)
(0.979665 0 0)
(0.980127 0 0)
(0.98059 0 0)
(0.981054 0 0)
(0.981518 0 0)
(0.981983 0 0)
(0.982448 0 0)
(0.982914 0 0)
(0.98338 0 0)
(0.983848 0 0)
(0.984315 0 0)
(0.984783 0 0)
(0.985252 0 0)
(0.985722 0 0)
(0.986192 0 0)
(0.986662 0 0)
(0.987133 0 0)
(0.987605 0 0)
(0.988078 0 0)
(0.98855 0 0)
(0.989024 0 0)
(0.989498 0 0)
(0.989973 0 0)
(0.990448 0 0)
(0.990924 0 0)
(0.991401 0 0)
(0.991878 0 0)
(0.992356 0 0)
(0.992834 0 0)
(0.993313 0 0)
(0.993792 0 0)
(0.994273 0 0)
(0.994753 0 0)
(0.995235 0 0)
(0.995717 0 0)
(0.996199 0 0)
(0.996683 0 0)
(0.997167 0 0)
(0.997651 0 0)
(0.998136 0 0)
(0.998622 0 0)
(0.999108 0 0)
(0.999595 0 0)
(1.00008 0 0)
(1.00057 0 0)
(1.00106 0 0)
(1.00155 0 0)
(1.00204 0 0)
(1.00253 0 0)
(1.00302 0 0)
(1.00351 0 0)
(1.00401 0 0)
(1.0045 0 0)
(1.00497 0 0)
(1.00587 0 0)
(0.998341 0 0)
(1.0561 0 0)
(1.12624 0 0)
(1.17043 0 0)
(1.1986 0 0)
(1.2186 0 0)
(1.23421 0 0)
(1.24731 0 0)
(1.25886 0 0)
(1.26941 0 0)
(1.27925 0 0)
(1.28856 0 0)
(1.29746 0 0)
(1.30603 0 0)
(1.31433 0 0)
(1.32239 0 0)
(1.33025 0 0)
(1.33793 0 0)
(1.34545 0 0)
(1.35284 0 0)
(1.36009 0 0)
(1.36723 0 0)
(1.37427 0 0)
(1.38121 0 0)
(1.38806 0 0)
(1.39484 0 0)
(1.40154 0 0)
(1.40817 0 0)
(1.41474 0 0)
(1.42125 0 0)
(1.4277 0 0)
(1.43411 0 0)
(1.44046 0 0)
(1.44678 0 0)
(1.45305 0 0)
(1.45929 0 0)
(1.46549 0 0)
(1.47166 0 0)
(1.47779 0 0)
(1.4839 0 0)
(1.48998 0 0)
(1.49604 0 0)
(1.50208 0 0)
(1.50809 0 0)
(1.51409 0 0)
(1.52006 0 0)
(1.52602 0 0)
(1.53197 0 0)
(1.5379 0 0)
(1.54382 0 0)
(1.54973 0 0)
(1.55563 0 0)
(1.56153 0 0)
(1.56741 0 0)
(1.57329 0 0)
(1.57917 0 0)
(1.58504 0 0)
(1.59092 0 0)
(1.59679 0 0)
(1.60266 0 0)
(1.60853 0 0)
(1.61441 0 0)
(1.6203 0 0)
(1.62619 0 0)
(1.63209 0 0)
(1.638 0 0)
(1.64391 0 0)
(1.64985 0 0)
(1.6558 0 0)
(1.66176 0 0)
(1.66775 0 0)
(1.67375 0 0)
(1.67978 0 0)
(1.68584 0 0)
(1.69193 0 0)
(1.69805 0 0)
(1.70421 0 0)
(1.71041 0 0)
(1.71666 0 0)
(1.72296 0 0)
(1.72933 0 0)
(1.73576 0 0)
(1.74227 0 0)
(1.74887 0 0)
(1.75557 0 0)
(1.76239 0 0)
(1.76935 0 0)
(1.77647 0 0)
(1.78379 0 0)
(1.79135 0 0)
(1.79921 0 0)
(1.80742 0 0)
(1.81608 0 0)
(1.82529 0 0)
(1.83519 0 0)
(1.84594 0 0)
(1.85774 0 0)
(1.87079 0 0)
(1.88529 0 0)
(1.90137 0 0)
(1.9451 0 0)
(1.96566 0 0)
(1.98487 0 0)
(2.00295 0 0)
(2.02005 0 0)
(2.0363 0 0)
(2.05181 0 0)
(2.06668 0 0)
(2.08095 0 0)
(2.09471 0 0)
(2.108 0 0)
(2.12086 0 0)
(2.13333 0 0)
(2.14544 0 0)
(2.15723 0 0)
(2.16871 0 0)
(2.17991 0 0)
(2.19086 0 0)
(2.20155 0 0)
(2.21203 0 0)
(2.22228 0 0)
(2.23234 0 0)
(2.24221 0 0)
(2.2519 0 0)
(2.26142 0 0)
(2.27078 0 0)
(2.27998 0 0)
(2.28905 0 0)
(2.29797 0 0)
(2.30677 0 0)
(2.31544 0 0)
(2.32399 0 0)
(2.33242 0 0)
(2.34074 0 0)
(2.34896 0 0)
(2.35708 0 0)
(2.3651 0 0)
(2.37302 0 0)
(2.38085 0 0)
(2.3886 0 0)
(2.39626 0 0)
(2.40384 0 0)
(2.41134 0 0)
(2.41877 0 0)
(2.42612 0 0)
(2.4334 0 0)
(2.44061 0 0)
(2.44775 0 0)
(2.45483 0 0)
(2.46184 0 0)
(2.46879 0 0)
(2.47568 0 0)
(2.48251 0 0)
(2.48929 0 0)
(2.49601 0 0)
(2.50267 0 0)
(2.50929 0 0)
(2.51585 0 0)
(2.52236 0 0)
(2.52883 0 0)
(2.53524 0 0)
(2.54161 0 0)
(2.54793 0 0)
(2.55421 0 0)
(2.56044 0 0)
(2.56664 0 0)
(2.57279 0 0)
(2.5789 0 0)
(2.58497 0 0)
(2.591 0 0)
(2.59699 0 0)
(2.60294 0 0)
(2.60886 0 0)
(2.61474 0 0)
(2.62059 0 0)
(2.6264 0 0)
(2.63217 0 0)
(2.63792 0 0)
(2.64362 0 0)
(2.6493 0 0)
(2.65495 0 0)
(2.66056 0 0)
(2.66615 0 0)
(2.6717 0 0)
(2.67722 0 0)
(2.68272 0 0)
(2.68818 0 0)
(2.69362 0 0)
(2.69903 0 0)
(2.70441 0 0)
(2.70977 0 0)
(2.71509 0 0)
(2.72039 0 0)
(2.72567 0 0)
(2.73092 0 0)
(2.73617 0 0)
(2.74144 0 0)
(2.74671 0 0)
(2.75183 0 0)
(2.75649 0 0)
(2.76031 0 0)
(2.76364 0 0)
(2.76695 0 0)
(2.77025 0 0)
(2.77355 0 0)
(2.77683 0 0)
(2.7801 0 0)
(2.78337 0 0)
(2.78662 0 0)
(2.78987 0 0)
(2.7931 0 0)
(2.79633 0 0)
(2.79954 0 0)
(2.80275 0 0)
(2.80595 0 0)
(2.80913 0 0)
(2.81231 0 0)
(2.81548 0 0)
(2.81864 0 0)
(2.8218 0 0)
(2.82494 0 0)
(2.82807 0 0)
(2.8312 0 0)
(2.83432 0 0)
(2.83742 0 0)
(2.84052 0 0)
(2.84362 0 0)
(2.8467 0 0)
(2.84977 0 0)
(2.85284 0 0)
(2.8559 0 0)
(2.85895 0 0)
(2.86199 0 0)
(2.86503 0 0)
(2.86805 0 0)
(2.87107 0 0)
(2.87408 0 0)
(2.87708 0 0)
(2.88008 0 0)
(2.88307 0 0)
(2.88605 0 0)
(2.88902 0 0)
(2.89198 0 0)
(2.89494 0 0)
(2.89789 0 0)
(2.90083 0 0)
(2.90377 0 0)
(2.9067 0 0)
(2.90962 0 0)
(2.91253 0 0)
(2.91544 0 0)
(2.91834 0 0)
(2.92123 0 0)
(2.92412 0 0)
(2.92699 0 0)
(2.92987 0 0)
(2.93273 0 0)
(2.93559 0 0)
(2.93844 0 0)
(2.94129 0 0)
(2.94412 0 0)
(2.94696 0 0)
(2.94978 0 0)
(2.9526 0 0)
(2.95541 0 0)
(2.95822 0 0)
(2.96102 0 0)
(2.96381 0 0)
(2.96659 0 0)
(2.96937 0 0)
(2.97215 0 0)
(2.97492 0 0)
(2.97768 0 0)
(2.98043 0 0)
(2.98318 0 0)
(2.98593 0 0)
(2.98866 0 0)
(2.99139 0 0)
(2.99412 0 0)
(2.99684 0 0)
(2.99955 0 0)
(3.00226 0 0)
(3.00496 0 0)
(3.00766 0 0)
(3.01035 0 0)
(3.01303 0 0)
(3.01571 0 0)
(3.01838 0 0)
(3.02105 0 0)
(3.02371 0 0)
(3.02637 0 0)
(3.02902 0 0)
(3.03167 0 0)
(3.03431 0 0)
(3.03694 0 0)
(3.03957 0 0)
(3.04219 0 0)
(3.04481 0 0)
(3.04742 0 0)
(3.05003 0 0)
(3.05263 0 0)
(3.05523 0 0)
(3.05782 0 0)
(3.06041 0 0)
(3.06299 0 0)
(3.06557 0 0)
(3.06814 0 0)
(3.0707 0 0)
(3.07327 0 0)
(3.07582 0 0)
(3.07837 0 0)
(3.08092 0 0)
(3.08346 0 0)
(3.08599 0 0)
(3.08853 0 0)
(3.09105 0 0)
(3.09357 0 0)
(3.09609 0 0)
(3.0986 0 0)
(3.10111 0 0)
(3.10361 0 0)
(3.10611 0 0)
(3.1086 0 0)
(3.11109 0 0)
(3.11357 0 0)
(3.11605 0 0)
(3.11852 0 0)
(3.12099 0 0)
(3.12346 0 0)
(3.12592 0 0)
(3.12837 0 0)
(3.13083 0 0)
(3.13327 0 0)
(3.13571 0 0)
(3.13815 0 0)
(3.14058 0 0)
(3.14301 0 0)
(3.14544 0 0)
(3.14786 0 0)
(3.15027 0 0)
(3.15268 0 0)
(3.15509 0 0)
(3.15749 0 0)
(3.15989 0 0)
(3.16228 0 0)
(3.16467 0 0)
(3.16706 0 0)
(3.16944 0 0)
(3.17182 0 0)
(3.17419 0 0)
(3.17656 0 0)
(3.17892 0 0)
(3.18128 0 0)
(3.18364 0 0)
(3.18599 0 0)
(3.18834 0 0)
(3.19068 0 0)
(3.19302 0 0)
(3.19536 0 0)
(3.19769 0 0)
(3.20002 0 0)
(3.20234 0 0)
(3.20466 0 0)
(3.20698 0 0)
(3.20929 0 0)
(3.2116 0 0)
(3.2139 0 0)
(3.2162 0 0)
(3.2185 0 0)
(3.22079 0 0)
(3.22308 0 0)
(3.22537 0 0)
(3.22765 0 0)
(3.22992 0 0)
(3.2322 0 0)
(3.23447 0 0)
(3.23673 0 0)
(3.239 0 0)
(3.24125 0 0)
(3.24351 0 0)
(3.24576 0 0)
(3.24801 0 0)
(3.25025 0 0)
(3.25249 0 0)
(3.25473 0 0)
(3.25696 0 0)
(3.25919 0 0)
(3.26142 0 0)
(3.26364 0 0)
(3.26586 0 0)
(3.26807 0 0)
(3.27028 0 0)
(3.27249 0 0)
(3.27469 0 0)
(3.2769 0 0)
(3.27909 0 0)
(3.28129 0 0)
(3.28348 0 0)
(3.28566 0 0)
(3.28785 0 0)
(3.29003 0 0)
(3.2922 0 0)
(3.29438 0 0)
(3.29655 0 0)
(3.29871 0 0)
(3.30088 0 0)
(3.30304 0 0)
(3.30519 0 0)
(3.30735 0 0)
(3.30949 0 0)
(3.31164 0 0)
(3.31378 0 0)
(3.31592 0 0)
(3.31806 0 0)
(3.32019 0 0)
(3.32232 0 0)
(3.32445 0 0)
(3.32657 0 0)
(3.32869 0 0)
(3.33081 0 0)
(3.33292 0 0)
(3.33504 0 0)
(3.33714 0 0)
(3.33925 0 0)
(3.34135 0 0)
(3.34345 0 0)
(3.34554 0 0)
(3.34763 0 0)
(3.34972 0 0)
(3.35181 0 0)
(3.35389 0 0)
(3.35597 0 0)
(3.35804 0 0)
(3.36012 0 0)
(3.36219 0 0)
(3.36425 0 0)
(3.36632 0 0)
(3.36838 0 0)
(3.37044 0 0)
(3.37249 0 0)
(3.37454 0 0)
(3.37659 0 0)
(3.37864 0 0)
(3.38068 0 0)
(3.38272 0 0)
(3.38476 0 0)
(3.38679 0 0)
(3.38882 0 0)
(3.39085 0 0)
(3.39288 0 0)
(3.3949 0 0)
(3.39692 0 0)
(3.39894 0 0)
(3.40095 0 0)
(3.40296 0 0)
(3.40497 0 0)
(3.40697 0 0)
(3.40898 0 0)
(3.41098 0 0)
(3.41297 0 0)
(3.41497 0 0)
(3.41696 0 0)
(3.41895 0 0)
(3.42093 0 0)
(3.42291 0 0)
(3.42489 0 0)
(3.42687 0 0)
(3.42884 0 0)
(3.43082 0 0)
(3.43278 0 0)
(3.43475 0 0)
(3.43671 0 0)
(3.43867 0 0)
(3.44063 0 0)
(3.44259 0 0)
(3.44454 0 0)
(3.44649 0 0)
(3.44844 0 0)
(3.45038 0 0)
(3.45232 0 0)
(3.45426 0 0)
(3.4562 0 0)
(3.45813 0 0)
(3.46006 0 0)
(3.46199 0 0)
(3.46392 0 0)
(3.46584 0 0)
(3.46776 0 0)
(3.46968 0 0)
(3.47159 0 0)
(3.47351 0 0)
(3.47542 0 0)
(3.47733 0 0)
(3.47923 0 0)
(3.48113 0 0)
(3.48303 0 0)
(3.48493 0 0)
(3.48683 0 0)
(3.48872 0 0)
(3.49061 0 0)
(3.49249 0 0)
(3.49438 0 0)
(3.49626 0 0)
(3.49814 0 0)
(3.50002 0 0)
(3.50189 0 0)
(3.50377 0 0)
(3.50564 0 0)
(3.5075 0 0)
(3.50937 0 0)
(3.51123 0 0)
(3.51309 0 0)
(3.51495 0 0)
(3.5168 0 0)
(3.51866 0 0)
(3.52051 0 0)
(3.52235 0 0)
(3.5242 0 0)
(3.52604 0 0)
(3.52788 0 0)
(3.52972 0 0)
(3.53156 0 0)
(3.53339 0 0)
(3.53522 0 0)
(3.53705 0 0)
(3.53888 0 0)
(3.5407 0 0)
(3.54252 0 0)
(3.54434 0 0)
(3.54616 0 0)
(3.54797 0 0)
(3.54979 0 0)
(3.5516 0 0)
(3.5534 0 0)
(3.55521 0 0)
(3.55701 0 0)
(3.55881 0 0)
(3.56061 0 0)
(3.56241 0 0)
(3.5642 0 0)
(3.56599 0 0)
(3.56778 0 0)
(3.56957 0 0)
(3.57135 0 0)
(3.57314 0 0)
(3.57493 0 0)
(3.5767 0 0)
(3.57844 0 0)
(3.58014 0 0)
(3.58191 0 0)
(3.58401 0 0)
(3.58637 0 0)
(3.58872 0 0)
(3.59107 0 0)
(3.59341 0 0)
(3.59575 0 0)
(3.59809 0 0)
(3.60042 0 0)
(3.60276 0 0)
(3.60508 0 0)
(3.60741 0 0)
(3.60973 0 0)
(3.61204 0 0)
(3.61436 0 0)
(3.61667 0 0)
(3.61898 0 0)
(3.62128 0 0)
(3.62358 0 0)
(3.62588 0 0)
(3.62817 0 0)
(3.63046 0 0)
(3.63275 0 0)
(3.63503 0 0)
(3.63731 0 0)
(3.63959 0 0)
(3.64186 0 0)
(3.64413 0 0)
(3.6464 0 0)
(3.64866 0 0)
(3.65092 0 0)
(3.65318 0 0)
(3.65544 0 0)
(3.65769 0 0)
(3.65994 0 0)
(3.66218 0 0)
(3.66442 0 0)
(3.66666 0 0)
(3.6689 0 0)
(3.67113 0 0)
(3.67336 0 0)
(3.67558 0 0)
(3.67781 0 0)
(3.68003 0 0)
(3.68224 0 0)
(3.68446 0 0)
(3.68667 0 0)
(3.68887 0 0)
(3.69108 0 0)
(3.69328 0 0)
(3.69548 0 0)
(3.69767 0 0)
(3.69986 0 0)
(3.70205 0 0)
(3.70424 0 0)
(3.70642 0 0)
(3.7086 0 0)
(3.71078 0 0)
(3.71295 0 0)
(3.71512 0 0)
(3.71729 0 0)
(3.71946 0 0)
(3.72162 0 0)
(3.72378 0 0)
(3.72593 0 0)
(3.72809 0 0)
(3.73024 0 0)
(3.73238 0 0)
(3.73453 0 0)
(3.73667 0 0)
(3.73881 0 0)
(3.74094 0 0)
(3.74308 0 0)
(3.74521 0 0)
(3.74733 0 0)
(3.74946 0 0)
(3.75158 0 0)
(3.7537 0 0)
(3.75581 0 0)
(3.75793 0 0)
(3.76004 0 0)
(3.76214 0 0)
(3.76425 0 0)
(3.76635 0 0)
(3.76845 0 0)
(3.77054 0 0)
(3.77264 0 0)
(3.77473 0 0)
(3.77681 0 0)
(3.7789 0 0)
(3.78098 0 0)
(3.78306 0 0)
(3.78514 0 0)
(3.78721 0 0)
(3.78928 0 0)
(3.79135 0 0)
(3.79342 0 0)
(3.79548 0 0)
(3.79754 0 0)
(3.7996 0 0)
(3.80165 0 0)
(3.8037 0 0)
(3.80575 0 0)
(3.8078 0 0)
(3.80985 0 0)
(3.81189 0 0)
(3.81393 0 0)
(3.81596 0 0)
(3.818 0 0)
(3.82003 0 0)
(3.82206 0 0)
(3.82408 0 0)
(3.8261 0 0)
(3.82812 0 0)
(3.83014 0 0)
(3.83216 0 0)
(3.83417 0 0)
(3.83618 0 0)
(3.83819 0 0)
(3.84019 0 0)
(3.8422 0 0)
(3.8442 0 0)
(3.84619 0 0)
(3.84819 0 0)
(3.85018 0 0)
(3.85217 0 0)
(3.85416 0 0)
(3.85614 0 0)
(3.85812 0 0)
(3.8601 0 0)
(3.86208 0 0)
(3.86406 0 0)
(3.86603 0 0)
(3.868 0 0)
(3.86996 0 0)
(3.87193 0 0)
(3.87389 0 0)
(3.87585 0 0)
(3.87781 0 0)
(3.87976 0 0)
(3.88172 0 0)
(3.88367 0 0)
(3.88561 0 0)
(3.88756 0 0)
(3.8895 0 0)
(3.89144 0 0)
(3.89338 0 0)
(3.89531 0 0)
(3.89725 0 0)
(3.89918 0 0)
(3.90111 0 0)
(3.90303 0 0)
(3.90495 0 0)
(3.90688 0 0)
(3.90879 0 0)
(3.91071 0 0)
(3.91262 0 0)
(3.91454 0 0)
(3.91644 0 0)
(3.91835 0 0)
(3.92026 0 0)
(3.92216 0 0)
(3.92406 0 0)
(3.92596 0 0)
(3.92785 0 0)
(3.92974 0 0)
(3.93163 0 0)
(3.93352 0 0)
(3.93541 0 0)
(3.93729 0 0)
(3.93917 0 0)
(3.94105 0 0)
(3.94293 0 0)
(3.94481 0 0)
(3.94666 0 0)
(3.94848 0 0)
(3.95036 0 0)
(3.95246 0 0)
(3.95481 0 0)
(3.95672 0 0)
(3.95624 0 0)
(3.95361 0 0)
(3.95247 0 0)
(3.9531 0 0)
(3.95356 0 0)
(3.95398 0 0)
(3.95439 0 0)
(3.95468 0 0)
(3.95476 0 0)
(3.95466 0 0)
(3.95452 0 0)
(3.95436 0 0)
(3.95411 0 0)
(3.95368 0 0)
(3.9531 0 0)
(3.95245 0 0)
(3.95169 0 0)
(3.95082 0 0)
(3.94983 0 0)
(3.94868 0 0)
(3.94747 0 0)
(3.94615 0 0)
(3.94476 0 0)
(3.94329 0 0)
(3.94168 0 0)
(3.93992 0 0)
(3.93801 0 0)
(3.936 0 0)
(3.93391 0 0)
(3.93174 0 0)
(3.92942 0 0)
(3.92696 0 0)
(3.92437 0 0)
(3.9217 0 0)
(3.91896 0 0)
(3.91611 0 0)
(3.91317 0 0)
(3.91012 0 0)
(3.90691 0 0)
(3.90356 0 0)
(3.90018 0 0)
(3.89665 0 0)
(3.89292 0 0)
(3.8891 0 0)
(3.88521 0 0)
(3.88119 0 0)
(3.87709 0 0)
(3.8729 0 0)
(3.86857 0 0)
(3.86412 0 0)
(3.85958 0 0)
(3.85496 0 0)
(3.85018 0 0)
(3.84524 0 0)
(3.84017 0 0)
(3.835 0 0)
(3.82976 0 0)
(3.82439 0 0)
(3.81894 0 0)
(3.8134 0 0)
(3.80768 0 0)
(3.8018 0 0)
(3.79578 0 0)
(3.78966 0 0)
(3.7835 0 0)
(3.77724 0 0)
(3.77089 0 0)
(3.76437 0 0)
(3.75768 0 0)
(3.75085 0 0)
(3.74391 0 0)
(3.73687 0 0)
(3.72969 0 0)
(3.7224 0 0)
(3.71502 0 0)
(3.70751 0 0)
(3.69989 0 0)
(3.69217 0 0)
(3.68425 0 0)
(3.67613 0 0)
(3.66783 0 0)
(3.65944 0 0)
(3.65102 0 0)
(3.64257 0 0)
(3.63409 0 0)
(3.62556 0 0)
(3.61682 0 0)
(3.6075 0 0)
(3.5974 0 0)
(3.58672 0 0)
(3.5764 0 0)
(3.56797 0 0)
(3.56278 0 0)
(3.56002 0 0)
(3.5548 0 0)
(3.53859 0 0)
(3.50413 0 0)
(3.45542 0 0)
(3.41665 0 0)
(3.43111 0 0)
(3.54284 0 0)
(3.75162 0 0)
(4.0219 0 0)
(4.02373 0 0)
(4.02555 0 0)
(4.02737 0 0)
(4.02919 0 0)
(4.03101 0 0)
(4.03283 0 0)
(4.03464 0 0)
(4.03645 0 0)
(4.03826 0 0)
(4.04007 0 0)
(4.04188 0 0)
(4.04368 0 0)
(4.04548 0 0)
(4.04728 0 0)
(4.04908 0 0)
(4.05087 0 0)
(4.05267 0 0)
(4.05446 0 0)
(4.05624 0 0)
(4.05803 0 0)
(4.05982 0 0)
(4.0616 0 0)
(4.06338 0 0)
(4.06516 0 0)
(4.06693 0 0)
(4.06871 0 0)
(4.07048 0 0)
(4.07225 0 0)
(4.07402 0 0)
(4.07578 0 0)
(4.07755 0 0)
(4.07931 0 0)
(4.08107 0 0)
(4.08282 0 0)
(4.08458 0 0)
(4.08633 0 0)
(4.08808 0 0)
(4.08983 0 0)
(4.09158 0 0)
(4.09333 0 0)
(4.09507 0 0)
(4.09681 0 0)
(4.09855 0 0)
(4.10029 0 0)
(4.10202 0 0)
(4.10376 0 0)
(4.10549 0 0)
(4.10722 0 0)
(4.10894 0 0)
(4.11067 0 0)
(4.11239 0 0)
(4.11412 0 0)
(4.11583 0 0)
(4.11755 0 0)
(4.11927 0 0)
(4.12098 0 0)
(4.12269 0 0)
(4.1244 0 0)
(4.12611 0 0)
(4.12782 0 0)
(4.12952 0 0)
(4.13122 0 0)
(4.13292 0 0)
(4.13462 0 0)
(4.13632 0 0)
(4.13801 0 0)
(4.1397 0 0)
(4.14139 0 0)
(4.14308 0 0)
(4.14477 0 0)
(4.14645 0 0)
(4.14813 0 0)
(4.14982 0 0)
(4.15149 0 0)
(4.15317 0 0)
(4.15485 0 0)
(4.15652 0 0)
(4.15819 0 0)
(4.15986 0 0)
(4.16153 0 0)
(4.16319 0 0)
(4.16485 0 0)
(4.1665 0 0)
(4.16817 0 0)
(4.16992 0 0)
(4.17174 0 0)
(4.1733 0 0)
(4.1739 0 0)
(4.1738 0 0)
(4.17371 0 0)
(4.17361 0 0)
(4.17352 0 0)
(4.17342 0 0)
(4.17333 0 0)
(4.17323 0 0)
(4.17314 0 0)
(4.17304 0 0)
(4.17295 0 0)
(4.17285 0 0)
(4.17276 0 0)
(4.17266 0 0)
(4.17257 0 0)
(4.17247 0 0)
(4.17238 0 0)
(4.17228 0 0)
(4.17219 0 0)
(4.1721 0 0)
(4.172 0 0)
(4.17191 0 0)
(4.17181 0 0)
(4.17172 0 0)
(4.17162 0 0)
(4.17153 0 0)
(4.17144 0 0)
(4.17134 0 0)
(4.17125 0 0)
(4.17116 0 0)
(4.17106 0 0)
(4.17097 0 0)
(4.17087 0 0)
(4.17078 0 0)
(4.17069 0 0)
(4.17059 0 0)
(4.1705 0 0)
(4.17041 0 0)
(4.17031 0 0)
(4.17022 0 0)
(4.17013 0 0)
(4.17003 0 0)
(4.16994 0 0)
(4.16985 0 0)
(4.16976 0 0)
(4.16966 0 0)
(4.16957 0 0)
(4.16948 0 0)
(4.16938 0 0)
(4.16929 0 0)
(4.1692 0 0)
(4.16911 0 0)
(4.16901 0 0)
(4.16892 0 0)
(4.16883 0 0)
(4.16874 0 0)
(4.16864 0 0)
(4.16855 0 0)
(4.16846 0 0)
(4.16837 0 0)
(4.16828 0 0)
(4.16818 0 0)
(4.16809 0 0)
(4.168 0 0)
(4.16791 0 0)
(4.16782 0 0)
(4.16772 0 0)
(4.16763 0 0)
(4.16754 0 0)
(4.16745 0 0)
(4.16736 0 0)
(4.16727 0 0)
(4.16718 0 0)
(4.16708 0 0)
(4.16699 0 0)
(4.1669 0 0)
(4.16681 0 0)
(4.16672 0 0)
(4.16663 0 0)
(4.16654 0 0)
(4.16645 0 0)
(4.16636 0 0)
(4.16626 0 0)
(4.16617 0 0)
(4.16608 0 0)
(4.16599 0 0)
(4.1659 0 0)
(4.16581 0 0)
(4.16572 0 0)
(4.16563 0 0)
(4.16554 0 0)
(4.16545 0 0)
(4.16536 0 0)
(4.16527 0 0)
(4.16518 0 0)
(4.16509 0 0)
(4.165 0 0)
(4.16491 0 0)
(4.16482 0 0)
(4.16473 0 0)
(4.16464 0 0)
(4.16455 0 0)
(4.16446 0 0)
(4.16437 0 0)
(4.16428 0 0)
(4.16419 0 0)
(4.1641 0 0)
(4.16401 0 0)
(4.16392 0 0)
(4.16383 0 0)
(4.16374 0 0)
(4.16365 0 0)
(4.16356 0 0)
(4.16347 0 0)
(4.16339 0 0)
(4.1633 0 0)
(4.16321 0 0)
(4.16312 0 0)
(4.16303 0 0)
(4.16294 0 0)
(4.16285 0 0)
(4.16276 0 0)
(4.16267 0 0)
(4.16259 0 0)
(4.1625 0 0)
(4.16241 0 0)
(4.16232 0 0)
(4.16223 0 0)
(4.16214 0 0)
(4.16205 0 0)
(4.16197 0 0)
(4.16188 0 0)
(4.16179 0 0)
(4.1617 0 0)
(4.16161 0 0)
(4.16153 0 0)
(4.16144 0 0)
(4.16135 0 0)
(4.16126 0 0)
(4.16117 0 0)
(4.16109 0 0)
(4.161 0 0)
(4.16091 0 0)
(4.16082 0 0)
(4.16074 0 0)
(4.16065 0 0)
(4.16056 0 0)
(4.16047 0 0)
(4.16039 0 0)
(4.1603 0 0)
(4.16021 0 0)
(4.16012 0 0)
(4.16004 0 0)
(4.15995 0 0)
(4.15986 0 0)
(4.15978 0 0)
(4.15969 0 0)
(4.1596 0 0)
(4.15952 0 0)
(4.15943 0 0)
(4.15934 0 0)
(4.15926 0 0)
(4.15917 0 0)
(4.15908 0 0)
(4.159 0 0)
(4.15891 0 0)
(4.15882 0 0)
(4.15874 0 0)
(4.15865 0 0)
(4.15856 0 0)
(4.15848 0 0)
(4.15839 0 0)
(4.15831 0 0)
(4.15822 0 0)
(4.15813 0 0)
(4.15805 0 0)
(4.15796 0 0)
(4.15788 0 0)
(4.15779 0 0)
(4.1577 0 0)
(4.15762 0 0)
(4.15753 0 0)
(4.15745 0 0)
(4.15736 0 0)
(4.15728 0 0)
(4.15719 0 0)
(4.1571 0 0)
(4.15702 0 0)
(4.15693 0 0)
(4.15685 0 0)
(4.15676 0 0)
(4.15668 0 0)
(4.15659 0 0)
(4.15651 0 0)
(4.15642 0 0)
(4.15634 0 0)
(4.15625 0 0)
(4.15617 0 0)
(4.15608 0 0)
(4.156 0 0)
(4.15591 0 0)
(4.15583 0 0)
(4.15575 0 0)
(4.15566 0 0)
(4.15558 0 0)
(4.15549 0 0)
(4.15541 0 0)
(4.15532 0 0)
(4.15524 0 0)
(4.15515 0 0)
(4.15507 0 0)
(4.15499 0 0)
(4.1549 0 0)
(4.15482 0 0)
(4.15473 0 0)
(4.15465 0 0)
(4.15457 0 0)
(4.15448 0 0)
(4.1544 0 0)
(4.15432 0 0)
(4.15423 0 0)
(4.15415 0 0)
(4.15406 0 0)
(4.15398 0 0)
(4.1539 0 0)
(4.15381 0 0)
(4.15373 0 0)
(4.15365 0 0)
(4.15356 0 0)
(4.15348 0 0)
(4.1534 0 0)
(4.15331 0 0)
(4.15323 0 0)
(4.15315 0 0)
(4.15307 0 0)
(4.15298 0 0)
(4.1529 0 0)
(4.15282 0 0)
(4.15273 0 0)
(4.15265 0 0)
(4.15257 0 0)
(4.15249 0 0)
(4.1524 0 0)
(4.15232 0 0)
(4.15224 0 0)
(4.15216 0 0)
(4.15207 0 0)
(4.15199 0 0)
(4.15191 0 0)
(4.15183 0 0)
(4.15174 0 0)
(4.15166 0 0)
(4.15158 0 0)
(4.1515 0 0)
(4.15142 0 0)
(4.15133 0 0)
(4.15125 0 0)
(4.15117 0 0)
(4.15109 0 0)
(4.15101 0 0)
(4.15092 0 0)
(4.15084 0 0)
(4.15076 0 0)
(4.15068 0 0)
(4.1506 0 0)
(4.15052 0 0)
(4.15044 0 0)
(4.15035 0 0)
(4.15027 0 0)
(4.15019 0 0)
(4.15012 0 0)
(4.15005 0 0)
(4.14993 0 0)
(4.14973 0 0)
(4.14956 0 0)
(4.14988 0 0)
(4.15116 0 0)
(4.15225 0 0)
(4.14816 0 0)
(4.13284 0 0)
(4.11699 0 0)
(4.15581 0 0)
(4.33195 0 0)
(4.55318 0 0)
(4.15331 0 0)
(2.67522 0 0)
(1.39967 0 0)
(1.01899 0 0)
(0.979628 0 0)
(0.977401 0 0)
(0.977016 0 0)
(0.976702 0 0)
(0.976381 0 0)
(0.976049 0 0)
(0.975707 0 0)
(0.975353 0 0)
(0.974987 0 0)
(0.97461 0 0)
(0.97422 0 0)
(0.97382 0 0)
(0.973402 0 0)
(0.973 0 0)
(0.972814 0 0)
(0.972815 0 0)
(0.972811 0 0)
(0.972792 0 0)
(0.97276 0 0)
(0.972712 0 0)
(0.97265 0 0)
(0.972572 0 0)
(0.972479 0 0)
(0.97237 0 0)
(0.972245 0 0)
(0.972104 0 0)
(0.971947 0 0)
(0.971773 0 0)
(0.971582 0 0)
(0.971374 0 0)
(0.971149 0 0)
(0.970907 0 0)
(0.970648 0 0)
(0.970371 0 0)
(0.970076 0 0)
(0.969764 0 0)
(0.969434 0 0)
(0.969087 0 0)
(0.968722 0 0)
(0.96834 0 0)
(0.967941 0 0)
(0.967524 0 0)
(0.967091 0 0)
(0.966641 0 0)
(0.966174 0 0)
(0.965692 0 0)
(0.965194 0 0)
(0.96468 0 0)
(0.964152 0 0)
(0.96361 0 0)
(0.963053 0 0)
(0.962484 0 0)
(0.961902 0 0)
(0.961308 0 0)
(0.960703 0 0)
(0.960088 0 0)
(0.959463 0 0)
(0.958829 0 0)
(0.958188 0 0)
(0.957539 0 0)
(0.956884 0 0)
(0.956223 0 0)
(0.955559 0 0)
(0.95489 0 0)
(0.95422 0 0)
(0.953548 0 0)
(0.952875 0 0)
(0.952202 0 0)
(0.951531 0 0)
(0.950862 0 0)
(0.950196 0 0)
(0.949534 0 0)
(0.948877 0 0)
(0.948226 0 0)
(0.947581 0 0)
(0.946943 0 0)
(0.946312 0 0)
(0.945691 0 0)
(0.945078 0 0)
(0.944476 0 0)
(0.943883 0 0)
(0.943302 0 0)
(0.942731 0 0)
(0.942173 0 0)
(0.941626 0 0)
(0.941091 0 0)
(0.940569 0 0)
(0.94006 0 0)
(0.939563 0 0)
(0.93908 0 0)
(0.93861 0 0)
(0.938152 0 0)
(0.937708 0 0)
(0.937277 0 0)
(0.936859 0 0)
(0.936454 0 0)
(0.936062 0 0)
(0.935682 0 0)
(0.935315 0 0)
(0.93496 0 0)
(0.934617 0 0)
(0.934285 0 0)
(0.933966 0 0)
(0.933657 0 0)
(0.93336 0 0)
(0.933073 0 0)
(0.932797 0 0)
(0.932531 0 0)
(0.932274 0 0)
(0.932027 0 0)
(0.93179 0 0)
(0.93156 0 0)
(0.93134 0 0)
(0.931128 0 0)
(0.930923 0 0)
(0.930726 0 0)
(0.930536 0 0)
(0.930354 0 0)
(0.930177 0 0)
(0.930008 0 0)
(0.929844 0 0)
(0.929686 0 0)
(0.929534 0 0)
(0.929387 0 0)
(0.929244 0 0)
(0.929107 0 0)
(0.928974 0 0)
(0.928845 0 0)
(0.928721 0 0)
(0.9286 0 0)
(0.928483 0 0)
(0.928369 0 0)
(0.928259 0 0)
(0.928151 0 0)
(0.928047 0 0)
(0.927945 0 0)
(0.927846 0 0)
(0.927749 0 0)
(0.927654 0 0)
(0.927562 0 0)
(0.927471 0 0)
(0.927382 0 0)
(0.927295 0 0)
(0.92721 0 0)
(0.927126 0 0)
(0.927044 0 0)
(0.926962 0 0)
(0.926883 0 0)
(0.926804 0 0)
(0.926726 0 0)
(0.926649 0 0)
(0.926573 0 0)
(0.926498 0 0)
(0.926424 0 0)
(0.92635 0 0)
(0.926277 0 0)
(0.926205 0 0)
(0.926133 0 0)
(0.926061 0 0)
(0.925991 0 0)
(0.92592 0 0)
(0.92585 0 0)
(0.92578 0 0)
(0.925711 0 0)
(0.925642 0 0)
(0.925573 0 0)
(0.925504 0 0)
(0.925436 0 0)
(0.925368 0 0)
(0.9253 0 0)
(0.925232 0 0)
(0.925164 0 0)
(0.925097 0 0)
(0.925029 0 0)
(0.924962 0 0)
(0.924894 0 0)
(0.924827 0 0)
(0.92476 0 0)
(0.924693 0 0)
(0.924626 0 0)
(0.924558 0 0)
(0.924491 0 0)
(0.924424 0 0)
(0.924357 0 0)
(0.92429 0 0)
(0.924223 0 0)
(0.924156 0 0)
(0.924089 0 0)
(0.924022 0 0)
(0.923955 0 0)
(0.923888 0 0)
(0.923821 0 0)
(0.923754 0 0)
(0.923687 0 0)
(0.92362 0 0)
(0.923553 0 0)
(0.923486 0 0)
(0.923419 0 0)
(0.923352 0 0)
(0.923285 0 0)
(0.923217 0 0)
(0.92315 0 0)
(0.923083 0 0)
(0.923016 0 0)
(0.922948 0 0)
(0.922881 0 0)
(0.922814 0 0)
(0.922746 0 0)
(0.922679 0 0)
(0.922612 0 0)
(0.922544 0 0)
(0.922477 0 0)
(0.922409 0 0)
(0.922342 0 0)
(0.922274 0 0)
(0.922207 0 0)
(0.922139 0 0)
(0.922071 0 0)
(0.922004 0 0)
(0.921936 0 0)
(0.921868 0 0)
(0.921801 0 0)
(0.921733 0 0)
(0.921665 0 0)
(0.921597 0 0)
(0.921529 0 0)
(0.921461 0 0)
(0.921393 0 0)
(0.921325 0 0)
(0.921257 0 0)
(0.921189 0 0)
(0.921121 0 0)
(0.921053 0 0)
(0.920985 0 0)
(0.920917 0 0)
(0.920848 0 0)
(0.92078 0 0)
(0.920712 0 0)
(0.920643 0 0)
(0.920575 0 0)
(0.920506 0 0)
(0.920438 0 0)
(0.920369 0 0)
(0.920301 0 0)
(0.920232 0 0)
(0.920163 0 0)
(0.920094 0 0)
(0.920026 0 0)
(0.919957 0 0)
(0.919888 0 0)
(0.919819 0 0)
(0.91975 0 0)
(0.919681 0 0)
(0.919612 0 0)
(0.919543 0 0)
(0.919474 0 0)
(0.919404 0 0)
(0.919335 0 0)
(0.919266 0 0)
(0.919197 0 0)
(0.919127 0 0)
(0.919058 0 0)
(0.918988 0 0)
(0.918919 0 0)
(0.918849 0 0)
(0.91878 0 0)
(0.91871 0 0)
(0.91864 0 0)
(0.918571 0 0)
(0.918501 0 0)
(0.918431 0 0)
(0.918361 0 0)
(0.918292 0 0)
(0.918222 0 0)
(0.918152 0 0)
(0.918082 0 0)
(0.918012 0 0)
(0.917942 0 0)
(0.917872 0 0)
(0.917802 0 0)
(0.917732 0 0)
(0.917662 0 0)
(0.917592 0 0)
(0.917522 0 0)
(0.917452 0 0)
(0.917382 0 0)
(0.917312 0 0)
(0.917242 0 0)
(0.917171 0 0)
(0.917101 0 0)
(0.917031 0 0)
(0.916961 0 0)
(0.916891 0 0)
(0.916821 0 0)
(0.91675 0 0)
(0.91668 0 0)
(0.91661 0 0)
(0.91654 0 0)
(0.91647 0 0)
(0.9164 0 0)
(0.916329 0 0)
(0.916259 0 0)
(0.916189 0 0)
(0.916119 0 0)
(0.916049 0 0)
(0.915978 0 0)
(0.915908 0 0)
(0.915838 0 0)
(0.915768 0 0)
(0.915698 0 0)
(0.915627 0 0)
(0.915557 0 0)
(0.915487 0 0)
(0.915416 0 0)
(0.915346 0 0)
(0.915276 0 0)
(0.915205 0 0)
(0.915135 0 0)
(0.915064 0 0)
(0.914994 0 0)
(0.914923 0 0)
(0.914853 0 0)
(0.914782 0 0)
(0.914711 0 0)
(0.91464 0 0)
(0.914569 0 0)
(0.914498 0 0)
(0.914427 0 0)
(0.914356 0 0)
(0.914284 0 0)
(0.914213 0 0)
(0.914141 0 0)
(0.91407 0 0)
(0.913998 0 0)
(0.913925 0 0)
(0.913853 0 0)
(0.913781 0 0)
(0.913708 0 0)
(0.913635 0 0)
(0.913562 0 0)
(0.913489 0 0)
(0.913415 0 0)
(0.913341 0 0)
(0.913267 0 0)
(0.913192 0 0)
(0.913118 0 0)
(0.913042 0 0)
(0.912967 0 0)
(0.912891 0 0)
(0.912815 0 0)
(0.912738 0 0)
(0.912661 0 0)
(0.912584 0 0)
(0.912506 0 0)
(0.912427 0 0)
(0.912349 0 0)
(0.912269 0 0)
(0.912189 0 0)
(0.912109 0 0)
(0.912028 0 0)
(0.911946 0 0)
(0.911864 0 0)
(0.911782 0 0)
(0.911698 0 0)
(0.911614 0 0)
(0.911529 0 0)
(0.911444 0 0)
(0.911358 0 0)
(0.911271 0 0)
(0.911183 0 0)
(0.911095 0 0)
(0.911006 0 0)
(0.910916 0 0)
(0.910825 0 0)
(0.910733 0 0)
(0.910641 0 0)
(0.910547 0 0)
(0.910453 0 0)
(0.910358 0 0)
(0.910262 0 0)
(0.910165 0 0)
(0.910067 0 0)
(0.909968 0 0)
(0.909868 0 0)
(0.909767 0 0)
(0.909665 0 0)
(0.909562 0 0)
(0.909458 0 0)
(0.909353 0 0)
(0.909247 0 0)
(0.90914 0 0)
(0.909032 0 0)
(0.908923 0 0)
(0.908813 0 0)
(0.908702 0 0)
(0.90859 0 0)
(0.908477 0 0)
(0.908362 0 0)
(0.908247 0 0)
(0.908131 0 0)
(0.908014 0 0)
(0.907895 0 0)
(0.907776 0 0)
(0.907656 0 0)
(0.907535 0 0)
(0.907412 0 0)
(0.907289 0 0)
(0.907165 0 0)
(0.907041 0 0)
(0.906915 0 0)
(0.906788 0 0)
(0.906661 0 0)
(0.906533 0 0)
(0.906404 0 0)
(0.906274 0 0)
(0.906144 0 0)
(0.906013 0 0)
(0.905881 0 0)
(0.905749 0 0)
(0.905616 0 0)
(0.905483 0 0)
(0.905349 0 0)
(0.905214 0 0)
(0.90508 0 0)
(0.904944 0 0)
(0.904809 0 0)
(0.904673 0 0)
(0.904537 0 0)
(0.904401 0 0)
(0.904264 0 0)
(0.904128 0 0)
(0.903991 0 0)
(0.903854 0 0)
(0.903718 0 0)
(0.903581 0 0)
(0.903444 0 0)
(0.903308 0 0)
(0.903172 0 0)
(0.903036 0 0)
(0.9029 0 0)
(0.902764 0 0)
(0.902629 0 0)
(0.902494 0 0)
(0.90236 0 0)
(0.902226 0 0)
(0.902092 0 0)
(0.901959 0 0)