/*--------------------------------*- C++ -*----------------------------------*\
| =========                 |                                                 |
| \\      /  F ield         | foam-extend: Open Source CFD                    |
|  \\    /   O peration     | Version:     3.1                                |
|   \\  /    A nd           | Web:         http://www.extend-project.de       |
|    \\/     M anipulation  |                                                 |
\*---------------------------------------------------------------------------*/
FoamFile
{
    version     2.0;
    format      ascii;
    class       regIOobject;
    location    "32/uniform";
    object      profilingInfo;
}
// * * * * * * * * * * * * * * * * * * * * * * * * * * * * * * * * * * * * * //

profilingInfo
(

    {
        id              10;
        parentId        8;
        description     "Foam::Time::writeObject - outputTime";
        calls           16;
        totalTime       0.795121;
        childTime       0;
        onStack         1;
    }

    {
        id              8;
        parentId        1;
        description     "Foam::Time::writeObject";
        calls           52877;
        totalTime       0.934006;
        childTime       0.795121;
        onStack         1;
    }

    {
        id              1;
        description     "application::main";
        calls           1;
        totalTime       132.913;
        childTime       33.1584;
        onStack         1;
    }

    {
        id              3;
        parentId        2;
        description     "functionObjectList::read";
        calls           1;
        totalTime       6e-06;
        childTime       0;
        onStack         0;
    }

    {
        id              9;
        parentId        1;
        description     "functionObjects_.execute()";
        calls           52876;
        totalTime       0.189845;
        childTime       0;
        onStack         0;
    }

    {
        id              2;
        parentId        1;
        description     "functionObjects_.start()";
        calls           1;
        totalTime       2.5e-05;
        childTime       6e-06;
        onStack         0;
    }

    {
        id              4;
        parentId        1;
        description     "fvMatrix::solve_H";
        calls           52877;
        totalTime       14.8812;
        childTime       11.4662;
        onStack         0;
    }

    {
        id              6;
        parentId        1;
        description     "fvMatrix::solve_HU";
        calls           52877;
        totalTime       17.1533;
        childTime       11.2952;
        onStack         0;
    }

    {
        id              5;
        parentId        4;
        description     "lduMatrix::solver_H";
        calls           52877;
        totalTime       11.4662;
        childTime       0;
        onStack         0;
    }

    {
        id              7;
        parentId        6;
        description     "lduMatrix::solver_HUx";
        calls           52877;
        totalTime       11.2952;
        childTime       0;
        onStack         0;
    }
);


// ************************************************************************* //
