/*--------------------------------*- C++ -*----------------------------------*\
| =========                 |                                                 |
| \\      /  F ield         | foam-extend: Open Source CFD                    |
|  \\    /   O peration     | Version:     3.1                                |
|   \\  /    A nd           | Web:         http://www.extend-project.de       |
|    \\/     M anipulation  |                                                 |
\*---------------------------------------------------------------------------*/
FoamFile
{
    version     2.0;
    format      ascii;
    class       volScalarField;
    location    "19.5";
    object      nut;
}
// * * * * * * * * * * * * * * * * * * * * * * * * * * * * * * * * * * * * * //

dimensions      [0 2 -1 0 0 0 0];

internalField   nonuniform List<scalar> 
119952
(
4.779412e-05
3.229911e-05
3.312301e-05
3.654178e-05
3.875959e-05
3.668536e-05
3.512052e-05
3.380031e-05
3.249673e-05
3.112464e-05
2.970117e-05
2.840471e-05
2.746792e-05
2.696109e-05
2.673517e-05
2.655491e-05
2.626311e-05
2.584176e-05
2.530107e-05
2.464419e-05
3.152721e-05
2.966783e-05
2.90165e-05
3.758501e-05
3.63622e-05
3.580261e-05
3.53432e-05
3.530005e-05
3.523991e-05
2.36877e-05
2.890938e-05
3.186565e-05
3.636954e-05
4.096482e-05
4.581343e-05
5.092882e-05
5.621516e-05
6.14006e-05
6.649212e-05
7.528876e-05
0.0003188633
0.0003562437
0.0003947629
0.0004332267
0.0004721879
0.0005135175
0.000559216
0.0006108991
0.0006692782
0.0009660713
0.00104963
0.001142366
0.001243977
0.001355509
0.001476747
0.001606163
0.001740649
0.001876215
0.002005768
0.00212659
0.002229405
0.002311087
0.002371872
0.002414966
0.002444878
0.002465778
0.002481003
0.002495885
0.002479822
0.002405237
0.002370273
0.002349982
0.00233025
0.002285163
0.00222775
0.002156206
0.002064005
0.001952763
0.001832591
0.001719318
0.001626652
0.001561048
0.001522593
0.001507325
0.001511613
0.001532616
0.001568289
0.001618248
0.001680386
0.001746373
0.001819587
0.001907193
0.001998805
0.002075364
0.002136587
0.002168188
0.002122204
0.001977596
0.001942117
0.001926984
0.001922964
0.001920923
0.001915289
0.001902035
0.001876727
0.001835601
0.001776298
0.001699023
0.001606906
0.001505616
0.001402522
0.001305652
0.001222119
0.001156148
0.001107913
0.001074724
0.001053142
0.00103985
0.001032043
0.001028026
0.001027256
0.001029847
0.001035867
0.001045079
0.001057066
0.001071075
0.001086542
0.001103105
0.001120538
0.001138697
0.001157458
0.001176665
0.001196121
0.001215638
0.001234906
0.001252792
0.001267832
0.001279057
0.00128579
0.001287223
0.001281879
0.001268158
0.001244923
0.00121185
0.0011698
0.001121206
0.001070803
0.001021731
0.0009714822
0.0009257553
0.000885615
0.000851153
0.0008229655
0.000801094
0.0007852893
0.0007749915
0.0007694284
0.0007677801
0.0007691628
0.0007726718
0.0007773349
0.0007823221
0.0007872587
0.0007918721
0.0007959539
0.0007993461
0.0008018768
0.0008035102
0.0008042511
0.0008041141
0.0008031448
0.0008014068
0.0007989626
0.0007958559
0.0007921055
0.000787712
0.0007826958
0.0007770114
0.0007704593
0.0007629377
0.0007543881
0.000744825
0.0007343418
0.0007230363
0.0007110548
0.0006985191
0.0006855377
0.0006722183
0.0006586828
0.0006450848
0.0006316177
0.0006185112
0.0006059966
0.0005942811
0.0005834425
0.0005736346
0.0005660385
0.0004618939
0.000460911
0.0004565085
0.0004323645
0.0004133436
0.0003981133
0.0003854606
0.0003746134
0.0003650358
0.0003564554
0.0003486318
0.0003414076
0.0003346476
0.0003282401
0.0003220686
0.000316028
0.0003100177
0.0003039497
0.0002977553
0.0002913956
0.0002848785
0.0002782826
0.0002717632
0.0002655342
0.0002598215
0.000254794
0.0002504979
0.0002468534
0.0002436816
0.0002407654
0.0002378911
0.0002348849
0.0002316391
0.0002281178
0.0002246522
0.0002236313
0.0002209427
0.0002214061
0.000222153
0.000223107
0.0002242387
0.0002256554
0.0002275171
0.0002299658
0.0002330658
0.0002367746
0.0002410768
0.0002459085
0.000251277
0.0002567485
0.0002626934
0.0002695855
0.0002771987
0.0002855319
0.0002945635
0.0003041253
0.0003096175
0.000314981
0.0003204273
0.0003259512
0.0003315072
0.0003370326
0.0003424371
0.0003476559
0.00035265
0.0003573468
0.0003617079
0.0003657125
0.0003693627
0.0003726418
0.0004819798
0.0004880897
0.0004933432
0.0004979931
0.0005020635
0.0005056842
0.0005092053
0.0005129141
0.0005168036
0.0005208351
0.0005249557
0.0005291126
0.000533276
0.0005374438
0.0005416269
0.0005458554
0.0005501778
0.0005546382
0.0005592695
0.0005640907
0.0005690953
0.0005742439
0.0005794718
0.0005847042
0.0005898796
0.0005949805
0.0006000445
0.0006051425
0.0006103552
0.0006157081
0.0006211058
0.0006263942
0.0006314038
0.0006359702
0.000639941
0.000643218
0.0006457951
0.0006477518
0.0006492098
0.0006502761
0.0006510356
0.0006515825
0.000652007
0.0006523814
0.0006527533
0.0006531251
0.0006532813
0.0006535572
0.0006540915
0.0006548969
0.0006560014
0.0006573993
0.0006590809
0.0006615398
0.0006643355
0.000665799
0.0006675576
0.000669485
0.0006716024
0.0006738277
0.0006760652
0.0006782074
0.0006801369
0.0006817302
0.0006828722
0.0006834755
0.0006835155
0.0006830331
0.00068217
0.0006811519
0.0006801914
0.0006794585
0.0006790892
0.0006791463
0.0006797053
0.0006808185
0.0006825084
0.000684774
0.0006875499
0.0006907168
0.0006941568
0.0006977677
0.0007014629
0.0007051555
0.000708731
0.0007120521
0.0007149794
0.0007174043
0.000719275
0.0007206032
0.0007214555
0.0007219589
0.0007223194
0.0007228272
0.0007238179
0.0007255972
0.000728371
0.0007322102
0.0007370489
0.0007426963
0.0007488646
0.0007552201
0.0007614568
0.0007673716
0.0007729028
0.0007780968
0.0007830104
0.0007876185
0.0007917998
0.0007953898
0.000798246
0.0008002962
0.0008015607
0.0008021397
0.0008021667
0.000801748
0.0008009333
0.0007997333
0.000798141
0.0007961291
0.0007936445
0.0007906245
0.0007870138
0.0007827774
0.0007779132
0.0007724714
0.0007665647
0.0007603696
0.0007540984
0.0007479649
0.0007421503
0.0007368111
0.0007321019
0.0007282159
0.0007254498
0.0007242865
0.0007255883
0.0007313376
0.0006208098
4.052262e-05
4.44133e-05
4.968019e-05
5.601335e-05
6.312643e-05
7.070507e-05
7.852628e-05
8.648767e-05
9.550164e-05
0.0003867271
0.0004801059
0.0005838818
0.0006896327
0.0007930242
0.0008921308
0.0009860162
0.001074101
0.001155693
0.001667492
0.001737369
0.001806505
0.00187253
0.001937742
0.002002661
0.002066982
0.002130651
0.002193699
0.002255933
0.002322093
0.002391704
0.002468603
0.002556619
0.002657036
0.002768181
0.002886051
0.003006155
0.003126218
0.003231799
0.003325556
0.003431494
0.003549568
0.003670338
0.003780475
0.003866144
0.003915855
0.003926669
0.003906006
0.003863978
0.003805704
0.003735509
0.003659409
0.003588206
0.003535787
0.003516024
0.003539731
0.0036114
0.004535085
0.004710314
0.00491074
0.005129304
0.005358987
0.005591423
0.005816791
0.006026116
0.00621261
0.006369747
0.006490996
0.006572681
0.006616507
0.006629117
0.006619294
0.006593891
0.006559601
0.00652399
0.006486045
0.006429569
0.006361012
0.006302117
0.006242289
0.006176025
0.006099785
0.006009928
0.005899486
0.00576263
0.005598861
0.005413468
0.005215739
0.005016248
0.004825482
0.004653452
0.004509606
0.004401819
0.004335189
0.00431163
0.004330342
0.004386875
0.0044724
0.004578174
0.004695842
0.004821548
0.00494855
0.005066356
0.005165159
0.005238974
0.005303318
0.005370774
0.005430151
0.005478988
0.00551276
0.005526133
0.005513922
0.005470706
0.005391951
0.005275156
0.005120798
0.004932893
0.004719122
0.004490292
0.004258811
0.004036218
0.003830757
0.0036465
0.003484015
0.003341728
0.003217707
0.003111086
0.003021771
0.002950077
0.002896198
0.002859689
0.002839429
0.00283384
0.00284124
0.002860134
0.002889331
0.002927963
0.002975395
0.003031029
0.00309411
0.003163624
0.00323828
0.003316542
0.003397176
0.003478568
0.003558366
0.003633257
0.003699405
0.003753251
0.003791435
0.003811093
0.003810193
0.003787838
0.003744451
0.00368176
0.003602202
0.003506674
0.003401015
0.003289451
0.003176875
0.003068129
0.002967519
0.002878495
0.002803474
0.002743847
0.002700043
0.002671635
0.002657501
0.002656102
0.002665813
0.002684989
0.002711989
0.002745204
0.002783109
0.002824302
0.002867523
0.002911678
0.002955845
0.00299928
0.003041393
0.003081714
0.003119856
0.003155461
0.003188192
0.003217668
0.003243428
0.003264985
0.003281976
0.003294178
0.003301535
0.003304131
0.003302101
0.003295596
0.00328479
0.003269917
0.003251296
0.003229363
0.003204697
0.003178048
0.003150294
0.00312236
0.003095079
0.003069226
0.003045516
0.003028451
0.00285934
0.002678391
0.002562856
0.00248524
0.00243047
0.002389821
0.002358128
0.002332284
0.002310435
0.00229149
0.002274777
0.002259837
0.002246276
0.002233663
0.002221471
0.002209088
0.002195843
0.002181038
0.002163979
0.002144047
0.002120821
0.002094228
0.002064685
0.002033172
0.002001054
0.0019699
0.00194104
0.001915255
0.001892709
0.001873083
0.00185575
0.001839891
0.001824698
0.001809726
0.001795232
0.001782305
0.001771556
0.001759148
0.001743814
0.001725734
0.001705625
0.001684532
0.001663791
0.001644813
0.00162876
0.001616415
0.001608228
0.001604438
0.001605055
0.001610034
0.001618318
0.001630038
0.001645745
0.001666291
0.00169236
0.001723633
0.001759584
0.001799099
0.001840764
0.001883107
0.001924789
0.001964658
0.002001776
0.002035353
0.00206477
0.002089619
0.002109692
0.002124946
0.002135501
0.002141476
0.002565411
0.002569202
0.002568601
0.002564624
0.002558366
0.002550749
0.00254254
0.002534301
0.002526391
0.002518991
0.002512161
0.002505912
0.002500278
0.002495351
0.002491271
0.002488217
0.002486376
0.002485905
0.002486896
0.002489332
0.00249305
0.002497759
0.002503108
0.002508789
0.002514641
0.002520702
0.002527168
0.002534219
0.002541843
0.002549764
0.002557504
0.002564551
0.002570398
0.002574549
0.002576623
0.00257644
0.002574026
0.002569561
0.002563294
0.002555488
0.002546407
0.002536304
0.002525435
0.002514019
0.002502275
0.002490395
0.002478708
0.002467704
0.002457735
0.002448825
0.002441008
0.002434331
0.002428832
0.00242458
0.002421521
0.002419436
0.002418232
0.002417782
0.002417926
0.002418459
0.002419237
0.002419983
0.002420272
0.002419724
0.002418061
0.00241522
0.002411308
0.002406239
0.002399964
0.002392626
0.002384939
0.002377551
0.002370951
0.0023655
0.002361398
0.002358657
0.002357063
0.002356202
0.002356074
0.002356805
0.002358531
0.002361408
0.002365111
0.0023692
0.002373233
0.002376765
0.002379405
0.002380856
0.002380934
0.002379584
0.002376922
0.002373312
0.002369418
0.002366106
0.002364247
0.00236454
0.002367412
0.002372969
0.002380989
0.002390978
0.002402262
0.00241413
0.002426008
0.002437566
0.002448706
0.002459399
0.002469505
0.002478709
0.002486601
0.002492783
0.002496972
0.002499068
0.002499164
0.002497498
0.002494333
0.00248987
0.002484212
0.002477384
0.002469359
0.00246006
0.002449371
0.002437141
0.002423212
0.002407443
0.002389759
0.00237019
0.002348915
0.002326255
0.002302649
0.002278605
0.002254621
0.002231181
0.002208936
0.002188861
0.002171628
0.002158177
0.002149047
0.002145209
0.00214332
6.439869e-05
9.138347e-05
0.0001408263
0.0001977814
0.000233598
0.0002717458
0.0003120038
0.0003541066
0.0003971598
0.0004583219
0.001285269
0.001626451
0.001796225
0.001933899
0.002061669
0.002184014
0.002301608
0.002413575
0.00251598
0.003620828
0.003847887
0.004045737
0.00421304
0.004351739
0.004466842
0.004563861
0.004646938
0.004718241
0.004776817
0.004826368
0.004876103
0.004929819
0.004989778
0.005054524
0.00511832
0.005172608
0.005210554
0.0052359
0.005181885
0.005157874
0.00516886
0.005211414
0.005274661
0.005346187
0.00541992
0.00549696
0.00557934
0.005664886
0.005745652
0.005815767
0.005873907
0.005922744
0.005965587
0.006003673
0.006036379
0.006060548
0.006970278
0.006963901
0.006948896
0.006929118
0.006906427
0.006882992
0.006860792
0.006840486
0.006822227
0.006807918
0.006802506
0.006812182
0.006842037
0.006894943
0.006969009
0.007056647
0.007149448
0.007243024
0.007337385
0.007437519
0.007551383
0.007679156
0.007810294
0.007929466
0.008021714
0.008074385
0.00808165
0.008050087
0.007991911
0.007919462
0.007834572
0.007738372
0.007636133
0.007537292
0.007454124
0.007409103
0.007420334
0.007494936
0.007610861
0.007775069
0.007974322
0.008194722
0.008422861
0.008644214
0.008844536
0.009014705
0.009151437
0.009252195
0.009313372
0.009334554
0.009321721
0.00928551
0.009237368
0.009188533
0.009133961
0.00906555
0.008987802
0.008896738
0.008801704
0.008715255
0.008636493
0.008559278
0.008477025
0.008383204
0.008271131
0.008135179
0.007972379
0.007784847
0.00757767
0.007358165
0.007135853
0.006922475
0.006731249
0.00657489
0.006463503
0.006403127
0.006395461
0.006437392
0.00652123
0.006639065
0.006779764
0.00692882
0.007077
0.007218308
0.007347285
0.007461009
0.007565998
0.007666218
0.007756032
0.007828861
0.007879815
0.007903864
0.007895973
0.007851305
0.00776616
0.007638763
0.007469765
0.007262796
0.00702473
0.006765252
0.00649567
0.006227051
0.005968249
0.005724945
0.005499766
0.005293255
0.005105377
0.00493665
0.00478837
0.004662299
0.004559971
0.004482064
0.004428197
0.00439713
0.004387113
0.004396259
0.00442282
0.004465334
0.004522563
0.004593286
0.004676121
0.004769428
0.004871215
0.004979022
0.005089924
0.005200764
0.005308363
0.00540942
0.005500376
0.005577549
0.005637496
0.005677302
0.005694738
0.005688334
0.005657611
0.005603029
0.00552605
0.005428181
0.005313064
0.005185478
0.005050495
0.00491374
0.004780708
0.004656547
0.004545605
0.004451183
0.00437543
0.004319361
0.00428299
0.004265553
0.004265727
0.004281783
0.004311705
0.00435332
0.004404412
0.004462806
0.004526449
0.004593453
0.00466226
0.004731474
0.004799962
0.004866835
0.004931299
0.004992636
0.005050172
0.005103146
0.005150812
0.005192543
0.005227914
0.005256761
0.005279163
0.0052953
0.005305311
0.005309293
0.005307377
0.005299806
0.005286978
0.005269484
0.005248142
0.005223999
0.005198243
0.005172042
0.005146355
0.005121863
0.005098858
0.005077003
0.005041874
0.005018122
0.005000549
0.004986002
0.004972576
0.004959218
0.004945489
0.004931378
0.004917108
0.004902974
0.004889208
0.004875906
0.004862956
0.004850026
0.004836606
0.004822079
0.004805775
0.004787014
0.004765173
0.00473979
0.004710674
0.00467802
0.004642497
0.004605134
0.004567238
0.004530069
0.004494543
0.004461092
0.004429722
0.004400125
0.004371754
0.00434393
0.004316018
0.004287536
0.004258144
0.004227419
0.004194245
0.00415753
0.004117286
0.004074259
0.004029606
0.003984796
0.003941449
0.003901104
0.003865048
0.003834246
0.003809383
0.00379097
0.003779474
0.003775398
0.003779228
0.003791325
0.003811708
0.003839859
0.00387467
0.003914305
0.003958232
0.004007031
0.004059525
0.0041137
0.004167791
0.004220207
0.00426949
0.004314362
0.004353816
0.004387122
0.004413848
0.004433763
0.004446917
0.004455182
0.004444195
0.004429476
0.004411767
0.004391992
0.004370982
0.004349541
0.004328336
0.004307801
0.004288139
0.004269382
0.004251486
0.004234435
0.004218309
0.004203303
0.004189716
0.004177889
0.004168139
0.004160703
0.004155679
0.004152967
0.00415225
0.004153046
0.004154838
0.004157233
0.004160081
0.004163508
0.004167809
0.00417314
0.00417931
0.004185745
0.004191665
0.004196345
0.00419917
0.004199613
0.004197344
0.0041923
0.004184644
0.004174663
0.004162666
0.004148934
0.004133713
0.004117223
0.00409967
0.004081261
0.004062272
0.004043092
0.004023885
0.004004606
0.003985445
0.003967059
0.003949958
0.003934645
0.003921334
0.003910075
0.003899981
0.003891737
0.003885406
0.00388078
0.003877512
0.003875146
0.003873052
0.003870644
0.003867489
0.003863131
0.003857107
0.003848907
0.003838141
0.003825195
0.003810741
0.003795606
0.003780638
0.003766605
0.003754146
0.003743779
0.003735861
0.003730524
0.003727652
0.003726911
0.003727811
0.00372977
0.003732117
0.003734147
0.003735975
0.003737859
0.003739503
0.003740373
0.003740016
0.003738091
0.003734386
0.003728847
0.003721663
0.003713422
0.003705195
0.003698328
0.00369356
0.003691418
0.003692443
0.00369705
0.003704846
0.00371511
0.003726959
0.003739533
0.003752195
0.003764655
0.003776897
0.0037889
0.00380039
0.003810841
0.003819638
0.003826233
0.003830261
0.003831608
0.003830434
0.003827089
0.003821938
0.003815228
0.003807064
0.003797462
0.003786371
0.003773673
0.003759178
0.003742635
0.003723763
0.003702288
0.003678012
0.003650873
0.003621019
0.003588824
0.003554902
0.003520022
0.003485042
0.003451223
0.003419533
0.00339047
0.003365158
0.003344102
0.003327753
0.003315696
0.003307696
4.911514e-05
8.503452e-05
0.0001796741
0.0006438564
0.001133105
0.002151004
0.002877145
0.003745061
0.004669366
0.005397147
0.00585346
0.006204496
0.006487678
0.006643215
0.006784435
0.006910117
0.006667508
0.006445953
0.006324044
0.006274571
0.00632801
0.006443901
0.00656864
0.006827447
0.007152237
0.007550022
0.008034133
0.008637721
0.009442801
0.009635948
0.009759477
0.01
0.01
0.01
0.01
0.01
0.01
0.01
0.01
0.01
0.01
0.01
0.01
0.01
0.01
0.01
0.01
0.01
0.01
0.01
0.01
0.01
0.01
0.01
0.01
0.01
0.01
0.01
0.01
0.01
0.01
0.01
0.01
0.01
0.01
0.01
0.01
0.01
0.01
0.01
0.01
0.01
0.009954429
0.009878388
0.009806723
0.009739435
0.009675429
0.009616496
0.009568521
0.009538556
0.009532623
0.009553705
0.009597427
0.009652081
0.009707334
0.009759616
0.009811427
0.009873198
0.009955952
0.01
0.01
0.01
0.01
0.01
0.01
0.01000001
0.01000003
0.01000017
0.0100005
0.009978472
0.009873337
0.00978468
0.009727747
0.009707725
0.009743201
0.009838911
0.009986717
0.01000005
0.01000004
0.01000001
0.01
0.01
0.01
0.01
0.01000001
0.01000001
0.01000001
0.01000001
0.01
0.01
0.01
0.01
0.01000001
0.01000001
0.01000001
0.01
0.01
0.01
0.01
0.01
0.01
0.01
0.01000001
0.01000004
0.009862166
0.009680152
0.009478756
0.009263632
0.009043024
0.008828219
0.008632599
0.008469538
0.008350198
0.008282687
0.008269574
0.0083075
0.008388457
0.008502664
0.008639796
0.008788156
0.008937776
0.009081474
0.009214812
0.009335874
0.009446139
0.009545332
0.009629403
0.009693096
0.009732232
0.00974345
0.009723359
0.00966913
0.009579272
0.009453289
0.009291756
0.009097149
0.008874286
0.008629551
0.008370054
0.00810481
0.007841598
0.007586118
0.007341902
0.007111063
0.006895241
0.006696339
0.006517197
0.006360962
0.006230319
0.006126992
0.006051454
0.006003012
0.005980136
0.005980901
0.006003326
0.006045536
0.006105732
0.00618204
0.006272398
0.006374539
0.006485864
0.006603214
0.006722887
0.00684109
0.006954339
0.00705937
0.007152883
0.007231655
0.007292917
0.007334511
0.00735476
0.007352395
0.007326714
0.007277682
0.007206056
0.007113254
0.007001947
0.006875927
0.006739732
0.006598507
0.006457714
0.006322743
0.006198559
0.006089266
0.005998011
0.005926838
0.005876732
0.005847745
0.005839087
0.005849307
0.005876426
0.005918212
0.005972193
0.006035833
0.006106672
0.006182439
0.006261139
0.006341087
0.00642093
0.006499573
0.006576019
0.006649277
0.006718347
0.006782219
0.006839982
0.006890977
0.006934906
0.006971875
0.007002209
0.007026129
0.007043628
0.007054612
0.007059098
0.007057336
0.007049854
0.007037454
0.007021187
0.007002309
0.006982133
0.006961789
0.006942042
0.006923305
0.006905624
0.006888716
0.006871065
0.006853167
0.006835071
0.006816504
0.006797099
0.006776685
0.006755454
0.00673391
0.006712657
0.006692173
0.006672716
0.006654288
0.006636588
0.006619032
0.006600911
0.006581524
0.006560231
0.006536462
0.006509781
0.006479957
0.00644704
0.006411372
0.006373711
0.006335119
0.006296765
0.00625953
0.0062239
0.006189896
0.006157218
0.006125366
0.00609367
0.006061302
0.006027549
0.005991827
0.005953574
0.005912054
0.005866367
0.005816088
0.005761833
0.005704993
0.005647335
0.005590751
0.005537028
0.005487609
0.005443511
0.00540533
0.005373478
0.005348354
0.005330555
0.005320955
0.005320576
0.005330247
0.005350252
0.005380133
0.005418684
0.005464077
0.005514004
0.005565647
0.005618739
0.005672878
0.005726569
0.005778373
0.005826858
0.005870732
0.005908981
0.005940876
0.005965958
0.005984038
0.005995052
0.005999257
0.005996163
0.005986697
0.005972042
0.005953597
0.005932793
0.00591083
0.00588851
0.005866255
0.005844203
0.005822321
0.00580056
0.005779013
0.005757967
0.005737879
0.005719323
0.005702869
0.005688984
0.005677959
0.005669856
0.005664462
0.005661301
0.005659729
0.005659122
0.005659084
0.005659565
0.005660814
0.00566323
0.00566683
0.005671161
0.005675333
0.005678322
0.005679312
0.005677728
0.005673208
0.005665648
0.00565522
0.005642285
0.005627234
0.005610376
0.005591912
0.005571958
0.005550566
0.005527777
0.005503675
0.005478231
0.005451421
0.005423759
0.005396032
0.005368931
0.005343036
0.005318779
0.005296498
0.005276403
0.005258735
0.005243588
0.005231084
0.005221094
0.00521329
0.005207213
0.005202295
0.005197864
0.005193166
0.005187399
0.00517977
0.005169595
0.00515644
0.005140292
0.005121666
0.005101478
0.005080774
0.005060529
0.005041603
0.005024764
0.005010683
0.004999839
0.00499241
0.004988219
0.00498678
0.004987396
0.004989285
0.004991676
0.004993892
0.004995374
0.004995565
0.004994527
0.004992217
0.004988248
0.00498232
0.004974256
0.004964061
0.004952081
0.004939283
0.004927313
0.004916991
0.004909446
0.004905445
0.004905099
0.00490822
0.004915042
0.004924644
0.004935948
0.004947988
0.004960117
0.004972138
0.004984168
0.004996214
0.005007852
0.005018334
0.005026887
0.005032879
0.005035894
0.005035817
0.005032894
0.005027617
0.005020463
0.005011712
0.005001459
0.00498971
0.004976386
0.004961308
0.004944186
0.004924649
0.004902289
0.004876719
0.004847659
0.004815026
0.004779027
0.004740183
0.00469932
0.004657278
0.004615334
0.004574854
0.004537122
0.004503209
0.004472959
0.00444689
0.00442548
0.004408492
0.004396498
2.62368e-05
4.350798e-05
6.759996e-05
0.0002981315
0.0004959425
0.0008775597
0.001249079
0.00159052
0.002015829
0.002423518
0.002856002
0.003400019
0.004029121
0.00470944
0.005420717
0.006249333
0.007757944
0.008251543
0.008644614
0.008870066
0.008964068
0.008979349
0.008338424
0.007625793
0.006992934
0.006470926
0.006077696
0.005812853
0.005661946
0.005616365
0.005660763
0.00579865
0.006002366
0.006301584
0.006707275
0.007239583
0.007965535
0.008914984
0.01
0.01
0.01
0.01
0.01
0.01
0.01
0.01
0.01
0.01
0.01
0.01
0.01
0.01
0.01
0.01
0.01
0.01
0.01
0.01
0.01
0.01
0.01
0.01
0.01
0.01
0.01
0.01
0.01
0.01
0.01
0.01
0.01
0.01
0.01
0.01
0.01
0.01
0.01
0.01
0.01
0.01000001
0.01000001
0.01000001
0.01000001
0.01
0.01
0.01000001
0.01000002
0.01000002
0.01000002
0.01000001
0.01
0.01
0.01
0.01
0.01
0.01000001
0.01000003
0.01000003
0.01000002
0.01000001
0.01000001
0.01000003
0.01000007
0.01000007
0.01000004
0.01000006
0.01000027
0.01000157
0.01000296
0.0100018
0.01000035
0.01000002
0.01
0.01
0.01
0.01000004
0.01000024
0.01000031
0.01000021
0.01000005
0.01
0.01
0.01
0.01000001
0.01000006
0.01000013
0.01000013
0.01000009
0.01000003
0.01000001
0.01000001
0.01000001
0.01000003
0.01000005
0.01000006
0.01000005
0.01000004
0.01000001
0.01000001
0.01
0.01
0.01000001
0.01000005
0.01000063
0.01000698
0.01001326
0.01000993
0.01000263
0.01000025
0.01000001
0.01
0.01
0.01
0.00990633
0.009855205
0.009854075
0.009897255
0.00997527
0.01
0.01
0.01
0.01
0.01
0.01
0.01
0.01
0.01
0.01
0.01
0.01000001
0.01000001
0.01000004
0.01000016
0.01000018
0.01000009
0.01000001
0.01
0.01
0.01000001
0.009775501
0.009540851
0.009304489
0.009070697
0.00884223
0.00862088
0.008409716
0.008212155
0.008032168
0.007873735
0.007740229
0.007633941
0.007555809
0.007505468
0.00748161
0.00748235
0.007505536
0.007548921
0.007610207
0.007686956
0.007776576
0.007876449
0.007983818
0.008095303
0.008206888
0.008314772
0.008415983
0.008507952
0.008587913
0.008653193
0.008701872
0.008732793
0.008745024
0.008737628
0.008709946
0.008661849
0.008593839
0.0085071
0.008403724
0.008286724
0.008159862
0.008027492
0.007894338
0.007765212
0.00764475
0.007537095
0.007445571
0.007372616
0.007319716
0.007287422
0.007275409
0.007282612
0.007307304
0.00734728
0.007400027
0.007462893
0.007533254
0.007608683
0.007687079
0.007766754
0.007846437
0.007925106
0.008001767
0.008075315
0.008144512
0.008208144
0.008265277
0.008315411
0.008358589
0.008395412
0.008426541
0.008452091
0.008471658
0.008484806
0.008491442
0.008491928
0.008487081
0.008478045
0.00846614
0.008452765
0.008439184
0.008426237
0.008414232
0.00840308
0.008392413
0.008381666
0.008370126
0.008357269
0.008342667
0.008325813
0.008306288
0.008284143
0.008260072
0.008235232
0.008210755
0.008187323
0.008165159
0.008144123
0.008123693
0.008103022
0.008081247
0.008057751
0.008032167
0.008004311
0.007974177
0.007941921
0.007907788
0.007872139
0.007835554
0.007798793
0.007762637
0.007727636
0.007693908
0.007661158
0.007628912
0.007596592
0.00756347
0.007528678
0.007491469
0.007451299
0.007407458
0.007358972
0.0073051
0.007246011
0.007183033
0.007118326
0.007054246
0.006992881
0.006935806
0.006883954
0.006837697
0.006797082
0.006762129
0.006733161
0.006711048
0.006697226
0.006693296
0.006700401
0.006718712
0.006747396
0.006784882
0.006829152
0.006877927
0.006928852
0.006979609
0.007029947
0.007079281
0.007126354
0.007169869
0.007208591
0.007241626
0.007268401
0.007288565
0.007301955
0.007308546
0.007308487
0.007302116
0.007290225
0.007274098
0.007255224
0.007234908
0.007214018
0.007192933
0.007171686
0.007150108
0.007127953
0.007105112
0.00708181
0.007058582
0.007036214
0.007015593
0.006997457
0.006982311
0.006970388
0.006961617
0.006955626
0.006951788
0.006949339
0.00694758
0.006946128
0.006945021
0.006944674
0.006945611
0.006947587
0.006949787
0.006951016
0.006950153
0.006946505
0.006939721
0.006929753
0.006916842
0.00690146
0.006884151
0.006865348
0.006845263
0.006823889
0.00680107
0.006776545
0.006749922
0.006721041
0.0066902
0.006657912
0.006624864
0.006591855
0.006559628
0.006528759
0.00649966
0.006472668
0.006448111
0.006426336
0.006407508
0.006391687
0.006378811
0.006368624
0.006360623
0.006354077
0.006348106
0.006341754
0.006334024
0.006323944
0.006310695
0.006293798
0.006273335
0.006250083
0.006225301
0.006200258
0.006175996
0.00615342
0.006133429
0.00611687
0.006104333
0.00609594
0.006091309
0.006089675
0.006090096
0.006091607
0.006093305
0.006094409
0.006094322
0.006092606
0.006088889
0.006083151
0.006075395
0.006065408
0.006053007
0.006038212
0.006021467
0.006004043
0.005987487
0.005973601
0.005963751
0.005958527
0.005957834
0.005961063
0.005967565
0.005976703
0.005987348
0.005998551
0.006009734
0.006020828
0.006032097
0.006043574
0.006054656
0.006064412
0.006072011
0.006076811
0.006078362
0.006076531
0.006071631
0.006064316
0.006055188
0.006044563
0.006032549
0.006019154
0.00600426
0.00598759
0.005968723
0.005947153
0.005922349
0.00589384
0.005861317
0.005824742
0.005784448
0.005741153
0.005695858
0.005649635
0.005603899
0.005559995
0.005519094
0.005482162
0.00544977
0.005421728
0.005397266
0.005377302
0.005362663
2.405118e-05
3.738472e-05
7.616362e-05
0.0002343597
0.0003802087
0.0006137334
0.00079051
0.0009914204
0.0012263
0.001454245
0.00171902
0.002060715
0.002445489
0.002893975
0.003462484
0.004566418
0.005072567
0.005601241
0.006140691
0.006683812
0.007232359
0.007772724
0.008282055
0.00874141
0.00913595
0.009448483
0.009683893
0.009817207
0.009650691
0.009207686
0.008626968
0.007920618
0.007206834
0.006584658
0.00605511
0.005627066
0.005315578
0.005127054
0.005049135
0.005089394
0.005260279
0.005552224
0.00596511
0.006507172
0.007225807
0.008156855
0.009370562
0.01
0.01
0.01
0.01
0.01
0.01
0.01
0.01
0.01
0.01
0.01
0.01
0.01
0.01
0.01
0.01
0.01
0.01000001
0.01000002
0.01000003
0.01000005
0.01000005
0.01000004
0.01000002
0.01000001
0.01000001
0.01000001
0.01000003
0.01000008
0.01000011
0.01000008
0.01000004
0.01000004
0.0100001
0.01000029
0.01000039
0.01000031
0.01000016
0.01000011
0.01000014
0.01000029
0.01000069
0.01000101
0.01000092
0.01000039
0.01000011
0.01000011
0.01000018
0.01000052
0.01000082
0.01000049
0.0100001
0.01000003
0.01000003
0.01000004
0.01000006
0.01000009
0.01000024
0.01000058
0.01000061
0.01000031
0.01000013
0.0100002
0.01000066
0.01000213
0.01000241
0.01000129
0.0100002
0.01000043
0.01000407
0.01001053
0.01000706
0.01000167
0.0100001
0.01
0.01
0.01000002
0.01000026
0.01000123
0.01000097
0.01000027
0.01000002
0.01
0.01
0.01000001
0.01000002
0.01000012
0.01000043
0.01000064
0.01000062
0.01000048
0.01000028
0.01000016
0.01000016
0.0100002
0.01000039
0.01000075
0.01000096
0.0100008
0.0100003
0.01000011
0.01000011
0.0100001
0.01000008
0.0100002
0.01000417
0.01002269
0.01002385
0.01001153
0.01000213
0.01000015
0.01
0.01
0.01
0.01
0.01
0.01
0.01
0.01
0.01
0.01
0.01
0.01
0.01000001
0.01000002
0.01000001
0.01
0.01
0.01
0.01
0.01000001
0.01000006
0.01000088
0.01000196
0.01000172
0.01000075
0.01000019
0.01000003
0.01000001
0.01000003
0.01000049
0.01000172
0.01000157
0.01000062
0.0100001
0.01000002
0.009999317
0.009805699
0.009619678
0.009445267
0.009286732
0.00914812
0.00903273
0.00894269
0.008878759
0.008840397
0.008826185
0.00883405
0.008861586
0.008906298
0.008965667
0.009037098
0.009117869
0.009205548
0.009297982
0.009392223
0.009484271
0.009570622
0.009649363
0.009719073
0.009777576
0.009822619
0.009853062
0.009868716
0.009869244
0.009853896
0.009822036
0.009773557
0.009708911
0.009629135
0.009535982
0.009431923
0.00932003
0.009203814
0.009087014
0.008973204
0.008866255
0.008769997
0.008687607
0.008621487
0.008573256
0.008543747
0.008533005
0.008540251
0.00856395
0.00860199
0.008651863
0.008710868
0.008776328
0.008845818
0.008917342
0.008989364
0.009060937
0.009131547
0.009200421
0.009266423
0.009328105
0.00938409
0.009433533
0.009476231
0.009512721
0.009544299
0.009571981
0.009595475
0.00961362
0.009625551
0.009631199
0.00963123
0.009626941
0.009619951
0.009611837
0.009603991
0.009597389
0.009592275
0.009588248
0.009584627
0.009580627
0.009575438
0.009568371
0.009558949
0.009546787
0.009531252
0.009511555
0.009487868
0.009461472
0.009434511
0.009408895
0.009385177
0.009363179
0.009342363
0.009321825
0.009300346
0.009276862
0.009250932
0.009222719
0.009192709
0.009161494
0.009129626
0.009097354
0.009064659
0.009031503
0.008998203
0.008965239
0.008933011
0.008901544
0.008870515
0.00883939
0.008807554
0.008774274
0.008738702
0.008700094
0.0086579
0.008611368
0.008559422
0.008501254
0.008437331
0.00836975
0.008301701
0.008236301
0.008175709
0.0081209
0.00807189
0.008028144
0.007989002
0.0079541
0.007923778
0.007899353
0.007882978
0.007876907
0.007882424
0.007899228
0.007925773