/*--------------------------------*- C++ -*----------------------------------*\
| =========                 |                                                 |
| \\      /  F ield         | foam-extend: Open Source CFD                    |
|  \\    /   O peration     | Version:     3.1                                |
|   \\  /    A nd           | Web:         http://www.extend-project.de       |
|    \\/     M anipulation  |                                                 |
\*---------------------------------------------------------------------------*/
FoamFile
{
    version     2.0;
    format      ascii;
    class       volScalarField;
    location    "19.5";
    object      pd;
}
// * * * * * * * * * * * * * * * * * * * * * * * * * * * * * * * * * * * * * //

dimensions      [1 -1 -2 0 0 0 0];

internalField   nonuniform List<scalar> 
119952
(
5157.923
4125.826
4021.243
4211.913
4403.583
4336.391
4341.687
4371.571
4396.189
4424.291
4447.118
4465.671
4484.47
4507.191
4534.182
4563.446
4590.713
4614.741
4630.754
4618.525
4794.103
4726.316
4718.435
4942.327
4935.529
4984.984
5020.241
5098.21
5317.999
5754.039
3417.282
3385.21
3409.517
3433.233
3463.517
3499.664
3542.691
3592.944
3648.071
3684.927
3757.141
3824.272
3885.366
3942.115
3991.203
4031.297
4061.24
4077.955
4083.347
4093.079
4065.415
4018.997
3973.96
3921.742
3864.451
3806.027
3750.983
3702.594
3667.512
3636.053
3617.104
3619.282
3635.363
3664.552
3704.187
3756.217
3821.81
3929.777
4103.262
4050.105
4104.221
4207.445
4280.064
4318.833
4339.844
4367.749
4397.39
4424.782
4449.974
4473.496
4496.886
4521.73
4548.241
4575.39
4601.495
4626.016
4649.349
4673.863
4710.701
4746.118
4771.883
4839.448
4928.563
4964.391
4994.914
5027.006
5019.308
4909.386
4904.602
4948.222
4973.876
4998.331
5020.687
5041.309
5061.778
5082.449
5103.773
5125.9
5148.75
5172.052
5195.405
5218.4
5240.813
5262.822
5284.812
5306.998
5329.298
5351.475
5373.095
5393.654
5412.793
5430.498
5446.906
5462.131
5476.278
5489.396
5501.427
5512.424
5522.46
5531.627
5540.017
5547.742
5554.916
5561.652
5568.008
5574.057
5579.942
5585.697
5591.42
5597.17
5602.967
5608.809
5614.651
5620.4
5625.955
5631.259
5637.064
5646.446
5654.969
5658.879
5664.494
5670.004
5675.326
5680.544
5685.649
5690.669
5695.609
5700.475
5705.267
5709.956
5714.502
5718.868
5722.984
5726.805
5730.322
5733.469
5736.208
5738.545
5740.457
5741.951
5743.05
5743.783
5744.177
5744.266
5744.084
5743.667
5743.05
5742.323
5741.494
5740.547
5739.589
5738.656
5737.787
5736.992
5736.291
5735.703
5735.238
5734.904
5734.703
5734.629
5734.666
5734.787
5734.946
5735.068
5735.038
5734.723
5734.067
5739.245
5739.437
5739.675
5739.811
5740.04
5740.36
5740.795
5741.419
5742.121
5742.987
5744.012
5745.184
5746.482
5747.889
5749.376
5750.933
5752.546
5754.196
5755.866
5757.531
5759.156
5760.704
5762.134
5763.406
5764.484
5765.344
5765.972
5766.348
5766.441
5766.197
5765.539
5764.338
5762.36
5759.057
5753.065
5746.359
5755.729
5762.833
5767.691
5771.716
5775.295
5778.581
5781.649
5784.526
5787.198
5789.625
5791.777
5793.619
5795.138
5796.257
5796.923
5797.343
5797.445
5797.224
5796.689
5795.835
5794.649
5793.159
5791.399
5789.396
5787.2
5784.844
5782.364
5779.793
5777.179
5774.55
5771.953
5769.432
5766.956
5764.378
5776.575
5767.972
5757.296
5755.84
5754.416
5752.42
5750.972
5749.957
5749.167
5748.591
5748.26
5748.167
5748.235
5748.529
5749.018
5749.691
5750.524
5751.498
5752.59
5753.775
5755.027
5756.322
5757.639
5758.968
5760.299
5761.628
5762.953
5764.266
5765.557
5766.824
5768.055
5769.234
5770.364
5771.444
5772.468
5773.436
5774.341
5775.182
5775.967
5776.69
5777.344
5777.936
5778.489
5779.044
5779.598
5779.72
5778.622
5777.045
5775.682
5774.347
5772.955
5771.565
5769.968
5766.102
5759.166
5760.638
5760.321
5758.051
5755.845
5753.577
5751.09
5748.497
5745.83
5743.081
5740.27
5737.408
5734.53
5731.651
5728.797
5725.983
5723.233
5720.559
5717.962
5715.427
5712.977
5710.586
5708.253
5705.955
5703.672
5701.398
5699.124
5696.844
5694.557
5692.264
5689.977
5687.704
5685.456
5683.241
5681.066
5678.941
5676.868
5674.857
5672.929
5671.083
5669.325
5667.652
5666.052
5664.511
5663.009
5661.528
5660.048
5658.557
5657.041
5655.496
5653.916
5652.303
5650.653
5648.964
5647.228
5645.439
5643.594
5641.691
5639.735
5637.732
5635.688
5633.609
5631.496
5629.344
5627.145
5624.891
5622.576
5620.189
5617.716
5615.141
5612.447
5609.619
5606.635
5603.47
5600.089
5596.447
5592.47
5588.072
5583.088
5577.231
5570.082
5561.291
5552.517
5555.025
5588.022
2998.214
3017.881
3026.694
3029.604
3030.192
3023.05
3014.63
3004.392
2996.937
2961.87
2977.62
2980.701
2986.619
2993.201
3002.887
3015.628
3031.051
3047.278
3084.814
3121.324
3122.338
3142.236
3165.951
3189.641
3215.157
3240.762
3265.123
3288.378
3308.427
3317.429
3332.552
3343.841
3350.738
3354.793
3357.669
3360.753
3367.933
3384.942
3386.058
3400.759
3426.517
3457.169
3494.012
3537.316
3587.674
3645.061
3706.467
3770.304
3838.916
3904.239
3964.118
4016.321
4058.601
4088.723
4105.461
4108.727
4091.304
4059.551
4018.564
3965.96
3904.217
3838.098
3772.083
3711.018
3659.716
3620.484
3596.027
3587.338
3593.418
3614.379
3650.072
3699.421
3762.308
3836.832
3920.82
4003.904
4069.289
4126.126
4189.62
4250.83
4300.022
4337.552
4369.505
4399.768
4429.004
4456.969
4483.763
4510.088
4536.929
4564.601
4592.767
4620.795
4648.578
4676.672
4706.21
4738.169
4773.271
4811.977
4855.833
4901.681
4938.561
4963.321
4975.349
4974.671
4960.322
4954.161
4968.221
4989.334
5009.708
5028.375
5046.463
5064.929
5084.288
5104.819
5126.539
5149.316
5172.943
5197.138
5221.616
5246.091
5270.35
5294.326
5318.001
5341.258
5363.851
5385.449
5405.901
5424.947
5442.559
5458.656
5473.328
5486.697
5498.866
5509.907
5519.915
5528.994
5537.256
5544.809
5551.766
5558.237
5564.33
5570.17
5575.762
5581.216
5586.628
5592.057
5597.536
5603.146
5608.861
5614.669
5620.586
5626.644
5632.938
5639.557
5646.641
5653.718
5659.978
5665.927
5671.803
5677.584
5683.224
5688.69
5693.984
5699.115
5704.074
5708.858
5713.454
5717.851
5722.021
5725.916
5729.495
5732.724
5735.57
5738.006
5740.024
5741.628
5742.821
5743.643
5744.141
5744.322
5744.223
5743.888
5743.349
5742.612
5741.72
5740.765
5739.789
5738.819
5737.906
5737.08
5736.351
5735.726
5735.213
5734.829
5734.587
5734.497
5734.552
5734.738
5735.01
5735.339
5735.666
5736.046
5736.515
5737.41
5738.213
5739.162
5739.333
5739.558
5739.799
5740.105
5740.523
5741.093
5741.832
5742.747
5743.826
5745.043
5746.374
5747.796
5749.292
5750.847
5752.452
5754.097
5755.766
5757.439
5759.089
5760.684
5762.188
5763.56
5764.761
5765.747
5766.477
5766.916
5767.029
5766.778
5766.114
5764.971
5763.262
5761.012
5758.775
5757.942
5760.45
5765.154
5769.238
5772.96
5776.555
5779.955
5783.185
5786.234
5789.044
5791.562
5793.738
5795.535
5796.955
5797.992
5798.638
5798.957
5798.939
5798.569
5797.869
5796.83
5795.433
5793.734
5791.774
5789.594
5787.229
5784.718
5782.132
5779.447
5776.746
5774.042
5771.398
5768.834
5766.411
5764.352
5763.768
5763.416
5759.922
5755.972
5753.392
5751.793
5750.624
5749.665
5748.91
5748.384
5748.09
5748.023
5748.174
5748.529
5749.082
5749.819
5750.716
5751.754
5752.9
5754.122
5755.392
5756.69
5758.002
5759.32
5760.647
5761.986
5763.328
5764.659
5765.953
5767.203
5768.398
5769.527
5770.626
5771.687
5772.695
5773.662
5774.589
5775.461
5776.274
5777.01
5777.666
5778.226
5778.667
5778.943
5778.983
5778.694
5777.969
5776.878
5775.629
5774.275
5772.799
5771.056
5768.791
5765.764
5762.51
5760.301
5758.99
5757.69
5755.872
5753.578
5751.024
5748.357
5745.597
5742.764
5739.875
5736.952
5734.029
5731.127
5728.283
5725.499
5722.795
5720.176
5717.637
5715.171
5712.769
5710.422
5708.11
5705.826
5703.53
5701.227
5698.906
5696.572
5694.222
5691.868
5689.524
5687.205
5684.92
5682.678
5680.486
5678.352
5676.291
5674.314
5672.43
5670.653
5668.977
5667.38
5665.838
5664.332
5662.839
5661.338
5659.82
5658.28
5656.716
5655.127
5653.506
5651.851
5650.178
5648.466
5646.695
5644.864
5642.981
5641.049
5639.074
5637.059
5635.015
5632.949
5630.854
5628.719
5626.537
5624.3
5621.998
5619.621
5617.158
5614.596
5611.925
5609.132
5606.205
5603.122
5599.863
5596.391
5592.628
5588.574
5584.252
5579.598
5574.863
5570.778
5568.392
5567.843
5568.784
4588.995
4848.737
5112.078
5361.779
5595.228
5794.974
5951.951
6057.436
6104.899
6084.008
6000.022
5869.724
5693.804
5482.402
5246.639
4998.286
4747.467
4499.558
4265.842
3999.769
3805.498
3627.383
3470.486
3335.781
3222.732
3131.22
3060.621
3009.626
2979.019
2950.866
2932.788
2925.663
2924.99
2930.694
2942.259
2958.168
2977.091
3001.036
3015.128
3014.693
3024.995
3028.476
3025.53
3018.004
3007.482
2996.338
2987.599
2979.889
2975.761
2979.737
2986.15
2993.929
3004.11
3016.873
3032.717
3052.285
3077.326
3099.711
3123.553
3148.004
3172.381
3197.626
3224.287
3251.378
3276.804
3299.215
3319.541
3337.959
3351.164
3358.734
3361.183
3359.429
3356.07
3355.305
3359.585
3368.558
3383.508
3402.694
3426.291
3454.776
3488.729
3531.02
3582.855
3643.119
3711.404
3784.634
3858.784
3931.257
3999.3
4058.914
4106.336
4138.911
4154.357
4151.24
4129.82
4091.676
4039.669
3975.64
3902.937
3825.735
3748.718
3678.115
3620.255
3578.6
3553.303
3543.96
3551.498
3576.053
3616.19
3669.893
3734.359
3808.704
3888.724
3971.802
4047.156
4112.53
4176.144
4237.719
4290.84
4333.266
4368.363
4400.368
4430.943
4460.043
4487.948
4514.734
4542.072
4571.129
4601.185
4631.107
4660.976
4690.941
4721.194
4752.284
4784.857
4818.61
4854.067
4890.436
4922.068
4945.242
4960.427
4967.788
4968.251
4969.71
4981.363
4998.184
5015.186
5031.192
5047.065
5063.676
5081.627
5101.285
5122.603
5145.342
5169.248
5194.084
5219.65
5245.623
5271.613
5297.321
5322.548
5347.119
5370.832
5393.377
5414.448
5433.884
5451.753
5467.909
5482.371
5495.255
5506.732
5516.974
5526.137
5534.366
5541.793
5548.545
5554.753
5560.536
5565.995
5571.259
5576.385
5581.445
5586.509
5591.648
5596.928
5602.391
5608.04
5613.883
5619.949
5626.249
5632.743
5639.439
5646.34
5653.397
5660.168
5666.514
5672.713
5678.815
5684.765
5690.521
5696.072
5701.41
5706.525
5711.403
5716.022
5720.379
5724.475
5728.276
5731.739
5734.827
5737.505
5739.748
5741.553
5742.929
5743.902
5744.515
5744.811
5744.824
5744.579
5744.083
5743.417
5742.561
5741.557
5740.496
5739.424
5738.393
5737.455
5736.636
5735.93
5735.327
5734.836
5734.48
5734.28
5734.258
5734.415
5734.73
5735.155
5735.651
5736.176
5736.718
5737.248
5737.72
5738.302
5738.799
5739.073
5739.221
5739.365
5739.601
5739.992
5740.582
5741.391
5742.409
5743.601
5744.925
5746.346
5747.836
5749.376
5750.957
5752.583
5754.257
5755.97
5757.707
5759.449
5761.166
5762.813
5764.344
5765.699
5766.817
5767.651
5768.161
5768.277
5767.957
5767.374
5766.554
5765.521
5764.448
5763.765
5764.156
5765.913
5768.671
5771.831
5775.161
5778.58
5782.031
5785.449
5788.726
5791.736
5794.375
5796.582
5798.335
5799.656
5800.571
5801.095
5801.264
5801.079
5800.508
5799.533
5798.213
5796.487
5794.48
5792.234
5789.782
5787.17
5784.442
5781.641
5778.792
5775.917
5773.084
5770.333
5767.69
5765.188
5762.714
5759.822
5756.524
5753.865
5752.16
5751.039
5750.155
5749.385
5748.728
5748.211
5747.849
5747.659
5747.654
5747.848
5748.24
5748.831
5749.618
5750.582
5751.684
5752.882
5754.141
5755.435
5756.745
5758.063
5759.385
5760.719
5762.078
5763.43
5764.772
5766.064
5767.313
5768.5
5769.608
5770.672
5771.711
5772.749
5773.754
5774.708
5775.521
5776.383
5777.223
5777.996
5778.563
5778.941
5779.128
5779.075
5778.758
5778.096
5777.116
5775.922
5774.628
5773.248
5771.797
5770.434
5769.251
5768.077
5766.206
5763.665
5760.817
5757.92
5755.044
5752.161
5749.241
5746.302
5743.328
5740.316
5737.298
5734.295
5731.347
5728.469
5725.678
5722.987
5720.381
5717.878
5715.46
5713.112
5710.817
5708.535
5706.256
5703.959
5701.636
5699.284
5696.894
5694.479
5692.054
5689.638
5687.263
5684.929
5682.647
5680.423
5678.264
5676.193
5674.233
5672.375
5670.641
5669.012
5667.471
5665.978
5664.495
5663
5661.469
5659.929
5658.372
5656.788
5655.17
5653.511
5651.823
5650.129
5648.407
5646.623
5644.773
5642.87
5640.925
5638.94
5636.921
5634.882
5632.832
5630.763
5628.665
5626.523
5624.325
5622.062
5619.725
5617.306
5614.796
5612.19
5609.483
5606.668
5603.737
5600.693
5597.528
5594.232
5590.77
5587.079
5583.443
5579.723
5576.459
5573.9
5572.301
5571.481
3058.203
3088.452
3133.364
3190.936
3264.608
3365.497
3478.625
3613.47
3772.48
3931.662
4103.425
4307.756
4530.155
4767.41
5011.441
5247.21
5464.21
5650.196
5793.088
5884.16
5918.909
5898.862
5823.877
5690.743
5510.975
5296.264
5058.453
4810.638
4564.096
4325.922
4108.134
3806.471
3637.945
3490.938
3352.914
3231.15
3130.113
3050.632
2992.555
2954.16
2930.483
2916.59
2908.346
2904.778
2907.058
2916.362
2933.563
2954.658
2979.173
3003.282
3021.47
3034.604
3042.784
3044.9
3037.885
3022.787
3004.767
2987.109
2973.113
2965.775
2965.966
2971.728
2979.676
2988.772
2998.858
3011.669
3028.039
3049.491
3076.291
3102.268
3125.105
3147.186
3170.936
3197.447
3226.79
3256.933
3284.628
3309.548
3332.179
3351.245
3365.114
3372.211
3371.543
3363.802
3353.79
3346.272
3345.923
3354.022
3368.474
3387.249
3409.782
3435.422
3466.025
3506.189
3560.629
3624.083
3697.176
3777.387
3859.83
3944.534
4025.743
4096.142
4152.175
4190.817
4209.029
4205.259
4179.615
4133.77
4070.66
3993.917
3907.974
3816.287
3723.162
3637.813
3570.628
3525.138
3497.965
3486.74
3493.981
3521.127
3565.467
3623.792
3692.343
3769.038
3851.901
3937.684
4019.515
4094.053
4163.426
4227.567
4283.363
4329.241
4367.016
4400.051
4430.024
4448.563
4472.612
4507.79
4545.94
4576.512
4605.805
4635.797
4666.353
4697.172
4727.975
4758.786
4789.615
4820.58
4852.018
4883.284
4911.622
4934.888
4952.536
4964.901
4973.555
4981.815
4992.896
5006.384
5020.153
5033.552
5047.354
5062.186
5078.527
5097.21
5118.138
5140.833
5164.892
5190.047
5216.237
5243.156
5270.305
5297.12
5323.466
5349.399
5374.496
5398.21
5420.461
5440.81
5459.237
5475.697
5490.233
5502.976
5514.083
5523.761
5532.234
5539.709
5546.358
5552.344
5557.828
5562.955
5567.832
5572.561
5577.217
5581.852
5586.517
5591.324
5596.385
5601.735
5607.351
5613.238
5619.45
5625.976
5632.727
5639.645
5646.684
5653.779
5660.69
5667.303
5673.707
5679.949
5686.005
5691.845
5697.465
5702.868
5708.053
5713.018
5717.765
5722.275
5726.495
5730.395
5733.92
5737.017
5739.646
5741.787
5743.438
5744.621
5745.379
5745.77
5745.855
5745.679
5745.263
5744.634
5743.816
5742.798
5741.63
5740.405
5739.199
5738.068
5737.072
5736.237
5735.534
5734.929
5734.428
5734.069
5733.881
5733.902
5734.163
5734.633
5735.235
5735.909
5736.595
5737.22
5737.736
5738.122
5738.47
5738.716
5738.763
5738.718
5738.711
5738.834
5739.152
5739.723
5740.567
5741.664
5742.955
5744.371
5745.864
5747.411
5748.991
5750.598
5752.258
5753.993
5755.802
5757.673
5759.591
5761.514
5763.376
5765.11
5766.634
5767.804
5768.459
5769.133
5769.638
5769.622
5769.184
5768.53
5767.838
5767.177
5766.753
5767.168
5768.539
5770.645
5773.303
5776.418
5779.827
5783.311
5786.966
5790.618
5794.008
5796.86
5799.164
5800.94
5802.22
5803.069
5803.527
5803.608
5803.294
5802.566
5801.418
5799.889
5797.993
5795.781
5793.325
5790.636
5787.792
5784.85
5781.842
5778.781
5775.544
5772.425
5769.706
5767.082
5764.387
5761.745
5759.289
5757.173
5755.308
5753.541
5751.937
5750.588
5749.492
5748.638
5748.032
5747.623
5747.371
5747.307
5747.462
5747.793
5748.403
5749.257
5750.331
5751.51
5752.771
5754.09
5755.434
5756.781
5758.122
5759.441
5760.762
5762.159
5763.515
5764.876
5766.163
5767.432
5768.579
5769.24
5770.178
5771.345
5772.754
5773.894
5774.921
5775.925
5776.889
5777.752
5778.473
5779.029
5779.387
5779.535
5779.415
5778.964
5778.327
5777.486
5776.414
5775.164
5773.79
5772.296
5770.657
5768.787
5766.643
5764.315
5761.978
5759.678
5757.335
5754.861
5752.228
5749.45
5746.56
5743.579
5740.495
5737.358
5734.299
5731.322
5728.443
5725.634
5722.941
5720.373
5717.912
5715.544
5713.251
5711.008
5708.785
5706.549
5704.273
5701.945
5699.555
5697.076
5694.597
5692.107
5689.666
5687.24
5684.86
5682.542
5680.287
5678.094
5675.99
5674.026
5672.138
5670.382
5668.808
5667.35
5665.952
5664.554
5663.085
5661.573
5660.034
5658.454
5656.875
5655.248
5653.558
5651.846
5650.148
5648.422
5646.631
5644.775
5642.867
5640.905
5638.895
5636.84
5634.742
5632.672
5630.686
5628.687
5626.599
5624.445
5622.229
5619.942
5617.577
5615.127
5612.593
5609.976
5607.272
5604.472
5601.61
5598.732
5595.799
5592.759
5589.623
5586.487
5583.658
5581.066
5578.818
5577.1
5575.176
3195.633
3164.733
3138.11
3112.62
3087.026
3065.275
3049.563
3038.268
3033.136
3034.752
3043.911
3059.587
3087.141
3125.838
3176.159
3242.982
3342.249
3449.629
3570.914
3709.682
3868.302
4051.981
4259.409
4485.553
4725.371
4969.832
5206.988
5416.002
5588.447
5712.847
5783.12
5796.937
5754.618
5658.057
5509.817
5317.804
5093.273
4850.023
4598.988
4347.468
4105.292
3884.732
3685.348
3519.548
3380.391
3256.345
3146.382
3052.907
2979.149
2928.82
2901.91
2891.111
2887.007
2881.863
2879.219
2883.878
2896.987
2921.481
2948.891
2975.345
3006.497
3030.374
3050.222
3063.876
3068.091
3056.513
3031.353
3003.088
2977.548
2959.23
2950.608
2951.317
2957.942
2968.445
2979.388
2989.396
3000.002
3014.742
3038.579
3069.129
3097.625
3120.916
3141.174
3163.565
3191.448
3225.603
3261.596
3292.543
3319.023
3343.894
3366.647
3384.123
3392.284
3388.636
3372.756
3351.713
3332.508
3323.278
3329.517
3345.62
3366.813
3389.372
3409.471
3433.209
3469.93
3526.665
3589.845
3658.118
3739.631
3845.99
3955.6
4052.516
4136.036
4203.445
4251.028
4274.602
4270.898
4241.941
4189.766
4115.619
4023.046
3920.167
3809.515
3693.3
3585.962
3505.633
3456.73
3430.283
3418.745
3423.286
3451.1
3500.462
3564.912
3639.986
3722.038
3809.915
3901.743
3991.654
4074.66
4150.94
4220.094
4279.718
4327.611
4362.223
4351.118
4342.029
4396.901
4478.819
4523.631
4551.486
4578.641
4607.354
4637.514
4668.613
4700.021
4731.133
4761.536
4790.974
4819.687
4848.527
4877.447
4904.951
4929.421
4949.636
4965.855
4979.383
4991.126
5002.274
5013.598
5024.425
5034.908
5046.348
5058.631
5072.937
5091.301
5112.583
5135.434
5159.562
5185.049
5211.943
5238.572
5266.674
5296.165
5325.3
5352.705
5378.875
5403.657
5426.729
5447.76
5466.618
5483.249
5497.662
5510.136
5520.873
5530.038
5537.865
5544.627
5550.538
5555.78
5560.545
5564.997
5569.244
5573.432
5577.667
5581.939
5586.215
5590.676
5595.554
5600.877
5606.539
5612.52
5618.949
5625.801
5632.909
5640.132
5647.398
5654.616
5661.693
5668.544
5675.147
5681.491
5687.575
5693.403
5698.998
5704.377
5709.553
5714.539
5719.336
5723.924
5728.267
5732.311
5735.976
5739.172
5741.837
5743.946
5745.494
5746.509
5747.053
5747.211
5747.078
5746.719
5746.152
5745.379
5744.391
5743.195
5741.823
5740.39
5739.009
5737.723
5736.631
5735.779
5735.084
5734.378
5733.775
5733.402
5733.299
5733.412
5733.788
5734.41
5735.183
5736.048
5736.91
5737.573
5737.961
5738.306
5738.598
5738.66
5738.48
5738.224
5738.02
5737.974
5738.183
5738.723
5739.614
5740.82
5742.245
5743.781
5745.366
5746.973
5748.601
5750.236
5751.955
5753.799
5755.762
5757.817
5759.954
5762.118
5764.199
5766.087
5767.264
5767.364
5769.156
5770.849
5771.424
5771.361
5770.983
5770.433
5769.826
5769.227
5768.952
5769.29
5770.375
5771.58
5771.762
5774.54
5779.294
5784.333
5788.549
5792.461
5796.03
5799.062
5801.416
5803.202
5804.471
5805.258
5805.592
5805.537
5805.105
5804.268
5803.009
5801.342
5799.292
5796.914
5794.203
5791.193
5788.053
5784.816
5781.032
5777.522
5774.353
5771.456
5769.234
5766.542
5763.673
5760.992
5758.53
5756.256
5754.128
5752.243
5750.627
5748.99
5747.988
5747.486
5747.261
5746.918
5746.666
5746.587
5746.747
5747.126
5747.8
5748.749
5749.889
5751.158
5752.522
5753.937
5755.368
5756.787
5758.182
5759.553
5760.859
5762.187
5763.55
5764.794
5765.453
5766.692
5768.362
5769.92
5771.032
5772.038
5773.05
5773.813
5774.646
5775.802
5777.198
5778.327
5779.134
5779.725
5780.082
5780.136
5779.875
5779.476
5778.921
5778.097
5777.018
5775.767
5774.371
5772.825
5771.124
5769.271
5767.344
5765.352
5763.239
5760.963
5758.525
5755.926
5753.033
5749.968
5746.978
5744.056
5740.983
5737.783
5734.587
5731.451
5728.398
5725.494
5722.777
5720.225
5717.806
5715.495
5713.27
5711.103
5708.957
5706.786
5704.551
5702.23
5699.823
5697.348
5694.805
5692.191
5689.62
5687.144
5684.717
5682.371
5680.087
5677.836
5675.651
5673.454
5671.496
5669.741
5668.208
5666.829
5665.566
5664.47
5663.176
5661.734
5660.219
5658.647
5657.03
5655.347
5653.536
5651.574
5649.546
5647.968
5646.588
5644.887
5642.958
5640.967
5638.909
5636.671
5634.314
5632.412
5630.694
5628.795
5626.75
5624.649
5622.491
5620.264
5617.961
5615.58
5613.123
5610.595
5607.929
5605.09
5602.566
5600.099
5597.504
5594.862
5592.221
5589.664
5587.239
5585.079
5583.075
5581.368
5579.185
3637.319
3575.42
3523.102
3470.637
3427.415
3379.947
3340.548
3303.103
3267.709
3233.389
3200.92
3170.087
3140.865
3114.078
3088.918
3066.555
3050.536
3039.018
3033.02
3033.198
3040.395
3055.628
3080.313
3115.247
3161.642
3222.609
3294.261
3387.391
3497.202
3626.621
3778.244
3954.407
4154.798
4377.896
4613.738
4851.871
5079.235
5278.996
5438.244
5546.775
5599.232
5595.009
5536.849
5428.143
5272.74
5078.715
4854.95
4608.902
4354.044
4106.624
3875.191
3670.007
3496.64
3352.554
3228.741
3121.652
3029.319
2951.159
2889.554
2849.911
2837.153
2841.645
2846.814
2851.48
2847.395
2852.938
2869.265
2906.332
2946.945
2971.912
3007.759
3038.629
3067.254
3090.627
3104.195
3087.43
3046.141
2998.038
2959.556
2934.189
2925.738
2931.486
2941.256
2952.967
2963.796
2971.731
2982.981
2992.944
3012.157
3047.126
3082.534
3115.657
3136.24
3153.847
3180.125
3217.098
3259.916
3296.792
3328.314
3357.374
3385.332
3408.618
3419.631
3413.037
3384.414
3342.203
3307.283
3288.221
3293.61
3314.221
3336.404
3350.332
3360.556
3383.128
3422.443
3477.198
3512.812
3545.092
3680.533
3839.67
3968.639
4081.859
4181.942
4263.716
4320.762
4342.523
4344.406
4318.666
4259.369
4169.505
4056.977
3933.401
3798.468
3650.166
3512.214
3417.916
3368.678
3345.87
3337.485
3344.048
3376.52
3426.625
3495.207
3575.062
3664.011
3762.774
3868.625
3968.824
4058.56
4141.27
4216.382
4280.895
4300.845
4195.056
4224.538
4351.921
4460.569
4501.874
4528.039
4552.684
4577.971
4605.648
4635.601
4666.971
4698.751
4730.126
4760.453
4788.949
4815.644
4842.724
4870.739
4898.871
4926.022
4949.742
4968.933
4985.449
4999.526
5011.228
5021.172
5022.531
5020.079
5030.321
5049.246
5066.691
5085.107
5106.256
5129.473
5149.471
5163.695
5192.81
5230.938
5265.647
5296.391
5326.145
5355.11
5382.906
5409.096
5433.293
5455.137
5474.261
5490.968
5505.466
5517.795
5527.991
5536.426
5543.451
5549.378
5554.43
5558.808
5562.787
5566.547
5570.118
5573.738
5577.597
5581.574
5585.448
5589.548
5594.349
5599.776
5605.505
5611.476
5618.171
5625.401
5632.328
5639.62
5647.516
5655.763
5663.325
5670.373
5677.083
5683.466
5689.506
5695.206
5700.636
5705.861
5710.916
5715.837
5720.645
5725.324
5729.812
5734.018
5737.912
5741.35
5744.17
5746.305
5747.77
5748.616
5748.931
5748.822
5748.436
5747.883
5747.169
5746.258
5745.118
5743.739
5742.101
5740.401
5738.729
5737.106
5735.863
5735.124
5734.553
5733.936
5733.314
5732.82
5732.539
5732.634
5733.155
5733.943
5733.911
5734.15
5735.485
5737.514
5738.649
5738.992
5738.968
5738.657
5738.164
5737.668
5737.24
5736.729
5736.452
5736.922
5738.186
5739.793
5741.459
5743.147
5744.835
5746.552
5747.879
5748.307
5749.993
5752.716
5755.673
5758.113
5760.531
5762.971
5765.199
5766.642
5765.482
5767.727
5771.291
5772.927
5773.317
5773.209
5772.828
5772.304
5770.998
5765.496
5764.295
5766.261
5770.767
5772.944
5774.464
5777.066
5780.932
5785.293
5789.603
5793.588
5797.569
5801.208
5804.01
5805.837
5806.95
5807.521
5807.647
5807.39
5806.765
5805.493
5803.445
5801.892
5800.345
5798.085
5795.286
5791.848
5785.362
5781.018
5778.497
5778.042
5775.725
5772.408
5769.097
5765.894
5762.812
5759.942
5757.364
5755.05
5752.943
5751.14
5749.489
5747.925
5747.083
5746.752
5746.48
5746.085
5745.809
5745.73
5745.844
5746.268
5747.003
5748.005
5749.245
5750.648
5752.15
5753.697
5755.252
5756.775
5758.231
5759.697
5761.016
5762.008
5762.751
5762.366
5764.179
5767.213
5769.131
5770.244
5771.231
5772.225
5773.191
5774.164
5775.496
5776.863
5778.066
5779.124
5779.995
5780.513
5780.515
5780.627
5780.686
5780.51
5779.852
5778.894
5777.762
5776.487
5775.068
5773.504
5771.786
5769.781
5767.453
5765.451
5763.649
5761.575
5759.184
5756.62
5753.892
5750.908
5747.795
5744.642
5741.408
5738.071
5734.737
5731.463
5728.217
5725.172
5722.42
5719.896
5717.529
5715.277
5713.123
5711.048
5709.006
5706.931
5704.766
5702.475
5700.057
5697.527
5694.581
5690.087
5686.669
5685.107
5683.898
5682.083
5679.854
5677.6
5675.421
5673.459
5671.429
5669.562
5667.902
5666.66
5665.61
5664.478
5663.199
5661.822
5660.359
5658.822
5657.208
5655.257
5650.978
5645.754
5646.619
5648.039
5647.001
5645.118
5643.145
5641.113
5638.863
5636.028
5633.514
5631.905
5630.667
5628.956
5626.973
5624.935
5622.845
5620.688
5618.458
5616.152
5613.777
5611.321
5608.561
5605.983
5603.557
5601.421
5599.207
5596.928
5594.691
5592.544
5590.457
5588.475
5586.603
5585.115
5583.13
4001.127
3953.094
3867.708
3777.718
3696.166
3628.206
3568.521
3515.625
3468.655
3423.653
3376.122
3337.618
3300.953
3265.864
3232.109
3199.883
3169.138
3139.694
3112.446
3088.248
3066.702
3049.356
3035.964
3027.374
3024.384
3027.45
3037.375
3055.87
3084.608
3125.47
3179.753
3247.064
3330.535
3431.58
3553.551
3699.109
3870.581
4064.695
4278.768
4503.875
4729.168
4940.33
5120.892
5256.379
5336.957
5358.917
5324.595
5241.294
5115.72
4954.051
4758.553
4534.183
4288.769
4037.747
3803.968
3594.088
3412.449
3264.821
3147.554
3047.651
2958.092
2876.078
2804.484
2751.552
2728.713
2750.957
2788.165
2796.807
2801.705
2796.91
2798.325
2794.907
2851.911
2923.244
2955.182
2997.68
3058.518
3100.526
3120.436
3122.92
3087.109
3025.998
2972.764
2926.244
2877.812
2818.008
2791.885
2844.575
2924.133
2958.841
2940.687
2898.032
2792.292
2764.13
2916.96
3062.468
3092.121
3097.115
3065.883
3023.729
3126.642
3260.223
3310.007
3333.393
3365.306
3387.195
3416.56
3435.397
3422.925
3364.095
3307.37
3271.837
3247.454
3243.94
3249.566
3157.416
3130.745
3251.442
3339.913
3371.075
3404.728
3399.912
3399.368
3574.201
3813.164
3983.502
4118.837
4234.415
4324.385
4382.099
4420.782
4428.93
4400.295
4331.203
4224.59
4091.412
3948.113
3781.355
3580.307
3392.562
3257.202
3177.064
3148.448
3136.185
3148.889
3175.701
3190.651
3156.48
3281.96
3529.309
3710.362
3834.34
3939.647
4020.358
4107.833
4179.896
4139.734
4180.085
4300.085
4399.778
4454.644
4486.299
4508.571
4530.979
4553.321
4576.316
4602.487
4631.783
4663.14
4695.128
4726.221
4755.062
4782.904
4807.824
4834.319
4863.177
4892.791
4922.762
4950.126
4972.92
4993.143
5006.985
5012.843
5013.946
5022.65
5039.35
5044.252
5032.027
4997.483
5013.696
5050.359
5112.222
5146.847
5166.882
5193.425
5227.7
5261.973
5293.679
5325.02
5355.882
5385.498
5413.331
5438.513
5460.968
5481.127
5498.667
5513.15
5524.916
5534.481
5542.209
5548.409
5553.515
5557.793
5561.318
5564.426
5567.416
5570.261
5573.431
5577.188
5580.976
5584.049
5587.353
5592.276
5598.261
5602.701
5595.081
5598.119
5611.314
5630.403
5641.514
5649.578
5657.326
5664.784
5672.079
5679.046
5685.518
5691.474
5697.012
5702.234
5707.201
5712.023
5716.776
5721.353
5726.019
5730.806
5735.574
5739.875
5743.569
5746.567
5748.789
5750.212
5750.896
5750.978
5750.611
5749.985
5749.249
5748.411
5747.394
5746.122
5744.435
5742.037
5739.952
5738.416
5736.852
5735.32
5734.447
5733.931
5733.296
5732.511
5731.251
5728.272
5728.106
5730.15
5732.911
5734.482
5735.927
5737.221
5738.255
5739.019
5739.409
5739.243
5737.256
5734.873
5734.126
5735.128
5735.726
5735.724
5736.089
5737.028
5738.613
5740.528
5741.747
5740.24
5741.774
5744.872
5748.668
5751.354
5753.578
5755.954
5758.49
5761.248
5763.771
5760.199
5756.989
5760.994
5769.671
5773.659
5774.663
5774.369
5766.381
5761.256
5762.487
5770.118
5773.108
5773.02
5772.966
5773.248
5773.906
5773.967
5775.968
5779.975
5785.51
5790.796
5795.756
5800.208
5804.005
5806.85
5808.64
5809.576
5809.866
5809.669
5809.05
5807.443
5803.893
5802.862
5802.742
5801.647
5799.28
5796.343
5792.167
5784.907
5781.181
5779.499
5778.654
5775.611
5771.973
5768.385
5764.39
5761.043
5758.164
5756.014
5753.816
5751.674
5749.888
5748.515
5747.526
5746.777
5746.105
5745.51
5745.049
5744.746
5744.575
5744.477
5744.682
5745.388
5746.592
5748.236
5749.953
5751.647
5753.366
5755.094
5756.78
5758.369
5759.927
5760.938
5758.951
5750.075
5754.558
5764.123
5768.287
5769.618
5770.578
5771.492
5772.428
5773.473
5774.221
5774.75
5776.182
5777.93
5779.89
5781.043
5781.755
5782.245
5782.388
5782.2
5781.722
5780.939
5779.872
5778.666
5777.322
5775.464
5773.534
5771.896
5770.461
5768.709
5766.721
5764.588
5762.29
5759.87
5757.18
5754.424
5751.709
5748.707
5745.395
5741.944
5738.411
5734.9
5731.512
5727.933
5724.633
5721.842
5719.376
5717.078
5714.88
5712.791
5710.82
5708.918
5706.987
5704.927
5702.679
5700.243
5697.693
5694.095
5685.797
5682.349
5679.58
5677.687
5679.833
5679.369
5677.427
5675.199
5672.939
5670.678
5668.753
5667.32
5666.283
5665.304
5664.26
5663.148
5661.893
5660.509
5659.041
5657.406
5653.074
5643.551
5641.82
5645.792
5648.493
5647.354
5645.424
5643.444
5641.385
5638.379
5630.67
5628.545
5630.241
5630.726
5629.205
5627.266
5625.3
5623.289
5621.214
5619.065
5616.841
5614.548
5612.196
5609.641
5607.078
5604.994
5602.985
5600.905
5598.902
5597.004
5595.161
5593.261
5591.629
5590.101
5588.832
5586.858
3953.71
3894.704
3788.906
3719.029
3654.408
3596.999
3545.497
3498.63
3455.259
3414.854
3376.89
3339.902
3304.125
3269.38
3235.731
3203.156
3171.737
3141.632
3113.311
3087.273
3064.804
3046.11
3030.967
3019.626
3012.724
3011.582
3017.492
3031.779
3056.196
3092.651
3141.133
3201.874
3278.512
3375.558
3492.294
3632.459
3796.296
3981.318
4182.445
4390.958
4595.733
4782.321
4934.443
5037.331
5081.879
5065.354
4994.342
4879.106
4730.538
4556.758
4352.706
4125.331
3888.711
3651.877
3428.68
3225.889
3050.67
2928.793
2855.612
2796.591
2746.647
2677.178
2556.873
2329.937
2188.88
2325.353
2602.437
2721.564
2658.047
2601.696
2413.884
2010.435
2176.233
2648.585
2894.717
2875.742
2944.558
3049.084
2832.72
2614.607
2825.696
2939.577
2795.791
2693.889
2281.966
2146.353
2298.662
2673.393
2816.611
2896.214
2780.013
1910.502
1698.189
2257.864
2911.585