/*--------------------------------*- C++ -*----------------------------------*\
| =========                 |                                                 |
| \\      /  F ield         | foam-extend: Open Source CFD                    |
|  \\    /   O peration     | Version:     3.1                                |
|   \\  /    A nd           | Web:         http://www.extend-project.de       |
|    \\/     M anipulation  |                                                 |
\*---------------------------------------------------------------------------*/
FoamFile
{
    version     2.0;
    format      ascii;
    class       volScalarField;
    location    "10.5";
    object      pd;
}
// * * * * * * * * * * * * * * * * * * * * * * * * * * * * * * * * * * * * * //

dimensions      [1 -1 -2 0 0 0 0];

internalField   nonuniform List<scalar> 
119952
(
7100.963
6098.438
5959.004
6113.394
6277.376
6167.416
6148.816
6139.612
6142.709
6151.08
6162.738
6177.964
6195.498
6215.134
6236.291
6258.486
6281.022
6302.614
6316.843
6299.119
6499.7
6427.711
6427.501
6672.181
6675.908
6734.864
6774.517
6855.639
7060.737
7842.345
5571.714
5577.39
5616.559
5655.158
5690.873
5722.67
5751.797
5776.248
5796.315
5797.018
5802.028
5813.684
5809.236
5800.573
5788.226
5771.767
5754.057
5734.164
5714.31
5701.573
5683.448
5656.894
5641.984
5635.338
5633.612
5637.457
5646.765
5660.62
5681.51
5695.638
5718.406
5747.077
5776.132
5805.708
5835.989
5866.989
5903.953
5976.43
6105.037
6033.45
6022.401
6096.474
6138.412
6141.26
6131.955
6132.402
6138.777
6148.818
6162.337
6178.745
6197.556
6218.242
6240.451
6263.783
6287.74
6311.929
6337.027
6366.677
6408.266
6455.396
6489.255
6570.755
6674.622
6718.954
6751.725
6783.843
6773.392
6661.409
6662.055
6713.42
6743.639
6773.185
6801.682
6827.809
6853.24
6878.554
6904.176
6930.542
6958.008
6986.886
7017.455
7049.948
7084.516
7121.333
7160.507
7202.092
7246.363
7293.174
7342.815
7395.589
7450.461
7505.641
7551.506
7566.454
7533.435
7541.092
7560.028
7575.37
7599.876
7609.933
7608.368
7605.541
7597.867
7591.272
7595.961
7615.464
7641.917
7672.775
7703.439
7731.868
7758.244
7782.518
7804.774
7824.685
7841.944
7856.255
7867.557
7875.836
7881.009
7883.039
7882.135
7878.264
7871.4
7861.563
7848.916
7833.668
7816.076
7796.478
7775.315
7753.135
7730.612
7708.513
7687.651
7668.785
7652.569
7639.543
7630.15
7624.723
7623.477
7626.509
7633.701
7644.774
7659.432
7677.188
7697.497
7719.778
7743.452
7767.975
7792.859
7817.68
7842.092
7865.825
7888.662
7910.455
7931.096
7950.511
7968.657
7985.517
8001.106
8015.427
8028.514
8040.404
8051.144
8060.758
8069.324
8076.92
8083.791
8090.197
8094.285
8098.956
8102.717
8105.8
8108.254
8110.167
8111.53
8112.464
8113.003
8113.185
8113.044
8112.611
8111.916
8110.991
8109.864
8108.564
8107.113
8105.532
8103.845
8102.067
8100.212
8098.294
8096.322
8094.301
8092.237
8090.13
8087.976
8085.766
8083.487
8081.114
8078.605
8075.886
8072.796
8068.893
8064.154
8064.666
8064.275
8063.429
8062.306
8061.002
8059.549
8057.978
8056.303
8054.532
8052.671
8050.728
8048.706
8046.612
8044.451
8042.228
8039.948
8037.617
8035.241
8032.825
8030.376
8027.898
8025.399
8022.883
8020.356
8017.824
8015.293
8012.767
8010.253
8007.755
8005.281
8002.843
8000.459
7998.056
7995.662
7999.498
7993.678
7988.186
7986.076
7983.747
7981.359
7979.199
7977.134
7975.136
7973.213
7971.365
7969.586
7967.87
7966.214
7964.618
7963.081
7961.603
7960.181
7958.816
7957.506
7956.249
7955.045
7953.892
7952.787
7951.728
7950.713
7949.739
7948.803
7947.903
7947.035
7946.197
7945.386
7944.598
7943.833
7943.085
7942.355
7941.64
7940.939
7940.252
7939.582
7938.932
7938.31
7937.736
7937.236
7936.797
7936.165
7934.993
7933.577
7932.287
7931.059
7929.842
7928.672
7927.451
7925.792
7921.839
7921.32
7920.883
7919.345
7917.799
7916.261
7914.667
7913.043
7911.394
7909.716
7908.004
7906.258
7904.475
7902.652
7900.792
7898.893
7896.953
7894.973
7892.95
7890.885
7888.777
7886.626
7884.431
7882.193
7879.912
7877.587
7875.219
7872.807
7870.353
7867.858
7865.319
7862.74
7860.122
7857.464
7854.768
7852.036
7849.267
7846.464
7843.628
7840.76
7837.862
7834.935
7831.982
7829.003
7826
7822.975
7819.932
7816.87
7813.789
7810.695
7807.587
7804.47
7801.344
7798.211
7795.073
7791.931
7788.788
7785.645
7782.505
7779.367
7776.233
7773.104
7769.98
7766.863
7763.75
7760.642
7757.536
7754.429
7751.32
7748.2
7745.063
7741.895
7738.686
7735.416
7732.061
7728.589
7724.947
7721.068
7716.843
7712.104
7706.564
7699.998
7693.625
7695.72
7721.728
6606.476
6497.554
6369.525
6254.952
6149.616
6054.139
5968.678
5893.186
5831.684
5753.579
5710.09
5671.525
5636.552
5607.899
5583.162
5562.546
5542.847
5524.705
5509.073
5503.089
5477.614
5454.784
5434.756
5416.441
5399.026
5383.681
5371.129
5363.52
5362.085
5354.593
5360.989
5373.197
5390.866
5414.057
5442.088
5474.097
5510.645
5554.705
5581.47
5617.869
5658.082
5694.94
5728.573
5758.039
5782.574
5801.55
5813.924
5818.886
5820.397
5816.059
5805.115
5789.875
5771.135
5750.098
5728.282
5710.287
5667.975
5649.568
5638.352
5629.059
5622.883
5622.053
5627.431
5638.566
5654.584
5674.945
5699.776
5726.934
5755.017
5784.156
5814.764
5847.216
5882.923
5923.047
5966.154
6005.202
6026.554
6038.582
6060.256
6084.348
6101.417
6110.021
6116.939
6126.871
6140.5
6157.066
6175.928
6196.8
6219.521
6243.951
6269.966
6297.584
6327.147
6359.455
6395.617
6436.742
6482.78
6533.551
6589.038
6645.378
6690.788
6720.56
6735.024
6732.616
6718.834
6719.861
6738.389
6763.489
6789.512
6814.346
6837.968
6861.313
6885.068
6909.562
6935.025
6961.725
6989.963
7019.958
7051.89
7085.828
7121.782
7159.877
7199.924
7242.155
7286.281
7331.557
7378.565
7423.444
7464.376
7498.451
7516.716
7517.737
7533.386
7553.913
7566.051
7581.645
7599.629
7600.065
7594.521
7593.899
7598.284
7612.125
7633.98
7658.939
7684.449
7710.525
7736.949
7763.81
7789.167
7811.728
7831.817
7849.045
7863.183
7874.2
7882.045
7886.645
7888.08
7886.465
7881.893
7874.393
7863.966
7850.665
7834.676
7816.273
7795.823
7773.77
7750.681
7727.297
7704.441
7683.016
7663.862
7647.522
7634.484
7625.178
7619.943
7618.983
7622.351
7629.954
7641.551
7656.726
7674.976
7695.725
7718.365
7742.302
7766.985
7791.934
7816.731
7841.044
7864.626
7887.29
7908.896
7929.346
7948.576
7966.55
7983.257
7998.707
8012.914
8025.912
8037.737
8048.431
8058.041
8066.593
8074.109
8080.199
8086.84
8090.486
8095.442
8099.455
8102.771
8105.448
8107.539
8109.106
8110.208
8110.891
8111.196
8111.161
8110.82
8110.207
8109.354
8108.288
8107.037
8105.626
8104.079
8102.412
8100.648
8098.801
8096.886
8094.911
8092.884
8090.811
8088.692
8086.525
8084.304
8082.016
8079.644
8077.158
8074.519
8071.698
8068.775
8066.232
8064.839
8063.874
8062.744
8061.505
8060.141
8058.666
8057.09
8055.42
8053.662
8051.821
8049.9
8047.905
8045.838
8043.706
8041.512
8039.261
8036.959
8034.61
8032.221
8029.797
8027.343
8024.865
8022.369
8019.86
8017.345
8014.828
8012.314
8009.811
8007.322
8004.856
8002.421
8000.024
7997.711
7995.838
7993.331
7991.398
7988.509
7985.48
7982.867
7980.599
7978.48
7976.425
7974.428
7972.504
7970.653
7968.869
7967.145
7965.482
7963.877
7962.332
7960.844
7959.413
7958.039
7956.719
7955.452
7954.238
7953.074
7951.958
7950.888
7949.861
7948.876
7947.929
7947.017
7946.138
7945.289
7944.467
7943.669
7942.893
7942.135
7941.395
7940.67
7939.959
7939.262
7938.577
7937.908
7937.253
7936.607
7935.951
7935.24
7934.406
7933.383
7932.212
7931.004
7929.809
7928.613
7927.404
7926.156
7924.817
7923.104
7921.217
7919.665
7918.326
7916.937
7915.424
7913.826
7912.192
7910.536
7908.855
7907.141
7905.393
7903.61
7901.791
7899.936
7898.042
7896.109
7894.135
7892.12
7890.063
7887.964
7885.822
7883.637
7881.409
7879.137
7876.821
7874.462
7872.06
7869.616
7867.128
7864.599
7862.028
7859.417
7856.766
7854.077
7851.35
7848.588
7845.79
7842.958
7840.094
7837.199
7834.276
7831.324
7828.347
7825.346
7822.323
7819.28
7816.217
7813.138
7810.044
7806.937
7803.818
7800.691
7797.557
7794.417
7791.274
7788.129
7784.985
7781.841
7778.702
7775.567
7772.437
7769.313
7766.196
7763.085
7759.979
7756.878
7753.777
7750.676
7747.566
7744.444
7741.296
7738.116
7734.883
7731.584
7728.19
7724.677
7720.998
7717.169
7713.198
7709.403
7706.252
7704.682
7704.838
7707.4
4356.245
4417.436
4498.116
4592.92
4700.47
4820.346
4952.294
5096.635
5253.143
5419.664
5597.084
5786.281
5982.587
6185.604
6392.763
6600.137
6803.067
6999.472
7186.441
7378.948
7530.701
7662.869
7771.474
7853.148
7905.899
7929.014
7922.829
7888.661
7832.396
7750.616
7647.914
7527.243
7394.789
7254.799
7110.939
6966.365
6824.089
6687.249
6546.024
6420.859
6302.635
6193.011
6092.963
6002.446
5921.852
5851.216
5790.725
5738.082
5691.972
5654.99
5623.374
5596.729
5574.386
5555.002
5537.762
5525.316
5496.475
5478.196
5461.935
5444.033
5424.307
5404.121
5385.095
5368.447
5355.189
5345.796
5341.212
5342.791
5350.222
5363.434
5382.831
5408.345
5439.268
5474.586
5513.068
5553.526
5595
5635.917
5675.777
5713.856
5748.763
5779.064
5803.709
5821.981
5833.542
5838.442
5836.187
5827.359
5812.873
5793.626
5770.529
5744.679
5717.325
5689.407
5661.291
5639.514
5623.786
5611.865
5604.902
5604.508
5611.095
5624.108
5642.671
5665.872
5692.518
5721.332
5751.546
5782.681
5814.416
5846.869
5879.878
5913.404
5946.683
5979.59
6004.344
6020.649
6038.196
6058.852
6075.845
6088.604
6099.922
6113.07
6129.12
6147.681
6168.28
6190.759
6215.11
6241.369
6269.576
6299.861
6332.423
6367.576
6405.707
6447.28
6492.434
6539.182
6586.369
6632.882
6673.558
6702.3
6720.367
6728.933
6732.955
6739.025
6753.513
6774.957
6798.023
6820.267
6841.703
6863.11
6885.129
6908.063
6932.123
6957.559
6984.644
7013.562
7044.38
7077.114
7111.655
7147.976
7185.974
7225.384
7266.127
7307.419
7348.542
7388.565
7424.869
7457.017
7481.693
7494.356
7509.043
7528.119
7545.77
7564.746
7579.879
7587.845
7596.845
7604.667
7607.945
7614.426
7632.181
7661.013
7694.522
7728.206
7756.37
7779.111
7799.169
7819.352
7838.685
7855.668
7869.917
7881.082
7888.682
7893.025
7894.207
7892.349
7887.561
7879.863
7869.18
7855.489
7838.981
7819.915
7798.657
7775.672
7751.528
7726.97
7702.913
7680.422
7660.343
7643.105
7629.175
7619.031
7613.059
7611.511
7614.475
7621.867
7633.425
7648.732
7667.25
7688.356
7711.396
7735.73
7760.775
7786.05
7811.106
7835.599
7859.316
7882.091
7903.795
7924.334
7943.65
7961.711
7978.509
7994.056
8008.372
8021.491
8033.454
8044.306
8054.103
8062.897
8070.805
8077.915
8085.072
8090.258
8094.606
8098.415
8101.631
8104.243
8106.297
8107.849
8108.945
8109.626
8109.928
8109.888
8109.541
8108.921
8108.058
8106.982
8105.719
8104.295
8102.733
8101.052
8099.272
8097.409
8095.475
8093.482
8091.438
8089.348
8087.216
8085.04
8082.819
8080.547
8078.218
8075.829
8073.389
8070.943
8068.601
8066.536
8064.865
8063.457
8062.098
8060.691
8059.215
8057.667
8056.044
8054.345
8052.57
8050.721
8048.799
8046.808
8044.75
8042.629
8040.449
8038.214
8035.93
8033.6
8031.23
8028.825
8026.391
8023.933
8021.456
8018.966
8016.468
8013.967
8011.469
8008.979
8006.502
8004.044
8001.605
7999.198
7996.795
7994.473
7991.99
7989.211
7986.638
7984.353
7982.225
7980.155
7978.114
7976.1
7974.128
7972.21
7970.352
7968.554
7966.816
7965.135
7963.511
7961.943
7960.433
7958.978
7957.58
7956.235
7954.945
7953.706
7952.517
7951.377
7950.283
7949.233
7948.225
7947.255
7946.322
7945.423
7944.553
7943.712
7942.896
7942.102
7941.327
7940.57
7939.828
7939.099
7938.382
7937.674
7936.974
7936.274
7935.567
7934.835
7934.053
7933.19
7932.214
7931.125
7929.974
7928.804
7927.622
7926.402
7925.137
7923.776
7922.48
7921.158
7919.715
7918.186
7916.604
7914.984
7913.34
7911.682
7910.012
7908.325
7906.614
7904.874
7903.102
7901.297
7899.457
7897.58
7895.665
7893.711
7891.716
7889.681
7887.603
7885.483
7883.32
7881.114
7878.864
7876.571
7874.235
7871.855
7869.432
7866.966
7864.458
7861.908
7859.316
7856.685
7854.015
7851.306
7848.56
7845.778
7842.961
7840.112
7837.231
7834.32
7831.381
7828.415
7825.424
7822.417
7819.377
7816.319
7813.244
7810.154
7807.05
7803.935
7800.809
7797.677
7794.539
7791.397
7788.254
7785.111
7781.97
7778.832
7775.699
7772.572
7769.45
7766.342
7763.229
7760.126
7757.028
7753.939
7750.851
7747.762
7744.667
7741.558
7738.429
7735.269
7732.068
7728.816
7725.512
7722.158
7718.806
7715.55
7712.561
7710.078
7708.302
7707.633
7708.129
4138.65
4110.839
4096.151
4086.481
4084.676
4098.773
4124.771
4169.1
4226.013
4259.36
4271.73
4299.596
4347.191
4411.613
4491.709
4584.599
4689.231
4805.665
4934.212
5072.936
5223.319
5384.673
5556.172
5737.439
5926.89
6123.539
6323.669
6524.238
6723.14
6915.397
7098.391
7309.021
7466.131
7595.455
7698.053
7772.702
7818.141
7833.701
7820.359
7779.99
7716.381
7631.368
7525.17
7402.923
7270.965
7133.365
6993.19
6853.203
6715.754
6582.686
6455.328
6335.188
6222.761
6118.798
6024.119
5939.227
5864.295
5799.19
5743.471
5696.475
5657.282
5624.913
5598.517
5577.084
5559.227
5544.048
5529.064
5513.513
5497.037
5480.436
5463
5442.968
5420.808
5397.973
5376.013
5356.336
5340.125
5328.616
5322.879
5323.144
5329.892
5343.678
5364.506
5391.977
5425.275
5463.22
5504.653
5548.539
5593.396
5638.178
5682.479
5724.976
5763.799
5797.333
5824.419
5844.281
5856.431
5860.582
5856.764
5845.543
5827.629
5804.061
5775.966
5744.706
5711.553
5678.649
5648.073
5622.076
5602.082
5588.238
5581.106
5581.412
5589.345
5604.361
5625.422
5651.399
5681.089
5713.184
5746.361
5779.487
5811.837
5843.213
5873.586
5903.177
5931.742
5958.815
5981.489
5999.361
6016.294
6034.119
6051.104
6066.384
6081.082
6097.025
6115.107
6135.293
6157.37
6181.288
6207.143
6235.084
6265.237
6297.711
6332.591
6369.924
6409.723
6451.923
6496.004
6540.65
6584.64
6626.6
6663.739
6693.048
6714.694
6730.13
6741.681
6752.58
6767.024
6785.453
6805.355
6825.011
6844.282
6863.715
6883.826
6904.933
6927.302
6951.209
6976.918
7004.566
7034.13
7065.499
7098.46
7132.872
7168.555
7205.212
7242.699
7280.362
7317.706
7354.224
7387.923
7418.604
7444.523
7463.002
7481.008
7502.501
7523.443
7542.388
7559.532
7574.348
7587.685
7597.718
7605.307
7618.666
7643.656
7675.358
7706.639
7734.027
7760
7786.936
7813.159
7834.928
7851.805
7866.371
7879.335
7889.529
7896.51
7900.291
7900.794
7898.226
7892.697
7884.066
7872.326
7857.563
7839.926
7819.677
7797.179
7772.945
7747.569
7721.777
7696.473
7672.847
7651.921
7634.021
7619.418
7608.702
7602.342
7600.639
7603.709
7611.47
7623.64
7639.76
7659.231
7681.355
7705.4
7730.671
7756.498
7782.448
7808.083
7832.998
7857.015
7880.016
7901.883
7922.533
7941.917
7960.015
7976.828
7992.374
8006.684
8019.797
8031.759
8042.623
8052.454
8061.331
8069.344
8076.497
8082.875
8088.036
8092.508
8096.454
8099.79
8102.507
8104.667
8106.325
8107.523
8108.298
8108.685
8108.719
8108.437
8107.873
8107.057
8106.02
8104.789
8103.389
8101.844
8100.175
8098.4
8096.538
8094.601
8092.603
8090.552
8088.456
8086.321
8084.148
8081.94
8079.697
8077.423
8075.124
8072.822
8070.554
8068.385
8066.392
8064.638
8063.076
8061.584
8060.081
8058.538
8056.946
8055.298
8053.588
8051.813
8049.971
8048.063
8046.091
8044.056
8041.961
8039.809
8037.604
8035.349
8033.05
8030.711
8028.336
8025.931
8023.5
8021.049
8018.583
8016.108
8013.627
8011.147
8008.672
8006.205
8003.753
8001.314
7998.896
7996.482
7994.075
7991.668
7989.289
7986.95
7984.642
7982.379
7980.183
7978.055
7975.988
7973.981
7972.035
7970.153
7968.332
7966.572
7964.871
7963.227
7961.641
7960.112
7958.641
7957.224
7955.863
7954.555
7953.299
7952.094
7950.937
7949.827
7948.761
7947.737
7946.752
7945.803
7944.888
7944.005
7943.149
7942.319
7941.512
7940.723
7939.952
7939.195
7938.45
7937.714
7936.983
7936.253
7935.518
7934.768
7933.992
7933.172
7932.288
7931.323
7930.276
7929.17
7928.029
7926.861
7925.656
7924.416
7923.136
7921.844
7920.477
7918.996
7917.447
7915.885
7914.32
7912.74
7911.137
7909.508
7907.853
7906.168
7904.451
7902.7
7900.913
7899.09
7897.23
7895.331
7893.393
7891.414
7889.393
7887.331
7885.227
7883.08
7880.89
7878.656
7876.379
7874.058
7871.694
7869.286
7866.835
7864.342
7861.806
7859.229
7856.612
7853.955
7851.259
7848.525
7845.755
7842.95
7840.112
7837.24
7834.337
7831.405
7828.445
7825.461
7822.444
7819.417
7816.367
7813.298
7810.212
7807.113
7804
7800.878
7797.747
7794.611
7791.47
7788.328
7785.185
7782.045
7778.908
7775.776
7772.651
7769.536
7766.424
7763.333
7760.247
7757.167
7754.099
7751.034
7747.977
7744.923
7741.867
7738.806
7735.738
7732.661
7729.578
7726.498
7723.45
7720.48
7717.674
7715.123
7712.969
7711.338
7710.417
7709.973
4771.104
4704.85
4639.15
4573.248
4506.739
4437.671
4377.573
4319.191
4266.597
4219.041
4176.825
4142.056
4113.534
4092.854
4080.52
4076.914
4085.281
4105.042
4133.28
4164.935
4195.292
4229.571
4273.772
4330.547
4399.173
4479.88
4573.558
4678.938
4795.735
4923.869
5063.251
5213.662
5374.698
5546.069
5726.686
5914.771
6109.056
6307.76
6508.402
6708.288
6902.312
7084.204
7243.043
7394.811
7522.84
7624.262
7697.253
7740.641
7753.769
7738.067
7695.12
7628.413
7538.895
7428.927
7306.252
7176.159
7041.662
6905.297
6769.559
6636.571
6507.932
6384.656
6268.107
6159.299
6058.915
5967.773
5886.524
5815.411
5754.327
5702.927
5660.565
5626.313
5599.197
5578.107
5561.729
5548.434
5536.934
5526.08
5514.36
5500.84
5485.225
5466.788
5445.243
5420.803
5394.382
5367.85
5343.404
5322.832
5307.633
5298.914
5297.28
5303.34
5317.492
5339.629
5369.279
5405.51
5446.881
5491.94
5539.551
5588.847
5639.13
5689.357
5737.673
5781.859
5820.096
5851.03
5873.648
5887.212
5891.399
5886.34
5872.528
5850.742
5822.051
5787.779
5749.613
5709.363
5669.506
5632.512
5600.7
5575.97
5559.101
5550.438
5550.473
5559.418
5576.62
5600.876
5630.867
5665.151
5701.906
5739.012
5774.654
5807.888
5838.444
5866.812
5893.373
5918.118
5940.793
5960.773
5978.004
5994.041
6010.345
6026.884
6043.32
6060.123
6078.117
6097.793
6119.324
6142.691
6167.86
6195.007
6224.416
6256.287
6290.729
6327.766
6367.286
6409.026
6452.502
6496.932
6541.202
6584.047
6624.088
6659.774
6689.731
6713.796
6732.878
6748.449
6762.579
6777.525
6794.065
6811.416
6828.702
6845.786
6863.06
6880.998
6899.993
6920.39
6942.526
6966.683
6992.984
7021.328
7051.447
7082.997
7115.695
7149.311
7183.582
7218.318
7253.127
7287.612
7321.347
7353.198
7382.788
7409.431
7432.051
7453.647
7476.525
7498.424
7518.744
7538.325
7556.081
7572.024
7586.956
7602.961
7623.978
7651.02
7680.033
7708.07
7736.233
7765.403
7793.166
7817.877
7840.976
7862.189
7879.045
7890.799
7899.179
7904.834
7907.441
7906.925
7903.356
7896.713
7886.872
7873.904
7857.953
7839.136
7817.678
7793.927
7768.376
7741.636
7714.476
7687.773
7662.672
7640.536
7621.809
7606.509
7595.261
7588.638
7586.994
7590.466
7598.964
7612.166
7629.573
7650.499
7674.145
7699.628
7726.224
7753.169
7779.907
7806.184
7831.738
7856.348
7879.823
7902.032
7922.903
7942.41
7960.552
7977.351
7992.84
8007.066
8020.077
8031.929
8042.68
8052.394
8061.135
8068.961
8075.895
8081.975
8087.215
8091.784
8095.785
8099.167
8101.916
8104.118
8105.827
8107.068
8107.87
8108.272
8108.316
8108.038
8107.475
8106.658
8105.617
8104.381
8102.975
8101.422
8099.744
8097.96
8096.089
8094.144
8092.138
8090.082
8087.984
8085.853
8083.692
8081.506
8079.3
8077.08
8074.859
8072.653
8070.493
8068.418
8066.47
8064.678
8063.016
8061.42
8059.833
8058.228
8056.589
8054.906
8053.171
8051.379
8049.528
8047.615
8045.642
8043.61
8041.519
8039.374
8037.178
8034.933
8032.645
8030.316
8027.953
8025.56
8023.141
8020.702
8018.247
8015.782
8013.311
8010.839
8008.37
8005.909
8003.458
8001.02
7998.597
7996.185
7993.792
7991.429
7989.082
7986.738
7984.413
7982.146
7979.95
7977.823
7975.758
7973.751
7971.802
7969.912
7968.081
7966.309
7964.595
7962.938
7961.339
7959.797
7958.311
7956.881
7955.505
7954.183
7952.913
7951.694
7950.523
7949.399
7948.319
7947.281
7946.283
7945.321
7944.394
7943.497
7942.629
7941.786
7940.965
7940.165
7939.38
7938.609
7937.847
7937.093
7936.341
7935.586
7934.823
7934.044
7933.236
7932.389
7931.49
7930.53
7929.508
7928.432
7927.314
7926.163
7924.974
7923.75
7922.482
7921.168
7919.793
7918.353
7916.872
7915.37
7913.848
7912.299
7910.719
7909.107
7907.466
7905.794
7904.089
7902.35
7900.576
7898.766
7896.919
7895.033
7893.108
7891.143
7889.137
7887.089
7884.999
7882.867
7880.692
7878.473
7876.21
7873.904
7871.554
7869.161
7866.724
7864.244
7861.722
7859.158
7856.552
7853.907
7851.223
7848.5
7845.74
7842.944
7840.114
7837.251
7834.356
7831.432
7828.48
7825.501
7822.496
7819.47
7816.423
7813.356
7810.273
7807.175
7804.064
7800.943
7797.814
7794.678
7791.539
7788.398
7785.258
7782.119
7778.986
7775.858
7772.739
7769.63
7766.53
7763.443
7760.369
7757.311
7754.262
7751.228
7748.209
7745.201
7742.205
7739.222
7736.254
7733.305
7730.386
7727.511
7724.715
7722.03
7719.534
7717.271
7715.376
7713.862
7712.875
7712.073
5467.845
5394.934
5325.031
5253.693
5186.258
5112.081
5045.816
4978.645
4909.915
4841.513
4773.794
4706.992
4640.185
4574.549
4507.685
4432.631
4371.285
4313.994
4260.772
4212.597
4169.871
4133.467
4104.06
4081.9
4067.19
4060.836
4062.075
4074.309
4094.334
4120.047
4150.833
4189.011
4236.35
4293.981
4363.309
4443.979
4536.058
4639.294
4753.554
4878.837
5015.231
5162.537
5320.016
5486.925
5662.737
5846.562
6036.889
6231.95
6429.428
6627.997
6819.625
7001.446
7164.859
7311.392
7434.956
7531.734
7599.372
7637.171
7644.872
7624.454
7577.385
7505.254
7410.773
7299.317
7178.13
7051.093
6920.698
6789.271
6659.184
6532.127
6409.234
6291.494
6180.045
6075.737
5979.561
5892.706
5816.1
5749.999
5694.276
5648.696
5612.765
5585.474
5565.616
5551.876
5542.681
5536.244
5530.692
5525.679
5519.391
5509.181
5494.688
5475.705
5452.142
5423.754
5391.255
5357.434
5325.828
5299.123
5278.92
5266.435
5262.433
5267.504
5281.975
5305.71
5338.323
5378.657
5424.553
5474.028
5526.295
5581.299
5638.626
5696.729
5753.038
5804.609
5849.182
5885.261
5911.591
5927.226
5931.772
5925.266
5908.216
5881.573
5846.589
5804.659
5757.553
5707.555
5657.733
5611.686
5572.683
5542.634
5522.01
5511.058
5510.472
5520.843
5541.342
5570.244
5605.764
5646.184
5689.239
5731.816
5771.017
5805.797
5835.44
5861.802
5885.437
5906.681
5925.652
5942.588
5957.788
5972.283
5987.222
6002.945
6019.497
6037.307
6057.235
6078.677
6101.39
6125.687
6151.692
6179.662
6210.048
6243.177
6279.209
6318.147
6359.775
6403.676
6449.117
6495.046
6540.251
6583.466
6623.481
6659.238
6689.972
6715.592
6736.753
6754.623
6770.569
6785.853
6801.15
6816.4
6831.334
6845.999
6860.784
6876.199
6892.719
6910.783
6930.831
6953.244
6978.178
7005.443
7034.572
7065.021
7096.375
7128.353
7160.705
7193.294
7225.906
7258.24
7289.991
7320.513
7349.475
7376.832
7402.138
7426.225
7450.197
7473.465
7495.883
7517.525
7537.764
7557.268
7577.377
7598.829
7622.372
7648.386
7675.997
7704.932
7735.202
7764.872
7792.391
7818.234
7842.177
7863.596
7882.476
7897.504
7907.519
7912.456
7913.628
7911.771
7906.958
7899.151
7888.345
7874.49
7857.556
7837.645
7814.979
7789.899
7762.894
7734.617
7705.881
7677.61
7650.949
7627.387
7607.545
7591.41
7579.606
7572.785
7571.35
7575.448
7584.947
7599.515
7618.587
7641.381
7666.934
7694.123
7721.979
7749.975
7777.718
7804.889
7831.267
7856.572
7880.568
7903.14
7924.246
7943.885
7962.086
7978.891
7994.353
8008.529
8021.482
8033.271
8043.95
8053.574
8062.182
8069.82
8076.573
8082.525
8087.698
8092.163
8095.984
8099.191
8101.833
8103.997
8105.733
8107.026
8107.854
8108.251
8108.274
8107.973
8107.386
8106.546
8105.483
8104.226
8102.8
8101.23
8099.536
8097.738
8095.853
8093.897
8091.884
8089.823
8087.726
8085.6
8083.452
8081.289
8079.116
8076.943
8074.78
8072.643
8070.553
8068.535
8066.612
8064.795
8063.069
8061.398
8059.745
8058.083
8056.397
8054.675
8052.909
8051.091
8049.22
8047.292
8045.306
8043.264
8041.167
8039.018
8036.818
8034.572
8032.284
8029.957
8027.596
8025.205
8022.79
8020.355
8017.904
8015.444
8012.977
8010.509
8008.044
8005.585
8003.135
8000.698
7998.276
7995.87
7993.483
7991.118
7988.767
7986.432
7984.133
7981.889
7979.706
7977.584
7975.519
7973.508
7971.554
7969.657
7967.818
7966.037
7964.313
7962.647
7961.037
7959.485
7957.989
7956.548
7955.161
7953.828
7952.547
7951.316
7950.134
7948.999
7947.908
7946.859
7945.851
7944.879
7943.94
7943.033
7942.154
7941.3
7940.469
7939.657
7938.86
7938.075
7937.3
7936.529
7935.759
7934.985
7934.2
7933.397
7932.568
7931.704
7930.797
7929.839
7928.831
7927.774
7926.676
7925.539
7924.365
7923.152
7921.894
7920.591
7919.242
7917.847
7916.41
7914.939
7913.438
7911.906
7910.342
7908.747
7907.121
7905.463
7903.772
7902.047
7900.287
7898.491
7896.657
7894.785
7892.873
7890.922
7888.929
7886.896
7884.82
7882.701
7880.54
7878.335
7876.086
7873.793
7871.456
7869.075
7866.65
7864.182
7861.671
7859.117
7856.523
7853.887
7851.212
7848.498
7845.746
7842.958
7840.134
7837.277
7834.388
7831.469
7828.52
7825.543
7822.542
7819.518
7816.472
7813.407
7810.324
7807.226
7804.116
7800.994
7797.864
7794.729
7791.589
7788.448
7785.308
7782.17
7779.039
7775.914
7772.799
7769.696
7766.605
7763.531
7760.473
7757.434
7754.413
7751.413
7748.433
7745.481
7742.547
7739.643
7736.775
7733.948
7731.178
7728.48
7725.888
7723.426
7721.161
7719.115
7717.401
7715.98
7714.986
7714.072
5690.912
5687.235
5656.944
5598.03
5527.358
5456.034
5384.794
5316.112
5249.801
5182.727
5103.521
5036.814
4970.036
4902.657
4834.633
4766.54
4698.744
4631.207
4564.252
4498.905
4436.867
4375.536
4317.082
4262.137
4211.841
4166.348
4126.224
4092.574
4066.178
4047.482
4036.854
4034.904
4041.873
4057.156
4080.373
4111.209
4150.753
4199.779
4258.878
4328.525
4408.819
4499.711
4601.099
4713.01
4835.587
4968.821
5112.01
5264.494
5426.201
5597.093
5776.831
5964.323
6156.418
6350.607
6543.682
6730.248
6905.784
7064.688
7203.463
7318.792
7407.087
7466.154
7495.719
7496.609
7468.803
7413.834
7336.195
7240.144
7131.058
7013.57
6891.099
6766.152
6640.963
6518.068
6398.615
6283.151
6172.045
6066.264
5966.701
5874.975
5793.015
5722.183
5662.719
5614.402
5577.005
5550.013
5532.219
5522.348
5518.819
5519.698
5522.873
5526.5
5529.295
5529.058
5523.209
5510.829
5491.903
5465.738
5431.005
5388.887
5344.512
5303.061
5267.609
5240.556
5223.34
5216.295
5219.972
5234.956
5260.975
5297.823
5344.11
5396.24
5451.24
5508.832
5570.563
5636.602
5705.152
5772.086
5833.144
5885.715
5928.211
5959.21
5977.451
5982.232
5973.526
5952.073
5919.159
5876.25
5824.747
5766.335
5703.662
5640.867
5583.378
5535.94
5500.318
5475.863
5462.527
5461.327
5473.72
5498.64
5533.5
5576.29
5624.874
5676.305
5726.116
5769.825
5805.533
5835.22
5859.467
5880.048
5897.851
5913.152
5926.689
5938.766
5950.901
5963.418
5974.772
5991.864
6014.028
6036.819
6059.428
6082.932
6107.812
6134.041
6162.197
6192.996
6226.483
6263.663
6304.742
6349.051
6395.548
6443.546
6491.849
6539.037
6583.764
6624.882
6661.497
6692.911
6719.579
6742.174
6761.484
6778.311
6793.57
6807.801
6821.155
6833.686
6845.667
6857.631
6870.185
6883.884
6899.27
6916.943
6937.447
6961.043
6987.496
7016.021
7045.712
7075.967
7106.428
7136.384
7166.981
7198.215
7229.274
7259.768
7289.548
7318.41
7346.3
7373.045
7398.786
7424.108
7448.999
7473.292
7497.045
7520.247
7543.173
7566.365
7590.11
7614.812
7641.235
7669.507
7699.102
7728.93
7757.988
7786.262
7813.285
7837.947
7860.029
7879.436
7895.996
7908.653
7915.678
7917.437
7914.949
7909.075
7900.259
7888.58
7873.897
7856.105
7835.231
7811.443
7785.069
7756.614
7726.774
7696.428
7666.588
7638.407
7613.326
7592.177
7575.095
7562.72
7555.767
7554.683
7559.612
7570.303
7586.486
7607.519
7632.465
7659.868
7688.397
7717.407
7746.647
7775.778
7804.181
7831.482
7857.428
7881.852
7904.685
7925.924
7945.608
7963.795
7980.551
7995.947
8010.051
8022.931
8034.655
8045.278
8054.852
8063.424
8071.049
8077.79
8083.71
8088.836
8093.208
8096.857
8099.879
8102.38
8104.387
8105.954
8107.178
8108.019
8108.405
8108.396
8108.063
8107.445
8106.576
8105.488
8104.207
8102.761
8101.172
8099.462
8097.65
8095.754
8093.79
8091.771
8089.708
8087.613
8085.495
8083.36
8081.218
8079.074
8076.937
8074.818
8072.73
8070.686
8068.702
8066.791
8064.956
8063.188
8061.462
8059.754
8058.042
8056.311
8054.549
8052.747
8050.9
8049.002
8047.051
8045.045
8042.986
8040.874
8038.711
8036.501
8034.245
8031.949
8029.616
8027.249
8024.855
8022.436
8019.999
8017.547
8015.086
8012.619
8010.151
8007.686
8005.227
8002.779
8000.343
7997.922
7995.519
7993.135
7990.772
7988.431
7986.117
7983.842
7981.614
7979.439
7977.318
7975.252
7973.239
7971.282
7969.381
7967.538
7965.751
7964.021
7962.348
7960.732
7959.173
7957.669
7956.221
7954.827
7953.487
7952.198
7950.959
7949.768
7948.625
7947.526
7946.469
7945.452
7944.471
7943.525
7942.609
7941.722
7940.859
7940.018
7939.196
7938.389
7937.593
7936.805
7936.021
7935.236
7934.446
7933.644
7932.824
7931.98
7931.105
7930.192
7929.237
7928.237
7927.195
7926.111
7924.989
7923.828
7922.627
7921.386
7920.102
7918.776
7917.407
7915.997
7914.55
7913.069
7911.557
7910.012
7908.435
7906.826
7905.183
7903.508
7901.797
7900.051
7898.268
7896.448
7894.59
7892.692
7890.754
7888.775
7886.754
7884.692
7882.587
7880.438
7878.246
7876.009
7873.728
7871.403
7869.033
7866.619
7864.161
7861.659
7859.115
7856.529
7853.901
7851.233
7848.525
7845.78
7842.997
7840.178
7837.325
7834.439
7831.521
7828.574
7825.599
7822.598
7819.573
7816.526
7813.459
7810.375
7807.275
7804.162
7801.038
7797.905
7794.767
7791.625
7788.481
7785.34
7782.202
7779.071
7775.949
7772.838
7769.74
7766.659
7763.596
7760.554
7757.535
7754.541
7751.574
7748.637
7745.73
7742.871
7740.042
7737.267
7734.554
7731.916
7729.369
7726.943
7724.66
7722.573
7720.693
7719.11
7717.767
7716.799
7715.855
5694.665
5670.96
5604.784
5545.045
5481.794
5418.13
5354.84
5291.974
5229.185
5166.393
5104.144
5040.348
4974.871
4908.337
4840.854
4772.737
4704.352
4636.05
4568.017
4501.132
4437.164
4374.984
4314.6
4256.685
4202.737
4153.711
4110.377
4073.462
4043.987
4022.855
4010.309
4006.436
4011.283
4024.629
4046.521
4077.028
4116.701
4165.97
4225.166
4294.464
4373.895
4463.383
4562.867
4672.437
4792.012
4920.868
5058.399
5205.226
5362.33
5529.26
5704.751
5887.406
6074.674
6263.326
6449.734
6628.966
6795.947
6945.818
7074.008
7177.939
7254.749
7303.553
7322.725
7312.135
7274.318
7212.249
7132.121
7037.17
6931.033
6817.083
6699.375
6580.319
6462.1
6346.639
6235.213
6128.39
6025.443
5926.96
5833.029
5746.323
5670.33
5606.513
5554.732
5515.129
5487.736
5471.508
5465.095
5467.686
5477.489
5491.556
5506.906
5521.81
5535.026
5543.491
5543.336
5533.543
5515.303
5487.113