/*--------------------------------*- C++ -*----------------------------------*\
| =========                 |                                                 |
| \\      /  F ield         | foam-extend: Open Source CFD                    |
|  \\    /   O peration     | Version:     3.1                                |
|   \\  /    A nd           | Web:         http://www.extend-project.de       |
|    \\/     M anipulation  |                                                 |
\*---------------------------------------------------------------------------*/
FoamFile
{
    version     2.0;
    format      ascii;
    class       volScalarField;
    location    "17";
    object      alpha1;
}
// * * * * * * * * * * * * * * * * * * * * * * * * * * * * * * * * * * * * * //

dimensions      [0 0 0 0 0 0 0];

internalField   nonuniform List<scalar> 
119952
(
0.9999999
1
1
0.9999999
1
0.9999999
1
1
1
0.9999999
1
1
0.9999999
1
0.9999999
1
1
0.9999999
1
1
1
1
1
1
0.9999998
1
1
0.9999999
1
0.9999995
1
1
1
1
1
1
1
1
1
1
1
1
1
1
1
1
1
1
1
1
1
1
1
1
1
1
1
1
1
1
1
1
1
1
0.9999999
1
1
1
0.9999998
1
1
0.9999999
0.9999999
1
1
1
1
0.9999997
0.9999998
1
0.9999999
0.9999999
1
0.9999999
0.9999997
1
1
0.9999998
0.9999999
1
1
0.9999999
0.9999999
1
1
0.9999999
1
1
1
0.9999999
1
1
1
1
1
1
1
1
1
1
1
1
1
1
1
1
1
1
1
0.9999999
1
1
1
1
1
0.9999998
1
1
1
1
0.9999999
0.9999998
1
1
0.9999998
0.9999999
1
1
1
1
1
1
1
1
1
1
1
1
1
1
1
1
1
1
1
1
1
1
1
1
1
1
1
1
1
1
1
1
1
1
1
1
1
1
1
1
1
1
1
1
1
1
1
1
1
1
1
1
1
1
1
1
1
1
1
1
1
1
1
1
1
1
1
1
1
1
1
1
1
1
1
1
1
1
1
1
1
1
1
1
1
0.9999972
1
1
1
1
1
1
1
1
1
1
1
1
1
1
1
1
1
1
1
0.9999992
0.9999999
0.9999973
1
1
1
1
1
1
1
1
1
1
1
1
1
1
1
1
1
1
1
1
1
0.9999999
1
0.9999999
1
0.9999999
1
0.9999999
0.9999999
0.9999999
1
1
1
1
0.9999997
1
0.9999999
0.9999997
1
1
1
0.9999999
0.9999999
1
1
1
0.9999999
0.9999996
1
1
1
1
1
1
1
1
0.9999999
1
1
0.9999999
1
1
1
1
1
1
0.9999998
1
1
1
1
1
1
1
1
1
1
1
1
1
1
1
1
1
1
1
1
1
1
1
1
1
1
1
1
1
1
1
1
1
1
1
1
1
1
1
1
1
1
1
1
1
1
1
1
1
1
1
1
1
1
1
1
1
1
1
1
1
1
1
1
1
1
1
1
1
1
1
1
1
1
1
0.9999998
1
1
0.9999998
0.9999996
1
1
1
1
1
1
0.9999999
0.9999993
1
1
1
1
1
0.9999998
0.9999998
1
1
0.9999999
1
1
0.9999999
1
1
0.9999998
1
1
0.9999998
1
1
0.9999999
0.9999999
1
0.9999999
0.9999999
1
1
1
1
1
1
1
1
1
1
1
1
1
1
1
1
1
1
1
1
1
1
1
1
1
1
1
1
1
1
1
1
1
1
1
1
1
1
1
1
1
1
1
1
1
1
1
1
1
1
1
1
1
1
1
1
0.9999999
1
1
1
1
1
1
1
1
0.9999999
0.9999999
1
1
1
1
1
1
0.9999999
1
1
1
1
0.9999999
0.9999999
0.9999999
1
1
1
0.9999999
0.9999999
1
1
1
1
1
1
1
1
1
1
1
1
1
1
1
1
1
1
1
1
1
1
1
1
1
1
1
1
1
1
1
1
1
1
1
1
1
0.9999999
0.9999999
1
1
1
1
1
1
1
1
1
1
1
1
1
1
1
1
1
1
1
1
1
1
1
1
1
1
1
1
1
1
1
0.9999999
0.9999999
1
1
1
1
1
1
1
1
1
1
1
1
1
1
1
1
1
1
1
1
1
1
1
1
1
1
1
1
1
1
1
1
1
1
1
1
1
1
1
1
1
1
1
1
1
1
0.9999999
0.9999957
0.9999852
0.9999975
0.9999932
0.9999568
0.9999579
0.9999984
1
1
1
1
0.9999999
1
1
1
1
1
1
0.9999998
0.999995
0.9999722
0.9999946
1
0.9999999
0.9999998
1
1
0.9999995
0.9999507
0.9995234
0.9998088
0.9999996
1
1
1
1
1
1
1
1
0.9999999
1
0.9999999
0.9999988
0.9999999
1
1
0.9999994
0.9999998
1
0.9999993
0.9999993
0.9999998
1
1
1
1
1
1
1
1
1
1
1
1
1
1
1
1
1
1
1
1
1
1
1
1
1
1
1
1
1
1
1
1
1
1
1
1
1
0.9999999
0.9999995
0.9999989
0.9999992
0.9999998
1
1
1
1
1
1
1
1
1
1
1
1
0.9999999
0.9999997
0.9999989
0.9999983
0.9999988
0.9999996
1
1
1
1
1
1
1
1
1
1
1
1
1
1
1
1
1
1
1
1
1
1
1
1
1
1
1
1
1
1
1
1
1
1
0.9999999
0.9999997
0.9999994
0.999999
0.9999984
0.9999981
0.9999981
0.9999981
0.9999981
0.9999985
0.9999996
1
1
1
1
0.9999999
0.9999997
0.9999987
0.9999946
0.9999904
0.9999928
0.9999979
0.9999998
1
1
1
1
1
1
1
1
1
0.9999999
0.9999999
0.9999999
1
1
1
0.9999998
0.9999996
0.9999997
0.9999999
1
1
1
1
1
1
1
1
1
1
1
1
1
1
1
1
1
1
1
1
1
1
1
1
1
1
1
1
1
1
1
1
1
1
1
1
1
1
0.9999999
1
1
1
1
1
1
1
0.9999999
1
1
1
0.9999999
1
1
1
1
1
1
1
1
1
1
1
1
1
1
1
1
1
1
1
1
1
1
1
1
1
1
1
1
1
1
1
1
1
1
1
1
1
1
1
1
1
1
1
1
0.9999996
0.9999966
0.999979
0.9999414
0.999942
0.9999616
0.9999866
0.9999986
1
1
1
1
1
1
1
1
1
1
1
1
1
1
1
1
1
1
1
1
1
1
1
1
1
1
1
1
1
1
1
1
1
1
1
1
1
1
1
1
1
1
1
1
1
1
1
1
1
1
1
1
1
1
1
1
1
1
1
1
1
1
1
1
1
1
1
1
1
1
1
1
1
1
1
1
1
1
1
1
1
1
1
1
1
1
1
1
1
1
1
1
1
1
1
1
1
1
1
1
1
0.9999999
0.9999999
0.9999999
0.9999999
0.9999999
0.9999986
0.999993
0.9999925
0.9999925
0.9999943
0.9999987
0.9999999
1
1
1
1
1
1
1
1
0.9999998
0.9999992
0.9999962
0.9999866
0.9999845
0.9999933
0.9999992
1
1
1
1
0.9999999
0.9999999
0.9999999
1
1
1
1
1
1
1
1
1
1
1
1
1
1
1
1
1
0.9999999
0.9999991
0.9999934
0.9999687
0.9999017
0.9998248
0.9998224
0.9998433
0.9999504
0.9999881
0.9999807
0.9999353
0.9998762
0.9998754
0.9999333
0.9999873
0.9999992
0.9999994
0.9999985
0.999994
0.9999708
0.9998466
0.9991242
0.9963381
0.9953579
0.9963629
0.9990434
0.9999367
0.9999992
1
1
1
0.9999999
0.9999976
0.9999401
0.9988868
0.9915377
0.9836366
0.9877248
0.9958905
0.9995971
0.9999929
1
1
1
0.9999999
0.9999991
0.9999952
0.9999859
0.9999872
0.9999957
0.9999996
1
1
0.9999999
0.999999
0.9999942
0.9999925
0.9999965
0.9999995
1
1
1
0.9999999
0.9999999
1
1
1
1
1
1
1
1
1
1
1
1
1
1
1
1
1
1
1
1
1
1
1
1
1
1
1
1
1
1
1
1
0.9999997
0.9999979
0.9999973
0.9999986
0.9999998
1
1
1
1
1
1
1
1
1
0.9999999
0.9999995
0.9999972
0.999987
0.9999755
0.9999846
0.9999967
0.9999998
1
1
1
1
1
1
1
1
0.9999999
0.9999997
0.9999998
0.9999999
1
1
1
1
1
1
1
1
1
1
1
1
1
1
1
1
1
1
0.9999999
0.9999998
0.9999994
0.9999986
0.9999961
0.9999852
0.9999435
0.9999105
0.9999292
0.9999731
0.999997
0.9999999
1
1
1
1
1
0.9999997
0.9999985
0.9999932
0.9999717
0.9999052
0.9998664
0.9999192
0.9999839
0.9999989
0.9999999
1
1
1
1
1
1
1
0.9999999
0.9999998
0.9999998
0.9999999
1
1
1
1
1
1
1
0.9999999
0.9999999
1
0.9999999
1
1
1
1
1
1
1
1
1
1
1
1
1
1
1
1
1
1
1
1
1
1
1
1
1
1
1
1
1
1
1
1
1
1
1
1
1
1
1
1
1
1
1
1
1
1
1
1
1
0.9999999
1
1
1
1
1
1
1
0.9999999
0.9999999
1
1
1
1
1
1
1
1
1
1
1
1
1
1
1
1
1
1
1
1
1
1
1
1
1
1
1
1
1
1
1
1
1
1
1
1
1
1
1
1
1
1
0.9999999
0.9999994
0.9999959
0.9999764
0.9998569
0.9991048
0.9963256
0.9945695
0.9957606
0.998735
0.9998943
0.9999983
1
1
1
1
1
1
1
1
1
1
1
1
1
1
1
1
1
1
1
1
1
1
1
1
1
1
1
1
1
1
1
1
1
1
1
1
1
1
1
1
1
1
1
1
1
1
1
1
1
1
1
1
1
1
1
1
1
1
1
1
1
1
1
1
1
1
1
1
1
1
1
1
1
1
1
1
1
1
1
1
1
1
1
1
1
1
1
1
1
1
1
1
1
1
1
1
1
1
0.9999999
0.9999988
0.9999907
0.9999399
0.999896
0.9999416
0.9999888
0.9999994
0.9999998
0.9999993
0.9999977
0.9999973
0.9999983
0.9999996
1
1
1
1
1
1
0.9999999
0.9999995
0.9999966
0.9999777
0.9998737
0.999786
0.9998826
0.9999777
0.9999989
1
1
1
0.9999999
0.9999995
0.9999991
0.9999995
0.9999999
1
1
1
1
1
1
1
1
1
1
0.9999999
0.9999999
0.9999998
0.9999998
0.9999997
0.9999994
0.999998
0.999991
0.9999615
0.9998069
0.9990681
0.9991574
0.9997212
0.999969
0.9999762
0.9999455
0.9997207
0.9989195
0.9980481
0.998759
0.999701
0.999977
0.9999966
0.9999946
0.9999794
0.9998852
0.9990606
0.9896868
0.9733301
0.9751904
0.9898956
0.9986125
0.9999544
0.9999995
0.9999997
0.9999997
0.9999996
0.9999992
0.9999977
0.9999917
0.9999606
0.9997182
0.9967621
0.9723404
0.9614821
0.9614821
0.9773244
0.9964139
0.9998805
0.9999993
0.9999997
0.9999984
0.9999885
0.9999369
0.9999032
0.9999513
0.9999918
0.9999994
0.9999998
0.9999997
0.9999996
0.999999
0.9999936
0.999983
0.9999894
0.9999977
0.9999998
1
0.9999999
0.9999998
0.9999998
0.9999999
1
1
1
1
1
1
1
1
1
1
1
1
1
1
1
1
1
1
1
1
1
1
1
0.9999999
0.9999999
0.9999999
1
1
1
1
1
0.9999999
0.999999
0.9999947
0.9999941
0.9999973
0.9999996
1
1
1
1
1
1
1
0.9999998
0.9999988
0.9999931
0.9999612
0.9998573
0.9998499
0.9999397
0.9999929
0.9999998
1
1
1
1
1
1
0.9999997
0.9999987
0.9999969
0.9999978
0.9999994
0.9999999
1
1
1
1
1
1
1
1
1
1
1
1
1
1
1
0.9999999
0.9999997
0.999999
0.9999974
0.9999952
0.999994
0.9999895
0.9999044
0.9997082
0.9997071
0.9997071
0.9997071
0.9997344
0.9999145
0.999993
0.9999996
0.9999995
0.9999993
0.9999995
0.9999998
0.9999998
0.9999982
0.9999751
0.9997572
0.999035
0.9990577
0.9995888
0.9999455
0.9999982
1
1
1
1
1
1
0.9999999
0.9999995
0.9999977
0.9999967
0.9999984
0.9999998
1
1
1
1
1
1
1
1
0.9999999
0.9999999
1
0.9999999
1
1
0.9999999
1
0.9999999
1
0.9999999
1
1
1
1
1
1
1
1
1
1
1
1
1
1
1
1
1
1
1
1
1
1
1
1
1
1
1
1
1
1
1
1
1
1
1
1
1
1
1
1
1
1
1
1
1
1
1
1
1
1
1
1
1
1
1
1
1
1
1
1
1
1
1
1
1
1
1
1
1
1
1
1
1
1
1
1
1
1
1
1
1
1
1
1
1
1
1
1
1
1
1
1
1
1
1
1
1
1
1
1
1
0.9999999
0.9999992
0.9999972
0.9999895
0.999968
0.9998963
0.9994799
0.9968583
0.9854835
0.9505246
0.9323245
0.9632061
0.9934757
0.9996884
0.9999946
0.9999999
1
1
1
1
1
1
1
1
1
1
1
1
1
1
1
1
1
1
1
1
1
1
1
1
1
1
1
1
1
1
1
1
1
1
1
1
1
1
1
1
1
1
1
1
1
1
1
1
1
1
1
1
1
1
1
1
1
1
1
1
1
1
1
1
1
1
1
1
1
1
1
1
1
1
1
1
1
1
1
1
1
1
0.9999999
0.9999997
0.9999997
0.9999999
1
1
1
1
1
0.9999999
0.9999998
0.9999996
0.9999996
0.9999997
0.9999999
0.9999998
0.9999976
0.9999691
0.999756
0.999649
0.999842
0.9999773
0.9999992
0.9999998
0.9999998
0.9999997
0.9999995
0.9999995
0.9999995
0.9999995
0.9999995
0.9999996
0.9999999
0.9999999
0.9999999
0.9999992
0.9999949
0.9999602
0.9996753
0.9989155
0.9990909
0.9997001
0.9999645
0.9999988
1
1
1
0.9999996
0.9999975
0.9999964
0.9999982
0.9999997
1
1
1
1
1
1
1
1
0.9999998
0.9999989
0.9999969
0.9999967
0.9999981
0.9999985
0.9999976
0.9999907
0.9999462
0.9997902
0.9994593
0.9987437
0.9986566
0.9986566
0.9990588
0.9998166
0.9998647
0.9995131
0.9973679
0.9902148
0.9899569
0.9957829
0.9994233
0.9999762
0.999995
0.9999914
0.9999018
0.9987751
0.9873296
0.9424549
0.9485817
0.9845156
0.9984407
0.9999547
0.9999994
0.9999997
0.9999997
0.9999997
0.9999995
0.9999962
0.9999819
0.9999419
0.9998021
0.998782
0.9885429
0.9623516
0.9614821
0.9614821
0.9680157
0.9903869
0.9992509
0.9999879
0.9999967
0.9999806
0.9998359
0.9994753
0.9995779
0.9998687
0.999986
0.999999
0.9999994
0.9999988
0.9999983
0.9999972
0.9999889
0.9999601
0.9999652
0.9999893
0.999999
0.9999999
0.9999999
0.9999997
0.9999998
1
1
1
1
1
1
1
1
1
1
1
1
1
1
1
1
1
1
1
1
1
1
1
0.9999999
0.9999994
0.9999993
0.9999997
1
1
1
1
1
1
0.9999996
0.9999954
0.9999841
0.9999873
0.9999964
0.9999997
1
1
1
1
1
1
0.9999995
0.9999939
0.9999514
0.9997084
0.999201
0.9993259
0.999794
0.999982
0.9999997
1
1
1
1
0.9999998
0.999999
0.9999938
0.9999788
0.9999802
0.9999931
0.9999992
1
1
1
1
1
1
1
1
1
1
0.9999999
0.9999997
0.9999995
0.9999995
0.9999995
0.9999994
0.9999989
0.9999962
0.9999782
0.999817
0.9986342
0.9979684
0.9984903
0.9996234
0.9999747
0.9999931
0.9999905
0.9999874
0.9999875
0.9999891
0.9999893
0.9999848
0.9999589
0.9999294
0.9999549
0.9999901
0.9999995
0.9999994
0.9999927
0.9998583
0.9984509
0.9977871
0.9979238
0.9991729
0.9998996
0.9999975
1
1
0.9999999
0.9999999
0.9999996
0.9999978
0.999988
0.999972
0.9999804
0.9999948
0.9999996
1
1
1
1
1
1
1
1
0.9999999
0.9999995
0.9999995
1
1
1
1
0.9999999
1
1
0.9999998
1
1
0.9999999
1
0.9999999
1
1
1
1
1
1
1
1
1
1
1
1
1
1
1
1
1
1
1
1
1
1
1
1
1
1
1
1
1
1
1
1
1
1
1
1
1
1
1
1
1
1
1
1
1
1
1
1
1
1
1
1
1
1
1
1
1
1
1
1
1
1
1
1
1
1
1
1
1
1
1
1
1
1
1
1
1
1
1
1
1
1
1
1
0.9999999
0.9999999
1
1
1
1
1
1
1
1
1
1
1
1
1
1
1
1
1
1
1
0.9999999
0.9999988
0.9999672
0.999763
0.9992689
0.998452
0.9969895
0.9935359
0.9791608
0.9088231
0.6174658
0.5814702
0.8259923
0.9818522
0.9990649
0.9991892
0.9991809
0.9992448
0.9994141
0.9997003
0.9999446
0.9999977
0.999999
0.9999977
0.9999893
0.9999638
0.9999625
0.9999852
0.9999985
1
1
1
1
1
1
1
1
1
1
1
1
1
1
1
1
1
1
1
1
1
1
1
1
1
1
1
1
1
1
1
1
1
1
1
1
1
1
1
1
1
1
1
1
1
1
1
1
1
1
1
1
1
1
1
1
1
1
1
1
1
1
1
1
1
1
1
0.9999999
0.9999995
0.9999988
0.9999968
0.9999965
0.9999984
0.9999998
1
1
1
0.9999999
0.9999996
0.9999983
0.9999924
0.9999639
0.9999159
0.9999398
0.999985
0.9999987
0.9999969
0.9999661
0.9996389
0.9991504
0.9995566
0.9999176
0.999996
0.9999998
0.9999997
0.9999992
0.9999966
0.9999821
0.9999312
0.9999252
0.9999636
0.9999951
0.9999997
0.9999997
0.999999
0.9999939
0.9999551
0.9996054
0.9974391
0.9965913
0.9978078
0.9995463
0.9999694
0.9999994
1
1
0.9999998
0.9999983
0.9999903
0.9999896
0.9999956
0.9999994
1
1
1
1
1
1
1
0.9999999
0.9999992
0.9999941
0.9999747
0.9999742
0.9999901
0.9999979
0.9999944
0.9999578
0.9996345
0.9975969
0.993895
0.9953174
0.9984614
0.9998277
0.9999613
0.9999528
0.999713
0.9973326
0.9821731
0.9575219
0.9716248
0.9922339
0.9993093
0.9999849
0.9999946
0.9999948
0.9999657
0.9992664
0.9830693
0.8490036
0.852938
0.9499287
0.9951193
0.9998986
0.9999992
0.9999993
0.9999989
0.9999986
0.9999992
0.999999
0.99999
0.9998349
0.9976178
0.9784603
0.9657237
0.9657237
0.9677394
0.9831779
0.993287
0.9975517
0.9995498
0.9999676
0.9999714
0.9998381
0.9988233
0.9983485
0.9989691
0.9997922
0.9999862
0.9999985
0.9999986
0.9999971
0.9999927
0.9999858
0.9999586
0.9998911
0.9998918
0.9999538
0.9999943
0.9999997
0.9999998
0.9999993
0.9999993
0.9999998
1
1
1
1
1
1
1
1
1
1
1
1
1
1
1
1
1
1
1
1
1
0.9999999
0.9999991
0.9999969
0.9999976
0.9999993
0.9999999
1
1
1
1
1
0.9999999
0.9999975
0.9999755
0.9999618
0.999982
0.9999973
0.9999999
1
1
1
1
1
0.9999999
0.9999978
0.9999514
0.9992919
0.9968597
0.9972907
0.9991282
0.9999216
0.9999986
1
1
1
0.9999997
0.999998
0.9999858
0.9999166
0.999867
0.9999287
0.9999865
0.9999994
1
1
1
1
1
0.9999999
0.9999999
0.9999997
0.999999
0.9999964
0.9999878
0.9999621
0.999934
0.9999521
0.9999883
0.9999954
0.9999919
0.9999694
0.9997716
0.997595
0.9949769
0.9953421
0.9980079
0.9996962
0.999987
0.9999992
0.9999992
0.9999991
0.9999974
0.9999882
0.9999371
0.9996448
0.9990639
0.9992875
0.9998015
0.9999834
0.9999996
0.9999998
0.9999998
0.9999989
0.9999859
0.999807
0.9984379
0.9977907
0.9981338
0.9994336
0.9999551
0.9999991
0.9999991
0.9999971
0.9999842
0.9999106
0.9997883
0.9998332
0.9999448
0.9999936
0.9999997
1
1
1
1
1
1
1
1
0.9999998
0.9999987
0.9999974
0.9999986
1
1
1
1
1
1
1
1
1
0.9999999
1
1
1
1
1
1
1
1
1
1
1
1
1
1
1
1
1
1
1
1
1
1
1
1
1
1
1
1
1
1
1
1
1
1
1
1
1
1
1
1
1
1
1
1
1
1
1
1
1
1
1
1
1
1
1
1
1
1
1
1
1
1
1
1
1
1
1
1
1
1
1
1
1
1
1
0.9999999
0.9999999
1
1
1
1
0.9999999
0.9999999
0.9999998
0.9999998
0.9999998
0.9999998
0.9999997
0.9999991
0.9999975
0.999992
0.9999736
0.9999506
0.9999538
0.9999646
0.9999786
0.9999896
0.9999955
0.9999982
0.9999992
0.9999996
0.9999997
0.9999997
0.9999997
0.9999997
0.9999997
0.9999998
0.9999999
1
0.9999999
0.9999998
0.9999995
0.9999925
0.9999278
0.9997827
0.9987346
0.9912173
0.9678696
0.9545288
0.9434206
0.8932033
0.6336837
0.1704012
0.04856174
0.2388666
0.8048078
0.9693871
0.9687735
0.972745
0.9810096
0.9876763
0.9936591
0.9986588
0.9999138
0.9999298
0.9996947
0.9989967
0.9991851
0.9997356
0.9999733
0.9999991
0.9999999
1
1
0.9999999
0.9999997
0.9999993
0.9999994
0.9999998
1
1
1
1
1
1
1
1
1
1
1
1
1
1
1
1
1
1
1
1
1
1
1
1
1
1
1
1
1
1
1
1
1
1
1
1
1
1
1
1
1
1
1
1
1
1
1
1
1
1
1
1
1
1
1
1
0.9999999
0.9999996
0.9999978
0.999994
0.9999906
0.999984
0.9999835
0.9999842
0.999994
0.9999993
1
0.9999999
0.9999998
0.9999992
0.9999959
0.9999724
0.999782
0.9992328
0.9993363
0.9997726
0.9999742
0.9999943
0.9999901
0.9999339
0.9993705
0.9981158
0.998797
0.9996984
0.9999773
0.9999977
0.999995
0.9999747
0.999838
0.9992717
0.9992045
0.999613
0.9999471
0.9999972
0.9999983
0.9999969
0.9999866
0.9999278
0.9995445
0.996788
0.9889174
0.990608
0.9969731
0.9996253
0.9999858
0.9999998
0.9999999
0.9999998
0.9999988
0.9999913
0.9999672
0.9999723
0.9999914
0.9999991
1
1
1
1
1
1
1
0.9999998
0.9999974
0.9999717
0.9999005
0.9999285
0.9999833
0.9999963
0.9999935
0.9999366
0.9991415
0.9908977
0.9813621
0.9905855
0.9983902
0.9999179
0.9999616
0.9999616
0.9997722
0.9954638
0.9409787
0.9129502
0.9377731
0.9862471
0.9992098
0.9999775
0.999986
0.9999717
0.9999278
0.9996279
0.9960092
0.933687
0.8202868
0.8203069
0.8388265
0.9510686
0.9961883
0.9997469
0.9996638
0.9995942
0.9996712
0.9998982
0.9999889
0.9999613
0.9994713
0.9908138
0.9691327
0.9768869
0.9913213
0.9976285
0.9994808
0.9999064
0.999969
0.9999641
0.9998896
0.9991776
0.99598
0.9959553
0.9985114
0.9997845
0.9999823
0.9999888
0.9999843
0.9999846
0.9999888
0.9999747
0.9997537
0.9995666
0.9995666
0.9997136
0.9999458
0.9999975
0.9999999
0.999999
0.9999985
0.9999989
0.9999997
1
1
1
1
1
1
1
1
1
1
1
1
1
1
1
1
1
1
1
0.9999999
0.9999991
0.9999933
0.9999908
0.9999934
0.9999984
0.9999999
1
1
1
1
1
1
0.9999995
0.9999894
0.9999317
0.9999425
0.999983
0.9999985
0.9999999
0.9999998
0.9999995
0.999999
0.9999987
0.9999987
0.9999987
0.999994
0.9998755
0.9976412
0.9943091
0.9957379
0.9987117
0.9998449
0.9999908
0.9999996
0.9999996
0.9999983
0.9999866
0.9998976
0.9995268
0.9995128
0.9998102
0.9999792
0.9999994
0.9999999
0.9999998
0.9999995
0.9999996
0.9999999
0.9999998
0.9999994
0.9999961
0.9999792
0.9998996
0.9995352
0.9988023
0.9989964
0.9997003
0.999974
0.9999907
0.9999546
0.9993559
0.9928769
0.988664
0.9934745
0.9985924
0.9998197
0.9999743
0.9999979
0.9999992
0.9999992
0.999999
0.9999954
0.9999504
0.9994515
0.996086
0.9945794
0.9975267
0.9996453
0.9999866
0.9999997
0.9999997
0.9999997
0.9999997
0.9999997
0.9999977
0.9999841
0.9999069
0.9996568
0.9995358
0.9997134
0.9999286
0.9999415
0.9998525
0.9990311
0.9983814
0.9987767
0.9996535
0.9999646
0.9999976
0.9999999
1
1
1
1
1
1
1
0.9999999
0.9999994
0.9999957
0.9999891
0.9999932
0.9999988
1
1
1
1
1
1
1
1
1
1
1
1
1
1
1
1
1
1
1
1
1
1
1
1
1
1
1
1
1
1
1
1
1
1
1
1
1
1
1
1
1
1
1
1
1
1
1
1
1
1
1
1
1
1
1
1
1
1
1
1
1
1
1
1
1
1
1
1
1
1
1
1
1
1
0.9999999
0.9999998
0.9999992
0.999998
0.9999972
0.999997
0.9999965
0.9999944
0.9999858
0.9999655
0.9999472
0.9999441
0.9999486
0.9999655
0.9999762
0.999976
0.9999681
0.9999392
0.9998894
0.9998763
0.9998975
0.9999287
0.9999224
0.9998634
0.9996364
0.9988821
0.9976746
0.9980936
0.9978441
0.9968222
0.9968132
0.9972267
0.9980192
0.9989278
0.99962
0.9998964
0.9999366
0.9999366
0.9999286
0.9998655
0.9997361
0.9997962
0.9999538
0.9999977
0.9999978
0.9999862
0.9999891
0.9999853
0.9995038
0.9926407
0.9874926
0.983508
0.9355679
0.7145347
0.6389971
0.666921
0.4261606
0.1013589
0.03165471
0.03318556
0.1832459
0.600984
0.6136295
0.3786007
0.271007
0.4553444
0.8360627
0.9829607
0.9990646
0.9989214
0.9955341
0.9964072
0.9986144
0.9997675
0.9999785
0.9999974
0.9999975
0.9999966
0.9999877
0.9999426
0.999933
0.9999666
0.9999939
0.9999992
0.9999997
0.9999997
0.9999997
0.9999997
0.9999996
0.9999994
0.9999994
0.9999994
0.9999994
0.9999995
0.9999995
0.9999995
0.9999995
0.9999995
0.9999996
0.9999996
0.9999995
0.9999989
0.9999976
0.9999979
0.9999993
0.9999999
1
1
1
1
1
0.9999999
0.9999999
0.9999999
0.9999999
1
1
1
1
1
1
1
1
1
1
1
0.9999999
0.9999999
0.9999999
1
1
1
1
1
1
1
1
0.9999999
0.9999996
0.9999987
0.9999946
0.9999731
0.9999201
0.9998352
0.9998344
0.9999209
0.9999851
0.9999988
0.9999998
0.9999998
0.9999997
0.9999994
0.9999979
0.9999908
0.9999452
0.9995352
0.997611
0.9972689
0.998434
0.9997276
0.9999711
0.9999709
0.9999284
0.9995324
0.9967091
0.9945173
0.9968564
0.9993192
0.9999553
0.9999786
0.9999223
0.9994523
0.9965548
0.9951602
0.9968813
0.9993451
0.9999649
0.9999984
0.9999984
0.9999933
0.9999247
0.9993261
0.9944287
0.9662741
0.9457764
0.9719253
0.9952599
0.9997642
0.9999967
0.9999993
0.9999991
0.9999976
0.9999876
0.9999328
0.9998642
0.9999195
0.9999827
0.9999989
1
1
0.9999999
0.9999999
1
1
1
0.9999999
0.9999984
0.9999671
0.9997761
0.999811
0.9999443
0.9999948
0.9999962
0.9999708
0.9992851
0.9874134
0.9747017
0.9775441
0.9921969
0.9992157
0.999947
0.9997886
0.9984109
0.9937676
0.9509637
0.9030493
0.9147229
0.9689641
0.996385
0.9997418
0.9998739
0.9997259
0.9988392
0.9967499
0.9865009
0.8953093
0.8202635
0.8202706
0.820285
0.8549557
0.9641749
0.9935567
0.9908296
0.9923051
0.9963472
0.9993248
0.9999636
0.9999889
0.999911
0.9989371
0.9959857
0.9955007
0.9970291
0.9991929
0.9999384
0.9999887
0.9999751
0.9998731
0.9992877
0.9957037
0.986797
0.9899797
0.9972936
0.9997586
0.9999708
0.9999626
0.999864
0.9995106
0.9992614
0.9995148
0.9998997
0.9999113
0.9996961
0.9997075
0.9998799
0.9999845
0.9999995
1
0.9999999
0.9999997
0.9999997
0.9999998
1
1
1
1
1
1
1
1
1
1
1
0.9999998
0.9999993
0.9999962
0.9999919
0.9999926
0.9999956
0.9999976
0.9999967
0.9999856
0.9999796
0.9999797
0.999991
0.9999987
1
1
1
1
1
1
1
0.9999999
0.9999986
0.9999759
0.9998911
0.9999167
0.9999753
0.9999979
0.9999986
0.9999925
0.9999565
0.9998634
0.9998353
0.999861
0.9998823
0.9998665
0.9998148
0.9992455
0.9951931
0.9943091
0.9943091
0.9949013
0.9983941
0.9998722
0.9999922
0.9999619
0.9995921
0.9980327
0.9983098
0.9994887
0.9999547
0.9999989
0.9999997
0.9999984
0.9999976
0.9999983
0.9999997
0.9999998
0.999999
0.9999895
0.9999121
0.9992258
0.9945264
0.9908327
0.9951126
0.9991546
0.9999669
0.9999926
0.9999553
0.9989561
0.9895251
0.9849402
0.9883112
0.9967047
0.9997468
0.9999958
0.9999992
0.9999992
0.9999989
0.9999969
0.9999846
0.9998866
0.9990177
0.9933567
0.9878264
0.9931221
0.998729
0.9999389
0.9999985
0.9999995
0.9999994
0.999999
0.9999977
0.9999943
0.9999889
0.9999865
0.9999865
0.9999865
0.9999666
0.9998184
0.9992766
0.9973015
0.9951331
0.9967782
0.9991699
0.9998567
0.9999723
0.9999971
0.9999999
1
1
1
1
1
1
0.9999999
0.9999996
0.9999974
0.9999827
0.9999623
0.9999784
0.9999956
0.9999998
1
1
1
1
1
1
0.9999999
0.9999999
1
1
0.9999999
1
1
0.9999999
1
1
1
1
1
1
1
1
1
1
1
1
1
1
1
1
1
1
1
1
1
1
1
1
1
1
1
1
1
1
1
1
1
1
1
1
1
1
1
1
1
1
1
1
1
1
1
1
1
1
1
1
1
1
1
1
1
1
1
1
1
1
1
1
1
1
1
1
1
1
0.9999999
0.9999995
0.9999982
0.9999953
0.9999905
0.9999835
0.9999736
0.9999512
0.9998666
0.9995546
0.9990239
0.9989133
0.9990466
0.99917
0.9989506
0.9974104
0.9935325
0.9918571
0.9924687
0.9948603
0.9974285
0.997882
0.9975196
0.995499
0.9907331
0.9887223
0.9902584
0.9955075
0.9971337
0.9961044
0.9919047
0.9747814
0.9437633
0.9537336
0.9867018
0.9880719
0.9665934
0.937586
0.9365587
0.9455285
0.9725061
0.9942561
0.9981273
0.9981864
0.9974614
0.9934967
0.9942168
0.9983411
0.9998829
0.9999775
0.9999594
0.9998464
0.9996193
0.9996336
0.9995158
0.993592
0.8957566
0.8689847
0.9249249
0.8389417
0.3571651
0.2503128
0.3393872
0.3516325
0.1465566
0.03163575
0.03162893
0.03168657
0.03158512
0.03157612
0.03155257
0.03154435
0.04196333
0.2359356
0.7765651
0.9797465
0.996728
0.9986773
0.9992116
0.9997476
0.9999734
0.9999755
0.9998209
0.9988972
0.9989682
0.999543
0.9998412
0.9999013
0.9999294
0.9999461
0.9999471
0.9999566
0.9999748
0.999984
0.9999896
0.9999911
0.9999909
0.9999889
0.9999809
0.9999507
0.9999412
0.9999652
0.9999871
0.9999896
0.999985
0.9999485
0.9998122
0.9997908
0.9998983
0.999986
0.9999994
0.9999999
0.9999999
0.9999999
0.9999999
0.9999997
0.9999991
0.9999976
0.9999971
0.9999977
0.9999989
0.9999992
0.9999988
0.9999976
0.9999981
0.9999993
0.9999999
0.9999999
0.9999998
0.9999989
0.9999938
0.999991
0.999993
0.9999981
0.9999999
1
1
1
1
1
0.9999999
0.9999995
0.9999978
0.9999937
0.99999
0.9999846
0.9999445
0.9997815
0.9990738
0.998482
0.9991615
0.9998247
0.9999773
0.9999846
0.9999908
0.9999949
0.999995
0.9999921
0.9999752
0.9998771
0.9990669
0.9944392
0.9922428
0.9940568
0.9983693
0.9998574
0.999934
0.9999017
0.9993723
0.9931735
0.9768698
0.980876
0.9936711
0.9992972
0.9999569
0.9999596
0.9997039
0.9949654
0.9762488
0.9818794
0.9948798
0.9995275
0.9999885
0.9999983
0.9999979
0.9999891
0.9999036
0.9989894
0.984002
0.8648781
0.8341858
0.8997749
0.9832954
0.9992993
0.9999938
0.9999991
0.9999972
0.9999765
0.9998291
0.9993539
0.9993311
0.9997368
0.9999688
0.999999
0.9999999
0.9999999
0.9999998
0.9999998
1
1
1
1
0.9999996
0.9999902
0.9998525
0.9997542
0.9997877
0.9999323
0.999995
0.9999933
0.99991
0.9980258
0.9808978
0.9747017
0.9808214
0.995132
0.999737
0.999592
0.9954632
0.9320977
0.841627
0.9223426
0.9874075
0.9986774
0.9984218
0.9919833
0.9916785
0.9967995
0.998542
0.9943958
0.9066437
0.8210737
0.8210737
0.8589837
0.946327
0.9479966
0.9147705
0.9483503
0.9870705
0.998741
0.9999516
0.9999891
0.9999891
0.9999891
0.9999797
0.9999199
0.9997411
0.9994014
0.9983727
0.9984154
0.9994171
0.9999398
0.9999724
0.9998194
0.9969535
0.9635923
0.9374916
0.9663458
0.9941229
0.9997263
0.9999661
0.9999581
0.9998018
0.9984196
0.9961291
0.99768
0.9995225
0.9999692
0.9999891
0.9999647
0.9999474
0.9999597
0.9999875
0.999999
1
1
1
1
1
1
1
1
1
1
1
1
0.9999999
0.9999993
0.999996
0.9999752
0.9999382
0.9999536
0.9999872
0.9999946
0.9999931
0.9999685
0.9999429
0.9999525
0.9999838
0.9999983
0.9999999
1
1
0.9999999
0.9999997
0.9999996
0.9999998
1
1
0.9999999
0.9999992
0.9999917
0.9999379
0.9998219
0.9998341
0.9999265
0.9999853
0.9999842
0.9999246
0.9994071
0.9974201
0.9967959
0.997983
0.9994505
0.998866
0.9949445
0.9944306
0.9944306
0.9965654
0.9992401
0.9999467
0.9999944
0.9999927
0.9999236
0.9988346
0.9964243
0.9963913
0.9983095
0.9997266
0.9999888
0.9999997
0.9999997
0.9999997
0.9999986
0.9999987
0.9999995
0.9999995
0.9999955
0.9998997
0.9979177
0.9849122
0.9813568
0.9849843
0.9959051
0.9997159
0.9999945
0.9999933
0.9998674
0.9961458
0.9846062
0.9881252
0.9962695
0.9995975
0.9999866
0.9999991
0.9999992
0.9999988
0.99999
0.9999143
0.9994687
0.9968882
0.9836876
0.9667868
0.9732807
0.9915895
0.999294
0.9999857
0.9999974
0.9999943
0.9999932
0.999994
0.9999822
0.9998675
0.9996708
0.9996833
0.9997895
0.9999359
0.9998801
0.9985577
0.9846502
0.9752359
0.9871032
0.9977323
0.9998963
0.9999911
0.9999841
0.9999856
0.9999945
0.9999992
1
1
1
0.9999999
0.9999995
0.9999971
0.9999829
0.9999145
0.9998669
0.9999337
0.999989
0.9999995
1
1
1
1
0.9999999
0.9999999
1
1
0.9999999
0.9999999
1
1
0.9999999
1
1
0.9999999
1
1
0.9999999
1
1
1
1
1
1
1
0.9999999
1
1
0.9999999
1
1
1
1
1
1
1
1
1
1
1
1
1
1
1
1
1
1
1
1
1
1
1
1
1
1
1
1
1
1
1
1
1
1
1
1
1
1
1
1
1
1
1
1
1
1
1
1
1
1
1
1
1
1
1
1
1
1
1
1
1
1
1
1
0.9999999
0.9999996
0.9999975
0.9999855
0.9999303
0.9997325
0.9992397
0.9983893
0.9973686
0.9964384
0.9956104
0.9940744
0.9876658
0.9661496
0.944785
0.9463731
0.9603115
0.9719819
0.9660066
0.9183938
0.811857
0.7916683
0.8416998
0.9336824
0.96241
0.9610534
0.9427596
0.831935
0.7391585
0.8272105
0.9582573
0.9821048
0.9774347
0.957074
0.8802643
0.6511316
0.6869006
0.9012586
0.9853085
0.9694938
0.8650517
0.4278816
0.3352558
0.5995304
0.912319
0.9486205
0.913116
0.9023544
0.9289199
0.9763427
0.9972965
0.9998007
0.9998882
0.9994242
0.9985249
0.9992961
0.9990532
0.9924996
0.9739165
0.9585397
0.7072633
0.6934735
0.8555594
0.7723519
0.4626067
0.307271
0.3167435
0.2200534
0.09581622
0.04021308
0.03161518
0.03160526
0.0315956
0.03166803
0.03157619
0.03155257
0.03157619
0.0352088
0.217793
0.7641572
0.9798937
0.9995164
0.9999774
0.999978
0.999978
0.999978
0.9998541
0.9989989
0.99842
0.9981119
0.9966251
0.9917403
0.9923167
0.9973335
0.9997052
0.9999557
0.9999299
0.9998966
0.999876
0.9997821
0.9988215
0.9970018
0.9979169
0.9994342
0.9999161
0.9999021
0.9996074
0.9968542
0.9943561
0.9959738
0.998973
0.9999191
0.9999933
0.9999979
0.9999991
0.9999992
0.9999992
0.9999982
0.9999932
0.9999799
0.999968
0.999969
0.9999839
0.9999879
0.9999693
0.9999699
0.9999853
0.9999965
0.999998
0.9999979
0.9999957
0.9999753
0.999931
0.999939
0.9999758
0.9999965
0.9999998
1
1
1
1
1
1
0.9999999
0.9999989
0.999978
0.9997526
0.9988854
0.9987441
0.9993773
0.9993427
0.997321
0.9968604
0.9977045
0.9994093
0.9995821
0.999541
0.9996435
0.9998564
0.999888
0.9998535
0.9997162
0.998795
0.9892962
0.9779263
0.983797
0.9948864
0.9994551
0.9999363
0.9999373
0.9998294
0.9971448
0.9692694
0.9526946
0.965223
0.9908722
0.9992711
0.9999624
0.9999641
0.9998349
0.9972744
0.9788938
0.9745576
0.9837119
0.996832
0.9997655
0.9999728
0.9999845
0.9999849
0.9998972
0.9982129
0.9653521
0.8349294
0.8248923
0.8422108
0.9478157
0.9955211
0.9999314
0.9999989
0.9999983
0.9999743
0.9995863
0.9976741
0.997663
0.9991007
0.9998828
0.9999961
0.9999999
0.9999999
0.9999998
0.9999998
0.9999999
1
1
1
1
0.9999999
0.9999969
0.9999508
0.9998191
0.9998657
0.9999636
0.999996
0.9999899
0.9997529
0.9919269
0.9751296
0.9844969
0.9963985
0.9996248
0.9996956
0.9973387
0.9287919
0.8175335
0.8224545
0.9329178
0.992696
0.9992756
0.9972153
0.9824308
0.9808331
0.9899493
0.9963606
0.9963496
0.9956249
0.9913439
0.9327717
0.7980493
0.7976729
0.8389372
0.9595852
0.9972912
0.9997508
0.9997588
0.9997158
0.9997599
0.9998795
0.9999028
0.999789
0.9983889
0.986709
0.9754225
0.9864613
0.9975107
0.9998326
0.999908
0.9996611
0.9962114
0.950729
0.9039354
0.9039354
0.955663
0.9944147
0.9998344
0.9999661
0.9997433
0.9965838
0.9899257
0.9938539
0.9984737
0.9998873
0.9999979
0.9999985
0.9999889
0.9999786
0.9999861
0.9999965
0.9999998
1
1
1
1
1
1
1
1
1
0.9999999
0.9999994
0.9999971
0.999984
0.999908
0.9996708
0.9996739
0.9998803
0.999986
0.9999926
0.9999851
0.999912
0.9998673
0.9999394
0.9999904
0.9999996
0.9999999
0.9999999
0.9999997
0.9999986
0.9999949
0.9999956
0.9999986
0.9999999
1
0.9999999
0.9999985
0.9999846
0.9999015
0.9996213
0.9993813
0.9994879
0.9998424
0.9998851
0.9996878
0.9990107
0.9951411
0.9907856
0.990813
0.9910764
0.9965917
0.9996025
0.9999522
0.9999487
0.999936
0.9999292
0.9999373
0.9999786
0.9999891
0.9999499
0.9989931
0.996355
0.9962698
0.997966
0.9996093
0.9999781
0.9999996
0.9999997
0.9999996
0.999999
0.9999977
0.9999955
0.9999921
0.999987
0.9999743
0.9997692
0.9957213
0.9818908
0.9838006
0.9937734
0.9992493
0.9999809
0.9999961
0.9999961
0.999974
0.9996241
0.9965811
0.9876095
0.9853322
0.9905882
0.997846
0.9998778
0.9999983
0.9999965
0.9999492
0.9993178
0.9916981
0.9247893
0.881949
0.8819462
0.9308033
0.9865224
0.9990847
0.9999747
0.9999716
0.9998307
0.9995643
0.9996503
0.9998115
0.999232
0.9919801
0.9887129
0.9918641
0.9985486
0.9991843
0.9943481
0.9697642
0.9671842
0.9731108
0.9921846
0.9993813
0.9999886
0.9999981
0.9999971
0.9999971
0.9999989
0.9999999
1
0.9999998
0.9999975
0.9999779
0.9998489
0.9994501
0.9994306
0.9997705
0.9999727
0.9999992
1
1
1
1
0.9999999
1
1
1
0.9999999
1
1
1
1
0.9999999
1
1
1
1
1
1
1
1
1
1
1
1
1
1
1
1
1
1
1
1
1
1
1
1
1
1
1
1
1
0.9999999
1
1
1
1
1
1
1
1
1
1
1
1
1
1
1
1
1
1
1
1
1
1
1
1
1
1
1
1
1
1
1
1
1
1
1
1
1
1
1
1
1
1
1
1
1
1
1
1
1
1
1
1
1
1
1
1
1
1
1
1
1
0.9999998
0.9999986
0.9999911
0.9999565
0.9998157
0.9992896
0.9975144
0.9923632
0.9793656
0.9560177
0.9266794
0.9031078
0.8909246
0.8804179
0.8552753
0.7745538
0.5822344
0.5047968
0.5467092
0.6623411
0.7258513
0.672543
0.3678852
0.1115497
0.1127578
0.3397952
0.7268349
0.7219437
0.427957
0.1070194
0.05728241
0.2431463
0.7684684
0.7535645
0.5030939
0.5752191
0.4894389
0.2818005
0.3268462
0.7495672
0.9644629
0.9330989
0.6406666
0.1621918
0.04439771
0.04439771
0.0645727
0.2490492
0.5090698
0.4337849
0.4129669
0.6667815
0.9385094
0.9961917
0.9983875
0.9948783
0.9969215
0.9988348
0.9981964
0.9961892
0.8858227
0.7306796
0.8478387