/*--------------------------------*- C++ -*----------------------------------*\
| =========                 |                                                 |
| \\      /  F ield         | foam-extend: Open Source CFD                    |
|  \\    /   O peration     | Version:     3.1                                |
|   \\  /    A nd           | Web:         http://www.extend-project.de       |
|    \\/     M anipulation  |                                                 |
\*---------------------------------------------------------------------------*/
FoamFile
{
    version     2.0;
    format      ascii;
    class       volScalarField;
    location    "17";
    object      k;
}
// * * * * * * * * * * * * * * * * * * * * * * * * * * * * * * * * * * * * * //

dimensions      [0 2 -2 0 0 0 0];

internalField   nonuniform List<scalar> 
119952
(
0.04571128
0.04125948
0.03949066
0.03820246
0.03673138
0.03518618
0.03433082
0.03380543
0.03345227
0.03318868
0.03296802
0.0327578
0.03253461
0.03228522
0.03200977
0.03172117
0.03144106
0.0311942
0.03101892
0.03100931
0.03332234
0.03178613
0.03137144
0.03339147
0.03140974
0.0303626
0.02958801
0.02892577
0.02760401
0.01093197
0.06150586
0.05652992
0.05393908
0.05329527
0.05424412
0.05642148
0.05949587
0.06317637
0.06733157
0.0719848
0.0749351
0.08252698
0.09196052
0.1017605
0.1111195
0.1194646
0.1263981
0.131719
0.1355563
0.1521223
0.1523316
0.1516968
0.1500454
0.1472508
0.1430399
0.1375893
0.131619
0.1262024
0.1218559
0.1181776
0.1146229
0.111379
0.108502
0.1060007
0.1039049
0.1022281
0.1008364
0.09966234
0.1004761
0.09967459
0.09857669
0.09822277
0.09805421
0.09759106
0.09679821
0.09588119
0.09494226
0.09401574
0.09311883
0.0922581
0.09142943
0.09062428
0.08983677
0.08906615
0.08831506
0.08758211
0.08685467
0.08612755
0.08556207
0.08504208
0.08431309
0.08380058
0.08395892
0.08379174
0.08338266
0.08307385
0.08249797
0.08014621
0.0782016
0.07658014
0.07515855
0.07386738
0.07264628
0.07147957
0.07035656
0.06926886
0.06821152
0.06718157
0.06617722
0.06519813
0.06424562
0.06332037
0.06242529
0.06156774
0.06075346
0.05998828
0.05927689
0.0586247
0.05804422
0.0575398
0.05710445
0.05672637
0.05639099
0.05608796
0.05580561
0.05553181
0.05525495
0.05496494
0.05465377
0.05431591
0.05394849
0.05355137
0.05312699
0.05268008
0.0522175
0.05174737
0.05127566
0.05081325
0.05037252
0.04996539
0.04960251
0.04929479
0.04905034
0.04886816
0.04874149
0.04865733
0.04860414
0.04859445
0.04864098
0.04866109
0.04862157
0.04850025
0.048268
0.04792453
0.0474826
0.04695928
0.04637743
0.04575877
0.04512279
0.04448623
0.04386198
0.04325857
0.04268044
0.04212794
0.04159769
0.04108256
0.04057304
0.04006204
0.03955317
0.0390706
0.03867089
0.03843744
0.0384646
0.03882572
0.03947936
0.04029098
0.04113352
0.04191262
0.04252788
0.04287581
0.04289742
0.04261217
0.04210137
0.04144928
0.04069991
0.03986778
0.03896635
0.0380208
0.03707205
0.03615909
0.03531639
0.0345817
0.03397416
0.03348302
0.03309372
0.03279143
0.03254068
0.03236521
0.03206506
0.03175427
0.03146933
0.0312274
0.03102229
0.03084648
0.0306969
0.03057354
0.03048011
0.03042346
0.03041348
0.03045858
0.0305636
0.03073031
0.03095711
0.03124057
0.03157711
0.03196316
0.03239695
0.0328808
0.03341961
0.03401193
0.03463715
0.03524782
0.03577744
0.0361523
0.03630912
0.03622734
0.0358785
0.03534531
0.03477901
0.03429702
0.03396007
0.03376469
0.03357579
0.03376983
0.03417565
0.03465234
0.03514325
0.03563127
0.03607438
0.03645672
0.03672446
0.03660024
0.03641454
0.0382403
0.04213637
0.04448295
0.04514728
0.04486544
0.04403731
0.0427695
0.04109693
0.03910697
0.03695245
0.03480106
0.03278451
0.030988
0.02944335
0.02814691
0.0271139
0.02628605
0.0256138
0.02506164
0.02459798
0.02419902
0.02384978
0.02354179
0.02327188
0.02381656
0.0237101
0.02354845
0.02330755
0.02305865
0.02282479
0.02261624
0.02243251
0.02227045
0.0221259
0.02199381
0.02187195
0.02175586
0.02164185
0.02152862
0.02141604
0.02130293
0.02118803
0.02106934
0.0209453
0.02081591
0.02068235
0.02054632
0.02041
0.02027632
0.02014844
0.02002814
0.01991795
0.01982153
0.01974215
0.01968204
0.01964224
0.01962277
0.01962285
0.0196411
0.01967576
0.01972469
0.01978556
0.01985592
0.01993326
0.02001492
0.02009815
0.02018048
0.02026
0.02033648
0.02040978
0.02046751
0.02050773
0.0205373
0.02055346
0.02055691
0.02054798
0.02052975
0.02051637
0.02055657
0.02047779
0.02039542
0.020308
0.02021687
0.0201239
0.02002979
0.01993633
0.01984662
0.01976397
0.01969126
0.01963171
0.01958857
0.01956404
0.01955962
0.01957631
0.01961494
0.01967669
0.01976332
0.01987705
0.02001997
0.02019326
0.02039689
0.02062922
0.02088633
0.0211616
0.02144592
0.02172821
0.02199651
0.02223783
0.02244203
0.02260439
0.02272775
0.02281934
0.02288345
0.02292645
0.02295563
0.02297742
0.02299602
0.02301252
0.02302446
0.0230253
0.0230087
0.02297184
0.02291728
0.02285064
0.02278026
0.0227157
0.02266338
0.02262511
0.02259956
0.02258506
0.02254828
0.02245235
0.02240207
0.02251018
0.02280636
0.02324467
0.02380378
0.02456462
0.02553698
0.02661312
0.02764374
0.02851912
0.0291322
0.02942066
0.02940088
0.0291425
0.02872502
0.02820757
0.02762456
0.02698955
0.02629682
0.02554793
0.02476036
0.02395501
0.02314167
0.02233605
0.02155889
0.02083328
0.02017155
0.0195688
0.01900682
0.01848798
0.01843692
0.1028053
0.09537313
0.09576916
0.09905564
0.103148
0.1070649
0.1104533
0.1132317
0.1154561
0.1158921
0.120321
0.1269446
0.1339023
0.1403214
0.1458364
0.150425
0.1541766
0.1572048
0.1789161
0.1795208
0.1801903
0.1806388
0.1810444
0.1815335
0.1820727
0.1824932
0.1825705
0.1820133
0.1813193
0.1797884
0.177487
0.1747148
0.1716713
0.1685259
0.1654306
0.1623058
0.1591283
0.1563926
0.1538314
0.1514111
0.1496918
0.1489442
0.149383
0.1512407
0.1547694
0.1602206
0.1677879
0.1774514
0.1887293
0.2008195
0.2128162
0.2237436
0.2325522
0.2385146
0.2415782
0.2422325
0.2596328
0.2571384
0.2540758
0.2499707
0.2442962
0.2369491
0.2285386
0.2193128
0.209613
0.1998529
0.1904235
0.1816455
0.1736989
0.1666706
0.1605796
0.1553652
0.1509732
0.14734
0.1444258
0.1418772
0.1394706
0.1375142
0.135947
0.1345172
0.1330559
0.1315496
0.1300245
0.1284867
0.1269456
0.1254164
0.1239132
0.1224442
0.121013
0.1196186
0.1182603
0.1169365
0.1156498
0.1144065
0.1132279
0.1121296
0.1110694
0.1100876
0.1093077
0.1085862
0.1077705
0.1068662
0.105843
0.1044637
0.1028434
0.1013757
0.1000439
0.09876002
0.09750581
0.09626975
0.09504648
0.09383336
0.09262833
0.09143096
0.09024221
0.08906386
0.08789806
0.08674742
0.08561539
0.08450605
0.08342459
0.08237743
0.08137151
0.08041458
0.07951833
0.07869057
0.07793401
0.07724822
0.07662915
0.07606915
0.07555758
0.07508153
0.07462711
0.07418072
0.07373007
0.073265
0.07277814
0.0722654
0.07172631
0.07116401
0.07058526
0.07000013
0.06942133
0.06886316
0.06834063
0.06786834
0.06745943
0.06712486
0.06687225
0.06670472
0.06661892
0.06660652
0.06665753
0.06675829
0.06688643
0.06701363
0.06711159
0.06715727
0.06713015
0.06701557
0.06680709
0.066507
0.06612386
0.06566981
0.06515757
0.06459871
0.06400259
0.06337641
0.06272559
0.06205412
0.06136391
0.06065345
0.05991681
0.0591436
0.05832002
0.0574305
0.05646087
0.05540699
0.05428519
0.05313254
0.05199362
0.05090784
0.04990756
0.04902164
0.04827498
0.04768629
0.0472649
0.04700985
0.04690666
0.04692537
0.0470165
0.04711639
0.04715403
0.04707012
0.0468284
0.04642685
0.04588855
0.04525786
0.04458208
0.04391987
0.04332536
0.04283874
0.04246249
0.04221818
0.04174523
0.04117409
0.04082498
0.04065392
0.04062145
0.04069047
0.0408328
0.04102966
0.04127119
0.041557
0.04189615
0.04230346
0.04279508
0.04338337
0.0440739
0.04486732
0.04576323
0.04676239
0.04786734
0.0490837
0.05042
0.05187677
0.05342607
0.05499651
0.05647599
0.05772966
0.05862633
0.05906639
0.05900855
0.05848578
0.05766541
0.05674332
0.05588435
0.05521687
0.05481282
0.05468053
0.05475129
0.05488941
0.05498911
0.05492409
0.05460756
0.05397251
0.05298035
0.05160134
0.04976606
0.0475114
0.04519365
0.04316037
0.04153673
0.04036746
0.03968684
0.03947608
0.03965053
0.04005884
0.04050146
0.04078403
0.04077742
0.04044218
0.03982003
0.03900206
0.03808347
0.03713722
0.03620168
0.035284
0.03439969
0.03356289
0.03276686
0.03200885
0.0312845
0.0305978
0.03071933
0.03009952
0.02954255
0.02903008
0.0285463
0.02808523
0.02764596
0.02722717
0.0268272
0.02644585
0.02608352
0.02574105
0.02541975
0.02512154
0.02484811
0.02460135
0.02438304
0.02419354
0.02403159
0.02389438
0.02377804
0.02367828
0.0235912
0.02351396
0.02344528
0.02338552
0.02333636
0.0233005
0.02328114
0.02328157
0.0233047
0.02335283
0.02342739
0.02352887
0.02365676
0.0238095
0.02398462
0.02417887
0.02438837
0.02460857
0.02483437
0.02506028
0.02528085
0.02549096
0.02568578
0.02586078
0.0260119
0.0261369
0.02623547
0.02630744
0.02635285
0.02637419
0.02637417
0.02636438
0.02634743
0.02632182
0.02629759
0.02628286
0.02628171
0.02629659
0.02632943
0.02638195
0.02645562
0.02655156
0.02667054
0.02681292
0.02697861
0.02716737
0.02737918
0.02761468
0.02787548
0.02816395
0.02848253
0.02883259
0.02921344
0.02962197
0.03005232
0.03049569
0.03094076
0.03137462
0.0317837
0.03215485
0.03247757
0.032748
0.03297054
0.03314425
0.03327417
0.03336816
0.03343307
0.03347374
0.03349284
0.03349109
0.03346784
0.03342196
0.03335299
0.03326213
0.03315265
0.03302976
0.03289947
0.03276706
0.03263542
0.03250399
0.03236873
0.03222209
0.03205217
0.03184282
0.03158033
0.03125862
0.03087418
0.03042298
0.02990263
0.02932035
0.02870271
0.02809334
0.02754813
0.0271308
0.02690258
0.02690607
0.02714944
0.02760537
0.02821891
0.02890449
0.02957136
0.03017582
0.03067855
0.03104924
0.03126569
0.03131846
0.03120408
0.03093444
0.0305254
0.03001079
0.02941023
0.02875543
0.02804929
0.02735323
0.02667841
0.02616354
0.02574099
0.05259662
0.0575357
0.06323989
0.06939602
0.07605244
0.08340688
0.09185388
0.1019312
0.1151078
0.1342011
0.2055283
0.2219936
0.2367495
0.2498946
0.2625678
0.2748455
0.2863879
0.2973908
0.3093019
0.3765144
0.3874148
0.3937866
0.3974935
0.3994284
0.4000357
0.3995785
0.3982812
0.3962482
0.393794
0.390352
0.3870001
0.3839215
0.3810685
0.3783135
0.3755454
0.3726624
0.3695755
0.3664927
0.3619669
0.3574343
0.3528694
0.3483563
0.3439203
0.3395665
0.33529
0.3310719
0.3268788
0.3227212
0.3184249
0.3139824
0.3094386
0.3048495
0.3003247
0.2959452
0.2917366
0.2876972
0.2990143
0.2953109
0.2919426
0.2890356
0.2866422
0.2847366
0.2831648
0.2816339
0.2798158
0.2774471
0.2744892
0.271159
0.2678203
0.2643375
0.260524
0.2563096
0.251636
0.2464965
0.240946
0.2350616
0.2289787
0.2228969
0.2172235
0.2129122
0.2105137
0.2106481
0.2139673
0.2210655
0.2321646
0.2468409
0.2639873
0.2821003
0.2993419
0.3140524
0.3250798
0.3317582
0.3342503
0.333677
0.3313466
0.3285152
0.3251883
0.3204328
0.3132805
0.3035769
0.2921709
0.2795309
0.2662446
0.252861
0.2398865
0.2276613
0.216408
0.2062489
0.197252
0.1894018
0.1826791
0.1769804
0.172236
0.1682216
0.164799
0.1619198
0.1594811
0.1573203
0.1552806
0.1532684
0.1512452
0.1492049
0.1471609
0.1451357
0.1431512
0.141224
0.1393635
0.1375727
0.1358507
0.134195
0.1326042
0.1310782
0.1296193
0.1282263
0.1268823
0.1255943
0.1243703
0.1231666
0.1219137
0.120591
0.1191594
0.1176011
0.1159417
0.114322
0.1127802
0.1113032
0.1098747
0.1084803
0.1071113
0.1057632
0.104433
0.1031193
0.1018221
0.1005421
0.09928111
0.0980415
0.09682615
0.09563853
0.09448315
0.09336544
0.09229154
0.09126735
0.09029629
0.0893953
0.08856943
0.08782031
0.08714571
0.08653921
0.08599057
0.08548659
0.08501248
0.08455346
0.08409601
0.08362876
0.08314313
0.08263399
0.08210012
0.08154446
0.0809741
0.08040003
0.07983629
0.07929885
0.07880437
0.07836882
0.07800646
0.07772887
0.07754401
0.07745521
0.07746022
0.07755098
0.07771426
0.07793293
0.07818336
0.07843773
0.07866728
0.07884628
0.07895401
0.07897759
0.07891348
0.07876595
0.07854411
0.07825895
0.07792081
0.07753793
0.07711597
0.07665832
0.0761666
0.07564047
0.0750768
0.07446882
0.07380595
0.07307447
0.07225824
0.07133994
0.07030424
0.06914378
0.06786535
0.06648991
0.06504479
0.06355616
0.06204858
0.060547
0.05907474
0.0576527
0.05630292
0.05504928
0.05391556
0.05291979
0.05206933
0.05135537
0.05075479
0.05023256
0.04975357
0.04928704
0.04881984
0.04835017
0.04789608
0.04747713
0.04712611
0.04688456
0.04677752
0.04680491
0.04696079
0.04721773
0.04757936
0.04803153
0.04855783
0.04914402
0.04977937
0.0504586
0.05118426
0.05196796
0.05282737
0.05378145
0.05484522
0.05602602
0.05732655
0.05875103
0.06030775
0.06200596
0.06385253
0.06585109
0.06799024
0.07021918
0.07243467
0.07449507
0.0762503
0.07757437
0.07839462
0.07871045
0.07860312
0.07824022
0.07785475
0.07758755
0.07749108
0.07754704
0.07769672
0.07786866
0.07799169
0.07800629
0.07784868
0.07746508
0.07680574
0.07583478
0.07454932
0.0729523
0.07107668
0.06899675
0.06677134
0.06442546
0.06200248
0.05957558
0.05721914
0.05497822
0.05287207
0.05091354
0.04911274
0.04747709
0.04600679
0.0446911
0.04351335
0.04245699
0.04150531
0.04064011
0.0398409
0.03908867
0.03836665
0.03766351
0.03696606
0.03627599
0.03559613
0.03493137
0.03432318
0.03375012
0.0332055
0.03268476
0.03218727
0.03171452
0.03126636
0.03083994
0.03043059
0.03003299
0.02964381
0.02926147
0.02888539
0.02851616
0.02815562
0.02780669
0.02747322
0.02715948
0.02686961
0.02660711
0.02637458
0.02617354
0.02600466
0.02586811
0.02576381
0.02569183
0.0256526
0.02564693
0.02567603
0.02574125
0.02584385
0.0259847
0.02616401
0.02638119
0.02663462
0.02692159
0.02723825
0.02757977
0.02794042
0.02831361
0.02869202
0.02906802
0.02943386
0.02978207
0.03010607
0.03040064
0.030662
0.0308879
0.03107765
0.0312316
0.03135125
0.03144001
0.03150401
0.03155157
0.03159349
0.03163865
0.03169334
0.03176248
0.03185017
0.03195965
0.0320933
0.03225269
0.03243861
0.032651
0.03288913
0.0331519
0.03343827
0.03374791
0.03408173
0.03444212
0.03483244
0.03525575
0.03571324
0.03620301
0.03671973
0.03725516
0.0377984
0.03833606
0.03885331
0.03933518
0.0397676
0.04013933
0.0404462
0.04069215
0.04087908
0.04102065
0.04113101
0.04121964
0.04128937
0.04133812
0.04136148
0.04135452
0.04131324
0.04123645
0.0411271
0.04099263
0.04084418
0.04069448
0.04055431
0.04042882
0.04031571
0.04020618
0.04008772
0.03994604
0.03976527
0.03952914
0.03922255
0.03883004
0.0383371
0.03773368
0.03701679
0.03619097
0.0352685
0.03426987
0.03322521
0.03217486
0.03116695
0.03025156
0.02947322
0.02886432
0.02844081
0.02820198
0.02813388
0.02821634
0.02842214
0.02872017
0.0290716
0.02944045
0.02978298
0.03006626
0.03025751
0.03035997
0.03036802
0.03030143
0.03015639
0.02996637
0.02970858
0.02945804
0.02919571
0.0395214
0.04531156
0.05058065
0.07933169
0.1081073
0.1442134
0.1681859
0.1922151
0.2149
0.2363831
0.2556141
0.2725354
0.2889928
0.305699
0.322531
0.3391002
0.3553776
0.3715724
0.3876368
0.4035117
0.4190857
0.4340036
0.4477633
0.4602022
0.4717597
0.4826005
0.4922858
0.5005189
0.5071262
0.5117259
0.5146095
0.5330905
0.5322758
0.5304877
0.5280047
0.5249367
0.5214442
0.5176658
0.5136999
0.509652
0.5055881
0.5014933
0.4973889
0.4932461
0.4890688
0.4848005
0.480266
0.4753091
0.4700314
0.4645246
0.4588707
0.4531657
0.4473945
0.4415513
0.4356553
0.4297414
0.4238475
0.4180053
0.4122013
0.4063747
0.4004463
0.3943242
0.3879835
0.3815313
0.3751269
0.3688689
0.362767
0.3567689
0.3507377
0.3451232
0.3401387
0.3359446
0.3326868
0.3304156
0.3289368
0.3277614
0.3262844
0.3241025
0.3211973
0.3179498
0.3142962
0.3103132
0.3059982
0.3012426
0.2959172
0.2899574
0.2834094
0.2763983
0.2691609
0.2620306
0.2553877
0.2499285
0.2469928
0.2476834
0.2531761
0.2644478
0.281667
0.3039805
0.3296065
0.3560117
0.3805241
0.4010856
0.4161767
0.4246941
0.4268312
0.4245811
0.4206473
0.4169275
0.4130891
0.4069813
0.3966815
0.3819416
0.3646281
0.3460665
0.3272473
0.3088731
0.2914401
0.2752325
0.2603607
0.2468904
0.2348464
0.2242016
0.2149129
0.2069007
0.2000772
0.1943066
0.1894346
0.1853241
0.1818394
0.1788185
0.1760805
0.1734712
0.170898
0.1683284
0.1657687
0.163243
0.1607795
0.1584015
0.1561245
0.1539552
0.1518927
0.1499327
0.1480695
0.1462961
0.1446031
0.1429779
0.1414014
0.1398543
0.138321
0.1367785
0.1351921
0.1335411
0.1318194
0.1300341
0.1282122
0.1264073
0.1246569
0.1229677
0.1213301
0.1197329
0.1181694
0.116636
0.1151308
0.1136528
0.1122018
0.1107789
0.1093857
0.1080246
0.1066987
0.1054113
0.1041666
0.1029698
0.101827
0.1007446
0.09972562
0.09878272
0.0979287
0.09716506
0.09648909
0.09589338
0.09536611
0.09489224
0.09445534
0.09403955
0.09363091
0.09321782
0.0927915
0.09234654
0.09188146
0.09139904
0.09090658
0.09041523
0.08993884
0.08949282
0.08909291
0.08875412
0.08848981
0.08831116
0.08822613
0.08823822
0.08834528
0.08853962
0.08881172
0.08913861
0.08949515
0.08985351
0.09018628
0.09047019
0.09068926
0.09083603
0.09091082
0.0909192
0.09086912
0.09076846
0.0906236
0.09043894
0.09021722
0.08995965
0.08966523
0.08932922
0.08894179
0.08848795
0.08794927
0.0873056
0.08653567
0.08561848
0.08453846
0.08329249
0.08189524
0.08037505
0.07876116
0.07707374
0.07532476
0.07352451
0.07168535
0.06982292
0.0679571
0.06611106
0.06431037
0.06258223
0.0609539
0.05944887
0.05808296
0.05686258
0.05578686
0.0548489
0.054042
0.05336103
0.05280817
0.05238898
0.05211476
0.05199763
0.05207305
0.05233822
0.05277838
0.05336813
0.05407919
0.05488615
0.05576925
0.0567139
0.05771045
0.05875611
0.05985737
0.06103027
0.0622962
0.06367485
0.0651774
0.06680521
0.0685609
0.07045797
0.07251794
0.07475702
0.07717856
0.0797735
0.08250321
0.08526492
0.0878872
0.09017274
0.09196706
0.09317669
0.09379113
0.09388925
0.09363056
0.09325063
0.09300526
0.09302679
0.09331058
0.09373999
0.09416659
0.09447488
0.09460293
0.09450667
0.09415386
0.09352398
0.09259154
0.09134708
0.08980292
0.08798589
0.0859428
0.08372277
0.0813353
0.07877852
0.07609859
0.07337914
0.07068246
0.06801451
0.06535411
0.06269397
0.06005512
0.05747739
0.0550069
0.05268851
0.05055936
0.04863965
0.0469323
0.04542947
0.04411602
0.04297113
0.04197017
0.04108804
0.04030188
0.03959167
0.03893932
0.03832913
0.03776013
0.03723327
0.03674846
0.03630042
0.03588432
0.03549453
0.03512531
0.03477105
0.03442518
0.03408129
0.03373437
0.03338066
0.03301802
0.0326459
0.03226538
0.03187909
0.03149114
0.03110687
0.03073249
0.03037458
0.03003955
0.02973326
0.02946064
0.02922727
0.02903876
0.02889977
0.02881407
0.02878446
0.02881278
0.02889996
0.02904596
0.02924981
0.02950956
0.02982225
0.03018379
0.03058893
0.03103127
0.03150337
0.03199687
0.03250263
0.0330108
0.03351097
0.03399275
0.0344467
0.0348652
0.03524289
0.03557672
0.03586557
0.03610978
0.03631091
0.03647213
0.03659917
0.03670112
0.03679034
0.03688015
0.03698197
0.03710399
0.03725164
0.0374283
0.03763585
0.03787511
0.03814593
0.038447
0.03877596
0.03912978
0.03950565
0.03990204
0.04031973
0.04076241
0.04123623
0.04174759
0.04229984
0.0428907
0.04351176
0.04415015
0.044791
0.04541816
0.04601448
0.04656316
0.04704903
0.04745947
0.04778822
0.048038
0.04821593
0.04834339
0.04844641
0.04854554
0.0486466
0.04874047
0.04881155
0.04884535
0.04883121
0.04876358
0.04864435
0.04848411
0.04830087
0.04811741
0.04795635
0.04783269
0.04774765
0.04768756
0.04762948
0.04754988
0.04742834
0.04724623
0.04698417
0.04661879
0.04613244
0.04551859
0.04477511
0.04390611
0.04291972
0.04182671
0.04064103
0.0393815
0.03807323
0.03674721
0.03543755
0.03417854
0.03300183
0.03193347
0.03099271
0.03019292
0.0295413
0.02903895
0.02868199
0.02845961
0.02835739
0.02835411
0.02842956
0.02855872
0.02872513
0.02890629
0.02909375
0.02926949
0.02943418
0.02957442
0.02969764
0.02980421
0.01950383
0.02186677
0.02418651
0.03262269
0.04372081
0.06263129
0.07588714
0.0899724
0.1051166
0.1205262
0.1365228
0.1541007
0.1729731
0.1923755
0.2126334
0.2353604
0.2704268
0.2874247
0.304848
0.3226324
0.3410697
0.3595252
0.3774237
0.3945212
0.4108003
0.4266556
0.4421368
0.4572378
0.4718732
0.4859441
0.4993262
0.5117892
0.5230181
0.5326061
0.5400245
0.545795
0.5499958
0.5518673
0.5517722
0.5500608
0.5474261
0.5437255
0.5375188
0.5318769
0.5265317
0.5213939
0.5165586
0.5121531
0.5082384
0.5048762
0.5020713
0.4997809
0.4978993
0.4962748
0.4947672
0.4932178
0.4915021
0.4894986
0.4867674
0.4835232
0.4799652
0.4762402
0.4724023
0.4684256
0.46427
0.459913
0.4553628
0.4506664
0.4458907
0.4410612
0.4361132
0.4309075
0.4252841
0.4191977
0.4128017
0.4063636
0.4000558
0.3939002
0.3878056
0.3818488
0.3763293
0.3715833
0.3679178
0.3656734
0.3649639
0.3653499
0.3657973
0.3652161
0.3631445
0.3599473
0.3561451
0.351937
0.3475949
0.3431229
0.3382921
0.3328137
0.3265165
0.319426
0.3117453
0.303831
0.2961663
0.2893713
0.2842863
0.2828403
0.2869635
0.2985568
0.3188393
0.3474448
0.3827382
0.4219783
0.4608647
0.4956422
0.5241678
0.5446453
0.5550586
0.5555077
0.5494937
0.5419967
0.5367
0.5324567
0.5242452
0.508619
0.4852117
0.4575905
0.4288789
0.4008236
0.3745274
0.3504941
0.3288509
0.3094548
0.2921207
0.2766917
0.2630178
0.2509636
0.2404309
0.2313175
0.2234954
0.2168031
0.2110759
0.2061599
0.2018898
0.1980754
0.1945324
0.1911293
0.1878037
0.1845481
0.1813829
0.1783359
0.1754309
0.1726834
0.1700977
0.1676686
0.1653846
0.1632323
0.1611966
0.1592594
0.1573984
0.1555863
0.1537949
0.152
0.1501807
0.1483173
0.1464007
0.144436
0.1424367
0.1404247
0.1384309
0.1364806
0.1345821
0.1327324
0.1309262
0.1291601
0.1274326
0.1257431
0.1240915
0.1224787
0.1209061
0.1193759
0.117891
0.1164549
0.1150716
0.1137458
0.1124831
0.11129
0.1101736
0.1091396
0.1081896
0.1073453
0.1066075
0.1059711
0.1054258
0.104957
0.1045474
0.1041797
0.1038383
0.1035096
0.1031828
0.1028497
0.1025052
0.1021486
0.1017834
0.1014165
0.1010581
0.1007203
0.1004161
0.1001582
0.09995814
0.09982659
0.09977344
0.09980669
0.09993072
0.1001452
0.100449
0.1008289
0.1012556
0.1016987
0.1021317
0.1025319
0.1028856
0.1031887
0.1034443
0.1036572
0.1038313
0.1039681
0.1040676
0.1041288
0.1041518
0.1041381
0.1040894
0.1040035
0.1038701
0.1036687
0.1033717
0.1029486
0.1023695
0.1016051
0.1006283
0.09942218
0.09799036
0.09637291
0.09463283
0.09281617
0.09093598
0.08898207
0.08694321
0.08482395
0.08264234
0.08041995
0.07817835
0.07594089
0.07373506
0.0715925
0.06954716
0.06763237
0.0658781
0.06430862
0.06294071
0.06178475
0.06084611
0.06012802
0.05963219
0.05936038
0.05931208
0.05948943
0.05990859
0.0605401
0.06134875
0.06229996
0.06336396
0.06451758
0.06574466
0.0670363
0.06839258
0.0698258
0.07135903
0.07301727
0.07481637
0.07675586
0.07882748
0.08104288
0.08344056
0.08606307
0.08891801
0.09198831
0.09523254
0.09856887
0.1018224
0.1047482
0.107124
0.1088112
0.1097644
0.1100492
0.1098328
0.1093496
0.1088971
0.108743
0.1090008
0.1095933
0.110318
0.1108942
0.1111517
0.1110869
0.1106935
0.1099916
0.1089903
0.1076807
0.1060818
0.1042209
0.1021371
0.09987217
0.09743897
0.09483398
0.09207288
0.08921364
0.08632632
0.08344943
0.08057156
0.07764878
0.07464557
0.0715749
0.06848824
0.06545476
0.0625436
0.05981197
0.05729714
0.05501722
0.05297629
0.05116843
0.04958063
0.04819455
0.04698832
0.04593803
0.04502061
0.04421473
0.04350179
0.0428641
0.04228463
0.04175369
0.04127283
0.0408422
0.04045023
0.04008639
0.03974115
0.03940558
0.03907128
0.03873117
0.03838009
0.03801487
0.03763426
0.03723874
0.0368304
0.03641293
0.03599152
0.03557267
0.03516381
0.0347729
0.03440583
0.03406931
0.0337705
0.03351771
0.03332137
0.03318929
0.03312645
0.03313625
0.03322036
0.03337884
0.03361019
0.03391139
0.03427795
0.03470386
0.03518165
0.03570249
0.0362565
0.03683281
0.03741969
0.03800454
0.03857427
0.03911631
0.03961997
0.04007732
0.04048369
0.04083744
0.04113921
0.04139105
0.04159625
0.04176011
0.04189118
0.04200231
0.04211027
0.04223238
0.04238175
0.04256598
0.0427891
0.0430528
0.04335719
0.04370104
0.04408176
0.04449513
0.04493554
0.04539693
0.04587456
0.0463672
0.04687849
0.04741758
0.04799737
0.04862943
0.04931651
0.05004669
0.05079925
0.05155016
0.05227762
0.05296225
0.05358338
0.05412352
0.05457072
0.05491708
0.05516175
0.05531353
0.05539842
0.05545458
0.05552286
0.05562942
0.05576991
0.05591272
0.05602134
0.0560702
0.05604573
0.05594374
0.05577179
0.05555153
0.05531505
0.05510034
0.05494272
0.05486109
0.05484812
0.05487049
0.05488192
0.05484284
0.05472838
0.05451791
0.05418643
0.05371984
0.05310747
0.05234054
0.05142782
0.0503917
0.04924497
0.04800029
0.04667224
0.04527892
0.04384295
0.0423892
0.04094033
0.03951469
0.03812744
0.03679196
0.03552029
0.03432504
0.03321917
0.03221252
0.03131384
0.03052937
0.02986235
0.02931198
0.02887442
0.02854271
0.02830797
0.02816089
0.02809117
0.02809183
0.02814963
0.02826172
0.02840275
0.028584
0.008421287
0.009806464
0.01088401
0.01626789
0.0224589
0.03063486
0.03731606
0.04487579
0.05307008
0.06179113
0.07136207
0.08264403
0.09501736
0.1088357
0.1253653
0.1509016
0.1646717
0.1792083
0.1940671
0.2092171
0.2246004
0.2401194
0.2556213
0.2710048
0.2861325
0.3008953
0.3153887
0.3310984
0.3471283
0.3636716
0.380801
0.3980811
0.4147937
0.4307455
0.4461066
0.4608589
0.4749769
0.4883478
0.5007716
0.5120987
0.522131
0.5302707
0.5360852
0.5396937
0.5405942
0.5392429
0.5358368
0.5305852
0.5239265
0.5162992
0.5081216
0.4998283
0.4916693
0.4841149
0.4773987
0.471658
0.4670589
0.4637747
0.4618844
0.4614223
0.4622746
0.4643027
0.4672058
0.4706336
0.4742421
0.4775586
0.4800068
0.481831
0.4830542
0.4837365
0.4840214
0.4840191
0.4836765
0.4828508
0.481451
0.4794562
0.4768946
0.4738635
0.4705099
0.4669207
0.4630269
0.4586321
0.4535256
0.4476965
0.4414503
0.4352405
0.4293403
0.4237174
0.4182658
0.4131817
0.4089702
0.4061649
0.4053646
0.4072393
0.4115695
0.4165622
0.419557
0.4188507
0.4146372
0.4087161
0.4020243
0.3951889
0.3886806
0.382597
0.3766049
0.3701966
0.3630669
0.3552521
0.3470571
0.338972
0.3316644
0.3260178
0.3233312
0.3260447
0.3377437
0.3610799
0.396839
0.442938
0.4964587
0.5531327
0.6064595
0.6521879
0.6888316
0.7149396
0.7269728
0.7241564
0.7122887
0.7004984
0.6943178
0.6890577
0.6776474
0.6544198
0.6190649
0.5772073
0.5344851
0.4937572
0.4565121
0.4233867
0.3943869
0.3691135
0.3470046
0.3275834
0.310481
0.2953963
0.2821223
0.2704938
0.2603306
0.2514295
0.2435986
0.2366863
0.2305556
0.22505
0.2199941
0.2152458
0.2107234
0.2064041
0.202298
0.1984234
0.1947933
0.1914123
0.1882743
0.1853617
0.1826489
0.180108
0.1777115
0.1754311
0.1732377
0.1710991
0.1689836
0.1668648
0.1647231
0.1625471
0.1603352
0.1580964
0.1558453
0.1536
0.1513806
0.1492027
0.1470736
0.1449942
0.1429636
0.140982
0.1390501
0.1371689
0.1353398
0.1335641
0.131844
0.1301818
0.128581
0.1270454
0.1255804
0.1241917
0.1228861
0.1216709
0.1205533
0.1195385
0.1186259
0.1178262
0.117149
0.1165836
0.1161149
0.1157251
0.1153958
0.1151102
0.1148545
0.114617
0.1143859
0.1141543
0.1139195
0.113682
0.1134462
0.113219
0.1130093
0.1128267
0.1126801
0.1125759
0.1125199
0.112519
0.1125827
0.1127209
0.1129422
0.113254
0.1136702
0.1141636
0.1147047
0.1152558
0.1157825
0.1162657
0.116708
0.1171269
0.1175398
0.1179522
0.1183564
0.1187373
0.1190802
0.1193752
0.1196204
0.1198206
0.119982
0.1201019
0.1201599
0.1201181
0.1199291
0.1195443
0.1189213
0.1180208
0.1168031
0.1152564
0.1134201
0.1113914
0.1092862
0.1071717
0.1050399
0.1028381
0.1005186
0.09808725
0.09557604
0.0930148
0.09042684
0.08783597
0.08527114
0.08276662
0.08036078
0.07809537
0.07601139
0.07414508
0.0725247
0.07116983
0.07009208
0.06929685
0.06878431
0.06855023
0.06858498
0.06887133
0.0694077
0.07016924
0.0711153
0.072211
0.07342966
0.07475321
0.07617107
0.07767947
0.07928399
0.08100522
0.08287549
0.08492257
0.08714976
0.08952217
0.09202619
0.09471274
0.09767661
0.101001
0.1046911
0.1086497
0.1127403
0.1167882
0.1205138
0.1236229
0.1259447
0.1274034
0.1280144
0.1279258
0.1273961
0.1267127
0.1261943
0.126045
0.1264026
0.1271933
0.1280887
0.1286195
0.128591
0.1281066
0.1272144
0.1259819
0.1244318
0.1225755
0.1204554
0.1181089
0.1155829
0.112926
0.1101578
0.1072764
0.104305
0.1012836
0.09824877
0.09522075
0.09218621
0.08909147
0.08587989
0.08254957
0.07915841
0.07579475
0.07254561
0.06947884
0.06663873
0.06404604
0.06170283
0.05960076
0.05772601
0.05606183
0.05459005
0.05329172
0.05214899
0.05114462
0.05026201
0.04948439
0.04879533
0.0481789
0.04761836
0.04709988
0.04662396
0.04618844
0.04578045
0.04538841
0.04500222
0.04461401
0.04421829
0.04381174
0.04339281
0.0429615
0.04251937
0.04206967
0.04161728
0.04116843
0.04073038
0.04030811
0.03990853
0.0395403
0.03921234
0.03893338
0.03871128
0.03855709
0.03847803
0.03847801
0.0385592
0.03872208
0.03896546
0.03928638
0.03967985
0.04013869
0.04065365
0.04121394
0.04180773
0.04242225
0.04304347
0.0436561
0.04424446
0.04479418
0.04529382
0.04573608
0.04611801
0.04644052
0.04670694
0.04692176
0.04709051
0.0472211
0.04732572
0.04742171
0.04753068
0.04767364
0.0478643
0.048109
0.0484097
0.04876513
0.04917174
0.04962452
0.05011705
0.05064127
0.05118769
0.05174686
0.05231196
0.0528826
0.05346881
0.05408878
0.05476602
0.05551638
0.05633741
0.0572101
0.05809779
0.05895894
0.05975927
0.06047477
0.06109027
0.06159193
0.06197024
0.06221997
0.06234669
0.06237608
0.06235246
0.06233414
0.06238051
0.06252314
0.06273875
0.06295999
0.06312308
0.06319408
0.06316118
0.06302295
0.0627922
0.06250312
0.0622049
0.06195652
0.06181135
0.06179211
0.06187688
0.06200126
0.06208304
0.06206242
0.06191211
0.06160545
0.06113718
0.06050696
0.05971621
0.05876913
0.05767504
0.05645561
0.0551425
0.05374632
0.05228541
0.05078306
0.0492668
0.0477626
0.04628442
0.04483259
0.0434029
0.04199376
0.04060801
0.03925151
0.03793246
0.03666124
0.03544863
0.03430478
0.03323958
0.0322608
0.0313745
0.03058458
0.02989281
0.02930052
0.02880558
0.02840898
0.02810332
0.02788997
0.02774878
0.02769533
0.002061866
0.00810081
0.01215149
0.01680951
0.02195878
0.0278211
0.03448738
0.04178486
0.04994207
0.05975962
0.07463026
0.08352194
0.09316447
0.1033147
0.1140183
0.1252299
0.1368944
0.1489161
0.1611537
0.1734921
0.185922
0.1999592
0.2142869
0.2287548
0.2432576
0.2577347
0.2721125
0.2863277
0.3003897
0.3142267
0.3278643
0.3415742
0.3556999
0.370042
0.3846496
0.3994583
0.4141069
0.4283782
0.442301
0.4558073
0.4687751
0.4810659
0.4924472
0.5024416
0.5106598
0.5165437
0.519757
0.5201093
0.5177298
0.5126979
0.5054122
0.4963683
0.4860421
0.4749443
0.4636103
0.4525061
0.442093
0.4327761
0.4249244
0.4189129
0.4150486
0.4136069
0.4147697
0.4185812
0.4249254
0.4334606
0.4437895
0.4550022
0.4661629
0.4770193
0.4871742
0.4963777
0.5045657
0.5116094
0.5174814
0.5224392
0.5266553
0.5299795
0.5321775
0.5331208
0.5328317