/*--------------------------------*- C++ -*----------------------------------*\
| =========                 |                                                 |
| \\      /  F ield         | foam-extend: Open Source CFD                    |
|  \\    /   O peration     | Version:     3.1                                |
|   \\  /    A nd           | Web:         http://www.extend-project.de       |
|    \\/     M anipulation  |                                                 |
\*---------------------------------------------------------------------------*/
FoamFile
{
    version     2.0;
    format      ascii;
    class       volScalarField;
    location    "17";
    object      nut;
}
// * * * * * * * * * * * * * * * * * * * * * * * * * * * * * * * * * * * * * //

dimensions      [0 2 -1 0 0 0 0];

internalField   nonuniform List<scalar> 
119952
(
4.724935e-05
3.063018e-05
3.095136e-05
3.440064e-05
3.655711e-05
3.440811e-05
3.306829e-05
3.215311e-05
3.148196e-05
3.09117e-05
3.038705e-05
2.987043e-05
2.933723e-05
2.877285e-05
2.817605e-05
2.755512e-05
2.692043e-05
2.628407e-05
2.563523e-05
2.489696e-05
3.264517e-05
3.056904e-05
2.974525e-05
3.970354e-05
3.782008e-05
3.688122e-05
3.619594e-05
3.597812e-05
3.5471e-05
2.283157e-05
2.878412e-05
3.04829e-05
3.420469e-05
3.859058e-05
4.373368e-05
4.968045e-05
5.626868e-05
6.328249e-05
7.060541e-05
8.271944e-05
0.0003694988
0.000482888
0.0006112638
0.0007455326
0.0008783648
0.001003134
0.001114502
0.001209335
0.001287491
0.001837557
0.001895478
0.001941497
0.001965754
0.001956037
0.001903524
0.001811999
0.001701932
0.00160269
0.001521968
0.001459799
0.001413688
0.001384674
0.00137294
0.001378236
0.001400811
0.001441718
0.001497142
0.001562525
0.001522792
0.0016817
0.001726319
0.001773136
0.001814782
0.00183603
0.001844489
0.001846287
0.001844723
0.001841549
0.001837694
0.001833407
0.001828492
0.001822644
0.001815722
0.001807901
0.001799676
0.0017918
0.001785523
0.001782939
0.001789536
0.001793331
0.001801784
0.001816232
0.001836667
0.001844977
0.00184452
0.001832761
0.001784687
0.001686461
0.001648332
0.001626525
0.001613971
0.001605299
0.001598483
0.001592891
0.001588154
0.001584071
0.001580524
0.001577422
0.001574697
0.001572301
0.001570201
0.001568397
0.00156696
0.001566057
0.00156585
0.001566483
0.001568034
0.001570613
0.001574846
0.001580848
0.001588114
0.001595895
0.001603212
0.001609758
0.001615247
0.001619409
0.001622037
0.001623009
0.001622304
0.001619995
0.001616242
0.001611273
0.001605358
0.001598789
0.001591857
0.001584754
0.001577055
0.00156893
0.001560674
0.001552503
0.001544563
0.001537172
0.001530536
0.001524268
0.001517925
0.001511186
0.001504433
0.001493507
0.001478164
0.001458392
0.001434161
0.001405261
0.001372043
0.001335229
0.00129582
0.001255113
0.001214429
0.001174654
0.001136405
0.001100036
0.001065747
0.001033592
0.00100346
0.0009749705
0.0009473687
0.0009194826
0.0008898001
0.0008566873
0.0008187979
0.0007758722
0.0007299567
0.0006862354
0.000651548
0.0006295634
0.000619124
0.0006171978
0.000621521
0.0006303629
0.0006414675
0.0006523014
0.0006612432
0.0006686581
0.0006764102
0.0006859296
0.000697193
0.0007091251
0.0007204421
0.0007303126
0.0007385521
0.0007453064
0.0007508912
0.0007561516
0.0007618344
0.0007672937
0.00077204
0.0007761226
0.0007798637
0.0006796002
0.0006596493
0.0006137396
0.0005816339
0.00055791
0.0005390517
0.0005231743
0.0005093152
0.000497002
0.0004860843
0.0004765947
0.0004686618
0.0004622306
0.0004571679
0.0004532947
0.0004504024
0.0004483028
0.0004468459
0.0004458882
0.0004453644
0.0004453011
0.0004456922
0.0004462333
0.0004460951
0.0004439769
0.0004385831
0.0004287931
0.0004141784
0.0003959557
0.0003745876
0.0003510502
0.0003300878
0.0003146866
0.0003056175
0.0003019643
0.0003054343
0.0003175923
0.0003300396
0.0003408461
0.0003488436
0.0003534909
0.0003492219
0.0003369315
0.0003206012
0.0002908434
0.0002349528
0.0002028932
0.0002195429
0.0002512984
0.0002825486
0.0003105206
0.0003342227
0.0003529329
0.0003665052
0.000375646
0.0003816922
0.000386125
0.0003901007
0.0003944626
0.0003995396
0.0004018628
0.0004045035
0.0004081961
0.000412273
0.0004162894
0.0004198727
0.0004227896
0.0004249571
0.0004264275
0.0004273022
0.0005358158
0.0005407221
0.0005444109
0.0005467592
0.0005480605
0.0005484643
0.0005483321
0.0005476364
0.000546456
0.0005449655
0.0005433747
0.000541969
0.0005409925
0.0005406716
0.0005411624
0.0005426935
0.0005454537
0.0005495417
0.0005549437
0.0005615573
0.0005692426
0.0005778459
0.0005872089
0.0005971835
0.000607653
0.0006185561
0.0006299071
0.0006416915
0.0006538876
0.0006664775
0.000679431
0.0006926996
0.0007062148
0.0007198919
0.0007336333
0.0007473306
0.0007608659
0.000774115
0.0007869485
0.0007992281
0.000810801
0.0008215029
0.0008311667
0.0008396257
0.000846716
0.0008522574
0.0008558216
0.0008575865
0.0008578387
0.0008565069
0.0008536888
0.0008494928
0.0008441395
0.0008384393
0.0008327631
0.0008248953
0.0008179081
0.0008117914
0.0008068009
0.0008029919
0.0008003649
0.0007989873
0.0007989689
0.0008003715
0.0008032178
0.0008075513
0.000813373
0.000820616
0.0008291863
0.0008389949
0.0008499981
0.0008622247
0.0008757715
0.0008907653
0.0009072938
0.0009253527
0.0009448229
0.0009654397
0.0009867629
0.001008173
0.001028892
0.00104802
0.001064622
0.001077827
0.001087145
0.001092669
0.001095284
0.001096368
0.001096557
0.001096444
0.001096519
0.001097042
0.001098006
0.001099164
0.001100063
0.001099928
0.001098155
0.001094642
0.001089868
0.001084364
0.001078556
0.001072588
0.001065757
0.001055864
0.001040028
0.00101332
0.0009684722
0.0009132197
0.0008651337
0.0008274277
0.0007925334
0.0007529251
0.0007141896
0.0006833818
0.0006623213
0.0006444276
0.0006227581
0.0006158775
0.0006222069
0.0006393501
0.000663928
0.0006938565
0.0007270576
0.000761338
0.0007960905
0.0008293727
0.0008541273
0.0008733254
0.0008888793
0.0009014711
0.0009110732
0.0009180002
0.0009230404
0.0009273607
0.0009318784
0.0009372386
0.0009442912
0.0009555027
0.0008029941
4.465803e-05
4.808219e-05
5.455298e-05
6.256446e-05
7.133776e-05
8.033383e-05
8.928148e-05
9.805277e-05
0.0001075787
0.0004082553
0.0005218407
0.0006436666
0.0007648259
0.0008802933
0.0009880024
0.001087953
0.001181007
0.001268549
0.001830087
0.001925103
0.002027202
0.002131311
0.002235902
0.002338829
0.002436626
0.002524449
0.002597204
0.00265046
0.002687316
0.002704157
0.002705445
0.002696162
0.002680697
0.002663888
0.00265206
0.002644981
0.002643836
0.002646679
0.002657169
0.002696454
0.002771225
0.002885328
0.0030413
0.00324115
0.003486733
0.00377883
0.00411558
0.004489018
0.004883613
0.005275564
0.005644731
0.005972462
0.006237368
0.006425326
0.006538339
0.006588274
0.007411274
0.007375071
0.007311929
0.007206138
0.007039414
0.006805143
0.00651662
0.006174039
0.005805753
0.005444594
0.005116743
0.004842067
0.004626556
0.004467419
0.004357467
0.00428691
0.004247333
0.004230774
0.00423118
0.004233476
0.004237588
0.004254134
0.00427419
0.004290717
0.004300909
0.004305861
0.004306658
0.004303888
0.004298264
0.004290449
0.004280856
0.004269628
0.004256772
0.004242265
0.004226198
0.004208772
0.004190454
0.004171927
0.004154303
0.004138172
0.004122308
0.004109386
0.004101009
0.00408819
0.004068409
0.004042764
0.004009164
0.003962875
0.003916832
0.003882554
0.003854001
0.00382933
0.003807498
0.003787966
0.003770524
0.003755049
0.003741485
0.003729828
0.00372008
0.003712247
0.003706334
0.00370237
0.003700423
0.00370062
0.003703126
0.003708143
0.003715861
0.003726447
0.003740106
0.003756942
0.00377675
0.003799133
0.003823486
0.003849034
0.003874866
0.003900017
0.003923552
0.003944646
0.003962654
0.003977149
0.003987963
0.003995195
0.003999219
0.004000655
0.004000347
0.003999313
0.003998681
0.003999608
0.004003215
0.004010516
0.004022356
0.004039351
0.004061787
0.004089567
0.004121911
0.004157576
0.004195484
0.004234132
0.004270837
0.004302471
0.004326345
0.004340256
0.00434241
0.004331902
0.004308907
0.004274429
0.004230137
0.004177952
0.004119643
0.004056704
0.003990242
0.003921042
0.00384962
0.00377619
0.003700489
0.003621544
0.00353754
0.003445918
0.003343661
0.0032279
0.003097127
0.002953048
0.002801557
0.00265049
0.002506252
0.002372737
0.002252009
0.00214488
0.002051162
0.001970299
0.001902151
0.001847373
0.001807022
0.001781739
0.001771143
0.001773817
0.001787621
0.001810264
0.001839693
0.001874327
0.00191301
0.001954885
0.001999053
0.002045734
0.002097115
0.002153438
0.002213736
0.002278588
0.002257877
0.002251991
0.002260754
0.002280291
0.002307241
0.002338738
0.002372681
0.002407749
0.00244339
0.00247982
0.002517915
0.0025589
0.002603991
0.002654033
0.002709344
0.002769876
0.002835476
0.002906013
0.002981438
0.003061924
0.003147821
0.003238781
0.0033323
0.003422755
0.003501672
0.003558845
0.003583901
0.003567719
0.003503784
0.003389527
0.00324229
0.003090218
0.002958117
0.002864261
0.002816136
0.002810775
0.002834475
0.002862776
0.002883
0.002882697
0.002853121
0.002784722
0.002665904
0.002489642
0.002250276
0.00198063
0.001746215
0.001561678
0.00141119
0.001290886
0.001202749
0.00114428
0.001109035
0.001090266
0.001083017
0.001083971
0.001090983
0.001102901
0.001119599
0.001141667
0.001169577
0.001203147
0.001241098
0.001280592
0.00132078
0.001361915
0.00140225
0.001440146
0.001474341
0.001504007
0.001711888
0.001738305
0.001761328
0.001780363
0.001794983
0.001804998
0.001810318
0.001810851
0.00180655
0.001797618
0.001784479
0.001767718
0.001748126
0.001726688
0.001704531
0.001682881
0.001662963
0.001645883
0.001632566
0.001623722
0.001619847
0.00162124
0.001628041
0.001640276
0.001657889
0.00168077
0.001708761
0.001741672
0.00177928
0.001821331
0.001867534
0.001917556
0.001971025
0.002027517
0.002086556
0.002147613
0.002210106
0.002273407
0.002336842
0.002399685
0.002461154
0.002520442
0.002576749
0.002629314
0.002677418
0.002720423
0.002757819
0.002789331
0.002814853
0.002834311
0.002847733
0.002855542
0.002858311
0.002857714
0.00285421
0.002848722
0.002842763
0.00283737
0.00283323
0.002830901
0.002830897
0.002833714
0.002839801
0.002849524
0.002863157
0.00288085
0.002902613
0.00292836
0.002957985
0.002991454
0.003028878
0.003070499
0.00311659
0.00316727
0.00322236
0.003281342
0.003343312
0.003406926
0.003470464
0.003531964
0.003589324
0.003640402
0.003683371
0.003717506
0.003743476
0.003760205
0.003768883
0.003772149
0.003772646
0.003772365
0.003772296
0.003772376
0.003771703
0.003768954
0.003762895
0.00375276
0.003738451
0.003720584
0.003700291
0.003678757
0.003656512
0.00363282
0.003605516
0.003571057
0.003524304
0.00345904
0.003372754
0.003268051
0.003144477
0.002996982
0.002821275
0.002620248
0.002403436
0.002183193
0.001973056
0.001785287
0.001628254
0.001505429
0.001416019
0.001356255
0.001320992
0.001304206
0.001246355
0.001215413
0.00120864
0.001218764
0.001243229
0.001275292
0.001316528
0.001359406
0.001412628
0.001462178
0.001527889
0.001578783
0.001609251
0.001640306
0.001672506
0.001707732
0.001725292
3.348913e-05
4.177131e-05
5.44933e-05
7.002495e-05
8.912624e-05
0.0001129659
0.0001437477
0.0001845178
0.00024213
0.0003542086
0.001192426
0.001375407
0.001535911
0.001667771
0.001802904
0.001939884
0.002076115
0.002214332
0.002363786
0.004238703
0.004565869
0.00472516
0.00483491
0.004923409
0.005000908
0.005069044
0.005129324
0.005183203
0.005234403
0.005309065
0.00541299
0.005524301
0.005628749
0.005720393
0.005798536
0.005864212
0.005918689
0.005968748
0.005905294
0.005889576
0.005899821
0.005924306
0.00595553
0.005988823
0.006021207
0.006050673
0.006075644
0.00609534
0.006108275
0.006116136
0.006121225
0.006126135
0.006133405
0.006144342
0.00615901
0.006176268
0.006992003
0.007021519
0.007053886
0.00709091
0.007132112
0.007174407
0.007211778
0.007236202
0.007240578
0.007220935
0.007178315
0.007119527
0.007059711
0.006991773
0.006909253
0.006816716
0.006719454
0.006624341
0.00653898
0.006468995
0.006419278
0.006389702
0.006384457
0.006435171
0.006549787
0.006734195
0.006991802
0.007321754
0.007712799
0.008141065
0.008573807
0.008981239
0.009335562
0.009618908
0.009824933
0.009953204
0.01
0.01
0.009980749
0.009930152
0.009865749
0.009768691
0.009616247
0.009394099
0.009098938
0.00873592
0.008330004
0.007910835
0.007508857
0.007147086
0.006838853
0.006587878
0.006392
0.006244567
0.006139121
0.006067192
0.006022893
0.005995169
0.005977625
0.005970379
0.005968944
0.005967252
0.005961671
0.005951893
0.005938764
0.005923283
0.00590651
0.005889319
0.005872214
0.005855337
0.00583859
0.005821738
0.005804544
0.005786758
0.00576821
0.005748737
0.005728441
0.005707351
0.005684448
0.005660568
0.005636463
0.005609167
0.005576329
0.005538841
0.005496502
0.00544905
0.005401122
0.005359313
0.005323036
0.005290478
0.005261038
0.005234209
0.005209789
0.005187754
0.005168137
0.00515101
0.005136453
0.005124547
0.005115381
0.00510907
0.005105771
0.005105695
0.005109116
0.005116352
0.005127706
0.005143266
0.005162191
0.005185569
0.005213385
0.005245312
0.005280713
0.00531868
0.005358082
0.005397649
0.00543608
0.005472158
0.00550484
0.005533326
0.005557116
0.005576054
0.005590351
0.005600581
0.00560767
0.005612839
0.005617526
0.005623289
0.005631701
0.005644253
0.005662266
0.005686799
0.005718562
0.005757809
0.005804246
0.005856993
0.005914617
0.005975132
0.006035871
0.006093579
0.006144921
0.006186968
0.006217397
0.006234851
0.006239132
0.00623099
0.006211746
0.006182927
0.006145923
0.0061018
0.006051282
0.00599485
0.005932839
0.005865401
0.005792279
0.005712542
0.005624466
0.005525608
0.005412956
0.005283247
0.005133889
0.004964472
0.00477784
0.004579463
0.004375648
0.004172174
0.003973733
0.003783607
0.003603472
0.00343408
0.003276474
0.00313251
0.00300475
0.002895749
0.002807403
0.002740476
0.00269468
0.00266884
0.002661408
0.002670551
0.002694697
0.002732193
0.002781753
0.002841587
0.002910322
0.002990474
0.003082421
0.003184472
0.003289036
0.003401777
0.003520857
0.0036441
0.003769464
0.003895243
0.004020218
0.004143838
0.004266405
0.004389107
0.004513694
0.004641996
0.004775433
0.00491472
0.005060125
0.005211934
0.005370609
0.005536535
0.005709808
0.005890243
0.006076482
0.006264157
0.006444998
0.006607948
0.00674125
0.006834388
0.006879708
0.006873594
0.006817689
0.006720833
0.006602431
0.006484911
0.00638848
0.006325626
0.006297747
0.006296261
0.006305761
0.006308717
0.006291289
0.006243433
0.00615604
0.006019743
0.00582933
0.005584376
0.005292587
0.004973582
0.004644729
0.004313378
0.003988651
0.00368312
0.003406014
0.003158293
0.002936232
0.002737542
0.002562925
0.002414339
0.0022928
0.002197855
0.002128064
0.002081405
0.002055473
0.002047631
0.002055041
0.002074775
0.002103885
0.002139527
0.002178958
0.002221457
0.002266843
0.002315462
0.002364934
0.002414929
0.002464076
0.002511206
0.002555391
0.00259583
0.002631704
0.002662204
0.002686497
0.002703776
0.002713564
0.002715731
0.002710469
0.002698341
0.002680275
0.00265753
0.002631627
0.00260425
0.002577131
0.002551948
0.002530239
0.002513361
0.002502477
0.002498565
0.00250241
0.002514607
0.002535566
0.002565519
0.002604539
0.002652541
0.002709298
0.00277444
0.002847459
0.002927712
0.00301442
0.003106671
0.003203437
0.003303584
0.00340589
0.003509037
0.003611633
0.003712261
0.003809526
0.003902099
0.0039888
0.004068657
0.004140927
0.004205099
0.00426087
0.004308085
0.004346796
0.004377458
0.00440099
0.004418846
0.004432668
0.004444194
0.00445482
0.004465612
0.004477448
0.004491077
0.004507168
0.004526331
0.004549098
0.004575875
0.004606919
0.00464233
0.004682081
0.004726095
0.004774364
0.004827054
0.004884529
0.004947224
0.00501542
0.005088989
0.005167256
0.005249051
0.005332756
0.00541631
0.005497357
0.00557346
0.005642235
0.005701524
0.005750049
0.005787367
0.005811666
0.005824837
0.005830058
0.005830923
0.00583047
0.00583054
0.005831592
0.00583284
0.005832629
0.005829029
0.005820467
0.005806239
0.005786786
0.005763666
0.005739082
0.005715008
0.005692216
0.005669647
0.00564444
0.005612264
0.005567669
0.005504758
0.005418712
0.005306035
0.005161977
0.004980423
0.004757064
0.004492335
0.004191792
0.003865574
0.003527999
0.00319578
0.002884962
0.002608031
0.002372286
0.00217988
0.002028951
0.001915061
0.001832654
0.001776153
0.001740635
0.001721893
0.001716195
0.001720428
0.001731659
0.001747598
0.001749854
0.001748986
0.001784284
0.001803969
0.001869673
0.001887245
0.001940851
0.001936489
0.002006234
3.935297e-05
6.493385e-05
0.0001419036
0.0004895125
0.0008519241
0.001560986
0.002100945
0.002761032
0.00351693
0.004149303
0.004623495
0.005011467
0.005385985
0.005744436
0.006107223
0.006441646
0.006748239
0.007040095
0.007316959
0.007585952
0.007855354
0.008116387
0.008305685
0.008420528
0.008507111
0.008568814
0.008615551
0.00865054
0.008378184
0.008200167
0.008411639
0.007661625
0.007643278
0.007631504
0.007645324
0.007694691
0.007774497
0.007883371
0.008022695
0.008179584
0.008354691
0.008556192
0.008772301
0.009018942
0.009282054
0.009591719
0.009784459
0.0098343
0.009875538
0.009908666
0.009933525
0.009951067
0.009961585
0.009965634
0.00996396
0.009957341
0.009946446
0.009931748
0.009913091
0.009889816
0.009861292
0.009827127
0.0097882
0.009746988
0.009706174
0.00966727
0.009630789
0.009598355
0.009550825
0.009513484
0.009487884
0.009474552
0.009473352
0.00948196
0.009494372
0.009501181
0.009492929
0.009464479
0.009417137
0.009360389
0.009283983
0.009190395
0.009083102
0.008965235
0.008840997
0.008716369
0.008599014
0.008496873
0.008418362
0.008370356
0.008353664
0.00837068
0.008448917
0.008598901
0.008826726
0.009129292
0.009488609
0.009876741
0.01
0.01
0.01
0.01
0.01
0.01
0.01
0.01
0.01
0.01000002
0.01000015
0.01000061
0.0100009
0.01000071
0.01000021
0.01000002
0.01
0.009652269
0.00927238
0.008913943
0.008590436
0.008309839
0.008074702
0.007883124
0.007731457
0.007614707
0.007527949
0.007464942
0.007419681
0.007387943
0.007365519
0.007347672
0.00733029
0.007311089
0.007289617
0.007266575
0.007243103
0.00722027
0.007198823
0.007179117
0.007161171
0.007144742
0.007129424
0.007114703
0.00709999
0.007084626
0.007067924
0.007049203
0.007027706
0.007003098
0.006975428
0.006944113
0.006908448
0.006868666
0.006825488
0.006779563
0.006733136
0.006689133
0.006648544
0.006610997
0.006575983
0.006543195
0.00651258
0.006484242
0.006458355
0.006435102
0.006414669
0.006397233
0.006382972
0.006372089
0.006364826
0.006361488
0.006362451
0.006368155
0.006379048
0.006395436
0.006416768
0.006443333
0.006475967
0.006514312
0.006557677
0.006605027
0.006655036
0.0067062
0.006756968
0.006805888
0.006851697
0.006893385
0.006930249
0.006961952
0.006988556
0.007010527
0.007028737
0.007044396
0.00705895
0.00707398
0.007091092
0.007111821
0.007137557
0.007169469
0.007208418
0.007254821
0.007308565
0.007369001
0.007435318
0.007505147
0.007575981
0.007644806
0.007708491
0.007764249
0.007810057
0.007844888
0.007868697
0.007882158
0.007886287
0.007882098
0.007870375
0.007851584
0.007825937
0.00779352
0.007754367
0.00770837
0.007655034
0.007593232
0.007521139
0.007436323
0.007335795
0.007216121
0.007074054
0.006907749
0.006718074
0.006508856
0.006285813
0.006055024
0.005821731
0.005589672
0.005361055
0.005137186
0.004919313
0.004709212
0.004509516
0.004323649
0.00415546
0.004008552
0.003885757
0.00378896
0.003719102
0.003676129
0.00365938
0.003667596
0.003699368
0.003752862
0.003826058
0.003916553
0.004026634
0.004154943
0.004298347
0.004453541
0.004617109
0.004785895
0.00495723
0.005128994
0.005299689
0.005468656
0.005636274
0.005803935
0.005973564
0.006146958
0.00632517
0.006508335
0.006696534
0.006890488
0.007091311
0.007299561
0.007514771
0.007735618
0.007958969
0.00817768
0.008380429
0.008554487
0.008690222
0.008780909
0.008823424
0.008818813
0.008772592
0.008696046
0.008605656
0.008522308
0.008463375
0.008435208
0.008432749
0.008443546
0.008452877
0.008445298
0.008410433
0.00834193
0.008233581
0.008078954
0.007874017
0.007620416
0.007324862
0.006998068
0.006648596
0.006282872
0.005911397
0.005548079
0.005202721
0.004876255
0.004564908
0.004267106
0.003986563
0.003729536
0.003501639
0.003306622
0.003146092
0.00301947
0.00292472
0.002859093
0.002819432
0.002802384
0.002804411
0.002822199
0.002852606
0.00289278
0.002939745
0.002990732
0.003045343
0.003103859
0.003165925
0.003230043
0.003294775
0.003358653
0.003420187
0.003477906
0.003530301
0.003575913
0.003613505
0.003642135
0.003661225
0.003670609
0.003670563
0.003661814
0.003645528
0.003623262
0.003596874
0.0035684
0.003539923
0.003513468
0.003490883
0.003474119
0.00346506
0.003465295
0.003476112
0.003498466
0.003532981
0.003579958
0.003639399
0.003711023
0.003794294
0.003888425
0.0039924
0.004104984
0.004224752
0.004350119
0.004479374
0.004610692
0.004742164
0.004871834
0.004997783
0.005118255
0.005231774
0.005337201
0.005433734
0.005520859
0.005598273
0.005665863
0.005723772
0.005772585
0.005813476
0.005848265
0.005879103
0.005907981
0.005936401
0.005965446
0.005995926
0.006028488
0.006063691
0.006102023
0.006143869
0.006189466
0.00623889
0.006292095
0.006349006
0.006409638
0.006474226
0.006543285
0.00661747
0.006697225
0.006782455
0.006872345
0.006965404
0.007059726
0.007153124
0.007243179
0.007327464
0.007403724
0.007469965
0.007524793
0.007567383
0.007596435
0.007613354
0.007621152
0.007623722
0.007624598
0.007625985
0.00762856
0.007631743
0.007634025
0.007633382
0.007627903
0.007616463
0.007599153
0.007577422
0.007553816
0.007531182
0.007511543
0.007495122
0.007480055
0.007462857
0.007439033
0.007403402
0.00734989
0.007271508
0.007162491
0.00701852
0.006834629
0.006606817
0.006333447
0.006015996
0.005659591
0.005273542
0.004871247
0.004468707
0.004081927
0.003724346
0.003405156
0.003128687
0.002895076
0.002701707
0.002544482
0.002418792
0.002320218
0.002244709
0.002188636
0.00214871
0.002122196
0.002106718
0.002100588
0.002102259
0.002110917
0.002125476
0.00214563
0.002170561
0.002200253
0.002233266
2.16845e-05
3.532613e-05
5.37412e-05
0.0002332599
0.0003847743
0.0006637467
0.0009381341
0.001191317
0.001510109
0.001821426
0.002158555
0.002594716
0.003112412
0.003698846
0.00435651
0.005191938
0.006799842
0.007449062
0.008073246
0.00862947
0.009111389
0.009516454
0.009860281
0.01
0.01
0.01
0.01
0.01
0.01
0.01
0.01
0.01
0.01
0.009811076
0.0092948
0.008791603
0.008331108
0.00791792
0.007580215
0.007312597
0.007038021
0.006843832
0.006854217
0.006766461
0.006731691
0.006751361
0.006808046
0.006895459
0.007022582
0.007183123
0.007374981
0.007602429
0.007870212
0.008193233
0.008565516
0.008996427
0.009465266
0.009984
0.01
0.01
0.01
0.01
0.01
0.01
0.01
0.01
0.01
0.01
0.01
0.01
0.01
0.01
0.01
0.01
0.01
0.01
0.01
0.01
0.01
0.01
0.01
0.01
0.01
0.01
0.01
0.01
0.01
0.01
0.01
0.01
0.01
0.01
0.01
0.01
0.01
0.01
0.01
0.009967074
0.00986202
0.009774178
0.009712939
0.009685237
0.009691517
0.009749323
0.00987433
0.01
0.01
0.01
0.01
0.01
0.01
0.01
0.01
0.01
0.01000001
0.01000002
0.01000009
0.01000052
0.01000244
0.01000862
0.01001202
0.01000633
0.01000109
0.01000005
0.01
0.01
0.01
0.01
0.01
0.00984421
0.009570037
0.009330538
0.009125326
0.008952272
0.008809179
0.008693294
0.008601095
0.008528419
0.008471314
0.008426214
0.008389532
0.00835772
0.008328002
0.00829899
0.008270633
0.008243663
0.008218998
0.008197367
0.008179169
0.008164453
0.008152951
0.008144131
0.008137272
0.008131509
0.008125852
0.008119207
0.008110477
0.008098642
0.008082945
0.008063053
0.008038824
0.008010239
0.007977666
0.00794191
0.007903869
0.007864777
0.007826107
0.007788782
0.007752951
0.007718452
0.007685208
0.007653335
0.007623088
0.007594786
0.007568763
0.007545343
0.007524836
0.007507542
0.007493771
0.00748387
0.007478246
0.007477381
0.007481831
0.007492175
0.007508904
0.007532129
0.00756098
0.007596842
0.00763943
0.007687974
0.007741302
0.007797954
0.007856321
0.007914816
0.007971997
0.00802662
0.008077676
0.008124449
0.008166572
0.008204071
0.008237365
0.008267222
0.008294682
0.008320987
0.008347463
0.008375419
0.008406083
0.008440597
0.008479986
0.008525079
0.008576371
0.008633958
0.008697849
0.008766918
0.008838828
0.008911077
0.008981205
0.009046731
0.009105656
0.009156815
0.00919989
0.00923518
0.009263264
0.009284721
0.009299938
0.009309037
0.009311936
0.009308466
0.009298463
0.009281724
0.009257819
0.009225841
0.009184265
0.009131003
0.009063567
0.00897902
0.008873929
0.00874487
0.008589261
0.008407655
0.008204251
0.007984791
0.007754851
0.00751869
0.007279001
0.007037484
0.006795255
0.006553078
0.006311967
0.006073852
0.005841969
0.005620773
0.00541547
0.005231437
0.00507358
0.004945832
0.004850794
0.004789779
0.004762906
0.004769411
0.004807741
0.004875735
0.004970418
0.005088926
0.005231809
0.005394908
0.005573532
0.005763109
0.005959555
0.006159463
0.006360187
0.006559914
0.006757838
0.006954432
0.007151289
0.007350308
0.007552795
0.007758894
0.007967883
0.008180081
0.008397271
0.008621124
0.008850787
0.009084506
0.009319187
0.009550146
0.009768572
0.009962652
0.01000168
0.0100007
0.0100001
0.01
0.01
0.01
0.01000002
0.0100002
0.01000213
0.01001011
0.01000898
0.0100026
0.01000026
0.01000001
0.01
0.01
0.009925028
0.009803994
0.009645289
0.009446525
0.009209088
0.008936469
0.008632467
0.008301569
0.007949428
0.007584627
0.007216944
0.006853189
0.006494623
0.006139129
0.005786708
0.005443104
0.005117064
0.004817183
0.00454999
0.004319333
0.004126596
0.003971305
0.00385166
0.003764961
0.003707949
0.003677133
0.003668949
0.003679916
0.003706816
0.003746687
0.003796919
0.003854978
0.003918132
0.003984699
0.004054858
0.004128541
0.004203944
0.004279231
0.004352548
0.004422024
0.00448582
0.004542276
0.004590021
0.004628038
0.004655707
0.004672826
0.004679642
0.004676874
0.004665719
0.004647812
0.004625149
0.004599967
0.004574211
0.004550043
0.004529614
0.004515234
0.004509578
0.00451475
0.004532238
0.004563134
0.00460812
0.00466747
0.004741078
0.004828478
0.004928861
0.005041086
0.005163712
0.005295042
0.005433179
0.005576073
0.005721544
0.005867304
0.006011017
0.006150441
0.006283613
0.00640897
0.006525412
0.006632273
0.006729217
0.006816119
0.006893033
0.006960286
0.007018678
0.007069672
0.007115444
0.007158504
0.007200947
0.007244131
0.007288896
0.007335789
0.007385177
0.007437325
0.007492417
0.007550518
0.007611545
0.007675281
0.007741485
0.007810096
0.007881384
0.007956056
0.008035207
0.008119935
0.008210524
0.008305659
0.008403289
0.00850101
0.008596541
0.008687766
0.008772198
0.008847753
0.008913115
0.008967282
0.009009471
0.009038986
0.00905686
0.009065693
0.009069384
0.009072009
0.009076201
0.009082371
0.00908944
0.009095763
0.009099454
0.009098543
0.009091527
0.009078102
0.009059412
0.009038007
0.009017324
0.009000472
0.008988877
0.008981425
0.008974707
0.008964346
0.00894604
0.008914818
0.008864429
0.008790196
0.00868734
0.008549958
0.008374309
0.008158948
0.00790144
0.007600976
0.007259164
0.006880824
0.006474675
0.006052983
0.005629794
0.005218576
0.004830375
0.004472822
0.004149978
0.003863054
0.003611372
0.003392764
0.003204587
0.003044134
0.002908573
0.002795249
0.002701641
0.002625627
0.002565216
0.002518917
0.002485193
0.002463052
0.00245104
0.002448592
0.002453925
0.002466955
1.984369e-05
3.062978e-05
6.042029e-05
0.0001844304
0.0002978002
0.0004768188
0.0006124115
0.0007664619
0.0009488498
0.001126562
0.001334786
0.00160452
0.00191241
0.002278655
0.002754336
0.003679947
0.004117108
0.004587087
0.005082076
0.005600659
0.006148082
0.006715515
0.007286663
0.007847258
0.008380928
0.008875928
0.009347636
0.009850301
0.01
0.01
0.01
0.01
0.01
0.01
0.01
0.01
0.01
0.01
0.01
0.01
0.01
0.009738114
0.009209168
0.008688867
0.0081915
0.007722366
0.007317365
0.006975712
0.006689368
0.006458536
0.006283724
0.006154138
0.006076228
0.006021623
0.006020198
0.006082215
0.0062014
0.0063652
0.006588349
0.00686049
0.007215803
0.007642711
0.008164595
0.008756058
0.009410586
0.01
0.01
0.01
0.01
0.01
0.01
0.01
0.01
0.01
0.01
0.01
0.01
0.01
0.01
0.01
0.01
0.01
0.01
0.01
0.01
0.01
0.01
0.01
0.01
0.01
0.01
0.01
0.01
0.01
0.01
0.01
0.01
0.01
0.01
0.01
0.01
0.01
0.01
0.01
0.01
0.01
0.01
0.01
0.01
0.01
0.01
0.01
0.01
0.01
0.01
0.01
0.01
0.01
0.01
0.01
0.01000001
0.01000004
0.01000012
0.01000026
0.0100005
0.01000108
0.01000352
0.01001661
0.01010252
0.01011909
0.01003488
0.01000306
0.01000015
0.01000013
0.01000014
0.01000013
0.0100001
0.01000005
0.01000001
0.01
0.01
0.01
0.01
0.009857799
0.009698254
0.009561338
0.009444985
0.009346325
0.009262666
0.009191996
0.009132469
0.009081985
0.009038485
0.009000237
0.008966429
0.008937084
0.008912635
0.008893501
0.008879878
0.008871692
0.008868567
0.008869821
0.008874508
0.008881499
0.008889552
0.008897364
0.00890363
0.008907147
0.008906955
0.008902463
0.008893438
0.008879951
0.008862373
0.00884136
0.008817657
0.008792069
0.008765415
0.008738298
0.008710978
0.008683533
0.00865609
0.008628922
0.008602425
0.008577059
0.008553306
0.008531631
0.008512478
0.008496267
0.00848342
0.00847439
0.008469693
0.008469919
0.008475723
0.008487775
0.008506645
0.008532606
0.008565095
0.008604057
0.008649969
0.00870183
0.008758338
0.008818002
0.008879305
0.008940852
0.00900145
0.009060074
0.009115755
0.009167946
0.009216457
0.009261391
0.009303153
0.009342388
0.00937992
0.00941667
0.009453529
0.009491283
0.009530645
0.009572362
0.00961726
0.009666156
0.009719733
0.009778574
0.009843548
0.009912839
0.009984782
0.01
0.01
0.01
0.01000001
0.01000001
0.01000001
0.01
0.01
0.01
0.01000001
0.01000006
0.01000014
0.01000007
0.01000001
0.01
0.01
0.01
0.01
0.01
0.01
0.01000001
0.01000001
0.01000001
0.009954392
0.009779809
0.009586657
0.00938073
0.009166264
0.008945242
0.008717703
0.008484555
0.008246643
0.008004266
0.00775779
0.007508547
0.007259364
0.00701468
0.006780301
0.006562931
0.006369312
0.006205484
0.006076203
0.005984685
0.00593256
0.005920034
0.005946024
0.006008296
0.00610346
0.00622684
0.00637578
0.006546336
0.00673292
0.006930542
0.007135085
0.007343344
0.007552948
0.007762286
0.007970679
0.008178818
0.008388551
0.008601671
0.008818441
0.009036472
0.009254566
0.009474681
0.009700635
0.009935163
0.01000001
0.01000005
0.01000044
0.01000301
0.01000735
0.01000484
0.0100013
0.01000011
0.01
0.01
0.01
0.01000001
0.01000012
0.01000285
0.01002945
0.01002855
0.01000873
0.01000081
0.01000002
0.01
0.01
0.01
0.01
0.01
0.01
0.01
0.01000003
0.0100004
0.009848221
0.00955272
0.009237028
0.008905053
0.008561163
0.008208949
0.007850031