/*--------------------------------*- C++ -*----------------------------------*\
| =========                 |                                                 |
| \\      /  F ield         | foam-extend: Open Source CFD                    |
|  \\    /   O peration     | Version:     3.1                                |
|   \\  /    A nd           | Web:         http://www.extend-project.de       |
|    \\/     M anipulation  |                                                 |
\*---------------------------------------------------------------------------*/
FoamFile
{
    version     2.0;
    format      ascii;
    class       volScalarField;
    location    "17";
    object      omega;
}
// * * * * * * * * * * * * * * * * * * * * * * * * * * * * * * * * * * * * * //

dimensions      [0 0 -1 0 0 0 0];

internalField   nonuniform List<scalar> 
119952
(
304.4479
378.3925
354.2827
307.4248
274.2022
273.6022
275.9141
279.6495
284.2628
289.4645
295.0896
301.0203
307.1681
313.4856
319.9872
326.754
333.9219
341.6587
350.2276
360.2461
307.6373
303.6536
304.8576
260.5584
252.7168
248.4744
245.2898
242.5336
236.6822
149.051
649.2569
529.8953
443.7478
386.0456
346.272
317.9349
296.7954
280.3667
267.1879
251.0668
202.802
170.9029
150.4432
136.4937
126.5073
119.0914
113.4122
108.9185
105.2872
82.78506
80.36579
78.13392
76.32972
75.28017
75.1448
75.93234
77.33505
78.74413
80.06475
80.95472
81.08075
80.43697
79.02893
76.91041
74.17483
70.90716
67.35264
63.78289
61.41305
59.27013
57.10225
55.39493
54.03085
53.1533
52.4797
51.93189
51.46695
51.05254
50.67156
50.32057
50.00264
49.72131
49.47715
49.26494
49.07276
48.8794
48.64382
48.3065
47.81243
47.42129
46.79424
46.13981
45.71266
45.41615
45.20561
45.32716
46.22545
47.5233
47.44286
47.08207
46.56748
46.01471
45.44701
44.87411
44.30083
43.72838
43.15754
42.58946
42.02536
41.46669
40.91555
40.37267
39.83846
39.31384
38.79903
38.29489
37.80332
37.32601
36.85707
36.39807
35.9574
35.54517
35.17375
34.84247
34.54927
34.2914
34.06517
33.86608
33.68899
33.52844
33.37897
33.23545
33.09355
32.94999
32.80289
32.65325
32.51355
32.3872
32.27612
32.18377
32.11427
32.06849
32.04781
32.06008
32.1106
32.1981
32.30729
32.53715
32.90634
33.36626
33.90245
34.51334
35.17965
35.89236
36.64291
37.41439
38.18867
38.95511
39.70659
40.4407
41.15609
41.85265
42.53327
43.20945
43.90866
44.68008
45.59793
46.7639
48.30639
50.357
52.97696
56.01204
59.0357
61.67088
63.76648
65.28049
66.18202
66.48968
66.29779
65.73006
64.87388
63.72789
62.24237
60.4279
58.37683
56.22109
54.08671
52.06099
50.19558
48.51573
47.03264
45.73382
44.59521
43.63782
42.86529
42.25032
41.72611
44.29991
48.60925
51.739
54.10504
55.9721
57.54975
58.96023
60.27092
61.51593
62.70539
63.83507
64.8943
65.89478
66.85422
67.79323
68.73213
69.6863
70.66667
71.68425
72.74256
73.83947
74.9836
76.22006
77.64521
79.39111
81.57504
84.31177
87.66541
91.49342
95.78134
100.6845
105.3629
108.9879
111.1195
111.8168
109.928
106.3308
103.5501
101.6657
100.7421
100.7983
101.8172
103.5568
106.9144
116.6797
135.8466
152.4005
156.0488
150.074
139.4944
128.463
118.7337
110.4921
103.3885
97.0821
91.38034
86.20001
81.50863
77.25232
73.44525
70.0411
67.03009
64.39566
62.12826
60.20244
58.58436
57.23655
56.12279
55.207
54.46235
44.44916
43.84895
43.25492
42.62855
42.07319
41.61581
41.24551
40.96242
40.75434
40.60054
40.47631
40.35647
40.21471
40.02772
39.78218
39.4625
39.05542
38.55582
37.96662
37.29859
36.56774
35.79217
34.9898
34.1771
33.36826
32.57335
31.79539
31.03976
30.31336
29.62163
28.96841
28.35608
27.78584
27.25805
26.77237
26.32805
25.924
25.55894
25.23153
24.94064
24.68536
24.46509
24.2797
24.1298
24.01806
23.9479
23.91563
23.9133
23.94074
23.99684
24.08009
24.18853
24.32032
24.46972
24.68477
24.82471
24.93608
25.01628
25.05807
25.06115
25.02582
24.952
24.84029
24.6935
24.51546
24.31018
24.08314
23.84067
23.58893
23.33305
23.07646
22.82084
22.56675
22.31458
22.06559
21.82223
21.58806
21.3677
21.16652
20.99005
20.84372
20.73262
20.66133
20.63209
20.64309
20.68731
20.75055
20.81359
20.86846
20.90982
20.93501
20.94489
20.94343
20.93638
20.93012
20.93347
20.95214
20.9857
21.02757
21.07285
21.12108
21.17841
21.26505
21.42805
21.72977
22.28819
23.28232
24.58592
25.89435
27.20501
28.77653
30.87249
33.32977
35.94567
38.55678
40.89833
42.67901
43.68404
43.83346
43.18221
41.8865
40.15961
38.21727
36.22913
34.29621
32.47338
30.78794
29.25362
27.8557
26.57324
25.40045
24.3312
23.35638
22.46513
21.64612
20.87921
20.12813
19.34896
18.95336
778.6107
635.1331
551.539
494.9034
451.836
416.4815
386.2213
359.7573
335.2044
283.8717
230.5704
197.2211
175.0755
159.403
147.6073
138.2642
130.5467
123.9249
97.76371
93.25258
88.88618
84.7548
80.97154
77.61726
74.7233
72.29031
70.29501
68.67236
67.47226
66.48592
65.60361
64.80129
64.03982
63.26314
62.37815
61.36369
60.18841
59.09013
57.89296
56.15191
54.01648
51.62124
49.11813
46.66268
44.38808
42.39953
40.76896
39.53012
38.64543
38.06598
37.70173
37.46254
37.2837
37.12102
36.94795
36.76722
35.03215
34.86588
34.74812
34.68858
34.70406
34.81912
35.07011
35.52177
36.10437
36.70666
37.21575
37.51405
37.54389
37.30803
36.8516
36.24177
35.54541
34.82578
34.13368
33.51316
32.91274
32.32484
31.80648
31.35076
30.93669
30.55129
30.19151
29.85364
29.53416
29.23153
28.94588
28.67796
28.42835
28.19688
27.98267
27.78398
27.5984
27.42294
27.25557
27.0964
26.9435
26.78931
26.65386
26.56095
26.4896
26.43394
26.40027
26.36059
26.25677
26.11058
25.95844
25.79042
25.60889
25.41463
25.20776
24.98859
24.7571
24.51345
24.25813
23.9919
23.71563
23.43024
23.13665
22.83564
22.52815
22.21528
21.89843
21.57942
21.26098
20.94538
20.63521
20.33312
20.04169
19.76318
19.4994
19.25159
19.0203
18.80542
18.60624
18.42149
18.24945
18.08808
17.93508
17.78809
17.64478
17.50304
17.36106
17.21748
17.07144
16.92259
16.77112
16.61773
16.46375
16.31095
16.16215
16.02052
15.88793
15.7667
15.6612
15.57561
15.51231
15.47311
15.45919
15.47024
15.50442
15.55927
15.63161
15.71818
15.81632
15.92394
16.03978
16.16315
16.29397
16.433
16.58265
16.74795
16.93742
17.16338
17.44196
17.79191
18.23008
18.76265
19.37679
20.0463
20.74557
21.45532
22.16135
22.85519
23.53543
24.20257
24.84813
25.44687
25.95799
26.33684
26.54586
26.56215
26.37809
26.00181
25.45447
24.76987
23.98761
23.15116
22.30159
21.469
20.6595
19.89318
19.18137
18.52821
18.48871
18.28342
18.05812
17.82839
17.60607
17.39847
17.20956
17.04067
16.89095
16.75807
16.63922
16.53189
16.43442
16.3462
16.26737
16.19831
16.13952
16.0916
16.05512
16.03035
16.01743
16.01738
16.03279
16.0679
16.12829
16.22146
16.35824
16.55579
16.84138
17.25485
17.7854
18.36224
18.89187
19.27788
19.46384
19.4539
19.3162
19.17349
19.07357
19.05302
19.13959
19.38165
19.87332
20.72641
22.11554
23.98802
25.88093
27.63718
29.43383
31.27112
32.99677
34.49862
35.75227
36.74227
37.39688
37.62465
37.37677
36.6689
35.56632
34.16236
32.56174
30.86674
29.16908
27.55288
26.04498
24.6439
23.36734
22.22612
21.21931
20.34419
17.9447
17.31545
16.77289
16.30571
15.90338
15.5597
15.27132
15.03557
14.84997
14.71161
14.61689
14.56174
14.54114
14.54898
14.57768
14.61859
14.66241
14.69943
14.72013
14.7158
14.67918
14.60504
14.49055
14.33537
14.14164
13.91357
13.65689
13.37823
13.08458
12.78272
12.47887
12.17843
11.88589
11.60477
11.3377
11.08649
10.85225
10.63552
10.43646
10.25492
10.09054
9.942812
9.811142
9.694911
9.59349
9.506159
9.432052
9.370312
9.32037
9.281778
9.253975
9.236142
9.227188
9.22569
9.231079
9.239869
9.250715
9.263108
9.276236
9.289126
9.300738
9.310025
9.316011
9.317891
9.315082
9.307296
9.294595
9.277332
9.256023
9.23119
9.203237
9.172435
9.139004
9.103293
9.065852
9.027395
8.988788
8.951087
8.915454
8.883052
8.855066
8.832773
8.81735
8.809132
8.807469
8.814479
8.828655
8.845929
8.86197
8.873409
8.878634
8.877983
8.873403
8.8677
8.863652
8.863377
8.86802
8.877574
8.891049
8.907102
8.925286
8.947316
8.977559
9.023126
9.09461
9.205682
9.363363
9.56491
9.818545
10.15121
10.59898
11.18991
11.94236
12.868
13.96216
15.19689
16.52235
17.87269
19.17307
20.35412
21.36191
22.16252
22.74051
23.09318
23.22591
23.15301
22.89464
22.47835
21.93147
21.28518
20.56385
19.79731
19.00505
18.21366
17.43002
16.67569
15.95116
15.30154
14.71302
600.5903
534.5657
480.2699
440.1646
409.5547
386.0401
368.2246
355.5611
348.7749
342.2317
172.3614
161.4021
154.1427
149.8375
145.636
141.6814
137.9441
134.3027
130.8502
88.82773
84.85016
83.33826
82.21323
81.12842
79.99262
78.82718
77.64788
76.44853
75.23189
73.52555
71.4947
69.49685
67.7004
66.13419
64.76556
63.5486
62.44212
61.40193
61.29533
60.68931
59.81018
58.8012
57.74806
56.70004
55.68485
54.71654
53.80151
52.94557
52.13008
51.33673
50.55174
49.76213
48.96541
48.16547
47.36745
46.58108
42.76519
42.05798
41.38749
40.76142
40.19037
39.68783
39.26421
38.92013
38.64551
38.4226
38.23867
38.08666
37.93644
37.80694
37.70653
37.60016
37.44888
37.21072
36.84764
36.33664
35.67048
34.88377
34.02379
33.08571
32.14054
31.28037
30.6026
30.19297
30.10121
30.32046
30.78998
31.40995
32.06469
32.64948
33.08722
33.3318
33.3864
33.30121
33.19857
33.0826
32.96134
32.80202
32.57825
32.3157
32.11044
31.99788
31.96212
31.96389
31.94713
31.85373
31.6439
31.30733
30.85919
30.33065
29.75656
29.17007
28.59689
28.05953
27.56931
27.12052
26.71848
26.36395
26.04648
25.75121
25.46746
25.18955
24.91503
24.64388
24.37772
24.11885
23.86938
23.63086
23.4042
23.19
22.98881
22.80122
22.62733
22.46686
22.32094
22.18758
22.06532
21.9581
21.86272
21.77188
21.67913
21.58194
21.46622
21.33146
21.18719
21.03841
20.88461
20.72525
20.55963
20.38709
20.20709
20.01925
19.82342
19.6197
19.40835
19.1897
18.96406
18.73174
18.49305
18.24844
17.9986
17.74502
17.49185
17.23925
16.98885
16.74263
16.50264
16.27081
16.04876
15.83775
15.63856
15.45157
15.27674
15.11365
14.96156
14.81944
14.68604
14.56
14.43988
14.32431
14.212
14.10186
13.993
13.88471
13.77655
13.6683
13.56005
13.4522
13.34544
13.24075
13.13936
13.04288
12.95312
12.87219
12.802
12.74393
12.69888
12.66712
12.64815
12.641
12.64445
12.65726
12.67846
12.70739
12.74374
12.78736
12.83814
12.89604
12.96153
13.03602
13.1223
13.22469
13.34913
13.50305
13.69415
13.92772
14.20419
14.51915
14.86518
15.23334
15.61468
16.00246
16.39384
16.7884
17.184
17.57354
17.94344
18.27499
18.54716
18.73958
18.83518
18.82187
18.69445
18.45576
18.11701
17.69646
17.21795
16.70796
16.19275
15.67797
15.17558
14.69786
14.27798
13.88031
13.51357
13.18063
12.88189
12.61642
12.38226
12.17678
11.99705
11.84021
11.7038
11.58585
11.48487
11.39963
11.32908
11.27241
11.22922
11.19942
11.18295
11.17969
11.18908
11.20968
11.2389
11.27356
11.311
11.3506
11.39505
11.45114
11.52929
11.64145
11.79183
11.96432
12.12981
12.25919
12.33723
12.36745
12.36832
12.36484
12.37404
12.40745
12.47649
12.59768
12.78866
13.06364
13.42948
13.87265
14.37572
14.9362
15.54473
16.1753
16.79945
17.40758
18.00678
18.59827
19.16277
19.66464
20.06576
20.33396
20.44739
20.39823
20.19259
19.84738
19.38691
18.83995
18.2361
17.60366
16.96502
16.32981
15.70296
15.08613
14.51338
13.97562
13.47584
13.01557
12.59583
12.21749
11.88065
11.58436
11.32724
11.10779
10.92431
10.77481
10.65697
10.56804
10.50475
10.46336
10.43963
10.42891
10.42617
10.4262
10.42375
10.41376
10.39157
10.35319
10.2956
10.21704
10.11711
9.996777
9.858186
9.704375
9.53895
9.365746
9.188546
9.010853
8.835736
8.665733
8.502822
8.34844
8.20356
8.068768
7.944335
7.830274
7.726384
7.63232
7.547651
7.471911
7.404622
7.345343
7.293734
7.249532
7.212495
7.182252
7.158393
7.140228
7.127422
7.119098
7.114392
7.112681
7.113465
7.116256
7.120502
7.125571
7.130779
7.135466
7.139073
7.141219
7.141754
7.14076
7.138486
7.135226
7.131177
7.12637
7.120688
7.113988
7.106234
7.097504
7.087967
7.077892
7.067635
7.057587
7.048199
7.040106
7.034062
7.031202
7.033969
7.042368
7.054991
7.069144
7.081654
7.08993
7.092657
7.089946
7.083125
7.074325
7.065946
7.060101
7.05818
7.06052
7.06634
7.074149
7.082604
7.091479
7.102162
7.117633
7.142175
7.180904
7.238353
7.318089
7.426826
7.576401
7.781437
8.05616
8.413704
8.865404
9.417578
10.06792
10.80325
11.59939
12.42397
13.24124
14.01749
14.72642
15.35144
15.88621
16.3286
16.67942
16.93957
17.11228
17.1991
17.20434
17.12809
16.97658
16.75022
16.46242
16.11459
15.72961
15.30699
14.87809
14.44181
346.0517
253.3039
356.4437
162.0626
126.8978
92.38614
80.05251
69.61713
61.10444
56.96937
55.2859
54.38235
53.65645
53.21654
52.8114
52.64185
52.66227
52.77945
52.97785
53.19196
53.35033
53.47251
53.91046
54.65242
55.45474
56.32056
57.13922
57.83952
58.40633
58.78529
58.96635
57.76268
57.5555
57.28583
56.94252
56.52052
56.02544
55.46621
54.85408
54.20402
53.52737
52.82568
52.10368
51.36296
50.60981
49.84805
49.08458
48.33176
47.59552
46.88064
46.19414
45.53941
44.91198
44.30739
43.7231
43.15825
42.61296
42.08779
41.58152
41.09022
40.6079
40.12609
39.63788
39.14351
38.64828
38.15648
37.66742
37.16979
36.72328
36.27726
35.84979
35.45757
35.11817
34.84676
34.64545
34.49691
34.37131
34.2441
34.10775
33.96758
33.8536
33.76495
33.68874
33.60119
33.47102
33.26585
32.95835
32.52942
31.97307
31.3046
30.57194
29.8576
29.23366
28.80408
28.6829
28.96696
29.68475
30.77741
32.11801
33.53078
34.84152
35.92468
36.69562
37.09886
37.15278
36.97398
36.71798
36.49156
36.27967
35.97025
35.46652
34.77264
34.02197
33.29032
32.61414
32.00005
31.43099
30.87663
30.30821
29.71061
29.08422
28.4407
27.79721
27.1712
26.57791
26.02922
25.53136
25.08467
24.68793
24.33675
24.02094
23.72714
23.44403
23.16475
22.88642
22.609
22.33413
22.0642
21.80154
21.54804
21.30505
21.07365
20.85489
20.6498
20.45906
20.28284
20.12056
19.97036
19.82975
19.69705
19.5691
19.44208
19.31282
19.1803
19.04197
18.89742
18.7495
18.60048
18.45048
18.29884
18.14479
17.98761
17.82664
17.66137
17.49144
17.31669
17.13711
16.95278
16.7638
16.57022
16.37208
16.16949
15.96272
15.75258
15.54141
15.331
15.12187
14.91563
14.71391
14.51824
14.32991
14.14993
13.97895
13.81738
13.66536
13.52279
13.38935
13.26446
13.14742
13.0374
12.93356
12.83506
12.74111
12.65099
12.56406
12.4798
12.39777
12.31767
12.23932
12.1627
12.08791
12.01514
11.94458
11.877
11.81301
11.75354
11.6996
11.65215
11.61186
11.57901
11.55348
11.53481
11.52242
11.51577
11.51452
11.51856
11.52798
11.54288
11.56319
11.5886
11.61873
11.65353
11.69361
11.74043
11.79636
11.86489
11.9505
12.05784
12.19029
12.34857
12.52999
12.72889
12.93855
13.15364
13.3715
13.59167
13.81435
14.03867
14.26104
14.4744
14.66839
14.83051
14.94766
15.00744
15.00009
14.92029
14.76807
14.54932
14.27491
13.95974
13.62101
13.27638
12.93216
12.59662
12.27876
11.9833
11.71278
11.46831
11.25008
11.05751
10.8894
10.74416
10.62003
10.51533
10.42865
10.35876
10.30445
10.26456
10.23827
10.2254
10.22631
10.2413
10.27025
10.31249
10.36607
10.42654
10.4872
10.54099
10.58282
10.61128
10.62979
10.64647
10.67308
10.72334
10.80746
10.91568
11.02522
11.11294
11.16677
11.18901
11.1918
11.19045
11.19489
11.21131
11.2456
11.3068
11.40497
11.54607
11.73303
11.9637
12.23346
12.53862
12.8732
13.22605
13.58567
13.9481
14.31663
14.69239
15.06439
15.4114
15.7089
15.93424
16.07053
16.10867
16.04677
15.88947
15.64713
15.33377
14.96577
14.55887
14.12809
13.68637
13.24582
12.81597
12.3993
11.9958
11.60749
11.23837
10.89128
10.56808
10.27
9.997696
9.751344
9.530794
9.335635
9.165134
9.018297
8.893865
8.790308
8.705818
8.638292
8.585321
8.544222
8.5121
8.485931
8.462653
8.43931
8.412858
8.380449
8.339773
8.289168
8.227737
8.155375
8.072708
7.980977
7.881871
7.777354
7.669493
7.560311
7.451655
7.345111
7.241955
7.143157
7.049404
6.961125
6.878512
6.801566
6.730165
6.664126
6.603254
6.54738
6.496376
6.450164
6.408716
6.372046
6.34017
6.313111
6.290812
6.273092
6.259664
6.25025
6.24457
6.242288
6.242999
6.246214
6.251358
6.257784
6.264831
6.271913
6.278616
6.28477
6.290485
6.296106
6.302068
6.308693
6.316024
6.323772
6.331429
6.338491
6.34458
6.349417
6.352801
6.354609
6.354779
6.353373
6.350769
6.348033
6.347178
6.349815
6.356836
6.367696
6.380218
6.391367
6.398528
6.400288
6.396522
6.388201
6.377159
6.3657
6.356087
6.350103
6.348626
6.351286
6.35657
6.362478
6.367532
6.371538
6.375606
6.381692
6.392499
6.411158
6.440837
6.485497
6.551213
6.645577
6.776676
6.952582
7.180914
7.467751
7.815911
8.223229
8.681573
9.177057
9.691726
10.20667
10.70532
11.1755
11.60995
12.00556
12.36177
12.67853
12.95665
13.19588
13.39629
13.55603
13.67481
13.75011
13.78251
13.77079
13.7182
13.62524
13.49738
13.34557
309.745
208.9931
158.2826
139.8555
113.6272
94.36022
80.89157
75.52345
69.60862
66.17134
63.24733
59.39021
55.57527
52.0096
48.8082
45.33189
39.76956
38.58536
37.76028
37.38728
37.43334
37.77933
38.27718
38.88961
39.62016
40.41951
41.27681
42.19183
43.16405
44.19668
45.2934
46.45124
47.66309
48.93225
50.20124
51.42803
52.65434
53.583
54.28225
54.75536
55.08513
55.20384
54.98425
54.66302
54.23491
53.69835
53.07587
52.3938
51.66935
50.92255
50.16829
49.41641
48.67122
47.9334
47.20512
46.48577
45.78759
45.11116
44.46105
43.84039
43.25247
42.70008
42.18225
41.69379
41.22856
40.78148
40.34955
39.93229
39.53086
39.14464
38.76807
38.39099
38.0013
37.59253
37.16977
36.74615
36.33084
35.92491
35.52227
35.12927
34.763
34.44537
34.1994
34.05193
34.01246
34.04946
34.08996
34.05969
33.93066
33.73588
33.53432
33.34245
33.17132
33.01594
32.8544
32.65639
32.39388
32.04812
31.61069
31.08506
30.49194
29.87757
29.33351
29.01128
29.06157
29.63669
30.8316
32.60172
34.77135
37.10154
39.30751
41.18747
42.65325
43.63903
44.06235
43.95024
43.50463
42.99993
42.64253
42.37534
41.93355
41.13344
39.95037
38.57245
37.16482
35.81457
34.56772
33.43352
32.3977
31.43521
30.52451
29.65443
28.82284
28.03352
27.29323
26.60873
25.98452
25.42126
24.91655
24.4665
24.06449
23.69969
23.35883
23.03043
22.7073
22.38667
22.06874
21.75526
21.4485
21.15064
20.86333
20.58766
20.32433
20.07405
19.83751
19.61514
19.4068
19.21141
19.02708
18.85143
18.68193
18.51597
18.35132
18.18656
18.02114
17.85489
17.68835
17.52271
17.35882
17.19677
17.03613
16.87632
16.71666
16.5565
16.39522
16.23236
16.0676
15.9008
15.73187
15.56079
15.38751
15.21198
15.03416
14.85417
14.6724
14.48987
14.30894
14.13025
13.9549
13.78401
13.61862
13.45955
13.30742
13.16262
13.02538
12.89579
12.77383
12.65928
12.5518
12.45097
12.3563
12.2673
12.18348
12.10437
12.02954
11.95859
11.89117
11.82696
11.76576
11.70742
11.65186
11.599
11.54872
11.50106
11.45577
11.41261
11.37171
11.33359
11.29908
11.26906
11.24408
11.22416
11.20893
11.19776
11.19014
11.18578
11.18476
11.18746
11.19426
11.2052
11.21971
11.23678
11.25531
11.27462
11.29461
11.31584
11.33976
11.3692
11.40847
11.46252
11.53461
11.62412
11.72634
11.83478
11.94439
12.05316
12.16177
12.27209
12.38573
12.50292
12.62161
12.73713
12.84231
12.92807
12.98454
13.00259
12.97534
12.89929
12.775
12.60701
12.40337
12.17465
11.93302
11.68998
11.45084
11.22171
11.00716
10.81013
10.63233
10.47455
10.33691
10.21908
10.12048
10.04048
9.978485
9.933907
9.905786
9.89263
9.893152
9.907344
9.936629
9.982812
10.04634
10.12585
10.21898
10.32119
10.42347
10.51409
10.58325
10.62579
10.642
10.63842
10.62682
10.62185
10.63984
10.69247
10.77263
10.86041
10.93525
10.98213
11.00052
11.00107
10.99407
10.98614
10.98136
10.98335
10.99831
11.03272
11.09091
11.1758
11.2875
11.42362
11.58233
11.76243
11.96162
12.17673
12.40589
12.64817
12.89949
13.14965
13.38429
13.58777
13.74588
13.8475
13.88484
13.85369
13.75415
13.5907
13.37144
13.10656
12.80703
12.48344
12.14536
11.80102
11.45713
11.11916
10.79204
10.47851
10.17861
9.892648
9.621972
9.367662
9.130548
8.911211
8.709953
8.526819
8.361636
8.214035
8.083469
7.969211
7.870346
7.785742
7.714036
7.653637
7.60274
7.55938
7.521697
7.487689
7.455491
7.423251
7.389022
7.351301
7.309073
7.26173
7.209093
7.151379
7.089144
7.023204
6.954538
6.884204
6.813247
6.742627
6.673166
6.605512
6.540139
6.477342
6.417261
6.35992
6.305285
6.253317
6.204005
6.157383
6.113521
6.072524
6.034535
5.99977
5.968528
5.941196
5.91815
5.89961
5.88558
5.875927
5.870449
5.868871
5.87084
5.875909
5.883517
5.892991
5.903603
5.914692
5.925809
5.936828
5.948003
5.959936
5.973383
5.988894
6.0065
6.025614
6.045163
6.064005
6.081239
6.096187
6.108319
6.117205
6.122519
6.124161
6.122641
6.119439
6.116736
6.116971
6.12201
6.131985
6.144631
6.156181
6.163343
6.164431
6.159241
6.148648
6.13448
6.119289
6.105811
6.096514
6.093019
6.095357
6.101777
6.10933
6.115176
6.117885
6.11761
6.115425
6.112795
6.111336
6.113202
6.121731
6.141142
6.17625
6.232404
6.315016
6.429423
6.58045
6.771453
7.003027
7.272083
7.57193
7.893267
8.225672
8.559153
8.885467
9.198489
9.494478
9.771568
10.02892
10.26701
10.48636
10.68773
10.87082
11.03532
11.17976
11.30341
11.4053
11.48477
11.54203
11.57441
11.58675
159.6704
117.7125
180.1383
88.20615
75.416
64.24843
60.93298
58.54928
55.93096
54.84929
53.4633
51.50701
49.68463
47.76315
45.5156
41.00646
39.99695
39.068
38.18659
37.3558
36.53179
35.75592
35.08071
34.53496
34.14091
33.90016
33.73994
33.61302
33.67631
33.96392
34.46786
35.1421
35.94186
36.83587
37.78983
38.79364
39.84971
40.96097
42.12428
43.35262
44.66247
46.01603
47.37277
48.74162
49.92013
50.88356
51.62569
52.10805
52.33755
52.32576
52.09196
51.67272
51.09271
50.40754
49.63964
48.80604
47.93576
47.06463
46.21671
45.41568
44.67276
44.001
43.40025
42.87587
42.41742
42.00672
41.64071
41.31729
41.02536
40.76078
40.52566
40.32129
40.13941
39.96646
39.7921
39.61037
39.41864
39.21866
39.01535
38.80977
38.59344
38.35074
38.06715
37.7434
37.40126
37.0701
36.76521
36.48203
36.21464
35.98064
35.81829
35.76569
35.87558
36.21917
36.75983
37.32156
37.67521
37.68107
37.36162
36.89672
36.3898
35.89202
35.43109
35.01154
34.61255
34.20075
33.7509
33.25387
32.71471
32.15115
31.59762
31.11442
30.80895
30.89939
31.66712
33.28374
35.72114
38.72896
41.96199
45.09779
47.81299
49.9876
51.61662
52.67668
53.01551
52.61616
51.78819
51.00021
50.54311
50.18284
49.57007
48.44233
46.76324
44.76014
42.68947
40.69019
38.83578
37.15753
35.65452
34.30394
33.07728
31.95331
30.91891
29.96575
29.09001
28.29037
27.56283
26.90143
26.29898
25.74918
25.2457
24.77982
24.33971
23.91557
23.50138
23.09524
22.69789
22.31105
21.93648
21.57563
21.22939
20.89802
20.5813
20.27901
19.99105
19.7172
19.45697
19.20919
18.9721
18.74367
18.52187
18.30496
18.09167
17.88145
17.67423
17.47029
17.27021
17.07457
16.8837
16.6976
16.51596
16.33831
16.16406
15.99254
15.82309
15.65517
15.48832
15.32224
15.15674
14.99169
14.82703
14.66267
14.4986
14.33484
14.17166
14.00961
13.84993
13.69426
13.54328
13.39759
13.25764
13.12373
12.99604
12.87464
12.75956
12.65078
12.54815
12.45146
12.36044
12.27483
12.19438
12.11885
12.048
11.9816
11.91937
11.86098
11.80611
11.75457
11.70632
11.6614
11.61989
11.58186
11.54768
11.51674
11.48795
11.46019
11.4329
11.4065
11.38246
11.36256
11.34799
11.33877
11.33395
11.33218
11.33238
11.33407
11.33752
11.34354
11.35298
11.36595
11.3814
11.39728
11.41126
11.42131
11.42613
11.42495
11.41749
11.40558
11.39398
11.38994
11.39982
11.42467
11.4594
11.4964
11.5304
11.56068
11.58969
11.62065
11.65626
11.69813
11.74637
11.79906
11.8521
11.89947
11.934
11.94831
11.93586
11.89199
11.81481
11.70548
11.56812
11.40926
11.23707
11.0604
10.88615
10.71886
10.56233
10.41924
10.29135
10.17972
10.08495
10.00729
9.946956
9.90427
9.879595
9.8728
9.882673
9.906762
9.94387
9.996404
10.06909
10.16601
10.28711
10.42726
10.57959
10.73459
10.87674
10.99026
11.06669
11.10382
11.1047
11.07998
11.04613
11.02048
11.02076
11.05605
11.12276
11.2063
11.28335
11.32915
11.34036
11.33027
11.30712
11.27681
11.24231
11.20688
11.17623
11.15538
11.14831
11.15813
11.18555
11.22993
11.29206
11.37372
11.4761
11.59963
11.74342
11.90308
12.06964
12.23218
12.38046
12.50566
12.60019
12.6574
12.67156
12.63835
12.55581
12.42506
12.25029
12.03794
11.79565
11.53126
11.25227
10.96537
10.67622
10.38932
10.10822
9.835637
9.573859
9.324478
9.087523
8.863127
8.651887
8.454264
8.27058
8.101017
7.945603
7.804206
7.676554
7.562245
7.460746
7.371385
7.293324
7.225542
7.166839
7.115978
7.071475
7.031775
6.995415
6.961078
6.927673
6.894006
6.85911
6.822318
6.783225
6.741691
6.697815
6.651879
6.604293
6.555537
6.506117
6.456535
6.407245
6.358603
6.310832
6.264019
6.218151
6.173187
6.129104
6.085945
6.043832
6.002957
5.963542
5.925816
5.890042
5.856598
5.826035
5.799075
5.776488
5.758829
5.74627
5.738741
5.736059
5.737921
5.743906
5.753478
5.765968
5.780576
5.796435
5.81277
5.829113
5.84546
5.862356
5.880881
5.902363
5.927729
5.956852
5.988403
6.020266
6.050323
6.077059
6.099539
6.117132
6.129287
6.135639
6.136172
6.13169
6.124267
6.116977
6.113404
6.116629
6.127363
6.142556
6.156678
6.16515
6.166052
6.159372
6.146062
6.128058
6.108407
6.090643
6.078382
6.074318
6.078834
6.089524
6.101807
6.11085
6.113988
6.111003
6.102394
6.089186
6.072805
6.055069
6.038436
6.02634
6.023134
6.033081
6.060311
6.108948
6.18306
6.286061
6.419464
6.581783
6.768603
6.97377
7.190493
7.412293
7.633768
7.850475
8.059283
8.258507
8.447086
8.624851
8.791578
8.94775
9.093316
9.228793
9.35377
9.468527
9.57266
9.666429
9.749527
9.820398
9.878341
65.71348
48.57827
46.44178
44.02992
42.95731
41.65532
40.58694
39.6677
38.8739
37.68879
34.90247
34.67443
34.46732
34.27815
34.0747
33.84731
33.63313
33.45988
33.33913
33.25916
33.08703
32.70649
32.33873
31.99502
31.68017
31.3993
31.17309
31.01818
30.9407
30.94514
31.02709
31.18176
31.43088
31.80004
32.31004
32.95971
33.74861
34.65402
35.63872
36.68485
37.78707
38.95205
40.19468
41.48021
42.82552
44.2839
45.67886
46.89685
47.92215
48.69473
49.19334
49.41563
49.35852
49.0321
48.46752
47.69731
46.77456
45.7526
44.67751
43.60409
42.57625
41.63576
40.81672
40.14464
39.63084
39.3022
39.1589
39.17197
39.31045
39.53461
39.80357
40.08886
40.3849
40.68083
40.96937
41.26248
41.56246
41.84579
42.08935
42.27871
42.41008
42.48936
42.53313
42.55717
42.55685
42.50139
42.35295
42.09735
41.77418
41.46196
41.21923
41.04716
40.91376
40.82021
40.8269
41.01685
41.45129
42.24438
43.53684
45.11114
46.45408
47.11023
46.92716
46.10056
45.01907
43.83396
42.64481
41.49309
40.41188
39.42263
38.4972
37.60783
36.75224
35.95229
35.24562
34.68747
34.36546
34.42786
35.13982
36.91258
39.77745
43.37117
47.19798
50.96335
54.43807
57.27792
59.45791
61.05145
62.10861
62.43409
61.91347
60.87749
59.87938
59.37064
59.03342
58.19389
56.69137
54.56452
52.04849
49.39514
46.80485
44.40383
42.238
40.32111
38.62612
37.1149
35.75875
34.53795
33.43565
32.43625
31.52849
30.69692
29.92686
29.20283
28.5135
27.85447
27.22503
26.62062
26.03752
25.47373
24.92939
24.40588
23.90432
23.42508
22.96796
22.53239
22.1172
21.72074
21.34123
20.97721
20.62703
20.29041
19.96637
19.65366
19.35108
19.05748
18.77201
18.49403
18.22356
17.96059
17.70561
17.45888
17.22054
16.99061
16.76892
16.55517
16.34896
16.14976
15.95691
15.76972
15.58746
15.40952
15.23541
15.06479
14.89743
14.73328
14.57233
14.41463
14.26025
14.1093
13.96202
13.81883
13.68073
13.5489
13.42329
13.30372
13.18997
13.08187
12.97937
12.88243
12.79098
12.7047
12.62323
12.54628
12.4737
12.4054
12.34134
12.28149
12.22574
12.17376
12.12503
12.07911
12.03589
11.9957
11.95906
11.9266
11.89958
11.87837
11.86189
11.84814
11.83456
11.81955
11.8039
11.7908
11.78397
11.78539
11.79429
11.80798
11.82349
11.83887
11.85358
11.86836
11.88478
11.90432
11.92703
11.95072
11.97159
11.98564
11.98935
11.97988
11.95482
11.91251
11.85418
11.7864
11.7211
11.6694
11.63406
11.60813
11.58174
11.54991
11.51393
11.47804
11.44623
11.42139
11.40564
11.3999
11.40335
11.41348
11.42627
11.4365
11.43831
11.42598
11.39476
11.34176
11.26639
11.17052
11.05811
10.93455
10.80595
10.67832
10.55577
10.44159
10.33846
10.24842
10.17298
10.11319
10.06966
10.04294
10.03428
10.04515
10.07554
10.1233
10.18522
10.2613
10.35783
10.48484
10.65048
10.85147
11.07186
11.29489
11.50316
11.67508
11.79863
11.87278
11.89903
11.88279
11.83949
11.79107
11.75601
11.7484
11.77428
11.83951
11.92899
12.00566
12.03739
12.0259
11.98812
11.93326
11.86651
11.78993
11.70738
11.62463
11.54657
11.47771
11.42173
11.38066
11.35513
11.34673
11.35754
11.3891
11.44277
11.51829
11.60969
11.70476
11.79186
11.86476
11.92109
11.95881
11.97458
11.96359
11.92051
11.84118
11.72423
11.57147
11.38723
11.17732
10.94811
10.70587
10.45627
10.20403
9.952818
9.705395
9.463885
9.230028
9.005252
8.790689
8.587047
8.394391
8.212947
8.043089
7.885114
7.739171
7.605231
7.483096
7.372453
7.272917
7.184039
7.105268
7.035893
6.975083
6.92179
6.874847
6.833097
6.795424
6.760783
6.728242
6.696995
6.666225
6.635264
6.603639
6.571088
6.537551
6.503101
6.46786
6.431955
6.395523
6.358741
6.321824
6.284943
6.248127
6.211253
6.174118
6.13656
6.098545
6.060194
6.021772
5.983643
5.946195
5.909789
5.874816
5.841831
5.811669
5.785401
5.764154
5.748792
5.739649
5.736672
5.739559
5.747768
5.760615
5.777326
5.797025
5.818723
5.84137
5.864079
5.886439
5.908669
5.931747
5.957486
5.988061
6.024847
6.067574
6.113813
6.159677
6.20139
6.236535
6.264047
6.283565
6.294817
6.297613
6.292347
6.280605
6.26555
6.25143
6.243194
6.245403
6.259178
6.279846
6.299266
6.311087
6.313053
6.305618
6.289992
6.268157
6.243717
6.221234
6.206075
6.202626
6.21143
6.228855
6.247806
6.260613
6.263417
6.255693
6.238252
6.212718
6.180909
6.14474
6.106529
6.069407
6.037291
6.014479
6.004456
6.010601
6.036601
6.086043
6.160813
6.259497
6.377806
6.510677
6.653381
6.801458
6.951099
7.099178
7.243218
7.381603
7.513179
7.637595
7.754552
7.864437
7.967137
8.063118
8.151895
8.234025
8.309131
8.378328
8.441207
8.498357
8.546419
88.94491
37.33589
30.91477
29.50544
28.72521
28.32873
28.21473
28.27051
28.45254
28.72657
28.94729
28.98154
29.01888
29.04788
29.07024
29.0822
29.09219
29.10234
29.10316
29.07613
29.00028
28.88952
28.79158
28.7159
28.66847
28.65432
28.68236
28.75922
28.88374
29.05714
29.28351
29.57146
29.93476
30.38446
30.93801
31.63579
32.48404
33.45405
34.53317
35.6875
36.90199
38.18563
39.62424
41.04303
42.4424
43.75804
44.89642
45.78384
46.38105
46.66092
46.61558
46.25959
45.61878
44.73177
43.65249
42.43767
41.15876
39.88584
38.68302
37.62654
36.78416
36.21124
35.95017
36.01753
36.39276
37.08302
38.06668
39.25533
40.56077
41.89026
43.16835
44.35635
45.45789
46.45479
47.35625
48.21092
49.02181
49.74144
50.34814
50.83521
51.19995
51.45669
51.65028
51.82481
51.96662
51.99873
51.83739
51.46062
50.98628
50.60377
50.40817
50.35334
50.35053
50.42477
50.71775
51.37343
52.49705
54.23485
56.55035
58.91485
60.51441