/*--------------------------------*- C++ -*----------------------------------*\
| =========                 |                                                 |
| \\      /  F ield         | foam-extend: Open Source CFD                    |
|  \\    /   O peration     | Version:     3.1                                |
|   \\  /    A nd           | Web:         http://www.extend-project.de       |
|    \\/     M anipulation  |                                                 |
\*---------------------------------------------------------------------------*/
FoamFile
{
    version     2.0;
    format      ascii;
    class       volScalarField;
    location    "8";
    object      omega;
}
// * * * * * * * * * * * * * * * * * * * * * * * * * * * * * * * * * * * * * //

dimensions      [0 0 -1 0 0 0 0];

internalField   nonuniform List<scalar> 
119952
(
338.1618
423.1077
396.5443
343.4727
306.8037
307.5102
311.9001
318.4992
326.7363
336.2639
346.835
358.266
370.3897
382.9693
395.7575
408.6996
421.7727
434.9718
448.3991
462.8283
387.6212
384.3776
384.976
320.9572
309.7397
298.9431
282.112
241.6311
199.2773
183.649
762.6079
631.388
533.7749
465.6094
415.7414
377.57
347.0483
321.9237
300.6314
276.3845
227.2285
193.7372
171.144
154.9545
142.6585
132.8891
124.8663
118.1424
112.3919
87.82858
84.61456
81.5435
78.6339
75.95408
73.52444
71.32486
69.32264
67.49534
65.84459
64.41402
63.01233
61.6428
60.31744
59.03892
57.80412
56.59973
55.39596
54.19117
54.0306
53.95259
53.33963
52.79494
52.27384
51.78544
51.18277
50.46753
49.65597
48.7762
47.85816
46.93588
46.0406
45.1998
44.43861
43.77769
43.23289
42.80834
42.49008
42.22095
41.99424
42.15277
42.33151
42.5656
43.84037
46.53398
51.28744
59.91494
71.84675
82.13466
90.03844
97.43306
104.4913
109.9332
111.416
107.7925
100.0777
90.53728
81.28622
73.45264
67.24475
62.37942
58.46655
55.202
52.39026
49.90765
47.67302
45.63512
43.76078
42.03702
40.45991
39.04296
37.76781
36.61457
35.56722
34.61624
33.75015
32.95806
32.23187
31.56497
30.95185
30.38765
29.86837
29.39136
28.95491
28.55743
28.19731
27.87299
27.583
27.32584
27.09998
26.90382
26.73563
26.59373
26.47643
26.3821
26.3088
26.25312
26.21567
26.37061
26.61759
26.83525
27.00619
27.13634
27.23632
27.31612
27.3837
27.44496
27.50406
27.56403
27.6278
27.70052
27.79008
27.89265
28.00539
28.12706
28.25699
28.39477
28.54011
28.69273
28.85235
29.01856
29.19072
29.36699
29.54229
29.71945
29.90074
30.08668
30.27769
30.47407
30.67532
30.87977
31.09125
31.31163
31.53919
31.77466
32.01885
32.27243
32.53602
32.8103
33.09592
33.39347
33.70348
34.0265
34.36276
34.71191
35.0723
35.43644
35.74344
38.3106
42.72245
45.68403
47.68213
49.08362
50.12
50.93387
51.61042
52.20285
52.74891
53.27096
53.78348
54.2955
54.81249
55.33943
55.87861
56.43264
57.00361
57.59385
58.20492
58.838
59.49495
60.1774
60.88618
61.62279
62.38862
63.18552
64.01463
64.87803
65.77758
66.70317
67.6736
68.66905
69.65048
70.56709
70.42021
69.28456
68.2844
67.33012
66.41742
65.53447
64.67685
63.84024
63.02243
62.22267
61.44073
60.67063
59.91179
59.16643
58.43618
57.72207
57.02468
56.34431
55.68093
55.03443
54.40453
53.79087
53.19304
52.61055
52.04293
51.48961
50.9502
50.42431
49.91134
49.41081
48.92233
48.44536
47.97977
47.52759
47.08422
37.90779
37.43468
36.87355
36.22477
35.58763
34.99096
34.43933
33.93766
33.48897
33.09121
32.73966
32.42899
32.15275
31.90481
31.67959
31.4721
31.27813
31.09414
30.91731
30.74543
30.5768
30.41013
30.24452
30.07935
29.91423
29.74886
29.58235
29.41438
29.2452
29.07507
28.90432
28.73325
28.56221
28.3915
28.22143
28.05225
27.88423
27.7176
27.55259
27.38944
27.22845
27.07
26.91484
26.7646
26.62312
26.49447
26.37488
26.25875
26.14649
26.03789
25.93259
25.83154
25.73644
25.65152
25.63504
25.52931
25.41234
25.2857
25.14788
25.00077
24.84702
24.69017
24.53363
24.38015
24.23174
24.0897
23.95477
23.82715
23.70671
23.59303
23.48552
23.38349
23.28622
23.193
23.10317
23.01613
22.93132
22.84827
22.76661
22.68598
22.60613
22.52683
22.44792
22.36926
22.29078
22.2124
22.13412
22.05591
21.97781
21.89983
21.82201
21.74439
21.66703
21.58996
21.51323
21.43687
21.36093
21.28542
21.21038
21.13582
21.06175
20.98818
20.91512
20.84257
20.7705
20.69893
20.62782
20.55716
20.48693
20.41712
20.34768
20.2786
20.20985
20.14139
20.07319
20.00521
19.93742
19.86976
19.80218
19.73464
19.66707
19.59939
19.53151
19.46333
19.39469
19.32544
19.25535
19.18412
19.11135
19.03651
18.95873
18.87681
18.78858
18.69014
18.57269
18.41683
18.17923
17.81356
17.73483
633.5275
575.1045
536.3851
495.0296
456.5667
422.6254
392.9875
367.0346
343.264
275.4493
207.6742
173.5247
154.7205
143.2232
135.2532
129.0549
123.8078
119.1005
94.55
89.73173
85.18713
81.06157
77.44091
74.3123
71.61218
69.26608
67.20526
65.36092
63.74823
62.18986
60.61078
59.0367
57.49673
56.01538
54.60525
53.27026
52.0061
51.12998
50.49047
49.68737
48.78158
47.8216
46.84041
45.86279
44.90626
43.98308
43.10449
42.27925
41.50151
40.77102
40.08559
39.44185
38.83914
38.27788
37.75878
37.2927
33.96074
33.64319
33.36184
33.11259
32.88793
32.67999
32.484
32.29542
32.11029
31.92357
31.73554
31.5404
31.33834
31.12949
30.91517
30.69539
30.4733
30.25431
30.04894
29.85737
29.64763
29.4059
29.17554
28.95376
28.72062
28.46364
28.1823
27.87753
27.5526
27.2137
26.86906
26.52767
26.198
25.8871
25.60155
25.34768
25.12941
24.95072
24.82086
24.75413
24.76627
24.87551
25.13872
25.61943
26.37624
27.51086
29.13512
31.22701
33.83975
37.08183
41.04948
45.74837
50.8951
55.9669
60.43427
63.87942
66.02241
66.7345
66.07606
64.26254
61.57888
58.36096
54.94792
51.61954
48.54901
45.80312
43.37634
41.22723
39.30475
37.56282
35.96592
34.48936
33.11774
31.84218
30.65482
29.54882
28.51693
27.5537
26.65438
25.8136
25.02624
24.2881
23.59562
22.94574
22.33595
21.7642
21.22874
20.72812
20.26104
19.82627
19.42257
19.04868
18.70322
18.38479
18.09186
17.82288
17.57633
17.35159
17.14835
16.96472
16.7991
16.64988
16.51534
16.3938
16.28379
16.18396
16.09314
16.01027
15.93441
15.86474
15.80051
15.74097
15.68538
15.63301
15.58317
15.53525
15.48871
15.4431
15.39806
15.35334
15.30881
15.26443
15.22032
15.17665
15.13343
15.09071
15.0488
15.00846
14.97107
14.93651
14.90421
14.8741
14.84625
14.82081
14.79803
14.77818
14.76132
14.74772
14.73765
14.7314
14.72898
14.7305
14.73565
14.74439
14.75571
14.76924
14.78243
14.78431
15.12274
15.52195
15.80561
16.01067
16.16142
16.27391
16.35892
16.42352
16.47244
16.50897
16.53532
16.55294
16.56282
16.56572
16.56223
16.55285
16.53807
16.5184
16.49438
16.46651
16.4353
16.40126
16.36502
16.32705
16.28772
16.24747
16.20667
16.16558
16.12438
16.08313
16.0418
15.99949
15.95467
15.90339
15.83814
15.75129
15.65839
15.56771
15.4782
15.38949
15.30209
15.21633
15.13239
15.05047
14.97071
14.89318
14.81791
14.7449
14.67409
14.60539
14.53872
14.47395
14.41099
14.34973
14.29007
14.23191
14.17517
14.11974
14.06557
14.01257
13.9607
13.90988
13.86008
13.81125
13.76336
13.7164
13.67039
13.62537
13.58182
13.54291
12.1404
12.07436
12.02174
11.97571
11.93276
11.89155
11.85162
11.81262
11.77421
11.7362
11.6985
11.66106
11.62389
11.58702
11.55046
11.51425
11.47842
11.44298
11.40796
11.37335
11.33914
11.30532
11.27186
11.23874
11.20592
11.17337
11.14106
11.10895
11.077
11.04518
11.01346
10.98183
10.95026
10.91875
10.88729
10.85589
10.82454
10.79329
10.76215
10.73118
10.70046
10.67011
10.64032
10.61131
10.5832
10.55591
10.52906
10.50241
10.47603
10.45007
10.42452
10.39943
10.37482
10.35252
10.33255
10.30928
10.28373
10.25787
10.23229
10.2069
10.1815
10.15591
10.13001
10.1037
10.07691
10.04958
10.02168
9.993223
9.9642
9.934631
9.904543
9.873968
9.842943
9.81151
9.779711
9.747591
9.715195
9.682569
9.649756
9.616799
9.583741
9.55062
9.517473
9.484337
9.451245
9.418226
9.38531
9.352522
9.319886
9.287423
9.255151
9.223084
9.191237
9.159618
9.128234
9.097089
9.066184
9.035516
9.005083
8.974877
8.944889
8.915107
8.885519
8.856111
8.826865
8.797765
8.768792
8.739928
8.711152
8.682445
8.653789
8.625161
8.596545
8.567919
8.539267
8.510564
8.481798
8.452941
8.423981
8.394885
8.365642
8.336206
8.306566
8.276656
8.246459
8.215871
8.184864
8.15326
8.120997
8.087746
8.053333
8.017074
7.978432
7.935921
7.888327
7.834061
7.774593
7.717721
7.666324
583.6718
511.8228
453.2685
410.2204
377.4528
351.97
331.6398
315.2935
301.9156
283.8762
183.292
170.9663
160.9993
152.6522
145.4644
139.0406
132.7371
124.6895
108.1354
76.70808
74.93236
73.81526
72.88725
72.22279
71.73447
71.23298
70.72254
69.94186
66.48427
63.96486
63.54045
63.20919
62.87586
62.5069
62.09618
61.64294
61.14701
60.59821
60.57824
59.45202
58.25312
57.19908
56.28637
55.4719
54.7193
54.00445
53.31406
52.64544
51.94913
51.2104
50.43389
49.64091
48.85141
48.07877
47.32916
46.60724
43.45015
42.82445
42.22629
41.64478
41.07369
40.51031
39.95454
39.40726
38.87026
38.34401
37.82765
37.32258
36.82901
36.34462
35.86787
35.39753
34.93276
34.47339
34.01938
33.57056
33.12796
32.69391
32.26848
31.85197
31.44565
31.05095
30.66971
30.30376
29.95421
29.6224
29.3092
29.0142
28.73674
28.47617
28.23189
28.00329
27.7901
27.5847
27.43816
27.30011
27.1711
27.04906
26.93157
26.81669
26.70258
26.58689
26.46228
26.32941
26.19081
26.05532
25.921
25.7864
25.64964
25.50983
25.36533
25.21688
25.06271
24.90643
24.74339
24.56442
24.37494
24.17933
23.97532
23.75843
23.52721
23.28277
23.02816
22.76798
22.50774
22.25338
22.01053
21.78425
21.57806
21.3965
21.24357
21.12347
21.04194
21.0071
21.03052
21.12308
21.29811
21.5731
21.97129
22.52015
23.24438
24.17783
25.39878
26.99536
29.04698
31.60909
34.64058
37.96785
41.31108
44.38206
46.95762
48.88514
50.08342
50.54258
50.30103
49.43945
48.08272
46.37995
44.48202
42.52367
40.60737
38.79883
37.13011
35.60789
34.22399
32.96195
31.80242
30.72812
29.72551
28.78353
27.89381
27.04849
26.2403
25.46159
24.71017
23.98581
23.28815
22.61667
21.97083
21.35039
20.75541
20.18618
19.64313
19.1267
18.63725
18.17497
17.73991
17.33194
16.95069
16.59565
16.26613
15.96145
15.68079
15.42282
15.18624
14.96979
14.7722
14.59221
14.42848
14.27971
14.14466
14.02207
13.91071
13.80941
13.71701
13.63238
13.55443
13.48207
13.41428
13.35006
13.2885
13.22872
13.16994
13.11147
13.05273
12.99327
12.93276
12.87097
12.80783
12.7434
12.6779
12.61169
12.54515
12.47865
12.41266
12.34766
12.28416
12.22267
12.16369
12.10771
12.05533
12.00692
11.96272
11.92285
11.88757
11.85682
11.83088
11.80931
11.79257
11.77949
11.77125
11.76536
11.7886
11.80179
11.80945
11.81401
11.81715
11.81935
11.82081
11.82129
11.82045
11.81785
11.81301
11.80543
11.79468
11.7804
11.76229
11.74014
11.71384
11.68335
11.64869
11.61
11.56747
11.52133
11.47185
11.41932
11.36406
11.3064
11.24665
11.18511
11.12204
11.05761
10.99191
10.92483
10.85606
10.78514
10.71176
10.63781
10.56485
10.49328
10.42288
10.35362
10.28553
10.21865
10.15302
10.08866
10.02562
9.963921
9.903587
9.844632
9.787062
9.730876
9.676068
9.622624
9.570524
9.519743
9.470251
9.422017
9.375004
9.329175
9.284489
9.240912
9.198399
9.156925
9.116435
9.076925
9.038329
9.000683
8.963896
8.928079
8.89278
8.855363
8.841374
8.825596
8.807168
8.786318
8.764098
8.741312
8.718294
8.695117
8.67179
8.648337
8.624791
8.601187
8.57755
8.553894
8.530232
8.506571
8.482918
8.459278
8.435649
8.412031
8.388417
8.3648
8.341172
8.317521
8.293834
8.270101
8.24631
8.222448
8.198508
8.174481
8.150363
8.126153
8.101854
8.07747
8.053013
8.028496
8.00394
7.979368
7.954815
7.93032
7.905941
7.881736
7.857784
7.834141
7.810852
7.787879
7.765156
7.742569
7.720156
7.69791
7.67592
7.654088
7.63245
7.610747
7.589288
7.568038
7.547208
7.526786
7.506542
7.486273
7.465892
7.445386
7.424762
7.404012
7.383117
7.362055
7.340805
7.31935
7.297673
7.27576
7.253599
7.23118
7.208499
7.185554
7.162345
7.138877
7.11516
7.091205
7.067026
7.042641
7.018068
6.99333
6.968449
6.943449
6.918356
6.893193
6.867988
6.842763
6.817544
6.792352
6.76721
6.742136
6.717147
6.692259
6.667485
6.642835
6.618317
6.593937
6.569698
6.5456
6.521642
6.497821
6.47413
6.450562
6.427108
6.403757
6.380496
6.357315
6.334197
6.31113
6.288099
6.265088
6.242083
6.21907
6.196031
6.172955
6.149823
6.126626
6.103339
6.079957
6.056451
6.032816
6.00901
5.985034
5.960823
5.936381
5.911605
5.886497
5.860882
5.834745
5.807779
5.779915
5.750627
5.719826
5.686891
5.652177
5.615568
5.578857
5.544458
337.7681
242.5907
351.6466
157.1654
122.9765
91.15313
78.78077
68.67915
60.32762
56.43451
54.87612
54.08507
53.24599
52.36924
51.51878
50.73623
49.99688
49.28357
48.59278
47.93352
47.32772
46.82362
46.56881
46.49139
46.48834
46.53296
46.61519
46.70289
46.76582
46.77314
46.62953
45.3016
45.77789
46.24487
46.7109
47.18136
47.66269
48.15998
48.62475
49.06772
49.36149
49.60612
49.8182
49.96438
50.03043
50.01189
49.90983
49.72841
49.47278
49.15371
48.78601
48.36671
47.89627
47.38479
46.8423
46.276
45.69208
45.0952
44.48865
43.87387
43.25329
42.62942
42.00644
41.38632
40.7717
40.16418
39.56775
38.97463
38.42676
37.88393
37.35059
36.82693
36.31325
35.81054
35.31972
34.84132
34.37545
33.92189
33.48002
33.04948
32.62961
32.21913
31.8168
31.42135
31.03177
30.64741
30.26793
29.89315
29.52309
29.1586
28.80098
28.45207
28.11408
27.78918
27.47942
27.18677
26.91269
26.65779
26.42186
26.20366
26.00153
25.81332
25.63735
25.47186
25.31646
25.16963
25.033
24.90652
24.78797
24.67415
24.56262
24.45126
24.33631
24.21436
24.0919
23.96923
23.84594
23.72265
23.5994
23.47567
23.35021
23.22121
23.0866
22.94481
22.79471
22.63639
22.46881
22.29096
22.10429
21.91042
21.7092
21.49968
21.28165
21.05635
20.82638
20.59545
20.36806
20.14904
19.94306
19.7541
19.58525
19.43939
19.31938
19.2281
19.16962
19.14953
19.17369
19.24653
19.37234
19.5537
19.79435
20.10302
20.48436
20.96017
21.58114
22.40412
23.48104
24.85968
26.56207
28.55659
30.74829
32.9944
35.1339
37.01595
38.52313
39.58722
40.19178
40.34824
40.09431
39.4878
38.59812
37.50263
36.27967
35.00051
33.72288
32.48821
31.32233
30.23799
29.23839
28.32062
27.47855
26.70422
25.98873
25.32315
24.69874
24.10951
23.54686
23.00118
22.46276
21.92968
21.40075
20.87538
20.35388
19.83745
19.32792
18.82756
18.33864
17.8633
17.40363
16.96161
16.53894
16.13696
15.75671
15.39884
15.06371
14.75124
14.46105
14.19258
13.94513
13.71784
13.50978
13.31987
13.14704
12.99007
12.84776
12.7189
12.60224
12.49656
12.40061
12.31318
12.23303
12.15898
12.08985
12.02452
11.96188
11.90092
11.84069
11.78036
11.71921
11.65668
11.59232
11.52588
11.45724
11.38644
11.31369
11.2393
11.16373
11.08752
11.01126
10.93561
10.86121
10.78872
10.71875
10.65189
10.58866
10.52946
10.4747
10.42459
10.37942
10.33919
10.30416
10.27409
10.24938
10.22963
10.21627
10.20772
10.20295
10.20143
10.20303
10.20773
10.21485
10.22355
10.23268
10.2414
10.24911
10.25523
10.25922
10.2606
10.25891
10.2538
10.24495
10.23212
10.21514
10.19392
10.16844
10.13874
10.10493
10.06716
10.02565
9.980629
9.932359
9.881105
9.827123
9.770647
9.711874
9.650925
9.587906
9.522943
9.456294
9.389215
9.322243
9.255873
9.19024
9.125342
9.061213
8.997912
8.9355
8.87403
8.813564
8.754129
8.695762
8.638488
8.582341
8.52732
8.473435
8.420685
8.369066
8.318568
8.269174
8.220867
8.173626
8.127425
8.082242
8.038046
7.994818
7.95252
7.911148
7.87065
7.831044
7.792248
7.754353
7.717192
7.680991
7.645258
7.610986
7.57772
7.545483
7.514308
7.484111
7.454743
7.426068
7.397989
7.370439
7.343376
7.316774
7.290611
7.264867
7.239519
7.214542
7.189912
7.165602
7.141585
7.117832
7.094314
7.070999
7.047856
7.024851
7.001954
6.979133
6.956358
6.933602
6.910838
6.888044
6.865201
6.842294
6.819313
6.79625
6.773105
6.74988
6.726584
6.703231
6.679839
6.656433
6.633043
6.609706
6.586459
6.563342
6.540385
6.517616
6.495038
6.472633
6.450364
6.428234
6.406258
6.384468
6.362859
6.341444
6.320269
6.299448
6.27887
6.258384
6.237943
6.217573
6.197303
6.177139
6.157074
6.137093
6.117178
6.097301
6.077437
6.057557
6.037638
6.017657
5.997593
5.977427
5.957143
5.936726
5.916167
5.895455
5.874587
5.85356
5.832375
5.811034
5.789546
5.767918
5.746163
5.724293
5.702324
5.680273
5.658157
5.635996
5.613809
5.591614
5.56943
5.547274
5.525165
5.503116
5.481143
5.459258
5.437471
5.41579
5.394223
5.372774
5.351445
5.330237
5.309148
5.288174
5.267312
5.246553
5.22589
5.205314
5.184813
5.164377
5.143994
5.123651
5.103335
5.083033
5.062733
5.04242
5.022083
5.001706
4.981279
4.960786
4.940216
4.91955
4.898778
4.877876
4.856835
4.835617
4.814213
4.792566
4.770662
4.748405
4.725774
4.702611
4.678885
4.654373
4.629089
4.602807
4.575732
4.54775
4.51957
4.492449
304.1063
203.8137
153.2036
138.1962
112.2025
94.57717
81.34742
76.07979
70.18953
66.67308
63.57949
59.53197
55.48467
51.67166
48.17953
44.38017
38.76864
37.41251
36.39181
35.77824
35.51205
35.45887
35.49051
35.56031
35.6629
35.79729
35.96406
36.16399
36.39994
36.6783
37.0135
37.40525
37.83772
38.30074
38.78713
39.29421
39.81918
40.36174
40.92433
41.50867
42.11628
42.71013
43.22958
43.84327
44.48688
45.14933
45.79192
46.42543
47.10303
47.67415
48.16759
48.55392
48.80511
48.93142
48.94492
48.85144
48.65856
48.37577
48.01211
47.57973
47.08697
46.54611
45.96876
45.36038
44.72813
44.07752
43.41288
42.73951
42.06033
41.3802
40.70286
40.0331
39.37535
38.73508
38.11355
37.51059
36.92567
36.35846
35.80646
35.26916
34.7485
34.24555
33.75859
33.28642
32.829
32.38637
31.95844
31.54482
31.14484
30.75757
30.382
30.01729
29.66214
29.31485
28.97364
28.63719
28.30487
27.97666
27.65273
27.33341
27.01973
26.71365
26.41776
26.13485
25.86762
25.61867
25.39042
25.18453
25.00103
24.83828
24.69335
24.56249
24.44137
24.3262
24.21431
24.10457
23.99657
23.88982
23.78355
23.6762
23.56606
23.45209
23.33328
23.20985
23.08424
22.95605
22.82558
22.69398
22.56275
22.43287
22.3043
22.17572
22.04472
21.90857
21.76486
21.61209
21.44964
21.27748
21.09659
20.90856
20.71466
20.51533
20.31054
20.10061
19.88675
19.6713
19.45776
19.25049
19.05421
18.87335
18.71129
18.57032
18.45185
18.35714
18.28782
18.24661
18.23718
18.26274
18.32473
18.42298
18.55491
18.7178
18.91162
19.13678
19.40576
19.74679
20.19226
20.7754
21.53154
22.48922
23.65781
25.01754
26.51455
28.06342
29.56036
30.90519
32.01999
32.85454
33.38325
33.60276
33.53112
33.20263
32.66038
31.95204
31.12583
30.2269
29.29474
28.36168
27.45244
26.58447
25.76897
25.01218
24.31636
23.68069
23.10204
22.57561
22.09529
21.65364
21.24312
20.85866
20.49021
20.12704
19.7618
19.39101
19.01234
18.62487
18.22902
17.82635
17.41924
17.0106
16.60361
16.20154
15.80755
15.42451
15.05491
14.70082
14.36382
14.04502
13.74518
13.46467
13.2036
12.96176
12.73874
12.5339
12.34654
12.17567
12.02035
11.87945
11.75183
11.63632
11.53172
11.43679
11.35033
11.27111
11.19792
11.12954
11.06481
11.0026
10.94186
10.88162
10.82102
10.75933
10.69593
10.63037
10.56238
10.49182
10.41877
10.34344
10.26619
10.18751
10.10797
10.02823
9.948973
9.870892
9.79467
9.720951
9.650312
9.583278
9.52027
9.461673
9.407736
9.358717
9.314709
9.275869
9.242124
9.213468
9.18992
9.171352
9.157502
9.148075
9.142729
9.14109
9.14283
9.147694
9.154983
9.163595
9.172703
9.181747
9.190174
9.197446
9.203039
9.206483
9.207351
9.205274
9.19994
9.191103
9.178585
9.162271
9.14211
9.118114
9.090344
9.058908
9.023948
8.985631
8.944138
8.899655
8.852377
8.802516
8.750311
8.696092
8.640449
8.584295
8.527652
8.470751
8.413748
8.356744
8.299859
8.243217
8.18693
8.131098
8.075807
8.02113
7.967133
7.913867
7.861381
7.809714
7.758885
7.708909
7.659798
7.611557
7.564187
7.517682
7.472034
7.427234
7.383266
7.340116
7.297778
7.256233
7.215456
7.175446
7.136169
7.097639
7.059813
7.022715
6.986243
6.950425
6.915302
6.88089
6.847155
6.814065
6.781619
6.74983
6.718699
6.688214
6.658359
6.629114
6.600463
6.572386
6.544863
6.51787
6.491381
6.465369
6.439805
6.414656
6.389888
6.365465
6.341348
6.317499
6.293878
6.270446
6.247165
6.223996
6.200905
6.177861
6.154834
6.131801
6.108741
6.08564
6.062487
6.039278
6.016014
5.9927
5.969347
5.945972
5.922595
5.89924
5.875934
5.852704
5.829574
5.806565
5.783688
5.760943
5.738327
5.715847
5.693521
5.671374
5.649427
5.627703
5.606226
5.585
5.563964
5.54308
5.522357
5.501815
5.481454
5.46126
5.441213
5.421296
5.40149
5.381779
5.362141
5.342556
5.323004
5.303464
5.283916
5.264341
5.244723
5.225046
5.205297
5.185465
5.165541
5.14552
5.125397
5.105173
5.084849
5.064429
5.043921
5.023333
5.002676
4.981962
4.961206
4.940422
4.919626
4.898835
4.878063
4.857327
4.836642
4.816022
4.79548
4.775028
4.754675
4.734431
4.714302
4.694294
4.674409
4.654649
4.635012
4.615498
4.596102
4.576818
4.557639
4.538557
4.519563
4.500647
4.481796
4.463001
4.444248
4.425526
4.406821
4.388122
4.369416
4.35069
4.331931
4.313127
4.294265
4.275331
4.256312
4.237192
4.217956
4.198583
4.179055
4.159341
4.13942
4.119241
4.098779
4.077959
4.05676
4.035085
4.012952
3.990266
3.96714
3.943517
3.919729
3.896942
151.283
112.6576
172.5736
86.36717
74.21968
64.07496
61.03388
58.87154
56.48338
55.55235
54.31454
52.44574
50.63813
48.68036
46.33891
41.84118
40.70441
39.62044
38.56482
37.54789
36.53195
35.56315
34.69899
33.97016
33.39441
32.97213
32.62618
32.26495
32.06366
32.03914
32.16703
32.39482
32.6717
32.97597
33.30061
33.64355
34.00444
34.38461
34.79322
35.23633
35.70397
36.19244
36.70031
37.22681
37.77019
38.3291
38.90164
39.4876
40.08717
40.69782
41.31344
41.92478
42.55581
43.26302
43.98114
44.74664
45.42705
46.0185
46.51797
46.90072
47.16161
47.28425
47.26325
47.10568
46.82644
46.43988
45.96145
45.40644
44.78835
44.1223
43.41954
42.69228
41.95122
41.20346
40.45655
39.71405
38.98302
38.26772
37.58008
36.92537
36.30366
35.71556
35.16064
34.63332
34.13103
33.65123
33.19133
32.74879
32.32151
31.90782
31.5073
31.11973
30.7443
30.38041
30.02791
29.68681
29.35715
29.03881
28.73118
28.43329
28.14444
27.86411
27.59112
27.3237
27.05992
26.79873
26.54006
26.28432
26.03216
25.78476
25.54428
25.31391
25.09748
24.89887
24.72182
24.56994
24.44638
24.35207
24.28433
24.23753
24.20435
24.17664
24.14617
24.10615
24.05264
23.98453
23.90164
23.80323
23.68826
23.55601
23.40736
23.24614
23.08143
22.91536
22.74785
22.57939
22.41108
22.24479
22.0828
21.927
21.77788
21.63401
21.49208
21.348
21.19795
21.03925
20.8707
20.69262
20.50665
20.31499
20.11944
19.9211
19.72044
19.51806
19.31523
19.11438
18.91929
18.73482
18.5663
18.41835
18.29359
18.1921
18.11255
18.05417
18.01651
18.0003
18.00717
18.03838
18.09328
18.169
18.2612
18.36635
18.48339
18.61351
18.76457
18.95223
19.19467
19.51201
19.92749
20.46461
21.14093
21.96221
22.91423
23.95982
25.04092
26.08796
27.03302
27.81984
28.40908
28.78014
28.93068
28.87338
28.63132
28.23351
27.7113
27.09571
26.41586
25.69805
24.96514
24.23631
23.52701
22.84933
22.21214
21.62135
21.08027
20.58981
20.14869
19.75363
19.39983
19.08125
18.79065
18.52215
18.26836
18.02016
17.76834
17.50825
17.23658
16.9514
16.65224
16.33995
16.01646
15.68446
15.34716
15.00798
14.67032
14.33739
14.0121
13.69694
13.394
13.10494
12.83101
12.57308
12.33164
12.10688
11.89867
11.70677
11.53056
11.36933
11.22221
11.08825
10.96642
10.85565
10.75485
10.6629
10.57864
10.50092
10.42858
10.36049
10.29558
10.23281
10.1712
10.10987
10.04801
9.984945
9.920133
9.853175
9.783837
9.712052
9.637916
9.561675
9.483713
9.404524
9.324689
9.244845
9.165655
9.087779
9.011847
8.938448
8.868105
8.801279
8.738349
8.67963
8.625357
8.575705
8.530781
8.490634
8.455293
8.424714
8.398784
8.37735
8.360234
8.347233
8.338109
8.332619
8.33052
8.331612
8.335257
8.340496
8.346811
8.353709
8.360693
8.367275
8.372988
8.377391
8.380078
8.380683
8.378886
8.374417
8.367059
8.356648
8.343075
8.326278
8.306243
8.282996
8.256599
8.227148
8.194769
8.159621
8.121905
8.081877
8.03988
7.996356
7.951938
7.906723
7.860622
7.813809
7.766434
7.718643
7.670581
7.622379
7.574155
7.526018
7.478063
7.430374
7.383027
7.33608
7.289596
7.243614
7.198169
7.15329
7.108996
7.065303
7.022221
6.979755
6.937905
6.89668
6.856069
6.81607
6.776676
6.737883
6.69968
6.66206
6.625008
6.588522
6.552595
6.517238
6.482441
6.448167
6.414384
6.381101
6.348344
6.316135
6.284489
6.253406
6.222888
6.19293
6.163533
6.134693
6.106403
6.078655
6.051433
6.024722
5.998501
5.972744
5.947424
5.922509
5.897963
5.873749
5.849828
5.826159
5.802701
5.779413
5.756258
5.733197
5.710197
5.687227
5.664263
5.641281
5.618266
5.595207
5.572098
5.548937
5.525731
5.502488
5.479221
5.455948
5.432688
5.409462
5.386291
5.363192
5.340182
5.317269
5.294466
5.271786
5.249248
5.226878
5.204698
5.182726
5.16097
5.13943
5.118099
5.096974
5.076061
5.05536
5.034864
5.014562
4.99444
4.974484
4.95468
4.935012
4.915462
4.89601
4.876636
4.857321
4.838044
4.818788
4.799534
4.780267
4.760971
4.741634
4.722246
4.702798
4.683285
4.663703
4.644053
4.624334
4.604551
4.584711
4.564821
4.544892
4.524935
4.504963
4.48499
4.465029
4.445096
4.425205
4.40537
4.385604
4.365922
4.346334
4.326851
4.307481
4.288233
4.269111
4.250121
4.231263
4.21254
4.193949
4.175487
4.15715
4.138932
4.120826
4.102823
4.084914
4.067088
4.049334
4.031641
4.013996
3.996388
3.978805
3.961233
3.943661
3.926076
3.908465
3.890816
3.873116
3.855352
3.837509
3.819573
3.801527
3.783355
3.765035
3.746547
3.727862
3.708959
3.6898
3.670368
3.650621
3.630568
3.610175
3.589495
3.568527
3.547438
3.527422
61.01587
45.93533
46.39782
44.2042
43.19912
42.0148
41.11365
40.36463
39.74851
38.73061
36.18212
36.02586
35.86875
35.70917
35.50954
35.25977
34.99836
34.75967
34.55692
34.37788
34.08937
33.55714
33.03227
32.51698
32.02576
31.56326
31.15235
30.81263
30.55155
30.36658
30.25165
30.1971
30.21165
30.32354
30.53636
30.83219
31.18167
31.55613
31.94042
32.32702
32.71275
33.09702
33.4933
33.90577
34.33351
34.77914
35.24606
35.73632
36.25075
36.78872
37.34784
37.92389
38.51943
39.13711
39.77083
40.40483
41.04985
41.75829
42.47948
43.16908
43.77958
44.27641
44.64009
44.85572
44.92042
44.83603
44.60685
44.24237
43.75467
43.16206
42.48272
41.7381
40.94679
40.12677
39.29427
38.46111
37.64055
36.84159
36.07423
35.34364
34.66292
34.03665
33.46273
32.94079
32.4689
32.04225
31.65178
31.29047
30.95299
30.63498
30.33261
30.04254
29.76205
29.48918
29.22271
28.96217
28.70739
28.45836
28.21527
27.97843
27.74824
27.52515
27.30939
27.10057
26.89809
26.70187
26.51188
26.32715
26.14614
25.96766
25.79166
25.61922
25.45185
25.29164
25.14155
25.00562
24.88886
24.79665
24.73481
24.70957
24.72714
24.79024
24.894
25.02668
25.17283
25.31625
25.44134
25.53178
25.57767
25.57719
25.53163
25.44227
25.30758
25.12581
24.89696
24.62719
24.33622
24.04104
23.74543
23.45358
23.16871
22.89351
22.63042
22.38215
22.15124
21.93894
21.74395
21.56204
21.38707
21.21274
21.03405
20.84809
20.65442
20.4548
20.25209
20.04903
19.84759
19.64893
19.45413
19.26501
19.08485
18.91861
18.77285
18.65473
18.56955
18.51703
18.49307
18.49074
18.50295
18.52741
18.56018
18.59831
18.63871
18.67768
18.71121
18.73654
18.75451
18.77
18.7901
18.82367
18.88161
18.9751
19.11616
19.31907
19.59962
19.9727
20.44846
21.02746
21.69618
22.42499
23.17048
23.8825
24.51244
25.02036
25.37945
25.57754
25.61586
25.506
25.26607
24.91715
24.48069
23.9771
23.42512
22.84178
22.24243
21.64075
21.04884
20.47707
19.93402
19.42638
18.95889
18.53427
18.15323
17.81454
17.51523
17.25078
17.01566
16.80348
16.60767
16.42314
16.24247
16.05823
15.8653
15.66048
15.44176
15.20842
14.96094
14.70077
14.43014
14.15175
13.8686
13.58378
13.30027
13.02084
12.74799
12.48388
12.23027
11.98857
11.7598
11.54461
11.34345
11.15628
10.9829
10.8229
10.67567
10.54046
10.41645
10.30278
10.19853
10.10271
10.0143
9.93228
9.855638
9.78339
9.714575
9.648271
9.583601
9.519742
9.455948
9.391562
9.326034
9.258945
9.190008
9.119086
9.046187
8.971462
8.895193
8.817773
8.739685
8.66147
8.583706
8.506974
8.431839
8.358831
8.288427
8.221044
8.157037
8.096691
8.040231
7.98782
7.939559
7.895497
7.855633
7.81993
7.788329
7.760747
7.737072
7.717166
7.700873
7.688029
7.678472
7.672054
7.668523
7.66709
7.667329
7.668855
7.671269
7.674171
7.677163
7.679859
7.681888
7.682902
7.682582
7.680641
7.676827
7.670929
7.662775
7.652236
7.63922
7.623676
7.605589
7.584985
7.561924
7.53651
7.50889
7.47926
7.447868
7.414985
7.380936
7.346049
7.31026
7.273463
7.235813
7.197443
7.15848
7.119047
7.079259
7.039224
6.99904
6.958795
6.918569
6.878432
6.838447
6.798664
6.75913
6.719882
6.68095
6.642359
6.604128
6.56627
6.528806
6.491732
6.455058
6.418784
6.382912
6.347444
6.312379
6.277717
6.243459
6.209606
6.176158
6.143104
6.110428
6.078128
6.046217
6.014717
5.983646
5.953016
5.922838
5.89312
5.863872
5.835104
5.806823
5.779036
5.751743
5.724944
5.698633
5.672798
5.647425
5.622494
5.59798
5.573854
5.550084
5.526633
5.503463
5.480532
5.457802
5.435231
5.412779
5.390411
5.368091
5.345791
5.323483
5.301145
5.278763
5.256324
5.233823
5.211257
5.188632
5.165953
5.143234
5.120489
5.097733
5.074984
5.052261
5.029579
5.006956
4.984407
4.961951
4.939611
4.917408
4.895366
4.873503
4.85183
4.83036
4.809099
4.788051
4.767217
4.746597
4.726189
4.705986
4.68598
4.666161
4.646517
4.627033
4.607692
4.588477
4.56937
4.55035
4.5314
4.5125
4.493633
4.474782
4.455932
4.437069
4.418181
4.399258
4.380294
4.361282
4.34222
4.323107
4.303945
4.284738
4.265492
4.246216
4.226919
4.207612
4.188307
4.169019
4.149759
4.130543
4.111383
4.092294
4.073289
4.054379
4.035575
4.016887
3.998324
3.979892
3.961596
3.943439
3.925424
3.90755
3.889816
3.872218
3.854751
3.837409
3.820185
3.80307
3.786053
3.769126
3.752277
3.735494
3.718766
3.70208
3.685425
3.668788
3.652157
3.63552
3.618863
3.602174
3.585441
3.568649
3.551786
3.534836
3.517784
3.500613
3.483307
3.465846
3.448214
3.430388
3.412357
3.394103
3.375627
3.356922
3.338014
3.318923
3.299751
3.281695
91.86792
36.7208
31.70834
30.55357
29.90923
29.63149
29.63233
29.7878
30.04892
30.38229
30.65136
30.73162
30.79402
30.82756
30.83322
30.8069
30.7597
30.69554
30.606
30.47341
30.27553
30.02549
29.77892
29.54261
29.32816
29.14384
29.00004
28.90601
28.86296
28.8683
28.92108
29.02101
29.1754
29.38966
29.66184
29.97744
30.31633
30.6595
30.99662
31.3224
31.63584
31.96395
32.30973
32.67512
33.06549
33.48646
33.94096
34.43176
34.95967
35.52492
36.12246
36.73335
37.36414
38.03265
38.73223
39.4211
40.11907
40.80864
41.43669
41.96077
42.3447
42.57066
42.62688
42.51208
42.23307
41.80022
41.22897
40.53886
39.75352
38.89891
38.00014
37.08409
36.17179
35.28375
34.43508
33.63932
32.90585
32.24859
31.67244
31.17313
30.74684
30.38842
30.08968
29.83756
29.62285
29.43793
29.27481
29.12652
28.98742
28.85296
28.71967
28.58507
28.44739
28.30589
28.16059
28.0122
27.86197
27.71154
27.56259
27.41659