/*--------------------------------*- C++ -*----------------------------------*\
| =========                 |                                                 |
| \\      /  F ield         | foam-extend: Open Source CFD                    |
|  \\    /   O peration     | Version:     3.1                                |
|   \\  /    A nd           | Web:         http://www.extend-project.de       |
|    \\/     M anipulation  |                                                 |
\*---------------------------------------------------------------------------*/
FoamFile
{
    version     2.0;
    format      ascii;
    class       volScalarField;
    location    "8";
    object      p;
}
// * * * * * * * * * * * * * * * * * * * * * * * * * * * * * * * * * * * * * //

dimensions      [1 -1 -2 0 0 0 0];

internalField   nonuniform List<scalar> 
119952
(
6743.026
5797.864
5684.677
5854.568
6025.871
5945.131
5937.95
5941.267
5952.287
5966.908
5984.179
6003.826
6025.181
6049.047
6075.243
6104.127
6135.762
6169.12
6197.658
6186.104
6476.203
6419.677
6440.288
6813.685
6882.732
7008.451
7159.999
7305.874
7124.057
9196.178
5386.896
5357.877
5361.369
5355.711
5342.968
5331.245
5307.488
5281.541
5247.796
5199.74
5125.526
5083.138
5022.009
4960.945
4900.759
4842.703
4789.033
4741.626
4699.474
4649.244
4624.679
4592.336
4585.608
4591.898
4606.696
4627.985
4661.441
4701.365
4750.955
4792.032
4845.287
4908.908
4973.134
5038.764
5105.873
5174.316
5249.043
5358.093
5521.429
5464.148
5489.673
5579.759
5637.085
5652.389
5655.689
5666.425
5679.882
5695.405
5713.015
5732.658
5754.377
5778.38
5804.891
5834.661
5867.831
5904.756
5946.4
5998.445
6079.886
6166
6242.718
6395.813
6577.199
6691.477
6778.712
6837.394
6813.452
6792.741
6880.882
6970.594
7065.165
7142.157
7191.964
7218.331
7234.064
7248.81
7266.709
7289.544
7319.04
7354.666
7394.033
7434.618
7474.747
7513.61
7551.021
7587.117
7622.128
7656.184
7689.478
7721.922
7753.472
7784.108
7813.85
7842.731
7870.849
7898.255
7924.96
7951.005
7976.395
8001.132
8025.21
8048.619
8071.343
8093.353
8114.621
8135.126
8154.856
8173.804
8191.969
8209.355
8225.967
8241.813
8256.909
8271.269
8284.91
8297.875
8310.473
8322.606
8334.231
8344.98
8355.166
8364.872
8374.124
8382.944
8391.352
8399.364
8406.995
8414.256
8421.156
8427.699
8433.901
8439.746
8445.235
8450.364
8455.131
8459.534
8463.57
8467.241
8470.546
8473.49
8476.079
8478.335
8480.243
8481.849
8483.152
8484.176
8484.942
8485.485
8485.822
8485.979
8486.027
8485.919
8485.703
8485.422
8485.093
8484.738
8484.376
8484.023
8483.691
8483.39
8483.128
8482.905
8482.714
8482.531
8482.304
8481.982
8481.967
8515.753
8515.545
8515.847
8516.216
8516.58
8516.934
8517.287
8517.625
8517.989
8518.348
8518.706
8519.05
8519.381
8519.696
8519.991
8520.27
8520.532
8520.776
8521.001
8521.221
8521.417
8521.597
8521.761
8521.906
8522.031
8522.13
8522.196
8522.221
8522.184
8522.065
8521.815
8521.352
8520.546
8519.152
8516.429
8512.701
8519.578
8524.642
8528.822
8532.414
8535.809
8539.024
8542.117
8545.139
8548.114
8551.054
8553.968
8556.864
8559.748
8562.625
8565.499
8568.372
8571.248
8574.127
8577.011
8579.902
8582.8
8585.706
8588.621
8591.545
8594.481
8597.428
8600.387
8603.36
8606.349
8609.358
8612.395
8615.495
8618.569
8621.466
8605.783
8603.381
8599.672
8602.978
8605.988
8608.46
8611.257
8614.244
8617.249
8620.262
8623.313
8626.406
8629.516
8632.646
8635.79
8638.943
8642.102
8645.265
8648.428
8651.591
8654.751
8657.908
8661.059
8664.205
8667.343
8670.471
8673.587
8676.692
8679.784
8682.863
8685.927
8688.975
8692.008
8695.026
8698.027
8701.014
8703.987
8706.948
8709.9
8712.849
8715.804
8718.779
8721.799
8724.901
8728.045
8730.871
8732.932
8734.605
8736.434
8738.375
8740.337
8742.329
8744.199
8745.069
8742.298
8746.991
8749.551
8750.978
8752.54
8754.031
8755.419
8756.759
8758.059
8759.314
8760.518
8761.661
8762.739
8763.752
8764.699
8765.577
8766.382
8767.112
8767.768
8768.348
8768.851
8769.279
8769.631
8769.909
8770.112
8770.243
8770.302
8770.29
8770.209
8770.061
8769.846
8769.567
8769.225
8768.821
8768.357
8767.835
8767.256
8766.621
8765.933
8765.192
8764.401
8763.56
8762.67
8761.734
8760.751
8759.724
8758.653
8757.539
8756.384
8755.187
8753.949
8752.671
8751.353
8749.995
8748.597
8747.159
8745.68
8744.159
8742.596
8740.989
8739.337
8737.635
8735.883
8734.076
8732.21
8730.279
8728.276
8726.194
8724.022
8721.748
8719.356
8716.825
8714.132
8711.243
8708.116
8704.691
8700.891
8696.599
8691.656
8685.767
8678.464
8669.376
8660.693
8666.173
8711.523
7508.834
7432.84
7336.506
7230.413
7116.574
6997.19
6874.426
6749.918
6624.379
6474.174
6353.68
6235.493
6120.867
6013.199
5911.904
5817.415
5729.622
5647.702
5531.184
5477.336
5409.844
5350.938
5301.93
5258.747
5221.612
5190.324
5164.405
5144.493
5130.661
5110.177
5101.513
5096.45
5094.049
5093.967
5095.119
5097.089
5100.269
5106.068
5092.077
5082.349
5073.955
5060.281
5041.232
5016.057
4984.276
4946.436
4902.642
4847.927
4791.34
4732.75
4671.047
4608.921
4549.375
4494.325
4446.305
4412.051
4287.511
4267.938
4261.067
4261.572
4269.59
4286.76
4313.632
4348.956
4391.313
4439.989
4495.096
4553.638
4614.906
4679.5
4747.548
4818.75
4893.64
4972.019
5051.458
5123.005
5172.83
5209.701
5252.037
5293.752
5324.292
5344.184
5359.416
5374.496
5390.995
5408.893
5428.088
5448.869
5471.818
5497.588
5526.966
5561.654
5602.063
5650.015
5708.671
5780.062
5864.547
5961.858
6072.611
6188.629
6291.546
6372.2
6425.592
6462.128
6506.711
6577.821
6658.993
6739.359
6807.332
6857.12
6893.191
6920.078
6944.027
6970.863
7002.265
7037.09
7073.615
7111.452
7149.958
7188.309
7225.891
7262.398
7297.726
7331.952
7365.18
7397.442
7428.854
7459.421
7489.089
7517.923
7546.026
7573.487
7600.295
7626.46
7651.999
7676.926
7701.23
7724.902
7747.948
7770.325
7791.981
7812.898
7833.063
7852.464
7871.097
7888.962
7906.061
7922.397
7937.981
7952.83
7966.972
7980.449
7993.319
8005.656
8017.482
8028.668
8039.261
8049.328
8058.917
8068.059
8076.776
8085.087
8093.011
8100.562
8107.75
8114.585
8121.069
8127.205
8132.995
8138.435
8143.522
8148.252
8152.623
8156.631
8160.275
8163.555
8166.475
8169.038
8171.251
8173.143
8174.721
8176
8177.002
8177.755
8178.265
8178.603
8178.755
8178.761
8178.647
8178.432
8178.144
8177.813
8177.459
8177.106
8176.76
8176.443
8176.158
8175.922
8175.728
8175.601
8175.524
8175.561
8175.721
8175.989
8239.926
8239.632
8239.453
8239.78
8240.134
8240.534
8240.923
8241.314
8241.707
8242.097
8242.478
8242.847
8243.2
8243.535
8243.852
8244.149
8244.427
8244.687
8244.928
8245.147
8245.351
8245.54
8245.711
8245.862
8245.991
8246.096
8246.169
8246.2
8246.176
8246.08
8245.871
8245.506
8244.939
8244.172
8243.494
8243.798
8246.524
8250.451
8253.997
8257.348
8260.582
8263.695
8266.725
8269.702
8272.639
8275.548
8278.436
8281.311
8284.177
8287.039
8289.9
8292.762
8295.627
8298.497
8301.374
8304.258
8307.15
8310.051
8312.962
8315.883
8318.815
8321.759
8324.716
8327.686
8330.673
8333.678
8336.71
8339.774
8342.96
8347.234
8290.09
8294.213
8296.343
8297.747
8299.697
8302.321
8305.272
8308.289
8311.297
8314.314
8317.363
8320.452
8323.569
8326.704
8329.849
8333.002
8336.161
8339.323
8342.487
8345.651
8348.813
8351.971
8355.124
8358.271
8361.409
8364.538
8367.657
8370.763
8373.855
8376.934
8379.997
8383.044
8386.075
8389.09
8392.088
8395.07
8398.036
8400.988
8403.929
8406.861
8409.786
8412.707
8415.614
8418.476
8421.225
8423.772
8426.036
8428.068
8430.023
8431.985
8433.936
8435.84
8437.617
8439.065
8439.935
8440.97
8442.696
8444.683
8446.491
8448.029
8449.398
8450.699
8451.968
8453.196
8454.368
8455.475
8456.518
8457.496
8458.409
8459.253
8460.027
8460.727
8461.353
8461.905
8462.383
8462.785
8463.113
8463.367
8463.547
8463.656
8463.693
8463.659
8463.558
8463.389
8463.154
8462.855
8462.493
8462.069
8461.586
8461.045
8460.448
8459.795
8459.089
8458.331
8457.522
8456.664
8455.758
8454.806
8453.808
8452.765
8451.68
8450.551
8449.382
8448.171
8446.92
8445.629
8444.298
8442.928
8441.518
8440.068
8438.579
8437.048
8435.475
8433.859
8432.197
8430.488
8428.728
8426.914
8425.043
8423.107
8421.102
8419.018
8416.85
8414.58
8412.2
8409.687
8407.027
8404.181
8401.132
8397.817
8394.212
8390.232
8385.894
8381.23
8376.705
8373.201
8372.326
8374.933
8381.542
3539.452
3547.417
3573.04
3610.648
3660.642
3720.99
3793.909
3878.545
3974.403
4082.427
4183.393
4311.109
4447.427
4593.034
4747.019
4908.187
5075.484
5247.824
5423.191
5595
5777.834
5960.481
6141.575
6317.874
6487.78
6648.872
6798.603
6934.068
7057.498
7157.142
7237.474
7298.283
7338.432
7357.51
7355.665
7333.566
7292.437
7233.706
7152.175
7066.895
6966.999
6857.811
6741.437
6620.241
6496.324
6371.676
6248.37
6127.5
6008.486
5894.985
5785.023
5680.88
5583.062
5492.001
5408.643
5337.021
5170.188
5107.245
5054.612
5004.965
4959.078
4918.747
4884.477
4855.875
4832.467
4813.515
4798.848
4788.852
4782.346
4778.664
4777.849
4779.507
4782.791
4786.671
4789.816
4790.927
4789.369
4784.149
4774.235
4759.183
4738.427
4711.163
4676.823
4635.084
4585.907
4530.284
4469.093
4403.77
4336.676
4270.219
4206.662
4148.182
4096.5
4052.848
4017.567
3996.525
3986.765
3985.389
3993.8
4012.701
4041.53
4078.94
4123.766
4174.672
4230.896
4292.093
4356.993
4425.03
4495.83
4568.987
4643.052
4717.095
4788.827
4856.922
4913.321
4956.52
4996.409
5035.708
5068.886
5093.011
5111.192
5127.553
5144.039
5161.029
5178.694
5197.585
5218.492
5242.283
5269.896
5302.588
5341.743
5388.437
5444.223
5511.005
5589.344
5676.512
5770.865
5870.332
5965.061
6046.636
6114.231
6169.137
6224.407
6295.121
6372.911
6448.743
6518.376
6577.773
6625.805
6666.529
6704.685
6740.888
6774.689
6808.311
6844.465
6882.835
6921.88
6960.107
6996.678
7031.74
7065.6
7098.489
7130.571
7161.91
7192.523
7222.368
7251.39
7279.586
7307.068
7333.947
7360.225
7385.909
7411.002
7435.51
7459.417
7482.708
7505.388
7527.436
7548.813
7569.475
7589.4
7608.574
7626.993
7644.666
7661.594
7677.765
7693.186
7707.881
7721.884
7735.229
7747.96
7760.114
7771.726
7782.782
7793.276
7803.245
7812.739
7821.796
7830.439
7838.686
7846.557
7854.065
7861.224
7868.039
7874.517
7880.659
7886.464
7891.929
7897.051
7901.824
7906.245
7910.309
7914.013
7917.356
7920.34
7922.969
7925.251
7927.197
7928.822
7930.143
7931.183
7931.963
7932.5
7932.829
7932.977
7932.972
7932.844
7932.619
7932.323
7931.98
7931.611
7931.235
7930.876
7930.548
7930.263
7930.03
7929.861
7929.762
7929.76
7929.872
7930.192
7930.778
7931.793
7932.408
7932.598
7932.763
7933.096
7933.466
7933.904
7934.351
7934.785
7935.215
7935.634
7936.039
7936.425
7936.792
7937.137
7937.461
7937.764
7938.045
7938.306
7938.547
7938.772
7938.979
7939.169
7939.34
7939.492
7939.624
7939.731
7939.809
7939.85
7939.848
7939.801
7939.72
7939.662
7939.763
7940.265
7941.464
7943.538
7946.33
7949.383
7952.425
7955.399
7958.326
7961.227
7964.11
7966.978
7969.833
7972.677
7975.517
7978.354
7981.192
7984.033
7986.878
7989.73
7992.588
7995.455
7998.33
8001.215
8004.11
8007.015
8009.931
8012.858
8015.798
8018.748
8021.714
8024.689
8027.683
8030.678
8033.693
8036.697
8039.856
8042.704
8044.862
8047.19
8049.989
8053.087
8056.273
8059.445
8062.58
8065.685
8068.781
8071.885
8075.005
8078.141
8081.288
8084.441
8087.599
8090.761
8093.927
8097.094
8100.26
8103.425
8106.586
8109.742
8112.892
8116.034
8119.166
8122.288
8125.397
8128.493
8131.575
8134.641
8137.69
8140.723
8143.738
8146.735
8149.714
8152.676
8155.619
8158.546
8161.455
8164.343
8167.205
8170.023
8172.773
8175.425
8177.943
8180.285
8182.443
8184.479
8186.465
8188.423
8190.32
8192.147
8193.961
8195.989
8197.89
8199.427
8200.739
8201.993
8203.244
8204.489
8205.721
8206.933
8208.116
8209.255
8210.339
8211.364
8212.327
8213.226
8214.059
8214.821
8215.513
8216.132
8216.677
8217.148
8217.545
8217.868
8218.118
8218.294
8218.398
8218.431
8218.393
8218.287
8218.114
8217.874
8217.57
8217.203
8216.774
8216.286
8215.739
8215.136
8214.477
8213.765
8213.001
8212.186
8211.322
8210.41
8209.451
8208.447
8207.399
8206.308
8205.174
8203.999
8202.784
8201.528
8200.233
8198.899
8197.526
8196.114
8194.663
8193.173
8191.643
8190.071
8188.457
8186.8
8185.096
8183.344
8181.541
8179.682
8177.764
8175.78
8173.724
8171.588
8169.363
8167.037
8164.597
8162.028
8159.311
8156.427
8153.355
8150.089
8146.64
8143.088
8139.601
8136.492
8134.136
8132.96
8133.522
8136.211
3572.374
3535.659
3497.23
3447.092
3410.979
3351.715
3335.155
3334.709
3346.952
3335.616
3302.814
3279.304
3273.556
3282.17
3303.798
3337.535
3382.688
3439.024
3506.566
3585.713
3676.087
3777.35
3889.066
4011.864
4144.368
4286.753
4437.26
4594.956
4759.021
4927.285
5101.684
5258.247
5441.36
5623.267
5800.92
5973.645
6140.232
6298.145
6445.075
6579.689
6698.246
6796.271
6874.206
6931.624
6967.95
6983.063
6977.137
6950.99
6905.966
6844.063
6767.317
6677.631
6576.479
6465.967
6348.605
6226.917
6103.082
5978.983
5856.329
5736.594
5620.423
5509.094
5403.115
5302.771
5208.709
5121.287
5040.364
4965.271
4893.982
4832.303
4779.851
4731.577
4687.401
4648.647
4615.741
4588.389
4566.092
4548.668
4535.975
4527.276
4522.283
4520.903
4522.707
4527.042
4532.998
4539.484
4545.492
4550.09
4551.568
4548.584
4540.818
4527.587
4507.854
4480.667
4445.304
4401.481
4349.307
4289.191
4222.392
4151.044
4077.486
4004.258
3934.034
3869.53
3812.896
3766.334
3730.758
3707.096
3695.254
3694.588
3705.096
3726.335
3757.329
3797.026
3844.336
3898.114
3957.401
4021.612
4089.715
4160.857
4234.283
4309.206
4384.281
4458.353
4529.611
4596.245
4654.546
4703.199
4745.772
4784.543
4817.826
4844.066
4864.588
4881.921
4897.826
4913.166
4928.524
4944.67
4962.313
4983.262
5007.722
5036.274
5071.836
5115.189
5166.769
5227.758
5298.17
5376.595
5461.512
5550.398
5638.237
5720.183
5793.572
5859.059
5925.538
5999.809
6077.852
6154.987
6228.239
6294.256
6352.18
6403.993
6451.433
6494.991
6535.426
6575.39
6616.379
6657.156
6696.511
6734.123
6770.007
6804.3
6837.252
6869.116
6900.096
6930.302
6959.787
6988.581
7016.683
7044.1
7070.895
7097.125
7122.8
7147.923
7172.519
7196.584
7220.081
7242.947
7265.224
7286.874
7307.909
7328.267
7347.91
7366.815
7384.966
7402.362
7419.01
7434.926
7450.114
7464.584
7478.367
7491.498
7504.015
7515.951
7527.34
7538.191
7548.508
7558.323
7567.676
7576.602
7585.124
7593.264
7601.041
7608.467
7615.556
7622.315
7628.75
7634.86
7640.647
7646.104
7651.229
7656.014
7660.454
7664.543
7668.276
7671.65
7674.664
7677.322
7679.63
7681.598
7683.241
7684.575
7685.62
7686.398
7686.932
7687.254
7687.391
7687.371
7687.223
7686.976
7686.654
7686.284
7685.89
7685.494
7685.116
7684.773
7684.475
7684.238
7684.069
7683.987
7683.993
7684.123
7684.34
7684.676
7684.879
7685.211
7685.72
7686.274
7686.803
7687.39
7687.925
7688.441
7688.939
7689.439
7689.917
7690.375
7690.812
7691.227
7691.619
7691.989
7692.335
7692.658
7692.958
7693.238
7693.498
7693.74
7693.966
7694.175
7694.368
7694.546
7694.708
7694.854
7694.987
7695.11
7695.241
7695.41
7695.679
7696.146
7696.948
7698.266
7700.09
7702.486
7705.202
7708.004
7710.801
7713.59
7716.382
7719.18
7721.979
7724.779
7727.578
7730.379
7733.184
7735.994
7738.811
7741.636
7744.468
7747.31
7750.162
7753.023
7755.896
7758.779
7761.673
7764.579
7767.496
7770.426
7773.366
7776.319
7779.282
7782.255
7785.234
7788.221
7791.209
7794.13
7796.974
7799.886
7802.857
7805.791
7808.678
7811.579
7814.533
7817.534
7820.563
7823.612
7826.681
7829.772
7832.884
7836.012
7839.151
7842.299
7845.454
7848.614
7851.777
7854.942
7858.106
7861.268
7864.425
7867.577
7870.722
7873.858
7876.983
7880.096
7883.196
7886.281
7889.35
7892.402
7895.436
7898.452
7901.448
7904.424
7907.379
7910.312
7913.223
7916.107
7918.96
7921.774
7924.536
7927.231
7929.838
7932.334
7934.694
7936.912
7939.017
7941.053
7943.044
7944.987
7946.895
7948.775
7950.601
7952.2
7953.62
7955.003
7956.411
7957.817
7959.183
7960.494
7961.753
7962.961
7964.116
7965.212
7966.246
7967.217
7968.12
7968.954
7969.718
7970.409
7971.026
7971.57
7972.038
7972.433
7972.752
7972.998
7973.171
7973.271
7973.3
7973.258
7973.148
7972.969
7972.725
7972.415
7972.043
7971.608
7971.114
7970.561
7969.951
7969.286
7968.567
7967.796
7966.975
7966.104
7965.185
7964.22
7963.21
7962.156
7961.058
7959.919
7958.739
7957.519
7956.259
7954.961
7953.624
7952.248
7950.835
7949.384
7947.894
7946.366
7944.798
7943.189
7941.539
7939.845
7938.105
7936.317
7934.478
7932.584
7930.63
7928.611
7926.522
7924.355
7922.102
7919.755
7917.306
7914.744
7912.066
7909.27
7906.379
7903.426
7900.513
7897.743
7895.346
7893.435
7892.364
7892.209
7893.411
3913.38
3876.639
3839.6
3777.159
3723.141
3634.284
3578.671
3523.083
3467.399
3412.354
3358.364
3308.035
3258.899
3212.479
3170.96
3133.387
3036.305
3013.285
2997.76
2985.018
2969.459
2954.81
2946.865
2948.729
2961.453
2985.27
3020.319
3066.598
3123.937
3191.572
3270.518
3361.514
3463.738
3577.014
3700.895
3834.682
3977.689
4129.34
4288.514
4453.732
4623.882
4798.632
4968.486
5146.448
5324.972
5500.768
5671.637
5836.148
5993.729
6140.044
6273.754
6391.736
6490.822
6569.388
6626.735
6662.503
6676.725
6669.816
6642.695
6596.766
6533.746
6455.688
6364.994
6263.594
6153.34
6036.501
5915.417
5792.406
5669.257
5547.424
5428.247
5312.98
5202.67
5097.919
4999.629
4908.203
4823.637
4745.45
4673.702
4608.446
4550.648
4499.659
4453.664
4412.146
4375.571
4344.297
4318.324
4297.465
4281.587
4270.463
4263.766
4261.342
4262.931
4268.021
4275.888
4285.666
4296.202
4306.481
4315.298
4321.061
4322.426
4318.462
4308.134
4290.192
4263.52
4227.294
4180.991
4124.463
4058.104
3983.457
3902.943
3819.384
3735.969
3656.135
3583.107
3519.583
3467.672
3428.282
3401.966
3389.071
3389.139
3401.318
3424.629
3458.028
3500.512
3550.978
3608.258
3671.314
3739.308
3811.326
3886.487
3963.878
4042.5
4120.997
4197.874
4271.299
4339.452
4400.496
4453.426
4499.132
4538.874
4572.641
4600.018
4621.594
4638.869
4653.369
4666.253
4678.407
4690.753
4704.297
4720.466
4739.958
4763.414
4793.546
4831.258
4876.791
4930.859
4993.563
5064.218
5141.505
5223.134
5306.122
5387.504
5465.269
5539.925
5615.432
5694.678
5776.265
5857.216
5934.782
6007.036
6073.411
6134.268
6190.596
6243.245
6292.912
6340.658
6386.671
6430.32
6471.215
6509.635
6545.897
6580.14
6612.628
6643.698
6673.647
6702.69
6730.974
6758.599
6785.61
6812.03
6837.904
6863.273
6888.151
6912.539
6936.445
6959.853
6982.748
7005.163
7027.018
7048.277
7068.905
7088.873
7108.168
7126.743
7144.583
7161.666
7177.991
7193.582
7208.458
7222.631
7236.127
7248.976
7261.214
7272.874
7283.988
7294.575
7304.655
7314.255
7323.407
7332.144
7340.492
7348.471
7356.1
7363.396
7370.369
7377.027
7383.376
7389.417
7395.147
7400.562
7405.656
7410.422
7414.853
7418.94
7422.678
7426.061
7429.088
7431.76
7434.082
7436.063
7437.716
7439.057
7440.104
7440.88
7441.411
7441.722
7441.843
7441.803
7441.631
7441.356
7441.006
7440.607
7440.185
7439.762
7439.358
7438.991
7438.674
7438.423
7438.245
7438.155
7438.153
7438.254
7438.44
7438.724
7439.084
7439.548
7440.064
7440.571
7441.067
7441.577
7442.091
7442.607
7443.133
7443.643
7444.152
7444.652
7445.13
7445.586
7446.022
7446.436
7446.826
7447.194
7447.539
7447.864
7448.169
7448.457
7448.73
7448.99
7449.239
7449.479
7449.715
7449.949
7450.19
7450.451
7450.754
7451.132
7451.637
7452.331
7453.296
7454.6
7456.423
7458.602
7461.048
7463.627
7466.263
7468.928
7471.62
7474.335
7477.067
7479.811
7482.564
7485.326
7488.098
7490.88
7493.672
7496.475
7499.288
7502.112
7504.948
7507.795
7510.654
7513.525
7516.407
7519.301
7522.207
7525.125
7528.054
7530.994
7533.943
7536.901
7539.863
7542.825
7545.78
7548.714
7551.671
7554.643
7557.557
7560.402
7563.255
7566.168
7569.147
7572.172
7575.222
7578.288
7581.368
7584.466
7587.581
7590.71
7593.85
7596.999
7600.156
7603.317
7606.482
7609.649
7612.816
7615.981
7619.142
7622.298
7625.448
7628.588
7631.718
7634.836
7637.941
7641.03
7644.103
7647.159
7650.196
7653.213
7656.208
7659.182
7662.131
7665.055
7667.951
7670.814
7673.641
7676.423
7679.15
7681.81
7684.388
7686.869
7689.239
7691.496
7693.655
7695.738
7697.764
7699.736
7701.655
7703.499
7705.241
7706.871
7708.429
7709.945
7711.423
7712.854
7714.226
7715.539
7716.798
7718.004
7719.155
7720.249
7721.28
7722.246
7723.145
7723.974
7724.733
7725.419
7726.031
7726.57
7727.034
7727.423
7727.738
7727.979
7728.147
7728.242
7728.265
7728.218
7728.102
7727.917
7727.666
7727.35
7726.971
7726.529
7726.028
7725.467
7724.85
7724.177
7723.45
7722.671
7721.842
7720.963
7720.036
7719.063
7718.045
7716.984
7715.88
7714.734
7713.548
7712.322
7711.057
7709.755
7708.414
7707.036
7705.622
7704.17
7702.682
7701.156
7699.593
7697.991
7696.35
7694.668
7692.944
7691.175
7689.36
7687.495
7685.578
7683.604
7681.57
7679.471
7677.303
7675.061
7672.743
7670.349
7667.883
7665.357
7662.801
7660.256
7657.803
7655.523
7653.56
7652.002
7651.069
7650.774
7651.428
4131.308
4094.204
4051.908
3996.71
3953.666
3876.074
3833.812
3790.314
3745.09
3699.141
3652.471
3604.696
3555.33
3504.535
3450.208
3325.843
3270.167
3214.872
3159.395
3104.219
3049.831
2997.25
2946.773
2898.705
2854.109
2814.777
2780.924
2752.183
2728.531
2708.47
2691.379
2679.306
2674.295
2677.874
2690.991
2714.082
2747.475
2791.615
2846.871
2913.697
2991.64
3080.836
3181.334
3292.983
3415.342
3547.765
3689.446
3839.544
3997.037
4160.829
4329.956
4502.429
4675.398
4851.451
5026.714
5200.061
5369.257
5532.219
5687.295
5832.211
5964.012
6079.6
6176.362
6252.367
6306.764
6339.345
6350.287
6340.216
6310.163
6261.621
6196.428
6116.638
6024.594
5922.393
5812.211
5696.105
5576.122
5454.776
5333.91
5214.711
5098.251
4985.422
4877.26
4775.096
4680.32
4593.061
4513.014
4439.764
4373.257
4313.2
4259.216
4210.916
4167.636
4128.855
4094.613
4065.231
4040.946
4021.811
4007.795
3998.874
3994.96
3995.807
4001.084
4010.391
4023.034
4038.117
4054.404
4070.607
4085.454
4097.356
4104.597
4105.614
4098.985
4083.277
4057.247
4019.934
3970.454
3908.304
3833.568
3748.073
3654.736
3557.084
3459.248
3366.227
3282.038
3209.615
3150.893
3107.009
3078.557
3065.319
3066.387
3080.601
3106.65
3143.452
3189.829
3244.512
3306.339
3374.188
3447.042
3523.984
3604.211
3686.869
3770.868
3854.633
3936.355
4014.106
4086.128
4151.046
4207.96
4256.889
4298.511
4333.243
4361.189
4382.786
4399.084
4411.433
4421.06
4428.985
4436.279
4444.104
4453.793
4466.674
4483.719
4506.908
4537.179
4575.133
4621.309
4675.933
4738.774
4809.026
4885.116
4965.02
5046.798
5129.037
5211.395
5295.115
5381.249
5468.734
5555.306
5639.032
5718.804
5793.911
5863.989
5929.664
5991.449
6049.454
6103.846
6154.696
6201.936
6245.595
6285.983
6323.378
6358.071
6390.479
6421.07
6450.256
6478.35
6505.574
6532.082
6557.966
6583.287
6608.099
6632.446
6656.351
6679.824
6702.873
6725.495
6747.686
6769.433
6790.666
6811.353
6831.494
6851.062
6869.968
6888.141
6905.606
6922.335
6938.32
6953.562
6968.082
6981.909
6995.066
7007.58
7019.486
7030.819
7041.611
7051.889
7061.68
7071.011
7079.911
7088.411
7096.537
7104.309
7111.748
7118.869
7125.685
7132.202
7138.426
7144.358
7149.995
7155.331
7160.359
7165.072
7169.462
7173.517
7177.23
7180.596
7183.611
7186.275
7188.592
7190.57
7192.219
7193.556
7194.598
7195.368
7195.888
7196.187
7196.293
7196.234
7196.041
7195.744
7195.369
7194.945
7194.497
7194.049
7193.62
7193.231
7192.894
7192.625
7192.432
7192.326
7192.31
7192.39
7192.563
7192.834
7193.189
7193.608
7194.061
7194.533
7195.023
7195.54
7196.077
7196.623
7197.176
7197.726
7198.273
7198.805
7199.325
7199.823
7200.303
7200.763
7201.201
7201.618
7202.014
7202.39
7202.75
7203.095
7203.428
7203.752
7204.07
7204.388
7204.71
7205.044
7205.401
7205.797
7206.255
7206.804
7207.483
7208.343
7209.437
7210.821
7212.555
7214.588
7216.865
7219.259
7221.756
7224.31
7226.911
7229.549
7232.215
7234.904
7237.611
7240.334
7243.071
7245.822
7248.587
7251.366
7254.158
7256.963
7259.781
7262.612
7265.455
7268.312
7271.181
7274.062
7276.955
7279.86
7282.776
7285.703
7288.638
7291.581
7294.529
7297.477
7300.425
7303.376
7306.328
7309.258
7312.154
7315.033
7317.937
7320.891
7323.889
7326.917
7329.966
7333.03
7336.111
7339.207
7342.32
7345.447
7348.585
7351.734
7354.89
7358.052
7361.219
7364.388
7367.558
7370.727
7373.892
7377.053
7380.208
7383.354
7386.489
7389.613
7392.724
7395.819
7398.897
7401.957
7404.998
7408.017
7411.013
7413.985
7416.931
7419.848
7422.733
7425.582
7428.39
7431.15
7433.854
7436.493
7439.054
7441.529
7443.91
7446.196
7448.393
7450.513
7452.567
7454.557
7456.48
7458.326
7460.095
7461.791
7463.419
7464.979
7466.476
7467.915
7469.297
7470.623
7471.893
7473.107
7474.263
7475.359
7476.391
7477.357
7478.254
7479.081
7479.837
7480.519
7481.128
7481.663
7482.123
7482.508
7482.818
7483.054
7483.216
7483.306
7483.323
7483.27
7483.147
7482.955
7482.697
7482.374
7481.986
7481.537
7481.026
7480.457
7479.831
7479.149
7478.413
7477.625
7476.786
7475.898
7474.963
7473.981
7472.955
7471.885
7470.773
7469.619
7468.426
7467.194
7465.924
7464.616
7463.272
7461.892
7460.476
7459.024
7457.538
7456.016
7454.458
7452.864
7451.234
7449.566
7447.859
7446.113
7444.325
7442.494
7440.618
7438.695
7436.722
7434.697
7432.62
7430.49
7428.308
7426.081
7423.817
7421.536
7419.268
7417.053
7414.954
7413.036
7411.403
7410.121
7409.328
7409.026
7409.464
4062.917
4026.77
3998.041
3952.664
3902.133
3853.261
3805.817
3761.088
3718.615
3675.539
3564.752
3522.162
3479.5
3435.637
3390.271
3343.496
3295.263
3245.253
3193.547
3140.86
3088.434
3033.678
2978.249
2922.314
2866.499
2811.063
2756.593
2703.591
2652.298
2603.413
2558.392
2519.08
2485.176
2456.317
2432.303
2413.849
2402.318
2398.478
2403.189
2417.086
2440.621
2474.034
2517.75
2572.09
2637.414
2713.857
2801.506
2900.409
3010.42
3131.14
3261.947
3402.029
3550.481
3706.179
3867.984
4034.656
4204.329
4375.281
4547.233
4718.539
4888.244
5054.981
5215.776
5367.907
5508.955
5636.157
5746.747
5838.359
5909.159
5958.246
5985.451
5991.124
5976.127
5941.655
5889.378
5821.17
5739.264
5645.878
5543.082
5433.508
5319.152
5201.855
5083.395
4965.217
4849.291
4736.73
4628.088
4524.863
4428.537
4339.91
4258.982
4185.427
4118.803
4058.671
4004.423
3955.498
3911.495
3871.93
3836.362
3804.795
3777.677
3755.464
3738.373
3726.555
3720.358
3719.833
3724.604
3734.382
3748.959
3767.79
3789.782
3813.61
3837.817
3860.811
3880.797
3895.634
3903.219
3901.48
3888.712
3863.693
3825.445
3772.718
3703.501
3617.471
3517.314
3406.874
3290.759
3174.108
3063.105
2964.127
2880.865
2814.271
2765.472
2735.121
2722.138
2724.982
2742.556
2773.034
2814.66
2865.911
2925.754
2993.113
3066.755
3145.562
3228.557
3315.089
3404.538
3495.601
3586.544
3675.288
3759.567
3837.416
3907.455
3968.813
4021.259
4065.162
4100.903
4128.866
4149.571
4163.921
4173.168
4178.491
4181.023
4181.936
4182.472
4184.083
4188.463
4197.273
4211.961
4233.495
4262.676
4300.035
4345.924
4400.496
4463.699
4534.934
4612.968
4696.198
4782.998
4872.281
4964.103
5058.452
5153.993
5248.835
5341.29
5430.094
5514.479
5594.096
5669.077
5739.332
5804.754
5865.514
5921.697
5973.328
6020.443
6063.29
6102.273
6137.888
6170.692
6201.24
6230.015
6257.402
6283.696
6309.117
6333.825
6357.931
6381.525
6404.674
6427.422
6449.799
6471.821
6493.496
6514.816
6535.754
6556.27
6576.328
6595.884
6614.883
6633.274
6651.05
6668.115
6684.418
6699.989
6714.83
6728.955
6742.391
6755.161
6767.293
6778.821
6789.782
6800.21
6810.137
6819.592
6828.605
6837.206
6845.422
6853.28
6860.802
6868.007
6874.912
6881.528
6887.863
6893.923
6899.707
6905.213
6910.432
6915.357
6919.981
6924.295
6928.285
6931.941
6935.257
6938.231
6940.859
6943.146
6945.098
6946.725
6948.043
6949.068
6949.821
6950.327
6950.611
6950.702
6950.628
6950.419
6950.104
6949.711
6949.268
6948.801
6948.333
6947.886
6947.477
6947.123
6946.837
6946.628
6946.504
6946.471
6946.531
6946.682
6946.923
6947.238
6947.613
6948.036
6948.499
6948.996
6949.523
6950.07
6950.63
6951.197
6951.764
6952.327
6952.88
6953.423
6953.952
6954.48
6954.985
6955.471
6955.938
6956.387
6956.821
6957.241
6957.65
6958.052
6958.449
6958.846
6959.25
6959.666
6960.105
6960.578
6961.102
6961.697
6962.389
6963.21
6964.198
6965.389
6966.818
6968.509
6970.438
6972.559
6974.865
6977.265
6979.717
6982.232
6984.797
6987.4
6990.036
6992.696
6995.377
6998.078
7000.798
7003.534
7006.287
7009.056
7011.84
7014.638
7017.452
7020.279
7023.119
7025.973
7028.84
7031.72
7034.611
7037.514
7040.426
7043.348
7046.278
7049.215
7052.156
7055.099
7058.04
7060.975
7063.902
7066.82
7069.743
7072.686
7075.657
7078.657
7081.681
7084.725
7087.787
7090.866
7093.961
7097.073
7100.199
7103.337
7106.486
7109.643
7112.808
7115.977
7119.149
7122.324
7125.497
7128.668
7131.835
7134.996
7138.149
7141.292
7144.423
7147.54
7150.643
7153.727
7156.794
7159.839
7162.862
7165.861
7168.834
7171.778
7174.691
7177.569
7180.409
7183.206
7185.953
7188.644
7191.271
7193.826
7196.302
7198.695
7201.003
7203.229
7205.378
7207.457
7209.468
7211.41
7213.281
7215.083
7216.814
7218.471
7220.056
7221.575
7223.035
7224.438
7225.782
7227.068
7228.293
7229.457
7230.557
7231.592
7232.558
7233.455
7234.281
7235.035
7235.714
7236.32
7236.851
7237.306
7237.686
7237.992
7238.222
7238.379
7238.462
7238.473
7238.412
7238.282
7238.083
7237.816
7237.484
7237.088
7236.629
7236.109
7235.53
7234.894
7234.202
7233.456
7232.657
7231.808
7230.91
7229.964
7228.972
7227.936
7226.857
7225.736
7224.574
7223.373
7222.134
7220.857
7219.544
7218.196
7216.812
7215.395
7213.943
7212.458
7210.94
7209.389
7207.804
7206.185
7204.533
7202.846
7201.125
7199.367
7197.573
7195.741
7193.871
7191.963
7190.016
7188.032
7186.014
7183.966
7181.897
7179.82
7177.756
7175.733
7173.788
7171.972
7170.337
7168.961
7167.887
7167.215
7166.929
7167.268
3817.473
3765.086
3651.905
3608.472
3564.147
3521.048
3479.387
3438.924
3399.158
3359.822
3320.983
3280.62
3239.08
3196.103
3151.617
3105.364
3057.289
3007.249
2955.163
2901.63
2848.071
2793.368
2737.616
2681.067
2624.124
2566.694
2509.113
2452.483
2397.693
2345.461
2296.826
2253.476
2216.196
2184.791
2159.451
2140.739
2129.425
2126.055
2131.201
2145.302
2168.654
2201.75
2244.85
2298.256
2362.306
2437.295
2523.423
2620.746
2729.114
2848.139
2977.192
3115.434
3262.015
3415.602
3574.868
3737.898
3903.073
4069.414
4236.843
4404.913
4571.455
4734.206
4890.406
5037.242
5172.062
5292.209
5395.163
5478.843
5541.656
5582.887
5602.465
5601.008
5579.555
5539.58
5482.956
5411.525
5327.854
5234.109
5132.422
5024.655
4912.325
4798.054
4683.207
4568.776
4457.091
4349.781
4247.64
4151.692
4062.939
3981.929
3908.735
3843.082
3784.418
3731.981
3684.854
3642.292
3603.752