/*--------------------------------*- C++ -*----------------------------------*\
| =========                 |                                                 |
| \\      /  F ield         | foam-extend: Open Source CFD                    |
|  \\    /   O peration     | Version:     3.1                                |
|   \\  /    A nd           | Web:         http://www.extend-project.de       |
|    \\/     M anipulation  |                                                 |
\*---------------------------------------------------------------------------*/
FoamFile
{
    version     2.0;
    format      ascii;
    class       volScalarField;
    location    "6";
    object      p;
}
// * * * * * * * * * * * * * * * * * * * * * * * * * * * * * * * * * * * * * //

dimensions      [1 -1 -2 0 0 0 0];

internalField   nonuniform List<scalar> 
119952
(
7557.311
7559.412
7552.825
7539.949
7552.555
7548.892
7543.939
7535.031
7528.702
7529.359
7525.223
7521.148
7517.918
7511.705
7509.02
7514.367
7502.262
7503.817
7505.161
7512.151
7511.331
7496.286
7507.586
7517.107
7508.389
7516.014
7540.991
7540.25
7564.58
8580.398
6562.136
6359.11
6308.467
6181.385
6005.199
5930.56
5831.881
5760.199
5558.152
5425.876
5683.194
5662.376
5723.551
5785.323
5864.135
5951.015
6042.705
6146.283
6343.624
6449.042
6525.519
6618.085
6715.425
6807.128
6882.904
6953.821
7020.423
7080.743
7121.947
7177.317
7214.961
7240.565
7259.571
7272.379
7279.967
7287.368
7289.096
7282.64
7279.309
7282.103
7284.025
7282.095
7278.667
7267.423
7264.992
7260.26
7256.9
7256.705
7251.303
7249.894
7246.111
7240.829
7237.545
7235.588
7232.694
7230.013
7227.76
7229.526
7229.473
7227.705
7235.845
7248.588
7253.326
7252.442
7248.52
7261.684
7244.819
7203.837
7184.722
7197.033
7200.529
7201.031
7202.772
7201.642
7198.129
7192.506
7192.382
7198.776
7217.965
7233.108
7259.054
7279.127
7233.638
7245.286
7247.478
7250.44
7253.395
7258.067
7263.002
7255.42
7259.842
7262.994
7263.712
7263.98
7264.646
7265.082
7265.89
7265.867
7265.427
7264.771
7264.117
7263.381
7263.081
7262.889
7261.764
7261.819
7262.319
7263.492
7271.313
7260.413
7269.469
7270.845
7271.934
7274.261
7276.068
7275.193
7258.109
7233.996
7214.317
7213.965
7220.825
7219.671
7222.996
7228.828
7231.975
7237.178
7231.527
7235.951
7238.447
7241.313
7243.162
7244.62
7247.282
7249.18
7249.461
7251.664
7254.574
7256.006
7258.396
7262.223
7266.927
7270.791
7269.662
7274.775
7280.854
7288.315
7302.439
7290.546
7298.213
7302.906
7304.205
7304.929
7306.523
7304.771
7304.798
7319.447
7333.566
7332.606
7331.91
7334.97
7341.641
7346.078
7347.354
7356.228
7364.008
7377.28
7401.654
7460.871
7312.922
7325.813
7323.25
7335.665
7316.698
7368.277
7369.573
7369.165
7371.123
7375.398
7376.286
7378.829
7382.818
7386.094
7381.495
7383.459
7379.507
7366.773
7431.806
7405.988
7404.366
7398.11
7422.283
7406.525
7406.185
7408.024
7408.805
7410.534
7411.23
7412.958
7414.731
7417.474
7417.931
7417.959
7418.196
7425.624
7426.921
7430.051
7439.159
7443.878
7451.177
7457.732
7461.388
7466.685
7473.409
7477.391
7480.124
7483.203
7486.08
7486.439
7479.709
7560.066
7520.619
7512.489
7519.041
7523.649
7525.56
7529.381
7532.455
7523.34
7554.476
7553.915
7558.599
7565.054
7569.859
7575.195
7570.723
7616.898
7596.67
7417.965
7517.288
7513.086
7518.4
7523.857
7528.018
7535.28
7535.291
7533.438
7542.863
7553.408
7547.674
7553.075
7555.65
7557.732
7561.903
7569.13
7567.854
7570.882
7576.056
7577.351
7575.224
7577.651
7579.851
7580.498
7577.79
7575.764
7575.481
7575.206
7574.193
7572.62
7570.844
7569.82
7573.583
7572.522
7575.38
7569.725
7569.108
7569.112
7567.87
7563.469
7564.209
7564.531
7565.281
7564.715
7566.342
7562.376
7565.146
7568.443
7571.151
7574.569
7578.756
7574.954
7551.575
7516.978
7513.743
7528.784
7541.701
7554.093
7513.189
7544.512
7545.871
7548.453
7555.273
7565.474
7571.253
7571.128
7588.822
7595.108
7606.63
7617.704
7621.924
7632.563
7641.295
7650.759
7659.146
7667.14
7676.516
7686.275
7695.152
7703.585
7712.662
7722.931
7732.648
7742.848
7752.436
7761.687
7771.938
7783.74
7795.396
7806.592
7818.643
7831.177
7843.522
7855.614
7867.866
7879.357
7890.889
7902.138
7913.082
7923.931
7934.42
7945.954
7960.204
7981.137
7991.597
8008.526
8024.181
8038.706
8053.121
8069.403
8085.309
8112.894
8111.111
8138.322
8151.381
8164.731
8180.215
8193.935
8207.001
8220.701
8235.77
8247.691
8256.476
8272.834
8286.685
8297.924
8310.239
8321.686
8332.794
8343.239
8354.023
8364.569
8375.235
8386.764
8396.755
8391.007
8362.381
8345.736
6378.929
6326.145
6302.528
6250.979
6139.386
6021.585
5859.631
5724.809
5536.019
5523.308
5531.889
5455.135
5461.389
5468.207
5509.153
5567.086
5633.413
5732.031
5939.219
6007.996
6102.981
6219.956
6329.171
6434.553
6538.125
6615.095
6648.896
6646.268
6642.813
6622.378
6637.379
6628.085
6594.061
6548.197
6498.405
6437.662
6333.13
6256.967
6135.111
5987.471
5856.72
5725.811
5611.049
5505.366
5411.525
5368.923
5369.925
5355.177
5376.526
5427.772
5493.716
5581.036
5683.108
5791.51
5907.597
6034.981
6120.543
6223.506
6329.283
6424.878
6514.644
6598.149
6665.842
6732.807
6794.18
6844.239
6886.433
6919.982
6945
6962.482
6973.839
6980.088
6982.826
6983.564
6982.15
6979.24
6976.799
6975.036
6972.142
6967.664
6961.972
6957.362
6954.276
6950.967
6946.342
6941.527
6937.726
6934.113
6930.459
6926.995
6923.855
6921.453
6919.68
6918.813
6919.194
6920.936
6923.935
6928.648
6935.472
6940.461
6942.306
6940.798
6936.443
6927.783
6913.253
6900.272
6895.096
6896.908
6899.452
6900.249
6899.321
6897.383
6896.432
6898.275
6904.372
6913.968
6925.727
6938.708
6950.238
6945.679
6938.585
6939.208
6942.754
6946.444
6949.749
6952.307
6953.89
6954.926
6955.816
6956.591
6957.31
6957.998
6958.394
6958.475
6958.196
6957.849
6957.441
6957.051
6956.533
6955.872
6955.315
6954.958
6954.703
6954.869
6955.398
6956.202
6957.395
6958.975
6960.415
6960.852
6959.984
6957.918
6952.774
6942.37
6928.252
6916.006
6914.312
6919.239
6923.589
6926.183
6927.742
6929.15
6930.496
6931.91
6933.131
6934.276
6935.609
6937.336
6939.178
6940.81
6942.29
6943.731
6945.602
6948.103
6951.039
6954.084
6957.211
6960.469
6963.853
6967.139
6970.774
6975.337
6981.424
6988.296
6991.636
6992.732
6994.695
6996.929
6998.806
7000.775
7003.499
7006.417
7013.557
7023.943
7028.259
7029.388
7031.565
7034.74
7038.402
7042.482
7045.811
7050.589
7053.519
7046.094
7105.966
7064.206
7050.576
7057.934
7064.959
7073.202
7085.838
7092.359
7093.428
7095.971
7098.513
7100.693
7102.522
7103.41
7106.737
7111.747
7114.237
7120.22
7135.106
7110.601
7122.763
7124.536
7123.055
7125.961
7130.123
7131.137
7132.151
7133.195
7134.684
7136.83
7138.457
7139.884
7141.499
7143.013
7144.399
7146.825
7150.428
7151.848
7157.003
7164.186
7171.123
7177.846
7183.461
7189.316
7194.486
7198.008
7202.151
7206.188
7210.125
7214.337
7218.799
7223.721
7232.029
7232.502
7239.046
7245.158
7248.709
7253.297
7257.612
7262.243
7266.358
7272.404
7277.623
7281.918
7287.109
7292.644
7298.131
7302.588
7303.934
7294.224
7138.69
7172.366
7208.174
7219.739
7221.447
7223.715
7227.635
7232.623
7237.434
7241.743
7245.383
7248.058
7249.872
7251.733
7254.493
7257.803
7261.001
7264.009
7266.261
7268.018
7272.546
7274.419
7274.257
7273.213
7272.158
7271.359
7270.64
7269.796
7268.651
7267.589
7266.607
7265.278
7263.053
7259.234
7261.004
7265.844
7266.145
7263.418
7260.386
7258.678
7257.709
7256.815
7256.091
7255.82
7255.946
7256.476
7257.057
7257.64
7258.096
7258.541
7258.402
7256.767
7251.598
7240.445
7232.018
7227.068
7226.243
7229.333
7232.768
7234.66
7236.834
7240.624
7245.79
7252.086
7259.38
7267.033
7274.786
7282.99
7291.45
7300.156
7308.63
7316.922
7325.191
7334.475
7345.626
7356.082
7364.645
7372.001
7378.825
7387.304
7397.087
7407.296
7418.297
7427.999
7437.681
7447.564
7456.755
7468.065
7479.489
7490.25
7501.874
7514.473
7527.335
7539.832
7551.907
7563.759
7575.639
7587.424
7598.812
7610.013
7621.265
7632.668
7644.873
7657.687
7675.182
7693.088
7707.48
7720.516
7735.076
7752.027
7769.163
7785.84
7801.789
7817.347
7832.461
7846.975
7861.183
7875.517
7889.935
7904.108
7917.866
7931.036
7943.864
7956.797
7969.603
7982.509
7994.757
8006.052
8017.117
8027.737
8038.072
8047.925
8057.066
8065.101
8070.95
8072.899
8069.193
8061.416
8055.829
6630.005
6572.325
6524.342
6476.408
6364.726
6278.528
6167.572
6040.022
5911.714
5819.28
5570.146
5396.949
5243.394
5121.102
5001.259
4905.631
4858.636
4846.687
4894.516
4908.401
4980.304
5069.448
5173.454
5279.887
5375.883
5464.973
5547.241
5639.437
5723.556
5808.723
5893.286
5968.068
6038.451
6097.341
6145.793
6180.587
6194.303
6170.216
6164.898
6165.735
6091.402
5976.112
5842.388
5682.456
5539.361
5405.178
5295.88
5218.254
5165.779
5140.346
5141.93
5169.708
5217.887
5281.705
5357.94
5480.93
5558.237
5665.528
5785.494
5906.842
6019.081
6122.128
6209.455
6278.601
6317.121
6328.668
6342.663
6361.902
6360.946
6340.504
6297.787
6239.889
6168.825
6081.664
5975.137
5856.37
5735.209
5604.622
5471.718
5346.819
5228.304
5125.564
5046.977
4994.483
4973.636
4985.558
5021.792
5079.885
5161.565
5259.269
5368.983
5488.072
5607.195
5724.572
5843.818
5956.481
6063.89
6165.415
6260.091
6347.523
6419.586
6488.8
6551.044
6603.361
6645.63
6679.351
6704.858
6722.48
6733.471
6739.386
6741.828
6742.063
6741.063
6739.281
6736.887
6733.502
6728.733
6722.969
6717.119
6712.219
6708.295
6704.657
6701.292
6698.052
6694.878
6691.663
6688.196
6684.619
6681.086
6677.832
6675.361
6674.046
6673.55
6673.924
6675.625
6678.187
6680.703
6682.697
6684.354
6685.621
6684.976
6681.158
6674.322
6667.501
6662.394
6658.685
6657.22
6656.787
6656.177
6656.011
6656.948
6659.745
6664.967
6671.628
6677.647
6681.239
6683.208
6686.3
6689.331
6691.576
6694.711
6698.059
6701.774
6704.966
6707.443
6709.179
6710.527
6711.627
6712.436
6713.03
6713.217
6713.184
6712.878
6712.406
6711.918
6711.423
6710.999
6710.565
6710.264
6710.208
6710.356
6710.805
6711.274
6712.151
6712.913
6713.46
6713.876
6713.6
6712.582
6710.677
6707.569
6703.257
6696.958
6688.351
6679.47
6673.926
6672.034
6673.387
6675.425
6677.291
6679.294
6681.416
6683.832
6686.64
6689.55
6692.106
6694.067
6695.421
6696.65
6698.361
6700.789
6703.512
6706.209
6708.786
6711.376
6714.257
6717.476
6721.048
6724.864
6728.951
6733.028
6736.164
6739.131
6742.362
6745.866
6749.293
6752.704
6756.275
6760.098
6763.732
6765.78
6766.512
6767.902
6770.976
6775.652
6781.087
6785.741
6789.385
6793.476
6795.092
6792.032
6785.013
6776.389
6772.188
6769.608
6769.334
6770.555
6774.63
6780.28
6785.691
6789.897
6792.377
6794.211
6796.239
6798.403
6800.567
6802.687
6805.128
6808.059
6811.436
6814.419
6816.161
6817.927
6819.334
6820.283
6821.593
6823.156
6824.682
6826.173
6827.727
6829.555
6831.492
6833.403
6835.113
6836.641
6838.273
6840.507
6843.257
6846.561
6850.602
6855.481
6861.163
6867.109
6872.633
6877.798
6882.733
6887.484
6892.001
6896.336
6900.523
6904.725
6909.025
6913.467
6917.959
6922.696
6927.563
6932.442
6937.333
6942.17
6946.86
6951.585
6956.196
6960.696
6965.117
6969.694
6974.317
6978.667
6982.542
6985.742
6988.856
6991.901
6996.971
7007.007
7004.885
6997.437
6989.977
6984.959
6982.186
6982.647
6985.74
6989.432
6992.84
6996.13
6999.438
7002.744
7006.096
7009.171
7011.792
7014.128
7016.524
7018.952
7020.735
7021.896
7022.647
7022.936
7022.894
7022.615
7022.583
7022.567
7022.464
7022.071
7021.576
7021.099
7020.678
7020.774
7020.818
7019.644
7017.064
7014.521
7013.16
7012.605
7011.907
7010.973
7010.129
7009.479
7009.097
7008.882
7008.562
7008.332
7008.193
7008.205
7008.036
7007.234
7005.156
7001.586
6994.959
6986.538
6981.008
6979.909
6981.481
6983.933
6986.916
6991.423
6996.797
7002.076
7007.766
7014.659
7022.157
7029.789
7037.653
7046.213
7055.233
7064.303
7073.05
7081.636
7090.627
7099.664
7107.992
7116.839
7125.399
7133.298
7142.438
7152.791
7162.419
7172.949
7183.248
7192.871
7202.776
7212.215
7223.233
7234.784
7246.034
7257.165
7268.718
7281.011
7293.59
7305.594
7317.25
7328.92
7340.444
7351.927
7363.765
7376.245
7389.486
7403.549
7417.993
7432.142
7446.117
7460.802
7475.536
7490.811
7507.964
7524.947
7541.25
7556.981
7572.454
7587.716
7602.521
7616.969
7631.306
7645.645
7659.553
7673.165
7686.273
7699.513
7712.479
7725.059
7737.244
7749.053
7760.532
7771.534
7781.747
7791.237
7799.925
7807.934
7814.54
7818.959
7820.687
7819.144
7814.314
7807.117
4901.331
4980.057
4901.191
5574.272
5800.555
5986.655
6172.296
6241.301
6315.918
6380.497
6419.366
6420.66
6404.062
6366.011
6310.068
6222.435
6111.12
6003.299
5886.523
5767.054
5617.678
5447.577
5255.327
5089.443
4923.099
4782.571
4658.223
4575.803
4540.681
4546.918
4584.924
4593.266
4681.177
4782.022
4888.164
4987.378
5082.767
5177.02
5267.518
5358.219
5442.664
5524.888
5605.558
5679.321
5746.875
5802.763
5851.634
5888.12
5897.674
5899.612
5881.219
5827.498
5726.282
5580.198
5429.31
5270.778
5109.393
4966.45
4860.28
4792.351
4759.305
4758.21
4783.173
4824.986
4877.088
4953.549
5043.185
5136.299
5245.743
5363.395
5489.172
5613.759
5731.1
5836.883
5931.835
6013.414
6074.836
6117.12
6140.852
6156.312
6157.717
6132.988
6083.571
6015.756
5928.727
5826.64
5714.691
5593.782
5462.194
5326.265
5186.419
5054.423
4929.201
4817.449
4730.969
4672.173
4647.115
4654.033
4697.298
4768.346
4858.591
4963.669
5079.598
5201.512
5326.257
5452.255
5574.751
5691.419
5800.8
5906.486
6002.733
6093.146
6171.883
6240.956
6304.665
6357.5
6401.029
6436.178
6462.927
6481.615
6492.913
6498.529
6500.455
6500.052
6497.885
6494.509
6490.474
6485.742
6480.62
6475.235
6469.531
6464.184
6459.669
6455.706
6451.837
6447.82
6443.627
6439.829
6435.939
6432.111
6428.558
6425.576
6422.951
6421.74
6421.728
6422.909
6425.07
6428.282
6432.119
6436.102
6439.433
6441.25
6440.236
6436.777
6431.753
6425.939
6420.853
6417.792
6416.106
6415.495
6415.396
6415.683
6416.308
6417.894
6420.819
6424.914
6429.916
6435.056
6439.975
6444.029
6446.824
6448.557
6450.817
6453.729
6457.327
6459.248
6460.947
6463.024
6464.888
6466.292
6467.22
6467.589
6467.607
6467.32
6466.898
6466.275
6465.724
6465.195
6464.807
6464.565
6464.268
6464.048
6463.818
6463.811
6463.992
6464.277
6464.528
6464.715
6464.518
6463.739
6462.236
6459.78
6456.168
6451.541
6446.103
6440.417
6435.85
6433.323
6432.769
6433.505
6434.655
6435.555
6436.465
6438.989
6441.718
6444.23
6447.064
6449.684
6450.984
6451.396
6452.045
6453.671
6456.046
6458.541
6460.854
6463.188
6465.691
6468.545
6471.769
6475.542
6479.616
6484.092
6488.649
6492.301
6495.814
6499.146
6502.149
6504.917
6507.593
6510.468
6513.52
6516.747
6520.576
6525.206
6530.07
6534.192
6537.482
6540.407
6543.26
6546.027
6548.113
6545.889
6541.301
6537.912
6533.064
6526.175
6520.267
6520.455
6525.305
6531.049
6535.947
6539.845
6542.683
6545.308
6547.855
6550.39
6552.949
6555.46
6557.858
6560.131
6562.412
6564.65
6566.194
6566.903
6568.347
6570.61
6572.799
6574.774
6576.844
6578.774
6580.568
6582.426
6584.294
6586.241
6588.144
6590.163
6592.18
6594.222
6596.412
6599.039
6602.227
6605.915
6610.584
6615.639
6620.619
6625.576
6630.561
6635.469
6640.152
6644.661
6649.053
6653.656
6658.292
6662.924
6667.515
6672.076
6676.831
6681.875
6686.822
6691.492
6696.02
6700.415
6704.787
6709.283
6713.983
6718.687
6723.43
6727.845
6731.657
6734.757
6736.541
6736.612
6733.937
6728.123
6720.111
6714.997
6717.536
6725.541
6732.563
6738.107
6741.8
6744.725
6747.724
6751.194
6754.659
6757.786
6760.664
6763.512
6766.124
6768.172
6769.825
6771.45
6773.56
6775.609
6777.32
6778.92
6780.115
6780.718
6780.728
6780.27
6779.624
6779.064
6778.487
6777.595
6776.332
6775.018
6773.627
6772.192
6770.906
6769.88
6769.06
6768.127
6767.031
6765.843
6764.596
6763.435
6762.373
6761.534
6760.881
6760.278
6759.704
6759.174
6758.702
6757.977
6756.752
6754.779
6752.047
6748.256
6743.518
6740.411
6740.484
6741.666
6744.077
6747.252
6750.843
6754.669
6759.31
6765.033
6771.454
6778.54
6785.826
6793.319
6801.275
6809.663
6818.434
6827.52
6837.103
6845.531
6852.615
6859.81
6868.329
6878.273
6888.516
6898.166
6907.88
6916.96
6926.296
6936.946
6946.741
6956.736
6966.734
6977.256
6988.822
7000.48
7011.367
7022.044
7033.7
7046.296
7058.41
7070.545
7082.65
7094.798
7107.034
7119.481
7132.247
7145.223
7158.502
7172.1
7186.295
7201.244
7216.417
7231.635
7246.812
7263.222
7279.339
7295.096
7310.658
7325.943
7341.009
7356.095
7370.952
7385.411
7399.569
7413.491
7427.324
7441.114
7454.555
7467.363
7479.835
7491.98
7503.982
7515.518
7526.332
7536.238
7545.128
7553.205
7560.467
7566.515
7570.475
7572.255
7571.894
7570.368
7568.06
3403.138
3368.368
3116.402
3240.607
3238.997
3429.193
3383.435
3465.403
3614.688
3855.152
4100.263
4412.927
4805.818
4936.133
5258.599
5498.243
5698.73
5793.991
5935.589
6047.664
6117.786
6146.302
6149.541
6130.244
6090.483
6017.519
5921.184
5810.143
5689.863
5568.105
5429.092
5266.262
5078.796
4880.55
4688.722
4507.487
4354.284
4236.856
4170.059
4155.45
4187.623
4241.253
4313.47
4405.807
4510.637
4619.621
4729.487
4836.449
4933.052
5026.162
5120.032
5212.357
5296.6
5375.664
5449.713
5515.416
5573.834
5629.057
5680.309
5696.808
5713.543
5689.926
5606.775
5459.523
5279.203
5109.591
4945.451
4783.812
4635.861
4521.74
4455.181
4431.118
4442.647
4477.579
4533.887
4602.863
4677.334
4763.211
4863.866
4972.556
5089.704
5215.121
5337.374
5454.049
5564.926
5668.092
5769.292
5860.062
5933.518
5979.404
5990.02
5967.759
5919.039
5852.347
5773.726
5684.676
5582.088
5462.26
5330.378
5190.68
5048.202
4900.841
4758.027
4623.311
4501.538
4406.239
4341.232
4314.062
4329.046
4373.412
4450.22
4549.42
4663.122
4784.922
4910.961
5038.353
5167.318
5291.664
5412.231
5528.137
5637.419
5739.649
5834.936
5919.912
5992.235
6058.314
6112.375
6157.713
6193.463
6220.125
6238.855
6250.212
6255.427
6256.62
6255.456
6252.627
6248.735
6244.459
6239.654
6234.201
6228.45
6222.612
6216.968
6212.085
6208.196
6204.963
6201.815
6198.385
6194.483
6190.666
6186.855
6183.273
6180.191
6178.354
6176.747
6176.659
6177.113
6178.506
6180.829
6183.793
6186.959
6189.474
6190.79
6190.971
6190.188
6187.924
6184.452
6180.811
6177.743
6175.486
6174.142
6173.499
6173.451
6174.011
6175.398
6177.64
6180.905
6184.592
6188.28
6191.431
6194.385
6197.306
6200.331
6203.547
6207.472
6211.035
6212.234
6213.327
6215.584
6217.998
6219.833
6220.852
6221.284
6221.247
6220.853
6220.38
6219.781
6219.244
6218.816
6218.442
6218.163
6217.979
6217.739
6217.702
6217.7
6217.917
6218.062
6218.217
6218.114
6217.682
6216.753
6215.349
6213.107
6210.101
6206.27
6201.717
6196.371
6192.138
6191.692
6193.496
6193.333
6192.037
6191.504
6191.277
6190.316
6191.838
6196.918
6199.869
6201.86
6203.256
6204.01
6205.39
6207.556
6210.171
6212.696
6214.883
6217.182
6219.677
6222.529
6225.786
6229.401
6233.029
6237.291
6241.586
6244.391
6247.4
6250.579
6253.748
6256.885
6260.01
6263.229
6266.475
6269.801
6272.895
6275.264
6277.707
6280.435
6283.061
6286.348
6291.214
6295.064
6296.668
6296.164
6293.69
6291.667
6289.813
6287.094
6284.752
6285.774
6288.285
6290.977
6293.948
6297.015
6299.795
6302.417
6304.953
6307.266
6309.466
6311.596
6313.676
6315.774
6317.975
6320.282
6322.568
6324.574
6326.441
6328.343
6330.189
6331.64
6332.887
6334.254
6335.856
6337.723
6339.816
6341.921
6343.903
6345.848
6347.892
6350.066
6352.529
6355.412
6358.499
6362.124
6366.418
6370.791
6375.327
6380.186
6385.356
6390.464
6395.284
6399.706
6403.988
6408.438
6412.976
6417.491
6421.988
6426.492
6431.146
6436.045
6440.887
6445.587
6450.194
6454.663
6459.005
6463.503
6468.101
6472.599
6476.851
6480.478
6483.804
6487.146
6490.287
6493.285
6496.289
6499.126
6501.804
6503.751
6504.664
6504.405
6503.68
6502.88
6502.457
6503.559
6506.324
6509.462
6512.323
6514.873
6517.78
6520.439
6522.799
6524.978
6527.115
6528.874
6530.563
6532.176
6533.432
6534.553
6535.195
6535.208
6534.694
6533.801
6532.993
6532.413
6531.919
6531.196
6530.149
6529.112
6527.946
6526.79
6525.613
6524.458
6523.13
6521.628
6520.102
6518.665
6517.278
6515.955
6514.732
6513.62
6512.726
6511.937
6511.167
6510.336
6509.442
6508.416
6507.192
6505.699
6503.816
6501.517
6498.658
6496.457
6496.272
6497.225
6498.705
6501.101
6504.306
6508.564
6513.689
6519.324
6525.362
6532.24
6539.326
6546.527
6554.021
6562.171
6570.833
6579.646
6589.01
6597.069
6604.817
6613.837
6623.533
6633.292
6643.247
6652.232
6661.403
6670.698
6679.53
6689.776
6700.056
6710.861
6721.257
6731.657
6742.786
6753.894
6764.8
6775.699
6787.129
6799.48
6811.875
6824.056
6836.324
6848.715
6861.102
6873.769
6886.691
6899.881
6913.44
6927.333
6941.679
6956.301
6971.234
6986.487
7002.245
7018.173
7033.946
7049.72
7065.693
7081.468
7097.011
7111.911
7126.286
7140.451
7154.712
7169.068
7183.325
7197.267
7210.461
7223.201
7235.674
7247.992
7259.746
7271.078
7281.466
7291.162
7299.816
7307.78
7314.663
7320.296
7323.979
7325.83
7326.218
7325.565
7324.34
3606.417
3609.834
3671.206
3528.299
3485.277
3386.164
3295.171
3232.109
3190.569
3134.211
3063.435
2986.433
2914.633
2898.124
2942.927
2938.332
3037.644
3149.787
3247.529
3410.745
3764.71
4097.868
4372.602
4603.04
4871.038
5156.139
5388.397
5454.191
5631.634
5786.403
5876.05
5918.549
5927.417
5917.383
5883.05
5817.05
5716.23
5584.488
5445.768
5311.591
5167.372
4996.551
4798.47
4585.342
4377.336
4183.633
4017.128
3895.66
3830.504
3820.587
3852.085
3930.788
4029.821
4139.898
4255.141
4372.655
4487.267
4594.359
4693.757
4785.981
4870.516
4956.261
5061.288
5155.388
5227.476
5288.363
5355.001
5435.321
5502.399
5517.393
5522.522
5486.054
5368.897
5191.19
5000.494
4826.339
4651.905
4470.524
4303.421
4179.47
4115.391
4102.424
4137.001
4191.081
4258.061
4337.329
4410.939
4494.695
4598.172
4707.828
4825.327
4948.953
5072.765
5193.507
5312.276
5424.264
5536.597
5647.962
5743.412
5806.378
5808.919
5774.895
5716.574
5639.804
5550.4
5451.254
5338.919
5213.578
5075.74
4927.928
4773.415
4612.431
4454.386
4307.21
4174.257
4071.065
4000.02
3968.459
3980.917
4036.797
4126.743
4237.356
4359.786
4486.979
4615.782
4745.233
4874.965
5003.862
5129.209
5249.661
5363.443
5470.488
5569.194
5659.041
5737.692
5806.744
5864.216
5910.95
5947.113
5973.56
5991.863
6003.134
6008.349
6009.227
6007.496
6004.111
5999.737
5994.98
5989.907
5984.386
5978.688
5973.208
5968.094
5963.343
5959.119
5955.396
5951.797
5947.967
5943.876
5939.723
5935.625
5931.906
5928.817
5926.612
5925.382
5924.592
5924.955
5927.085
5930.043
5933.708
5937.549
5940.944
5943.627
5945.799
5946.018
5944.508
5942.151
5939.46
5936.705
5934.383
5932.921
5932.247
5931.997
5932.24
5933.14
5934.585
5936.571
5938.948
5941.712
5944.636
5947.794
5951.126
5954.562
5958.237
5961.81
5965.011
5967.512
5969.274
5971.093
5972.953
5974.373
5975.172
5975.47
5975.357
5974.998
5974.506
5973.947
5973.429
5972.959
5972.461
5972.096
5971.902
5971.816
5971.748
5971.626
5971.604
5971.49
5971.211
5970.739
5969.985
5968.865
5967.327
5965.362
5962.913
5959.939
5956.335
5952.203
5947.992
5943.862
5944.582
5947.3
5947.709
5947.995
5950.125
5950.136
5950.713
5953.86
5953.65
5954.088
5956.048
5957.917
5959.885
5962.157
5964.561
5966.833
5968.921
5971.198
5973.622
5976.284
5979.546
5983.528
5987.319
5991.147
5994.695
5997.36
6000.604
6004.309
6007.894
6011.263
6014.525
6017.667
6020.958
6024.691
6027.465
6029.903
6033.457
6037.202
6040.232
6042.888
6044.995
6046.607
6047.732
6047.854
6046.891
6046.256
6045.907
6044.869
6043.253
6042.993
6044.399
6046.364
6048.785
6051.445
6053.99
6056.464
6058.921
6061.278
6063.535
6065.794
6068.06
6070.234
6072.232
6074.068
6075.903
6077.783
6079.548
6081.232
6083.144
6085.167
6086.958
6088.69
6090.482
6092.267
6094.099
6096.074
6098.172
6100.424
6102.762
6105.09
6107.633
6110.496
6113.736
6117.345
6121.289
6125.598
6129.985
6134.463
6139.114
6143.817
6148.507
6153.046
6157.528
6162.019
6166.565
6171.121
6175.694
6180.32
6185.026
6189.794
6194.636
6199.441
6204.153
6208.674
6213.018
6217.379
6221.775
6226.081
6230.2
6234.069
6237.575
6240.464
6242.448
6243.492
6244.12
6244.214
6243.556
6243.239
6243.656
6245.669
6249.205
6252.695
6255.903
6258.752
6261.675
6264.697
6267.532
6270.684
6274.113
6276.863
6278.951
6280.949
6283.112
6284.984
6285.997
6287.193
6288.584
6289.642
6290.168
6290.226
6289.984
6289.568
6289.065
6288.53
6288.008
6286.822
6285.601
6284.102
6282.538
6280.966
6279.439
6277.925
6276.412
6274.844
6273.242
6271.644
6270.089
6268.578
6267.159
6265.858
6264.706
6263.663
6262.667
6261.623
6260.522
6259.422
6258.361
6257.289
6256.037
6254.339
6252.431
6251.032
6251.056
6252.466
6254.634
6257.278
6260.849
6265.315
6270.571
6276.2
6282.187
6288.311
6295.366
6302.738
6310.408
6318.322
6327.354
6335.602
6343.397
6350.961
6359.204
6368.586
6377.849
6387.099
6396.498
6405.426
6414.625
6423.962
6433.148
6443.494
6453.936
6464.981
6475.377
6485.539
6496.218
6507.169
6518.247
6529.535
6541.148
6553.72
6566.397
6578.291
6590.15
6602.475
6615.199
6628.142
6641.242
6654.616
6668.176
6681.942
6695.901
6710.458
6726.155
6741.838
6757.755
6773.196
6788.332
6804.907
6821.149
6836.411
6851.326
6866.229
6880.96
6895.484
6909.785
6924.011
6938.004
6951.939
6965.927
6979.246
6991.901
7004.022
7015.454
7026.539
7036.9
7046.611
7055.409
7063.348
7070.048
7075.441
7079
7080.951
7081.182
7080.918
7081.266
3528.683
3490.912
3473.552
3451.529
3415.498
3371.907
3327.212
3293.021
3258.026
3221.964
3071.087
2976.237
2901.89
2836.751
2738.43
2614.215
2521.107
2475.243
2493.146
2535.127
2591.365
2703.628
2806.197
2905.585
3105.837
3444.998
3718.525
3972.19
4264.414
4517.205
4751.312
4967.045
5154.61
5341.214
5467.844
5559.617
5630.487
5663.356
5663.488
5626.647
5554.285
5446.939
5309.945
5160.867
5017.675
4871.842
4697.475
4491.486
4268.022
4045.032
3837.919
3663.662
3542.13
3482.721
3487.12
3545.819
3639.243
3755.054
3879.836
4004.979
4127.822
4246.776
4357.661
4462.85
4560.612
4651.564
4731.4
4821.365
4908.208
4995.665
5088.866
5160.654
5218.304
5275.35
5321.629
5327.089
5271.34
5137.171
4946.557
4743.657
4554.737
4359.371
4151.725
3964.497
3830.4
3769.151
3770.072
3815.188
3891.206
3980.644
4070.379
4156.53
4247.91
4349.899
4458.053
4572.949
4696.361
4822.84
4947.726
5070.921
5185.638
5297.54
5415.236
5527.549
5599.104
5615.156
5582.445
5511.09
5417.54
5317.987
5219.995
5111.474
4978.592
4825.388
4658.773
4486.337
4314.241
4148.516
3995.778
3858.669
3748.869
3672.404
3639.187
3656.306
3722.334
3824.073
3945.63
4074.785
4204.464
4332.441
4459.09
4586.42
4715.206
4843.368
4967.001
5085.023
5195.738
5298.599
5392.65
5476.6
5549.42
5610.173
5658.72
5695.707
5722.252
5739.946
5750.638
5755.858
5756.955
5755.345
5752.142
5747.857
5742.854
5737.579
5732.304
5726.863
5721.558
5716.639
5712.162
5708.097
5704.546
5701.434
5698.425
5695.284
5691.886
5688.226
5684.706
5681.721
5679.541
5678.239
5677.709
5678.673
5680.692
5683.358
5686.951
5690.964
5694.851
5697.992
5700.089
5700.986
5700.472
5699.069
5697.137
5694.922
5692.714
5690.942
5689.847
5689.456
5689.45
5689.988
5690.982
5692.423
5694.414
5696.91
5699.793
5702.82
5705.97
5709.275
5712.869
5716.387
5719.299
5721.731
5723.812
5725.471
5726.833
5727.877
5728.483
5728.607
5728.42
5728.039
5727.546
5727.05
5726.661
5726.315
5725.664
5725.274
5725.129
5725.095
5725.049
5724.924
5724.749
5724.495
5724.04
5723.487
5722.59
5721.441
5720.057
5718.445
5716.534
5714.497
5712.754
5712.32
5710.35
5703.602
5699.008
5699.932
5701.441
5702.898
5704.102
5705.401
5707.67
5708.126
5706.823
5707.604
5709.822
5712.22
5714.411
5716.713
5719.111
5721.31
5723.195
5724.666
5726.81
5730.287
5734.163
5737.941
5741.286
5744.598
5748.032
5751.035
5754.081
5757.245
5760.592
5763.906
5767.489
5770.898
5773.848
5777.226
5780.469
5783.333
5786.321
5789.368
5792.017
5794.32
5796.313
5798.37
5799.736
5799.729
5799.61
5799.609
5799.826
5799.888
5799.681
5799.981
5801.334
5803.435
5805.762
5808.231
5810.697
5813.207
5815.675
5817.936
5820.042
5822.075
5824.085
5826.119
5828.181
5830.17
5832.075
5833.94
5835.782
5837.575
5839.248
5840.833
5842.521
5844.31
5846.134
5847.978
5849.882
5851.764
5853.685
5855.867
5858.326
5860.892
5863.429
5866.185
5869.17
5872.658
5876.603
5880.614
5884.804
5889.234
5893.708
5898.224
5902.736
5907.268
5911.873
5916.418
5920.928
5925.43
5930.006
5934.689
5939.385
5944.127
5948.897
5953.627
5958.319
5962.881
5967.276
5971.541
5975.803
5980.009
5984.135
5988.02
5991.395
5994.351
5997.318
6000.363
6003.209
6005.693
6007.737
6009.555
6011.373
6012.858
6014.244
6016.256
6018.175
6019.866
6021.59
6023.677
6026.259
6028.847
6031.284
6033.626
6035.919
6037.954
6039.483
6040.303
6041.078
6042.553
6044.062
6045.478
6046.225
6046.186
6045.657
6044.863
6043.983
6043.025
6041.848
6040.929
6039.679
6038.182
6036.52
6034.806
6033.119
6031.494
6029.877
6028.247
6026.532
6024.716
6022.869
6021.065
6019.414
6017.906
6016.52
6015.248
6014.052
6012.848
6011.665
6010.566
6009.62
6008.785
6007.976
6006.957
6005.708
6004.97
6005.42
6007.103
6009.561
6012.066
6015.321
6019.585
6024.87
6030.4
6036.144
6042.137
6048.74
6056.124
6063.786
6071.418
6079.473
6087.712
6095.934
6104.175
6112.751
6121.708
6130.707
6139.851
6149.054
6158.225
6167.553
6177.072
6186.712
6196.972
6207.324
6217.891
6228.223
6238.598
6249.309
6260.297
6271.476
6282.906
6294.691
6307.392
6320.131
6332.07
6343.971
6356.672
6369.526
6382.679
6395.991
6409.525
6423
6436.898
6450.749
6465.168
6481.111
6497.114
6512.811
6528.144
6543.257
6559.08
6575.048
6590.569
6605.899
6621.212
6636.274
6651.278
6666.139
6680.432
6694.372
6708.366
6722.334
6735.839
6748.59
6760.535
6771.682
6782.662
6793.468
6803.305
6812.138
6819.929
6826.389
6831.407
6835.215
6837.685
6839.051
6839.454
6839.603
3283.132
3249.279
3169.308
3147.79
3111.005
3057.545
3003.032
2979.491
2948.417
2895.045
2826.378
2749.089
2668.924
2573.182
2436.164
2286.551
2177.452
2108.637
2123.454
2246.936
2335.222
2345.173
2369.076
2497.936
2814.521
3092.482
3355.243
3612.598
3896.433
4147.461
4367.527
4552.88
4786.782
4991.324
5109.463
5202.525
5289.538
5340.416
5347.827
5310.936
5231.815
5120.952
4982.05
4828.806
4670.651
4513.492
4339.821
4138.861
3920.77
3697.129
3484.443
3305.405
3184.583
3133.818
3154.272
3234.121
3349.767
3485.084
3624.508
3759.028
3886.14
4007.779
4122.54
4233.293
4338.087
4446.159
4551.28
4619.26
4688.296
4786.321
4889.952
4955.25
4971.625
4979.144
5002.14
5026.848
5001.003
4884.68
4700.215
4493.449
4288.808
4073.241
3850.324
3645.851
3505.987
3449.817
3466.249
3529.862
3621.166
3723.462
3823.133
3916.007
4010.419
4115.293
4226.857
4340.915
4456.106