/*--------------------------------*- C++ -*----------------------------------*\
| =========                 |                                                 |
| \\      /  F ield         | foam-extend: Open Source CFD                    |
|  \\    /   O peration     | Version:     3.1                                |
|   \\  /    A nd           | Web:         http://www.extend-project.de       |
|    \\/     M anipulation  |                                                 |
\*---------------------------------------------------------------------------*/
FoamFile
{
    version     2.0;
    format      ascii;
    class       volScalarField;
    location    "6";
    object      pd;
}
// * * * * * * * * * * * * * * * * * * * * * * * * * * * * * * * * * * * * * //

dimensions      [1 -1 -2 0 0 0 0];

internalField   nonuniform List<scalar> 
119952
(
7588.005
7596.826
7589.619
7573.475
7583.267
7580.244
7575.904
7567.609
7561.893
7563.163
7559.64
7556.178
7553.561
7547.962
7545.89
7551.85
7540.358
7542.526
7544.483
7552.086
7546.619
7531.836
7543.394
7547.769
7539.051
7546.676
7571.652
7570.912
7595.274
8611.092
6852.621
6646.054
6592.144
6461.795
6282.342
6204.431
6102.489
6027.54
5822.225
5687.801
5959.1
5938.283
5999.457
6061.229
6140.042
6226.921
6318.612
6422.189
6619.53
6755.605
6832.082
6924.647
7021.987
7113.691
7189.467
7260.384
7326.986
7387.306
7428.509
7483.879
7521.524
7547.127
7566.134
7578.942
7586.53
7593.93
7595.659
7589.203
7585.872
7588.665
7590.588
7588.658
7585.229
7573.985
7571.555
7566.822
7563.463
7563.267
7557.866
7556.457
7552.674
7547.391
7544.108
7542.151
7539.256
7536.576
7534.323
7536.088
7536.035
7534.268
7542.408
7555.151
7559.888
7559.004
7555.082
7568.247
7551.382
7510.4
7491.284
7503.595
7507.091
7507.594
7509.335
7508.204
7504.692
7499.069
7498.944
7505.339
7524.528
7539.671
7565.617
7585.689
7540.201
7551.848
7554.041
7557.002
7559.958
7564.629
7569.564
7561.983
7566.405
7569.556
7570.275
7570.543
7571.209
7571.644
7572.453
7572.43
7571.99
7571.334
7570.679
7569.943
7569.643
7569.452
7568.326
7568.382
7568.882
7570.055
7577.875
7566.976
7576.031
7577.407
7578.496
7580.824
7582.631
7581.755
7564.672
7540.558
7520.879
7520.527
7527.388
7526.233
7529.558
7535.39
7538.538
7543.74
7538.089
7542.514
7545.01
7547.875
7549.725
7551.183
7553.845
7555.742
7556.024
7558.227
7561.136
7562.569
7564.959
7568.785
7573.489
7577.353
7576.225
7581.338
7587.416
7594.878
7609.002
7597.109
7604.776
7609.468
7610.768
7611.492
7613.085
7611.334
7611.361
7626.01
7640.128
7639.168
7638.473
7641.532
7648.203
7652.64
7653.916
7662.79
7670.571
7683.842
7708.216
7736.777
7588.828
7601.72
7599.157
7611.571
7592.604
7644.183
7645.48
7645.071
7647.03
7651.305
7652.192
7654.735
7658.725
7662
7657.401
7659.365
7655.413
7642.679
7707.712
7681.894
7680.272
7674.016
7698.189
7682.431
7682.091
7683.93
7684.712
7686.44
7687.137
7688.865
7690.638
7693.38
7693.837
7693.865
7694.103
7701.531
7702.827
7705.957
7715.065
7719.784
7727.083
7733.638
7737.294
7742.591
7749.315
7753.297
7756.03
7759.109
7761.986
7762.345
7755.616
7835.972
7796.525
7788.396
7794.947
7799.555
7801.467
7805.288
7808.361
7799.246
7830.383
7829.821
7834.505
7840.96
7845.766
7851.101
7846.629
7892.805
7872.577
7724.528
7823.851
7819.648
7824.963
7830.42
7834.58
7841.842
7841.853
7840
7849.426
7859.971
7854.237
7859.637
7862.212
7864.295
7868.466
7875.693
7874.416
7877.444
7882.619
7883.914
7881.787
7884.213
7886.413
7887.06
7884.353
7882.326
7882.043
7881.769
7880.756
7879.183
7877.406
7876.382
7880.145
7879.084
7881.942
7876.288
7875.671
7875.674
7874.432
7870.031
7870.771
7871.093
7871.843
7871.278
7872.904
7868.938
7871.709
7875.005
7877.713
7881.131
7885.319
7881.516
7858.137
7823.54
7820.305
7835.347
7848.263
7860.656
7819.752
7851.075
7852.434
7855.015
7861.836
7872.037
7877.816
7877.691
7895.384
7901.671
7913.192
7924.266
7928.486
7939.125
7947.857
7957.321
7965.709
7973.702
7983.078
7992.837
8001.715
8010.148
8019.225
8029.493
8039.211
8049.41
8058.998
8068.25
8078.5
8090.302
8101.959
8113.154
8125.205
8137.739
8150.084
8162.177
8174.429
8185.919
8197.452
8208.701
8219.644
8230.494
8240.982
8252.516
8266.767
8287.7
8298.159
8315.089
8330.744
8345.269
8359.684
8375.966
8391.872
8419.456
8417.674
8444.884
8457.943
8471.293
8486.778
8500.498
8513.563
8527.263
8542.332
8554.253
8563.038
8579.397
8593.247
8604.487
8616.801
8628.249
8639.357
8649.802
8660.586
8671.132
8681.798
8693.327
8703.318
8697.569
8668.944
8652.299
6912.771
6856.706
6829.821
6775.005
6660.145
6539.077
6373.855
6235.766
6043.872
6044.464
6053.045
5976.291
5982.545
5989.363
6030.309
6088.242
6154.569
6253.188
6491.032
6559.809
6654.794
6771.769
6880.983
6986.365
7089.938
7166.907
7200.709
7198.081
7194.625
7174.191
7189.192
7179.898
7145.873
7100.009
7050.218
6989.474
6884.943
6808.779
6686.924
6539.283
6408.533
6277.623
6162.861
6057.179
5963.337
5920.735
5921.738
5906.99
5928.339
5979.584
6045.529
6132.849
6234.921
6343.322
6459.41
6586.793
6733.668
6836.631
6942.408
7038.003
7127.769
7211.274
7278.967
7345.932
7407.305
7457.364
7499.558
7533.107
7558.125
7575.607
7586.964
7593.213
7595.951
7596.689
7595.275
7592.365
7589.924
7588.161
7585.267
7580.789
7575.097
7570.487
7567.401
7564.092
7559.467
7554.652
7550.851
7547.238
7543.584
7540.12
7536.98
7534.578
7532.805
7531.938
7532.319
7534.061
7537.06
7541.773
7548.597
7553.586
7555.431
7553.923
7549.568
7540.908
7526.378
7513.397
7508.221
7510.033
7512.577
7513.374
7512.446
7510.508
7509.557
7511.4
7517.497
7527.093
7538.852
7551.833
7563.363
7558.804
7551.71
7552.333
7555.879
7559.569
7562.874
7565.432
7567.015
7568.051
7568.941
7569.716
7570.435
7571.123
7571.519
7571.6
7571.321
7570.974
7570.566
7570.176
7569.658
7568.997
7568.44
7568.083
7567.828
7567.994
7568.523
7569.327
7570.52
7572.1
7573.54
7573.977
7573.109
7571.043
7565.899
7555.495
7541.377
7529.131
7527.437
7532.364
7536.714
7539.308
7540.867
7542.275
7543.621
7545.035
7546.256
7547.401
7548.734
7550.461
7552.303
7553.935
7555.415
7556.856
7558.727
7561.228
7564.164
7567.209
7570.336
7573.594
7576.978
7580.264
7583.899
7588.462
7594.549
7601.421
7604.761
7605.857
7607.82
7610.054
7611.931
7613.9
7616.624
7619.542
7626.682
7637.068
7641.384
7642.513
7644.69
7647.865
7651.527
7655.607
7658.936
7663.714
7666.644
7659.219
7657.778
7616.019
7602.389
7609.747
7616.772
7625.015
7637.651
7644.172
7645.241
7647.783
7650.326
7652.506
7654.335
7655.223
7658.549
7663.559
7666.049
7672.033
7686.918
7662.413
7674.575
7676.349
7674.867
7677.773
7681.935
7682.95
7683.964
7685.007
7686.496
7688.642
7690.27
7691.696
7693.311
7694.825
7696.212
7698.637
7702.24
7703.66
7708.815
7715.999
7722.936
7729.658
7735.273
7741.128
7746.298
7749.821
7753.964
7758
7761.938
7766.149
7770.612
7775.534
7783.842
7784.314
7790.859
7796.971
7800.521
7805.109
7809.424
7814.055
7818.171
7824.217
7829.436
7833.73
7838.922
7844.457
7849.943
7854.4
7855.746
7846.037
7751.815
7785.491
7821.299
7832.864
7834.572
7836.84
7840.76
7845.749
7850.559
7854.868
7858.508
7861.183
7862.997
7864.858
7867.618
7870.928
7874.126
7877.134
7879.386
7881.143
7885.671
7887.544
7887.382
7886.338
7885.283
7884.484
7883.765
7882.921
7881.776
7880.714
7879.732
7878.403
7876.178
7872.359
7874.129
7878.969
7879.27
7876.543
7873.511
7871.803
7870.834
7869.94
7869.216
7868.945
7869.071
7869.601
7870.182
7870.765
7871.221
7871.666
7871.527
7869.892
7864.723
7853.57
7845.143
7840.193
7839.368
7842.458
7845.893
7847.785
7849.959
7853.749
7858.915
7865.211
7872.505
7880.158
7887.911
7896.115
7904.575
7913.281
7921.755
7930.047
7938.316
7947.6
7958.751
7969.207
7977.77
7985.126
7991.95
8000.429
8010.212
8020.421
8031.422
8041.124
8050.806
8060.689
8069.88
8081.19
8092.614
8103.375
8114.999
8127.598
8140.46
8152.957
8165.032
8176.884
8188.764
8200.549
8211.937
8223.138
8234.39
8245.793
8257.998
8270.812
8288.307
8306.213
8320.605
8333.641
8348.201
8365.152
8382.288
8398.965
8414.914
8430.472
8445.586
8460.1
8474.308
8488.642
8503.06
8517.233
8530.991
8544.161
8556.989
8569.922
8582.728
8595.634
8607.882
8619.177
8630.242
8640.862
8651.197
8661.05
8670.191
8678.226
8684.075
8686.024
8682.318
8674.541
8668.954
7410.991
7349.77
7298.52
7247.318
7132.369
7042.899
6928.68
6797.863
6666.288
6571.704
6336.552
6163.355
6009.8
5887.509
5767.666
5672.037
5625.042
5613.093
5660.923
5705.463
5777.367
5866.511
5970.516
6076.949
6172.945
6262.035
6344.303
6436.499
6520.618
6605.785
6690.348
6765.131
6835.513
6894.404
6942.855
6977.65
6991.366
6967.278
6961.961
6962.798
6888.465
6773.175
6639.451
6479.518
6336.424
6202.24
6092.942
6015.316
5962.841
5937.408
5938.992
5966.77
6014.95
6078.768
6155.003
6277.992
6416.612
6523.903
6643.869
6765.217
6877.456
6980.503
7067.83
7136.976
7175.496
7187.043
7201.038
7220.277
7219.321
7198.879
7156.162
7098.264
7027.2
6940.039
6833.512
6714.745
6593.584
6462.997
6330.093
6205.194
6086.679
5983.939
5905.352
5852.858
5832.011
5843.933
5880.167
5938.26
6019.94
6117.644
6227.358
6346.447
6465.57
6582.947
6702.193
6814.856
6922.265
7023.79
7118.466
7205.898
7277.961
7347.175
7409.419
7461.736
7504.005
7537.726
7563.233
7580.855
7591.846
7597.761
7600.203
7600.437
7599.438
7597.656
7595.262
7591.877
7587.108
7581.344
7575.494
7570.594
7566.67
7563.032
7559.667
7556.427
7553.253
7550.038
7546.571
7542.994
7539.461
7536.207
7533.736
7532.421
7531.925
7532.299
7534
7536.562
7539.078
7541.072
7542.729
7543.996
7543.351
7539.533
7532.697
7525.876
7520.769
7517.06
7515.595
7515.162
7514.552
7514.386
7515.323
7518.12
7523.342
7530.003
7536.022
7539.614
7541.583
7544.675
7547.706
7549.951
7553.086
7556.434
7560.149
7563.341
7565.818
7567.554
7568.902
7570.002
7570.811
7571.405
7571.592
7571.559
7571.253
7570.781
7570.293
7569.798
7569.374
7568.94
7568.639
7568.583
7568.731
7569.18
7569.649
7570.526
7571.288
7571.835
7572.251
7571.975
7570.957
7569.052
7565.944
7561.632
7555.334
7546.726
7537.845
7532.301
7530.409
7531.762
7533.8
7535.666
7537.669
7539.791
7542.207
7545.015
7547.925
7550.481
7552.442
7553.796
7555.025
7556.736
7559.164
7561.887
7564.584
7567.161
7569.751
7572.632
7575.851
7579.423
7583.239
7587.326
7591.403
7594.539
7597.506
7600.737
7604.241
7607.668
7611.079
7614.65
7618.473
7622.107
7624.155
7624.887
7626.277
7629.351
7634.027
7639.462
7644.116
7647.76
7651.851
7653.467
7650.407
7643.388
7634.764
7630.563
7627.983
7627.709
7628.93
7633.005
7638.655
7644.066
7648.272
7650.752
7652.586
7654.614
7656.778
7658.942
7661.062
7663.504
7666.434
7669.811
7672.795
7674.536
7676.302
7677.709
7678.659
7679.968
7681.531
7683.057
7684.548
7686.102
7687.93
7689.867
7691.778
7693.488
7695.016
7696.648
7698.882
7701.633
7704.936
7708.977
7713.856
7719.538
7725.484
7731.008
7736.173
7741.108
7745.859
7750.376
7754.711
7758.898
7763.1
7767.4
7771.842
7776.334
7781.071
7785.938
7790.817
7795.708
7800.545
7805.235
7809.96
7814.571
7819.071
7823.492
7828.069
7832.692
7837.042
7840.917
7844.117
7847.231
7850.276
7855.346
7865.382
7863.26
7855.812
7848.352
7843.334
7840.561
7841.022
7844.116
7847.807
7851.215
7854.505
7857.813
7861.119
7864.471
7867.546
7870.167
7872.503
7874.899
7877.327
7879.11
7880.271
7881.022
7881.311
7881.269
7880.99
7880.958
7880.942
7880.839
7880.446
7879.951
7879.474
7879.053
7879.149
7879.193
7878.019
7875.439
7872.896
7871.535
7870.98
7870.282
7869.348
7868.504
7867.854
7867.472
7867.257
7866.937
7866.707
7866.568
7866.58
7866.411
7865.609
7863.531
7859.961
7853.334
7844.913
7839.383
7838.284
7839.856
7842.308
7845.291
7849.798
7855.172
7860.451
7866.141
7873.034
7880.532
7888.164
7896.028
7904.588
7913.608
7922.678
7931.425
7940.011
7949.002
7958.039
7966.367
7975.214
7983.774
7991.673
8000.813
8011.166
8020.794
8031.324
8041.623
8051.246
8061.151
8070.59
8081.608
8093.159
8104.409
8115.54
8127.093
8139.386
8151.965
8163.969
8175.625
8187.295
8198.819
8210.302
8222.14
8234.62
8247.861
8261.924
8276.368
8290.517
8304.492
8319.177
8333.911
8349.186
8366.339
8383.322
8399.625
8415.356
8430.829
8446.091
8460.896
8475.344
8489.681
8504.02
8517.928
8531.54
8544.648
8557.888
8570.854
8583.434
8595.619
8607.428
8618.907
8629.909
8640.122
8649.612
8658.3
8666.309
8672.915
8677.334
8679.062
8677.519
8672.689
8665.492
5918.536
5985.708
5903.367
6585.929
6812.211
7028.968
7214.609
7283.613
7358.231
7422.809
7461.678
7462.972
7446.375
7408.323
7352.38
7264.748
7153.433
7045.612
6928.835
6809.366
6659.99
6489.889
6297.64
6131.756
5965.412
5824.884
5700.535
5618.116
5582.994
5589.231
5627.237
5696.891
5784.802
5885.647
5991.789
6091.003
6186.392
6280.645
6371.143
6461.844
6546.289
6628.512
6709.182
6782.946
6850.5
6906.388
6955.259
6991.744
7001.299
7003.237
6984.844
6931.123
6829.907
6683.823
6532.935
6374.403
6213.018
6070.075
5963.905
5895.976
5862.93
5861.835
5886.798
5928.611
5980.712
6057.174
6146.81
6239.923
6349.368
6467.02
6592.797
6717.384
6834.725
6940.508
7035.46
7117.039
7178.461
7220.745
7244.477
7259.937
7261.342
7236.612
7187.196
7119.381
7032.352
6930.265
6818.316
6697.407
6565.819
6429.89
6290.044
6158.048
6032.826
5921.074
5834.594
5775.798
5750.74
5757.658
5800.923
5871.971
5962.216
6067.294
6183.223
6305.137
6429.882
6555.88
6678.376
6795.043
6904.425
7010.111
7106.358
7196.771
7275.508
7344.581
7408.29
7461.125
7504.654
7539.803
7566.552
7585.24
7596.538
7602.154
7604.08
7603.677
7601.51
7598.134
7594.099
7589.367
7584.245
7578.86
7573.156
7567.809
7563.294
7559.331
7555.462
7551.445
7547.252
7543.454
7539.564
7535.736
7532.183
7529.201
7526.576
7525.365
7525.353
7526.534
7528.695
7531.907
7535.744
7539.727
7543.058
7544.875
7543.861
7540.402
7535.378
7529.564
7524.478
7521.417
7519.731
7519.12
7519.021
7519.308
7519.933
7521.519
7524.444
7528.539
7533.541
7538.681
7543.6
7547.654
7550.449
7552.182
7554.442
7557.354
7560.952
7562.873
7564.572
7566.649
7568.513
7569.917
7570.845
7571.214
7571.232
7570.945
7570.523
7569.9
7569.349
7568.82
7568.432
7568.19
7567.893
7567.673
7567.443
7567.436
7567.617
7567.902
7568.153
7568.34
7568.143
7567.364
7565.861
7563.405
7559.793
7555.166
7549.728
7544.042
7539.475
7536.948
7536.394
7537.13
7538.28
7539.18
7540.09
7542.614
7545.343
7547.855
7550.689
7553.309
7554.609
7555.021
7555.67
7557.296
7559.671
7562.166
7564.479
7566.813
7569.316
7572.17
7575.394
7579.167
7583.241
7587.717
7592.274
7595.926
7599.439
7602.771
7605.774
7608.542
7611.218
7614.093
7617.145
7620.372
7624.201
7628.831
7633.695
7637.817
7641.107
7644.032
7646.885
7649.652
7651.738
7649.514
7644.926
7641.537
7636.689
7629.8
7623.892
7624.08
7628.93
7634.674
7639.572
7643.47
7646.308
7648.933
7651.48
7654.015
7656.574
7659.085
7661.483
7663.756
7666.037
7668.275
7669.819
7670.528
7671.972
7674.235
7676.424
7678.399
7680.469
7682.4
7684.193
7686.051
7687.919
7689.866
7691.769
7693.788
7695.805
7697.847
7700.037
7702.664
7705.852
7709.54
7714.209
7719.265
7724.244
7729.201
7734.186
7739.094
7743.777
7748.286
7752.678
7757.281
7761.917
7766.549
7771.14
7775.701
7780.456
7785.5
7790.447
7795.117
7799.645
7804.04
7808.412
7812.908
7817.608
7822.312
7827.055
7831.47
7835.282
7838.382
7840.166
7840.237
7837.562
7831.748
7823.736
7818.622
7821.161
7829.166
7836.188
7841.732
7845.425
7848.35
7851.349
7854.819
7858.284
7861.411
7864.289
7867.137
7869.749
7871.797
7873.45
7875.075
7877.185
7879.234
7880.945
7882.545
7883.74
7884.343
7884.353
7883.895
7883.249
7882.689
7882.112
7881.22
7879.957
7878.643
7877.252
7875.817
7874.531
7873.505
7872.685
7871.752
7870.656
7869.468
7868.221
7867.06
7865.998
7865.159
7864.506
7863.903
7863.329
7862.799
7862.327
7861.602
7860.377
7858.404
7855.672
7851.881
7847.143
7844.036
7844.109
7845.291
7847.702
7850.877
7854.468
7858.294
7862.935
7868.658
7875.079
7882.165
7889.451
7896.944
7904.9
7913.288
7922.059
7931.145
7940.728
7949.156
7956.24
7963.435
7971.954
7981.898
7992.141
8001.791
8011.505
8020.585
8029.921
8040.571
8050.366
8060.361
8070.359
8080.881
8092.447
8104.105
8114.992
8125.669
8137.325
8149.921
8162.035
8174.17
8186.275
8198.423
8210.659
8223.106
8235.872
8248.848
8262.127
8275.725
8289.92
8304.869
8320.042
8335.26
8350.437
8366.847
8382.964
8398.721
8414.283
8429.568
8444.634
8459.72
8474.577
8489.036
8503.194
8517.116
8530.949
8544.739
8558.18
8570.988
8583.46
8595.605
8607.607
8619.143
8629.957
8639.863
8648.753
8656.83
8664.092
8670.14
8674.1
8675.88
8675.519
8673.993
8671.685
4671.483
4624.995
4362.005
4497.513
4495.903
4716.756
4670.997
4752.965
4902.251
5142.714
5387.825
5700.49
6093.38
6223.696
6546.162
6785.805
7047.605
7142.866
7284.464
7396.539
7466.661
7495.177
7498.416
7479.119
7439.358
7366.394
7270.059
7159.018
7038.738
6916.98
6777.967
6615.137
6427.671
6229.425
6037.597
5856.362
5703.159
5585.731
5518.934
5504.325
5536.498
5590.128
5662.345
5754.682
5859.512
5968.496
6078.362
6185.324
6281.927
6375.037
6468.907
6561.232
6645.474
6724.539
6798.588
6864.291
6922.709
6977.932
7029.184
7045.683
7062.418
7038.801
6955.65
6808.398
6628.078
6458.466
6294.326
6132.687
5984.736
5870.615
5804.056
5779.993
5791.522
5826.454
5882.762
5951.738
6026.209
6112.086
6212.741
6321.431
6438.579
6563.996
6686.249
6802.924
6913.801
7016.966
7118.166
7208.937
7282.393
7328.279
7338.895
7316.634
7267.914
7201.222
7122.601
7033.551
6930.963
6811.135
6679.253
6539.555
6397.077
6249.716
6106.902
5972.186
5850.413
5755.114
5690.107
5662.937
5677.92
5722.287
5799.095
5898.295
6011.997
6133.797
6259.836
6387.227
6516.193
6640.538
6761.105
6877.011
6986.293
7088.524
7183.811
7268.787
7341.11
7407.189
7461.25
7506.588
7542.338
7569
7587.73
7599.087
7604.302
7605.495
7604.331
7601.502
7597.61
7593.334
7588.529
7583.076
7577.325
7571.487
7565.843
7560.96
7557.071
7553.838
7550.69
7547.26
7543.358
7539.541
7535.73
7532.148
7529.066
7527.229
7525.622
7525.534
7525.988
7527.381
7529.703
7532.668
7535.834
7538.349
7539.665
7539.846
7539.063
7536.799
7533.327
7529.686
7526.618
7524.361
7523.017
7522.374
7522.326
7522.886
7524.273
7526.515
7529.78
7533.467
7537.155
7540.306
7543.26
7546.181
7549.206
7552.422
7556.347
7559.91
7561.109
7562.202
7564.459
7566.873
7568.708
7569.727
7570.159
7570.122
7569.727
7569.255
7568.656
7568.119
7567.691
7567.317
7567.038
7566.854
7566.614
7566.577
7566.575
7566.792
7566.937
7567.092
7566.989
7566.557
7565.628
7564.224
7561.982
7558.976
7555.145
7550.592
7545.246
7541.013
7540.567
7542.371
7542.208
7540.912
7540.379
7540.152
7539.191
7540.713
7545.793
7548.744
7550.735
7552.131
7552.885
7554.265
7556.431
7559.046
7561.571
7563.758
7566.057
7568.552
7571.404
7574.661
7578.276
7581.904
7586.166
7590.461
7593.266
7596.275
7599.454
7602.623
7605.76
7608.885
7612.104
7615.35
7618.676
7621.77
7624.139
7626.582
7629.31
7631.936
7635.223
7640.089
7643.939
7645.543
7645.039
7642.565
7640.542
7638.688
7635.969
7633.627
7634.649
7637.16
7639.852
7642.823
7645.89
7648.67
7651.292
7653.828
7656.141
7658.341
7660.471
7662.551
7664.649
7666.85
7669.157
7671.443
7673.449
7675.316
7677.218
7679.065
7680.515
7681.762
7683.129
7684.731
7686.598
7688.691
7690.796
7692.778
7694.723
7696.767
7698.941
7701.404
7704.287
7707.374
7710.999
7715.293
7719.666
7724.202
7729.061
7734.231
7739.339
7744.159
7748.581
7752.863
7757.313
7761.851
7766.366
7770.863
7775.367
7780.021
7784.92
7789.762
7794.462
7799.069
7803.538
7807.88
7812.378
7816.976
7821.474
7825.726
7829.353
7832.679
7836.021
7839.162
7842.16
7845.165
7848.001
7850.679
7852.626
7853.539
7853.28
7852.555
7851.755
7851.332
7852.434
7855.199
7858.337
7861.198
7863.748
7866.655
7869.314
7871.675
7873.853
7875.99
7877.749
7879.438
7881.051
7882.307
7883.428
7884.07
7884.083
7883.569
7882.676
7881.868
7881.288
7880.794
7880.071
7879.024
7877.987
7876.821
7875.665
7874.488
7873.333
7872.005
7870.503
7868.977
7867.54
7866.153
7864.83
7863.607
7862.495
7861.601
7860.812
7860.042
7859.211
7858.317
7857.291
7856.067
7854.574
7852.691
7850.392
7847.533
7845.332
7845.147
7846.1
7847.58
7849.976
7853.181
7857.439
7862.564
7868.199
7874.237
7881.115
7888.201
7895.402
7902.896
7911.046
7919.708
7928.521
7937.885
7945.944
7953.692
7962.712
7972.408
7982.167
7992.122
8001.107
8010.278
8019.573
8028.405
8038.651
8048.931
8059.736
8070.132
8080.532
8091.661
8102.769
8113.675
8124.574
8136.004
8148.355
8160.75
8172.931
8185.199
8197.59
8209.977
8222.644
8235.566
8248.756
8262.315
8276.208
8290.554
8305.176
8320.109
8335.362
8351.12
8367.048
8382.821
8398.595
8414.568
8430.343
8445.886
8460.786
8475.161
8489.326
8503.587
8517.943
8532.2
8546.142
8559.336
8572.076
8584.549
8596.867
8608.621
8619.953
8630.341
8640.037
8648.691
8656.655
8663.538
8669.171
8672.854
8674.705
8675.093
8674.44
8673.215
5114.052
5105.92
5163.844
5030.455
4987.433
4918.977
4827.984
4764.922
4723.381
4667.023
4596.248
4519.245
4447.445
4430.937
4475.739
4532.457
4631.769
4743.912
4841.654
5004.87
5358.835
5691.993
5966.727
6197.165
6465.163
6750.264
6982.522
7048.316
7225.759
7380.528
7470.175
7512.674
7521.542
7511.508
7477.175
7411.175
7310.355
7178.613
7039.893
6905.716
6761.497
6590.676
6392.595
6179.467
5971.461
5777.758
5611.253
5489.785
5424.629
5414.712
5446.21
5524.913
5623.946
5734.023
5849.266
5966.78
6081.392
6188.484
6287.882
6380.106
6464.641
6550.386
6655.413
6749.513
6821.6
6882.487
6949.125
7029.446
7096.524
7111.518
7116.647
7080.179
6963.022
6785.315
6594.619
6420.464
6246.03
6064.649
5897.546
5773.595
5709.516
5696.549
5731.126
5785.206
5852.186
5931.454
6005.064
6088.82
6192.297
6301.953
6419.452
6543.078
6666.89
6787.632
6906.401
7018.389
7130.722
7242.086
7337.537
7400.503
7403.044
7369.02
7310.699
7233.929
7144.525
7045.379
6933.044
6807.703
6669.865
6522.053
6367.54
6206.556
6048.511
5901.335
5768.382
5665.19
5594.145
5562.584
5575.042
5630.922
5720.868
5831.481
5953.911
6081.104
6209.907
6339.357
6469.09
6597.987
6723.332
6843.783
6957.564
7064.61
7163.318
7253.166
7331.817
7400.869
7458.341
7505.075
7541.238
7567.685
7585.988
7597.259
7602.474
7603.352
7601.621
7598.236
7593.862
7589.105
7584.032
7578.511
7572.813
7567.333
7562.219
7557.468
7553.244
7549.521
7545.922
7542.092
7538.001
7533.848
7529.75
7526.031
7522.942
7520.737
7519.507
7518.717
7519.08
7521.21
7524.168
7527.833
7531.674
7535.069
7537.752
7539.924
7540.143
7538.633
7536.276
7533.585
7530.83
7528.508
7527.046
7526.372
7526.122
7526.365
7527.265
7528.71
7530.696
7533.073
7535.837
7538.761
7541.919
7545.251
7548.687
7552.362
7555.935
7559.136
7561.637
7563.399
7565.218
7567.078
7568.498
7569.297
7569.595
7569.482
7569.123
7568.631
7568.072
7567.554
7567.084
7566.586
7566.221
7566.027
7565.941
7565.873
7565.751
7565.729
7565.615
7565.336
7564.864
7564.11
7562.99
7561.452
7559.487
7557.038
7554.064
7550.46
7546.328
7542.117
7537.987
7538.707
7541.425
7541.834
7542.12
7544.25
7544.261
7544.838
7547.985
7547.775
7548.213
7550.173
7552.042
7554.01
7556.282
7558.686
7560.958
7563.046
7565.323
7567.747
7570.409
7573.671
7577.653
7581.444
7585.272
7588.82
7591.485
7594.729
7598.434
7602.019
7605.388
7608.65
7611.792
7615.083
7618.816
7621.59
7624.028
7627.582
7631.327
7634.357
7637.013
7639.12
7640.732
7641.857
7641.979
7641.016
7640.381
7640.032
7638.994
7637.378
7637.118
7638.524
7640.489
7642.91
7645.57
7648.115
7650.589
7653.046
7655.403
7657.66
7659.919
7662.185
7664.359
7666.357
7668.193
7670.028
7671.908
7673.673
7675.357
7677.269
7679.292
7681.083
7682.815
7684.607
7686.392
7688.224
7690.199
7692.297
7694.549
7696.887
7699.215
7701.758
7704.621
7707.861
7711.47
7715.414
7719.723
7724.11
7728.588
7733.239
7737.942
7742.632
7747.171
7751.653
7756.144
7760.69
7765.246
7769.819
7774.445
7779.151
7783.919
7788.761
7793.566
7798.278
7802.799
7807.143
7811.504
7815.9
7820.206
7824.325
7828.194
7831.7
7834.589
7836.573
7837.617
7838.245
7838.339
7837.681
7837.364
7837.781
7839.794
7843.33
7846.82
7850.028
7852.877
7855.8
7858.822
7861.657
7864.809
7868.238
7870.988
7873.076
7875.074
7877.237
7879.109
7880.122
7881.318
7882.709
7883.767
7884.293
7884.351
7884.109
7883.693
7883.19
7882.655
7882.133
7880.947
7879.726
7878.227
7876.663
7875.091
7873.564
7872.05
7870.537
7868.969
7867.367
7865.769
7864.214
7862.703
7861.284
7859.983
7858.831
7857.788
7856.792
7855.747
7854.647
7853.547
7852.486
7851.414
7850.162
7848.464
7846.556
7845.157
7845.181
7846.591
7848.759
7851.403
7854.974
7859.44
7864.696
7870.325
7876.312
7882.436
7889.491
7896.863
7904.533
7912.447
7921.479
7929.727
7937.522
7945.086
7953.329
7962.711
7971.974
7981.224
7990.623
7999.551
8008.75
8018.087
8027.273
8037.619
8048.061
8059.106
8069.502
8079.664
8090.343
8101.294
8112.372
8123.66
8135.273
8147.845
8160.522
8172.416
8184.275
8196.6
8209.324
8222.267
8235.367
8248.741
8262.301
8276.067
8290.026
8304.583
8320.28
8335.963
8351.88
8367.321
8382.457
8399.032
8415.274
8430.536
8445.451
8460.354
8475.085
8489.609
8503.91
8518.136
8532.129
8546.064
8560.052
8573.371
8586.026
8598.147
8609.579
8620.664
8631.025
8640.736
8649.534
8657.473
8664.173
8669.566
8673.125
8675.076
8675.307
8675.043
8675.391
5276.932
5268.974
5251.615
5229.592
5193.561
5149.969
5105.275
5071.083
5036.089
5000.027
4910.462
4815.612
4741.265
4676.126
4577.805
4453.59
4360.482
4314.618
4332.521
4374.502
4430.74
4543.003
4645.572
4744.96
4945.212
5284.373
5557.9
5811.565
6103.789
6356.58
6590.687
6806.42
6993.985
7180.589
7307.219
7398.992
7469.862
7502.731
7502.863
7466.022
7393.66
7286.314
7149.32
7000.242
6857.05
6711.217
6536.85
6330.861
6107.397
5884.407
5677.294
5503.037
5381.505
5322.096
5326.495
5385.194
5478.618
5594.429
5719.211
5844.354
5967.197
6086.151
6197.036
6302.225
6399.987
6490.939
6570.775
6660.74
6747.583
6835.04
6928.241
7000.028
7057.678
7114.724
7161.004
7166.464
7110.715
6976.546
6785.932
6583.032
6394.112
6198.746
5991.1
5803.872
5669.775
5608.526
5609.447
5654.563
5730.581
5820.019
5909.754
5995.905
6087.285
6189.274
6297.428
6412.324
6535.736
6662.215
6787.101
6910.296
7025.013
7136.915
7254.611
7366.924
7438.478
7454.531
7421.82
7350.465
7256.915
7157.362
7059.37
6950.849
6817.967
6664.763
6498.148
6325.712
6153.616
5987.891
5835.153
5698.044
5588.244
5511.779
5478.562
5495.681
5561.709
5663.448
5785.004
5914.16
6043.839
6171.816
6298.465
6425.794
6554.581
6682.742
6806.375
6924.393
7035.105
7137.967
7232.021
7315.974
7388.795
7449.548
7498.095
7535.082
7561.627
7579.321
7590.013
7595.233
7596.33
7594.72
7591.517
7587.232
7582.229
7576.954
7571.679
7566.238
7560.933
7556.014
7551.537
7547.472
7543.921
7540.809
7537.8
7534.659
7531.261
7527.601
7524.081
7521.096
7518.916
7517.614
7517.084
7518.048
7520.067
7522.733
7526.326
7530.339
7534.226
7537.367
7539.464
7540.361
7539.847
7538.444
7536.512
7534.297
7532.089
7530.317
7529.222
7528.831
7528.825
7529.363
7530.357
7531.798
7533.789
7536.285
7539.168
7542.195
7545.345
7548.65
7552.244
7555.762
7558.674
7561.106
7563.187
7564.846
7566.208
7567.252
7567.858
7567.982
7567.795
7567.414
7566.921
7566.425
7566.036
7565.69
7565.039
7564.649
7564.504
7564.47
7564.424
7564.299
7564.124
7563.87
7563.415
7562.862
7561.965
7560.816
7559.432
7557.82
7555.909
7553.872
7552.129
7551.695
7549.725
7542.977
7538.383
7539.307
7540.816
7542.273
7543.477
7544.776
7547.045
7547.501
7546.198
7546.979
7549.197
7551.595
7553.786
7556.088
7558.486
7560.685
7562.57
7564.041
7566.185
7569.662
7573.538
7577.316
7580.661
7583.973
7587.407
7590.41
7593.456
7596.62
7599.967
7603.281
7606.864
7610.273
7613.223
7616.601
7619.844
7622.708
7625.696
7628.743
7631.392
7633.695
7635.688
7637.745
7639.111
7639.104
7638.985
7638.984
7639.201
7639.263
7639.056
7639.356
7640.709
7642.81
7645.137
7647.606
7650.072
7652.582
7655.05
7657.311
7659.417
7661.45
7663.46
7665.494
7667.556
7669.545
7671.45
7673.315
7675.157
7676.95
7678.623
7680.208
7681.897
7683.685
7685.509
7687.353
7689.257
7691.139
7693.06
7695.242
7697.701
7700.267
7702.804
7705.56
7708.545
7712.033
7715.978
7719.989
7724.179
7728.609
7733.083
7737.599
7742.111
7746.643
7751.248
7755.793
7760.303
7764.805
7769.381
7774.064
7778.76
7783.502
7788.272
7793.002
7797.694
7802.256
7806.651
7810.916
7815.178
7819.384
7823.51
7827.395
7830.77
7833.726
7836.693
7839.738
7842.584
7845.068
7847.112
7848.93
7850.748
7852.233
7853.619
7855.631
7857.55
7859.241
7860.965
7863.052
7865.634
7868.222
7870.659
7873.001
7875.294
7877.329
7878.858
7879.678
7880.453
7881.928
7883.437
7884.853
7885.6
7885.561
7885.032
7884.238
7883.358
7882.4
7881.223
7880.304
7879.054
7877.557
7875.895
7874.181
7872.494
7870.869
7869.252
7867.622
7865.907
7864.091
7862.244
7860.44
7858.789
7857.281
7855.895
7854.623
7853.427
7852.223
7851.04
7849.941
7848.995
7848.16
7847.351
7846.332
7845.083
7844.345
7844.795
7846.478
7848.936
7851.441
7854.696
7858.96
7864.245
7869.775
7875.519
7881.512
7888.115
7895.499
7903.161
7910.793
7918.848
7927.087
7935.309
7943.55
7952.126
7961.083
7970.082
7979.226
7988.429
7997.6
8006.928
8016.447
8026.087
8036.347
8046.699
8057.266
8067.598
8077.973
8088.684
8099.672
8110.851
8122.281
8134.066
8146.767
8159.506
8171.445
8183.346
8196.047
8208.901
8222.054
8235.366
8248.9
8262.375
8276.273
8290.124
8304.543
8320.486
8336.489
8352.186
8367.519
8382.632
8398.455
8414.423
8429.944
8445.274
8460.587
8475.649
8490.653
8505.514
8519.807
8533.747
8547.741
8561.709
8575.214
8587.965
8599.91
8611.057
8622.037
8632.843
8642.68
8651.513
8659.304
8665.764
8670.782
8674.59
8677.06
8678.426
8678.829
8678.978
5275.786
5272.592
5253.933
5232.415
5195.63
5142.17
5087.657
5064.116
5033.042
4979.67
4911.003
4833.714
4753.549
4657.807
4520.788
4371.176
4262.077
4193.262
4208.079
4331.561
4419.847
4429.798
4453.701
4582.561
4899.146
5177.107
5439.868
5697.223
5981.058
6232.086
6452.152
6637.505
6871.407
7075.949
7194.088
7287.15
7374.163
7425.041
7432.452
7395.561
7316.44
7205.577
7066.675
6913.431
6755.276
6598.117
6424.446
6223.486
6005.395
5781.754
5569.068
5390.03
5269.208
5218.443
5238.897
5318.746
5434.392
5569.709
5709.133
5843.653
5970.765
6092.404
6207.165
6317.918
6422.712
6530.784
6635.905
6703.885
6772.921
6870.946
6974.577
7039.875
7056.249
7063.769
7086.764
7111.473
7085.628
6969.305
6784.84
6578.074
6373.433
6157.866
5934.949
5730.476
5590.612
5534.442
5550.874
5614.486
5705.791
5808.087
5907.757
6000.632
6095.044
6199.918
6311.482
6425.54
6540.731
6659.876
6778.752