/*--------------------------------*- C++ -*----------------------------------*\
| =========                 |                                                 |
| \\      /  F ield         | foam-extend: Open Source CFD                    |
|  \\    /   O peration     | Version:     3.1                                |
|   \\  /    A nd           | Web:         http://www.extend-project.de       |
|    \\/     M anipulation  |                                                 |
\*---------------------------------------------------------------------------*/
FoamFile
{
    version     2.0;
    format      ascii;
    class       volScalarField;
    location    "19.5";
    object      omega;
}
// * * * * * * * * * * * * * * * * * * * * * * * * * * * * * * * * * * * * * //

dimensions      [0 0 -1 0 0 0 0];

internalField   nonuniform List<scalar> 
119952
(
413.8954
529.633
504.5654
440.5813
396.1909
400.2738
407.4765
416.2948
426.2047
436.9388
448.3676
460.4188
473.0582
486.2811
500.1024
514.5703
529.7558
545.7567
562.9079
582.5398
487.5038
486.5389
492.2862
413.225
405.7617
401.9701
398.7783
395.8179
389.1336
255.4143
832.3895
699.2633
592.2119
514.471
456.1489
411.0573
374.9257
345.2885
320.3828
292.7347
246.7545
214.2004
191.4736
174.6178
161.3698
150.4562
141.1716
133.0995
125.9888
97.94541
94.0616
90.25825
86.55846
83.05746
79.80571
76.81302
74.06554
71.53181
69.19797
67.12326
65.15208
63.25532
61.44692
59.72945
58.09828
56.53284
54.99752
53.48915
53.08588
52.88509
52.285
51.80185
51.48445
51.28158
51.09
50.94668
50.86513
50.80921
50.76653
50.73363
50.71369
50.71053
50.72426
50.74922
50.77172
50.76479
50.67934
50.4401
50.13485
49.85288
49.42109
48.95198
48.80455
48.82915
49.10228
50.02521
52.53698
56.34114
57.11627
57.62057
57.77402
57.80339
57.79504
57.75924
57.71143
57.66317
57.6206
57.58907
57.57267
57.57264
57.58751
57.61458
57.65174
57.69861
57.757
57.83027
57.92163
58.03261
58.16265
58.30954
58.47021
58.64214
58.8248
59.01993
59.23035
59.45815
59.70352
59.96422
60.23642
60.51668
60.80389
61.09958
61.40647
61.72642
62.05927
62.40339
62.75723
63.1209
63.49644
63.88653
64.29265
64.71385
65.14684
65.58685
66.02814
66.45116
66.80641
67.16714
67.75134
68.37993
69.0319
69.7055
70.37718
71.03641
71.67498
72.28426
72.86
73.40266
73.92045
74.42849
74.94764
75.49963
76.10201
76.76385
77.48232
78.24082
79.00885
79.74318
80.39102
80.89697
81.21158
81.30115
81.15351
80.78655
80.2264
79.54613
78.81961
78.12208
77.53136
77.1209
76.97009
77.1333
77.64982
78.58592
79.993
81.85333
84.14999
86.86076
89.95491
93.38643
97.07622
100.8796
104.5818
107.9073
110.5863
112.3864
112.8946
115.6995
121.0412
123.1971
123.422
122.0639
119.714
117.2401
114.7523
112.3398
109.9802
107.6883
105.7768
104.3403
103.3198
102.8679
103.2673
104.7164
107.0991
110.3951
114.4003
118.9906
124.0366
130.1922
137.5787
146.3553
156.8589
169.8139
186.8526
209.3158
226.5612
226.6179
211.2972
192.385
176.47
164.2443
153.7865
144.1914
136.4226
130.0588
124.9375
120.9912
118.2028
116.6517
116.3263
116.0076
114.5917
112.2497
109.4951
106.7215
104.0635
101.5635
99.16482
96.80192
94.45237
92.09289
89.73161
87.40039
85.13611
82.96941
80.91564
78.9797
77.16366
75.46794
73.89118
72.42636
71.064
69.79191
68.59597
67.46867
66.39306
55.05056
53.56777
52.04781
50.50769
49.06536
47.77253
46.64189
45.66643
44.82965
44.11177
43.49349
42.95769
42.49002
42.07889
41.71508
41.39145
41.10245
40.84397
40.61295
40.4071
40.22467
40.06441
39.92555
39.80776
39.71092
39.635
39.57991
39.54538
39.53092
39.53574
39.5588
39.5989
39.65483
39.72552
39.81018
39.9086
40.02137
40.15012
40.29756
40.46691
40.66018
40.88032
41.13235
41.42366
41.76568
42.17241
42.63434
43.15181
43.72707
44.35757
45.06723
45.87777
46.78785
47.8506
49.15552
50.34866
51.59026
52.8075
53.93854
54.93944
55.77909
56.42839
56.85204
57.00814
56.86608
56.40999
55.63443
54.54037
53.14043
51.46456
49.57338
47.56042
45.53299
43.57418
41.73236
40.04032
38.51478
37.15514
35.95307
34.90748
34.00816
33.24003
32.58705
32.03126
31.55326
31.13385
30.75581
30.40494
30.07047
29.74469
29.42215
29.09733
28.75939
28.4068
28.05214
27.70436
27.36968
27.05271
26.7563
26.48177
26.22909
25.9971
25.78363
25.58596
25.40129
25.22727
25.06264
24.90754
24.76329
24.63183
24.51506
24.41479
24.33269
24.2703
24.22892
24.20956
24.21284
24.23896
24.28767
24.35815
24.44905
24.55846
24.68397
24.82279
24.9718
25.12773
25.28733
25.44743
25.60479
25.75593
25.89672
26.0225
26.12822
26.20705
26.24502
26.21199
26.04618
25.69134
25.71948
762.5365
629.32
562.0506
515.2123
476.0415
441.5876
411.0157
383.8833
358.7217
299.0864
236.7494
199.9009
176.6741
160.9648
149.6162
140.8837
133.7944
127.7831
101.0427
96.54968
92.22113
88.15219
84.42905
81.08269
78.09344
75.4254
73.03624
70.87095
68.97362
67.20715
65.47321
63.77756
62.13081
60.54564
59.03083
57.59043
56.22305
55.23282
54.53511
53.72493
52.84199
51.92149
50.9824
50.03802
49.10023
48.17827
47.28395
46.42248
45.59152
44.79529
44.03065
43.29052
42.56963
41.86443
41.17423
40.51171
36.26068
35.74383
35.2563
34.79597
34.35877
33.93916
33.53229
33.13411
32.74215
32.35372
31.97018
31.59648
31.23487
30.88574
30.54834
30.22218
29.90693
29.60817
29.34097
29.10153
28.85546
28.6172
28.40989
28.23019
28.06456
27.90812
27.75946
27.61701
27.48328
27.35813
27.23983
27.12891
27.02579
26.92902
26.83514
26.73922
26.63576
26.51995
26.39577
26.27032
26.14433
26.02438
25.93466
25.88135
25.87032
25.90739
26.00375
26.14259
26.23345
26.24938
26.27284
26.29178
26.30333
26.31181
26.31558
26.31453
26.3096
26.30198
26.29317
26.28435
26.27572
26.26664
26.25627
26.24419
26.23078
26.21728
26.20534
26.19635
26.19088
26.18864
26.18867
26.18989
26.19185
26.19511
26.20098
26.21078
26.22515
26.24375
26.26535
26.28843
26.31202
26.33623
26.36199
26.39037
26.42185
26.45621
26.49285
26.53144
26.57226
26.61614
26.66382
26.71545
26.77023
26.82655
26.88229
26.93577
26.98751
27.03903
27.09435
27.16008
27.23055
27.30662
27.38919
27.47701
27.56872
27.66277
27.75727
27.85072
27.94273
28.03471
28.13004
28.2334
28.34949
28.4819
28.63209
28.79878
28.97754
29.16049
29.33612
29.48962
29.60411
29.66367
29.65597
29.57468
29.42205
29.20817
28.94823
28.65809
28.35586
28.07768
27.84048
27.66079
27.55598
27.55077
27.66888
27.89145
28.21658
28.64703
29.1853
29.83331
30.5945
31.4633
32.43607
33.48622
34.59278
35.69719
36.75553
37.67116
39.01357
41.05176
42.48174
43.28009
43.47225
43.13397
42.36936
41.28882
40.01256
38.6864
37.35155
36.04081
34.79095
33.63504
32.59956
31.70294
30.95479
30.36099
29.92646
29.66143
29.59716
29.82377
30.38407
31.34271
32.82836
35.02694
38.1934
42.56665
47.94995
53.3645
58.20384
62.44219
66.02095
68.75903
70.49109
71.10048
70.57811
69.0183
66.56899
63.50725
60.16723
56.85675
53.80471
51.11168
48.81293
46.92829
45.44302
44.32768
43.53687
43.0169
42.71024
42.55897
42.50633
42.49681
42.47858
42.40953
42.25003
41.96667
41.53591
40.94013
40.18693
39.29582
38.29715
37.22431
36.10948
34.98185
33.86507
32.77774
31.73555
30.75699
28.23887
27.39424
26.61216
25.88398
25.20176
24.56184
23.96216
23.40046
22.87441
22.38183
21.92063
21.48884
21.08456
20.70602
20.35157
20.01969
19.70896
19.4181
19.14594
18.89143
18.65363
18.43172
18.22494
18.03264
17.85419
17.68901
17.53653
17.39616
17.26731
17.14939
17.0418
16.944
16.85545
16.77569
16.70433
16.64108
16.58573
16.53822
16.49859
16.467
16.44395
16.43038
16.42768
16.43764
16.4624
16.50438
16.56615
16.65206
16.76986
16.93099
17.13915
17.39829
17.71378
18.09412
18.5476
19.06838
19.66043
20.32778
21.07089
21.88829
22.77472
23.7203
24.7095
25.72089
26.7289
27.70436
28.61525
29.42553
30.09763
30.59851
30.90492
31.00575
30.89903
30.58816
30.08663
29.42055
28.6271
27.75008
26.83378
25.91789
25.03555
24.21158
23.46085
22.78868
22.19264
21.66471
21.19362
20.76705
20.3735
20.00383
19.65202
19.31543
18.9946
18.69222
18.40613
18.13473
17.87797
17.63546
17.40627
17.18889
16.98126
16.78089
16.58502
16.39086
16.19601
15.99881
15.79861
15.59568
15.39091
15.18563
14.98142
14.78
14.58314
14.39248
14.20948
14.03536
13.87104
13.71718
13.57409
13.44186
13.3203
13.20905
13.10758
13.01527
12.93148
12.85553
12.78681
12.72472
12.66872
12.61818
12.57244
12.53041
12.49062
12.45066
12.40756
12.35785
12.3016
12.24887
12.20273
633.4886
559.7753
499.5362
455.2317
421.5443
395.5467
375.3236
360.0233
349.1914
334.4276
189.9072
177.2302
166.3564
156.7152
148.5903
142.6745
140.1906
137.7361
128.9721
85.66305
83.91568
83.28361
82.64701
81.92654
81.20239
80.45921
79.66646
78.76757
77.316
74.38376
72.00918
70.4036
69.20936
68.19586
67.257
66.3481
65.45055
64.55732
64.59125
63.81305
62.70641
61.49722
60.29718
59.15065
58.0701
57.05324
56.0944
55.19434
54.32362
53.46593
52.61307
51.76237
50.91917
50.09025
49.28121
48.50429
44.73296
44.07514
43.4474
42.8418
42.25338
41.67829
41.11478
40.56251
40.02258
39.49506
38.97805
38.47267
37.97944
37.49561
37.01899
36.54898
36.08582
35.63106
35.18664
34.75306
34.33133
33.92306
33.5263
33.13754
32.75416
32.37504
32.00042
31.6316
31.26996
30.91828
30.57852
30.24948
29.92893
29.6143
29.30288
28.99298
28.68353
28.3676
28.10361
27.84111
27.58477
27.33629
27.09497
26.85861
26.62445
26.38994
26.15349
25.91506
25.67692
25.44254
25.21508
24.99662
24.78781
24.58779
24.39572
24.21137
24.03541
23.86712
23.70171
23.53804
23.38417
23.24427
23.11623
22.99458
22.87469
22.75413
22.63256
22.51116
22.39294
22.28039
22.17461
22.07483
21.97846
21.88117
21.77964
21.67271
21.56216
21.45194
21.3461
21.24773
21.16191
21.09052
21.04335
21.01287
20.9944
20.98462
20.96811
20.93041
20.88638
20.84555
20.80708
20.76914
20.72975
20.68801
20.64438
20.60032
20.55757
20.51711
20.47874
20.44139
20.40382
20.3653
20.32593
20.28687
20.24976
20.2158
20.18527
20.15764
20.13175
20.1063
20.08076
20.05585
20.033
20.01358
19.9982
19.98638
19.9767
19.96747
19.95782
19.9481
19.93951
19.93322
19.92961
19.92827
19.92843
19.92969
19.93234
19.93729
19.94542
19.95695
19.97122
19.98682
20.00218
20.01654
20.0301
20.04398
20.05944
20.07887
20.10302
20.13088
20.16195
20.19599
20.23242
20.27036
20.30854
20.34569
20.38122
20.41585
20.45188
20.49264
20.54137
20.60039
20.67056
20.75107
20.83952
20.93172
21.0212
21.09892
21.15409
21.1758
21.1554
21.08831
20.9752
20.82182
20.63872
20.43903
20.24582
20.07406
19.9317
19.82562
19.76086
19.74179
19.77703
19.87964
20.04136
20.25865
20.5308
20.8571
21.24015
21.68127
22.18122
22.73888
23.3442
23.99053
24.64885
25.28077
25.85381
26.2914
26.56506
26.66573
26.58967
26.34264
25.941
25.41159
24.79088
24.12448
23.43997
22.75871
22.10992
21.51699
20.99649
20.55788
20.204
19.93246
19.73795
19.61552
19.56545
19.602
19.74301
20.00622
20.42106
21.02535
21.85563
22.92821
24.22382
25.69873
27.31028
29.01282
30.75254
32.47276
34.11096
35.59494
36.85562
37.83497
38.48346
38.77566
38.70768
38.29773
37.58694
36.63948
35.53877
34.3679
33.20424
32.10997
31.12889
30.28864
29.60263
29.07376
28.69625
28.45744
28.33897
28.3176
28.36709
28.45989
28.56795
28.66432
28.72596
28.7362
28.67373
28.52048
28.25935
27.88799
27.41605
26.86017
26.23669
25.55285
24.87081
24.18416
23.50575
22.84097
22.19652
21.57739
20.9871
20.42741
19.89876
19.40067
18.93214
18.49188
18.07843
17.69028
17.3259
16.98381
16.66258
16.36088
16.07747
15.81119
15.56101
15.32596
15.10517
14.89785
14.70323
14.52058
14.34917
14.18828
14.03721
13.89527
13.76182
13.63628
13.51812
13.40686
13.3021
13.20346
13.11065
13.02343
12.94162
12.86518
12.79423
12.72912
12.6704
12.61884
12.57541
12.54127
12.51787
12.50722
12.51233
12.53763
12.58999
12.67135
12.78574
12.93661
13.12721
13.36267
13.64736
13.98555
14.38141
14.8387
15.36013
15.94657
16.59601
17.30276
18.0575
18.8474
19.65689
20.46887
21.26326
22.01889
22.71689
23.34236
23.88232
24.3231
24.65033
24.85182
24.91958
24.84923
24.64265
24.31159
23.87816
23.37155
22.82288
22.25969
21.70288
21.16698
20.66048
20.18648
19.74415
19.33058
18.94226
18.57613
18.2301
17.90342
17.59665
17.30794
17.03351
16.77017
16.51529
16.26654
16.02185
15.77924
15.53681
15.29272
15.04547
14.79415
14.53885
14.28072
14.02163
13.76371
13.50873
13.25833
13.01398
12.77697
12.54836
12.32899
12.11944
11.92007
11.73096
11.55202
11.38297
11.22346
11.07307
10.93142
10.79811
10.67283
10.5552
10.44497
10.34172
10.24522
10.15484
10.0702
9.990179
9.914155
9.840559
9.768863
9.698129
9.62966
9.565218
365.0658
265.2936
379.097
171.923
135.0279
99.6722
86.43013
75.32651
66.12178
61.71398
59.91131
58.94667
58.05676
57.26605
56.49593
55.80648
55.17976
54.60739
54.1629
53.84247
53.57481
53.43681
53.58578
53.90119
54.26176
54.65898
55.0916
55.55873
56.03367
56.45393
56.72422
55.50176
56.02253
56.60277
57.045
57.36025
57.5564
57.62865
57.57034
57.39066
57.10799
56.70791
56.2093
55.63857
55.01346
54.34428
53.63935
52.90552
52.14941
51.3776
50.60021
49.8241
49.04654
48.26924
47.4953
46.72685
45.96648
45.21522
44.4751
43.74836
43.03552
42.33884
41.6601
41.00087
40.36304
39.7462
39.15161
38.56725
38.03755
37.51616
37.00567
36.50482
36.01303
35.53105
35.06014
34.60165
34.15646
33.72478
33.30591
32.8987
32.50113
32.11065
31.72533
31.34457
30.96906
30.60062
30.24161
29.8942
29.55918
29.23547
28.92009
28.60946
28.30065
27.99236
27.68526
27.38181
27.08534
26.7991
26.52518
26.26316
26.0106
25.76349
25.51801
25.27076
25.02116
24.7696
24.52168
24.28178
24.0538
23.83938
23.63732
23.44399
23.25458
23.06466
22.87152
22.67501
22.4776
22.28352
22.09746
21.92273
21.76007
21.60775
21.46229
21.32023
21.17963
21.04004
20.90085
20.7631
20.63227
20.51357
20.407
20.30742
20.20873
20.10705
20.00136
19.89326
19.78608
19.68344
19.58752
19.49822
19.41325
19.32889
19.24087
19.14755
19.05018
18.95233
18.85877
18.77184
18.69365
18.62666
18.56951
18.5175
18.46653
18.41523
18.36207
18.30596
18.25018
18.19776
18.14861
18.10015
18.04978
17.9964
17.94105
17.88597
17.8335
17.78489
17.73964
17.69609
17.65238
17.60738
17.56143
17.51619
17.47384
17.43576
17.40187
17.37093
17.34113
17.31094
17.28012
17.24995
17.2224
17.19893
17.17976
17.16399
17.14983
17.13538
17.11982
17.10398
17.08954
17.07786
17.06917
17.06266
17.05723
17.05225
17.04806
17.04573
17.04631
17.05007
17.05633
17.06359
17.0702
17.07538
17.07956
17.08408
17.09043
17.09976
17.11235
17.12753
17.14455
17.16306
17.18285
17.2034
17.22364
17.24236
17.25889
17.27379
17.28912
17.30775
17.33224
17.36416
17.40377
17.45007
17.50138
17.55526
17.60782
17.65311
17.68354
17.69142
17.67071
17.61855
17.53611
17.42866
17.30536
17.18048
17.07287
16.98978
16.93482
16.90776
16.90502
16.92125
16.95314
17.00523
17.08415
17.18733
17.31429
17.46628
17.64666
17.85918
18.10783
18.39538
18.72224
19.08437
19.4712
19.86339
20.23505
20.56105
20.81109
20.95905
20.98863
20.89371
20.67911
20.35829
19.95557
19.50497
19.04926
18.61113
18.21272
17.87227
17.60232
17.40604
17.28026
17.2143
17.19346
17.20339
17.23525
17.29129
17.3909
17.54546
17.76562
18.06602
18.46079
18.95973
19.56529
20.27552
21.08367
21.98002
22.943
23.94771
24.96495
25.96073
26.8965
27.73241
28.42118
28.94283
29.27487
29.40515
29.33146
29.06385
28.62938
28.05832
27.39394
26.67986
25.9578
25.26066
24.61801
24.05089
23.572
23.18728
22.89682
22.69566
22.57468
22.52156
22.52133
22.55736
22.61178
22.66702
22.70695
22.71811
22.69616
22.63317
22.51653
22.33246
22.08266
21.76818
21.40045
20.98886
20.54502
20.08072
19.60641
19.13087
18.66123
18.20291
17.75975
17.33424
16.92786
16.54129
16.17467
15.8277
15.49984
15.19034
14.89835
14.62296
14.36326
14.11833
13.88731
13.6694
13.46386
13.26995
13.08699
12.91427
12.75109
12.59672
12.45044
12.31158
12.17951
12.05369
11.93362
11.81889
11.70913
11.604
11.50324
11.40659
11.31387
11.225
11.14002
11.05906
10.98244
10.91054
10.84391
10.78318
10.72913
10.68268
10.64515
10.61835
10.60509
10.60874
10.63081
10.67349
10.73936
10.83161
10.95352
11.10864
11.30075
11.53377
11.81148
12.13714
12.51304
12.94002
13.41718
13.94177
14.50921
15.11276
15.74325
16.38962
17.04058
17.68566
18.31514
18.92034
19.49112
20.01642
20.48505
20.88554
21.20638
21.43763
21.57284
21.61031
21.55162
21.40339
21.17824
20.89308
20.56599
20.21354
19.84931
19.48328
19.12176
18.76811
18.42379
18.08882
17.76203
17.44162
17.12595
16.81318
16.50187
16.19102
15.88005
15.5685
15.25591
14.94203
14.62692
14.31111
13.99598
13.68382
13.37736
13.07841
12.78804
12.50709
12.2362
11.9758
11.72619
11.48756
11.25995
11.04324
10.83712
10.64115
10.45476
10.27741
10.10861
9.947992
9.795275
9.650252
9.512721
9.382491
9.259327
9.142973
9.033084
8.92924
8.830908
8.73749
8.6483
8.562635
8.479963
8.400349
8.326023
325.3168
219.0601
165.5154
147.8057
120.4116
101.1852
87.20297
81.78808
75.71256
72.17192
69.10687
64.99057
60.86286
56.95721
53.38874
49.47536
43.45015
42.05436
41.03782
40.48767
40.35264
40.48838
40.74033
41.0532
41.421
41.84456
42.34655
42.92474
43.55119
44.21305
44.90602
45.62478
46.36452
47.12418
47.89981
48.69115
49.49558
50.32724
51.21166
52.13916
53.12945
54.12115
54.71446
55.27713
55.74668
56.06704
56.22651
56.22157
56.05629
55.7406
55.28999
54.7287
54.07187
53.33277
52.52839
51.67618
50.79017
49.88189
48.95996
48.03118
47.10128
46.17401
45.25629
44.35393
43.47266
42.6177
41.79227
40.99717
40.23082
39.49001
38.77344
38.07947
37.40817
36.76137
36.14144
35.55053
34.98899
34.45565
33.94538
33.45391
32.97874
32.51809
32.0689
31.62964
31.20101
30.7848
30.38306
29.99736
29.62842
29.27525
28.93517
28.60454
28.2796
27.9572
27.6359
27.3165
27.00193
26.69637
26.40399
26.12658
25.86272
25.60823
25.35756
25.10561
24.84951
24.58973
24.33001
24.07604
23.83326
23.6052
23.392
23.1905
22.99503
22.79944
22.59883
22.39139
22.17871
21.96542
21.75769
21.56212
21.38319
21.2203
21.06847
20.92073
20.77048
20.61333
20.44836
20.27857
20.11029
19.95105
19.8062
19.6767
19.55982
19.4499
19.34083
19.22836
19.11081
18.98932
18.86828
18.75461
18.65396
18.56714
18.48936
18.41253
18.33053
18.24098
18.14555
18.04924
17.95786
17.87519
17.80184
17.73471
17.66809
17.59693
17.51824
17.43359
17.34745
17.26509
17.1907
17.12601
17.07036
17.02014
16.96957
16.91514
16.85677
16.79758
16.74116
16.68991
16.64476
16.6032
16.5615
16.51698
16.46862
16.41817
16.36944
16.32607
16.28989
16.26006
16.23392
16.20872
16.18272
16.15634
16.13223
16.11337
16.10124
16.09497
16.09239
16.09074
16.08781
16.08371
16.08074
16.0818
16.0886
16.10083
16.11641
16.13252
16.14699
16.15957
16.17188
16.18623
16.20391
16.22454
16.24659
16.26851
16.28956
16.31034
16.33226
16.35628
16.38227
16.40904
16.43458
16.45707
16.47594
16.49249
16.50877
16.52637
16.5458
16.56648
16.58719
16.60682
16.62496
16.64172
16.65688
16.66961
16.67901
16.6846
16.6875
16.69026
16.69579
16.70606
16.7216
16.7416
16.76413
16.78742
16.81012
16.8301
16.84366
16.84591
16.83215
16.79946
16.74782
16.68068
16.60499
16.53183
16.48088
16.47027
16.50173
16.57001
16.66258
16.7613
16.84636
16.9027
16.92815
16.94212
16.95397
16.96535
16.98086
17.00656
17.04859
17.11248
17.20278
17.32268
17.47258
17.64851
17.84079
18.03459
18.21166
18.35099
18.43305
18.44277
18.37179
18.21982
17.99523
17.71498
17.40478
17.10123
16.83617
16.63107
16.50275
16.4597
16.49872
16.60365
16.7484
16.903
17.04116
17.14674
17.21833
17.27475
17.33538
17.40934
17.50769
17.64113
17.81797
18.04589
18.33301
18.68407
19.09727
19.56561
20.07921
20.62617
21.19213
21.75934
22.3068
22.81415
23.25378
23.60296
23.84189
23.95588
23.9378
23.7867
23.51754
23.14827
22.70252
22.20819
21.69072
21.17613
20.68454
20.23398
19.83659
19.49979
19.22661
19.01637
18.86539
18.76727
18.71337
18.69341
18.69632
18.71001
18.72256
18.7232
18.70276
18.65669
18.58511
18.47838
18.32945
18.13868
17.90885
17.64526
17.35483
17.04491
16.72246
16.39378
16.06432
15.73852
15.41979
15.11059
14.81261
14.52687
14.25391
13.99386
13.7466
13.51179
13.28894
13.07752
12.87694
12.68663
12.50606
12.33471
12.17209
12.0177
11.87102
11.73147
11.59843
11.4713
11.34949
11.23248
11.11984
11.01119
10.90624
10.80473
10.70646
10.61123
10.51889
10.42931
10.34247
10.25837
10.17716
10.09903
10.02424
9.953114
9.886006
9.823315
9.765498
9.713139
9.667034
9.628359
9.598939
9.580241
9.573491
9.580264
9.602424
9.642087
9.701624
9.783672
9.891101
10.02691
10.19407
10.39537
10.63317
10.90923
11.22452
11.57911
11.97197
12.40057
12.86096
13.34844
13.85822
14.38521
14.92323
15.46479
16.00158
16.52485
17.02695
17.50051
17.93789
18.33191
18.6757
18.96172
19.18254
19.33266
19.40986
19.41587
19.35588
19.23712
19.06869
18.86016
18.62031
18.35614
18.07235
17.77078
17.45018
17.11091
16.75701
16.39191
16.01879
15.64066
15.26046
14.88108
14.50523
14.13534
13.7735
13.42182
13.08241
12.75662
12.44473
12.14687
11.86287
11.59229
11.33461
11.08928
10.85582
10.63378
10.42262
10.22172
10.03032
9.847597
9.672811
9.50538
9.344931
9.191268
9.044294
8.903926
8.770059
8.642561
8.521254
8.405912
8.296227
8.191847
8.092357
7.997292
7.906145
7.818493
7.734192
7.656128
166.7048
122.9337
188.5819
92.67013
79.45655
68.16619
64.87398
62.5771
60.05142
59.1092
57.8364
55.95591
54.19874
52.30093
50.0317
45.42465
44.39605
43.42747
42.48457
41.57248
40.64545
39.75414
38.95849
38.2956
37.79071
37.44645
37.18269
36.92134
36.85129
36.99843
37.34457
37.82831
38.38182
38.97547
39.60414
40.28612
41.0061
41.75294
42.52091
43.30742
44.10924
44.9218
45.73768
46.55929
47.3957
48.26355
49.13458
50.02629
50.98438
51.92647
52.79182
53.51164
53.9972
54.33944
54.46512
54.37381
54.08254
53.60855
52.97205
52.19584
51.30372
50.32057
49.27078
48.17636
47.05862
45.93623
44.82438
43.73351
42.66824
41.62954
40.61727
39.6309
38.67475
37.75925
36.89935
36.0979
35.3555
34.66767
34.02739
33.42396
32.84652
32.28915
31.74983
31.23015
30.7339
30.26513
29.82643
29.41727
29.03373
28.66917
28.31707
27.97255
27.63228
27.29516
26.96246
26.63727
26.3233
26.02415
25.74191
25.47605
25.22353
24.97956
24.73855
24.49558
24.24782
23.9956
23.74292
23.49658
23.26361
23.0483
22.84973
22.66242
22.47845
22.29001
22.09207
21.88441
21.67185
21.46218
21.26342
21.08149
20.91773
20.76846
20.62655
20.48365
20.33285
20.17084
19.99861
19.82132
19.64764
19.48713
19.34634
19.22545
19.11844
19.01619
18.90983
18.79304
18.6636
18.52455
18.38411
18.25294
18.1392
18.04449
17.96431
17.89108
17.81661
17.73442
17.64154
17.53993
17.43677
17.34201
17.2631
17.2015
17.15119
17.10049
17.04033
16.96758
16.88521
16.80075
16.72285
16.65733
16.60482
16.56031
16.51552
16.46343
16.40106
16.32997
16.25582
16.18634
16.12774
16.08169
16.04573
16.01393
15.97813
15.93449
15.88545
15.8381
15.79908
15.77178
15.75622
15.74804
15.74158
15.7332
15.72273
15.71498
15.71833
15.73912
15.77847
15.83295
15.89731
15.96742
16.04132
16.11971
16.20552
16.30097
16.40529
16.51478
16.62503
16.73277
16.83698
16.9398
17.04522
17.15612
17.27201
17.38919
17.50342
17.61109
17.71088
17.80425
17.89529
17.98709
18.07948
18.16959
18.25438
18.33243
18.40454
18.4735
18.54177
18.60928
18.67343
18.73084
18.77882
18.81674
18.84675
18.87295
18.89851
18.92409
18.94808
18.96775
18.9804
18.98443
18.97988
18.9674
18.94711
18.91881
18.88296
18.84153
18.7977
18.75583
18.71844
18.68532
18.65454
18.62249
18.58486
18.53912
18.4847
18.42152
18.34932
18.2682
18.17962
18.08721
17.99738
17.91952
17.86659
17.85775
17.92643
18.09102
18.33917
18.6441
18.96669
19.26023
19.47877
19.58887
19.58275
19.49228
19.35699
19.18934
19.00409
18.81528
18.6344
18.47
18.32865
18.21559
18.13285
18.07885
18.04847
18.03304
18.02044
17.99684
17.94917
17.86694
17.74391
17.57964
17.38052
17.16047
16.9422
16.76094
16.65771
16.65644
16.77364
17.01375
17.35647
17.75533
18.15227
18.49261
18.73753
18.87119
18.90229
18.86343
18.78847
18.69186
18.58754
18.4879
18.40344
18.34449
18.32123
18.34092
18.40639
18.51696
18.66985
18.86093
19.08473
19.3339
19.59853
19.86596
20.12024
20.34354
20.5176
20.62582
20.65531
20.5984
20.45401
20.22745
19.9298
19.57665
19.18624
18.77838
18.37007
17.977
17.61185
17.28379
16.99859
16.75898
16.56505
16.41461
16.30354
16.22612
16.17466
16.14158
16.11819
16.09576
16.06623
16.02289
15.96119
15.88145
15.78266
15.65869
15.50964
15.33746
15.14552
14.93797
14.71919
14.49348
14.26477
14.03642
13.81115
13.591
13.37743
13.17137
12.97337
12.78364
12.60218
12.42878
12.26311
12.10479
11.9534
11.80858
11.66997
11.5373
11.41028
11.28864
11.17203
11.06004
10.9522
10.84805
10.74711
10.64901
10.55348
10.46032
10.36941
10.28068
10.19406
10.1095
10.02695
9.946394
9.867864
9.791423
9.717177
9.645261
9.575824
9.509016
9.444978
9.383849
9.325771
9.270936
9.219635
9.172359
9.129934
9.093506
9.063813
9.041731
9.028335
9.024903
9.03293
9.054127
9.090429
9.143954
9.216954
9.311732
9.430554
9.575546
9.748624
9.951382
10.18492
10.44959
10.74488
11.0696
11.4221
11.80022
12.20094
12.62034
13.05398
13.49714
13.94477
14.39113
14.83004
15.25531
15.66062
16.0407
16.38985
16.70157
16.96928
17.18702
17.34985
17.45423
17.49899
17.48536
17.4162
17.29543
17.12723
16.91483
16.65967
16.36023
16.02388
15.65953
15.27582
14.88101
14.48265
14.08739
13.70071
13.32675
12.96821
12.62658
12.30241
11.99557
11.70581
11.43245
11.17441
10.93043
10.69923
10.47971
10.271
10.07241
9.883289
9.702885
9.530348
9.36478
9.205382
9.051586
8.903096
8.75984
8.621845
8.489138
8.361704
8.239481
8.122363
8.010206
7.902824
7.799989
7.701453
7.606935
7.516155
7.428822
7.344901
7.26768
68.94479
51.03767
49.14861
46.66195
45.61
44.34877
43.35621
42.53282
41.85036
40.76938
38.08208
37.9801
37.89803
37.82799
37.73668
37.61118
37.48881
37.39951
37.35399
37.33784
37.20197
36.82129
36.44239
36.07065
35.71428
35.37999
35.09296
34.87202
34.72842
34.66539
34.67415
34.74606
34.90121
35.16966
35.56453
36.07226
36.65585
37.27683
37.91607
38.59806
39.31088
40.05116
40.81859
41.60865
42.42051
43.25383
44.11031
44.96544
45.82141
46.69714
47.66552
48.58013
49.47808
50.30929
51.00638
51.52379
51.81344
51.86226
51.67469
51.25267
50.61531
49.78989
48.8066
47.69783
46.49473
45.22544
43.91583
42.59056
41.27293
39.98453
38.74451
37.56766
36.46115
35.42496
34.45079
33.53146
32.66885
31.86083
31.10983
30.41988
29.79436
29.23362
28.73121
28.2751
27.85183
27.44818
27.05519
26.66953
26.29324
25.93187
25.59191
25.2786
24.99349
24.73301
24.48974
24.2554
24.02315
23.78849
23.54992
23.30887
23.06948
22.83695
22.61676
22.41304
22.22672
22.0545
21.89031
21.72713
21.55845
21.38008
21.19167
20.99777
20.80729
20.62985
20.47165
20.33259
20.20647
20.08407
19.95587
19.81489
19.65954
19.49485
19.3307
19.17745
19.04183
18.92551
18.82493
18.73242
18.63876
18.53629
18.42101
18.29341
18.15857
18.02601
17.90732
17.81034
17.73448
17.67194
17.61254
17.54748
17.47077
17.38012
17.27838
17.17459
17.08131
17.00747
16.95318
16.91149
16.87342
16.83071
16.77714
16.71006
16.63242
16.55398
16.48768
16.44178
16.41514
16.3975
16.37447
16.33581
16.28002
16.21394
16.1483
16.09381
16.05764
16.03767
16.02326
16.00273
15.96987
15.92549
15.8724
15.81761
15.7705
15.73878
15.72399
15.72081
15.72144
15.7197
15.71728
15.7215
15.74497
15.79588
15.8761
15.98106
16.10334
16.23761
16.38279
16.5436
16.7366
16.98194
17.27936
17.60976
17.95163
18.29276
18.63252
18.97784
19.33757
19.71556
20.10607
20.49469
20.86619
21.21315
21.53902
21.85386
22.1684
22.48945
22.81236
23.12208
23.40158
23.64128
23.84161
24.01412
24.17508
24.33636
24.49891
24.65385
24.79062
24.9052
25.00159
25.08886
25.17673
25.26735
25.35309
25.42228
25.46501
25.47691
25.4635
25.43753
25.40988
25.38409
25.35585
25.3174
25.2618
25.18516
25.08767
24.97221
24.84091
24.69419
24.53335
24.36285
24.19087
24.02609
23.87473
23.7361
23.60446
23.47126
23.32735
23.16656
22.98675
22.78775
22.57058
22.33892
22.10087
21.86889
21.65905
21.48988
21.38163
21.35785
21.44926
21.70107
22.12692
22.6929
23.33777
23.97971
24.52946
24.90809
25.06474
24.9914
24.72901
24.35532
23.913
23.43873
22.95919
22.49069
22.04138
21.61477
21.21276
20.83435
20.4779
20.14444
19.83941
19.55958
19.29771
19.04719
18.80273
18.56173
18.32569
18.1016
17.90403
17.75841
17.7077
17.81187
18.09646
18.56047
19.18392
19.90598
20.63226
21.26938
21.74542
22.02145
22.09472
21.99545
21.77677
21.48722
21.15534
20.80528
20.45335
20.11091
19.78788
19.49379
19.23618
19.01936
18.84469
18.71164
18.61899
18.56513
18.54765
18.56236
18.60249
18.65827
18.71719
18.7649
18.78665
18.76896
18.70121
18.57693
18.3945
18.15733
17.8733
17.55376
17.21209
16.86206
16.51655
16.18659
15.88073
15.60496
15.36278
15.15558
14.98282
14.84241
14.731
14.64368
14.57519
14.51948
14.47023
14.42121
14.36669
14.30202
14.22427
14.1335
14.03158
13.91537
13.78569
13.64433
13.49374
13.33664
13.17574
13.01357
12.85233
12.69373
12.53906
12.38916
12.24451
12.10531
11.97157
11.8431
11.71962
11.60076
11.48616
11.37544
11.26834
11.16467
11.06432
10.96719
10.87315
10.782
10.69343
10.6071
10.52265
10.43977
10.35828
10.2781
10.19921
10.12166
10.04551
9.970817
9.897655
9.826085
9.756182
9.688028
9.621709
9.557297
9.494835
9.434328
9.375728
9.318946
9.263856
9.210332
9.158284
9.107734
9.05885
9.012029
8.967977
8.927175
8.890026
8.857067
8.828993
8.806691
8.791278
8.784095
8.786679
8.80073
8.828065
8.87057
8.930151
9.0087
9.10804
9.229808
9.375285
9.545283
9.740148
9.959812
10.20369
10.4706
10.75884
11.06622
11.39024
11.72802
12.07614
12.43081
12.78813
13.14414
13.4946
13.83461
14.15852
14.45999
14.73217
14.96817
15.1621
15.30877
15.40407
15.44528
15.43124
15.36224
15.24
15.06789
14.84759
14.5822
14.28171
13.95656
13.61697
13.27226
12.93038
12.5975
12.27791
11.9741
11.68708
11.41696
11.16329
10.92518
10.70134
10.49025
10.29038
10.10031
9.918854
9.745217
9.578842
9.419249
9.265881
9.118065
8.975076
8.836251
8.701138
8.569572
8.441616
8.317416
8.19708
8.080654
7.968129
7.859459
7.754577
7.653392
7.55581
7.461737
7.371098
7.283832
7.199867
7.119329
7.045806
93.66489
39.46693
32.94479
31.60156
30.92061
30.6374
30.65787
30.85545
31.18402
31.60461
31.95746
32.12483
32.29388
32.44922
32.5932
32.71848
32.83314
32.93843
33.02144
33.05974
33.02845
32.94495
32.86328
32.7908
32.73551
32.70331
32.70719
32.75353
32.84258
32.97501
33.15158
33.37456
33.65398
33.99613
34.40835
34.88339
35.40282
35.94728
36.56432
37.23706
37.96123
38.73803
39.56429
40.41493
41.28952
42.18749
43.14199
44.06769
44.98462
45.90358
46.8249
47.67503
48.39148
48.92341
49.22203
49.26217
49.04061
48.57203
47.84492
46.89169
45.75144
44.46686
43.08079
41.63569
40.16856
38.70868
37.27716
35.89087
34.5664
33.31949
32.16673
31.1213
30.18995
29.36239
28.621
27.9461
27.32268
26.74273
26.20355
25.70588
25.25915
24.86907
24.53301
24.23858
23.96828
23.70574
23.44022
23.16857
22.89487
22.62784
22.37723
22.15092
21.95182
21.77629
21.61584
21.46099
21.30409
21.14016