/*--------------------------------*- C++ -*----------------------------------*\
| =========                 |                                                 |
| \\      /  F ield         | foam-extend: Open Source CFD                    |
|  \\    /   O peration     | Version:     3.1                                |
|   \\  /    A nd           | Web:         http://www.extend-project.de       |
|    \\/     M anipulation  |                                                 |
\*---------------------------------------------------------------------------*/
FoamFile
{
    version     2.0;
    format      ascii;
    class       volScalarField;
    location    "19.5";
    object      pd;
}
// * * * * * * * * * * * * * * * * * * * * * * * * * * * * * * * * * * * * * //

dimensions      [1 -1 -2 0 0 0 0];

internalField   nonuniform List<scalar> 
119952
(
5006.759
3240.226
2974.439
3206.615
3458.052
3223.498
3147.131
3084.04
3040.02
3004.283
2973.18
2946.094
2922.217
2900.736
2880.67
2860.733
2838.738
2813.958
2769.029
2640.786
3048.403
2801.181
2676.828
3229.593
3175.756
3208.592
3256.339
3394.787
3871.384
7644.621
3179.259
3117.184
3110.352
3096.521
3083.753
3071.042
3061.448
3052.522
3046.184
3011.311
2995.346
3007.224
2995.955
2987.469
2980.319
2974.792
2969.991
2964.879
2961.093
2980.196
2972.036
2947.414
2939.543
2938.579
2937.47
2937.597
2938.429
2938.331
2946.192
2940.039
2937.869
2947.452
2957.639
2968.258
2980.995
2996.133
3022.311
3111.933
3302.876
3144.866
3078.644
3169.797
3207.698
3173.948
3110.168
3063.515
3026.761
2993.469
2963.943
2938.34
2915.69
2895.132
2876.029
2857.543
2838.521
2818.152
2797.603
2784.36
2806.916
2832.899
2823.639
2944.007
3129.665
3166.365
3176.85
3188.357
3090.99
2745.679
2655.581
2732.778
2753.622
2770.13
2788.958
2801.956
2811.896
2820.686
2828.694
2836.324
2843.772
2851.048
2858.11
2864.921
2871.477
2877.819
2884.05
2890.31
2896.71
2903.298
2910.067
2916.993
2924.058
2931.324
2938.931
2947.045
2955.794
2965.225
2975.304
2985.946
2997.059
3008.608
3020.625
3033.168
3046.259
3059.862
3073.897
3088.288
3102.995
3118.046
3133.532
3149.583
3166.309
3183.781
3201.99
3220.826
3240.071
3260.136
3284.772
3318.077
3351.417
3375.325
3400.384
3428.248
3457.324
3487.493
3518.719
3550.892
3583.944
3617.824
3652.529
3688.073
3724.514
3761.938
3800.462
3840.232
3881.377
3923.967
3968.002
4013.295
4059.452
4106.003
4152.308
4197.648
4241.384
4282.703
4320.993
4355.918
4386.628
4412.827
4434.489
4452.269
4466.551
4478.606
4489.514
4500.748
4513.485
4528.452
4546.966
4569.667
4597.026
4628.892
4665.108
4705.123
4748.594
4795.333
4844.604
4895.504
4950.306
5020.142
5077.261
5126.365
5178.252
5229.076
5279.432
5328.079
5373.708
5415.88
5454.591
5489.452
5520.157
5546.534
5569.243
5588.393
5605.579
5619.986
5633.563
5647.708
5663.225
5681.981
5706.532
5737.339
5774.512
5818.474
5868.443
5921.299
5966.911
5971.739
5932.146
5947.849
5996.043
6042.796
6083.253
6117.415
6148.701
6198.556
6240.801
6278.682
6314.293
6348.7
6381.958
6413.766
6443.494
6472.776
6504.341
6536.275
6568.107
6598.933
6628.191
6655.76
6681.78
6706.332
6729.495
6751.408
6772.162
6791.805
6810.352
6827.863
6844.403
6860.07
6874.95
6889.102
6902.638
6915.669
6928.292
6940.563
6952.919
6965.134
6975.308
7002.412
7006.873
7008.756
7018.208
7027.475
7035.973
7044.345
7052.476
7060.159
7067.287
7073.798
7079.649
7084.82
7089.31
7093.131
7096.316
7098.909
7100.969
7102.562
7103.762
7104.646
7105.291
7105.775
7106.169
7106.54
7106.95
7107.455
7108.105
7108.943
7110.005
7111.318
7112.901
7114.763
7116.906
7119.325
7122.012
7124.952
7128.134
7131.547
7135.181
7139.026
7143.087
7147.467
7152.272
7157.45
7161.851
7163.869
7165.163
7166.847
7169.064
7171.461
7174.154
7177.099
7177.641
7172.648
7178.609
7184.74
7187.477
7189.478
7192.084
7194.798
7197.327
7199.675
7201.946
7204.131
7206.227
7208.087
7209.639
7210.811
7211.607
7212.254
7213.063
7214.187
7215.423
7216.508
7217.32
7217.607
7217.332
7216.542
7215.371
7213.831
7211.978
7209.846
7207.424
7204.657
7201.507
7197.968
7194.085
7189.955
7185.722
7181.571
7177.729
7174.447
7171.988
7170.568
7170.498
7171.946
7175.028
7179.789
7186.184
7194.071
7203.211
7213.278
7223.892
7234.656
7245.186
7255.136
7264.208
7272.161
7278.802
7284.002
7287.703
7289.915
7290.702
7290.166
7288.432
7285.637
7281.918
7277.404
7272.214
7266.451
7260.204
7253.545
7246.53
7239.195
7231.558
7223.612
7215.327
7206.643
7197.46
7187.626
7176.908
7164.977
7151.272
7134.815
7114.712
7095.581
7106.154
7198.241
6183.088
6026.457
5841.121
5664.351
5492.328
5326.437
5167.4
5015.032
4869.432
4722.279
4587.592
4470.741
4353.006
4245.562
4145.894
4054.049
3971.01
3890.559
3804.414
3761.66
3692.138
3625.69
3571.991
3523.487
3478.923
3438.693
3401.225
3369.08
3343.092
3301.878
3275.035
3251.985
3228.632
3207.723
3187.79
3169.11
3153.932
3146.984
3115.618
3094.379
3083.936
3073.827
3062.777
3052.135
3042.136
3032.523
3023.329
3008.332
3002.634
2997.131
2989.875
2982.417
2975.744
2969.697
2964.888
2968.099
2940.308
2936.923
2938.521
2938.972
2937.379
2935.46
2934.587
2934.737
2935.352
2935.41
2938.353
2944.106
2950.529
2958.359
2969.232
2985.077
3007.954
3040.897
3081.457
3115.262
3118.042
3102.32
3099.92
3100.256
3088.767
3062.739
3029.969
2997.879
2969.451
2944.672
2922.588
2902.776
2884.859
2868.596
2853.76
2840.419
2829.249
2822.573
2823.065
2835.492
2861.731
2901.115
2954.637
3015.742
3056.304
3058.89
3023.605
2952.646
2857.864
2785.321
2765.81
2774.702
2789.6
2802.196
2811.39
2818.579
2825.266
2832.202
2839.412
2846.703
2853.892
2860.825
2867.47
2873.813
2879.853
2885.777
2891.822
2898.118
2904.659
2911.424
2918.359
2925.341
2932.465
2939.974
2948.101
2956.99
2966.659
2977.039
2987.984
2999.315
3011.021
3023.218
3036.006
3049.387
3063.263
3077.499
3091.985
3106.663
3121.595
3136.959
3152.973
3169.796
3187.538
3206.233
3225.955
3246.986
3269.865
3294.854
3321.82
3349.74
3377.264
3405.036
3433.723
3463.463
3494.288
3526.121
3558.814
3592.258
3626.383
3661.167
3696.645
3732.895
3770.067
3808.4
3848.172
3889.678
3933.149
3978.627
4025.857
4074.306
4123.284
4171.901
4219.144
4264.087
4305.96
4343.848
4376.94
4404.876
4427.59
4445.488
4458.704
4468.474
4476.229
4483.48
4492.062
4502.878
4517.061
4535.511
4559.036
4587.673
4621.658
4660.427
4703.9
4751.488
4803.083
4858.493
4917.069
4976.012
5032.024
5092.098
5146.602
5198.84
5250.28
5300.084
5347.241
5391.049
5431.285
5467.386
5499.249
5526.761
5550.024
5569.409
5585.586
5599.286
5611.258
5622.871
5635.46
5650.608
5669.463
5693.74
5724
5760.214
5801.827
5846.6
5889.644
5925.322
5943.802
5950.4
5976.156
6018.225
6061.635
6101.675
6139.132
6176.424
6215.654
6254.993
6290.873
6324.766
6357.695
6389.63
6420.722
6450.807
6481.204
6512.544
6544.093
6575.287
6605.501
6634.391
6661.819
6687.739
6712.243
6735.388
6757.291
6777.979
6797.486
6815.834
6833.091
6849.32
6864.664
6879.222
6892.871
6905.896
6918.436
6930.566
6942.385
6953.981
6965.592
6981.511
6987.956
6999.967
7011.016
7020.039
7027.932
7035.632
7043.378
7051.004
7058.267
7064.995
7071.101
7076.555
7081.347
7085.482
7088.977
7091.866
7094.2
7096.04
7097.46
7098.533
7099.339
7099.954
7100.451
7100.903
7101.372
7101.919
7102.598
7103.457
7104.535
7105.864
7107.466
7109.356
7111.533
7113.992
7116.719
7119.698
7122.908
7126.329
7129.936
7133.714
7137.645
7141.713
7145.885
7150.068
7154.045
7157.549
7160.321
7162.575
7164.768
7167.046
7169.475
7172.073
7174.844
7177.731
7179.118
7180.195
7182.163
7184.676
7187.393
7190.202
7193.02
7195.856
7198.769
7201.618
7204.249
7206.634
7208.872
7210.89
7212.622
7214.122
7215.601
7217.255
7218.944
7220.343
7221.243
7221.525
7221.281
7220.539
7219.37
7217.856
7216.06
7214.059
7211.89
7209.512
7206.765
7203.556
7199.922
7195.921
7191.639
7187.215
7182.824
7178.674
7175.028
7172.201
7170.382
7169.877
7170.861
7173.447
7177.694
7183.577
7190.963
7199.612
7209.186
7219.305
7229.578
7239.627
7249.124
7257.797
7265.414
7271.756
7276.697
7280.204
7282.302
7283.054
7282.559
7280.935
7278.312
7274.816
7270.569
7265.678
7260.239
7254.332
7248.027
7241.372
7234.407
7227.14
7219.578
7211.682
7203.426
7194.713
7185.488
7175.616
7165.077
7154.056
7143.368
7135.001
7131.928
7134.404
7145.292
3666.381
3716.666
3789.841
3881.567
3990.806
4116.809
4258.829
4416.482
4588.678
4772.141
4965.714
5170.559
5380.725
5595.641
5813.252
6030.716
6242.933
6448.82
6645.873
6849.692
7015.15
7163.86
7290.946
7393.442
7469.616
7518.055
7537.654
7528.125
7494.748
7431.713
7343.539
7233.678
7105.731
6962.444
6806.739
6641.427
6469.601
6294.412
6105.045
5928.056
5750.59
5576.591
5407.845
5245.063
5089.277
4941.038
4801.17
4668.369
4538.875
4420.61
4308.654
4203.606
4106.55
4017.029
3935.676
3871.453
3757.31
3694.772
3643.74
3593.087
3543.132
3496.067
3453.027
3414.082
3378.883
3346.291
3316.186
3289.794
3265.109
3240.95
3217.837
3196.407
3176.611
3158.347
3141.275
3124.932
3110.357
3096.808
3083.583
3070.903
3058.986
3047.644
3036.637
3025.818
3015.341
3006.404
2998.726
2991.325
2984.367
2977.965
2971.715
2965.268
2958.146
2950.877
2943.771
2939.526
2937.126
2934.283
2931.481
2929.643
2928.987
2929.112
2929.569
2930.704
2932.959
2936.186
2941.334
2949.507
2961.123
2976.544
2995.777
3018.079
3041.817
3064.054
3073.37
3065.459
3056.111
3052.607
3045.788
3028.609
3003.49
2976.982
2952.536
2930.631
2910.999
2893.496
2878.092
2864.669
2853.228
2844.298
2837.765
2834.428
2836.513
2848.563
2869.298
2896.12
2930.678
2968.384
2993.019
2993.933
2970.529
2927.819
2870.702
2816.803
2790.788
2791.648
2801.928
2811.233
2818.185
2823.511
2828.554
2834.371
2840.973
2848.04
2855.218
2862.105
2868.646
2874.791
2880.422
2885.858
2891.528
2897.649
2904.145
2910.934
2917.89
2924.61
2931.352
2938.513
2946.45
2955.349
2965.136
2975.715
2986.945
2998.442
3010.176
3022.386
3035.275
3048.866
3062.984
3077.389
3091.91
3106.419
3120.976
3135.896
3151.54
3168.189
3186.015
3205.038
3225.178
3246.512
3269.134
3293.191
3318.845
3346.194
3374.471
3402.92
3431.854
3461.803
3492.932
3525.106
3558.099
3591.732
3625.887
3660.49
3695.549
3731.151
3767.517
3805.064
3844.28
3885.669
3929.737
3976.677
4026.202
4077.655
4130.071
4182.269
4233.01
4280.977
4324.837
4363.455
4396.047
4422.073
4442.084
4455.674
4463.829
4468.084
4470.255
4472.28
4476.139
4483.157
4494.784
4511.567
4534.457
4563.321
4598.477
4639.143
4685.279
4736.249
4791.546
4850.681
4911.568
4974.097
5038.593
5105.879
5169.786
5229.659
5285.629
5337.718
5385.665
5428.995
5467.267
5500.347
5527.72
5550.084
5567.562
5580.645
5590.229
5597.404
5603.464
5609.867
5618.079
5629.561
5645.689
5667.306
5695.363
5728.902
5767.01
5807.746
5847.884
5883.595
5915.61
5947.642
5983.962
6026.071
6070.373
6113.741
6155.493
6195.479
6234.22
6272.025
6308.574
6343.434
6376.832
6408.977
6439.997
6470.33
6500.367
6530.499
6560.488
6590.009
6618.754
6646.457
6672.979
6698.323
6722.475
6745.445
6767.235
6787.824
6807.231
6825.505
6842.752
6859.027
6874.255
6888.63
6902.155
6915.074
6927.37
6939.126
6950.35
6961.079
6971.296
6981.905
6992.975
7002.242
7010.559
7018.776
7026.897
7034.816
7042.505
7049.909
7056.897
7063.333
7069.131
7074.261
7078.723
7082.53
7085.707
7088.294
7090.349
7091.939
7093.139
7094.029
7094.687
7095.191
7095.613
7096.024
7096.487
7097.062
7097.801
7098.754
7099.959
7101.446
7103.237
7105.338
7107.744
7110.44
7113.403
7116.608
7120.024
7123.623
7127.376
7131.253
7135.217
7139.225
7143.22
7147.118
7150.824
7154.219
7157.194
7159.703
7161.947
7164.135
7166.426
7168.745
7171.084
7173.105
7175.095
7177.467
7179.799
7182.057
7184.359
7186.798
7189.424
7192.266
7195.287
7198.338
7201.28
7204.059
7206.79
7209.499
7212.008
7214.19
7216.084
7217.83
7219.546
7221.165
7222.506
7223.538
7224.173
7224.112
7223.217
7221.715
7219.849
7217.723
7215.351
7212.706
7209.745
7206.415
7202.708
7198.644
7194.279
7189.747
7185.178
7180.733
7176.689
7173.369
7171.001
7169.871
7170.206
7172.145
7175.748
7181.012
7187.848
7196.035
7205.202
7214.941
7224.862
7234.585
7243.789
7252.234
7259.72
7266.013
7270.929
7274.436
7276.576
7277.414
7277.048
7275.594
7273.176
7269.922
7265.947
7261.352
7256.23
7250.659
7244.707
7238.424
7231.848
7225.001
7217.885
7210.489
7202.786
7194.761
7186.38
7177.717
7168.868
7160.254
7152.375
7146.041
7141.948
7141.587
7144.932
3718.535
3675.608
3642.367
3609.749
3583.996
3567.627
3565.951
3582.319
3613.185
3623.856
3616.782
3627.039
3660.096
3712.55
3783.757
3872.738
3978.252
4100.089
4237.957
4389.172
4555.029
4733.332
4921.479
5118.783
5323.057
5532.071
5743.494
5954.763
6163.483
6367.113
6562.706
6783.423
6954.462
7098.889
7220.665
7318.515
7389.746
7432.81
7447.199
7433.564
7393.409
7326.833
7235.317
7122.172
6990.997
6845.141
6687.718
6521.485
6348.941
6172.465
5994.236
5816.75
5641.424
5469.927
5304.065
5145.16
4993.717
4850.069
4714.284
4585.745
4463.787
4348.658
4240.699
4140.007
4046.706
3960.71
3881.723
3808.379
3736.885
3675.719
3623.689
3573.483
3524.255
3478.049
3435.892
3397.815
3363.367
3332.388
3304.772
3279.204
3254.871
3231.787
3209.844
3189.022
3169.345
3150.826
3133.823
3118.771
3105.038
3091.579
3078.78
3066.874
3055.459
3044.108
3032.699
3021.549
3011.237
3001.85
2993.862
2987.275
2981.466
2975.816
2969.741
2963.014
2955.696
2948.499
2941.966
2935.93
2930.67
2927.635
2926.119
2925.502
2925.435
2925.51
2925.517
2925.563
2925.878
2927.259
2931.443
2939.578
2950.031
2963.338
2978.096
2994.01
3009.676
3023.033
3029.069
3025.279
3017.948
3012.799
3006.756
2994.582
2976.181
2955.49
2934.993
2915.758
2898.367
2883.493
2870.867
2860.334
2852.322
2846.203
2842.378
2840.152
2842.268
2851.611
2866.452
2886.198
2909.783
2933.14
2949.031
2949.353
2933.788
2905.046
2869.077
2833.126
2810.981
2807.688
2812.931
2818.425
2823.394
2827.678
2831.3
2836.021
2842.059
2849.036
2856.381
2863.193
2869.79
2876
2880.998
2885.656
2890.828
2896.728
2902.983
2909.751
2917.2
2923.506
2929.483
2935.976
2943.507
2952.396
2962.455
2973.46
2985.153
2996.659
3008.294
3020.522
3033.618
3047.566
3062.034
3076.634
3091.2
3105.476
3119.468
3133.712
3148.752
3164.961
3182.66
3201.847
3222.104
3243.323
3265.7
3289.496
3314.855
3341.733
3369.693
3398.271
3427.517
3457.819
3489.378
3522.021
3555.427
3589.35
3623.591
3658.003
3692.551
3727.229
3762.255
3798.379
3836.451
3877.282
3921.803
3970.479
4023.008
4078.542
4135.844
4193.366
4249.365
4302.007
4349.511
4390.358
4423.511
4448.574
4464.596
4472.678
4473.875
4470.174
4464.059
4458.142
4454.932
4456.419
4463.88
4478.079
4499.717
4528.783
4565.203
4608.214
4657.422
4712.01
4771.437
4834.773
4901.273
4969.953
5040.771
5114.331
5185.942
5252.525
5313.535
5369.194
5419.376
5463.538
5501.162
5532.082
5556.097
5573.59
5584.962
5590.996
5592.923
5592.237
5590.641
5589.936
5591.837
5597.901
5609.528
5627.639
5652.659
5684.177
5721.149
5761.973
5804.929
5847.782
5888.735
5929.116
5972.751
6020.199
6068.263
6114.646
6159.042
6201.666
6242.643
6281.948
6319.587
6355.555
6389.831
6422.479
6453.651
6483.751
6513.343
6542.718
6571.728
6600.144
6627.749
6654.46
6680.251
6705.053
6728.819
6751.536
6773.196
6793.785
6813.288
6831.704
6849.043
6865.335
6880.588
6895.012
6908.682
6921.667
6933.936
6945.586
6956.688
6967.133
6977.32
6987.185
6996.651
7005.379
7013.582
7021.749
7029.874
7037.684
7045.065
7052.008
7058.48
7064.398
7069.688
7074.314
7078.271
7081.58
7084.273
7086.398
7088.018
7089.209
7090.05
7090.626
7091.017
7091.299
7091.545
7091.82
7092.188
7092.707
7093.432
7094.409
7095.682
7097.282
7099.226
7101.517
7104.14
7107.069
7110.269
7113.702
7117.329
7121.112
7125.008
7128.979
7132.981
7136.967
7140.878
7144.652
7148.219
7151.495
7154.405
7156.92
7159.157
7161.255
7163.297
7165.279
7167.196
7169.012
7170.91
7172.92
7174.847
7176.729
7178.704
7180.886
7183.332
7186.037
7188.957
7192.02
7195.148
7198.3
7201.484
7204.66
7207.721
7210.588
7213.27
7215.792
7218.26
7220.645
7222.652
7224.05
7224.791
7224.93
7224.511
7223.62
7222.404
7220.875
7218.818
7216.158
7213.067
7209.626
7205.819
7201.653
7197.149
7192.417
7187.624
7182.97
7178.709
7175.137
7172.483
7171.042
7170.974
7172.497
7175.708
7180.602
7187.077
7194.915
7203.798
7213.333
7223.087
7232.637
7241.644
7249.91
7257.187
7263.204
7267.871
7271.198
7273.208
7273.964
7273.561
7272.113
7269.741
7266.58
7262.739
7258.314
7253.391
7248.052
7242.362
7236.378
7230.144
7223.686
7217.01
7210.119
7203.006
7195.684
7188.183
7180.599
7173.089
7165.921
7159.464
7153.979
7150.1
7148.099
7147.594
4244.944
4201.239
4158.414
4113.154
4064.088
4011.266
3961.596
3911.87
3862.917
3814.624
3767.83
3723.953
3681.924
3643.746
3610.811
3582.918
3561.279
3551.999
3551.802
3556.437
3562.149
3574.246
3598.938
3639.372
3696.543
3769.449
3858.966
3965.925
4089.284
4228.301
4381.89
4548.815
4727.957
4917.742
5116.161
5321.092
5530.25
5741.543
5953.165
6161.667
6362.332
6552.643
6721.213
6884.698
7027.719
7149.371
7247.001
7317.865
7360.387
7373.953
7358.832
7316.353
7247.862
7155.145
7041.144
6909.476
6763.642
6606.792
6441.666
6270.636
6095.863
5918.926
5742.324
5568.59
5398.886
5234.699
5077.628
4928.333
4787.109
4653.869
4528.132
4409.39
4297.506
4192.515
4094.482
4003.44
3919.672
3842.58
3772.319
3708.317
3650.649
3598.748
3549.987
3503.24
3459.153
3418.422
3381.354
3348.141
3318.784
3292.562
3268.426
3245.776
3224.171
3203.184
3182.678
3162.785
3143.982
3127.319
3112.269
3098.934
3087.02
3075.782
3064.854
3053.708
3042.012
3029.937
3018.147
3007.413
2997.477
2989.963
2984.45
2979.722
2974.785
2968.887
2961.822
2953.881
2945.581
2937.021
2930.086
2925.275
2922.574
2922.415
2922.719
2922.757
2922.202
2920.952
2919.146
2917.355
2916.76
2918.815
2925.849
2936.029
2946.337
2957.443
2969.493
2979.761
2986.735
2988.873
2985.771
2979.797
2975.594
2971.66
2963.834
2950.146
2934.195
2916.662
2899.188
2883.182
2870.069
2861.227
2853.578
2848.274
2845.399
2843.211
2841.86
2842.931
2848.604
2858.677
2872.991
2889.659
2906.209
2917.998
2917.681
2906.453
2885.706
2861.848
2839.034
2822.336
2818.057
2821.515
2824.994
2827.668
2830.653
2833.114
2836.739
2842.449
2849.926
2858.189
2865.376
2871.372
2877.575
2881.818
2885.07
2889.546
2895.514
2902.384
2908.941
2915.892
2921.869
2926.79
2932.289
2939.292
2948.171
2958.157
2969.537
2982.797
2994.221
3005.267
3017.304
3030.762
3045.49
3060.743
3075.711
3090.372
3104.18
3117.067
3130.134
3144.352
3160.066
3177.576
3196.806
3216.894
3237.8
3259.95
3283.628
3308.819
3335.286
3362.879
3391.448
3420.889
3451.584
3483.772
3517.1
3551.066
3585.423
3619.886
3654.145
3688.107
3721.577
3754.488
3788.068
3823.879
3863.278
3907.971
3958.77
4015.197
4076.174
4140.221
4205.286
4268.944
4328.668
4381.965
4426.679
4461.242
4484.755
4496.706
4497.796
4489.579
4474.827
4457.064
4440.006
4426.974
4420.504
4422.056
4432.7
4452.851
4482.373
4520.659
4566.697
4619.651
4678.693
4743.159
4812.429
4885.95
4962.842
5042.23
5122.676
5201.149
5274.934
5342.754
5404.129
5458.567
5505.337
5543.726
5573.277
5593.751
5605.732
5610.059
5607.669
5599.999
5589.13
5577.41
5567.107
5560.298
5558.841
5564.248
5577.555
5599.41
5629.556
5666.859
5709.786
5756.576
5805.07
5853.989
5903.929
5955.731
6008.494
6060.325
6110.102
6157.585
6202.745
6245.601
6286.404
6325.508
6362.966
6398.673
6432.623
6464.961
6496.012
6526.117
6555.445
6584
6611.744
6638.636
6664.651
6689.758
6713.933
6737.159
6759.426
6780.722
6801.026
6820.327
6838.631
6855.949
6872.314
6887.779
6902.421
6916.248
6929.295
6941.561
6953.141
6964.058
6974.63
6984.621
6994.076
7003.097
7011.67
7019.858
7027.803
7035.504
7042.821
7049.656
7055.989
7061.804
7067.047
7071.656
7075.594
7078.859
7081.478
7083.497
7084.975
7085.989
7086.621
7086.96
7087.093
7087.105
7087.072
7087.06
7087.131
7087.346
7087.76
7088.43
7089.409
7090.74
7092.458
7094.583
7097.111
7100.011
7103.239
7106.744
7110.475
7114.377
7118.405
7122.51
7126.644
7130.756
7134.798
7138.716
7142.449
7145.934
7149.106
7151.923
7154.379
7156.533
7158.459
7160.221
7161.856
7163.397
7164.882
7166.354
7167.82
7169.27
7170.757
7172.382
7174.24
7176.393
7178.855
7181.618
7184.656
7187.918
7191.346
7194.905
7198.559
7202.238
7205.845
7209.328
7212.686
7215.901
7218.866
7221.397
7223.341
7224.684
7225.542
7225.881
7225.581
7224.643
7223.181
7221.301
7219.019
7216.331
7213.225
7209.721
7205.778
7201.345
7196.548
7191.643
7186.889
7182.526
7178.851
7176.1
7174.426
7174.075
7175.273
7178.138
7182.669
7188.744
7196.147
7204.625
7213.83
7223.318
7232.649
7241.432
7249.332
7256.074
7261.547
7265.784
7268.775
7270.516
7271.066
7270.52
7268.988
7266.585
7263.454
7259.703
7255.411
7250.664
7245.541
7240.112
7234.44
7228.576
7222.548
7216.36
7210.011
7203.511
7196.883
7190.179
7183.49
7176.957
7170.756
7165.105
7160.25
7156.701
7153.933
7151.719
4678.322
4628.313
4582.423
4537.948
4498.255
4452.932
4413.093
4373.36
4332.716
4291.097
4249.01
4206.521
4161.695
4116.156
4067.615
4012.016
3962.374
3913.072
3864.049
3815.643
3768.231
3722.713
3679.458
3639.341
3603.207
3572.193
3547.163
3529.96
3520.185
3517.003
3520.797
3534.283
3559.75
3599.333
3654.496
3726.577
3815.193
3920.274
4041.653
4178.741
4330.522
4495.7
4672.84
4860.318
5056.353
5258.917
5465.504
5673.537
5880.809
6085.163
6283.358
6472.956
6648.432
6809.362
6950.434
7068.963
7162.463
7228.822
7266.741
7275.729
7256.047
7208.874
7136.053
7039.916
6923.492
6790.44
6644.303
6488.155
6324.804
6156.199
5984.394
5810.952
5637.599
5467.18
5301.215
5140.697
4987.259
4842.013
4705.322
4576.762
4455.737
4341.753
4234.361
4133.325
4038.727
3950.822
3870.195
3797.089
3731.593
3672.555
3618.647
3569.141
3522.819
3478.626
3436.535
3397.104
3361.019
3329.15
3301.662
3277.544
3255.726
3235.303
3215.299
3195.175
3174.881
3154.666
3135.158
3118.532
3104.467
3091.9
3082.138
3072.723
3062.831
3051.954
3039.805
3026.783
3013.406
3001.488
2992.477
2985.702
2981.319
2977.92
2973.951
2968.333
2960.788
2951.705
2941.736
2931.357
2923.284
2919.032
2917.462
2918.398
2919.455
2919.441
2918.054
2915.305
2911.379
2906.932
2903.589
2903.543
2908.901
2919.307
2927.91
2936.427
2945.41
2951.366
2953.357
2951.485
2946.714
2939.895
2938.683
2939.382
2933.478
2923.689
2912.59
2897.266
2880.884
2866.15
2854.427
2848.252
2845.284
2843.741
2843.102
2842.38
2840.439
2839.455
2841.358
2847.194
2857.145
2871.92
2886.809
2893.893
2893.583
2885.491
2870.319
2851.784
2836.759
2827.61
2824.852
2827.893
2830.678
2831.884
2833.064
2833.786
2836.143
2841.618
2850.187
2859.971
2869.399
2874.852
2878.792
2882.061
2883.72
2887.268
2893.341
2901.615
2908.941
2914.015
2919.308
2922.992
2926.92
2933.274
2942.973
2954.456
2965.968
2979.112
2990.759
3001.036
3012.662
3026.629
3042.59
3059.038
3074.319
3089.649
3103.149
3113.999
3124.876
3137.428
3152.169
3169.826
3189.938
3209.644
3229.728
3251.352
3274.867
3300.081
3326.341
3353.658
3382.211
3411.591
3442.532
3475.561
3509.965
3544.833
3579.953
3614.87
3649.045
3682.284
3714.064
3743.865
3773.705
3805.543
3841.532
3885.606
3939.023
4000.628
4068.778
4141.702
4216.896
4291.243
4361.229
4423.09
4473.712
4511.233
4534.125
4541.335
4533.292
4512.434
4482.623
4448.928
4416.757
4390.557
4373.369
4367.023
4372.989
4391.505
4422.012
4463.194
4513.38
4571.168
4635.605
4706.124
4782.392
4863.871
4949.62
5038.165
5127.495
5215.1
5298.439
5375.567
5445.12
5505.948
5556.919
5596.955
5625.574
5642.741
5648.715
5644.309
5631.103
5611.06
5586.872
5561.789
5538.786
5520.342
5508.72
5506.104
5513.854
5532.742
5562.324
5601.269
5647.704
5699.657
5755.333
5813.376
5872.778
5932.543
5991.47
6048.363
6102.456
6153.461
6201.422
6246.638
6289.549
6330.503
6369.633
6406.962
6442.526
6476.414
6508.773
6539.784
6569.587
6598.248
6625.797
6652.266
6677.695
6702.127
6725.598
6748.134
6769.753
6790.466
6810.274
6829.179
6847.19
6864.329
6880.625
6896.098
6910.768
6924.655
6937.794
6950.213
6961.96
6973.072
6983.631
6993.618
7003.21
7012.083
7020.427
7028.411
7036.006
7043.201
7049.94
7056.156
7061.811
7066.878
7071.313
7075.073
7078.132
7080.498
7082.212
7083.34
7083.961
7084.172
7084.069
7083.748
7083.305
7082.825
7082.379
7082.03
7081.831
7081.834
7082.093
7082.668
7083.62
7085.003
7086.854
7089.199
7092.028
7095.285
7098.898
7102.796
7106.907
7111.164
7115.51
7119.891
7124.269
7128.585
7132.773
7136.777
7140.539
7143.999
7147.107
7149.833
7152.173
7154.159
7155.847
7157.298
7158.573
7159.711
7160.749
7161.714
7162.646
7163.592
7164.614
7165.8
7167.246
7169.028
7171.195
7173.776
7176.766
7180.127
7183.808
7187.751
7191.884
7196.119
7200.356
7204.522
7208.627
7212.507
7216.106
7219.313
7222.026
7224.208
7225.849
7226.851
7227.183
7226.83
7225.888
7224.531
7222.753
7220.469
7217.657
7214.345
7210.59
7206.448
7202.013
7197.458
7192.979
7188.791
7185.158
7182.355
7180.597
7180.102
7181.061
7183.605
7187.747
7193.389
7200.332
7208.293
7216.911
7225.775
7234.463
7242.566
7249.705
7255.713
7260.586
7264.298
7266.813
7268.156
7268.396
7267.62
7265.93
7263.432
7260.308
7256.642
7252.471
7247.885
7242.975
7237.809
7232.459
7226.986
7221.421
7215.76
7209.985
7204.113
7198.158
7192.171
7186.239
7180.472
7174.998
7169.744
7165.223
7161.956
7159.209
7156.222
4907.404
4889.121
4841.722
4782.397
4723.368
4670.491
4621.897
4577.278
4535.949
4494.632
4449.076
4409.934
4370.865
4331.081
4290.245
4248.305
4205.116
4160.314
4113.979
4066.861
4019.895
3971.047
3921.833
3872.477
3823.368
3774.799
3727.107
3680.411
3635.633
3594.035
3556.925
3526.34
3502.659
3486.829
3479.863
3482.318
3495.889
3522.088
3562.007
3617.004
3687.826
3774.857
3878.189
3997.663
4132.741
4282.479
4445.627
4620.785
4806.009
4999.35
5198.887
5400.713
5604.075
5806.68
6006.684
6201.737
6387.617
6559.695
6714.631
6849.394
6960.815
7046.483
7104.768
7134.827
7136.473
7110.076
7056.784
6978.519
6878.037
6758.587
6623.865
6477.794
6322.967
6162.4
5998.113
5831.515
5664.048
5496.947
5331.411
5169.492
5013.752
4865.815
4726.814
4597.188
4476.29
4363.05
4256.324
4155.221
4059.475
3969.35
3885.458
3808.825
3740.544
3680.488
3626.715
3577.737
3532.617
3489.916
3448.523
3408.391
3370.165
3334.916
3304.959
3280.554
3259.194
3240.561
3223.169
3204.888
3185.579
3165.406
3144.715
3124.383
3106.339
3093.936
3084.962
3077.039
3069.392
3060.51
3049.821
3036.966
3022.433
3007.357
2994.159
2985.531
2979.919
2977.442
2976.184
2973.683
2968.338
2959.947
2949.32
2937.45
2925.16
2914.609
2909.236
2910.309
2913.819
2916.12
2916.128
2913.79
2909.301
2902.829
2894.785
2887.125
2884.122
2889.556
2900.239
2909.08
2916.673
2923.151
2925.333
2922.178
2914.81
2906.12
2899.534
2900.555
2909.055
2906.55
2900.032
2891.612
2876.844
2860.566
2846.017
2836.146
2832.192
2833.408
2837.557
2840.425
2839.98
2836.753
2832.177
2829.847
2832.134
2839.688
2855.823
2872.352
2876.062
2876.707
2869.566
2855.542
2839.98
2828.961
2825.119
2827.254
2832.626
2836.582
2836.676
2834.834
2832.536
2833.061
2838.729
2850.09
2863.014
2873.886
2879.8
2881.674
2881.821
2880.858
2883.405
2891.083
2900.713
2908.679
2913.694
2917.28
2918.232
2919.184
2924.307
2934.879
2950.149
2964.047
2973.576
2984.786
2994.356
3005.321
3020.668
3039.564
3058.548
3074.253
3089.452
3102.352
3110.104
3117.666
3128.315
3141.049
3158.449
3180.788
3200.14
3219.02
3240.112
3263.556
3288.952
3314.957
3341.94
3370.587
3399.456
3430.779
3465.267
3501.141
3536.946
3573.474
3609.898
3644.788
3677.762
3707.046
3729.919
3753.456
3780.65
3810.51
3852.346
3908.615
3976.779
4054.389
4139.169
4227.783
4316.425
4400.494
4474.621
4534.25
4576.539
4599.489
4601.218
4581.497
4543.528
4492.909
4437.318
4384.901
4341.296
4310.295
4294.839
4295.958
4313.558
4346.42
4392.002
4447.677
4511.521
4582.334
4659.535
4743.249
4833.335
4928.885
5028.231
5129.116
5228.755
5324.217
5412.907
5492.644
5561.588
5618.359
5661.617
5690.109
5703.536
5702.728
5688.24
5661.784
5625.912
5584.545
5542.126
5502.668
5469.504
5445.279
5432.716
5434.355
5450.961
5481.22
5523.475
5575.421
5634.717
5699.414
5767.636
5837.207
5906.021
5972.381
6035.213
6094.077
6148.929
6199.999
6247.762
6292.774
6335.505
6376.264
6415.22
6452.449
6487.966
6521.803
6554.034
6584.729
6613.927
6641.673
6668.04
6693.121
6717.013
6739.81
6761.598
6782.449
6802.416
6821.535
6839.833
6857.341
6874.085
6890.089
6905.373
6919.963
6933.884
6947.151
6959.772
6971.751
6983.097
6993.834
7003.977
7013.519
7023.081
7031.061
7038.831
7046.133
7052.899
7059.092
7064.663
7069.57
7073.777
7077.254
7079.977
7081.947
7083.19
7083.768
7083.765
7083.293
7082.481
7081.441
7080.286
7079.128
7078.043
7077.092
7076.326
7075.787
7075.516
7075.566
7076.002
7076.896
7078.324
7080.345
7082.986
7086.218
7089.955
7094.081
7098.487
7103.081
7107.782
7112.527
7117.263
7121.929
7126.476
7130.865
7135.029
7138.897
7142.403
7145.496
7148.143
7150.341
7152.119
7153.533
7154.646
7155.521
7156.208
7156.745
7157.172
7157.55
7157.94
7158.41
7159.059
7159.997
7161.334
7163.168
7165.562
7168.517
7171.994
7175.955
7180.319
7184.97
7189.796
7194.687
7199.521
7204.264
7208.837
7213.166
7217.115
7220.577
7223.502
7225.933
7227.663
7228.715
7229.134
7228.985
7228.308
7227.077
7225.263
7222.889
7219.971
7216.62
7212.962
7209.055
7205.005
7200.987
7197.199
7193.855
7191.245
7189.648
7189.221
7190.149
7192.508
7196.317
7201.472
7207.772
7214.936
7222.623
7230.453
7238.046
7245.053
7251.229
7256.427
7260.554
7263.558
7265.429
7266.224
7266.028
7264.91
7262.907
7260.219
7257.103
7253.51
7249.432
7245
7240.297
7235.423
7230.432
7225.398
7220.348
7215.255
7210.079
7204.817
7199.494
7194.153
7188.869
7183.723
7178.814
7173.893
7169.81
7166.398
7163.887
7160.592
4891.794
4858.29
4789.452
4738.8
4689.725
4644.336
4602.083
4562.218
4523.898
4486.701
4450.489
4413.369
4375.546
4336.648
4296.633
4255.188
4212.187
4167.475
4120.901
4072.904
4024.884
3976.027
3926.57
3876.711
3826.156
3774.746
3723.24
3672.566
3623.704
3578.246
3538.004
3504.243
3477.762
3459.472
3450.496
3451.816
3464.713
3490.204
3529.661
3583.794
3653.334
3738.783
3840.354
3957.896
4090.898
4238.453
4399.267
4571.835
4753.738
4942.131
5135.1
5331.108
5529.435
5728.085
5923.763
6113.2
6292.372
6456.87
6602.853
6727.347
6827.659
6901.847
6948.789
6968.209
6960.388
6925.841
6865.823
6782.014
6677.158
6555.008
6418.814
6273.128
6120.928
5964.645
5806.989
5648.27
5488.376
5328.35
5168.792
5011.993
4861.778
4720.581
4589.916
4469.786
4358.833
4255.249
4157.286
4063.728
3974.239
3889.049
3809.183
3736.492
3673.345
3619.745
3572.681
3530.222