/*--------------------------------*- C++ -*----------------------------------*\
| =========                 |                                                 |
| \\      /  F ield         | foam-extend: Open Source CFD                    |
|  \\    /   O peration     | Version:     3.1                                |
|   \\  /    A nd           | Web:         http://www.extend-project.de       |
|    \\/     M anipulation  |                                                 |
\*---------------------------------------------------------------------------*/
FoamFile
{
    version     2.0;
    format      ascii;
    class       surfaceScalarField;
    location    "19.5";
    object      phi;
}
// * * * * * * * * * * * * * * * * * * * * * * * * * * * * * * * * * * * * * //

dimensions      [0 3 -1 0 0 0 0];

internalField   nonuniform List<scalar> 
275122
(
-0.0004114522
0.0004174178
-4.020684e-07
-5.56354e-06
-0.0003687024
0.0003516645
1.410487e-06
1.562738e-05
-0.0003660378
0.0003755305
-3.972758e-07
-9.095475e-06
-0.00040744
0.0004184512
-4.837554e-07
-1.052746e-05
-0.0004459254
0.000449217
-5.622817e-07
-2.729303e-06
-0.0004493275
0.0004486607
-4.955096e-07
1.162272e-06
-0.0004448077
0.0004433156
-4.617075e-07
1.953778e-06
-0.0004382275
0.0004363631
-4.353896e-07
2.299843e-06
-0.0004304466
0.0004283949
-4.132805e-07
2.464914e-06
-0.0004220909
0.0004199437
-3.90845e-07
2.538033e-06
-0.0004133898
0.0004111688
-3.66886e-07
2.587897e-06
-0.0004044166
0.0004021395
-3.421144e-07
2.61924e-06
-0.0003952454
0.0003929298
-3.172314e-07
2.632866e-06
-0.000385937
0.0003835922
-2.92087e-07
2.636912e-06
-0.0003765302
0.0003741846
-2.874999e-07
2.633068e-06
-0.0003671037
0.0003647524
-2.692559e-07
2.620549e-06
-0.000357689
0.0003553386
-2.32803e-07
2.583144e-06
-0.0003483463
0.0003460778
-2.163682e-07
2.48489e-06
-0.0003397288
0.0003379112
-2.671012e-07
2.084703e-06
-0.0003341542
0.00033457
-6.727642e-07
2.569411e-07
-0.0003709383
0.0003855873
-1.348979e-06
-1.330005e-05
-0.0003896007
0.0003894314
-2.926567e-07
4.6191e-07
-0.0003931573
0.0003953761
-1.651988e-07
-2.053651e-06
-0.0004382955
0.0004541941
3.365394e-07
-1.62352e-05
-0.0004565887
0.0004558494
6.557177e-07
8.361234e-08
-0.0004582813
0.0004590381
-2.99127e-07
-4.577219e-07
-0.0004590675
0.000458038
-2.673482e-07
1.29682e-06
-0.0004533674
0.0004494054
-2.289976e-07
4.191081e-06
-0.0004231829
0.0003955451
-3.053419e-07
2.794309e-05
-0.0002484549
0.0002550443
5.056302e-09
-6.594511e-06
-0.0002692032
0.0002829863
-7.198277e-08
-1.371112e-05
-0.000322342
0.000335408
7.642945e-09
-1.307364e-05
-0.0003753169
0.0003888327
8.686408e-09
-1.352456e-05
-0.0004297808
0.0004436058
9.714812e-09
-1.383469e-05
-0.0004858183
0.0005000353
1.063378e-08
-1.422767e-05
-0.0005434803
0.0005581087
7.088584e-09
-1.463541e-05
-0.0006024936
0.000617445
9.730659e-09
-1.496105e-05
-0.0006625412
0.0006776693
8.686645e-09
-1.513682e-05
-0.0007231707
0.0007384257
9.144194e-09
-1.526417e-05
-0.0007837618
0.0008003037
2.369632e-07
-1.677892e-05
1.320806e-05
-0.0005433422
0.0005454895
1.03159e-09
-1.535638e-05
1.349648e-05
-0.0005519792
0.000553988
-4.762225e-10
-1.550477e-05
1.373161e-05
-0.0005596475
0.0005614705
-1.319334e-09
-1.555322e-05
1.4113e-05
-0.0005665145
0.0005680674
-1.581169e-09
-1.566432e-05
1.451392e-05
-0.0005722881
0.0005735452
-1.734266e-09
-1.576929e-05
1.481788e-05
-0.0005770326
0.0005780755
-1.124114e-09
-1.585973e-05
1.504432e-05
-0.000581015
0.0005819081
-1.109635e-09
-1.59363e-05
1.519964e-05
-0.0005844305
0.000585252
-1.091996e-09
-1.602007e-05
1.573261e-05
-0.0005874935
0.0005872344
-7.502717e-10
-1.54727e-05
1.394854e-05
-0.002391421
0.002400911
-6.821229e-11
-6.577618e-05
1.424355e-05
1.390645e-05
1.418735e-05
1.487299e-05
-0.002408138
0.002414165
-1.917356e-11
-6.656455e-05
1.542748e-05
1.484441e-05
1.539238e-05
1.5268e-05
-0.0024191
0.00242373
-1.226014e-10
-6.619697e-05
1.554024e-05
1.524006e-05
1.551893e-05
1.541898e-05
-0.002428549
0.002433288
-3.600538e-12
-6.662874e-05
1.555287e-05
1.539179e-05
1.55264e-05
1.547158e-05
-0.002437949
0.002442527
-1.07739e-10
-6.684047e-05
1.568298e-05
1.544782e-05
1.566016e-05
1.572337e-05
-0.002446744
0.002450814
-2.574337e-11
-6.715398e-05
1.584506e-05
1.569747e-05
1.58188e-05
1.58095e-05
-0.00245483
0.002458503
6.642107e-11
-6.699559e-05
1.587552e-05
1.578513e-05
1.585257e-05
1.582012e-05
-0.002462219
0.00246568
-4.900046e-11
-6.667408e-05
1.580728e-05
1.57976e-05
1.578781e-05
1.576329e-05
-0.00246961
0.002473228
-5.502525e-11
-6.663629e-05
1.577293e-05
1.573411e-05
1.574799e-05
1.515883e-05
-0.002473136
0.00247737
3.738192e-11
-6.516904e-05
1.532781e-05
1.513179e-05
1.531601e-05
1.600824e-05
-0.002481623
0.002484358
2.682267e-11
-6.697278e-05
1.61191e-05
1.600083e-05
1.61091e-05
1.595236e-05
-0.002486459
0.002488349
1.655233e-11
-6.542378e-05
1.58205e-05
1.594592e-05
1.581474e-05
1.585129e-05
-0.002490372
0.002492464
3.70627e-11
-6.52851e-05
1.575193e-05
1.584367e-05
1.574571e-05
1.585868e-05
-0.002494525
0.002496472
2.096775e-11
-6.524521e-05
1.579668e-05
1.58501e-05
1.579268e-05
1.589434e-05
-0.002498381
0.002500241
1.851441e-11
-6.531528e-05
1.584301e-05
1.587934e-05
1.583857e-05
1.596918e-05
-0.002502036
0.002503782
3.620577e-11
-6.544903e-05
1.591452e-05
1.592169e-05
1.58975e-05
1.625971e-05
-0.002505475
0.002507382
4.349708e-11
-6.650018e-05
1.622802e-05
1.603548e-05
1.607008e-05
1.761852e-05
-0.002508609
0.002507187
2.949824e-11
-6.762879e-05
1.791363e-05
1.663822e-05
1.688015e-05
2.224007e-05
-0.002501312
0.002486629
1.198542e-11
-6.978901e-05
2.367695e-05
1.955515e-05
1.899948e-05
2.961024e-05
-0.002467223
0.002490342
6.75244e-12
-5.27289e-05
2.19495e-05
-0.002512391
0.002515526
8.533053e-12
-2.508521e-05
4.283444e-05
-0.002508698
0.002505576
1.598663e-11
-3.971264e-05
3.726171e-05
-0.002503546
0.002502102
1.870579e-11
-3.581713e-05
2.114937e-05
-0.002500149
0.002502262
1.929052e-11
-2.326215e-05
5.608558e-06
-0.002507486
0.002512907
1.879523e-11
-1.102882e-05
8.745852e-07
-0.002517262
0.002521119
2.085764e-11
-4.731279e-06
-2.089483e-06
-0.002524933
0.002528357
2.296427e-11
-1.33385e-06
-3.936492e-06
-0.002531483
0.002534246
2.205728e-11
1.173763e-06
-5.409142e-06
-0.002536809
0.002539043
1.781936e-11
3.174959e-06
-6.434513e-06
-0.002541105
0.002542922
1.069883e-11
4.617489e-06
-7.123726e-06
-0.002544621
0.002546183
3.712931e-12
5.561706e-06
-7.57091e-06
-0.002547671
0.002549099
-7.745442e-12
6.143402e-06
-7.851229e-06
-0.002550474
0.002551836
-1.805675e-11
6.489059e-06
-8.013945e-06
-0.002553143
0.002554477
-1.421308e-11
6.679916e-06
-8.038718e-06
-0.002555747
0.002557095
-2.00056e-11
6.690739e-06
-7.761475e-06
-0.002558376
0.00255979
-1.762477e-11
6.347316e-06
-6.793194e-06
-0.002561122
0.002562626
7.955014e-12
5.289131e-06
-4.386567e-06
-0.002563969
0.002565405
5.685834e-12
2.950664e-06
1.476231e-06
-0.002566605
0.00256685
8.254572e-12
-1.721245e-06
1.164844e-05
-0.002561885
0.002557936
8.988821e-12
-7.699699e-06
5.38535e-06
-0.002559827
0.002562144
5.618826e-12
-7.701954e-06
1.76488e-05
-0.002562846
0.002560687
8.971699e-12
-1.548913e-05
4.268911e-05
-0.00254476
0.002527398
1.128744e-11
-2.532681e-05
1.231926e-05
-0.002519171
0.002518966
1.122039e-11
-1.211369e-05
-3.014007e-06
-0.002519226
0.002516384
1.273325e-11
5.856136e-06
-1.550886e-05
-0.002511501
0.002508597
1.488775e-11
1.841305e-05
-3.71916e-05
-0.002506705
0.002507869
1.396936e-11
3.602808e-05
-9.182316e-05
-0.002510156
0.002540429
1.010733e-11
6.155038e-05
-2.01482e-05
-0.002576471
0.002575621
7.854817e-12
6.681122e-05
-1.305846e-05
-1.999407e-05
-1.276082e-05
-6.978781e-06
-0.002565883
0.002563702
8.761515e-12
3.011708e-05
-7.353173e-06
-6.635046e-06
-6.96983e-06
-6.501468e-06
-0.002565405
0.0025651
5.691381e-12
2.507222e-05
-6.16316e-06
-6.218193e-06
-5.884304e-06
-4.794674e-06
-0.002562297
0.002559173
2.226018e-12
2.132605e-05
-4.536792e-06
-4.557931e-06
-4.312908e-06
-4.165473e-06
-0.002556479
0.002554353
-1.812944e-12
1.83373e-05
-4.13311e-06
-3.970685e-06
-3.94265e-06
-3.975903e-06
-0.002552556
0.002550862
-6.685074e-12
1.71779e-05
-3.934486e-06
-3.80556e-06
-3.767095e-06
-3.774199e-06
-0.002549135
0.002547428
-1.181274e-11
1.641555e-05
-3.730617e-06
-3.621259e-06
-3.582323e-06
-3.639542e-06
-0.002545737
0.0025441
-1.776032e-11
1.588519e-05
-3.616466e-06
-3.505652e-06
-3.486468e-06
-3.562085e-06
-0.002542469
0.002540877
-2.437142e-11
1.557582e-05
-3.546113e-06
-3.444361e-06
-3.431379e-06
-3.496459e-06
-0.002539282
0.002537731
-3.024325e-11
1.530282e-05
-3.481589e-06
-3.392981e-06
-3.380956e-06
-3.433047e-06
-0.002536198
0.002534724
-3.414464e-11
1.500245e-05
-3.420269e-06
-3.342796e-06
-3.332626e-06
-3.375702e-06
-0.002533282
0.002531895
-3.57444e-11
1.47142e-05
-3.36506e-06
-3.297136e-06
-3.288725e-06
-3.328981e-06
-0.002530535
0.002529215
-3.528269e-11
1.448544e-05
-3.320967e-06
-3.260492e-06
-3.254301e-06
-3.295731e-06
-0.002527913
0.002526632
-3.364029e-11
1.433509e-05
-3.29018e-06
-3.236052e-06
-3.232092e-06
-3.273949e-06
-0.002525361
0.002524099
-3.179432e-11
1.424747e-05
-3.270199e-06
-3.22204e-06
-3.219655e-06
-3.260074e-06
-0.002522843
0.002521591
-3.016656e-11
1.419792e-05
-3.257561e-06
-3.215107e-06
-3.213719e-06
-3.250541e-06
-0.002520345
0.002519107
-2.847027e-11
1.41598e-05
-3.248605e-06
-3.211479e-06
-3.210504e-06
-3.242525e-06
-0.002517878
0.002516664
-2.581939e-11
1.411388e-05
-3.241021e-06
-3.208472e-06
-3.207754e-06
-3.236172e-06
-0.002515465
0.002514284
-2.17677e-11
1.406535e-05
-3.235452e-06
-3.206504e-06
-3.206393e-06
-3.235065e-06
-0.002513119
0.002511964
-1.633952e-11
1.404424e-05
-3.235734e-06
-3.209116e-06
-3.210236e-06
-3.24293e-06
-0.002510819
0.002509668
-1.036607e-11
1.408208e-05
-3.245301e-06
-3.22012e-06
-3.222816e-06
-3.261226e-06
-0.002508513
0.002507332
-4.74541e-12
1.419391e-05
-3.265188e-06
-3.241135e-06
-3.245366e-06
-3.289306e-06
-0.002506132
0.002504886
-3.914723e-13
1.437888e-05
-3.294526e-06
-3.271705e-06
-3.277169e-06
-3.32421e-06
-0.002503608
0.002502271
3.13075e-12
1.461412e-05
-3.329897e-06
-3.308524e-06
-3.314365e-06
-3.359554e-06
-0.002500897
0.002499467
4.517072e-12
1.48498e-05
-3.364751e-06
-3.345171e-06
-3.350543e-06
-3.38916e-06
0.002496505
4.60445e-12
1.504063e-05
-3.393296e-06
-3.37627e-06
-3.380551e-06
-0.002498006
-3.411292e-06
-0.002494983
0.002493436
4.791494e-12
1.517664e-05
-3.414563e-06
-3.399982e-06
-3.403497e-06
-3.429528e-06
-0.002491875
0.002490294
4.684891e-12
1.528627e-05
-3.432707e-06
-3.419662e-06
-3.423058e-06
-3.449172e-06
-0.002488699
0.002487075
4.91079e-12
1.541045e-05
-3.453101e-06
-3.440379e-06
-3.444369e-06
-3.474536e-06
-0.00248543
0.002483741
4.7067e-12
1.558181e-05
-3.479473e-06
-3.466643e-06
-3.471662e-06
-3.506357e-06
-0.002482017
0.002480232
3.970936e-12
1.580772e-05
-3.511949e-06
-3.499343e-06
-3.505033e-06
-3.540948e-06
-0.002478403
0.002476505
2.780558e-12
1.606017e-05
-3.546265e-06
-3.53479e-06
-3.540212e-06
-3.571234e-06
-0.002474562
0.002472561
1.162242e-12
1.628399e-05
-3.57521e-06
-3.565907e-06
-3.569992e-06
-3.591257e-06
-0.002470526
0.002468453
-1.538813e-12
1.643314e-05
-3.593408e-06
-3.586689e-06
-3.588931e-06
-3.600013e-06
-0.002466363
0.002464256
-4.102373e-12
1.650034e-05
-3.600635e-06
-3.596089e-06
-3.596781e-06
-3.601289e-06
-0.002462145
0.002460027
-6.125481e-12
1.651627e-05
-3.601134e-06
-3.597916e-06
-3.597823e-06
-3.600643e-06
-0.002457908
0.002455779
-7.50257e-12
1.6525e-05
-3.600411e-06
-3.597782e-06
-3.597618e-06
-3.60209e-06
-0.002453645
0.002451491
-8.612708e-12
1.655758e-05
-3.60214e-06
-3.599732e-06
-3.599846e-06
-3.606956e-06
-0.002449323
0.002447126
-9.809942e-12
1.662202e-05
-3.607383e-06
-3.605071e-06
-3.605544e-06
-3.614856e-06
-0.002444907
0.002442654
-1.126344e-11
1.671172e-05
-3.615702e-06
-3.613358e-06
-3.61423e-06
-3.625208e-06
-0.002440373
0.002438056
-1.291307e-11
1.681748e-05
-3.626644e-06
-3.623974e-06
-3.625386e-06
-3.638309e-06
-0.002435708
0.002433323
-1.497603e-11
1.694146e-05
-3.640698e-06
-3.637301e-06
-3.63961e-06
-3.655231e-06
-0.002430897
0.00242843
-1.707213e-11
1.709496e-05
-3.658861e-06
-3.654657e-06
-3.658351e-06
-3.676617e-06
-0.002425909
0.002423337
-1.836925e-11
1.728914e-05
-3.681752e-06
-3.676467e-06
-3.681645e-06
-3.700771e-06
-0.002420695
0.002417997
-1.974404e-11
1.751514e-05
-3.707638e-06
-3.700748e-06
-3.707505e-06
-3.723977e-06
-0.002415215
0.002412377
-2.100702e-11
1.775153e-05
-3.732476e-06
-3.724063e-06
-3.732473e-06
-3.740202e-06
-0.00240945
0.002406489
-2.594585e-11
1.794273e-05
-3.750392e-06
-3.740448e-06
-3.750651e-06
-3.738251e-06
-0.002403475
0.002400479
-3.455714e-11
1.796709e-05
-3.747129e-06
-3.7386e-06
-3.747487e-06
-3.63735e-06
-0.00239742
0.002394231
-3.388854e-11
1.771189e-05
-3.623072e-06
-3.638183e-06
-3.624216e-06
-3.336318e-06
-0.002390665
0.002386035
1.493941e-11
1.724859e-05
-2.97194e-06
-3.334381e-06
-2.976016e-06
-2.797532e-06
-0.002382293
0.002377132
1.145456e-12
1.653375e-05
-2.895658e-06
-2.790937e-06
-2.889496e-06
-3.858004e-06
-0.002374022
0.002370742
-5.934682e-12
1.867903e-05
-3.84999e-06
-3.850497e-06
-3.840766e-06
-3.777988e-06
-0.002367075
0.002363053
-8.290641e-12
1.898005e-05
-3.709198e-06
-3.770037e-06
-3.701795e-06
-3.802558e-06
-0.002359019
0.002354983
-9.862693e-12
1.926116e-05
-3.817104e-06
-3.795598e-06
-3.809656e-06
-3.871184e-06
-0.002350897
0.002346686
-1.127958e-11
1.96733e-05
-3.867918e-06
-3.862824e-06
-3.860915e-06
-3.889735e-06
-0.002342375
0.002337955
-1.225106e-11
1.995302e-05
-3.884246e-06
-3.882e-06
-3.876916e-06
-3.901029e-06
-0.002333467
0.002328902
-1.395009e-11
2.014967e-05
-3.898076e-06
-3.894319e-06
-3.891759e-06
-3.908743e-06
-0.002324283
0.002319583
-1.591956e-11
2.031596e-05
-3.905113e-06
-3.902707e-06
-3.899197e-06
-3.90496e-06
-0.002314831
0.002310015
-1.83605e-11
2.04173e-05
-3.901129e-06
-3.899308e-06
-3.895559e-06
-3.896247e-06
-0.002305151
0.002300226
-2.108083e-11
2.049169e-05
-3.892181e-06
-3.890981e-06
-3.887034e-06
-3.884604e-06
-0.002295258
0.002290244
-2.391799e-11
2.053609e-05
-3.881683e-06
-3.879687e-06
-3.876898e-06
-3.877394e-06
-0.002285193
0.002280102
-2.657712e-11
2.058779e-05
-3.876066e-06
-3.872556e-06
-3.871472e-06
-3.880042e-06
-0.002274972
0.002269806
-2.869246e-11
2.06796e-05
-3.881171e-06
-3.875364e-06
-3.876664e-06
-3.90106e-06
-0.002264593
0.002259328
-3.050892e-11
2.08704e-05
-3.906233e-06
-3.896424e-06
-3.901721e-06
-3.945959e-06
-0.002253996
0.002248582
-3.197088e-11
2.120822e-05
-3.955582e-06
-3.941405e-06
-3.951035e-06
-4.014646e-06
-0.002243073
0.002237447
-3.292366e-11
2.170295e-05
-4.027867e-06
-4.010262e-06
-4.023376e-06
-4.100354e-06
-0.002231698
0.0022258
-3.320605e-11
2.232055e-05
-4.115917e-06
-4.095877e-06
-4.11119e-06
-4.1887e-06
-0.002219761
0.002213563
-3.284469e-11
2.297267e-05
-4.20334e-06
-4.184204e-06
-4.198647e-06
-4.258832e-06
-0.002207219
0.002200728
-3.205452e-11
2.353824e-05
-4.269169e-06
-4.25461e-06
-4.264783e-06
-4.29024e-06
-0.002194108
0.002187384
-3.082043e-11
2.388225e-05
-4.293331e-06
-4.286148e-06
-4.28891e-06
-4.265338e-06
-0.002180573
0.002173731
-2.932146e-11
2.38825e-05
-4.258035e-06
-4.262115e-06
-4.254889e-06
-4.170352e-06
-0.00216686
0.002160043
-2.736912e-11
2.345178e-05
-4.149704e-06
-4.167012e-06
-4.147458e-06
-3.995811e-06
-0.002153274
0.002146685
-2.54626e-11
2.249632e-05
-3.960031e-06
-3.992946e-06
-3.958465e-06
-3.739863e-06
-0.002140248
0.002134135
-2.490104e-11
2.097452e-05
-3.692329e-06
-3.738643e-06
-3.691274e-06
-3.409905e-06
-0.002128292
0.002122921
-2.51188e-11
1.889594e-05
-3.353289e-06
-3.409263e-06
-3.352664e-06
-3.018493e-06
0.002113575
-2.482798e-11
1.631262e-05
-0.002117942
-2.954656e-06
-3.018766e-06
-2.95365e-06
-2.607466e-06
-0.002109743
0.002106667
-2.444946e-11
1.336472e-05
-2.534793e-06
-2.609474e-06
-2.53735e-06
-2.150853e-06
-0.002104168
0.002102447
-2.367975e-11
1.019633e-05
-2.084788e-06
-2.153055e-06
-2.086532e-06
-1.763354e-06
-0.002101412
0.00210119
-2.20581e-11
7.172746e-06
-1.710959e-06
-1.764223e-06
-1.711984e-06
-1.447303e-06
-0.002101697
0.002102963
-1.99897e-11
4.442125e-06
-1.406345e-06
-1.447677e-06
-1.406765e-06
-1.210386e-06
-0.002104944
0.002107569
-1.718807e-11
2.160096e-06
-1.182174e-06
-1.210242e-06
-1.182131e-06
-1.076353e-06
-0.002110815
0.002114507
-1.257492e-11
5.850019e-07
-1.062411e-06
-1.076427e-06
-1.062251e-06
-1.050748e-06
-0.002118685
0.002123114
-7.194287e-12
-2.284668e-07
-1.050196e-06
-1.05041e-06
-1.049623e-06
-1.146156e-06
-0.002127878
0.002132566
-2.127785e-12
-7.427569e-08
-1.161606e-06
-1.145479e-06
-1.160711e-06
-1.353639e-06
-0.002137382
0.002141935
4.621228e-12
9.079067e-07
-1.377932e-06
-1.352549e-06
-1.376688e-06
-1.644427e-06
-0.002146294
0.00215009
1.241262e-11
2.879045e-06
-1.694307e-06
-1.643045e-06
-1.693031e-06
-2.059129e-06
-0.002153419
0.002155935
2.22515e-11
5.849956e-06
-2.125976e-06
-2.056859e-06
-2.123617e-06
-2.629411e-06
-0.002157887
0.002158857
3.305501e-11
9.67461e-06
-2.695868e-06
-2.626554e-06
-2.692975e-06
-3.227485e-06
-0.002159014
0.002158031
4.300193e-11
1.403897e-05
-3.304366e-06
-3.223727e-06
-3.300482e-06
-3.840583e-06
-0.00215608
0.002152943
5.264947e-11
1.8647e-05
-3.919628e-06
-3.835814e-06
-3.91465e-06
-4.438631e-06
-0.002148755
0.002143362
6.1768e-11
2.329175e-05
-4.516676e-06
-4.432845e-06
-4.510714e-06
-4.99466e-06
-0.002136876
0.002129311
6.96247e-11
2.767514e-05
-5.067438e-06
-4.987928e-06
-5.060882e-06
-5.480246e-06
-0.002120642
0.002110956
7.555623e-11
3.172754e-05
-5.547558e-06
-5.473413e-06
-5.541001e-06
-5.866846e-06
-0.002100148
0.002088572
7.86172e-11
3.514076e-05
-5.921751e-06
-5.860771e-06
-5.915475e-06
-6.107354e-06
-0.002075825
0.002062414
7.531428e-11
3.78949e-05
-6.139571e-06
-6.102982e-06
-6.134799e-06
-6.157532e-06
-0.00204776
0.002032786
6.380134e-11
3.959124e-05
-6.152837e-06
-6.156295e-06
-6.150681e-06
-5.986273e-06
-0.002016477
0.002000012
4.62229e-11
4.0309e-05
-5.934125e-06
-5.988156e-06
-5.935375e-06
-5.612818e-06
-0.001982272
0.001964916
2.371124e-11
3.961816e-05
-5.514331e-06
-5.614814e-06
-5.520424e-06
-5.067193e-06
-0.00194656
0.001929029
-2.223e-12
3.746801e-05
-4.900468e-06
-5.071612e-06
-4.898289e-06
-3.795681e-06
-0.001910032
0.001887051
-3.014134e-11
3.622037e-05
-2.833834e-06
-3.771725e-06
-2.837985e-06
-2.155814e-06
-0.0004643159
0.0004596668
-2.515718e-09
6.807416e-06
-3.688225e-06
-0.0004507181
0.0004477089
-2.406282e-09
6.69982e-06
-3.008843e-06
-0.0004392442
0.000436726
-1.232247e-09
5.52831e-06
-2.691715e-06
-0.0004300598
0.0004281291
-1.546275e-09
4.623979e-06
-2.201611e-06
-0.000423135
0.0004217386
-1.678524e-09
3.599693e-06
-1.673124e-06
-0.000418119
0.0004171701
-4.45472e-10
2.622474e-06
-1.378736e-06
-0.0004150837
0.0004146428
4.642351e-10
1.819128e-06
-1.089667e-06
-0.0004139498
0.0004139388
1.627257e-10
1.100544e-06
-7.942631e-07
-0.00041445
0.0004148098
-9.557576e-10
4.354496e-07
-5.156838e-07
-0.0004163405
0.0004170136
-1.597298e-09
-1.558372e-07
-2.943368e-07
-0.0004194207
0.0004203562
-1.256097e-09
-6.399439e-07
-1.567231e-07
-0.0004234796
0.0004246299
-6.50096e-10
-9.929641e-07
-8.82857e-08
-0.0004283458
0.0004296739
-5.23734e-10
-1.239326e-06
-4.855773e-09
-0.0004337943
0.0004352377
1.697279e-10
-1.438688e-06
-3.99528e-09
-0.00043966
0.0004411554
-1.896283e-11
-1.491359e-06
-2.070755e-07
-0.0004456928
0.0004472229
1.46414e-10
-1.323171e-06
-4.661823e-07
-0.0004517641
0.0004532399
2.900556e-10
-1.009995e-06
-7.734812e-07
-0.0004575202
0.0004588728
4.120156e-10
-5.795199e-07
-1.136857e-06
-0.0004626951
0.0004638696
4.852487e-10
-3.821083e-08
-1.555557e-06
-0.0004670112
0.0004679053
5.021543e-10
6.60969e-07
-1.987409e-06
-0.0004701793
0.0004707549
4.333883e-10
1.411378e-06
-2.411104e-06
-0.0004717972
0.0004719197
3.141859e-10
2.288353e-06
-3.066227e-06
-0.0004716666
0.0004713168
3.525094e-11
3.415976e-06
-3.807272e-06
-0.0004694706
0.0004685265
-1.650928e-10
4.751512e-06
-4.673373e-06
-0.0004647122
0.0004630386
2.379739e-11
6.346896e-06
-5.732831e-06
-0.0004567843
0.0004542041
1.603122e-09
8.311419e-06
-7.174395e-06
-0.0004448457
0.0004411254
6.444091e-09
1.08883e-05
-9.410335e-06
-0.0004279738
0.0004228609
1.601714e-08
1.450723e-05
-1.243309e-05
-0.0004062988
0.0004004693
7.701352e-09
1.825489e-05
-8.511236e-06
-0.0003818551
0.0003751508
-1.714319e-08
1.52327e-05
-2.992597e-06
-0.0003554477
0.0003494488
-8.833359e-09
9.000341e-06
-1.386334e-06
-0.000334275
0.0003300499
-3.045356e-09
5.614432e-06
-1.354773e-06
-0.000319563
0.0003165785
-2.694422e-09
4.341997e-06
-1.449384e-06
-0.0003090291
0.000306846
-2.985291e-09
3.635441e-06
-1.403603e-06
-0.0003013175
0.0002997149
-2.888905e-09
3.009131e-06
-2.663815e-07
-0.0002954275
0.0002936362
-2.304871e-09
2.059928e-06
3.311376e-07
-0.0002886725
0.0002871454
-1.647306e-09
1.197617e-06
3.687385e-07
-0.0002827014
0.0002813111
-9.494196e-10
1.022483e-06
4.265207e-07
-0.000277392
0.0002761884
-3.760037e-10
7.77516e-07
4.436502e-07
-0.0002728362
0.0002718141
2.345838e-10
5.782176e-07
3.972895e-07
-0.0002689531
0.0002680715
1.040666e-09
4.832927e-07
2.97574e-07
-0.0002655601
0.0002647671
1.954735e-09
4.934556e-07
1.737929e-07
-0.0002624593
0.0002617111
2.100795e-09
5.72297e-07
-2.553694e-08
-0.0002595589
0.0002589095
-3.230087e-09
6.7824e-07
5.321299e-07
-0.0002569582
0.0002563316
-2.066772e-09
9.655571e-08
9.088974e-07
-0.000254641
0.0002541377
-4.502244e-10
-4.051757e-07
1.141964e-06
-0.0002528755
0.0002524983
-6.389444e-11
-7.647382e-07
1.248693e-06
-0.000251473
0.0002511726
-2.824955e-10
-9.480247e-07
1.219254e-06
-0.0002503518
0.0002501083
-4.776433e-10
-9.752697e-07
1.14829e-06
-0.0002494344
0.0002492262
-5.677907e-10
-9.394338e-07
1.104224e-06
-0.0002486297
0.0002484379
-5.191724e-10
-9.118618e-07
1.098022e-06
-0.0002478882
0.0002477079
-3.59476e-10
-9.173165e-07
1.111226e-06
-0.0002471914
0.0002470296
-3.706786e-10
-9.490994e-07
1.14245e-06
-0.0002465776
0.0002464397
-3.855817e-10
-1.004248e-06
1.191679e-06
-0.0002460659
0.000245958
-3.074092e-10
-1.083412e-06
1.246336e-06
-0.000245685
0.0002456148
-2.431064e-10
-1.175842e-06
1.300363e-06
-0.0002454623
0.0002454347
-2.044784e-10
-1.272598e-06
1.355008e-06
-0.0002454161
0.0002454343
-1.804957e-10
-1.373049e-06
1.411896e-06
-0.0002455565
0.0002456246
-1.651691e-10
-1.479898e-06
1.474326e-06
-0.0002458979
0.0002460169
-1.517062e-10
-1.593209e-06
1.542872e-06
-0.0002464455
0.0002466178
-1.381387e-10
-1.714938e-06
1.612736e-06
-0.0002472063
0.0002474327
-1.082152e-10
-1.839038e-06
1.683891e-06
-0.0002481844
0.0002484658
-7.209258e-11
-1.965205e-06
1.755736e-06
-0.0002493798
0.0002497152
-3.873434e-11
-2.091149e-06
1.831497e-06
-0.0002507907
0.0002511808
-6.054596e-12
-2.221557e-06
1.911009e-06
-0.0002524195
0.0002528643
2.096693e-11
-2.355784e-06
1.994387e-06
-0.0002542638
0.0002547622
4.01546e-11
-2.49283e-06
2.086412e-06
-0.0002563059
0.0002568538
3.231569e-10
-2.634709e-06
2.146809e-06
-0.0002585067
0.0002591298
1.407654e-10
-2.770063e-06
2.296894e-06
-0.0002611161
0.0002617602
4.090837e-10
-2.941357e-06
2.822781e-06
-0.0002615082
0.001081167
-2.071289e-11
-1.403622e-05
7.068567e-07
2.827183e-06
6.74296e-07
-0.0002615126
-0.0002755694
-0.0002755715
1.724326e-06
-0.001090481
0.001097185
1.700333e-12
-1.454051e-05
2.215139e-06
1.701917e-06
2.195082e-06
2.116819e-06
-0.00110332
0.001109472
1.545369e-12
-1.48706e-05
2.259505e-06
2.09902e-06
2.242994e-06
2.282523e-06
-0.001115888
0.001122448
9.427141e-12
-1.583783e-05
2.371589e-06
2.267186e-06
2.356791e-06
2.470042e-06
-0.00112906
0.001135736
2.030895e-11
-1.665677e-05
2.534794e-06
2.455189e-06
2.520672e-06
2.597856e-06
-0.001142535
0.001149459
1.130776e-11
-1.736894e-05
2.637359e-06
2.584643e-06
2.624672e-06
2.707819e-06
-0.001156489
0.001163662
8.816965e-12
-1.80381e-05
2.735744e-06
2.696139e-06
2.724524e-06
2.807644e-06
-0.001170926
0.001178328
1.250417e-11
-1.865642e-05
2.829729e-06
2.797249e-06
2.819906e-06
2.896895e-06
-0.001185811
0.001193423
1.569844e-11
-1.921315e-05
2.912932e-06
2.887678e-06
2.90402e-06
2.974598e-06
-0.001201102
0.001208892
1.747917e-11
-1.969755e-05
2.986955e-06
2.966469e-06
2.978979e-06
3.040618e-06
-0.001216738
0.001224672
1.849761e-11
-2.01019e-05
3.050315e-06
3.033485e-06
3.043422e-06
3.095745e-06
-0.001232646
0.001240684
1.821462e-11
-2.042358e-05
3.103586e-06
3.089484e-06
3.097486e-06
3.140428e-06
-0.001248746
0.001256844
1.696995e-11
-2.066238e-05
3.146904e-06
3.134852e-06
3.141476e-06
3.175065e-06
-0.001264953
0.001273072
1.637563e-11
-2.081988e-05
3.180444e-06
3.170058e-06
3.17554e-06
3.200223e-06
-0.001281186
0.001289285
1.615773e-11
-2.089918e-05
3.204629e-06
3.19569e-06
3.200201e-06
3.216314e-06
-0.001297365
0.001305404
1.501014e-11
-2.090342e-05
3.219889e-06
3.212237e-06
3.215923e-06
3.223842e-06
-0.001313411
0.001321353
1.28901e-11
-2.083564e-05
3.226632e-06
3.220156e-06
3.223025e-06
3.222914e-06
-0.00132925
0.00133706
1.10421e-11
-2.069936e-05
3.224797e-06
3.219468e-06
3.221409e-06
3.213124e-06
-0.001344816
0.001352467
1.016708e-11
-2.049877e-05
3.214106e-06
3.209907e-06
3.210957e-06
3.195269e-06
-0.001360053
0.001367516
9.508153e-12
-2.023853e-05
3.195374e-06
3.192281e-06
3.192438e-06
3.169961e-06
-0.001374905
0.001382156
8.341365e-12
-1.992278e-05
3.169185e-06
3.167174e-06
3.166424e-06
3.137645e-06
-0.001389323
0.001396336
6.497042e-12
-1.955501e-05
3.13599e-06
3.135076e-06
3.133456e-06
3.098387e-06
-0.001403259
0.001410013
4.939211e-12
-1.913805e-05
3.095692e-06
3.096002e-06
3.093326e-06
3.051776e-06
-0.001416672
0.001423152
4.604227e-12
-1.86748e-05
3.047959e-06
3.049461e-06
3.045722e-06
2.99822e-06
-0.00142953
0.00143572
4.993714e-12
-1.816821e-05
2.99334e-06
2.995928e-06
2.991005e-06
2.938055e-06
-0.001441803
0.001447688
5.261335e-12
-1.762061e-05
2.93222e-06
2.935804e-06
2.929868e-06
2.871907e-06
-0.001453461
0.001459027
4.615454e-12
-1.703596e-05
2.865032e-06
2.869743e-06
2.862884e-06
2.800371e-06
-0.001464477
0.001469714
3.608117e-12
-1.641882e-05
2.792606e-06
2.798341e-06
2.790603e-06
2.724461e-06
-0.001474831
0.00147973
2.737409e-12
-1.577597e-05
2.716002e-06
2.722552e-06
2.714069e-06
2.645272e-06
-0.001484506
0.001489062
1.6201e-12
-1.51154e-05
2.636293e-06
2.64344e-06
2.63441e-06
2.564126e-06
-0.001493494
0.001497706
1.294303e-13
-1.444604e-05
2.554729e-06
2.562339e-06
2.552933e-06
2.482207e-06
-0.001501794
0.001505665
-7.314227e-13
-1.377688e-05
2.472566e-06
2.480504e-06
2.47089e-06
2.400471e-06
-0.001509413
0.001512949
-7.338006e-13
-1.311521e-05
2.39082e-06
2.398853e-06
2.389157e-06
2.319654e-06
-0.001516366
0.001519576
-8.676423e-13
-1.246628e-05
2.31e-06
2.318075e-06
2.30839e-06
2.240133e-06
-0.001522671
0.001525566
-1.783834e-12
-1.183356e-05
2.230519e-06
2.23864e-06
2.229007e-06
2.161797e-06
-0.00152835
0.001530943
-2.17212e-12
-1.121783e-05
2.152095e-06
2.160339e-06
2.150664e-06
2.083985e-06
-0.00153343
0.001535734
-2.45866e-12
-1.061672e-05
2.074106e-06
2.082551e-06
2.072656e-06
2.005464e-06
-0.001537936
0.001539962
-3.089123e-12
-1.002402e-05
1.995206e-06
2.004107e-06
1.993864e-06
1.924197e-06
-0.001541891
0.001543647
-3.76075e-12
-9.428806e-06
1.913114e-06
1.923037e-06
1.91196e-06
1.835851e-06
-0.001545313
0.001546814
-3.639716e-12
-8.81514e-06
1.82266e-06
1.834304e-06
1.821303e-06
1.739062e-06
-0.001548238
0.001549511
-3.247015e-12
-8.199412e-06
1.725744e-06
1.737727e-06
1.724401e-06
1.650929e-06
-0.001550702
0.001551724
-2.833863e-12
-7.602913e-06
1.640988e-06
1.649919e-06
1.639669e-06
1.5587e-06
-0.001552658
0.001553418
-2.417837e-12
-6.966264e-06
1.545176e-06
1.557589e-06
1.544059e-06
1.438743e-06
-0.001554091
0.001554572
-2.000291e-12
-6.21366e-06
1.428716e-06
1.437688e-06
1.427724e-06
1.260432e-06
-0.001554932
0.001555172
-1.352085e-12
-5.232577e-06
1.237177e-06
1.259368e-06
1.236164e-06
9.512089e-07
-0.001555527
0.001555941
-5.522937e-13
-3.948856e-06
8.170564e-07
9.502539e-07
8.162235e-07
5.915926e-07
-0.001556344
0.001556566
-3.17493e-13
-2.542285e-06
5.690286e-07
5.908805e-07
5.682611e-07
4.19046e-07
-0.001556664
0.001556595
-8.206167e-13
-1.577891e-06
4.048169e-07
4.185327e-07
4.04161e-07
2.542952e-07
-0.001556388
0.001556018
-1.627034e-12
-6.186905e-07
2.404304e-07
2.536211e-07
2.397719e-07
8.926769e-08
-0.001555485
0.001554733
-2.009592e-12
4.12109e-07
8.142178e-08
8.872613e-08
8.08569e-08
-8.008098e-08
-0.001553735
0.001552521
-2.396507e-12
1.529232e-06
-7.692744e-08
-8.050024e-08
-7.73609e-08
-2.685674e-07
-0.001550999
0.001549295
-2.675365e-12
2.696421e-06
-2.274019e-07
-2.687659e-07
-2.276875e-07
-4.475067e-07
-0.001547147
0.00154459
-4.521262e-12
4.200236e-06
-3.737286e-07
-4.476248e-07
-3.739335e-07
-1.022495e-06
-0.001541782
0.001540199
-5.058786e-12
4.931376e-06
-6.516478e-07
-1.02253e-06
-6.518029e-07
-7.538483e-07
-0.001539535
0.001533938
-3.038186e-12
8.490671e-06
-6.92751e-07
-7.553138e-07
-6.921967e-07
-1.201211e-06
-0.001528525
0.001524032
3.059045e-12
9.712792e-06
-1.412167e-06
-1.197262e-06
-1.4092e-06
-1.438598e-06
-0.001519361
0.001514291
7.223679e-12
1.099162e-05
-1.524459e-06
-1.43665e-06
-1.52223e-06
-1.598699e-06
-0.001508721
0.001502668
8.415213e-12
1.255161e-05
-1.652125e-06
-1.597184e-06
-1.650817e-06
-1.719653e-06
-0.001496157
0.001489207
7.304207e-12
1.391753e-05
-1.766561e-06
-1.71733e-06
-1.7643e-06
-1.843036e-06
-0.001481861
0.001474072
1.917254e-12
1.522226e-05
-1.875856e-06
-1.840766e-06
-1.873685e-06
-1.947869e-06
-0.001465881
0.001457268
-9.079709e-12
1.644883e-05
-1.972005e-06
-1.946285e-06
-1.969669e-06
-2.042094e-06
-0.001448281
0.001438903
-2.758667e-11
1.757972e-05
-2.060008e-06
-2.040936e-06
-2.058826e-06
-2.114693e-06
-0.001429191
0.001419096
-5.031544e-11
1.857336e-05
-2.125372e-06
-2.113868e-06
-2.124547e-06
-2.138022e-06
-0.00140871
0.00139797
-7.915077e-11
1.927649e-05
-2.13057e-06
-2.137586e-06
-2.130291e-06
-2.094533e-06
-0.001386955
0.00137567
-1.229485e-10
1.964212e-05
-2.084334e-06
-2.094087e-06
-2.08393e-06
-2.011999e-06
-0.001364206
0.001352579
-1.758801e-10
1.964221e-05
-1.996016e-06
-2.011311e-06
-1.995179e-06
-1.897953e-06
-0.001340878
0.001329102
-2.206414e-10
1.932526e-05
-1.878324e-06
-1.8965e-06
-1.876699e-06
-1.756609e-06
-0.001317349
0.001305612
-2.011115e-10
1.871557e-05
-1.734397e-06
-1.754747e-06
-1.732551e-06
-1.592663e-06
-0.001294015
0.00128257