/*--------------------------------*- C++ -*----------------------------------*\
| =========                 |                                                 |
| \\      /  F ield         | foam-extend: Open Source CFD                    |
|  \\    /   O peration     | Version:     3.1                                |
|   \\  /    A nd           | Web:         http://www.extend-project.de       |
|    \\/     M anipulation  |                                                 |
\*---------------------------------------------------------------------------*/
FoamFile
{
    version     2.0;
    format      ascii;
    class       volScalarField;
    location    "18.5";
    object      pd;
}
// * * * * * * * * * * * * * * * * * * * * * * * * * * * * * * * * * * * * * //

dimensions      [1 -1 -2 0 0 0 0];

internalField   nonuniform List<scalar> 
119952
(
5006.952
3242.32
2985.792
3217.299
3466.674
3233.163
3157.407
3094.9
3051.515
3016.398
2985.806
2959.035
2935.269
2913.834
2894.079
2873.984
2852.349
2827.894
2783.793
2656.92
3057.376
2816.645
2691.888
3237.811
3189.55
3221.872
3270.38
3409.132
3884.894
7063.569
3191.493
3128.487
3121.188
3107.098
3094.82
3081.281
3072.468
3065.447
3059.764
3026.386
3009.992
3021.72
3009.466
3001.218
2993.906
2988.786
2984.748
2980.822
2977.943
2995.762
2989.603
2964.618
2956.24
2954.562
2952.74
2952.443
2953.416
2953.341
2961.371
2956.294
2953.296
2962.307
2971.889
2981.921
2994.171
3008.916
3034.697
3123.91
3313.551
3156.555
3089.58
3180.047
3217.591
3184.152
3120.598
3074.463
3038.368
3005.758
2976.756
2951.462
2928.867
2908.217
2888.993
2870.55
2851.807
2831.943
2812.03
2799.207
2821.584
2847.764
2838.546
2957.469
3143.092
3180.173
3191.713
3204.602
3109.403
2768.258
2678.982
2757.424
2779.305
2797.822
2819.001
2834.991
2848.732
2861.936
2874.696
2887.218
2899.694
2912.375
2925.594
2939.663
2954.789
2971.048
2988.408
3006.789
3026.101
3046.322
3067.541
3089.928
3113.661
3138.864
3165.559
3193.648
3222.948
3253.249
3284.361
3316.175
3348.69
3381.98
3416.127
3451.174
3487.093
3523.781
3561.084
3598.844
3636.935
3675.292
3713.907
3752.813
3792.062
3831.708
3871.804
3912.344
3953.222
3994.772
4040.343
4095.237
4148.768
4192.375
4236.088
4281.788
4326.866
4370.707
4413.658
4455.379
4495.646
4534.498
4572.021
4608.405
4643.94
4678.939
4713.76
4748.779
4784.381
4820.901
4858.586
4897.596
4937.998
4979.769
5022.813
5066.982
5112.096
5157.967
5204.416
5251.29
5298.468
5345.871
5393.452
5441.177
5488.994
5536.826
5584.564
5632.096
5679.312
5726.114
5772.419
5818.069
5862.934
5906.913
5949.986
5992.107
6033.209
6073.221
6111.944
6149.28
6186.425
6226.192
6258.998
6291.712
6323.118
6353.414
6382.073
6409.089
6434.485
6458.172
6480.08
6500.11
6518.157
6534.142
6547.998
6559.692
6569.223
6576.634
6582.004
6585.46
6587.175
6587.367
6586.309
6584.158
6581.35
6578.12
6574.791
6571.669
6569.06
6567.308
6566.174
6565.677
6565.634
6565.659
6564.515
6558.773
6554.129
6587.83
6617.776
6643.963
6668.804
6693.205
6717.412
6741.526
6765.619
6789.708
6813.768
6837.786
6861.744
6885.641
6909.444
6933.154
6956.563
6980.239
7006.404
7009.167
6972.7
6987.075
7022.543
7049.037
7065.4
7073.715
7078.56
7083.779
7086.745
7086.091
7083.296
7080.154
7077.162
7074.926
7076.602
7105.002
7095.882
7092.072
7089.324
7080.149
7064.892
7044.78
7021.226
6997.02
6975.337
6959.353
6951.311
6953.263
6965.402
6987.182
7016.981
7052.59
7091.624
7131.841
7171.345
7208.717
7243.051
7273.872
7301.012
7324.492
7344.465
7361.178
7374.945
7386.127
7395.091
7402.177
7407.68
7411.845
7414.872
7416.918
7418.105
7418.529
7418.27
7417.395
7415.975
7414.089
7411.833
7409.342
7406.796
7404.255
7400.874
7395.433
7389.297
7383.678
7378.496
7373.406
7368.668
7364.008
7357.337
7342.963
7345.36
7343.685
7339.635
7336.024
7332.685
7329.418
7326.112
7322.829
7319.53
7316.166
7312.706
7309.1
7305.305
7301.291
7297.036
7292.53
7287.772
7282.772
7277.551
7272.133
7266.548
7260.829
7255.01
7249.125
7243.206
7237.284
7231.387
7225.544
7219.775
7214.108
7208.582
7203.227
7198.07
7193.087
7188.271
7183.612
7179.211
7174.948
7171.204
7166.22
7158.055
7150.07
7148.428
7149.354
7149.979
7147.954
7144.274
7139.878
7134.604
7128.151
7119.679
7109.961
7099.077
7088.024
7078.96
7072.933
7068.369
7063.452
7056.956
7048.657
7038.923
7028.14
7016.476
7004.167
6991.4
6978.274
6964.886
6951.384
6937.933
6924.694
6911.841
6899.573
6888.111
6877.687
6868.423
6860.494
6853.899
6848.635
6844.508
6841.071
6837.91
6835.985
6846.638
6895.818
6189.561
6033.721
5849.611
5674.099
5503.189
5338.095
5179.465
5027.171
4881.494
4734.458
4599.258
4482.44
4365.143
4258.49
4159.728
4068.67
3985.7
3905.148
3815.755
3773.518
3703.985
3637.138
3583.441
3535.402
3491.552
3451.939
3414.913
3382.303
3356.019
3313.761
3285.7
3261.966
3238.602
3218.253
3199.226
3181.182
3166.293
3159.621
3128.235
3105.819
3094.512
3083.991
3073.145
3063.641
3054.821
3046.455
3038.42
3023.545
3017.185
3011.17
3003.439
2995.811
2989.532
2984.413
2980.737
2985.236
2958.33
2954.859
2955.927
2955.543
2953.033
2950.409
2949.215
2949.439
2950.379
2950.675
2953.644
2959.333
2965.28
2972.334
2982.537
2998.014
3020.595
3053.138
3093.458
3127.025
3129.603
3113.526
3110.711
3110.656
3098.881
3073.11
3041.052
3009.822
2982.219
2958.024
2936.149
2916.186
2897.936
2881.357
2866.447
2853.434
2842.859
2837.154
2838.207
2850.221
2876.177
2915.597
2968.396
3029.109
3069.979
3073.938
3041.212
2972.232
2878.956
2808.717
2790.747
2800.328
2816.995
2831.814
2843.975
2855.231
2866.692
2878.589
2890.568
2902.541
2914.779
2927.699
2941.684
2956.946
2973.478
2991.177
3009.928
3029.506
3049.869
3071.187
3093.717
3117.725
3143.381
3170.662
3199.381
3229.275
3260.059
3291.483
3323.458
3356.061
3389.455
3423.787
3459.133
3495.462
3532.633
3570.427
3608.621
3647.055
3685.67
3724.476
3763.533
3802.921
3842.73
3883.136
3924.41
3966.987
4011.47
4058.153
4106.738
4155.875
4203.504
4250.262
4296.426
4341.764
4385.801
4428.481
4469.67
4509.177
4546.992
4583.284
4618.294
4652.374
4685.957
4719.476
4753.434
4788.379
4824.716
4862.65
4902.251
4943.487
4986.239
5030.328
5075.543
5121.67
5168.501
5215.851
5263.562
5311.518
5359.633
5407.849
5456.116
5504.388
5552.588
5600.641
5648.424
5695.859
5742.799
5789.189
5834.868
5879.753
5923.727
5966.754
6008.777
6049.792
6089.715
6128.76
6167.343
6206.892
6234.641
6270.822
6300.747
6330.515
6360.119
6387.971
6414.368
6438.961
6461.795
6482.817
6501.933
6519.044
6534.068
6546.952
6557.674
6566.249
6572.736
6577.237
6579.902
6580.926
6580.545
6579.01
6576.63
6573.719
6570.607
6567.53
6564.818
6562.72
6561.413
6561.095
6561.469
6562.674
6564.406
6566.767
6570.874
6580.766
6599.908
6625.398
6650.122
6674.388
6698.872
6723.217
6747.416
6771.524
6795.527
6819.371
6843.031
6866.455
6889.535
6912.271
6934.462
6955.686
6974.697
6990.578
6993.899
6990.671
7005.227
7027.591
7048.443
7064.7
7075.443
7082.196
7087.049
7090.263
7090.647
7088.45
7084.69
7080.718
7077.05
7077.971
7098.292
7107.432
7102.675
7095.752
7085.86
7069.723
7047.098
7020.459
6993.331
6969.223
6951.394
6942.592
6944.736
6957.664
6980.756
7011.968
7048.831
7088.833
7129.708
7169.5
7206.772
7240.769
7271.179
7297.945
7321.077
7340.705
7357.06
7370.475
7381.352
7390.075
7396.982
7402.363
7406.458
7409.46
7411.521
7412.761
7413.274
7413.134
7412.408
7411.158
7409.45
7407.351
7404.914
7402.146
7398.96
7395.198
7390.74
7385.78
7380.765
7375.876
7371.163
7366.579
7361.846
7356.078
7349.486
7344.338
7341.238
7338.356
7335.857
7332.78
7329.3
7325.877
7322.49
7319.053
7315.531
7311.889
7308.089
7304.096
7299.883
7295.434
7290.743
7285.814
7280.66
7275.304
7269.772
7264.095
7258.309
7252.444
7246.533
7240.604
7234.683
7228.792
7222.951
7217.178
7211.486
7205.889
7200.392
7194.997
7189.704
7184.482
7179.256
7174.145
7168.983
7163.276
7157.679
7151.584
7146.272
7142.237
7140.097
7138.202
7135.543
7132.163
7128.227
7123.392
7117.271
7110.066
7101.755
7093.517
7087.154
7083.58
7080.979
7076.163
7068.124
7058.442
7048.511
7038.333
7027.389
7015.617
7003.317
6990.582
6977.323
6963.722
6950.057
6936.495
6923.14
6910.153
6897.749
6886.153
6875.591
6866.238
6858.301
6851.764
6846.776
6843.283
6841.554
6842.118
6846.523
6856.878
6874.025
3675.631
3725.301
3797.72
3888.682
3997.117
4122.279
4263.383
4420.064
4591.241
4773.372
4966.194
5170.114
5379.19
5592.974
5809.407
6025.655
6236.743
6441.528
6637.705
6840.731
7005.526
7153.886
7280.938
7383.624
7460.194
7509.291
7529.831
7521.528
7489.698
7428.403
7342.029
7233.964
7107.611
6965.6
6810.806
6646.101
6474.709
6299.957
6111.434
5935.382
5759.112
5586.441
5418.911
5257.004
5101.685
4953.5
4813.295
4680.056
4550.203
4431.899
4320.374
4216.221
4120.276
4031.7
3950.695
3885.941
3771.384
3707.445
3654.975
3603.68
3553.908
3507.702
3465.872
3428.002
3393.271
3360.291
3328.873
3300.861
3274.793
3249.919
3226.981
3206.532
3188.142
3171.153
3154.694
3137.999
3122.297
3107.375
3093.026
3079.932
3068.672
3058.937
3049.927
3040.829
3031.285
3022.361
3013.839
3005.194
2997.207
2990.51
2984.946
2979.987
2974.681
2968.992
2962.668
2958.638
2955.708
2951.517
2947.179
2944.342
2943.338
2943.635
2944.538
2946.164
2948.738
2951.851
2956.253
2963.196
2973.969
2989.308
3008.368
3030.338
3053.911
3075.99
3085.23
3076.946
3066.952
3062.744
3055.554
3038.733
3014.508
2989.105
2965.8
2944.699
2925.22
2907.31
2891.111
2877.03
2865.332
2856.617
2850.876
2848.89
2851.696
2863.741
2884.536
2910.43
2943.39
2980.388
3005.715
3008.583
2987.827
2948.009
2892.893
2840.555
2815.052
2815.972
2827.693
2838.982
2848.667
2858.291
2868.537
2879.906
2891.117
2902.068
2913.377
2925.543
2939.052
2954.175
2970.782
2988.585
3007.524
3027.092
3047.26
3068.304
3090.566
3114.44
3140.193
3167.779
3196.927
3227.311
3258.528
3290.134
3322.023
3354.396
3387.555
3421.769
3457.198
3493.83
3531.471
3569.811
3608.488
3647.274
3686.096
3724.985
3764.031
3803.342
3843.06
3883.467
3924.952
3967.87
4012.446
4058.783
4106.862
4156.393
4206.031
4254.53
4301.657
4347.49
4391.874
4434.599
4475.486
4514.349
4551.176
4586.117
4619.423
4651.548
4683.095
4714.61
4746.783
4780.399
4815.973
4853.682
4893.503
4935.297
4978.837
5023.858
5070.086
5117.262
5165.147
5213.53
5262.232
5311.118
5360.091
5409.085
5458.051
5506.951
5555.731
5604.332
5652.65
5700.602
5748.061
5794.916
5841.054
5886.344
5930.756
5974.187
6016.636
6058.082
6098.486
6137.941
6176.177
6212.558
6245.998
6281.876
6316.532
6348.058
6376.788
6403.656
6429.435
6453.02
6474.981
6494.943
6512.83
6528.582
6542.125
6553.425
6562.482
6569.334
6574.068
6576.823
6577.788
6577.199
6575.333
6572.494
6569.001
6565.182
6561.373
6557.898
6555.039
6553.057
6552.199
6552.443
6554.314
6557.487
6562.229
6569.129
6578.996
6592.868
6611.24
6633.348
6657.321
6681.844
6706.427
6730.969
6755.443
6779.779
6803.877
6827.604
6850.825
6873.459
6895.389
6916.322
6935.969
6954.155
6969.611
6980.444
6990.065
6997.329
7008.09
7023.637
7038.178
7050.154
7059.981
7067.622
7073.297
7076.33
7077.737
7078.459
7077.881
7078.756
7083.158
7096.532
7116.176
7120.09
7114.705
7105.692
7093.386
7075.172
7050.353
7021.017
6990.701
6963.351
6942.664
6931.673
6932.111
6945.26
6969.034
7001.445
7039.714
7081.099
7123.135
7163.84
7201.833
7236.326
7266.993
7293.74
7316.754
7336.374
7352.746
7366.081
7376.84
7385.453
7392.269
7397.584
7401.638
7404.625
7406.7
7407.98
7408.558
7408.508
7407.891
7406.76
7405.168
7403.162
7400.774
7398.019
7394.895
7391.38
7387.448
7383.125
7378.622
7374.128
7369.755
7365.473
7361.408
7358.003
7355.161
7351.893
7347.622
7343.004
7338.599
7334.567
7330.754
7327.112
7323.548
7319.971
7316.317
7312.535
7308.586
7304.437
7300.065
7295.458
7290.613
7285.537
7280.247
7274.766
7269.124
7263.356
7257.498
7251.579
7245.632
7239.68
7233.743
7227.834
7221.97
7216.158
7210.404
7204.702
7199.04
7193.397
7187.765
7182.125
7176.354
7170.464
7164.528
7158.475
7152.189
7145.539
7139.503
7134.566
7130.741
7127.177
7123.351
7119.342
7115.228
7110.719
7105.649
7100.393
7095.433
7090.657
7085.117
7078.867
7073.531
7069.889
7067.207
7063.065
7054.816
7043.319
7030.647
7017.867
7005.057
6992.095
6978.767
6965.134
6951.504
6937.978
6924.521
6911.319
6898.662
6886.794
6875.962
6866.364
6858.201
6851.611
6846.731
6843.577
6842.536
6843.543
6847.608
6854.554
6867.49
3730.776
3688.144
3654.755
3622.22
3595.69
3579.632
3577.639
3593.621
3623.946
3634.227
3626.93
3636.899
3669.419
3721.261
3791.764
3880.003
3984.766
4105.697
4242.817
4393.038
4557.923
4735.296
4922.48
5118.781
5322.01
5529.948
5740.262
5950.41
6157.993
6360.527
6555.305
6774.989
6945.385
7089.584
7211.304
7309.28
7380.899
7424.601
7439.903
7427.512
7388.967
7324.309
7234.851
7123.711
6994.247
6849.614
6692.877
6526.863
6354.323
6177.944
6000.237
5823.819
5650.037
5480.348
5316.144
5158.234
5007.191
4863.186
4726.563
4597.035
4474.248
4358.951
4251.719
4152.529
4061.04
3976.493
3898.044
3824.164
3751.225
3688.064
3634.2
3583.027
3534.016
3489.132
3448.901
3412.569
3378.903
3347.355
3317.967
3290.02
3263.546
3239.391
3217.745
3198.447
3180.966
3164.44
3148.347
3132.893
3117.49
3101.732
3086.987
3074.195
3063.71
3054.744
3046.242
3037.609
3028.668
3019.226
3009.697
3000.943
2993.314
2987.053
2981.947
2977.339
2972.546
2967.526
2961.988
2956.165
2950.786
2945.738
2941.354
2939.384
2939.214
2939.758
2940.557
2941.475
2942.4
2943.833
2946.976
2952.782
2962.553
2975.857
2990.939
3006.198
3021.806
3035.278
3041.269
3037
3028.776
3022.314
3015.538
3004.044
2987.056
2967.856
2948.992
2930.86
2913.532
2897.359
2883.349
2871.757
2863.01
2857.301
2854.845
2855.199
2858.138
2866.713
2881.935
2900.093
2921.424
2943.384
2959.138
2963.114
2951.413
2926.107
2891.57
2857.354
2835.336
2830.208
2835.894
2843.579
2851.715
2860.464
2869.563
2880.304
2891.042
2900.658
2910.673
2921.786
2934.611
2949.513
2966.225
2984.156
3003.797
3023.303
3042.907
3063.318
3085.007
3108.642
3134.666
3162.885
3192.721
3223.733
3255.504
3287.257
3318.89
3350.834
3383.606
3417.594
3453.035
3489.966
3528.201
3567.293
3606.592
3645.788
3684.844
3723.794
3762.724
3801.745
3841.04
3881.032
3922.223
3965.008
4009.732
4056.691
4105.847
4156.631
4207.792
4258.079
4306.858
4353.884
4398.948
4441.847
4482.405
4520.466
4556.041
4589.261
4620.32
4649.679
4678.14
4706.436
4735.717
4767.181
4801.462
4838.676
4878.664
4921.099
4965.577
5011.709
5059.157
5107.624
5156.843
5206.567
5256.584
5306.726
5356.868
5406.932
5456.869
5506.659
5556.274
5605.684
5654.806
5703.555
5751.796
5799.419
5846.299
5892.342
5937.466
5981.631
6024.768
6066.906
6107.918
6147.793
6186.225
6223.4
6259.289
6294.575
6328.292
6359.47
6388.304
6415.316
6440.56
6464.467
6485.978
6505.224
6522.229
6536.922
6549.251
6559.201
6566.79
6572.072
6575.16
6576.23
6575.512
6573.286
6569.868
6565.604
6560.853
6555.978
6551.332
6547.258
6544.066
6542.059
6541.495
6542.525
6545.311
6549.937
6556.753
6566.028
6578.141
6593.411
6612.011
6633.726
6657.595
6682.421
6707.507
6732.617
6757.629
6782.401
6806.771
6830.557
6853.564
6875.654
6896.694
6916.424
6934.537
6950.942
6965.311
6976.718
6985.509
6993.313
7002.625
7013.939
7025.405
7035.14
7042.923
7049.402
7055.499
7060.634
7064.841
7068.896
7074.896
7081.078
7087.324
7091.713
7098.779
7107.805
7113.878
7112.522
7100.981
7080.344
7052.303
7019.414
6985.723
6955.724
6933.328
6921.569
6922.281
6935.943
6960.76
6994.743
7034.883
7078.099
7121.668
7163.561
7202.46
7237.537
7268.458
7294.96
7317.514
7336.585
7352.325
7365.094
7375.391
7383.614
7390.103
7395.145
7398.971
7401.77
7403.69
7404.844
7405.315
7405.174
7404.474
7403.261
7401.583
7399.487
7397.015
7394.202
7391.083
7387.672
7383.982
7380.039
7375.956
7371.861
7367.845
7363.919
7360.116
7356.252
7352.389
7348.386
7344.65
7341.289
7338.005
7334.768
7331.435
7328.073
7324.661
7321.156
7317.517
7313.707
7309.691
7305.439
7300.936
7296.177
7291.166
7285.917
7280.455
7274.809
7269.013
7263.105
7257.126
7251.11
7245.083
7239.072
7233.092
7227.148
7221.248
7215.389
7209.56
7203.747
7197.932
7192.082
7186.173
7180.221
7173.914
7167.335
7160.628
7153.721
7146.588
7139.465
7132.584
7126.443
7120.921
7115.756
7110.758
7105.937
7101.313
7096.768
7092.207
7087.597
7082.771
7077.638
7072.773
7069.021
7066.958
7065.206
7061.23
7054.936
7047.823
7040.507
7032.121
7020.935
7007.668
6993.679
6979.621
6965.712
6951.97
6938.377
6924.897
6911.677
6898.983
6887.084
6876.264
6866.736
6858.673
6852.176
6847.481
6844.615
6843.94
6845.058
6848.846
6854.35
6865.237
4254.692
4211.326
4168.805
4123.898
4075.198
4022.666
3973.312
3923.664
3874.866
3826.822
3780.156
3736.364
3694.354
3656.165
3623.176
3595.171
3573.302
3563.74
3563.253
3567.582
3572.948
3584.662
3608.87
3648.726
3705.244
3777.51
3866.264
3972.446
4094.975
4233.138
4385.857
4551.883
4730.08
4918.906
5116.365
5320.285
5528.415
5738.595
5949.116
6156.57
6356.305
6545.565
6713.398
6876.446
7019.268
7140.84
7238.626
7309.863
7352.932
7367.258
7353.221
7312.265
7245.76
7155.343
7043.689
6914.046
6769.587
6613.317
6448.024
6276.442
6101.132
5924.221
5748.54
5576.474
5409.11
5247.515
5092.208
4943.555
4801.932
4667.226
4539.419
4418.935
4306.407
4202.24
4106.386
4018.148
3936.708
3860.552
3789.492
3723.268
3662.629
3607.958
3557.694
3511.366
3469.463
3431.817
3397.537
3365.57
3335.3
3306.39
3278.659
3252.775
3229.614
3209.164
3191.161
3174.792
3159.097
3143.52
3127.848
3111.868
3096.429
3082.391
3069.492
3059.7
3051.882
3044.181
3035.893
3026.707
3016.692
3006.646
2997.628
2989.872
2983.764
2979.561
2975.932
2971.724
2966.47
2960.022
2952.707
2945.462
2940.351
2936.905
2935.213
2935.683
2936.21
2936.312
2935.824
2934.868
2934.204
2935.146
2938.681
2947.672
2958.929
2970.115
2981.1
2991.879
2999.378
3001.579
2997.82
2990.72
2983.672
2978.536
2971.998
2960.966
2946.976
2931.999
2916.098
2900.15
2885.181
2872.449
2863.715
2858.162
2855.319
2855.603
2857.5
2860.438
2865.812
2874.705
2885.926
2899.193
2912.932
2924.419
2929.93
2924.776
2908.846
2887.387
2864.538
2845.798
2839.216
2840.413
2845.053
2852.435
2862.094
2871.712
2880.447
2889.794
2898.144
2906.372
2916.036
2928.184
2943.245
2960.342
2978.191
2998.461
3018.281
3036.98
3056.285
3076.918
3099.999
3126.333
3155.528
3186.58
3218.882
3251.794
3283.446
3314.303
3345.268
3377.273
3411.007
3446.688
3484.115
3523.1
3563.222
3603.288
3642.908
3682.205
3721.224
3759.994
3798.507
3836.907
3875.91
3916.311
3958.697
4003.707
4051.839
4102.886
4155.859
4209.405
4262.256
4313.413
4362.214
4408.299
4451.52
4491.775
4528.926
4562.953
4593.87
4621.856
4647.49
4671.926
4695.522
4720.275
4748.546
4781.083
4817.765
4858.149
4901.577
4947.369
4994.981
5044.011
5094.135
5145.062
5196.508
5248.21
5299.953
5351.576
5402.983
5454.137
5505.051
5555.745
5606.22
5656.415
5706.231
5755.529
5804.179
5852.047
5899.033
5945.052
5990.082
6034.066
6077.023
6118.853
6159.536
6198.966
6237.219
6274.075
6309.426
6343.057
6374.697
6404.321
6431.918
6457.365
6480.64
6501.553
6520.109
6536.215
6549.78
6560.763
6569.157
6574.994
6578.356
6579.389
6578.315
6575.421
6571.048
6565.578
6559.406
6552.934
6546.551
6540.65
6535.62
6531.798
6529.503
6528.995
6530.44
6534.001
6539.903
6548.26
6559.304
6573.115
6589.805
6609.392
6631.629
6655.856
6681.224
6707.079
6733.046
6758.874
6784.335
6809.21
6833.272
6856.303
6878.131
6898.585
6917.422
6934.453
6949.588
6962.521
6972.943
6981.417
6988.826
6996.28
7004.059
7011.794
7018.441
7024.303
7030.017
7035.919
7041.695
7047.75
7054.239
7060.999
7067.029
7073.399
7081.105
7091.569
7101.634
7105.962
7102.9
7092.475
7075.183
7051.222
7021.286
6988.725
6958.596
6935.451
6922.916
6923.234
6936.302
6961.419
6995.988
7036.981
7081.116
7125.507
7167.986
7207.055
7241.912
7272.83
7298.974
7320.879
7338.861
7353.521
7365.51
7375.197
7382.902
7388.946
7393.603
7397.093
7399.599
7401.264
7402.188
7402.444
7402.103
7401.209
7399.802
7397.94
7395.676
7393.064
7390.158
7387.01
7383.663
7380.153
7376.513
7372.806
7369.108
7365.479
7361.931
7358.459
7355.043
7351.733
7348.611
7345.529
7342.409
7339.313
7336.207
7333.018
7329.807
7326.514
7323.078
7319.455
7315.607
7311.5
7307.112
7302.434
7297.471
7292.236
7286.752
7281.051
7275.173
7269.162
7263.069
7256.939
7250.795
7244.668
7238.583
7232.547
7226.557
7220.598
7214.67
7208.769
7202.861
7196.904
7190.803
7184.569
7178.401
7171.648
7164.284
7156.812
7149.172
7141.224
7133.168
7125.299
7117.75
7110.751
7104.16
7097.937
7092.101
7086.672
7081.543
7076.539
7071.686
7067.265
7063.512
7060.395
7057.775
7055.505
7053.252
7050.349
7047.02
7042.721
7035.922
7026.815
7016.698
7006.334
6995.297
6982.46
6968.416
6954.049
6939.853
6926.106
6912.882
6900.284
6888.52
6877.847
6868.468
6860.587
6854.248
6849.885
6847.215
6846.654
6847.54
6850.934
6855.154
6864.259
4683.43
4634.472
4589.089
4545.178
4505.722
4460.741
4421.483
4382.049
4341.82
4300.478
4258.768
4216.607
4172.114
4126.924
4078.717
4023.395
3973.997
3924.897
3876.05
3827.794
3780.504
3735.082
3691.876
3651.742
3615.584
3584.522
3559.372
3541.949
3531.903
3528.411
3531.852
3544.941
3569.954
3608.998
3663.544
3734.913
3822.794
3927.102
4047.683
4183.949
4334.89
4499.216
4675.47
4862.05
5057.221
5258.82
5464.486
5671.604
5877.858
6081.222
6278.361
6466.838
6641.46
6801.928
6942.869
7061.471
7155.237
7221.995
7260.368
7269.881
7250.989
7205.121
7134.271
7040.677
6927.056
6796.517
6652.064
6496.586
6332.637
6162.691
5989.487
5815.068
5642.097
5473.385
5310.234
5153.316
5003.31
4859.947
4722.692
4591.473
4466.815
4349.83
4241.133
4141.053
4049.624
3966.033
3889.108
3817.572
3750.96
3688.635
3630.231
3576.4
3527.626
3484.121
3445.663
3411.169
3379.422
3349.456
3320.451
3292.127
3264.858
3239.895
3218.298
3198.834
3182.177
3167.48
3152.973
3137.869
3121.879
3105.104
3088.734
3075.226
3063.696
3054.708
3048.587
3042.095
3034.274
3024.803
3014.021
3002.921
2992.491
2984.844
2980.02
2976.971
2974.766
2971.159
2965.476
2957.967
2949.393
2940.605
2934.185
2931.243
2930.524
2931.437
2931.923
2931.208
2929.17
2926.049
2922.604
2920.253
2920.938
2929.018
2940.326
2947.877
2956.025
2963.515
2966.638
2964.986
2959.151
2951.366
2944.281
2943.274
2941.23
2934.258
2925.358
2914.519
2900.448
2885.3
2871.049
2859.155
2852.695
2850.405
2851.27
2854.299
2857.352
2859.605
2861.545
2864.605
2869.609
2876.711
2885.109
2896.633
2905.359
2903.094
2894.514
2881.246
2863.977
2848.424
2841.145
2839.736
2843.586
2852.149
2863.02
2873.089
2880.721
2888.229
2894.597
2900.433
2907.962
2919.147
2934.698
2953.813
2973.57
2992.129
3010.992
3029.079
3046.73
3065.707
3088.188
3115.488
3146.287
3178.265
3211.666
3247.631
3279.23
3308.596
3337.792
3368.175
3401.04
3436.969
3475.396
3515.707
3557.539
3598.448
3638.53
3678.193
3717.32
3755.805
3793.452
3830.235
3867.494
3906.502
3947.994
3993.092
4042.796
4096.792
4153.375
4210.696
4267.256
4321.666
4372.856
4420.354
4464.114
4504.136
4540.341
4572.76
4601.144
4625.056
4645.372
4663.505
4681.086
4699.571
4723.263
4753.454
4789.748
4831.108
4876.182
4923.814
4973.319
5024.309
5076.475
5129.512
5183.085
5236.864
5290.566
5343.981
5396.993
5449.587
5501.828
5553.811
5605.592
5657.128
5708.298
5758.933
5808.866
5857.941
5906.045
5953.106
5999.114
6044.064
6087.984
6130.846
6172.625
6213.236
6252.582
6290.438
6326.663
6361.16
6393.739
6424.152
6452.189
6477.78
6500.954
6521.588
6539.522
6554.707
6567.077
6576.578
6583.19
6586.944
6587.929
6586.353
6582.516
6576.79
6569.596
6561.411
6552.709
6543.957
6535.59
6528.017
6521.653
6516.857
6513.996
6513.354
6515.126
6519.471
6526.506
6536.287
6548.922
6564.405
6582.689
6603.646
6626.986
6652.192
6678.626
6705.691
6732.919
6759.942
6786.448
6812.155
6836.806
6860.151
6881.98
6902.102
6920.318
6936.446
6950.307
6961.658
6970.729
6978.512
6984.351
6988.86
6993.235
6997.487
7001.147
7004.649
7008.511
7013.213
7018.863
7025.48
7032.872
7041.123
7050.179
7060.102
7070.428
7080.326
7087.911
7091.74
7091.401
7085.447
7072.432
7052.521
7027.158
6999.218
6972.91
6952.21
6940.851
6941.319
6954.148
6978.449
7011.99
7051.714
7094.544
7137.64
7178.839
7216.722
7250.266
7279.457
7304.337
7324.943
7341.784
7355.569
7366.841
7375.888
7383.028
7388.57
7392.774
7395.846
7397.961
7399.272
7399.877
7399.814
7399.176
7397.992
7396.291
7394.141
7391.636
7388.849
7385.827
7382.63
7379.337
7375.997
7372.634
7369.278
7365.968
7362.744
7359.621
7356.606
7353.71
7350.939
7348.267
7345.609
7342.933
7340.266
7337.536
7334.808
7331.882
7328.793
7325.494
7321.927
7318.054
7313.853
7309.315
7304.444
7299.247
7293.749
7287.982
7281.992
7275.831
7269.552
7263.202
7256.829
7250.486
7244.221
7238.043
7231.946
7225.913
7219.931
7213.982
7208.047
7202.081
7196.044
7189.882
7183.489
7176.8
7169.675
7161.793
7153.516
7145.039
7136.164
7127.075
7118.001
7109.175
7100.701
7092.73
7085.262
7078.236
7071.774
7066.02
7060.809
7056.115
7052.19
7048.91
7046.067
7043.674
7041.791
7040.381
7038.966
7037.08
7033.95
7029.035
7022.836
7015.498
7006.082
6994.845
6982.703
6970.223
6957.532
6944.432
6931.007
6917.719
6904.977
6893.118
6882.431
6873.089
6865.361
6859.321
6855.092
6852.442
6851.765
6852.163
6854.878
6857.835
6864.883
4909.984
4892.089
4845.408
4786.827
4728.493
4676.113
4628.055
4583.919
4542.979
4502.105
4457.016
4418.28
4379.583
4340.156
4299.668
4258.082
4215.246
4170.785
4124.783
4077.966
4031.255
3982.627
3933.615
3884.439
3835.488
3787.05
3739.49
3692.91
3648.171
3606.553
3569.376
3538.675
3514.819
3498.72
3491.411
3493.493
3506.632
3532.322
3571.717
3626.116
3696.278
3782.606
3885.195
4003.899
4138.187
4287.123
4449.46
4623.774
4808.166
5000.804
5199.332
5400.429
5602.935
5804.567
6003.505
6197.539
6382.468
6553.831
6708.399
6843.153
6954.833
7040.917
7099.676
7130.114
7131.987
7105.915
7053.466
6976.988
6879.211
6763.019
6631.61
6487.762
6334.098
6172.995
6006.342
5836.992
5667.125
5498.78
5334.485
5176.428
5026.139
4883.726
4747.841
4617.268
4492.388
4373.782
4262.232
4158.637
4063.911
3978.551
3901.363
3830.515
3764.748
3703.044
3644.534
3588.971
3537.223
3490.526
3450
3415.519
3385.274
3357.042
3329.755
3302.404
3274.836
3247.573
3221.607
3201.327
3186.015
3171.261
3158.817
3145.98
3131.415
3115.202
3097.781
3080.213
3065.439
3055.805
3049.365
3045.183
3040.2
3032.879
3022.863
3010.747
2997.92
2985.968
2977.908
2974.715
2974.325
2974.202
2971.33
2964.991
2956.005
2945.61
2934.761
2925.724
2922.207
2924.084
2926.799
2927.669
2926.195
2922.373
2916.447
2909.046
2902.286
2900.326
2907.582
2920.085
2927.337
2933.335
2937.902
2936.86
2930.268
2920.098
2910.173
2904.069
2906.288
2912.238
2909.703
2904.947
2897.534
2884.402
2868.627
2853.445
2842.316
2838.206
2838.646
2845.018
2851.981
2856.455
2857.555
2854.989
2851.724
2850.859
2853.566
2859.778
2872.896
2886.216
2888.293
2886.088
2876.866
2862.375
2847.68
2837.69
2834.361
2838.744
2849.956
2862.98
2874.09
2881.997
2887.582
2890.517
2892.276
2896.457
2906.756
2924.116
2945.976
2967.998
2985.28
3003.071
3019.83
3034.706
3050.365
3071.576
3101.257
3135.932
3171.593
3206.696
3243.007
3274.323
3301.406
3328.074
3356.562
3388.62
3424.635
3463.4
3505.069
3551.055
3592.766
3633.08
3673.59
3713.413
3751.779
3787.988
3821.605
3855.655
3892.175
3932.003
3976.98
4028.85
4087.131
4148.944
4211.596
4273.268
4332.121
4386.52
4435.871
4480.324
4520.145
4555.53
4586.472
4611.921
4632.227
4646.768
4654.193
4660.184
4670.501
4688.625
4716.123
4752.571
4796.005
4843.88
4894.22
4946.169
4999.497
5054.072
5109.654
5165.833
5222.157
5278.232
5333.769
5388.635
5442.857
5496.592
5550.05
5603.376
5656.548
5709.396
5761.688
5813.196
5863.725
5913.14
5961.379
6008.463
6054.457
6099.449
6143.481
6186.532
6228.502
6269.234
6308.522
6346.183
6382.017
6415.75
6447.11
6475.921
6502.093
6525.542
6546.064
6563.502
6577.779
6588.852
6596.657
6601.195
6602.529
6600.7
6595.961
6588.71
6579.45
6568.729
6557.122
6545.193
6533.486
6522.526
6512.818
6504.82
6498.889
6495.383
6494.559
6496.57
6501.564
6509.701
6520.953
6535.293
6552.63
6572.795
6595.511
6620.438
6647.154
6675.137
6703.83
6732.705
6761.292
6789.189
6816.059
6841.609
6865.569
6887.697
6907.756
6925.501
6940.765
6953.492
6963.681
6971.51
6977.284
6980.434
6981.819
6982.747
6983.138
6983.063
6983.271
6984.642
6987.869
6993.251
7000.798
7010.283
7021.254
7032.823
7044.154
7054.823
7064.666
7073.143
7079.381
7081.907
7079.022
7070.124
7056.096
7037.772
7017.169
6998.323
6983.221
6975.386
6977.276
6989.763
7012.356
7043.36
7079.8
7118.961
7158.381
7196.103
7230.838
7261.744
7288.212
7311.041
7330.117
7345.895
7358.802
7369.251
7377.564
7384.057
7389.02
7392.7
7395.286
7396.932
7397.789
7397.98
7397.468
7396.428
7394.816
7392.588
7390.011
7387.299
7384.36
7381.162
7377.878
7374.632
7371.471
7368.392
7365.387
7362.471
7359.672
7357.015
7354.488
7352.113
7349.87
7347.722
7345.622
7343.531
7341.411
7339.206
7336.871
7334.331
7331.508
7328.382
7324.913
7321.051
7316.77
7312.065
7306.946
7301.44
7295.594
7289.469
7283.119
7276.606
7269.992
7263.342
7256.721
7250.174
7243.746
7237.457
7231.299
7225.237
7219.239
7213.275
7207.324
7201.351
7195.326
7189.152
7182.664
7175.68
7168.22
7159.984
7151.062
7141.674
7131.815
7121.618
7111.287
7101.043
7091.125
7081.755
7072.951
7064.066
7057.11
7051.495
7046.209
7041.28
7036.948
7033.325
7030.665
7028.982
7028.253
7027.962
7027.453
7026.597
7025.078
7022.54
7018.562
7012.965
7005.421
6996.445
6986.772
6976.001
6963.688
6951.042
6938.389
6925.868
6913.801
6902.522
6892.314
6883.313
6875.749
6869.74
6865.384
6862.489
6861.432
6861.3
6862.995
6864.805
6868.897
4894.665
4861.676
4793.704
4743.622
4695.109
4650.229
4608.444
4569.008
4531.096
4494.299
4458.463
4421.707
4384.242
4345.7
4306.038
4264.946
4222.294
4177.923
4131.675
4083.981
4036.224
3987.58
3938.321
3888.646
3838.293
3787.087
3735.731
3685.168
3636.369
3590.87
3550.504
3516.589
3489.902
3471.344
3462.043
3462.992
3475.459
3500.507
3539.419
3592.972
3661.886
3746.667
3847.534
3964.345
4096.603
4243.399
4403.459
4575.26
4756.448
4944.171
5136.389
5331.639
5529.074
5726.802
5921.52
6110.042
6288.401
6452.287
6597.993
6722.627
6823.422
6898.24
6945.786
6965.546
6957.622
6922.839
6862.926
6780.293
6678.106
6559.401
6427.352
6285.134
6134.995
5978.895
5818.565
5654.984
5490.082
5326.975
5168.198
5016.547
4874.367
4741.108
4614.741
4493.597
4377.224
4265.903
4160.47
4062.202
3972.952
3894.905
3825.996
3762.658
3703.741
3647.691
3593.404
3540.781
3491.008
3446.323
3410.499
3381.397