/*--------------------------------*- C++ -*----------------------------------*\
| =========                 |                                                 |
| \\      /  F ield         | foam-extend: Open Source CFD                    |
|  \\    /   O peration     | Version:     3.1                                |
|   \\  /    A nd           | Web:         http://www.extend-project.de       |
|    \\/     M anipulation  |                                                 |
\*---------------------------------------------------------------------------*/
FoamFile
{
    version     2.0;
    format      ascii;
    class       surfaceScalarField;
    location    "18.5";
    object      phi;
}
// * * * * * * * * * * * * * * * * * * * * * * * * * * * * * * * * * * * * * //

dimensions      [0 3 -1 0 0 0 0];

internalField   nonuniform List<scalar> 
275122
(
-0.0004107224
0.0004164996
-4.158275e-07
-5.361326e-06
-0.0003678143
0.000350646
1.41046e-06
1.575787e-05
-0.0003650485
0.0003745023
-3.953794e-07
-9.058416e-06
-0.0004062968
0.0004172699
-4.807322e-07
-1.04923e-05
-0.0004446678
0.0004479312
-5.602857e-07
-2.703123e-06
-0.0004480326
0.0004473692
-4.925113e-07
1.155885e-06
-0.0004435381
0.000442055
-4.596214e-07
1.942688e-06
-0.0004370023
0.0004351525
-4.33237e-07
2.282997e-06
-0.0004292866
0.0004272534
-4.110762e-07
2.444312e-06
-0.0004210064
0.0004188785
-3.886293e-07
2.51653e-06
-0.0004123805
0.000410177
-3.647103e-07
2.568179e-06
-0.0004034726
0.0004012096
-3.40011e-07
2.603096e-06
-0.000394352
0.0003920465
-3.152445e-07
2.620746e-06
-0.0003850806
0.0003827444
-2.904222e-07
2.626649e-06
-0.0003757061
0.0003733561
-2.793594e-07
2.629339e-06
-0.0003662998
0.0003639598
-2.676757e-07
2.607743e-06
-0.0003569044
0.0003545631
-2.27902e-07
2.569256e-06
-0.0003476045
0.0003453448
-2.137005e-07
2.473392e-06
-0.0003390169
0.0003372042
-2.632594e-07
2.075917e-06
-0.0003334542
0.0003338719
-6.746786e-07
2.570518e-07
-0.0003702404
0.000384805
-1.33772e-06
-1.322685e-05
-0.0003887942
0.0003886261
-2.92008e-07
4.601772e-07
-0.0003923459
0.000394511
-1.66126e-07
-1.999049e-06
-0.0004374312
0.0004532462
3.369852e-07
-1.615199e-05
-0.0004556104
0.0004548488
6.495685e-07
1.12031e-07
-0.0004573195
0.0004580829
-3.020705e-07
-4.613194e-07
-0.0004581286
0.0004571199
-2.697802e-07
1.27856e-06
-0.0004525295
0.0004486048
-2.289604e-07
4.153565e-06
-0.0004225054
0.0003949099
-3.027178e-07
2.789815e-05
-0.0001584988
0.0001630999
4.618631e-09
-4.605733e-06
-0.0002686211
0.0002823767
-7.180409e-08
-1.368386e-05
-0.0003216547
0.0003346843
7.631254e-09
-1.303718e-05
-0.0003744711
0.0003879441
8.660133e-09
-1.348167e-05
-0.0004287573
0.0004425331
9.616817e-09
-1.378547e-05
-0.0004846036
0.0004987683
9.677502e-09
-1.417438e-05
-0.0005420686
0.0005566846
8.174111e-09
-1.462413e-05
-0.0006009733
0.0006159063
9.47695e-09
-1.494256e-05
-0.0006609234
0.0006760185
1.253165e-08
-1.510762e-05
-0.0007214313
0.0007366537
9.295384e-09
-1.523169e-05
-0.0007818612
0.0007983061
2.362381e-07
-1.668111e-05
1.316213e-05
-0.0005420588
0.0005441818
9.844508e-10
-1.528609e-05
1.34439e-05
-0.0005505835
0.000552557
-3.451966e-10
-1.541703e-05
1.370062e-05
-0.0005581106
0.0005598797
-1.276566e-09
-1.546844e-05
1.404966e-05
-0.0005648351
0.0005663579
-1.469508e-09
-1.557102e-05
1.445414e-05
-0.0005705017
0.0005717381
-1.635882e-09
-1.568892e-05
1.476695e-05
-0.0005751829
0.0005762213
-1.226689e-09
-1.580411e-05
1.500466e-05
-0.000579165
0.0005800634
-1.449002e-09
-1.59016e-05
1.516718e-05
-0.0005826151
0.0005834512
-1.214129e-09
-1.600203e-05
1.566076e-05
-0.0005857424
0.0005855094
-8.094578e-10
-1.54269e-05
1.39658e-05
-0.002384694
0.002393991
-9.072281e-11
-6.560242e-05
1.423272e-05
1.392667e-05
1.418001e-05
1.482018e-05
-0.00240121
0.002407193
-1.371155e-10
-6.631035e-05
1.537516e-05
1.479205e-05
1.534029e-05
1.520807e-05
-0.002412092
0.002416632
-5.039037e-10
-6.587318e-05
1.548691e-05
1.517702e-05
1.546122e-05
1.535436e-05
-0.002421332
0.002425913
-2.418438e-10
-6.621752e-05
1.549102e-05
1.532664e-05
1.546496e-05
1.541049e-05
-0.002430415
0.002434846
-1.493921e-11
-6.643786e-05
1.562098e-05
1.53804e-05
1.559529e-05
1.566584e-05
-0.002438955
0.002442936
4.535361e-11
-6.683985e-05
1.578838e-05
1.564062e-05
1.576386e-05
1.57759e-05
-0.002446892
0.002450565
4.308446e-11
-6.686429e-05
1.584385e-05
1.575111e-05
1.582054e-05
1.58052e-05
-0.00245433
0.002457882
4.094014e-11
-6.670352e-05
1.579517e-05
1.578203e-05
1.576845e-05
1.576126e-05
-0.002461957
0.00246581
5.213205e-10
-6.682783e-05
1.575356e-05
1.573212e-05
1.572717e-05
1.521837e-05
-0.002465785
0.002470025
1.704275e-10
-6.531912e-05
1.53402e-05
1.519119e-05
1.532889e-05
1.59735e-05
-0.002474502
0.002477475
5.389665e-11
-6.712052e-05
1.610879e-05
1.596587e-05
1.609854e-05
1.593936e-05
-0.002479732
0.002481719
6.993687e-12
-6.547394e-05
1.580995e-05
1.593293e-05
1.580417e-05
1.582438e-05
-0.002483808
0.002485928
-3.018645e-11
-6.520267e-05
1.572376e-05
1.581689e-05
1.571786e-05
1.581915e-05
-0.002487994
0.002489928
-4.527111e-11
-6.50727e-05
1.575613e-05
1.58107e-05
1.575222e-05
1.584735e-05
-0.00249182
0.002493665
-6.066046e-11
-6.511205e-05
1.579598e-05
1.583258e-05
1.579167e-05
1.592148e-05
-0.002495444
0.002497193
-5.978338e-11
-6.526388e-05
1.586767e-05
1.587481e-05
1.585107e-05
1.621324e-05
-0.002498888
0.002500822
-4.346953e-11
-6.635072e-05
1.618295e-05
1.599284e-05
1.602805e-05
1.757299e-05
-0.002502085
0.002500693
-2.654164e-11
-6.749336e-05
1.786728e-05
1.660078e-05
1.684361e-05
2.217496e-05
-0.002494848
0.002480242
-1.593825e-11
-6.960273e-05
2.358327e-05
1.950815e-05
1.894198e-05
2.977089e-05
-0.002460997
0.002483852
-5.877231e-12
-5.262615e-05
2.164698e-05
-0.002506107
0.002509298
-9.303874e-13
-2.483736e-05
4.260942e-05
-0.002502392
0.002499208
-1.406787e-12
-3.942547e-05
3.699528e-05
-0.002497139
0.00249563
-4.075751e-12
-3.548623e-05
2.095357e-05
-0.002493523
0.002495459
-4.691358e-12
-2.288969e-05
5.427605e-06
-0.002500543
0.002505852
-2.144329e-12
-1.073661e-05
8.198307e-07
-0.00251011
0.002513894
5.55599e-12
-4.603075e-06
-2.037732e-06
-0.002517652
0.002521048
1.423493e-11
-1.357916e-06
-3.813876e-06
-0.002524161
0.002526932
2.111684e-11
1.04247e-06
-5.274403e-06
-0.002529511
0.002531762
2.411758e-11
3.022878e-06
-6.335571e-06
-0.002533838
0.002535648
2.406747e-11
4.525781e-06
-7.088871e-06
-0.002537325
0.002538835
2.506991e-11
5.57902e-06
-7.591427e-06
-0.002540253
0.002541591
3.295969e-11
6.253208e-06
-7.880116e-06
-0.00254287
0.002544144
4.660635e-11
6.606008e-06
-7.998947e-06
-0.002545373
0.002546656
4.336546e-11
6.715666e-06
-7.950206e-06
-0.0025479
0.002549264
2.051105e-12
6.586098e-06
-7.602557e-06
-0.002550596
0.002552097
1.932546e-12
6.10199e-06
-6.606934e-06
-0.002553548
0.002555184
1.696648e-11
4.971367e-06
-4.227512e-06
-0.002556663
0.002558231
2.076991e-11
2.659035e-06
1.528401e-06
-0.002559567
0.002559925
2.712465e-12
-1.886507e-06
1.166726e-05
-0.00255507
0.002551056
-3.944949e-12
-7.652896e-06
5.218198e-06
-0.002552921
0.002555148
-9.544556e-12
-7.445298e-06
1.72845e-05
-0.002555704
0.002553465
-1.466852e-11
-1.50461e-05
4.258613e-05
-0.00253754
0.002519912
-1.723701e-11
-2.495839e-05
1.217889e-05
-0.00251151
0.002511107
-2.52215e-11
-1.177503e-05
-3.15075e-06
-0.002511306
0.002508406
-2.836909e-11
6.050338e-06
-1.548791e-05
-0.002503432
0.002500491
-2.239606e-11
1.84285e-05
-3.707423e-05
-0.002498609
0.002499827
-1.205582e-11
3.585672e-05
-9.126731e-05
-0.002502037
0.00253199
-3.153856e-12
6.131472e-05
-2.02735e-05
-0.002568123
0.002567395
1.153979e-12
6.69123e-05
-1.304072e-05
-2.0124e-05
-1.274593e-05
-6.972772e-06
-0.002557433
0.002555069
-1.332654e-14
3.030551e-05
-7.362465e-06
-6.628306e-06
-6.978325e-06
-6.520878e-06
-0.002556505
0.002555884
-2.931884e-12
2.547867e-05
-6.187035e-06
-6.239272e-06
-5.910582e-06
-4.837695e-06
-0.002552794
0.002549395
-8.200177e-12
2.17791e-05
-4.580619e-06
-4.602863e-06
-4.358863e-06
-4.205742e-06
-0.002546436
0.002544087
-1.240582e-11
1.872137e-05
-4.170941e-06
-4.012964e-06
-3.983015e-06
-3.985584e-06
-0.002542108
0.002540318
-1.384456e-11
1.730421e-05
-3.939102e-06
-3.816427e-06
-3.773184e-06
-3.751577e-06
-0.002538566
0.002536913
-1.241754e-11
1.627171e-05
-3.705248e-06
-3.601715e-06
-3.560109e-06
-3.608112e-06
-0.002535321
0.002533805
-9.355963e-12
1.564824e-05
-3.586766e-06
-3.477366e-06
-3.459591e-06
-3.550766e-06
-0.002532301
0.002530803
-5.663826e-12
1.545373e-05
-3.540536e-06
-3.435845e-06
-3.428287e-06
-3.530578e-06
-0.002529273
0.002527707
-2.434763e-12
1.547704e-05
-3.524911e-06
-3.429556e-06
-3.426313e-06
-3.531004e-06
-0.002526101
0.002524442
-3.260754e-14
1.56045e-05
-3.528877e-06
-3.442701e-06
-3.442804e-06
-3.540901e-06
-0.002522742
0.002520992
1.397226e-12
1.576186e-05
-3.540171e-06
-3.464476e-06
-3.465655e-06
-3.549803e-06
-0.002519211
0.002517398
1.877955e-12
1.58799e-05
-3.549154e-06
-3.483236e-06
-3.484102e-06
-3.553582e-06
-0.00251557
0.002513727
1.211231e-12
1.594115e-05
-3.552865e-06
-3.495535e-06
-3.496137e-06
-3.554218e-06
-0.00251188
0.002510028
-8.282207e-13
1.596865e-05
-3.553858e-06
-3.50379e-06
-3.504603e-06
-3.556658e-06
-0.002508176
0.002506314
-2.867434e-12
1.600359e-05
-3.557425e-06
-3.512861e-06
-3.514575e-06
-3.566521e-06
-0.002504446
0.002502551
-5.583558e-12
1.609049e-05
-3.569054e-06
-3.528333e-06
-3.531627e-06
-3.587948e-06
-0.002500637
0.002498672
-8.355696e-12
1.626023e-05
-3.592545e-06
-3.554541e-06
-3.559762e-06
-3.622391e-06
-0.002496671
0.002494591
-1.100947e-11
1.652384e-05
-3.628832e-06
-3.593171e-06
-3.600196e-06
-3.667703e-06
-0.002492459
0.002490229
-1.37395e-11
1.686601e-05
-3.675196e-06
-3.642284e-06
-3.650363e-06
-3.717243e-06
-0.002487934
0.002485539
-1.680134e-11
1.723595e-05
-3.724601e-06
-3.695362e-06
-3.703241e-06
-3.762787e-06
-0.002483081
0.002480536
-2.022157e-11
1.757198e-05
-3.769019e-06
-3.744257e-06
-3.750874e-06
-3.799186e-06
-0.00247794
0.002475283
-2.369703e-11
1.783245e-05
-3.80389e-06
-3.783294e-06
-3.788208e-06
-3.825104e-06
-0.002472591
0.002469862
-2.62367e-11
1.80087e-05
-3.828528e-06
-3.811246e-06
-3.814759e-06
-3.843798e-06
-0.002467115
0.002464344
-2.685985e-11
1.812703e-05
-3.846713e-06
-3.830965e-06
-3.833871e-06
-3.861413e-06
0.002458751
-2.544114e-11
1.823842e-05
-3.864798e-06
-3.849485e-06
-3.852971e-06
-0.002461561
-3.884461e-06
-0.002455926
0.002453057
-2.387516e-11
1.839534e-05
-3.888949e-06
-3.873939e-06
-3.87865e-06
-3.917742e-06
-0.002450159
0.002447191
-2.085416e-11
1.863231e-05
-3.92367e-06
-3.90849e-06
-3.914565e-06
-3.962508e-06
-0.002444177
0.002441069
-1.71355e-11
1.895594e-05
-3.969877e-06
-3.954071e-06
-3.961416e-06
-4.016497e-06
-0.002437901
0.002434623
-1.316522e-11
1.93448e-05
-4.024651e-06
-4.008704e-06
-4.016855e-06
-4.074325e-06
-0.002431277
0.002427821
-9.014347e-12
1.975579e-05
-4.082472e-06
-4.067199e-06
-4.075367e-06
-4.131133e-06
-0.002424298
0.002420674
-4.564068e-12
2.015181e-05
-4.1389e-06
-4.1247e-06
-4.132492e-06
-4.185438e-06
-0.002416988
0.002413209
-3.382741e-13
2.05241e-05
-4.193022e-06
-4.179669e-06
-4.187263e-06
-4.239384e-06
-0.002409371
0.002405439
5.198064e-12
2.089436e-05
-4.24736e-06
-4.234177e-06
-4.242126e-06
-4.296407e-06
-0.002401442
0.002397342
1.103514e-11
2.129379e-05
-4.305219e-06
-4.291641e-06
-4.300396e-06
-4.358288e-06
-0.002393164
0.002388865
1.698836e-11
2.174184e-05
-4.367937e-06
-4.353921e-06
-4.363517e-06
-4.424375e-06
-0.002384474
0.002379946
2.248735e-11
2.223843e-05
-4.434467e-06
-4.420472e-06
-4.430546e-06
-4.491679e-06
-0.002375312
0.002370527
2.670765e-11
2.27645e-05
-4.501488e-06
-4.488338e-06
-4.498158e-06
-4.554996e-06
-0.00236563
0.002360583
2.912198e-11
2.327862e-05
-4.563567e-06
-4.552234e-06
-4.56082e-06
-4.608183e-06
-0.002355427
0.002350135
2.925111e-11
2.373286e-05
-4.614755e-06
-4.605904e-06
-4.612471e-06
-4.647108e-06
-0.002344747
0.002339247
2.724883e-11
2.409253e-05
-4.651367e-06
-4.645156e-06
-4.64937e-06
-4.670795e-06
-0.002333666
0.002327997
2.386406e-11
2.435303e-05
-4.672783e-06
-4.669148e-06
-4.67106e-06
-4.68075e-06
-0.002322257
0.002316449
1.978172e-11
2.452852e-05
-4.68061e-06
-4.6797e-06
-4.679621e-06
-4.679584e-06
-0.002310576
0.002304647
1.532544e-11
2.464269e-05
-4.677303e-06
-4.679167e-06
-4.676947e-06
-4.669021e-06
-0.002298649
0.002292608
1.073283e-11
2.470809e-05
-4.664226e-06
-4.668987e-06
-4.664113e-06
-4.649203e-06
-0.002286494
0.002280352
6.16672e-12
2.472048e-05
-4.639759e-06
-4.649512e-06
-4.640008e-06
-4.617471e-06
-0.002274142
0.002267933
1.276765e-12
2.464343e-05
-4.599052e-06
-4.618191e-06
-4.599747e-06
-4.568439e-06
-0.002261703
0.002255535
-4.42264e-12
2.436336e-05
-4.52804e-06
-4.569581e-06
-4.529254e-06
-4.428303e-06
-0.002249373
0.002243126
-1.017834e-11
2.375107e-05
-4.321514e-06
-4.429815e-06
-4.323691e-06
-4.119435e-06
-0.002236697
0.002229183
-1.611559e-11
2.274207e-05
-3.494034e-06
-4.117363e-06
-3.497218e-06
-3.406678e-06
-0.002221965
0.002214361
-2.079402e-11
2.132235e-05
-3.458468e-06
-3.401309e-06
-3.451124e-06
-4.37068e-06
-0.002208709
0.002202797
-2.637104e-11
2.33275e-05
-4.344044e-06
-4.365995e-06
-4.33534e-06
-4.187724e-06
-0.002196713
0.002190516
-2.948484e-11
2.279834e-05
-4.118033e-06
-4.182718e-06
-4.112755e-06
-4.074189e-06
-0.002184348
0.002178219
-2.603458e-11
2.234442e-05
-4.039124e-06
-4.068414e-06
-4.033447e-06
-3.969123e-06
-0.002172279
0.00216657
-2.562235e-11
2.16002e-05
-3.981341e-06
-3.96562e-06
-3.974583e-06
-3.92616e-06
-0.002160892
0.002155222
-2.368187e-11
2.127654e-05
-3.881717e-06
-3.921347e-06
-3.877534e-06
-3.824587e-06
-0.002149658
0.002144222
-2.033976e-11
2.068703e-05
-3.80462e-06
-3.820116e-06
-3.801007e-06
-3.754922e-06
-0.002138887
0.002133648
-1.922678e-11
2.022368e-05
-3.741273e-06
-3.750745e-06
-3.737628e-06
-3.702971e-06
-0.002128487
0.002123375
-2.018964e-11
1.98872e-05
-3.688977e-06
-3.69851e-06
-3.68521e-06
-3.670211e-06
-0.002118323
0.002113286
-1.837358e-11
1.968581e-05
-3.659084e-06
-3.66526e-06
-3.655025e-06
-3.663511e-06
-0.002108283
0.002103259
-1.12204e-11
1.965563e-05
-3.657172e-06
-3.658296e-06
-3.652431e-06
-3.685086e-06
-0.002098229
0.002093126
-2.645733e-12
1.98308e-05
-3.684131e-06
-3.67975e-06
-3.678623e-06
-3.740012e-06
-0.002087969
0.002082679
6.744755e-12
2.024903e-05
-3.745403e-06
-3.733602e-06
-3.739103e-06
-3.83543e-06
-0.00207728
0.002071671
1.358123e-11
2.096241e-05
-3.847995e-06
-3.828596e-06
-3.841326e-06
-3.97367e-06
-0.002065886
0.002059805
1.860177e-11
2.200032e-05
-3.993053e-06
-3.966564e-06
-3.986099e-06
-4.152559e-06
-0.002053481
0.002046775
2.284621e-11
2.335365e-05
-4.178326e-06
-4.145191e-06
-4.171117e-06
-4.363888e-06
-0.002039759
0.00203228
2.663728e-11
2.4979e-05
-4.394067e-06
-4.356173e-06
-4.386471e-06
-4.592141e-06
-0.00202444
0.002016087
2.970361e-11
2.676951e-05
-4.623921e-06
-4.584171e-06
-4.616027e-06
-4.81679e-06
-0.002007342
0.001998067
3.136592e-11
2.858578e-05
-4.846752e-06
-4.808712e-06
-4.838774e-06
-5.017706e-06
-0.001988397
0.001978213
3.101275e-11
3.028972e-05
-5.043061e-06
-5.009639e-06
-5.035124e-06
-5.179931e-06
-0.001967649
0.001956609
2.83525e-11
3.178158e-05
-5.198649e-06
-5.172201e-06
-5.19106e-06
-5.295118e-06
-0.001945221
0.001933408
2.381427e-11
3.300163e-05
-5.306325e-06
-5.288135e-06
-5.299488e-06
-5.361409e-06
-0.001921287
0.0019088
1.842643e-11
3.392747e-05
-5.365136e-06
-5.355412e-06
-5.359322e-06
-5.38155e-06
-0.001896051
0.001883003
1.325685e-11
3.455791e-05
-5.378625e-06
-5.376656e-06
-5.373897e-06
-5.360958e-06
-0.001869743
0.001856258
8.842224e-12
3.490485e-05
-5.352458e-06
-5.357136e-06
-5.348767e-06
-5.305528e-06
0.001828817
4.06304e-12
3.498682e-05
-0.001842613
-5.292342e-06
-5.302897e-06
-5.289912e-06
-5.220866e-06
-0.001814916
0.001800939
2.993293e-12
3.482444e-05
-5.20405e-06
-5.21945e-06
-5.202795e-06
-5.11129e-06
-0.001786909
0.001772872
1.88109e-12
3.444074e-05
-5.091099e-06
-5.1108e-06
-5.090657e-06
-4.979176e-06
-0.001758831
0.001744845
2.622689e-12
3.385634e-05
-4.955805e-06
-4.979369e-06
-4.956061e-06
-4.825184e-06
-0.001730895
0.001717053
2.48257e-12
3.309131e-05
-4.798458e-06
-4.825987e-06
-4.799309e-06
-4.64941e-06
-0.001703278
0.001689653
2.519283e-12
3.216573e-05
-4.619235e-06
-4.650826e-06
-4.620678e-06
-4.453802e-06
-0.001676119
0.001662767
5.242094e-12
3.110466e-05
-4.420631e-06
-4.455847e-06
-4.422713e-06
-4.243506e-06
-0.001649526
0.001636495
7.802899e-12
2.994028e-05
-4.20842e-06
-4.246124e-06
-4.211059e-06
-4.026469e-06
-0.001623592
0.001610924
1.001007e-11
2.870953e-05
-3.99089e-06
-4.029562e-06
-3.994044e-06
-3.810773e-06
-0.001598402
0.001586138
1.349213e-11
2.744424e-05
-3.775966e-06
-3.814297e-06
-3.779596e-06
-3.602011e-06
-0.00157404
0.001562223
1.635482e-11
2.616607e-05
-3.568678e-06
-3.605864e-06
-3.572583e-06
-3.402283e-06
-0.001550591
0.001539266
1.779219e-11
2.487943e-05
-3.370554e-06
-3.40634e-06
-3.374572e-06
-3.211389e-06
-0.001528144
0.001517351
1.758247e-11
2.358601e-05
-3.181085e-06
-3.215595e-06
-3.185267e-06
-3.029308e-06
-0.001506781
0.001496564
1.579535e-11
2.228472e-05
-3.000273e-06
-3.033778e-06
-3.004596e-06
-2.858348e-06
-0.001486586
0.001476993
1.34569e-11
2.098395e-05
-2.831983e-06
-2.863558e-06
-2.836628e-06
-2.706632e-06
-0.001467667
0.001458755
1.093142e-11
1.97019e-05
-2.684952e-06
-2.709922e-06
-2.688852e-06
-2.573909e-06
-0.001450136
0.001441956
8.265017e-12
1.844685e-05
-2.557601e-06
-2.575801e-06
-2.559521e-06
-2.447027e-06
-0.001434076
0.001426629
4.960359e-12
1.720588e-05
-2.431561e-06
-2.448212e-06
-2.432635e-06
-2.316148e-06
-0.00141947
0.00141275
1.934055e-12
1.595371e-05
-2.300123e-06
-2.316673e-06
-2.300501e-06
-2.178219e-06
-0.001406313
0.001400307
1.962542e-13
1.468563e-05
-2.161971e-06
-2.178233e-06
-2.161913e-06
-2.036426e-06
-0.001394563
0.001389281
-9.671609e-13
1.339883e-05
-2.022464e-06
-2.036118e-06
-2.022093e-06
-1.888592e-06
-0.001384246
0.001379715
-2.01719e-12
1.205909e-05
-1.875994e-06
-1.888733e-06
-1.875089e-06
-1.734488e-06
-0.001375378
0.001371687
-4.352357e-12
1.060604e-05
-1.724336e-06
-1.734177e-06
-1.722742e-06
-1.545189e-06
-0.001368101
0.001365291
-8.339328e-12
8.874333e-06
-1.482718e-06
-1.548226e-06
-1.48847e-06
-7.571961e-07
-0.001362077
0.001357672
-1.232828e-11
6.96978e-06
-5.048792e-07
-7.85969e-07
-5.170081e-07
-4.942532e-07
-0.0003351917
0.000334367
-7.86331e-10
1.319656e-06
-8.878921e-07
-0.0003313992
0.0003305694
1.84898e-10
1.717489e-06
-9.527879e-07
-0.0003289002
0.0003285542
4.966098e-11
1.298682e-06
-9.410042e-07
-0.0003280023
0.0003279567
-1.553521e-11
9.866469e-07
-8.846265e-07
-0.0003281425
0.0003283053
-1.306009e-10
7.219464e-07
-8.028861e-07
-0.0003290322
0.0003293496
-2.649404e-10
4.857407e-07
-7.198676e-07
-0.0003304846
0.0003309206
-2.420617e-10
2.841121e-07
-6.391776e-07
-0.0003323786
0.0003329179
-1.2056e-10
1.00046e-07
-5.603683e-07
-0.0003346713
0.0003353059
-3.024543e-11
-7.420016e-08
-4.914212e-07
-0.00033733
0.0003380502
8.618049e-12
-2.287919e-07
-4.370972e-07
-0.0003403223
0.0003411215
1.926643e-11
-3.621156e-07
-3.988888e-07
-0.0003436205
0.0003444912
3.417448e-11
-4.718636e-07
-3.774351e-07
-0.0003471943
0.0003481285
6.004781e-11
-5.568351e-07
-3.730187e-07
-0.0003510103
0.0003519991
8.282629e-11
-6.158258e-07
-3.856563e-07
-0.0003550309
0.0003560641
1.041206e-10
-6.476426e-07
-4.156508e-07
-0.0003592143
0.0003602807
1.224931e-10
-6.508276e-07
-4.63364e-07
-0.0003635136
0.0003646005
1.554421e-10
-6.23736e-07
-5.288674e-07
-0.0003678763
0.0003689698
2.011827e-10
-5.648334e-07
-6.119061e-07
-0.0003722445
0.0003733294
2.611499e-10
-4.732671e-07
-7.113787e-07
-0.0003765565
0.0003776168
3.497175e-10
-3.492953e-07
-8.247755e-07
-0.0003807465
0.0003817655
4.518473e-10
-1.947232e-07
-9.512054e-07
-0.0003847492
0.0003857142
5.35254e-10
-1.432909e-08
-1.087478e-06
-0.0003884918
0.0003893727
5.68894e-10
2.059841e-07
-1.230914e-06
-0.0003918942
0.0003926823
5.215588e-10
4.422569e-07
-1.379299e-06
-0.0003949074
0.0003955917
3.639826e-10
6.946328e-07
-1.529543e-06
-0.0003974871
0.0003980524
1.154634e-10
9.640978e-07
-1.671078e-06
-0.0003995831
0.0004000239
-1.08947e-10
1.230389e-06
-1.759293e-06
-0.0004011747
0.0004014625
-2.564547e-10
1.471763e-06
-1.887065e-06
-0.0004022046
0.0004023502
-4.719666e-10
1.741882e-06
-2.013373e-06
-0.0004026977
0.0004026943
-4.334058e-10
2.017247e-06
-2.131402e-06
-0.0004026453
0.0004025029
-2.649536e-10
2.274071e-06
-2.2127e-06
-0.0004020684
0.0004017861
-1.13969e-10
2.49518e-06
-2.261189e-06
-0.0004009804
0.0004005847
-9.063235e-12
2.656906e-06
-2.267283e-06
-0.0003995059
0.0003990389
4.75456e-11
2.734215e-06
-2.133994e-06
-0.0003979636
0.0003975674
6.066816e-11
2.530109e-06
-4.166544e-07
-0.0003965749
0.0003955462
1.039537e-10
1.445327e-06
6.426591e-07
-0.0003929061
0.0003921342
6.050295e-11
1.290956e-07
7.889335e-07
-0.0003896941
0.0003888894
8.903798e-11
1.562487e-08
8.552233e-07
-0.0003865303
0.0003857535
8.767766e-11
-7.849993e-08
9.230307e-07
-0.0003834457
0.0003826838
8.911291e-11
-1.611821e-07
9.958111e-07
-0.0003804291
0.0003796927
1.025696e-10
-2.594234e-07
1.076258e-06
-0.0003775362
0.0003768388
1.445163e-10
-3.789441e-07
1.157454e-06
-0.0003748146
0.0003741668
1.943377e-10
-5.098393e-07
1.234012e-06
-0.0003723002
0.0003717077
2.282742e-10
-6.418171e-07
1.30206e-06
-0.0003700219
0.0003694927
1.875562e-10
-7.730064e-07
1.355832e-06
-0.0003679933
0.0003675237
1.104122e-10
-8.863123e-07
1.387269e-06
-0.000366195
0.0003657768
1.040107e-11
-9.691067e-07
1.387563e-06
-0.0003645867
0.0003642071
-1.434779e-10
-1.007853e-06
1.338365e-06
-0.0003631016
0.0003627373
-2.957945e-10
-9.737691e-07
1.215191e-06
-0.0003616453
0.0003612673
-4.71242e-10
-8.367417e-07
9.804748e-07
-0.0003600545
0.0003596119
-6.127943e-10
-5.372327e-07
6.136684e-07
-0.0003581623
0.0003575991
-8.348702e-10
-4.963127e-08
1.833925e-07
-0.0003554537
0.0003545404
-2.858324e-09
7.327437e-07
-1.058626e-06
-0.0003509023
0.0003492341
-1.422209e-08
2.741053e-06
-7.25851e-06
-0.0003447472
0.0003437614
-6.051934e-10
8.244904e-06
-3.748628e-06
-0.00034008
0.0003382626
1.42158e-08
5.551785e-06
1.391565e-06
-0.0003318611
0.000329809
3.000242e-09
6.575568e-07
2.090939e-06
-0.0003240657
0.0003221986
-5.059568e-09
-2.188291e-07
1.223345e-06
-0.0003164326
0.0003143315
-5.146307e-09
8.828556e-07
5.88957e-07
-0.0003073247
0.0003047939
8.486052e-10
1.940962e-06
8.902158e-08
-0.0002969398
0.0002943714
5.341854e-09
2.474071e-06
2.581111e-07
-0.0002873134
0.0002851961
3.928143e-09
1.855187e-06
3.729825e-07
-0.0002796405
0.00027798
1.784502e-09
1.285712e-06
2.559241e-07
-0.0002732489
0.0002717149
4.19925e-10
1.277674e-06
9.776817e-08
-0.0002671578
0.0002656802
-3.789193e-11
1.379928e-06
7.144639e-08
-0.000261469
0.0002601593
-1.087667e-10
1.238334e-06
1.600676e-07
-0.0002565014
0.000255374
-7.865973e-11
9.674001e-07
2.108442e-07
-0.0002521623
0.0002511482
-5.013917e-11
8.032784e-07
3.534795e-07
-0.000248311
0.0002474811
-3.052614e-11
4.764539e-07
6.743065e-07
-0.0002453705
0.000244707
1.367064e-10
-1.09166e-08
6.630314e-07
-0.0002411935
0.0009946527
-5.445197e-11
-1.269953e-07
-3.490807e-07
6.682267e-07
-3.655611e-07
-0.0002411996
-0.000256372
-0.0002563772
1.941501e-07
-0.0009954576
0.0009938168
-2.5323e-10
5.808008e-08
6.191393e-07
1.658416e-07
6.038254e-07
3.461111e-07
-0.0009922019
0.000989312
-2.85834e-10
1.542955e-06
3.40567e-07
3.32444e-07
3.281628e-07
4.540288e-08
-0.0009853998
0.0009797089
-2.580988e-10
5.495607e-06
6.206975e-08
3.546058e-08
5.260307e-08
-2.498965e-07
-0.0009726379
0.0009639219
-2.26906e-10
9.728235e-06
-2.487517e-07
-2.57186e-07
-2.561147e-07
-5.491664e-07
-0.0009542747
0.0009434957
-2.00914e-10
1.299823e-05
-5.530492e-07
-5.567866e-07
-5.600347e-07
-7.332969e-07
-0.0009320875
0.000920078
-1.1276e-10
1.495542e-05
-7.350348e-07
-7.381407e-07
-7.393046e-07
-8.143943e-07
-0.0009078818
0.0008957993
-1.343728e-11
1.53481e-05
-8.156895e-07
-8.172895e-07
-8.181938e-07
-7.48225e-07
-0.0008839803
0.0008729181
3.563447e-12
1.403248e-05
-7.349072e-07
-7.503486e-07
-7.368307e-07
-4.982579e-07
-0.0008625069
0.0008533855
-3.228526e-12
1.105224e-05
-4.654861e-07
-4.999832e-07
-4.670752e-07
-9.032937e-08
-0.0008452468
0.0008388495
8.650494e-12
6.680445e-06
-5.01383e-08
-9.139899e-08
-5.129335e-08
4.841399e-07
-0.0008335958
0.0008302845
3.77028e-11
1.232494e-06
5.563643e-07
4.829858e-07
5.553084e-07
1.115217e-06
-0.0008282021
0.0008282446
6.704657e-11
-4.668302e-06
1.198957e-06
1.113837e-06
1.197721e-06
1.777369e-06
-0.0008295036
0.0008328198
8.687965e-11
-1.057508e-05
1.853568e-06
1.775753e-06
1.852106e-06
2.404351e-06
-0.0008372707
0.0008435934
9.104469e-11
-1.608065e-05
2.476329e-06
2.402557e-06
2.474695e-06
2.964931e-06
-0.0008509143
0.0008598148
8.501705e-11
-2.088164e-05
3.027417e-06
2.963036e-06
3.025652e-06
3.429503e-06
-0.000869534
0.000880483
7.675531e-11
-2.476324e-05
3.479513e-06
3.427521e-06
3.477609e-06
3.784347e-06
-0.0008920525
0.0009044893
6.926022e-11
-2.764327e-05
3.820888e-06
3.78229e-06
3.818877e-06
4.028548e-06
-0.0009173499
0.0009307347
6.143719e-11
-2.954209e-05
4.052122e-06
4.026484e-06
4.050083e-06
4.1709e-06
-0.0009443609
0.0009582113
5.202924e-11
-3.05546e-05
4.18326e-06
4.168844e-06
4.181199e-06
4.229017e-06
-0.0009721485
0.0009860745
4.070966e-11
-3.08456e-05
4.232796e-06
4.226959e-06
4.230702e-06
4.224581e-06
-0.0009999717
0.001013691
2.838081e-11
-3.060893e-05
4.22232e-06
4.222556e-06
4.220267e-06
4.176669e-06
-0.001027303
0.001040625
1.7155e-11
-3.001277e-05
4.170295e-06
4.174723e-06
4.168331e-06
4.098912e-06
-0.00105379
0.001066593
7.927815e-12
-2.917666e-05
4.089664e-06
4.097008e-06
4.087775e-06
4.000108e-06
-0.001079203
0.001091408
8.264019e-13
-2.817913e-05
3.988896e-06
3.998233e-06
3.986959e-06
3.88744e-06
-0.001103397
0.001114958
-4.168227e-12
-2.70817e-05
3.875062e-06
3.885582e-06
3.87312e-06
3.76763e-06
-0.00112629
0.001137188
-5.776329e-12
-2.593998e-05
3.754742e-06
3.765815e-06
3.752928e-06
3.647583e-06
-0.001147857
0.001158107
-5.021641e-12
-2.48128e-05
3.63506e-06
3.645888e-06
3.633375e-06
3.533519e-06
-0.001168138
0.001177782
-3.480887e-12
-2.375155e-05
3.521921e-06
3.531928e-06
3.520346e-06
3.428719e-06
-0.001187224
0.001196316
-1.350546e-12
-2.278297e-05
3.418229e-06
3.4272e-06
3.416717e-06
3.333486e-06
-0.001205227
0.001213824
1.402053e-12
-2.190847e-05
3.323913e-06
3.332038e-06
3.322478e-06
3.245486e-06
-0.00122226
0.001230411
4.530987e-12
-2.111233e-05
3.23639e-06
3.244093e-06
3.235016e-06
3.161452e-06
-0.00123842
0.001246165
7.538813e-12
-2.037032e-05
3.15246e-06
3.160099e-06
3.151118e-06
3.078522e-06
-0.00125378
0.001261142
9.538093e-12
-1.965537e-05
3.069211e-06
3.077209e-06
3.067903e-06
2.993491e-06
-0.001268381
0.001275368
1.044217e-11
-1.893923e-05
2.983406e-06
2.992253e-06
2.982184e-06
2.903236e-06
-0.001282233
0.001288839
1.042054e-11
-1.819437e-05
2.891967e-06
2.902072e-06
2.890805e-06
2.805137e-06
-0.001295317
0.001301521
1.038316e-11
-1.73967e-05
2.792537e-06
2.804031e-06
2.791402e-06
2.697478e-06
-0.001307586
0.001313354
9.7264e-12
-1.652864e-05
2.683776e-06
2.696462e-06
2.682735e-06
2.580129e-06
-0.00131897
0.001324262
7.743122e-12
-1.558081e-05
2.565242e-06
2.579238e-06
2.564341e-06
2.453887e-06
-0.001329384
0.001334155
4.546808e-12
-1.455337e-05
2.437867e-06
2.45303e-06
2.437046e-06
2.320129e-06
-0.00133874
0.00134295
1.298412e-12
-1.345618e-05
2.30399e-06
2.319292e-06
2.303096e-06
2.181765e-06
-0.001346957
0.001350569
-1.981692e-12
-1.23064e-05
2.166569e-06
2.180944e-06
2.165656e-06
2.04164e-06
-0.001353963
0.001356947
-4.529573e-12
-1.112072e-05
2.027668e-06
2.040857e-06
2.026889e-06
1.89673e-06
-0.001359694
0.001362026
-5.497326e-12
-9.889578e-06
1.8826e-06
1.89608e-06
1.881967e-06
1.71431e-06
-0.001364124
0.001365881
-5.221407e-12
-8.567336e-06
1.691055e-06
1.713751e-06
1.690501e-06
1.42796e-06
-0.001367503
0.001369073
-7.785638e-12
-7.108997e-06
1.342438e-06
1.427415e-06
1.341907e-06
1.140398e-06
-0.0013705
0.001371604
-2.061549e-11
-5.62733e-06
1.122071e-06
1.140003e-06
1.121638e-06
1.053746e-06
-0.001372485
0.001373132
-2.367133e-11
-4.837711e-06
1.042441e-06
1.053079e-06
1.042001e-06
9.896036e-07
-0.001373633
0.001373907
9.685328e-12
-4.220962e-06
9.847169e-07
9.886019e-07
9.834132e-07
9.637972e-07
-0.001374034
0.001374006
6.400673e-11
-3.774286e-06
9.267835e-07
9.584517e-07
9.539009e-07
9.271223e-07
-0.001373958
0.001373721
-1.648091e-11
-3.488139e-06
9.387903e-07
9.214873e-07
9.379209e-07
9.166204e-07
-0.001373419
0.001372999
-2.130457e-11
-3.244103e-06
9.162633e-07
9.155776e-07
9.154935e-07
8.794529e-07
-0.001372647
0.001372238
-1.64674e-11
-3.086231e-06
8.696786e-07
8.777504e-07
8.680454e-07
6.863735e-07
-0.001372412
0.001373273
-1.187318e-11
-3.742336e-06
7.581436e-07
6.824544e-07
7.538375e-07
1.08466e-06
-0.001374097
0.001372231
-5.951787e-12
-2.26868e-06
9.741413e-07
1.093643e-06
9.825236e-07
1.010599e-06
-0.001371108
0.001370782
-1.029865e-12
-3.529044e-06
9.074753e-07
1.020443e-06
9.164123e-07
1.015652e-06
-0.00137054
0.00137039
5.709459e-12
-3.814729e-06
9.584204e-07
1.024496e-06
9.666616e-07
1.046142e-06
-0.001370443
0.001370807
5.763364e-12
-4.499686e-06
1.014351e-06
1.053606e-06
1.021336e-06
1.103249e-06
-0.001371289
0.001371861
-2.128388e-12
-4.960513e-06
1.084927e-06
1.109533e-06
1.090883e-06
1.163758e-06
-0.001372425
0.001373199
-6.720967e-12
-5.430291e-06
1.158738e-06
1.169238e-06
1.164046e-06
1.249424e-06
-0.00137406
0.001375091
-8.797315e-12
-6.045608e-06
1.253086e-06
1.25437e-06
1.257816e-06
1.330018e-06
-0.001376201
0.001377478
-8.293912e-12
-6.616159e-06
1.33549e-06
1.334444e-06
1.339623e-06
1.407103e-06
-0.001378832
0.001380348
-5.988009e-12
-7.164402e-06
1.413672e-06
1.410911e-06
1.417287e-06
1.480654e-06
-0.001381941
0.001383685
-5.135488e-12
-7.693756e-06
1.490953e-06
1.483985e-06
1.494208e-06
1.553736e-06
-0.001385499
0.00138745
-7.424836e-12
-8.190275e-06
1.563239e-06
1.556611e-06
1.566037e-06
1.619115e-06
-0.001389466
0.001391601
-9.568674e-12
-8.633702e-06
1.628048e-06
1.621483e-06
1.630347e-06
1.676049e-06
-0.001393794
0.001396086
-1.061463e-11
-9.015928e-06
1.683967e-06
1.678041e-06
1.685887e-06
1.723949e-06
-0.001398428
0.001400847
-1.062241e-11
-9.332532e-06
1.730732e-06
1.72567e-06
1.732398e-06
1.76247e-06
-0.001403306
0.001405823