/*--------------------------------*- C++ -*----------------------------------*\
| =========                 |                                                 |
| \\      /  F ield         | foam-extend: Open Source CFD                    |
|  \\    /   O peration     | Version:     3.1                                |
|   \\  /    A nd           | Web:         http://www.extend-project.de       |
|    \\/     M anipulation  |                                                 |
\*---------------------------------------------------------------------------*/
FoamFile
{
    version     2.0;
    format      ascii;
    class       volScalarField;
    location    "14.5";
    object      p;
}
// * * * * * * * * * * * * * * * * * * * * * * * * * * * * * * * * * * * * * //

dimensions      [1 -1 -2 0 0 0 0];

internalField   nonuniform List<scalar> 
119952
(
7666.128
7736.727
7737.594
7620.498
7663.417
7566.153
7529.355
7482.251
7450.065
7430.049
7415.914
7414.423
7415.217
7420.718
7443.115
7418.031
7494.099
7476.509
7538.334
7526.316
7557.712
7527.959
7517.099
7525.253
7491.45
7466.174
7450.751
7459.307
7468.017
7448.296
6697.513
6697.526
6827.986
6799.564
6861.696
6894.917
6954.912
7024.88
7084.338
7112.939
7214.316
7251.782
7266.001
7278.947
7277.911
7267.842
7263.587
7286.493
7254.42
7138.248
7074.467
6922.299
6757.359
6570.067
6450.908
6342.43
6243.428
6263.529
6282.024
6388.153
6508.881
6635.567
6777.637
6928.891
7070.287
7200.805
7282.361
7375.781
7394.116
7401.808
7394.423
7364.667
7340.721
7269.624
7233.96
7200.67
7168.452
7147.62
7134.409
7132.676
7141.94
7152.661
7167.875
7183.439
7209.164
7227.22
7243.137
7255.816
7265.448
7261.606
7256.725
7248.774
7220.029
7184.295
7149.75
7157.971
7151.857
7096.963
7035.393
6946.381
6871.046
6861.085
6898.741
6926.837
6933.799
6928.052
6924.103
6923.861
6927.09
6935.416
6946.157
6960.683
6973.466
6988.025
7004.459
7019.6
7036.769
7046.958
7060.256
7056.928
7052.127
7012.249
6948.989
6872.543
6796.018
6727.212
6673.421
6634.199
6607.55
6590.38
6581.946
6583.431
6593.493
6611.564
6633.965
6656.455
6681.567
6708.761
6745.556
6784.663
6830.663
6881.6
6928.806
6971.655
6996.583
7011.034
7021.209
7020.645
7026.478
7019.222
7015.866
7013.794
7016.137
7024.921
7043.587
7068.69
7104.237
7134.822
7159.172
7180.694
7199.863
7214.61
7223.644
7220.706
7238.809
7264.112
7290.075
7295.119
7299.232
7295.291
7285.108
7276.437
7273.626
7277.932
7285.908
7297.637
7310.438
7305.994
7310.787
7311.713
7309.246
7305.608
7302.807
7299.421
7293.338
7285.071
7283.539
7276.239
7268.769
7262.8
7258.36
7255.261
7253.985
7253.782
7256.658
7261.399
7262.316
7285.414
7254.771
7253.933
7242.071
7227.164
7215.222
7194.477
7175.201
7158.769
7145.331
7134.099
7123.562
7116.599
7109.058
7104.145
7100.647
7087.355
7082.255
7065.823
7055.486
7029.418
7016.75
7005.033
7006.679
7003.13
7002.594
7003.698
7002.902
7001.02
6997.36
6994.315
6991.034
6988.495
6987.847
6988.026
6990.729
6994.06
7002.723
7011.69
7020.117
7028.464
7037.378
7048.013
7060.015
7082.101
7100.025
7118.36
7128.38
7138.054
7150.852
7166.285
7174.748
7184.203
7187.494
7193.172
7202.272
7213.277
7211.737
7243.335
7254.623
7256.569
7273.742
7289.093
7297.581
7308.649
7318.072
7327.063
7331.654
7346.656
7343.385
7302.958
7313.341
7319.428
7328.46
7336.745
7343.108
7345.317
7342.11
7340.187
7338.943
7337.24
7335.928
7337.166
7339.41
7341.728
7343.768
7345.443
7344.639
7343.845
7342.145
7339.294
7335.647
7331.525
7327.037
7323.473
7322.011
7320.983
7320.965
7320.842
7319.746
7317.697
7315.297
7312.95
7311.358
7308.292
7304.949
7302.444
7299.781
7296.849
7293.421
7289.939
7286.076
7282.106
7277.954
7272.998
7268.52
7263.782
7259.538
7255.856
7252.841
7250.174
7247.942
7246.703
7245.506
7242.312
7239
7233.287
7223.144
7221.436
7217.43
7219.433
7223.206
7224.798
7226.3
7228.396
7230.221
7231.256
7232.347
7235.144
7237.69
7240.498
7243.179
7246.853
7251.396
7257.42
7264.675
7272.447
7278.507
7284.109
7289.54
7295.619
7300.569
7306.058
7311.643
7316.31
7319.965
7318.198
7306.734
7307.059
7322.615
7342.702
7353.338
7360.807
7369.482
7372.888
7376.244
7378.489
7382.217
7385.48
7383.785
7381.573
7380.967
7377.161
7371.689
7371.119
7364.984
7368.062
7371.034
7373.799
7377.561
7377.328
7373.056
7373.651
7359.934
7358.087
7350.715
7342.542
7335.575
7328.547
7321.777
7314.565
7307.11
7298.715
7290.979
7284.483
7278.772
7272.469
7266.616
7260.737
7255.043
7249.334
7242.953
7235.035
7228.418
7220.65
7210.114
7193.872
7180.559
7175.587
6207.773
5999.178
5781.153
5763.045
5689.937
5672.424
5698.833
5766.492
5828.361
5932.941
6084.705
6180.239
6286.275
6362.176
6438.346
6505.132
6567.785
6606.642
6572.529
6648.049
6678.1
6692.942
6705.149
6711.498
6723.246
6732.878
6736.174
6718.101
6694.604
6651.066
6598.578
6544.012
6511.021
6497.899
6483.625
6466.09
6455.428
6463.544
6473.388
6487.084
6516.024
6558.364
6609.617
6668.954
6739.765
6811.6
6881.827
6943.208
6985.428
7004.586
7012.054
7009.251
6988.876
6960.192
6945.074
6938.443
6839.406
6710.217
6531.183
6317.748
6124.361
5988.426
5913.466
5877.806
5890.284
5956.627
6043.743
6155.28
6284.642
6430.08
6592.491
6744.251
6868.054
6958.384
7014.367
7035.765
7033.402
7019.121
6993.71
6958.328
6917.445
6876.936
6840.695
6809.574
6788.748
6780.751
6782.631
6794.035
6806.974
6832.047
6861.606
6891.827
6925.807
6952.202
6961.046
6967.797
6972.034
6967.407
6955.997
6929.376
6864.219
6805.746
6770.81
6747.903
6696.983
6610.519
6447.369
6342.06
6448.059
6525.63
6586.169
6608.797
6611.82
6607.091
6608.187
6613.729
6624.284
6636.895
6651.477
6667.642
6682.673
6699.377
6718.212
6735.259
6746.478
6758.41
6741.201
6697.567
6626.826
6546.286
6477.585
6422.282
6373.903
6332.71
6300.624
6276.756
6261.605
6257.687
6263.539
6279.311
6302.329
6327.755
6352.459
6375.809
6398.07
6426.307
6465.869
6517.319
6571.426
6619.591
6664.376
6701.476
6724.116
6728.706
6718.05
6708.811
6704.844
6702.218
6703.111
6708.214
6720.636
6739.316
6765.124
6801.188
6830.15
6857.523
6875.484
6887.651
6897.999
6907.922
6918.623
6933.711
6953.915
6972.882
6986.023
6990.161
6985.761
6978.229
6970.856
6968.495
6972.262
6982.299
6994.978
7005.747
7009.158
7008.006
7005.126
7001.582
6998.79
6995.026
6990.541
6985.863
6980.322
6974.631
6968.743
6961.752
6954.719
6949.219
6946.234
6945.503
6940.779
6945.467
6960.532
6945.481
6996.208
6985.714
6975.692
6964.711
6951.109
6933.301
6912.564
6891.379
6872.919
6859.449
6850.89
6843.874
6837.07
6830.746
6824.766
6818.411
6810.785
6799.382
6779.895
6751.389
6736.202
6725.959
6723.08
6724.276
6727.589
6730.143
6730.221
6728.583
6726.114
6722.364
6718.219
6713.815
6709.445
6708.466
6709.374
6712.847
6718.679
6728.049
6738.036
6745.2
6751.799
6759.282
6772.138
6789.359
6808.45
6828.277
6846.644
6861.284
6873.313
6884.171
6893.756
6901.132
6908.808
6908.836
6916.924
6926.689
6939.099
6951.728
6967.944
6981.18
6992.767
7003.512
7015.059
7025.296
7034.688
7044.478
7053.103
7059.931
7063.567
7064.86
6998.976
7010.183
7019.426
7026.48
7032.708
7037.224
7039.702
7037.946
7034.909
7032.058
7028.829
7027.116
7029.742
7032.895
7035.417
7037.222
7037.77
7038.758
7038.414
7036.147
7032.939
7029.051
7023.711
7018.331
7014.991
7014.002
7013.901
7014.425
7014.276
7012.877
7010.582
7008.511
7006.525
7002.881
7000.195
6997.822
6995.375
6992.825
6989.879
6986.536
6982.772
6978.563
6974.233
6969.712
6964.902
6959.929
6955.109
6950.812
6947.334
6944.465
6942.028
6939.87
6938.387
6937.534
6936.567
6929.143
6918.908
6910.379
6909.593
6910.274
6913.06
6915.853
6917.8
6919.217
6920.361
6921.655
6923.176
6924.957
6927.279
6929.994
6932.848
6935.277
6939.025
6946.316
6953.478
6960.027
6966.151
6971.058
6974.975
6982.517
6988.484
6995.227
7001.277
7005.972
7011.22
7014.825
7015.034
7009.685
7009.375
7019.834
7034.429
7046.844
7055.469
7060.716
7064.676
7068.06
7071.246
7073.803
7075.575
7076.951
7076.656
7075.529
7072.276
7068.175
7065.634
7064.434
7064.423
7064.463
7066.691
7069.217
7068.297
7064.495
7059.641
7054.459
7048.714
7042.128
7035
7027.682
7020.308
7013.036
7005.697
6998.206
6990.809
6983.715
6976.996
6970.709
6964.463
6958.016
6951.762
6945.48
6939.15
6932.635
6925.311
6917.169
6908.388
6897.936
6888.477
6882.267
6878.014
3741.913
3794.42
3883.922
3946.63
4191.725
4364.857
4558.172
4717.215
4775.512
4733.109
5249.204
5329.167
5512.554
5597.285
5679.907
5780.467
5832.315
5896.084
5983.973
6050.428
6140.59
6279.241
6451.072
6608.955
6751.122
6860.639
6918.041
6966.389
6983.497
6685.745
6301.415
5979.425
5848.491
5957.884
6132.599
6220.939
6204.89
6059.646
5902.803
5733.118
5520.993
5406.888
5352.993
5347.082
5375.861
5479.192
5581.677
5699.446
5823.227
5929.718
6020.681
6100.486
6172.175
6235.323
6291.146
6336.463
6313.186
6343.575
6368.875
6379.576
6381.405
6385.485
6403.794
6411.714
6401.957
6378.412
6345.132
6299.025
6238.068
6190.824
6186.365
6186.189
6169.228
6150.247
6136.196
6131.589
6138.474
6157.976
6190.248
6236.798
6295.535
6363.094
6435.57
6509.006
6577.266
6637.097
6677.526
6700.044
6707.808
6705.061
6687.22
6652.416
6599.854
6559.244
6494.802
6357.058
6151.446
5937.05
5773.536
5667.306
5632.766
5625.871
5646.106
5701.833
5769.775
5865.015
5982.916
6116.385
6275.165
6421.766
6543.669
6636.356
6693.643
6719.804
6722.56
6711.375
6689.299
6656.602
6619.139
6580.266
6544.553
6514.544
6494.411
6486.302
6483.574
6493.433
6516.479
6546.213
6582.288
6621.206
6648.455
6685.646
6720.465
6727.731
6730.925
6731.02
6719.426
6690.721
6637.23
6589.142
6508.441
6475.161
6428.857
6301.307
6094.019
6044.683
6177.86
6237.206
6315.348
6341.233
6348.178
6346.313
6349.202
6356.119
6367.517
6381.876
6398.583
6416.139
6432.75
6451.173
6472.086
6491.748
6508.331
6517.952
6485.699
6417.971
6333.645
6261.066
6204.03
6154.748
6111.145
6072.049
6041.238
6019.177
6005.684
6001.986
6007.79
6023.85
6048.327
6077.22
6107.164
6131.504
6146.802
6164.148
6195.251
6245.261
6305.062
6361.435
6410.46
6449.939
6469.862
6466.952
6459.704
6447.597
6448.803
6448.209
6450.273
6456.259
6469.117
6484.282
6509.237
6546.167
6577.52
6601.858
6617.408
6627.028
6633.788
6644.754
6661.094
6680.905
6701.596
6718.288
6729.634
6735.652
6735.338
6728.553
6727.118
6730.218
6731.884
6737.017
6745.756
6753.14
6757.302
6758.94
6757.013
6754.964
6753.299
6752.71
6751.418
6745.911
6742.029
6735.179
6726.105
6716.713
6706.615
6697.499
6686.415
6687.662
6704.217
6715.455
6712.373
6698.795
6682.043
6669.066
6663.814
6663.985
6649.875
6624.14
6594.454
6567.792
6547.281
6538.318
6537.441
6532.082
6526.423
6521.128
6516.851
6509.167
6500.597
6481.838
6453.276
6430.033
6412.496
6411.834
6413.1
6416.131
6423.188
6426.43
6426.071
6423.104
6420.366
6415.602
6410.342
6405.644
6399.628
6399.354
6403.7
6408.343
6410.682
6426.165
6440.045
6441.871
6446.329
6450.266
6461.669
6483.383
6501.782
6523.076
6542.48
6556.887
6570.101
6581.577
6591.07
6598.738
6603.198
6606.64
6611.477
6617.641
6631.637
6646.806
6661.81
6675.536
6687.644
6698.747
6709.39
6719.596
6729.216
6738.313
6746.478
6753.494
6758.513
6762.1
6765.903
6769.197
6772.09
6775.635
6781.22
6787.244
6789.808
6790.994
6789.578
6786.702
6784.074
6785.11
6787.178
6789.121
6791.114
6792.677
6793.521
6793.504
6794.907
6793.536
6788.292
6782.808
6777.54
6772.613
6769.564
6768.806
6769.272
6769.934
6769.59
6768.438
6766.178
6763.707
6761.066
6758.569
6755.627
6752.906
6750.436
6747.957
6745.277
6742.224
6739.084
6735.207
6730.351
6725.234
6720.129
6715.124
6710.428
6706.35
6702.91
6699.934
6697.38
6694.712
6691.814
6688.162
6687.854
6685.148
6678.598
6671.157
6668.551
6667.64
6669.237
6671.73
6673.256
6674.282
6675.346
6676.428
6677.115
6678.34
6680.351
6682.682
6685.542
6689.475
6695.828
6701.438
6704.328
6709.585
6718.388
6723.267
6726.998
6735.147
6741.811
6746.339
6750.803
6756.171
6760.038
6761.824
6766.199
6764.125
6768.197
6779.496
6793.824
6802.783
6809.703
6815.362
6819.939
6823.715
6826.592
6828.779
6830.302
6831.381
6831.516
6830.938
6829.48
6827.166
6824.541
6822.974
6823.054
6823.583
6823.987
6824.384
6822.128
6818.17
6813.581
6808.492
6802.751
6796.39
6789.568
6782.514
6775.297
6767.846
6760.382
6752.927
6745.27
6738.021
6731.428
6724.78
6718.027
6711.472
6705.074
6698.796
6692.229
6685.259
6677.881
6669.96
6661.639
6654.339
6646.812
6642.204
6637.949
4071.846
4077.622
3989.616
4022.864
3823.691
3670.211
3479.973
3396.419
3240.638
3093.917
3002.396
2985.874
3005.975
3136.052
3345.772
3570.645
3792.769
4020.353
4235.814
4440.401
4668.658
4874.895
4993.476
5084.625
5221.648
5327.526
5434.474
5530.547
5597.559
5646.41
5694.285
5720.267
5797.458
5904.6
6037.552
6177.871
6286.175
6346.116
6371.316
6364.6
6226.155
5875.982
5414.71
5074.998
4933.799
5090.282
5360.15
5526.916
5539.581
5415.988
5241.434
5085.334
5000.699
4973.713
4981.741
5014.629
5084.752
5188.339
5307.322
5432.81
5554.717
5662.403
5750.456
5820.192
5882.037
5942.175
5993.658
6035.036
6074.773
6100.316
6108.954
6106.286
6088.379
6079.685
6089.32
6100.272
6100.086
6087.665
6062.837
6027.018
5987.679
5959.653
5952.108
5943.229
5915.702
5886.675
5863.399
5850.547
5850.803
5867.233
5901.866
5951.645
6014.201
6086.782
6163.954
6241.74
6314.293
6378.967
6429.531
6464.007
6486.401
6493.129
6482.598
6451.491
6414.397
6344.202
6223.553
6048.603
5824.587
5603.53
5454.822
5374.545
5331.711
5326.417
5348.141
5404.594
5478.177
5570.994
5686.902
5813.891
5963.478
6105.576
6222.568
6310.678
6366.103
6393.914
6399.832
6391.352
6372.611
6341.767
6306.101
6267.476
6228.87
6197.899
6173.862
6161.203
6166.425
6177.096
6196.591
6236.163
6274.419
6311.564
6352.459
6397.177
6430.125
6449.663
6472.011
6480.963
6471.812
6445.57
6401.341
6335.722
6245.674
6184.787
6184.272
6074.811
5961.02
5928.628
5963.782
6004.606
6049.584
6068.15
6077.99
6079.515
6083.444
6092.017
6105.648
6123.1
6143.102
6163.795
6184.283
6206.359
6228.519
6249.865
6265.441
6268.574
6232.28
6148.658
6057.775
5990.352
5938.427
5890.341
5847.123
5808.706
5776.837
5754.369
5741.005
5737.057
5743.864
5761.588
5789.06
5822.268
5857.063
5884.864
5897.463
5897.371
5908.247
5953.901
6020.926
6084.363
6138.719
6180.458
6197.664
6198.01
6193.794
6193.53
6189.167
6188.135
6196.518
6202.594
6217.298
6225.373
6268.218
6287.771
6323.29
6337.25
6347.72
6356.369
6365.828
6383.333
6405.645
6429.987
6451.39
6471.746
6487.463
6497.014
6499.301
6495.724
6493.698
6497.358
6509.818
6516.111
6515.603
6516.354
6517.844
6514.023
6510.347
6508.903
6507.43
6503.581
6497.867
6495.423
6487.915
6481.061
6472.617
6462.568
6457.541
6458.938
6463.091
6464.206
6472.349
6463.98
6446.624
6445.18
6428.064
6404.876
6402.826
6397.059
6385.431
6368.399
6341.038
6316.443
6294.461
6289.101
6293.6
6287.225
6279.436
6273.677
6268.317
6261.307
6252.842
6236.172
6208.486
6184.998
6164.619
6163.444
6162.391
6169.102
6180.775
6181.15
6181.841
6177.995
6174.389
6168.871
6161.711
6155.661
6148.284
6145.193
6150.699
6159.83
6172.348
6182.63
6192.046
6198.456
6203.168
6205.115
6215.172
6234.236
6255.284
6274.809
6292.565
6308.339
6321.889
6334.104
6344.587
6353.239
6359.527
6364.308
6367.149
6372.87
6385.187
6400.055
6414.861
6428.366
6440.497
6451.468
6461.724
6471.566
6481.016
6489.948
6498.406
6506.106
6512.752
6518.263
6521.096
6524.266
6528.686
6534.005
6539.18
6543.38
6546.172
6546.303
6544.809
6543.058
6541.209
6540.898
6542.187
6544.809
6544.479
6542.114
6543.655
6547.54
6550.8
6550.315
6544.646
6539.713
6534.038
6528.395
6524.857
6523.687
6523.699
6524.064
6524.333
6524.05
6522.44
6519.511
6515.823
6512.78
6510.267
6508.122
6505.957
6503.602
6501.111
6498.116
6494.348
6489.932
6484.771
6478.873
6473.024
6467.586
6462.622
6458.343
6454.876
6451.754
6449.091
6445.413
6441.076
6443.09
6444.488
6441.317
6432.8
6424.058
6421.814
6421.512
6424.487
6425.306
6424.984
6425.089
6425.752
6426.63
6427.998
6429.865
6432.052
6434.767
6437.088
6443.157
6453.603
6459.765
6459.502
6460.359
6467.148
6475.433
6485.588
6492.132
6496.288
6501.536
6504.931
6510.078
6514.29
6516.404
6522.511
6525.029
6529.14
6537.345
6545.77
6552.22
6558.918
6565.831
6571.403
6576.437
6580.521
6583.296
6585.086
6586.085
6586.631
6586.765
6585.701
6584.003
6582.416
6581.504
6580.689
6580.282
6579.486
6577.745
6575.21
6572.228
6568.433
6563.577
6557.82
6551.48
6544.838
6537.866
6530.586
6523.097
6515.592
6508.017
6500.43
6493.25
6486.164
6478.938
6471.904
6465.117
6458.408
6451.679
6444.878
6437.81
6430.715
6423.895
6416.756
6410.134
6404.144
6399.785
6395.711
4092.665
4121.657
4142.636
4097.753
4104.196
4059.798
4052.259
4027.784
3995.269
3952.238
3913.428
3861.98
3782.937
3712.56
3596.39
3407.659
3172.365
2985.59
2785.67
2631.866
2535.147
2501.883
2527.348
2629.806
2794.718
3004.058
3241.698
3477.775
3716.232
3947.338
4157.804
4354.599
4526.849
4669.267
4790.277
4900.7
5005.109
5092.698
5176.358
5258.304
5310.83
5332.246
5365.122
5417.075
5496.024
5601.343
5722.234
5818.851
5856.627
5844.028
5793.912
5632.855
5252.335
4718.343
4308.99
4054.331
4256.974
4616.672
4848.633
4915.609
4882.761
4786.095
4681.57
4642.849
4653.577
4686.688
4740.032
4824.398
4940.178
5068.333
5194.54
5329.66
5461.715
5546.746
5600.978
5647.894
5703.881
5751.461
5784.651
5812.814
5829.587
5824.581
5799.48
5768.96
5750.641
5755.688
5774.227
5787.523
5788.743
5777.119
5758.444
5736.758
5717.334
5705.94
5686.282
5645.709
5599.445
5562.892
5542.239
5539.77
5555.087
5590.508
5644.575
5713.787
5794.517
5881.143
5967.747
6049.844
6124.946
6190.723
6244.259
6292.139
6308.216
6302.311
6278.306
6227.733
6128.994
5975.215
5777.384
5537.49
5330.73
5196.966
5133.093
5092.78
5087.769
5106.046
5152.123
5225.235
5314.832
5423.448
5543.343
5679.398
5808.346
5917.389
5998.234
6047.156
6072.748
6079.471
6067.748
6047.439
6016.832
5981.141
5944.744
5903.689
5868.792
5847.328
5837.128
5839.298
5850.375
5873.203
5909.809
5948.499
5990.573
6039.778
6091.82
6125.86
6157.441
6191.354
6209.228
6205.432
6180.164
6140.503
6073.823
5990.177
5932.653
5922.07
5886.099
5861.08
5816.259
5797.519
5791.283
5796.74
5800.072
5803.543
5807.89
5812.756
5823.429
5839.642
5860.627
5884.667
5910.629
5937.438
5964.386
5990.161
6014.788
6026.237
6021.549
5975.33
5886.354
5797.053
5731.958
5681.399
5631.458
5585.073
5543.764
5511.994
5491.135
5481.448
5480.262
5489.157
5508.72
5535.563
5566.87
5599.928
5628.735
5641.995
5638.653
5633.384
5658.47
5730.098
5796.128
5850.902
5890.235
5909.472
5899.705
5912.882
5938.318
5943.999
5942.437
5941.156
5945.598
5946.016
5962.783
5987.757
6029.074
6052.194
6069.771
6083.643
6085.356
6093.956
6119.135
6143.454
6170.874
6200.14
6215.85
6224.748
6228.243
6226.752
6225.392
6234.603
6256.069
6267.747
6266.931
6271.254
6277.91
6277.077
6272.266
6265.707
6263.548
6259.986
6253.741
6248.308
6245.918
6240
6229.025
6224.505
6220.23
6214.81
6211.927
6217.494
6212.816
6203.219
6193.132
6187.329
6186.002
6173.049
6158.293
6147.494
6133.037
6120.371
6106.17
6088.561
6070.315
6055.527
6045.15
6044.738
6040.418
6033.169
6028.022
6021.508
6011.86
6002.193
5988.502
5965.753
5947.236
5933.125
5929.375
5927.587
5929.55
5932.776
5935.397
5935.256
5931.096
5925.602
5918.45
5911.698
5905.018
5897.256
5892.195
5901.525
5911.932
5934.721
5930.454
5930.426
5958.142
5957.073
5965.328
5975.424
5991.343
6012.26
6028.453
6043.502
6059.258
6073.49
6086.571
6098.053
6109.379
6120.396
6129.329
6135.048
6140.749
6146.073
6156.838
6169.746
6182.288
6193.822
6204.234
6213.894
6223.223
6232.469
6241.562
6250.409
6258.801
6266.408
6272.578
6277.006
6280.866
6284.747
6288.647
6292.624
6296.485
6299.627
6300.958
6301.416
6300.739
6300.031
6299.89
6301.478
6303.619
6303.997
6302.93
6300.695
6299.322
6303.419
6305.801
6299.906
6293.837
6289.013
6284.139
6280.741
6279.14
6278.707
6278.742
6278.747
6278.218
6276.685
6274.342
6271.665
6268.825
6266.614
6264.686
6262.193
6259.396
6256.439
6253.062
6249.057
6244.289
6238.624
6232.424
6226.349
6220.905
6216.173
6212.324
6209.293
6206.932
6204.55
6202.368
6199.212
6198.671
6196.471
6194.043
6189.508
6181.374
6180.359
6178.242
6178.639
6181.64
6183.829
6183.169
6181.748
6181.268
6181.492
6182.173
6183.964
6187.025
6192.95
6199.064
6205.666
6208.757
6208.137
6213.212
6221.105
6227.715
6236.546
6242.776
6246.971
6253.972
6257.25
6261.574
6268.133
6271.934
6279.11
6282.805
6286.743
6293.241
6300.1
6306.39
6311.691
6316.826
6323.461
6329.523
6334.584
6338.707
6341.323
6342.401
6342.751
6342.585
6342.237
6341.504
6340.437
6339.47
6338.158
6336.95
6335.172
6332.443
6329.707
6327.623
6324.554
6319.532
6313.231
6306.613
6300.089
6293.126
6285.74
6278.13
6270.592
6263.025
6255.365
6247.906
6240.515
6233.022
6225.633
6218.507
6211.597
6204.728
6197.842
6190.963
6184.2
6177.555
6171.083
6164.999
6159.693
6155.191
6150.819
3961.777
3977.474
4058.458
3911.259
3891.97
3842.695
3814.209
3806.044
3821.748
3839.074
3843.349
3844.186
3837.535
3832.623
3832.279
3763.335
3753.144
3738.376
3708.597
3642.878
3522.895
3443.05
3412.327
3290.007
3149.441
2969.265
2723.972
2488.973
2339.527
2218.633
2156.009
2154.19
2211.115
2326.188
2487.13
2693.868
2921.093
3161.367
3405.099
3638.151
3855.556
4054.506
4231.542
4383.06
4506.095
4611.011
4711.554
4795.259
4863.428
4934.666
4987.956
5010.894
5037.52
5071.385
5118.479
5182.506
5275.853
5353.188
5370.876
5328.669
5236.214
5057.854
4722.222
4226.887
3838.035
3818.762
3755.209
3911.938
4196.137
4371.671
4393.436
4347.319
4313.819
4327.575
4358.883
4408.865
4479.9
4574.546
4697.332
4842.188
4990.505
5132.795
5266.324
5359.795
5392.193
5417.24
5477.184
5518.239
5542.827
5564.668
5569.244
5546.209
5500.171
5442.837
5401.255
5412.317
5441.447
5467.492
5483.186
5483.933
5478.87
5469.081
5460.538
5445.602
5405.23
5345.618
5288.321
5245.499
5219.325
5213.842
5230.47
5271.53
5333.236
5410.457
5501.12
5599.139
5697.579
5792.143
5880.576
5961.513
6034.406
6093.211
6126.784
6121.511
6089.878
6027.33
5908.322
5734.29
5528.675
5301.409
5102.046
4968.972
4897.707
4865.675
4862.212
4881.784
4930.434
4998.77
5080.636
5184.045
5299.636
5421.445
5536.99
5631.855
5697.11
5737.829
5759.635
5764.442
5746.249
5716.088
5676.185
5634.735
5595.501
5554.778
5517.014
5493.747
5487.186
5489.997
5505.489
5536.191
5571.366
5612.413
5659.978
5708.963
5762.372
5810.652
5849.469
5887.282
5918.731
5925.85
5905.398
5869.082
5813.71
5742.115
5694.323
5690.577
5703.638
5695.133
5668.738
5571.241
5541.478
5534.622
5531.146
5525.114
5530.063
5536.538
5548.225
5566.538
5593.336
5623.938
5657.179
5691.445
5725.407
5758.242
5782.109
5794.608
5796.993
5739.562
5645.597
5552.148
5483.826
5430.459
5376.317
5325.878
5281.154
5246.254
5223.696
5214.814
5216.26
5227.138
5248.272
5276.471
5308.333
5340.241
5369.092
5390.68
5399.001
5395.45
5410.055
5470.76
5531.429
5581.047
5614.46
5636.733
5612.383
5645.365
5685.023
5705.541
5705.109
5701.925
5703.188
5674.81
5699.08
5723.772
5765.028
5798.528
5827.771
5841.737
5834.319
5840.748
5863.056
5888.881
5921.183
5946.967
5955.248
5952.933
5943.448
5934.06
5939.353
5972.609
5989.53
6002.913
6013.028
6026.53
6040.102
6043.686
6039.135
6028.4
6019.399
6012.436
6000.784
5992.595
5990.757
5981.34
5964.797
5963.452
5960.188
5951.778
5947.538
5948.272
5941.756
5932.384
5928.19
5930.615
5933.674
5935.226
5920.78
5900.368
5883.825
5866.439
5850.767
5838.76
5822.533
5809.02
5800.853
5799.722
5794.942
5786.036
5779.253
5771.522
5763.551
5753.715
5739.127
5721.918
5707.376
5695.877
5689.894
5692.946
5687.309
5682.931
5687.935
5683.224
5678.554
5676.05
5671.713
5663.83
5655.421
5643.687
5641.981
5654.292
5664.151
5676.191
5685.807
5693.706
5702.981
5711.526
5722.212
5734.916
5748.968
5764.838
5780.688
5795.991
5810.89
5824.569
5837.483
5850.18
5862.618
5874.724
5885.597
5893.166
5899.115
5904.579
5913.21
5924.73
5936.55
5947.477
5957.22
5966.208
5974.789
5983.507
5992.603
6001.72
6010.644
6019.097
6026.529
6032.194
6036.179
6039.738
6043.67
6047.582
6051.218
6054.169
6055.742
6056.635
6057.016
6058.445
6058.685
6058.486
6059.782
6062.467
6064.148
6060.332
6048.552
6043.797
6053.827
6055.147
6048.005
6042.061
6036.813
6033.979
6032.816
6032.508
6032.789
6033.209
6032.911
6031.865
6030.045
6027.781
6025.323
6022.979
6020.66
6018.004
6015.145
6011.942
6008.114
6003.534
5998.283
5992.376
5986.023
5979.605
5974.129
5969.467
5965.865
5963.193
5961.261
5959.644
5958.707
5956.094
5953.176
5950.504
5949.581
5946.136
5937.031
5935.069
5934.697
5932.429
5934.127
5935.462
5933.932
5931.839
5930.977
5931.604
5933.424
5936.319
5939.078
5944.578
5950.472
5954.58
5957
5958.401
5965.06
5972.551
5979.11
5987.254
5993.764
5998.755
6004.629
6008.193
6011.974
6019.551
6024.774
6032.202
6037.405
6042.474
6048.622
6055.013
6060.885
6065.453
6069.844
6075.613
6080.579
6085.959
6091.019
6094.926
6097.643
6099.162
6099.364
6099.513
6099.459
6098.701
6097.56
6096.091
6094.402
6092.256
6089.604
6086.543
6082.737
6078.518
6073.647
6068.409
6062.643
6056.182
6049.085
6041.359
6033.394
6025.326
6017.717
6010.309
6002.592
5994.549
5986.627
5978.972
5971.589
5964.425
5957.384
5950.472
5943.553
5936.882
5930.57
5924.715
5919.371
5914.455
5909.668
5905.947
3858.268
3833.229
3823.371
3803.4
3761.269
3718.83
3672.791
3642.243
3624.491
3612.356
3494.905
3491.162
3501.01
3508.077
3516.624
3520.446
3519.002
3519.919
3523.678
3529.188
3550.865
3523.735
3537.139
3523.308
3485.358
3322.8
3223.091
3102.955
2909.024
2703.038
2496.207
2296.997
2108.004
1975.212
1875.137
1824.115
1841.832
1910.408
2036.56
2206.216
2413.505
2636.638
2870.051
3118.837
3348.515
3559.175
3760.869
3939.304
4087.543
4209.025
4313.743
4409.285
4491.141
4552.846
4607.564
4657.601
4689.554
4711.521
4728.591
4751.511
4787.311
4855.39
4915.224
4922.531
4880.081
4779.18
4590.043
4297.771
3885.481
3586.709
3568.084
3489.157
3467.581
3661.705
3886.362
3964.783
3993.619
4029.53
4062.136
4102.908
4158.74
4232.529
4335.13
4465.563
4609.198
4756.913
4909.192
5050.117
5149.644
5192.78
5232.12
5305.231
5346.684
5354.95
5353.892
5336.54
5286.992
5216.955
5135.006
5082.009
5085.614
5118.115
5150.906
5169.872
5180.054
5187.237
5187.789
5183.736
5156.315
5093.706
5020.699
4957.058
4911.365
4885.659
4884.027
4907.148
4954.654
5024.806
5110.965
5212.125
5323.931
5435.421
5544.223
5647.038
5740.018
5820.98
5887.151
5924.036
5913.892
5874.546
5801.861
5677.504
5501.982
5298.117
5089.396
4909.38
4786.665
4724.6
4700.795
4695.943
4703.632
4740.564
4801.183
4879.933
4981.092
5091.835
5195.923
5290.221
5367.554
5415.054
5442.369
5456.894
5451.036
5422.484
5373.018
5312.299
5263.692
5221.311
5179.701
5140.784
5113.856
5107.968
5119.984
5148.127
5186.843
5226.031
5268.194
5314.755
5364.625
5420.628
5478.388
5527.291
5567.779
5612.081
5636.815
5621.01
5591.333
5553.676
5508.234
5488.065
5493.939
5494.909
5467.188
5497.285
5301.556
5280.317
5264.799
5250.841
5243.075
5246.503
5256.298
5270.843
5293.41
5323.929
5360.606
5401.479
5442.925
5483.674
5522.651
5550.517
5563.974
5573.847
5519.492
5422.849
5321.817
5244.924
5189.46
5129.321
5073.699
5023.723
4982.146
4956.861
4947.961
4950.75
4962.78
4984.856
5014.371
5047.706
5081.446
5113.961
5145.05
5176.667
5191.075
5198.096
5232.97
5281.77
5327.027
5367.103
5385.026
5376.346
5400.115
5441.9
5467.978
5477.953
5467.63
5455.852
5422.109
5425.527
5465.144
5509.962
5557.667
5596.459
5621.009
5628.873
5633.451
5646.195
5653.16
5674.886
5694.721
5698.791
5690.8
5669.225
5656.849
5663.799
5680.205
5711.639
5752.73
5784.075
5806.259
5815.569
5814.201
5797.726
5777.688
5763.087
5759.841
5751.516
5740.18
5734.003
5723.945
5711.133
5702.763
5694.957
5689.252
5686.163
5685.428
5683.215
5679.885
5677.834
5677.944
5677.527
5676.383
5664.478
5645.454
5631.509
5618.223
5603.929
5591.439
5575.384
5563.079
5554.138
5549.125
5547.104
5540.483
5531.692
5520.85
5510.586
5500.986
5492.218
5479.131
5465.043
5452.016
5443.994
5442.103
5439.262
5441.675
5441.623
5437.098
5427.839
5421.657
5422.843
5420.118
5409.794
5405.752
5403.784
5408.842
5423.722
5437.533
5441.855
5448.374
5461.624
5470.325
5479.091
5492.542
5506.357
5520.129
5534.137
5548.285
5562.569
5576.367
5589.593
5602.419
5615.205
5626.869
5637.577
5646.389
5653.474
5660.284
5669.399
5680.07
5690.971
5700.935
5709.874
5717.876
5725.682
5734.252
5743.432
5753.115
5762.434
5771.407
5779.87
5787.374
5792.524
5796.626
5800.371
5803.354
5805.988
5808.447
5810.737
5812.384
5814.165
5815.545
5815.779
5815.958
5816.866
5818.59
5819.68
5819.501
5806.152
5792.073
5795.3
5802.076
5803.322
5798.902
5792.665
5788.498
5786.655
5786.453
5787.132
5788.146
5788.594
5787.837
5786.068
5783.761
5781.416
5779.086
5776.632
5773.853
5770.708
5766.897
5762.371
5757.326
5751.83
5745.783
5739.484
5733.448
5728.207
5724.129
5721.101
5718.872
5717.481
5716.368
5714.934
5712.754
5711.316
5708.147
5704.211
5700.488
5694.251
5690.56
5691.548
5691.42
5690.182
5689.025
5687.178
5686.859
5686.486
5686.843
5687.291
5688.906
5691.752
5696.407
5701.617
5705.982
5709.734
5713.254
5719.094
5726.067
5732.616
5739.815
5746.203
5751.789
5757.339
5762.141
5766.865
5773.267
5779.198
5786.105
5792.112
5797.901
5804.083
5810.403
5816.508
5822.206
5827.343
5831.665
5834.785
5838.848
5843.378
5847.843
5851.351
5853.643
5854.929
5855.654
5855.62
5855.707
5855.107
5853.289
5851.578
5849.887
5847.647
5844.482
5839.439
5833.999
5828.696
5823.765
5817.963
5811.306
5804.84
5797.511
5789.425
5781.07
5772.939
5765.141
5757.143
5748.781
5740.542
5732.507
5725.197
5718.072
5710.417
5703.003
5696.025
5689.522
5683.536
5678.045
5673.014
5668.151
5663.472
5660.171
3609.783
3578.751
3500.053
3470.422
3421.346
3363.313
3307.953
3272.71
3264.885
3272.769
3275.016
3274.321
3275.132
3278.923
3278.062
3272.541
3266.21
3266.29
3283.041
3294.904
3305.546
3309.715
3302.916
3291.694
3179.914
3042.429
2902.15
2731.583
2526.077
2309.516
2095.985
1920.449
1771.803
1628.462
1552.747
1531.505
1565.525
1641.71
1765.339
1931.254
2131.097
2354.397
2582.097
2826.241
3058.145
3267.169
3470.321
3650.312
3792.627
3916.05
4018.59
4104.421
4174.769
4227.521
4274.331
4320.861
4352.045
4374.644
4393.759
4412.783
4435.571
4479.007
4521.569
4533.738
4499.4
4405.215
4217.844
3995.845
3689.296
3357.959
3286.514
3310.457
3196.569
3268.933
3514.188
3648.05
3696.058
3753.104
3801.539
3859.283
3930.6
4011.749
4111.403
4231.623
4367.268
4515.444
4673.212
4823.993
4951.769
5028.171
5113.468
5209.693
5220.23
5196.161
5168.688
5131.451
5058.904
4963.806
4863.821
4804.963