/*--------------------------------*- C++ -*----------------------------------*\
| =========                 |                                                 |
| \\      /  F ield         | foam-extend: Open Source CFD                    |
|  \\    /   O peration     | Version:     3.1                                |
|   \\  /    A nd           | Web:         http://www.extend-project.de       |
|    \\/     M anipulation  |                                                 |
\*---------------------------------------------------------------------------*/
FoamFile
{
    version     2.0;
    format      ascii;
    class       volScalarField;
    location    "14.5";
    object      pd;
}
// * * * * * * * * * * * * * * * * * * * * * * * * * * * * * * * * * * * * * //

dimensions      [1 -1 -2 0 0 0 0];

internalField   nonuniform List<scalar> 
119952
(
7696.818
7774.133
7774.368
7654.014
7693.904
7597.31
7561.315
7514.829
7483.256
7463.797
7450.317
7449.452
7450.055
7456.974
7479.983
7455.513
7532.19
7515.202
7577.656
7566.251
7593
7563.49
7552.906
7555.915
7522.11
7496.8
7481.401
7489.969
7498.71
7478.991
6987.998
6984.463
7111.657
7076.742
7137.771
7167.921
7225.046
7292.205
7348.411
7374.857
7489.318
7527.555
7539.686
7554.063
7552.153
7543.718
7539.316
7562.397
7530.322
7444.682
7380.994
7228.844
7063.226
6873.493
6757.141
6642.381
6543.379
6569.819
6588.581
6694.682
6814.999
6941.648
7084.07
7234.288
7373.858
7504.804
7586.686
7679.333
7699.731
7705.561
7698.39
7670.358
7647.146
7576.052
7539.225
7505.562
7474.968
7454.178
7440.947
7439.016
7433.321
7445.833
7474.163
7489.937
7515.716
7532.737
7549.194
7562.376
7572.006
7567.381
7563.062
7555.089
7524.866
7490.731
7456.307
7464.494
7458.27
7403.158
7341.442
7252.376
7177.209
7167.245
7205.222
7233.33
7240.348
7234.439
7229.931
7230.28
7233.613
7241.868
7252.602
7267.208
7280.026
7294.586
7310.835
7326.096
7343.331
7353.515
7366.785
7363.07
7358.57
7317.756
7255.284
7178.996
7100.732
7032.608
6979.972
6940.741
6914.101
6896.26
6886.855
6888.617
6899.567
6917.535
6940.26
6962.66
6985.684
7014.083
7052.106
7091.195
7136.953
7187.796
7235.212
7278.169
7302.929
7315.857
7326.032
7326.991
7332.597
7325.471
7322.4
7320.299
7322.677
7331.423
7349.349
7374.706
7410.783
7441.107
7464.931
7486.502
7506.07
7520.561
7529.582
7526.868
7545.205
7570.514
7595.979
7600.661
7605.321
7600.693
7590.114
7582.883
7580.023
7583.7
7592.053
7604.054
7614.449
7609.266
7617.202
7618.258
7615.198
7609.089
7608.955
7605.895
7598.115
7587.97
7588.314
7582.754
7575.284
7568.545
7562.354
7561.73
7560.546
7560.318
7562.225
7567.713
7568.856
7561.313
7530.677
7529.839
7517.977
7503.07
7491.129
7470.383
7451.107
7434.675
7421.237
7410.005
7399.468
7392.505
7384.964
7380.051
7376.553
7363.261
7358.159
7341.729
7331.39
7305.325
7292.65
7280.939
7282.584
7279.036
7278.501
7279.604
7278.808
7276.926
7273.266
7270.221
7266.929
7264.398
7263.753
7263.932
7266.635
7269.965
7278.629
7287.595
7296.024
7304.37
7313.284
7323.919
7335.921
7358.007
7375.931
7394.265
7404.287
7413.959
7426.756
7442.19
7450.653
7460.109
7463.4
7469.078
7478.178
7489.183
7487.643
7519.24
7530.529
7532.475
7549.648
7564.999
7573.487
7584.556
7593.978
7602.969
7607.56
7622.562
7619.291
7609.52
7619.904
7625.991
7635.022
7643.308
7649.67
7651.879
7648.656
7646.712
7645.502
7643.765
7642.476
7643.725
7645.961
7648.284
7650.33
7652.006
7651.201
7650.407
7648.708
7645.856
7642.21
7638.088
7633.599
7630.035
7628.574
7627.545
7627.527
7627.404
7626.306
7624.251
7621.852
7619.508
7617.918
7614.835
7611.478
7609.001
7606.344
7603.411
7599.983
7596.501
7592.638
7588.668
7584.517
7579.561
7575.082
7570.344
7566.1
7562.419
7559.403
7556.736
7554.504
7553.265
7552.069
7548.874
7545.562
7539.849
7529.705
7527.994
7523.989
7525.987
7529.757
7531.345
7532.845
7534.945
7536.783
7537.818
7538.909
7541.706
7544.253
7547.06
7549.741
7553.415
7557.958
7563.983
7571.238
7579.009
7585.07
7590.671
7596.103
7602.182
7607.131
7612.62
7618.206
7622.873
7626.527
7624.761
7613.296
7613.621
7629.177
7649.264
7659.901
7667.369
7676.045
7679.451
7682.807
7685.051
7688.78
7692.042
7690.347
7688.136
7687.529
7683.724
7678.251
7677.682
7671.546
7674.625
7677.596
7680.361
7684.123
7683.891
7679.619
7680.213
7666.497
7664.65
7657.278
7649.105
7642.137
7635.109
7628.34
7621.127
7613.672
7605.277
7597.542
7591.046
7585.334
7579.032
7573.178
7567.3
7561.605
7555.897
7549.515
7541.597
7534.98
7527.212
7516.676
7500.434
7487.121
7482.149
6741.616
6529.739
6308.446
6287.071
6210.696
6189.916
6213.057
6277.448
6336.214
6454.084
6605.848
6701.311
6807.367
6883.332
6959.503
7026.289
7088.942
7127.798
7124.341
7199.858
7229.872
7244.584
7255.25
7262.652
7275.023
7283.448
7287.856
7269.425
7246.416
7202.772
7150.346
7095.812
7062.543
7049.076
7035.252
7017.894
7007.236
7015.354
7025.194
7038.881
7067.819
7110.158
7161.404
7220.733
7291.54
7363.382
7433.563
7494.933
7536.744
7555.675
7563.655
7558.675
7539.105
7511.731
7496.785
7490.169
7452.081
7321.184
7139.043
6927.715
6736.653
6601.256
6526.363
6490.816
6503.371
6569.722
6656.838
6768.376
6897.738
7043.142
7205.398
7356.669
7479.414
7567.561
7619.341
7638.94
7636.577
7622.296
7596.885
7566.764
7529.783
7490.022
7453.817
7422.696
7401.869
7393.872
7395.733
7407.021
7418.763
7432.111
7441.718
7480.291
7532.291
7564.887
7574.075
7578.946
7581.387
7577.905
7567.977
7542.123
7476.882
7418.731
7383.892
7360.982
7309.904
7216.837
7010.908
6875.321
7012.5
7130.272
7198.808
7221.705
7224.77
7219.038
7217.954
7222.872
7236.473
7249.85
7264.578
7280.764
7295.793
7312.463
7331.289
7348.378
7359.567
7371.312
7352.646
7305.86
7236.902
7159.25
7090.535
7033.217
6980.082
6937.104
6911.132
6889.159
6874.159
6870.39
6876.47
6891.881
6911.38
6929.598
6952.687
6979.692
7009.742
7039.056
7078.284
7126.823
7178.641
7226.806
7271.901
7310.085
7333.858
7338.702
7330.362
7321.731
7317.859
7315.308
7316.141
7320.744
7331.821
7351.525
7377.523
7410.673
7439.448
7467.269
7486.833
7500.387
7511.042
7520.965
7531.666
7546.754
7566.958
7585.925
7598.946
7601.777
7588.954
7562.176
7557.712
7568.306
7578.945
7589.431
7603.01
7616.575
7621.577
7620.942
7617.9
7614.154
7611.391
7607.689
7602.906
7598.108
7592.837
7586.982
7577.928
7565.225
7558.192
7556.536
7557.639
7558.105
7553.575
7558.321
7571.922
7555.674
7546.25
7537.486
7527.504
7516.523
7502.921
7485.114
7464.377
7443.192
7424.732
7411.261
7402.701
7395.686
7388.882
7382.559
7376.578
7370.223
7362.598
7351.19
7331.708
7303.196
7287.937
7277.733
7274.867
7276.037
7278.706
7281.03
7281.504
7280.097
7276.225
7272.663
7269.239
7261.01
7260.694
7257.509
7249.085
7259.899
7267.422
7278.53
7289.631
7296.862
7303.28
7309.899
7322.363
7340.907
7358.512
7378.11
7396.511
7411.007
7423.221
7434.926
7445.432
7452.942
7460.62
7460.649
7468.737
7478.501
7490.911
7503.537
7519.757
7532.993
7544.579
7555.324
7566.869
7577.091
7586.497
7596.29
7604.891
7611.717
7615.379
7616.671
7612.1
7623.301
7632.511
7639.56
7645.801
7650.34
7652.826
7651.064
7647.956
7645.1
7641.917
7640.232
7642.864
7646.018
7648.54
7650.308
7650.567
7651.497
7651.31
7649.217
7646.06
7642.176
7636.835
7631.455
7628.116
7627.127
7627.026
7627.55
7627.4
7625.994
7623.681
7621.618
7619.643
7616.003
7613.315
7610.941
7608.496
7605.947
7602.994
7599.572
7595.731
7591.522
7587.192
7582.671
7577.861
7572.931
7568.159
7563.888
7560.421
7557.565
7555.142
7552.993
7551.511
7550.658
7549.687
7542.265
7532.032
7523.503
7522.714
7523.374
7526.151
7528.962
7530.915
7532.318
7533.287
7534.329
7535.85
7537.749
7540.26
7543.084
7545.97
7548.402
7552.15
7559.441
7566.603
7573.152
7579.276
7584.183
7588.1
7595.642
7601.609
7608.352
7614.402
7619.097
7624.345
7627.95
7628.159
7622.81
7622.5
7632.959
7647.554
7659.969
7668.594
7673.841
7677.801
7681.185
7684.371
7686.928
7688.7
7690.076
7689.781
7688.654
7685.401
7681.3
7678.759
7677.559
7677.548
7677.588
7679.816
7682.342
7681.422
7677.62
7672.766
7667.584
7661.839
7655.253
7648.125
7640.807
7633.433
7626.161
7618.822
7611.331
7603.934
7596.84
7590.121
7583.834
7577.588
7571.141
7564.887
7558.605
7552.275
7545.76
7538.437
7530.294
7521.513
7511.061
7501.602
7495.392
7491.139
4522.898
4571.864
4658.099
4717.54
4959.357
5127.834
5318.957
5474.643
5529.955
5484.155
6015.393
6095.308
6276.117
6361.915
6444.784
6544.74
6598.299
6662.075
6747.638
6830.346
6917.447
7057.9
7208.603
7366.021
7531.609
7656.641
7715.08
7763.452
7780.559
7482.79
7097.51
6775.661
6645.489
6754.946
6929.662
7018.001
7001.953
6856.708
6699.866
6530.18
6318.056
6203.95
6150.056
6144.144
6172.923
6276.255
6378.739
6496.509
6620.288
6726.565
6816.811
6897.274
6969.235
7032.382
7088.195
7133.309
7168.834
7197.565
7216.762
7227.416
7229.245
7234.15
7259.512
7267.752
7253.672
7233.528
7203.035
7157.297
7096.418
7049.105
7044.383
7042.664
7023.222
7006.495
6994.405
6989.947
6996.846
7016.348
7048.614
7095.128
7153.812
7221.345
7293.824
7367.259
7435.465
7494.901
7528.51
7541.229
7555.034
7560.333
7545.045
7510.51
7457.132
7416.488
7351.4
7202.578
6986.336
6773.67
6625.452
6525.136
6490.993
6484.186
6504.44
6560.167
6628.109
6723.35
6841.251
6974.678
7133.223
7278.614
7395.031
7480.808
7538.092
7564.25
7568.548
7561.274
7543.451
7513.216
7477.019
7438.576
7402.923
7372.914
7352.781
7344.672
7341.944
7351.802
7374.74
7402.34
7426.726
7445.266
7485.675
7536.453
7577.507
7584.182
7584.02
7585.024
7576.58
7548.887
7494.809
7447.297
7366.74
7333.249
7285.893
7121.194
6658.884
6475.875
6848.325
7051.093
7169.329
7198.822
7206.166
7201.77
7199.729
7207.144
7224.487
7240.092
7256.919
7274.482
7291.097
7309.484
7330.338
7350.069
7366.531
7376.093
7342.727
7273.261
7189.924
7119.244
7062.355
7011.751
6961.355
6916.421
6885.61
6863.549
6850.187
6854.743
6865.181
6881.821
6906.223
6931.434
6949.433
6964.531
6991.147
7020.481
7052.553
7102.56
7160.318
7212.792
7257.037
7297.105
7320.362
7309.884
7299.592
7295.759
7304.718
7306.107
7308.523
7314.596
7327.458
7342.231
7363.097
7385.372
7416.744
7447.926
7472.493
7484.987
7492.048
7503.014
7519.354
7539.165
7559.755
7576.155
7586.471
7588.302
7550.263
7524.842
7523.407
7526.507
7528.173
7559.697
7598.473
7611.202
7615.421
7617.059
7614.001
7607.237
7605.039
7604.45
7603.158
7598.039
7598.223
7593.039
7583.91
7573.731
7562.165
7549.052
7538.461
7543.28
7562.081
7573.744
7570.475
7556.491
7536.38
7523.228
7520.525
7522.076
7508.232
7482.515
7452.826
7426.131
7405.629
7396.689
7395.816
7390.456
7384.797
7379.502
7375.225
7367.542
7358.972
7340.213
7311.651
7288.407
7270.867
7270.2
7271.423
7274.294
7281.097
7284.07
7283.741
7280.791
7276.897
7267.474
7257.676
7252.978
7248.392
7255.433
7259.944
7257.812
7249.217
7259.357
7273.237
7280.55
7290.121
7295.878
7314.56
7340.242
7359.811
7381.262
7400.492
7414.085
7424.026
7426.329
7430.484
7440.657
7452.911
7459.854
7464.803
7471.537
7488.461
7505.035
7520.181
7533.91
7546.018
7557.119
7567.762
7577.97
7587.591
7596.688
7604.853
7611.868
7616.888
7620.475
7624.278
7627.572
7630.463
7633.979
7639.5
7645.534
7648.151
7649.363
7647.943
7645.031
7642.383
7643.436
7645.541
7647.494
7649.487
7651.05
7651.89
7651.817
7652.62
7650.918
7645.996
7641.038
7635.907
7630.988
7627.939
7627.181
7627.646
7628.308
7627.965
7626.812
7624.549
7622.064
7619.418
7616.928
7613.999
7611.28
7608.811
7606.331
7603.651
7600.597
7597.453
7593.57
7588.708
7583.583
7578.416
7573.163
7568.433
7564.356
7560.916
7557.94
7555.534
7553.021
7550.17
7546.529
7546.22
7543.515
7536.971
7529.531
7526.92
7525.935
7527.476
7530
7531.603
7532.654
7533.715
7534.757
7535.089
7535.964
7537.976
7540.695
7543.84
7547.838
7554.19
7559.799
7562.696
7567.958
7576.763
7581.642
7585.373
7593.522
7600.186
7604.714
7609.178
7614.546
7618.413
7620.199
7624.574
7622.5
7626.572
7637.871
7652.199
7661.158
7668.078
7673.737
7678.314
7682.09
7684.967
7687.154
7688.677
7689.756
7689.891
7689.313
7687.855
7685.54
7682.916
7681.349
7681.429
7681.958
7682.362
7682.759
7680.503
7676.545
7671.956
7666.867
7661.126
7654.765
7647.943
7640.889
7633.672
7626.221
7618.757
7611.302
7603.645
7596.396
7589.803
7583.155
7576.402
7569.847
7563.449
7557.171
7550.604
7543.634
7536.256
7528.335
7520.014
7512.714
7505.187
7500.579
7496.324
5089.05
5083.272
4991.792
5034.52
4835.347
4712.523
4522.286
4438.732
4282.915
4136.121
4044.707
4028.187
4048.246
4177.938
4388.08
4612.953
4834.618
5062.11
5278.058
5482.584
5710.388
5915.089
5999.978
6092.378
6263.211
6365.423
6437.925
6492.397
6568.869
6661.037
6647.498
6772.446
6871.053
7001.261
7139.946
7279.958
7388.37
7449.181
7474.763
7468.157
7329.611
6976.493
6466.32
6096.195
5984.044
6177.991
6462.102
6630.497
6643.206
6519.613
6345.059
6188.959
6104.324
6077.338
6085.366
6118.254
6188.37
6291.956
6410.943
6536.435
6658.337
6765.975
6854.014
6923.788
6985.638
7045.727
7096.806
7136.33
7170.753
7190.357
7202.718
7204.22
7189.41
7180.291
7184.382
7189.62
7189.414
7177.347
7161.135
7129.982
7091.264
7063.012
7054.52
7042.439
7013.085
6988.278
6966.964
6954.152
6954.398
6970.72
7005.148
7054.721
7117.21
7189.809
7267.063
7344.943
7417.589
7482.178
7525.938
7538.994
7569.752
7592.227
7584.9
7554.747
7517.181
7447.219
7325.136
7135.482
6898.018
6680.129
6547.238
6475.093
6434.036
6429.738
6451.646
6508.158
6581.749
6674.568
6790.474
6917.464
7067.019
7208.663
7321.716
7399.277
7453.575
7489.599
7501.513
7494.621
7476.12
7445.301
7409.636
7371.037
7332.48
7301.517
7277.481
7264.822
7270.043
7280.714
7300.202
7339.672
7377.047
7410.018
7429.796
7450.354
7509.271
7548.139
7572.957
7581.201
7573.859
7548.945
7504.273
7438.318
7348.9
7286.365
7284.954
7091.466
6497.942
6308.763
6960.655
7077.292
7147.445
7169.673
7179.745
7175.287
7176.71
7186.352
7207.482
7226.318
7246.378
7266.763
7287.516
7309.713
7331.741
7353.189
7368.274
7371.509
7335.536
7251.647
7161.032
7093.861
7042.02
6993.748
6949.128
6908.803
6875.263
6846.299
6826.627
6823.08
6842.076
6864.49
6892.418
6923.794
6950.345
6955.808
6945.385
6979.893
6997.888
7052.917
7123.197
7186.686
7240.839
7279.916
7287.994
7294.891
7264.593
7224.588
7257.798
7283.054
7295.493
7304.799
7319.86
7319.505
7340.162
7359.126
7406.041
7431.771
7448.758
7459.408
7469.269
7486.81
7508.953
7531.556
7548.039
7570.147
7585.981
7590.356
7564.399
7519.816
7517.498
7521.158
7533.619
7562.337
7606.339
7619.166
7621.139
7617.237
7612.895
7608.662
7606.053
7604.814
7600.599
7598.686
7591.272
7583.608
7568.762
7556.304
7552.845
7559.316
7565.721
7567.189
7575.626
7567.522
7550.153
7548.562
7530.685
7506.449
7498.012
7494.721
7486.381
7471.357
7444.591
7420.023
7398.039
7392.652
7397.077
7390.758
7383.049
7377.301
7371.941
7364.924
7356.46
7339.795
7312.11
7288.622
7268.244
7267.069
7266.012
7272.686
7284.248
7284.579
7283.748
7279.944
7276.484
7271.08
7262.537
7255.823
7249.196
7248.598
7254.229
7263.187
7275.533
7285.175
7287.759
7274.526
7267.174
7282.76
7308.724
7335.913
7358.591
7378.367
7396.169
7411.949
7425.489
7437.575
7446.867
7445.983
7410.64
7407.947
7410.788
7429.773
7474.176
7501.909
7518.408
7531.988
7544.118
7555.071
7565.291
7575.135
7584.616
7593.568
7602.029
7609.727
7616.368
7621.878
7624.716
7627.89
7632.31
7637.63
7642.805
7647.004
7649.796
7649.918
7648.384
7646.616
7644.793
7644.514
7645.81
7648.431
7648.1
7645.737
7647.278
7651.156
7654.313
7653.303
7647.57
7643.07
7637.611
7631.783
7627.125
7625.748
7626.262
7627.466
7627.943
7627.674
7626.064
7623.134
7619.445
7616.395
7613.881
7611.735
7609.576
7607.226
7604.735
7601.741
7597.973
7593.557
7588.396
7582.497
7576.635
7571.161
7566.195
7561.934
7558.484
7555.359
7552.593
7548.503
7544.118
7546.179
7547.878
7544.903
7536.423
7527.683
7525.438
7525.129
7528.056
7528.844
7528.563
7528.706
7529.377
7530.253
7531.615
7533.433
7535.399
7537.978
7540.488
7546.743
7557.135
7563.087
7562.768
7563.752
7570.705
7579.051
7589.212
7595.757
7599.913
7605.161
7608.556
7613.703
7617.915
7620.029
7626.136
7628.654
7632.765
7640.97
7649.395
7655.845
7662.543
7669.456
7675.028
7680.062
7684.146
7686.921
7688.711
7689.71
7690.256
7690.39
7689.326
7687.626
7686.033
7685.119
7684.308
7683.905
7683.111
7681.37
7678.835
7675.853
7672.058
7667.202
7661.445
7655.105
7648.463
7641.491
7634.211
7626.722
7619.217
7611.642
7604.055
7596.875
7589.789
7582.563
7575.529
7568.742
7562.033
7555.304
7548.503
7541.435
7534.34
7527.52
7520.381
7513.759
7507.769
7503.41
7499.336
5361.01
5378.284
5388.239
5354.659
5361.102
5347.36
5339.822
5315.347
5282.832
5239.8
5200.991
5149.542
5070.5
5000.123
4883.953
4695.222
4521.24
4334.465
4134.545
3980.741
3884.02
3850.752
3876.202
3978.654
4143.581
4352.93
4590.573
4826.65
5065.106
5296.212
5506.679
5703.474
5875.718
6018.124
6139.131
6249.557
6353.981
6441.573
6525.232
6607.179
6659.643
6680.329
6713.521
6765.819
6844.839
6950.096
7069.535
7158.558
7193.434
7183.098
7138.135
6980.283
6596.883
5972.949
5087.622
4922.767
5447.18
5948.445
6197.024
6264.482
6231.636
6134.97
6030.445
5991.724
6002.452
6035.563
6088.907
6173.272
6289.051
6417.204
6543.404
6678.526
6810.577
6895.6
6949.842
6996.758
7052.695
7099.675
7132.017
7160.569
7177.435
7172.694
7147.988
7117.657
7098.996
7096.853
7105.628
7118.924
7120.145
7115.953
7105.352
7085.335
7065.867
7053.612
7031.599
6990.385
6947.881
6911.615
6890.334
6886.317
6899.022
6931.6
6984.194
7054.26
7136.21
7223.082
7310.478
7393.854
7470.737
7538.254
7583.782
7614.225
7644.442
7648.441
7626.315
7576.348
7477.653
7323.034
7117.681
6869.502
6666.742
6529.797
6469.795
6434.03
6428.969
6450.136
6499.589
6573.956
6663.644
6772.259
6892.155
7028.21
7157.127
7265.86
7344.929
7393.633
7420.148
7427.963
7416.589
7396.303
7365.696
7330.004
7293.609
7252.556
7217.659
7196.191
7185.98
7188.152
7199.238
7222.069
7258.676
7297.36
7339.275
7377
7379.413
7419.46
7489.43
7538.038
7557.294
7553.53
7528.752
7489.008
7421.166
7336.967
7274.394
7267.368
7192.702
6759.73
6294.639
7106.048
7130.271
7140.521
7146.812
7150.429
7148.497
7148.97
7159.839
7184.871
7208.413
7232.25
7256.095
7284.099
7312.752
7338.763
7363.33
7373.689
7365.92
7323.474
7235.145
7145.876
7080.781
7030.176
6980.194
6933.773
6892.381
6860.398
6839.021
6829.029
6827.732
6837.35
6857.331
6884.301
6915.227
6946.333
6962.392
6915.237
6841.459
6852.964
6957.773
7072.369
7143.411
7197.272
7221.334
7180.789
7225.004
7254.144
7234.832
7166.365
7235.729
7254.177
7273.985
7271.764
7234.239
7281.656
7361.884
7399.381
7415.709
7416.623
7418.35
7434.158
7462.6
7478.355
7481.442
7513.522
7551.779
7571.349
7574.906
7572.735
7561.705
7535.771
7558.757
7594.84
7611.604
7619.309
7625.464
7620.664
7603.531
7577.945
7574.586
7590.244
7598.836
7596.781
7594.753
7588.756
7577.399
7572.486
7567.817
7557.953
7549.277
7558.206
7559.321
7551.883
7541.994
7536.129
7533.486
7519.908
7505.255
7493.892
7473.873
7455.541
7444.313
7433.767
7418.698
7404.207
7393.02
7392.729
7388.89
7381.857
7376.754
7370.323
7360.722
7351.059
7337.373
7314.622
7296.079
7281.974
7278.244
7276.457
7278.353
7280.971
7283.335
7282.55
7265.022
7269.459
7265.683
7259.185
7253.011
7245.977
7240.982
7249.735
7259.244
7282.15
7278.615
7278.884
7306.845
7305.733
7314.021
7324.131
7339.97
7360.176
7376.16
7391.832
7408.08
7422.364
7435.443
7446.891
7457.882
7465.993
7449.227
7411.101
7417
7462.808
7500.288
7518.285
7531.149
7542.693
7553.091
7562.646
7571.715
7580.977
7590.24
7599.239
7607.664
7615.25
7621.3
7625.601
7629.497
7633.47
7637.451
7641.465
7645.344
7648.499
7649.83
7650.271
7649.544
7648.836
7648.734
7650.348
7652.491
7652.863
7651.787
7649.556
7648.188
7652.277
7654.575
7648.594
7642.624
7637.807
7632.792
7629.169
7627.657
7627.428
7627.3
7626.207
7625.513
7624.487
7622.934
7620.511
7617.697
7615.488
7613.558
7611.065
7608.27
7605.313
7601.937
7597.932
7593.164
7587.499
7581.299
7575.224
7569.779
7565.048
7561.198
7558.168
7555.807
7553.423
7551.225
7547.843
7546.882
7544.7
7542.63
7538.333
7530.246
7529.234
7527.116
7527.511
7530.512
7532.702
7532.043
7530.623
7530.142
7530.366
7531.047
7532.838
7535.899
7541.823
7547.934
7554.491
7557.157
7554.753
7559.679
7568.592
7576.241
7585.39
7591.65
7595.846
7602.847
7606.125
7610.449
7617.008
7620.809
7627.985
7631.68
7635.617
7642.113
7648.972
7655.262
7660.565
7665.701
7672.336
7678.398
7683.459
7687.582
7690.198
7691.276
7691.626
7691.46
7691.112
7690.377
7689.286
7688.301
7686.998
7685.812
7684.043
7681.318
7678.582
7676.498
7673.429
7668.407
7662.106
7655.488
7648.964
7642.001
7634.615
7627.005
7619.467
7611.9
7604.24
7596.781
7589.39
7581.897
7574.508
7567.382
7560.472
7553.603
7546.717
7539.838
7533.075
7526.43
7519.958
7513.874
7508.568
7504.066
7499.694
5469.412
5473.56
5551.096
5413.415
5394.127
5375.508
5347.021
5338.856
5354.561
5371.886
5376.162
5376.999
5370.348
5365.435
5365.091
5357.46
5347.269
5332.501
5302.722
5237.003
5117.02
5037.175
5006.452
4884.132
4743.566
4563.39
4318.097
4083.098
3933.652
3812.758
3750.134
3748.314
3805.24
3920.313
4081.255
4287.993
4515.218
4755.492
4999.224
5232.276
5449.681
5648.631
5825.667
5977.185
6100.22
6205.136
6305.679
6389.384
6457.553
6528.791
6582.081
6605.019
6631.645
6665.51
6712.602
6776.592
6869.386
6938.296
6901.917
6805.797
6761.865
6640.626
6305.66
5707.172
4375.211
3988.444
4434.897
5339.633
5782.855
5965.729
5987.56
5941.444
5907.944
5921.7
5953.008
6002.99
6074.025
6168.671
6291.457
6436.313
6584.629
6726.903
6860.395
6953.891
6986.314
7011.363
7071.242
7112.058
7136.674
7158.529
7163.161
7140.199
7094.225
7036.892
6995.277
7004.296
7020.994
7040.966
7061.887
7071.715
7070.441
7062.374
7054.376
7039.217
6998.578
6938.782
6881.026
6836.05
6803.928
6790.134
6797.855
6835.421
6897.126
6974.347
7069.909
7165.141
7263.545
7358.792
7448.775
7540.914
7624.386
7669.757
7689.964
7700.707
7680.238
7620.37
7502.069
7328.028
7121.725
6893.741
6691.365
6537.828
6414.043
6377.085
6373.621
6426.729
6511.27
6591.631
6674.686
6778.094
6893.686
7015.494
7131.04
7225.904
7291.103
7331.702
7353.48
7358.377
7340.336
7310.2
7270.297
7228.847
7189.611
7148.88
7111.115
7087.842
7081.247
7084.041
7099.557
7130.299
7165.481
7206.528
7254.089
7301.61
7337.415
7341.534
7413.04
7474.197
7511.639
7519.64
7499.189
7462.872
7406.862
7332.743
7268.314
7271.749
7286.021
7027.972
6361.651
7111.799
7133.09
7127.319
7123.842
7117.81
7121.475
7120.597
7127.387
7154.9
7185.586
7216.293
7245.786
7280.005
7317.924
7352.181
7376.081
7387.986
7385.29
7325.689
7239.116
7146.197
7077.764
7023.511
6968.705
6919.294
6874.965
6839.712
6815.24
6804.854
6806.318
6819.803
6841.924
6870.468
6902.365
6934.217
6960.428
6933.907
6753.667
6704.784
6828.244
7049.388
7123.673
7168.396
7177.515
7063.448
7027.149
7207.899
7218.569
7071.92
7089.716
7140.754
7167.354
7125.011
7235.113
7314.268
7358.586
7392.086
7417.008
7368.464
7267.875
7292.241
7345.402
7323.9
7396.382
7510.827
7545.98
7544.443
7534.958
7525.173
7527.386
7554.147
7569.911
7583.764
7591.472
7585.223
7575.751
7520.497
7437.213
7483.687
7567.321
7600.526
7594.671
7586.681
7584.842
7575.423
7558.686
7556.565
7550.892
7532.215
7513.269
7523.506
7531.83
7526.303
7522.3
7524.697
7526.969
7523.649
7510.681
7492.874
7475.268
7450.595
7429.024
7417.742
7409.842
7401.824
7394.333
7390.917
7385.665
7378.431
7372.704
7365.337
7357.52
7347.775
7333.236
7316.035
7301.477
7289.971
7284.007
7287.059
7281.404
7276.758
7279.196
7273.096
7263.364
7261.245
7254.261
7228.061
7216.209
7218.682
7230.268
7245.471
7249.686
7254.299
7266.748
7281.858
7296.04
7305.593
7316.31
7329.015
7343.051
7358.125
7371.316
7387.463
7404.266
7418.637
7431.606
7444.304
7456.726
7468.672
7478.757
7485.239
7491.317
7497.291
7506.45
7518.505
7530.627
7541.599
7551.34
7560.289
7568.564
7576.619
7585.581
7595.07
7604.543
7613.151
7620.391
7624.371
7624.303
7627.891
7634.493
7640.918
7645.273
7648.292
7649.867
7650.759
7651.135
7652.533
7652.768
7652.59
7653.903
7656.576
7658.166
7654.337
7642.616
7637.897
7647.927
7649.203
7641.888
7635.985
7630.852
7628.079
7626.919
7626.611
7626.884
7627.256
7626.433
7624.19
7622.362
7621.097
7619.312
7617.095
7614.784
7612.129
7609.269
7606.067
7602.239
7597.659
7592.408
7586.501
7580.147
7573.729
7568.253
7563.591
7559.99
7557.318
7555.386
7553.769
7552.832
7550.215
7547.228
7544.144
7543.193
7540.03
7531.117
7529.191
7528.822
7526.554
7528.252
7529.586
7528.057
7525.964
7525.102
7525.728
7527.549
7530.444
7533.203
7538.703
7544.596
7548.691
7550.916
7550.154
7554.219
7561.71
7570.136
7580.399
7587.717
7592.858
7598.752
7602.318
7606.099
7613.676
7618.899
7626.327
7631.53
7636.598
7642.735
7649.089
7654.958
7659.549
7663.963
7669.738
7674.704
7680.084
7685.144
7689.051
7691.767
7693.285
7693.488
7693.638
7693.583
7692.82
7691.646
7690.163
7688.474
7686.333
7683.709
7680.665
7676.862
7672.643
7667.772
7662.534
7656.768
7650.307
7643.21
7635.484
7627.519
7619.451
7611.842
7604.434
7596.717
7588.674
7580.752
7573.097
7565.714
7558.55
7551.509
7544.597
7537.678
7531.007
7524.695
7518.84
7513.496
7508.58
7503.793
7500.072
5606.517
5611.292
5601.434
5581.463
5539.331
5496.892
5450.854
5420.306
5402.553
5390.419
5334.28
5330.537
5340.384
5347.452
5355.999
5359.821
5358.377
5359.294
5363.052
5368.562
5390.24
5363.11
5376.514
5362.683
5324.733
5162.175
5062.465
4942.33
4748.399
4542.413
4335.582
4136.372
3947.379
3814.587
3714.512
3663.49
3681.207
3749.783
3875.935
4045.591
4252.88
4476.013
4709.426
4958.212
5187.89
5398.55
5600.244
5778.679
5926.918
6048.4
6153.118
6248.66
6330.516
6392.221
6446.939
6496.976
6528.929
6550.896
6567.966
6590.885
6626.683
6694.664
6750.294
6646.245
6345.323
6356.171
6368.933
6127.465
5687.764
4703.357
3690.574
3641.929
4499.908
5406.205
5723.059
5804.142
5832.994
5868.905
5901.511
5942.283
5998.115
6071.903
6174.505
6304.938
6448.573
6596.288
6748.558
6889.411
6988.951
7032.13
7071.492
7144.6
7186.034
7194.224
7192.993
7175.498
7126.148
7056.249
6974.299
6921.303
6924.357
6951.036
6979.45
7004.275
7017.72
7024.961
7026.358
7022.781
6994.888
6931.708
6858.771
6788.617
6729.759
6694.058
6692.426
6717.685
6766.495
6834.344
6916.733
7012.057
7126.58
7233.863
7333.178
7432.837
7525.817
7621.954
7716.909
7759.836
7740.626
7669.403
7610.514
7507.912
7339.992
7136.282
6926.033
6732.613
6541.537
6468.534
6444.728
6439.877
6447.785
6542.445
6635.736
6719.034
6820.373
6931.123
7035.211
7129.509
7206.836
7254.342
7281.582
7296.131
7290.319
7261.831
7212.377
7151.64
7102.909
7059.964
7015.156
6975.583
6950.071
6946.011
6958.898
6987.302
7026.158
7065.385
7107.484
7154.053
7203.855
7258.465
7303.452
7298.564
7366.341
7442.035
7475.512
7459.999
7430.322
7392.469
7339.838
7299.789
7315.617
7330.489
7243.631
6753.798
6446.241
7111.768
7102.333
7088.472
7080.774
7083.191
7089.21
7099.721
7121.595
7158.895
7197.963
7239.407
7278.343
7319.849
7361.422
7389.77
7403.18
7410.415
7345.48
7254.33
7160.198
7084.054
7024.323
6960.635
6906.041
6859.774
6819.595
6789.017
6769.151
6770.304
6787.942
6819.052
6852.88
6886.949
6920.717
6951.966
6946.616
6795.136
6701.845
6861.379
7053.813
7119.847
7159.556
7176.491
7051.479
6689.278
7110.667
7146.172
7044.544
7054.519
7044.196
7032.418
7101.431
7249.719
7303.864
7348.682
7396.387
7430.525
7361.317
7014.375
6915.018
6927.762
7126.599
7431.322
7527.498
7535.149
7527.158
7501.008
7442.598
7364.656
7305.955
7326.698
7375.375
7414.375
7344.302
7331.886
7330.518
7409.549
7549.8
7594.503
7598.874
7590.845
7579.509
7573.333
7563.242
7549.772
7533.631
7438.218
7333.764
7422.578
7505.448
7521.46
7519.235
7517.192
7517.302
7516.639
7512.059
7497.324
7479.901
7469.692
7455.529
7433.941
7413.374
7397.737
7395.016
7392.388
7387.677
7382.991
7369.265
7361.948
7356.286
7349.036
7340.065
7331.484
7318.479
7304.402
7291.379
7283.358
7281.468
7278.626
7280.98
7279.81
7269.967
7261.314
7256.039
7254.289
7243.872
7233.308
7234.856
7240.492
7244.416
7247.383
7250.215
7255.374
7275.326
7298.023
7309.22
7318.404
7331.887
7345.683
7359.062
7370.623
7383.616
7399.167
7414.421
7428.563
7441.73
7454.574
7466.24
7476.944
7485.744
7492.805
7499.57
7508.641
7519.353
7530.312
7540.302
7549.246
7557.246
7565.03
7573.425
7581.471
7589.961
7599.502
7609.881
7618.614
7623.923
7609.759
7604.523
7618.537
7635.735
7644.064
7647.723
7650.109
7651.759
7653.539
7654.918
7655.146
7655.318
7656.231
7657.958
7659.046
7658.865
7645.492
7631.165
7634.299
7641.229
7642.618
7638.188
7631.837
7627.452
7625.607
7625.506
7626.429
7627.508
7627.899
7626.878
7625.105
7622.845
7619.866
7617.239
7615.098
7612.979
7610.054
7606.271
7601.745
7596.7
7591.203
7585.153
7578.851
7572.811
7567.57
7563.491
7560.466
7558.241
7556.853
7555.743
7554.309
7552.129
7550.689
7547.503
7543.423
7539.437
7533.212
7529.727
7530.878
7530.792
7529.557
7528.4
7526.553
7526.234
7525.861
7526.218
7526.665
7528.28
7531.127
7535.782
7540.992
7545.354
7549.085
7552.462
7557.148
7560.194
7565.718
7573.766
7582.687
7589.867
7596.263
7601.398
7606.222
7612.641
7618.573
7625.48
7631.487
7637.275
7643.437
7649.604
7655.617
7661.439
7666.688
7671.038
7674.16
7678.223
7682.753
7687.217
7690.722
7693.003
7694.284
7695.012
7694.985
7695.077
7694.476
7692.638
7690.892
7689.2
7686.961
7683.815
7678.806
7673.374
7668.071
7663.14
7657.338
7650.681
7644.215
7636.886
7628.8
7620.445
7612.314
7604.516
7596.518
7588.156
7579.917
7571.882
7564.572
7557.447
7549.792
7542.378
7535.4
7528.897
7522.911
7517.42
7512.389
7507.526
7502.847
7499.546
5602.436
5602.064
5584.678
5555.046
5505.971
5447.937
5392.578
5357.335
5349.51
5357.394
5359.641
5358.946
5359.757
5363.548
5362.687
5357.166
5350.835
5350.915
5367.666
5379.529
5390.171
5394.34
5387.541
5376.319
5264.539
5127.054
4986.775
4816.207
4610.702
4394.141
4180.61
4005.074
3856.428
3713.087
3637.372
3616.13
3650.15
3726.335
3849.964
4015.879
4215.722
4439.022
4666.722
4910.866
5142.77
5351.794
5554.946
5734.937
5877.252
6000.675
6103.215
6189.046
6259.394
6312.146
6358.956
6405.486
6436.67
6459.269
6478.384
6497.408
6520.195
6563.599
6603.985
6486.604
6160.008
6065.822
6118.611
6065.698
5761.977
5225.635
3793.103
3370.705
3502.205
4796.787
5554.346
5731.802
5780.68
5837.729
5886.164
5943.908
6015.225
6096.374
6196.028
6316.248
6451.893
6600.069
6757.836
6908.602
7036.321
7112.751
7198.083
7294.317
7304.851
7280.652
7251.785
7214.377
7142.941
7048.336
6948.354
6889.496
6881.307