/*--------------------------------*- C++ -*----------------------------------*\
| =========                 |                                                 |
| \\      /  F ield         | foam-extend: Open Source CFD                    |
|  \\    /   O peration     | Version:     3.1                                |
|   \\  /    A nd           | Web:         http://www.extend-project.de       |
|    \\/     M anipulation  |                                                 |
\*---------------------------------------------------------------------------*/
FoamFile
{
    version     2.0;
    format      ascii;
    class       volScalarField;
    location    "16";
    object      omega;
}
// * * * * * * * * * * * * * * * * * * * * * * * * * * * * * * * * * * * * * //

dimensions      [0 0 -1 0 0 0 0];

internalField   nonuniform List<scalar> 
119952
(
400.485
510.5303
485.2527
423.3626
380.358
383.6432
390.0941
398.2025
407.429
417.4977
428.267
439.6501
451.5976
464.092
477.1495
490.7992
505.0859
520.1156
536.1688
554.5351
465.0492
463.3219
468.1382
393.5889
385.4683
380.8687
377.0499
373.4489
366.1769
200.1623
827.6379
693.9892
587.333
510.1522
452.3695
407.7453
371.9799
342.6245
317.918
290.4676
244.5911
212.24
189.7005
172.9845
159.867
149.0686
139.9014
131.9561
124.985
97.41713
93.59943
89.85178
86.19815
82.73095
79.50163
76.5284
73.80569
71.30742
69.01753
66.99866
65.07698
63.22266
61.44912
59.75748
58.14681
56.60458
55.09736
53.62336
53.25398
53.05835
52.47195
52.00393
51.68798
51.47089
51.26562
51.11795
51.0016
50.91181
50.84207
50.79088
50.75787
50.74126
50.7386
50.74586
50.75682
50.75558
50.69896
50.50007
50.24878
50.03412
49.66469
49.26631
49.19154
49.34194
49.739
50.75701
53.23995
56.90405
57.79325
58.38942
58.64587
58.79764
58.93165
59.06782
59.22483
59.41257
59.63453
59.89149
60.18205
60.5035
60.85271
61.22687
61.62305
62.03692
62.46068
62.88122
63.27942
63.63165
63.91339
64.10364
64.18889
64.16541
64.03963
63.82688
63.54912
63.23243
62.90461
62.59366
62.32696
62.13143
62.03418
62.06336
62.24883
62.62095
63.20408
63.99961
64.95817
65.96239
66.85765
67.52033
67.89795
67.99181
67.79767
67.30505
66.52049
65.45015
64.09163
62.64428
61.07479
59.42822
57.75201
56.10628
54.53949
53.09532
51.82127
50.77786
50.04205
49.70375
49.96325
51.31119
54.49981
60.47787
69.15764
77.83178
84.16311
88.34905
91.29536
93.24181
94.07481
93.63133
91.89307
88.98848
85.25525
81.1145
76.94881
73.08116
69.58759
66.45176
63.67085
61.26163
59.24067
57.61007
56.35504
55.45179
54.87395
54.59846
54.61005
54.90837
55.56862
56.85879
58.87915
61.74549
65.78849
71.99741
84.15056
110.8179
132.454
149.8842
176.2412
182.6261
172.226
154.8381
138.0342
124.1472
113.6027
105.3073
98.38495
93.01942
89.21881
86.35596
84.19808
82.5258
81.20813
80.16216
79.3404
78.73486
78.35122
78.20725
78.31491
78.66984
79.26586
80.09799
81.13704
82.47702
84.24584
86.39806
88.92928
91.83895
95.02519
98.30167
101.4502
103.9704
104.4257
103.0069
101.4396
99.56854
97.4794
95.22802
92.84385
90.3581
87.79482
85.22591
82.70703
80.27848
77.96837
75.79611
73.76826
71.88022
70.12313
68.48682
66.96103
65.54078
64.21653
62.98004
61.82269
60.73402
59.70641
58.73555
57.81702
56.94523
56.11318
55.31478
54.54568
53.80305
53.08152
52.37501
51.67883
43.02299
41.88508
40.63301
39.37666
38.20641
37.14751
36.20559
35.37261
34.63622
33.98471
33.40908
32.90309
32.46258
32.08449
31.76621
31.50483
31.29615
31.13412
31.01137
30.92119
30.85726
30.81369
30.78621
30.77219
30.77082
30.77443
30.788
30.81676
30.85825
30.90934
30.96332
30.99631
30.99876
30.97233
30.92349
30.86195
30.80112
30.75523
30.71203
30.6534
30.56195
30.44872
30.3298
30.21122
30.0977
29.9945
29.9001
29.81051
29.72463
29.6414
29.55959
29.47759
29.39254
29.30339
29.19318
28.9033
28.49523
28.03952
27.59164
27.17939
26.81118
26.48531
26.19664
25.94049
25.7142
25.51659
25.34695
25.20491
25.09037
25.00345
24.94422
24.91251
24.9078
24.92917
24.9749
25.04192
25.12562
25.22036
25.32105
25.42399
25.52711
25.6305
25.73557
25.84286
25.9522
26.06304
26.17423
26.28344
26.38555
26.47807
26.5646
26.64672
26.72502
26.80049
26.87386
26.94118
26.99933
27.04624
27.08042
27.10081
27.10673
27.098
27.07496
27.0386
26.99043
26.93255
26.86746
26.798
26.72712
26.65781
26.5929
26.53495
26.48616
26.44836
26.4229
26.41078
26.41254
26.42834
26.45779
26.49983
26.55295
26.61497
26.68308
26.75376
26.82302
26.88643
26.93946
26.97738
26.99569
26.98821
26.94534
26.86295
26.73652
26.55943
26.32078
25.99772
25.54328
24.91179
24.64725
752.4049
623.2239
559.368
514.0673
475.4347
441.1494
410.6419
383.5579
358.4549
297.997
234.8922
198.0174
174.9961
159.5609
148.4779
139.9738
133.067
127.1993
100.6597
96.13628
91.78856
87.71717
84.00595
80.68251
77.72372
75.09033
72.73774
70.60916
68.7466
67.01048
65.29931
63.62114
61.98922
60.41887
58.92185
57.50381
56.16293
55.20367
54.53653
53.74783
52.87882
51.96726
51.03569
50.10229
49.18175
48.28372
47.41779
46.58581
45.77827
44.99779
44.24056
43.50175
42.781
42.08018
41.40261
40.76254
36.58229
36.08378
35.60853
35.15331
34.71472
34.29029
33.87924
33.48086
33.09435
32.71661
32.3464
31.98591
31.63488
31.29258
30.9595
30.63716
30.3275
30.03835
29.78395
29.55757
29.32295
29.09611
28.89688
28.72082
28.55318
28.3911
28.2361
28.09353
27.96262
27.84038
27.72611
27.61896
27.51784
27.42177
27.3296
27.23978
27.1493
27.05535
26.9554
26.85555
26.75802
26.66943
26.61163
26.60414
26.65145
26.7489
26.90263
27.09246
27.23585
27.32126
27.42159
27.517
27.60959
27.70581
27.80602
27.91125
28.02292
28.14216
28.26981
28.40622
28.55125
28.70441
28.8651
29.03263
29.20589
29.38263
29.55883
29.72836
29.88342
30.01552
30.11691
30.18176
30.20707
30.19307
30.14301
30.06264
29.95953
29.84241
29.72059
29.60363
29.501
29.42183
29.37456
29.36634
29.40219
29.4836
29.60697
29.76296
29.9381
30.11861
30.29331
30.45324
30.58798
30.68453
30.72778
30.7038
30.60092
30.41446
30.15543
29.8323
29.43782
28.98059
28.47455
27.93812
27.39334
26.86507
26.38075
25.97129
25.67495
25.54461
25.65736
26.11689
27.00729
28.23382
29.6759
31.31206
33.21678
35.43459
37.90453
40.46621
42.90791
45.02073
46.64071
47.69756
48.22119
48.27488
47.88267
46.9848
45.6526
43.997
42.14324
40.21478
38.3179
36.53249
34.9119
33.4842
32.25835
31.23027
30.38712
29.71129
29.20018
28.87754
28.82163
29.12789
30.00094
31.80735
34.541
37.96515
42.1596
50.27079
58.24712
66.15652
73.61546
79.61221
83.2251
83.92027
81.81189
77.56017
71.92062
65.66672
59.54213
54.04169
49.36177
45.47658
42.25941
39.57787
37.31707
35.39008
33.73711
32.31543
31.09436
30.05206
29.17373
28.45075
27.88034
27.46138
27.19375
27.0789
27.11944
27.31352
27.64964
28.10527
28.64073
29.22596
29.85736
30.55415
31.30259
32.07393
32.82886
33.52253
34.11043
34.55338
34.82173
34.89816
34.77972
34.47652
34.0117
33.41639
32.72453
31.97002
31.18468
30.39565
29.62275
28.87885
28.17217
27.50649
26.88177
26.2973
25.75238
25.24593
24.77744
24.34553
23.94433
23.56867
23.21392
22.87551
22.55379
22.24946
20.76617
20.45084
20.15414
19.86108
19.5665
19.26958
18.9709
18.67209
18.37592
18.0861
17.80713
17.54415
17.30269
17.08834
16.90635
16.76121
16.65621
16.59297
16.57104
16.58756
16.63742
16.71453
16.815
16.93368
17.05958
17.18167
17.29013
17.37684
17.43553
17.46179
17.45318
17.40937
17.33206
17.22474
17.09222
16.94017
16.77459
16.60153
16.42707
16.25729
16.09788
15.95043
15.80911
15.6773
15.55709
15.44922
15.35331
15.26875
15.19468
15.12993
15.07305
15.02241
14.97619
14.93276
14.88932
14.84136
14.78569
14.72025
14.64418
14.55671
14.45587
14.34136
14.21432
14.07715
13.93346
13.78707
13.63971
13.49307
13.34886
13.20864
13.07375
12.94532
12.82421
12.71104
12.60613
12.50951
12.42096
12.34014
12.2666
12.19988
12.13945
12.08481
12.03549
11.9911
11.95136
11.91612
11.88541
11.85949
11.83824
11.82112
11.80757
11.79703
11.789
11.78305
11.77877
11.77574
11.77352
11.77163
11.76951
11.76653
11.76207
11.75549
11.74625
11.73394
11.71832
11.6994
11.67737
11.65272
11.62613
11.5985
11.57086
11.54438
11.5203
11.49986
11.48432
11.47486
11.47258
11.47847
11.4933
11.5177
11.55195
11.5962
11.65016
11.71342
11.78511
11.86436
11.94982
12.0402
12.1337
12.22873
12.32324
12.41788
12.50963
12.59203
12.66092
12.71184
12.74628
12.77542
12.79653
623.8925
551.4113
492.1316
448.6067
415.5249
390.0023
370.1356
355.052
344.2076
329.2615
188.6956
176.1245
165.4563
155.9721
147.8826
141.6038
138.7528
136.4071
126.9251
84.61192
82.87984
82.25944
81.6449
80.9734
80.26614
79.56433
78.81929
77.96219
76.43137
73.36093
71.13044
69.71219
68.65986
67.74874
66.88784
66.04212
65.19815
64.35268
64.42543
63.64153
62.52656
61.31936
60.13177
59.00478
57.94735
56.95502
56.02112
55.14529
54.29618
53.45688
52.61839
51.77926
50.94576
50.12541
49.32431
48.55521
44.86501
44.21393
43.59343
42.99481
42.41246
41.84232
41.28286
40.7342
40.1979
39.6741
39.16057
38.65804
38.16689
37.68455
37.20977
36.74313
36.28589
35.83973
35.40562
34.98207
34.5682
34.16474
33.77015
33.38276
33.00261
32.63086
32.26873
31.91659
31.57294
31.23707
30.90777
30.58245
30.26008
29.94166
29.62893
29.32399
29.02702
28.72934
28.48717
28.24451
28.00166
27.7583
27.51507
27.27369
27.03625
26.80403
26.57714
26.35466
26.13592
25.92023
25.70784
25.50001
25.29915
25.10717
24.92611
24.75653
24.59895
24.45091
24.30576
24.16185
24.02492
23.897
23.77503
23.65543
23.53692
23.4202
23.30716
23.20019
23.09796
22.99973
22.9047
22.81222
22.72226
22.63507
22.55057
22.46842
22.38813
22.31063
22.23924
22.17487
22.1246
22.09744
22.09756
22.11359
22.14383
22.17812
22.19999
22.20786
22.21116
22.22027
22.23386
22.25151
22.27358
22.30046
22.33297
22.3721
22.41855
22.47243
22.5333
22.60045
22.67322
22.75124
22.83423
22.92137
23.01059
23.09815
23.17885
23.2467
23.29595
23.32202
23.32217
23.29588
23.24473
23.17207
23.08253
22.98156
22.87508
22.76913
22.66964
22.58217
22.51162
22.46195
22.43568
22.43348
22.45376
22.4927
22.54482
22.60408
22.66477
22.72121
22.76722
22.79577
22.79943
22.77119
22.70557
22.59863
22.45063
22.27179
22.06596
21.83646
21.58868
21.33056
21.07278
20.82817
20.61087
20.43649
20.3227
20.29002
20.36249
20.56489
20.91787
21.43745
22.10015
22.91769
23.92312
25.12651
26.49498
27.9597
29.43441
30.82329
32.02704
32.98536
33.70185
34.20446
34.53049
34.69751
34.65196
34.36639
33.84177
33.11104
32.23171
31.27355
30.3051
29.38321
28.54598
27.81362
27.18931
26.66512
26.22849
25.87861
25.63105
25.52533
25.62693
26.02672
26.77243
27.9356
29.37878
31.1406
33.25038
35.70081
38.36935
41.01982
43.37201
45.19787
46.39299
46.96714
46.97137
46.45972
45.48857
44.12732
42.46236
40.60532
38.6548
36.69358
34.7844
32.96912
31.27046
29.69702
28.25115
26.93169
25.73533
24.65787
23.69523
22.84378
22.09995
21.4605
20.92325
20.48506
20.14117
19.88729
19.72029
19.63954
19.6459
19.74002
19.91969
20.18031
20.51471
20.91258
21.36039
21.84136
22.33553
22.8205
23.27406
23.6762
24.0088
24.2572
24.41146
24.46732
24.42666
24.29682
24.0882
23.81371
23.4872
23.12263
22.73313
22.33041
21.9236
21.51953
21.12306
20.7379
20.36609
20.00922
19.66732
19.34086
19.02614
18.72215
18.46068
18.20254
17.94548
17.69213
17.44381
17.19988
16.95918
16.72111
16.4858
16.25398
16.02698
15.80689
15.59667
15.39994
15.22068
15.06305
14.93099
14.82791
14.75625
14.71767
14.71288
14.74069
14.79521
14.86882
14.95268
15.0373
15.11338
15.17259
15.20809
15.21498
15.1905
15.13403
15.04695
14.93228
14.79435
14.63835
14.4699
14.29473
14.11841
13.94626
13.78326
13.63423
13.50024
13.37877
13.26976
13.17291
13.0876
13.01306
12.94834
12.89231
12.84366
12.80099
12.76262
12.72658
12.69059
12.65243
12.60915
12.55781
12.49613
12.42215
12.33525
12.23545
12.12343
12.00069
11.86924
11.73084
11.58801
11.44323
11.29774
11.15288
11.00996
10.86978
10.73322
10.60111
10.47419
10.35302
10.238
10.12934
10.02706
9.931077
9.841165
9.757045
9.678407
9.604966
9.536507
9.472927
9.41429
9.360902
9.312449
9.268183
9.22755
9.190073
9.155358
9.123093
9.093031
9.064962
9.038673
9.013916
8.990383
8.967706
8.945463
8.923205
8.900489
8.876916
8.85217
8.826053
8.798509
8.769638
8.739696
8.70909
8.678356
8.648135
8.619143
8.59214
8.567902
8.54719
8.530736
8.519191
8.513153
8.513085
8.519388
8.532277
8.551935
8.578306
8.6114
8.650913
8.696796
8.748485
8.805934
8.868362
8.935695
9.006833
9.082099
9.16178
9.2437
9.327716
9.412062
9.498203
9.582061
356.9752
259.4504
371.1617
168.5596
132.5764
98.10339
85.16244
74.31968
65.3021
60.99299
59.22581
58.28457
57.40765
56.60729
55.82622
55.12109
54.47501
53.86835
53.35257
52.97732
52.68115
52.51774
52.64674
52.9443
53.28754
53.66877
54.0806
54.5181
54.95552
55.31612
55.51062
54.26564
54.80101
55.41612
55.90807
56.30052
56.58266
56.74799
56.7866
56.70645
56.52349
56.21731
55.80985
55.3272
54.78502
54.19273
53.55823
52.88904
52.19215
51.47482
50.74732
50.01589
49.27588
48.52878
47.77779
47.02603
46.27671
45.53468
44.8026
44.08407
43.38006
42.6915
42.01845
41.3612
40.72143
40.09941
39.49855
38.90877
38.37466
37.85173
37.34174
36.84179
36.34992
35.8662
35.3921
34.92977
34.48091
34.04615
33.62449
33.2141
32.81244
32.41719
32.02761
31.64487
31.27126
30.90899
30.55904
30.2207
29.89167
29.56892
29.24984
28.93359
28.62137
28.31578
28.01941
27.7336
27.45787
27.1901
26.92735
26.66663
26.40687
26.14898
25.89591
25.65031
25.41463
25.18785
24.97046
24.75925
24.55116
24.34479
24.14119
23.94291
23.75247
23.57109
23.39833
23.23257
23.07169
22.9142
22.76071
22.6134
22.47482
22.34674
22.22937
22.12079
22.01839
21.92013
21.82356
21.72789
21.63577
21.54913
21.46642
21.38474
21.30274
21.22105
21.14095
21.06341
20.98911
20.91698
20.84617
20.77631
20.70799
20.64203
20.5789
20.51852
20.46071
20.40547
20.3533
20.30524
20.26419
20.23258
20.2108
20.19371
20.17747
20.15778
20.13096
20.09766
20.06488
20.03684
20.01299
19.9925
19.97478
19.95994
19.94886
19.94265
19.94203
19.94704
19.957
19.97098
19.98832
20.00899
20.03342
20.0618
20.09324
20.12528
20.15401
20.17471
20.18274
20.17438
20.14738
20.10125
20.03716
19.95755
19.86573
19.76553
19.66106
19.55643
19.4556
19.36218
19.27927
19.20926
19.15364
19.11281
19.08605
19.07151
19.06655
19.06804
19.07265
19.07674
19.07637
19.06733
19.04535
19.00656
18.94779
18.86693
18.7637
18.64296
18.5104
18.36915
18.22378
18.08057
17.94751
17.83385
17.74962
17.70533
17.71096
17.77478
17.90254
18.09671
18.35713
18.68641
19.0982
19.60106
20.20478
20.91064
21.70198
22.54833
23.41513
24.26378
25.04686
25.72653
26.29715
26.76836
27.15118
27.45592
27.67204
27.77592
27.75383
27.60778
27.35656
27.03245
26.67429
26.31874
25.99241
25.70917
25.46912
25.26159
25.07164
24.88914
24.71339
24.55616
24.43898
24.38915
24.4506
24.69207
25.14655
25.8413
26.79251
27.99753
29.41053
30.93503
32.44855
33.80596
34.91202
35.72114
36.21666
36.39393
36.26702
35.86072
35.20919
34.35872
33.35637
32.24927
31.08003
29.88415
28.68818
27.51452
26.37771
25.28799
24.25266
23.27682
22.36446
21.51871
20.74171
20.03508
19.4
18.8366
18.34472
17.92387
17.57392
17.29514
17.08804
16.95328
16.89056
16.89861
16.97531
17.11738
17.32011
17.57691
17.87909
18.21565
18.57376
18.9392
19.29758
19.63568
19.94074
20.20182
20.41081
20.56237
20.65383
20.68539
20.65989
20.58217
20.45854
20.29626
20.1027
19.88495
19.6493
19.40115
19.14511
18.88447
18.62249
18.36102
18.10293
17.84703
17.59667
17.35191
17.1134
16.88151
16.65607
16.43658
16.22258
16.01379
15.81002
15.61116
15.41731
15.22908
15.04745
14.87386
14.71024
14.55896
14.4228
14.30473
14.2078
14.13445
14.08594
14.06211
14.06105
14.07911
14.11096
14.14992
14.18858
14.21947
14.23576
14.23189
14.20403
14.15027
14.07065
13.96697
13.84242
13.70124
13.54822
13.38836
13.22652
13.06728
12.91479
12.77264
12.64362
12.52686
12.42133
12.32622
12.24064
12.16366
12.09437
12.03175
11.97472
11.9221
11.87254
11.82466
11.77656
11.72563
11.66927
11.60528
11.53196
11.44835
11.35486
11.25201
11.14046
11.0211
10.89499
10.76342
10.62795
10.48938
10.34841
10.20588
10.06251
9.919166
9.776848
9.63661
9.499491
9.366476
9.23844
9.115768
8.998676
8.887288
8.781625
8.681611
8.587092
8.497886
8.413813
8.334733
8.260568
8.191333
8.126869
8.066568
8.009954
7.95661
7.906199
7.858466
7.813227
7.770337
7.729663
7.691046
7.654284
7.619126
7.585269
7.55238
7.520112
7.488137
7.456166
7.423979
7.391448
7.358544
7.325348
7.292044
7.258913
7.226311
7.194653
7.164391
7.135992
7.10992
7.086621
7.0665
7.049936
7.037238
7.028689
7.024487
7.024829
7.029804
7.039571
7.054144
7.073715
7.098243
7.128032
7.163046
7.203734
7.250012
7.302402
7.361585
7.427824
7.500939
7.581114
7.667539
7.757544
316.3984
213.1113
161.0716
143.9992
117.4147
98.80611
85.24996
80.04245
74.17938
70.77855
67.8371
63.86005
59.85594
56.05476
52.56876
48.7243
42.76846
41.38499
40.36993
39.81355
39.66178
39.77221
39.99478
40.27622
40.61044
40.99787
41.45064
41.99069
42.58856
43.22696
43.89963
44.60147
45.32584
46.06956
46.82664
47.59634
48.38075
49.18556
50.0298
50.9361
51.88656
52.78182
53.43039
54.08066
54.66022
55.10284
55.39402
55.5266
55.49999
55.3204
55.00178
54.56799
54.02925
53.39596
52.68298
51.90752
51.08505
50.22935
49.35258
48.46454
47.5733
46.6839
45.80235
44.9313
44.07308
43.22924
42.40212
41.59363
40.807
40.04701
39.31545
38.61206
37.93525
37.28318
36.65444
36.04903
35.46751
34.91136
34.37978
33.87226
33.38796
32.92383
32.474
32.03389
31.60213
31.18005
30.77066
30.37715
30.00128
29.64197
29.29552
28.95726
28.62326
28.29178
27.96413
27.6441
27.33597
27.04244
26.76324
26.49489
26.23214
25.97034
25.70739
25.44451
25.18576
24.93618
24.69928
24.47552
24.26162
24.05253
23.8436
23.6327
23.42123
23.21367
23.01518
22.82959
22.65757
22.49672
22.34223
22.18972
22.03807
21.88961
21.74866
21.61924
21.50312
21.39923
21.3045
21.21529
21.12982
21.04981
20.97872
20.91926
20.8718
20.83416
20.80216
20.77118
20.73869
20.70485
20.67161
20.64144
20.61478
20.58928
20.56195
20.53196
20.50076
20.47012
20.44063
20.41182
20.38332
20.35409
20.32411
20.29431
20.26563
20.23825
20.21155
20.18424
20.15506
20.12357
20.09036
20.05693
20.02428
19.99165
19.95514
19.91086
19.85681
19.79427
19.72764
19.66187
19.59968
19.54111
19.48479
19.42965
19.37585
19.32465
19.27754
19.23541
19.19811
19.16457
19.13339
19.10367
19.07553
19.04997
19.028
19.00958
18.99299
18.97503
18.95171
18.91911
18.87423
18.81543
18.74264
18.65717
18.56123
18.45754
18.34904
18.23872
18.12945
18.02391
17.92441
17.83283
17.7505
17.67814
17.61582
17.563
17.51859
17.4811
17.44874
17.41952
17.39127
17.36162
17.32816
17.28845
17.24034
17.18216
17.11289
17.03256
16.94414
16.85409
16.7659
16.68478
16.61782
16.57372
16.56214
16.59301
16.6753
16.81424
17.00856
17.25056
17.52898
17.83204
18.15115
18.48681
18.85402
19.26678
19.72366
20.21797
20.74067
21.28129
21.82488
22.35083
22.84044
23.2858
23.68449
24.03622
24.34503
24.60366
24.80133
24.9333
25.00323
25.02374
25.01475
24.99887
24.99491
25.01224
25.0485
25.09132
25.12107
25.11511
25.05708
24.94878
24.79225
24.59199
24.35963
24.12857
23.95125
23.87465
23.93667
24.16667
24.58045
25.17247
25.91014
26.73145
27.56128
28.32573
28.96487
29.43627
29.71474
29.79115
29.67028
29.37453
28.92006
28.33693
27.65653
26.90853
26.11869
25.30658
24.49002
23.67968
22.883
22.1056
21.35161
20.62499
19.92952
19.26883
18.64643
18.0657
17.52953
17.04022
16.59977
16.20993
15.87219
15.58783
15.35781
15.18258
15.06211
14.996
14.9834
15.02288
15.11212
15.24764
15.42463
15.63693
15.87723
16.13738
16.40815
16.6796
16.94228
17.18721
17.40664
17.59505
17.74855
17.86484
17.94313
17.98431
17.99079
17.9658
17.91266
17.83551
17.73801
17.6236
17.49503
17.35482
17.20488
17.04721
16.88307
16.71429
16.54205
16.367
16.1901
16.01268
15.83608
15.66154
15.49015
15.32274
15.1599
15.00222
14.85022
14.70444
14.56549
14.43407
14.31111
14.19773
14.09529
14.00515
13.92863
13.86693
13.82076
13.79004
13.77368
13.76934
13.77345
13.78139
13.78789
13.78751
13.77527
13.74713
13.70038
13.63386
13.54792
13.4443
13.32579
13.19588
13.05839
12.91713
12.77569
12.63732
12.50475
12.38016
12.26414
12.15577
12.05412
11.95814
11.86703
11.78017
11.6969
11.61648
11.53814
11.46115
11.38458
11.30669
11.22548
11.13984
11.04937
10.95398
10.85391
10.7495
10.64106
10.5289
10.41346
10.29508
10.17356
10.04839
9.919185
9.78647
9.650783
9.512706
9.373189
9.233242
9.093912
8.956253
8.821242
8.68954
8.561674
8.438149
8.31938
8.205696
8.097312
7.994162
7.896142
7.803135
7.715022
7.631688
7.553036
7.478913
7.408874
7.342497
7.279411
7.219314
7.161987
7.107279
7.055081
7.005296
6.95781
6.912472
6.869089
6.82743
6.787233
6.748221
6.710124
6.672697
6.635738
6.599108
6.562736
6.526629
6.490869
6.455604
6.421039
6.387419
6.355017
6.324115
6.294989
6.267907
6.24311
6.220821
6.201228
6.184503
6.170787
6.160219
6.152908
6.149001
6.148617
6.151963
6.159208
6.170685
6.186684
6.207715
6.23418
6.266738
6.306087
6.35305
6.408014
6.471531
6.543286
6.620248
160.7883
118.7002
182.3545
89.73797
77.01407
66.15466
63.00653
60.82751
58.42057
57.55211
56.36316
54.57846
52.91023
51.10688
48.93499
44.47112
43.49366
42.57155
41.67081
40.79604
39.90128
39.03541
38.25675
37.60261
37.09891
36.75352
36.48549
36.21271
36.12691
36.25465
36.5766
37.033
37.55928
38.12696
38.72932
39.37609
40.07139
40.79863
41.54947
42.32073
43.10914
43.91096
44.71954
45.53102
46.34912
47.18331
48.03146
48.89474
49.79122
50.75639
51.65644
52.44474
53.04031
53.52364
53.81881
53.90038
53.77794
53.46581
52.98091
52.34456
51.58105
50.71516
49.76947
48.76308
47.71348
46.63849
45.55354
44.47285
43.40812
42.36782
41.35781
40.38161
39.4405
38.53599
37.66881
36.84686
36.06923
35.33479
34.64252
33.99249
33.3799
32.80054
32.2503
31.72469
31.22013
30.73521
30.2709
29.82964
29.41427
29.02502
28.65877
28.30986
27.97131
27.63729
27.30526
26.97657
26.65577
26.34875
26.0596
25.78812
25.52994
25.27851
25.02749
24.77315
24.51614
24.2615
24.01669
23.78779
23.57651
23.37859
23.18629
22.99211
22.79171
22.58601
22.38094
22.18462
22.00347
21.83961
21.6896
21.54635
21.40309
21.25667
21.10937
20.96806
20.84097
20.73401
20.64775
20.57785
20.51765
20.46195
20.41133
20.37085
20.34684
20.34321
20.35891
20.38848
20.42566
20.46552
20.50864
20.56125
20.62901
20.71307
20.80884
20.90715
20.99752
21.07437
21.13976
21.20128
21.26549
21.33377
21.40209
21.46487
21.51642
21.55917
21.59849
21.63748
21.67542
21.7106
21.74273
21.77129
21.79732
21.82231
21.84632
21.86727
21.88161
21.88194
21.87042
21.84695
21.81204
21.76724
21.71271
21.64654
21.56252
21.45876
21.33488
21.20092
21.06391
20.9291
20.79888
20.67282
20.54889
20.42565
20.30365
20.18483
20.07126
19.96403
19.86294
19.76643
19.67245
19.57955
19.48771
19.39822
19.31267
19.23161
19.15386
19.07669
18.99666
18.91057
18.81615
18.71255
18.60032
18.48116
18.35728
18.23103
18.10462
17.98008
17.85921
17.7435
17.63412
17.53185
17.43709
17.34985
17.2698
17.19631
17.12863
17.06589
17.00716
16.95148
16.89785
16.84527
16.7927
16.73911
16.68361
16.62557
16.56485
16.50212
16.44024
16.38812
16.35204
16.34086
16.36663
16.44257
16.58119
16.7938
17.08963
17.4672
17.90555
18.37214
18.83513
19.26812
19.65023
19.97169
20.24395
20.50601
20.77181
21.04627
21.33665
21.64662
21.97311
22.30944
22.64625
22.97279
23.27997
23.56251
23.82197
24.05333
24.25499
24.43064
24.58873
24.74222
24.9066
25.09568
25.31646
25.56577
25.83054
26.0859
26.29334
26.40795
26.39923
26.28108
26.06251
25.75028
25.35974
24.92237
24.48041
24.07526
23.74529
23.5236
23.43431
23.48657
23.67207
23.96534
24.3272
24.70953
25.06303
25.34452
25.52145
25.57381
25.49419
25.28683
24.96383
24.54337
24.04672
23.49559
22.90984
22.30594
21.69643
21.08988
20.49161
19.90476
19.33117
18.77223
18.22947
17.7048
17.20058
16.71954
16.26452
15.8383
15.44344
15.08228
14.75677
14.46856
14.21891
14.00867
13.83836
13.70822
13.61826
13.56818
13.55728
13.58433
13.6474
13.74381
13.87008
14.02182
14.19377
14.38004
14.57402
14.76915
14.95918
15.13841
15.302
15.44617
15.56833
15.66712
15.74234
15.79485
15.82588
15.83816
15.8339
15.81523
15.78391
15.7414
15.68895
15.62765
15.55832
15.48144
15.39707
15.30544
15.20714
15.10314
14.99464
14.88298
14.76957
14.65577
14.54308
14.43297
14.32684
14.22597
14.1313
14.04352
13.96313
13.89048
13.82575
13.76898
13.72016
13.67932
13.64647
13.62141
13.60368
13.59236
13.58588
13.58197
13.5777
13.56975
13.55469
13.5294
13.49144
13.43927
13.37245
13.29156
13.19806
13.09405
12.98192
12.86397
12.74251
12.61967
12.4972
12.37631
12.25761
12.14071
12.02502
11.90998
11.7952
11.68043
11.56546
11.45011
11.33427
11.21782
11.10062
10.9826
10.8641
10.74574
10.62825
10.51225
10.39819
10.28623
10.17623
10.0676
9.959313
9.849844
9.737539
9.621512
9.501509
9.377737
9.250635
9.120805
8.988961
8.85591
8.722537
8.589735
8.458308
8.328901
8.202248
8.078979
7.959595
7.844452
7.733689
7.627394
7.525655
7.428511
7.335982
7.248017
7.164463
7.085152
7.009743
6.937862
6.869171
6.803397
6.740345
6.67989
6.621952
6.566458
6.513322
6.462426
6.413616
6.366704
6.321479
6.277713
6.235185
6.193686
6.153043
6.113125
6.073854
6.03521
5.997225
5.959982
5.923605
5.888248
5.85408
5.821276
5.790004
5.760421
5.732666
5.706865
5.683121
5.66153
5.642174
5.625137
5.610504
5.598386
5.58891
5.582255
5.578635
5.578355
5.581779
5.589392
5.601723
5.619427
5.64317
5.673942
5.712286
5.758844
5.813725
5.874031
65.55913
48.96397
47.43478
45.08448
44.10244
42.91522
41.99251
41.22042
40.59052
39.57141
36.99061
36.92039
36.86941
36.83019
36.77009
36.67586
36.58335
36.52239
36.50278
36.50971
36.39665
36.03939
35.68167
35.32822
34.98729
34.66309
34.37994
34.15983
34.01143
33.93998
33.94033
34.00183
34.14415
34.40048
34.78229
35.2766
35.84741
36.45775
37.08829
37.74626
38.44118
39.16548
39.9177
40.69445
41.49289
42.31165
43.1517
44.00719
44.85485
45.70874
46.60705
47.52473
48.41991
49.29056
50.08027
50.72266
51.16933
51.39168
51.39087
51.15912
50.70339
50.04449
49.20953
48.22761
47.12992
45.94832
44.71211
43.44847
42.17855
40.91984
39.68647
38.4897
37.3402
36.24625
35.2149
34.24887
33.35361
32.52719
31.76409
31.05796
30.40411
29.79893
29.23918
28.72076
28.23949
27.79342
27.37841
26.98836
26.61649
26.25762
25.90987
25.57493
25.25727
24.96221
24.6919
24.44323
24.20921
23.98141
23.75252
23.5187
23.28126
23.04588
22.82067
22.6126
22.42365
22.24929
22.08101
21.91005
21.7305
21.54227
21.3516
21.16852
21.00202
20.85589
20.72605
20.6031
20.47758
20.34377
20.20237
20.06114
19.93208
19.82525
19.74315
19.68104
19.63104
19.58701
19.54858
19.52253
19.52009
19.55202
19.62594
19.73658
19.86499
19.99897
20.13865
20.29765
20.49262
20.73251
21.01221
21.31245
21.60894
21.88596
22.14149
22.39278
22.66395
22.96653
23.29312
23.62076
23.92198
24.17491
24.37618
24.54478
24.70761
24.87985
25.05845
25.22766
25.37394
25.48842
25.58362
25.6745
25.76588
25.85322
25.93326
26.00377
26.06719
26.12813
26.18902
26.2472
26.29587
26.32721
26.3274
26.30358
26.25727
26.18913
26.09984
25.98609
25.84205
25.65788
25.43646
25.18058
24.91189
24.64065
24.37081
24.10267
23.8349
23.56662
23.29884
23.03454
22.77717
22.52937
22.29298
22.06998
21.85808
21.65437
21.45625
21.26246
21.07323
20.88948
20.71155
20.53854
20.36864
20.19961
20.02956
19.85751
19.68367
19.50938
19.33666
19.16764
19.00403
18.84706
18.69749
18.55574
18.42188
18.2957
18.17675
18.0644
17.95789
17.8564
17.75923
17.66587
17.57599
17.48945
17.40624
17.32649
17.25045
17.17839
17.11062
17.04754
16.98977
16.93848
16.89594
16.86723
16.86667
16.90995
17.01694
17.21612
17.52874
17.96156
18.51637
19.19223
19.96488
20.77535
21.55827
22.26658
22.86972
23.34076
23.66031
23.83632
23.91718
23.95372
23.97727
24.01618
24.08611
24.1921
24.33188
24.49593
24.66872
24.83588
24.98816
25.12652
25.25887
25.39385
25.54448
25.726
25.95356
26.24021
26.59412
27.01583
27.50006
28.0366
28.58187
29.05562
29.35958
29.42173
29.26001
28.8886
28.33542
27.64839
26.89104
26.12685
25.3963
24.72682
24.14353
23.66801
23.31443
23.0851
22.96919
22.94253
22.97341
23.02683
23.06902
23.06977
23.00637
22.86528
22.6422
22.34073
21.97061
21.54533
21.07996
20.58923
20.08608
19.58074
19.08043
18.58961
18.11062
17.64436
17.19101
16.75068
16.3237
15.91093
15.51371
15.13383
14.77326
14.43401
14.11797
13.82679
13.56188
13.32431
13.11489
12.93417
12.78249
12.66003
12.56681
12.50266
12.46717
12.45962
12.47886
12.52329
12.59069
12.67822
12.78241
12.8993
13.02461
13.15392
13.28285
13.40738
13.52402
13.63003
13.72351
13.8035
13.86995
13.92341
13.96505
13.99631
14.01867
14.03346
14.04173
14.04422
14.04136
14.0334
14.02045
14.00211
13.97815
13.9484
13.91289
13.87191
13.82604
13.77612
13.72321
13.66864
13.61391
13.56066
13.51048
13.46486
13.42509
13.39213
13.36658
13.34854
13.3377
13.33334
13.33447
13.33998
13.34868
13.35938
13.37095
13.38219
13.39174
13.39807
13.39942
13.39394
13.37982
13.3555
13.31989
13.27249
13.21344
13.14349
13.06375
12.97532
12.87927
12.7767
12.66848
12.5551
12.43654
12.3125
12.18313
12.04855
11.90891
11.76451
11.6158
11.46338
11.30797
11.15055
10.99245
10.83535
10.68115
10.53161
10.38814
10.25182
10.12326
10.00238
9.888567
9.780785
9.677195
9.575425
9.473326
9.369305
9.262272
9.151658
9.037403
8.919796
8.799304
8.676459
8.551881
8.426308
8.300545
8.175403
8.051651
7.929982
7.810973
7.695076
7.582601
7.473742
7.368748
7.267778
7.170924
7.078183
6.98946
6.90465
6.823657
6.746248
6.672117
6.600992
6.53262
6.466802
6.403424
6.342426
6.283758
6.227359
6.173138
6.120976
6.070723
6.022206
5.97524
5.929639
5.885231
5.841869
5.799437
5.757866
5.717124
5.677227
5.638225
5.600204
5.563265
5.527525
5.4931
5.460096
5.428611
5.398724
5.370502
5.343999
5.31926
5.296326
5.275241
5.256058
5.238855
5.223733
5.210837
5.200361
5.192567
5.187794
5.186471
5.189107
5.196294
5.208678
5.227093
5.252176
5.284565
5.324567
5.369629
89.68528
37.96364
31.81951
30.55038
29.90593
29.64786
29.68584
29.89602
30.23428
30.66252
31.02614
31.21014
31.39651
31.56968
31.7319
31.8755
32.00814
32.13093
32.23054
32.28405
32.26586
32.19239
32.11878
32.05247
32.00046
31.96932
31.96999
32.01316
32.09708
32.22342
32.39374
32.61137
32.88738
33.23
33.64457
34.12345
34.64722
35.1965
35.78865
36.44116
37.14479
37.89928
38.70622
39.54682
40.40997
41.29306
42.20654
43.15463
44.05642
44.95852
45.863
46.74597
47.54385
48.19785
48.65865
48.88222
48.85479
48.58225
48.04779
47.27781
46.3026
45.15751
43.88159
42.51386
41.09275
39.65376
38.22855
36.84345
35.51611
34.25803
33.0748
31.97009
30.94642
30.01305
29.17184
28.41867
27.74552
27.14309
26.60091
26.10796
25.65077
25.22441
24.82702
24.45916
24.12189
23.81486
23.53418
23.27225
23.02008
22.77102
22.52365
22.28148
22.05152
21.84135
21.65463
21.48848
21.33477