/*--------------------------------*- C++ -*----------------------------------*\
| =========                 |                                                 |
| \\      /  F ield         | foam-extend: Open Source CFD                    |
|  \\    /   O peration     | Version:     3.1                                |
|   \\  /    A nd           | Web:         http://www.extend-project.de       |
|    \\/     M anipulation  |                                                 |
\*---------------------------------------------------------------------------*/
FoamFile
{
    version     2.0;
    format      ascii;
    class       volScalarField;
    location    "16";
    object      p;
}
// * * * * * * * * * * * * * * * * * * * * * * * * * * * * * * * * * * * * * //

dimensions      [1 -1 -2 0 0 0 0];

internalField   nonuniform List<scalar> 
119952
(
5185.563
3590.403
3365.45
3588.979
3826.691
3625.592
3564.173
3514.976
3482.942
3458.049
3437.294
3420.084
3405.664
3393.182
3381.89
3371.033
3359.748
3344.28
3315.441
3212.402
3585.319
3384.052
3291.898
3792.901
3768.228
3817.4
3876.102
4015.815
4436.266
7834.877
2969.666
2913.018
2911.559
2903.728
2897.057
2890.598
2887.095
2886.433
2887.97
2861.823
2837.602
2854.042
2848.459
2846.577
2845.306
2846.324
2849.511
2853.48
2858.945
2859.346
2860.484
2846.565
2849.775
2858.611
2867.521
2878.398
2890.583
2903.261
2923.888
2929.727
2941.374
2963.422
2984.926
3006.848
3030.664
3056.552
3093.34
3188.31
3371.358
3240.044
3191.768
3285.253
3329.688
3307.411
3258.637
3224.833
3199.335
3177.084
3158.344
3142.978
3130.092
3119
3109.213
3100.27
3091.392
3082.043
3073.519
3073.039
3106.651
3142.404
3150.526
3273.434
3455.361
3505.712
3533.849
3565.913
3507.591
3237.61
3198.632
3300.511
3359.244
3416.161
3475.939
3534.451
3594.079
3655.692
3719.263
3784.881
3852.533
3922.076
3993.316
4065.996
4139.788
4214.326
4289.22
4364.08
4438.544
4512.311
4585.139
4656.874
4727.446
4796.861
4865.191
4932.559
4999.134
5065.11
5130.698
5196.107
5261.535
5327.148
5393.054
5459.277
5525.726
5592.158
5658.172
5723.241
5786.91
5849.156
5910.565
5971.798
6032.813
6092.55
6149.558
6202.927
6252.448
6297.595
6340.744
6380.956
6414.812
6442.293
6464.727
6482.334
6495.144
6503.337
6506.947
6506.199
6501.468
6492.362
6480.392
6466.149
6450.589
6431.677
6399.369
6348.326
6294.517
6259.387
6239.565
6217.61
6189.106
6154.281
6115.295
6075.536
6038.781
6008.614
5985.526
5969.903
5958.49
5947.81
5936.249
5922.652
5907.244
5890.308
5873.425
5857.772
5844.562
5835.074
5830.672
5832.411
5841.676
5860.539
5889.022
5929.522
5983.521
6053.239
6131.315
6176.288
6145.565
6329.397
6336.309
6351.687
6413.056
6456.328
6469.75
6472.341
6472.3
6476.171
6492.042
6520.719
6556.098
6592.223
6626.188
6657.446
6686.445
6713.695
6739.829
6765.314
6790.378
6815.198
6839.733
6863.934
6887.767
6911.194
6934.164
6956.664
6978.531
6999.559
7019.64
7038.596
7056.156
7072.088
7086.076
7097.162
7107.33
7130.606
7151.683
7170.688
7187.9
7203.65
7218.08
7231.305
7243.399
7254.468
7264.598
7273.873
7282.358
7290.121
7297.212
7303.689
7309.634
7315.131
7320.323
7325.178
7329.752
7334.085
7338.204
7342.143
7345.957
7349.699
7353.401
7357.091
7360.784
7364.499
7368.253
7372.063
7375.955
7379.83
7383.703
7369.761
7365.71
7364.677
7368.322
7371.369
7374.564
7377.919
7381.188
7384.387
7387.508
7390.535
7393.455
7396.27
7398.951
7401.503
7403.906
7406.127
7408.128
7409.853
7411.219
7412.184
7412.655
7412.572
7411.827
7410.402
7408.255
7405.34
7401.665
7397.248
7392.124
7386.41
7380.148
7373.524
7366.708
7359.895
7353.304
7347.173
7341.747
7337.236
7333.927
7331.99
7331.764
7333.473
7337.281
7343.386
7351.682
7361.802
7374.167
7388.927
7405.905
7424.913
7445.693
7467.996
7492.056
7514.804
7538.37
7562.359
7585.22
7607.086
7627.474
7646.122
7662.821
7677.433
7689.856
7700.014
7707.863
7713.433
7716.835
7718.242
7717.87
7715.95
7712.713
7708.391
7703.198
7697.319
7690.91
7684.1
7677.001
7669.701
7662.29
7654.823
7647.343
7639.882
7632.452
7625.055
7617.688
7610.347
7603.023
7595.723
7588.421
7581.118
7573.804
7566.476
7559.13
7551.77
7544.388
7536.99
7529.577
7522.156
7514.729
7507.305
7499.891
7492.496
7485.133
7477.813
7470.55
7463.357
7456.249
7449.24
7442.342
7435.566
7428.923
7422.421
7416.064
7409.854
7403.79
7397.871
7392.093
7386.431
7380.881
7375.424
7370.04
7364.701
7359.381
7354.043
7348.652
7343.155
7337.504
7331.622
7325.426
7318.79
7311.564
7303.511
7294.281
7283.253
7270.026
7257.097
7261.512
7312.5
5777.978
5626.835
5447.465
5275
5105.762
4941.301
4782.563
4629.77
4483.265
4318.445
4180.344
4059.022
3937.572
3826.624
3723.388
3627.929
3541.226
3456.328
3335.858
3289.956
3219.602
3151.941
3096.944
3047.363
3001.958
2960.975
2922.994
2890.539
2864.658
2823.244
2796.223
2773.063
2750.119
2729.959
2711.318
2694.331
2680.976
2676.321
2647.877
2628.703
2620.35
2612.483
2604.186
2597.513
2591.901
2587.533
2584.322
2575.367
2575.084
2575.339
2573.789
2572.381
2572.414
2574.08
2578.086
2590.87
2516.655
2524.038
2535.106
2544.853
2552.975
2561.266
2571.245
2583.116
2596.326
2609.819
2626.365
2645.086
2663.401
2682.569
2704.585
2731.34
2765.146
2808.039
2855.867
2898.199
2913.688
2910.358
2919.906
2930.937
2929.154
2913.382
2891.292
2869.944
2851.909
2837.119
2824.689
2814.07
2804.968
2797.293
2791.228
2786.844
2785.151
2788.996
2801.533
2825.739
2862.527
2911.679
2975.359
3047.259
3101.518
3125.431
3119.082
3085.411
3028.944
2998.507
3028.697
3079.77
3131.963
3185.792
3241.793
3300.386
3361.658
3425.474
3491.664
3560.051
3630.453
3702.66
3776.395
3851.304
3926.987
4003.023
4079
4154.526
4229.244
4302.858
4375.148
4445.992
4515.363
4583.335
4650.062
4715.77
4780.727
4845.219
4909.528
4973.911
5038.582
5103.684
5169.267
5235.279
5301.535
5367.75
5433.601
5498.836
5563.37
5627.267
5690.462
5752.502
5812.571
5869.714
5923.331
5972.966
6018.613
6060.117
6097.041
6127.994
6153.591
6173.754
6188.558
6198.32
6203.247
6203.435
6199.11
6190.644
6178.199
6162.427
6143.735
6121.269
6094.707
6062.12
6023.824
5984.37
5951.488
5927.69
5903.233
5875.391
5843.903
5810.041
5774.728
5741.658
5715.462
5695.037
5675.985
5660.102
5644.546
5627.58
5608.682
5588.411
5567.663
5547.485
5529.102
5513.728
5502.567
5497.143
5498.947
5508.801
5528.411
5559.145
5599.317
5650.228
5711.295
5761.714
5819.189
5852.355
5979.819
6051.337
6093.809
6143.5
6179.267
6194.95
6199.092
6201.002
6209.658
6230.126
6260.305
6294.15
6327.491
6359.132
6388.648
6416.37
6442.753
6468.322
6493.296
6517.941
6542.38
6566.49
6590.297
6613.771
6636.956
6659.669
6681.916
6703.607
6724.492
6744.523
6763.598
6781.428
6797.959
6813.286
6827.854
6843.654
6861.987
6881.57
6899.69
6916.592
6932.243
6946.624
6959.801
6971.85
6982.854
6992.892
7002.09
7010.421
7018.019
7024.911
7031.176
7036.919
7042.255
7047.226
7051.9
7056.301
7060.499
7064.477
7068.277
7071.967
7075.598
7079.191
7082.763
7086.385
7090.023
7093.701
7097.427
7101.211
7105.455
7111.167
7057.128
7060.447
7061.303
7062.963
7065.862
7069.257
7072.618
7075.827
7078.928
7081.948
7084.88
7087.715
7090.445
7093.084
7095.609
7098.013
7100.271
7102.335
7104.175
7105.693
7106.815
7107.46
7107.512
7106.983
7105.676
7103.589
7100.71
7097.04
7092.597
7087.43
7081.62
7075.272
7068.528
7061.559
7054.562
7047.755
7041.375
7035.661
7030.859
7027.221
7025.099
7024.445
7025.408
7028.526
7033.793
7041.219
7050.783
7062.558
7076.587
7092.784
7110.982
7130.95
7152.374
7174.876
7197.994
7221.062
7243.815
7265.985
7287.288
7307.231
7325.48
7341.878
7356.302
7368.678
7378.99
7387.133
7393.113
7396.993
7398.964
7399.253
7398.039
7395.542
7391.981
7387.549
7382.416
7376.73
7370.614
7364.173
7357.495
7350.655
7343.709
7336.696
7329.644
7322.569
7315.48
7308.383
7301.276
7294.145
7287.023
7279.872
7272.692
7265.482
7258.238
7250.963
7243.657
7236.322
7228.963
7221.584
7214.188
7206.783
7199.376
7191.975
7184.591
7177.235
7169.919
7162.657
7155.464
7148.353
7141.339
7134.436
7127.657
7121.012
7114.511
7108.159
7101.959
7095.914
7090.018
7084.268
7078.651
7073.155
7067.762
7062.454
7057.201
7051.982
7046.754
7041.494
7036.139
7030.659
7024.97
7019.008
7012.705
7005.955
6998.758
6991.275
6983.903
6977.684
6974.069
6973.074
6974.338
2928.83
2974.853
3043.55
3128.127
3230.956
3350.368
3485.885
3636.918
3802.833
3979.768
4151.133
4348.297
4551.429
4759.888
4971.737
5184.485
5392.917
5596.29
5793.02
5968.424
6137.039
6291.125
6426.765
6539.37
6627.127
6688.762
6723.091
6729.298
6712.754
6666.426
6594.163
6499.513
6385.384
6254.265
6108.988
5952.429
5787.796
5618.338
5433.878
5260.575
5085.345
4912.281
4742.914
4578.112
4419.212
4267.11
4122.852
3985.731
3852.43
3730.507
3614.936
3506.596
3406.202
3313.208
3228.23
3160.261
2981.229
2916.382
2863.379
2811.19
2760.065
2712.141
2668.482
2629.086
2593.565
2560.797
2530.336
2503.62
2478.766
2454.664
2431.959
2411.388
2393.026
2376.768
2362.056
2348.115
2335.754
2324.213
2312.913
2302.417
2293.333
2285.817
2279.765
2274.833
2270.713
2268.128
2266.294
2264.217
2262.373
2261.415
2261.564
2263.04
2265.46
2269.215
2274.153
2281.443
2289.093
2295.463
2301.947
2309.869
2319.829
2331.737
2345.136
2360.062
2376.296
2392.98
2410.665
2430.105
2452.389
2478.552
2508.575
2541.216
2574.841
2607.972
2629.327
2634.77
2638.065
2645.165
2647.279
2639.023
2623.6
2607.013
2592.394
2580.149
2569.771
2560.925
2553.528
2547.789
2544.053
2542.835
2544.702
2551.407
2564.776
2586.805
2617.413
2655.343
2701.004
2750.816
2792.306
2815.079
2819.417
2809.894
2788.317
2774.103
2796.53
2839.676
2887.866
2938.928
2992.983
3050.242
3110.682
3174.112
3240.275
3308.936
3379.887
3452.9
3527.668
3603.804
3680.863
3758.377
3835.88
3912.924
3989.088
4063.993
4137.33
4208.892
4278.597
4346.494
4412.762
4477.679
4541.592
4604.876
4667.903
4731.023
4794.535
4858.668
4923.56
4989.248
5055.644
5122.561
5189.742
5256.902
5323.778
5390.144
5455.697
5519.892
5581.949
5641.01
5696.383
5747.508
5794.009
5835.402
5871.588
5902.247
5926.997
5945.829
5958.858
5966.366
5968.622
5965.841
5958.295
5946.346
5930.385
5910.879
5888.199
5862.38
5833.314
5800.669
5765.103
5730.474
5700.431
5675.576
5651.95
5627.289
5601.267
5573.797
5544.65
5516.049
5492.11
5470.263
5450.674
5432.051
5412.809
5391.55
5368.308
5343.604
5318.289
5293.308
5269.942
5249.538
5233.489
5223.335
5220.865
5227.487
5244.321
5272.269
5310.474
5358.117
5412.994
5472.383
5531.109
5582.026
5639.783
5704.631
5758.874
5804.319
5842.004
5870.382
5891.689
5909.703
5929.534
5954.853
5985.217
6017.181
6047.767
6076.36
6103.058
6128.371
6152.645
6176.207
6199.53
6222.77
6246.007
6269.213
6292.269
6315.11
6337.662
6359.833
6381.566
6402.649
6423.063
6442.762
6461.728
6479.385
6496.335
6512.92
6529.289
6546.031
6563.527
6581.16
6598.448
6614.8
6630.05
6644.209
6657.316
6669.402
6680.491
6690.598
6699.775
6708.163
6715.793
6722.74
6729.058
6734.818
6740.131
6745.044
6749.541
6753.696
6757.575
6761.272
6764.839
6768.331
6771.784
6775.226
6778.678
6782.178
6785.718
6789.32
6792.944
6796.658
6800.353
6804.262
6807.623
6810.547
6813.789
6817.406
6821.115
6824.707
6828.112
6831.355
6834.474
6837.487
6840.393
6843.205
6845.903
6848.513
6851.033
6853.457
6855.763
6857.909
6859.88
6861.53
6862.822
6863.642
6863.913
6863.579
6862.531
6860.71
6858.076
6854.615
6850.337
6845.283
6839.525
6833.167
6826.343
6819.219
6811.987
6804.863
6798.079
6791.872
6786.475
6782.12
6779.038
6777.302
6777.653
6779.81
6784.006
6790.354
6798.868
6809.583
6822.535
6837.667
6854.847
6873.889
6894.48
6916.244
6938.722
6961.464
6984.056
7006.154
7027.441
7047.492
7066.012
7082.766
7097.531
7110.22
7120.784
7129.164
7135.509
7139.932
7142.539
7143.551
7143.125
7141.426
7138.66
7135.011
7130.641
7125.692
7120.265
7114.457
7108.365
7102.065
7095.612
7089.042
7082.385
7075.662
7068.884
7062.062
7055.196
7048.29
7041.336
7034.339
7027.295
7020.199
7013.052
7005.856
6998.615
6991.332
6984.014
6976.666
6969.294
6961.905
6954.509
6947.113
6939.729
6932.368
6925.043
6917.767
6910.554
6903.421
6896.38
6889.448
6882.637
6875.961
6869.428
6863.048
6856.826
6850.764
6844.86
6839.112
6833.51
6828.044
6822.697
6817.452
6812.287
6807.172
6802.084
6796.981
6791.837
6786.596
6781.233
6775.688
6769.968
6764.042
6758.02
6751.958
6746.266
6741.277
6737.335
6734.879
6733.9
2783.999
2755.889
2725.236
2682.202
2654.682
2604.949
2599.727
2611.747
2637.494
2643.283
2631.702
2636.092
2662.151
2706.884
2769.485
2849.168
2945.5
3057.534
3185.384
3327.646
3483.975
3653.767
3833.778
4023.582
4221.02
4423.948
4630.086
4836.892
5042.005
5242.927
5438.086
5599.667
5773.818
5924.398
6053.979
6161.355
6244.332
6301.014
6330.539
6333.247
6310.21
6260.668
6185.38
6087.223
5969.437
5835.073
5687.207
5528.793
5362.646
5191.475
5017.65
4843.65
4670.63
4500.061
4333.37
4171.787
4016.401
3867.916
3727.07
3593.91
3467.943
3349.383
3238.349
3134.659
3038.164
2948.607
2865.803
2788.693
2713.862
2650.139
2596.34
2544.873
2494.753
2447.922
2405.317
2366.906
2332.204
2301.006
2273.088
2247.185
2222.558
2199.333
2177.577
2157.48
2139.268
2123.016
2108.696
2096.375
2084.95
2073.241
2061.906
2051.616
2042.529
2034.771
2028.545
2023.902
2020.749
2018.376
2016.389
2014.687
2013.129
2011.949
2011.603
2012.662
2015.468
2020.175
2025.992
2032.054
2037.977
2043.946
2050.704
2058.932
2069.029
2081.014
2094.535
2109.467
2125.117
2140.768
2157.499
2176.068
2196.973
2220.476
2246.073
2273.194
2300.583
2326.311
2345.538
2355.542
2361.189
2366.67
2369.144
2365.255
2355.726
2343.869
2332.343
2322.143
2313.44
2306.258
2300.593
2296.618
2294.66
2295.054
2298.534
2306.307
2319.361
2338.274
2363.058
2393.199
2427.414
2463.265
2495.043
2517.313
2528.326
2530.656
2527.482
2531.327
2553.873
2591.465
2636.28
2685.159
2737.596
2793.706
2853.426
2916.5
2982.646
3051.648
3123.319
3197.425
3273.618
3351.441
3430.373
3509.869
3589.393
3668.434
3746.502
3823.126
3897.893
3970.497
4040.774
4108.732
4174.561
4238.608
4301.324
4363.199
4424.723
4486.366
4548.545
4611.605
4675.796
4741.253
4807.978
4875.853
4944.657
5014.075
5083.729
5153.185
5221.904
5289.166
5354.115
5415.876
5473.661
5526.806
5574.776
5617.126
5653.657
5683.998
5707.843
5725.146
5736.169
5741.172
5740.393
5734.098
5722.67
5706.6
5686.401
5662.564
5635.582
5605.781
5573.365
5539.03
5504.479
5471.532
5442.641
5418.15
5396.19
5374.995
5352.87
5330.914
5310.378
5289.19
5268.578
5249.291
5230.373
5210.172
5187.685
5162.441
5134.325
5103.969
5072.513
5041.204
5011.367
4984.244
4961.242
4944.321
4935.622
4936.821
4949.118
4973.055
5008.245
5054.054
5109.341
5170.968
5233.365
5294.083
5358.635
5425.668
5485.679
5538.12
5582.584
5618.425
5648.315
5675.877
5703.782
5733.437
5763.805
5793.253
5821.213
5847.538
5872.324
5895.989
5918.935
5941.466
5963.802
5986.002
6008.19
6030.441
6052.664
6074.762
6096.651
6118.241
6139.434
6160.084
6180.129
6199.519
6218.171
6236.096
6253.471
6270.398
6287.072
6303.768
6320.681
6337.677
6354.364
6370.316
6385.35
6399.437
6412.587
6424.81
6436.111
6446.497
6455.976
6464.581
6472.426
6479.608
6486.13
6492.024
6497.369
6502.267
6506.788
6510.988
6514.925
6518.644
6522.191
6525.611
6528.963
6532.304
6535.662
6539.064
6542.516
6546.024
6549.575
6553.167
6556.764
6560.231
6563.95
6567.799
6571.329
6574.571
6577.757
6580.977
6584.187
6587.324
6590.358
6593.285
6596.127
6598.881
6601.57
6604.173
6606.69
6609.117
6611.438
6613.626
6615.595
6617.343
6618.739
6619.686
6620.107
6619.919
6619.029
6617.365
6614.873
6611.528
6607.33
6602.311
6596.537
6590.105
6583.146
6575.824
6568.329
6560.88
6553.715
6547.072
6541.169
6536.225
6532.486
6530.185
6529.656
6530.958
6534.336
6539.932
6547.728
6557.714
6569.95
6584.394
6600.93
6619.37
6639.482
6660.998
6683.406
6706.184
6728.974
6751.415
6773.049
6793.462
6812.435
6829.66
6844.879
6857.923
6868.649
6877.096
6883.425
6887.794
6890.48
6891.68
6891.504
6890.13
6887.74
6884.487
6880.523
6876.005
6871.027
6865.651
6859.965
6854.05
6847.959
6841.718
6835.354
6828.895
6822.357
6815.747
6809.07
6802.325
6795.519
6788.647
6781.707
6774.699
6767.624
6760.484
6753.286
6746.034
6738.736
6731.397
6724.026
6716.631
6709.223
6701.812
6694.41
6687.029
6679.683
6672.386
6665.151
6657.996
6650.933
6643.98
6637.149
6630.454
6623.907
6617.516
6611.289
6605.231
6599.341
6593.618
6588.055
6582.643
6577.371
6572.219
6567.172
6562.201
6557.288
6552.395
6547.504
6542.573
6537.589
6532.524
6527.391
6522.204
6517.053
6512.039
6507.372
6503.271
6499.912
6497.515
6495.476
3045.396
3015.553
2985.512
2930.889
2883.165
2802.399
2754.627
2706.423
2658.696
2611.549
2565.542
2522.25
2480.286
2441.647
2407.803
2378.387
2292.625
2280.007
2276.14
2276.673
2277.633
2284.232
2302.382
2335.358
2384.301
2448.962
2528.977
2626.156
2739.668
2868.886
3012.959
3170.76
3341.227
3523.076
3714.299
3912.771
4116.398
4322.773
4529.868
4735.454
4934.965
5124.554
5294.618
5462.193
5611.18
5740.045
5847.357
5930.242
5986.585
6015.404
6016.687
5991.401
5940.216
5864.108
5765.332
5646.972
5512.208
5364.183
5205.961
5040.422
4870.186
4697.247
4524.172
4352.91
4184.67
4020.293
3860.615
3706.591
3559.587
3420.439
3289.163
3165.846
3050.547
2942.917
2842.408
2748.496
2661.135
2579.821
2505.336
2437.824
2377.644
2324.12
2274.376
2227.062
2182.611
2141.602
2104.319
2070.95
2041.432
2014.915
1990.307
1967.113
1945.063
1923.992
1904.055
1885.699
1869.558
1855.868
1844.206
1833.327
1822.562
1811.946
1801.717
1792.163
1783.861
1777.671
1773.259
1770.44
1768.668
1767.398
1765.83
1763.811
1761.799
1760.607
1760.915
1764.276
1769.554
1775.388
1781.703
1787.23
1793.047
1799.671
1807.625
1817.424
1829.226
1842.175
1856.864
1872.95
1887.228
1902.055
1918.55
1937.12
1958.009
1980.586
2004.501
2027.675
2048.501
2065.54
2077.568
2085.757
2091.779
2095.082
2094.31
2089.092
2080.862
2071.64
2062.891
2055.528
2049.909
2045.825
2043.317
2042.687
2044.289
2048.497
2055.947
2067.332
2082.813
2102.561
2126.063
2151.997
2178.937
2204.585
2226.023
2241.381
2252.066
2261.704
2275.901
2299.622
2333.921
2376.145
2423.54
2475.044
2530.562
2589.955
2652.902
2719.139
2788.569
2861.132
2936.656
3014.765
3094.895
3176.369
3258.49
3340.637
3422.276
3502.859
3581.791
3658.509
3732.559
3803.665
3871.774
3937.093
4000.056
4061.256
4121.335
4180.941
4240.695
4301.167
4362.848
4426.133
4491.278
4558.378
4627.397
4698.155
4770.308
4843.351
4916.648
4989.424
5060.765
5129.676
5195.163
5256.332
5312.388
5362.673
5406.649
5443.91
5474.095
5496.984
5512.637
5521.227
5523.029
5518.407
5507.81
5491.735
5470.668
5445.156
5415.792
5383.242
5348.302
5311.898
5275.018
5239.158
5206.19
5177.997
5154.759
5135.642
5119.632
5103.086
5087.756
5076.877
5065.788
5049.8
5032.909
5014.111
4992.194
4966.62
4937.038
4903.596
4867.04
4828.463
4789.038
4750.286
4713.874
4681.369
4654.712
4636.449
4629.448
4635.076
4653.626
4685.04
4729.603
4786.773
4853.687
4926.015
5000.539
5076.401
5150.195
5217.295
5275.857
5325.65
5367.992
5405.064
5438.879
5470.945
5502.044
5532.391
5561.661
5589.498
5615.649
5640.225
5663.57
5686.012
5707.839
5729.33
5750.697
5772.084
5793.52
5814.949
5836.302
5857.504
5878.463
5899.076
5919.243
5938.892
5957.977
5976.458
5994.345
6011.711
6028.657
6045.306
6061.804
6078.252
6094.582
6110.565
6125.94
6140.548
6154.334
6167.29
6179.413
6190.699
6201.143
6210.763
6219.6
6227.716
6235.148
6241.915
6248.048
6253.58
6258.639
6263.343
6267.711
6271.771
6275.567
6279.149
6282.585
6285.949
6289.286
6292.621
6295.98
6299.381
6302.826
6306.301
6309.794
6313.335
6316.904
6320.583
6324.189
6327.542
6330.739
6333.925
6337.129
6340.297
6343.373
6346.344
6349.224
6352.026
6354.76
6357.435
6360.032
6362.538
6364.957
6367.276
6369.464
6371.46
6373.213
6374.64
6375.652
6376.159
6376.067
6375.284
6373.732
6371.349
6368.098
6363.969
6358.984
6353.199
6346.705
6339.627
6332.125
6324.39
6316.643
6309.139
6302.13
6295.784
6290.294
6285.941
6282.998
6281.759
6282.288
6284.907
6289.72
6296.803
6306.211
6317.954
6331.965
6348.1
6366.148
6385.913
6407.115
6429.251
6451.852
6474.624
6497.226
6519.132
6539.863
6559.141
6576.688
6592.269
6605.784
6617.062
6625.987
6632.646
6637.271
6640.233
6641.646
6641.631
6640.423
6638.193
6635.101
6631.317
6626.979
6622.19
6617.055
6611.654
6606.042
6600.271
6594.348
6588.276
6582.081
6575.785
6569.396
6562.912
6556.335
6549.669
6542.917
6536.079
6529.154
6522.145
6515.056
6507.897
6500.671
6493.385
6486.045
6478.662
6471.246
6463.81
6456.367
6448.932
6441.517
6434.137
6426.807
6419.542
6412.357
6405.268
6398.289
6391.437
6384.725
6378.165
6371.769
6365.544
6359.498
6353.632
6347.948
6342.442
6337.105
6331.929
6326.899
6321.998
6317.205
6312.5
6307.857
6303.257
6298.675
6294.099
6289.522
6284.959
6280.442
6276.04
6271.846
6267.975
6264.617
6261.784
6259.708
6257.777
3215.878
3179.766
3140.47
3088.764
3051.476
2978.103
2940.421
2902.821
2864.261
2824.703
2784.737
2744.386
2701.657
2658.098
2611.473
2496.671
2448.755
2401
2353.339
2306.089
2259.561
2214.672
2171.627
2131.068
2094.207
2062.135
2035.256
2015.22
2001.944
1994.629
1993.58
2001.48
2020.552
2052.755
2099.727
2162.586
2241.81
2337.125
2448.56
2575.774
2717.995
2874.117
3042.765
3222.515
3411.517
3607.749
3809.2
4013.257
4217.165
4419.101
4615.759
4804.49
4980.512
5145.199
5292.931
5419.96
5524.01
5602.841
5654.736
5678.886
5675.388
5645.197
5589.643
5510.252
5409.148
5289.158
5153.397
5005.034
4847.12
4682.507
4513.927
4343.462
4173.393
4005.559
3841.295
3681.259
3525.896
3375.973
3232.41
3096.12
2968.061
2848.943
2738.445
2635.545
2539.3
2449.104
2364.944
2287.058
2216.541
2153.554
2097.117
2046.199
1999.3
1955.041
1913.02
1873.614
1837.506
1805.606
1778.055
1753.636
1731.143
1709.852
1689.001
1668.385
1648.408
1629.975
1614.519
1601.632
1590.652
1580.776
1571.358
1561.382
1550.906
1540.435
1530.863
1523.564
1520.696
1519.145
1518.177
1518.002
1516.517
1513.674
1510.386
1507.985
1507.536
1510.602
1517.66
1524.704
1530.952
1536.1
1541.273
1546.984
1554.133
1563.603
1575.97
1589.386
1603.265
1619.428
1632.092
1644.273
1658.176
1674.181
1692.713
1712.615
1735.321
1755.836
1772.964
1788.302
1801.228
1811.812
1819.943
1824.766
1826.312
1823.826
1817.931
1810.279
1802.534
1796.127
1791.926
1789.181
1787.844
1788.229
1790.589
1794.709
1800.99
1810.539
1822.376
1837.267
1854.934
1874.388
1895.265
1916.914
1937.698
1955.75
1971.854
1988.542
2008.543
2034.45
2067.817
2108.466
2154.707
2205.554
2260.79
2320.127
2383.138
2449.577
2519.517
2593.106
2670.335
2750.861
2834.004
2918.847
3004.387
3089.832
3174.683
3258.432
3340.355
3419.661
3495.668
3567.903
3636.213
3700.832
3762.344
3821.553
3879.303
3936.43
3993.745
4052.001
4111.87
4173.932
4238.588
4306.049
4376.382
4449.464
4524.91
4602.076
4680.116
4758.011
4834.603
4908.686
4979.05
5044.643
5104.502
5157.795
5203.854
5242.19
5272.493
5294.617
5308.539
5314.429
5312.556
5303.364
5287.467
5265.564
5238.416
5206.611
5170.575
5131.129
5089.646
5047.798
5007.009
4968.551
4934.397
4906.145
4884.951
4870.236
4860.376
4852.66
4847.08
4845.504
4843.135
4833.861
4820.714
4803.08
4779.927
4750.869
4716.056
4676.132
4632.137
4585.263
4536.659
4487.707
4440.179
4395.297
4354.871
4323.447
4305.936
4303.301
4314.344
4339.871
4381.61
4442.017
4519.329
4606.769
4697.806
4787.787
4872.553
4948.79
5015.041
5071.736
5120.397
5162.722
5200.42
5235.156
5267.901
5299.2
5329.183
5357.523
5384.011
5408.754
5432.041
5454.198
5475.574
5496.494
5517.191
5537.814
5558.433
5579.05
5599.627
5620.096
5640.37
5660.358
5679.974
5699.147
5717.831
5735.991
5753.627
5770.786
5787.529
5803.934
5820.083
5836.018
5851.697
5866.996
5881.758
5895.864
5909.254
5921.909
5933.82
5944.988
5955.415
5965.111
5974.096
5982.401
5990.051
5997.067
6003.477
6009.334
6014.719
6019.684
6024.26
6028.494
6032.44
6036.142
6039.656
6043.072
6046.447
6049.801
6053.157
6056.536
6059.941
6063.367
6066.809
6070.281
6073.773
6077.268
6080.708
6084.044
6087.288
6090.481
6093.635
6096.732
6099.72
6102.597
6105.396
6108.124
6110.786
6113.391
6115.932
6118.399
6120.784
6123.069
6125.222
6127.197
6128.935
6130.363
6131.396
6131.943
6131.91
6131.2
6129.733
6127.442
6124.281
6120.23
6115.302
6109.542
6103.031
6095.887
6088.262
6080.341
6072.35
6064.566
6057.189
6050.391
6044.429
6039.557
6036.035
6034.084
6034.091
6036.067
6040.156
6046.54
6055.343
6066.535
6080.041
6095.731
6113.407
6132.79
6153.516
6175.282
6197.772
6220.5
6243.053
6264.971
6285.793
6305.228
6323.058
6339.004
6352.836
6364.398
6373.671
6380.83
6386.005
6389.408
6391.224
6391.622
6390.788
6388.889
6386.102
6382.589
6378.464
6373.855
6368.915
6363.731
6358.343
6352.783
6347.07
6341.23
6335.273
6329.207
6323.04
6316.761
6310.358
6303.834
6297.2
6290.459
6283.61
6276.659
6269.614
6262.487
6255.281
6247.998
6240.644
6233.233
6225.778
6218.295
6210.802
6203.312
6195.844
6188.414
6181.036
6173.726
6166.501
6159.376
6152.367
6145.488
6138.756
6132.183
6125.782
6119.564
6113.537
6107.706
6102.073
6096.638
6091.396
6086.339
6081.455
6076.729
6072.144
6067.68
6063.318
6059.04
6054.829
6050.676
6046.583
6042.563
6038.647
6034.886
6031.356
6028.152
6025.391
6023.028
6021.39
6019.867
3184.419
3139.021
3096.452
3041.969
2987.169
2937.68
2892.053
2850.111
2811.163
2772.205
2667.811
2630.784
2593.804
2556.096
2517.354
2477.534
2436.465
2393.763
2349.493
2304.334
2259.184
2212.026
2164.367
2116.422
2068.605
2021.116
1974.443
1928.54
1883.819
1841.643
1803.371
1770.992
1744.795
1725.46
1714.116
1711.583
1719.361
1738.903
1771.499
1818.298
1880.187
1957.799
2051.346
2160.875
2286.086
2426.28
2580.438
2747.159
2924.955
3111.785
3305.458
3503.29
3702.919
3902.544
4099.867
4292.718
4478.397
4652.36
4811.976
4954.196
5075.296
5172.461
5243.73
5287.808
5304.188
5293.287
5256.302
5194.924
5111.074
5006.936
4885.189
4748.636
4600.461
4443.644
4280.88
4115.245
3948.989
3783.91
3621.847
3463.476
3309.059
3159.457
3015.222
2876.834
2745.735
2623.78
2511.643
2408.403
2312.319
2221.968
2136.754
2056.836
1982.921
1916.331
1857.949
1806.646
1760.396
1717.536
1676.762
1637.348
1599.644
1564.803
1535.095
1510.737
1488.951
1469.132
1450.333
1430.796
1410.509
1390.205
1370.695
1353.997
1344.757
1336.321
1327.271
1319.339
1309.778
1298.674
1286.883
1275.86
1267.782
1266.004
1267.047
1268.236
1268.676
1266.9
1262.674
1257.5
1253.386
1252.033
1254.872
1264.081
1273.877
1279.584
1283.936
1287.965
1292.393
1298.374
1307.145
1320.105
1336.7
1351.051
1364.189
1374.837
1384.479
1395.444
1408.938
1426.057
1443.736
1464.671
1484.845
1498.875
1512.513
1525.816
1539.134
1550.778
1557.716
1562.161
1560.923
1555.42
1547.926
1540.514
1534.759
1532.387
1530.985
1530.673
1531.809
1534.67
1537.944
1542.232
1550.225
1558.361
1568.681
1580.948
1594.161
1609.746
1628.834
1650.043
1669.6
1688.599
1708.914
1732.356
1760.545
1794.476
1834.635
1879.455
1929.531
1984.769
2044.199
2107.023
2173.205
2243.503
2318.371
2397.836
2481.524
2568.562
2657.677
2747.463
2836.935
2925.69
3013.329
3099.005
3181.664
3260.297
3334.106
3402.742
3466.447
3525.998
3582.554
3637.253
3691.161
3745.301
3800.636
3858.075
3918.434
3982.291
4049.995
4121.75
4197.517
4276.88
4359.044
4442.918
4527.175
4610.321
4690.871
4767.439
4838.709
4903.426
4960.546
5009.269
5049.043
5079.567
5100.737
5112.625
5115.468
5109.571
5095.318
5073.392
5044.8
5010.587
4971.349
4927.246
4879.167
4829.173
4779.887
4733.288
4690.473
4653.426
4625.025
4606.747
4598.066
4597.389
4601.352
4608.016
4617.474
4624.085
4623.055
4614.568
4598.378
4573.869
4540.926
4500.094
4452.575
4399.934
4343.571
4284.464
4223.823
4163.516
4104.169
4047.711
4003.274
3975.314
3959.935
3958.035
3975.25
4013.713
4077.445
4166.795
4273.719
4386.443
4495.214
4594.407
4681.845
4757.202
4821.365
4875.852
4922.39
4963.272
5000.264
5034.615
5066.807
5097.046
5125.493
5152.142
5177.115
5200.567
5222.736
5243.943
5264.499
5284.658
5304.619
5324.507
5344.375
5364.216
5383.98
5403.59
5422.961
5442.009
5460.665
5478.878
5496.613
5513.865
5530.656
5547.024
5563.018
5578.685
5594.045
5609.074
5623.704
5637.84
5651.401
5664.336
5676.625
5688.262
5699.248
5709.583
5719.273
5728.333
5736.78
5744.634
5751.91
5758.629
5764.821
5770.529
5775.792
5780.651
5785.149
5789.329
5793.239
5796.942
5800.505
5803.973
5807.377
5810.748
5814.109
5817.47
5820.836
5824.199
5827.546
5830.887
5834.235
5837.563
5840.833
5844.022
5847.131
5850.165
5853.127
5856.01
5858.817
5861.548
5864.204
5866.781
5869.285
5871.734
5874.131
5876.455
5878.683
5880.784
5882.712
5884.41
5885.807
5886.822
5887.368
5887.357
5886.695
5885.297
5883.094
5880.033
5876.089
5871.262
5865.588
5859.139
5852.021
5844.375
5836.375
5828.22
5820.131
5812.351
5805.213
5798.952
5793.732
5789.823
5787.483
5786.968
5788.438
5792.043
5797.908
5806.124
5816.702
5829.594
5844.686
5861.797
5880.694
5901.075
5922.562
5944.763
5967.236
5989.579
6011.402
6032.239
6051.713
6069.569
6085.551
6099.445
6111.196
6120.841
6128.433
6134.046
6137.833
6140.017
6140.81
6140.391
6138.898
6136.501
6133.368
6129.633
6125.414
6120.827
6115.953
6110.841
6105.514
6100.013
6094.391
6088.65
6082.785
6076.793
6070.675
6064.428
6058.043
6051.524
6044.872
6038.093
6031.193
6024.186
6017.089
6009.9
6002.611
5995.23
5987.772
5980.257
5972.706
5965.139
5957.575
5950.033
5942.533
5935.09
5927.721
5920.442
5913.27
5906.219
5899.308
5892.55
5885.961
5879.554
5873.343
5867.337
5861.546
5855.973
5850.622
5845.489
5840.57
5835.854
5831.329
5826.977
5822.783
5818.727
5814.795
5810.971
5807.249
5803.631
5800.126
5796.762
5793.577
5790.632
5787.984
5785.73
5783.821
5782.58
5781.411
2926.859
2866.034
2741.548
2694.52
2648.779
2606.303
2566.651
2529.165
2493.082
2458.012
2423.827
2388.736
2352.947
2316.109
2278.182
2238.859
2197.999
2155.429
2110.982
2065.047
2018.914
1971.741
1923.825
1875.452
1826.647
1776.982
1726.739
1676.916
1628.366
1582.26
1540.54
1504.794
1475.655
1453.905
1440.673
1437.005
1444.105
1463.092
1495.07
1541.045
1601.764
1677.856
1769.7
1877.366
2000.579
2138.65
2290.659
2455.04
2630.146
2813.305
3001.737
3193.55
3387.486
3582.492
3775.933
3964.371
4144.429
4312.082
4463.892
4596.966
4708.184
4794.885
4855.333
4888.63
4894.705
4874.391
4829.238
4761.23
4672.595
4565.54
4442.608
4306.297
4159.486
4005.183
3846.101
3684.736
3523.571
3365.014
3210.445
3059.639
2912.341
2769.484
2631.823
2500.192
2376.141
2261.909
2158.451
2064.149
1976.507
1893.399
1814.003
1738.549
1668.366
1605.693
1552.757
1508.29
1468.715
1430.861
1393.895
1356.997
1320.61