/*--------------------------------*- C++ -*----------------------------------*\
| =========                 |                                                 |
| \\      /  F ield         | foam-extend: Open Source CFD                    |
|  \\    /   O peration     | Version:     3.1                                |
|   \\  /    A nd           | Web:         http://www.extend-project.de       |
|    \\/     M anipulation  |                                                 |
\*---------------------------------------------------------------------------*/
FoamFile
{
    version     2.0;
    format      ascii;
    class       surfaceScalarField;
    location    "16";
    object      phi;
}
// * * * * * * * * * * * * * * * * * * * * * * * * * * * * * * * * * * * * * //

dimensions      [0 3 -1 0 0 0 0];

internalField   nonuniform List<scalar> 
275122
(
-0.0003909554
0.0003963152
-3.858916e-07
-4.973949e-06
-0.0003495984
0.0003332612
1.343004e-06
1.499423e-05
-0.0003464766
0.0003553217
-3.75688e-07
-8.469392e-06
-0.0003850663
0.0003953312
-4.573636e-07
-9.807544e-06
-0.0004209492
0.0004239557
-5.282926e-07
-2.478201e-06
-0.000423748
0.0004230462
-4.638758e-07
1.1657e-06
-0.0004192348
0.0004177666
-4.285207e-07
1.896746e-06
-0.0004127908
0.0004109789
-4.04684e-07
2.216556e-06
-0.0004052687
0.0004032997
-3.834569e-07
2.352473e-06
-0.0003972748
0.000395229
-3.614772e-07
2.407205e-06
-0.0003889993
0.0003868916
-3.380167e-07
2.445691e-06
-0.0003804916
0.0003783335
-3.137703e-07
2.471875e-06
-0.0003717973
0.0003695963
-2.886873e-07
2.489655e-06
-0.0003629623
0.0003607417
-2.787946e-07
2.499412e-06
-0.0003540428
0.000351804
-2.714405e-07
2.510249e-06
-0.0003450253
0.0003427676
-2.48416e-07
2.506118e-06
-0.0003359802
0.0003337227
-2.240234e-07
2.481613e-06
-0.0003270787
0.000324876
-1.884856e-07
2.391227e-06
-0.0003187267
0.0003169724
-2.433285e-07
1.997691e-06
-0.0003132845
0.0003136303
-6.30069e-07
2.843026e-07
-0.0003473669
0.0003609331
-1.254297e-06
-1.231188e-05
-0.0003642546
0.0003639592
-2.695098e-07
5.649845e-07
-0.0003669758
0.0003688961
-1.478383e-07
-1.77242e-06
-0.0004082354
0.0004226951
3.309378e-07
-1.47906e-05
-0.0004238741
0.000422867
5.958677e-07
4.111504e-07
-0.0004241733
0.000424578
-2.353045e-07
-1.693414e-07
-0.0004238885
0.0004226012
-2.3304e-07
1.52032e-06
-0.0004173209
0.0004132306
-1.987746e-07
4.28911e-06
-0.0003881858
0.0003624983
-2.692162e-07
2.59567e-05
-0.0001861235
0.0001909797
3.887614e-09
-4.860089e-06
-0.0002655345
0.0002791077
-7.107669e-08
-1.350208e-05
-0.0003178773
0.0003307264
7.410812e-09
-1.285651e-05
-0.0003699571
0.0003832378
8.481321e-09
-1.328924e-05
-0.0004234588
0.0004370256
9.56049e-09
-1.357634e-05
-0.0004784233
0.0004923552
1.273758e-08
-1.394459e-05
-0.0005349387
0.0005492839
1.595845e-08
-1.436108e-05
-0.0005926947
0.0006073215
6.704151e-09
-1.463352e-05
-0.0006514182
0.000666193
7.286146e-09
-1.478213e-05
-0.0007106456
0.0007255455
5.937668e-09
-1.490589e-05
-0.0007697583
0.0007858457
2.312804e-07
-1.63187e-05
1.289778e-05
-0.000533461
0.0005354849
3.436223e-10
-1.492203e-05
1.314884e-05
-0.0005415683
0.0005434381
-1.138017e-09
-1.501745e-05
1.343432e-05
-0.0005486765
0.0005502867
-1.761198e-09
-1.504281e-05
1.369909e-05
-0.0005548977
0.0005562909
-1.797778e-09
-1.509047e-05
1.405802e-05
-0.0005600227
0.0005611311
-1.813236e-09
-1.516465e-05
1.433482e-05
-0.0005641363
0.0005650196
-1.468862e-09
-1.521662e-05
1.453109e-05
-0.0005675085
0.0005682589
-1.311845e-09
-1.528019e-05
1.4665e-05
-0.0005703703
0.0005710555
-8.85008e-10
-1.534935e-05
1.51218e-05
-0.0005728669
0.0005725252
-6.898672e-10
-1.477942e-05
1.329053e-05
-0.002331089
0.00233985
8.296152e-11
-6.227349e-05
1.352245e-05
1.324148e-05
1.345829e-05
1.422447e-05
-0.002345673
0.002350408
7.899026e-11
-6.26276e-05
1.475434e-05
1.419597e-05
1.471851e-05
1.456591e-05
-0.00235418
0.00235751
6.839216e-11
-6.208971e-05
1.484381e-05
1.453407e-05
1.48163e-05
1.46246e-05
-0.002361046
0.002364431
6.414302e-11
-6.211369e-05
1.476724e-05
1.459759e-05
1.473948e-05
1.462513e-05
-0.00236754
0.0023706
9.337171e-11
-6.192095e-05
1.483435e-05
1.4595e-05
1.480643e-05
1.484043e-05
-0.002373246
0.002375745
6.775667e-11
-6.205172e-05
1.496281e-05
1.481271e-05
1.493677e-05
1.489136e-05
-0.002378243
0.002380461
1.036093e-10
-6.187812e-05
1.496417e-05
1.486293e-05
1.494134e-05
1.490553e-05
-0.002382838
0.002384922
2.874e-10
-6.164966e-05
1.490299e-05
1.487679e-05
1.487997e-05
1.484179e-05
-0.002387561
0.002389783
6.312238e-11
-6.164558e-05
1.489568e-05
1.481393e-05
1.487117e-05
1.442373e-05
-0.002389117
0.00239197
-9.984833e-11
-6.059094e-05
1.446511e-05
1.439672e-05
1.445297e-05
1.504779e-05
-0.002394865
0.002396474
-6.862227e-11
-6.197593e-05
1.514469e-05
1.504017e-05
1.513461e-05
1.495484e-05
-0.002397625
0.002398523
-9.658664e-11
-6.043996e-05
1.482234e-05
1.494839e-05
1.48164e-05
1.482936e-05
-0.00239946
0.002400329
-5.322541e-11
-5.997684e-05
1.473117e-05
1.482232e-05
1.472547e-05
1.477843e-05
-0.002401156
0.002401813
-4.20545e-11
-5.962379e-05
1.47119e-05
1.47696e-05
1.470764e-05
1.476332e-05
-0.002402422
0.002402945
-4.221706e-11
-5.944608e-05
1.470743e-05
1.474877e-05
1.470297e-05
1.479638e-05
-0.002403476
0.002403893
-3.683275e-11
-5.942894e-05
1.474119e-05
1.47499e-05
1.472433e-05
1.503676e-05
-0.002404424
0.002404727
-2.641984e-11
-6.0003e-05
1.499929e-05
1.481883e-05
1.484567e-05
1.628224e-05
-0.002404705
0.002402529
-1.608126e-11
-6.158598e-05
1.654163e-05
1.533448e-05
1.560388e-05
2.077573e-05
-0.002395933
0.002380463
-7.76469e-12
-6.309931e-05
2.209263e-05
1.814144e-05
1.755907e-05
2.589988e-05
-0.002360894
0.00238199
-9.620012e-12
-4.699522e-05
1.874685e-05
-0.002401145
0.002403454
-1.265466e-11
-2.10565e-05
3.875155e-05
-0.002396259
0.002392097
-1.323603e-11
-3.45893e-05
3.315647e-05
-0.002389252
0.002386918
-1.140954e-11
-3.082261e-05
1.795334e-05
-0.002384092
0.002385092
-8.291532e-12
-1.895332e-05
3.586034e-06
-0.002389034
0.00239299
-7.617001e-12
-7.541572e-06
-8.955676e-07
-0.002395928
0.002398609
-8.083353e-12
-1.784636e-06
-3.379484e-06
-0.002401257
0.002403556
-1.233719e-11
1.079673e-06
-4.899945e-06
-0.002405646
0.002407486
-1.861521e-11
3.060289e-06
-6.057418e-06
-0.002409176
0.002410645
-2.636612e-11
4.589182e-06
-6.871667e-06
-0.002412003
0.002413175
-3.435941e-11
5.699302e-06
-7.489333e-06
-0.002414266
0.00241521
-4.451545e-11
6.545291e-06
-7.989752e-06
-0.002416085
0.002416845
-5.824396e-11
7.229674e-06
-8.383366e-06
-0.002417541
0.002418153
-6.80672e-11
7.771369e-06
-8.658344e-06
-0.002418705
0.002419212
-4.119087e-11
8.151478e-06
-8.758586e-06
-0.002419669
0.002420142
-3.840446e-11
8.28579e-06
-8.578768e-06
-0.002420594
0.002421127
-7.228086e-11
8.045401e-06
-7.781901e-06
-0.002421671
0.002422282
-3.641274e-11
7.170511e-06
-5.698809e-06
-0.002422823
0.002423316
-5.647868e-11
5.205849e-06
-1.38381e-07
-0.00242366
0.002422503
-4.424024e-11
1.295673e-06
8.688925e-06
-0.002416862
0.002411863
-4.740965e-11
-3.689818e-06
2.048183e-06
-0.002412875
0.002413695
-4.977721e-11
-2.86736e-06
1.344981e-05
-0.002413036
0.002409206
-4.739276e-11
-9.620141e-06
3.557719e-05
-0.002392482
0.00237453
-3.866527e-11
-1.762487e-05
6.74842e-06
-0.002364481
0.00236239
-3.682657e-11
-4.657536e-06
-8.882085e-06
-0.002359747
0.002355109
-3.717778e-11
1.352067e-05
-2.071248e-05
-0.002348229
0.002342751
-3.839985e-11
2.619089e-05
-4.126336e-05
-0.002338177
0.002336422
-3.817588e-11
4.301886e-05
-9.048459e-05
-0.00233537
0.002358325
-4.157149e-11
6.75294e-05
-2.011199e-05
-0.002386875
0.002382845
-3.821946e-11
7.113721e-05
-1.363896e-05
-1.998475e-05
-1.337204e-05
-8.509791e-06
-0.002370393
0.002364703
-3.392239e-11
3.981506e-05
-8.916501e-06
-8.170457e-06
-8.528177e-06
-8.078949e-06
-0.002361293
0.002355582
-3.152016e-11
3.683148e-05
-7.765593e-06
-7.791344e-06
-7.484745e-06
-6.64128e-06
-0.002347814
0.0023399
-2.683302e-11
3.356291e-05
-6.421651e-06
-6.395869e-06
-6.189508e-06
-6.186983e-06
-0.002332354
0.002325095
-2.313493e-11
3.157217e-05
-6.174991e-06
-5.979411e-06
-5.972031e-06
-6.121432e-06
-0.002317951
0.002310701
-2.112933e-11
3.133846e-05
-6.103558e-06
-5.938468e-06
-5.924693e-06
-6.068973e-06
-0.002303288
0.00229572
-2.18306e-11
3.15016e-05
-6.054809e-06
-5.909632e-06
-5.900162e-06
-6.083618e-06
-0.002288032
0.002280199
-2.590962e-11
3.19032e-05
-6.087017e-06
-5.946191e-06
-5.953013e-06
-6.141425e-06
-0.002272233
0.002264096
-3.306576e-11
3.248643e-05
-6.149777e-06
-6.023679e-06
-6.034685e-06
-6.213191e-06
-0.002255813
0.002247349
-4.088125e-11
3.313708e-05
-6.223831e-06
-6.111673e-06
-6.124527e-06
-6.291888e-06
-0.002238735
0.002229939
-4.779855e-11
3.381587e-05
-6.303805e-06
-6.204753e-06
-6.218819e-06
-6.372687e-06
-0.00222099
0.002211859
-5.367571e-11
3.450023e-05
-6.385522e-06
-6.298237e-06
-6.312818e-06
-6.451407e-06
-0.002202574
0.002193113
-5.796307e-11
3.516554e-05
-6.463812e-06
-6.387731e-06
-6.401654e-06
-6.522154e-06
-0.002183501
0.002173729
-6.049077e-11
3.577503e-05
-6.533286e-06
-6.467817e-06
-6.480291e-06
-6.581132e-06
-0.002163818
0.002153772
-6.129568e-11
3.629769e-05
-6.590351e-06
-6.534857e-06
-6.545288e-06
-6.623045e-06
-0.002143603
0.00213333
-6.063431e-11
3.670015e-05
-6.628996e-06
-6.583727e-06
-6.590792e-06
-6.641778e-06
-0.002122955
0.002112507
-5.805002e-11
3.695568e-05
-6.643616e-06
-6.609429e-06
-6.612252e-06
-6.632473e-06
-0.00210198
0.002091409
-5.259379e-11
3.704147e-05
-6.628642e-06
-6.606063e-06
-6.60306e-06
-6.587369e-06
-0.002080781
0.002070136
-4.522298e-11
3.69309e-05
-6.576205e-06
-6.56642e-06
-6.556076e-06
-6.498993e-06
-0.002059456
0.002048785
-3.842463e-11
3.659403e-05
-6.479043e-06
-6.482149e-06
-6.463263e-06
-6.360369e-06
-0.002038103
0.002027466
-3.422245e-11
3.599795e-05
-6.330683e-06
-6.348875e-06
-6.320445e-06
-6.168617e-06
-0.002016847
0.002006314
-3.290078e-11
3.511817e-05
-6.129329e-06
-6.162896e-06
-6.124864e-06
-5.926663e-06
-0.001995837
0.001985498
-3.402422e-11
3.395227e-05
-5.879059e-06
-5.926524e-06
-5.880098e-06
-5.643748e-06
-0.001975255
0.001965204
-3.691812e-11
3.252965e-05
-5.590221e-06
-5.648522e-06
-5.595962e-06
-5.334423e-06
-0.001955292
0.001945624
-4.098821e-11
3.091072e-05
-5.278053e-06
-5.342899e-06
-5.287181e-06
-5.016202e-06
0.001926928
-4.60369e-11
2.917905e-05
-4.960244e-06
-5.026922e-06
-4.971273e-06
-0.001936133
-4.706826e-06
-0.00191793
0.001909247
-5.069212e-11
2.742863e-05
-4.654328e-06
-4.718434e-06
-4.665994e-06
-4.422499e-06
-0.001900787
0.001892653
-5.434902e-11
2.575267e-05
-4.375893e-06
-4.433751e-06
-4.386969e-06
-4.176091e-06
-0.001884746
0.001877159
-5.664312e-11
2.423279e-05
-4.137294e-06
-4.185867e-06
-4.146677e-06
-3.976803e-06
-0.001869788
0.001862716
-5.672375e-11
2.293468e-05
-3.94694e-06
-3.984485e-06
-3.954198e-06
-3.830025e-06
-0.001855837
0.001849222
-5.42103e-11
2.190474e-05
-3.809699e-06
-3.835258e-06
-3.814452e-06
-3.738718e-06
-0.001842768
0.001836533
-4.950766e-11
2.1173e-05
-3.728336e-06
-3.741007e-06
-3.730019e-06
-3.704453e-06
-0.001830421
0.001824477
-4.277649e-11
2.07571e-05
-3.704402e-06
-3.702928e-06
-3.701996e-06
-3.728427e-06
-0.001818614
0.001812868
-3.532625e-11
2.066566e-05
-3.739207e-06
-3.721453e-06
-3.730822e-06
-3.812143e-06
-0.001807159
0.00180152
-2.848004e-11
2.08992e-05
-3.834606e-06
-3.796722e-06
-3.816627e-06
-3.956805e-06
-0.001795879
0.001790269
-2.158833e-11
2.14459e-05
-3.991548e-06
-3.9282e-06
-3.958759e-06
-4.159827e-06
-0.001784629
0.001778991
-1.395408e-11
2.227078e-05
-4.206367e-06
-4.113497e-06
-4.153813e-06
-4.408056e-06
-0.001773311
0.001767622
-6.619473e-12
2.329222e-05
-4.461872e-06
-4.343164e-06
-4.390287e-06
-4.659451e-06
-0.001761891
0.001756147
-1.435955e-12
2.433616e-05
-4.706758e-06
-4.590571e-06
-4.636346e-06
-4.82187e-06
-0.001750355
0.001744528
2.873778e-12
2.508045e-05
-4.835139e-06
-4.785516e-06
-4.811408e-06
-4.765238e-06
-0.0017386
0.001732573
2.555783e-12
2.509649e-05
-4.719312e-06
-4.804047e-06
-4.781043e-06
-4.421644e-06
-0.001726341
0.001719942
5.431427e-13
2.411188e-05
-4.325382e-06
-4.525867e-06
-4.439591e-06
-3.872565e-06
-0.001713274
0.001706478
6.173207e-13
2.226155e-05
-3.756645e-06
-3.979197e-06
-3.85681e-06
-3.257007e-06
-0.001699475
0.001692477
3.327405e-12
1.994042e-05
-3.151957e-06
-3.328337e-06
-3.205422e-06
-2.744053e-06
-0.001685445
0.001678691
4.761787e-12
1.761633e-05
-2.673079e-06
-2.762169e-06
-2.682888e-06
-2.31316e-06
-0.001672125
0.001666043
2.472084e-12
1.521333e-05
-2.252404e-06
-2.314319e-06
-2.251099e-06
-1.91136e-06
-0.001660282
0.001655135
-7.076325e-12
1.2681e-05
-1.85301e-06
-1.914241e-06
-1.856077e-06
-1.519086e-06
-0.001650391
0.001646537
-2.173043e-11
9.780326e-06
-1.461629e-06
-1.495337e-06
-1.449884e-06
-1.043304e-06
-0.001643159
0.001640501
-4.622374e-11
6.641046e-06
-9.486071e-07
-1.041738e-06
-9.489851e-07
-4.44966e-07
-0.001638059
0.001636345
-7.061439e-11
2.714361e-06
-5.419428e-08
-4.454928e-07
-5.544625e-08
-8.368008e-08
-0.001635803
0.00163566
-8.522166e-11
4.861614e-07
-1.059648e-07
-6.157804e-08
-9.210315e-08
1.154668e-07
-0.001636592
0.001638487
-9.6787e-11
-2.428861e-06
1.484858e-07
1.188089e-07
1.515903e-07
4.552787e-07
-0.001640943
0.001644245
-1.001344e-10
-5.214684e-06
4.956755e-07
4.603344e-07
5.013514e-07
7.666422e-07
-0.001648162
0.001652944
-9.574885e-11
-7.938754e-06
8.066512e-07
7.728771e-07
8.108624e-07
1.057835e-06
-0.001658304
0.001664388
-8.223553e-11
-1.040685e-05
1.100576e-06
1.059925e-06
1.104361e-06
1.289312e-06
-0.001670945
0.001678133
-6.28382e-11
-1.241486e-05
1.319167e-06
1.294164e-06
1.324076e-06
1.437223e-06
-0.001685722
0.00169384
-4.359839e-11
-1.391064e-05
1.45484e-06
1.441872e-06
1.459247e-06
1.491826e-06
-0.001702287
0.001711125
-2.544822e-11
-1.482325e-05
1.496957e-06
1.496182e-06
1.50076e-06
1.423806e-06
-0.001720177
0.001729449
-1.020209e-11
-1.493048e-05
1.401272e-06
1.426986e-06
1.406705e-06
1.1058e-06
-0.001738943
0.001748565
2.24115e-12
-1.396794e-05
1.06232e-06
1.110262e-06
1.067677e-06
7.209483e-07
-0.00175817
0.001767526
1.229154e-11
-1.214165e-05
6.651771e-07
7.275982e-07
6.71681e-07
1.79824e-07
-0.001776657
0.001785269
2.622171e-11
-9.199091e-06
1.018911e-07
1.909001e-07
1.145511e-07
-5.797444e-07
-0.001793563
0.001801087
5.108096e-11
-5.065915e-06
-7.018988e-07
-5.36547e-07
-6.396857e-07
-1.927306e-06
-0.001807844
0.001813565
9.344656e-11
2.10901e-06
-2.264122e-06
-1.670442e-06
-1.96835e-06
-4.912692e-06
-0.001818898
0.001823432
1.691118e-10
1.538187e-05
-5.634813e-06
-4.374763e-06
-4.993577e-06
-9.496597e-06
-0.001828203
0.001832551
2.718752e-10
3.369814e-05
-1.019867e-05
-8.809612e-06
-9.541503e-06
-1.07113e-05
-0.001835873
0.001837024
2.04289e-10
4.171312e-05
-1.061168e-05
-1.075075e-05
-1.079009e-05
-8.175019e-06
-0.001835961
0.001830417
1.613804e-10
3.78177e-05
-7.446337e-06
-8.653935e-06
-7.998221e-06
-4.689637e-06
-0.001819586
0.001805198
1.714758e-10
3.300903e-05
-4.27703e-06
-5.09072e-06
-4.563257e-06
-3.05475e-06
-0.001788813
0.001770888
2.916316e-10
3.009948e-05
-2.910771e-06
-3.182612e-06
-3.02624e-06
-2.954734e-06
-0.001751821
0.001731951
4.147948e-10
3.182444e-05
-2.995825e-06
-3.001534e-06
-3.003258e-06
-3.501424e-06
-0.001711894
0.001691803
2.598445e-10
3.443232e-05
-3.616742e-06
-3.550571e-06
-3.672867e-06
-4.043696e-06
-0.001672131
0.001652883
-1.698148e-10
3.556636e-05
-4.092835e-06
-4.069598e-06
-4.111836e-06
-3.994704e-06
-0.001634265
0.001616502
-5.701838e-10
3.362808e-05
-3.94117e-06
-3.992306e-06
-3.936358e-06
-3.388041e-06
-0.001599773
0.001584667
-7.377144e-10
2.840233e-05
-3.269591e-06
-3.378313e-06
-3.259991e-06
-2.42763e-06
0.0015605
-6.964733e-10
2.018672e-05
-0.001571265
-2.289731e-06
-2.420379e-06
-2.282597e-06
-1.315095e-06
-0.001552103
0.001546758
-5.545286e-10
1.030919e-05
-1.170157e-06
-1.311381e-06
-1.166886e-06
-1.703144e-07
-0.001543793
0.001543681
-3.929742e-10
5.416084e-07
-4.596408e-08
-1.690657e-07
-4.479539e-08
7.534031e-07
-0.001545631
0.001550364
-2.513045e-10
-7.949502e-06
8.538073e-07
7.545344e-07
8.548115e-07
1.486087e-06
-0.001556576
0.001564697
-1.428781e-10
-1.42275e-05
1.567342e-06
1.486165e-06
1.567388e-06
1.914822e-06
-0.001573751
0.001584187
-6.497213e-11
-1.815536e-05
1.945296e-06
1.914577e-06
1.945097e-06
2.052833e-06
-0.001595254
0.001607312
-1.472553e-11
-2.026433e-05
2.051032e-06
2.052488e-06
2.050694e-06
2.02884e-06
-0.001619772
0.001632956
1.311003e-11
-2.127205e-05
2.015758e-06
2.028343e-06
2.015307e-06
1.91977e-06
-0.00164644
0.001660526
2.711285e-11
-2.17513e-05
1.913416e-06
1.91942e-06
1.913068e-06
1.825528e-06
-0.001674788
0.001689436
3.161416e-11
-2.193084e-05
1.816237e-06
1.8252e-06
1.815918e-06
1.703534e-06
-0.001704196
0.001719189
3.103093e-11
-2.177658e-05
1.688288e-06
1.703229e-06
1.687985e-06
1.545075e-06
-0.001734236
0.001749364
2.764316e-11
-2.126798e-05
1.525244e-06
1.544816e-06
1.524949e-06
1.349401e-06
-0.001764497
0.001779562
2.352039e-11
-2.041388e-05
1.325252e-06
1.349149e-06
1.32498e-06
1.108681e-06
-0.001794569
0.001809321
2.095834e-11
-1.912599e-05
1.0787e-06
1.108312e-06
1.078542e-06
8.068621e-07
-0.001823946
0.001838162
1.87386e-11
-1.736634e-05
7.682271e-07
8.064822e-07
7.683415e-07
4.328159e-07
-0.001852206
0.001865579
1.809086e-11
-1.499532e-05
3.783022e-07
4.324049e-07
3.78822e-07
-3.795334e-08
-0.001878528
0.001890343
1.907155e-11
-1.147708e-05
-1.31297e-07
-3.877405e-08
-1.299163e-07
-7.41212e-07
-0.001901593
0.001911346
2.865041e-11
-6.663871e-06
-8.045791e-07
-7.420646e-07
-8.014006e-07
-1.496169e-06
-0.001919955
0.00192672
1.821523e-11
-5.193721e-07
-1.632413e-06
-1.493264e-06
-1.623866e-06
-2.562771e-06
-0.00193235
0.001934898
5.764449e-11
8.07494e-06
-2.749685e-06
-2.565044e-06
-2.745007e-06
-4.047532e-06
-0.001935144
0.001932644
7.439338e-11
1.923204e-05
-4.327263e-06
-4.047965e-06
-4.309799e-06
-6.167131e-06
-0.001927086
0.001917112
1.387862e-10
3.555831e-05
-6.67268e-06
-6.131536e-06
-6.613028e-06
-9.738619e-06
-0.001905401
0.001892544
2.920151e-10
5.312893e-05
-1.055021e-05
-9.5979e-06
-1.038572e-05
-2.252009e-05
-0.001881066
0.001877375
2.271159e-10
9.842092e-05
-2.479685e-05
-2.250841e-05
-2.490471e-05
-1.458058e-05
-0.001861797
0.001821888
1.764335e-10
9.08973e-05
-1.071099e-05
-1.476451e-05
-1.09323e-05
-8.26265e-06
-0.0004399674
0.0004314514
7.439497e-09
1.677115e-05
-1.329255e-05
-0.0004127887
0.000405234
4.110587e-09
2.08432e-05
-6.530086e-06
-0.0003807357
0.0003716796
-9.153352e-09
1.559542e-05
-2.658322e-06
-0.0003437283
0.0003347315
-7.145778e-09
1.166227e-05
-3.828177e-06
-0.0003105082
0.0003035079
-5.019378e-09
1.08335e-05
-4.778718e-06
-0.0002854516
0.0002803002
-3.083244e-09
9.933276e-06
-4.508928e-06
-0.0002668938
0.0002630079
-1.625138e-09
8.396534e-06
-4.055015e-06
-0.0002524782
0.0002493456
-1.199154e-09
7.188903e-06
-3.195565e-06
-0.0002410245
0.0002387149
-9.522856e-10
5.50612e-06
-1.935385e-06
-0.0002331965
0.0002318782
-6.748219e-10
3.254438e-06
-9.870536e-07
-0.0002291332
0.0002285934
-4.430165e-10
1.52724e-06
-6.382303e-07
-0.0002277319
0.0002276455
-2.841558e-10
7.249624e-07
-5.129784e-07
-0.0002276883
0.0002277711
-1.777302e-10
4.303905e-07
-5.772834e-07
-0.0002280567
0.0002281503
-1.11883e-10
4.837797e-07
-6.852893e-07
-0.000228395
0.0002284659
-7.256614e-11
6.144755e-07
-7.75906e-07
-0.0002286465
0.0002286965
-5.274708e-11
7.259495e-07
-8.350596e-07
-0.0002288241
0.0002288665
-3.664004e-11
7.926432e-07
-8.579773e-07
-0.0002290074
0.0002290667
-2.56949e-11
7.986662e-07
-8.601586e-07
-0.0002292811
0.0002293704
-2.335004e-11
7.708945e-07
-8.538111e-07
-0.000229687
0.0002298152
-1.647893e-11
7.256193e-07
-8.503569e-07
-0.0002302543
0.00023042
4.587562e-12
6.846889e-07
-8.60163e-07
-0.0002309552
0.0002311461
4.759623e-11
6.692076e-07
-8.826318e-07
-0.0002317402
0.0002319446
1.224567e-10
6.78165e-07
-9.152142e-07
-0.0002325651
0.0002327727
2.092095e-10
7.073834e-07
-9.574259e-07
-0.0002333867
0.0002335839
2.75342e-10
7.599136e-07
-9.92206e-07
-0.0002341595
0.0002343284
2.837636e-10
8.230186e-07
-1.06472e-06
-0.0002348062
0.0002349402
3.203053e-10
9.303409e-07
-1.170102e-06
-0.0002352934
0.0002353698
2.397443e-10
1.093499e-06
-1.279342e-06
-0.0002355405
0.0002355403
3.202592e-10
1.279306e-06
-1.388507e-06
-0.0002354725
0.0002353815
6.114881e-10
1.478932e-06
-1.494952e-06
-0.000235031
0.00023484
1.099938e-09
1.684874e-06
-1.572587e-06
-0.0002341834
0.0002338846
1.499042e-09
1.869883e-06
-1.595578e-06
-0.0002329191
0.0002325162
1.305627e-09
1.997169e-06
-1.564596e-06
-0.0002313044
0.0002308352
-1.260728e-10
2.033964e-06
-1.383502e-06
-0.0002296124
0.0002291879
-1.327077e-09
1.80936e-06
-2.802082e-07
-0.000228105
0.0002274145
-1.098175e-09
9.717725e-07
4.541741e-07
-0.0002255027
0.0002249244
-6.640488e-10
1.248129e-07
5.952436e-07
-0.0002231943
0.0002226335
-5.162287e-10
-3.397972e-08
6.424047e-07
-0.0002209957
0.0002204539
-5.31084e-10
-1.000992e-07
6.461311e-07
-0.0002188283
0.000218282
-4.802524e-10
-9.937078e-08
6.445675e-07
-0.0002166346
0.000216082
-3.358105e-10
-9.166342e-08
6.475403e-07
-0.0002144253
0.0002138739
-1.697507e-10
-9.596372e-08
6.422003e-07
-0.0002122346
0.0002116973
-5.199346e-11
-1.047951e-07
6.356073e-07
-0.0002101158
0.0002095993
-3.043521e-11
-1.19021e-07
6.362551e-07
-0.0002080801
0.000207585
-1.15943e-10
-1.410017e-07
6.412417e-07
-0.0002061322
0.0002056604
-2.317536e-10
-1.691612e-07
6.471128e-07
-0.0002042811
0.000203835
-3.058361e-10
-2.006806e-07
6.535781e-07
-0.000202535
0.0002021166
-3.222783e-10
-2.348142e-07
6.596781e-07
-0.0002009011
0.0002005106
-2.869717e-10
-2.688944e-07
6.64235e-07
-0.0001993752
0.0001990099
-2.319971e-10
-2.987615e-07
6.685699e-07
-0.0001979471
0.0001976054
-1.718179e-10
-3.26735e-07
6.750229e-07
-0.0001966132
0.0001962957
-1.222639e-10
-3.574093e-07
6.835116e-07
-0.0001953775
0.0001950843
-8.809804e-11
-3.90287e-07
6.9391e-07
-0.0001942447
0.0001939783
-7.471546e-11
-4.27413e-07
7.014527e-07
-0.0001932097
0.0001929648
-7.073786e-11
-4.564477e-07
7.068415e-07
-0.0001922561
0.0001920298
-7.151281e-11
-4.804437e-07
7.110362e-07
-0.0001913742
0.0001911644
-7.393411e-11
-5.011064e-07
7.139043e-07
-0.0001905538
0.0001903572
-7.112802e-11
-5.172734e-07
7.175071e-07
-0.0001897844
0.0001896006
-6.644223e-11
-5.335728e-07
7.242991e-07
-0.0001890682
0.000188899
-6.241348e-11
-5.55014e-07
7.338177e-07
-0.0001884133
0.0001882603
-6.654684e-11
-5.807799e-07
7.4508e-07
-0.0001878236
0.0001876867
-6.565305e-11
-6.080901e-07
7.573169e-07
-0.0001872984
0.0001871776
-5.756465e-11
-6.364743e-07
7.704961e-07
-0.0001868356
0.0001867297
-5.11666e-11
-6.645481e-07
7.857154e-07
-0.0001864329
0.000186342
-4.522001e-11
-6.947165e-07
8.033076e-07
-0.0001860904
0.0001860133
-4.245163e-11
-7.262105e-07
8.197849e-07
-0.0001858083
0.0001857463
-3.277244e-11
-7.57716e-07
8.372548e-07
-0.0001855894
0.0001855434
-2.195741e-11
-7.911649e-07
8.556614e-07
-0.00018543
0.0001854037
6.98247e-12
-8.293424e-07
9.210969e-07
-0.0001853511
0.0001852835
1.673633e-10
-8.536112e-07
9.17671e-07
-0.0001836675
0.0007579852
2.24421e-11
-3.462152e-06
-1.702615e-07
9.228776e-07
-1.842003e-07
-0.0001836715
-0.0001943334
-0.0001943368
4.125419e-07
-0.000760784
0.0007613117
2.226793e-11
-2.824965e-06
7.516695e-07
3.962657e-07
7.36837e-07
6.582741e-07
-0.0007617906
0.0007622591
2.084125e-11
-3.222278e-06
7.304893e-07
6.459963e-07
7.190174e-07
7.690163e-07
-0.0007628027
0.0007631533
1.960466e-11
-3.515037e-06
8.232322e-07
7.587353e-07
8.133846e-07
8.458736e-07
-0.0007634017
0.0007635733
1.740181e-11
-3.592876e-06
8.738439e-07
8.365979e-07
8.649568e-07
8.888431e-07
-0.0007637493
0.0007639304
1.458064e-11
-3.748359e-06
9.026688e-07
8.808388e-07
8.948677e-07
9.200857e-07
-0.00076414
0.000764363
1.369065e-11
-3.908901e-06
9.298224e-07
9.130912e-07
9.229148e-07
9.510429e-07
-0.0007646012
0.0007648567
1.386352e-11
-4.059607e-06
9.563779e-07
9.454659e-07
9.511806e-07
9.71798e-07
-0.000765133
0.0007654348
1.329768e-11
-4.184527e-06
9.740369e-07
9.672566e-07
9.696336e-07
9.847384e-07
-0.0007657559
0.0007661051
1.243551e-11
-4.281725e-06
9.853155e-07
9.809372e-07
9.815944e-07
9.925402e-07
-0.0007664712
0.0007668657
1.144899e-11
-4.357929e-06
9.92312e-07
9.893597e-07
9.892476e-07
9.986207e-07
-0.0007672732
0.0007677085
1.048258e-11
-4.424344e-06
9.984642e-07
9.959866e-07
9.959078e-07
1.005473e-06
-0.0007681511
0.0007686167
9.698728e-12
-4.483201e-06
1.005434e-06
1.003285e-06
1.003317e-06
1.013336e-06
-0.0007690826
0.000769561
8.914943e-12
-4.528864e-06
1.013664e-06
1.011547e-06
1.011933e-06
1.022851e-06
-0.0007700399
0.0007705174
8.129266e-12
-4.567137e-06
1.023391e-06
1.021392e-06
1.021979e-06
1.031665e-06
-0.0007709867
0.0007714345
7.186381e-12
-4.57339e-06
1.032252e-06
1.03047e-06
1.031132e-06
1.036828e-06
-0.0007718559
0.0007722312
5.919097e-12
-4.521328e-06
1.037117e-06
1.035889e-06
1.036181e-06
1.035607e-06
-0.0007725554
0.0007728034
4.424257e-12
-4.388341e-06
1.035324e-06
1.034835e-06
1.034604e-06
1.024498e-06
-0.0007729852
0.0007730492
2.574906e-12
-4.157108e-06
1.02262e-06
1.023959e-06
1.022078e-06
1.000968e-06
-0.0007730287
0.000772854
5.013939e-13
-3.820484e-06
9.969999e-07
1.000568e-06
9.966194e-07
9.585204e-07
-0.0007725556
0.0007720791
-1.902312e-12
-3.339838e-06
9.499624e-07
9.581873e-07
9.496996e-07
8.947652e-07
-0.0007714826
0.0007706713
-3.767719e-12
-2.753715e-06
8.879315e-07
8.945511e-07
8.877698e-07
8.13498e-07
-0.000769722
0.0007685387
-5.167199e-12
-2.048334e-06
8.023875e-07
8.134322e-07
8.023376e-07
7.180926e-07
-0.0007672055
0.0007656389
-6.030188e-12
-1.275211e-06
7.029184e-07
7.179401e-07
7.028364e-07
6.116323e-07
-0.0007639158
0.0007619418
-6.745467e-12
-4.462496e-07
5.984813e-07
6.116317e-07
5.984292e-07
4.960048e-07
-0.000759806
0.0007573879
-7.473036e-12
4.664159e-07
4.799226e-07
4.959185e-07
4.797925e-07
3.709718e-07
-0.0007548025
0.0007519614
-8.360311e-12
1.38906e-06
3.55043e-07
3.709826e-07
3.550391e-07
2.479344e-07
-0.0007489621
0.0007457229
-9.740624e-12
2.277735e-06
2.327581e-07
2.479733e-07
2.327996e-07
1.329824e-07
-0.0007423415
0.0007387481
-1.125571e-11
3.089235e-06
1.190663e-07
1.330264e-07
1.191244e-07
2.787708e-08
-0.0007350381
0.0007311658
-1.200527e-11
3.788911e-06
1.380567e-08
2.789353e-08
1.380836e-08
-5.32544e-08
-0.0007271972
0.0007230921
-1.270388e-11
4.336489e-06
-6.247491e-08
-5.322911e-08
-6.244287e-08
-1.157237e-07
-0.0007189315
0.0007146941
-1.325652e-11
4.713478e-06
-1.223551e-07
-1.156621e-07
-1.222988e-07
-1.547061e-07
-0.0007104372
0.0007061598
-1.389727e-11
4.902981e-06
-1.581413e-07
-1.546358e-07
-1.580859e-07
-1.674708e-07
-0.0007018975
0.0006976728
-1.394934e-11
4.894496e-06
-1.674694e-07
-1.67424e-07
-1.674172e-07
-1.525076e-07
-0.0006934976
0.0006894189
-1.334307e-11
4.681507e-06
-1.48926e-07
-1.524545e-07
-1.488711e-07
-1.089457e-07
-0.0006854237
0.0006815839
-1.237166e-11
4.26143e-06
-1.018679e-07
-1.089031e-07
-1.018365e-07
-3.856474e-08
-0.0006778634
0.0006743617
-1.171776e-11
3.636707e-06
-2.893102e-08
-3.857725e-08
-2.894598e-08
6.286638e-08
-0.0006710197
0.0006679329
-1.141167e-11
2.807053e-06
7.696574e-08
6.287396e-08
7.698653e-08
1.897346e-07
-0.0006650345
0.0006624597
-1.111887e-11
1.779363e-06
2.079611e-07
1.897533e-07
2.07995e-07
3.428648e-07
-0.0006601102
0.0006581377
-1.03632e-11
5.550714e-07
3.658439e-07
3.428473e-07
3.658431e-07
5.207247e-07
-0.0006564183
0.0006551253
-9.290179e-12
-8.462637e-07
5.491631e-07
5.204725e-07
5.489159e-07
7.294923e-07
-0.0006540806
0.0006535362
-8.047801e-12
-2.438303e-06
7.623618e-07
7.290094e-07
7.618825e-07
9.615532e-07
-0.0006532662
0.0006535218
-6.280515e-12
-4.168957e-06
9.957485e-07
9.608931e-07
9.951243e-07
1.206361e-06
-0.0006540663
0.0006551713
-4.372978e-12
-6.001636e-06
1.242766e-06
1.205539e-06
1.242026e-06
1.447526e-06
-0.0006565815
0.0006586082
-2.922227e-12
-7.880464e-06
1.480254e-06
1.446576e-06
1.479361e-06
1.641327e-06
-0.0006610148
0.0006641485
-1.578954e-12
-9.721678e-06
1.653709e-06
1.640315e-06
1.652652e-06
1.861326e-06
-0.000667668
0.0006718453
2.860223e-13
-1.169862e-05
1.900718e-06
1.859967e-06
1.899327e-06
2.163533e-06
-0.0006763554
0.0006815309
1.589666e-12
-1.391812e-05
2.209323e-06
2.162066e-06
2.207712e-06
2.481202e-06
-0.000687049
0.0006932472
3.037508e-12
-1.621503e-05
2.528914e-06
2.479597e-06
2.52707e-06
2.806965e-06
-0.0006997909
0.0007070192
4.192371e-12
-1.855063e-05
2.856113e-06
2.805228e-06
2.854006e-06
3.135241e-06
-0.0007145919
0.0007228435
5.670975e-12
-2.08891e-05
3.185615e-06
3.13341e-06
3.183246e-06
3.461719e-06
-0.0007314329
0.0007406807
7.351549e-12
-2.319442e-05
3.513813e-06
3.459911e-06
3.511237e-06
3.795965e-06
-0.000750239
0.0007603472
8.790097e-12
-2.542461e-05
3.864378e-06
3.794252e-06
3.861765e-06
4.076954e-06
-0.0007705575
0.0007815032
8.079196e-12
-2.745241e-05
4.177929e-06
4.075536e-06
4.176244e-06
4.178613e-06
-0.0007937408
0.0008056581
6.459099e-12
-2.884726e-05
4.289931e-06
4.174696e-06
4.286757e-06
4.53831e-06
-0.0008175301
0.0008301232
5.535204e-12
-3.065475e-05
4.49446e-06
4.536229e-06
4.492659e-06
4.666455e-06
-0.0008430395
0.0008563071
5.320878e-12
-3.196251e-05
4.683667e-06
4.663683e-06
4.68106e-06
4.850188e-06
-0.0008697359
0.0008834804
4.771525e-12
-3.316844e-05
4.864198e-06
4.84784e-06
4.861717e-06
4.985601e-06
-0.0008973605
0.0009114439
4.045325e-12
-3.405156e-05
5.001088e-06
4.983041e-06
4.99851e-06
5.082571e-06
-0.0009256091
0.0009398903
2.987271e-12
-3.462611e-05
5.092587e-06
5.079918e-06
5.089893e-06
5.138e-06
-0.0009542147
0.0009685771
1.836033e-12
-3.491912e-05
5.143044e-06
5.135291e-06
5.140333e-06
5.157749e-06
-0.000982949
0.0009972903
4.585448e-13
-3.496675e-05
5.157702e-06
5.15505e-06
5.155009e-06
5.143906e-06
-0.001011613
0.001025841
-1.423942e-12
-3.478809e-05
5.138775e-06
5.141238e-06
5.136126e-06
5.095437e-06
-0.001040025
0.00105405
-2.683707e-12
-3.438028e-05
5.084403e-06
5.092861e-06
5.081856e-06
5.004017e-06
-0.001068005
0.001081724
-2.260515e-12
-3.369194e-05
4.985081e-06
5.001568e-06
4.982668e-06
4.858268e-06
-0.001095332
0.001108613
-2.347204e-12
-3.265413e-05
4.830496e-06
4.855967e-06
4.828235e-06
4.657645e-06
-0.001121739
0.001134454
-4.458626e-12
-3.126982e-05
4.622106e-06
4.655508e-06
4.62001e-06
4.410134e-06
-0.00114697
0.001159005
-6.988642e-12
-2.958815e-05
4.368495e-06