/*--------------------------------*- C++ -*----------------------------------*\
| =========                 |                                                 |
| \\      /  F ield         | foam-extend: Open Source CFD                    |
|  \\    /   O peration     | Version:     3.1                                |
|   \\  /    A nd           | Web:         http://www.extend-project.de       |
|    \\/     M anipulation  |                                                 |
\*---------------------------------------------------------------------------*/
FoamFile
{
    version     2.0;
    format      ascii;
    class       volScalarField;
    location    "6";
    object      k;
}
// * * * * * * * * * * * * * * * * * * * * * * * * * * * * * * * * * * * * * //

dimensions      [0 2 -2 0 0 0 0];

internalField   nonuniform List<scalar> 
119952
(
0.007952747
0.006517994
0.006501324
0.007014137
0.007358402
0.007343887
0.007416635
0.007513601
0.007600236
0.007664889
0.007710954
0.007744025
0.00776881
0.007788863
0.00780701
0.00782518
0.007844903
0.007868813
0.007903928
0.007994679
0.008871888
0.008723259
0.008785212
0.009618377
0.009411239
0.00929905
0.009202755
0.00910196
0.008836374
0.01535343
0.0178702
0.01552491
0.01436237
0.0138855
0.0137997
0.01392883
0.01415518
0.01440229
0.0146217
0.01488719
0.01668654
0.01917078
0.02150292
0.0233523
0.02468007
0.0255964
0.0262318
0.02668933
0.02703475
0.03078431
0.03124099
0.03150813
0.03171905
0.03193665
0.03218079
0.03245061
0.03273309
0.03300557
0.03336607
0.033562
0.03367209
0.03378654
0.03391312
0.03405141
0.03419629
0.03433784
0.03446286
0.03460864
0.03518284
0.03505886
0.03491804
0.03498923
0.0350997
0.03511752
0.03506615
0.03500984
0.03495643
0.03490863
0.03486832
0.03483614
0.03481259
0.03479808
0.0347951
0.03480391
0.03482382
0.03485337
0.03488895
0.03493025
0.03506247
0.03521775
0.03531462
0.03561036
0.03610541
0.03644684
0.03673059
0.03701221
0.03712437
0.03647441
0.0361528
0.03604004
0.03600472
0.0360076
0.03603332
0.0360748
0.03612962
0.0361971
0.03627528
0.03636152
0.03645272
0.03654569
0.03663726
0.03672447
0.03680466
0.03687553
0.03693518
0.03698209
0.03701503
0.03703298
0.03703503
0.03702034
0.03698819
0.03693792
0.0368689
0.03678061
0.03667251
0.03654414
0.03639501
0.03622468
0.03603279
0.03581908
0.03558343
0.0353259
0.03504674
0.03474635
0.03442529
0.03408417
0.03372347
0.0333425
0.03294171
0.03252331
0.03208925
0.03164149
0.03118195
0.03071323
0.03023671
0.02975394
0.02927334
0.02881175
0.02838253
0.0279401
0.02748044
0.02700959
0.02653517
0.02606072
0.02558931
0.02512391
0.0246672
0.02422197
0.02379015
0.02337262
0.02296999
0.02258241
0.02220984
0.02185196
0.02150843
0.02117931
0.02086468
0.02056383
0.02027613
0.02000108
0.01973822
0.01948704
0.01924701
0.01901756
0.01879816
0.01858825
0.01838728
0.01819474
0.01801011
0.01783293
0.01766277
0.01749922
0.01734191
0.01719052
0.01704476
0.0169044
0.01676921
0.01663907
0.01651382
0.01639344
0.01627785
0.01616711
0.01606029
0.01595712
0.01585677
0.01575772
0.01566541
0.01565541
0.01564215
0.01555669
0.0154512
0.01534073
0.01522415
0.01509775
0.01497006
0.01484607
0.01472873
0.01461952
0.01451911
0.01442775
0.01434555
0.01427252
0.01420858
0.01415385
0.01410794
0.01407092
0.01404237
0.01402212
0.01401035
0.01400707
0.01401233
0.01402615
0.01404856
0.01407954
0.01411936
0.01416808
0.01422592
0.01429305
0.01436882
0.01444839
0.01453107
0.01461683
0.01466302
0.01476545
0.01488918
0.0150168
0.01514006
0.01525741
0.01536808
0.01547138
0.01556698
0.01565488
0.01573523
0.01580815
0.01587396
0.01593301
0.01598565
0.01603224
0.01607314
0.01610866
0.01613913
0.01616483
0.01618605
0.01620305
0.01621608
0.01622535
0.01623107
0.01623348
0.01623275
0.01622905
0.01622258
0.01621355
0.01620212
0.0161885
0.0161731
0.01615677
0.01613944
0.01555063
0.01562906
0.01566146
0.01564722
0.01561631
0.01557295
0.01551435
0.01545111
0.01538978
0.01533382
0.01528506
0.01524399
0.01521092
0.01518541
0.01516676
0.01515403
0.01514627
0.01514256
0.01514204
0.01514393
0.01514757
0.01515237
0.01515787
0.0151637
0.01516957
0.01517528
0.01518066
0.01518563
0.01519015
0.01519421
0.01519781
0.01520098
0.01520375
0.01520617
0.0152083
0.01521019
0.0152119
0.01521348
0.015215
0.0152165
0.01521806
0.01521982
0.01522205
0.01522545
0.0152319
0.01524229
0.01524955
0.01525376
0.01525884
0.0152645
0.01527023
0.01527677
0.01528434
0.01530579
0.0153782
0.015356
0.0153353
0.01531091
0.01528041
0.01524435
0.01520285
0.01515723
0.01510946
0.01506134
0.01501436
0.01496964
0.01492784
0.0148895
0.01485496
0.01482421
0.01479708
0.01477336
0.01475277
0.01473499
0.0147197
0.01470658
0.01469533
0.01468569
0.01467743
0.01467033
0.0146642
0.01465886
0.01465417
0.01465
0.01464624
0.01464282
0.01463967
0.01463672
0.01463393
0.01463123
0.01462861
0.01462602
0.01462344
0.01462086
0.01461827
0.01461565
0.014613
0.0146103
0.01460758
0.01460482
0.01460204
0.01459925
0.01459647
0.01459372
0.01459103
0.0145884
0.01458587
0.01458344
0.01458113
0.01457895
0.01457691
0.01457501
0.01457327
0.01457168
0.01457026
0.01456899
0.01456789
0.01456696
0.01456618
0.01456556
0.01456511
0.01456483
0.01456472
0.0145648
0.01456507
0.01456558
0.01456631
0.01456728
0.01456842
0.01456977
0.01457115
0.01457248
0.01457303
0.01457168
0.01456497
0.0145452
0.01449033
0.01440336
0.01462694
0.05994039
0.05694358
0.05499152
0.0537661
0.05297598
0.05241944
0.05195901
0.05149999
0.0510034
0.04867958
0.04697734
0.04698163
0.04778665
0.0488622
0.04993183
0.0508716
0.05163985
0.05223236
0.05733429
0.05733736
0.0572612
0.05697985
0.05658808
0.0561538
0.05572725
0.05533493
0.05498526
0.05467949
0.0545875
0.05432481
0.053988
0.05361861
0.05322322
0.05281659
0.05241484
0.05200875
0.05158497
0.05135055
0.05121696
0.05083963
0.05043333
0.05002172
0.04959782
0.04917483
0.04876247
0.04836794
0.04799493
0.04762653
0.04732586
0.0470934
0.04690356
0.04675875
0.04666055
0.04660524
0.04660961
0.04673122
0.04964606
0.04978785
0.04999093
0.05021515
0.05044073
0.05065707
0.05086061
0.05104781
0.05121492
0.05136508
0.05148986
0.05158351
0.05165437
0.05170549
0.05173986
0.05175688
0.05176684
0.05178437
0.05185996
0.05190304
0.05181761
0.05173846
0.05169431
0.05163629
0.05154289
0.05142519
0.05129738
0.05116735
0.05104151
0.05092474
0.05082054
0.05073192
0.05066237
0.05061179
0.05057881
0.05056186
0.05055982
0.05057355
0.05061699
0.05069688
0.05079412
0.0509497
0.05121213
0.05152869
0.05185187
0.0521754
0.0524354
0.05250701
0.05244604
0.05245062
0.05250848
0.05259375
0.05269768
0.05281234
0.05293175
0.0530519
0.05317046
0.05328588
0.05339691
0.05350236
0.05360097
0.05369145
0.05377243
0.05384252
0.05390036
0.0539446
0.05397401
0.05398741
0.05398371
0.05396186
0.05392088
0.05385981
0.05377777
0.05367392
0.05354746
0.05339763
0.0532237
0.05302496
0.05280074
0.05255044
0.05227354
0.05196966
0.05163855
0.05128014
0.05089455
0.05048207
0.05004314
0.04957841
0.04908869
0.04857498
0.04803842
0.04748034
0.04690219
0.04630554
0.04569206
0.04506342
0.04442219
0.04377243
0.04311712
0.04245753
0.04179454
0.04113015
0.04046515
0.03980081
0.03913911
0.03848182
0.03783041
0.03718597
0.03654916
0.03592118
0.03530442
0.03470039
0.03411029
0.03353507
0.03297547
0.03243206
0.03190514
0.0313949
0.03090143
0.03042465
0.02996431
0.02952008
0.02909162
0.0286785
0.02827999
0.02789539
0.02752401
0.02716512
0.02681801
0.02648196
0.02615626
0.02584022
0.02553314
0.02523443
0.02494343
0.02465963
0.02438243
0.02411149
0.0238462
0.02358648
0.02333161
0.02308187
0.02283626
0.02259553
0.02235795
0.02212529
0.02189582
0.02168067
0.02127182
0.02073798
0.0203192
0.0199757
0.01968236
0.01942351
0.0191897
0.0189749
0.01877514
0.01858774
0.01841085
0.01824321
0.0180839
0.0179323
0.01778795
0.01765051
0.01751975
0.0173955
0.01727764
0.01716605
0.01706062
0.01696127
0.01686787
0.01678032
0.01669848
0.01662219
0.01655127
0.01648552
0.0164247
0.01636856
0.01631692
0.01626927
0.01622493
0.01618349
0.01614431
0.01610645
0.0160803
0.01606828
0.0160632
0.016062
0.01606343
0.01606659
0.01607076
0.01607541
0.0160801
0.01608446
0.01608819
0.01609104
0.01609277
0.01609318
0.01609209
0.01608936
0.01608487
0.01607855
0.01607035
0.01606023
0.0160482
0.01603429
0.01601855
0.01600107
0.01598196
0.01596134
0.01593939
0.01591626
0.01589214
0.01586723
0.01584179
0.01581598
0.01578998
0.01576362
0.01636836
0.01633404
0.01631546
0.0163022
0.01628968
0.01627704
0.01626434
0.01625157
0.01623874
0.01622598
0.01621343
0.01620122
0.01618952
0.01617841
0.016168
0.01615841
0.01614975
0.01614209
0.01613552
0.01613006
0.01612578
0.01612268
0.01612079
0.01612011
0.01612062
0.01612231
0.01612513
0.01612904
0.01613401
0.01613998
0.0161469
0.0161547
0.01616334
0.01617276
0.01618289
0.01619368
0.01620508
0.01621704
0.01622952
0.01624247
0.01625592
0.01626987
0.01628447
0.01629977
0.01631566
0.01633136
0.01634593
0.01635922
0.01637209
0.01638487
0.01639771
0.01641048
0.0164245
0.01644463
0.0164667
0.01647854
0.01648482
0.01649069
0.01649744
0.01650502
0.01651327
0.01652199
0.01653092
0.0165398
0.01654839
0.01655649
0.01656406
0.01657107
0.01657748
0.01658326
0.01658843
0.016593
0.016597
0.01660049
0.01660351
0.01660612
0.01660835
0.01661028
0.01661196
0.01661344
0.01661479
0.01661604
0.01661726
0.01661848
0.01661976
0.01662115
0.01662267
0.01662438
0.0166263
0.01662845
0.01663086
0.01663355
0.01663654
0.01663984
0.01664345
0.01664738
0.01665164
0.01665622
0.01666112
0.01666633
0.01667186
0.01667768
0.01668379
0.01669018
0.01669684
0.01670375
0.01671089
0.01671826
0.01672582
0.01673356
0.01674147
0.0167495
0.01675766
0.01676591
0.01677425
0.01678267
0.01679116
0.01679971
0.01680835
0.01681706
0.01682589
0.01683484
0.01684397
0.01685327
0.01686286
0.01687269
0.01688295
0.01689348
0.0169046
0.01691596
0.01692803
0.01694003
0.01695248
0.01696357
0.01697365
0.01698142
0.01699773
0.01704498
0.01711575
0.0728167
0.0761634
0.08033429
0.08478698
0.08936696
0.09476
0.1002512
0.1053194
0.1117845
0.1248868
0.1894191
0.1928504
0.1946087
0.1950351
0.194571
0.1934845
0.1920857
0.190342
0.1878018
0.2064698
0.203342
0.2000738
0.1970833
0.1942022
0.1912472
0.1881216
0.1848131
0.1813323
0.1777683
0.1739595
0.1699755
0.1659243
0.1619119
0.1579801
0.1541414
0.1503955
0.1467229
0.1431513
0.1396139
0.1360002
0.1323596
0.128791
0.1253209
0.1219477
0.1186918
0.1155618
0.1125634
0.1097095
0.1069281
0.1042885
0.1018014
0.09944971
0.09723725
0.09515891
0.093226
0.09149991
0.09525273
0.0936978
0.09228738
0.09101484
0.08982796
0.088696
0.08760324
0.08653902
0.08548871
0.0844438
0.08340374
0.08236009
0.08128927
0.08018616
0.07905125
0.07788312
0.07668483
0.07546179
0.07422052
0.07296847
0.0717104
0.07046325
0.06924105
0.06805162
0.06690519
0.06581292
0.06478174
0.06381838
0.06292562
0.0621015
0.06134468
0.06066812
0.06006757
0.05955316
0.05910966
0.05875498
0.05842708
0.05813736
0.05809297
0.05808489
0.05809397
0.05814159
0.05823894
0.05838117
0.05855811
0.0587605
0.058981
0.05921225
0.05944405
0.05966701
0.05987383
0.06006303
0.06023321
0.06038464
0.06052098
0.06064908
0.0607767
0.0608895
0.06094924
0.06097084
0.06098131
0.06097709
0.06093918
0.0608664
0.06076956
0.06065956
0.06054457
0.06043039
0.06032117
0.0602194
0.06012573
0.06004308
0.05997482
0.05992536
0.05989748
0.05989166
0.0599131
0.05996972
0.0600589
0.06019912
0.06040774
0.06067291
0.06095781
0.06124032
0.06149147
0.06165244
0.06171723
0.06176152
0.06183298
0.06193116
0.06204497
0.06216671
0.06229177
0.06241674
0.06253881
0.06265575
0.06276575
0.06286729
0.06295898
0.06303952
0.06310768
0.06316228
0.06320222
0.06322647
0.06323405
0.06322407
0.06319566
0.06314803
0.06308035
0.06299184
0.06288173
0.06274926
0.06259368
0.06241426
0.06221024
0.06198089
0.06172547
0.06144329
0.06113373
0.06079624
0.06043041
0.06003594
0.05961272
0.05916079
0.05868037
0.05817187
0.05763586
0.05707311
0.05648454
0.05587124
0.05523445
0.05457558
0.05389624
0.05319822
0.05248379
0.05175592
0.05101737
0.05026988
0.04951464
0.0487533
0.04798781
0.04722045
0.0464534
0.04568875
0.04492843
0.04417429
0.04342811
0.04269136
0.04196554
0.04125217
0.04055264
0.03986812
0.03919961
0.03854794
0.03791378
0.03729758
0.03669965
0.03612017
0.03555908
0.0350163
0.03449154
0.03398435
0.03349436
0.03302105
0.03256385
0.03212205
0.03169495
0.0312818
0.03088179
0.03049413
0.03011806
0.02975277
0.02939757
0.02905167
0.02871449
0.02838525
0.02806359
0.02774866
0.02744045
0.02713785
0.02684148
0.02654962
0.02626408
0.02598176
0.02570669
0.02543152
0.0251512
0.02488285
0.02462293
0.02436954
0.02412227
0.02388089
0.02364538
0.02341584
0.02319242
0.02297533
0.02276479
0.02256102
0.02236424
0.02217466
0.02199247
0.02181781
0.02165081
0.02149159
0.02134021
0.02119671
0.0210611
0.02093336
0.02081343
0.02070123
0.02059664
0.02049952
0.02040967
0.0203269
0.02025091
0.02018114
0.02011685
0.02005761
0.0200027
0.01995147
0.0199039
0.01986184
0.01982787
0.01980169
0.01978116
0.01976511
0.0197526
0.01974275
0.0197348
0.01972809
0.01972204
0.01971618
0.01971004
0.01970325
0.01969544
0.01968632
0.01967562
0.01966311
0.0196486
0.01963195
0.01961303
0.01959176
0.01956808
0.019542
0.01951351
0.01948268
0.01944958
0.01941436
0.01937711
0.01933808
0.01929737
0.01925535
0.01921207
0.01916811
0.01912333
0.01907995
0.0190433
0.01900595
0.01896438
0.01891935
0.01887392
0.01883017
0.01878884
0.01874982
0.01871295
0.01867821
0.01864565
0.01861531
0.01858721
0.01856129
0.01853753
0.01851594
0.01849648
0.01847913
0.01846383
0.01845053
0.01843917
0.01842968
0.018422
0.01841606
0.01841176
0.01840905
0.01840784
0.01840803
0.01840956
0.01841235
0.0184163
0.01842134
0.01842739
0.01843437
0.01844221
0.01845084
0.01846019
0.0184702
0.0184808
0.01849196
0.01850362
0.01851577
0.01852836
0.01854132
0.0185545
0.0185676
0.01858027
0.01859237
0.01860405
0.0186155
0.01862677
0.01863784
0.01864826
0.01865771
0.01866641
0.01867627
0.01868709
0.01869849
0.01870948
0.01871979
0.01872955
0.01873893
0.01874801
0.01875684
0.01876545
0.01877385
0.01878203
0.01878994
0.0187976
0.01880501
0.01881218
0.01881908
0.01882573
0.01883214
0.0188383
0.01884424
0.01884996
0.01885547
0.0188608
0.01886598
0.01887101
0.01887594
0.01888078
0.01888556
0.0188903
0.01889505
0.01889981
0.01890462
0.0189095
0.01891447
0.01891955
0.01892476
0.01893011
0.01893563
0.01894132
0.0189472
0.01895328
0.01895957
0.01896607
0.01897279
0.01897974
0.0189869
0.01899428
0.01900188
0.01900968
0.01901768
0.01902587
0.01903424
0.01904277
0.01905144
0.01906025
0.01906917
0.01907818
0.01908728
0.01909644
0.01910566
0.01911493
0.01912425
0.01913363
0.01914308
0.01915261
0.01916227
0.01917207
0.01918211
0.01919239
0.01920305
0.01921408
0.01922569
0.01923782
0.01925078
0.01926434
0.01927904
0.01929435
0.01931128
0.0193293
0.01935117
0.01937777
0.01941496
0.0194573
0.06736502
0.07148385
0.07534711
0.1055079
0.1363536
0.1725461
0.1962357
0.2186125
0.237965
0.2551731
0.2702741
0.2827588
0.293555
0.3030146
0.311383
0.318596
0.3243071
0.3283149
0.3307998
0.331864
0.3317101
0.3307986
0.3280917
0.3237792
0.3189951
0.313737
0.3081155
0.3022482
0.2962235
0.2900595
0.2835527
0.2768654
0.2716606
0.2664095
0.2611575
0.2559013
0.2504637
0.2449306
0.2393411
0.2337432
0.2281575
0.2225953
0.2171046
0.2116922
0.2063688
0.2011482
0.1960407
0.1910541
0.1861982
0.1814632
0.1768298
0.1723202
0.1679448
0.1636914
0.1595531
0.155531
0.1516249
0.1478362
0.1441713
0.1406569
0.1372867
0.1340534
0.130946
0.127971
0.1251164
0.1224052
0.1197868
0.1172774
0.114935
0.1127238
0.1106134
0.1086077
0.1067132
0.1049259
0.1032328
0.1016213
0.1000771
0.09858953
0.09714263
0.09571845
0.09430507
0.09289425
0.09147685
0.0900454
0.08859481
0.08712125
0.08562381
0.08410486
0.08256646
0.0810168
0.07947052
0.07794223
0.07644479
0.07498966
0.07358711
0.07224687
0.07097743
0.06978457
0.06867577
0.06765706
0.0667333
0.06590615
0.06517908
0.06454908
0.06401809
0.0635814
0.06325916
0.06301771
0.06284884
0.06275826
0.0627471
0.06280826
0.06293121
0.06310634
0.06332547
0.06358105
0.06386518
0.06416954
0.06448642
0.06480934
0.06513276
0.06545215
0.06576451
0.06606754
0.0663594
0.0666309
0.06686345
0.06705685
0.06722121
0.06735552
0.06745469
0.06751534
0.06754309
0.06754543
0.06752883
0.06749903
0.06746109
0.0674195
0.06737804
0.06733991
0.06730726
0.06727999
0.06726027
0.06725602
0.06727804
0.06733282
0.06742219
0.06755265
0.06773404
0.06795985
0.06820719
0.06845494
0.06868566
0.06886755
0.06899102
0.06909113
0.06919741
0.06931647
0.06944341
0.06957331
0.06970308
0.06983013
0.06995193
0.07006621
0.07017101
0.0702647
0.07034584
0.07041314
0.07046545
0.07050173
0.0705211
0.07052278
0.07050608
0.07047042
0.07041524
0.07034003
0.07024427
0.07012743
0.06998897
0.06982834
0.06964499
0.06943829
0.06920762
0.06895229
0.06867164
0.068365
0.0680317
0.06767115
0.06728281
0.06686623
0.0664211
0.06594722
0.06544456
0.06491322
0.06435347
0.06376577
0.06315072
0.06250909
0.06184184
0.06115013
0.06043532
0.05969904
0.0589432
0.05817014
0.05738218
0.05658116
0.05576857
0.05494615
0.054116
0.05328043
0.05244171
0.05160207
0.05076373
0.0499287
0.04909912
0.04827692
0.04746399
0.04666212
0.04587297
0.04509803
0.04433866
0.04359594
0.04287091
0.04216439
0.041477
0.0408092
0.04016128
0.03953337
0.03892543
0.03833728
0.03776865
0.03721913
0.0366882
0.03617523
0.03567954
0.03520037
0.03473695
0.03428842
0.03385396
0.0334327
0.03302382
0.03262645
0.03223985
0.03186317
0.03149579
0.03113689
0.03078604
0.03044241
0.03010584
0.02977543
0.02945146
0.02913295
0.02882092
0.02851454
0.0282145
0.02791975
0.0276296
0.02734431
0.02706446
0.02679042
0.02652242
0.02626063
0.02600531
0.0257567
0.02551506
0.02528064
0.0250537
0.02483446
0.02462315
0.02441994
0.02422503
0.02403855
0.02386062
0.02369135
0.02353079
0.02337894
0.02323582
0.02310137
0.02297551
0.02285811
0.022749
0.02264797
0.02255475
0.02246901
0.02239033
0.02231818
0.02225205
0.02219157
0.02213676
0.02208823
0.02204698
0.02201323
0.02198616
0.02196475
0.02194805
0.02193525
0.02192563
0.02191852
0.02191331
0.02190945
0.0219064
0.0219037
0.02190091
0.02189762
0.02189349
0.02188817
0.02188139
0.0218729
0.02186248
0.02184994
0.02183514
0.02181796
0.02179835
0.02177625
0.02175168
0.02172465
0.02169527
0.02166359
0.02162983
0.02159405
0.02155661
0.02151751
0.02147739
0.02143591
0.02139402
0.02135156
0.02130931
0.02126758
0.02122647
0.02118602
0.02114639
0.02110772
0.02107019
0.02103401
0.02099937
0.02096644
0.02093535
0.02090621
0.02087908
0.02085403
0.02083109
0.02081028
0.02079157
0.02077494
0.02076037
0.02074779
0.02073715
0.02072838
0.0207214
0.02071614
0.02071252
0.02071044
0.02070982
0.02071057
0.0207126
0.02071582
0.02072015
0.02072549
0.02073178
0.02073892
0.02074684
0.02075547
0.02076473
0.02077457
0.02078492
0.02079572
0.02080688
0.02081832
0.02082993
0.02084155
0.02085301
0.02086418
0.02087507
0.02088573
0.02089622
0.02090655
0.02091677
0.0209271
0.02093757
0.02094781
0.02095719
0.02096588
0.02097417
0.02098232
0.02099042
0.02099848
0.0210065
0.02101447
0.02102237
0.02103017
0.02103784
0.02104536
0.02105274
0.02105997
0.02106704
0.02107396
0.02108073
0.02108736
0.02109385
0.02110022
0.02110649
0.02111265
0.02111872
0.02112473
0.02113068
0.02113659
0.02114247
0.02114835
0.02115423
0.02116014
0.02116608
0.02117206
0.02117811
0.02118423
0.02119043
0.02119673
0.02120314
0.02120966
0.0212163
0.02122308
0.02122999
0.02123706
0.02124428
0.02125166
0.02125921
0.02126692
0.02127479
0.02128282
0.02129102
0.02129936
0.02130786
0.0213165
0.02132526
0.02133415
0.02134315
0.02135224
0.02136142
0.02137067
0.02137998
0.02138934
0.02139876
0.02140822
0.02141774
0.02142733
0.02143701
0.02144682
0.02145678
0.02146697
0.02147743
0.02148829
0.0214996
0.02151153
0.02152416
0.02153772
0.02155232
0.02156828
0.02158584
0.02160546
0.02162777
0.0216534
0.0216836
0.0217184
0.02175594
0.04121576
0.04348422
0.04571293
0.05543776
0.07034044
0.09431833
0.111793
0.1298139
0.1484074
0.166457
0.1842112
0.2026003
0.2213183
0.239344
0.2571384
0.2763225
0.3037569
0.3124123
0.3197546
0.325864
0.331405
0.3352677
0.3369541
0.3373694
0.3368094
0.3353413
0.3330307
0.329944
0.3262437
0.3219064
0.3172174
0.31217
0.3072128
0.302632
0.2981914
0.2938823
0.2896865
0.2855909
0.2816015
0.277686
0.2738944
0.2701186
0.2659957
0.2620617
0.2582369
0.2544028
0.2504994
0.2464968
0.2422815
0.2378472
0.233281
0.2286439
0.2239732
0.2193062
0.2146665
0.2100721
0.2055383
0.201076
0.1966925
0.192391
0.188171
0.1840313
0.1799726
0.1759942
0.1720947
0.1682754
0.1645382
0.1608872
0.1573291
0.1538583
0.1504655
0.1471532
0.1439294
0.1407983
0.1377705
0.1348449
0.1320391
0.1293364
0.1267723
0.1243412
0.1220063
0.1197622
0.1176237
0.1156
0.1136875
0.111875
0.110151
0.108504
0.1069229
0.1053952
0.103908
0.1024491
0.1010064
0.09956791
0.09812234
0.09665988
0.09517254
0.09365498
0.0921052
0.09052374
0.08891532
0.08728923
0.08565655
0.08402803
0.08241416
0.08082608
0.07927533
0.07777396
0.07633307
0.07496355
0.07367452
0.07247531
0.07137244
0.0703726
0.06947869
0.06869409
0.06801611
0.06744583
0.06697812
0.06660769
0.06633239
0.06615
0.0660555
0.06604161
0.06610057
0.06622495
0.06640761
0.06664119
0.06691809
0.06723091
0.06757288
0.06793761
0.06831896
0.06871128
0.06910901
0.0695062
0.06989448
0.07026212
0.07060263
0.07091547
0.07119764
0.07144702
0.07166209
0.07184361
0.07199392
0.07211587
0.07221381
0.07229208
0.07235518
0.07240746
0.072453
0.07249553
0.07253814
0.07258385
0.07263574
0.07269636
0.07277506
0.07288075
0.07301888
0.07319266
0.07339781
0.07362174
0.07385
0.0740708
0.07426624
0.07442929
0.07457356
0.0747154
0.07486032
0.07500677
0.07515175
0.07529276
0.07542756
0.07555387
0.07566946
0.07577239
0.07586102
0.07593397
0.07599003
0.07602817
0.07604755
0.0760475
0.07602754
0.0759873
0.07592655
0.07584509
0.07574278
0.07561948
0.075475
0.07530914
0.07512167
0.07491232
0.07468077
0.07442659
0.07414936
0.07384858
0.07352375
0.07317432
0.07279974
0.07239945
0.07197294
0.07151973
0.07103945
0.07053179
0.06999657
0.06943373
0.06884336
0.06822567
0.06758104
0.06691005
0.06621345
0.06549223
0.06474761
0.06398107
0.06319436
0.06238931
0.0615676
0.06073081
0.05988062
0.05901898
0.05814803
0.05726998
0.05638711
0.05550169
0.05461598
0.05373218
0.05285254
0.05197921
0.05111425
0.05025965
0.04941716
0.04858853
0.04777528
0.04697879
0.04620023
0.04544059
0.0447007
0.04398117
0.04328245
0.0426048
0.04194832
0.04131294
0.04069845
0.0401045
0.0395306
0.03897616
0.03844052
0.0379229
0.03742249
0.03693844
0.03646985
0.03601581
0.0355754
0.03514773
0.03473191
0.03432711
0.03393248
0.03354732
0.03317085
0.03280255
0.03244174
0.03208814
0.03174126
0.03140113
0.03106747
0.03074013
0.03041892
0.03010366
0.02979417
0.02949045
0.02919259
0.02890073
0.02861507
0.02833586
0.02806336
0.02779785
0.02753963
0.02728896
0.02704613
0.02681139
0.02658499
0.02636715
0.02615806
0.0259579
0.02576682
0.02558493
0.02541232
0.02524903
0.02509507
0.02495041
0.02481499
0.02468869
0.02457135
0.02446276
0.02436267
0.02427077
0.02418669
0.02411012
0.02404083
0.02397876
0.02392409
0.02387719
0.02383824
0.02380683
0.02378215
0.02376338
0.02374976
0.02374061
0.02373527
0.0237331
0.0237335
0.02373591
0.02373978
0.02374462
0.02374995
0.02375533
0.02376037
0.02376468
0.02376793
0.0237698
0.02377003
0.02376836
0.02376459
0.02375857
0.02375017
0.02373929
0.02372588
0.02370994
0.02369147
0.02367054
0.02364721
0.02362166
0.02359398
0.02356441
0.02353301
0.02350016
0.02346623
0.02343155
0.02339626
0.02336061
0.02332492
0.02328952
0.02325473
0.02322077
0.02318781
0.02315604
0.0231256
0.02309662
0.02306924
0.02304354
0.02301961
0.02299749
0.02297723
0.02295884
0.02294234
0.0229277
0.02291492
0.02290394
0.02289474
0.02288725
0.02288142
0.02287716
0.02287442
0.02287311
0.02287316
0.02287447
0.02287697
0.02288058
0.02288521
0.02289079
0.02289722
0.02290445
0.02291238
0.02292095
0.02293009
0.02293972
0.02294977
0.02296017
0.02297082
0.02298164
0.02299253
0.02300337
0.02301407
0.02302461
0.02303499
0.02304524
0.02305539
0.02306544
0.02307533
0.02308497
0.02309432
0.02310344
0.0231124
0.0231212
0.02312979
0.02313816
0.02314632
0.0231543
0.02316212
0.02316979
0.02317731
0.02318469
0.02319191
0.023199
0.02320595
0.02321278
0.02321948
0.02322607
0.02323256
0.02323896
0.0232453
0.02325157
0.0232578
0.023264
0.02327019
0.02327637
0.02328256
0.02328878
0.02329502
0.02330131
0.02330764
0.02331404
0.0233205
0.02332704
0.02333366
0.02334037
0.02334717
0.02335407
0.02336108
0.02336819
0.02337542
0.02338277
0.02339025
0.02339786
0.02340561
0.02341349
0.02342151
0.02342968
0.02343798
0.02344642
0.023455
0.02346371
0.02347255
0.02348151
0.02349058
0.02349976
0.02350904
0.02351841
0.02352786
0.02353738
0.02354697
0.02355663
0.02356636
0.02357616
0.02358606
0.02359606
0.02360622
0.02361656
0.02362715
0.02363805
0.02364938
0.02366123
0.02367375
0.02368711
0.02370151
0.02371719
0.02373446
0.02375368
0.02377523
0.02379973
0.02382747
0.02385932
0.0238944
0.02393022
0.01617047
0.01838683
0.01998277
0.02742784
0.03633784
0.0479342
0.05832496
0.07035863
0.0835809
0.09778552
0.1133074
0.1313514
0.1506254
0.1715038
0.1956189
0.2298149
0.2460393
0.2619415
0.2768273
0.2906828
0.3034088
0.3148201
0.324509
0.3323717
0.3385446
0.342838
0.3452201
0.3468996
0.3471634
0.3460833
0.3437515
0.3402537
0.3358307
0.3306936
0.3250164
0.3189386
0.3126031
0.3059513
0.299305
0.2925227
0.2856481
0.2798189
0.274627
0.2700774
0.266054
0.2624875
0.2593035
0.2564504
0.2538614
0.2514981
0.24929
0.2471996
0.2451359
0.2430836
0.2409999
0.2388024
0.2364276
0.2336767
0.230643
0.2274009
0.224011
0.220518
0.2169524
0.2133385
0.2096965
0.2060446
0.2023963
0.1987615
0.1951469
0.1915573
0.1879966
0.1844664
0.1809663
0.1774981
0.174066
0.1706759
0.1673405
0.1640576
0.1608202
0.1576283
0.1544828
0.1513861
0.1483434
0.1453597
0.1424447
0.1396054
0.1368536
0.1341937
0.1316343
0.1291765
0.1268171
0.1245565
0.1224001
0.1203517
0.1184094
0.1165669
0.1148165
0.1131502
0.1115595
0.1100349
0.1085653
0.1071386
0.1057417
0.1043615
0.1029847
0.1015993
0.1001944
0.09876143
0.09729443
0.09579052
0.09424989
0.09267618
0.09107554
0.08945561
0.08782516
0.08619431
0.08457429
0.08297738
0.08141602
0.07990274
0.07844968
0.07706875
0.07577057
0.07456449
0.07345785
0.07245596
0.07156179
0.07077808
0.07010456
0.06953808
0.06907559
0.06871449
0.06845107
0.06827991
0.06819459
0.06818835
0.06825451
0.0683863
0.06857691
0.06881966
0.06910809
0.06943596
0.06979707
0.07018529
0.07059432
0.07101743
0.07144698
0.07187416
0.07229136
0.07269387
0.07307782
0.07343862
0.07377209
0.07407615
0.0743508
0.07459726
0.07481729
0.07501325
0.07518806
0.07534502
0.07548764
0.07561956
0.07574442
0.07586605
0.07598865
0.07611617
0.07625264
0.07640097
0.07656522
0.07674916
0.07695224
0.07717001
0.07739466
0.07761702
0.07782834
0.07802322
0.07820395
0.07837819
0.07854974
0.07871844
0.07888225
0.07903893
0.07918627
0.07932204
0.07944406
0.07955038
0.07963933
0.07970954
0.07975987
0.07978936
0.07979728
0.07978315
0.07974673
0.07968796
0.07960693
0.07950381
0.07937886
0.07923236
0.07906453
0.07887551
0.07866546
0.07843452
0.07818277
0.07791023
0.07761683
0.07730243
0.07696683
0.07660971
0.07623068
0.07582928
0.07540499
0.07495726
0.07448557
0.07398941
0.07346833
0.07292195
0.07234996
0.07175218
0.07112854
0.07047914
0.06980426
0.06910439
0.06838022
0.0676327
0.06686297
0.06607232
0.06526207
0.06443357
0.06358829
0.0627279
0.06185428
0.06096948
0.06007563
0.05917496
0.05826973
0.05736228
0.05645486
0.05554982
0.05464945
0.05375595
0.05287147
0.05199801
0.05113746
0.05029154
0.04946181
0.04864967
0.0478563
0.0470827
0.04632968
0.04559784
0.04488761
0.04419921
0.04353269
0.04288792
0.04226463
0.0416624
0.0410807
0.04051886
0.03997614
0.03945172
0.03894471
0.03845421
0.03797924
0.03751886
0.0370721
0.03663802
0.0362157
0.03580428
0.03540293
0.03501091
0.03462754
0.03425227
0.0338846
0.03352418
0.03317072
0.03282394
0.03248368
0.03214971
0.03182181
0.03149989
0.03118398
0.0308742
0.0305707
0.03027367
0.02998333
0.02969996
0.02942382
0.02915519
0.02889436
0.02864161
0.02839722
0.02816144
0.02793451
0.02771665
0.02750807
0.02730892
0.02711935
0.02693947
0.02676934
0.026609
0.02645845
0.02631764
0.02618648
0.02606484
0.02595255
0.02584941
0.02575519
0.0256697
0.02559278
0.02552437
0.02546451
0.02541332
0.0253708
0.02533662
0.02531017
0.02529078
0.02527776
0.02527044
0.02526818
0.02527035
0.0252763
0.02528546
0.02529723
0.02531106
0.02532644
0.02534285
0.02535982
0.02537689
0.02539364
0.02540968
0.02542463
0.02543817
0.02545001
0.0254599
0.02546765
0.02547308
0.02547605
0.02547646
0.02547422
0.02546932
0.02546174
0.02545154
0.02543876
0.02542353
0.02540599
0.02538636
0.02536487
0.02534173
0.02531721
0.02529166
0.02526542
0.02523881
0.0252121
0.02518554
0.02515935
0.02513372
0.02510885
0.02508491
0.02506206
0.02504042
0.0250201
0.02500118
0.02498375
0.02496783
0.02495348
0.02494071
0.02492952
0.0249199
0.02491183
0.02490529
0.02490023
0.02489659
0.02489434
0.0248934
0.02489371
0.0248952
0.0248978
0.02490144
0.02490604
0.02491154
0.02491785
0.02492491
0.02493264
0.02494098
0.02494985
0.02495919
0.02496892
0.02497898
0.02498928
0.02499975
0.02501031
0.02502088
0.02503141
0.02504185
0.02505219
0.02506244
0.02507259
0.02508262
0.02509248
0.02510217
0.02511169
0.02512104
0.02513019
0.02513915
0.0251479
0.02515644
0.0251648
0.02517298
0.025181
0.02518884
0.02519653
0.02520404
0.0252114
0.0252186
0.02522565
0.02523257
0.02523936
0.02524603
0.02525261
0.02525911
0.02526555
0.02527194
0.0252783
0.02528465
0.025291
0.02529737
0.02530376
0.02531019
0.02531666
0.0253232
0.02532979
0.02533646
0.02534321
0.02535003
0.02535695
0.02536396
0.02537106
0.02537826
0.02538557
0.02539299
0.02540052
0.02540816
0.02541593
0.02542382
0.02543184
0.02544
0.02544829
0.02545671
0.02546527
0.02547397
0.02548281
0.02549178
0.02550088
0.02551011
0.02551946
0.02552893
0.02553852
0.02554821
0.025558
0.02556788
0.02557786
0.02558794
0.02559812
0.0256084
0.02561881
0.02562937
0.02564012
0.02565109
0.02566236
0.025674
0.02568611
0.0256988
0.02571225
0.02572662
0.02574214
0.02575907
0.02577773
0.02579847
0.02582166
0.02584778
0.0258771
0.0259101
0.02594589
0.02598093
0.003591879
0.01447875
0.02055941
0.02758548
0.03556551
0.04482948
0.05555571
0.06773856
0.08173293
0.09895687
0.1244702
0.1394552
0.1556015
0.172369