/*--------------------------------*- C++ -*----------------------------------*\
| =========                 |                                                 |
| \\      /  F ield         | foam-extend: Open Source CFD                    |
|  \\    /   O peration     | Version:     3.1                                |
|   \\  /    A nd           | Web:         http://www.extend-project.de       |
|    \\/     M anipulation  |                                                 |
\*---------------------------------------------------------------------------*/
FoamFile
{
    version     2.0;
    format      ascii;
    class       volScalarField;
    location    "6.5";
    object      k;
}
// * * * * * * * * * * * * * * * * * * * * * * * * * * * * * * * * * * * * * //

dimensions      [0 2 -2 0 0 0 0];

internalField   nonuniform List<scalar> 
119952
(
0.008188633
0.006670943
0.006592337
0.007096472
0.007459588
0.007449132
0.007531523
0.00763081
0.007711192
0.007760236
0.007783813
0.007789409
0.007783151
0.007769486
0.007751622
0.00773197
0.007712684
0.007696141
0.007689258
0.007731524
0.008509398
0.00830475
0.008311081
0.009026237
0.008764465
0.008601973
0.008458025
0.008325318
0.008052534
0.01506061
0.0287366
0.02579837
0.02395624
0.02284137
0.02219212
0.02181142
0.02157538
0.02141076
0.02127578
0.0212645
0.02288824
0.02562226
0.0283758
0.03060099
0.03224425
0.03338925
0.03416012
0.03467995
0.03505629
0.03924269
0.03963049
0.03986317
0.03999591
0.0400323
0.03992717
0.03972509
0.0394693
0.03918693
0.03903113
0.03874488
0.03840142
0.03809112
0.03781044
0.03754966
0.03730599
0.03707119
0.03683499
0.03659547
0.0368459
0.03648106
0.03610761
0.03599519
0.03595702
0.03585136
0.03568786
0.03553313
0.03538971
0.03525064
0.03511107
0.03496706
0.03481766
0.03466307
0.03450397
0.03434099
0.0341736
0.03400487
0.0338295
0.03364662
0.0335472
0.0334617
0.03330114
0.03333381
0.03358231
0.03366678
0.03369173
0.03373386
0.03361011
0.03277032
0.03225065
0.03192933
0.03168362
0.03147031
0.03128132
0.03111572
0.03097372
0.0308561
0.03076352
0.0306962
0.03065383
0.03063476
0.0306366
0.03065645
0.03069128
0.03073822
0.03079468
0.0308586
0.03092855
0.0310029
0.03108007
0.03115907
0.03123913
0.03131959
0.03139986
0.03147938
0.03155761
0.03163401
0.03170806
0.03177921
0.03184695
0.0319108
0.0319703
0.03202503
0.0320746
0.03211866
0.03215689
0.03218899
0.0322147
0.03223376
0.03224594
0.03225103
0.0322488
0.03223909
0.03222169
0.03219643
0.03216316
0.0321217
0.03208447
0.03206362
0.0320299
0.03196167
0.03185551
0.03171738
0.03155423
0.03137199
0.03117487
0.03096548
0.03074532
0.03051537
0.03027634
0.03002855
0.02977171
0.02950518
0.02922836
0.02894102
0.02864332
0.02833565
0.02801849
0.02769238
0.02735789
0.02701565
0.02666634
0.02631109
0.02595244
0.02559244
0.02522989
0.02486523
0.02449943
0.02413361
0.02376855
0.02340661
0.02304916
0.02269623
0.02235014
0.02201214
0.02168307
0.02136316
0.02105247
0.02075118
0.02045953
0.0201779
0.0199066
0.01964608
0.01939653
0.0191586
0.01893132
0.01871272
0.01851115
0.01834618
0.01803796
0.01771792
0.01740036
0.01709549
0.01681069
0.01654753
0.0163055
0.01608355
0.01588109
0.01569546
0.01552559
0.01537072
0.01523002
0.0151026
0.0149876
0.01488429
0.01479199
0.01471009
0.01463805
0.01457537
0.01452164
0.0144765
0.01443965
0.01441087
0.01439002
0.01437693
0.01437164
0.0143741
0.01438445
0.0144028
0.01442935
0.01446393
0.01450027
0.01453516
0.01453474
0.01460745
0.01469799
0.01478832
0.01487184
0.01494624
0.0150116
0.01506778
0.01511499
0.01515374
0.01518459
0.01520816
0.01522519
0.01523643
0.01524265
0.01524461
0.015243
0.0152385
0.01523171
0.0152232
0.01521349
0.01520304
0.01519225
0.0151815
0.01517108
0.01516131
0.0151524
0.01514452
0.01513786
0.01513253
0.01512864
0.01512619
0.01512549
0.01512696
0.0151303
0.0147561
0.01485044
0.01490168
0.01490945
0.01488904
0.01485159
0.01480855
0.01476826
0.01473539
0.01471203
0.0146983
0.01469442
0.01469943
0.01471212
0.01473117
0.0147552
0.01478292
0.01481309
0.01484465
0.01487666
0.01490833
0.01493902
0.01496819
0.01499545
0.01502049
0.0150431
0.01506311
0.01508048
0.01509516
0.0151072
0.01511666
0.01512362
0.0151282
0.01513052
0.01513071
0.01512892
0.01512531
0.01512003
0.01511327
0.01510522
0.01509611
0.01508619
0.0150759
0.01506609
0.01505875
0.01505499
0.01504798
0.01503781
0.01502848
0.01501977
0.01501134
0.01500393
0.01499807
0.01500573
0.01506176
0.01502935
0.01500065
0.01496994
0.01493397
0.01489266
0.01484604
0.01479545
0.01474276
0.01468976
0.01463801
0.01458876
0.01454289
0.01450096
0.01446331
0.01443005
0.01440111
0.01437631
0.01435539
0.01433801
0.01432384
0.0143125
0.01430367
0.01429697
0.01429196
0.01428826
0.01428575
0.01428436
0.01428368
0.01428349
0.01428362
0.01428397
0.01428444
0.01428495
0.01428545
0.01428591
0.0142861
0.01428613
0.01428598
0.01428564
0.01428511
0.01428441
0.01428353
0.01428246
0.01428121
0.01427978
0.01427819
0.01427645
0.01427459
0.01427259
0.01427049
0.01426828
0.01426598
0.01426361
0.01426117
0.01425868
0.01425614
0.01425357
0.01425098
0.01424839
0.0142458
0.01424322
0.01424068
0.01423817
0.01423572
0.01423333
0.01423102
0.01422879
0.01422664
0.0142246
0.01422263
0.01422076
0.01421894
0.01421719
0.01421542
0.01421361
0.01421151
0.01420895
0.01420519
0.01419917
0.01418701
0.01416023
0.01409457
0.01398631
0.01417553
0.08607425
0.08231333
0.08136052
0.08176496
0.08274593
0.08384972
0.08483955
0.08558877
0.08606933
0.08290925
0.08007663
0.07997236
0.08104139
0.08246418
0.08382924
0.08494548
0.08574547
0.08621038
0.09485294
0.0935851
0.09219481
0.09052011
0.08867609
0.08675844
0.08483227
0.08294981
0.08115798
0.07948023
0.07816184
0.07687449
0.07564089
0.07451405
0.07349503
0.07256791
0.0717076
0.07088924
0.07007837
0.06953109
0.0691583
0.06842476
0.06761261
0.06676934
0.0658897
0.06498909
0.06408537
0.0631947
0.06232604
0.06145193
0.06065619
0.05995154
0.05929446
0.05866906
0.05807159
0.05748992
0.05693886
0.05654087
0.05888695
0.05845376
0.05816521
0.05798251
0.05784859
0.05773439
0.05762336
0.05749808
0.05734506
0.05715406
0.05691062
0.05659805
0.05622205
0.05579357
0.05532496
0.05482587
0.05431416
0.0538067
0.05334229
0.05289492
0.05240592
0.05194863
0.0515646
0.05122504
0.05089481
0.05057883
0.05029022
0.050033
0.04980715
0.04961033
0.0494391
0.04928896
0.04915479
0.04903162
0.04891454
0.04879811
0.04867736
0.04854708
0.04841867
0.0483091
0.04820189
0.04813216
0.04815773
0.04822556
0.04828113
0.04832523
0.04829871
0.04809329
0.04774618
0.04745486
0.04722206
0.04702605
0.04685771
0.04671078
0.0465816
0.04646837
0.04637225
0.04629357
0.0462321
0.04618734
0.04615943
0.04614782
0.04615164
0.04616983
0.04620121
0.04624454
0.04629853
0.04636185
0.04643325
0.04651157
0.04659566
0.04668441
0.04677675
0.04687163
0.04696802
0.04706492
0.04716133
0.04725626
0.04734875
0.04743783
0.04752262
0.04760224
0.04767589
0.04774281
0.0478023
0.04785373
0.04789653
0.04793018
0.04795422
0.0479682
0.04797175
0.04796447
0.04794598
0.04791585
0.04787355
0.04781866
0.0477516
0.04767604
0.04759131
0.04749397
0.04738374
0.04725996
0.04712142
0.04696705
0.04679602
0.04660782
0.04640213
0.04617879
0.04593778
0.04567918
0.04540314
0.04510975
0.04479908
0.04447116
0.0441261
0.04376405
0.0433853
0.04299023
0.04257929
0.04215303
0.04171203
0.04125688
0.04078815
0.04030666
0.03981356
0.0393099
0.03879671
0.03827509
0.0377462
0.03721135
0.03667179
0.03612827
0.03558109
0.03503094
0.03448043
0.03393163
0.03338617
0.03284566
0.03231135
0.03178472
0.03126668
0.03075878
0.03026132
0.02977639
0.02930328
0.02884478
0.02839803
0.02797976
0.02725583
0.02634765
0.02566059
0.0251068
0.02463629
0.02422037
0.02384249
0.02349265
0.02316449
0.02285388
0.02255807
0.02227499
0.02200312
0.0217413
0.02148859
0.0212442
0.02100745
0.02077773
0.0205545
0.02033729
0.02012566
0.01991922
0.01971762
0.01952052
0.01932767
0.01913882
0.01895376
0.01877231
0.01859434
0.01841969
0.01824818
0.0180795
0.01791303
0.01774777
0.01758368
0.01742351
0.0172779
0.01714956
0.01703012
0.01691653
0.0168079
0.01670373
0.01660371
0.0165077
0.01641568
0.01632767
0.01624374
0.01616396
0.01608838
0.01601705
0.01595001
0.01588731
0.01582895
0.01577494
0.01572525
0.01567988
0.01563876
0.01560183
0.01556902
0.01554023
0.01551534
0.01549422
0.01547673
0.01546269
0.01545193
0.01544424
0.01543946
0.01543739
0.01543772
0.01543971
0.01601345
0.01601555
0.01603342
0.01605643
0.01607944
0.01610065
0.01611982
0.01613686
0.01615157
0.01616385
0.01617374
0.01618133
0.01618665
0.01618972
0.01619061
0.01618939
0.01618613
0.01618089
0.01617376
0.01616481
0.01615412
0.0161418
0.01612793
0.01611261
0.01609596
0.01607807
0.01605908
0.01603909
0.01601824
0.01599666
0.0159745
0.01595188
0.01592895
0.01590585
0.01588272
0.01585969
0.0158369
0.01581447
0.01579255
0.01577127
0.01575078
0.01573128
0.015713
0.01569621
0.01568084
0.0156663
0.01565165
0.01563683
0.01562265
0.0156096
0.01559771
0.01558702
0.01557926
0.01557909
0.01558203
0.01557581
0.01556476
0.0155546
0.01554656
0.01554075
0.01553696
0.01553488
0.01553422
0.01553468
0.01553599
0.01553795
0.01554038
0.01554315
0.01554617
0.01554938
0.01555274
0.01555623
0.01555982
0.01556352
0.01556731
0.0155712
0.0155752
0.01557934
0.0155836
0.01558797
0.01559245
0.01559707
0.01560182
0.01560671
0.01561173
0.01561688
0.01562215
0.01562752
0.015633
0.01563858
0.01564427
0.01565004
0.01565587
0.01566174
0.01566768
0.01567366
0.01567967
0.01568572
0.01569179
0.01569788
0.01570399
0.01571011
0.01571625
0.0157224
0.01572858
0.01573477
0.015741
0.01574726
0.01575357
0.01575993
0.01576636
0.01577286
0.01577944
0.01578612
0.01579292
0.01579983
0.01580688
0.01581408
0.01582144
0.01582898
0.01583672
0.01584464
0.01585281
0.01586116
0.0158698
0.01587861
0.01588776
0.01589701
0.01590665
0.01591619
0.01592608
0.01593529
0.01594436
0.01595088
0.01595501
0.01595404
0.01595896
0.01599169
0.0160534
0.07066269
0.07336596
0.07689449
0.08104102
0.08583214
0.09140181
0.09797988
0.1058646
0.115831
0.1288943
0.1875614
0.2010964
0.2114588
0.2195198
0.2265622
0.2329204
0.2381501
0.2421067
0.244777
0.281962
0.2832173
0.2826955
0.2808028
0.2778064
0.2740888
0.2699584
0.2654754
0.2606601
0.2558327
0.2507507
0.2459529
0.2414576
0.2372396
0.2332695
0.2295168
0.2259472
0.2225146
0.2192758
0.2154913
0.2117841
0.208124
0.2044913
0.2008794
0.1972762
0.1936777
0.1900819
0.1864859
0.1829279
0.1793349
0.1757094
0.1720803
0.1684426
0.1648031
0.1611708
0.1575587
0.1539812
0.1581044
0.1546653
0.1512974
0.148036
0.1448549
0.1417296
0.1386268
0.1355128
0.1323861
0.1292567
0.1261329
0.1230488
0.1200101
0.1170277
0.114127
0.111331
0.1086576
0.1061186
0.1037142
0.1014318
0.09924763
0.09715816
0.09514207
0.09317271
0.09123576
0.08932805
0.08744915
0.08560754
0.08380967
0.08205871
0.0803565
0.07872814
0.07717119
0.07570407
0.0743038
0.07300044
0.07172025
0.07045428
0.06948344
0.06856795
0.0676925
0.0668875
0.06617329
0.06554757
0.06499719
0.06450691
0.06406298
0.06365062
0.0632549
0.06286664
0.06248003
0.06208984
0.06169199
0.0612856
0.06087393
0.06046271
0.06005156
0.05963274
0.0591984
0.05876937
0.05836577
0.05799184
0.05764449
0.05732497
0.05703309
0.0567761
0.05655784
0.05637904
0.05623843
0.05613314
0.05605904
0.05601114
0.05598371
0.05597091
0.05596785
0.05597213
0.05598581
0.05600885
0.05603986
0.056088
0.0561755
0.05629521
0.05641323
0.05649538
0.05652288
0.05643774
0.05626634
0.05607342
0.05590421
0.05576242
0.05563821
0.05552599
0.05542379
0.05533074
0.05524542
0.05516883
0.05510395
0.05505124
0.05501098
0.05498339
0.05496843
0.05496587
0.05497534
0.05499636
0.05502836
0.05507054
0.05512198
0.05518166
0.05524852
0.05532148
0.05539945
0.05548133
0.055566
0.05565231
0.05573909
0.05582518
0.05590939
0.05599057
0.05606757
0.0561393
0.0562047
0.05626281
0.05631269
0.0563535
0.05638447
0.05640492
0.05641422
0.0564118
0.05639719
0.05636991
0.05632956
0.05627575
0.05620813
0.0561266
0.05603146
0.05592398
0.05580436
0.05567094
0.05552311
0.05536065
0.05518333
0.05499081
0.05478273
0.05455871
0.05431841
0.05406152
0.05378774
0.05349688
0.05318879
0.05286335
0.05252045
0.05215996
0.05178179
0.05138591
0.05097236
0.05054128
0.05009289
0.04962752
0.04914555
0.04864747
0.04813385
0.0476054
0.04706292
0.04650724
0.04593931
0.04536021
0.04477111
0.04417326
0.04356794
0.04295642
0.04234002
0.04171993
0.04109756
0.04047444
0.03985228
0.0392325
0.03861672
0.03800607
0.03740222
0.03680574
0.03621857
0.03564014
0.03507326
0.03451528
0.03397256
0.03343669
0.03289663
0.03238464
0.03189323
0.03141891
0.03096025
0.03051645
0.03008706
0.0296717
0.02927005
0.02888175
0.0285064
0.02814354
0.02779266
0.02745322
0.02712463
0.02680629
0.0264976
0.02619795
0.02590673
0.02562339
0.02534735
0.02507809
0.02481513
0.02455801
0.02430634
0.02405973
0.02381786
0.02358045
0.02334723
0.02311796
0.02289236
0.02267011
0.02245048
0.02223252
0.02201703
0.02180714
0.02160676
0.02141582
0.02123213
0.02105475
0.02088321
0.0207171
0.02055617
0.02040032
0.02024953
0.02010382
0.01996329
0.01982801
0.01969808
0.01957361
0.01945468
0.01934139
0.0192338
0.01913197
0.01903594
0.01894572
0.0188613
0.01878267
0.01870976
0.01864252
0.01858084
0.01852462
0.01847369
0.01842793
0.01838711
0.0183511
0.01831961
0.01829255
0.01826947
0.01825093
0.01824272
0.01823677
0.01822935
0.01822017
0.01821143
0.01820471
0.01820032
0.01819784
0.01819667
0.01819628
0.01819626
0.01819627
0.01819598
0.01819511
0.01819339
0.0181906
0.01818655
0.0181811
0.01817411
0.0181655
0.0181552
0.01814319
0.01812945
0.01811399
0.01809686
0.01807812
0.01805783
0.0180361
0.01801304
0.01798877
0.01796345
0.01793722
0.01791025
0.01788271
0.01785476
0.01782658
0.01779835
0.01777024
0.01774243
0.01771509
0.0176884
0.01766253
0.01763765
0.01761384
0.01759112
0.01756929
0.01754816
0.01752763
0.01750793
0.0174893
0.01747185
0.01745549
0.01743994
0.01742486
0.01741051
0.01739868
0.01738929
0.01738202
0.01737606
0.01737092
0.01736654
0.01736303
0.01736048
0.01735894
0.01735839
0.01735878
0.01736004
0.01736213
0.01736497
0.01736849
0.01737262
0.0173773
0.01738247
0.01738806
0.01739403
0.01740031
0.01740687
0.01741367
0.01742065
0.0174278
0.01743509
0.01744249
0.01744999
0.01745757
0.01746521
0.01747291
0.01748065
0.01748841
0.01749621
0.01750402
0.01751185
0.01751969
0.01752754
0.01753541
0.01754329
0.01755119
0.0175591
0.01756703
0.01757497
0.01758293
0.01759091
0.01759892
0.01760696
0.01761503
0.01762315
0.01763132
0.01763955
0.01764785
0.01765622
0.01766469
0.01767326
0.01768194
0.01769075
0.0176997
0.0177088
0.01771808
0.01772754
0.01773721
0.01774709
0.01775722
0.01776759
0.01777825
0.01778918
0.01780044
0.017812
0.01782396
0.01783621
0.01784893
0.01786192
0.01787543
0.01788907
0.01790317
0.01791705
0.01793124
0.01794498
0.01796009
0.0179779
0.01800362
0.01803725
0.06647774
0.06969259
0.0728528
0.1009434
0.1303722
0.1652176
0.1884075
0.2107574
0.2305594
0.2484473
0.2638374
0.2763484
0.2878232
0.2987091
0.3090112
0.3183637
0.3268753
0.3348978
0.3424732
0.3495783
0.3561822
0.3619548
0.3664643
0.3698901
0.3723303
0.3737194
0.3739198
0.3728221
0.3703542
0.3668427
0.3618673
0.356977
0.3515557
0.3459139
0.3400922
0.3341251
0.3280934
0.3220678
0.3160973
0.3102393
0.3045132
0.2988084
0.29296
0.2871675
0.281596
0.2763682
0.2715503
0.2671522
0.2631442
0.2594619
0.2560032
0.2526946
0.2494546
0.246214
0.242925
0.2395588
0.2361014
0.232551
0.2289026
0.2251575
0.2213311
0.2174315
0.2134624
0.2094421
0.2053867
0.2013379
0.1973266
0.19337
0.1893669
0.1853764
0.1814157
0.1774862
0.173586
0.1697131
0.1658574
0.1620181
0.1581939
0.1543881
0.1505987
0.1468306
0.1430962
0.1394134
0.1358024
0.1322836
0.1288744
0.1255891
0.1224335
0.1194088
0.1165038
0.1137091
0.1110157
0.1084117
0.1058842
0.1034223
0.1010178
0.09866771
0.09637086
0.09412751
0.09194223
0.0898248
0.08777984
0.0858155
0.08393339
0.08214332
0.0804399
0.07883516
0.07736456
0.0759904
0.07470225
0.07351269
0.07243119
0.0714549
0.07057338
0.06977497
0.06904944
0.06838794
0.06778192
0.06722259
0.06670045
0.06620774
0.06573776
0.06528618
0.06484952
0.06442702
0.06401739
0.06361588
0.06321417
0.06281341
0.06242738
0.06206468
0.0617249
0.06140825
0.06112052
0.06086874
0.06065821
0.06049184
0.06037066
0.0602942
0.06026059
0.06026671
0.06030839
0.06038083
0.06047953
0.0606011
0.06074402
0.06090812
0.06109175
0.06129338
0.06151399
0.06174099
0.06195943
0.06215248
0.06230718
0.06238877
0.06240362
0.06238055
0.06235203
0.06232583
0.06229941
0.06227067
0.06223954
0.06220676
0.06217306
0.06213906
0.06210441
0.06207107
0.06204155
0.06201855
0.06200277
0.06199484
0.06199522
0.06200429
0.06202221
0.06204889
0.06208394
0.06212678
0.06217671
0.06223294
0.06229459
0.06236069
0.06243022
0.06250207
0.06257504
0.06264791
0.0627194
0.06278822
0.06285309
0.06291274
0.06296595
0.06301153
0.06304839
0.06307547
0.06309184
0.06309662
0.06308904
0.06306841
0.06303413
0.06298569
0.06292264
0.06284466
0.0627515
0.06264315
0.06251975
0.0623819
0.06223001
0.06206351
0.06188184
0.06168485
0.0614726
0.06124508
0.06100228
0.0607441
0.06047044
0.06018114
0.05987604
0.05955497
0.05921778
0.05886435
0.05849449
0.05810802
0.05770475
0.05728452
0.05684719
0.05639269
0.05592103
0.05543229
0.05492663
0.05440426
0.05386551
0.05331083
0.05274078
0.05215602
0.05155732
0.05094555
0.0503217
0.04968686
0.04904221
0.04838895
0.04772836
0.04706176
0.04639058
0.04571629
0.04504046
0.04436456
0.04369018
0.04301866
0.04235159
0.04169007
0.04103568
0.04038908
0.03975213
0.03912515
0.03851092
0.03790912
0.03732127
0.03674706
0.03618635
0.03563984
0.03510832
0.03459223
0.03409161
0.03360642
0.03313649
0.03268162
0.0322415
0.03181576
0.03140395
0.03100559
0.0306201
0.03024692
0.02988543
0.02953499
0.02919497
0.02886472
0.0285436
0.02823101
0.02792634
0.02762902
0.02733851
0.0270543
0.02677591
0.02650289
0.02623478
0.02597115
0.02571157
0.02545563
0.02520303
0.0249537
0.02470822
0.02446802
0.02423499
0.02400997
0.02379241
0.02358161
0.02337703
0.02317836
0.02298546
0.02279824
0.02261669
0.02244086
0.02227082
0.02210666
0.02194849
0.02179642
0.02165055
0.02151099
0.02137783
0.02125114
0.02113098
0.0210174
0.02091042
0.02081003
0.02071623
0.02062895
0.02054816
0.02047372
0.02040558
0.02034354
0.02028753
0.02023724
0.02019271
0.02015341
0.02011966
0.02009041
0.02006599
0.02004532
0.0200286
0.02001591
0.02000679
0.02000062
0.01999684
0.01999498
0.01999466
0.01999555
0.01999732
0.01999971
0.02000243
0.0200052
0.02000777
0.02000988
0.02001131
0.02001184
0.02001128
0.02000947
0.02000626
0.02000155
0.01999524
0.01998728
0.01997762
0.01996625
0.01995319
0.01993847
0.01992215
0.01990433
0.0198851
0.01986458
0.01984291
0.01982023
0.01979672
0.01977253
0.01974783
0.0197228
0.01969763
0.01967249
0.01964755
0.01962299
0.01959893
0.0195755
0.01955274
0.01953068
0.01950928
0.0194885
0.01946846
0.01944928
0.01943112
0.01941409
0.01939839
0.01938435
0.01937185
0.0193603
0.01934922
0.01933876
0.01932935
0.01932116
0.01931429
0.01930875
0.01930452
0.01930154
0.01929973
0.01929902
0.01929932
0.01930055
0.01930263
0.01930551
0.0193091
0.01931334
0.01931816
0.0193235
0.0193293
0.01933551
0.01934207
0.01934895
0.0193561
0.01936348
0.01937106
0.01937881
0.0193867
0.01939471
0.01940282
0.01941101
0.01941926
0.01942756
0.01943591
0.01944429
0.0194527
0.01946115
0.01946962
0.01947812
0.01948666
0.01949524
0.01950385
0.01951252
0.01952123
0.01952999
0.01953882
0.01954771
0.01955667
0.01956571
0.01957483
0.01958404
0.01959335
0.01960277
0.0196123
0.01962195
0.01963173
0.01964167
0.01965175
0.01966202
0.01967247
0.01968312
0.01969399
0.0197051
0.01971646
0.0197281
0.01974002
0.01975227
0.01976484
0.01977778
0.0197911
0.01980485
0.01981901
0.01983368
0.0198488
0.0198645
0.01988068
0.01989748
0.01991482
0.01993291
0.0199519
0.01997219
0.01999481
0.02002
0.02004825
0.04781329
0.04944423
0.05110084
0.06103774
0.0763902
0.1010111
0.1181539
0.1356034
0.1535188
0.1710037
0.1884179
0.2067416
0.2258118
0.2447523
0.2641845
0.2861638
0.319334
0.3314639
0.3430616
0.3541077
0.3650719
0.3747377
0.3819718
0.3871864
0.3910069
0.3937944
0.3957046
0.3968439
0.3972538
0.3969591
0.3960016
0.3943962
0.3921478
0.3892238
0.38561
0.3817143
0.3769396
0.3716411
0.3663439
0.3608696
0.3554395
0.3497443
0.343531
0.3378377
0.3323087
0.3268003
0.3213254
0.3159243
0.3106033
0.3053731
0.3002361
0.2952023
0.2902862
0.2853628
0.280586
0.2762121
0.2723912
0.2691792
0.2665573
0.2644493
0.2627391
0.2612786
0.2599272
0.2585552
0.2570553
0.2553523
0.2534025
0.2511863
0.2487013
0.2459542
0.242958
0.2397328
0.2363003
0.2326902
0.2289455
0.2251485
0.2213035
0.2173799
0.2134169
0.2094247
0.205398
0.2013513
0.197303
0.1932577
0.1892144
0.1851744
0.1811402
0.1771109
0.1730853
0.1690619
0.1650427
0.1610353
0.157052
0.1531085
0.1492219
0.1454088
0.1416845
0.1380608
0.1345466
0.1311435
0.1278515
0.1246689
0.1215904
0.118607
0.1157084
0.1128856
0.1101324
0.1074448
0.1048214
0.1022625
0.09977123
0.09735106
0.09500766
0.09274642
0.09057515
0.08850022
0.08652775
0.08466346
0.08290668
0.08125776
0.07972156
0.07830205
0.07699751
0.07580115
0.07470431
0.07369855
0.07277601
0.07192852
0.07114764
0.07042497
0.06975308
0.06912518
0.06853552
0.06797908
0.06745205
0.06695081
0.06647089
0.06600705
0.06555764
0.0651267
0.06471912
0.06433723
0.0639825
0.0636584
0.06337063
0.06312461
0.06292442
0.06277287
0.06267167
0.06262141
0.0626215
0.06267023
0.06276495
0.06290257
0.06308002
0.06329462
0.06354434
0.06382598
0.06413359
0.06445893
0.06479535
0.06513158
0.06545361
0.06575034
0.0660095
0.06622205
0.06639555
0.06654505
0.06667754
0.06679424
0.06689512
0.06698093
0.06705296
0.06711277
0.06716193
0.06720187
0.06723388
0.06725849
0.06727638
0.06729042
0.06730413
0.06731992
0.06733884
0.06736167
0.06738895
0.06742101
0.06745799
0.06749985
0.06754638
0.06759716
0.06765163
0.06770907
0.06776863
0.06782928
0.0678899
0.06794927
0.0680061
0.06805909
0.06810689
0.06814818
0.06818166
0.0682061
0.06822029
0.06822314
0.06821363
0.06819083
0.06815392
0.0681022
0.06803506
0.06795203
0.06785277
0.06773707
0.06760492
0.06745647
0.0672921
0.06711216
0.06691662
0.06670533
0.06647837
0.06623595
0.06597835
0.06570579
0.06541845
0.0651165
0.06480003
0.06446908
0.06412367
0.06376379
0.06338937
0.06300031
0.06259643
0.06217753
0.0617434
0.06129378
0.06082846
0.06034726
0.05985002
0.05933664
0.0588071
0.05826141
0.05769973
0.05712232
0.05652955
0.05592191
0.05529997
0.05466446
0.0540162
0.05335613
0.05268527
0.05200475
0.05131577
0.05061966
0.04991778
0.04921162
0.04850264
0.04779238
0.04708232
0.04637401
0.04566886
0.0449684
0.0442739
0.04358699
0.04290887
0.04224125
0.04158508
0.04094146
0.04031126
0.03969505
0.03909328
0.03850638
0.03793472
0.0373786
0.03683822
0.0363137
0.03580502
0.03531208
0.03483468
0.03437252
0.03392523
0.03349235
0.03307336
0.0326677
0.03227475
0.03189388
0.03152443
0.03116573
0.0308171
0.03047787
0.0301474
0.02982505
0.0295102
0.02920226
0.02890067
0.02860489
0.0283144
0.02802874
0.02774753
0.02747051
0.02719768
0.02692938
0.02666638
0.02640975
0.02616027
0.02591798
0.02568243
0.02545322
0.02523014
0.02501308
0.02480201
0.02459694
0.02439793
0.02420505
0.02401841
0.02383814
0.02366437
0.02349722
0.02333682
0.02318329
0.02303673
0.02289724
0.02276488
0.02263971
0.02252178
0.02241109
0.02230764
0.0222114
0.02212231
0.02204032
0.02196529
0.02189715
0.02183571
0.02178085
0.02173229
0.02168986
0.02165309
0.02162172
0.02159556
0.02157438
0.02155786
0.02154554
0.02153709
0.02153218
0.02153048
0.02153162
0.02153517
0.02154073
0.02154791
0.02155634
0.02156566
0.02157555
0.02158567
0.02159573
0.02160546
0.02161459
0.0216229
0.02163017
0.02163623
0.02164091
0.02164409
0.02164565
0.02164552
0.02164365
0.02164002
0.02163463
0.02162752
0.02161874
0.02160838
0.02159653
0.0215833
0.02156882
0.02155324
0.02153669
0.02151935
0.02150138
0.02148295
0.02146422
0.02144535
0.02142649
0.02140777
0.02138927
0.02137108
0.02135324
0.02133579
0.02131882
0.02130246
0.02128685
0.02127211
0.02125832
0.02124545
0.02123344
0.02122235
0.02121236
0.02120358
0.02119601
0.02118955
0.02118414
0.02117976
0.02117642
0.02117409
0.02117274
0.02117234
0.02117282
0.02117413
0.02117621
0.02117901
0.02118248
0.02118657
0.02119121
0.02119638
0.021202
0.02120805
0.02121447
0.02122123
0.02122828
0.02123559
0.02124312
0.02125085
0.02125873
0.02126676
0.02127491
0.02128315
0.02129149
0.0212999
0.02130837
0.0213169
0.02132549
0.02133412
0.0213428
0.02135152
0.0213603
0.02136914
0.02137805
0.02138705
0.02139614
0.02140533
0.02141463
0.02142406
0.02143361
0.0214433
0.02145313
0.02146311
0.02147323
0.02148351
0.02149394
0.02150455
0.02151532
0.02152628
0.02153743
0.02154878
0.02156035
0.02157215
0.02158419
0.0215965
0.02160909
0.02162197
0.02163518
0.02164873
0.02166265
0.02167696
0.0216917
0.02170689
0.02172257
0.02173879
0.02175557
0.02177298
0.02179104
0.02180985
0.02182945
0.02184998
0.02187162
0.02189451
0.0219192
0.02194513
0.0219717
0.01990338
0.02316477
0.02542581
0.03499787
0.04635878
0.06103343
0.07386249
0.08816858
0.1033669
0.1190842
0.1356395
0.154302
0.173632
0.1941731
0.2178868
0.2525452
0.2675111
0.2822621
0.2962774
0.3096296
0.322333
0.3344398
0.3457126
0.3559968
0.3649392
0.3728112
0.3797614
0.3867377
0.3930406
0.3985877
0.4032045
0.4061863
0.4073532
0.4072488
0.4061513
0.4043046
0.4019006
0.3990846
0.39595
0.3925333
0.3887927
0.384627
0.380244
0.3754748
0.3695214
0.3636645
0.3574824
0.3510906
0.3447117
0.338529
0.3326103
0.3270248
0.3217754
0.3168336
0.312113
0.3074914
0.3029053
0.2983195
0.2937189
0.2890891
0.2844778
0.2799828
0.2755328
0.2713527
0.2677395
0.264903
0.2629478
0.2618741
0.2615957
0.2619532
0.2627626
0.263806
0.2648646
0.2657422
0.2662832
0.2663843
0.2659913
0.265088
0.2636837
0.2618014
0.2594718
0.2567348
0.2536412
0.2502629
0.2467336
0.2430174
0.2391378
0.2351245
0.2310114
0.2268245
0.2225847
0.2183134
0.2140321
0.209752
0.2054775
0.2012123
0.1969594
0.1927193
0.1884908
0.1842716
0.1800555
0.1758406
0.1716362
0.1674542
0.1633085
0.1592123
0.1551793
0.1512232
0.147357
0.1435895
0.1399265
0.1363707
0.132921
0.129573
0.1263201
0.1231554
0.1200727
0.1170672
0.1141353
0.111275
0.1084863
0.1057703
0.1031306
0.1005714
0.09809874
0.09571859
0.09343704
0.09126136
0.08919704
0.08724739
0.0854158
0.08370522
0.08211569
0.08064351
0.07928246
0.07802514
0.0768638
0.07579031
0.07479639
0.07387384
0.07301493
0.07221249
0.07146006
0.07075191
0.0700831
0.06944938
0.0688466
0.06827083
0.06771966
0.0671935
0.06669441
0.06622432
0.06578479
0.06537852
0.06500963
0.06468263
0.06440162
0.06417014
0.06399114
0.0638669
0.06379892
0.0637878
0.06383326
0.06393424
0.06408917
0.06429598
0.06455237
0.0648551
0.06519825
0.06557373
0.06597087
0.06638109
0.06679373
0.06719861
0.06758592
0.06794897
0.0682862
0.06859946
0.06889058
0.06915985
0.06940697
0.06963189
0.06983505
0.0700173
0.07017984
0.07032398
0.07045104
0.07056181
0.07065733
0.07073968
0.07081039
0.07087193
0.07092754
0.07097992
0.07103001
0.07107872
0.07112704
0.07117578
0.0712255
0.07127646
0.07132872
0.07138208
0.07143613
0.07149021
0.0715435
0.071595
0.07164361
0.07168812
0.07172728
0.07175977
0.07178429
0.07179954
0.07180426
0.07179725
0.07177737
0.07174359
0.07169497
0.0716307
0.07155009
0.07145259
0.07133782
0.07120554
0.07105573
0.0708885
0.07070416
0.07050306
0.07028545
0.07005153
0.06980164
0.06953621
0.06925574
0.06896074
0.06865168
0.06832899
0.06799306
0.06764421
0.06728269
0.06690869
0.06652231
0.06612356
0.06571238
0.06528861
0.06485203
0.06440235
0.06393927
0.06346243
0.06297151
0.06246617
0.06194611
0.06141108
0.0608609
0.06029549
0.05971489
0.0591192
0.05850869
0.05788371
0.05724476
0.05659246
0.05592755
0.05525087
0.05456343
0.05386632
0.05316074
0.05244803
0.05172954
0.05100674
0.05028111
0.04955417
0.04882746
0.04810255
0.04738096
0.04666429
0.04595405
0.0452518
0.04455893
0.04387671
0.04320634
0.04254872
0.04190455
0.04127453
0.04065931
0.04005943
0.03947532
0.03890727
0.03835549
0.03782002
0.03730082
0.03679776
0.03631059
0.03583898
0.03538249
0.03494065
0.03451289
0.0340986
0.03369714
0.03330783
0.03292998
0.03256287
0.0322058
0.03185806
0.03151897
0.03118786
0.03086409
0.03054703
0.03023614
0.0299309
0.02963091
0.0293359
0.02904582
0.02876082
0.02848133
0.02820797
0.02794124
0.02768127
0.02742786
0.02718077
0.02693985
0.02670504
0.02647633
0.02625374
0.02603735
0.02582724
0.02562354
0.02542639
0.02523594
0.02505234
0.02487573
0.02470627
0.02454409
0.02438931
0.02424205
0.0241024
0.02397044
0.02384622
0.02372979
0.02362114
0.02352029
0.02342719
0.02334179
0.023264
0.02319372
0.02313081
0.02307507
0.0230263
0.02298424
0.02294867
0.02291931
0.02289577
0.02287765
0.02286465
0.02285649
0.02285288
0.02285346
0.02285782
0.02286556
0.02287624
0.02288944
0.02290477
0.02292183
0.02294022
0.02295959
0.02297958
0.02299986
0.02302012
0.02304006
0.0230594
0.0230779
0.02309533
0.02311148
0.02312616
0.02313923
0.02315057
0.02316009
0.02316776
0.02317356
0.02317751
0.02317963
0.02317998
0.02317862
0.02317564
0.02317116
0.02316529
0.02315817
0.02314994
0.02314076
0.02313077
0.02312014
0.02310901
0.02309751
0.02308576
0.02307386
0.02306191
0.02305
0.02303823
0.02302672
0.02301561
0.02300501
0.022995
0.02298564
0.02297703
0.02296925
0.02296232
0.02295626
0.02295107
0.02294679
0.02294343
0.02294099
0.02293946
0.0229388
0.02293896
0.02293991
0.02294159
0.02294397
0.02294698
0.02295056
0.02295468
0.02295931
0.0229644
0.02296993
0.02297585
0.02298215
0.02298878
0.02299572
0.02300294
0.02301042
0.02301813
0.02302605
0.02303416
0.02304243
0.02305085
0.0230594
0.02306805
0.02307679
0.02308559
0.02309443
0.0231033
0.02311219
0.02312109
0.02312999
0.02313895
0.02314801
0.02315717
0.02316643
0.02317582
0.02318534
0.02319502
0.02320486
0.0232149
0.02322512
0.02323555
0.02324619
0.02325703
0.02326809
0.02327936
0.02329085
0.02330256
0.02331448
0.02332664
0.02333903
0.02335167
0.02336457
0.02337774
0.0233912
0.02340496
0.02341904
0.02343347
0.02344827
0.02346346
0.02347907
0.02349513
0.02351168
0.02352875
0.02354639
0.02356464
0.02358356
0.02360319
0.02362361
0.02364488
0.02366711
0.0236904
0.02371484
0.02374066
0.02376726
0.02379295
0.004077678
0.01707472
0.02420518
0.03236951
0.04218411
0.05409022
0.06829054
0.08467866
0.1033621
0.125723
0.1579332
0.1759383
0.1944462
0.2128241
0.2308175
0.2482406
0.2649389
0.2807834
0.2956012