/*--------------------------------*- C++ -*----------------------------------*\
| =========                 |                                                 |
| \\      /  F ield         | foam-extend: Open Source CFD                    |
|  \\    /   O peration     | Version:     3.1                                |
|   \\  /    A nd           | Web:         http://www.extend-project.de       |
|    \\/     M anipulation  |                                                 |
\*---------------------------------------------------------------------------*/
FoamFile
{
    version     2.0;
    format      ascii;
    class       volScalarField;
    location    "6.5";
    object      nut;
}
// * * * * * * * * * * * * * * * * * * * * * * * * * * * * * * * * * * * * * //

dimensions      [0 2 -1 0 0 0 0];

internalField   nonuniform List<scalar> 
119952
(
2.976675e-05
1.721595e-05
1.76936e-05
2.144455e-05
2.447275e-05
2.361031e-05
2.303376e-05
2.25685e-05
2.208818e-05
2.154739e-05
2.096344e-05
2.035567e-05
1.973866e-05
1.91221e-05
1.851186e-05
1.791137e-05
1.732136e-05
1.674022e-05
1.61572e-05
1.559649e-05
2.083977e-05
1.970909e-05
1.922827e-05
2.613547e-05
2.527448e-05
2.471271e-05
2.421995e-05
2.399495e-05
2.362033e-05
2.515069e-05
2.074386e-05
2.167326e-05
2.391555e-05
2.647267e-05
2.930141e-05
3.233697e-05
3.557315e-05
3.893127e-05
4.237506e-05
4.814749e-05
0.0001892092
0.0002296511
0.0002663955
0.0002931834
0.0003195766
0.0003445136
0.0003678832
0.0003905718
0.0004089405
0.0005258075
0.0005564482
0.0006014707
0.0006478827
0.0006941853
0.0007267153
0.0007586005
0.0007900772
0.0008212133
0.000853578
0.0008841288
0.0009149431
0.0009470125
0.0009801664
0.001014005
0.001048245
0.001082661
0.001117247
0.001152896
0.001135426
0.001203213
0.001225708
0.001254386
0.001284362
0.001312633
0.001339952
0.001367509
0.001395165
0.001422415
0.001448833
0.001474016
0.001497801
0.001520127
0.001540986
0.001560431
0.001578536
0.001595774
0.001612293
0.001629007
0.001648635
0.001668024
0.00168755
0.001715015
0.001744204
0.001764529
0.001778709
0.001779603
0.001731969
0.001623813
0.001590636
0.001579098
0.001574958
0.001573586
0.001573795
0.001575111
0.001577291
0.0015802
0.00158375
0.001587869
0.001592483
0.001597486
0.001602748
0.001608127
0.001613486
0.001618706
0.001623694
0.001628398
0.001632804
0.00163686
0.001640523
0.001643787
0.001646659
0.001649148
0.00165126
0.001653002
0.001654373
0.001655374
0.001655998
0.001656234
0.001656074
0.001655506
0.001654517
0.001653096
0.001651229
0.001648905
0.00164611
0.001642832
0.001639056
0.001634767
0.001629951
0.001624591
0.001618674
0.001612187
0.001605122
0.001597494
0.001589381
0.001581149
0.001573986
0.001556449
0.001532803
0.001508703
0.001485513
0.001463643
0.001443041
0.001423495
0.00140474
0.001386507
0.001368555
0.001350704
0.001332831
0.001314827
0.001296558
0.001277883
0.001258696
0.001238946
0.001218624
0.001197747
0.00117634
0.001154433
0.001132061
0.001109262
0.001086083
0.001062604
0.001039002
0.001015505
0.000992001
0.000968477
0.000944985
0.0009215957
0.0008984707
0.0008756008
0.0008529892
0.0008307237
0.0008088999
0.00078761
0.0007668933
0.0007467442
0.0007271536
0.0007081186
0.00068964
0.0006717234
0.0006543711
0.0006375856
0.0006213581
0.0006057154
0.0005906952
0.0005762857
0.000563906
0.000458976
0.0004437342
0.0004232781
0.0003953239
0.0003747209
0.0003586696
0.0003455669
0.0003344524
0.000324722
0.000316036
0.0003081258
0.0003008126
0.0002939855
0.0002875615
0.0002814796
0.0002756914
0.0002701607
0.0002648585
0.0002597612
0.0002548502
0.0002501091
0.0002455252
0.0002410878
0.0002367879
0.0002326183
0.0002285733
0.0002246473
0.000220839
0.0002171457
0.000213569
0.0002101134
0.0002067881
0.0002035619
0.0001997998
0.0001965195
0.0001977107
0.0001918795
0.0001936178
0.0001953555
0.0001978318
0.0002004659
0.0002032411
0.0002061302
0.0002091131
0.0002121585
0.0002152506
0.0002184078
0.0002215911
0.0002248025
0.0002280379
0.000231296
0.0002345768
0.0002378807
0.000241208
0.0002445596
0.0002479368
0.0002513409
0.0002547727
0.000258233
0.0002617228
0.0002652381
0.000268767
0.0002723493
0.0002759425
0.0002795562
0.0002831916
0.0002868529
0.0002903701
0.0002939135
0.0002980209
0.0003895194
0.0003655678
0.000388127
0.0004066442
0.0004120888
0.000417163
0.000422065
0.0004268184
0.0004314306
0.0004359064
0.0004402425
0.0004444545
0.0004485415
0.0004525118
0.0004563716
0.000460127
0.0004637838
0.0004673477
0.0004708242
0.0004742185
0.000477536
0.0004807823
0.000483963
0.0004870838
0.0004901509
0.0004931699
0.000496147
0.0004990885
0.000502001
0.0005048909
0.0005077646
0.0005106285
0.0005134883
0.0005163493
0.0005192156
0.0005220913
0.0005249793
0.0005278822
0.0005308022
0.0005337409
0.000536699
0.0005396742
0.0005426615
0.0005456525
0.0005486346
0.0005515635
0.0005542055
0.0005566756
0.0005591442
0.0005615994
0.0005640315
0.000566448
0.0005688491
0.0005716366
0.0005744652
0.0005758836
0.0005771796
0.0005785367
0.0005800091
0.0005815812
0.0005832289
0.0005849468
0.0005867364
0.0005886005
0.0005905412
0.0005925581
0.0005946475
0.0005968059
0.0005990296
0.0006013143
0.0006036547
0.0006060464
0.0006084844
0.0006109642
0.000613482
0.0006160345
0.0006186194
0.0006212329
0.0006238692
0.0006265233
0.0006291954
0.0006318889
0.0006345981
0.00063732
0.0006400526
0.0006427948
0.0006455455
0.0006483049
0.0006510724
0.0006538506
0.0006566328
0.0006594236
0.0006622227
0.0006650305
0.0006678472
0.0006706732
0.0006735085
0.0006763534
0.0006792085
0.0006820746
0.0006849527
0.0006878437
0.0006907484
0.0006936673
0.0006966011
0.0006995508
0.0007025171
0.0007055008
0.000708503
0.0007115243
0.0007145656
0.0007176279
0.0007207121
0.0007238195
0.0007269512
0.0007301089
0.0007332942
0.0007365089
0.0007397553
0.0007430358
0.0007463533
0.0007497115
0.0007531142
0.0007565668
0.0007600748
0.0007636468
0.0007672913
0.0007710225
0.0007748549
0.0007788137
0.000782925
0.0007872391
0.0007918163
0.0007967816
0.0008023188
0.0008088347
0.0008169244
0.0008286497
0.0006538185
3.518334e-05
3.903205e-05
4.366997e-05
4.879938e-05
5.42661e-05
5.990093e-05
6.560008e-05
7.128072e-05
7.759583e-05
0.0003335105
0.0003859522
0.0004443623
0.0005047499
0.0005644575
0.0006218322
0.0006759477
0.0007264353
0.0007732027
0.001093452
0.001122898
0.001150125
0.001173189
0.001191867
0.001206235
0.001216623
0.001223697
0.001228068
0.00123031
0.001232143
0.001233193
0.001234857
0.001237818
0.001242413
0.00124894
0.001257651
0.001268729
0.001282129
0.0012986
0.001315788
0.001331447
0.001347489
0.001363776
0.001379776
0.00139507
0.001409313
0.001422345
0.001434143
0.001444475
0.001454326
0.001464049
0.001473314
0.001481734
0.001489464
0.001496648
0.001503959
0.001513058
0.001766814
0.001779358
0.001795706
0.001814903
0.001827072
0.001838963
0.001855131
0.001875327
0.001897639
0.001918668
0.001945469
0.001979509
0.002010448
0.002039623
0.002067027
0.002096269
0.002121426
0.002144092
0.002146451
0.002176053
0.002254744
0.002285283
0.002303805
0.00234134
0.002386377
0.00242181
0.002458409
0.002496308
0.002535537
0.002576037
0.002617688
0.002660312
0.002703699
0.002747633
0.002791894
0.002836271
0.00288049
0.00292416
0.002967681
0.003011816
0.003056228
0.003102032
0.003150469
0.003199003
0.003245621
0.003288785
0.003324081
0.003346869
0.003363759
0.003383221
0.003404219
0.003426078
0.003448464
0.00347115
0.003494033
0.00351713
0.003540684
0.003564782
0.00358938
0.00361435
0.00363969
0.003665353
0.003691261
0.00371732
0.003743426
0.003769477
0.00379538
0.00382106
0.003846457
0.003871522
0.003896209
0.003920478
0.003944296
0.003967633
0.003990461
0.004012754
0.004034483
0.00405562
0.004076134
0.004095994
0.004115169
0.004133625
0.00415133
0.004168252
0.00418436
0.004199624
0.004214013
0.004227499
0.004240051
0.004251642
0.004262241
0.004271821
0.00428035
0.004287799
0.004294138
0.004299353
0.004303475
0.00430662
0.004308342
0.004308163
0.004305947
0.004301674
0.004295386
0.004287161
0.004277094
0.004265273
0.004251765
0.004236623
0.004219886
0.004201575
0.004181692
0.004160218
0.004137119
0.004112357
0.004085901
0.004057731
0.004027845
0.003996248
0.00396296
0.003928006
0.00389141
0.003853201
0.003813393
0.003771983
0.003729014
0.003684592
0.003638853
0.003591946
0.003544025
0.003495237
0.003445675
0.003395357
0.003344154
0.003291862
0.003238973
0.003185911
0.003132984
0.003080452
0.003028517
0.00297738
0.002927183
0.002878114
0.002830259
0.002783888
0.002739067
0.002696205
0.002655236
0.002620734
0.002473345
0.002309534
0.002198083
0.002117482
0.002055762
0.002006092
0.001964409
0.001928205
0.00189589
0.001866434
0.001839148
0.001813557
0.00178933
0.001766227
0.00174407
0.00172272
0.00170207
0.001682032
0.001662535
0.001643521
0.00162494
0.001606752
0.001588927
0.001571437
0.001554264
0.001537395
0.001520828
0.001504569
0.001488633
0.001473051
0.001457878
0.001443207
0.001429215
0.001416295
0.001405565
0.001397556
0.001391708
0.001387534
0.001384313
0.001381795
0.001379851
0.001378394
0.001377363
0.001376722
0.001376448
0.001376523
0.001376939
0.001377689
0.001378767
0.001380171
0.001381899
0.001383948
0.001386316
0.001389
0.001391998
0.001395303
0.00139891
0.001402811
0.001406995
0.001411451
0.001416164
0.001421116
0.001426287
0.001431655
0.001437195
0.001442878
0.001448673
0.001454544
0.001460435
0.001466046
0.001760417
0.001772057
0.001783429
0.001794069
0.001803864
0.001812825
0.001820998
0.001828423
0.001835137
0.001841177
0.001846583
0.001851384
0.001855599
0.001859245
0.001862341
0.001864901
0.001866945
0.001868489
0.001869554
0.001870162
0.001870335
0.001870102
0.001869492
0.001868535
0.001867266
0.001865721
0.001863936
0.001861952
0.001859808
0.001857546
0.001855207
0.001852832
0.001850459
0.001848127
0.001845872
0.001843725
0.001841716
0.001839872
0.001838217
0.001836766
0.001835534
0.001834527
0.001833746
0.001833182
0.001832806
0.001832547
0.00183234
0.001832228
0.001832309
0.001832612
0.001833134
0.001833902
0.001835053
0.001836758
0.001838539
0.001839841
0.001841084
0.001842577
0.00184433
0.001846349
0.001848626
0.001851144
0.00185388
0.00185681
0.001859913
0.001863172
0.001866572
0.001870101
0.001873749
0.001877509
0.001881372
0.00188533
0.001889378
0.001893511
0.001897722
0.001902006
0.00190636
0.001910778
0.001915255
0.001919784
0.001924362
0.001928989
0.00193366
0.001938372
0.001943123
0.001947908
0.001952725
0.001957571
0.001962443
0.001967343
0.001972269
0.001977218
0.00198219
0.001987186
0.001992206
0.001997251
0.002002319
0.002007412
0.00201253
0.002017675
0.002022846
0.002028046
0.002033276
0.002038538
0.002043833
0.002049164
0.002054532
0.002059939
0.002065388
0.002070881
0.002076419
0.002082006
0.002087644
0.002093336
0.002099086
0.002104898
0.002110777
0.002116727
0.002122757
0.002128871
0.002135081
0.002141393
0.002147823
0.00215438
0.002161089
0.00216796
0.002175036
0.002182328
0.002189912
0.0021978
0.002206136
0.002214938
0.002224477
0.002234768
0.002246238
0.002258868
0.002274177
0.002293622
0.002315697
3.119974e-05
3.706302e-05
4.612683e-05
5.692547e-05
6.997521e-05
8.601257e-05
0.0001063582
0.0001326546
0.0001681937
0.0002343498
0.001119828
0.001312472
0.001456893
0.001562136
0.001665169
0.001774707
0.001880586
0.001982806
0.002086902
0.003434819
0.003691597
0.003821529
0.003910665
0.00397948
0.00403623
0.004086096
0.004128473
0.004162416
0.004191527
0.004227819
0.004282258
0.004345524
0.004410395
0.004472356
0.004529346
0.004580602
0.004625781
0.004668616
0.00462403
0.004604579
0.004598306
0.004598199
0.004599618
0.004599434
0.00459575
0.004587469
0.004573828
0.004555068
0.004530233
0.004500123
0.004465796
0.004427824
0.004386854
0.004343385
0.004297788
0.004249508
0.004817981
0.004769613
0.004719539
0.004668249
0.004615351
0.004560222
0.004499967
0.004432048
0.004357174
0.004276585
0.004190204
0.004101359
0.004011418
0.003921839
0.003834728
0.003751989
0.003675276
0.003605848
0.003544301
0.003490515
0.003443084
0.003403028
0.00336911
0.003339522
0.003312902
0.003288069
0.003263853
0.003239319
0.003213525
0.003185857
0.003155905
0.00312394
0.003089917
0.003054689
0.003018175
0.002982019
0.002945528
0.002911862
0.002872178
0.002836874
0.002807329
0.002783955
0.002766879
0.002755761
0.002750103
0.002749296
0.002752767
0.002759806
0.002769622
0.002781545
0.002795163
0.002810078
0.002826012
0.002842718
0.00286025
0.002878515
0.002881026
0.002885412
0.00291056
0.002940115
0.002957894
0.002976794
0.003010459
0.00305543
0.003089605
0.003123453
0.00315987
0.00319883
0.003240231
0.003283908
0.003329654
0.003377235
0.003426401
0.003476917
0.003528596
0.003581328
0.003635152
0.003689703
0.003744774
0.003800738
0.003858261
0.003916861
0.003975054
0.004030946
0.004083363
0.004130198
0.004173691
0.004216701
0.004260469
0.004304763
0.004349128
0.004393304
0.004437176
0.004480688
0.004523672
0.004566191
0.004608489
0.004650572
0.004692451
0.00473414
0.004775638
0.004816933
0.004858006
0.004898833
0.004939385
0.004979627
0.005019523
0.005059035
0.005098129
0.005136771
0.005174927
0.005212568
0.00524966
0.005286171
0.005322064
0.005357301
0.005391843
0.005425646
0.005458667
0.005490861
0.005522182
0.005552587
0.005582029
0.005610467
0.005637857
0.005664158
0.005689329
0.005713333
0.005736131
0.005757683
0.005777954
0.005796905
0.005814501
0.00583072
0.005845552
0.005859018
0.005871023
0.005881387
0.00588999
0.005896744
0.005901578
0.005904427
0.005905239
0.005903978
0.005900614
0.005895122
0.005887479
0.005877669
0.00586567
0.005851459
0.00583501
0.005816292
0.005795282
0.005771955
0.005746303
0.005718324
0.005688025
0.005655422
0.00562053
0.005583384
0.00554402
0.005502487
0.005458846
0.005413181
0.005365591
0.005316195
0.005265126
0.005212519
0.005158491
0.005103164
0.005046647
0.004989073
0.004930642
0.004871591
0.004812165
0.004752595
0.004693109
0.0046339
0.004575168
0.004517042
0.004459688
0.004403126
0.004347498
0.004292774
0.004239495
0.004187342
0.004125826
0.004073253
0.00402622
0.003982836
0.003941987
0.003903041
0.003865644
0.003829584
0.003794745
0.003761049
0.003728436
0.003696855
0.003666257
0.003636589
0.003607799
0.003579833
0.003552634
0.003526148
0.003500324
0.003475111
0.003450469
0.003426355
0.003402738
0.003379589
0.003356898
0.00333466
0.003312882
0.003291586
0.003270817
0.003250643
0.003231177
0.003212584
0.003194927
0.003177987
0.003162005
0.003147343
0.003134259
0.003122593
0.003112043
0.003102477
0.00309381
0.003085975
0.003078928
0.003072643
0.003067107
0.003062311
0.003058259
0.003054956
0.003052406
0.003050619
0.0030496
0.003049357
0.003049894
0.003051216
0.003053321
0.003056208
0.003059872
0.003064302
0.003069486
0.003075404
0.003082033
0.003089346
0.003097308
0.003105881
0.003115018
0.003124669
0.003134778
0.003145276
0.003156113
0.003168374
0.003170946
0.003174534
0.003178629
0.003183105
0.003188035
0.003193406
0.003199102
0.003204963
0.003210834
0.003216587
0.003222117
0.003227332
0.003232152
0.003236507
0.003240338
0.003243599
0.003246251
0.003248267
0.003249629
0.003250328
0.003250363
0.003249741
0.003248478
0.003246595
0.003244122
0.003241094
0.003237552
0.003233543
0.003229119
0.003224334
0.003219246
0.003213917
0.003208405
0.003202773
0.003197079
0.003191381
0.003185735
0.003180191
0.003174797
0.003169594
0.003164618
0.003159897
0.00315545
0.003151284
0.003147391
0.003143749
0.003140341
0.003137191
0.003134361
0.003131888
0.003129794
0.00312806
0.003126643
0.003125487
0.003124649
0.003124291
0.003124383
0.00312489
0.003125695
0.003126773
0.003128129
0.00312977
0.003131696
0.003133899
0.003136364
0.003139075
0.003142014
0.003145166
0.003148514
0.003152044
0.003155741
0.003159593
0.003163587
0.003167712
0.003171957
0.003176314
0.003180775
0.00318533
0.003189974
0.0031947
0.003199504
0.003204381
0.003209329
0.003214345
0.003219424
0.003224564
0.003229762
0.003235014
0.003240319
0.003245675
0.00325108
0.003256535
0.003262038
0.003267591
0.003273193
0.003278845
0.003284546
0.003290297
0.003296097
0.003301948
0.00330785
0.003313804
0.003319812
0.003325875
0.003331995
0.003338174
0.003344413
0.003350716
0.003357085
0.003363523
0.003370031
0.003376614
0.003383275
0.003390018
0.003396848
0.00340377
0.003410791
0.003417918
0.00342516
0.003432527
0.003440029
0.003447683
0.003455503
0.003463511
0.003471728
0.003480188
0.003488921
0.003497982
0.003507418
0.003517315
0.003527756
0.003538874
0.003550811
0.003563761
0.003577949
0.003593646
0.003611408
0.003631377
0.003652582
4.108673e-05
6.273346e-05
0.0001582358
0.0005144378
0.0008664837
0.001513175
0.002033317
0.002657457
0.00334389
0.003873477
0.004231373
0.004506634
0.00478059
0.005037043
0.005277421
0.00547974
0.005650197
0.005802371
0.005938182
0.006061509
0.006174236
0.006130596
0.005838412
0.005588306
0.005363851
0.005142937
0.004959591
0.004837831
0.004771414
0.004749478
0.004985075
0.004807121
0.004985497
0.005156708
0.005360953
0.005604236
0.005877922
0.00618165
0.006513277
0.00686749
0.007251025
0.007686492
0.007754895
0.007813837
0.00786661
0.007915864
0.00796329
0.008009477
0.008054133
0.008096016
0.008132768
0.008162922
0.008185015
0.008197917
0.00820093
0.008193739
0.008176338
0.008148997
0.008111921
0.00806552
0.008010551
0.007947667
0.007877488
0.007801003
0.007719178
0.007634551
0.007550137
0.007467332
0.00736661
0.007260163
0.00715016
0.007036513
0.006918888
0.00679727
0.006671375
0.006541216
0.006406782
0.006268599
0.006127202
0.005983876
0.005840175
0.005697796
0.005558619
0.005424495
0.005297094
0.005177882
0.005067775
0.004967304
0.004876258
0.004794581
0.00472175
0.004656559
0.004597605
0.004543416
0.004492403
0.004443107
0.004394106
0.004344136
0.00429218
0.004237949
0.004180981
0.004121764
0.004060345
0.003998403
0.003935768
0.003874859
0.00381624
0.003760016
0.003707676
0.003660727
0.003619993
0.003585676
0.003557632
0.003535533
0.003518944
0.003507305
0.003499963
0.003496219
0.003495394
0.003496862
0.003500102
0.003504697
0.003510395
0.003517019
0.003524608
0.003532846
0.003541654
0.003551562
0.003563285
0.003577208
0.003593513
0.003612392
0.003634258
0.003659392
0.003687945
0.003719949
0.003755343
0.003793993
0.003835706
0.003880248
0.003927359
0.003976779
0.004028277
0.00408168
0.004136886
0.004193798
0.004252258
0.00431213
0.004373205
0.004410468
0.004453887
0.004527826
0.004616774
0.004674531
0.004730537
0.004785913
0.004841717
0.004898052
0.004954682
0.005011411
0.005068121
0.005124726
0.00518113
0.005237221
0.005292776
0.005347809
0.005402405
0.005456683
0.005510604
0.005564154
0.005617324
0.005670105
0.00572248
0.00577443
0.00582593
0.005876953
0.005927474
0.00597747
0.006026917
0.00607579
0.00612406
0.0061717
0.006218673
0.006264944
0.00631047
0.006355208
0.006399112
0.006442133
0.00648422
0.006525324
0.006565394
0.006604378
0.006642228
0.006678895
0.006714332
0.006748492
0.006781332
0.006812806
0.006842875
0.006871499
0.006898641
0.006924272
0.006948371
0.006970927
0.006991906
0.007011222
0.00702879
0.007044546
0.00705843
0.007070386
0.00708035
0.007088265
0.007094073
0.00709771
0.007099129
0.007098279
0.00709511
0.007089575
0.007081631
0.007071223
0.007058313
0.007042852
0.007024817
0.007004184
0.006980935
0.006955063
0.006926571
0.00689547
0.006861784
0.00682555
0.006786818
0.006745654
0.006702141
0.00665637
0.006608452
0.00655851
0.006506673
0.006453078
0.006397874
0.006341225
0.006283314
0.006224341
0.00616452
0.006104061
0.006043181
0.005982082
0.00592097
0.005860017
0.005799409
0.005739273
0.005679807
0.005621119
0.005563489
0.005506946
0.005451002
0.005396268
0.005343047
0.005291547
0.005241867
0.00519403
0.005148003
0.005103725
0.00506115
0.005020214
0.004980849
0.004942982
0.004906539
0.004871449
0.00483763
0.004804998
0.004773486
0.004743019
0.004713526
0.00468494
0.004657195
0.004630224
0.004603985
0.004578431
0.004553524
0.004529226
0.004505523
0.004482404
0.004459869
0.004437932
0.004416619
0.00439597
0.004376059
0.004356964
0.00433881
0.004321783
0.004306048
0.004291621
0.004278389
0.004266244
0.004255131
0.004245012
0.004235868
0.004227691
0.004220482
0.004214237
0.004208977
0.004204722
0.004201486
0.004199279
0.004198124
0.004198039
0.004199036
0.004201129
0.004204324
0.004208628
0.004214042
0.004220562
0.00422818
0.004236882
0.004246651
0.004257461
0.004269274
0.004282049
0.004295747
0.004310303
0.004325672
0.004341744
0.004358501
0.004375841
0.004393091
0.004410178
0.004427147
0.004444055
0.004460865
0.004477504
0.004493892
0.004509948
0.004525594
0.004540756
0.004555362
0.004569344
0.004582633
0.004595163
0.004606874
0.004617711
0.004627625
0.004636576
0.004644531
0.004651467
0.004657368
0.00466223
0.004666054
0.004668854
0.004670651
0.004671475
0.004671365
0.004670368
0.00466854
0.004665944
0.004662646
0.004658719
0.004654238
0.004649282
0.004643928
0.004638255
0.004632341
0.004626262
0.004620089
0.00461389
0.004607726
0.004601651
0.004595711
0.004589938
0.004584361
0.004578996
0.004573863
0.004568991
0.004564428
0.004560218
0.004556395
0.004552971
0.004549975
0.004547453
0.00454537
0.004543646
0.004542248
0.004541223
0.004540604
0.004540401
0.004540615
0.004541238
0.004542253
0.004543636
0.004545362
0.004547405
0.004549736
0.004552332
0.004555169
0.004558226
0.004561481
0.004564914
0.00456851
0.004572251
0.004576125
0.00458012
0.004584225
0.004588431
0.004592728
0.004597112
0.004601575
0.004606114
0.004610725
0.004615405
0.004620151
0.004624961
0.004629832
0.004634763
0.004639753
0.004644804
0.004649916
0.004655093
0.004660336
0.004665647
0.00467103
0.004676484
0.004682011
0.004687613
0.004693291
0.004699046
0.004704879
0.004710792
0.004716785
0.00472286
0.004729019
0.004735264
0.004741595
0.004748016
0.004754528
0.004761135
0.004767839
0.004774645
0.004781556
0.004788577
0.004795714
0.004802974
0.004810363
0.004817892
0.004825571
0.00483341
0.004841425
0.004849633
0.004858051
0.004866706
0.004875624
0.004884842
0.004894399
0.00490435
0.004914755
0.004925698
0.00493727
0.004949591
0.004962808
0.004977064
0.004992592
0.005009487
0.005028167
0.00504824
0.005069185
2.842823e-05
4.298666e-05
6.143286e-05
0.0002984501
0.0004766563
0.0007670528
0.001081142
0.001358559
0.001698063
0.002019894
0.002362227
0.002795642
0.003290096
0.003828773
0.004413673
0.005130388
0.006296687
0.006700483
0.007049997
0.007326438
0.007536995
0.00768386
0.007414227
0.007177097
0.006955744
0.006758877
0.006586212
0.00642078
0.006257577
0.006092831
0.005918995
0.005733281
0.005547372
0.005358911
0.005155144
0.004955189
0.004777199
0.004629164
0.004530344
0.004482552
0.004456933
0.00451225
0.004674628
0.004776123
0.004946602
0.005183396
0.005464477
0.005779663
0.00613996
0.006543351
0.007010402
0.00756988
0.008267722
0.008682175
0.008789822
0.008890441
0.00898802
0.009084728
0.009180997
0.009275775
0.009367332
0.009453196
0.009530918
0.00959821
0.009653241
0.00969486
0.009722562
0.009736327
0.009736462
0.009723418
0.009697799
0.009660368
0.009611962
0.009553676
0.009487332
0.009417939
0.009344211
0.009262231
0.009173455
0.009077312
0.008973435
0.008862221
0.008744073
0.008618751
0.008486117
0.008346464
0.008200273
0.008048023
0.00789038
0.007728163
0.007562492
0.007394811
0.007226814
0.00706033
0.006897237
0.006739318
0.006588211
0.006445235
0.006311399
0.006187202
0.006072863
0.005968245
0.00587271
0.00578518
0.005704306
0.005628548
0.005556314
0.005485986
0.005416067
0.005345226
0.005272552
0.005197339
0.005119494
0.005039083
0.004956964
0.004873818
0.004791156
0.004710186
0.004631899
0.004557587
0.004488608
0.004425962
0.004370174
0.004321388
0.00427948
0.004244131
0.004214856
0.004191012
0.004171854
0.004156607
0.004144521
0.00413491
0.004127191
0.004120916
0.00411576
0.004111579
0.004108185
0.004105595
0.004104096
0.004104178
0.004106351
0.004111054
0.004118509
0.004129122
0.004143268
0.004161225
0.004183152
0.004209096
0.004239017
0.004272795
0.004310246
0.004351136
0.004395206
0.004442193
0.004491854
0.004543961
0.00459837
0.004654864
0.004709064
0.004738139
0.004768068
0.004809848
0.004872136
0.004950996
0.005053584
0.005136481
0.005196881
0.005257617
0.005318867
0.005380592
0.005442712
0.00550516
0.005567877
0.005630791
0.005693813
0.005756823
0.005819688
0.005882203
0.005944186
0.006005694
0.006066863
0.006127739
0.006188276
0.006248435
0.006308173
0.006367453
0.006426244
0.006484519
0.006542253
0.00659942
0.006655997
0.006711956
0.006767267
0.006821897
0.006875809
0.006928963
0.006981315
0.00703282
0.007083428
0.00713309
0.007181755
0.00722937
0.007275884
0.007321245
0.007365401
0.007408303
0.007449902
0.007490151
0.007529006
0.007566423
0.007602363
0.007636791
0.007669675
0.007700992
0.007730721
0.007758838
0.007785291
0.007810022
0.007832984
0.007854132
0.007873424
0.007890811
0.007906243
0.007919674
0.007931043
0.007940289
0.007947354
0.007952187
0.007954734
0.007954934
0.007952712
0.007948022
0.007940807
0.007931015
0.007918599
0.007903518
0.007885741
0.007865244
0.007842012
0.007816044
0.007787349
0.007755953
0.007721895
0.007685227
0.00764602
0.007604356
0.007560335
0.007514068
0.007465681
0.007415314
0.007363121
0.007309271
0.007253945
0.007197336
0.007139641
0.007081066
0.007021812
0.006962087
0.006902085
0.006842006
0.00678203
0.006722358
0.006663161
0.006604644
0.006546946
0.006490167
0.006434433
0.006379848
0.006326524
0.006274559
0.006224033
0.006175004
0.006127513
0.006081583
0.006037221
0.005994418
0.005953153
0.005913393
0.005875096
0.005838219
0.005802692
0.005768462
0.005735466
0.005703639
0.005672917
0.005643234
0.005614531
0.00558675
0.005559838
0.005533753
0.005508443
0.005483881
0.005460041
0.005436905
0.005414467
0.005392729
0.005371713
0.005351456
0.005332021
0.0053135
0.005296011
0.005279679
0.005264573
0.005250684
0.005237954
0.005226351
0.005215861
0.005206485
0.005198231
0.005191112
0.005185147
0.005180361
0.005176781
0.005174439
0.005173359
0.005173571
0.005175088
0.005177948
0.005182174
0.005187784
0.005194793
0.005203212
0.005213047
0.005224298
0.005236962
0.005251038
0.005266491
0.005283288
0.005301405
0.005320806
0.005341431
0.005363226
0.005386109
0.005410007
0.00543481
0.005460382
0.0054866
0.005513351
0.005540519
0.005567977
0.005595601
0.005623269
0.005650858
0.005678239
0.005705282
0.005731863
0.005757863
0.005783171
0.005807678
0.005831284
0.005853899
0.005875438
0.005895825
0.005914996
0.005932894
0.005949473
0.005964699
0.005978547
0.005991003
0.006002064
0.00601174
0.006020052
0.006027035
0.006032735
0.006037205
0.00604051
0.006042721
0.006043914
0.006044172
0.00604358
0.006042228
0.006040205
0.006037603
0.006034512
0.006031019
0.006027206
0.006023151
0.006018925
0.006014591
0.006010206
0.00600582
0.00600148
0.005997235
0.005993142
0.005989257
0.005985631
0.005982299
0.005979294
0.005976627
0.00597429
0.005972307
0.005970712
0.005969532
0.005968764
0.005968396
0.00596842
0.005968834
0.005969627
0.005970783
0.005972281
0.005974093
0.005976192
0.005978549
0.005981139
0.005983939
0.005986926
0.005990081
0.005993386
0.005996825
0.006000384
0.00600405
0.006007811
0.006011656
0.006015576
0.006019561
0.006023603
0.006027698
0.00603184
0.006036025
0.006040251
0.006044517
0.006048826
0.006053178
0.006057579
0.006062032
0.006066543
0.006071116
0.006075753
0.006080458
0.006085235
0.006090092
0.006095035
0.006100072
0.006105207
0.006110444
0.006115787
0.006121237
0.006126798
0.006132469
0.006138251
0.006144146
0.006150153
0.006156273
0.006162508
0.006168861
0.006175332
0.006181925
0.006188645
0.006195497
0.006202486
0.006209619
0.006216906
0.006224355
0.006231978
0.006239789
0.006247802
0.006256037
0.006264514
0.006273259
0.006282303
0.006291682
0.00630144
0.00631163
0.006322313
0.006333566
0.006345478
0.006358151
0.006371709
0.006386268
0.006402
0.006418957
0.006437419
0.006456927
0.006476755
2.800038e-05
4.121597e-05
8.786703e-05
0.000243783
0.000377005
0.0005772737
0.0007478571
0.0009456498
0.001184761
0.001423067
0.001704213
0.002064466
0.002466482
0.002933475
0.003520723
0.004534329
0.004962898
0.005387282
0.005796597
0.006188228
0.006563704
0.006917108
0.007237854
0.007519124
0.007373167
0.007143356
0.007524823
0.007535458
0.00759728
0.007636585
0.007535489
0.007328944
0.007099405
0.006890053
0.006713524
0.006564645
0.006435082
0.006315935
0.006198075
0.00607056
0.005924269
0.005745835
0.005539513
0.005299065
0.005039998
0.004801039
0.004599089
0.004448428
0.004355341
0.004317919
0.004346885
0.004430457
0.004561527
0.00473412
0.004957731
0.005248474
0.005602327
0.006019454
0.006508269
0.007110107
0.007835168
0.008734061
0.009184914
0.009319888
0.009450015
0.009580552
0.009714717
0.009853432
0.009995517
0.01
0.01
0.01
0.01
0.01
0.01
0.01
0.01
0.01
0.01
0.01
0.01
0.01
0.01
0.01
0.01
0.01
0.01000001
0.01
0.01
0.01
0.01
0.01
0.01
0.009949771
0.009815662
0.009673977
0.009525099
0.009369511
0.00920782
0.009040745
0.008868889
0.008693192
0.008515351
0.008337167
0.008160473
0.007987021
0.007818459
0.007656282
0.007501759
0.007355808
0.007218994
0.007091518
0.006973151
0.006863223
0.006760715
0.006664335
0.006572622
0.006484016
0.006396976
0.00631005
0.00622205
0.006132045
0.006039552
0.005944416
0.005847022
0.005748033
0.005648525
0.005549767
0.00545312
0.005359956
0.005271649
0.005189382
0.005114
0.005045973
0.00498545
0.004932296
0.004886157
0.004846455
0.004812469
0.004783388
0.004758373
0.00473661
0.004717365
0.004700014
0.004684069
0.004669241
0.004655233
0.004642032
0.004629795
0.004618861
0.00460971
0.004602864
0.004598571
0.004597297
0.004599491
0.004605534
0.004615709
0.004630199
0.00464909
0.004672381
0.004699985
0.004731751
0.004767468
0.004806894
0.004849762
0.004895716
0.00494462
0.004996196
0.005050098
0.005098988
0.005126918
0.00516285
0.005212378
0.005274071
0.005348128
0.005429019
0.005506214
0.00557198
0.005628309
0.005682296
0.00573838
0.00579758
0.005859924
0.005925688
0.005994668
0.006066922
0.00614211
0.006216234
0.006281656
0.006346887
0.006411787
0.00647633
0.006540607
0.006604682
0.006668444
0.006731818
0.006794771
0.006857275
0.006919299
0.006980815
0.007041792
0.007102198
0.007161998
0.007221153
0.007279623
0.007337364
0.007394331
0.007450477
0.007505753
0.00756011
0.007613497
0.007665862
0.007717156
0.007767327
0.007816324
0.007864099
0.007910604
0.007955794
0.007999625
0.008042056
0.00808305
0.008122574
0.008160599
0.0081971
0.008232058
0.008265449
0.008297241
0.008327395