/*--------------------------------*- C++ -*----------------------------------*\
| =========                 |                                                 |
| \\      /  F ield         | foam-extend: Open Source CFD                    |
|  \\    /   O peration     | Version:     3.1                                |
|   \\  /    A nd           | Web:         http://www.extend-project.de       |
|    \\/     M anipulation  |                                                 |
\*---------------------------------------------------------------------------*/
FoamFile
{
    version     2.0;
    format      ascii;
    class       volScalarField;
    location    "6.5";
    object      omega;
}
// * * * * * * * * * * * * * * * * * * * * * * * * * * * * * * * * * * * * * //

dimensions      [0 0 -1 0 0 0 0];

internalField   nonuniform List<scalar> 
119952
(
129.0747
152.6909
145.2257
132.8104
123.7961
126.1264
129.4817
133.1229
136.7512
140.2569
143.6883
147.1119
150.5864
154.1595
157.8709
161.7567
165.8538
170.2056
174.912
180.4615
155.7638
155.5265
157.2385
135.6479
133.6738
132.4338
131.3255
130.2956
128.0145
174.9086
444.1017
358.081
295.6753
252.5724
221.2571
197.4185
178.4587
162.9517
149.938
136.2186
120.9679
111.5704
105.1736
99.99762
95.36934
91.06302
87.01452
83.1891
79.72261
68.19349
65.93015
63.29066
60.48725
57.66803
54.94197
52.36628
49.95626
47.71833
45.7265
43.82267
41.97138
40.22241
38.57553
37.03106
35.58901
34.24083
32.96943
31.7422
31.10109
30.3197
29.45858
28.69546
27.99603
27.31255
26.63368
25.98383
25.36597
24.78225
24.23403
23.72232
23.24586
22.80274
22.39084
22.00738
21.64892
21.30933
20.98222
20.65468
20.34847
20.06068
19.73342
19.43646
19.25366
19.07975
18.94168
18.95583
19.40572
20.18109
20.27532
20.21999
20.11712
19.9991
19.87636
19.75462
19.63729
19.52671
19.42448
19.3317
19.24908
19.17686
19.11504
19.06344
19.02172
18.98938
18.96581
18.95027
18.94198
18.94046
18.94522
18.95566
18.97122
18.99138
19.01569
19.04377
19.07526
19.10989
19.14741
19.18763
19.23039
19.27556
19.32304
19.37276
19.42468
19.47878
19.53507
19.5936
19.65442
19.71764
19.78338
19.85178
19.92298
19.99711
20.07429
20.15434
20.23628
20.31542
20.38421
20.60049
20.89629
21.18487
21.44412
21.67017
21.86649
22.03872
22.19263
22.33345
22.46554
22.59219
22.71581
22.8384
22.96211
23.0891
23.22114
23.3594
23.50464
23.65745
23.81836
23.98786
24.16646
24.35462
24.55277
24.76097
24.97825
25.20168
25.43333
25.67457
25.92574
26.18677
26.45445
26.73205
27.02163
27.32103
27.6303
27.94801
28.27391
28.60841
28.95189
29.30466
29.66696
30.039
30.42097
30.81325
31.21635
31.62971
32.04922
32.47126
32.82667
34.9919
38.89614
41.85882
44.01545
45.62192
46.86956
47.88517
48.75281
49.53023
50.25088
50.93848
51.61218
52.28396
52.96264
53.65431
54.3637
55.09421
55.84864
56.62928
57.43786
58.27605
59.14521
60.04657
60.98136
61.95071
62.95583
63.99782
65.07746
66.19567
67.35268
68.54775
69.77844
71.03728
72.27566
73.44855
73.51517
72.45134
71.47486
70.55217
69.66506
68.7974
67.94546
67.10418
66.27024
65.44227
64.61996
63.80339
62.99307
62.18983
61.3947
60.60872
59.83293
59.06829
58.31568
57.57591
56.84966
56.13755
55.44009
54.75771
54.09076
53.43952
52.8043
52.18537
51.58279
50.99665
50.4269
49.87328
49.33648
48.81884
48.32006
37.88285
37.5727
37.17738
36.66461
36.13066
35.60141
35.08595
34.60081
34.15473
33.75043
33.38682
33.0617
32.77163
32.51213
32.27889
32.06768
31.87459
31.69608
31.52907
31.3709
31.21928
31.07231
30.92838
30.78618
30.64463
30.50287
30.36018
30.21603
30.06999
29.92172
29.771
29.61767
29.46163
29.30288
29.14147
28.97754
28.81124
28.64281
28.47251
28.30066
28.1277
27.95425
27.7814
27.61114
27.4477
27.29511
27.15235
27.0136
26.87765
26.74464
26.61436
26.48775
26.36563
26.25046
26.21876
26.09789
25.98957
25.87553
25.74782
25.60718
25.45492
25.29366
25.12671
24.9571
24.78745
24.61997
24.45632
24.29762
24.14457
23.99752
23.85653
23.72147
23.59204
23.46785
23.34842
23.23328
23.12192
23.01386
22.90859
22.80563
22.70479
22.60581
22.50823
22.4118
22.31632
22.22166
22.1277
22.03431
21.94142
21.84889
21.7566
21.66457
21.57277
21.48118
21.38979
21.29861
21.20764
21.11686
21.02625
20.9358
20.84551
20.75538
20.66539
20.57556
20.48588
20.39634
20.30695
20.2177
20.12859
20.03962
19.95078
19.86207
19.77348
19.685
19.59663
19.50835
19.42014
19.33197
19.24382
19.15565
19.0674
18.97902
18.89042
18.80151
18.71214
18.62217
18.53135
18.4394
18.34591
18.25033
18.15181
18.04909
17.94
17.82066
17.68252
17.50696
17.25322
16.87844
16.76709
712.608
590.1579
508.4241
449.669
404.6926
368.5538
338.458
312.7362
289.3746
248.5956
207.4781
179.9711
160.5575
146.0946
134.8101
125.6687
118.0359
111.4978
86.74636
83.34247
80.16072
77.15731
74.40098
71.92501
69.72763
67.78622
66.08588
64.60181
63.43567
62.33775
61.25479
60.1979
59.15509
58.1036
57.01708
55.87421
54.65783
53.54313
52.56036
51.39128
50.17673
48.95916
47.75392
46.58483
45.47277
44.42994
43.45875
42.54275
41.70742
40.94914
40.24564
39.59488
38.98826
38.41246
37.85933
37.36862
33.32946
32.85104
32.39128
31.94799
31.50853
31.06282
30.60453
30.13016
29.63987
29.13837
28.62161
28.09114
27.55181
27.00529
26.45431
25.90022
25.34848
24.80396
24.28073
23.76826
23.24251
22.73182
22.24783
21.78144
21.32723
20.88472
20.45641
20.0428
19.64363
19.25839
18.88655
18.52751
18.18057
17.84504
17.5202
17.20502
16.89898
16.60206
16.31532
16.03986
15.77169
15.51633
15.2859
15.07518
14.87578
14.69394
14.52994
14.36964
14.19429
14.02653
13.87163
13.72592
13.588
13.45686
13.33176
13.21201
13.09697
12.98637
12.88025
12.77888
12.68224
12.59028
12.50295
12.42019
12.34196
12.26816
12.19865
12.13324
12.07169
12.01377
11.95923
11.90784
11.85934
11.8135
11.77007
11.72883
11.68956
11.65205
11.61609
11.58152
11.54816
11.51586
11.48449
11.45392
11.42404
11.39477
11.36601
11.33772
11.30982
11.28228
11.25505
11.22811
11.20142
11.17493
11.14858
11.12229
11.09606
11.07041
11.04632
11.02418
11.00426
10.98641
10.97024
10.95528
10.94108
10.92728
10.91362
10.8999
10.88602
10.87192
10.8576
10.84312
10.82857
10.81403
10.7996
10.78535
10.77134
10.75765
10.74431
10.73141
10.719
10.70717
10.69603
10.6858
10.6767
10.66872
10.6618
10.65581
10.65066
10.6463
10.64285
10.64049
10.63979
10.64168
10.64548
10.65053
10.65635
10.66261
10.66903
10.6754
10.68149
10.68713
10.69207
10.69597
10.69827
10.69829
10.69511
10.67631
11.01983
11.40821
11.67407
11.85692
11.98402
12.07341
12.13724
12.18369
12.21827
12.24468
12.2655
12.28249
12.29685
12.30946
12.32094
12.33178
12.34229
12.35275
12.36335
12.37422
12.38548
12.39719
12.40939
12.42209
12.43526
12.44886
12.46279
12.47687
12.49088
12.50445
12.51695
12.52731
12.53348
12.53112
12.51004
12.46713
12.41489
12.35973
12.30222
12.24243
12.18095
12.11826
12.05471
11.99058
11.92612
11.86153
11.79699
11.73266
11.66867
11.60512
11.5421
11.4797
11.418
11.35704
11.2969
11.23761
11.17924
11.12183
11.06544
11.0101
10.95589
10.90286
10.85106
10.80057
10.75145
10.70378
10.65766
10.61321
10.57063
10.53153
9.096393
9.037833
8.990221
8.949729
8.91389
8.881529
8.852191
8.82556
8.801288
8.779084
8.758742
8.74013
8.72314
8.707683
8.693689
8.681097
8.669847
8.659878
8.651129
8.643534
8.637019
8.631505
8.626905
8.623125
8.620066
8.617622
8.61568
8.614127
8.612845
8.611717
8.610626
8.609458
8.608106
8.606468
8.604453
8.601983
8.598988
8.595417
8.591234
8.586432
8.581033
8.575115
8.568802
8.562277
8.555644
8.54892
8.541892
8.534325
8.526214
8.517681
8.508769
8.499375
8.489812
8.481843
8.475223
8.465845
8.454132
8.441765
8.429383
8.417016
8.404597
8.392045
8.379304
8.366328
8.353076
8.339515
8.325626
8.311395
8.296824
8.281921
8.266705
8.251196
8.235418
8.219397
8.203158
8.186722
8.170124
8.1534
8.136569
8.119648
8.102658
8.085617
8.068544
8.051451
8.034352
8.017257
8.000178
7.98312
7.966087
7.949086
7.93212
7.915182
7.898266
7.881367
7.864485
7.847616
7.830757
7.813902
7.797047
7.780186
7.763315
7.746428
7.72952
7.712588
7.695626
7.678631
7.661599
7.644527
7.627414
7.610256
7.593052
7.575799
7.558494
7.541133
7.523711
7.506221
7.488656
7.471004
7.453253
7.435386
7.417386
7.399222
7.380872
7.362287
7.343428
7.32422
7.304597
7.28443
7.263602
7.241873
7.218992
7.194465
7.167687
7.137602
7.10299
7.062851
7.017467
6.972246
6.932426
696.0476
603.6415
529.6259
475.7189
435.1528
404.1827
380.3695
362.4194
349.9355
335.4673
167.4912
153.2196
145.1436
140.5254
136.0596
131.2444
126.6361
122.1031
117.292
82.08934
76.71945
73.97446
71.80436
69.80972
67.90714
66.06755
64.30353
62.62232
61.03568
59.30971
57.43532
55.56467
53.79101
52.15809
50.67329
49.32695
48.10315
46.96806
46.60249
45.99423
45.26102
44.47205
43.67307
42.89142
42.14278
41.43502
40.77238
40.15921
39.58624
39.04546
38.53296
38.04184
37.56748
37.10718
36.66042
36.23507
32.81548
32.42723
32.05767
31.71125
31.38545
31.07955
30.80619
30.57565
30.38348
30.22429
30.10185
30.00197
29.91713
29.84001
29.76143
29.67253
29.56446
29.42958
29.26224
29.05926
28.82521
28.5505
28.23952
27.90001
27.53953
27.16733
26.79322
26.42763
26.08029
25.75719
25.46227
25.20156
24.97517
24.7829
24.61878
24.4802
24.34886
24.19561
24.1919
24.17025
24.11278
24.02607
23.91622
23.78565
23.63445
23.46306
23.27221
23.06344
22.83882
22.60134
22.35291
22.09541
21.83005
21.5588
21.28273
21.00483
20.7257
20.44968
20.17014
19.88401
19.59756
19.3135
19.02956
18.7444
18.45967
18.17735
17.89878
17.62489
17.3563
17.0934
16.83629
16.58491
16.33892
16.09785
15.86122
15.62888
15.40123
15.17977
14.96482
14.75713
14.5598
14.37253
14.19182
14.01542
13.84224
13.66466
13.48119
13.29794
13.12161
12.95366
12.79296
12.63878
12.49078
12.34871
12.21252
12.08202
11.95705
11.83752
11.72329
11.61423
11.51018
11.41097
11.31644
11.22642
11.14073
11.05917
10.98152
10.90755
10.83702
10.7697
10.70536
10.64376
10.58468
10.52791
10.47321
10.42039
10.36925
10.31961
10.27129
10.22413
10.17799
10.13272
10.08821
10.04435
10.00105
9.958219
9.915793
9.873711
9.831922
9.790381
9.74905
9.707896
9.666887
9.626016
9.585316
9.544942
9.505049
9.465615
9.42669
9.388341
9.350606
9.313488
9.276971
9.241008
9.205553
9.170552
9.135954
9.101717
9.067811
9.034217
9.000919
8.967906
8.935164
8.902687
8.870461
8.838478
8.806729
8.775211
8.743936
8.712901
8.68212
8.651615
8.621404
8.591481
8.561835
8.532459
8.503331
8.474455
8.445869
8.417605
8.389732
8.362262
8.335133
8.30826
8.281569
8.254963
8.228387
8.201747
8.175049
8.148196
8.121323
8.094279
8.067459
8.040322
8.01335
7.985183
7.973344
7.950561
7.921382
7.888576
7.853968
7.818634
7.783195
7.748021
7.71331
7.679174
7.645672
7.612833
7.580665
7.549167
7.51833
7.488141
7.458579
7.429622
7.40124
7.3734
7.346059
7.319176
7.292695
7.266567
7.240713
7.215047
7.18947
7.163856
7.138043
7.11181
7.084835
7.05666
7.026915
6.995787
6.962998
6.928748
6.893737
6.858345
6.822569
6.786435
6.749999
6.713307
6.676405
6.63934
6.602159
6.564918
6.527663
6.49044
6.453295
6.416275
6.379421
6.342777
6.306384
6.270279
6.234503
6.199092
6.164081
6.129508
6.095406
6.061813
6.028762
5.996292
5.964435
5.933239
5.902731
5.872974
5.843989
5.815881
5.788597
5.760345
5.753086
5.744706
5.734974
5.724025
5.712432
5.70072
5.689197
5.67802
5.667271
5.657014
5.6473
5.638177
5.629681
5.621835
5.614657
5.608154
5.602326
5.597169
5.592672
5.58882
5.585592
5.582964
5.580905
5.579381
5.578354
5.577782
5.577618
5.577812
5.578313
5.579067
5.580018
5.581111
5.582292
5.583508
5.584711
5.585852
5.586892
5.587792
5.588526
5.589073
5.589426
5.58959
5.589582
5.589418
5.58911
5.588645
5.58798
5.587044
5.585806
5.584267
5.582428
5.580294
5.577849
5.575087
5.57199
5.56884
5.565672
5.562443
5.559103
5.555543
5.551734
5.547702
5.543477
5.539089
5.534558
5.529902
5.525132
5.52026
5.51529
5.51023
5.505083
5.499854
5.494544
5.489155
5.483689
5.478145
5.472525
5.466832
5.461064
5.455224
5.449312
5.443327
5.437271
5.431145
5.42495
5.418689
5.412364
5.405978
5.399533
5.39303
5.386472
5.379857
5.373188
5.366464
5.359687
5.352857
5.345974
5.339039
5.332053
5.325017
5.317929
5.31079
5.303601
5.29636
5.289069
5.281726
5.274332
5.266887
5.259391
5.251843
5.244242
5.236589
5.228883
5.221122
5.213305
5.205428
5.197487
5.189477
5.181391
5.173221
5.164953
5.156578
5.148072
5.139422
5.130587
5.12155
5.112243
5.102637
5.092613
5.082122
5.070948
5.059002
5.045903
5.031549
5.015437
4.997736
4.978086
4.957794
4.93822
448.7249
314.1303
460.4066
196.2208
150.4612
109.186
92.66013
79.30792
68.94947
64.14063
62.35267
61.32036
60.20663
59.30247
58.55344
58.09832
57.85202
57.7174
57.67307
57.67184
57.68847
57.7467
57.93395
58.17904
58.36638
58.44287
58.31283
57.95334
57.28078
56.39547
55.21094
52.02079
50.70561
49.34628
47.9557
46.55558
45.17351
43.8213
42.51131
41.24773
40.03611
38.87448
37.77743
36.75115
35.79636
34.91321
34.10027
33.35451
32.67194
32.0481
31.478
30.9564
30.47698
30.03372
29.62164
29.23681
28.87618
28.53738
28.21805
27.91605
27.62995
27.3579
27.09778
26.8481
26.60733
26.37193
26.1355
25.89546
25.70611
25.53336
25.37226
25.22361
25.08872
24.96784
24.86105
24.7688
24.69163
24.62881
24.5787
24.5377
24.50203
24.46795
24.43095
24.38635
24.32926
24.25492
24.15921
24.03896
23.89206
23.71617
23.51156
23.28151
23.03029
22.76312
22.48636
22.20692
21.93185
21.66772
21.42087
21.19535
20.99504
20.82009
20.67149
20.54403
20.43817
20.3453
20.27245
20.21013
20.148
20.08145
20.00865
19.92788
19.83718
19.73535
19.62221
19.49871
19.36647
19.22722
19.08238
18.93347
18.78167
18.62819
18.47357
18.31865
18.16298
18.00698
17.84877
17.68614
17.51961
17.35003
17.17676
16.99933
16.81788
16.63357
16.4477
16.26147
16.07594
15.89202
15.71043
15.53167
15.35597
15.18335
15.01374
14.8471
14.68351
14.52338
14.36689
14.21418
14.06611
13.92251
13.78137
13.63963
13.49583
13.34653
13.19166
13.0342
12.87808
12.72462
12.57385
12.42577
12.28059
12.13855
11.9999
11.86489
11.73381
11.60682
11.48406
11.36561
11.25154
11.14183
11.03643
10.9353
10.83834
10.74546
10.65649
10.57126
10.48958
10.41125
10.33606
10.2638
10.19425
10.1272
10.06244
9.999756
9.938942
9.879805
9.822158
9.765825
9.710643
9.65646
9.603139
9.550554
9.498595
9.447164
9.396175
9.345556
9.295244
9.24519
9.195351
9.145698
9.096212
9.046892
8.997757
8.948868
8.900293
8.852025
8.804053
8.756399
8.709103
8.662198
8.615716
8.569672
8.524079
8.478952
8.434279
8.390057
8.346282
8.302944
8.260031
8.217534
8.175431
8.13371
8.092337
8.051287
8.010537
7.970063
7.929844
7.889855
7.850074
7.810482
7.771062
7.731796
7.692663
7.653653
7.614748
7.575937
7.537218
7.498584
7.460034
7.421557
7.383139
7.344759
7.306402
7.26804
7.229665
7.191252
7.152813
7.114326
7.075839
7.037315
6.998853
6.960384
6.922081
6.883874
6.84668
6.809718
6.772606
6.735239
6.697675
6.659998
6.622299
6.584684
6.547226
6.510005
6.473094
6.436552
6.400428
6.364757
6.329566
6.294886
6.260713
6.227044
6.19387
6.161172
6.128926
6.097115
6.065688
6.034605
6.003814
5.973273
5.94291
5.91265
5.88241
5.852085
5.82155
5.790674
5.759297
5.727314
5.694699
5.661556
5.628128
5.594615
5.561068
5.527486
5.493844
5.46014
5.426387
5.392598
5.358794
5.325013
5.291267
5.257581
5.223982
5.190514
5.157196
5.124057
5.091127
5.058436
5.026012
4.993884
4.962081
4.930631
4.899562
4.868899
4.838673
4.808905
4.779637
4.750889
4.722701
4.695086
4.66811
4.641778
4.616188
4.591212
4.567625
4.54524
4.524041
4.503974
4.484958
4.466913
4.449782
4.433528
4.41813
4.403572
4.389843
4.376933
4.364833
4.353535
4.343025
4.333291
4.324316
4.316081
4.308568
4.301754
4.295615
4.290126
4.285258
4.280982
4.277266
4.274079
4.271383
4.269143
4.26732
4.265874
4.264766
4.263957
4.263406
4.263074
4.262925
4.262923
4.263034
4.263226
4.263474
4.263752
4.264045
4.264335
4.264614
4.264871
4.265097
4.265276
4.265383
4.265385
4.265257
4.26499
4.264583
4.264048
4.263406
4.262684
4.261888
4.260961
4.259832
4.258492
4.256999
4.255387
4.253672
4.251869
4.249988
4.248038
4.246027
4.243963
4.241854
4.239705
4.237523
4.235312
4.233078
4.230823
4.228548
4.226255
4.223945
4.221615
4.219267
4.216899
4.21451
4.212097
4.209659
4.207193
4.204696
4.202168
4.199606
4.19701
4.194376
4.191706
4.188996
4.186246
4.183452
4.180614
4.177729
4.174795
4.171813
4.168781
4.1657
4.162569
4.15939
4.156161
4.152884
4.149559
4.146187
4.142767
4.139301
4.135787
4.132228
4.128623
4.124972
4.121275
4.117533
4.113744
4.109908
4.106025
4.102093
4.098111
4.094075
4.089983
4.08583
4.08161
4.077316
4.072941
4.068471
4.063895
4.059194
4.054348
4.049326
4.044099
4.038615
4.032829
4.026653
4.020025
4.012812
4.004954
3.9963
3.986873
3.97656
3.965738
3.954926
484.4208
314.162
230.0512
204.5157
160.2626
131.6873
109.2862
99.81409
90.40823
84.65972
79.76283
73.95138
68.63381
63.92448
59.85592
55.7782
50.71461
49.46866
48.66125
48.33285
48.43732
48.76946
49.13503
49.50098
49.8492
50.16134
50.43987
50.69921
50.94931
51.20016
51.45991
51.72528
51.97245
52.19469
52.3761
52.45726
52.3403
51.979
51.40541
50.61606
49.68096
48.53234
47.18986
45.84495
44.46147
43.0396
41.60962
40.2005
38.82791
37.50378
36.23601
35.03169
33.90586
32.86767
31.92169
31.06844
30.30603
29.62986
29.03359
28.50967
28.04844
27.63918
27.272
26.93786
26.62891
26.33894
26.06334
25.79888
25.54329
25.29503
25.0529
24.81611
24.58398
24.3561
24.13171
23.90634
23.68348
23.4695
23.26461
23.07122
22.88957
22.72019
22.5642
22.42293
22.29693
22.18597
22.08953
22.00676
21.93625
21.87608
21.82386
21.7768
21.73185
21.68574
21.63503
21.57619
21.50576
21.4206
21.31804
21.19593
21.05291
20.8887
20.70432
20.50187
20.28439
20.0559
19.82112
19.58533
19.35378
19.13157
18.92276
18.73094
18.55802
18.40542
18.27231
18.15829
18.05989
17.97455
17.89907
17.82912
17.76087
17.69153
17.61886
17.54093
17.4564
17.36482
17.26654
17.16257
17.0542
16.9429
16.83019
16.71746
16.60585
16.49611
16.38872
16.28348
16.18011
16.07734
15.97371
15.86839
15.76074
15.64982
15.53535
15.41694
15.29484
15.16972
15.04235
14.91362
14.78448
14.65584
14.52852
14.40319
14.28032
14.16025
14.04321
13.92939
13.81888
13.71167
13.60758
13.50669
13.40836
13.31101
13.21251
13.11105
13.00458
12.89249
12.77604
12.65688
12.53604
12.41392
12.29077
12.16694
12.04282
11.91889
11.7956
11.67343
11.55283
11.43424
11.31801
11.20444
11.09373
10.98609
10.88168
10.78057
10.6828
10.58838
10.49727
10.40938
10.32464
10.24289
10.16401
10.08783
10.01418
9.942876
9.873732
9.806556
9.741159
9.677354
9.614962
9.553809
9.493733
9.434583
9.37622
9.318517
9.26136
9.204649
9.148297
9.092232
9.036393
8.980734
8.925221
8.869835
8.814574
8.759453
8.704505
8.64977
8.595263
8.540992
8.486979
8.433262
8.379881
8.326874
8.274278
8.222119
8.170429
8.119236
8.068556
8.018396
7.968761
7.919652
7.871079
7.82302
7.775456
7.728365
7.681721
7.635493
7.58965
7.544158
7.49898
7.454079
7.409418
7.364965
7.320684
7.276545
7.232517
7.188572
7.144684
7.100832
7.056995
7.013155
6.969296
6.925404
6.881467
6.837477
6.793428
6.74932
6.705152
6.660935
6.616676
6.5724
6.52812
6.483885
6.439716
6.395689
6.351829
6.308229
6.264928
6.221944
6.179268
6.136906
6.094877
6.05321
6.011937
5.971093
5.930712
5.890828
5.851468
5.812657
5.774413
5.736742
5.699658
5.663155
5.627223
5.591848
5.557006
5.522671
5.48881
5.455385
5.422353
5.389661
5.357267
5.325108
5.293123
5.261244
5.229398
5.197506
5.16549
5.133278
5.10082
5.068106
5.035182
5.00215
4.969116
4.936115
4.903142
4.870171
4.837196
4.804216
4.771241
4.738281
4.705349
4.672463
4.639642
4.606904
4.574276
4.54178
4.509454
4.477312
4.44538
4.413684
4.382249
4.351103
4.320271
4.28978
4.259652
4.229907
4.200579
4.171705
4.143296
4.115383
4.087988
4.061147
4.034877
4.009212
3.984148
3.959745
3.936055
3.913117
3.890945
3.869546
3.848932
3.829121
3.810126
3.791954
3.774602
3.758068
3.742345
3.727426
3.713303
3.699965
3.6874
3.675595
3.664535
3.654202
3.644578
3.635645
3.62738
3.619761
3.612766
3.606368
3.600543
3.59526
3.590491
3.586206
3.582372
3.57896
3.575936
3.573269
3.570928
3.568882
3.567101
3.565557
3.564221
3.563069
3.562076
3.561222
3.560487
3.559854
3.559305
3.558825
3.558396
3.557996
3.557604
3.557202
3.556777
3.556325
3.555842
3.555323
3.554756
3.554136
3.55346
3.552736
3.551968
3.551156
3.550293
3.549371
3.548392
3.54736
3.546283
3.545169
3.544025
3.542861
3.541683
3.540497
3.539309
3.538123
3.536942
3.535767
3.5346
3.533441
3.53229
3.531148
3.530014
3.528886
3.527764
3.526647
3.525533
3.52442
3.523306
3.52219
3.521068
3.519937
3.518795
3.517638
3.516461
3.515261
3.514036
3.512782
3.511499
3.510185
3.508837
3.507453
3.506032
3.504571
3.503072
3.501533
3.499955
3.498339
3.496684
3.494991
3.493261
3.491496
3.489694
3.487856
3.485984
3.484076
3.482132
3.480152
3.478136
3.476082
3.473989
3.471855
3.469677
3.467452
3.465177
3.462847
3.460455
3.457994
3.455455
3.452826
3.450094
3.44724
3.444244
3.441078
3.437712
3.434105
3.430218
3.425996
3.421401
3.416372
3.410914
3.404967
3.398695
3.392393
245.0068
180.7477
289.3669
143.5615
122.966
105.727
98.76551
93.23597
87.24702
83.68139
79.59071
74.74184
70.39663
66.1922
61.88695
55.69627
53.9022
52.39416
51.1123
50.03526
49.10839
48.34965
47.76451
47.34552
47.06125
46.83328
46.51951
46.31723
46.22779
46.26964
46.41054
46.59958
46.7887
46.93213
47.0286
47.09862
47.1678
47.25964
47.38958
47.56699
47.79901
48.08087
48.359
48.61466
48.77418
48.73181
48.46543
47.95582
47.21452
46.27438
45.16011
43.9214
42.60482
41.24587
39.86844
38.48516
37.11488
35.77456
34.47828
33.23483
32.06358
30.98088
29.99841
29.11544
28.33217
27.65008
27.06695
26.57695
26.1713
25.83856
25.56568
25.3386
25.14341
24.96756
24.80059
24.63483
24.46525
24.28899
24.1048
23.91239
23.71205
23.5046
23.29132
23.0737
22.85212
22.6324
22.41553
22.20234
21.99405
21.79216
21.59836
21.41433
21.24154
21.08109
20.93364
20.79934
20.67794
20.56877
20.47073
20.38235
20.30193
20.22739
20.1561
20.08527
20.01213
19.93388
19.84781
19.75152
19.64299
19.52056
19.3831
19.23011
19.06183
18.87932
18.68443
18.47977
18.26862
18.05473
17.84208
17.63457
17.43578
17.24878
17.07587
16.91863
16.77756
16.65241
16.54185
16.44418
16.35707
16.27763
16.20286
16.13009
16.05704
15.98176
15.90277
15.81923
15.73093
15.6383
15.54221
15.44383
15.34452
15.24561
15.1483
15.05355
14.96201
14.87381
14.78908
14.7071
14.62692
14.54764
14.46825
14.38764
14.30549
14.22108
14.13409
14.04455
13.9527
13.85905
13.76423
13.66903
13.57428
13.4808
13.38934
13.30053
13.21491
13.13311
13.05507
12.9809
12.91029
12.84287
12.77808
12.71487
12.65189
12.58769
12.52094
12.45034
12.37558
12.297
12.21499
12.1297
12.04113
11.94939
11.85468
11.75735
11.65781
11.55657
11.45417
11.35122
11.2482
11.14557
11.04378
10.94322
10.84418
10.74691
10.65166
10.55862
10.46791
10.3796
10.29374
10.21033
10.12934
10.0507
9.974329
9.90011
9.827912
9.757591
9.688991
9.621951
9.556307
9.491895
9.428557
9.36614
9.304498
9.243495
9.183009
9.122926
9.063148
9.00359
8.944181
8.884867
8.825607
8.766377
8.707171
8.647997
8.588881
8.529853
8.470943
8.412179
8.353599
8.295251
8.237188
8.179463
8.122131
8.065242
8.008835
7.952963
7.897672
7.842982
7.788916
7.735491
7.682718
7.630594
7.579112
7.528254
7.477997
7.428312
7.379162
7.330507
7.282303
7.234503
7.187059
7.139922
7.093043
7.046376
6.999873
6.953491
6.907188
6.860925
6.814665
6.768377
6.722032
6.675608
6.629085
6.582452
6.5357
6.488827
6.441836
6.394736
6.347541
6.300275
6.252965
6.205649
6.158369
6.111179
6.064129
6.017277
5.970681
5.924387
5.878431
5.832852
5.787697
5.743009
5.698832
5.655205
5.612166
5.569745
5.527969
5.48686
5.446433
5.406697
5.367654
5.3293
5.291623
5.254605
5.218222
5.182443
5.147233
5.112552
5.078352
5.044585
5.011196
4.978129
4.945324
4.912716
4.880242
4.847837
4.815443
4.783008
4.750498
4.717902
4.685237
4.652547
4.619876
4.587245
4.554642
4.522051
4.489461
4.456868
4.424274
4.391685
4.359108
4.326556
4.294044
4.26159
4.229215
4.196935
4.164783
4.132779
4.100946
4.06931
4.037897
4.006732
3.975841
3.945249
3.914978
3.885054
3.855519
3.826386
3.797679
3.769424
3.741647
3.714373
3.687626
3.661427
3.635797
3.610761
3.586341
3.562549
3.539393
3.516893
3.495071
3.473949
3.453541
3.433858
3.414906
3.396689
3.379208
3.362464
3.346455
3.331176
3.316622
3.302786
3.289659
3.277229
3.265486
3.254414
3.244
3.234226
3.225077
3.216534
3.208576
3.201182
3.194327
3.187988
3.182138
3.176752
3.171804
3.167268
3.163119
3.15933
3.155878
3.152736
3.149881
3.14729
3.144941
3.142813
3.140885
3.139139
3.137556
3.13612
3.13481
3.133609
3.132498
3.131461
3.130485
3.12956
3.128676
3.127824
3.126997
3.12619
3.1254
3.124615
3.123828
3.123032
3.122226
3.121408
3.12058
3.119745
3.118907
3.118073
3.117248
3.116437
3.115645
3.11488
3.114142
3.113432
3.112749
3.112092
3.111459
3.110849
3.110259
3.109688
3.109134
3.108594
3.108067
3.107548
3.107036
3.106529
3.106025
3.105522
3.10502
3.104518
3.104017
3.103517
3.10302
3.102527
3.102039
3.101556
3.101076
3.100586
3.100077
3.099544
3.098987
3.098404
3.097791
3.097148
3.096473
3.095767
3.09503
3.094262
3.093465
3.092639
3.091786
3.090905
3.089999
3.089066
3.088108
3.087124
3.086113
3.085075
3.084009
3.082913
3.081786
3.080625
3.079427
3.078188
3.076905
3.075573
3.074183
3.07273
3.071202
3.069589
3.067877
3.066048
3.064084
3.061962
3.059658
3.057143
3.054396
3.051384
3.048108
3.044531
3.040744
3.036942
92.04898
77.06272
78.88145
75.56882
74.40046
72.57949
70.87859
68.93716
66.77288
63.63114
58.01344
56.48085
54.97239
53.5456
52.18012
50.91764
49.83332
48.96119
48.28903
47.75238
47.14707
46.48918
45.9584
45.54501
45.22975
44.99014
44.80446
44.64917
44.49839
44.31756
44.08066
43.79815
43.52423
43.177
42.87217
42.6866
42.58937
42.52696
42.50303
42.53054
42.63228
42.82649
43.12635
43.52049
43.96974
44.4696
44.99488
45.39276
45.64318
45.67843
45.43448
44.91589
44.13932
43.14765
41.99891
40.75117
39.45335
38.14291
36.83534
35.5505
34.29751
33.08417
31.91541
30.80296
29.76096
28.79921
27.92438
27.13634
26.43939
25.84019
25.3429
24.94806
24.65129
24.44309
24.30945
24.23365
24.19692
24.18031
24.16641
24.1411
24.09461
24.02136
23.91916
23.78818
23.62974
23.44617
23.24079
23.01792
22.78466
22.5461
22.30392
22.05967
21.8152
21.5727
21.33465
21.10353
20.88161
20.67073
20.47218
20.28682
20.11499
19.95662
19.81121
19.6777
19.5546
19.44016
19.3323
19.22871
19.12695
19.02458
18.91939
18.80943
18.69271
18.56758
18.43269
18.28708
18.13017
17.96196
17.78302
17.59453
17.39823
17.1964
16.99174
16.78722
16.58588
16.39065
16.20414
16.02847
15.86525
15.71536
15.57904
15.45588
15.34502
15.2448
15.15328
15.06823
14.98745
14.9089
14.83072
14.75136
14.66971
14.58512
14.49751
14.40723
14.315
14.22176
14.12862
14.03665
13.94681
13.85988
13.77623
13.69638
13.62005
13.54676
13.47594
13.40674
13.3382
13.26999
13.20131
13.13157
13.06042
12.98773
12.91359
12.83829
12.76234
12.68638
12.61115
12.53741
12.46594
12.39746
12.33298
12.27244
12.21612
12.16403
12.11573
12.07065
12.02807
11.98737
11.94752
11.90786
11.86693
11.82387
11.77823
11.72974
11.6781
11.62297
11.56413
11.50145
11.43496
11.36482
11.29121
11.21447
11.13498
11.05319
10.96959
10.88468
10.79894
10.71287
10.62697
10.54149
10.45663
10.37267
10.28986
10.20839
10.12842
10.05004
9.973325
9.898289
9.824926
9.753194
9.683025
9.614326
9.54699
9.480896
9.415912
9.351902
9.288728
9.226255
9.164349
9.102885
9.041747
8.980826
8.920031
8.85928
8.798509
8.737669
8.676728
8.61567
8.554499
8.493231
8.431896
8.370529
8.309175
8.247884
8.186718
8.125747
8.065042
8.004677
7.944725
7.885251
7.826327
7.768022
7.71038
7.653446
7.597256
7.541836
7.487203
7.43336
7.380302
7.328013
7.276466
7.225629
7.175458
7.125904
7.076915
7.028431
6.980392
6.932735
6.885399
6.838321
6.791438
6.744691
6.698023
6.65138
6.604713
6.557977
6.511134
6.464152
6.417006
6.369676
6.322151
6.274427
6.226508
6.178404
6.130136
6.081731
6.033225
5.984661
5.936092
5.887574
5.839165
5.790923
5.742904
5.695162
5.647755
5.600742
5.554181
5.50813
5.46264
5.41776
5.373531
5.329988
5.287164
5.245081
5.203757
5.163201
5.123412
5.084385
5.046106
5.008554
4.971701
4.935512
4.899949
4.864966
4.830512
4.796535
4.762976
4.729776
4.696874
4.664208
4.631719
4.599352
4.56706
4.534808
4.502576
4.470362
4.438172
4.40602
4.373906
4.341819
4.309743
4.277663
4.24557
4.213461
4.181336
4.149198
4.117056
4.08492
4.052804
4.020726
3.988705
3.956761
3.924917
3.893197
3.861625
3.830226
3.799027
3.768053
3.73733
3.706881
3.676736
3.646931
3.617484
3.588419
3.559763
3.531541
3.50378
3.476503
3.449732
3.42349
3.397795
3.372665
3.348111
3.324148
3.300794
3.278065
3.255977
3.234541
3.213766
3.193659
3.174225
3.155468
3.13739
3.119991
3.103271
3.087228
3.071858
3.057158
3.04312
3.029736
3.016998
3.004895
2.993416
2.98255
2.972286
2.962609
2.953505
2.944951
2.936928
2.929412
2.922382
2.915817
2.909696
2.903997
2.898699
2.893781
2.889222
2.885001
2.881099
2.877494
2.874168
2.871102
2.868276
2.865674
2.863277
2.861068
2.859029
2.857143
2.855394
2.85377
2.852256
2.850842
2.849517
2.848272
2.847097
2.845981
2.844915
2.84389
2.842903
2.841949
2.841028
2.84014
2.839288
2.838483
2.837732
2.837038
2.836401
2.835816
2.835276
2.834775
2.834312
2.833882
2.833484
2.833116
2.832774
2.832456
2.832161
2.831886
2.831628
2.831385
2.831156
2.830937
2.830728
2.830525
2.830327
2.830133
2.829941
2.829751
2.829563
2.829376
2.829191
2.829007
2.828825
2.828644
2.828473
2.828323
2.82819
2.828071
2.827949
2.827811
2.827655
2.827479
2.827281
2.82706
2.826816
2.826548
2.826258
2.825947
2.825616
2.825265
2.824896
2.824508
2.824102
2.823678
2.823236
2.822774
2.822292
2.821789
2.821262
2.82071
2.82013
2.819519
2.818872
2.818185
2.817452
2.816667
2.815821
2.814906
2.813909
2.812818
2.811618
2.810295
2.808831
2.807211
2.805417
2.803446
2.801276
2.798962
2.796634
136.411
62.54174
54.34362
52.68592
51.69578
51.01652
50.61759
50.29239
50.02283
49.79282
49.37572
48.58039
47.75092
46.96634
46.22707
45.56167
44.9868
44.50346
44.08778
43.71205
43.36142
43.06901
42.81407
42.5976
42.39086
42.17335
41.92681
41.63431
41.27992
40.85141
40.35467
39.79267
39.21167
38.69644
38.3229
38.08329
37.98631
38.02265
38.19068
38.49121
38.92363
39.48291
40.1675
40.93668
41.67217
42.34955
42.89215
43.21668
43.26878
43.00705
42.41313
41.52559
40.41772
39.17587
37.8814
36.59558
35.35907
34.1912
33.08801
32.04417
31.05035
30.1002
29.19449
28.33565
27.52794
26.77121
26.07071
25.43894
24.89099
24.44024
24.09792
23.87019
23.75477
23.74133
23.81239
23.94463
24.11146
24.28573
24.4425
24.56185
24.63096
24.6437
24.59875
24.49804
24.34599
24.1487
23.91378
23.65381
23.37956
23.09273
22.79649
22.49374
22.18733
21.88038
21.57622
21.27822
20.98942