/*--------------------------------*- C++ -*----------------------------------*\
| =========                 |                                                 |
| \\      /  F ield         | foam-extend: Open Source CFD                    |
|  \\    /   O peration     | Version:     3.1                                |
|   \\  /    A nd           | Web:         http://www.extend-project.de       |
|    \\/     M anipulation  |                                                 |
\*---------------------------------------------------------------------------*/
FoamFile
{
    version     2.0;
    format      ascii;
    class       volScalarField;
    location    "6.5";
    object      p;
}
// * * * * * * * * * * * * * * * * * * * * * * * * * * * * * * * * * * * * * //

dimensions      [1 -1 -2 0 0 0 0];

internalField   nonuniform List<scalar> 
119952
(
8688.813
8644.448
8638.372
8656.283
8675.067
8674.381
8677.599
8680.911
8684.234
8687.626
8691.018
8694.367
8697.647
8700.841
8703.931
8706.89
8709.662
8712.093
8713.601
8711.254
8741.239
8729.858
8728.446
8764.904
8761.782
8767.648
8771.975
8781.538
8809.843
9248.893
7481.598
7533.923
7579.298
7627.974
7674.871
7718.972
7761.197
7801.803
7840.672
7870.445
7892.881
7925.007
7955.415
7984.213
8011.697
8037.905
8062.59
8085.719
8110.177
8110.296
8120.55
8136.615
8153.62
8169.695
8185.592
8200.892
8215.426
8229.26
8241.852
8253.441
8266.267
8278.203
8289.946
8301.549
8312.974
8324.252
8335.675
8349.296
8366.665
8366.961
8374.165
8384.685
8393.249
8398.442
8402.582
8406.897
8411.049
8415.142
8419.19
8423.159
8427.048
8430.846
8434.542
8438.117
8441.551
8444.812
8447.876
8451.209
8456.332
8460.575
8464.117
8473.693
8484.198
8488.647
8493.257
8497.153
8495.343
8479.582
8478.587
8482.076
8484.878
8487.461
8489.674
8491.626
8493.382
8494.976
8496.43
8497.764
8498.998
8500.152
8501.239
8502.271
8503.26
8504.217
8505.152
8506.077
8507
8507.924
8508.86
8509.816
8510.796
8511.805
8512.848
8513.927
8515.047
8516.21
8517.418
8518.672
8519.973
8521.323
8522.721
8524.167
8525.661
8527.202
8528.791
8530.426
8532.106
8533.831
8535.598
8537.407
8539.256
8541.14
8543.055
8544.991
8546.931
8548.894
8551.169
8553.699
8556.215
8558.498
8560.801
8563.132
8565.489
8567.873
8570.279
8572.703
8575.14
8577.585
8580.033
8582.48
8584.919
8587.345
8589.751
8592.13
8594.475
8596.78
8599.038
8601.244
8603.392
8605.475
8607.489
8609.428
8611.289
8613.099
8614.816
8616.445
8617.986
8619.434
8620.795
8622.11
8623.295
8624.375
8625.385
8626.324
8627.176
8627.945
8628.635
8629.247
8629.783
8630.244
8630.63
8630.936
8631.155
8631.254
8631.188
8630.923
8630.814
8664.168
8664.332
8664.266
8664.208
8664.151
8664.045
8663.903
8663.728
8663.521
8663.249
8662.992
8662.704
8662.387
8662.04
8661.663
8661.255
8660.815
8660.342
8659.834
8659.289
8658.704
8658.075
8657.399
8656.671
8655.883
8655.026
8654.089
8653.056
8651.905
8650.601
8649.091
8647.283
8645.009
8642.046
8637.47
8631.822
8637.701
8641.529
8644.282
8646.362
8648.17
8649.75
8651.176
8652.502
8653.758
8654.963
8656.136
8657.288
8658.431
8659.572
8660.719
8661.877
8663.051
8664.247
8665.467
8666.717
8667.998
8669.313
8670.667
8672.06
8673.496
8674.977
8676.504
8678.079
8679.707
8681.389
8683.137
8685.006
8686.879
8688.492
8672.666
8669.201
8663.158
8665.392
8667.787
8669.245
8670.965
8673.016
8675.132
8677.251
8679.415
8681.671
8683.968
8686.294
8688.655
8691.044
8693.455
8695.884
8698.329
8700.786
8703.253
8705.728
8708.209
8710.695
8713.185
8715.677
8718.169
8720.662
8723.154
8725.645
8728.136
8730.625
8733.113
8735.601
8738.09
8740.582
8743.078
8745.582
8748.1
8750.637
8753.206
8755.823
8758.521
8761.337
8764.212
8766.757
8768.513
8769.836
8771.338
8773.032
8774.779
8776.571
8778.29
8778.441
8774.968
8780.531
8783.295
8784.54
8786.191
8787.789
8789.252
8790.704
8792.154
8793.59
8795.007
8796.398
8797.754
8799.072
8800.352
8801.595
8802.795
8803.952
8805.062
8806.123
8807.135
8808.097
8809.006
8809.864
8810.671
8811.428
8812.13
8812.77
8813.376
8813.923
8814.417
8814.86
8815.25
8815.586
8815.877
8816.117
8816.307
8816.447
8816.536
8816.576
8816.569
8816.515
8816.413
8816.266
8816.072
8815.833
8815.549
8815.22
8814.848
8814.431
8813.97
8813.466
8812.917
8812.324
8811.687
8811.006
8810.278
8809.503
8808.681
8807.808
8806.884
8805.905
8804.868
8803.77
8802.606
8801.37
8800.055
8798.653
8797.154
8795.545
8793.81
8791.93
8789.881
8787.629
8785.135
8782.338
8779.163
8775.501
8771.201
8765.986
8759.417
8751.134
8743.049
8747.468
8787.449
6156.392
6064.046
5968.59
5878.465
5799.93
5732.129
5677.079
5637.54
5608.572
5547.631
5558.373
5565.937
5584.209
5613.154
5652.373
5700.483
5756.284
5818.86
5885.632
5965.864
6020.708
6092.707
6172.823
6253.412
6334.757
6416.478
6497.491
6578.329
6649.903
6722.174
6797.894
6868.197
6934.185
6997.333
7057.772
7115.622
7171.113
7226.194
7271.607
7317.121
7363.4
7406.708
7447.374
7486.356
7523.655
7559.314
7593.666
7627.446
7657.902
7686.856
7714.89
7741.874
7767.58
7792.004
7815
7837.183
7804.638
7824.887
7839.016
7853.428
7869.17
7885.171
7900.463
7914.771
7928.249
7941.07
7953.305
7965.274
7977.08
7988.714
8000.191
8011.539
8022.87
8034.234
8045.587
8056.174
8064.363
8071.496
8079.004
8086.234
8092.255
8097.209
8101.691
8106.018
8110.252
8114.381
8118.392
8122.291
8126.088
8129.791
8133.405
8136.95
8140.466
8144.07
8147.994
8152.409
8157.251
8162.584
8168.758
8175.082
8179.852
8182.751
8183.591
8182.189
8178.694
8176.886
8178.051
8180.23
8182.332
8184.187
8185.887
8187.476
8188.949
8190.305
8191.557
8192.726
8193.819
8194.844
8195.817
8196.749
8197.651
8198.534
8199.408
8200.28
8201.161
8202.056
8202.972
8203.915
8204.89
8205.899
8206.948
8208.038
8209.172
8210.352
8211.579
8212.854
8214.178
8215.55
8216.97
8218.438
8219.954
8221.516
8223.124
8224.777
8226.474
8228.214
8229.995
8231.817
8233.678
8235.578
8237.52
8239.518
8241.607
8243.83
8246.159
8248.444
8250.711
8252.998
8255.317
8257.665
8260.036
8262.428
8264.839
8267.263
8269.698
8272.137
8274.576
8277.009
8279.43
8281.833
8284.211
8286.559
8288.869
8291.135
8293.352
8295.513
8297.613
8299.647
8301.609
8303.498
8305.313
8307.052
8308.706
8310.274
8311.757
8313.152
8314.464
8315.694
8316.839
8317.884
8318.866
8319.759
8320.567
8321.297
8321.946
8322.52
8323.013
8323.438
8323.779
8324.07
8324.288
8324.479
8324.635
8324.83
8387.874
8387.931
8387.751
8387.756
8387.728
8387.638
8387.506
8387.335
8387.128
8386.894
8386.634
8386.344
8386.025
8385.676
8385.298
8384.888
8384.447
8383.973
8383.464
8382.918
8382.332
8381.704
8381.028
8380.301
8379.516
8378.663
8377.733
8376.711
8375.578
8374.307
8372.857
8371.173
8369.185
8366.91
8364.669
8363.405
8364.589
8367.152
8369.218
8370.994
8372.62
8374.095
8375.454
8376.734
8377.957
8379.141
8380.296
8381.436
8382.568
8383.7
8384.84
8385.993
8387.164
8388.356
8389.575
8390.822
8392.102
8393.417
8394.77
8396.163
8397.599
8399.079
8400.605
8402.18
8403.808
8405.491
8407.238
8409.048
8410.974
8413.803
8355.589
8358.944
8360.26
8360.578
8361.301
8362.754
8364.664
8366.736
8368.842
8370.973
8373.152
8375.391
8377.684
8380.02
8382.389
8384.785
8387.203
8389.64
8392.092
8394.557
8397.032
8399.516
8402.007
8404.504
8407.004
8409.506
8412.01
8414.514
8417.018
8419.52
8422.022
8424.522
8427.021
8429.518
8432.016
8434.515
8437.018
8439.525
8442.042
8444.572
8447.12
8449.688
8452.265
8454.813
8457.265
8459.526
8461.514
8463.265
8464.954
8466.675
8468.418
8470.092
8471.553
8472.414
8472.524
8473.575
8475.75
8478.194
8480.207
8481.868
8483.36
8484.806
8486.247
8487.676
8489.082
8490.454
8491.79
8493.087
8494.346
8495.566
8496.744
8497.88
8498.97
8500.013
8501.008
8501.953
8502.848
8503.692
8504.485
8505.224
8505.91
8506.546
8507.132
8507.666
8508.147
8508.577
8508.955
8509.281
8509.559
8509.787
8509.963
8510.087
8510.163
8510.19
8510.171
8510.103
8509.988
8509.827
8509.62
8509.368
8509.071
8508.729
8508.343
8507.913
8507.439
8506.921
8506.36
8505.754
8505.104
8504.409
8503.668
8502.881
8502.045
8501.16
8500.223
8499.232
8498.183
8497.074
8495.899
8494.653
8493.33
8491.921
8490.418
8488.806
8487.077
8485.206
8483.179
8480.961
8478.529
8475.826
8472.825
8469.441
8465.687
8461.574
8457.521
8454.271
8453.29
8455.103
8460.387
3562.965
3700.377
3875.82
4073.996
4296.197
4542.018
4811.597
5103.043
5415.08
5732.271
6053.507
6393.122
6726.373
7044.888
7341.824
7603.769
7823.206
7994.491
8110.697
8146.918
8162.737
8135.412
8070.311
7974.83
7856.423
7721.641
7575.241
7422.196
7268.942
7107.972
6953.862
6799.956
6649.973
6505.013
6365.458
6231.761
6104.838
5986.116
5865.906
5756.697
5656.625
5566.784
5487.812
5420.227
5364.924
5322.608
5295.136
5277.959
5272.543
5283.506
5305.31
5336.738
5377.91
5427.762
5484.861
5549.356
5575.218
5654.241
5727.764
5802.888
5881.68
5962.828
6044.59
6125.607
6206.307
6286.008
6363.595
6437.142
6507.785
6576.207
6642.266
6705.763
6766.536
6824.559
6879.82
6932.361
6981.94
7027.638
7070.888
7112.672
7152.888
7191.313
7227.927
7262.908
7296.313
7328.063
7358.319
7387.451
7415.322
7441.998
7467.247
7491.288
7513.821
7536.391
7559.609
7578.692
7594.577
7609.983
7625.879
7641.781
7656.999
7671.285
7684.729
7697.581
7710.056
7722.211
7734.016
7745.536
7756.854
7768.018
7779.012
7789.839
7800.35
7810.385
7819.071
7826.528
7833.716
7840.705
7846.958
7852.32
7857.105
7861.622
7865.989
7870.217
7874.302
7878.256
7882.103
7885.861
7889.551
7893.205
7896.87
7900.644
7904.641
7908.985
7913.643
7918.523
7923.727
7928.839
7932.836
7935.366
7936.471
7936.217
7934.781
7934.011
7934.897
7936.559
7938.318
7939.957
7941.492
7942.949
7944.321
7945.596
7946.778
7947.877
7948.903
7949.866
7950.779
7951.653
7952.498
7953.324
7954.142
7954.961
7955.789
7956.634
7957.502
7958.396
7959.324
7960.287
7961.291
7962.337
7963.428
7964.566
7965.752
7966.987
7968.27
7969.603
7970.984
7972.414
7973.891
7975.414
7976.984
7978.599
7980.258
7981.96
7983.705
7985.493
7987.323
7989.197
7991.122
7993.105
7995.158
7997.288
7999.501
8001.742
8003.979
8006.227
8008.504
8010.812
8013.147
8015.507
8017.887
8020.285
8022.696
8025.115
8027.537
8029.957
8032.369
8034.768
8037.146
8039.498
8041.817
8044.098
8046.334
8048.519
8050.649
8052.718
8054.722
8056.656
8058.513
8060.293
8061.992
8063.61
8065.145
8066.596
8067.962
8069.247
8070.448
8071.552
8072.57
8073.504
8074.359
8075.135
8075.834
8076.459
8077.011
8077.494
8077.91
8078.267
8078.573
8078.891
8079.239
8079.694
8080.379
8080.742
8080.786
8080.702
8080.617
8080.531
8080.417
8080.263
8080.071
8079.845
8079.59
8079.304
8078.988
8078.64
8078.262
8077.851
8077.409
8076.933
8076.422
8075.875
8075.289
8074.661
8073.988
8073.266
8072.489
8071.651
8070.745
8069.759
8068.683
8067.506
8066.221
8064.838
8063.416
8062.092
8061.101
8060.786
8061.36
8062.633
8064.129
8065.575
8066.917
8068.181
8069.396
8070.576
8071.727
8072.854
8073.966
8075.072
8076.178
8077.29
8078.415
8079.556
8080.718
8081.904
8083.118
8084.364
8085.642
8086.958
8088.311
8089.706
8091.142
8092.624
8094.151
8095.728
8097.352
8099.032
8100.759
8102.552
8104.384
8106.308
8107.932
8108.876
8110.036
8111.755
8113.853
8116.089
8118.345
8120.594
8122.835
8125.08
8127.344
8129.639
8131.969
8134.33
8136.717
8139.125
8141.554
8143.999
8146.461
8148.937
8151.424
8153.919
8156.422
8158.93
8161.443
8163.958
8166.475
8168.992
8171.51
8174.026
8176.541
8179.055
8181.566
8184.077
8186.585
8189.093
8191.601
8194.111
8196.623
8199.138
8201.653
8204.162
8206.647
8209.085
8211.443
8213.682
8215.761
8217.667
8219.46
8221.223
8222.986
8224.749
8226.584
8228.655
8230.943
8232.94
8234.315
8235.348
8236.469
8237.669
8238.919
8240.22
8241.554
8242.902
8244.246
8245.577
8246.884
8248.161
8249.405
8250.614
8251.784
8252.913
8253.996
8255.032
8256.022
8256.963
8257.854
8258.695
8259.485
8260.224
8260.911
8261.547
8262.131
8262.665
8263.146
8263.576
8263.954
8264.281
8264.557
8264.782
8264.956
8265.08
8265.155
8265.181
8265.158
8265.087
8264.97
8264.806
8264.596
8264.34
8264.039
8263.693
8263.303
8262.87
8262.392
8261.87
8261.305
8260.695
8260.042
8259.344
8258.601
8257.811
8256.974
8256.089
8255.152
8254.163
8253.118
8252.014
8250.847
8249.612
8248.303
8246.915
8245.438
8243.863
8242.178
8240.37
8238.423
8236.318
8234.035
8231.554
8228.86
8225.962
8222.914
8219.863
8217.062
8214.853
8213.575
8213.767
8215.726
2418.898
2450.471
2486.725
2515.73
2564.727
2605.787
2689.485
2797.373
2924.025
3015.897
3077.719
3164.359
3279.794
3421.954
3589.316
3779.676
3990.92
4225.156
4480.692
4757.157
5053.638
5366.934
5693.536
6026.022
6355.233
6671.736
6964.941
7225.038
7442.962
7612.785
7732.963
7734.209
7751.82
7721.215
7648.346
7546.919
7425.118
7288.256
7141.693
6989.805
6836.545
6683.999
6532.931
6384.495
6240.338
6101.234
5967.361
5838.827
5715.67
5598.013
5486.34
5381.86
5285.626
5198.546
5121.973
5057.187
5005.188
4966.685
4941.83
4930.728
4933.092
4947.646
4973.669
5010.426
5056.613
5111.181
5172.97
5241.541
5316.672
5391.696
5466.448
5543.629
5624.139
5706.587
5789.472
5871.895
5953.433
6033.257
6110.757
6185.585
6257.901
6327.757
6394.966
6459.346
6520.786
6579.219
6634.692
6687.189
6736.66
6783.115
6827.111
6869.24
6909.523
6947.83
6984.214
7018.836
7051.896
7083.569
7113.878
7142.79
7170.475
7196.908
7222.25
7246.345
7269.745
7291.64
7312.25
7331.511
7349.139
7365.679
7381.759
7397.469
7412.569
7426.898
7440.492
7453.505
7466.063
7478.22
7490.016
7501.52
7512.782
7523.826
7534.623
7545.138
7555.248
7564.835
7573.566
7581.38
7588.627
7595.486
7601.805
7607.445
7612.515
7617.242
7621.761
7626.11
7630.297
7634.343
7638.272
7642.113
7645.892
7649.645
7653.416
7657.268
7661.267
7665.469
7669.862
7674.381
7678.931
7683.214
7686.719
7689.158
7690.511
7690.915
7690.799
7690.958
7691.779
7693.105
7694.602
7696.071
7697.472
7698.808
7700.072
7701.255
7702.355
7703.377
7704.337
7705.228
7706.075
7706.885
7707.668
7708.436
7709.197
7709.962
7710.739
7711.534
7712.354
7713.203
7714.086
7715.008
7715.971
7716.978
7718.033
7719.135
7720.287
7721.488
7722.739
7724.041
7725.391
7726.79
7728.237
7729.731
7731.271
7732.857
7734.487
7736.162
7737.879
7739.641
7741.447
7743.3
7745.203
7747.161
7749.18
7751.264
7753.412
7755.597
7757.797
7760.018
7762.268
7764.549
7766.858
7769.193
7771.55
7773.926
7776.317
7778.718
7781.126
7783.533
7785.935
7788.326
7790.701
7793.051
7795.372
7797.657
7799.901
7802.096
7804.239
7806.323
7808.343
7810.294
7812.173
7813.977
7815.702
7817.348
7818.912
7820.393
7821.789
7823.103
7824.33
7825.469
7826.525
7827.498
7828.391
7829.206
7829.943
7830.607
7831.198
7831.723
7832.183
7832.592
7832.956
7833.315
7833.663
7834.022
7834.278
7834.472
7834.629
7834.73
7834.77
7834.753
7834.682
7834.561
7834.396
7834.191
7833.952
7833.679
7833.374
7833.035
7832.665
7832.263
7831.828
7831.36
7830.858
7830.32
7829.746
7829.132
7828.477
7827.777
7827.03
7826.23
7825.374
7824.459
7823.481
7822.444
7821.36
7820.26
7819.204
7818.287
7817.644
7817.422
7817.753
7818.605
7819.75
7820.944
7822.1
7823.224
7824.332
7825.429
7826.515
7827.591
7828.662
7829.734
7830.812
7831.901
7833.005
7834.129
7835.275
7836.447
7837.649
7838.882
7840.15
7841.454
7842.797
7844.181
7845.607
7847.077
7848.592
7850.154
7851.762
7853.42
7855.12
7856.864
7858.622
7860.347
7862.024
7863.808
7865.72
7867.652
7869.552
7871.467
7873.45
7875.51
7877.631
7879.799
7882.008
7884.259
7886.552
7888.883
7891.246
7893.637
7896.053
7898.49
7900.946
7903.418
7905.903
7908.399
7910.903
7913.415
7915.932
7918.453
7920.978
7923.503
7926.029
7928.555
7931.079
7933.602
7936.122
7938.64
7941.156
7943.668
7946.178
7948.684
7951.187
7953.683
7956.167
7958.632
7961.064
7963.447
7965.763
7967.988
7970.095
7972.076
7973.958
7975.793
7977.616
7979.44
7981.243
7982.945
7984.428
7985.745
7987.118
7988.632
7990.26
7991.861
7993.394
7994.877
7996.331
7997.759
7999.159
8000.528
8001.861
8003.154
8004.409
8005.626
8006.801
8007.932
8009.018
8010.057
8011.049
8011.991
8012.883
8013.725
8014.516
8015.256
8015.943
8016.579
8017.164
8017.698
8018.179
8018.609
8018.987
8019.314
8019.589
8019.813
8019.987
8020.111
8020.184
8020.208
8020.183
8020.11
8019.99
8019.824
8019.611
8019.353
8019.049
8018.701
8018.308
8017.871
8017.39
8016.866
8016.298
8015.687
8015.031
8014.332
8013.588
8012.799
8011.963
8011.08
8010.148
8009.165
8008.128
8007.035
8005.883
8004.668
8003.384
8002.026
8000.588
7999.063
7997.443
7995.717
7993.877
7991.912
7989.814
7987.582
7985.226
7982.776
7980.301
7977.907
7975.759
7974.003
7972.894
7972.579
7973.22
2695.051
2607.797
2525.986
2436.385
2361.499
2267.292
2220.333
2182.76
2159.415
2147.563
2144.385
2150.244
2167.384
2193.809
2229.066
2274.654
2282.48
2356.004
2438.842
2526.969
2615.316
2711.353
2820.14
2947.347
3094.735
3262.461
3450.925
3660.706
3892.237
4145.576
4419.971
4713.563
5023.294
5344.645
5671.241
5994.67
6305.483
6592.205
6843.202
7050.782
7209.086
7315.451
7369.569
7380.595
7351.343
7284.759
7188.945
7072.091
6940.36
6799.032
6652.262
6503.731
6355.168
6207.451
6063.225
5923.953
5789.688
5660.077
5535.082
5414.75
5299.379
5189.295
5085.309
4988.886
4901.463
4824.517
4759.468
4707.525
4669.6
4646.283
4637.404
4642.176
4659.919
4689.77
4730.385
4780.417
4838.39
4903.206
4973.411
5047.545
5124.223
5202.68
5282.997
5365.206
5448.565
5532.108
5615.027
5696.793
5776.935
5855.107
5931.02
6004.468
6075.245
6143.202
6208.229
6270.265
6329.277
6385.279
6438.281
6488.378
6535.676
6580.399
6622.845
6663.18
6701.483
6737.868
6772.499
6805.559
6837.164
6867.368
6896.211
6923.835
6950.263
6975.61
6999.773
7022.87
7044.57
7065.171
7084.795
7103.169
7120.338
7136.676
7152.427
7167.579
7182.048
7195.829
7209.005
7221.674
7233.916
7245.786
7257.329
7268.573
7279.529
7290.175
7300.474
7310.34
7319.683
7328.37
7336.332
7343.681
7350.546
7356.919
7362.745
7368.068
7373.019
7377.709
7382.193
7386.495
7390.642
7394.661
7398.583
7402.439
7406.261
7410.088
7413.96
7417.914
7421.971
7426.11
7430.258
7434.308
7438.083
7441.316
7443.802
7445.471
7446.454
7447.042
7447.628
7448.51
7449.716
7451.07
7452.421
7453.713
7454.942
7456.102
7457.187
7458.193
7459.13
7460.01
7460.848
7461.628
7462.37
7463.081
7463.78
7464.478
7465.184
7465.906
7466.646
7467.413
7468.212
7469.047
7469.923
7470.843
7471.809
7472.823
7473.888
7475.004
7476.172
7477.39
7478.659
7479.979
7481.348
7482.765
7484.23
7485.742
7487.299
7488.901
7490.548
7492.239
7493.975
7495.756
7497.585
7499.462
7501.392
7503.378
7505.42
7507.515
7509.65
7511.814
7514.006
7516.228
7518.481
7520.763
7523.073
7525.406
7527.759
7530.13
7532.513
7534.904
7537.298
7539.688
7542.071
7544.438
7546.785
7549.105
7551.391
7553.638
7555.84
7557.991
7560.085
7562.118
7564.085
7565.982
7567.806
7569.553
7571.222
7572.81
7574.316
7575.739
7577.079
7578.334
7579.505
7580.592
7581.598
7582.523
7583.37
7584.142
7584.84
7585.469
7586.032
7586.534
7586.984
7587.389
7587.766
7588.11
7588.428
7588.703
7588.949
7589.139
7589.249
7589.285
7589.264
7589.196
7589.083
7588.928
7588.735
7588.507
7588.243
7587.947
7587.618
7587.256
7586.862
7586.436
7585.978
7585.487
7584.961
7584.401
7583.805
7583.171
7582.499
7581.785
7581.03
7580.231
7579.391
7578.513
7577.607
7576.692
7575.798
7574.976
7574.294
7573.839
7573.698
7573.938
7574.549
7575.409
7576.372
7577.359
7578.354
7579.358
7580.37
7581.386
7582.406
7583.431
7584.465
7585.511
7586.572
7587.653
7588.755
7589.883
7591.039
7592.226
7593.446
7594.701
7595.993
7597.325
7598.698
7600.113
7601.572
7603.074
7604.622
7606.215
7607.852
7609.529
7611.238
7612.971
7614.724
7616.53
7618.39
7620.241
7622.048
7623.879
7625.791
7627.799
7629.885
7632.028
7634.214
7636.439
7638.702
7641.003
7643.339
7645.707
7648.101
7650.52
7652.959
7655.418
7657.892
7660.38
7662.88
7665.389
7667.906
7670.43
7672.958
7675.49
7678.024
7680.558
7683.092
7685.625
7688.156
7690.684
7693.209
7695.729
7698.244
7700.754
7703.256
7705.749
7708.229
7710.691
7713.127
7715.529
7717.883
7720.175
7722.39
7724.514
7726.544
7728.494
7730.392
7732.257
7734.088
7735.865
7737.58
7739.274
7740.974
7742.644
7744.233
7745.752
7747.226
7748.669
7750.095
7751.509
7752.909
7754.291
7755.65
7756.983
7758.269
7759.518
7760.73
7761.902
7763.032
7764.118
7765.158
7766.15
7767.094
7767.988
7768.831
7769.623
7770.364
7771.052
7771.689
7772.274
7772.807
7773.288
7773.716
7774.092
7774.416
7774.689
7774.91
7775.081
7775.201
7775.272
7775.292
7775.263
7775.186
7775.063
7774.894
7774.678
7774.417
7774.11
7773.758
7773.362
7772.922
7772.439
7771.912
7771.342
7770.729
7770.073
7769.373
7768.629
7767.842
7767.01
7766.131
7765.206
7764.231
7763.207
7762.129
7760.996
7759.804
7758.551
7757.231
7755.841
7754.375
7752.828
7751.196
7749.473
7747.658
7745.752
7743.763
7741.71
7739.629
7737.579
7735.64
7733.917
7732.524
7731.596
7731.19
7731.365
3961.319
3794.925
3627.437
3445.419
3285.445
3085.61
2939.716
2800.999
2668.728
2544.163
2430.393
2328.264
2234.105
2150.947
2077.601
1945.361
1900.056
1865.753
1842.82
1831.206
1829.443
1836.609
1852.915
1877.967
1910.998
1952.956
2001.722
2065.98
2138.021
2217.446
2303.961
2401.005
2512.875
2641.605
2787.87
2952.405
3135.644
3338.252
3560.856
3803.795
4066.88
4349.23
4648.417
4960.419
5280.759
5598.425
5904.643
6187.458
6435.595
6640.476
6796.633
6902.374
6958.809
6970.158
6942.609
6880.945
6791.41
6681.21
6557.101
6423.952
6286.144
6146.379
6005.517
5865.203
5728.448
5596.514
5468.876
5344.92
5224.373
5107.276
4993.969
4884.926
4781.065
4683.878
4595.084
4516.477
4449.837
4396.776
4358.635
4336.199
4329.25
4336.901
4358.187
4391.852
4436.418
4490.472
4552.38
4620.641
4693.768
4770.701
4850.554
4932.332
5015.391
5099.477
5184.195
5268.891
5352.911
5435.798
5517.152
5596.601
5673.821
5748.514
5820.412
5889.392
5955.376
6018.316
6078.215
6135.039
6188.814
6239.635
6287.617
6332.915
6375.745
6416.316
6454.789
6491.306
6526.017
6559.078
6590.612
6620.725
6649.501
6677.047
6703.409
6728.653
6752.743
6775.718
6797.555
6818.347
6838.123
6856.78
6874.336
6890.997
6906.961
6922.283
6936.937
6950.921
6964.29
6977.127
6989.505
7001.475
7013.071
7024.315
7035.217
7045.762
7055.921
7065.638
7074.852
7083.497
7091.529
7098.979
7105.922
7112.387
7118.372
7123.901
7129.05
7133.905
7138.523
7142.94
7147.185
7151.289
7155.282
7159.197
7163.063
7166.91
7170.766
7174.65
7178.562
7182.474
7186.313
7189.994
7193.436
7196.493
7199.019
7200.952
7202.349
7203.365
7204.25
7205.241
7206.412
7207.681
7208.942
7210.15
7211.297
7212.378
7213.384
7214.311
7215.165
7215.955
7216.693
7217.387
7218.046
7218.688
7219.319
7219.945
7220.592
7221.257
7221.94
7222.652
7223.397
7224.18
7225.005
7225.877
7226.798
7227.77
7228.794
7229.871
7231.002
7232.186
7233.421
7234.709
7236.046
7237.433
7238.868
7240.35
7241.879
7243.453
7245.072
7246.735
7248.444
7250.199
7252
7253.85
7255.75
7257.701
7259.704
7261.755
7263.847
7265.975
7268.135
7270.328
7272.552
7274.807
7277.091
7279.4
7281.731
7284.082
7286.446
7288.821
7291.201
7293.58
7295.953
7298.313
7300.655
7302.973
7305.259
7307.509
7309.715
7311.873
7313.977
7316.022
7318.002
7319.915
7321.755
7323.522
7325.21
7326.82
7328.349
7329.796
7331.16
7332.442
7333.64
7334.755
7335.79
7336.746
7337.624
7338.427
7339.159
7339.821
7340.418
7340.955
7341.439
7341.874
7342.268
7342.624
7342.947
7343.231
7343.469
7343.645
7343.754
7343.8
7343.794
7343.743
7343.647
7343.509
7343.331
7343.115
7342.864
7342.578
7342.259
7341.907
7341.523
7341.107
7340.659
7340.18
7339.668
7339.124
7338.547
7337.936
7337.293
7336.615
7335.906
7335.165
7334.399
7333.613
7332.821
7332.043
7331.306
7330.653
7330.131
7329.8
7329.71
7329.896
7330.349
7331.008
7331.79
7332.633
7333.512
7334.419
7335.347
7336.294
7337.255
7338.231
7339.223
7340.233
7341.264
7342.318
7343.397
7344.504
7345.641
7346.811
7348.016
7349.257
7350.537
7351.857
7353.218
7354.621
7356.068
7357.559
7359.094
7360.673
7362.294
7363.955
7365.652
7367.384
7369.151
7370.954
7372.773
7374.589
7376.418
7378.303
7380.264
7382.3
7384.395
7386.54
7388.726
7390.953
7393.217
7395.518
7397.853
7400.219
7402.612
7405.029
7407.469
7409.928
7412.404
7414.894
7417.397
7419.909
7422.431
7424.959
7427.494
7430.032
7432.572
7435.113
7437.654
7440.194
7442.731
7445.265
7447.794
7450.318
7452.835
7455.344
7457.842
7460.327
7462.796
7465.242
7467.661
7470.043
7472.379
7474.659
7476.873
7479.013
7481.079
7483.077
7485.02
7486.917
7488.773
7490.586
7492.364
7494.111
7495.803
7497.423
7498.991
7500.535
7502.064
7503.572
7505.054
7506.513
7507.945
7509.351
7510.73
7512.1
7513.371
7514.623
7515.84
7517.016
7518.15
7519.239
7520.282
7521.277
7522.223
7523.119
7523.965
7524.76
7525.503
7526.194
7526.832
7527.417
7527.949
7528.428
7528.855
7529.23
7529.553
7529.824
7530.045
7530.216
7530.336
7530.407
7530.428
7530.395
7530.313
7530.185
7530.012
7529.792
7529.526
7529.216
7528.861
7528.462
7528.02
7527.534
7527.005
7526.433
7525.818
7525.162
7524.463
7523.721
7522.936
7522.108
7521.236
7520.319
7519.356
7518.345
7517.286
7516.175
7515.012
7513.793
7512.516
7511.178
7509.777
7508.311
7506.777
7505.176
7503.51
7501.787
7500.019
7498.229
7496.452
7494.734
7493.141
7491.746
7490.632
7489.867
7489.489
7489.532
4296.165
4247.954
4158.231
4008.464
3834.521
3657.465
3480.708
3310.937
3150.112
2992.829
2746.632
2602.997
2465.46
2334.856
2212.282
2098.833
1995.376
1901.994
1819.503
1748.983
1690.093
1643.502
1607.349
1582.156
1567.346
1562.595
1567.337
1580.989
1603.177
1634.677
1675.485
1723.87
1781.611
1848.394
1924.569
2010.412
2108.468
2220.436
2347.576
2490.449
2649.728
2826.053
3020.212
3233.047
3465.132
3716.691
3987.892
4276.028
4578.085
4888.592
5197.811
5495.443
5769.703
6009.53
6206.625
6356.138
6456.64
6510.079
6520.579
6494.184
6436.755
6354.236
6252.844
6139.289
6017.929
5891.328
5762.119
5632.092
5503.655
5378.432
5256.364
5137.17
5020.186
4904.866
4791.213
4679.661
4570.847
4465.895
4366.511
4274.788
4193.022
4123.537
4068.399
4029.525
4008.162
4003.936
4015.315
4041.016
4079.664
4129.552
4188.857
4255.763
4328.662
4406.102
4486.924
4570.165
4654.965
4740.725
4827.126
4913.862
5000.437
5086.314
5171.058
5254.255
5335.473
5414.362
5490.661
5564.119
5634.554
5701.872
5766.029
5827.014
5884.775
5939.361
5990.883
6039.481
6085.334
6128.611
6169.509
6208.208
6244.871
6279.654
6312.712
6344.185
6374.206
6402.88
6430.307
6456.548
6481.665
6505.675
6528.621
6550.526
6571.403
6591.269
6610.12
6627.989
6644.985
6661.23
6676.786
6691.666
6705.884
6719.483
6732.527
6745.075
6757.173
6768.854
6780.137
6791.033
6801.536
6811.625
6821.266
6830.42
6839.05
6847.129
6854.669
6861.708
6868.279
6874.4
6880.094
6885.412
6890.417
6895.162
6899.687
6904.023
6908.201
6912.252
6916.207
6920.093
6923.934
6927.75
6931.549
6935.325
6939.052
6942.676
6946.124
6949.34
6952.252
6954.761
6956.815
6958.447
6959.755
6960.889
6961.999
6963.16
6964.361
6965.553
6966.698
6967.783
6968.808
6969.757
6970.621
6971.405
6972.117
6972.775
6973.395
6973.983
6974.548
6975.098
6975.656
6976.222
6976.804
6977.417
6978.07
6978.759
6979.485
6980.255
6981.075
6981.946
6982.871
6983.851
6984.887
6985.977
6987.123
6988.322
6989.574
6990.878
6992.232
6993.636
6995.087
6996.585
6998.129
6999.719
7001.354
7003.035
7004.761
7006.533
7008.353
7010.221
7012.138
7014.103
7016.114
7018.168
7020.259
7022.386
7024.548
7026.742
7028.969
7031.226
7033.51
7035.818
7038.146
7040.491
7042.848
7045.212
7047.577
7049.939
7052.29
7054.626
7056.939
7059.223
7061.473
7063.682
7065.844
7067.955
7070.008
7071.999
7073.924
7075.78
7077.562
7079.268
7080.897
7082.447
7083.915
7085.303
7086.608
7087.832
7088.975
7090.037
7091.022
7091.93
7092.764
7093.527
7094.221
7094.85
7095.419
7095.932
7096.394
7096.809
7097.181
7097.511
7097.796
7098.03
7098.207
7098.326
7098.39
7098.403
7098.367
7098.287
7098.163
7097.999
7097.796
7097.556
7097.281
7096.973
7096.631
7096.257
7095.851
7095.414
7094.947
7094.449
7093.921
7093.364
7092.777
7092.162
7091.521
7090.855
7090.17
7089.47
7088.765
7088.068
7087.399
7086.781
7086.247
7085.833
7085.578
7085.514
7085.658
7086.007
7086.527
7087.17
7087.891
7088.666
7089.482
7090.331
7091.209
7092.111
7093.036
7093.984
7094.956
7095.954
7096.978
7098.032
7099.116
7100.233
7101.385
7102.574
7103.8
7105.066
7106.373
7107.722
7109.114
7110.55
7112.029
7113.553
7115.121
7116.731
7118.381
7120.071
7121.798
7123.56
7125.351
7127.165
7129.005
7130.883
7132.811
7134.796
7136.838
7138.932
7141.073
7143.259
7145.485
7147.749
7150.05
7152.385
7154.751
7157.144
7159.562
7162.003
7164.464
7166.942
7169.435
7171.941
7174.458
7176.983
7179.517
7182.057
7184.602
7187.149
7189.695
7192.242
7194.787
7197.329
7199.868
7202.401
7204.928
7207.446
7209.954
7212.449
7214.929
7217.39
7219.826
7222.233
7224.604
7226.932
7229.208
7231.426
7233.582
7235.675
7237.708
7239.687
7241.619
7243.508
7245.357
7247.164
7248.924
7250.632
7252.292
7253.917
7255.515
7257.085
7258.624
7260.131
7261.61
7263.052
7264.461
7265.832
7267.143
7268.479
7269.756
7270.986
7272.172
7273.313
7274.409
7275.457
7276.457
7277.408
7278.309
7279.158
7279.956
7280.702
7281.395
7282.034
7282.62
7283.152
7283.63
7284.056
7284.428
7284.748
7285.016
7285.232
7285.397
7285.511
7285.574
7285.587
7285.558
7285.481
7285.354
7285.179
7284.956
7284.685
7284.37
7284.011
7283.609
7283.164
7282.675
7282.143
7281.57
7280.955
7280.298
7279.6
7278.86
7278.079
7277.256
7276.391
7275.484
7274.534
7273.539
7272.5
7271.415
7270.282
7269.101
7267.871
7266.589
7265.256
7263.872
7262.437
7260.955
7259.432
7257.878
7256.308
7254.744
7253.219
7251.771
7250.451
7249.314
7248.414
7247.798
7247.483
7247.531
4047.336
3952.464
3716.55
3566.008
3407.372
3247.935
3089.551
2933.777
2781.3
2632.791
2489.741
2351.453
2216.263
2086.84
1964.181
1849.66
1744.108
1648.407
1563.236
1489.727
1429.28
1380.53
1342.427
1315.231
1298.138
1291.418
1294.932
1307.836
1329.707
1360.551
1400.013
1447.523
1503.801
1568.902
1643.413
1728.79
1826.467
1937.225
2061.638
2200.231
2353.578
2522.42
2707.702
2910.641
3131.838
3372.121
3631.464
3908.002
4198.491
4497.05
4794.216
5078.797
5339.254
5565.338
5749.731
5888.468
5981.129
6030.242
6040.398
6016.632
5965.065
5891.662
5801.851
5700.086
5590.352
5475.964
5360.08
5244.785
5131.321
5019.702
4908.746
4798.632
4688.886
4578.774
4468.219
4357.568
4247.645
4139.88
4036.398
3939.827
3853.088
3779.265
3721.106
3681.151
3661.737
3661.585
3677.964
3709.457
3754.537
3811.193
3877.252
3950.692
4029.654
4112.5
4197.924
4285.005
4373.118