/*--------------------------------*- C++ -*----------------------------------*\
| =========                 |                                                 |
| \\      /  F ield         | foam-extend: Open Source CFD                    |
|  \\    /   O peration     | Version:     3.1                                |
|   \\  /    A nd           | Web:         http://www.extend-project.de       |
|    \\/     M anipulation  |                                                 |
\*---------------------------------------------------------------------------*/
FoamFile
{
    version     2.0;
    format      ascii;
    class       volScalarField;
    location    "6.5";
    object      pd;
}
// * * * * * * * * * * * * * * * * * * * * * * * * * * * * * * * * * * * * * //

dimensions      [1 -1 -2 0 0 0 0];

internalField   nonuniform List<scalar> 
119952
(
8719.507
8681.862
8675.166
8689.809
8705.779
8705.733
8709.563
8713.489
8717.425
8721.43
8725.436
8729.397
8733.29
8737.097
8740.801
8744.373
8747.758
8750.802
8752.923
8751.189
8776.528
8765.408
8764.254
8795.566
8792.444
8798.31
8802.637
8812.2
8840.538
9279.588
7772.083
7820.867
7862.975
7908.384
7952.014
7992.843
8031.805
8069.143
8104.745
8132.37
8168.788
8200.913
8231.321
8260.119
8287.604
8313.812
8338.497
8361.625
8386.084
8416.859
8427.113
8443.177
8460.182
8476.257
8492.155
8507.454
8521.988
8535.822
8548.415
8560.004
8572.83
8584.765
8596.509
8608.112
8619.537
8630.815
8642.237
8655.858
8673.228
8673.523
8680.727
8691.247
8699.812
8705.004
8709.144
8713.459
8717.611
8721.705
8725.752
8729.721
8733.61
8737.409
8741.104
8744.679
8748.114
8751.374
8754.439
8757.772
8762.894
8767.137
8770.679
8780.255
8790.76
8795.209
8799.819
8803.715
8801.905
8786.145
8785.149
8788.639
8791.441
8794.024
8796.236
8798.189
8799.945
8801.538
8802.993
8804.327
8805.56
8806.715
8807.802
8808.834
8809.822
8810.779
8811.715
8812.639
8813.563
8814.486
8815.423
8816.378
8817.358
8818.368
8819.41
8820.49
8821.61
8822.772
8823.98
8825.234
8826.536
8827.885
8829.283
8830.729
8832.223
8833.765
8835.353
8836.988
8838.669
8840.393
8842.161
8843.97
8845.818
8847.702
8849.617
8851.553
8853.493
8855.457
8857.731
8860.262
8862.778
8865.061
8867.363
8869.694
8872.052
8874.436
8876.842
8879.265
8881.702
8884.147
8886.596
8889.042
8891.481
8893.907
8896.313
8898.692
8901.037
8903.342
8905.601
8907.807
8909.954
8912.037
8914.051
8915.991
8917.852
8919.662
8921.378
8923.008
8924.548
8925.997
8927.358
8928.672
8929.858
8930.938
8931.948
8932.887
8933.739
8934.508
8935.197
8935.81
8936.346
8936.807
8937.192
8937.499
8937.717
8937.816
8937.751
8937.485
8937.376
8940.074
8940.238
8940.173
8940.114
8940.057
8939.952
8939.809
8939.635
8939.427
8939.156
8938.898
8938.61
8938.293
8937.947
8937.57
8937.161
8936.721
8936.248
8935.74
8935.195
8934.61
8933.982
8933.306
8932.577
8931.789
8930.932
8929.995
8928.962
8927.811
8926.507
8924.997
8923.19
8920.915
8917.953
8913.376
8907.728
8913.608
8917.435
8920.188
8922.268
8924.076
8925.656
8927.083
8928.409
8929.664
8930.869
8932.042
8933.194
8934.337
8935.478
8936.625
8937.783
8938.957
8940.153
8941.374
8942.623
8943.904
8945.22
8946.573
8947.966
8949.402
8950.883
8952.41
8953.986
8955.613
8957.295
8959.044
8960.912
8962.786
8964.399
8979.229
8975.763
8969.721
8971.954
8974.35
8975.808
8977.527
8979.578
8981.694
8983.814
8985.977
8988.234
8990.53
8992.857
8995.218
8997.606
9000.017
9002.447
9004.892
9007.349
9009.816
9012.29
9014.772
9017.258
9019.748
9022.24
9024.732
9027.225
9029.717
9032.208
9034.698
9037.187
9039.676
9042.164
9044.653
9047.144
9049.641
9052.145
9054.662
9057.2
9059.768
9062.386
9065.084
9067.9
9070.775
9073.32
9075.076
9076.398
9077.901
9079.595
9081.341
9083.134
9084.852
9085.004
9081.531
9087.093
9089.858
9091.103
9092.753
9094.351
9095.815
9097.266
9098.716
9100.153
9101.57
9102.96
9104.316
9105.634
9106.915
9108.157
9109.358
9110.514
9111.624
9112.686
9113.698
9114.659
9115.569
9116.427
9117.234
9117.99
9118.692
9119.332
9119.938
9120.486
9120.98
9121.423
9121.812
9122.149
9122.44
9122.68
9122.869
9123.01
9123.099
9123.139
9123.132
9123.077
9122.976
9122.828
9122.635
9122.395
9122.111
9121.783
9121.41
9120.993
9120.533
9120.028
9119.48
9118.887
9118.25
9117.568
9116.84
9116.066
9115.243
9114.371
9113.446
9112.468
9111.431
9110.333
9109.169
9107.933
9106.618
9105.216
9103.717
9102.107
9100.372
9098.493
9096.443
9094.192
9091.697
9088.901
9085.725
9082.064
9077.763
9072.548
9065.98
9057.697
9049.611
9054.03
9094.011
6690.234
6594.607
6495.883
6402.492
6320.689
6249.621
6191.303
6148.497
6116.425
6068.787
6079.529
6087.093
6105.365
6134.31
6173.529
6221.639
6277.441
6340.017
6437.445
6517.677
6572.521
6644.519
6724.635
6805.224
6886.57
6968.29
7049.303
7130.142
7201.715
7273.987
7349.706
7420.009
7485.998
7549.146
7609.584
7667.434
7722.925
7778.006
7823.419
7868.934
7915.212
7958.52
7999.186
8038.169
8075.467
8111.126
8145.479
8179.259
8209.715
8238.668
8266.702
8293.687
8319.392
8343.817
8366.813
8388.995
8417.763
8438.012
8452.141
8466.553
8482.295
8498.296
8513.588
8527.896
8541.374
8554.195
8566.43
8578.4
8590.205
8601.839
8613.316
8624.664
8635.995
8647.359
8658.712
8669.299
8677.488
8684.621
8692.129
8699.359
8705.38
8710.334
8714.816
8719.143
8723.377
8727.506
8731.517
8735.416
8739.213
8742.916
8746.53
8750.075
8753.591
8757.195
8761.119
8765.534
8770.376
8775.709
8781.883
8788.207
8792.977
8795.876
8796.717
8795.314
8791.819
8790.011
8791.176
8793.355
8795.457
8797.312
8799.012
8800.601
8802.074
8803.43
8804.682
8805.851
8806.944
8807.969
8808.942
8809.874
8810.776
8811.659
8812.533
8813.405
8814.286
8815.181
8816.097
8817.04
8818.015
8819.024
8820.073
8821.163
8822.297
8823.477
8824.704
8825.979
8827.303
8828.675
8830.095
8831.563
8833.079
8834.641
8836.249
8837.902
8839.599
8841.339
8843.12
8844.942
8846.803
8848.703
8850.645
8852.643
8854.732
8856.955
8859.284
8861.569
8863.836
8866.123
8868.442
8870.79
8873.161
8875.553
8877.964
8880.388
8882.823
8885.262
8887.701
8890.134
8892.555
8894.958
8897.336
8899.684
8901.994
8904.26
8906.477
8908.638
8910.738
8912.772
8914.734
8916.623
8918.438
8920.177
8921.831
8923.399
8924.882
8926.277
8927.589
8928.819
8929.964
8931.009
8931.991
8932.884
8933.692
8934.422
8935.071
8935.645
8936.138
8936.563
8936.904
8937.195
8937.413
8937.604
8937.76
8937.955
8939.687
8939.744
8939.563
8939.569
8939.541
8939.45
8939.319
8939.147
8938.94
8938.706
8938.447
8938.157
8937.837
8937.489
8937.11
8936.701
8936.26
8935.785
8935.276
8934.73
8934.145
8933.516
8932.841
8932.114
8931.328
8930.476
8929.546
8928.524
8927.391
8926.119
8924.67
8922.986
8920.997
8918.722
8916.482
8915.217
8916.402
8918.964
8921.031
8922.807
8924.433
8925.908
8927.266
8928.546
8929.77
8930.953
8932.109
8933.248
8934.38
8935.513
8936.653
8937.806
8938.976
8940.169
8941.387
8942.635
8943.915
8945.23
8946.583
8947.976
8949.411
8950.891
8952.418
8953.993
8955.62
8957.304
8959.051
8960.861
8962.787
8965.616
8968.714
8972.069
8973.385
8973.703
8974.426
8975.879
8977.789
8979.861
8981.967
8984.098
8986.277
8988.516
8990.809
8993.145
8995.514
8997.91
9000.328
9002.765
9005.217
9007.682
9010.158
9012.642
9015.132
9017.629
9020.129
9022.631
9025.135
9027.639
9030.143
9032.645
9035.147
9037.647
9040.146
9042.644
9045.141
9047.641
9050.143
9052.65
9055.167
9057.697
9060.245
9062.813
9065.39
9067.938
9070.39
9072.651
9074.639
9076.39
9078.079
9079.8
9081.543
9083.217
9084.678
9085.539
9085.649
9086.7
9088.875
9091.319
9093.332
9094.993
9096.485
9097.932
9099.372
9100.801
9102.207
9103.579
9104.915
9106.212
9107.471
9108.691
9109.869
9111.005
9112.095
9113.138
9114.133
9115.078
9115.973
9116.817
9117.61
9118.349
9119.035
9119.671
9120.257
9120.791
9121.273
9121.702
9122.08
9122.406
9122.684
9122.912
9123.088
9123.212
9123.288
9123.315
9123.296
9123.228
9123.113
9122.952
9122.746
9122.493
9122.196
9121.854
9121.468
9121.038
9120.564
9120.046
9119.485
9118.879
9118.229
9117.534
9116.793
9116.006
9115.17
9114.285
9113.348
9112.357
9111.308
9110.199
9109.024
9107.778
9106.455
9105.046
9103.543
9101.932
9100.202
9098.331
9096.304
9094.086
9091.654
9088.951
9085.95
9082.566
9078.812
9074.699
9070.646
9067.396
9066.415
9068.228
9073.512
4343.951
4477.821
4649.998
4844.906
5063.84
5306.389
5572.705
5860.884
6169.653
6484.696
6819.913
7159.529
7492.78
7811.294
8108.23
8370.175
8589.612
8760.898
8877.103
8943.98
8959.799
8932.474
8867.373
8771.892
8653.485
8518.703
8372.304
8219.258
8066.005
7905.034
7750.925
7597.018
7447.035
7302.075
7162.521
7028.824
6901.9
6783.179
6662.968
6553.759
6453.687
6363.847
6284.874
6217.29
6161.987
6119.67
6092.198
6075.021
6069.606
6080.568
6102.372
6133.8
6174.972
6224.825
6281.924
6346.419
6433.593
6512.616
6586.139
6661.263
6740.055
6821.203
6902.965
6983.982
7064.682
7144.383
7221.969
7295.517
7366.16
7434.582
7500.64
7564.138
7624.911
7682.934
7738.195
7790.736
7840.315
7886.013
7929.263
7971.047
8011.263
8049.688
8086.302
8121.283
8154.688
8186.438
8216.694
8245.826
8273.697
8300.373
8325.622
8349.663
8372.196
8394.766
8417.984
8437.067
8452.952
8468.358
8484.254
8500.156
8515.374
8529.66
8543.104
8555.956
8568.431
8580.586
8592.391
8603.911
8615.229
8626.393
8637.387
8648.214
8658.725
8668.76
8677.446
8684.903
8692.091
8699.08
8705.333
8710.695
8715.48
8719.997
8724.364
8728.592
8732.677
8736.631
8740.478
8744.236
8747.926
8751.58
8755.245
8759.019
8763.016
8767.36
8772.018
8776.898
8782.102
8787.214
8791.211
8793.741
8794.846
8794.592
8793.156
8792.386
8793.272
8794.934
8796.693
8798.332
8799.867
8801.324
8802.696
8803.971
8805.153
8806.252
8807.278
8808.241
8809.154
8810.028
8810.873
8811.699
8812.517
8813.336
8814.164
8815.009
8815.877
8816.771
8817.699
8818.662
8819.666
8820.712
8821.803
8822.941
8824.127
8825.362
8826.645
8827.978
8829.359
8830.789
8832.266
8833.789
8835.359
8836.974
8838.633
8840.335
8842.08
8843.868
8845.698
8847.572
8849.497
8851.48
8853.533
8855.663
8857.876
8860.117
8862.354
8864.602
8866.879
8869.187
8871.522
8873.882
8876.262
8878.66
8881.071
8883.49
8885.912
8888.332
8890.744
8893.143
8895.521
8897.873
8900.192
8902.473
8904.709
8906.894
8909.024
8911.093
8913.097
8915.031
8916.888
8918.668
8920.367
8921.985
8923.52
8924.971
8926.337
8927.622
8928.823
8929.927
8930.945
8931.879
8932.734
8933.51
8934.209
8934.834
8935.386
8935.869
8936.285
8936.642
8936.948
8937.266
8937.614
8938.069
8938.754
8939.117
8939.161
8939.077
8938.992
8938.906
8938.792
8938.638
8938.446
8938.22
8937.965
8937.679
8937.363
8937.015
8936.637
8936.226
8935.784
8935.308
8934.797
8934.25
8933.664
8933.036
8932.363
8931.641
8930.864
8930.026
8929.12
8928.134
8927.058
8925.881
8924.596
8923.213
8921.791
8920.467
8919.476
8919.161
8919.735
8921.008
8922.504
8923.95
8925.292
8926.556
8927.771
8928.951
8930.102
8931.229
8932.341
8933.447
8934.553
8935.665
8936.79
8937.931
8939.093
8940.279
8941.493
8942.739
8944.017
8945.333
8946.686
8948.081
8949.517
8950.999
8952.526
8954.103
8955.727
8957.407
8959.134
8960.927
8962.759
8964.683
8966.307
8967.251
8968.411
8970.13
8972.228
8974.464
8976.72
8978.969
8981.21
8983.455
8985.719
8988.014
8990.345
8992.705
8995.092
8997.5
8999.929
9002.374
9004.836
9007.312
9009.799
9012.294
9014.797
9017.305
9019.818
9022.333
9024.85
9027.367
9029.885
9032.401
9034.916
9037.43
9039.942
9042.452
9044.96
9047.468
9049.976
9052.486
9054.998
9057.513
9060.028
9062.537
9065.023
9067.46
9069.818
9072.057
9074.136
9076.042
9077.836
9079.598
9081.361
9083.124
9084.959
9087.03
9089.318
9091.315
9092.69
9093.723
9094.844
9096.044
9097.294
9098.595
9099.929
9101.277
9102.621
9103.952
9105.259
9106.536
9107.78
9108.989
9110.159
9111.288
9112.371
9113.408
9114.397
9115.338
9116.229
9117.07
9117.86
9118.599
9119.286
9119.922
9120.507
9121.04
9121.521
9121.951
9122.329
9122.656
9122.932
9123.157
9123.331
9123.455
9123.53
9123.556
9123.533
9123.462
9123.345
9123.181
9122.971
9122.715
9122.414
9122.068
9121.679
9121.245
9120.767
9120.245
9119.68
9119.07
9118.417
9117.719
9116.976
9116.186
9115.349
9114.464
9113.527
9112.538
9111.493
9110.389
9109.222
9107.987
9106.678
9105.29
9103.813
9102.238
9100.553
9098.745
9096.798
9094.693
9092.41
9089.929
9087.235
9084.337
9081.289
9078.238
9075.437
9073.228
9071.95
9072.142
9074.101
3436.102
3456.121
3488.901
3527.386
3576.383
3648.099
3731.797
3839.686
3966.337
4058.21
4120.031
4206.672
4322.106
4464.267
4631.628
4821.988
5033.233
5267.469
5523.005
5799.469
6095.951
6409.246
6735.848
7068.335
7397.545
7714.049
8007.253
8267.35
8485.274
8655.097
8775.275
8837.834
8855.445
8824.84
8751.971
8650.544
8528.743
8391.881
8245.318
8093.43
7940.17
7787.624
7636.556
7488.12
7343.963
7204.859
7070.986
6942.452
6819.295
6701.638
6589.962
6485.481
6389.248
6302.169
6225.598
6160.812
6108.809
6070.299
6045.448
6034.352
6036.717
6051.271
6077.294
6114.051
6160.238
6214.806
6276.595
6345.166
6420.297
6495.321
6570.073
6647.254
6727.763
6810.21
6893.095
6975.518
7057.057
7136.882
7214.382
7289.21
7361.526
7431.382
7498.59
7562.971
7624.411
7682.844
7738.317
7790.814
7840.285
7886.74
7930.736
7972.865
8013.148
8051.455
8087.839
8122.461
8155.521
8187.194
8217.503
8246.415
8274.1
8300.533
8325.875
8349.97
8373.37
8395.265
8415.875
8435.137
8452.764
8469.304
8485.384
8501.094
8516.194
8530.523
8544.117
8557.13
8569.689
8581.845
8593.641
8605.145
8616.407
8627.451
8638.248
8648.763
8658.873
8668.461
8677.191
8685.005
8692.252
8699.111
8705.43
8711.07
8716.14
8720.867
8725.386
8729.735
8733.922
8737.968
8741.897
8745.738
8749.517
8753.27
8757.041
8760.893
8764.892
8769.093
8773.487
8778.006
8782.556
8786.839
8790.344
8792.783
8794.136
8794.54
8794.424
8794.583
8795.404
8796.73
8798.227
8799.696
8801.097
8802.433
8803.697
8804.88
8805.98
8807.002
8807.962
8808.853
8809.7
8810.51
8811.293
8812.061
8812.822
8813.587
8814.364
8815.159
8815.979
8816.828
8817.711
8818.633
8819.596
8820.603
8821.658
8822.76
8823.912
8825.113
8826.364
8827.666
8829.016
8830.415
8831.862
8833.356
8834.896
8836.482
8838.112
8839.787
8841.505
8843.266
8845.073
8846.925
8848.828
8850.786
8852.805
8854.889
8857.037
8859.222
8861.422
8863.643
8865.893
8868.174
8870.483
8872.818
8875.175
8877.551
8879.942
8882.343
8884.751
8887.158
8889.56
8891.951
8894.326
8896.676
8898.997
8901.282
8903.526
8905.721
8907.864
8909.948
8911.968
8913.919
8915.798
8917.602
8919.328
8920.973
8922.537
8924.018
8925.414
8926.728
8927.955
8929.094
8930.15
8931.123
8932.016
8932.831
8933.568
8934.232
8934.823
8935.348
8935.808
8936.217
8936.581
8936.94
8937.288
8937.647
8937.903
8938.097
8938.254
8938.355
8938.395
8938.378
8938.307
8938.186
8938.021
8937.816
8937.577
8937.304
8936.999
8936.66
8936.29
8935.888
8935.453
8934.985
8934.483
8933.945
8933.371
8932.757
8932.102
8931.402
8930.655
8929.855
8928.999
8928.084
8927.106
8926.069
8924.985
8923.885
8922.829
8921.912
8921.269
8921.047
8921.378
8922.23
8923.375
8924.569
8925.725
8926.849
8927.957
8929.054
8930.14
8931.216
8932.287
8933.359
8934.437
8935.526
8936.63
8937.754
8938.9
8940.072
8941.274
8942.507
8943.775
8945.079
8946.422
8947.806
8949.232
8950.702
8952.217
8953.779
8955.387
8957.045
8958.745
8960.489
8962.247
8963.972
8965.649
8967.433
8969.345
8971.277
8973.177
8975.092
8977.075
8979.135
8981.256
8983.424
8985.633
8987.884
8990.177
8992.508
8994.871
8997.262
8999.678
9002.115
9004.571
9007.043
9009.528
9012.024
9014.528
9017.04
9019.557
9022.078
9024.603
9027.128
9029.654
9032.18
9034.704
9037.227
9039.747
9042.265
9044.781
9047.293
9049.803
9052.309
9054.812
9057.308
9059.792
9062.257
9064.689
9067.072
9069.388
9071.613
9073.72
9075.701
9077.583
9079.418
9081.241
9083.065
9084.869
9086.57
9088.053
9089.37
9090.743
9092.257
9093.885
9095.486
9097.019
9098.503
9099.956
9101.384
9102.784
9104.153
9105.486
9106.78
9108.034
9109.251
9110.426
9111.557
9112.643
9113.682
9114.674
9115.616
9116.508
9117.35
9118.142
9118.881
9119.568
9120.204
9120.789
9121.323
9121.804
9122.234
9122.612
9122.939
9123.214
9123.438
9123.612
9123.736
9123.809
9123.833
9123.808
9123.735
9123.615
9123.449
9123.236
9122.978
9122.674
9122.326
9121.933
9121.496
9121.016
9120.491
9119.923
9119.312
9118.656
9117.957
9117.213
9116.424
9115.588
9114.705
9113.773
9112.79
9111.753
9110.661
9109.508
9108.293
9107.009
9105.651
9104.213
9102.688
9101.068
9099.342
9097.502
9095.537
9093.439
9091.207
9088.851
9086.401
9083.926
9081.532
9079.384
9077.628
9076.519
9076.204
9076.845
3963.396
3864.424
3771.589
3693.291
3618.405
3554.854
3507.896
3470.322
3446.977
3435.125
3431.948
3437.806
3454.947
3481.372
3516.629
3562.216
3631.355
3704.879
3787.717
3875.844
3964.191
4060.228
4169.015
4296.222
4443.61
4611.336
4799.8
5009.581
5241.112
5494.451
5768.846
6062.438
6372.169
6693.521
7020.116
7343.545
7654.358
7941.08
8192.078
8399.657
8557.961
8664.326
8718.444
8729.47
8700.218
8633.634
8537.82
8420.966
8289.235
8147.907
8001.137
7852.606
7704.04
7556.322
7412.096
7272.826
7138.562
7008.951
6883.957
6763.624
6648.254
6538.162
6434.154
6337.738
6250.33
6173.391
6108.342
6056.392
6018.461
5995.148
5986.276
5991.051
6008.794
6038.645
6079.26
6129.292
6187.265
6252.08
6322.285
6396.419
6473.098
6551.555
6631.872
6714.074
6797.409
6880.939
6963.866
7045.656
7125.809
7203.982
7279.895
7353.343
7424.12
7492.077
7557.104
7619.14
7678.152
7734.154
7787.156
7837.253
7884.551
7929.274
7971.72
8012.055
8050.358
8086.743
8121.374
8154.434
8186.039
8216.243
8245.086
8272.71
8299.138
8324.485
8348.648
8371.745
8393.445
8414.046
8433.67
8452.044
8469.213
8485.551
8501.302
8516.455
8530.923
8544.705
8557.88
8570.549
8582.791
8594.662
8606.204
8617.448
8628.404
8639.05
8649.349
8659.215
8668.558
8677.245
8685.207
8692.557
8699.421
8705.795
8711.62
8716.943
8721.894
8726.584
8731.068
8735.371
8739.517
8743.536
8747.458
8751.314
8755.136
8758.963
8762.835
8766.789
8770.846
8774.985
8779.133
8783.183
8786.958
8790.191
8792.677
8794.346
8795.329
8795.917
8796.503
8797.385
8798.591
8799.945
8801.296
8802.588
8803.817
8804.977
8806.062
8807.068
8808.005
8808.885
8809.723
8810.503
8811.245
8811.956
8812.655
8813.353
8814.059
8814.781
8815.521
8816.288
8817.087
8817.922
8818.798
8819.718
8820.684
8821.698
8822.763
8823.879
8825.047
8826.265
8827.534
8828.854
8830.223
8831.64
8833.105
8834.617
8836.174
8837.776
8839.423
8841.114
8842.85
8844.631
8846.46
8848.337
8850.267
8852.253
8854.295
8856.39
8858.525
8860.689
8862.881
8865.103
8867.356
8869.638
8871.948
8874.281
8876.634
8879.005
8881.388
8883.779
8886.173
8888.563
8890.946
8893.313
8895.66
8897.98
8900.266
8902.513
8904.715
8906.866
8908.96
8910.993
8912.96
8914.857
8916.681
8918.428
8920.097
8921.685
8923.191
8924.614
8925.954
8927.209
8928.38
8929.467
8930.473
8931.398
8932.245
8933.017
8933.715
8934.344
8934.907
8935.409
8935.859
8936.265
8936.641
8936.985
8937.303
8937.578
8937.824
8938.014
8938.124
8938.16
8938.139
8938.071
8937.958
8937.803
8937.61
8937.382
8937.118
8936.822
8936.493
8936.131
8935.737
8935.311
8934.853
8934.362
8933.836
8933.276
8932.68
8932.046
8931.374
8930.66
8929.905
8929.106
8928.266
8927.389
8926.482
8925.567
8924.673
8923.851
8923.169
8922.714
8922.573
8922.813
8923.424
8924.284
8925.247
8926.235
8927.229
8928.233
8929.245
8930.261
8931.281
8932.306
8933.34
8934.386
8935.447
8936.528
8937.63
8938.758
8939.914
8941.101
8942.321
8943.576
8944.868
8946.2
8947.573
8948.988
8950.447
8951.949
8953.497
8955.09
8956.727
8958.404
8960.113
8961.846
8963.599
8965.405
8967.265
8969.116
8970.923
8972.754
8974.666
8976.674
8978.76
8980.903
8983.089
8985.314
8987.577
8989.878
8992.215
8994.582
8996.976
8999.395
9001.834
9004.293
9006.767
9009.256
9011.755
9014.264
9016.781
9019.305
9021.833
9024.365
9026.899
9029.433
9031.967
9034.5
9037.031
9039.559
9042.084
9044.604
9047.119
9049.629
9052.131
9054.624
9057.104
9059.566
9062.002
9064.404
9066.758
9069.05
9071.265
9073.389
9075.419
9077.369
9079.267
9081.132
9082.963
9084.74
9086.455
9088.149
9089.849
9091.519
9093.108
9094.627
9096.101
9097.544
9098.97
9100.384
9101.784
9103.166
9104.525
9105.858
9107.144
9108.393
9109.605
9110.777
9111.907
9112.993
9114.033
9115.025
9115.969
9116.863
9117.706
9118.498
9119.239
9119.927
9120.564
9121.149
9121.682
9122.163
9122.591
9122.967
9123.291
9123.564
9123.785
9123.956
9124.076
9124.147
9124.167
9124.138
9124.061
9123.938
9123.769
9123.553
9123.292
9122.985
9122.633
9122.237
9121.797
9121.314
9120.787
9120.217
9119.604
9118.948
9118.248
9117.505
9116.717
9115.885
9115.006
9114.081
9113.106
9112.082
9111.004
9109.871
9108.679
9107.426
9106.106
9104.716
9103.25
9101.703
9100.071
9098.348
9096.533
9094.627
9092.638
9090.585
9088.504
9086.454
9084.515
9082.792
9081.399
9080.471
9080.065
9080.24
5468.954
5291.012
5120.075
4947.576
4787.601
4618.423
4472.528
4333.811
4201.54
4076.976
3963.205
3861.076
3766.918
3683.759
3610.413
3539.486
3494.181
3459.878
3436.945
3425.331
3423.568
3430.734
3447.04
3472.092
3505.123
3547.081
3595.847
3660.105
3732.146
3811.571
3898.087
3995.131
4107
4235.73
4381.995
4546.53
4729.769
4932.377
5154.981
5397.92
5661.005
5943.355
6242.542
6554.544
6874.884
7192.55
7498.768
7781.583
8029.72
8234.601
8390.758
8496.499
8552.934
8564.283
8536.734
8475.07
8385.535
8275.335
8151.226
8018.077
7880.269
7740.501
7599.612
7459.218
7322.471
7190.593
7062.994
6939.045
6818.498
6701.401
6588.093
6479.035
6375.147
6277.96
6189.19
6110.599
6043.961
5990.9
5952.756
5930.318
5923.368
5931.019
5952.305
5985.966
6030.521
6084.553
6146.451
6214.729
6287.884
6364.825
6444.679
6526.457
6609.516
6693.591
6778.137
6862.699
6946.865
7029.89
7111.275
7190.726
7267.946
7342.639
7414.537
7483.517
7549.501
7612.44
7672.34
7729.164
7782.939
7833.76
7881.742
7927.04
7969.869
8010.441
8048.914
8085.431
8120.142
8153.203
8184.737
8214.85
8243.626
8271.172
8297.534
8322.778
8346.868
8369.843
8391.68
8412.472
8432.248
8450.906
8468.461
8485.122
8501.086
8516.408
8531.062
8545.046
8558.415
8571.252
8583.63
8595.6
8607.196
8618.44
8629.342
8639.887
8650.046
8659.763
8668.977
8677.622
8685.654
8693.105
8700.047
8706.512
8712.497
8718.026
8723.175
8728.03
8732.648
8737.065
8741.31
8745.414
8749.407
8753.322
8757.188
8761.035
8764.891
8768.775
8772.687
8776.6
8780.438
8784.119
8787.561
8790.618
8793.144
8795.077
8796.474
8797.49
8798.375
8799.366
8800.537
8801.806
8803.067
8804.275
8805.422
8806.502
8807.508
8808.435
8809.29
8810.08
8810.817
8811.511
8812.17
8812.813
8813.444
8814.07
8814.717
8815.382
8816.065
8816.777
8817.522
8818.305
8819.13
8820.002
8820.923
8821.895
8822.919
8823.996
8825.127
8826.311
8827.546
8828.834
8830.171
8831.558
8832.993
8834.475
8836.004
8837.578
8839.197
8840.86
8842.569
8844.324
8846.125
8847.975
8849.875
8851.826
8853.829
8855.88
8857.972
8860.1
8862.26
8864.453
8866.677
8868.932
8871.216
8873.525
8875.856
8878.207
8880.571
8882.946
8885.326
8887.705
8890.077
8892.438
8894.78
8897.098
8899.384
8901.634
8903.84
8905.998
8908.102
8910.147
8912.127
8914.04
8915.88
8917.647
8919.335
8920.945
8922.474
8923.921
8925.285
8926.567
8927.765
8928.88
8929.915
8930.871
8931.749
8932.552
8933.284
8933.946
8934.543
8935.08
8935.564
8935.999
8936.393
8936.749
8937.072
8937.356
8937.594
8937.77
8937.879
8937.925
8937.919
8937.868
8937.772
8937.634
8937.456
8937.24
8936.989
8936.703
8936.384
8936.032
8935.648
8935.232
8934.784
8934.305
8933.793
8933.249
8932.672
8932.062
8931.418
8930.74
8930.031
8929.29
8928.524
8927.738
8926.946
8926.168
8925.431
8924.778
8924.256
8923.925
8923.835
8924.021
8924.474
8925.133
8925.915
8926.758
8927.637
8928.544
8929.472
8930.419
8931.38
8932.356
8933.348
8934.358
8935.389
8936.443
8937.522
8938.629
8939.766
8940.936
8942.141
8943.382
8944.662
8945.982
8947.343
8948.746
8950.193
8951.684
8953.219
8954.798
8956.419
8958.08
8959.777
8961.509
8963.276
8965.079
8966.898
8968.714
8970.543
8972.428
8974.389
8976.425
8978.52
8980.665
8982.851
8985.078
8987.342
8989.643
8991.978
8994.344
8996.737
8999.154
9001.594
9004.053
9006.529
9009.019
9011.522
9014.034
9016.556
9019.084
9021.619
9024.157
9026.697
9029.238
9031.779
9034.319
9036.856
9039.39
9041.919
9044.443
9046.96
9049.469
9051.967
9054.453
9056.921
9059.367
9061.786
9064.168
9066.504
9068.784
9070.998
9073.138
9075.204
9077.202
9079.145
9081.042
9082.898
9084.711
9086.489
9088.236
9089.928
9091.548
9093.116
9094.66
9096.189
9097.697
9099.179
9100.638
9102.07
9103.476
9104.855
9106.225
9107.496
9108.748
9109.965
9111.141
9112.275
9113.364
9114.407
9115.402
9116.348
9117.244
9118.09
9118.885
9119.628
9120.319
9120.957
9121.542
9122.074
9122.553
9122.98
9123.355
9123.678
9123.95
9124.17
9124.341
9124.461
9124.532
9124.553
9124.52
9124.438
9124.31
9124.137
9123.917
9123.651
9123.341
9122.986
9122.587
9122.145
9121.659
9121.13
9120.558
9119.944
9119.287
9118.588
9117.846
9117.061
9116.233
9115.361
9114.444
9113.481
9112.47
9111.411
9110.3
9109.137
9107.918
9106.641
9105.303
9103.902
9102.436
9100.902
9099.301
9097.636
9095.912
9094.144
9092.354
9090.577
9088.859
9087.266
9085.871
9084.757
9083.992
9083.614
9083.657
6044.414
6026.016
5936.294
5786.526
5612.584
5435.528
5258.77
5088.999
4928.175
4770.891
4586.007
4442.372
4304.835
4174.231
4051.657
3938.208
3834.751
3741.369
3658.878
3588.358
3529.469
3482.877
3446.724
3421.531
3406.721
3401.97
3406.712
3420.364
3442.552
3474.052
3514.86
3563.245
3620.986
3687.769
3763.944
3849.787
3947.843
4059.811
4186.951
4329.824
4489.103
4665.428
4859.587
5072.422
5304.507
5556.066
5827.267
6115.403
6417.46
6727.967
7037.186
7334.818
7609.078
7848.905
8046
8195.513
8296.015
8349.454
8359.954
8333.559
8276.13
8193.611
8092.219
7978.664
7857.304
7730.702
7601.481
7471.365
7342.542
7217.303
7095.498
6976.496
6859.558
6744.241
6630.588
6519.036
6410.22
6305.255
6205.866
6114.152
6032.394
5962.908
5907.763
5868.86
5847.38
5842.848
5854.167
5879.894
5918.403
5968.238
6027.543
6094.769
6167.984
6245.476
6326.299
6409.54
6494.34
6580.1
6666.498
6753.183
6839.379
6925.156
7010.065
7093.542
7174.842
7253.737
7330.036
7403.494
7473.929
7541.247
7605.404
7666.388
7724.15
7778.736
7830.257
7878.855
7924.708
7967.986
8008.884
8047.583
8084.246
8119.029
8152.087
8183.56
8213.581
8242.255
8269.682
8295.923
8321.04
8345.05
8367.996
8389.901
8410.778
8430.644
8449.495
8467.364
8484.36
8500.605
8516.161
8531.041
8545.259
8558.858
8571.902
8584.45
8596.548
8608.229
8619.512
8630.409
8640.911
8651
8660.641
8669.795
8678.425
8686.504
8694.044
8701.083
8707.654
8713.775
8719.469
8724.788
8729.792
8734.538
8739.062
8743.398
8747.576
8751.627
8755.582
8759.468
8763.309
8767.125
8770.924
8774.7
8778.427
8782.051
8785.499
8788.715
8791.627
8794.136
8796.19
8797.822
8799.13
8800.264
8801.374
8802.535
8803.736
8804.928
8806.073
8807.158
8808.182
8809.132
8809.996
8810.78
8811.492
8812.149
8812.769
8813.358
8813.923
8814.473
8815.031
8815.597
8816.179
8816.792
8817.444
8818.134
8818.86
8819.63
8820.45
8821.321
8822.246
8823.226
8824.261
8825.352
8826.498
8827.697
8828.949
8830.253
8831.607
8833.011
8834.462
8835.96
8837.504
8839.094
8840.729
8842.41
8844.136
8845.908
8847.728
8849.596
8851.513
8853.478
8855.489
8857.543
8859.634
8861.761
8863.923
8866.117
8868.344
8870.601
8872.885
8875.193
8877.521
8879.866
8882.223
8884.587
8886.952
8889.314
8891.665
8894.001
8896.314
8898.598
8900.848
8903.057
8905.219
8907.33
8909.383
8911.374
8913.299
8915.155
8916.937
8918.643
8920.272
8921.822
8923.29
8924.678
8925.983
8927.207
8928.35
8929.412
8930.397
8931.305
8932.139
8932.902
8933.596
8934.225
8934.794
8935.307
8935.769
8936.185
8936.556
8936.886
8937.171
8937.405
8937.582
8937.701
8937.765
8937.778
8937.742
8937.662
8937.538
8937.374
8937.171
8936.931
8936.657
8936.348
8936.006
8935.632
8935.226
8934.789
8934.322
8933.824
8933.296
8932.739
8932.152
8931.537
8930.896
8930.23
8929.545
8928.845
8928.14
8927.443
8926.774
8926.156
8925.622
8925.208
8924.953
8924.889
8925.033
8925.382
8925.902
8926.545
8927.266
8928.041
8928.857
8929.706
8930.584
8931.486
8932.411
8933.359
8934.331
8935.329
8936.353
8937.407
8938.491
8939.608
8940.76
8941.949
8943.175
8944.441
8945.748
8947.097
8948.489
8949.925
8951.404
8952.928
8954.496
8956.106
8957.756
8959.446
8961.173
8962.935
8964.726
8966.54
8968.38
8970.258
8972.186
8974.171
8976.213
8978.307
8980.448
8982.634
8984.86
8987.124
8989.425
8991.76
8994.126
8996.519
8998.937
9001.378
9003.839
9006.317
9008.81
9011.316
9013.833
9016.358
9018.892
9021.433
9023.977
9026.524
9029.07
9031.617
9034.162
9036.704
9039.243
9041.776
9044.303
9046.821
9049.329
9051.824
9054.304
9056.765
9059.201
9061.608
9063.979
9066.307
9068.583
9070.801
9072.957
9075.05
9077.083
9079.062
9080.994
9082.883
9084.732
9086.539
9088.299
9090.007
9091.667
9093.292
9094.89
9096.46
9097.999
9099.506
9100.985
9102.427
9103.836
9105.207
9106.518
9107.854
9109.131
9110.361
9111.547
9112.688
9113.784
9114.832
9115.832
9116.783
9117.684
9118.533
9119.331
9120.077
9120.77
9121.409
9121.995
9122.527
9123.006
9123.431
9123.803
9124.123
9124.391
9124.607
9124.772
9124.886
9124.949
9124.962
9124.933
9124.856
9124.729
9124.554
9124.331
9124.06
9123.745
9123.386
9122.984
9122.539
9122.05
9121.519
9120.945
9120.33
9119.673
9118.975
9118.235
9117.454
9116.631
9115.766
9114.859
9113.909
9112.915
9111.875
9110.79
9109.657
9108.476
9107.246
9105.964
9104.631
9103.247
9101.812
9100.33
9098.807
9097.253
9095.683
9094.119
9092.594
9091.146
9089.826
9088.689
9087.789
9087.173
9086.858
9086.906
6039.99
5975.777
5801.175
5650.633
5491.997
5332.56
5174.176
5018.402
4865.925
4717.416
4574.366
4436.078
4300.888
4171.465
4048.806
3934.285
3828.733
3733.033
3647.861
3574.352
3513.905
3465.155
3427.052
3399.856
3382.763
3376.044
3379.557
3392.461
3414.332
3445.176
3484.638
3532.148
3588.427
3653.527
3728.038
3813.415
3911.092
4021.85
4146.263
4284.856
4438.203
4607.045
4792.327
4995.266
5216.463
5456.746
5716.089
5992.627
6283.116
6581.675
6878.841
7163.422
7423.879
7649.963
7834.356
7973.093
8065.754
8114.867
8125.023
8101.257
8049.69
7976.286
7886.476
7784.711
7674.977
7560.587
7444.666
7328.98
7215.331
7103.712
6992.776
6883.044
6773.492
6663.398
6552.844
6442.193
6332.27
6224.505
6121.023
6024.449
5937.693
5863.699
5804.332
5761.925
5739.994
5739.797
5756.176
5789.947
5838.252
5895.696
5961.833
6035.294
6114.273
6197.125
6282.549
6369.63
6457.743