/*--------------------------------*- C++ -*----------------------------------*\
| =========                 |                                                 |
| \\      /  F ield         | foam-extend: Open Source CFD                    |
|  \\    /   O peration     | Version:     3.1                                |
|   \\  /    A nd           | Web:         http://www.extend-project.de       |
|    \\/     M anipulation  |                                                 |
\*---------------------------------------------------------------------------*/
FoamFile
{
    version     2.0;
    format      ascii;
    class       volScalarField;
    location    "6";
    object      H;
}
// * * * * * * * * * * * * * * * * * * * * * * * * * * * * * * * * * * * * * //

dimensions      [0 1 0 0 0 0 0];

internalField   nonuniform List<scalar> 
2539
(
0.916953
0.916206
0.915228
0.914271
0.913311
0.912352
0.911392
0.910433
0.909474
0.908514
0.907554
0.906595
0.905635
0.904675
0.903716
0.902756
0.901796
0.900836
0.899876
0.898916
0.897955
0.896995
0.896035
0.895074
0.894114
0.893153
0.892193
0.891232
0.890271
0.889311
0.88835
0.887389
0.886427
0.885466
0.884505
0.883544
0.882582
0.88162
0.880659
0.879697
0.878735
0.877773
0.876811
0.875849
0.874886
0.873924
0.872961
0.871999
0.871036
0.870073
0.86911
0.868147
0.867184
0.86622
0.865257
0.864293
0.863329
0.862365
0.861401
0.860437
0.859472
0.858508
0.857543
0.856578
0.855613
0.854648
0.853682
0.852717
0.851751
0.850785
0.849819
0.848853
0.847887
0.84692
0.845953
0.844986
0.844019
0.843052
0.842084
0.841116
0.840149
0.83918
0.838212
0.837243
0.836275
0.835306
0.834337
0.833367
0.832397
0.831428
0.830457
0.829487
0.828517
0.827546
0.826575
0.825603
0.824632
0.82366
0.822688
0.821716
0.820743
0.81977
0.818797
0.817824
0.81685
0.815876
0.814902
0.813928
0.812953
0.811978
0.811003
0.810027
0.809051
0.808075
0.807098
0.806122
0.805145
0.804167
0.803189
0.802211
0.801233
0.800254
0.799275
0.798296
0.797316
0.796336
0.795356
0.794375
0.793394
0.792413
0.791431
0.790449
0.789467
0.788484
0.787501
0.786517
0.785533
0.784549
0.783564
0.782579
0.781594
0.780608
0.779622
0.778636
0.777649
0.776661
0.775674
0.774686
0.773697
0.772708
0.771719
0.770729
0.769739
0.768749
0.767758
0.766766
0.765775
0.764782
0.76379
0.762797
0.761803
0.760809
0.759815
0.75882
0.757825
0.756829
0.755833
0.754837
0.75384
0.752842
0.751844
0.750846
0.749847
0.748848
0.747848
0.746847
0.745847
0.744845
0.743844
0.742841
0.741839
0.740835
0.739832
0.738828
0.737581
0.736187
0.735362
0.73503
0.73472
0.73441
0.734101
0.733792
0.733483
0.733175
0.732866
0.732558
0.73225
0.731942
0.731634
0.731327
0.731019
0.730712
0.730405
0.730098
0.729792
0.729485
0.729179
0.728872
0.728566
0.72826
0.727954
0.727648
0.727343
0.727037
0.726732
0.726426
0.726121
0.725816
0.725511
0.725206
0.724901
0.724596
0.724291
0.723986
0.723682
0.723377
0.723072
0.722768
0.722463
0.722159
0.721854
0.72155
0.721245
0.720941
0.720636
0.720332
0.720027
0.719722
0.719418
0.719113
0.718808
0.718504
0.718199
0.717894
0.717589
0.717284
0.716979
0.716674
0.716369
0.716064
0.715758
0.715453
0.715147
0.714842
0.714536
0.71423
0.713924
0.713618
0.713312
0.713006
0.7127
0.712393
0.712087
0.71178
0.711474
0.711167
0.71086
0.710553
0.710246
0.709939
0.709631
0.709324
0.709016
0.708709
0.708401
0.708093
0.707785
0.707477
0.707169
0.706861
0.706553
0.706245
0.705936
0.705628
0.705319
0.70501
0.704701
0.704393
0.704084
0.703775
0.703465
0.703156
0.702847
0.702538
0.702228
0.701919
0.701609
0.7013
0.70099
0.70068
0.700371
0.700061
0.699751
0.699441
0.699131
0.698821
0.698511
0.698201
0.697891
0.697581
0.697271
0.696961
0.69665
0.69634
0.69603
0.695719
0.695409
0.695099
0.694788
0.694478
0.694167
0.693857
0.693546
0.693236
0.692925
0.692615
0.692304
0.691994
0.691683
0.691373
0.691062
0.690752
0.690441
0.690131
0.68982
0.68951
0.689199
0.688889
0.688578
0.688267
0.687957
0.687646
0.687336
0.687026
0.686715
0.686405
0.686094
0.685784
0.685473
0.685163
0.684853
0.684542
0.684232
0.683922
0.683612
0.683301
0.682991
0.682681
0.682371
0.682061
0.681751
0.681441
0.68113
0.68082
0.68051
0.680201
0.679891
0.679581
0.679271
0.678961
0.678651
0.678342
0.678032
0.677722
0.677413
0.677103
0.676793
0.676484
0.676174
0.675865
0.675556
0.675246
0.674937
0.674613
0.67565
0.65057
0.625658
0.597193
0.579943
0.56878
0.560764
0.554492
0.549256
0.544681
0.540556
0.536755
0.533202
0.529846
0.526653
0.523597
0.52066
0.517828
0.51509
0.512434
0.509855
0.507345
0.504898
0.50251
0.500177
0.497893
0.495657
0.493465
0.491315
0.489204
0.487129
0.485089
0.483082
0.481106
0.47916
0.477242
0.475352
0.473486
0.471646
0.469828
0.468033
0.46626
0.464507
0.462774
0.46106
0.459364
0.457685
0.456024
0.454378
0.452748
0.451133
0.449532
0.447945
0.446371
0.444811
0.443262
0.441725
0.440199
0.438684
0.43718
0.435685
0.4342
0.432723
0.431255
0.429795
0.428343
0.426898
0.425459
0.424026
0.422599
0.421176
0.419759
0.418344
0.416933
0.415524
0.414117
0.41271
0.411303
0.409895
0.408484
0.40707
0.40565
0.404222
0.402785
0.401337
0.399873
0.39839
0.396883
0.395348
0.393776
0.392159
0.390485
0.388742
0.386913
0.384978
0.382914
0.380695
0.378298
0.3757
0.372889
0.369878
0.362132
0.358894
0.355913
0.353151
0.350574
0.348159
0.345884
0.343734
0.341694
0.339753
0.337901
0.336129
0.33443
0.332798
0.331227
0.329713
0.32825
0.326837
0.325468
0.324141
0.322854
0.321603
0.320387
0.319204
0.318052
0.316928
0.315832
0.314762
0.313717
0.312696
0.311697
0.31072
0.309763
0.308826
0.307907
0.307007
0.306124
0.305257
0.304406
0.303571
0.30275
0.301944
0.301152
0.300372
0.299606
0.298852
0.29811
0.297379
0.29666
0.295952
0.295254
0.294566
0.293889
0.293221
0.292562
0.291913
0.291272
0.29064
0.290017
0.289401
0.288794
0.288195
0.287603
0.287018
0.286441
0.285871
0.285307
0.284751
0.284201
0.283657
0.28312
0.282589
0.282064
0.281545
0.281031
0.280524
0.280021
0.279525
0.279033
0.278547
0.278066
0.27759
0.277118
0.276652
0.27619
0.275733
0.275281
0.274833
0.274389
0.27395
0.273516
0.273085
0.272659
0.272236
0.271815
0.271394
0.270975
0.270567
0.270194
0.269883
0.269634
0.269408
0.269184
0.268961
0.268739
0.268519
0.268301
0.268084
0.267868
0.267654
0.267441
0.26723
0.26702
0.266812
0.266605
0.266399
0.266195
0.265992
0.265791
0.265591
0.265392
0.265195
0.264998
0.264804
0.26461
0.264418
0.264227
0.264038
0.263849
0.263662
0.263477
0.263292
0.263109
0.262927
0.262747
0.262567
0.262389
0.262212
0.262036
0.261862
0.261689
0.261517
0.261346
0.261176
0.261008
0.260841
0.260675
0.26051
0.260347
0.260185
0.260024
0.259864
0.259705
0.259548
0.259392
0.259237
0.259083
0.25893
0.258779
0.258629
0.25848
0.258332
0.258186
0.258041
0.257897
0.257754
0.257613
0.257473
0.257334
0.257196
0.25706
0.256925
0.256791
0.256659
0.256528
0.256398
0.25627
0.256143
0.256017
0.255893
0.25577
0.255649
0.255529
0.25541
0.255293
0.255177
0.255063
0.254951
0.25484
0.25473
0.254622
0.254516
0.254411
0.254309
0.254207
0.254108
0.25401
0.253914
0.25382
0.253728
0.253638
0.253549
0.253463
0.253379
0.253297
0.253217
0.253139
0.253063
0.25299
0.252919
0.25285
0.252784
0.252721
0.25266
0.252603
0.252548
0.252496
0.252448
0.252402
0.25236
0.252321
0.252285
0.252253
0.252223
0.252195
0.25217
0.252148
0.252128
0.252112
0.2521
0.252093
0.252094
0.252104
0.252128
0.252167
0.252226
0.252305
0.252406
0.252528
0.252666
0.252812
0.252953
0.253073
0.253151
0.253166
0.253095
0.25292
0.252631
0.252234
0.251753
0.25124
0.250774
0.250468
0.250465
0.25092
0.25199
0.253807
0.25645
0.259923
0.264145
0.268957
0.274141
0.279454
0.284669
0.289595
0.294098
0.298103
0.301585
0.304558
0.307059
0.309143
0.310865
0.312281
0.313443
0.314397
0.315181
0.315827
0.316363
0.31681
0.317186
0.317504
0.317777
0.318014
0.318221
0.318404
0.318568
0.318717
0.318853
0.318979
0.319096
0.319207
0.319312
0.319412
0.319508
0.319601
0.319691
0.319779
0.319866
0.31995
0.320033
0.320115
0.320196
0.320276
0.320355
0.320433
0.320511
0.320588
0.320665
0.320741
0.320817
0.320893
0.320968
0.321043
0.321117
0.321192
0.321266
0.32134
0.321414
0.321487
0.32156
0.321633
0.321706
0.321779
0.321852
0.321924
0.321996
0.322068
0.32214
0.322212
0.322284
0.322355
0.322426
0.322497
0.322568
0.322639
0.32271
0.32278
0.322851
0.322921
0.322991
0.323061
0.323131
0.3232
0.32327
0.323339
0.323409
0.323478
0.323547
0.323615
0.323684
0.323752
0.323821
0.323889
0.323957
0.324025
0.324093
0.32416
0.324228
0.324295
0.324362
0.324429
0.324496
0.324563
0.324629
0.324696
0.324762
0.324828
0.324894
0.32496
0.325025
0.325091
0.325156
0.325221
0.325287
0.325351
0.325416
0.325481
0.325545
0.32561
0.325674
0.325738
0.325802
0.325866
0.325929
0.325993
0.326056
0.326119
0.326182
0.326245
0.326308
0.32637
0.326433
0.326495
0.326557
0.326619
0.326681
0.326743
0.326804
0.326866
0.326927
0.326988
0.327049
0.32711
0.327171
0.327231
0.327292
0.327352
0.327412
0.327472
0.327532
0.327592
0.327652
0.327711
0.32777
0.32783
0.327889
0.327948
0.328006
0.328065
0.328124
0.328182
0.32824
0.328298
0.328356
0.328414
0.328472
0.32853
0.328587
0.328644
0.328702
0.328759
0.328816
0.328873
0.328929
0.328986
0.329043
0.329099
0.329155
0.329211
0.329267
0.329323
0.329379
0.329434
0.329489
0.329546
0.329605
0.329668
0.329729
0.329776
0.32979
0.32977
0.329737
0.329704
0.32967
0.329637
0.329604
0.32957
0.329537
0.329504
0.32947
0.329437
0.329403
0.32937
0.329337
0.329303
0.32927
0.329237
0.329203
0.32917
0.329136
0.329103
0.32907
0.329036
0.329003
0.328969
0.328936
0.328903
0.328869
0.328836
0.328803
0.32877
0.328736
0.328703
0.32867
0.328637
0.328603
0.32857
0.328537
0.328504
0.328471
0.328438
0.328405
0.328372
0.328339
0.328306
0.328273
0.32824
0.328207
0.328174
0.328142
0.328109
0.328076
0.328043
0.328011
0.327978
0.327946
0.327913
0.327881
0.327848
0.327816
0.327783
0.327751
0.327719
0.327687
0.327654
0.327622
0.32759
0.327558
0.327526
0.327494
0.327462
0.32743
0.327399
0.327367
0.327335
0.327303
0.327272
0.32724
0.327208
0.327177
0.327148
0.327121
0.327093
0.327057
0.327006
0.326936
0.326863
0.326842
0.326961
0.327291
0.327745
0.32788
0.326815
0.323617
0.318582
0.315238
0.321598
0.348712
0.405734
0.490064
0.578877
0.644969
0.682066
0.699786
0.707949
0.712022
0.714448
0.716229
0.717759
0.719192
0.720587
0.721965
0.723336
0.724704
0.726068
0.727431
0.728791
0.73015
0.731507
0.732862
0.734215
0.735566
0.736915
0.738263
0.739608
0.740952
0.742295
0.743635
0.744974
0.746311
0.747646
0.74898
0.750312
0.751642
0.75297
0.754297
0.755622
0.756946
0.758268
0.759588
0.760907
0.762224
0.763539
0.764853
0.766166
0.767476
0.768786
0.770094
0.7714
0.772705
0.774008
0.77531
0.77661
0.777909
0.779206
0.780502
0.781796
0.78309
0.784381
0.785671
0.78696
0.788248
0.789534
0.790819
0.792102
0.793384
0.794665
0.795945
0.797223
0.7985
0.799776
0.80105
0.802323
0.803595
0.804865
0.806135
0.807403
0.808671
0.809949
0.811217
0.811418
0.811095
0.810919
0.811126
0.811456
0.811823
0.812198
0.812548
0.812831
0.81304
0.813199
0.813329
0.813417
0.813436
0.81339
0.813291
0.813135
0.812929
0.812663
0.812337
0.81196
0.811527
0.811049
0.810525
0.809941
0.809293
0.808579
0.807801
0.806973
0.806096
0.80516
0.804158
0.803093
0.801977
0.800814
0.799594
0.798325
0.797003
0.795605
0.79414
0.79263
0.791055
0.789402
0.787688
0.78592
0.78409
0.782206
0.780268
0.778264
0.776191
0.774059
0.771869
0.769608
0.767269
0.764854
0.762375
0.759832
0.757219
0.75454
0.751794
0.748968
0.746056
0.743057
0.739982
0.736835
0.733617
0.730321
0.726933
0.723442
0.719848
0.716158
0.712371
0.708478
0.70448
0.700375
0.696149
0.691802
0.687326
0.682702
0.677917
0.672962
0.66784
0.662552
0.657074
0.651376
0.645435
0.639214
0.632654
0.625684
0.618209
0.610067
0.600997
0.590593
0.578211
0.562891
0.543344
0.518163
0.486544
0.449652
0.412202
0.383636
0.361742
0.361489
0.361238
0.360988
0.36074
0.360493
0.360247
0.360003
0.35976
0.359518
0.359278
0.359039
0.358801
0.358564
0.358329
0.358095
0.357863
0.357631
0.357401
0.357172
0.356944
0.356717
0.356492
0.356267
0.356044
0.355822
0.355601
0.355381
0.355163
0.354945
0.354728
0.354513
0.354299
0.354085
0.353873
0.353662
0.353452
0.353243
0.353035
0.352828
0.352622
0.352417
0.352213
0.35201
0.351808
0.351607
0.351407
0.351208
0.351009
0.350812
0.350616
0.350421
0.350226
0.350033
0.34984
0.349648
0.349458
0.349268
0.349079
0.348891
0.348704
0.348517
0.348332
0.348147
0.347963
0.34778
0.347598
0.347417
0.347237
0.347057
0.346879
0.346701
0.346524
0.346347
0.346172
0.345997
0.345823
0.34565
0.345478
0.345307
0.345139
0.34497
0.344798
0.344618
0.34443
0.344248
0.344106
0.344049
0.344076
0.344135
0.344194
0.344253
0.344311
0.34437
0.344429
0.344489
0.344548
0.344607
0.344666
0.344726
0.344785
0.344845
0.344904
0.344964
0.345024
0.345083
0.345143
0.345203
0.345263
0.345323
0.345384
0.345444
0.345504
0.345565
0.345625
0.345686
0.345747
0.345808
0.345869
0.34593
0.345991
0.346052
0.346113
0.346175
0.346236
0.346298
0.346359
0.346421
0.346483
0.346545
0.346607
0.346669
0.346731
0.346794
0.346856
0.346919
0.346981
0.347044
0.347107
0.34717
0.347233
0.347297
0.34736
0.347423
0.347487
0.347551
0.347615
0.347679
0.347743
0.347807
0.347871
0.347936
0.348001
0.348065
0.34813
0.348195
0.348261
0.348326
0.348391
0.348457
0.348523
0.348589
0.348655
0.348721
0.348787
0.348854
0.348921
0.348987
0.349054
0.349122
0.349189
0.349256
0.349324
0.349392
0.34946
0.349528
0.349596
0.349664
0.349733
0.349802
0.349871
0.34994
0.350009
0.350078
0.350148
0.350218
0.350287
0.350357
0.350428
0.350498
0.350569
0.350639
0.35071
0.350781
0.350853
0.350924
0.350995
0.351067
0.351139
0.351211
0.351283
0.351356
0.351428
0.351501
0.351574
0.351646
0.35172
0.351793
0.351866
0.35194
0.352014
0.352088
0.352162
0.352236
0.35231
0.352385
0.352459
0.352534
0.352609
0.352684
0.352759
0.352834
0.35291
0.352985
0.353061
0.353137
0.353214
0.35329
0.353366
0.353441
0.353515
0.35359
0.353667
0.353751
0.353843
0.35394
0.354025
0.35407
0.354051
0.35398
0.353947
0.354139
0.354776
0.355906
0.357079
0.357089
0.354192
0.347356
0.338646
0.335409
0.349864
0.395282
0.477983
0.583731
0.678545
0.740186
0.772206
0.787024
0.793689
0.79683
0.798505
0.79958
0.800411
0.801142
0.801831
0.802502
0.803165
0.803824
0.80448
0.805133
0.805785
0.806436
0.807084
0.807731
0.808376
0.80902
0.809662
0.810302
0.810941
0.811578
0.812214
0.812848
0.813481
0.814113
0.814743
0.815371
0.815999
0.816624
0.817249
0.817872
0.818494
0.819115
0.819734
0.820352
0.820969
0.821584
0.822198
0.822812
0.823424
0.824034
0.824644
0.825253
0.82586
0.826466
0.827071
0.827675
0.828279
0.828881
0.829481
0.830081
0.83068
0.831278
0.831875
0.832471
0.833066
0.83366
0.834253
0.834845
0.835437
0.836027
0.836616
0.837205
0.837793
0.838379
0.838965
0.83955
0.840135
0.840718
0.841301
0.841882
0.842463
0.843043
0.843623
0.844201
0.844779
0.845356
0.845933
0.846508
0.847083
0.847657
0.848231
0.848804
0.849376
0.849947
0.850518
0.851088
0.851657
0.852226
0.852793
0.853361
0.853928
0.854494
0.855059
0.855624
0.856188
0.856752
0.857315
0.857877
0.858439
0.859
0.859561
0.860121
0.860681
0.86124
0.861798
0.862356
0.862913
0.86347
0.864026
0.864582
0.865137
0.865692
0.866246
0.8668
0.867353
0.867906
0.868458
0.86901
0.869561
0.870112
0.870662
0.871212
0.871762
0.872311
0.872859
0.873407
0.873954
0.874498
0.875017
0.875446
0.875741
0.87594
0.8761
0.876244
0.876381
0.876516
0.876649
0.876782
0.876914
0.877047
0.87718
0.877312
0.877445
0.877578
0.877711
0.877844
0.877977
0.87811
0.878243
0.878376
0.878509
0.878642
0.878776
0.878909
0.879042
0.879176
0.879309
0.879443
0.879576
0.87971
0.879844
0.879978
0.880112
0.880245
0.880379
0.880513
0.880647
0.880782
0.880916
0.88105
0.881184
0.881319
0.881453
0.881588
0.881722
0.881857
0.881992
0.882126
0.882261
0.882396
0.882531
0.882666
0.882801
0.882936
0.883072
0.883207
0.883342
0.883478
0.883613
0.883749
0.883884
0.88402
0.884156
0.884292
0.884427
0.884563
0.884699
0.884836
0.884972
0.885108
0.885244
0.885381
0.885517
0.885654
0.88579
0.885927
0.886064
0.8862
0.886337
0.886474
0.886611
0.886748
0.886886
0.887023
0.88716
0.887297
0.887435
0.887573
0.88771
0.887848
0.887986
0.888123
0.888261
0.888399
0.888537
0.888676
0.888814
0.888952
0.88909
0.889229
0.889367
0.889506
0.889645
0.889784
0.889922
0.890061
0.8902
0.890339
0.890479
0.890618
0.890757
0.890896
0.891036
0.891176
0.891315
0.891455
0.891595
0.891735
0.891874
0.892015
0.892155
0.892295
0.892435
0.892575
0.892716
0.892856
0.892997
0.893138
0.893278
0.893419
0.89356
0.893701
0.893842
0.893983
0.894125
0.894266
0.894407
0.894549
0.89469
0.894832
0.894974
0.895116
0.895257
0.895399
0.895541
0.895684
0.895826
0.895968
0.89611
0.896253
0.896395
0.896538
0.896681
0.896824
0.896966
0.897109
0.897252
0.897395
0.897539
0.897682
0.897825
0.897969
0.898112
0.898256
0.898399
0.898543
0.898687
0.898831
0.898975
0.899119
0.899263
0.899407
0.899551
0.899696
0.89984
0.899984
0.900129
0.900274
0.900418
0.900563
0.900708
0.900853
0.900998
0.901143
0.901288
0.901434
0.901579
0.901724
0.90187
0.902015
0.902161
0.902307
0.902452
0.902598
0.902744
0.90289
0.903036
0.903182
0.903328
0.903475
0.903621
0.903767
0.903914
0.90406
0.904207
0.904354
0.904501
0.904647
0.904794
0.904941
0.905088
0.905235
0.905382
0.90553
0.905677
0.905824
0.905972
0.906119
0.906267
0.906414
0.906562
0.90671
0.906857
0.907005
0.907153
0.907301
0.907449
0.907597
0.907746
0.907894
0.908042
0.90819
0.908339
0.908487
0.908636
0.908784
0.908933
0.909082
0.90923
0.909379
0.909528
0.909677
0.909826
0.909975
0.910124
0.910273
0.910422
0.910572
0.910721
0.91087
0.91102
0.911169
0.911319
0.911468
0.911618
0.911767
0.911917
0.912067
0.912217
0.912367
0.912516
0.912666
0.912816
0.912967
0.913117
0.913267
0.913417
0.913567
0.913718
0.913868
0.914018
0.914169
0.914319
0.91447
0.91462
0.914771
0.914922
0.915072
0.915223
0.915374
0.915525
0.915676
0.915827
0.915978
0.916129
0.91628
0.916431
0.916582
0.916733
0.916884
0.917036
0.917187
0.917338
0.91749
0.917641
0.917793
0.917944
0.918096
0.918247
0.918399
0.918551
0.918702
0.918854
0.919006
0.919158
0.91931
0.919461
0.919613
0.919765
0.919917
0.920069
0.920221
0.920373
0.920526
0.920678
0.92083
0.920982
0.921134
0.921287
0.921439
0.921591
0.921744
0.921896
0.922048
0.922201
0.922353
0.922506
0.922658
0.922811
0.922963
0.923116
0.923269
0.923421
0.923574
0.923727
0.923879
0.924032
0.924185
0.924337
0.92449
0.924643
0.924796
0.924948
0.925101
0.925254
0.925407
0.92556
0.925713
0.925866
0.926018
0.926171
0.926324
0.926477
0.92663
0.926783
0.926936
0.927089
0.927242
0.927395
0.927548
0.9277
0.927853
0.928006
0.928159
0.928312
0.928465
0.928618
0.928771
0.928924
0.929077
0.92923
0.929382
0.929535
0.929688
0.929841
0.929994
0.930147
0.9303
0.930452
0.930605
0.930758
0.930911
0.931063
0.931216
0.931369
0.931522
0.931674
0.931827
0.931979
0.932132
0.932285
0.932437
0.93259
0.932742
0.932895
0.933047
0.9332
0.933352
0.933504
0.933657
0.933809
0.933961
0.934114
0.934266
0.934418
0.93457
0.934722
0.934875
0.935027
0.935179
0.935331
0.935483
0.935635
0.935787
0.935938
0.93609
0.936242
0.936394
0.936546
0.936697
0.936849
0.937
0.937152
0.937304
0.937455
0.937607
0.937758
0.937909
0.938061
0.938212
0.938363
0.938514
0.938666
0.938817
0.938968
0.939119
0.93927
0.939421
0.939572
0.939723
0.939874
0.940024
0.940175
0.940326
0.940476
0.940627
0.940778
0.940928
0.941079
0.941229
0.941379
0.94153
0.94168
0.94183
0.941981
0.942131
0.942281
0.942431
0.942581
0.942731
0.942881
0.943031
0.94318
0.94333
0.94348
0.943629
0.943779
0.943928
0.944078
0.944227
0.944376
0.944526
0.944675
0.944824
0.944973
0.945122
0.94527
0.945419
0.945568
0.945716
0.945865
0.946013
0.946161
0.946309
0.946457
0.946605
0.946753
0.9469
0.947048
0.947195
0.947342
0.947489
0.947636
0.947782
0.947929
0.948075
0.948221
0.948367
0.948512
0.948658
0.948803
0.948947
0.949092
0.949236
0.94938
0.949524
0.949667
0.949811
0.949953
0.950096
0.950238
0.950379
0.950521
0.950662
0.950802
0.950942
0.951082
0.951221
0.951359
0.951497
0.951635
0.951772
0.951908
0.952044
0.95218
0.952314
0.952449
0.952582
0.952715
0.952847
0.952979
0.95311
0.95324
0.953369
0.953498
0.953625
0.953753
0.953879
0.954004
0.954129
0.954253
0.954376
0.954498
0.954619
0.954739
0.954858
0.954977
0.955094
0.955211
0.955326
0.955441
0.955555
0.955667
0.955779
0.955889
0.955999
0.956107
0.956215
0.956321
0.956427
0.956531
0.956634
0.956737
0.956838
0.956938
0.957037
0.957135
0.957232
0.957327
0.957422
0.957516
0.957608
0.957699
0.95779
0.957879
0.957967
0.958054
0.95814
0.958225
0.958309
0.958391
0.958473
0.958553
0.958633
0.958711
0.958788
0.958864
0.958939
0.959013
0.959085
0.959157
0.959227
0.959296
0.959364
0.959431
0.959497
0.959561
0.959624
0.959686
0.959747
0.959807
0.959865
0.959922
0.959977
0.960031
0.960084
0.960135
0.960185
0.960234
0.96028
0.960326
0.960369
0.960411
0.960452
0.96049
0.960527
0.960562
0.960595
0.960626
0.960655
0.960682
0.960707
0.96073
0.96075
0.960768
0.960784
0.960797
0.960808
0.960816
0.960822
0.960825
0.960825
0.960822
0.960816
0.960807
0.960795
0.96078
0.960761
0.96074
0.960714
0.960686
0.960653
0.960618
0.960578
0.960535
0.960487
0.960436
0.960381
0.960322
0.960258
0.96019
0.960118
0.960042
0.959961
0.959876
0.959787
0.959692
0.959594
0.95949
0.959382
0.959269
0.959151
0.959028
0.9589
0.958768
0.958631
0.958488
0.958341
0.958188
0.958031
0.957868
0.957701
0.957528
0.95735
0.957167
0.956979
0.956786
0.956588
0.956385
0.956177
0.955963
0.955745
0.955522
0.955293
0.95506
0.954821
0.954578
0.95433
0.954077
0.953819
0.953556
0.953289
0.953017
0.95274
0.952458
0.952172
0.951882
0.951587
0.951287
0.950983
0.950675
0.950362
0.950045
0.949724
0.949399
0.94907
0.948737
0.948399
0.948058
0.947713
0.947365
0.947012
0.946656
0.946297
0.945934
0.945567
0.945197
0.944824
0.944448
0.944068
0.943686
0.9433
0.942911
0.94252
0.942126
0.941729
0.941329
0.940927
0.940522
0.940115
0.939706
0.939294
0.93888
0.938464
0.938046
0.937626
0.937204
0.93678
0.936355
0.935928
0.935499
0.935069
0.934638
0.934205
0.933771
0.933336
0.9329
0.932463
0.932026
0.931587
0.931148
0.930709
0.930269
0.929829
0.929388
0.928948
0.928507
0.928067
0.927627
0.927187
0.926748
0.926309
0.925871
0.925434
0.924998
0.924562
0.924129
0.923696
0.923265
0.922836
0.922408
0.921983
0.921559
0.921138
0.920719
0.920303
0.91989
0.91948
0.919072
0.918669
0.918268
0.917872
0.917479
0.91709
0.916706
0.916326
0.915951
0.915581
0.915216
0.914857
0.914503
0.914155
0.913813
0.913478
0.913149
0.912828
0.912513
0.912206
0.911907
0.911616
0.911333
0.911058
0.910793
0.910536
0.910289
0.910052
0.909825
0.909608
0.909402
0.909206
0.909022
0.908849
0.908688
0.908539
0.908402
0.908277
0.908166
0.908067
0.907981
0.907909
0.907851
0.907807
0.907776
0.90776
0.907757
0.90777
0.907796
0.907838
0.907893
0.907964
0.908049
0.908149
0.908263
0.908391
0.908534
0.908691
0.908861
0.909046
0.909243
0.909454
0.909677
0.909913
0.91016
0.910419
0.910688
0.910968
0.911258
0.911556
0.911863
0.912178
0.9125
0.912827
0.91316
0.913498
0.913839
0.914182
0.914527
0.914873
0.915219
0.915563
0.915905
0.916243
0.916577
0.916905
0.917226
0.91754
0.917845
0.91814
0.918423
0.918695
0.918954
0.9192
0.91943
0.919645
0.919843
0.920025
0.920188
0.920334
0.92046
0.920567
0.920655
0.920723
0.920771
0.920798
0.920806
0.920794
0.920762
0.920711
0.92064
0.920551
0.920444
0.92032
0.920179
0.920022
0.919849
0.919662
0.919461
0.919247
0.91902
0.918782
0.918533
0.918274
0.918005
0.917727
0.917439
0.917143
0.916837
0.916523
0.9162
0.915867
0.915525
0.915172
0.914809
0.914435
0.914048
0.91365
0.913239
0.912817
0.912382
0.911936
0.911481
0.911018
0.91055
0.91008
0.909612
0.909152
0.908706
0.908279
0.907881
0.907519
0.907206
0.906957
0.906802
)
;

boundaryField
{
    inlet
    {
        type            criticalFlowDepthInlet;
        criticalH       0.38;
        value           uniform 0.916973;
    }
    outlet
    {
        type            zeroGradient;
    }
    right
    {
        type            empty;
    }
    left
    {
        type            empty;
    }
    atmosphere
    {
        type            empty;
    }
    bottomWall
    {
        type            empty;
    }
}


// ************************************************************************* //
