/*--------------------------------*- C++ -*----------------------------------*\
| =========                 |                                                 |
| \\      /  F ield         | foam-extend: Open Source CFD                    |
|  \\    /   O peration     | Version:     3.1                                |
|   \\  /    A nd           | Web:         http://www.extend-project.de       |
|    \\/     M anipulation  |                                                 |
\*---------------------------------------------------------------------------*/
FoamFile
{
    version     2.0;
    format      ascii;
    class       volVectorField;
    location    "6";
    object      HU;
}
// * * * * * * * * * * * * * * * * * * * * * * * * * * * * * * * * * * * * * //

dimensions      [0 2 -1 0 0 0 0];

internalField   nonuniform List<vector> 
2539
(
(0.624986 0 0)
(0.62512 0 0)
(0.625442 0 0)
(0.625747 0 0)
(0.626054 0 0)
(0.62636 0 0)
(0.626666 0 0)
(0.626971 0 0)
(0.627276 0 0)
(0.627581 0 0)
(0.627886 0 0)
(0.62819 0 0)
(0.628495 0 0)
(0.628798 0 0)
(0.629102 0 0)
(0.629405 0 0)
(0.629709 0 0)
(0.630011 0 0)
(0.630314 0 0)
(0.630617 0 0)
(0.630919 0 0)
(0.631221 0 0)
(0.631522 0 0)
(0.631824 0 0)
(0.632125 0 0)
(0.632426 0 0)
(0.632727 0 0)
(0.633027 0 0)
(0.633328 0 0)
(0.633628 0 0)
(0.633927 0 0)
(0.634227 0 0)
(0.634527 0 0)
(0.634826 0 0)
(0.635125 0 0)
(0.635424 0 0)
(0.635722 0 0)
(0.636021 0 0)
(0.636319 0 0)
(0.636617 0 0)
(0.636915 0 0)
(0.637212 0 0)
(0.63751 0 0)
(0.637807 0 0)
(0.638104 0 0)
(0.638401 0 0)
(0.638698 0 0)
(0.638994 0 0)
(0.639291 0 0)
(0.639587 0 0)
(0.639883 0 0)
(0.640179 0 0)
(0.640474 0 0)
(0.64077 0 0)
(0.641065 0 0)
(0.641361 0 0)
(0.641656 0 0)
(0.64195 0 0)
(0.642245 0 0)
(0.64254 0 0)
(0.642834 0 0)
(0.643129 0 0)
(0.643423 0 0)
(0.643717 0 0)
(0.644011 0 0)
(0.644305 0 0)
(0.644598 0 0)
(0.644892 0 0)
(0.645185 0 0)
(0.645479 0 0)
(0.645772 0 0)
(0.646065 0 0)
(0.646358 0 0)
(0.646651 0 0)
(0.646943 0 0)
(0.647236 0 0)
(0.647528 0 0)
(0.647821 0 0)
(0.648113 0 0)
(0.648405 0 0)
(0.648697 0 0)
(0.648989 0 0)
(0.649281 0 0)
(0.649573 0 0)
(0.649865 0 0)
(0.650157 0 0)
(0.650448 0 0)
(0.65074 0 0)
(0.651031 0 0)
(0.651322 0 0)
(0.651614 0 0)
(0.651905 0 0)
(0.652196 0 0)
(0.652487 0 0)
(0.652778 0 0)
(0.653069 0 0)
(0.65336 0 0)
(0.653651 0 0)
(0.653941 0 0)
(0.654232 0 0)
(0.654523 0 0)
(0.654813 0 0)
(0.655104 0 0)
(0.655394 0 0)
(0.655684 0 0)
(0.655975 0 0)
(0.656265 0 0)
(0.656555 0 0)
(0.656846 0 0)
(0.657136 0 0)
(0.657426 0 0)
(0.657716 0 0)
(0.658006 0 0)
(0.658296 0 0)
(0.658586 0 0)
(0.658876 0 0)
(0.659166 0 0)
(0.659455 0 0)
(0.659745 0 0)
(0.660035 0 0)
(0.660325 0 0)
(0.660614 0 0)
(0.660904 0 0)
(0.661194 0 0)
(0.661483 0 0)
(0.661773 0 0)
(0.662062 0 0)
(0.662352 0 0)
(0.662641 0 0)
(0.66293 0 0)
(0.66322 0 0)
(0.663509 0 0)
(0.663798 0 0)
(0.664087 0 0)
(0.664377 0 0)
(0.664666 0 0)
(0.664955 0 0)
(0.665244 0 0)
(0.665533 0 0)
(0.665822 0 0)
(0.666111 0 0)
(0.6664 0 0)
(0.666688 0 0)
(0.666977 0 0)
(0.667266 0 0)
(0.667554 0 0)
(0.667843 0 0)
(0.668131 0 0)
(0.66842 0 0)
(0.668708 0 0)
(0.668997 0 0)
(0.669285 0 0)
(0.669573 0 0)
(0.669861 0 0)
(0.670149 0 0)
(0.670437 0 0)
(0.670725 0 0)
(0.671013 0 0)
(0.6713 0 0)
(0.671588 0 0)
(0.671876 0 0)
(0.672163 0 0)
(0.67245 0 0)
(0.672738 0 0)
(0.673025 0 0)
(0.673312 0 0)
(0.673599 0 0)
(0.673885 0 0)
(0.674172 0 0)
(0.674459 0 0)
(0.674745 0 0)
(0.675031 0 0)
(0.675317 0 0)
(0.675604 0 0)
(0.675889 0 0)
(0.676175 0 0)
(0.676461 0 0)
(0.676746 0 0)
(0.677032 0 0)
(0.677317 0 0)
(0.677602 0 0)
(0.677887 0 0)
(0.678172 0 0)
(0.678457 0 0)
(0.678518 0 0)
(0.678889 0 0)
(0.679611 0 0)
(0.679914 0 0)
(0.6802 0 0)
(0.680484 0 0)
(0.680768 0 0)
(0.681052 0 0)
(0.681336 0 0)
(0.68162 0 0)
(0.681904 0 0)
(0.682187 0 0)
(0.682471 0 0)
(0.682754 0 0)
(0.683037 0 0)
(0.683321 0 0)
(0.683604 0 0)
(0.683886 0 0)
(0.684169 0 0)
(0.684452 0 0)
(0.684735 0 0)
(0.685017 0 0)
(0.6853 0 0)
(0.685582 0 0)
(0.685865 0 0)
(0.686147 0 0)
(0.686429 0 0)
(0.686712 0 0)
(0.686994 0 0)
(0.687276 0 0)
(0.687558 0 0)
(0.687841 0 0)
(0.688123 0 0)
(0.688405 0 0)
(0.688688 0 0)
(0.68897 0 0)
(0.689253 0 0)
(0.689535 0 0)
(0.689818 0 0)
(0.690101 0 0)
(0.690384 0 0)
(0.690666 0 0)
(0.69095 0 0)
(0.691233 0 0)
(0.691516 0 0)
(0.6918 0 0)
(0.692083 0 0)
(0.692367 0 0)
(0.692651 0 0)
(0.692935 0 0)
(0.69322 0 0)
(0.693504 0 0)
(0.693789 0 0)
(0.694074 0 0)
(0.694359 0 0)
(0.694645 0 0)
(0.694931 0 0)
(0.695217 0 0)
(0.695503 0 0)
(0.695789 0 0)
(0.696076 0 0)
(0.696363 0 0)
(0.696651 0 0)
(0.696938 0 0)
(0.697226 0 0)
(0.697514 0 0)
(0.697803 0 0)
(0.698092 0 0)
(0.698381 0 0)
(0.69867 0 0)
(0.69896 0 0)
(0.69925 0 0)
(0.699541 0 0)
(0.699832 0 0)
(0.700123 0 0)
(0.700414 0 0)
(0.700706 0 0)
(0.700998 0 0)
(0.70129 0 0)
(0.701583 0 0)
(0.701876 0 0)
(0.702169 0 0)
(0.702463 0 0)
(0.702757 0 0)
(0.703051 0 0)
(0.703346 0 0)
(0.703641 0 0)
(0.703936 0 0)
(0.704231 0 0)
(0.704527 0 0)
(0.704823 0 0)
(0.70512 0 0)
(0.705417 0 0)
(0.705714 0 0)
(0.706011 0 0)
(0.706309 0 0)
(0.706607 0 0)
(0.706905 0 0)
(0.707204 0 0)
(0.707502 0 0)
(0.707801 0 0)
(0.708101 0 0)
(0.7084 0 0)
(0.7087 0 0)
(0.709 0 0)
(0.709301 0 0)
(0.709602 0 0)
(0.709902 0 0)
(0.710204 0 0)
(0.710505 0 0)
(0.710807 0 0)
(0.711108 0 0)
(0.71141 0 0)
(0.711713 0 0)
(0.712015 0 0)
(0.712318 0 0)
(0.712621 0 0)
(0.712924 0 0)
(0.713227 0 0)
(0.713531 0 0)
(0.713835 0 0)
(0.714139 0 0)
(0.714443 0 0)
(0.714747 0 0)
(0.715051 0 0)
(0.715356 0 0)
(0.715661 0 0)
(0.715966 0 0)
(0.716271 0 0)
(0.716576 0 0)
(0.716882 0 0)
(0.717187 0 0)
(0.717493 0 0)
(0.717799 0 0)
(0.718105 0 0)
(0.718411 0 0)
(0.718718 0 0)
(0.719024 0 0)
(0.719331 0 0)
(0.719637 0 0)
(0.719944 0 0)
(0.720251 0 0)
(0.720558 0 0)
(0.720866 0 0)
(0.721173 0 0)
(0.72148 0 0)
(0.721788 0 0)
(0.722096 0 0)
(0.722403 0 0)
(0.722711 0 0)
(0.723019 0 0)
(0.723327 0 0)
(0.723635 0 0)
(0.723944 0 0)
(0.724252 0 0)
(0.72456 0 0)
(0.724869 0 0)
(0.725177 0 0)
(0.725486 0 0)
(0.725795 0 0)
(0.726103 0 0)
(0.726412 0 0)
(0.726721 0 0)
(0.72703 0 0)
(0.727339 0 0)
(0.727648 0 0)
(0.727957 0 0)
(0.728267 0 0)
(0.728576 0 0)
(0.728885 0 0)
(0.729195 0 0)
(0.729504 0 0)
(0.729813 0 0)
(0.730123 0 0)
(0.730432 0 0)
(0.730742 0 0)
(0.731052 0 0)
(0.731361 0 0)
(0.731671 0 0)
(0.731981 0 0)
(0.732291 0 0)
(0.732601 0 0)
(0.73291 0 0)
(0.73322 0 0)
(0.73353 0 0)
(0.73384 0 0)
(0.73415 0 0)
(0.73446 0 0)
(0.73477 0 0)
(0.73508 0 0)
(0.73539 0 0)
(0.7357 0 0)
(0.736011 0 0)
(0.736321 0 0)
(0.736631 0 0)
(0.736941 0 0)
(0.737251 0 0)
(0.737561 0 0)
(0.737872 0 0)
(0.738166 0 0)
(0.739983 0 0)
(0.710258 0 0)
(0.717843 0 0)
(0.72595 0 0)
(0.730865 0 0)
(0.733452 0 0)
(0.734907 0 0)
(0.735788 0 0)
(0.736363 0 0)
(0.736768 0 0)
(0.737075 0 0)
(0.737322 0 0)
(0.73753 0 0)
(0.737712 0 0)
(0.737876 0 0)
(0.738027 0 0)
(0.738167 0 0)
(0.738299 0 0)
(0.738425 0 0)
(0.738545 0 0)
(0.738661 0 0)
(0.738773 0 0)
(0.738881 0 0)
(0.738987 0 0)
(0.73909 0 0)
(0.739191 0 0)
(0.73929 0 0)
(0.739386 0 0)
(0.739481 0 0)
(0.739575 0 0)
(0.739667 0 0)
(0.739758 0 0)
(0.739848 0 0)
(0.739937 0 0)
(0.740024 0 0)
(0.740111 0 0)
(0.740197 0 0)
(0.740282 0 0)
(0.740366 0 0)
(0.740449 0 0)
(0.740532 0 0)
(0.740614 0 0)
(0.740696 0 0)
(0.740776 0 0)
(0.740857 0 0)
(0.740936 0 0)
(0.741016 0 0)
(0.741094 0 0)
(0.741172 0 0)
(0.74125 0 0)
(0.741327 0 0)
(0.741404 0 0)
(0.74148 0 0)
(0.741556 0 0)
(0.741631 0 0)
(0.741706 0 0)
(0.741781 0 0)
(0.741855 0 0)
(0.741929 0 0)
(0.742002 0 0)
(0.742075 0 0)
(0.742147 0 0)
(0.742219 0 0)
(0.74229 0 0)
(0.742362 0 0)
(0.742432 0 0)
(0.742502 0 0)
(0.742572 0 0)
(0.742641 0 0)
(0.742709 0 0)
(0.742777 0 0)
(0.742844 0 0)
(0.742911 0 0)
(0.742977 0 0)
(0.743042 0 0)
(0.743106 0 0)
(0.74317 0 0)
(0.743232 0 0)
(0.743293 0 0)
(0.743353 0 0)
(0.743411 0 0)
(0.743467 0 0)
(0.743522 0 0)
(0.743574 0 0)
(0.743623 0 0)
(0.743669 0 0)
(0.74371 0 0)
(0.743747 0 0)
(0.743777 0 0)
(0.743798 0 0)
(0.74381 0 0)
(0.743809 0 0)
(0.743793 0 0)
(0.743759 0 0)
(0.743701 0 0)
(0.743618 0 0)
(0.743507 0 0)
(0.743368 0 0)
(0.743207 0 0)
(0.743037 0 0)
(0.742885 0 0)
(0.742693 0 0)
(0.743203 0 0)
(0.743672 0 0)
(0.74411 0 0)
(0.744523 0 0)
(0.744914 0 0)
(0.745289 0 0)
(0.74565 0 0)
(0.745998 0 0)
(0.746337 0 0)
(0.746667 0 0)
(0.746989 0 0)
(0.747305 0 0)
(0.747615 0 0)
(0.74792 0 0)
(0.74822 0 0)
(0.748517 0 0)
(0.74881 0 0)
(0.749099 0 0)
(0.749386 0 0)
(0.74967 0 0)
(0.749952 0 0)
(0.750232 0 0)
(0.750509 0 0)
(0.750785 0 0)
(0.751059 0 0)
(0.751331 0 0)
(0.751602 0 0)
(0.751872 0 0)
(0.75214 0 0)
(0.752407 0 0)
(0.752673 0 0)
(0.752938 0 0)
(0.753202 0 0)
(0.753465 0 0)
(0.753727 0 0)
(0.753988 0 0)
(0.754248 0 0)
(0.754508 0 0)
(0.754767 0 0)
(0.755026 0 0)
(0.755284 0 0)
(0.755541 0 0)
(0.755797 0 0)
(0.756054 0 0)
(0.756309 0 0)
(0.756564 0 0)
(0.756819 0 0)
(0.757073 0 0)
(0.757327 0 0)
(0.757581 0 0)
(0.757834 0 0)
(0.758087 0 0)
(0.758339 0 0)
(0.758591 0 0)
(0.758843 0 0)
(0.759094 0 0)
(0.759346 0 0)
(0.759597 0 0)
(0.759847 0 0)
(0.760098 0 0)
(0.760348 0 0)
(0.760598 0 0)
(0.760848 0 0)
(0.761098 0 0)
(0.761347 0 0)
(0.761597 0 0)
(0.761846 0 0)
(0.762095 0 0)
(0.762344 0 0)
(0.762593 0 0)
(0.762841 0 0)
(0.76309 0 0)
(0.763338 0 0)
(0.763587 0 0)
(0.763835 0 0)
(0.764083 0 0)
(0.764332 0 0)
(0.76458 0 0)
(0.764828 0 0)
(0.765076 0 0)
(0.765324 0 0)
(0.765572 0 0)
(0.76582 0 0)
(0.766068 0 0)
(0.766315 0 0)
(0.766563 0 0)
(0.766811 0 0)
(0.767059 0 0)
(0.767307 0 0)
(0.767555 0 0)
(0.767804 0 0)
(0.768051 0 0)
(0.768298 0 0)
(0.768541 0 0)
(0.768784 0 0)
(0.769031 0 0)
(0.769301 0 0)
(0.769615 0 0)
(0.769969 0 0)
(0.770277 0 0)
(0.770523 0 0)
(0.77077 0 0)
(0.771017 0 0)
(0.771264 0 0)
(0.771512 0 0)
(0.77176 0 0)
(0.772008 0 0)
(0.772256 0 0)
(0.772505 0 0)
(0.772754 0 0)
(0.773003 0 0)
(0.773253 0 0)
(0.773502 0 0)
(0.773753 0 0)
(0.774003 0 0)
(0.774254 0 0)
(0.774505 0 0)
(0.774756 0 0)
(0.775008 0 0)
(0.77526 0 0)
(0.775512 0 0)
(0.775765 0 0)
(0.776017 0 0)
(0.776271 0 0)
(0.776525 0 0)
(0.776779 0 0)
(0.777033 0 0)
(0.777288 0 0)
(0.777543 0 0)
(0.777799 0 0)
(0.778055 0 0)
(0.778311 0 0)
(0.778568 0 0)
(0.778825 0 0)
(0.779083 0 0)
(0.779341 0 0)
(0.779599 0 0)
(0.779858 0 0)
(0.780118 0 0)
(0.780378 0 0)
(0.780638 0 0)
(0.780899 0 0)
(0.781161 0 0)
(0.781423 0 0)
(0.781685 0 0)
(0.781948 0 0)
(0.782212 0 0)
(0.782476 0 0)
(0.782741 0 0)
(0.783006 0 0)
(0.783272 0 0)
(0.783539 0 0)
(0.783806 0 0)
(0.784074 0 0)
(0.784343 0 0)
(0.784612 0 0)
(0.784882 0 0)
(0.785153 0 0)
(0.785424 0 0)
(0.785696 0 0)
(0.785969 0 0)
(0.786243 0 0)
(0.786518 0 0)
(0.786793 0 0)
(0.787069 0 0)
(0.787347 0 0)
(0.787625 0 0)
(0.787904 0 0)
(0.788184 0 0)
(0.788465 0 0)
(0.788747 0 0)
(0.78903 0 0)
(0.789314 0 0)
(0.789599 0 0)
(0.789885 0 0)
(0.790173 0 0)
(0.790461 0 0)
(0.790751 0 0)
(0.791042 0 0)
(0.791335 0 0)
(0.791629 0 0)
(0.791924 0 0)
(0.79222 0 0)
(0.792518 0 0)
(0.792818 0 0)
(0.793119 0 0)
(0.793422 0 0)
(0.793726 0 0)
(0.794032 0 0)
(0.79434 0 0)
(0.79465 0 0)
(0.794961 0 0)
(0.795275 0 0)
(0.79559 0 0)
(0.795908 0 0)
(0.796227 0 0)
(0.796549 0 0)
(0.796873 0 0)
(0.7972 0 0)
(0.797529 0 0)
(0.79786 0 0)
(0.798195 0 0)
(0.798531 0 0)
(0.798871 0 0)
(0.799213 0 0)
(0.799559 0 0)
(0.799908 0 0)
(0.800259 0 0)
(0.800615 0 0)
(0.800974 0 0)
(0.801336 0 0)
(0.801703 0 0)
(0.802073 0 0)
(0.802448 0 0)
(0.802827 0 0)
(0.803211 0 0)
(0.8036 0 0)
(0.803993 0 0)
(0.804392 0 0)
(0.804795 0 0)
(0.805202 0 0)
(0.805614 0 0)
(0.806031 0 0)
(0.806451 0 0)
(0.806876 0 0)
(0.807305 0 0)
(0.807739 0 0)
(0.80818 0 0)
(0.80863 0 0)
(0.809092 0 0)
(0.809569 0 0)
(0.810066 0 0)
(0.810588 0 0)
(0.811139 0 0)
(0.811722 0 0)
(0.812338 0 0)
(0.812986 0 0)
(0.813658 0 0)
(0.814343 0 0)
(0.815021 0 0)
(0.815667 0 0)
(0.816253 0 0)
(0.816743 0 0)
(0.817106 0 0)
(0.817314 0 0)
(0.817354 0 0)
(0.817233 0 0)
(0.816987 0 0)
(0.816694 0 0)
(0.816477 0 0)
(0.816509 0 0)
(0.817005 0 0)
(0.81821 0 0)
(0.820363 0 0)
(0.823663 0 0)
(0.828219 0 0)
(0.834013 0 0)
(0.840891 0 0)
(0.84857 0 0)
(0.856691 0 0)
(0.864875 0 0)
(0.872786 0 0)
(0.880165 0 0)
(0.886851 0 0)
(0.892773 0 0)
(0.897929 0 0)
(0.902367 0 0)
(0.906163 0 0)
(0.909402 0 0)
(0.91217 0 0)
(0.914547 0 0)
(0.916603 0 0)
(0.918399 0 0)
(0.919985 0 0)
(0.921403 0 0)
(0.922685 0 0)
(0.92386 0 0)
(0.92495 0 0)
(0.92597 0 0)
(0.926935 0 0)
(0.927857 0 0)
(0.928743 0 0)
(0.929602 0 0)
(0.930437 0 0)
(0.931253 0 0)
(0.932055 0 0)
(0.932845 0 0)
(0.933624 0 0)
(0.934396 0 0)
(0.935161 0 0)
(0.93592 0 0)
(0.936674 0 0)
(0.937425 0 0)
(0.938172 0 0)
(0.938917 0 0)
(0.939659 0 0)
(0.940399 0 0)
(0.941138 0 0)
(0.941875 0 0)
(0.942611 0 0)
(0.943346 0 0)
(0.94408 0 0)
(0.944813 0 0)
(0.945545 0 0)
(0.946276 0 0)
(0.947007 0 0)
(0.947738 0 0)
(0.948467 0 0)
(0.949197 0 0)
(0.949926 0 0)
(0.950654 0 0)
(0.951382 0 0)
(0.95211 0 0)
(0.952837 0 0)
(0.953564 0 0)
(0.954291 0 0)
(0.955017 0 0)
(0.955743 0 0)
(0.956469 0 0)
(0.957194 0 0)
(0.957919 0 0)
(0.958644 0 0)
(0.959368 0 0)
(0.960093 0 0)
(0.960817 0 0)
(0.96154 0 0)
(0.962264 0 0)
(0.962987 0 0)
(0.96371 0 0)
(0.964432 0 0)
(0.965154 0 0)
(0.965876 0 0)
(0.966598 0 0)
(0.967319 0 0)
(0.96804 0 0)
(0.968761 0 0)
(0.969481 0 0)
(0.970202 0 0)
(0.970921 0 0)
(0.971641 0 0)
(0.97236 0 0)
(0.973079 0 0)
(0.973798 0 0)
(0.974516 0 0)
(0.975234 0 0)
(0.975952 0 0)
(0.976669 0 0)
(0.977386 0 0)
(0.978103 0 0)
(0.978819 0 0)
(0.979536 0 0)
(0.980251 0 0)
(0.980967 0 0)
(0.981682 0 0)
(0.982397 0 0)
(0.983111 0 0)
(0.983825 0 0)
(0.984539 0 0)
(0.985252 0 0)
(0.985965 0 0)
(0.986678 0 0)
(0.98739 0 0)
(0.988102 0 0)
(0.988814 0 0)
(0.989525 0 0)
(0.990236 0 0)
(0.990947 0 0)
(0.991657 0 0)
(0.992367 0 0)
(0.993077 0 0)
(0.993786 0 0)
(0.994495 0 0)
(0.995203 0 0)
(0.995911 0 0)
(0.996619 0 0)
(0.997326 0 0)
(0.998033 0 0)
(0.99874 0 0)
(0.999446 0 0)
(1.00015 0 0)
(1.00086 0 0)
(1.00156 0 0)
(1.00227 0 0)
(1.00297 0 0)
(1.00368 0 0)
(1.00438 0 0)
(1.00508 0 0)
(1.00579 0 0)
(1.00649 0 0)
(1.00719 0 0)
(1.00789 0 0)
(1.00859 0 0)
(1.00929 0 0)
(1.01 0 0)
(1.0107 0 0)
(1.0114 0 0)
(1.0121 0 0)
(1.01279 0 0)
(1.01349 0 0)
(1.01419 0 0)
(1.01489 0 0)
(1.01559 0 0)
(1.01628 0 0)
(1.01698 0 0)
(1.01768 0 0)
(1.01837 0 0)
(1.01907 0 0)
(1.01977 0 0)
(1.02046 0 0)
(1.02116 0 0)
(1.02185 0 0)
(1.02254 0 0)
(1.02324 0 0)
(1.02393 0 0)
(1.02462 0 0)
(1.02532 0 0)
(1.02601 0 0)
(1.0267 0 0)
(1.02739 0 0)
(1.02808 0 0)
(1.02878 0 0)
(1.02947 0 0)
(1.03016 0 0)
(1.03085 0 0)
(1.03154 0 0)
(1.03223 0 0)
(1.03291 0 0)
(1.0336 0 0)
(1.03429 0 0)
(1.03498 0 0)
(1.03567 0 0)
(1.03636 0 0)
(1.03704 0 0)
(1.03773 0 0)
(1.03842 0 0)
(1.0391 0 0)
(1.03979 0 0)
(1.04047 0 0)
(1.04116 0 0)
(1.04184 0 0)
(1.04253 0 0)
(1.04321 0 0)
(1.0439 0 0)
(1.04459 0 0)
(1.04528 0 0)
(1.04596 0 0)
(1.04664 0 0)
(1.04729 0 0)
(1.0479 0 0)
(1.04854 0 0)
(1.04922 0 0)
(1.0499 0 0)
(1.05058 0 0)
(1.05126 0 0)
(1.05194 0 0)
(1.05262 0 0)
(1.0533 0 0)
(1.05398 0 0)
(1.05465 0 0)
(1.05533 0 0)
(1.05601 0 0)
(1.05668 0 0)
(1.05736 0 0)
(1.05803 0 0)
(1.0587 0 0)
(1.05938 0 0)
(1.06005 0 0)
(1.06072 0 0)
(1.06139 0 0)
(1.06206 0 0)
(1.06273 0 0)
(1.0634 0 0)
(1.06407 0 0)
(1.06474 0 0)
(1.06541 0 0)
(1.06608 0 0)
(1.06675 0 0)
(1.06741 0 0)
(1.06808 0 0)
(1.06875 0 0)
(1.06941 0 0)
(1.07008 0 0)
(1.07074 0 0)
(1.07141 0 0)
(1.07207 0 0)
(1.07274 0 0)
(1.0734 0 0)
(1.07406 0 0)
(1.07472 0 0)
(1.07539 0 0)
(1.07605 0 0)
(1.07671 0 0)
(1.07737 0 0)
(1.07803 0 0)
(1.07869 0 0)
(1.07935 0 0)
(1.08001 0 0)
(1.08067 0 0)
(1.08133 0 0)
(1.08199 0 0)
(1.08264 0 0)
(1.0833 0 0)
(1.08396 0 0)
(1.08462 0 0)
(1.08527 0 0)
(1.08593 0 0)
(1.08659 0 0)
(1.08724 0 0)
(1.0879 0 0)
(1.08855 0 0)
(1.08921 0 0)
(1.08986 0 0)
(1.09052 0 0)
(1.09117 0 0)
(1.09183 0 0)
(1.09248 0 0)
(1.09313 0 0)
(1.09379 0 0)
(1.09444 0 0)
(1.09509 0 0)
(1.09574 0 0)
(1.0964 0 0)
(1.09705 0 0)
(1.0977 0 0)
(1.09835 0 0)
(1.099 0 0)
(1.09965 0 0)
(1.1003 0 0)
(1.10096 0 0)
(1.10161 0 0)
(1.10226 0 0)
(1.10291 0 0)
(1.10354 0 0)
(1.10415 0 0)
(1.10476 0 0)
(1.10543 0 0)
(1.10623 0 0)
(1.10722 0 0)
(1.1083 0 0)
(1.10904 0 0)
(1.10861 0 0)
(1.10618 0 0)
(1.10212 0 0)
(1.09997 0 0)
(1.10798 0 0)
(1.13572 0 0)
(1.18251 0 0)
(1.22686 0 0)
(1.24023 0 0)
(1.22014 0 0)
(1.19133 0 0)
(1.17176 0 0)
(1.16231 0 0)
(1.1586 0 0)
(1.15748 0 0)
(1.15742 0 0)
(1.15778 0 0)
(1.15831 0 0)
(1.1589 0 0)
(1.15951 0 0)
(1.16013 0 0)
(1.16075 0 0)
(1.16138 0 0)
(1.16201 0 0)
(1.16263 0 0)
(1.16326 0 0)
(1.16389 0 0)
(1.16451 0 0)
(1.16514 0 0)
(1.16576 0 0)
(1.16639 0 0)
(1.16702 0 0)
(1.16764 0 0)
(1.16827 0 0)
(1.1689 0 0)
(1.16953 0 0)
(1.17015 0 0)
(1.17078 0 0)
(1.17141 0 0)
(1.17204 0 0)
(1.17266 0 0)
(1.17329 0 0)
(1.17392 0 0)
(1.17455 0 0)
(1.17518 0 0)
(1.17581 0 0)
(1.17644 0 0)
(1.17707 0 0)
(1.1777 0 0)
(1.17833 0 0)
(1.17896 0 0)
(1.17959 0 0)
(1.18022 0 0)
(1.18086 0 0)
(1.18149 0 0)
(1.18212 0 0)
(1.18275 0 0)
(1.18339 0 0)
(1.18402 0 0)
(1.18466 0 0)
(1.18529 0 0)
(1.18593 0 0)
(1.18656 0 0)
(1.1872 0 0)
(1.18783 0 0)
(1.18847 0 0)
(1.18911 0 0)
(1.18975 0 0)
(1.19039 0 0)
(1.19102 0 0)
(1.19166 0 0)
(1.1923 0 0)
(1.19294 0 0)
(1.19358 0 0)
(1.19422 0 0)
(1.19487 0 0)
(1.19551 0 0)
(1.19615 0 0)
(1.19679 0 0)
(1.19744 0 0)
(1.19808 0 0)
(1.19872 0 0)
(1.19937 0 0)
(1.20001 0 0)
(1.20066 0 0)
(1.20131 0 0)
(1.20195 0 0)
(1.20262 0 0)
(1.20323 0 0)
(1.20265 0 0)
(1.20275 0 0)
(1.20348 0 0)
(1.20393 0 0)
(1.20428 0 0)
(1.2046 0 0)
(1.2049 0 0)
(1.20517 0 0)
(1.20541 0 0)
(1.20567 0 0)
(1.20595 0 0)
(1.20624 0 0)
(1.2065 0 0)
(1.20675 0 0)
(1.20702 0 0)
(1.20728 0 0)
(1.20755 0 0)
(1.20782 0 0)
(1.20807 0 0)
(1.20835 0 0)
(1.20861 0 0)
(1.20887 0 0)
(1.20915 0 0)
(1.20942 0 0)
(1.20968 0 0)
(1.20993 0 0)
(1.21019 0 0)
(1.21045 0 0)
(1.21073 0 0)
(1.21099 0 0)
(1.21125 0 0)
(1.2115 0 0)
(1.21176 0 0)
(1.21203 0 0)
(1.2123 0 0)
(1.21256 0 0)
(1.21283 0 0)
(1.21308 0 0)
(1.21332 0 0)
(1.21359 0 0)
(1.21385 0 0)
(1.21409 0 0)
(1.21434 0 0)
(1.2146 0 0)
(1.21485 0 0)
(1.21511 0 0)
(1.21537 0 0)
(1.21562 0 0)
(1.21587 0 0)
(1.21611 0 0)
(1.21637 0 0)
(1.21661 0 0)
(1.21685 0 0)
(1.21708 0 0)
(1.21732 0 0)
(1.21757 0 0)
(1.21781 0 0)
(1.21804 0 0)
(1.21829 0 0)
(1.21852 0 0)
(1.21874 0 0)
(1.21895 0 0)
(1.21917 0 0)
(1.2194 0 0)
(1.21963 0 0)
(1.21986 0 0)
(1.22007 0 0)
(1.22027 0 0)
(1.22046 0 0)
(1.22065 0 0)
(1.22085 0 0)
(1.22104 0 0)
(1.22122 0 0)
(1.22141 0 0)
(1.22158 0 0)
(1.22173 0 0)
(1.2219 0 0)
(1.22204 0 0)
(1.22216 0 0)
(1.22226 0 0)
(1.22236 0 0)
(1.22246 0 0)
(1.22255 0 0)
(1.2226 0 0)
(1.22262 0 0)
(1.22261 0 0)
(1.22253 0 0)
(1.22239 0 0)
(1.22215 0 0)
(1.22179 0 0)
(1.22118 0 0)
(1.22021 0 0)
(1.21867 0 0)
(1.21617 0 0)
(1.21224 0 0)
(1.20627 0 0)
(1.1979 0 0)
(1.18776 0 0)
(1.17882 0 0)
(1.1779 0 0)
(1.19713 0 0)
(1.2321 0 0)
(1.23254 0 0)
(1.23298 0 0)
(1.23342 0 0)
(1.23386 0 0)
(1.2343 0 0)
(1.23474 0 0)
(1.23519 0 0)
(1.23563 0 0)
(1.23607 0 0)
(1.23651 0 0)
(1.23695 0 0)
(1.23739 0 0)
(1.23783 0 0)
(1.23827 0 0)
(1.23872 0 0)
(1.23916 0 0)
(1.2396 0 0)
(1.24004 0 0)
(1.24048 0 0)
(1.24092 0 0)
(1.24136 0 0)
(1.2418 0 0)
(1.24224 0 0)
(1.24268 0 0)
(1.24312 0 0)
(1.24356 0 0)
(1.244 0 0)
(1.24444 0 0)
(1.24488 0 0)
(1.24532 0 0)
(1.24576 0 0)
(1.2462 0 0)
(1.24664 0 0)
(1.24708 0 0)
(1.24752 0 0)
(1.24796 0 0)
(1.2484 0 0)
(1.24884 0 0)
(1.24928 0 0)
(1.24972 0 0)
(1.25016 0 0)
(1.2506 0 0)
(1.25104 0 0)
(1.25148 0 0)
(1.25192 0 0)
(1.25236 0 0)
(1.2528 0 0)
(1.25324 0 0)
(1.25368 0 0)
(1.25412 0 0)
(1.25455 0 0)
(1.25499 0 0)
(1.25543 0 0)
(1.25587 0 0)
(1.25631 0 0)
(1.25675 0 0)
(1.25719 0 0)
(1.25763 0 0)
(1.25807 0 0)
(1.2585 0 0)
(1.25894 0 0)
(1.25938 0 0)
(1.25982 0 0)
(1.26026 0 0)
(1.2607 0 0)
(1.26113 0 0)
(1.26157 0 0)
(1.26201 0 0)
(1.26245 0 0)
(1.26289 0 0)
(1.26333 0 0)
(1.26376 0 0)
(1.2642 0 0)
(1.26464 0 0)
(1.26508 0 0)
(1.26552 0 0)
(1.26595 0 0)
(1.26639 0 0)
(1.26683 0 0)
(1.26727 0 0)
(1.26771 0 0)
(1.26813 0 0)
(1.26855 0 0)
(1.26898 0 0)
(1.26945 0 0)
(1.27 0 0)
(1.27063 0 0)
(1.27119 0 0)
(1.27163 0 0)
(1.27207 0 0)
(1.27251 0 0)
(1.27295 0 0)
(1.27339 0 0)
(1.27383 0 0)
(1.27427 0 0)
(1.27471 0 0)
(1.27515 0 0)
(1.27559 0 0)
(1.27604 0 0)
(1.27648 0 0)
(1.27692 0 0)
(1.27736 0 0)
(1.27781 0 0)
(1.27825 0 0)
(1.27869 0 0)
(1.27914 0 0)
(1.27958 0 0)
(1.28002 0 0)
(1.28047 0 0)
(1.28091 0 0)
(1.28136 0 0)
(1.2818 0 0)
(1.28225 0 0)
(1.28269 0 0)
(1.28314 0 0)
(1.28358 0 0)
(1.28403 0 0)
(1.28447 0 0)
(1.28492 0 0)
(1.28537 0 0)
(1.28581 0 0)
(1.28626 0 0)
(1.28671 0 0)
(1.28716 0 0)
(1.2876 0 0)
(1.28805 0 0)
(1.2885 0 0)
(1.28895 0 0)
(1.2894 0 0)
(1.28985 0 0)
(1.2903 0 0)
(1.29075 0 0)
(1.2912 0 0)
(1.29165 0 0)
(1.2921 0 0)
(1.29255 0 0)
(1.293 0 0)
(1.29345 0 0)
(1.2939 0 0)
(1.29436 0 0)
(1.29481 0 0)
(1.29526 0 0)
(1.29572 0 0)
(1.29617 0 0)
(1.29662 0 0)
(1.29708 0 0)
(1.29753 0 0)
(1.29799 0 0)
(1.29844 0 0)
(1.2989 0 0)
(1.29935 0 0)
(1.29981 0 0)
(1.30026 0 0)
(1.30072 0 0)
(1.30118 0 0)
(1.30163 0 0)
(1.30209 0 0)
(1.30255 0 0)
(1.30301 0 0)
(1.30347 0 0)
(1.30393 0 0)
(1.30439 0 0)
(1.30485 0 0)
(1.30531 0 0)
(1.30577 0 0)
(1.30623 0 0)
(1.30669 0 0)
(1.30715 0 0)
(1.30761 0 0)
(1.30808 0 0)
(1.30854 0 0)
(1.309 0 0)
(1.30947 0 0)
(1.30993 0 0)
(1.3104 0 0)
(1.31086 0 0)
(1.31133 0 0)
(1.31179 0 0)
(1.31226 0 0)
(1.31272 0 0)
(1.31319 0 0)
(1.31366 0 0)
(1.31413 0 0)
(1.3146 0 0)
(1.31506 0 0)
(1.31553 0 0)
(1.316 0 0)
(1.31647 0 0)
(1.31694 0 0)
(1.31741 0 0)
(1.31788 0 0)
(1.31836 0 0)
(1.31883 0 0)
(1.3193 0 0)
(1.31977 0 0)
(1.32025 0 0)
(1.32072 0 0)
(1.32119 0 0)
(1.32167 0 0)
(1.32214 0 0)
(1.32262 0 0)
(1.32309 0 0)
(1.32357 0 0)
(1.32405 0 0)
(1.32452 0 0)
(1.325 0 0)
(1.32548 0 0)
(1.32596 0 0)
(1.32643 0 0)
(1.32691 0 0)
(1.32739 0 0)
(1.32787 0 0)
(1.32835 0 0)
(1.32883 0 0)
(1.32931 0 0)
(1.32979 0 0)
(1.33028 0 0)
(1.33076 0 0)
(1.33124 0 0)
(1.33172 0 0)
(1.33221 0 0)
(1.33269 0 0)
(1.33317 0 0)
(1.33366 0 0)
(1.33414 0 0)
(1.33463 0 0)
(1.33511 0 0)
(1.3356 0 0)
(1.33608 0 0)
(1.33656 0 0)
(1.33705 0 0)
(1.33755 0 0)
(1.33805 0 0)
(1.33856 0 0)
(1.33905 0 0)
(1.3395 0 0)
(1.33988 0 0)
(1.3402 0 0)
(1.34058 0 0)
(1.34124 0 0)
(1.34241 0 0)
(1.34409 0 0)
(1.34572 0 0)
(1.34588 0 0)
(1.34268 0 0)
(1.3351 0 0)
(1.32564 0 0)
(1.32344 0 0)
(1.34388 0 0)
(1.3979 0 0)
(1.47256 0 0)
(1.52864 0 0)
(1.53729 0 0)
(1.51273 0 0)
(1.48597 0 0)
(1.46969 0 0)
(1.46205 0 0)
(1.45898 0 0)
(1.45799 0 0)
(1.45788 0 0)
(1.45812 0 0)
(1.45852 0 0)
(1.45897 0 0)
(1.45945 0 0)
(1.45995 0 0)
(1.46044 0 0)
(1.46094 0 0)
(1.46145 0 0)
(1.46195 0 0)
(1.46246 0 0)
(1.46296 0 0)
(1.46347 0 0)
(1.46398 0 0)
(1.4645 0 0)
(1.46501 0 0)
(1.46552 0 0)
(1.46604 0 0)
(1.46656 0 0)
(1.46707 0 0)
(1.46759 0 0)
(1.46812 0 0)
(1.46864 0 0)
(1.46916 0 0)
(1.46969 0 0)
(1.47021 0 0)
(1.47074 0 0)
(1.47127 0 0)
(1.4718 0 0)
(1.47233 0 0)
(1.47286 0 0)
(1.4734 0 0)
(1.47393 0 0)
(1.47447 0 0)
(1.475 0 0)
(1.47554 0 0)
(1.47608 0 0)
(1.47662 0 0)
(1.47716 0 0)
(1.47771 0 0)
(1.47825 0 0)
(1.4788 0 0)
(1.47934 0 0)
(1.47989 0 0)
(1.48044 0 0)
(1.48099 0 0)
(1.48154 0 0)
(1.48209 0 0)
(1.48264 0 0)
(1.4832 0 0)
(1.48375 0 0)
(1.48431 0 0)
(1.48486 0 0)
(1.48542 0 0)
(1.48598 0 0)
(1.48654 0 0)
(1.4871 0 0)
(1.48766 0 0)
(1.48823 0 0)
(1.48879 0 0)
(1.48935 0 0)
(1.48992 0 0)
(1.49049 0 0)
(1.49105 0 0)
(1.49162 0 0)
(1.49219 0 0)
(1.49276 0 0)
(1.49333 0 0)
(1.49391 0 0)
(1.49448 0 0)
(1.49505 0 0)
(1.49563 0 0)
(1.49621 0 0)
(1.49678 0 0)
(1.49736 0 0)
(1.49794 0 0)
(1.49852 0 0)
(1.4991 0 0)
(1.49968 0 0)
(1.50026 0 0)
(1.50085 0 0)
(1.50143 0 0)
(1.50201 0 0)
(1.5026 0 0)
(1.50319 0 0)
(1.50377 0 0)
(1.50436 0 0)
(1.50495 0 0)
(1.50554 0 0)
(1.50613 0 0)
(1.50672 0 0)
(1.50732 0 0)
(1.50791 0 0)
(1.5085 0 0)
(1.5091 0 0)
(1.50969 0 0)
(1.51029 0 0)
(1.51089 0 0)
(1.51148 0 0)
(1.51208 0 0)
(1.51268 0 0)
(1.51328 0 0)
(1.51388 0 0)
(1.51449 0 0)
(1.51509 0 0)
(1.51569 0 0)
(1.5163 0 0)
(1.5169 0 0)
(1.51751 0 0)
(1.51811 0 0)
(1.51872 0 0)
(1.51933 0 0)
(1.51994 0 0)
(1.52055 0 0)
(1.52116 0 0)
(1.52177 0 0)
(1.52238 0 0)
(1.52299 0 0)
(1.52361 0 0)
(1.52422 0 0)
(1.52484 0 0)
(1.52545 0 0)
(1.52607 0 0)
(1.52669 0 0)
(1.5273 0 0)
(1.52792 0 0)
(1.52854 0 0)
(1.52916 0 0)
(1.52974 0 0)
(1.53024 0 0)
(1.53075 0 0)
(1.53132 0 0)
(1.53192 0 0)
(1.53254 0 0)
(1.53316 0 0)
(1.53378 0 0)
(1.53441 0 0)
(1.53503 0 0)
(1.53566 0 0)
(1.53629 0 0)
(1.53691 0 0)
(1.53754 0 0)
(1.53817 0 0)
(1.53879 0 0)
(1.53942 0 0)
(1.54005 0 0)
(1.54068 0 0)
(1.54131 0 0)
(1.54194 0 0)
(1.54257 0 0)
(1.5432 0 0)
(1.54383 0 0)
(1.54446 0 0)
(1.54509 0 0)
(1.54572 0 0)
(1.54635 0 0)
(1.54698 0 0)
(1.54762 0 0)
(1.54825 0 0)
(1.54888 0 0)
(1.54952 0 0)
(1.55015 0 0)
(1.55078 0 0)
(1.55142 0 0)
(1.55205 0 0)
(1.55269 0 0)
(1.55332 0 0)
(1.55396 0 0)
(1.5546 0 0)
(1.55523 0 0)
(1.55587 0 0)
(1.55651 0 0)
(1.55715 0 0)
(1.55779 0 0)
(1.55842 0 0)
(1.55906 0 0)
(1.5597 0 0)
(1.56034 0 0)
(1.56098 0 0)
(1.56162 0 0)
(1.56227 0 0)
(1.56291 0 0)
(1.56355 0 0)
(1.56419 0 0)
(1.56483 0 0)
(1.56548 0 0)
(1.56612 0 0)
(1.56676 0 0)
(1.56741 0 0)
(1.56805 0 0)
(1.5687 0 0)
(1.56934 0 0)
(1.56999 0 0)
(1.57064 0 0)
(1.57128 0 0)
(1.57193 0 0)
(1.57258 0 0)
(1.57323 0 0)
(1.57388 0 0)
(1.57452 0 0)
(1.57517 0 0)
(1.57582 0 0)
(1.57647 0 0)
(1.57712 0 0)
(1.57778 0 0)
(1.57843 0 0)
(1.57908 0 0)
(1.57973 0 0)
(1.58038 0 0)
(1.58104 0 0)
(1.58169 0 0)
(1.58235 0 0)
(1.583 0 0)
(1.58366 0 0)
(1.58431 0 0)
(1.58497 0 0)
(1.58562 0 0)
(1.58628 0 0)
(1.58694 0 0)
(1.5876 0 0)
(1.58825 0 0)
(1.58891 0 0)
(1.58957 0 0)
(1.59023 0 0)
(1.59089 0 0)
(1.59155 0 0)
(1.59221 0 0)
(1.59288 0 0)
(1.59354 0 0)
(1.5942 0 0)
(1.59486 0 0)
(1.59553 0 0)
(1.59619 0 0)
(1.59685 0 0)
(1.59752 0 0)
(1.59818 0 0)
(1.59885 0 0)
(1.59952 0 0)
(1.60018 0 0)
(1.60085 0 0)
(1.60152 0 0)
(1.60219 0 0)
(1.60286 0 0)
(1.60352 0 0)
(1.60419 0 0)
(1.60486 0 0)
(1.60554 0 0)
(1.60621 0 0)
(1.60688 0 0)
(1.60755 0 0)
(1.60822 0 0)
(1.6089 0 0)
(1.60957 0 0)
(1.61024 0 0)
(1.61092 0 0)
(1.61159 0 0)
(1.61227 0 0)
(1.61294 0 0)
(1.61362 0 0)
(1.6143 0 0)
(1.61497 0 0)
(1.61565 0 0)
(1.61633 0 0)
(1.61701 0 0)
(1.61769 0 0)
(1.61837 0 0)
(1.61905 0 0)
(1.61973 0 0)
(1.62041 0 0)
(1.62109 0 0)
(1.62178 0 0)
(1.62246 0 0)
(1.62314 0 0)
(1.62383 0 0)
(1.62451 0 0)
(1.6252 0 0)
(1.62588 0 0)
(1.62657 0 0)
(1.62725 0 0)
(1.62794 0 0)
(1.62863 0 0)
(1.62932 0 0)
(1.63 0 0)
(1.63069 0 0)
(1.63138 0 0)
(1.63207 0 0)
(1.63276 0 0)
(1.63345 0 0)
(1.63414 0 0)
(1.63484 0 0)
(1.63553 0 0)
(1.63622 0 0)
(1.63691 0 0)
(1.63761 0 0)
(1.6383 0 0)
(1.639 0 0)
(1.63969 0 0)
(1.64039 0 0)
(1.64108 0 0)
(1.64178 0 0)
(1.64248 0 0)
(1.64317 0 0)
(1.64387 0 0)
(1.64457 0 0)
(1.64527 0 0)
(1.64597 0 0)
(1.64667 0 0)
(1.64737 0 0)
(1.64807 0 0)
(1.64877 0 0)
(1.64947 0 0)
(1.65018 0 0)
(1.65088 0 0)
(1.65158 0 0)
(1.65229 0 0)
(1.65299 0 0)
(1.65369 0 0)
(1.6544 0 0)
(1.65511 0 0)
(1.65581 0 0)
(1.65652 0 0)
(1.65722 0 0)
(1.65793 0 0)
(1.65864 0 0)
(1.65935 0 0)
(1.66006 0 0)
(1.66077 0 0)
(1.66148 0 0)
(1.66219 0 0)
(1.6629 0 0)
(1.66361 0 0)
(1.66432 0 0)
(1.66503 0 0)
(1.66574 0 0)
(1.66646 0 0)
(1.66717 0 0)
(1.66788 0 0)
(1.6686 0 0)
(1.66931 0 0)
(1.67003 0 0)
(1.67074 0 0)
(1.67146 0 0)
(1.67218 0 0)
(1.67289 0 0)
(1.67361 0 0)
(1.67433 0 0)
(1.67505 0 0)
(1.67577 0 0)
(1.67648 0 0)
(1.6772 0 0)
(1.67792 0 0)
(1.67864 0 0)
(1.67936 0 0)
(1.68009 0 0)
(1.68081 0 0)
(1.68153 0 0)
(1.68225 0 0)
(1.68297 0 0)
(1.6837 0 0)
(1.68442 0 0)
(1.68514 0 0)
(1.68587 0 0)
(1.68659 0 0)
(1.68732 0 0)
(1.68804 0 0)
(1.68877 0 0)
(1.6895 0 0)
(1.69022 0 0)
(1.69095 0 0)
(1.69168 0 0)
(1.69241 0 0)
(1.69313 0 0)
(1.69386 0 0)
(1.69459 0 0)
(1.69532 0 0)
(1.69605 0 0)
(1.69678 0 0)
(1.69751 0 0)
(1.69824 0 0)
(1.69898 0 0)
(1.69971 0 0)
(1.70044 0 0)
(1.70117 0 0)
(1.7019 0 0)
(1.70264 0 0)
(1.70337 0 0)
(1.70411 0 0)
(1.70484 0 0)
(1.70557 0 0)
(1.70631 0 0)
(1.70705 0 0)
(1.70778 0 0)
(1.70852 0 0)
(1.70925 0 0)
(1.70999 0 0)
(1.71073 0 0)
(1.71147 0 0)
(1.7122 0 0)
(1.71294 0 0)
(1.71368 0 0)
(1.71442 0 0)
(1.71516 0 0)
(1.7159 0 0)
(1.71664 0 0)
(1.71738 0 0)
(1.71812 0 0)
(1.71886 0 0)
(1.7196 0 0)
(1.72034 0 0)
(1.72109 0 0)
(1.72183 0 0)
(1.72257 0 0)
(1.72331 0 0)
(1.72406 0 0)
(1.7248 0 0)
(1.72555 0 0)
(1.72629 0 0)
(1.72704 0 0)
(1.72778 0 0)
(1.72853 0 0)
(1.72927 0 0)
(1.73002 0 0)
(1.73076 0 0)
(1.73151 0 0)
(1.73226 0 0)
(1.733 0 0)
(1.73375 0 0)
(1.7345 0 0)
(1.73525 0 0)
(1.736 0 0)
(1.73675 0 0)
(1.73749 0 0)
(1.73824 0 0)
(1.73899 0 0)
(1.73974 0 0)
(1.74049 0 0)
(1.74124 0 0)
(1.742 0 0)
(1.74275 0 0)
(1.7435 0 0)
(1.74425 0 0)
(1.745 0 0)
(1.74575 0 0)
(1.74651 0 0)
(1.74726 0 0)
(1.74801 0 0)
(1.74877 0 0)
(1.74952 0 0)
(1.75027 0 0)
(1.75103 0 0)
(1.75178 0 0)
(1.75254 0 0)
(1.75329 0 0)
(1.75405 0 0)
(1.7548 0 0)
(1.75556 0 0)
(1.75632 0 0)
(1.75707 0 0)
(1.75783 0 0)
(1.75859 0 0)
(1.75934 0 0)
(1.7601 0 0)
(1.76086 0 0)
(1.76162 0 0)
(1.76237 0 0)
(1.76313 0 0)
(1.76389 0 0)
(1.76465 0 0)
(1.76541 0 0)
(1.76617 0 0)
(1.76693 0 0)
(1.76769 0 0)
(1.76844 0 0)
(1.7692 0 0)
(1.76996 0 0)
(1.77072 0 0)
(1.77149 0 0)
(1.77225 0 0)
(1.77301 0 0)
(1.77377 0 0)
(1.77453 0 0)
(1.77529 0 0)
(1.77605 0 0)
(1.77681 0 0)
(1.77757 0 0)
(1.77834 0 0)
(1.7791 0 0)
(1.77986 0 0)
(1.78062 0 0)
(1.78138 0 0)
(1.78215 0 0)
(1.78291 0 0)
(1.78367 0 0)
(1.78444 0 0)
(1.7852 0 0)
(1.78596 0 0)
(1.78673 0 0)
(1.78749 0 0)
(1.78825 0 0)
(1.78902 0 0)
(1.78978 0 0)
(1.79054 0 0)
(1.79131 0 0)
(1.79207 0 0)
(1.79283 0 0)
(1.7936 0 0)
(1.79436 0 0)
(1.79513 0 0)
(1.79589 0 0)
(1.79666 0 0)
(1.79742 0 0)
(1.79818 0 0)
(1.79895 0 0)
(1.79971 0 0)
(1.80048 0 0)
(1.80124 0 0)
(1.80201 0 0)
(1.80277 0 0)
(1.80354 0 0)
(1.8043 0 0)
(1.80507 0 0)
(1.80583 0 0)
(1.80659 0 0)
(1.80736 0 0)
(1.80812 0 0)
(1.80889 0 0)
(1.80965 0 0)
(1.81042 0 0)
(1.81118 0 0)
(1.81195 0 0)
(1.81271 0 0)
(1.81348 0 0)
(1.81424 0 0)
(1.81501 0 0)
(1.81577 0 0)
(1.81654 0 0)
(1.8173 0 0)
(1.81806 0 0)
(1.81883 0 0)
(1.81959 0 0)
(1.82036 0 0)
(1.82112 0 0)
(1.82189 0 0)
(1.82265 0 0)
(1.82341 0 0)
(1.82418 0 0)
(1.82494 0 0)
(1.82571 0 0)
(1.82647 0 0)
(1.82723 0 0)
(1.828 0 0)
(1.82876 0 0)
(1.82953 0 0)
(1.83029 0 0)
(1.83105 0 0)
(1.83182 0 0)
(1.83258 0 0)
(1.83334 0 0)
(1.83411 0 0)
(1.83487 0 0)
(1.83563 0 0)