/*--------------------------------*- C++ -*----------------------------------*\
| =========                 |                                                 |
| \\      /  F ield         | foam-extend: Open Source CFD                    |
|  \\    /   O peration     | Version:     3.1                                |
|   \\  /    A nd           | Web:         http://www.extend-project.de       |
|    \\/     M anipulation  |                                                 |
\*---------------------------------------------------------------------------*/
FoamFile
{
    version     2.0;
    format      ascii;
    class       volVectorField;
    location    "6";
    object      U;
}
// * * * * * * * * * * * * * * * * * * * * * * * * * * * * * * * * * * * * * //

dimensions      [0 1 -1 0 0 0 0];

internalField   nonuniform List<vector> 
2539
(
(0.681589 0 0)
(0.682292 0 0)
(0.683373 0 0)
(0.684423 0 0)
(0.685477 0 0)
(0.686533 0 0)
(0.687591 0 0)
(0.688652 0 0)
(0.689714 0 0)
(0.690778 0 0)
(0.691844 0 0)
(0.692912 0 0)
(0.693982 0 0)
(0.695054 0 0)
(0.696128 0 0)
(0.697205 0 0)
(0.698283 0 0)
(0.699363 0 0)
(0.700446 0 0)
(0.70153 0 0)
(0.702617 0 0)
(0.703706 0 0)
(0.704797 0 0)
(0.70589 0 0)
(0.706985 0 0)
(0.708082 0 0)
(0.709182 0 0)
(0.710283 0 0)
(0.711387 0 0)
(0.712493 0 0)
(0.713601 0 0)
(0.714712 0 0)
(0.715825 0 0)
(0.71694 0 0)
(0.718057 0 0)
(0.719176 0 0)
(0.720298 0 0)
(0.721422 0 0)
(0.722549 0 0)
(0.723677 0 0)
(0.724809 0 0)
(0.725942 0 0)
(0.727078 0 0)
(0.728216 0 0)
(0.729356 0 0)
(0.730499 0 0)
(0.731645 0 0)
(0.732793 0 0)
(0.733943 0 0)
(0.735096 0 0)
(0.736251 0 0)
(0.737408 0 0)
(0.738568 0 0)
(0.739731 0 0)
(0.740896 0 0)
(0.742064 0 0)
(0.743234 0 0)
(0.744407 0 0)
(0.745582 0 0)
(0.74676 0 0)
(0.747941 0 0)
(0.749124 0 0)
(0.75031 0 0)
(0.751498 0 0)
(0.752689 0 0)
(0.753883 0 0)
(0.75508 0 0)
(0.756279 0 0)
(0.757481 0 0)
(0.758686 0 0)
(0.759893 0 0)
(0.761103 0 0)
(0.762316 0 0)
(0.763532 0 0)
(0.764751 0 0)
(0.765972 0 0)
(0.767196 0 0)
(0.768423 0 0)
(0.769654 0 0)
(0.770886 0 0)
(0.772122 0 0)
(0.773361 0 0)
(0.774603 0 0)
(0.775847 0 0)
(0.777095 0 0)
(0.778346 0 0)
(0.779599 0 0)
(0.780856 0 0)
(0.782116 0 0)
(0.783378 0 0)
(0.784644 0 0)
(0.785913 0 0)
(0.787185 0 0)
(0.78846 0 0)
(0.789739 0 0)
(0.79102 0 0)
(0.792305 0 0)
(0.793593 0 0)
(0.794884 0 0)
(0.796178 0 0)
(0.797475 0 0)
(0.798776 0 0)
(0.80008 0 0)
(0.801388 0 0)
(0.802698 0 0)
(0.804012 0 0)
(0.80533 0 0)
(0.806651 0 0)
(0.807975 0 0)
(0.809302 0 0)
(0.810633 0 0)
(0.811968 0 0)
(0.813306 0 0)
(0.814647 0 0)
(0.815992 0 0)
(0.81734 0 0)
(0.818692 0 0)
(0.820048 0 0)
(0.821407 0 0)
(0.822769 0 0)
(0.824136 0 0)
(0.825505 0 0)
(0.826879 0 0)
(0.828256 0 0)
(0.829637 0 0)
(0.831022 0 0)
(0.83241 0 0)
(0.833802 0 0)
(0.835198 0 0)
(0.836597 0 0)
(0.838001 0 0)
(0.839408 0 0)
(0.840819 0 0)
(0.842233 0 0)
(0.843652 0 0)
(0.845075 0 0)
(0.846501 0 0)
(0.847931 0 0)
(0.849366 0 0)
(0.850804 0 0)
(0.852246 0 0)
(0.853693 0 0)
(0.855143 0 0)
(0.856597 0 0)
(0.858055 0 0)
(0.859518 0 0)
(0.860984 0 0)
(0.862455 0 0)
(0.86393 0 0)
(0.865408 0 0)
(0.866891 0 0)
(0.868379 0 0)
(0.86987 0 0)
(0.871366 0 0)
(0.872865 0 0)
(0.874369 0 0)
(0.875878 0 0)
(0.87739 0 0)
(0.878907 0 0)
(0.880429 0 0)
(0.881954 0 0)
(0.883484 0 0)
(0.885018 0 0)
(0.886557 0 0)
(0.8881 0 0)
(0.889648 0 0)
(0.8912 0 0)
(0.892757 0 0)
(0.894318 0 0)
(0.895883 0 0)
(0.897453 0 0)
(0.899028 0 0)
(0.900607 0 0)
(0.902191 0 0)
(0.90378 0 0)
(0.905373 0 0)
(0.90697 0 0)
(0.908573 0 0)
(0.91018 0 0)
(0.911792 0 0)
(0.913409 0 0)
(0.91503 0 0)
(0.916657 0 0)
(0.918288 0 0)
(0.919924 0 0)
(0.92217 0 0)
(0.924186 0 0)
(0.925016 0 0)
(0.925795 0 0)
(0.926572 0 0)
(0.92735 0 0)
(0.928127 0 0)
(0.928905 0 0)
(0.929683 0 0)
(0.930462 0 0)
(0.93124 0 0)
(0.932019 0 0)
(0.932798 0 0)
(0.933578 0 0)
(0.934357 0 0)
(0.935137 0 0)
(0.935918 0 0)
(0.936698 0 0)
(0.937479 0 0)
(0.93826 0 0)
(0.939042 0 0)
(0.939824 0 0)
(0.940607 0 0)
(0.94139 0 0)
(0.942173 0 0)
(0.942957 0 0)
(0.943741 0 0)
(0.944526 0 0)
(0.945311 0 0)
(0.946097 0 0)
(0.946883 0 0)
(0.94767 0 0)
(0.948457 0 0)
(0.949245 0 0)
(0.950034 0 0)
(0.950823 0 0)
(0.951613 0 0)
(0.952404 0 0)
(0.953196 0 0)
(0.953988 0 0)
(0.954781 0 0)
(0.955574 0 0)
(0.956369 0 0)
(0.957164 0 0)
(0.95796 0 0)
(0.958758 0 0)
(0.959556 0 0)
(0.960354 0 0)
(0.961154 0 0)
(0.961955 0 0)
(0.962757 0 0)
(0.96356 0 0)
(0.964364 0 0)
(0.965168 0 0)
(0.965974 0 0)
(0.966781 0 0)
(0.967589 0 0)
(0.968399 0 0)
(0.969209 0 0)
(0.970021 0 0)
(0.970833 0 0)
(0.971647 0 0)
(0.972462 0 0)
(0.973278 0 0)
(0.974096 0 0)
(0.974914 0 0)
(0.975734 0 0)
(0.976556 0 0)
(0.977378 0 0)
(0.978202 0 0)
(0.979027 0 0)
(0.979853 0 0)
(0.98068 0 0)
(0.981509 0 0)
(0.982339 0 0)
(0.983171 0 0)
(0.984004 0 0)
(0.984838 0 0)
(0.985673 0 0)
(0.98651 0 0)
(0.987348 0 0)
(0.988187 0 0)
(0.989028 0 0)
(0.98987 0 0)
(0.990713 0 0)
(0.991558 0 0)
(0.992404 0 0)
(0.993251 0 0)
(0.9941 0 0)
(0.99495 0 0)
(0.995801 0 0)
(0.996653 0 0)
(0.997507 0 0)
(0.998362 0 0)
(0.999219 0 0)
(1.00008 0 0)
(1.00094 0 0)
(1.0018 0 0)
(1.00266 0 0)
(1.00352 0 0)
(1.00438 0 0)
(1.00525 0 0)
(1.00612 0 0)
(1.00698 0 0)
(1.00785 0 0)
(1.00872 0 0)
(1.00959 0 0)
(1.01047 0 0)
(1.01134 0 0)
(1.01222 0 0)
(1.01309 0 0)
(1.01397 0 0)
(1.01485 0 0)
(1.01573 0 0)
(1.01661 0 0)
(1.01749 0 0)
(1.01837 0 0)
(1.01926 0 0)
(1.02014 0 0)
(1.02103 0 0)
(1.02192 0 0)
(1.02281 0 0)
(1.0237 0 0)
(1.02459 0 0)
(1.02548 0 0)
(1.02637 0 0)
(1.02727 0 0)
(1.02816 0 0)
(1.02906 0 0)
(1.02996 0 0)
(1.03086 0 0)
(1.03176 0 0)
(1.03266 0 0)
(1.03356 0 0)
(1.03446 0 0)
(1.03537 0 0)
(1.03627 0 0)
(1.03718 0 0)
(1.03808 0 0)
(1.03899 0 0)
(1.0399 0 0)
(1.04081 0 0)
(1.04172 0 0)
(1.04263 0 0)
(1.04355 0 0)
(1.04446 0 0)
(1.04538 0 0)
(1.04629 0 0)
(1.04721 0 0)
(1.04813 0 0)
(1.04905 0 0)
(1.04997 0 0)
(1.05089 0 0)
(1.05181 0 0)
(1.05273 0 0)
(1.05365 0 0)
(1.05458 0 0)
(1.0555 0 0)
(1.05643 0 0)
(1.05736 0 0)
(1.05829 0 0)
(1.05921 0 0)
(1.06014 0 0)
(1.06108 0 0)
(1.06201 0 0)
(1.06294 0 0)
(1.06387 0 0)
(1.06481 0 0)
(1.06574 0 0)
(1.06668 0 0)
(1.06762 0 0)
(1.06855 0 0)
(1.06949 0 0)
(1.07043 0 0)
(1.07137 0 0)
(1.07232 0 0)
(1.07326 0 0)
(1.0742 0 0)
(1.07515 0 0)
(1.07609 0 0)
(1.07704 0 0)
(1.07798 0 0)
(1.07893 0 0)
(1.07988 0 0)
(1.08083 0 0)
(1.08178 0 0)
(1.08273 0 0)
(1.08368 0 0)
(1.08463 0 0)
(1.08559 0 0)
(1.08654 0 0)
(1.0875 0 0)
(1.08845 0 0)
(1.08941 0 0)
(1.09037 0 0)
(1.09133 0 0)
(1.09228 0 0)
(1.09325 0 0)
(1.09421 0 0)
(1.09522 0 0)
(1.09175 0 0)
(1.14734 0 0)
(1.2156 0 0)
(1.26024 0 0)
(1.28952 0 0)
(1.31055 0 0)
(1.32696 0 0)
(1.34065 0 0)
(1.35266 0 0)
(1.36355 0 0)
(1.37366 0 0)
(1.38321 0 0)
(1.39231 0 0)
(1.40107 0 0)
(1.40953 0 0)
(1.41775 0 0)
(1.42576 0 0)
(1.43359 0 0)
(1.44125 0 0)
(1.44877 0 0)
(1.45616 0 0)
(1.46343 0 0)
(1.47059 0 0)
(1.47766 0 0)
(1.48464 0 0)
(1.49153 0 0)
(1.49835 0 0)
(1.50511 0 0)
(1.51179 0 0)
(1.51842 0 0)
(1.52499 0 0)
(1.53152 0 0)
(1.53799 0 0)
(1.54442 0 0)
(1.55081 0 0)
(1.55716 0 0)
(1.56347 0 0)
(1.56975 0 0)
(1.576 0 0)
(1.58222 0 0)
(1.58842 0 0)
(1.59458 0 0)
(1.60073 0 0)
(1.60686 0 0)
(1.61296 0 0)
(1.61905 0 0)
(1.62512 0 0)
(1.63118 0 0)
(1.63722 0 0)
(1.64326 0 0)
(1.64928 0 0)
(1.65529 0 0)
(1.6613 0 0)
(1.6673 0 0)
(1.67329 0 0)
(1.67928 0 0)
(1.68527 0 0)
(1.69126 0 0)
(1.69725 0 0)
(1.70324 0 0)
(1.70923 0 0)
(1.71523 0 0)
(1.72123 0 0)
(1.72724 0 0)
(1.73327 0 0)
(1.7393 0 0)
(1.74534 0 0)
(1.7514 0 0)
(1.75748 0 0)
(1.76358 0 0)
(1.76969 0 0)
(1.77584 0 0)
(1.78201 0 0)
(1.7882 0 0)
(1.79444 0 0)
(1.80071 0 0)
(1.80702 0 0)
(1.81337 0 0)
(1.81978 0 0)
(1.82625 0 0)
(1.83278 0 0)
(1.83939 0 0)
(1.84608 0 0)
(1.85287 0 0)
(1.85976 0 0)
(1.86679 0 0)
(1.87397 0 0)
(1.88132 0 0)
(1.88889 0 0)
(1.89671 0 0)
(1.90483 0 0)
(1.91333 0 0)
(1.92229 0 0)
(1.9318 0 0)
(1.942 0 0)
(1.95302 0 0)
(1.96503 0 0)
(1.97819 0 0)
(1.99265 0 0)
(2.00846 0 0)
(2.05089 0 0)
(2.07082 0 0)
(2.08948 0 0)
(2.10706 0 0)
(2.12372 0 0)
(2.13958 0 0)
(2.15473 0 0)
(2.16926 0 0)
(2.18323 0 0)
(2.1967 0 0)
(2.20972 0 0)
(2.22233 0 0)
(2.23456 0 0)
(2.24645 0 0)
(2.25803 0 0)
(2.26931 0 0)
(2.28032 0 0)
(2.29108 0 0)
(2.30161 0 0)
(2.31191 0 0)
(2.32201 0 0)
(2.33192 0 0)
(2.34164 0 0)
(2.35119 0 0)
(2.36058 0 0)
(2.36981 0 0)
(2.37889 0 0)
(2.38784 0 0)
(2.39665 0 0)
(2.40534 0 0)
(2.4139 0 0)
(2.42235 0 0)
(2.43069 0 0)
(2.43892 0 0)
(2.44705 0 0)
(2.45508 0 0)
(2.46302 0 0)
(2.47086 0 0)
(2.47862 0 0)
(2.4863 0 0)
(2.49389 0 0)
(2.5014 0 0)
(2.50884 0 0)
(2.5162 0 0)
(2.52349 0 0)
(2.53072 0 0)
(2.53787 0 0)
(2.54496 0 0)
(2.55199 0 0)
(2.55896 0 0)
(2.56586 0 0)
(2.57271 0 0)
(2.5795 0 0)
(2.58624 0 0)
(2.59292 0 0)
(2.59955 0 0)
(2.60613 0 0)
(2.61267 0 0)
(2.61915 0 0)
(2.62558 0 0)
(2.63197 0 0)
(2.63831 0 0)
(2.64461 0 0)
(2.65087 0 0)
(2.65708 0 0)
(2.66326 0 0)
(2.66939 0 0)
(2.67548 0 0)
(2.68154 0 0)
(2.68755 0 0)
(2.69353 0 0)
(2.69947 0 0)
(2.70538 0 0)
(2.71125 0 0)
(2.71709 0 0)
(2.72289 0 0)
(2.72866 0 0)
(2.7344 0 0)
(2.7401 0 0)
(2.74578 0 0)
(2.75142 0 0)
(2.75703 0 0)
(2.76262 0 0)
(2.76817 0 0)
(2.77369 0 0)
(2.77919 0 0)
(2.78466 0 0)
(2.7901 0 0)
(2.79551 0 0)
(2.8009 0 0)
(2.80626 0 0)
(2.81159 0 0)
(2.81689 0 0)
(2.82217 0 0)
(2.82744 0 0)
(2.83272 0 0)
(2.83802 0 0)
(2.84329 0 0)
(2.84838 0 0)
(2.85297 0 0)
(2.85674 0 0)
(2.86006 0 0)
(2.86336 0 0)
(2.86665 0 0)
(2.86994 0 0)
(2.87321 0 0)
(2.87647 0 0)
(2.87973 0 0)
(2.88297 0 0)
(2.88621 0 0)
(2.88943 0 0)
(2.89265 0 0)
(2.89586 0 0)
(2.89906 0 0)
(2.90224 0 0)
(2.90542 0 0)
(2.90859 0 0)
(2.91176 0 0)
(2.91491 0 0)
(2.91805 0 0)
(2.92119 0 0)
(2.92431 0 0)
(2.92743 0 0)
(2.93054 0 0)
(2.93364 0 0)
(2.93673 0 0)
(2.93981 0 0)
(2.94289 0 0)
(2.94595 0 0)
(2.94901 0 0)
(2.95206 0 0)
(2.9551 0 0)
(2.95813 0 0)
(2.96115 0 0)
(2.96417 0 0)
(2.96717 0 0)
(2.97017 0 0)
(2.97316 0 0)
(2.97614 0 0)
(2.97912 0 0)
(2.98208 0 0)
(2.98504 0 0)
(2.98799 0 0)
(2.99093 0 0)
(2.99386 0 0)
(2.99679 0 0)
(2.9997 0 0)
(3.00261 0 0)
(3.00551 0 0)
(3.0084 0 0)
(3.01129 0 0)
(3.01416 0 0)
(3.01703 0 0)
(3.01989 0 0)
(3.02274 0 0)
(3.02559 0 0)
(3.02842 0 0)
(3.03125 0 0)
(3.03407 0 0)
(3.03688 0 0)
(3.03968 0 0)
(3.04247 0 0)
(3.04526 0 0)
(3.04803 0 0)
(3.0508 0 0)
(3.05356 0 0)
(3.05632 0 0)
(3.05906 0 0)
(3.06179 0 0)
(3.06452 0 0)
(3.06724 0 0)
(3.06995 0 0)
(3.07265 0 0)
(3.07534 0 0)
(3.07802 0 0)
(3.0807 0 0)
(3.08336 0 0)
(3.08602 0 0)
(3.08866 0 0)
(3.0913 0 0)
(3.09393 0 0)
(3.09655 0 0)
(3.09916 0 0)
(3.10176 0 0)
(3.10435 0 0)
(3.10693 0 0)
(3.1095 0 0)
(3.11206 0 0)
(3.11461 0 0)
(3.11715 0 0)
(3.11968 0 0)
(3.1222 0 0)
(3.12471 0 0)
(3.1272 0 0)
(3.12969 0 0)
(3.13217 0 0)
(3.13463 0 0)
(3.13708 0 0)
(3.13952 0 0)
(3.14195 0 0)
(3.14436 0 0)
(3.14677 0 0)
(3.14916 0 0)
(3.15153 0 0)
(3.1539 0 0)
(3.15625 0 0)
(3.15858 0 0)
(3.1609 0 0)
(3.16321 0 0)
(3.1655 0 0)
(3.16778 0 0)
(3.17004 0 0)
(3.17228 0 0)
(3.17451 0 0)
(3.17672 0 0)
(3.17891 0 0)
(3.18108 0 0)
(3.18323 0 0)
(3.18536 0 0)
(3.18747 0 0)
(3.18956 0 0)
(3.19163 0 0)
(3.19368 0 0)
(3.19571 0 0)
(3.19773 0 0)
(3.19972 0 0)
(3.20171 0 0)
(3.20368 0 0)
(3.20564 0 0)
(3.20758 0 0)
(3.2095 0 0)
(3.21138 0 0)
(3.21322 0 0)
(3.21499 0 0)
(3.21667 0 0)
(3.21824 0 0)
(3.21967 0 0)
(3.22094 0 0)
(3.22205 0 0)
(3.223 0 0)
(3.22382 0 0)
(3.22458 0 0)
(3.22536 0 0)
(3.2263 0 0)
(3.22755 0 0)
(3.22928 0 0)
(3.23168 0 0)
(3.23488 0 0)
(3.239 0 0)
(3.24402 0 0)
(3.2498 0 0)
(3.25596 0 0)
(3.26191 0 0)
(3.26677 0 0)
(3.26943 0 0)
(3.26863 0 0)
(3.26318 0 0)
(3.25215 0 0)
(3.23516 0 0)
(3.21251 0 0)
(3.18523 0 0)
(3.15486 0 0)
(3.12318 0 0)
(3.09189 0 0)
(3.06239 0 0)
(3.03563 0 0)
(3.01214 0 0)
(2.99208 0 0)
(2.97534 0 0)
(2.96165 0 0)
(2.95064 0 0)
(2.94195 0 0)
(2.93519 0 0)
(2.93003 0 0)
(2.92619 0 0)
(2.92341 0 0)
(2.92149 0 0)
(2.92026 0 0)
(2.91957 0 0)
(2.91933 0 0)
(2.91944 0 0)
(2.91983 0 0)
(2.92045 0 0)
(2.92125 0 0)
(2.92219 0 0)
(2.92325 0 0)
(2.9244 0 0)
(2.92563 0 0)
(2.92692 0 0)
(2.92826 0 0)
(2.92964 0 0)
(2.93105 0 0)
(2.9325 0 0)
(2.93396 0 0)
(2.93545 0 0)
(2.93695 0 0)
(2.93846 0 0)
(2.93998 0 0)
(2.94152 0 0)
(2.94306 0 0)
(2.9446 0 0)
(2.94615 0 0)
(2.94771 0 0)
(2.94927 0 0)
(2.95084 0 0)
(2.9524 0 0)
(2.95397 0 0)
(2.95554 0 0)
(2.95711 0 0)
(2.95869 0 0)
(2.96026 0 0)
(2.96184 0 0)
(2.96341 0 0)
(2.96499 0 0)
(2.96657 0 0)
(2.96815 0 0)
(2.96972 0 0)
(2.9713 0 0)
(2.97288 0 0)
(2.97446 0 0)
(2.97604 0 0)
(2.97762 0 0)
(2.9792 0 0)
(2.98078 0 0)
(2.98236 0 0)
(2.98394 0 0)
(2.98552 0 0)
(2.9871 0 0)
(2.98867 0 0)
(2.99025 0 0)
(2.99183 0 0)
(2.99341 0 0)
(2.99499 0 0)
(2.99657 0 0)
(2.99815 0 0)
(2.99972 0 0)
(3.0013 0 0)
(3.00288 0 0)
(3.00445 0 0)
(3.00603 0 0)
(3.00761 0 0)
(3.00918 0 0)
(3.01076 0 0)
(3.01234 0 0)
(3.01391 0 0)
(3.01549 0 0)
(3.01706 0 0)
(3.01864 0 0)
(3.02021 0 0)
(3.02178 0 0)
(3.02336 0 0)
(3.02493 0 0)
(3.02651 0 0)
(3.02808 0 0)
(3.02965 0 0)
(3.03122 0 0)
(3.03279 0 0)
(3.03437 0 0)
(3.03594 0 0)
(3.03751 0 0)
(3.03908 0 0)
(3.04065 0 0)
(3.04222 0 0)
(3.04379 0 0)
(3.04536 0 0)
(3.04693 0 0)
(3.0485 0 0)
(3.05006 0 0)
(3.05163 0 0)
(3.0532 0 0)
(3.05477 0 0)
(3.05633 0 0)
(3.0579 0 0)
(3.05947 0 0)
(3.06103 0 0)
(3.0626 0 0)
(3.06416 0 0)
(3.06573 0 0)
(3.06729 0 0)
(3.06886 0 0)
(3.07042 0 0)
(3.07198 0 0)
(3.07355 0 0)
(3.07511 0 0)
(3.07667 0 0)
(3.07823 0 0)
(3.07979 0 0)
(3.08135 0 0)
(3.08292 0 0)
(3.08448 0 0)
(3.08604 0 0)
(3.08759 0 0)
(3.08915 0 0)
(3.09071 0 0)
(3.09227 0 0)
(3.09383 0 0)
(3.09539 0 0)
(3.09694 0 0)
(3.0985 0 0)
(3.10006 0 0)
(3.10161 0 0)
(3.10317 0 0)
(3.10473 0 0)
(3.10628 0 0)
(3.10784 0 0)
(3.10939 0 0)
(3.11094 0 0)
(3.1125 0 0)
(3.11405 0 0)
(3.11561 0 0)
(3.11716 0 0)
(3.11871 0 0)
(3.12026 0 0)
(3.12181 0 0)
(3.12337 0 0)
(3.12492 0 0)
(3.12647 0 0)
(3.12802 0 0)
(3.12957 0 0)
(3.13112 0 0)
(3.13267 0 0)
(3.13422 0 0)
(3.13576 0 0)
(3.13731 0 0)
(3.13886 0 0)
(3.14041 0 0)
(3.14196 0 0)
(3.1435 0 0)
(3.14505 0 0)
(3.1466 0 0)
(3.14814 0 0)
(3.14969 0 0)
(3.15123 0 0)
(3.15278 0 0)
(3.15433 0 0)
(3.15587 0 0)
(3.15741 0 0)
(3.15896 0 0)
(3.1605 0 0)
(3.16205 0 0)
(3.16359 0 0)
(3.16514 0 0)
(3.16668 0 0)
(3.16823 0 0)
(3.16977 0 0)
(3.17129 0 0)
(3.17278 0 0)
(3.17424 0 0)
(3.17575 0 0)
(3.17747 0 0)
(3.17961 0 0)
(3.182 0 0)
(3.18438 0 0)
(3.18677 0 0)
(3.18915 0 0)
(3.19154 0 0)
(3.19392 0 0)
(3.1963 0 0)
(3.19868 0 0)
(3.20106 0 0)
(3.20344 0 0)
(3.20581 0 0)
(3.20819 0 0)
(3.21056 0 0)
(3.21293 0 0)
(3.2153 0 0)
(3.21767 0 0)
(3.22004 0 0)
(3.22241 0 0)
(3.22478 0 0)
(3.22715 0 0)
(3.22951 0 0)
(3.23187 0 0)
(3.23424 0 0)
(3.2366 0 0)
(3.23896 0 0)
(3.24132 0 0)
(3.24368 0 0)
(3.24603 0 0)
(3.24839 0 0)
(3.25075 0 0)
(3.2531 0 0)
(3.25545 0 0)
(3.25781 0 0)
(3.26016 0 0)
(3.26251 0 0)
(3.26486 0 0)
(3.26721 0 0)
(3.26955 0 0)
(3.2719 0 0)
(3.27424 0 0)
(3.27659 0 0)
(3.27893 0 0)
(3.28127 0 0)
(3.28362 0 0)
(3.28596 0 0)
(3.2883 0 0)
(3.29063 0 0)
(3.29297 0 0)
(3.29531 0 0)
(3.29764 0 0)
(3.29998 0 0)
(3.30231 0 0)
(3.30465 0 0)
(3.30698 0 0)
(3.30931 0 0)
(3.31164 0 0)
(3.31397 0 0)
(3.3163 0 0)
(3.31863 0 0)
(3.32095 0 0)
(3.32328 0 0)
(3.3256 0 0)
(3.32793 0 0)
(3.33025 0 0)
(3.33257 0 0)
(3.3349 0 0)
(3.33722 0 0)
(3.33954 0 0)
(3.34186 0 0)
(3.34417 0 0)
(3.34649 0 0)
(3.34881 0 0)
(3.35112 0 0)
(3.35344 0 0)
(3.35575 0 0)
(3.35807 0 0)
(3.36039 0 0)
(3.3627 0 0)
(3.36501 0 0)
(3.36731 0 0)
(3.36959 0 0)
(3.37185 0 0)
(3.37414 0 0)
(3.37654 0 0)
(3.37914 0 0)
(3.38193 0 0)
(3.3846 0 0)
(3.3864 0 0)
(3.3863 0 0)
(3.38386 0 0)
(3.38115 0 0)
(3.38474 0 0)
(3.40562 0 0)
(3.45272 0 0)
(3.51472 0 0)
(3.53149 0 0)
(3.39107 0 0)
(3.0238 0 0)
(2.53075 0 0)
(2.10777 0 0)
(1.84711 0 0)
(1.71796 0 0)
(1.66095 0 0)
(1.63656 0 0)
(1.62563 0 0)
(1.62002 0 0)
(1.6165 0 0)
(1.61378 0 0)
(1.61139 0 0)
(1.60912 0 0)
(1.60691 0 0)
(1.60472 0 0)
(1.60256 0 0)
(1.60041 0 0)
(1.59827 0 0)
(1.59615 0 0)
(1.59404 0 0)
(1.59194 0 0)
(1.58985 0 0)
(1.58777 0 0)
(1.58571 0 0)
(1.58365 0 0)
(1.58161 0 0)
(1.57958 0 0)
(1.57756 0 0)
(1.57555 0 0)
(1.57356 0 0)
(1.57157 0 0)
(1.5696 0 0)
(1.56764 0 0)
(1.56568 0 0)
(1.56374 0 0)
(1.56181 0 0)
(1.55989 0 0)
(1.55798 0 0)
(1.55608 0 0)
(1.55419 0 0)
(1.55231 0 0)
(1.55044 0 0)
(1.54859 0 0)
(1.54674 0 0)
(1.5449 0 0)
(1.54307 0 0)
(1.54125 0 0)
(1.53945 0 0)
(1.53765 0 0)
(1.53586 0 0)
(1.53408 0 0)
(1.53231 0 0)
(1.53055 0 0)
(1.5288 0 0)
(1.52706 0 0)
(1.52532 0 0)
(1.5236 0 0)
(1.52189 0 0)
(1.52018 0 0)
(1.51848 0 0)
(1.5168 0 0)
(1.51512 0 0)
(1.51345 0 0)
(1.51179 0 0)
(1.51013 0 0)
(1.50849 0 0)
(1.50686 0 0)
(1.50523 0 0)
(1.50361 0 0)
(1.502 0 0)
(1.5004 0 0)
(1.4988 0 0)
(1.49722 0 0)
(1.49564 0 0)
(1.49407 0 0)
(1.4925 0 0)
(1.49095 0 0)
(1.4894 0 0)
(1.48786 0 0)
(1.48633 0 0)
(1.48481 0 0)
(1.48325 0 0)
(1.48216 0 0)
(1.48287 0 0)
(1.4841 0 0)
(1.48427 0 0)
(1.48409 0 0)
(1.48382 0 0)
(1.4835 0 0)
(1.4832 0 0)
(1.48298 0 0)
(1.48292 0 0)
(1.48297 0 0)
(1.48309 0 0)
(1.48325 0 0)
(1.48352 0 0)
(1.48394 0 0)
(1.48444 0 0)
(1.48505 0 0)
(1.48577 0 0)
(1.48656 0 0)
(1.48749 0 0)
(1.48851 0 0)
(1.48963 0 0)
(1.49085 0 0)
(1.49214 0 0)
(1.49354 0 0)
(1.49505 0 0)
(1.49669 0 0)
(1.49845 0 0)
(1.50033 0 0)
(1.50229 0 0)
(1.50435 0 0)
(1.50654 0 0)
(1.50886 0 0)
(1.51131 0 0)
(1.51383 0 0)
(1.51646 0 0)
(1.51922 0 0)
(1.52206 0 0)
(1.52503 0 0)
(1.52817 0 0)
(1.53143 0 0)
(1.53477 0 0)
(1.5383 0 0)
(1.54198 0 0)
(1.54577 0 0)
(1.5497 0 0)
(1.55377 0 0)
(1.55795 0 0)
(1.56228 0 0)
(1.56677 0 0)
(1.57141 0 0)
(1.57619 0 0)
(1.58113 0 0)
(1.58625 0 0)
(1.59157 0 0)
(1.59707 0 0)
(1.60273 0 0)
(1.60857 0 0)
(1.61461 0 0)
(1.62081 0 0)
(1.62722 0 0)
(1.63386 0 0)
(1.64075 0 0)
(1.64788 0 0)
(1.65522 0 0)
(1.6628 0 0)
(1.67059 0 0)
(1.67865 0 0)
(1.68702 0 0)
(1.69571 0 0)
(1.70473 0 0)
(1.71405 0 0)
(1.72372 0 0)
(1.73377 0 0)
(1.74417 0 0)
(1.75499 0 0)
(1.76625 0 0)
(1.77796 0 0)
(1.79018 0 0)
(1.80297 0 0)
(1.81639 0 0)
(1.83047 0 0)
(1.84521 0 0)
(1.86067 0 0)
(1.87697 0 0)
(1.89423 0 0)
(1.91256 0 0)
(1.93216 0 0)
(1.95331 0 0)
(1.97633 0 0)
(2.00172 0 0)
(2.03031 0 0)
(2.06346 0 0)
(2.10333 0 0)
(2.15359 0 0)
(2.22008 0 0)
(2.31183 0 0)
(2.44122 0 0)
(2.62163 0 0)
(2.85759 0 0)
(3.12049 0 0)
(3.40601 0 0)
(3.40961 0 0)
(3.4132 0 0)
(3.41679 0 0)
(3.42036 0 0)
(3.42393 0 0)
(3.42749 0 0)
(3.43105 0 0)
(3.43459 0 0)
(3.43813 0 0)
(3.44165 0 0)
(3.44517 0 0)
(3.44869 0 0)
(3.45219 0 0)
(3.45569 0 0)
(3.45918 0 0)
(3.46266 0 0)
(3.46613 0 0)
(3.4696 0 0)
(3.47306 0 0)
(3.47651 0 0)
(3.47996 0 0)
(3.4834 0 0)
(3.48683 0 0)
(3.49025 0 0)
(3.49367 0 0)
(3.49707 0 0)
(3.50048 0 0)
(3.50387 0 0)
(3.50726 0 0)
(3.51064 0 0)
(3.51402 0 0)
(3.51738 0 0)
(3.52075 0 0)
(3.5241 0 0)
(3.52745 0 0)
(3.53079 0 0)
(3.53412 0 0)
(3.53745 0 0)
(3.54077 0 0)
(3.54409 0 0)
(3.5474 0 0)
(3.5507 0 0)
(3.554 0 0)
(3.55729 0 0)
(3.56057 0 0)
(3.56385 0 0)
(3.56712 0 0)
(3.57038 0 0)
(3.57364 0 0)
(3.57689 0 0)
(3.58014 0 0)
(3.58338 0 0)
(3.58662 0 0)
(3.58984 0 0)
(3.59307 0 0)
(3.59628 0 0)
(3.5995 0 0)
(3.6027 0 0)
(3.6059 0 0)
(3.60909 0 0)
(3.61228 0 0)
(3.61546 0 0)
(3.61864 0 0)
(3.62181 0 0)
(3.62498 0 0)
(3.62814 0 0)
(3.63129 0 0)
(3.63444 0 0)
(3.63758 0 0)
(3.64072 0 0)
(3.64385 0 0)
(3.64698 0 0)
(3.6501 0 0)
(3.65322 0 0)
(3.65633 0 0)
(3.65943 0 0)
(3.66254 0 0)
(3.66563 0 0)
(3.66871 0 0)
(3.67178 0 0)
(3.67483 0 0)
(3.6779 0 0)
(3.68104 0 0)
(3.68428 0 0)
(3.68759 0 0)
(3.69072 0 0)
(3.69318 0 0)
(3.69449 0 0)
(3.69514 0 0)
(3.69578 0 0)
(3.69643 0 0)
(3.69708 0 0)
(3.69773 0 0)
(3.69837 0 0)
(3.69902 0 0)
(3.69966 0 0)
(3.70031 0 0)
(3.70095 0 0)
(3.7016 0 0)
(3.70224 0 0)
(3.70289 0 0)
(3.70353 0 0)
(3.70417 0 0)
(3.70482 0 0)
(3.70546 0 0)
(3.7061 0 0)
(3.70674 0 0)
(3.70738 0 0)
(3.70802 0 0)
(3.70866 0 0)
(3.7093 0 0)
(3.70994 0 0)
(3.71058 0 0)
(3.71122 0 0)
(3.71185 0 0)
(3.71249 0 0)
(3.71313 0 0)
(3.71376 0 0)
(3.7144 0 0)
(3.71503 0 0)
(3.71567 0 0)
(3.7163 0 0)
(3.71694 0 0)
(3.71757 0 0)
(3.7182 0 0)
(3.71884 0 0)
(3.71947 0 0)
(3.7201 0 0)
(3.72073 0 0)
(3.72136 0 0)
(3.72199 0 0)
(3.72262 0 0)
(3.72325 0 0)
(3.72387 0 0)
(3.7245 0 0)
(3.72513 0 0)
(3.72575 0 0)
(3.72638 0 0)
(3.727 0 0)
(3.72763 0 0)
(3.72825 0 0)
(3.72888 0 0)
(3.7295 0 0)
(3.73012 0 0)
(3.73074 0 0)
(3.73136 0 0)
(3.73198 0 0)
(3.7326 0 0)
(3.73322 0 0)
(3.73384 0 0)
(3.73445 0 0)
(3.73507 0 0)
(3.73569 0 0)
(3.7363 0 0)
(3.73692 0 0)
(3.73753 0 0)
(3.73814 0 0)
(3.73876 0 0)
(3.73937 0 0)
(3.73998 0 0)
(3.74059 0 0)
(3.7412 0 0)
(3.74181 0 0)
(3.74241 0 0)
(3.74302 0 0)
(3.74363 0 0)
(3.74423 0 0)
(3.74484 0 0)
(3.74544 0 0)
(3.74604 0 0)
(3.74665 0 0)
(3.74725 0 0)
(3.74785 0 0)
(3.74845 0 0)
(3.74905 0 0)
(3.74965 0 0)
(3.75024 0 0)
(3.75084 0 0)
(3.75143 0 0)
(3.75203 0 0)
(3.75262 0 0)
(3.75322 0 0)
(3.75381 0 0)
(3.7544 0 0)
(3.75499 0 0)
(3.75558 0 0)
(3.75617 0 0)
(3.75676 0 0)
(3.75735 0 0)
(3.75793 0 0)
(3.75852 0 0)
(3.7591 0 0)
(3.75969 0 0)
(3.76027 0 0)
(3.76085 0 0)
(3.76143 0 0)
(3.76201 0 0)
(3.76259 0 0)
(3.76317 0 0)
(3.76375 0 0)
(3.76433 0 0)
(3.76491 0 0)
(3.76548 0 0)
(3.76606 0 0)
(3.76663 0 0)
(3.76721 0 0)
(3.76778 0 0)
(3.76835 0 0)
(3.76892 0 0)
(3.76949 0 0)
(3.77006 0 0)
(3.77063 0 0)
(3.7712 0 0)
(3.77177 0 0)
(3.77234 0 0)
(3.7729 0 0)
(3.77347 0 0)
(3.77403 0 0)
(3.7746 0 0)
(3.77516 0 0)
(3.77572 0 0)
(3.77629 0 0)
(3.77685 0 0)
(3.77741 0 0)
(3.77797 0 0)
(3.77853 0 0)
(3.77908 0 0)
(3.77964 0 0)
(3.7802 0 0)
(3.78078 0 0)
(3.78136 0 0)
(3.78194 0 0)
(3.78247 0 0)
(3.78292 0 0)
(3.78328 0 0)
(3.78363 0 0)
(3.78421 0 0)
(3.78532 0 0)
(3.78717 0 0)
(3.78938 0 0)
(3.79062 0 0)
(3.78856 0 0)
(3.78111 0 0)
(3.76915 0 0)
(3.76008 0 0)
(3.76942 0 0)
(3.81638 0 0)
(3.90803 0 0)
(4.00668 0 0)
(3.99555 0 0)
(3.72533 0 0)
(3.1981 0 0)
(2.63355 0 0)
(2.22937 0 0)
(2.00756 0 0)
(1.90323 0 0)
(1.85769 0 0)
(1.83823 0 0)
(1.82974 0 0)
(1.82576 0 0)
(1.82361 0 0)
(1.82221 0 0)
(1.82112 0 0)
(1.82015 0 0)
(1.81924 0 0)
(1.81836 0 0)
(1.81749 0 0)
(1.81664 0 0)
(1.81579 0 0)
(1.81495 0 0)
(1.81411 0 0)
(1.81329 0 0)
(1.81246 0 0)
(1.81165 0 0)
(1.81084 0 0)
(1.81004 0 0)
(1.80925 0 0)
(1.80846 0 0)
(1.80768 0 0)
(1.80691 0 0)
(1.80614 0 0)
(1.80537 0 0)
(1.80462 0 0)
(1.80387 0 0)
(1.80312 0 0)
(1.80238 0 0)
(1.80165 0 0)
(1.80092 0 0)
(1.8002 0 0)
(1.79948 0 0)
(1.79877 0 0)
(1.79806 0 0)
(1.79736 0 0)
(1.79666 0 0)
(1.79597 0 0)
(1.79529 0 0)
(1.79461 0 0)
(1.79393 0 0)
(1.79326 0 0)
(1.79259 0 0)
(1.79193 0 0)
(1.79128 0 0)
(1.79062 0 0)
(1.78998 0 0)
(1.78933 0 0)
(1.7887 0 0)
(1.78806 0 0)
(1.78743 0 0)
(1.78681 0 0)
(1.78619 0 0)
(1.78557 0 0)
(1.78496 0 0)
(1.78435 0 0)
(1.78375 0 0)
(1.78315 0 0)
(1.78255 0 0)
(1.78196 0 0)
(1.78138 0 0)
(1.78079 0 0)
(1.78021 0 0)
(1.77964 0 0)
(1.77906 0 0)
(1.7785 0 0)
(1.77793 0 0)
(1.77737 0 0)
(1.77681 0 0)
(1.77626 0 0)
(1.77571 0 0)
(1.77517 0 0)
(1.77462 0 0)
(1.77408 0 0)
(1.77355 0 0)
(1.77302 0 0)
(1.77249 0 0)
(1.77196 0 0)
(1.77144 0 0)
(1.77092 0 0)
(1.77041 0 0)
(1.76989 0 0)
(1.76938 0 0)
(1.76888 0 0)
(1.76837 0 0)
(1.76788 0 0)
(1.76738 0 0)
(1.76688 0 0)
(1.76639 0 0)
(1.76591 0 0)
(1.76542 0 0)
(1.76494 0 0)
(1.76446 0 0)
(1.76399 0 0)
(1.76351 0 0)
(1.76304 0 0)
(1.76258 0 0)
(1.76211 0 0)
(1.76165 0 0)
(1.76119 0 0)
(1.76074 0 0)
(1.76028 0 0)
(1.75983 0 0)
(1.75938 0 0)
(1.75894 0 0)
(1.7585 0 0)
(1.75806 0 0)
(1.75762 0 0)
(1.75718 0 0)
(1.75675 0 0)
(1.75632 0 0)
(1.75589 0 0)
(1.75547 0 0)
(1.75505 0 0)
(1.75463 0 0)
(1.75421 0 0)
(1.75379 0 0)
(1.75338 0 0)
(1.75297 0 0)
(1.75256 0 0)
(1.75216 0 0)
(1.75175 0 0)
(1.75135 0 0)
(1.75095 0 0)
(1.75056 0 0)
(1.75016 0 0)
(1.74977 0 0)
(1.74938 0 0)
(1.74899 0 0)
(1.74861 0 0)
(1.74824 0 0)
(1.74796 0 0)
(1.74794 0 0)
(1.7482 0 0)
(1.74857 0 0)
(1.74899 0 0)
(1.74942 0 0)
(1.74987 0 0)
(1.75031 0 0)
(1.75076 0 0)
(1.75121 0 0)
(1.75166 0 0)
(1.75211 0 0)
(1.75256 0 0)
(1.75301 0 0)
(1.75346 0 0)
(1.75391 0 0)
(1.75436 0 0)
(1.75481 0 0)
(1.75526 0 0)
(1.75571 0 0)
(1.75616 0 0)
(1.75661 0 0)
(1.75706 0 0)
(1.75751 0 0)
(1.75796 0 0)
(1.75841 0 0)
(1.75887 0 0)
(1.75932 0 0)
(1.75977 0 0)
(1.76022 0 0)
(1.76067 0 0)
(1.76113 0 0)
(1.76158 0 0)
(1.76203 0 0)
(1.76248 0 0)
(1.76294 0 0)
(1.76339 0 0)
(1.76384 0 0)
(1.7643 0 0)
(1.76475 0 0)
(1.76521 0 0)
(1.76566 0 0)
(1.76611 0 0)
(1.76657 0 0)
(1.76702 0 0)
(1.76748 0 0)
(1.76793 0 0)
(1.76839 0 0)
(1.76884 0 0)
(1.7693 0 0)
(1.76975 0 0)
(1.77021 0 0)
(1.77067 0 0)
(1.77112 0 0)
(1.77158 0 0)
(1.77203 0 0)
(1.77249 0 0)
(1.77295 0 0)
(1.77341 0 0)
(1.77386 0 0)
(1.77432 0 0)
(1.77478 0 0)
(1.77524 0 0)
(1.77569 0 0)
(1.77615 0 0)
(1.77661 0 0)
(1.77707 0 0)
(1.77753 0 0)
(1.77799 0 0)
(1.77845 0 0)
(1.77891 0 0)
(1.77937 0 0)
(1.77983 0 0)
(1.78029 0 0)
(1.78075 0 0)
(1.78121 0 0)
(1.78167 0 0)
(1.78213 0 0)
(1.78259 0 0)
(1.78305 0 0)
(1.78351 0 0)
(1.78397 0 0)
(1.78444 0 0)
(1.7849 0 0)
(1.78536 0 0)
(1.78582 0 0)
(1.78629 0 0)
(1.78675 0 0)
(1.78721 0 0)
(1.78768 0 0)
(1.78814 0 0)
(1.7886 0 0)
(1.78907 0 0)
(1.78953 0 0)
(1.79 0 0)
(1.79046 0 0)
(1.79093 0 0)
(1.79139 0 0)
(1.79186 0 0)
(1.79232 0 0)
(1.79279 0 0)
(1.79326 0 0)
(1.79372 0 0)
(1.79419 0 0)
(1.79466 0 0)
(1.79512 0 0)
(1.79559 0 0)
(1.79606 0 0)
(1.79653 0 0)
(1.79699 0 0)
(1.79746 0 0)
(1.79793 0 0)
(1.7984 0 0)
(1.79887 0 0)
(1.79934 0 0)
(1.79981 0 0)
(1.80028 0 0)
(1.80075 0 0)
(1.80122 0 0)
(1.80169 0 0)
(1.80216 0 0)
(1.80263 0 0)
(1.8031 0 0)
(1.80357 0 0)
(1.80404 0 0)
(1.80451 0 0)
(1.80499 0 0)
(1.80546 0 0)
(1.80593 0 0)
(1.8064 0 0)
(1.80688 0 0)
(1.80735 0 0)
(1.80782 0 0)
(1.8083 0 0)
(1.80877 0 0)
(1.80924 0 0)
(1.80972 0 0)
(1.81019 0 0)
(1.81067 0 0)
(1.81114 0 0)
(1.81162 0 0)
(1.81209 0 0)
(1.81257 0 0)
(1.81305 0 0)
(1.81352 0 0)
(1.814 0 0)
(1.81448 0 0)
(1.81495 0 0)
(1.81543 0 0)
(1.81591 0 0)
(1.81638 0 0)
(1.81686 0 0)
(1.81734 0 0)
(1.81782 0 0)
(1.8183 0 0)
(1.81878 0 0)
(1.81926 0 0)
(1.81974 0 0)
(1.82021 0 0)
(1.82069 0 0)
(1.82117 0 0)
(1.82165 0 0)
(1.82214 0 0)
(1.82262 0 0)
(1.8231 0 0)
(1.82358 0 0)
(1.82406 0 0)
(1.82454 0 0)
(1.82502 0 0)
(1.8255 0 0)
(1.82599 0 0)
(1.82647 0 0)
(1.82695 0 0)
(1.82744 0 0)
(1.82792 0 0)
(1.8284 0 0)
(1.82889 0 0)
(1.82937 0 0)
(1.82985 0 0)
(1.83034 0 0)
(1.83082 0 0)
(1.83131 0 0)
(1.83179 0 0)
(1.83228 0 0)
(1.83276 0 0)
(1.83325 0 0)
(1.83373 0 0)
(1.83422 0 0)
(1.83471 0 0)
(1.83519 0 0)
(1.83568 0 0)
(1.83617 0 0)
(1.83665 0 0)
(1.83714 0 0)
(1.83763 0 0)
(1.83812 0 0)
(1.8386 0 0)
(1.83909 0 0)
(1.83958 0 0)
(1.84007 0 0)
(1.84056 0 0)
(1.84105 0 0)
(1.84154 0 0)
(1.84202 0 0)
(1.84251 0 0)
(1.843 0 0)
(1.84349 0 0)
(1.84398 0 0)
(1.84447 0 0)
(1.84496 0 0)
(1.84546 0 0)
(1.84595 0 0)
(1.84644 0 0)
(1.84693 0 0)
(1.84742 0 0)
(1.84791 0 0)
(1.8484 0 0)
(1.8489 0 0)
(1.84939 0 0)
(1.84988 0 0)
(1.85037 0 0)
(1.85086 0 0)
(1.85136 0 0)
(1.85185 0 0)
(1.85234 0 0)
(1.85284 0 0)
(1.85333 0 0)
(1.85382 0 0)
(1.85432 0 0)
(1.85481 0 0)
(1.85531 0 0)
(1.8558 0 0)
(1.8563 0 0)
(1.85679 0 0)
(1.85728 0 0)
(1.85778 0 0)
(1.85827 0 0)
(1.85877 0 0)
(1.85927 0 0)
(1.85976 0 0)
(1.86026 0 0)
(1.86075 0 0)
(1.86125 0 0)
(1.86174 0 0)
(1.86224 0 0)
(1.86274 0 0)
(1.86323 0 0)
(1.86373 0 0)
(1.86423 0 0)
(1.86473 0 0)
(1.86522 0 0)
(1.86572 0 0)
(1.86622 0 0)
(1.86672 0 0)
(1.86721 0 0)
(1.86771 0 0)
(1.86821 0 0)
(1.86871 0 0)
(1.86921 0 0)
(1.8697 0 0)
(1.8702 0 0)
(1.8707 0 0)
(1.8712 0 0)
(1.8717 0 0)
(1.8722 0 0)
(1.8727 0 0)
(1.8732 0 0)
(1.8737 0 0)
(1.8742 0 0)
(1.8747 0 0)
(1.8752 0 0)
(1.8757 0 0)
(1.8762 0 0)
(1.8767 0 0)
(1.8772 0 0)
(1.8777 0 0)
(1.8782 0 0)
(1.8787 0 0)
(1.8792 0 0)
(1.8797 0 0)
(1.8802 0 0)
(1.8807 0 0)
(1.8812 0 0)
(1.8817 0 0)
(1.88221 0 0)
(1.88271 0 0)
(1.88321 0 0)
(1.88371 0 0)
(1.88421 0 0)
(1.88471 0 0)
(1.88522 0 0)
(1.88572 0 0)
(1.88622 0 0)
(1.88672 0 0)
(1.88723 0 0)
(1.88773 0 0)
(1.88823 0 0)
(1.88873 0 0)
(1.88924 0 0)
(1.88974 0 0)
(1.89024 0 0)
(1.89075 0 0)
(1.89125 0 0)
(1.89175 0 0)
(1.89226 0 0)
(1.89276 0 0)
(1.89326 0 0)
(1.89377 0 0)
(1.89427 0 0)
(1.89477 0 0)
(1.89528 0 0)
(1.89578 0 0)
(1.89629 0 0)
(1.89679 0 0)
(1.89729 0 0)
(1.8978 0 0)
(1.8983 0 0)
(1.89881 0 0)
(1.89931 0 0)
(1.89982 0 0)
(1.90032 0 0)
(1.90082 0 0)
(1.90133 0 0)
(1.90183 0 0)
(1.90234 0 0)
(1.90284 0 0)
(1.90335 0 0)
(1.90385 0 0)
(1.90436 0 0)
(1.90486 0 0)
(1.90537 0 0)
(1.90587 0 0)
(1.90638 0 0)
(1.90688 0 0)
(1.90739 0 0)
(1.9079 0 0)
(1.9084 0 0)
(1.90891 0 0)
(1.90941 0 0)
(1.90992 0 0)
(1.91042 0 0)
(1.91093 0 0)
(1.91143 0 0)
(1.91194 0 0)
(1.91244 0 0)
(1.91295 0 0)
(1.91346 0 0)
(1.91396 0 0)
(1.91447 0 0)
(1.91497 0 0)
(1.91548 0 0)
(1.91598 0 0)
(1.91649 0 0)
(1.91699 0 0)
(1.9175 0 0)
(1.91801 0 0)
(1.91851 0 0)
(1.91902 0 0)
(1.91952 0 0)
(1.92003 0 0)
(1.92053 0 0)
(1.92104 0 0)
(1.92154 0 0)
(1.92205 0 0)
(1.92255 0 0)
(1.92306 0 0)
(1.92356 0 0)
(1.92407 0 0)
(1.92457 0 0)
(1.92508 0 0)
(1.92558 0 0)
(1.92609 0 0)
(1.92659 0 0)
(1.9271 0 0)
(1.9276 0 0)
(1.92811 0 0)
(1.92861 0 0)
(1.92912 0 0)
(1.92962 0 0)
(1.93013 0 0)
(1.93063 0 0)
(1.93114 0 0)
(1.93164 0 0)
(1.93214 0 0)
(1.93265 0 0)
(1.93315 0 0)
(1.93366 0 0)
(1.93416 0 0)
(1.93466 0 0)
(1.93517 0 0)
(1.93567 0 0)
(1.93617 0 0)
(1.93668 0 0)
(1.93718 0 0)
(1.93768 0 0)
(1.93819 0 0)
(1.93869 0 0)
(1.93919 0 0)
(1.9397 0 0)
(1.9402 0 0)
(1.9407 0 0)
(1.9412 0 0)
(1.9417 0 0)
(1.94221 0 0)
(1.94271 0 0)
(1.94321 0 0)
(1.94371 0 0)
(1.94421 0 0)
(1.94471 0 0)
(1.94522 0 0)
(1.94572 0 0)
(1.94622 0 0)
(1.94672 0 0)
(1.94722 0 0)
(1.94772 0 0)
(1.94822 0 0)
(1.94872 0 0)
(1.94922 0 0)
(1.94972 0 0)
(1.95022 0 0)
(1.95072 0 0)
(1.95122 0 0)
(1.95172 0 0)
(1.95222 0 0)
(1.95272 0 0)
(1.95322 0 0)
(1.95372 0 0)
(1.95421 0 0)
(1.95471 0 0)
(1.95521 0 0)
(1.95571 0 0)
(1.95621 0 0)
(1.95671 0 0)
(1.9572 0 0)
(1.9577 0 0)
(1.9582 0 0)
(1.9587 0 0)
(1.95919 0 0)
(1.95969 0 0)
(1.96019 0 0)
(1.96068 0 0)
(1.96118 0 0)
(1.96168 0 0)
(1.96217 0 0)
(1.96267 0 0)
(1.96316 0 0)
(1.96366 0 0)
(1.96416 0 0)
(1.96465 0 0)
(1.96515 0 0)
(1.96564 0 0)
(1.96614 0 0)
(1.96663 0 0)
(1.96713 0 0)
(1.96762 0 0)
(1.96812 0 0)
(1.96861 0 0)
(1.96911 0 0)
(1.9696 0 0)
(1.97009 0 0)
(1.97059 0 0)
(1.97108 0 0)
(1.97158 0 0)
(1.97207 0 0)
(1.97257 0 0)
(1.97306 0 0)
(1.97355 0 0)
(1.97405 0 0)
(1.97454 0 0)
(1.97503 0 0)
(1.97553 0 0)
(1.97602 0 0)
(1.97652 0 0)
(1.97701 0 0)