/*--------------------------------*- C++ -*----------------------------------*\
| =========                 |                                                 |
| \\      /  F ield         | foam-extend: Open Source CFD                    |
|  \\    /   O peration     | Version:     3.1                                |
|   \\  /    A nd           | Web:         http://www.extend-project.de       |
|    \\/     M anipulation  |                                                 |
\*---------------------------------------------------------------------------*/
FoamFile
{
    version     2.0;
    format      ascii;
    class       volScalarField;
    location    "8.5";
    object      k;
}
// * * * * * * * * * * * * * * * * * * * * * * * * * * * * * * * * * * * * * //

dimensions      [0 2 -2 0 0 0 0];

internalField   nonuniform List<scalar> 
119952
(
0.009822051
0.00799831
0.008394869
0.008559803
0.008562443
0.00864971
0.008798189
0.008652539
0.00801472
0.007268728
0.00676052
0.006414905
0.006174257
0.005995098
0.005853544
0.005739212
0.005645774
0.005567924
0.005505042
0.005479725
0.006028843
0.005871185
0.005861181
0.006514127
0.006360286
0.006301711
0.00623915
0.006099078
0.005756104
0.01140133
0.09751615
0.09597278
0.09339212
0.09069334
0.08806941
0.08548418
0.08286715
0.08018299
0.07743251
0.07474937
0.06756007
0.06400711
0.06260926
0.06237972
0.0627324
0.06331622
0.06392115
0.06442733
0.06475127
0.06849913
0.06855733
0.06832458
0.06779422
0.06702616
0.06607832
0.06502023
0.06392686
0.06288077
0.06214918
0.06173544
0.06145727
0.06146961
0.06175383
0.06215528
0.06235963
0.06185674
0.06065868
0.06311922
0.07117481
0.08069342
0.08332564
0.07847014
0.07142016
0.06594038
0.06222041
0.05871905
0.0546976
0.05011442
0.0458037
0.04242426
0.04010225
0.03855266
0.0375048
0.03676894
0.03621681
0.03576842
0.03538452
0.03506878
0.03486558
0.0346589
0.03446882
0.03443717
0.03445087
0.03434338
0.03417965
0.03398472
0.0335194
0.03268788
0.03220979
0.03187315
0.03163091
0.03148382
0.03143639
0.03148999
0.03163821
0.03186711
0.03216053
0.03250197
0.0328755
0.03326838
0.0336715
0.0340779
0.03448218
0.03488024
0.03526814
0.03564211
0.03599857
0.03633423
0.03664605
0.03693128
0.03718748
0.03741245
0.03760434
0.03776159
0.03788302
0.0379676
0.03801464
0.03802341
0.03799311
0.0379245
0.03781913
0.03767781
0.03750097
0.03728947
0.03704473
0.03676867
0.03646353
0.03613178
0.03577601
0.03539863
0.03500167
0.03458661
0.03415432
0.0337054
0.03324055
0.0327615
0.03227988
0.03181967
0.03134257
0.03082607
0.03028073
0.02971766
0.02915181
0.02859482
0.02805372
0.02753286
0.02703551
0.02656639
0.02612645
0.02571332
0.0253276
0.02497056
0.02464156
0.02433914
0.02406167
0.02380783
0.02357651
0.02336637
0.02317591
0.02300404
0.02284938
0.02271039
0.02258574
0.02247417
0.02237451
0.02228561
0.02220639
0.02213579
0.0220728
0.02201645
0.02196579
0.02191994
0.02187798
0.02183906
0.02180234
0.02176704
0.0217325
0.02169818
0.02166361
0.02162845
0.02159234
0.02155479
0.02151478
0.02147187
0.02142544
0.02137606
0.0213259
0.02077556
0.0197598
0.0191802
0.01878623
0.01847236
0.01819771
0.01794712
0.01771451
0.01749682
0.01729193
0.01709803
0.01691347
0.01673676
0.01656662
0.01640195
0.01624183
0.01608553
0.01593247
0.01578221
0.01563446
0.01548907
0.015346
0.01520531
0.0150672
0.01493196
0.01479998
0.01467167
0.01454757
0.01442824
0.01431444
0.01420703
0.01410718
0.01401547
0.01393083
0.01385197
0.01375986
0.01383971
0.01395902
0.01407769
0.01417958
0.01426232
0.01432584
0.0143709
0.014399
0.01441206
0.01441201
0.01440075
0.01438018
0.01435244
0.01431891
0.01427893
0.01423529
0.01418853
0.01413865
0.01408558
0.01402925
0.01396962
0.0139067
0.0138405
0.01377104
0.01369842
0.01362266
0.01354385
0.0134621
0.01337754
0.01329036
0.01320072
0.01310871
0.01301468
0.01291986
0.01308377
0.01306708
0.01300177
0.01288759
0.01275719
0.01262143
0.01248899
0.01236526
0.01225234
0.01215062
0.01205961
0.01197849
0.01190604
0.01184077
0.01178172
0.01172787
0.01167822
0.01163194
0.01158837
0.01154701
0.01150727
0.01146879
0.01143142
0.01139502
0.0113595
0.01132483
0.011291
0.01125801
0.0112258
0.01119432
0.01116347
0.01113326
0.01110365
0.0110746
0.01104608
0.01101801
0.01099033
0.01096301
0.01093605
0.01090945
0.01088323
0.01085743
0.01083218
0.01080789
0.01078576
0.01076626
0.01074425
0.01072018
0.01069672
0.01067368
0.01065104
0.01062954
0.0106098
0.01060262
0.01062515
0.01057784
0.01053269
0.01048731
0.01044129
0.01039521
0.01034988
0.01030657
0.01026643
0.0102303
0.01019884
0.01017246
0.01015127
0.01013516
0.01012392
0.01011724
0.01011476
0.0101161
0.01012087
0.01012869
0.01013919
0.01015205
0.01016695
0.01018362
0.0102018
0.01022128
0.01024184
0.01026331
0.01028552
0.01030832
0.01033157
0.01035515
0.01037894
0.01040284
0.01042674
0.01045057
0.01047423
0.01049766
0.0105208
0.01054361
0.01056602
0.01058801
0.01060954
0.01063056
0.01065106
0.01067101
0.01069038
0.01070917
0.01072736
0.01074495
0.01076192
0.01077827
0.010794
0.01080912
0.01082364
0.01083756
0.01085091
0.0108637
0.01087596
0.01088771
0.01089898
0.0109098
0.01092019
0.01093019
0.01093982
0.01094913
0.01095813
0.01096686
0.01097534
0.01098361
0.01099169
0.0109996
0.01100735
0.01101496
0.01102239
0.01102965
0.01103658
0.01104309
0.01104863
0.0110524
0.01105149
0.01103944
0.0109973
0.01092111
0.01107478
0.09819096
0.08928885
0.08713668
0.08753119
0.08869459
0.08986668
0.09073257
0.0912714
0.09148648
0.08995012
0.09112481
0.09434117
0.09811718
0.1017517
0.1049791
0.1078319
0.1103955
0.1128041
0.1304237
0.1317887
0.1336576
0.1359479
0.138875
0.142538
0.1468669
0.1517441
0.1570167
0.1625188
0.168045
0.1732589
0.1780773
0.182403
0.1861608
0.1892414
0.1915014
0.1927545
0.192812
0.1915466
0.1890211
0.1854776
0.1811938
0.1764292
0.17137
0.1661401
0.1608601
0.1556769
0.150587
0.1454952
0.1404418
0.1355136
0.130738
0.1261415
0.1217473
0.1175676
0.1136127
0.1098945
0.1150071
0.1116558
0.1086064
0.105868
0.1034188
0.1012378
0.09930908
0.0976123
0.09613101
0.09485945
0.09379134
0.09291915
0.09221483
0.09156075
0.09080294
0.08959688
0.08739912
0.08416775
0.08130682
0.08049332
0.08249513
0.08684046
0.09243337
0.09810267
0.1033913
0.1075444
0.108643
0.1050906
0.09770585
0.08896251
0.08083027
0.0740543
0.06887111
0.06510525
0.06240506
0.06042665
0.05889626
0.0576424
0.05660648
0.05573975
0.05498958
0.05435299
0.05381634
0.05334499
0.0528957
0.05241767
0.05187154
0.05119426
0.05044769
0.04977914
0.04921854
0.04877347
0.04844684
0.04823739
0.04814182
0.04815368
0.04826333
0.04845845
0.04872491
0.04904909
0.04941906
0.04982363
0.05025262
0.05069702
0.05114903
0.05160178
0.05204907
0.05248523
0.05290503
0.05330371
0.05367692
0.05402076
0.05433172
0.05460678
0.05484336
0.05503931
0.05519285
0.05530249
0.055367
0.05538547
0.05535767
0.05528386
0.05516451
0.05500017
0.05479162
0.0545399
0.05424643
0.05391308
0.05354211
0.05313614
0.0526978
0.05222951
0.05173323
0.05121045
0.05066254
0.05009129
0.0494998
0.04889477
0.04828111
0.04766045
0.0470354
0.04640874
0.04578331
0.0451624
0.04454948
0.04394787
0.04336049
0.04278974
0.04223771
0.04170635
0.04119681
0.04070946
0.04024393
0.03980297
0.03938827
0.03900091
0.03864227
0.03831296
0.03801073
0.03773403
0.03748151
0.03725169
0.03704304
0.03685405
0.03668322
0.03652909
0.03639023
0.03626527
0.03615289
0.03605178
0.03596068
0.03587838
0.03580373
0.03573576
0.03567378
0.03561594
0.03556038
0.03550572
0.03545076
0.03539439
0.03533544
0.0352728
0.03520527
0.03513313
0.03505543
0.03497295
0.03488277
0.03479922
0.03379095
0.03298436
0.03257549
0.03232715
0.03213993
0.03197261
0.03180809
0.03163934
0.03146357
0.03127985
0.03108802
0.03088824
0.03068079
0.03046599
0.0302441
0.0300154
0.02978014
0.02953853
0.02929079
0.02903711
0.02877771
0.02851279
0.02824258
0.02796734
0.02768732
0.02740282
0.02711414
0.02682161
0.02652557
0.02622638
0.02592433
0.02561965
0.02531268
0.0250031
0.02468996
0.02437634
0.02407796
0.02379464
0.02351813
0.02324551
0.02297551
0.02270745
0.02244104
0.02217622
0.02191301
0.02165154
0.02139192
0.02113429
0.02087875
0.0206254
0.02037445
0.02012603
0.01988027
0.01963731
0.01939729
0.0191604
0.01892685
0.01869683
0.0184706
0.0182484
0.01803052
0.01781721
0.01760876
0.01740533
0.01720711
0.01701405
0.0168263
0.01664364
0.01646652
0.0162929
0.01682576
0.01665085
0.01649825
0.01635132
0.01620407
0.01605655
0.01590933
0.01576253
0.01561637
0.01547131
0.01532771
0.01518589
0.0150462
0.014909
0.01477489
0.01464449
0.01451811
0.01439596
0.01427814
0.01416475
0.01405581
0.01395134
0.01385135
0.01375572
0.01366429
0.01357693
0.01349346
0.01341368
0.01333735
0.01326422
0.01319403
0.01312653
0.01306145
0.01299859
0.01293771
0.01287865
0.01282121
0.01276527
0.01271069
0.01265739
0.01260531
0.01255448
0.01250498
0.01245697
0.01241034
0.01236455
0.01231873
0.01227297
0.01222794
0.01218408
0.01214143
0.01210021
0.01206122
0.01202947
0.01199983
0.01196336
0.01192471
0.01188803
0.01185427
0.01182345
0.0117954
0.01176998
0.01174703
0.01172648
0.01170824
0.01169229
0.01167864
0.01166729
0.01165824
0.0116515
0.01164705
0.01164489
0.01164498
0.0116473
0.01165178
0.01165838
0.011667
0.01167756
0.01168997
0.0117041
0.01171985
0.01173708
0.01175567
0.01177547
0.01179635
0.01181816
0.01184074
0.01186397
0.0118877
0.01191178
0.01193609
0.0119605
0.01198489
0.01200914
0.01203317
0.01205687
0.01208016
0.01210297
0.01212523
0.01214689
0.0121679
0.01218821
0.01220781
0.01222667
0.01224477
0.0122621
0.01227866
0.01229445
0.01230948
0.01232377
0.01233735
0.01235025
0.01236249
0.01237412
0.01238517
0.0123957
0.01240573
0.01241532
0.01242452
0.01243337
0.01244192
0.0124502
0.01245829
0.01246618
0.01247398
0.01248163
0.01248927
0.01249676
0.01250431
0.01251158
0.01251886
0.01252537
0.01253136
0.0125349
0.01253579
0.01253173
0.0125314
0.01255282
0.01259908
0.07406802
0.07856754
0.08408273
0.09033949
0.09741065
0.105495
0.1149859
0.1264454
0.1408912
0.1597568
0.2374153
0.2573727
0.2746809
0.2888712
0.3027084
0.3159295
0.3281642
0.3393831
0.3522224
0.4227141
0.4319133
0.4374191
0.4406803
0.4419675
0.4407245
0.4374371
0.4328854
0.4275983
0.4219016
0.4153407
0.4088641
0.4023935
0.3956922
0.3885316
0.3807865
0.3724333
0.3635218
0.3542898
0.3434508
0.3327994
0.3224028
0.3124458
0.30303
0.2941835
0.2858819
0.2780858
0.2707371
0.2637747
0.2570557
0.2506115
0.2444536
0.2386053
0.2331336
0.2281309
0.2237064
0.2199552
0.2310838
0.2291443
0.2280917
0.2279682
0.2287643
0.2304579
0.2329816
0.2362274
0.240038
0.244208
0.2484991
0.2526805
0.2565639
0.25998
0.2628016
0.2648858
0.2660008
0.2658547
0.2642406
0.261158
0.2568492
0.2517112
0.2461272
0.2405075
0.2350076
0.2294553
0.2238118
0.2180496
0.2121533
0.206126
0.199986
0.1937691
0.1875419
0.181366
0.1752903
0.1693598
0.163607
0.15809
0.1525726
0.1473479
0.1424654
0.1379312
0.1337485
0.1299179
0.1264365
0.123291
0.1204741
0.1179722
0.1157526
0.1137898
0.1120331
0.11037
0.108672
0.1066816
0.1040623
0.1006943
0.09698827
0.0937706
0.09167328
0.0907975
0.09124389
0.09328113
0.09707549
0.1018583
0.1068886
0.1110926
0.1133894
0.1128817
0.1092945
0.1034418
0.09681553
0.09067982
0.08563333
0.08174596
0.07880544
0.07653426
0.07477242
0.07336224
0.07213647
0.07099307
0.06989867
0.06882048
0.06779855
0.0667868
0.0657263
0.06458865
0.06341243
0.06229291
0.06128422
0.06041092
0.0596858
0.05911385
0.05869383
0.0584187
0.05827673
0.05825327
0.05833241
0.05849919
0.05873994
0.05904153
0.05939097
0.05977622
0.06018684
0.06061362
0.06104828
0.0614832
0.06191143
0.06232666
0.06272313
0.06309564
0.06343948
0.06375058
0.06402538
0.06426091
0.06445462
0.06460438
0.06470833
0.06476506
0.06477373
0.06473401
0.06464586
0.06450936
0.06432476
0.06409251
0.06381339
0.06348858
0.06311981
0.06270936
0.06225976
0.06177354
0.06125286
0.06069938
0.0601146
0.05950064
0.05886082
0.05820021
0.05752387
0.05683545
0.05613922
0.05543965
0.05474089
0.05404687
0.05336124
0.05268731
0.05202805
0.05138605
0.05076354
0.05016234
0.04958392
0.04902949
0.04849987
0.04799579
0.04751796
0.04706667
0.04664112
0.04624037
0.0458657
0.04551807
0.04519765
0.04490244
0.04463091
0.04438157
0.04415287
0.04394323
0.04375113
0.0435751
0.04341376
0.04326574
0.04312973
0.04300426
0.0428869
0.04277557
0.0426681
0.04256346
0.04246101
0.04235983
0.04225887
0.04215714
0.04205366
0.04194752
0.0418378
0.04172366
0.04160446
0.04147934
0.04134796
0.04120344
0.04101577
0.0408632
0.04071732
0.0405657
0.04040478
0.04023365
0.0400522
0.03986051
0.03965872
0.039447
0.03922553
0.03899455
0.03875431
0.03850508
0.03824717
0.03798088
0.03770653
0.03742446
0.03713498
0.03683844
0.03653516
0.03622546
0.03590969
0.03558815
0.03526117
0.03492906
0.03459212
0.0342506
0.03390475
0.03355473
0.0332006
0.03284227
0.03247943
0.03211187
0.03174045
0.03136878
0.03100127
0.03063812
0.03027773
0.02991925
0.029562
0.02920553
0.02884964
0.02849427
0.02813948
0.02778539
0.02743216
0.02707997
0.02672902
0.02637951
0.02603167
0.02568573
0.02534196
0.0250006
0.02466192
0.02432618
0.02399369
0.02366476
0.02333975
0.02301908
0.02270316
0.02239259
0.02208781
0.02178958
0.02149739
0.02121114
0.0209298
0.02065411
0.02038206
0.02011807
0.01987625
0.01963485
0.01938807
0.01914169
0.01890161
0.01866962
0.01844546
0.01822834
0.01801767
0.01781321
0.01761492
0.01742275
0.01723652
0.01705593
0.01688055
0.01671013
0.01654472
0.01638433
0.01622898
0.01607872
0.01593358
0.01579357
0.01565887
0.01552977
0.01540612
0.01528769
0.01517429
0.01506569
0.01496165
0.01486188
0.01476615
0.01467416
0.01458564
0.01450034
0.014418
0.01433837
0.01426125
0.01418642
0.01411373
0.01404304
0.01397424
0.01390728
0.01384211
0.01377867
0.01371685
0.01365638
0.013597
0.01353857
0.01348131
0.01342542
0.01337111
0.01331835
0.01326717
0.01321715
0.01316897
0.01312322
0.01308058
0.01304095
0.01300382
0.01296889
0.01293623
0.01290607
0.01287861
0.01285397
0.01283224
0.01281346
0.01279767
0.01278491
0.01277518
0.01276846
0.01276472
0.01276393
0.01276602
0.01277091
0.01277852
0.01278875
0.01280148
0.0128166
0.01283395
0.01285341
0.01287483
0.01289804
0.01292288
0.01294919
0.01297679
0.01300552
0.01303521
0.01306568
0.01309677
0.01312831
0.01316015
0.01319214
0.01322412
0.01325597
0.01328755
0.01331875
0.01334947
0.01337959
0.01340904
0.01343775
0.01346563
0.01349264
0.01351873
0.01354387
0.01356802
0.01359117
0.01361331
0.01363444
0.01365456
0.0136737
0.01369187
0.01370911
0.01372546
0.01374096
0.01375565
0.0137696
0.01378284
0.01379546
0.01380748
0.013819
0.01383004
0.0138407
0.01385101
0.01386106
0.01387086
0.01388053
0.01389002
0.01389949
0.01390882
0.01391817
0.01392724
0.01393625
0.01394454
0.01395248
0.01395931
0.01396649
0.01397519
0.01399027
0.01401268
0.06704252
0.07236951
0.07719045
0.1113742
0.1457927
0.1866313
0.2133568
0.2392606
0.2625202
0.2835837
0.3017875
0.3172094
0.3319942
0.3466536
0.361331
0.3758492
0.3900174
0.4040945
0.4181443
0.432098
0.4459501
0.459698
0.4729932
0.4856418
0.4974887
0.5084546
0.518531
0.52748
0.5351208
0.5410756
0.5460912
0.5619584
0.5649035
0.5668256
0.5672385
0.5654936
0.5616304
0.5568378
0.5516999
0.5465213
0.5413594
0.5360066
0.5302563
0.5238593
0.5166399
0.5084942
0.4993967
0.489383
0.4785456
0.466995
0.4548698
0.4424046
0.4298354
0.4173802
0.4052079
0.3934283
0.3820963
0.3712229
0.3607917
0.3507811
0.3411702
0.3319438
0.3231058
0.3146855
0.3067457
0.2993787
0.2927034
0.2868913
0.2817866
0.2778366
0.2751227
0.2736928
0.2735475
0.27463
0.2768257
0.2799711
0.2838352
0.28813
0.2925591
0.2968634
0.300858
0.3044206
0.3074843
0.3099238
0.311399
0.3113791
0.3094511
0.3055952
0.3002007
0.2938547
0.2872347
0.2806804
0.2740614
0.2674226
0.2607651
0.2540583
0.2472705
0.2403887
0.2334374
0.2264516
0.2194729
0.2125508
0.2057198
0.1990306
0.1924959
0.1861623
0.1800094
0.1740667
0.168385
0.1630063
0.1579553
0.153246
0.1488847
0.1448701
0.1412024
0.1378725
0.1348539
0.1321185
0.1296184
0.127259
0.1249272
0.1224755
0.1196912
0.1163882
0.1126987
0.1090265
0.1056072
0.1025404
0.1000648
0.09849442
0.09814901
0.09921477
0.1017364
0.1054416
0.109565
0.1134163
0.1161425
0.1170078
0.1157101
0.1126008
0.1085042
0.1042793
0.1004949
0.09736803
0.09485574
0.09282211
0.09105344
0.08936962
0.08770994
0.0860142
0.0842521
0.08251384
0.08075807
0.07895086
0.07712379
0.07534787
0.07368182
0.0721675
0.07083562
0.06970463
0.06878075
0.06805916
0.06752599
0.06716123
0.06694216
0.06685205
0.06687404
0.06699107
0.06718634
0.06744364
0.06774959
0.06809229
0.06846095
0.06884566
0.06923742
0.06962814
0.07001048
0.07037775
0.0707239
0.07104357
0.07133214
0.07158568
0.07180088
0.07197493
0.07210545
0.07219054
0.07222886
0.07221956
0.07216205
0.07205586
0.07190059
0.07169601
0.07144202
0.07113886
0.07078738
0.07038913
0.06994619
0.06946104
0.06893601
0.0683728
0.06777283
0.06713827
0.0664726
0.06578066
0.06506779
0.06433881
0.0635986
0.06285212
0.06210412
0.06135895
0.06062057
0.05989251
0.0591779
0.05847948
0.05779962
0.05714026
0.05650299
0.05588911
0.0552997
0.0547356
0.0541975
0.05368576
0.05320044
0.05274151
0.05230884
0.05190179
0.05151924
0.05116135
0.05082821
0.05051855
0.0502308
0.04996345
0.04971494
0.0494838
0.04926867
0.04906784
0.04887893
0.04869963
0.04852867
0.0483647
0.04820638
0.04805248
0.04790174
0.04775296
0.04760497
0.04745668
0.04730705
0.04715511
0.04699995
0.04684075
0.04667675
0.04650738
0.04633227
0.04615046
0.04595985
0.04576285
0.04555948
0.04534965
0.04513314
0.04490943
0.04467803
0.04443863
0.04419107
0.04393528
0.04367128
0.04339913
0.04311896
0.04283096
0.04253532
0.0422323
0.04192215
0.04160515
0.0412816
0.0409518
0.04061605
0.04027464
0.03992787
0.03957603
0.03921939
0.03885821
0.03849273
0.03812312
0.03774955
0.03737209
0.03699074
0.03660541
0.03621602
0.03582265
0.03542612
0.03502841
0.03463216
0.03423854
0.0338472
0.03345751
0.03306898
0.03268128
0.03229421
0.03190766
0.03152161
0.03113611
0.03075122
0.03036705
0.02998373
0.0296014
0.02922025
0.02884047
0.02846227
0.02808587
0.02771153
0.02733948
0.02697002
0.02660343
0.02624003
0.02588018
0.02552427
0.02517271
0.02482605
0.02448386
0.02414614
0.02381311
0.02348515
0.02316238
0.02284503
0.02253288
0.0222268
0.02192707
0.0216348
0.02135046
0.02107385
0.02080445
0.02054195
0.02028623
0.02003728
0.01979519
0.01956006
0.01933194
0.01911078
0.0188965
0.01868897
0.01848804
0.01829352
0.01810531
0.01792331
0.01774742
0.01757752
0.01741343
0.01725478
0.01710124
0.01695291
0.01680979
0.01667189
0.01653948
0.01641255
0.01629086
0.01617411
0.01606203
0.01595432
0.01585071
0.01575093
0.01565469
0.01556177
0.0154719
0.0153849
0.01530056
0.01521873
0.01513927
0.01506206
0.01498696
0.01491387
0.01484262
0.01477305
0.01470503
0.01463858
0.01457382
0.01451089
0.01444984
0.0143908
0.0143341
0.01428007
0.01422835
0.01417864
0.01413116
0.01408628
0.01404431
0.01400543
0.0139698
0.01393752
0.01390868
0.01388332
0.01386148
0.01384321
0.01382852
0.01381742
0.01380991
0.01380597
0.01380554
0.01380858
0.013815
0.01382471
0.01383761
0.01385357
0.01387245
0.01389411
0.01391838
0.01394509
0.01397405
0.01400509
0.014038
0.01407258
0.01410864
0.01414598
0.01418439
0.01422367
0.01426363
0.01430408
0.01434483
0.0143857
0.01442654
0.01446717
0.01450746
0.01454726
0.01458646
0.01462492
0.01466256
0.01469927
0.01473498
0.01476962
0.01480313
0.01483547
0.0148666
0.0148965
0.01492514
0.01495254
0.01497868
0.0150036
0.01502733
0.01504989
0.01507133
0.0150917
0.01511105
0.01512943
0.01514692
0.01516357
0.01517946
0.01519465
0.01520921
0.01522322
0.01523675
0.01524986
0.01526264
0.01527512
0.01528741
0.01529949
0.01531146
0.01532324
0.01533493
0.01534637
0.01535777
0.01536913
0.01538097
0.0153941
0.01540935
0.01542743
0.04081973
0.04375724
0.04647475
0.05806428
0.07444514
0.1009364
0.1195427
0.1387696
0.1588073
0.1785685
0.1983692
0.2194726
0.2412734
0.2628491
0.2847217
0.3088454
0.3448608
0.3596306
0.3741737
0.3884924
0.402945
0.4166541
0.428833
0.4392478
0.4482165
0.4563099
0.4637309
0.4707101
0.4773016
0.4833582
0.4888165
0.4939184
0.4986357
0.5029754
0.507116
0.5112865
0.5158534
0.5210269
0.5268005
0.5325975
0.5389594
0.5451657
0.549862
0.5549788
0.5595049
0.5628306
0.564229
0.5644793
0.5643777
0.5643596
0.5645527
0.5648466
0.5649501
0.5645111
0.563127
0.5604539
0.5562645
0.5504654
0.5430678
0.5341517
0.5238542
0.5123672
0.4999765
0.4870169
0.4738195
0.4606553
0.4477101
0.4350936
0.4228621
0.4110403
0.3996267
0.3886105
0.3779909
0.3677967
0.3580769
0.3489026
0.3403811
0.332651
0.3258681
0.3201861
0.315777
0.3127805
0.3113016
0.3113861
0.3129482
0.3158199
0.3197804
0.3245175
0.3296418
0.3347928
0.3397137
0.3442723
0.3484672
0.3523725
0.3558914
0.3584322
0.358965
0.3566991
0.3516712
0.3446224
0.3365638
0.3284868
0.3203461
0.3122279
0.3041788
0.2962068
0.2882752
0.2803337
0.2723596
0.2643845
0.2564537
0.2485817
0.2407895
0.2330987
0.2255425
0.2181473
0.2109593
0.2039966
0.1972839
0.1908586
0.1847538
0.1789899
0.1735771
0.1685093
0.1637919
0.1594312
0.155423
0.1517484
0.1483813
0.145279
0.142369
0.1395678
0.136773
0.1338357
0.1306228
0.1271562
0.1235657
0.1199142
0.1162331
0.1126064
0.109211
0.1063678
0.1044432
0.1037066
0.1042383
0.1059396
0.1086465
0.1117939
0.114843
0.1172365
0.1185048
0.1184912
0.1174069
0.1156657
0.1136866
0.1117502
0.1099825
0.1083799
0.1068575
0.1052897
0.1035678
0.1016068
0.0993598
0.09695585
0.09446976
0.09192762
0.0893929
0.08693702
0.0846245
0.08250823
0.08062784
0.07900653
0.0776506
0.07655155
0.07568971
0.07503698
0.07456988
0.0742675
0.07410708
0.07406297
0.07411177
0.07423864
0.0744288
0.07466783
0.0749428
0.07524267
0.07555751
0.07587827
0.0761966
0.0765049
0.07679642
0.07706533
0.07730662
0.07751606
0.07769008
0.07782568
0.07792059
0.07797319
0.07798222
0.07794658
0.07786525
0.07773724
0.07756158
0.07733734
0.07706372
0.07674037
0.07636755
0.07594604
0.07547807
0.07496618
0.07441211
0.07381714
0.07318343
0.07251473
0.07181605
0.07109294
0.07035079
0.06959483
0.06883018
0.06806167
0.06729372
0.0665303
0.06577494
0.06503073
0.06430041
0.06358638
0.06289061
0.06221474
0.06156013
0.06092799
0.06031932
0.05973493
0.0591754
0.05864105
0.05813203
0.05764823
0.05718931
0.05675491
0.05634461
0.05595732
0.05559244
0.05524933
0.05492686
0.05462348
0.05433759
0.05406742
0.05381122
0.05356752
0.05333482
0.05311161
0.05289634
0.05268754
0.05248382
0.05228383
0.05208628
0.05188992
0.05169359
0.05149623
0.05129682
0.05109444
0.05088825
0.05067757
0.05046185
0.05024079
0.05001403
0.04978081
0.04954024
0.04929231
0.0490372
0.04877493
0.04850537
0.04822841
0.04794402
0.04765226
0.0473532
0.04704696
0.04673372
0.04641365
0.04608699
0.04575396
0.04541485
0.04506993
0.04471948
0.04436381
0.04400318
0.04363791
0.04326825
0.04289447
0.04251683
0.04213554
0.0417508
0.0413628
0.04097164
0.0405774
0.04018014
0.03977983
0.03937645
0.03897005
0.03856081
0.03814937
0.03773692
0.03732512
0.03691508
0.03650695
0.03610041
0.03569514
0.03529088
0.03488746
0.03448473
0.03408263
0.03368112
0.03328021
0.03287993
0.03248035
0.03208154
0.03168361
0.03128671
0.03089097
0.03049657
0.03010369
0.02971255
0.02932337
0.02893637
0.02855182
0.02816998
0.02779113
0.02741556
0.02704344
0.02667466
0.02630958
0.0259485
0.02559177
0.02523969
0.02489256
0.02455076
0.0242151
0.02388574
0.02356225
0.02324472
0.02293376
0.02263003
0.02233386
0.02204541
0.02176468
0.0214917
0.02122648
0.02096902
0.02071928
0.02047718
0.02024262
0.02001549
0.01979567
0.01958306
0.01937752
0.01917892
0.01898713
0.01880199
0.01862333
0.01845091
0.0182845
0.01812393
0.01796895
0.01781912
0.01767437
0.01753478
0.01740054
0.01727171
0.01714803
0.0170292
0.01691493
0.01680495
0.01669901
0.01659683
0.01649818
0.01640283
0.01631057
0.01622122
0.0161346
0.01605055
0.01596892
0.01588956
0.01581233
0.0157371
0.01566386
0.01559264
0.01552355
0.01545667
0.01539212
0.01533005
0.01527049
0.01521335
0.01515872
0.01510683
0.01505793
0.01501217
0.01496968
0.0149306
0.01489504
0.01486315
0.01483502
0.01481076
0.01479043
0.01477409
0.01476176
0.01475347
0.01474922
0.01474896
0.01475267
0.01476027
0.01477169
0.01478682
0.01480553
0.01482769
0.01485314
0.01488171
0.01491321
0.01494746
0.01498424
0.01502334
0.01506454
0.01510761
0.01515232
0.01519845
0.01524576
0.01529404
0.01534306
0.0153926
0.01544247
0.01549245
0.01554237
0.01559204
0.0156413
0.01569
0.01573798
0.01578511
0.01583128
0.01587638
0.01592031
0.01596301
0.01600438
0.01604439
0.01608297
0.0161201
0.01615576
0.01618995
0.01622267
0.01625395
0.01628381
0.01631229
0.01633943
0.01636528
0.0163899
0.01641335
0.0164357
0.01645701
0.01647735
0.01649681
0.01651546
0.01653338
0.01655064
0.01656734
0.01658355
0.01659935
0.0166148
0.01662999
0.01664492
0.0166597
0.01667434
0.01668899
0.01670376
0.01671899
0.01673507
0.01675206
0.01676965
0.01692934
0.0198404
0.02189025
0.03138167
0.04226172
0.05622078
0.06790927
0.08102127
0.09499218
0.1096205
0.1253842
0.1434734
0.1626773
0.1834732
0.2076387
0.2431908
0.2599243
0.2768497
0.2933781
0.3095081
0.3251814
0.3402943
0.354772
0.3685333
0.3814022
0.3931536
0.4037276
0.4146969
0.4252933
0.4356008
0.4455734
0.4546007
0.4618294
0.4672903
0.4711723
0.4736849
0.4749595
0.475449
0.4753103
0.4746385
0.4735317
0.4721909
0.4708482
0.4697241
0.4693441
0.4700695
0.4723918
0.476149
0.4814059
0.4880364
0.4957905
0.5044109
0.5133167
0.5222573
0.5307453
0.5381731
0.5441441
0.5495804
0.5550595
0.560897
0.5670919
0.5733999
0.5794242
0.5846877
0.5886385
0.5907743
0.5907519
0.5884124
0.5837585
0.576884
0.5679749
0.557294
0.5452028
0.5321528
0.5185929
0.5048813
0.4912586
0.4778784
0.464853
0.4522928
0.4401525
0.4283888
0.4169784
0.4059297
0.395296
0.3852334
0.3759674
0.3676693
0.3605379
0.354783
0.3506032
0.3481603
0.3475594
0.3487821
0.3516528
0.355912
0.3612569
0.3672597
0.3734102
0.3793103
0.3847911
0.3899179
0.3949642
0.4002618
0.4057041
0.4101403
0.4115665
0.4085643
0.4014093
0.3916501
0.3811819
0.3709504
0.3609048
0.3510991
0.3415426
0.3321933
0.3229792
0.3138362
0.3047402
0.295698
0.2867137
0.2777876
0.2689283
0.2601555
0.2515038
0.2430167
0.2347539
0.2267745
0.2191077
0.2117856
0.2048359
0.1982762
0.1921183
0.1863588
0.1809938
0.1760212
0.1714313
0.1672038
0.1633112
0.1597134
0.1563503
0.1531576
0.1500603
0.1469583
0.1437568
0.140422
0.1369625
0.1333633
0.1295973
0.1256641
0.1216359
0.1177038
0.1141266
0.1111434
0.1089469
0.1076991
0.1075261
0.1084066
0.1101761
0.1124707
0.1146411
0.1163735
0.1174657
0.1179111
0.1178485
0.1174809
0.1170173
0.1165743
0.116171
0.1157406
0.115166
0.1143085
0.1130419
0.1112738
0.1090155
0.1063962
0.1035635
0.1006287
0.09769104
0.09484652
0.09217876
0.08975233
0.0876086
0.08576586
0.08422296
0.08296419
0.08196349
0.08119411
0.08062815
0.08023327
0.07997672
0.07983822
0.07979731
0.07983403
0.07993061
0.08007447
0.08025432
0.08045912
0.08067847
0.08090296
0.08112427
0.08133522
0.08152959
0.08170208
0.08184813
0.08196372
0.08204568
0.08209241
0.0821024
0.08207409
0.08200591
0.08189638
0.08174398
0.08154715
0.08130429
0.08101405
0.08067534
0.08028678
0.07984964
0.07936612
0.07883771
0.07826602
0.07765353
0.07700431
0.07632354
0.07561677
0.07488941
0.07414664
0.0733934
0.0726343
0.07187354
0.07111489
0.07036169
0.06961685
0.06888292
0.06816211
0.06745625
0.06676694
0.06609562
0.06544355
0.06481184
0.06420139
0.06361289
0.06304683
0.0625035
0.06198297
0.06148519
0.06100999
0.06055703
0.06012572
0.05971541
0.05932537
0.05895461
0.05860175
0.05826556
0.05794492
0.05763848
0.05734475
0.05706225
0.05678948
0.05652495
0.05626719
0.05601479
0.05576636
0.0555206
0.05527624
0.05503211
0.05478711
0.05454022
0.05429053
0.05403721
0.05377959
0.05351712
0.05324941
0.05297606
0.05269664
0.05241064
0.05211785
0.0518182
0.05151167
0.05119826
0.05087802
0.05055107
0.05021758
0.04987777
0.04953187
0.04918016
0.04882292
0.04846046
0.0480931
0.04772117
0.04734498
0.04696487
0.04658114
0.0461941
0.04580403
0.0454112
0.04501585
0.04461819
0.0442184
0.04381664
0.043413
0.04300757
0.04260036
0.04219137
0.04178059
0.041368
0.04095366
0.04053776
0.04012078
0.03970347
0.03928684
0.03887165
0.03845815
0.03804624
0.0376357
0.03722634
0.036818
0.03641051
0.03600376
0.03559767
0.03519219
0.0347873
0.03438299
0.03397928
0.03357623
0.03317389
0.03277235
0.03237174
0.03197217
0.03157381
0.0311768
0.03078133
0.03038758
0.02999573
0.02960601
0.02921865
0.02883362
0.02845109
0.02807139
0.02769486
0.02732185
0.0269527
0.02658777
0.02622744
0.02587211
0.02552199
0.02517721
0.02483815
0.02450536
0.02417934
0.02386045
0.0235489
0.02324486
0.02294846
0.02265985
0.02237911
0.0221063
0.02184145
0.02158452
0.02133549
0.02109428
0.02086082
0.02063502
0.02041676
0.02020592
0.02000235
0.01980588
0.01961632
0.01943347
0.01925716
0.01908721
0.01892338
0.01876541
0.01861305
0.01846592
0.01832383
0.01818694
0.01805545
0.01792917
0.01780783
0.01769114
0.01757884
0.01747067
0.0173664
0.01726578
0.01716859
0.01707462
0.01698367
0.01689557
0.01681015
0.01672726
0.01664679
0.01656867
0.0164929
0.01641953
0.01634861
0.0162802
0.01621436
0.01615115
0.01609065
0.01603297
0.01597826
0.01592669
0.01587841
0.01583357
0.0157923
0.01575477
0.0157211
0.01569144
0.01566589
0.01564454
0.01562748
0.01561475
0.01560641
0.01560246
0.0156029
0.01560771
0.01561684
0.01563021
0.01564774
0.0156693
0.01569477
0.01572399
0.01575678
0.01579296
0.01583233
0.01587466
0.01591972
0.01596728
0.0160171
0.01606893
0.01612251
0.01617759
0.01623393
0.01629128
0.01634939
0.01640803
0.01646699
0.01652603
0.01658497
0.01664359
0.01670173
0.01675921
0.01681586
0.01687154
0.01692613
0.01697951
0.01703156
0.0170822
0.01713132
0.01717887
0.0172248
0.01726906
0.01731165
0.01735257
0.01739182
0.01742942
0.01746541
0.01749981
0.01753268
0.01756405
0.017594
0.01762257
0.01764985
0.01767589
0.01770078
0.01772459
0.01774739
0.01776929
0.01779036
0.01781071
0.01783044
0.01784964
0.01786838
0.01788675
0.01790483
0.01792269
0.0179405
0.01795835
0.01797649
0.01799514
0.01801414
0.01803227
0.004264288
0.01588962
0.02303265
0.03149863
0.04127955
0.05270392
0.06587746
0.08057997
0.09700624
0.1166824
0.1459354
0.1618113
0.1783242
0.1950381
0.211744
0.2282845
0.2445175
0.2602973
0.275434
0.2898804
0.3037715
0.3191711
0.3341277
0.3485571
0.3624716
0.3757675
0.3882656
0.3999502
0.4108098
0.4207219
0.4296075
0.4375942
0.4449104
0.4511906
0.4567049
0.4613088
0.4646632
0.4666035
0.466952
0.4656026
0.4631437
0.4598871
0.4561003
0.451949