/*--------------------------------*- C++ -*----------------------------------*\
| =========                 |                                                 |
| \\      /  F ield         | foam-extend: Open Source CFD                    |
|  \\    /   O peration     | Version:     3.1                                |
|   \\  /    A nd           | Web:         http://www.extend-project.de       |
|    \\/     M anipulation  |                                                 |
\*---------------------------------------------------------------------------*/
FoamFile
{
    version     2.0;
    format      ascii;
    class       volScalarField;
    location    "8.5";
    object      pd;
}
// * * * * * * * * * * * * * * * * * * * * * * * * * * * * * * * * * * * * * //

dimensions      [1 -1 -2 0 0 0 0];

internalField   nonuniform List<scalar> 
119952
(
7650.138
7633.834
7645.601
7664.081
7675.346
7675.307
7683.357
7698.327
7715.443
7729.175
7737.838
7741.579
7741.526
7738.342
7732.625
7725.085
7716.556
7707.904
7699.843
7692.147
7692.84
7689.058
7689.255
7698.546
7703.554
7711.994
7722.015
7734.203
7751.4
8449.523
5194.757
5132.588
5138.664
5165.11
5207.701
5269.298
5345.017
5431.852
5524.824
5600.897
5708.849
5810.753
5905.205
5996.044
6083.082
6167.331
6248.643
6327.409
6405.99
6531.843
6578.327
6639.358
6712.179
6784.13
6856.86
6931.264
7006.751
7082.856
7158.605
7230.701
7310.171
7390.03
7467.164
7541.4
7608.624
7653.995
7661.393
7634.473
7631.265
7643.304
7657.502
7670.059
7674.901
7674.654
7683.407
7700.902
7718.076
7731.905
7740.943
7744.829
7744.705
7741.318
7735.271
7727.307
7718.298
7709.192
7700.9
7694.259
7690.277
7688.694
7689.765
7694.767
7702.351
7711
7721.238
7732.47
7743.186
7750.715
7761.241
7772.686
7783.355
7793.17
7802.066
7810.043
7817.145
7823.451
7829.058
7834.086
7838.656
7842.89
7846.912
7850.841
7854.781
7858.823
7863.041
7867.496
7872.233
7877.28
7882.653
7888.356
7894.38
7900.704
7907.303
7914.147
7921.197
7928.413
7935.75
7943.164
7950.607
7958.038
7965.418
7972.712
7979.886
7986.91
7993.755
8000.399
8006.822
8013.006
8018.939
8024.61
8030.01
8035.132
8039.97
8044.516
8048.756
8052.697
8056.509
8060.147
8063.64
8066.675
8069.467
8072.046
8074.431
8076.635
8078.675
8080.57
8082.335
8083.989
8085.548
8087.016
8088.405
8089.735
8091.018
8092.256
8093.46
8094.641
8095.808
8096.965
8098.142
8099.331
8100.526
8101.741
8102.986
8104.266
8105.585
8106.949
8108.363
8109.829
8111.352
8112.931
8114.57
8116.269
8118.03
8119.852
8121.737
8123.685
8125.693
8127.765
8129.896
8132.081
8134.314
8136.597
8138.91
8141.224
8143.513
8145.794
8148.819
8152.597
8154.187
8156.743
8159.375
8161.997
8164.611
8167.219
8169.816
8172.4
8174.968
8177.519
8180.048
8182.553
8185.031
8187.479
8189.894
8192.274
8194.616
8196.918
8199.177
8201.392
8203.561
8205.68
8207.746
8209.755
8211.701
8213.578
8215.374
8217.078
8218.665
8220.103
8221.329
8222.234
8222.573
8221.692
8219.831
8226.363
8231.228
8235.396
8239.202
8242.776
8246.193
8249.503
8252.738
8255.916
8259.049
8262.146
8265.212
8268.254
8271.266
8274.249
8277.22
8280.175
8283.112
8286.032
8288.936
8291.821
8294.686
8297.532
8300.355
8303.155
8305.93
8308.68
8311.402
8314.097
8316.765
8319.407
8322.023
8324.582
8327.248
8340.519
8335.768
8333.936
8336.62
8338.509
8340.127
8342.077
8344.062
8345.945
8347.783
8349.592
8351.36
8353.058
8354.716
8356.319
8357.86
8359.341
8360.761
8362.119
8363.416
8364.649
8365.825
8366.94
8367.996
8368.995
8369.941
8370.833
8371.674
8372.466
8373.211
8373.911
8374.567
8375.183
8375.758
8376.296
8376.799
8377.271
8377.713
8378.131
8378.529
8378.916
8379.302
8379.705
8380.147
8380.606
8380.874
8380.688
8380.261
8379.928
8379.671
8379.435
8379.229
8378.956
8377.962
8374.92
8376.486
8376.645
8376.169
8375.804
8375.424
8375.016
8374.61
8374.21
8373.818
8373.427
8373.036
8372.644
8372.253
8371.86
8371.463
8371.062
8370.656
8370.245
8369.829
8369.406
8368.978
8368.542
8368.1
8367.651
8367.194
8366.729
8366.254
8365.77
8365.275
8364.768
8364.25
8363.717
8363.171
8362.609
8362.03
8361.434
8360.819
8360.184
8359.529
8358.853
8358.154
8357.432
8356.686
8355.916
8355.121
8354.3
8353.453
8352.58
8351.68
8350.753
8349.798
8348.816
8347.806
8346.769
8345.702
8344.608
8343.484
8342.33
8341.147
8339.932
8338.685
8337.404
8336.087
8334.732
8333.336
8331.894
8330.401
8328.851
8327.236
8325.546
8323.767
8321.882
8319.869
8317.697
8315.327
8312.703
8309.746
8306.341
8302.291
8297.275
8291.008
8284.843
8287.727
8316.902
6575.973
6483.907
6405.674
6345.056
6295.46
6260.326
6240.957
6225.676
6217.944
6201.357
6215.899
6225.885
6236.421
6246.022
6254.262
6258.654
6258.873
6253.372
6246.62
6237.008
6204.355
6168.154
6129.215
6083.232
6030.542
5971.421
5906.61
5838.486
5765.082
5678.421
5597.521
5515.251
5434.373
5357.08
5285.534
5222.825
5174.004
5143.048
5117.091
5117.202
5144.777
5195.766
5263.776
5345.409
5436.42
5534.205
5633.591
5735.171
5833.33
5925.469
6014.784
6100.754
6183.401
6263.323
6340.927
6416.311
6516.05
6594.295
6660.488
6726.963
6797.235
6870.42
6944.72
7019.101
7093.276
7167.398
7240.818
7312.354
7382.444
7449.482
7510.419
7561.572
7597.345
7613.967
7617.3
7618.029
7634.145
7656.869
7666.403
7675.147
7690.854
7712.338
7729.124
7737.639
7742.108
7746.652
7749.575
7748.865
7744.223
7736.576
7726.991
7716.563
7706.465
7697.588
7690.639
7686.384
7685.23
7687.317
7692.56
7700.222
7709.686
7720.36
7731.601
7742.702
7753.472
7764.659
7775.923
7786.597
7796.37
7805.161
7812.974
7819.857
7825.896
7831.209
7835.928
7840.185
7844.105
7847.829
7851.489
7855.187
7859.011
7863.036
7867.32
7871.908
7876.824
7882.082
7887.682
7893.614
7899.855
7906.38
7913.153
7920.137
7927.289
7934.564
7941.919
7949.307
7956.687
7964.019
7971.269
7978.404
7985.393
7992.21
7998.83
8005.236
8011.408
8017.336
8023.008
8028.417
8033.554
8038.416
8043
8047.314
8051.377
8055.223
8058.86
8062.211
8065.305
8068.175
8070.835
8073.3
8075.586
8077.71
8079.687
8081.529
8083.259
8084.889
8086.431
8087.898
8089.295
8090.647
8091.946
8093.205
8094.431
8095.655
8096.86
8098.059
8099.271
8100.492
8101.731
8102.996
8104.291
8105.623
8106.997
8108.416
8109.886
8111.41
8112.99
8114.622
8116.314
8118.067
8119.874
8121.753
8123.69
8125.685
8127.738
8129.844
8132.002
8134.211
8136.448
8138.75
8141.082
8143.467
8145.89
8148.409
8151.71
8153.247
8155.89
8158.52
8161.115
8163.705
8166.286
8168.86
8171.425
8173.978
8176.516
8179.034
8181.53
8184.002
8186.445
8188.857
8191.236
8193.579
8195.885
8198.152
8200.376
8202.556
8204.688
8206.77
8208.798
8210.766
8212.668
8214.493
8216.229
8217.857
8219.347
8220.66
8221.75
8222.592
8223.356
8224.817
8228.055
8232.107
8235.858
8239.478
8242.969
8246.347
8249.645
8252.881
8256.066
8259.21
8262.322
8265.406
8268.464
8271.499
8274.514
8277.51
8280.488
8283.448
8286.391
8289.317
8292.223
8295.109
8297.974
8300.816
8303.633
8306.425
8309.189
8311.925
8314.63
8317.31
8319.951
8322.566
8325.319
8328.551
8334.881
8337.433
8337.392
8337.55
8338.931
8340.902
8342.979
8344.959
8346.815
8348.604
8350.372
8352.125
8353.835
8355.475
8357.048
8358.551
8360.002
8361.395
8362.724
8363.991
8365.197
8366.344
8367.432
8368.458
8369.431
8370.352
8371.22
8372.038
8372.806
8373.528
8374.205
8374.839
8375.432
8375.985
8376.503
8376.985
8377.435
8377.856
8378.251
8378.625
8378.981
8379.321
8379.644
8379.931
8380.146
8380.237
8380.159
8379.943
8379.685
8379.435
8379.183
8378.905
8378.54
8377.925
8377
8376.29
8376.048
8375.959
8375.759
8375.414
8374.997
8374.571
8374.158
8373.751
8373.343
8372.934
8372.523
8372.113
8371.702
8371.289
8370.873
8370.453
8370.029
8369.6
8369.167
8368.727
8368.283
8367.831
8367.373
8366.907
8366.433
8365.95
8365.458
8364.955
8364.441
8363.915
8363.375
8362.821
8362.251
8361.665
8361.062
8360.44
8359.799
8359.137
8358.454
8357.749
8357.021
8356.269
8355.493
8354.692
8353.866
8353.014
8352.135
8351.231
8350.299
8349.341
8348.355
8347.341
8346.3
8345.231
8344.134
8343.007
8341.852
8340.667
8339.451
8338.203
8336.922
8335.605
8334.251
8332.856
8331.417
8329.929
8328.386
8326.78
8325.103
8323.341
8321.484
8319.506
8317.392
8315.103
8312.616
8309.873
8306.878
8303.638
8300.444
8297.844
8296.931
8298.221
8302.224
4196.493
4323.934
4487.321
4673.937
4884.418
5119.854
5379.775
5663.319
5966.392
6280.402
6609.896
6946.023
7276.622
7590.895
7884.415
8148.323
8373.559
8553.731
8680.988
8769.767
8809.146
8807.91
8770.699
8701.452
8602.397
8479.997
8340.227
8188.27
8031.512
7861.539
7693.939
7523.649
7356.041
7193.619
7039.042
6894.789
6763.531
6648.252
6541.202
6449.973
6376.457
6319.238
6275.887
6244.576
6224.514
6215.041
6213.458
6216.392
6223.677
6235.207
6246.457
6256.543
6264.455
6268.693
6268.522
6264.916
6246.279
6223.344
6196.452
6161.309
6116.964
6064.644
6005.437
5939.959
5868.719
5792.155
5710.803
5626.099
5540.185
5454.272
5370.537
5291.309
5218.797
5155.446
5104.375
5069.941
5057.855
5071.002
5108.708
5169.082
5248.728
5340.575
5440.58
5545.227
5650.702
5753.413
5851.451
5945.374
6035.131
6120.61
6202.092
6280.482
6356.321
6431.804
6509.582
6581.967
6648.986
6716.472
6786.937
6859.624
6932.936
7005.909
7078.079
7149.274
7219.193
7287.071
7352.322
7413.671
7468.615
7515.545
7552.835
7575.731
7586.68
7599.284
7620.315
7641.903
7662.445
7681.041
7692.275
7700.92
7716.003
7737.07
7756.738
7765.019
7762.852
7756.844
7748.954
7739.575
7728.598
7716.707
7705.163
7695.059
7687.195
7682.36
7681.103
7683.331
7688.666
7696.609
7706.565
7717.85
7729.845
7741.95
7753.858
7765.746
7777.371
7788.276
7798.194
7807.046
7814.841
7821.633
7827.518
7832.628
7837.11
7841.103
7844.722
7848.12
7851.484
7854.894
7858.439
7862.2
7866.24
7870.602
7875.312
7880.382
7885.812
7891.591
7897.697
7904.101
7910.769
7917.659
7924.73
7931.937
7939.234
7946.576
7953.92
7961.227
7968.46
7975.588
7982.579
7989.406
7996.047
8002.48
8008.69
8014.664
8020.39
8025.862
8031.072
8036.016
8040.693
8045.104
8049.261
8053.177
8056.861
8060.298
8063.485
8066.444
8069.196
8071.755
8074.137
8076.358
8078.432
8080.374
8082.198
8083.917
8085.543
8087.088
8088.554
8089.958
8091.312
8092.625
8093.913
8095.156
8096.39
8097.611
8098.868
8100.12
8101.381
8102.661
8103.966
8105.303
8106.676
8108.09
8109.549
8111.061
8112.63
8114.24
8115.922
8117.662
8119.468
8121.321
8123.234
8125.205
8127.234
8129.319
8131.457
8133.644
8135.87
8138.14
8140.46
8142.826
8145.284
8147.818
8150.65
8153.332
8155.82
8158.306
8160.847
8163.407
8165.963
8168.512
8171.053
8173.582
8176.096
8178.592
8181.067
8183.517
8185.94
8188.334
8190.697
8193.026
8195.319
8197.574
8199.79
8201.964
8204.093
8206.175
8208.208
8210.186
8212.104
8213.957
8215.737
8217.435
8219.046
8220.571
8222.039
8223.535
8225.24
8227.418
8230.236
8233.516
8236.92
8240.293
8243.61
8246.878
8250.108
8253.302
8256.463
8259.596
8262.704
8265.79
8268.856
8271.904
8274.934
8277.948
8280.945
8283.926
8286.89
8289.836
8292.764
8295.672
8298.559
8301.422
8304.259
8307.07
8309.853
8312.609
8315.327
8318.011
8320.663
8323.262
8325.775
8328.077
8329.732
8331.319
8333.408
8335.841
8338.341
8340.724
8342.944
8345.026
8346.997
8348.884
8350.708
8352.479
8354.193
8355.843
8357.427
8358.954
8360.41
8361.799
8363.123
8364.385
8365.585
8366.727
8367.816
8368.814
8369.767
8370.67
8371.52
8372.321
8373.073
8373.779
8374.44
8375.057
8375.632
8376.169
8376.668
8377.131
8377.562
8377.961
8378.332
8378.676
8378.995
8379.285
8379.541
8379.749
8379.893
8379.954
8379.911
8379.761
8379.54
8379.294
8379.034
8378.749
8378.437
8378.176
8378.069
8377.838
8377.368
8376.787
8376.212
8375.675
8375.169
8374.687
8374.228
8373.784
8373.349
8372.916
8372.485
8372.056
8371.627
8371.198
8370.767
8370.334
8369.898
8369.457
8369.013
8368.563
8368.109
8367.648
8367.181
8366.707
8366.225
8365.734
8365.235
8364.725
8364.204
8363.671
8363.125
8362.565
8361.991
8361.4
8360.792
8360.166
8359.521
8358.856
8358.17
8357.462
8356.732
8355.979
8355.201
8354.4
8353.573
8352.722
8351.844
8350.941
8350.011
8349.055
8348.071
8347.061
8346.024
8344.959
8343.867
8342.746
8341.597
8340.419
8339.211
8337.972
8336.702
8335.397
8334.057
8332.679
8331.259
8329.794
8328.279
8326.707
8325.072
8323.364
8321.573
8319.687
8317.691
8315.571
8313.319
8310.939
8308.472
8306.021
8303.779
8301.999
8300.975
8301.099
8302.633
3510.455
3496.432
3500.833
3513.434
3539.778
3591.689
3659.653
3752.704
3865.208
3944.016
3994.343
4070.237
4176.942
4310.623
4468.894
4650.3
4853.227
5078.487
5326.723
5596.722
5886.352
6192.369
6511.281
6834.575
7156.304
7467.36
7757.822
8017.646
8238.472
8415.77
8551.039
8643.939
8686.316
8680.108
8634.597
8558.054
8454.726
8332.069
8195.494
8048.285
7893.472
7733.12
7569.64
7405.45
7243.46
7086.601
6937.732
6799.544
6674.241
6563.153
6466.796
6386.03
6320.681
6270.146
6233.483
6209.426
6196.543
6193.293
6197.868
6208.313
6222.337
6238.05
6253.906
6268.152
6279.114
6285.44
6285.79
6279.318
6265.217
6242.68
6212.682
6173.639
6125.408
6068.787
6004.857
5934.383
5858.01
5776.54
5690.936
5601.946
5511.174
5420.646
5332.255
5247.86
5169.338
5098.732
5039.706
4998.745
4983.071
4996.288
5038.096
5106.331
5195.315
5298.44
5409.636
5523.721
5636.393
5744.932
5847.946
5944.85
6035.817
6121.351
6202.36
6279.708
6354.797
6427.999
6499.307
6568.621
6636.505
6704.624
6774.131
6844.832
6915.908
6986.621
7056.409
7124.93
7191.799
7256.274
7317.577
7374.712
7426.269
7471.225
7508.156
7535.38
7555.977
7576.338
7599.227
7622.981
7645.176
7662.793
7676.024
7691.922
7714.433
7735.639
7748.074
7754.2
7758.255
7758.574
7753.084
7742.636
7729.473
7715.549
7702.327
7691.026
7682.499
7677.343
7675.997
7678.458
7684.353
7693.119
7704.038
7716.395
7729.45
7742.687
7755.71
7768.357
7780.387
7791.502
7801.493
7810.295
7817.932
7824.481
7830.057
7834.822
7838.952
7842.548
7845.788
7848.853
7851.87
7854.968
7858.225
7861.724
7865.536
7869.701
7874.243
7879.171
7884.482
7890.164
7896.191
7902.533
7909.152
7916.005
7923.048
7930.235
7937.52
7944.855
7952.196
7959.504
7966.741
7973.876
7980.878
7987.72
7994.379
8000.834
8007.07
8013.075
8018.839
8024.353
8029.613
8034.611
8039.34
8043.802
8048.003
8051.955
8055.665
8059.132
8062.359
8065.361
8068.156
8070.762
8073.191
8075.459
8077.58
8079.57
8081.44
8083.204
8084.874
8086.459
8087.969
8089.416
8090.811
8092.162
8093.48
8094.769
8096.046
8097.322
8098.557
8099.81
8101.084
8102.377
8103.693
8105.038
8106.415
8107.831
8109.288
8110.805
8112.365
8113.987
8115.653
8117.376
8119.16
8121
8122.899
8124.855
8126.867
8128.933
8131.053
8133.221
8135.437
8137.701
8140.017
8142.386
8144.824
8147.336
8149.894
8152.358
8154.825
8157.34
8159.885
8162.432
8164.97
8167.499
8170.018
8172.526
8175.019
8177.496
8179.953
8182.388
8184.798
8187.18
8189.534
8191.858
8194.148
8196.403
8198.622
8200.803
8202.945
8205.044
8207.099
8209.108
8211.067
8212.975
8214.828
8216.629
8218.382
8220.107
8221.843
8223.658
8225.652
8227.942
8230.627
8233.659
8236.86
8240.088
8243.305
8246.506
8249.693
8252.863
8256.013
8259.144
8262.258
8265.357
8268.44
8271.508
8274.562
8277.601
8280.627
8283.637
8286.632
8289.61
8292.57
8295.51
8298.429
8301.325
8304.196
8307.038
8309.857
8312.633
8315.374
8318.071
8320.733
8323.327
8325.857
8328.306
8330.928
8333.591
8335.913
8337.902
8339.804
8341.754
8343.739
8345.709
8347.627
8349.486
8351.289
8353.041
8354.734
8356.365
8357.931
8359.433
8360.869
8362.242
8363.551
8364.797
8365.979
8367.099
8368.153
8369.183
8370.144
8371.043
8371.885
8372.678
8373.411
8374.099
8374.744
8375.343
8375.902
8376.421
8376.902
8377.346
8377.755
8378.131
8378.474
8378.786
8379.066
8379.311
8379.517
8379.676
8379.779
8379.813
8379.767
8379.638
8379.445
8379.217
8378.97
8378.706
8378.437
8378.163
8377.835
8377.381
8376.862
8376.363
8375.909
8375.476
8375.043
8374.606
8374.168
8373.733
8373.301
8372.87
8372.44
8372.01
8371.577
8371.143
8370.707
8370.267
8369.823
8369.376
8368.924
8368.468
8368.006
8367.538
8367.064
8366.583
8366.095
8365.598
8365.092
8364.577
8364.05
8363.512
8362.96
8362.395
8361.816
8361.22
8360.608
8359.978
8359.329
8358.66
8357.971
8357.261
8356.528
8355.773
8354.994
8354.191
8353.363
8352.51
8351.632
8350.729
8349.8
8348.844
8347.862
8346.854
8345.82
8344.758
8343.67
8342.554
8341.411
8340.24
8339.04
8337.811
8336.552
8335.262
8333.938
8332.579
8331.183
8329.747
8328.266
8326.737
8325.154
8323.513
8321.806
8320.029
8318.175
8316.245
8314.247
8312.204
8310.168
8308.215
8306.478
8305.071
8304.199
8303.954
8304.537
4357.187
4253.184
4149.595
4051.583
3951.458
3854.882
3773.769
3698.275
3635.725
3582.967
3542.043
3513.111
3495.83
3491.374
3500.27
3524.222
3570.866
3628.519
3697.94
3773.19
3848.117
3931.174
4029.664
4146.69
4285.73
4445.54
4625.568
4826.428
5049.665
5295.384
5562.567
5850.184
6156.018
6475.368
6800.982
7122.942
7432.321
7718.764
7972.548
8185.459
8353.535
8473.633
8542.656
8576.455
8570.811
8527.331
8450.487
8348.349
8229.635
8098.122
7955.996
7805.683
7649.369
7489.439
7328.314
7168.682
7013.632
6866.247
6729.693
6606.499
6498.294
6405.487
6328.325
6267.04
6221.157
6189.575
6170.899
6163.698
6166.446
6177.301
6194.149
6214.882
6237.415
6259.633
6279.726
6295.963
6306.76
6310.703
6306.756
6294.233
6272.294
6240.909
6199.474
6148.288
6087.584
6018.14
5941.226
5858.079
5769.725
5677.165
5581.418
5483.924
5386.511
5291.127
5199.101
5111.605
5029.685
4957.288
4903.585
4879.249
4890.616
4937.191
5015.167
5117.628
5235.495
5360.617
5486.58
5608.795
5724.738
5833.097
5933.668
6026.977
6113.589
6194.558
6271.04
6344.184
6414.607
6483.341
6551.275
6618.754
6686.31
6754.532
6823.489
6892.755
6961.683
7029.633
7096.099
7160.583
7222.424
7280.91
7335.322
7384.891
7428.785
7466.441
7497.846
7524.368
7548.802
7573.574
7597.979
7620.396
7640.672
7660.064
7681.172
7702.903
7720.591
7733.783
7744.138
7750.462
7751.187
7747.157
7739.242
7727.663
7714.146
7700.804
7689.123
7680.062
7674.409
7672.71
7675.197
7681.617
7691.229
7703.18
7716.61
7730.763
7745.086
7759.05
7772.347
7784.755
7796.059
7806.094
7814.801
7822.224
7828.458
7833.628
7837.89
7841.467
7844.512
7847.271
7849.911
7852.536
7855.297
7858.243
7861.464
7865.044
7869.021
7873.404
7878.199
7883.407
7889.009
7894.978
7901.279
7907.87
7914.705
7921.739
7928.924
7936.215
7943.557
7950.902
7958.212
7965.453
7972.592
7979.6
7986.449
7993.116
7999.583
8005.836
8011.869
8017.669
8023.221
8028.521
8033.558
8038.319
8042.807
8047.028
8050.993
8054.71
8058.186
8061.428
8064.45
8067.269
8069.899
8072.355
8074.652
8076.805
8078.827
8080.731
8082.531
8084.235
8085.854
8087.399
8088.88
8090.306
8091.687
8093.031
8094.348
8095.644
8096.929
8098.204
8099.485
8100.773
8102.076
8103.405
8104.761
8106.142
8107.566
8109.037
8110.542
8112.098
8113.712
8115.38
8117.102
8118.881
8120.716
8122.607
8124.555
8126.559
8128.616
8130.726
8132.886
8135.096
8137.354
8139.661
8142.017
8144.423
8146.87
8149.333
8151.803
8154.295
8156.809
8159.331
8161.854
8164.372
8166.883
8169.386
8171.879
8174.358
8176.821
8179.265
8181.688
8184.087
8186.46
8188.806
8191.123
8193.409
8195.663
8197.884
8200.07
8202.22
8204.333
8206.409
8208.445
8210.443
8212.403
8214.327
8216.22
8218.095
8219.972
8221.886
8223.884
8226.032
8228.399
8231.035
8233.917
8236.95
8240.048
8243.17
8246.302
8249.438
8252.571
8255.697
8258.814
8261.922
8265.02
8268.107
8271.184
8274.251
8277.305
8280.348
8283.377
8286.393
8289.393
8292.376
8295.34
8298.283
8301.202
8304.095
8306.96
8309.789
8312.591
8315.355
8318.074
8320.751
8323.371
8325.941
8328.457
8330.92
8333.258
8335.45
8337.565
8339.681
8341.807
8343.912
8345.96
8347.939
8349.845
8351.683
8353.458
8355.169
8356.814
8358.393
8359.904
8361.349
8362.728
8364.041
8365.289
8366.471
8367.591
8368.65
8369.653
8370.593
8371.475
8372.305
8373.081
8373.814
8374.494
8375.127
8375.703
8376.24
8376.739
8377.201
8377.625
8378.012
8378.361
8378.675
8378.955
8379.2
8379.407
8379.573
8379.694
8379.762
8379.769
8379.712
8379.59
8379.413
8379.199
8378.958
8378.695
8378.409
8378.087
8377.713
8377.303
8376.877
8376.446
8376.011
8375.572
8375.127
8374.678
8374.23
8373.784
8373.341
8372.9
8372.46
8372.018
8371.575
8371.131
8370.684
8370.234
8369.781
8369.325
8368.865
8368.4
8367.931
8367.455
8366.974
8366.487
8365.991
8365.488
8364.976
8364.454
8363.922
8363.378
8362.821
8362.251
8361.666
8361.066
8360.449
8359.814
8359.161
8358.489
8357.796
8357.082
8356.346
8355.587
8354.806
8354
8353.171
8352.316
8351.437
8350.533
8349.603
8348.648
8347.667
8346.66
8345.627
8344.569
8343.484
8342.373
8341.236
8340.072
8338.881
8337.663
8336.416
8335.141
8333.836
8332.5
8331.131
8329.727
8328.286
8326.805
8325.282
8323.714
8322.099
8320.437
8318.73
8316.985
8315.217
8313.454
8311.742
8310.141
8308.739
8307.617
8306.898
8306.599
8306.855
5566.404
5436.874
5312.274
5185.454
5065.794
4933.959
4818.005
4702.577
4586.217
4471.494
4360.939
4254.137
4149.115
4048.767
3950.498
3842.378
3759.844
3686.676
3622.86
3569.797
3528.349
3498.58
3480.087
3473.334
3479.443
3499.494
3529.212
3576.818
3635.485
3702.622
3777.647
3864.489
3966.687
4085.938
4222.211
4376.197
4549.331
4742.681
4957.151
5193.438
5452.022
5731.891
6030.194
6342.627
6662.858
6982.015
7290.432
7575.429
7827.78
8039.441
8205.889
8325.953
8399.87
8433.683
8429.684
8387.844
8312.99
8215.638
8102.924
7977.535
7841.187
7695.848
7543.64
7386.836
7227.852
7069.6
6915.675
6769.325
6634.342
6513.639
6408.955
6320.518
6248.564
6193.234
6153.775
6128.846
6117.034
6117.054
6127.551
6146.723
6172.381
6202.246
6234.012
6265.327
6293.937
6317.894
6335.448
6345.157
6345.789
6336.262
6315.43
6282.88
6238.664
6183.012
6115.999
6038.696
5952.939
5860.632
5763.124
5661.539
5557.083
5451.074
5345.09
5241.077
5139.452
5040.515
4943.24
4850.196
4775.376
4737.876
4747.024
4800.102
4893.577
5017.436
5155.592
5298.338
5439.383
5572.281
5695.778
5813.252
5921.007
6016.625
6103.331
6183.304
6257.94
6328.601
6396.601
6463.243
6529.394
6595.52
6662.026
6729.232
6797.1
6865.235
6932.995
6999.69
7064.726
7127.564
7187.607
7244.225
7296.896
7345.404
7389.24
7428.126
7462.17
7492.055
7519.519
7546.173
7571.849
7596.214
7619.548
7641.876
7663.416
7683.759
7701.979
7718.145
7730.883
7738.6
7741.541
7739.962
7734.108
7724.775
7713.367
7701.588
7690.532
7681.453
7675.623
7673.946
7676.652
7683.29
7693.177
7705.558
7719.547
7734.365
7749.326
7763.894
7777.649
7790.367
7801.821
7811.862
7820.436
7827.605
7833.486
7838.208
7841.884
7844.899
7847.366
7849.567
7851.641
7853.727
7855.982
7858.517
7861.42
7864.759
7868.555
7872.788
7877.456
7882.566
7888.097
7894.017
7900.285
7906.854
7913.677
7920.704
7927.889
7935.189
7942.547
7949.9
7957.213
7964.455
7971.594
7978.6
7985.446
7992.107
7998.564
8004.809
8010.85
8016.679
8022.271
8027.626
8032.708
8037.488
8041.98
8046.199
8050.158
8053.868
8057.338
8060.58
8063.607
8066.435
8069.077
8071.55
8073.867
8076.042
8078.09
8080.024
8081.856
8083.592
8085.241
8086.816
8088.326
8089.781
8091.19
8092.562
8093.904
8095.226
8096.533
8097.834
8099.134
8100.442
8101.766
8103.108
8104.486
8105.886
8107.297
8108.771
8110.29
8111.854
8113.471
8115.141
8116.865
8118.644
8120.478
8122.369
8124.315
8126.317
8128.372
8130.479
8132.636
8134.842
8137.095
8139.394
8141.739
8144.124
8146.546
8148.995
8151.465
8153.948
8156.441
8158.941
8161.444
8163.946
8166.442
8168.931
8171.409
8173.874
8176.323
8178.753
8181.162
8183.549
8185.912
8188.248
8190.556
8192.835
8195.085
8197.304
8199.492
8201.649
8203.773
8205.866
8207.928
8209.96
8211.966
8213.951
8215.922
8217.894
8219.885
8221.924
8224.046
8226.295
8228.712
8231.32
8234.108
8237.027
8240.026
8243.069
8246.138
8249.225
8252.32
8255.419
8258.519
8261.616
8264.709
8267.797
8270.879
8273.954
8277.02
8280.077
8283.123
8286.157
8289.177
8292.181
8295.167
8298.133
8301.076
8303.994
8306.887
8309.742
8312.564
8315.349
8318.091
8320.788
8323.433
8326.024
8328.548
8330.995
8333.363
8335.663
8337.909
8340.109
8342.268
8344.378
8346.429
8348.413
8350.328
8352.177
8353.961
8355.681
8357.334
8358.919
8360.436
8361.885
8363.266
8364.579
8365.825
8367.005
8368.121
8369.173
8370.167
8371.1
8371.976
8372.796
8373.56
8374.271
8374.932
8375.544
8376.119
8376.642
8377.122
8377.56
8377.963
8378.327
8378.649
8378.934
8379.183
8379.395
8379.568
8379.7
8379.787
8379.825
8379.809
8379.739
8379.614
8379.442
8379.231
8378.989
8378.718
8378.418
8378.087
8377.727
8377.346
8376.941
8376.517
8376.08
8375.636
8375.188
8374.738
8374.288
8373.838
8373.39
8372.942
8372.493
8372.043
8371.592
8371.139
8370.684
8370.227
8369.766
8369.302
8368.835
8368.363
8367.887
8367.405
8366.918
8366.424
8365.923
8365.414
8364.897
8364.37
8363.832
8363.283
8362.722
8362.147
8361.557
8360.953
8360.331
8359.693
8359.036
8358.359
8357.662
8356.945
8356.205
8355.444
8354.659
8353.851
8353.019
8352.162
8351.281
8350.375
8349.444
8348.488
8347.507
8346.501
8345.47
8344.413
8343.331
8342.224
8341.092
8339.935
8338.753
8337.546
8336.313
8335.054
8333.769
8332.456
8331.116
8329.747
8328.348
8326.918
8325.458
8323.966
8322.445
8320.897
8319.329
8317.752
8316.185
8314.654
8313.197
8311.864
8310.718
8309.816
8309.229
8308.961
8309.127
6023.707
6002.766
5924.685
5806.901
5675.907
5546.46
5418.583
5295.58
5177.219
5058.649
4916.708
4800.724
4684.814
4569.814
4456.013
4344.588
4235.991
4130.236
4028.155
3931.536
3842.358
3758.511
3682.599
3615.198
3557.604
3511.037
3476.152
3453.31
3442.893
3445.065
3459.503
3486.321
3527.215
3579.885
3643.436
3718.04
3805.847
3908.727
4026.596
4159.024
4307.497
4474.234
4660.604
4867.195
5094.821
5343.979
5614.248
5903.468
6208.438
6522.214
6835.739
7138.469
7418.457
7665.658
7872.473
8034.486
8151.505
8225.035
8257.685
8251.963
8211.231
8142.065
8052.798
7947.793
7829.56
7699.571
7559.323
7410.904
7256.364
7098.095
6939.485
6784.998
6638.711
6504.973
6387.296
6287.591
6205.56
6141.468
6094.927
6064.462
6048.415
6045.517
6054.929
6075.683
6105.957
6143.427
6185.628
6229.806
6273.057
6312.782
6346.863
6373.453
6390.947
6397.337
6391.288
6371.722
6338.043
6290.27
6228.425
6152.46
6064.177
5966.711
5862.94
5754.592
5642.731
5528.58
5413.077
5297.625
5183.841
5069.993
4955.704
4833.811
4711.653
4609.857
4557.754
4564.32
4622.956
4732.677
4888.227
5038.156
5155.566
5316.967
5474.951
5660.584
5804.001
5914.016
6009.939
6095.886
6173.908
6245.733
6313.043
6377.534
6440.681
6503.844
6567.896
6632.951
6699.017
6766
6833.419
6900.549
6966.636
7031.01
7093.062
7152.172
7207.46
7259.035
7307.54
7352.043
7392.007
7427.858
7460.26
7490.312
7518.994
7546.454
7572.638
7597.511
7620.908
7643.054
7664.161
7683.764
7700.976
7714.647
7724.498
7730.752
7732.489
7729.974
7724.275
7715.966
7706.294
7696.81
7688.872
7683.622
7681.952
7684.277
7690.447
7699.931
7712.092
7726.106
7741.116
7756.41
7771.248
7785.117
7797.796
7809.167
7819.024
7827.299
7834.078
7839.501
7843.733
7847.017
7849.403
7851.27
7852.807
7854.238
7855.709
7857.406
7859.479
7861.999
7865.001
7868.508
7872.529
7877.057
7882.072
7887.54
7893.421
7899.665
7906.222
7913.039
7920.064
7927.245
7934.533
7941.876
7949.231
7956.557
7963.813
7970.965
7977.981
7984.832
7991.491
7997.938
8004.163
8010.163
8015.937
8021.502
8026.894
8032.034
8036.826
8041.3
8045.494
8049.425
8053.108
8056.555
8059.778
8062.793
8065.613
8068.253
8070.728
8073.052
8075.238
8077.301
8079.258
8081.12
8082.888
8084.566
8086.17
8087.709
8089.194
8090.633
8092.034
8093.406
8094.756
8096.091
8097.42
8098.747
8100.078
8101.42
8102.776
8104.169
8105.589
8107.026
8108.513
8110.045
8111.622
8113.248
8114.927
8116.658
8118.444
8120.285
8122.181
8124.132
8126.137
8128.195
8130.304
8132.462
8134.668
8136.92
8139.215
8141.552
8143.926
8146.334
8148.77
8151.224
8153.691
8156.168
8158.652
8161.14
8163.626
8166.107
8168.58
8171.043
8173.493
8175.926
8178.342
8180.737
8183.11
8185.459
8187.783
8190.082
8192.353
8194.596
8196.812
8199
8201.161
8203.294
8205.402
8207.486
8209.549
8211.596
8213.632
8215.668
8217.716
8219.793
8221.922
8224.13
8226.445
8228.891
8231.483
8234.214
8237.057
8239.982
8242.96
8245.976
8249.018
8252.079
8255.152
8258.233
8261.319
8264.406
8267.494
8270.58
8273.663
8276.74
8279.811
8282.874
8285.926
8288.966
8291.992
8295
8297.99
8300.957
8303.899
8306.811
8309.696
8312.544
8315.354
8318.121
8320.842
8323.512
8326.127
8328.678
8331.166
8333.592
8335.957
8338.256
8340.492
8342.671
8344.795
8346.86
8348.862
8350.798
8352.667
8354.469
8356.204
8357.87
8359.467
8360.993
8362.449
8363.835
8365.152
8366.4
8367.58
8368.695
8369.746
8370.734
8371.661
8372.528
8373.338
8374.091
8374.791
8375.439
8376.037
8376.589
8377.098
8377.56
8377.98
8378.361
8378.704
8378.994
8379.249
8379.468
8379.65
8379.792
8379.893
8379.95
8379.961
8379.923
8379.838
8379.705
8379.528
8379.314
8379.067
8378.79
8378.485
8378.153
8377.797
8377.417
8377.014
8376.591
8376.156
8375.714
8375.268
8374.819
8374.367
8373.914
8373.46
8373.005
8372.55
8372.093
8371.634
8371.174
8370.711
8370.247
8369.779
8369.309
8368.835
8368.357
8367.875
8367.388
8366.895
8366.396
8365.89
8365.377
8364.855
8364.323
8363.782
8363.229
8362.663
8362.084
8361.491
8360.883
8360.258
8359.615
8358.955
8358.275
8357.574
8356.853
8356.111
8355.346
8354.558
8353.746
8352.911
8352.052
8351.168
8350.26
8349.328
8348.371
8347.389
8346.382
8345.351
8344.295
8343.216
8342.112
8340.985
8339.834
8338.661
8337.464
8336.244
8335.001
8333.736
8332.447
8331.136
8329.803
8328.447
8327.07
8325.672
8324.255
8322.824
8321.384
8319.944
8318.516
8317.12
8315.781
8314.531
8313.409
8312.461
8311.727
8311.258
8311.044
8311.213
6015.657
5959.337
5824.618
5712.449
5595.983
5480.246
5365.584
5251.982
5138.842
5026.019
4914.31
4802.599
4688.727
4574.888
4461.443
4349.479
4239.531
4132.146
4027.732
3927.723
3834.426
3746.857
3666.474
3595.031
3533.683
3483.337
3445.127
3419.904
3407.682
3408.176
3421.034
3446.253
3483.918
3533.268
3594.339
3667.461
3753.886
3854.426
3968.57
4096.787
4240.696
4401.401
4580.243
4778.287
4996.55
5235.802
5496.258
5775.721
6071.048
6375.656
6680.252
6973.771
7244.419
7482.538
7681.258
7837.107
7950.663
8021.778
8051.204
8044.439
8008.203
7947.74
7867.659
7771.124
7660.888
7537.427
7401.363
7255.34
7101.358
6941.518
6780.358
6621.906
6472.136
6339.145
6227.26
6135.764
6062.214
6007.205
5971.389
5952.814
5948.363
5956.446
5977.486
6010.991
6054.972
6107.119
6164.793
6224.589
6282.834
6336.497
6383.204
6420.806
6447.019
6460.434
6458.956
6441.204
6406.362
6353.738
6283.609
6196.362
6094.02
5981.681