/*--------------------------------*- C++ -*----------------------------------*\
| =========                 |                                                 |
| \\      /  F ield         | foam-extend: Open Source CFD                    |
|  \\    /   O peration     | Version:     3.1                                |
|   \\  /    A nd           | Web:         http://www.extend-project.de       |
|    \\/     M anipulation  |                                                 |
\*---------------------------------------------------------------------------*/
FoamFile
{
    version     2.0;
    format      ascii;
    class       volScalarField;
    location    "4.5";
    object      k;
}
// * * * * * * * * * * * * * * * * * * * * * * * * * * * * * * * * * * * * * //

dimensions      [0 2 -2 0 0 0 0];

internalField   nonuniform List<scalar> 
119952
(
0.01179105
0.01006851
0.009728925
0.009922372
0.01001258
0.009848711
0.009915584
0.01007846
0.01025715
0.01041966
0.01055573
0.01066479
0.01075058
0.01081828
0.01087313
0.01091995
0.01096326
0.01100855
0.01106674
0.01118602
0.01193854
0.01167203
0.01172927
0.01242311
0.01198329
0.01179066
0.01163686
0.01148899
0.01111209
0.01498396
0.02811057
0.02613968
0.02459543
0.02350853
0.02279769
0.02236496
0.02210049
0.02193394
0.02182195
0.02180718
0.02246977
0.02428538
0.02639977
0.02837148
0.02996258
0.03114839
0.03201012
0.03262925
0.03307559
0.03636509
0.03681977
0.03711366
0.03725228
0.0373007
0.03731896
0.03733882
0.03737757
0.03743755
0.0376115
0.03775618
0.03779094
0.03781858
0.03784982
0.03788233
0.03791569
0.03794166
0.03794263
0.03790624
0.0384646
0.03834366
0.03807634
0.03804391
0.03803512
0.03792016
0.03768462
0.03740865
0.03711662
0.03681096
0.03649279
0.03616294
0.03582236
0.03547195
0.03511282
0.03474603
0.03437236
0.03399073
0.03359612
0.03318531
0.03283365
0.03251609
0.03210957
0.0318474
0.03186424
0.03175962
0.03158531
0.03146789
0.03131762
0.03042583
0.02971646
0.02920299
0.02878891
0.02842475
0.02809403
0.0277903
0.02750859
0.02724543
0.02699855
0.02676638
0.02654758
0.02634097
0.02614537
0.02595968
0.02578281
0.02561364
0.02545105
0.02529394
0.02514129
0.02499221
0.02484589
0.0247016
0.02455867
0.02441651
0.02427456
0.02413238
0.02398956
0.02384581
0.02370089
0.02355465
0.02340699
0.0232579
0.02310742
0.02295565
0.02280276
0.02264892
0.02249433
0.02233916
0.02218396
0.02202902
0.02187452
0.02172069
0.02156796
0.02141667
0.0212669
0.02111855
0.02097122
0.02082361
0.02067798
0.02055011
0.02046402
0.02038516
0.02030881
0.0202308
0.02014986
0.0200662
0.01998035
0.01989283
0.01980429
0.0197155
0.01962709
0.01953965
0.0194536
0.0193693
0.01928726
0.01920753
0.01913019
0.01905536
0.01898307
0.01891328
0.01884598
0.01878098
0.01871831
0.01865743
0.01859849
0.01854138
0.01848736
0.01843496
0.01838382
0.01833409
0.01828596
0.01823959
0.01819512
0.01815268
0.01811242
0.01807457
0.0180394
0.01800655
0.01797537
0.01794545
0.01791742
0.01789147
0.01786765
0.01784612
0.01782689
0.01781016
0.01779541
0.01778003
0.01776819
0.01790296
0.01819042
0.0183403
0.01841643
0.01844549
0.01844389
0.01842948
0.01840579
0.01837722
0.01834657
0.01831594
0.01828656
0.01825931
0.01823489
0.01821259
0.0181911
0.01817237
0.0181578
0.01814842
0.01814499
0.0181481
0.01815753
0.01817188
0.0181913
0.01821597
0.01824612
0.0182819
0.01832363
0.01837144
0.01842567
0.01848667
0.01855568
0.01862985
0.01871117
0.0187945
0.01884315
0.01894394
0.01906626
0.01918485
0.01929686
0.01939679
0.01948592
0.01956409
0.01963142
0.01968841
0.01973561
0.01977374
0.01980358
0.01982592
0.01984158
0.01985132
0.01985587
0.01985593
0.01985212
0.01984498
0.01983503
0.0198227
0.01980839
0.01979245
0.01977518
0.01975688
0.01973776
0.019718
0.01969779
0.01967728
0.01965656
0.01963568
0.01961538
0.01959566
0.0195772
0.01872062
0.01882507
0.01887872
0.01887454
0.01884688
0.01879711
0.01872667
0.01864842
0.01857068
0.01849715
0.0184308
0.01837236
0.01832216
0.01827966
0.01824399
0.01821418
0.01818921
0.0181681
0.01814997
0.01813406
0.01811972
0.01810644
0.01809384
0.01808166
0.01806971
0.01805787
0.01804602
0.01803413
0.01802221
0.01801034
0.01799864
0.0179872
0.01797615
0.01796553
0.01795537
0.01794564
0.01793626
0.01792714
0.01791815
0.01790922
0.01790028
0.01789136
0.0178826
0.01787473
0.01786983
0.01786914
0.01786399
0.01785415
0.01784541
0.01783717
0.01782842
0.01782064
0.01781372
0.0178184
0.01789415
0.01785457
0.01780998
0.01775756
0.01769568
0.01762508
0.01754665
0.01746234
0.01737487
0.01728687
0.01720035
0.01711672
0.01703692
0.01696166
0.0168914
0.01682642
0.01676672
0.01671214
0.0166625
0.01661783
0.01657817
0.01654296
0.01651178
0.01648464
0.0164611
0.01644084
0.0164236
0.0164091
0.01639708
0.01638729
0.01637947
0.01637344
0.01636901
0.01636606
0.01636447
0.01636418
0.01636517
0.01636743
0.01637069
0.0163747
0.01637931
0.01638441
0.01638993
0.0163958
0.016402
0.01640823
0.01641472
0.01642187
0.01642937
0.01643753
0.01644621
0.0164554
0.01646512
0.01647546
0.0164865
0.0164983
0.01651089
0.01652425
0.01653828
0.01655282
0.01656765
0.01658248
0.01659704
0.01661104
0.01662415
0.01663604
0.01664633
0.0166546
0.01666063
0.01666475
0.01666747
0.01666926
0.01667043
0.01667115
0.01667152
0.01667152
0.01667116
0.01667014
0.01666816
0.016664
0.01665487
0.01663386
0.01660103
0.01661639
0.01700814
0.05061795
0.04819631
0.04735798
0.04742847
0.04796793
0.04870467
0.04946531
0.050153
0.05072959
0.04938753
0.04862964
0.0495545
0.05114512
0.05284872
0.0544596
0.05584375
0.05698539
0.05787323
0.06382255
0.06382992
0.06365994
0.06327807
0.06278674
0.06226756
0.06176279
0.06128489
0.06084427
0.06041911
0.06020927
0.05988013
0.05943302
0.05894371
0.05843698
0.05792483
0.05741409
0.05691015
0.05641962
0.05613777
0.05595287
0.05559912
0.05524402
0.05490347
0.05457385
0.05425211
0.05393967
0.05363842
0.05334936
0.05303833
0.05274691
0.05249748
0.05226014
0.05202716
0.05179975
0.05158298
0.05139437
0.05127692
0.05419998
0.05393199
0.05372041
0.05353198
0.05335593
0.05319308
0.0530399
0.05289365
0.05274729
0.05260237
0.052465
0.05232306
0.05217331
0.05201474
0.05185164
0.05167907
0.05150861
0.05135089
0.05125736
0.05115448
0.05091696
0.05066639
0.05045265
0.05022198
0.0499387
0.04961139
0.04925672
0.04888171
0.04849113
0.04808853
0.04767689
0.04725842
0.04683485
0.04640663
0.04597382
0.04553551
0.04509109
0.04464235
0.04420134
0.04378067
0.04336164
0.04297738
0.04269094
0.04246157
0.04223202
0.0420012
0.04174152
0.04134319
0.04080879
0.04032467
0.03990334
0.0395178
0.03916256
0.03882967
0.03851598
0.03821901
0.03793631
0.03766606
0.03740699
0.03715803
0.03691815
0.03668635
0.03646165
0.03624313
0.03602988
0.03582102
0.0356157
0.0354131
0.03521245
0.03501301
0.03481413
0.03461518
0.0344156
0.0342149
0.03401263
0.03380843
0.033602
0.0333931
0.03318159
0.03296737
0.03275043
0.03253082
0.03230864
0.03208406
0.03185731
0.03162863
0.03139834
0.0311668
0.03093435
0.03070141
0.03046837
0.03023564
0.03000359
0.02977254
0.02954276
0.02931458
0.02908887
0.02886742
0.02865229
0.02844267
0.02823688
0.02803597
0.02784054
0.02765073
0.02746662
0.02728841
0.02711632
0.02695038
0.02679056
0.02663675
0.02648883
0.02634652
0.0262094
0.02607698
0.0259491
0.02582547
0.02570571
0.0255894
0.02547605
0.02536516
0.02525622
0.02514872
0.02504208
0.02493572
0.02482915
0.02472193
0.02461349
0.02450325
0.02439071
0.02427543
0.02415703
0.02403522
0.02390976
0.02378056
0.02364762
0.02351114
0.02337145
0.02322923
0.02308508
0.02293905
0.0227911
0.02264183
0.02249128
0.02234048
0.02218917
0.02203893
0.02188956
0.02174795
0.02145254
0.021058
0.02074243
0.02047894
0.02025251
0.02005322
0.01987496
0.01971419
0.0195683
0.01943539
0.01931405
0.01920317
0.01910177
0.01900897
0.01892401
0.01884619
0.01877483
0.01870934
0.01864917
0.01859381
0.01854281
0.01849574
0.01845223
0.01841194
0.01837455
0.01833977
0.01830732
0.01827694
0.01824839
0.0182214
0.01819561
0.01817061
0.01814578
0.01811904
0.01808884
0.01805902
0.01804249
0.01804189
0.0180491
0.0180603
0.01807467
0.01809153
0.01811028
0.01813055
0.01815207
0.01817462
0.01819805
0.01822221
0.018247
0.0182723
0.01829804
0.01832412
0.01835047
0.01837703
0.01840373
0.01843053
0.01845736
0.01848421
0.01851104
0.01853784
0.01856459
0.0185913
0.01861797
0.01864459
0.01867118
0.01869773
0.01872432
0.01875092
0.01877736
0.01880317
0.01973328
0.01975044
0.019784
0.01982363
0.01986406
0.01990323
0.01994087
0.01997692
0.02001118
0.02004358
0.02007422
0.02010317
0.02013053
0.02015641
0.02018094
0.02020423
0.02022637
0.02024747
0.02026763
0.02028695
0.02030552
0.02032344
0.02034078
0.02035762
0.02037402
0.02039003
0.0204057
0.02042108
0.02043623
0.02045125
0.02046623
0.02048125
0.02049641
0.02051182
0.02052755
0.02054365
0.02056015
0.02057706
0.02059437
0.02061204
0.02063006
0.02064842
0.02066726
0.02068664
0.02070639
0.02072562
0.02074343
0.02075969
0.0207755
0.02079124
0.02080713
0.020823
0.02083986
0.02086281
0.02088977
0.02090861
0.0209215
0.02093398
0.02094743
0.02096197
0.02097765
0.02099437
0.02101198
0.02103033
0.02104926
0.02106856
0.02108804
0.02110749
0.02112674
0.02114566
0.02116418
0.02118223
0.02119976
0.02121684
0.02123358
0.02125013
0.02126666
0.0212834
0.02130056
0.021318
0.02133559
0.02135333
0.02137124
0.02138939
0.0214078
0.02142653
0.02144559
0.02146498
0.0214847
0.02150467
0.02152471
0.0215449
0.02156539
0.02158632
0.02160779
0.02162984
0.02165252
0.02167586
0.02169985
0.02172448
0.02174975
0.02177563
0.02180206
0.02182899
0.02185643
0.02188446
0.02191315
0.02194264
0.02197303
0.02200446
0.02203703
0.02207082
0.02210585
0.02214207
0.02217939
0.02221769
0.02225681
0.02229661
0.02233695
0.02237773
0.02241885
0.02246026
0.02250191
0.02254381
0.02258589
0.02262826
0.02267079
0.02271369
0.02275664
0.02280006
0.02284322
0.02288716
0.02293053
0.0229765
0.02302486
0.02308806
0.02317305
0.02331511
0.02342742
0.04857941
0.05205729
0.05603612
0.0601818
0.06424835
0.06833171
0.07298739
0.07780131
0.08379592
0.09545931
0.1466688
0.1504421
0.1531934
0.1550853
0.156109
0.1564402
0.1562036
0.1554927
0.1541822
0.1727895
0.1713202
0.1696355
0.1679029
0.1659305
0.1636748
0.1612019
0.1585904
0.1558881
0.1531906
0.1502914
0.1473569
0.1444865
0.1417489
0.1391512
0.1366761
0.1342981
0.1319921
0.1298021
0.1274393
0.1250976
0.1227627
0.120488
0.1183012
0.1161992
0.1141807
0.1122419
0.1103752
0.1086018
0.1068668
0.1051696
0.1035277
0.1019236
0.1003554
0.09882522
0.09733747
0.0959179
0.09815633
0.09680828
0.09551714
0.09428238
0.093084
0.09191325
0.09076867
0.0896496
0.08855377
0.0874733
0.08641677
0.08541017
0.08444495
0.08351062
0.08260495
0.08172651
0.08087486
0.08004396
0.07922723
0.07842432
0.07762994
0.07684022
0.07606043
0.07529044
0.07452903
0.0737804
0.07304604
0.07232712
0.07162324
0.07093039
0.07024251
0.06957018
0.0689109
0.06827282
0.06764308
0.06703546
0.0663987
0.06575268
0.06529012
0.0648218
0.06433074
0.06383545
0.06334851
0.06287379
0.06241377
0.06196773
0.06153561
0.06111825
0.06071423
0.0603206
0.05993669
0.05956342
0.05920401
0.05885956
0.05853183
0.05822386
0.05793774
0.05765941
0.05735755
0.05703263
0.05670451
0.05637377
0.05602721
0.05565534
0.05525961
0.05484568
0.05441834
0.05398062
0.05353451
0.05308175
0.05262429
0.05216456
0.05170273
0.05123918
0.05077465
0.05031192
0.04985615
0.04941527
0.04899461
0.04860308
0.04825982
0.0479618
0.04768615
0.04740564
0.0470991
0.04673222
0.04630298
0.04586107
0.04544906
0.04507407
0.04472631
0.04439821
0.04408601
0.0437881
0.0435032
0.04322998
0.04296717
0.04271365
0.04246836
0.0422303
0.0419985
0.04177201
0.0415499
0.04133125
0.04111517
0.04090077
0.04068722
0.04047375
0.04025962
0.04004417
0.0398268
0.03960696
0.03938421
0.03915814
0.03892846
0.03869494
0.03845742
0.03821583
0.03797018
0.03772054
0.03746705
0.03720995
0.03694949
0.03668601
0.0364199
0.03615156
0.03588147
0.03561009
0.03533793
0.03506547
0.03479323
0.03452171
0.0342514
0.03398291
0.03371705
0.03345504
0.03319813
0.03294655
0.03269966
0.03245752
0.03222063
0.03198954
0.03176467
0.03154643
0.03133512
0.03113092
0.03093397
0.03074434
0.03056203
0.03038699
0.03021914
0.03005827
0.02990406
0.02975619
0.02961432
0.02947805
0.02934694
0.02922048
0.02909814
0.02897936
0.02886358
0.02875023
0.02863871
0.02852838
0.02841863
0.02830887
0.02819852
0.02808699
0.02797376
0.02785831
0.0277402
0.02761901
0.02749444
0.02736613
0.02723388
0.02709716
0.02695567
0.02680955
0.0266596
0.02650604
0.02635002
0.02619159
0.02603265
0.02587281
0.025715
0.02555633
0.0253804
0.0252147
0.02505717
0.02490674
0.02476264
0.02462435
0.02449161
0.02436432
0.02424251
0.02412624
0.02401557
0.02391057
0.02381127
0.02371768
0.02362976
0.02354743
0.02347059
0.02339909
0.02333274
0.02327134
0.02321466
0.02316246
0.02311449
0.0230705
0.02303021
0.02299337
0.02295972
0.02292901
0.02290098
0.0228754
0.02285198
0.02283046
0.02281067
0.02279297
0.02277938
0.02277085
0.02276925
0.02277419
0.02278352
0.02279609
0.02281122
0.02282831
0.02284684
0.02286643
0.02288677
0.02290765
0.02292889
0.02295036
0.02297194
0.02299357
0.02301518
0.02303672
0.02305817
0.02307949
0.02310069
0.02312174
0.02314265
0.02316342
0.02318405
0.02320456
0.02322496
0.02324527
0.0232655
0.02328568
0.02330581
0.02332594
0.02334607
0.02336623
0.02338649
0.02340875
0.02343648
0.02346385
0.02348725
0.02350666
0.0235244
0.02354232
0.02356115
0.02358088
0.02360127
0.02362214
0.02364336
0.02366488
0.02368662
0.02370851
0.02373049
0.02375249
0.02377445
0.02379633
0.02381811
0.02383975
0.02386124
0.02388257
0.02390374
0.02392473
0.02394556
0.0239662
0.02398666
0.02400695
0.02402709
0.02404711
0.02406705
0.02408696
0.02410689
0.02412688
0.024147
0.02416726
0.02418771
0.02420834
0.02422917
0.02425018
0.02427137
0.02429274
0.02431426
0.02433589
0.02435745
0.02437868
0.02439922
0.02441894
0.0244381
0.02445696
0.02447576
0.02449443
0.0245131
0.02453113
0.02454909
0.02456749
0.02458707
0.02460789
0.02462961
0.0246516
0.0246737
0.02469608
0.02471897
0.02474253
0.02476686
0.02479196
0.02481778
0.02484422
0.02487115
0.02489845
0.02492607
0.024954
0.02498227
0.02501053
0.02503852
0.02506612
0.02509321
0.02511969
0.02514546
0.0251708
0.02519593
0.02522091
0.02524581
0.02527065
0.02529546
0.02532028
0.02534514
0.02537005
0.02539503
0.02542009
0.02544526
0.02547061
0.02549618
0.02552202
0.02554816
0.02557465
0.02560151
0.02562877
0.02565644
0.02568454
0.02571308
0.02574205
0.02577147
0.02580135
0.02583176
0.02586275
0.02589445
0.02592696
0.02596043
0.025995
0.02603081
0.02606797
0.02610657
0.02614662
0.02618811
0.02623099
0.02627516
0.02632053
0.02636703
0.02641456
0.02646305
0.02651244
0.02656268
0.02661373
0.02666557
0.02671822
0.02677164
0.02682593
0.02688096
0.02693708
0.026994
0.02705293
0.02711337
0.02717943
0.02725014
0.02733843
0.02743933
0.02758165
0.02767075
0.04013014
0.045574
0.05050521
0.07821402
0.1057192
0.1397374
0.1612156
0.1819405
0.2005531
0.2174968
0.2320689
0.2438714
0.2540049
0.2625336
0.2697039
0.2756223
0.2802493
0.2837089
0.2860797
0.287452
0.2877436
0.2869168
0.2846577
0.2811294
0.2766433
0.2715792
0.2660519
0.2601931
0.2541195
0.2478862
0.2412408
0.2337236
0.2280215
0.2223485
0.2167831
0.2113658
0.2061255
0.201072
0.1961979
0.1914344
0.1867974
0.182292
0.177947
0.1737492
0.1697045
0.1658124
0.1620708
0.1584778
0.1550375
0.1517385
0.1485564
0.1455032
0.1425793
0.1397749
0.1370827
0.1344973
0.1320151
0.1296345
0.1273459
0.1251454
0.1230372
0.1210129
0.1190636
0.1171894
0.1153843
0.1136512
0.1119707
0.1103148
0.1086966
0.1071571
0.1056879
0.1042805
0.1029285
0.1016291
0.1003805
0.09918272
0.09803412
0.09693386
0.09588022
0.09485326
0.09384925
0.09286983
0.09191537
0.09098538
0.09007878
0.08919213
0.08832058
0.08746091
0.08660353
0.08574503
0.08489035
0.08404333
0.08320511
0.08237495
0.08155173
0.08073524
0.0799257
0.07912169
0.07832431
0.07753672
0.07675887
0.07599212
0.0752353
0.07449266
0.07376046
0.07305465
0.07237723
0.07170704
0.07104658
0.07040703
0.06979543
0.06921059
0.06864816
0.06810548
0.06758118
0.06707428
0.06658376
0.06610861
0.06564789
0.06519935
0.06475994
0.06433176
0.06391572
0.06351269
0.06312305
0.06274391
0.06236053
0.0619649
0.06156318
0.06115843
0.06074402
0.06031391
0.05986801
0.05940977
0.05894268
0.05846906
0.05799032
0.05750751
0.0570211
0.05653129
0.05603973
0.05554799
0.05505933
0.05457677
0.05410409
0.0536469
0.0532103
0.052798
0.05241797
0.05207115
0.05174529
0.05142262
0.05108831
0.05072866
0.05033692
0.04993307
0.04954437
0.0491804
0.04883958
0.04851722
0.04821043
0.04791793
0.0476388
0.04737188
0.04711587
0.04686951
0.04663163
0.04640114
0.04617695
0.04595797
0.04574316
0.04553145
0.04532182
0.04511327
0.04490485
0.04469565
0.04448483
0.04427161
0.04405528
0.04383521
0.04361086
0.04338176
0.04314755
0.04290794
0.04266274
0.04241184
0.04215523
0.04189298
0.04162525
0.04135226
0.04107434
0.04079184
0.04050521
0.04021494
0.03992155
0.0396256
0.0393277
0.03902845
0.0387285
0.03842849
0.03812911
0.0378311
0.03753534
0.03724281
0.03695448
0.03667093
0.0363922
0.03611838
0.03584994
0.03558749
0.03533159
0.03508263
0.03484099
0.03460691
0.03438065
0.0341624
0.03395231
0.03375045
0.0335568
0.03337131
0.03319384
0.03302419
0.03286212
0.03270731
0.0325594
0.03241795
0.03228247
0.03215246
0.03202737
0.03190662
0.03178963
0.0316758
0.0315645
0.0314551
0.03134697
0.03123947
0.03113196
0.03102383
0.03091453
0.03080351
0.03069032
0.03057452
0.03045574
0.03033362
0.03020805
0.03007897
0.02994648
0.02981063
0.02967178
0.02953006
0.02938605
0.0292398
0.02909194
0.02894299
0.02879329
0.02864411
0.02849682
0.02835225
0.02821088
0.02807334
0.02794015
0.0278117
0.02768831
0.02757026
0.02745774
0.02735091
0.02724986
0.02715464
0.02706524
0.02698161
0.02690366
0.02683127
0.02676427
0.02670249
0.0266457
0.02659371
0.02654627
0.02650314
0.02646408
0.02642886
0.02639726
0.02636905
0.02634403
0.02632203
0.02630291
0.02628666
0.02627342
0.0262639
0.02625891
0.02625738
0.02625996
0.02626662
0.02627665
0.02628929
0.02630395
0.02632018
0.02633762
0.026356
0.02637509
0.02639472
0.02641473
0.02643501
0.02645546
0.02647603
0.02649665
0.02651727
0.02653785
0.02655836
0.02657879
0.02659911
0.02661932
0.02663941
0.02665938
0.02667922
0.02669895
0.02671856
0.02673809
0.02675751
0.02677689
0.02679615
0.02681545
0.02683463
0.02685406
0.02687345
0.0268934
0.0269134
0.02693358
0.02695409
0.02697481
0.02699556
0.02701627
0.02703691
0.02705746
0.02707796
0.02709842
0.0271189
0.02713943
0.02716002
0.02718068
0.02720141
0.0272222
0.02724304
0.02726393
0.02728483
0.02730576
0.02732668
0.02734761
0.02736853
0.02738943
0.02741029
0.02743112
0.02745191
0.02747266
0.02749339
0.02751411
0.02753487
0.02755568
0.02757657
0.02759758
0.02761874
0.02764004
0.02766152
0.02768316
0.02770497
0.02772693
0.02774902
0.02777119
0.02779339
0.02781551
0.02783744
0.027859
0.02788009
0.02790074
0.02792109
0.02794128
0.02796136
0.02798141
0.02800172
0.02802267
0.02804394
0.0280651
0.02808622
0.02810752
0.02812914
0.02815121
0.02817389
0.02819726
0.02822142
0.02824639
0.02827216
0.02829874
0.0283261
0.0283543
0.02838307
0.028412
0.02844082
0.02846937
0.02849789
0.02852647
0.02855509
0.02858375
0.02861241
0.02864106
0.02866972
0.0286984
0.02872711
0.02875585
0.02878462
0.02881343
0.02884229
0.02887121
0.02890021
0.0289293
0.02895851
0.02898786
0.02901739
0.02904711
0.02907706
0.02910725
0.02913772
0.02916849
0.02919957
0.02923097
0.02926271
0.0292948
0.02932727
0.02936012
0.0293934
0.02942716
0.0294615
0.02949651
0.02953232
0.02956907
0.02960692
0.02964602
0.0296865
0.02972847
0.029772
0.02981712
0.02986383
0.02991209
0.02996187
0.03001309
0.03006572
0.03011971
0.03017499
0.03023156
0.03028937
0.03034841
0.03040871
0.03047027
0.03053316
0.03059742
0.03066333
0.03073098
0.03080141
0.03087479
0.03095431
0.03103942
0.03113849
0.03124354
0.03137575
0.03146927
0.02070934
0.02316631
0.02558723
0.03449724
0.04614567
0.06613392
0.07986016
0.09419239
0.1093516
0.1245541
0.1400988
0.1568767
0.1746761
0.1925521
0.2107395
0.2308444
0.2623539
0.275112
0.2874203
0.2990884
0.3104405
0.3205365
0.3281493
0.3337118
0.3371352
0.3384057
0.3378438
0.3354527
0.3311956
0.3253943
0.3184428
0.3098198
0.3005381
0.2911083
0.2816006
0.2722265
0.2631046
0.2543098
0.2459082
0.237915
0.230381
0.2231741
0.2158818
0.2092389
0.2031125
0.1973802
0.1919918
0.186927
0.1821644
0.1776783
0.173429
0.1693953
0.16556
0.1619113
0.1584527
0.1551224
0.1519095
0.1488222
0.1458654
0.1430397
0.1403448
0.1377719
0.1353168
0.132976
0.1307437
0.1286152
0.1265856
0.12465
0.1228028
0.1210388
0.119352
0.1177395
0.1161946
0.114714
0.1132933
0.1119317
0.1106228
0.1093682
0.1081592
0.1070037
0.1058945
0.1048222
0.1037856
0.1027819
0.1018103
0.1008744
0.09997452
0.09911035
0.0982809
0.09748492
0.09672039
0.09598341
0.09527091
0.09458038
0.0939085
0.09325056
0.09260119
0.0919554
0.09130839
0.09065492
0.08999177
0.08931815
0.088634
0.08793829
0.0872293
0.08650617
0.08576901
0.08501903
0.08425766
0.08348652
0.08270752
0.08192304
0.08113625
0.08035008
0.0795684
0.07879281
0.07802533
0.07727045
0.07652868
0.07580165
0.0750937
0.07440797
0.07374492
0.07310417
0.07248539
0.0718881
0.07131159
0.07075506
0.07021742
0.0696976
0.06919495
0.06870829
0.06823594
0.06777685
0.06732983
0.06689296
0.06646235
0.06603114
0.0655948
0.06515351
0.06470774
0.06425499
0.06379198
0.06331776
0.06283373
0.06234202
0.06184449
0.06134254
0.06083751
0.06033065
0.05982303
0.05931583
0.05881022
0.05830673
0.05780839
0.05731884
0.05684313
0.05638565
0.05594932
0.05553704
0.05514881
0.05477885
0.05441712
0.05405507
0.05368342
0.05330108
0.05291537
0.05253788
0.05217839
0.05183898
0.05151779
0.05121293
0.05092332
0.05064819
0.05038657
0.05013731
0.04989919
0.04967101
0.04945158
0.0492397
0.04903416
0.04883374
0.04863723
0.04844344
0.04825119
0.04805934
0.04786679
0.04767252
0.04747554
0.04727498
0.04707002
0.04685995
0.04664414
0.04642207
0.04619332
0.04595758
0.04571463
0.04546437
0.04520679
0.04494198
0.04467014
0.04439155
0.04410658
0.04381568
0.04351934
0.04321816
0.04291274
0.04260377
0.04229195
0.04197801
0.04166275
0.04134695
0.0410315
0.0407173
0.04040531
0.04009645
0.03979144
0.03949073
0.03919468
0.03890384
0.0386188
0.03834015
0.03806841
0.037804
0.03754735
0.03729874
0.0370585
0.03682684
0.03660395
0.03638995
0.03618485
0.03598866
0.0358013
0.03562262
0.03545242
0.03529044
0.03513632
0.03498968
0.03485005
0.03471695
0.03458987
0.03446826
0.03435155
0.03423915
0.03413044
0.03402477
0.03392147
0.03381986
0.03371927
0.03361908
0.03351869
0.03341755
0.03331516
0.03321105
0.0331048
0.03299612
0.03288478
0.03277066
0.0326537
0.03253397
0.03241159
0.03228681
0.03215994
0.03203149
0.03190199
0.03177196
0.03164172
0.03151125
0.03138113
0.03125263
0.03112707
0.03100496
0.03088667
0.03077258
0.03066299
0.03055819
0.03045837
0.0303637
0.0302743
0.03019022
0.03011149
0.03003807
0.0299699
0.02990687
0.02984887
0.02979572
0.02974725
0.02970328
0.0296636
0.02962802
0.02959634
0.02956835
0.02954389
0.0295228
0.02950496
0.02949032
0.02947891
0.02947103
0.02946746
0.02946673
0.02946888
0.02947402
0.02948208
0.02949274
0.02950553
0.02952004
0.02953593
0.02955295
0.02957088
0.02958953
0.02960875
0.02962842
0.02964841
0.02966866
0.02968908
0.02970959
0.02973019
0.0297508
0.0297714
0.02979195
0.02981243
0.02983283
0.02985311
0.02987329
0.02989336
0.0299133
0.02993312
0.02995283
0.02997244
0.02999194
0.03001134
0.03003067
0.03004991
0.0300691
0.03008815
0.03010711
0.030126
0.03014491
0.03016388
0.03018292
0.03020203
0.03022127
0.03024065
0.03026016
0.03027979
0.03029951
0.0303193
0.03033916
0.03035908
0.03037906
0.03039908
0.03041914
0.03043924
0.03045936
0.0304795
0.03049965
0.03051982
0.03053998
0.03056016
0.03058033
0.03060051
0.03062068
0.03064085
0.03066102
0.0306812
0.03070141
0.03072168
0.03074203
0.03076248
0.03078306
0.03080379
0.03082469
0.03084577
0.03086703
0.03088847
0.03091008
0.03093183
0.03095369
0.03097562
0.03099754
0.03101938
0.03104105
0.03106246
0.03108361
0.03110456
0.0311254
0.0311462
0.03116705
0.03118805
0.03120918
0.03123035
0.03125163
0.03127319
0.0312952
0.03131765
0.03134055
0.03136393
0.03138785
0.03141238
0.03143761
0.03146356
0.03149033
0.03151755
0.03154481
0.03157218
0.03159987
0.03162794
0.03165636
0.03168516
0.03171431
0.03174378
0.03177355
0.03180357
0.03183382
0.03186427
0.03189491
0.03192573
0.03195672
0.03198785
0.03201913
0.03205055
0.03208212
0.03211385
0.03214575
0.03217782
0.03221009
0.03224258
0.0322753
0.03230828
0.03234152
0.03237505
0.03240888
0.03244302
0.03247748
0.03251227
0.03254741
0.03258292
0.03261881
0.03265514
0.03269196
0.03272934
0.0327674
0.03280625
0.03284602
0.03288688
0.03292895
0.0329724
0.03301734
0.03306386
0.03311203
0.03316187
0.0332134
0.03326661
0.03332148
0.03337799
0.0334361
0.03349581
0.03355711
0.03361998
0.03368444
0.03375052
0.03381827
0.03388778
0.03395916
0.03403271
0.0341087
0.03418796
0.03427089
0.03435979
0.03445404
0.03455958
0.03466753
0.03479699
0.03488597
0.009703158
0.01108813
0.01219358
0.01816266
0.02497476
0.03395127
0.04104405
0.0489999
0.05750924
0.06652349
0.07628272
0.08786861
0.1004959
0.1145424
0.1313436
0.1574071
0.1713856
0.1860777
0.200986
0.2160254
0.2311026
0.2460562
0.2605942
0.27449
0.2875086
0.2993365
0.3098156
0.3206108
0.3305394
0.339469
0.3470964
0.3522428
0.355132
0.3556619
0.3537767
0.3493519
0.3427873
0.3341929
0.3233217
0.3109063
0.298415
0.2855598
0.2727209
0.2601653
0.2480771
0.2366083
0.2258496
0.2158449
0.2065971
0.1980893
0.1902797
0.1831171
0.1765583
0.1705636
0.1651133
0.1601522
0.1556197
0.1514695
0.1476674
0.1441786
0.1409953
0.1380821
0.1354081
0.1329431
0.1306111
0.1283989
0.1262998
0.1243131
0.1224362
0.1206648
0.1189939
0.1174162
0.1159238
0.1145109
0.1131726
0.1119047
0.1107027
0.1095621
0.1084783
0.1074477
0.1064659
0.1055294
0.1046351
0.1037809
0.1029641
0.1021836
0.1014372
0.1007252
0.1000458
0.09939705
0.09877528
0.0981712
0.09757755
0.09700639
0.09646538
0.09595466
0.09547401
0.09502276
0.09459965
0.09420344
0.09383232
0.09348311
0.09315229
0.09283624
0.09253067
0.09223038
0.09192978
0.09162323
0.0913052
0.09097036
0.09061368
0.09023117
0.08981997
0.08937777
0.08890254
0.08839305
0.08784905
0.08727139
0.08666158
0.08602147
0.08535392
0.08466246
0.08395141
0.08322473
0.08248693
0.08174153
0.08099282
0.0802466
0.07950657
0.07877477
0.07805414
0.0773483
0.07666017
0.07599163
0.07534365
0.07471657
0.07411031
0.07352454
0.0729586
0.07241173
0.07188308
0.07137136
0.07087508
0.07039283
0.06992288
0.06946285
0.06900953
0.06855873
0.0681067
0.0676515
0.06719221
0.06672731
0.06625484
0.06577368
0.06528406
0.06478707
0.06428401
0.06377608
0.06326449
0.06275049
0.06223534
0.06172052
0.06120783
0.06069909
0.06019628
0.05970156
0.05921694
0.05874575
0.05829073
0.05785359
0.05743439
0.05703063
0.05663693
0.05624785
0.05585826
0.05546892
0.05508319
0.05470687
0.05434486
0.05400026
0.05367324
0.05336305
0.053069
0.05279053
0.05252696
0.05227741
0.05204086
0.05181623
0.05160239
0.05139816
0.05120232
0.05101361
0.05083072
0.05065237
0.05047724
0.05030403
0.05013148
0.04995837
0.0497835
0.04960578
0.04942417
0.04923771
0.04904557
0.04884698
0.0486413
0.04842801
0.04820668
0.04797704
0.04773888
0.04749217
0.04723695
0.04697339
0.04670177
0.04642245
0.04613591
0.04584268
0.04554338
0.04523871
0.04492941
0.04461627
0.04430014
0.04398191
0.04366251
0.04334292
0.0430241
0.04270701
0.04239249
0.04208121
0.0417738
0.04147088
0.04117315
0.04088125
0.04059581
0.04031736
0.0400464
0.03978338
0.03952866
0.03928257
0.03904541
0.03881738
0.03859865
0.03838931
0.0381894
0.03799889
0.03781768
0.03764562
0.03748249
0.03732796
0.03718167
0.03704322
0.03691214
0.03678796
0.03667018
0.03655828
0.03645166
0.0363497
0.03625168
0.03615686
0.0360645
0.03597399
0.03588475
0.03579621
0.0357078
0.03561898
0.03552923
0.03543813
0.03534531
0.03525049
0.03515349
0.03505421
0.03495268
0.03484898
0.03474333
0.03463604
0.03452748
0.03441804
0.03430806
0.03419787
0.03408787
0.0339784
0.03386964
0.03376245
0.03365804
0.03355711
0.03345993
0.03336677
0.03327786
0.03319339
0.0331135
0.0330383
0.03296783
0.03290213
0.03284116
0.03278489
0.03273321
0.03268604
0.03264323
0.03260465
0.03257014
0.03253953
0.03251268
0.03248942
0.03246961
0.03245316
0.03243998
0.03243007
0.03242357
0.03242093
0.03242102
0.03242352
0.03242842
0.03243568
0.03244522
0.03245686
0.03247031
0.03248529
0.03250154
0.03251887
0.03253709
0.03255604
0.03257557
0.03259558
0.03261596
0.03263661
0.03265747
0.03267847
0.03269955
0.03272067
0.03274179
0.03276288
0.03278392
0.03280486
0.03282571
0.03284644
0.03286705
0.03288751
0.03290786
0.03292807
0.03294815
0.03296809
0.03298789
0.03300758
0.03302713
0.03304656
0.03306584
0.03308501
0.03310406
0.03312301
0.03314185
0.0331606
0.03317931
0.03319805
0.03321682
0.03323566
0.03325454
0.03327346
0.03329243
0.03331143
0.03333047
0.03334953
0.03336862
0.03338773
0.03340685
0.03342598
0.03344512
0.03346425
0.03348337
0.03350249
0.0335216
0.03354071
0.03355981
0.03357891
0.033598
0.0336171
0.03363622
0.03365537
0.03367458
0.03369386
0.03371325
0.03373276
0.03375243
0.03377225
0.03379226
0.03381246
0.03383285
0.03385343
0.03387417
0.03389506
0.03391607
0.03393713
0.03395821
0.03397924
0.03400018
0.034021
0.03404174
0.03406245
0.03408318
0.03410398
0.03412488
0.0341459
0.03416711
0.03418857
0.03421037
0.03423253
0.03425507
0.03427801
0.0343014
0.03432533
0.03434987
0.03437511
0.03440098
0.03442697
0.03445317
0.03447979
0.03450693
0.03453462
0.03456288
0.03459167
0.034621
0.03465082
0.03468111
0.03471181
0.03474291
0.03477435
0.03480612
0.03483818
0.03487051
0.0349031
0.03493593
0.03496898
0.03500225
0.03503575
0.03506946
0.0351034
0.03513758
0.03517201
0.0352067
0.03524167
0.03527692
0.03531247
0.03534833
0.03538452
0.03542103
0.03545788
0.03549508
0.03553264
0.03557057
0.03560891
0.0356477
0.03568698
0.03572685
0.03576741
0.03580876
0.03585103
0.03589436
0.03593889
0.03598476
0.03603209
0.03608099
0.03613154
0.0361838
0.03623779
0.03629354
0.03635107
0.03641037
0.03647145
0.03653432
0.03659898
0.03666546
0.03673378
0.03680401
0.03687621
0.03695051
0.03702706
0.03710614
0.03718808
0.03727354
0.03736294
0.03745791
0.03755772
0.0376669
0.03777593
0.03790358
0.03798689
0.003201863
0.01101804
0.01602511
0.02148183
0.02710095
0.03323556
0.04003133
0.04727124