/*--------------------------------*- C++ -*----------------------------------*\
| =========                 |                                                 |
| \\      /  F ield         | foam-extend: Open Source CFD                    |
|  \\    /   O peration     | Version:     3.1                                |
|   \\  /    A nd           | Web:         http://www.extend-project.de       |
|    \\/     M anipulation  |                                                 |
\*---------------------------------------------------------------------------*/
FoamFile
{
    version     2.0;
    format      ascii;
    class       volScalarField;
    location    "4.5";
    object      nut;
}
// * * * * * * * * * * * * * * * * * * * * * * * * * * * * * * * * * * * * * //

dimensions      [0 2 -1 0 0 0 0];

internalField   nonuniform List<scalar> 
119952
(
3.026833e-05
1.832356e-05
1.844926e-05
2.121192e-05
2.326695e-05
2.211085e-05
2.149804e-05
2.113694e-05
2.083001e-05
2.049551e-05
2.011736e-05
1.969602e-05
1.924031e-05
1.876107e-05
1.826804e-05
1.776881e-05
1.726852e-05
1.676881e-05
1.626153e-05
1.576223e-05
2.037562e-05
1.925729e-05
1.882928e-05
2.484632e-05
2.389664e-05
2.341811e-05
2.301198e-05
2.286534e-05
2.256865e-05
2.477615e-05
1.960298e-05
2.104888e-05
2.343375e-05
2.590334e-05
2.85406e-05
3.136997e-05
3.439972e-05
3.756381e-05
4.083636e-05
4.638952e-05
0.0001848827
0.0002193447
0.0002558763
0.0002917487
0.0003217815
0.0003504392
0.0003788538
0.0004070247
0.0004342477
0.0005663407
0.0005974297
0.0006449444
0.0006744774
0.0007034548
0.0007323528
0.0007614167
0.0007908214
0.0008205222
0.0008517819
0.0008821925
0.0009117347
0.0009419187
0.0009729171
0.001004644
0.001037006
0.001069878
0.001103197
0.001137552
0.001095182
0.001186281
0.001203538
0.001225497
0.001246629
0.001264159
0.00127885
0.001292324
0.00130496
0.001316761
0.001327689
0.001337702
0.001346756
0.001354831
0.001361935
0.001368107
0.001373442
0.001378103
0.001382402
0.001386993
0.001393909
0.001401336
0.00140851
0.001421691
0.001438229
0.001447353
0.001450759
0.001443755
0.001401644
0.001308149
0.00127357
0.001256424
0.001247281
0.001241392
0.001237268
0.001234222
0.001231829
0.001229827
0.001228057
0.001226416
0.00122483
0.001223242
0.001221605
0.00121988
0.00121803
0.001216015
0.001213794
0.001211328
0.00120858
0.001205521
0.001202127
0.001198375
0.001194243
0.001189712
0.001184763
0.001179381
0.001173555
0.001167276
0.001160537
0.001153337
0.001145676
0.001137559
0.001128995
0.001119997
0.001110578
0.001100754
0.001090543
0.00107998
0.001069083
0.001057861
0.001046356
0.001034583
0.001022573
0.001010357
0.0009979665
0.0009854455
0.0009728735
0.0009605516
0.0009495101
0.0009378753
0.0009255383
0.0009130759
0.0009006527
0.0008883022
0.0008760633
0.0008639617
0.000852021
0.0008402467
0.0008286404
0.0008172048
0.000805939
0.0007948397
0.0007838978
0.0007731028
0.0007624444
0.0007519018
0.0007414649
0.0007311195
0.0007208489
0.0007106351
0.000700463
0.0006903131
0.0006801748
0.000670071
0.0006599663
0.0006498656
0.0006397309
0.0006295739
0.0006193878
0.0006091795
0.0005989635
0.0005887562
0.0005785756
0.0005684407
0.0005583745
0.0005484018
0.0005385519
0.0005288728
0.00051937
0.0005100271
0.0005008693
0.0004919135
0.0004831652
0.0004746364
0.0004663319
0.0004582666
0.0004504506
0.0004429796
0.0004369591
0.0003276583
0.0003259125
0.0003191142
0.0003134552
0.0003089378
0.0003050975
0.0003006488
0.0002971534
0.0002936452
0.0002902424
0.0002868542
0.0002834036
0.0002799417
0.0002764449
0.0002726363
0.0002686657
0.0002648334
0.0002611279
0.0002575374
0.0002540552
0.0002506739
0.000247124
0.0002434356
0.0002397504
0.0002360763
0.0002324223
0.0002287833
0.0002251648
0.0002215599
0.0002179737
0.0002144027
0.0002108349
0.0002074757
0.0002043349
0.0002020454
0.000206617
0.0001986629
0.0002009696
0.0002030154
0.0002058175
0.0002088826
0.0002120305
0.0002153108
0.0002186708
0.0002220864
0.0002255308
0.0002290256
0.0002325303
0.0002360467
0.0002395675
0.0002430891
0.0002466095
0.0002501268
0.0002536401
0.0002571497
0.0002606572
0.0002641642
0.0002676731
0.0002711858
0.0002747051
0.0002782316
0.0002817561
0.0002853252
0.0002888993
0.0002924949
0.0002961166
0.0002997743
0.0003032888
0.0003069205
0.0003109411
0.0004169083
0.0003790474
0.0004014841
0.0004208387
0.0004374864
0.0004462453
0.0004519498
0.0004574696
0.0004628475
0.000468102
0.0004732676
0.0004783543
0.0004833828
0.0004883655
0.0004933129
0.0004982331
0.0005031314
0.0005080115
0.0005128762
0.0005177284
0.0005225703
0.0005274032
0.000532228
0.0005370453
0.0005418557
0.000546658
0.000551451
0.0005562344
0.0005610104
0.0005657836
0.0005705618
0.0005753544
0.0005801722
0.0005850249
0.0005899209
0.0005948658
0.0005998617
0.0006049067
0.0006099954
0.00061512
0.0006202696
0.0006254312
0.0006305872
0.0006357136
0.0006407862
0.0006457496
0.0006502889
0.0006545305
0.0006587319
0.0006628579
0.0006668854
0.0006708449
0.0006747189
0.0006788925
0.0006835578
0.0006859606
0.0006882339
0.0006904911
0.0006927897
0.0006951275
0.0006974925
0.0006999095
0.000702433
0.0007051208
0.0007080091
0.0007111063
0.0007144022
0.0007178792
0.0007215163
0.0007252911
0.0007291772
0.000733151
0.0007371964
0.0007413048
0.0007454755
0.0007496979
0.0007539675
0.0007582861
0.00076265
0.0007670588
0.0007715126
0.00077601
0.0007805496
0.0007851299
0.0007897499
0.0007944094
0.0007991093
0.0008038518
0.0008086447
0.0008135022
0.0008184385
0.0008234525
0.0008285295
0.0008336593
0.0008388348
0.0008440509
0.0008493022
0.0008545826
0.0008598858
0.0008651938
0.0008705092
0.0008758272
0.0008811693
0.0008865867
0.0008920329
0.0008974752
0.0009028976
0.0009082958
0.0009136738
0.0009190423
0.0009244163
0.0009298133
0.0009352494
0.0009407364
0.0009462815
0.0009518875
0.0009575543
0.0009632795
0.0009690552
0.0009748581
0.0009806272
0.0009862357
0.0009916212
0.0009968539
0.001001974
0.001007011
0.001012
0.001016969
0.001021954
0.001026989
0.001032121
0.001037404
0.001042938
0.001048885
0.0010551
0.001061601
0.001070821
0.001088174
0.0009186409
2.743787e-05
3.053269e-05
3.412285e-05
3.813414e-05
4.245075e-05
4.697446e-05
5.160411e-05
5.625804e-05
6.142384e-05
0.0002583342
0.0003046294
0.0003568264
0.0004112447
0.0004651949
0.0005175579
0.0005674007
0.0006145701
0.0006589868
0.0009298885
0.0009671674
0.001003167
0.00103705
0.001069118
0.001099647
0.001128814
0.001156593
0.001182996
0.001207536
0.001232315
0.001253333
0.00127155
0.001287898
0.001302725
0.001316174
0.001328313
0.001339287
0.001349446
0.0013578
0.001361788
0.00136493
0.001369582
0.001375794
0.001383929
0.001393806
0.001405333
0.001418453
0.001433102
0.001448811
0.001465986
0.001484746
0.001504639
0.001525526
0.001547452
0.001570703
0.001595175
0.001620513
0.001936868
0.001961069
0.001985623
0.002010083
0.002034662
0.002059727
0.002085098
0.002110653
0.002136189
0.002161753
0.002187402
0.00221292
0.002238336
0.002263632
0.002288985
0.002314244
0.002339781
0.002365612
0.002392919
0.002418879
0.002440969
0.002462673
0.002484781
0.002505584
0.002524244
0.002541249
0.002557141
0.002572171
0.002586512
0.002600286
0.002613598
0.002626527
0.002639142
0.002651482
0.00266359
0.002675497
0.002687271
0.002699073
0.002711378
0.002724573
0.002737921
0.002752635
0.002770162
0.002788121
0.00280429
0.002817558
0.002824865
0.002822314
0.002816318
0.002815608
0.002817806
0.002822052
0.002828094
0.002835095
0.002842887
0.002851398
0.002860544
0.002870258
0.00288049
0.002891191
0.002902309
0.002913785
0.002925561
0.002937572
0.002949753
0.002962034
0.002974344
0.002986609
0.002998756
0.003010713
0.003022407
0.003033766
0.003044721
0.003055205
0.003065154
0.003074506
0.003083206
0.003091202
0.003098448
0.003104905
0.003110538
0.003115321
0.003119233
0.003122261
0.003124397
0.003125639
0.003125993
0.00312547
0.003124084
0.003121858
0.003118818
0.003114998
0.003110434
0.003105171
0.003099263
0.003092784
0.003085856
0.003078649
0.003071231
0.003063394
0.003055027
0.003046249
0.00303713
0.003027715
0.003018043
0.003008166
0.002998133
0.002987981
0.00297774
0.002967434
0.002957073
0.002946647
0.002936105
0.002925289
0.002914171
0.002902759
0.00289103
0.002878948
0.002866463
0.002853519
0.002840052
0.002826003
0.002811296
0.002795855
0.002779594
0.002762435
0.002744311
0.002725153
0.002704902
0.002683512
0.002660952
0.002637207
0.002612287
0.002586231
0.002559106
0.002531016
0.002502116
0.002472656
0.00244292
0.002412919
0.002382676
0.002352313
0.002321923
0.00229173
0.002261877
0.00223279
0.002204744
0.002181671
0.002075791
0.001945961
0.00185052
0.001777853
0.001720779
0.00167471
0.001636668
0.001604634
0.001577196
0.001553343
0.001532342
0.001513647
0.001496844
0.001481608
0.00146769
0.001454892
0.001443052
0.001432037
0.001421737
0.001412063
0.001402936
0.001394293
0.001386082
0.001378256
0.001370779
0.001363619
0.001356758
0.001350184
0.001343896
0.001337907
0.001332267
0.001327057
0.001322436
0.001318803
0.001316951
0.00131819
0.001321876
0.001327116
0.001333171
0.001339776
0.001346804
0.001354152
0.001361741
0.001369516
0.001377433
0.001385458
0.001393562
0.001401722
0.001409919
0.001418136
0.00142636
0.00143458
0.001442788
0.001450977
0.001459141
0.001467278
0.001475384
0.001483457
0.001491499
0.001499508
0.001507488
0.001515441
0.001523369
0.001531274
0.00153916
0.001547027
0.001554877
0.001562706
0.001570495
0.001577993
0.001921354
0.001934392
0.001947295
0.001959658
0.001971396
0.00198255
0.001993193
0.002003391
0.002013201
0.002022691
0.002031922
0.002040944
0.002049795
0.002058508
0.002067109
0.00207562
0.002084056
0.002092432
0.002100758
0.002109045
0.002117299
0.002125529
0.002133737
0.002141925
0.002150093
0.002158239
0.002166364
0.00217447
0.002182565
0.002190658
0.00219876
0.002206885
0.002215045
0.002223254
0.00223152
0.002239854
0.002248258
0.002256731
0.002265265
0.002273846
0.002282454
0.002291059
0.002299631
0.002308131
0.002316502
0.002324626
0.002332438
0.00233997
0.002347365
0.002354628
0.002361786
0.002368807
0.002375842
0.002383155
0.002390394
0.00239694
0.002403131
0.002409279
0.002415438
0.00242161
0.002427855
0.002434237
0.002440811
0.002447624
0.002454705
0.002462073
0.002469729
0.00247766
0.002485848
0.002494268
0.002502896
0.002511708
0.002520687
0.002529824
0.002539116
0.002548571
0.002558201
0.002568034
0.002578094
0.002588294
0.002598565
0.002608872
0.002619194
0.002629515
0.002639819
0.002650087
0.002660293
0.002670402
0.002680361
0.002690086
0.002699472
0.002708555
0.00271741
0.002726081
0.00273459
0.002742947
0.00275115
0.002759195
0.002767066
0.002774753
0.00278223
0.002789468
0.002796428
0.00280308
0.002809419
0.002815462
0.002821243
0.002826807
0.002832214
0.00283753
0.002842825
0.002848164
0.002853598
0.002859163
0.002864877
0.002870743
0.002876752
0.002882888
0.002889126
0.002895436
0.002901782
0.002908127
0.00291444
0.002920708
0.002926929
0.002933127
0.002939322
0.002945574
0.00295191
0.002958451
0.00296523
0.002972529
0.002980451
0.002989818
0.003001269
0.003017328
0.003037321
0.003061492
0.003080614
3.235811e-05
4.032873e-05
5.299726e-05
6.905298e-05
8.934386e-05
0.0001157191
0.0001530255
0.0002057445
0.0002815979
0.0003307358
0.001084363
0.001163811
0.001238619
0.001310647
0.001375856
0.001436546
0.001493122
0.001546127
0.001595962
0.002365121
0.002558956
0.002695973
0.002790262
0.002855111
0.002900704
0.002934003
0.002959423
0.002979617
0.002995685
0.003011065
0.003033176
0.003059885
0.003088744
0.003117269
0.003143793
0.00316738
0.003187626
0.00320698
0.003178366
0.003162584
0.003154712
0.003152471
0.003153913
0.00315746
0.003162064
0.003166974
0.003171525
0.003175809
0.003178809
0.003180618
0.003181726
0.003182017
0.00318159
0.003180499
0.003178768
0.003175915
0.003575769
0.003570943
0.003564845
0.003557626
0.003549094
0.003539275
0.003528243
0.003516076
0.003502761
0.003488211
0.003472799
0.003458074
0.003443929
0.003430069
0.003416376
0.003402752
0.003389063
0.003374177
0.003357431
0.003338747
0.003318486
0.00329793
0.003277322
0.003256933
0.003237067
0.003218227
0.003200818
0.003185192
0.003171587
0.003160163
0.003150911
0.003144126
0.00313973
0.00313789
0.003137997
0.003140376
0.003143547
0.003149039
0.003152804
0.003158489
0.003165488
0.0031738
0.00318271
0.003191436
0.003200114
0.003208815
0.003217617
0.003226617
0.00323585
0.003245319
0.003255094
0.003265396
0.003276672
0.003288859
0.003301944
0.003315842
0.003330514
0.003345266
0.003359223
0.003372597
0.003385931
0.003399173
0.003411998
0.003424105
0.003435508
0.003446345
0.003456734
0.003466757
0.003476472
0.003485951
0.003495343
0.00350488
0.003514526
0.003524277
0.003534178
0.003544356
0.003555014
0.003566401
0.003578605
0.003591867
0.003606661
0.003622463
0.003638174
0.003652646
0.003663856
0.003670649
0.003675626
0.003682108
0.00369099
0.003702084
0.003714597
0.003728238
0.003742875
0.003758457
0.003774941
0.003792278
0.003810422
0.003829327
0.003848947
0.003869233
0.00389013
0.003911576
0.003933504
0.003955844
0.003978516
0.004001439
0.004024529
0.004047697
0.004070856
0.004093917
0.004116792
0.004139393
0.004161635
0.004183438
0.004204722
0.004225414
0.004245447
0.004264757
0.00428329
0.004300996
0.004317835
0.004333772
0.00434878
0.004362842
0.004375945
0.004388087
0.00439927
0.004409504
0.004418808
0.004427206
0.00443473
0.004441417
0.004447314
0.004452482
0.004457
0.004460965
0.004464464
0.004467495
0.004470027
0.004472106
0.004473808
0.00447521
0.004476342
0.004477285
0.004478088
0.004478794
0.004479436
0.004480042
0.004480627
0.004481194
0.004481731
0.004482201
0.004482561
0.004482748
0.004482712
0.004482386
0.004481695
0.004480555
0.004478853
0.004476502
0.004473397
0.004469426
0.004464472
0.004458418
0.004451143
0.004442527
0.004432466
0.004420858
0.004407599
0.004392614
0.004375834
0.004357198
0.00433665
0.004314112
0.004289474
0.004262524
0.004233043
0.004201307
0.00416769
0.00413251
0.004096142
0.004058932
0.004021344
0.003983789
0.00394673
0.003910392
0.003863759
0.003823923
0.003788939
0.003757543
0.003728804
0.003702096
0.003677031
0.003653364
0.003630942
0.003609678
0.00358952
0.003570434
0.003552396
0.003535387
0.00351938
0.00350435
0.003490263
0.003477082
0.003464763
0.003453265
0.003442539
0.003432542
0.003423227
0.003414554
0.003406484
0.003398986
0.003392039
0.003385632
0.003379773
0.003374495
0.003369874
0.003366055
0.003363288
0.003362043
0.003363254
0.003366168
0.003370624
0.003376371
0.003382996
0.00339028
0.003398073
0.003406241
0.003414675
0.00342329
0.003432017
0.003440808
0.003449621
0.003458427
0.003467202
0.003475929
0.003484597
0.003493196
0.003501721
0.003510169
0.003518538
0.003526828
0.003535039
0.003543174
0.003551234
0.003559223
0.003567145
0.003575004
0.003582803
0.003590546
0.003598238
0.003605877
0.003613465
0.003620989
0.003628487
0.003637345
0.003634572
0.003633042
0.003632248
0.003632127
0.003632766
0.003634189
0.00363633
0.003639085
0.003642357
0.003646071
0.00365017
0.003654609
0.003659347
0.003664348
0.003669579
0.003675011
0.003680618
0.00368638
0.003692277
0.003698293
0.003704417
0.003710636
0.003716939
0.003723315
0.003729753
0.003736245
0.003742782
0.003749365
0.003755993
0.003762674
0.003769416
0.003776228
0.003783121
0.003790104
0.003797184
0.003804367
0.003811654
0.003819041
0.003826518
0.003834071
0.003841676
0.003849308
0.003856934
0.003864514
0.003871997
0.003879324
0.003886454
0.003893389
0.003900193
0.003906899
0.003913534
0.003920095
0.003926607
0.003932974
0.003939249
0.003945528
0.003951896
0.003958367
0.003964901
0.003971466
0.003978099
0.003984853
0.003991781
0.003998919
0.004006288
0.004013896
0.004021743
0.00402982
0.004038116
0.004046625
0.004055348
0.004064301
0.004073492
0.004082792
0.004092107
0.004101374
0.004110532
0.004119506
0.004128228
0.004136851
0.004145473
0.004154127
0.004162816
0.004171536
0.004180274
0.004189019
0.004197751
0.004206449
0.004215085
0.00422363
0.004232065
0.00424038
0.004248569
0.004256628
0.004264549
0.004272323
0.004279934
0.004287366
0.004294596
0.004301604
0.004308367
0.004314859
0.004321058
0.004326954
0.004332546
0.00433785
0.004342895
0.004347726
0.004352399
0.00435698
0.004361538
0.004366136
0.004370829
0.004375653
0.004380631
0.004385769
0.004391063
0.004396498
0.004402057
0.00440772
0.004413464
0.004419271
0.004425125
0.004431027
0.004436982
0.004443017
0.004449156
0.00445547
0.004461994
0.004468884
0.004476186
0.004484287
0.004493259
0.004504071
0.00451668
0.004533433
0.004553458
0.004580011
0.004598292
3.883306e-05
6.371256e-05
0.0001407428
0.0004832937
0.0008381723
0.001532987
0.002061174
0.002703627
0.003422889
0.003996434
0.004396953
0.00469951
0.004943751
0.00510866
0.005239122
0.005330216
0.005389162
0.005423504
0.005441197
0.005450092
0.005291893
0.005039462
0.004870779
0.004735395
0.004638657
0.004581634
0.004555606
0.004556968
0.004581234
0.004637898
0.004992268
0.004610066
0.004732042
0.004836272
0.004944611
0.005057547
0.005170522
0.005283922
0.005401984
0.005422527
0.005415476
0.005406621
0.005396813
0.005386237
0.005374985
0.005363076
0.005350596
0.005337619
0.005324326
0.005310544
0.00529573
0.005280198
0.005264092
0.00524744
0.005230292
0.005212726
0.00519482
0.005176694
0.005158263
0.005139567
0.005120798
0.005101878
0.005082706
0.005063379
0.005043825
0.005024219
0.005004183
0.004984142
0.004955493
0.004927989
0.004901399
0.004875464
0.004849956
0.004824733
0.00479975
0.00477599
0.004753452
0.004731951
0.004711174
0.004688649
0.004664353
0.004638521
0.004611285
0.004582773
0.004553113
0.004522384
0.004490557
0.004457773
0.00442401
0.00438961
0.004355186
0.00432116
0.004287902
0.004255804
0.004225223
0.004196523
0.004170031
0.004145942
0.004124418
0.004105778
0.004089971
0.004077163
0.004067
0.004059784
0.004054485
0.004052381
0.004052243
0.004053278
0.004055651
0.004059534
0.004064838
0.004071234
0.004078376
0.00408604
0.004094081
0.004102412
0.004110964
0.004119697
0.004128614
0.004137496
0.004145855
0.004153941
0.004161955
0.004170065
0.004178391
0.004186903
0.004195213
0.004203143
0.00421091
0.004218511
0.004225586
0.004232094
0.004238192
0.004244081
0.004249904
0.004255736
0.004261607
0.00426751
0.00427333
0.004278854
0.004284208
0.004289555
0.0042953
0.004301576
0.004308476
0.004316159
0.004324742
0.004334278
0.004344954
0.004356614
0.004368641
0.004380279
0.004390685
0.004399306
0.004406726
0.004414509
0.00442389
0.004434884
0.004447422
0.004461329
0.004476523
0.004492988
0.004510717
0.004529688
0.00454987
0.004571229
0.004593732
0.004617338
0.004642
0.004667664
0.004694268
0.004721741
0.004750006
0.004778977
0.004808566
0.004838677
0.004869211
0.004900067
0.004931143
0.004962336
0.004993544
0.005024665
0.005055604
0.005086265
0.005116561
0.005146407
0.005175728
0.005204452
0.005232516
0.005259868
0.005286459
0.005312251
0.005337216
0.005361332
0.005384587
0.005406976
0.005428504
0.005449183
0.005469035
0.005488091
0.005506388
0.005523979
0.005540927
0.005557307
0.005573192
0.005588626
0.005603626
0.005618227
0.005632497
0.005646523
0.005660363
0.0056741
0.005687801
0.005701468
0.005715186
0.005728994
0.005742922
0.00575699
0.005771213
0.005785563
0.005800032
0.005814533
0.005829046
0.005843503
0.005857819
0.005871896
0.005885625
0.005898885
0.005911548
0.005923476
0.005934524
0.00594454
0.005953372
0.005960854
0.005966831
0.005971145
0.005973645
0.005974185
0.005972635
0.005968869
0.005962774
0.005954239
0.005943162
0.005929458
0.005913101
0.005894132
0.005872653
0.005848785
0.005822684
0.005794484
0.005764334
0.005732324
0.005698572
0.005663486
0.005626777
0.005589397
0.005552293
0.005515981
0.005480669
0.005446539
0.00541373
0.005382344
0.005352445
0.005324078
0.005297269
0.005272025
0.005248339
0.005226187
0.005205537
0.00518635
0.005168571
0.005152141
0.005136998
0.005123075
0.005110302
0.005098618
0.005087955
0.00507825
0.005069449
0.005061511
0.0050544
0.005048097
0.00504261
0.005037975
0.005034266
0.005031637
0.00503032
0.00503079
0.005033243
0.005036756
0.005041351
0.005046881
0.005053103
0.005059827
0.005066906
0.00507423
0.005081712
0.005089284
0.005096887
0.005104497
0.005112075
0.005119598
0.005127047
0.005134424
0.005141713
0.00514891
0.005156012
0.005163016
0.005169924
0.005176734
0.00518345
0.005190072
0.005196605
0.00520305
0.005209411
0.005215689
0.005221897
0.005228032
0.005234104
0.005240102
0.005246034
0.005251901
0.005257725
0.005263544
0.005268659
0.005273166
0.0052772
0.005280948
0.005284516
0.005287969
0.005291354
0.005294707
0.005298055
0.005301425
0.005304838
0.005308314
0.005311864
0.005315493
0.005319205
0.005322999
0.005326871
0.005330819
0.005334838
0.005338923
0.005343071
0.005347277
0.005351539
0.005355849
0.005360203
0.005364597
0.005369028
0.005373496
0.005378005
0.005382564
0.005387181
0.005391866
0.00539663
0.005401482
0.005406431
0.00541148
0.005416632
0.005421885
0.005427229
0.005432653
0.005438138
0.005443662
0.005449197
0.00545471
0.005460169
0.005465538
0.005470792
0.005475925
0.005480963
0.005485935
0.005490865
0.005495761
0.005500636
0.005505515
0.005510463
0.005515454
0.005520456
0.005525508
0.005530644
0.005535888
0.00554127
0.00554682
0.005552558
0.005558492
0.005564622
0.005570944
0.005577455
0.005584162
0.005591087
0.005598123
0.005605114
0.005611957
0.0056186
0.005625206
0.005631853
0.005638561
0.005645332
0.005652162
0.005659055
0.005666022
0.005673069
0.005680192
0.005687384
0.005694634
0.00570193
0.00570926
0.00571661
0.005723966
0.005731311
0.00573863
0.00574591
0.005753137
0.005760298
0.005767379
0.005774367
0.005781245
0.005787994
0.005794596
0.005801028
0.005807269
0.005813297
0.005819093
0.005824643
0.005829939
0.005834984
0.005839793
0.005844394
0.005848825
0.005853135
0.005857381
0.005861622
0.005865915
0.005870308
0.005874837
0.005879526
0.005884385
0.005889416
0.005894613
0.005899968
0.005905468
0.005911104
0.005916867
0.005922756
0.005928777
0.005934943
0.005941282
0.005947828
0.005954644
0.005961788
0.00596939
0.005977552
0.00598656
0.005996567
0.006008209
0.006021545
0.006037882
0.006056284
0.006078738
0.006096474
2.222296e-05
3.621516e-05
5.526589e-05
0.0002399927
0.000394747
0.0006795844
0.0009573067
0.001209273
0.00152258
0.001822504
0.002142899
0.002553431
0.003033221
0.003564288
0.004141412
0.004849845
0.006145691
0.006600244
0.006991546
0.007284404
0.007481736
0.007586659
0.0076035
0.007568753
0.007304973
0.006833895
0.006382509
0.005955515
0.00555531
0.005193039
0.004873942
0.004595063
0.004375553
0.004224219
0.004111968
0.004030365
0.003979035
0.003957594
0.003958353
0.003985748
0.004014101
0.00407985
0.004226254
0.004282544
0.004364336
0.00448203
0.004609464
0.004735289
0.004862548
0.004991421
0.005126922
0.005268448
0.005418888
0.005573223
0.005739177
0.005802509
0.005811684
0.005818524
0.005823465
0.00582684
0.005828896
0.005829695
0.0058294
0.005828139
0.005825973
0.005822962
0.005819149
0.00581457
0.005809241
0.005803158
0.005796324
0.00578879
0.005780522
0.005771539
0.005761851
0.005751521
0.005740509
0.005728878
0.005716538
0.0057034
0.0056894
0.005674447
0.005658689
0.005642858
0.005627576
0.005612792
0.005597026
0.005580079
0.00556199
0.005542792
0.005522329
0.005500467
0.005477138
0.005452283
0.005425853
0.005397793
0.005368087
0.00533676
0.00530391
0.005269629
0.005234164
0.005197911
0.005161278
0.00512464
0.005088378
0.005052893
0.005018605
0.004985916
0.004955184
0.004926703
0.004900761
0.004877516
0.00485715
0.004839637
0.004825075
0.0048132
0.004804114
0.004797566
0.004793166
0.004790754
0.004790255
0.004791502
0.004794226
0.004798158
0.004803064
0.004808742
0.004815022
0.004821768
0.004828866
0.004836236
0.004843798
0.004851459
0.004859138
0.004866805
0.0048744
0.004881868
0.004889057
0.004895762
0.004901952
0.004907756
0.004913231
0.004918309
0.004922944
0.004927202
0.004931214
0.004935102
0.004938951
0.004942814
0.004946726
0.004950704
0.004954757
0.004958907
0.004963139
0.004967167
0.004971119
0.004975244
0.004979967
0.004985458
0.004991753
0.004998889
0.005006777
0.005015111
0.005023457
0.005031542
0.005038808
0.00504559
0.005052522
0.00506027
0.005069253
0.005079608
0.005091311
0.005104341
0.005118719
0.005134475
0.005151628
0.005170185
0.005190147
0.005211509
0.005234262
0.005258386
0.005283853
0.005310625
0.005338655
0.005367883
0.005398243
0.005429659
0.005462046
0.005495313
0.005529363
0.005564096
0.005599406
0.005635188
0.005671333
0.005707735
0.005744289
0.005780893
0.005817449
0.005853864
0.00589005
0.005925928
0.005961424
0.005996473
0.006031018
0.006065012
0.006098416
0.006131201
0.006163345
0.006194837
0.006225678
0.006255873
0.006285443
0.006314416
0.00634283
0.006370738
0.006398198
0.006425273
0.006452015
0.006478464
0.006504663
0.006530674
0.006556572
0.006582431
0.006608323
0.006634344
0.006660537
0.006686921
0.006713561
0.006740519
0.006767842
0.006795558
0.006823603
0.00685202
0.006880786
0.006909861
0.006939189
0.006968696
0.00699829
0.007027863
0.007057295
0.007086451
0.007115183
0.007143333
0.007170733
0.007197203
0.007222557
0.007246598
0.007269127
0.007289944
0.007308855
0.007325678
0.007340242
0.007352389
0.007361969
0.007368851
0.007372924
0.007374114
0.00737238
0.007367721
0.007360163
0.007349768
0.007336619
0.00732083
0.007302544
0.00728196
0.007259311
0.007234759
0.007208433
0.007180317
0.007150805
0.00712066
0.007090641
0.007061032
0.00703201
0.00700375
0.006976404
0.006950099
0.006924939
0.006901006
0.006878356
0.006857025
0.006837034
0.00681838
0.00680105
0.006785017
0.006770243
0.006756685
0.006744295
0.006733022
0.006722816
0.00671363
0.006705425
0.006698172
0.006691853
0.006686472
0.006682059
0.006678682
0.006676466
0.006675645
0.006676657
0.006678587
0.0066814
0.006685045
0.006689415
0.006694352
0.006699706
0.006705355
0.006711208
0.006717195
0.006723257
0.00672935
0.006735439
0.006741497
0.006747503
0.006753437
0.006759289
0.006765045
0.006770719
0.006776292
0.006781758
0.006787115
0.006792361
0.006797495
0.006802519
0.006807432
0.006812236
0.006816924
0.006821508
0.006826012
0.00683042
0.006834737
0.006838962
0.006843103
0.006847156
0.006851131
0.006855023
0.006858786
0.006862396
0.006865854
0.006869187
0.006872411
0.006875544
0.006878599
0.006881587
0.006884517
0.006887395
0.00689023
0.006893031
0.006895807
0.006898563
0.006901305
0.006904036
0.006906759
0.006909475
0.006912187
0.006914895
0.006917601
0.006920306
0.006923011
0.006925717
0.006928423
0.00693113
0.006933841
0.006936558
0.006939289
0.006942042
0.006944829
0.006947658
0.006950543
0.006953492
0.006956515
0.006959616
0.006962799
0.006966063
0.006969402
0.006972808
0.006976267
0.006979762
0.006983272
0.006986774
0.006990246
0.006993664
0.006997013
0.007000287
0.007003498
0.007006666
0.007009811
0.007012948
0.007016099
0.007019283
0.007022513
0.007025788
0.007029122
0.007032551
0.0070361
0.00703977
0.007043563
0.007047489
0.007051556
0.007055778
0.007060164
0.007064728
0.007069485
0.007074264
0.007078876
0.007083389
0.007087945
0.007092601
0.007097386
0.007102323
0.00710742
0.007112676
0.007118085
0.007123637
0.007129325
0.007135139
0.007141071
0.007147108
0.007153238
0.007159448
0.007165725
0.007172057
0.00717843
0.007184831
0.00719125
0.007197672
0.007204087
0.007210481
0.007216843
0.007223157
0.00722941
0.007235586
0.007241667
0.007247635
0.007253471
0.007259155
0.007264672
0.007270006
0.007275146
0.007280089
0.00728484
0.007289412
0.007293829
0.007298125
0.00730234
0.007306523
0.007310724
0.00731499
0.007319365
0.007323883
0.007328569
0.007333438
0.007338497
0.007343749
0.007349192
0.007354824
0.007360644
0.007366653
0.007372856
0.007379264
0.007385898
0.007392786
0.007399969
0.007407501
0.007415454
0.007423935
0.007433061
0.007443043
0.007454049
0.007466485
0.00748041
0.007496579
0.007514083
0.007534447
0.007550261
2.077099e-05
3.226648e-05
6.414809e-05
0.0001970502
0.0003170783
0.0005061339
0.0006449102
0.0008010973
0.000983558
0.001158929
0.001362929
0.001628293
0.001927217
0.002278471
0.002730031
0.003607531
0.004009513
0.004434209
0.004872968
0.005322286
0.005784944
0.006250069
0.006699059
0.007116812
0.007487394
0.007798005
0.00805748
0.00830435
0.008480069
0.008573905
0.008535131
0.008140539
0.007687311
0.007228935
0.006760757
0.006296189
0.005854953
0.005444562
0.005055488
0.004700688
0.004402373
0.004152275
0.003950765
0.003795856
0.00368354
0.003608103
0.003567271
0.003557893
0.003577738
0.003623573
0.003692713
0.003789359
0.003905321
0.004019126
0.004133871
0.004271076
0.004426373
0.004594651
0.004772951
0.00496165
0.005163107
0.005373644
0.005589709
0.005818754
0.005863886
0.005897813
0.005929473
0.005959183
0.005987172
0.006013589
0.006038539
0.00606204
0.006084082
0.00610468
0.00612385
0.006141604
0.006157934
0.006172827
0.006186262
0.006198232
0.00620872
0.006217726
0.00622526
0.006231354
0.006236029
0.006239335
0.006241299
0.006242003
0.006241472
0.006239718
0.006236746
0.006233037
0.006229454
0.006225306
0.006219946
0.006213439
0.006205741
0.00619678
0.006186466
0.006174724
0.006161447
0.006146506
0.00612979
0.006111202
0.006090648
0.006068038
0.006043314
0.006016467
0.005987543
0.005956639
0.005923927
0.005889676
0.005854226
0.005817943
0.005781224
0.005744491
0.005708192
0.005672778
0.00563868
0.005606276
0.005575928
0.00554792
0.005522507
0.005499818
0.005479971
0.005462934
0.005448699
0.0054372
0.005428264
0.00542168
0.005417279
0.005414886
0.005414293
0.005415266
0.005417566
0.00542096
0.005425239
0.005430218
0.005435733
0.005441653
0.005447865
0.005454268
0.005460772
0.005467309
0.005473806
0.005480187
0.00548634
0.005492143
0.005497537
0.005502546
0.005507214
0.005511546
0.005515522
0.005519176
0.005522586
0.005525842
0.005529017
0.005532169
0.005535341
0.005538571
0.005541889
0.005545331
0.005548932
0.005552706
0.005556682
0.005560867
0.00556509
0.00556948
0.005574207
0.005579387
0.005585048
0.005591096
0.005597295
0.005603268
0.005608887
0.005614371
0.005620037
0.005626265
0.005633204
0.005641223
0.005650392
0.005660752
0.005672349
0.005685238
0.00569947
0.005715085
0.005732116
0.00575059
0.00577053
0.005791949
0.005814852
0.005839234
0.005865079
0.005892362
0.005921046
0.005951083
0.005982417
0.006014979
0.006048694
0.00608348
0.006119246
0.006155898
0.006193337
0.006231461
0.006270168
0.006309355
0.006348921
0.006388767
0.006428798
0.006468924
0.006509061
0.006549132