/*--------------------------------*- C++ -*----------------------------------*\
| =========                 |                                                 |
| \\      /  F ield         | foam-extend: Open Source CFD                    |
|  \\    /   O peration     | Version:     3.1                                |
|   \\  /    A nd           | Web:         http://www.extend-project.de       |
|    \\/     M anipulation  |                                                 |
\*---------------------------------------------------------------------------*/
FoamFile
{
    version     2.0;
    format      ascii;
    class       volScalarField;
    location    "4.5";
    object      omega;
}
// * * * * * * * * * * * * * * * * * * * * * * * * * * * * * * * * * * * * * //

dimensions      [0 0 -1 0 0 0 0];

internalField   nonuniform List<scalar> 
119952
(
154.8018
187.3322
176.2105
156.9218
143.3447
144.9432
148.4816
152.8968
157.6164
162.4097
167.2041
171.9995
176.8301
181.7444
186.7951
192.0359
197.523
203.3272
209.5781
216.7779
184.3574
184.2327
186.6417
159.06
156.2275
154.971
153.9608
152.9831
150.2998
174.3965
439.3819
360.529
299.657
256.2876
224.3038
199.9537
180.6607
164.9707
151.8871
137.9795
121.5353
110.7179
103.174
97.2463
92.1044
87.39033
82.98695
78.85913
75.11155
62.16041
59.89608
57.54552
55.23132
53.02501
50.95764
49.03862
47.26424
45.62649
44.15625
42.79812
41.44949
40.15058
38.90344
37.70723
36.56263
35.46356
34.39335
33.32265
32.85692
32.32257
31.637
31.04366
30.51038
29.99634
29.46758
28.9468
28.44273
27.95569
27.48594
27.03363
26.599
26.18183
25.78157
25.39715
25.02644
24.66488
24.30271
23.92608
23.55509
23.20363
22.79684
22.40108
22.15519
21.94325
21.77157
21.79587
22.34349
23.25869
23.3332
23.24295
23.08133
22.89748
22.70651
22.51645
22.3315
22.15386
21.98477
21.82488
21.6745
21.53373
21.40248
21.28053
21.16764
21.06359
20.96817
20.88116
20.80234
20.73145
20.66827
20.61258
20.56422
20.52305
20.48896
20.46189
20.44178
20.4286
20.42234
20.42304
20.43073
20.44544
20.46724
20.49618
20.53234
20.57582
20.62672
20.68478
20.75047
20.82411
20.90543
20.99465
21.09185
21.19714
21.31023
21.43046
21.55596
21.67881
21.77752
21.91134
22.1104
22.32581
22.54899
22.77468
23.00046
23.2258
23.45054
23.67499
23.89974
24.12553
24.35307
24.58313
24.8165
25.05398
25.29661
25.54527
25.80053
26.06326
26.33432
26.61462
26.90503
27.20647
27.51985
27.84396
28.18097
28.5311
28.89865
29.28165
29.68064
30.09637
30.52934
30.97988
31.44813
31.93417
32.43776
32.95864
33.49613
34.04703
34.60996
35.18529
35.77265
36.37117
36.98041
37.59955
38.2279
38.86419
39.50578
40.13736
40.66328
42.56061
46.34515
49.57629
52.27829
54.52996
56.44446
58.08557
59.51644
60.78646
61.93612
62.9993
63.99863
64.95677
65.8877
66.80178
67.70906
68.61811
69.53604
70.46906
71.42145
72.39725
73.39922
74.429
75.48954
76.58335
77.71311
78.88074
80.08874
81.33854
82.6324
83.97307
85.35249
86.76454
88.18083
89.49252
89.53797
88.26995
87.09084
85.95626
84.85627
83.77012
82.69691
81.63319
80.57664
79.52688
78.48434
77.44986
76.42465
75.41012
74.40768
73.41862
72.44407
71.48492
70.54187
69.61541
68.70582
67.81328
66.93782
66.07933
65.23761
64.41243
63.60359
62.81084
62.03382
61.27212
60.52528
59.79257
59.07616
58.3768
57.69677
44.90344
44.54588
44.08701
43.46772
42.80528
42.12283
41.4353
40.76428
40.12267
39.51521
38.94371
38.40743
37.90405
37.43028
36.98259
36.55754
36.152
35.76318
35.38861
35.0262
34.67423
34.33131
33.99641
33.66877
33.34783
33.03321
32.72462
32.42181
32.12456
31.83256
31.54546
31.26282
30.98416
30.709
30.43691
30.16754
29.90066
29.6362
29.37424
29.11501
28.85888
28.60643
28.35865
28.11759
27.88736
27.67193
27.47086
27.2778
27.09055
26.90949
26.73386
26.56447
26.40169
26.24628
26.17796
26.02857
25.87781
25.7173
25.54264
25.35517
25.15676
24.94942
24.73527
24.51618
24.29397
24.07054
23.8478
23.62746
23.41097
23.19954
22.99403
22.79495
22.60252
22.417
22.23838
22.06617
21.89986
21.73933
21.58408
21.43361
21.28753
21.14548
21.0071
20.87207
20.74008
20.61083
20.48407
20.35954
20.23691
20.11572
19.9956
19.8766
19.75873
19.64196
19.52626
19.41164
19.29811
19.18574
19.07463
18.9648
18.85646
18.75013
18.64497
18.54024
18.43678
18.33521
18.23587
18.13887
18.04419
17.95162
17.86088
17.77158
17.68329
17.5956
17.50816
17.42063
17.33274
17.24425
17.15501
17.06509
16.97519
16.88704
16.80141
16.71735
16.63464
16.55319
16.47276
16.39297
16.31337
16.23339
16.15233
16.06909
15.98193
15.88735
15.7851
15.66865
15.50308
15.26997
15.30914
546.5599
451.6203
387.9187
342.5007
308.1575
280.9272
258.4799
239.4419
222.2076
191.1769
159.6354
138.8757
124.3666
113.6055
105.2242
98.42031
92.724
87.82153
68.63463
65.99676
63.45897
61.01738
58.7276
56.62504
54.71478
52.98745
51.43237
50.03502
48.85868
47.77669
46.7406
45.76736
44.85751
44.01
43.2233
42.49286
41.80947
41.34465
41.0878
40.73404
40.3364
39.90674
39.43399
38.92372
38.38213
37.81472
37.22649
36.60817
35.98051
35.35788
34.73267
34.10441
33.47421
32.8407
32.21863
31.64239
27.98332
27.50132
27.05469
26.63172
26.22349
25.8253
25.43761
25.06032
24.69224
24.3332
23.98507
23.64436
23.30897
22.97845
22.65268
22.33086
22.01429
21.70723
21.42043
21.14801
20.85933
20.57374
20.30467
20.04402
19.78363
19.52244
19.26242
19.00407
18.7477
18.49356
18.24186
17.99274
17.74624
17.50215
17.2601
17.01946
16.77951
16.53988
16.30217
16.06882
15.83743
15.61318
15.41099
15.22946
15.05979
14.90695
14.77647
14.64869
14.49012
14.32183
14.16114
14.00321
13.84769
13.69607
13.5482
13.40361
13.26192
13.12288
12.98633
12.85215
12.72027
12.59061
12.46313
12.33778
12.21454
12.09339
11.97431
11.85729
11.74235
11.62947
11.51868
11.40997
11.30337
11.19889
11.09655
10.99638
10.8984
10.80263
10.7091
10.61784
10.52886
10.4422
10.35788
10.27591
10.19631
10.11909
10.04428
9.971875
9.901895
9.834339
9.769204
9.706472
9.646109
9.58805
9.532188
9.47838
9.426516
9.376652
9.329251
9.28469
9.242759
9.203439
9.166726
9.132541
9.100804
9.071446
9.044403
9.019596
8.996942
8.97636
8.957789
8.941188
8.926587
8.914326
8.904451
8.89687
8.891541
8.888454
8.887625
8.889082
8.892873
8.899042
8.907662
8.918816
8.932654
8.949327
8.968914
8.991513
9.017224
9.04614
9.078342
9.113892
9.152808
9.195065
9.240579
9.289211
9.340677
9.394444
9.449789
9.506763
9.565335
9.625348
9.686488
9.748307
9.810068
9.870579
9.928393
9.968481
10.33463
10.82139
11.20897
11.51891
11.76938
11.97415
12.14355
12.28578
12.40702
12.51198
12.60427
12.68669
12.76136
12.82996
12.89374
12.95367
13.0105
13.06485
13.11717
13.16784
13.21715
13.26532
13.31252
13.35887
13.40446
13.44933
13.49343
13.53662
13.57872
13.61933
13.65763
13.69241
13.72148
13.739
13.73539
13.69986
13.64915
13.59481
13.53847
13.48009
13.42042
13.36005
13.29936
13.23866
13.17819
13.11814
13.05866
12.99987
12.94188
12.88473
12.82849
12.77316
12.71876
12.66528
12.61271
12.56103
12.51021
12.46022
12.41103
12.36261
12.31492
12.26792
12.22158
12.17587
12.13076
12.08623
12.04231
11.999
11.95634
11.91588
10.27051
10.21016
10.15973
10.11587
10.07614
10.03921
10.00449
9.971556
9.939983
9.909367
9.879423
9.849938
9.820752
9.791759
9.762882
9.734069
9.705289
9.676525
9.647769
9.619023
9.590293
9.561592
9.532938
9.504357
9.475879
9.44753
9.41933
9.391287
9.363402
9.335668
9.308076
9.280614
9.253272
9.226038
9.198906
9.171868
9.144925
9.118085
9.091373
9.064833
9.038543
9.012613
8.987209
8.962507
8.938647
8.915678
8.893455
8.871777
8.850565
8.829946
8.80991
8.7905
8.771568
8.754283
8.739046
8.723042
8.705934
8.688899
8.672309
8.656211
8.640405
8.62462
8.608603
8.592143
8.575065
8.557244
8.538606
8.519122
8.498804
8.477702
8.455879
8.433396
8.410312
8.386687
8.362587
8.33806
8.313133
8.287817
8.262135
8.236312
8.210528
8.18489
8.159474
8.134347
8.109572
8.085217
8.061362
8.038108
8.0156
7.994044
7.973676
7.954388
7.936008
7.918445
7.901654
7.885622
7.870353
7.855863
7.842187
7.82934
7.817379
7.806376
7.796394
7.7875
7.779698
7.772953
7.767199
7.762339
7.758253
7.754795
7.751809
7.749142
7.746659
7.744249
7.741832
7.739353
7.736786
7.734125
7.731387
7.72862
7.72589
7.723276
7.720837
7.71861
7.716584
7.71472
7.712933
7.711125
7.709126
7.706755
7.703692
7.699558
7.693645
7.684914
7.671708
7.651823
7.629439
7.615602
7.604788
577.2027
508.4873
452.1007
409.9146
376.4415
349.4244
328.2456
310.64
297.573
288.6271
135.258
129.2668
123.6808
118.3273
113.4631
108.9002
104.6155
100.5691
96.60773
73.05737
66.94926
62.92179
60.1746
58.11699
56.42589
54.94265
53.58828
52.31816
51.1371
49.91305
48.58174
47.21958
45.89209
44.63881
43.4749
42.40037
41.40766
40.47487
40.09585
39.55549
38.91407
38.22018
37.50934
36.80147
36.10956
35.44136
34.80194
34.19657
33.6185
33.06577
32.53822
32.03114
31.54253
31.07223
30.62113
30.20166
27.45041
27.11
26.79419
26.50149
26.22754
25.96951
25.7263
25.49706
25.28113
25.07683
24.8839
24.69877
24.51995
24.34663
24.17911
24.01777
23.86349
23.72251
23.59757
23.48915
23.39318
23.29953
23.20811
23.11698
23.02363
22.92579
22.82105
22.70731
22.58278
22.44517
22.29276
22.12703
21.94804
21.75756
21.55614
21.34631
21.12222
20.88024
20.70858
20.52304
20.32253
20.11326
19.90396
19.70078
19.50361
19.31172
19.12459
18.9419
18.763
18.58696
18.4132
18.24079
18.06834
17.89665
17.72648
17.5593
17.39604
17.23612
17.07465
16.91059
16.7471
16.58455
16.42065
16.25398
16.08484
15.91416
15.7427
15.57093
15.39909
15.22734
15.05554
14.88341
14.71115
14.53892
14.36675
14.19494
14.02418
13.85578
13.69098
13.53143
13.38075
13.24011
13.10717
12.97844
12.85507
12.73132
12.5973
12.45511
12.31351
12.17532
12.04069
11.90863
11.77865
11.65055
11.52421
11.39947
11.27623
11.15435
11.03376
10.91438
10.79617
10.67908
10.56307
10.44815
10.3343
10.22151
10.10981
9.999204
9.889718
9.781383
9.674231
9.568303
9.463637
9.360279
9.258274
9.157668
9.05851
8.960846
8.864723
8.770186
8.677278
8.586043
8.496518
8.408742
8.32275
8.238571
8.156234
8.075759
7.997162
7.920451
7.845627
7.77268
7.701592
7.632352
7.564967
7.499507
7.436084
7.374726
7.315316
7.257771
7.202058
7.148165
7.096122
7.045884
6.997431
6.950737
6.905773
6.862511
6.820927
6.781004
6.742739
6.706141
6.6712
6.637934
6.606339
6.57642
6.548178
6.52162
6.496784
6.473661
6.452274
6.432646
6.414803
6.398768
6.384569
6.372245
6.361813
6.353291
6.346713
6.342081
6.339409
6.338709
6.340017
6.343399
6.349001
6.35707
6.367918
6.38124
6.396733
6.414028
6.432889
6.452828
6.47362
6.494522
6.515521
6.53549
6.568837
6.593934
6.613243
6.628465
6.640908
6.651463
6.660701
6.66901
6.676645
6.683765
6.69047
6.696826
6.702876
6.708653
6.714181
6.719486
6.724591
6.729519
6.734294
6.738938
6.74347
6.747904
6.752252
6.756518
6.760697
6.764772
6.768707
6.772446
6.775893
6.778909
6.781257
6.782556
6.782253
6.7795
6.773016
6.764621
6.755202
6.745167
6.734716
6.723954
6.712988
6.701907
6.69078
6.679664
6.668605
6.657636
6.646784
6.636068
6.625499
6.615086
6.604833
6.594741
6.58481
6.575037
6.565422
6.555959
6.546645
6.537477
6.528449
6.519558
6.510798
6.502168
6.493659
6.485275
6.477007
6.468869
6.460854
6.452998
6.445244
6.43567
6.448209
6.458457
6.466311
6.471871
6.475616
6.478013
6.479377
6.479891
6.479669
6.478792
6.477332
6.475352
6.472909
6.47005
6.466816
6.463243
6.459363
6.455204
6.450792
6.446149
6.441295
6.436248
6.431029
6.425655
6.420145
6.414515
6.408778
6.402939
6.397001
6.390963
6.384822
6.378576
6.372222
6.365758
6.359185
6.352505
6.345725
6.338854
6.33191
6.324919
6.317913
6.310937
6.304039
6.297272
6.29067
6.284261
6.278017
6.271898
6.265869
6.259943
6.254132
6.248428
6.24282
6.237298
6.23192
6.226666
6.221587
6.216678
6.211911
6.207178
6.202386
6.197489
6.192467
6.187306
6.181997
6.176531
6.170901
6.165094
6.159096
6.152894
6.146469
6.139801
6.132888
6.125839
6.118736
6.111639
6.104614
6.097744
6.091101
6.084532
6.077938
6.071292
6.064599
6.057877
6.051149
6.044443
6.03779
6.031227
6.024797
6.01854
6.012493
6.006681
6.001122
5.99583
5.990823
5.986122
5.981753
5.977742
5.974122
5.970921
5.968173
5.965909
5.964156
5.962937
5.962258
5.962114
5.962486
5.963339
5.964625
5.966288
5.968264
5.97049
5.97291
5.975478
5.978159
5.980931
5.983781
5.986705
5.989707
5.992795
5.995982
5.99928
6.002695
6.006221
6.009845
6.013532
6.017241
6.020897
6.024428
6.027698
6.030581
6.032828
6.034232
6.034415
6.033225
6.030402
6.026042
6.022179
6.017616
348.6722
254.0211
358.8475
161.8354
126.1306
91.15369
78.21542
67.29495
58.59176
54.42272
52.77948
51.89294
51.37898
51.38991
51.47883
51.70941
52.00239
52.31099
52.57661
52.7426
52.72674
52.33088
51.76954
51.37781
50.84456
50.1997
49.45343
48.61981
47.71881
46.75941
45.70861
42.92233
41.9058
40.89264
39.88976
38.90716
37.95412
37.03509
36.15085
35.30353
34.49326
33.71645
32.9726
32.258
31.57301
30.9174
30.29023
29.69073
29.11871
28.57306
28.05211
27.5564
27.08525
26.63679
26.20938
25.80173
25.41283
25.04195
24.68776
24.34941
24.02696
23.71929
23.42524
23.14449
22.87634
22.62067
22.37542
22.13316
21.93458
21.74459
21.5628
21.38883
21.22257
21.06419
20.9137
20.76695
20.62377
20.48497
20.35166
20.2304
20.12053
20.02143
19.9327
19.85378
19.784
19.72237
19.66807
19.61986
19.5758
19.53363
19.49178
19.44925
19.40462
19.35591
19.30117
19.2386
19.16669
19.08413
18.99039
18.88478
18.76758
18.63848
18.49897
18.34892
18.19231
18.02759
17.86103
17.69112
17.51792
17.34362
17.17053
16.99991
16.83223
16.66784
16.50704
16.34996
16.19663
16.04696
15.90071
15.75817
15.62041
15.48692
15.35714
15.23062
15.10702
14.98576
14.86469
14.74252
14.61992
14.49764
14.37529
14.25155
14.12584
13.99827
13.86918
13.73888
13.60762
13.47566
13.34348
13.21178
13.08053
12.94959
12.81851
12.68762
12.5576
12.42932
12.30369
12.1815
12.0641
11.95221
11.84471
11.73958
11.63561
11.53106
11.42275
11.31113
11.19928
11.08944
10.98155
10.87506
10.76961
10.66505
10.56125
10.45809
10.35543
10.25315
10.15114
10.04933
9.947641
9.846033
9.744471
9.642936
9.541424
9.439942
9.338511
9.237164
9.135942
9.034898
8.934089
8.833583
8.733449
8.633762
8.534599
8.436041
8.338167
8.241058
8.144793
8.049452
7.955111
7.861845
7.769726
7.678824
7.589202
7.500922
7.414041
7.328607
7.244666
7.162257
7.081413
7.00216
6.924522
6.848524
6.774199
6.701593
6.630757
6.561708
6.494402
6.428787
6.36484
6.30255
6.241929
6.182942
6.125564
6.069824
6.015665
5.963072
5.912027
5.862516
5.814514
5.768031
5.723045
5.679595
5.637649
5.59721
5.558281
5.520866
5.48497
5.450599
5.417763
5.386469
5.356728
5.328553
5.301953
5.276945
5.253538
5.231738
5.211552
5.192981
5.176029
5.160695
5.146988
5.134917
5.1245
5.115749
5.108666
5.103206
5.09931
5.096892
5.095893
5.096237
5.097909
5.100864
5.105128
5.110455
5.11719
5.124724
5.132443
5.140018
5.147343
5.154345
5.16098
5.167209
5.173021
5.178409
5.183376
5.187932
5.192093
5.19588
5.199317
5.202428
5.205242
5.20779
5.2101
5.212199
5.214115
5.215866
5.217473
5.218951
5.220306
5.221536
5.22263
5.223562
5.224284
5.224724
5.224776
5.224277
5.223012
5.220632
5.217096
5.213154
5.208913
5.204525
5.200101
5.195689
5.191324
5.187029
5.182824
5.178726
5.174744
5.170875
5.167125
5.163494
5.15998
5.156573
5.153272
5.150073
5.146972
5.143962
5.141041
5.138203
5.135445
5.132763
5.130153
5.127612
5.125138
5.122729
5.120379
5.118084
5.115849
5.113671
5.111566
5.109508
5.107543
5.105581
5.104411
5.103841
5.103763
5.104025
5.1045
5.105092
5.10574
5.106403
5.107056
5.107675
5.108247
5.10876
5.10921
5.109595
5.109913
5.110166
5.110354
5.11048
5.110545
5.11055
5.110499
5.110392
5.110234
5.110026
5.109774
5.109479
5.109142
5.108762
5.108336
5.107861
5.107331
5.106742
5.10609
5.105371
5.104585
5.10373
5.102809
5.101827
5.100791
5.099713
5.098607
5.097491
5.096383
5.0953
5.094259
5.093267
5.092317
5.091394
5.090481
5.089577
5.088684
5.087805
5.086942
5.086122
5.085357
5.084611
5.083838
5.083012
5.082142
5.081233
5.080282
5.079286
5.078248
5.077172
5.076066
5.074932
5.073772
5.072578
5.071339
5.070104
5.068942
5.067897
5.066986
5.066107
5.065201
5.064251
5.063253
5.062205
5.061103
5.059937
5.058708
5.057418
5.056076
5.054692
5.053277
5.051844
5.050408
5.048984
5.047589
5.046241
5.044956
5.043751
5.042641
5.041641
5.04077
5.040043
5.039481
5.039102
5.038929
5.03898
5.039275
5.039834
5.040672
5.041802
5.043229
5.044956
5.046975
5.049274
5.051835
5.054635
5.057648
5.060847
5.064209
5.067715
5.071348
5.075098
5.078958
5.082923
5.086993
5.091167
5.095445
5.099826
5.104305
5.108873
5.113514
5.118207
5.122923
5.127622
5.132255
5.136761
5.141065
5.145093
5.148743
5.152003
5.154728
5.157187
5.158862
5.161556
5.161882
319.1163
215.0946
162.7931
143.7429
116.8994
97.31524
83.4217
77.89175
71.81993
68.34232
65.37818
61.43759
57.58765
54.02259
50.8859
47.5983
42.68908
41.68209
41.10969
41.05873
41.49311
42.25002
43.15767
44.09073
45.02259
45.91679
46.72687
47.42374
47.98063
48.35663
48.5405
48.48829
48.14939
47.56485
46.80661
45.9193
44.9294
43.85999
42.74038
41.5879
40.43809
39.27535
38.08288
36.95163
35.87147
34.82946
33.82724
32.86958
31.95808
31.09222
30.26824
29.48465
28.73984
28.0327
27.36449
26.73367
26.13863
25.57731
25.04787
24.54842
24.07743
23.63277
23.21282
22.81619
22.44151
22.08759
21.75328
21.43753
21.13923
20.8574
20.59099
20.33922
20.10105
19.87582
19.66265
19.46124
19.27056
19.09069
18.92041
18.76139
18.6126
18.47266
18.34093
18.21451
18.09132
17.97223
17.86208
17.76146
17.6701
17.58769
17.51442
17.45005
17.39429
17.34693
17.3076
17.27568
17.25032
17.23057
17.2153
17.20328
17.19315
17.18347
17.17288
17.1599
17.14285
17.12013
17.09021
17.05184
17.00394
16.94572
16.87646
16.79606
16.7045
16.6025
16.49061
16.37015
16.24136
16.10618
15.96621
15.82249
15.67635
15.52916
15.38203
15.23588
15.09149
14.94946
14.81023
14.67409
14.54118
14.41154
14.28527
14.1624
14.04281
13.92635
13.81295
13.70233
13.5941
13.48741
13.38136
13.27562
13.1701
13.06445
12.9581
12.85065
12.74204
12.63237
12.52178
12.41045
12.29854
12.18628
12.07386
11.96147
11.8494
11.73843
11.62885
11.52081
11.41436
11.31002
11.20835
11.10988
11.01483
10.92276
10.8326
10.74324
10.65399
10.56389
10.47306
10.38243
10.29311
10.20531
10.11877
10.03321
9.948451
9.864337
9.780708
9.697392
9.614216
9.531023
9.447672
9.364034
9.280001
9.195478
9.110391
9.024682
8.938313
8.851263
8.763528
8.675124
8.586078
8.496436
8.406253
8.315597
8.224546
8.133186
8.041608
7.94991
7.858192
7.766557
7.675111
7.583957
7.493201
7.402945
7.31329
7.224334
7.136171
7.04889
6.962574
6.877303
6.793148
6.710176
6.62845
6.548026
6.468958
6.391301
6.315108
6.240427
6.167288
6.095693
6.025629
5.957094
5.89009
5.824619
5.760675
5.698228
5.637285
5.577865
5.519946
5.463503
5.408512
5.354961
5.302895
5.25227
5.203082
5.155331
5.109016
5.064138
5.020702
4.978707
4.938159
4.89906
4.861416
4.825235
4.790522
4.757286
4.725535
4.695275
4.666512
4.639248
4.613482
4.589211
4.566428
4.545129
4.525306
4.506951
4.490051
4.474588
4.460538
4.447869
4.436546
4.42653
4.417783
4.410267
4.403936
4.398745
4.394631
4.391572
4.389542
4.388559
4.388476
4.389007
4.389881
4.390996
4.392296
4.393728
4.395243
4.396799
4.398359
4.399895
4.401386
4.402816
4.404174
4.405455
4.406657
4.407782
4.408832
4.409813
4.410728
4.411582
4.412378
4.413115
4.41379
4.414392
4.414905
4.415303
4.415549
4.415589
4.415347
4.414709
4.413505
4.412121
4.410585
4.408948
4.407273
4.405615
4.404004
4.402457
4.400986
4.399597
4.398297
4.397086
4.395965
4.394931
4.393983
4.39312
4.392337
4.391633
4.390994
4.390426
4.389924
4.389487
4.389112
4.388797
4.388539
4.388335
4.388186
4.388094
4.38805
4.388043
4.388081
4.388163
4.388288
4.388458
4.38867
4.388925
4.389212
4.389568
4.390012
4.390554
4.391187
4.391896
4.392675
4.393521
4.394429
4.395394
4.396407
4.397459
4.398543
4.399653
4.400783
4.401929
4.403088
4.404258
4.405435
4.406617
4.407804
4.408993
4.410183
4.411373
4.412562
4.413751
4.414938
4.416121
4.417298
4.418466
4.419621
4.420759
4.421876
4.422968
4.424033
4.42507
4.426077
4.427055
4.428006
4.428935
4.429846
4.430747
4.431645
4.432548
4.433465
4.4344
4.435356
4.436329
4.437312
4.438298
4.439281
4.440262
4.441241
4.44222
4.443196
4.444161
4.445103
4.446022
4.44692
4.447804
4.448676
4.449531
4.450369
4.451194
4.452009
4.452815
4.453613
4.454402
4.455241
4.456189
4.457215
4.458256
4.459286
4.460285
4.461239
4.462141
4.462987
4.463778
4.464513
4.465194
4.465823
4.466405
4.466944
4.467447
4.467921
4.468372
4.468809
4.46924
4.469674
4.47012
4.470587
4.471086
4.471627
4.472219
4.472875
4.473604
4.47442
4.475334
4.476359
4.477509
4.478796
4.480232
4.481828
4.483596
4.485541
4.48767
4.489984
4.492483
4.495161
4.498014
4.50103
4.504199
4.507511
4.510957
4.514526
4.518212
4.522009
4.525914
4.529923
4.534033
4.538244
4.542551
4.546952
4.55144
4.556007
4.560642
4.565331
4.570055
4.574792
4.579512
4.584188
4.588782
4.593276
4.59762
4.60187
4.605902
4.610046
4.613674
4.618387
4.620498
171.334
125.1573
190.0849
92.17277
78.76529
67.07962
63.64306
61.16597
58.47061
57.40085
55.96969
53.96364
52.14562
50.27158
48.11064
43.63292
42.74475
41.96411
41.24508
40.58884
39.94898
39.36856
38.90012
38.56924
38.39902
38.38629
38.45068
38.60758
38.97839
39.59327
40.43677
41.44564
42.47208
43.44145
44.32253
45.08091
45.66001
46.04165
46.21221
46.11155
45.7672
45.19276
44.41249
43.45297
42.34709
41.135
39.85208
38.53019
37.19565
35.87119
34.57408
33.31467
32.10592
30.95958
29.8829
28.87177
27.92193
27.03081
26.19679
25.4172
24.69252
24.01942
23.39435
22.81348
22.27382
21.77059
21.30034
20.86076
20.44976
20.06535
19.70574
19.36909
19.05362
18.75788
18.48062
18.22076
17.97724
17.74909
17.53536
17.33522
17.1478
16.97235
16.80815
16.65463
16.51117
16.37733
16.25257
16.13668
16.0292
15.92974
15.83763
15.75014
15.6639
15.58259
15.50904
15.44308
15.38479
15.33422
15.29139
15.2563
15.22894
15.20915
15.19665
15.19116
15.19225
15.19938
15.21182
15.22874
15.24919
15.2721
15.29622
15.32023
15.34276
15.36243
15.37781
15.38745
15.38999
15.38424
15.36913
15.34378
15.30757
15.26022
15.20169
15.13227
15.05244
14.96293
14.86462
14.75881
14.64678
14.52959
14.40837
14.28438
14.15885
14.03285
13.90729
13.7829
13.66028
13.53989
13.42203
13.30694
13.19472
13.08541
12.97895
12.87523
12.77409
12.67527
12.57843
12.48306
12.38858
12.29458
12.20076
12.10682
12.01243
11.9173
11.82128
11.72438
11.62666
11.52822
11.42919
11.32973
11.22999
11.13018
11.03056
10.93144
10.83313
10.73602
10.64079
10.5478
10.45722
10.36917
10.2836
10.20026
10.11863
10.0384
9.958886
9.879812
9.801214
9.72348
9.647238
9.572439
9.49903
9.426849
9.355737
9.285544
9.216113
9.147267
9.078822
9.010593
8.942401
8.874071
8.805439
8.736353
8.666673
8.596275
8.525054
8.45292
8.379805
8.30566
8.230455
8.154179
8.076839
7.998461
7.919086
7.838767
7.757575
7.675587
7.592894
7.509592
7.425787
7.341587
7.257107
7.172461
7.087768
7.003145
6.918707
6.83457
6.750843
6.667634
6.585043
6.50317
6.422106
6.341938
6.262749
6.184617
6.107615
6.031808
5.957248
5.883967
5.81199
5.741337
5.672028
5.604079
5.537502
5.4723
5.408452
5.345984
5.284937
5.225269
5.166973
5.110049
5.054493
5.000305
4.947483
4.896028
4.845941
4.797225
4.749884
4.703918
4.659331
4.616125
4.574306
4.533878
4.494849
4.457224
4.421013
4.386221
4.352856
4.320921
4.290417
4.261339
4.23368
4.207432
4.182584
4.159127
4.137045
4.116325
4.096946
4.078889
4.062126
4.046633
4.032378
4.01933
4.007453
3.996712
3.987067
3.978482
3.970917
3.964329
3.958668
3.953891
3.949982
3.946799
3.944153
3.94193
3.940085
3.938569
3.93734
3.936357
3.935585
3.934994
3.934557
3.93425
3.934055
3.933955
3.933938
3.933991
3.934106
3.934273
3.934483
3.934727
3.934995
3.935273
3.935546
3.935792
3.935984
3.936087
3.936046
3.935772
3.935439
3.935084
3.93471
3.934333
3.933972
3.933645
3.933365
3.933137
3.932965
3.932852
3.932799
3.932807
3.932874
3.933001
3.933186
3.933428
3.933728
3.934085
3.934494
3.934956
3.935469
3.936035
3.936651
3.937316
3.938031
3.938793
3.939607
3.940472
3.94137
3.942311
3.943294
3.944319
3.945383
3.946487
3.94763
3.948808
3.95002
3.951266
3.952547
3.953859
3.955197
3.956557
3.957941
3.959349
3.960783
3.962243
3.963728
3.965237
3.966767
3.968319
3.96989
3.971479
3.973087
3.974711
3.976351
3.978006
3.979675
3.981357
3.98305
3.984754
3.986468
3.98819
3.989921
3.991657
3.993397
3.995139
3.996879
3.998614
4.000342
4.002061
4.003769
4.005464
4.007146
4.008816
4.010476
4.012126
4.013772
4.015416
4.017063
4.018718
4.020383
4.022063
4.023756
4.025463
4.027177
4.028896
4.030617
4.032336
4.034055
4.03577
4.037478
4.039176
4.040865
4.042546
4.04422
4.045886
4.047543
4.049192
4.050832
4.052466
4.054094
4.055715
4.057345
4.059046
4.060788
4.062528
4.064244
4.065923
4.067557
4.069142
4.070676
4.072158
4.07359
4.074973
4.076311
4.077605
4.078859
4.080078
4.081266
4.082428
4.083569
4.084694
4.085811
4.086923
4.088039
4.089164
4.090304
4.091468
4.092661
4.093893
4.09517
4.0965
4.097893
4.099357
4.1009
4.102532
4.104262
4.106097
4.108044
4.110111
4.112303
4.114624
4.117076
4.119659
4.122372
4.125214
4.128181
4.131269
4.134475
4.137794
4.141224
4.14476
4.148399
4.15214
4.15598
4.159917
4.163948
4.168071
4.172282
4.176576
4.180948
4.185388
4.189889
4.194438
4.199022
4.203627
4.208238
4.21284
4.21743
4.221985
4.226561
4.231061
4.235762
4.240027
4.245312
4.248041
81.66909
53.20809
48.39471
45.68638
44.57359
43.25697
42.20808
41.31224
40.54185
39.33207
36.376
36.18192
36.02219
35.88404
35.74215
35.59499
35.49055
35.45715
35.50728
35.62694
35.65124
35.49119
35.35111
35.25015
35.18938
35.17403
35.22033
35.34537
35.55748
35.85955
36.24306
36.70052
37.26623
37.93009
38.7187
39.64272
40.62838
41.56543
42.38304
43.04764
43.54806
43.77373
43.74447
43.4679
42.92228
42.13224
41.12724
39.94353
38.61906
37.19684
35.72057
34.22844
32.75179
31.31446
29.93495
28.6251
27.3936
26.24535
25.17964
24.19624
23.29267
22.46331
21.70486
21.0128
20.38094
19.80334
19.27498
18.79122
18.34781
17.9383
17.5594
17.2083
16.88259
16.58015
16.29908
16.03767
15.79437
15.56776
15.35663
15.15994
14.97678
14.8063
14.64773
14.50035
14.36352
14.23661
14.11907
14.01041
13.91018
13.81796
13.7334
13.65616
13.58597
13.52248
13.46513
13.41002
13.3581
13.31319
13.27504
13.24365
13.21904
13.20124
13.19032
13.18633
13.1893
13.19921
13.21595
13.23931
13.269
13.3046
13.3456
13.39134
13.44103
13.49378
13.54853
13.60415
13.6594
13.71297
13.76356
13.80978
13.8503
13.88379
13.90903
13.92496
13.93068
13.92552
13.90905
13.88113
13.84185
13.79156
13.73086
13.66059
13.5818
13.49551
13.4028
13.30484
13.20285
13.09802
12.99147
12.88415
12.7769
12.67044
12.56533
12.46205
12.36091
12.26214
12.16585
12.07207
11.98072
11.89168
11.80468
11.71948
11.63566
11.5528
11.4705
11.38841
11.30623
11.22369
11.14053
11.05658
10.97175
10.88604
10.79948
10.71215
10.62416
10.53568
10.44687
10.35796
10.26919
10.18084
10.09324
10.00673
9.92163
9.838207
9.75667
9.677126
9.599537
9.523698
9.449326
9.376141
9.303973
9.232823
9.162832
9.094288
9.027482
8.96226
8.898457
8.835982
8.774721
8.714547
8.655314
8.596862
8.539022
8.481615
8.424465
8.36739
8.310214
8.252765
8.194878
8.136402
8.077194
8.017129
7.956097
7.894005
7.830781
7.766369
7.700731
7.633851
7.565729
7.496381
7.425841
7.354158
7.281393
7.20762
7.132925
7.057403
6.981157
6.904296
6.826933
6.749188
6.671178
6.593026
6.514851
6.43677
6.358901
6.281356
6.204243
6.127669
6.051731
5.976522
5.902129
5.828624
5.756069
5.684516
5.61401
5.544592
5.476297
5.409155
5.343188
5.278399
5.214811
5.152473
5.091364
5.031489
4.972854
4.915463
4.859321
4.804433
4.750804
4.698439
4.647346
4.597529
4.548995
4.501746
4.455785
4.411119
4.367752
4.325693
4.28495
4.245531
4.207445
4.170706
4.135326
4.101325
4.068693
4.037413
4.007475
3.978871
3.951596
3.925641
3.900998
3.877657
3.855606
3.834828
3.815308
3.797025
3.779957
3.764078
3.749362
3.735778
3.723295
3.711877
3.701483
3.692071
3.6836
3.676027
3.669308
3.663411
3.65826
3.653713
3.649682
3.646124
3.642995
3.640256
3.637869
3.6358
3.634018
3.632494
3.631203
3.630123
3.629231
3.62851
3.627942
3.62751
3.627198
3.62699
3.626868
3.626815
3.626808
3.626824
3.626829
3.626774
3.626747
3.626774
3.626844
3.626955
3.627102
3.627288
3.627517
3.62779
3.628109
3.628474
3.628885
3.629342
3.629844
3.630392
3.630986
3.631624
3.632307
3.633036
3.633809
3.634626
3.635488
3.636395
3.637346
3.638342
3.639382
3.640467
3.641597
3.642775
3.643999
3.645258
3.646559
3.647902
3.649286
3.65071
3.652173
3.653674
3.655212
3.656786
3.658392
3.660028
3.661691
3.663377
3.665083
3.666806
3.668545
3.670301
3.672074
3.673863
3.675667
3.677486
3.679321
3.68117
3.683034
3.684912
3.686804
3.68871
3.690629
3.69256
3.694504
3.696459
3.698425
3.7004
3.702383
3.704375
3.706372
3.708373
3.710377
3.71238
3.714382
3.716379
3.71837
3.720355
3.722331
3.7243
3.726261
3.728216
3.730167
3.732115
3.734063
3.736016
3.737974
3.739941
3.741918
3.743906
3.745904
3.74791
3.749921
3.751935
3.753951
3.755967
3.757981
3.759992
3.762
3.764002
3.766
3.76799
3.769972
3.771947
3.773914
3.775871
3.777818
3.779751
3.781686
3.783659
3.785633
3.787585
3.7895
3.791371
3.793195
3.794969
3.796693
3.798368
3.799995
3.801576
3.803114
3.804611
3.80607
3.807495
3.80889
3.810258
3.811604
3.812931
3.814245
3.815551
3.816852
3.818154
3.819462
3.820781
3.822118
3.823478
3.824866
3.82629
3.827756
3.82927
3.83084
3.832472
3.834174
3.835952
3.837811
3.839759
3.8418
3.843938
3.846178
3.848522
3.850972
3.853528
3.856191
3.85896
3.861835
3.864813
3.867894
3.871075
3.874356
3.877735
3.881211
3.884781
3.888443
3.892196
3.896036
3.899961
3.903968
3.90805
3.912203
3.91642
3.920695
3.925019
3.929384
3.933785
3.938212
3.94267
3.947145
3.951683
3.956196
3.960917
3.965229
3.970506
3.97329
100.6563
39.54364
31.33147
29.7826
29.09282
28.79111
28.75378
28.8875
29.1546
29.5267
29.8394
29.95337
30.06151
30.17102
30.28555
30.41085
30.55961
30.73806
30.93634
31.1299
31.29069
31.4348
31.60258
31.80785
32.05324
32.34397
32.69011
33.09944
33.5756
34.11731
34.72723
35.41072
36.16389
36.97851
37.862
38.78706
39.73301
40.54491
41.14329
41.51981
41.67189
41.55035
41.14034
40.44325
39.46631
38.24918
36.84286
35.30617
33.69628
32.06428
30.4524
28.89272
27.40795
26.01311
24.71691
23.52298
22.43121
21.43793
20.53771
19.72419
18.99098
18.33109
17.73623
17.19898
16.71303
16.27005
15.86525
15.49473
15.15507
14.84291
14.5554
14.29014
14.0451
13.81847
13.60866
13.41427
13.23406
13.06689
12.91179
12.76789
12.63443
12.51072
12.39612
12.29009
12.19209
12.10167
12.01842
11.94195
11.87196
11.80815
11.75027
11.6981
11.65141
11.60983
11.57045
11.53598
11.50783
11.48586
11.46997