/*--------------------------------*- C++ -*----------------------------------*\
| =========                 |                                                 |
| \\      /  F ield         | foam-extend: Open Source CFD                    |
|  \\    /   O peration     | Version:     3.1                                |
|   \\  /    A nd           | Web:         http://www.extend-project.de       |
|    \\/     M anipulation  |                                                 |
\*---------------------------------------------------------------------------*/
FoamFile
{
    version     2.0;
    format      ascii;
    class       volScalarField;
    location    "4.5";
    object      p;
}
// * * * * * * * * * * * * * * * * * * * * * * * * * * * * * * * * * * * * * //

dimensions      [1 -1 -2 0 0 0 0];

internalField   nonuniform List<scalar> 
119952
(
9592.453
9493.656
9478.504
9504.1
9532.55
9524.474
9525.862
9527.724
9529.953
9532.343
9534.835
9537.339
9539.782
9542.115
9544.291
9546.245
9547.863
9548.82
9547.96
9539.781
9590.363
9563.261
9556.881
9619.696
9610.65
9620.387
9625.677
9641.912
9694.197
9423.672
8239.23
8286.943
8331.657
8378.611
8424.659
8468.973
8511.972
8553.876
8594.64
8627.355
8649.705
8683.16
8715.102
8745.65
8774.897
8803.062
8830.191
8856.256
8882.314
8887.524
8902.058
8922.133
8942.063
8961.543
8980.887
8999.674
9017.91
9035.311
9051.923
9066.514
9082.875
9098.374
9113.082
9127.498
9141.628
9155.53
9169.843
9188.529
9214.973
9210.779
9216.591
9231.578
9242.228
9247.02
9249.53
9252.698
9255.888
9259.078
9262.317
9265.498
9268.583
9271.548
9274.352
9276.954
9279.294
9281.308
9283.085
9285.522
9291.284
9295.969
9299.147
9314.024
9332.812
9338.058
9342.745
9347.036
9339.767
9304.894
9299.606
9305.839
9309.057
9312.132
9314.716
9316.805
9318.605
9320.205
9321.654
9322.975
9324.186
9325.303
9326.34
9327.307
9328.213
9329.066
9329.871
9330.634
9331.361
9332.055
9332.72
9333.361
9333.98
9334.58
9335.163
9335.732
9336.289
9336.834
9337.37
9337.896
9338.413
9338.922
9339.421
9339.911
9340.39
9340.857
9341.306
9341.748
9342.186
9342.587
9342.961
9343.315
9343.637
9343.916
9344.141
9344.286
9344.319
9344.335
9345.047
9346.45
9347.53
9347.37
9347.152
9347.076
9346.981
9346.84
9346.662
9346.437
9346.163
9345.838
9345.46
9345.026
9344.534
9343.982
9343.367
9342.696
9341.963
9341.165
9340.3
9339.368
9338.367
9337.294
9336.144
9334.92
9333.644
9332.317
9330.881
9329.349
9327.745
9326.062
9324.298
9322.452
9320.522
9318.508
9316.409
9314.225
9311.954
9309.591
9307.143
9304.593
9301.956
9299.22
9296.389
9293.455
9290.401
9287.187
9283.717
9279.914
9276.192
9308.611
9305.646
9302.275
9298.722
9295.29
9292.042
9288.464
9284.941
9281.47
9277.967
9274.448
9270.94
9267.414
9263.877
9260.34
9256.802
9253.259
9249.713
9246.162
9242.608
9239.048
9235.479
9231.897
9228.296
9224.669
9221
9217.275
9213.474
9209.562
9205.494
9201.193
9196.502
9191.221
9184.839
9176.49
9166.523
9173.108
9176.939
9179.327
9180.607
9181.515
9182.218
9182.724
9183.139
9183.51
9183.86
9184.212
9184.585
9184.993
9185.447
9185.955
9186.526
9187.164
9187.874
9188.661
9189.529
9190.479
9191.515
9192.639
9193.852
9195.156
9196.553
9198.042
9199.625
9201.303
9203.081
9204.989
9207.047
9209.044
9210.845
9199.679
9195.43
9186.394
9188.894
9191.929
9193.588
9195.527
9197.964
9200.495
9203.024
9205.645
9208.336
9211.09
9213.898
9216.75
9219.631
9222.534
9225.452
9228.38
9231.313
9234.244
9237.17
9240.086
9242.989
9245.876
9248.741
9251.581
9254.392
9257.171
9259.915
9262.621
9265.289
9267.917
9270.504
9273.05
9275.555
9278.02
9280.445
9282.836
9285.199
9287.548
9289.905
9292.316
9294.837
9297.39
9299.373
9300.107
9300.181
9300.462
9300.911
9301.328
9301.749
9301.882
9300.539
9293.086
9297.439
9298.921
9298.12
9297.673
9297
9296.037
9294.9
9293.616
9292.187
9290.605
9288.87
9286.983
9284.943
9282.74
9280.378
9277.856
9275.179
9272.346
9269.354
9266.209
9262.904
9259.45
9255.858
9252.127
9248.259
9244.259
9240.134
9235.891
9231.536
9227.076
9222.519
9217.872
9213.142
9208.337
9203.466
9198.531
9193.538
9188.501
9183.426
9178.319
9173.186
9168.033
9162.866
9157.688
9152.502
9147.334
9142.137
9136.959
9131.792
9126.63
9121.476
9116.33
9111.193
9106.066
9100.947
9095.835
9090.724
9085.613
9080.496
9075.367
9070.22
9065.047
9059.838
9054.585
9049.274
9043.895
9038.431
9032.867
9027.184
9021.364
9015.384
9009.213
9002.819
8996.158
8989.179
8981.807
8973.949
8965.449
8956.088
8945.408
8933.088
8920.613
8920.272
8956.013
7586.547
7537.851
7488.313
7446.091
7405.851
7369.863
7338.634
7312.913
7290.708
7235.434
7233.13
7219.806
7211.371
7207.436
7207.948
7212.787
7221.569
7233.873
7235.404
7256.381
7267.641
7294.006
7323.739
7356.082
7391.362
7429.803
7470.463
7513.543
7555.102
7596.369
7644.38
7692.36
7739.988
7788.011
7836.257
7884.578
7932.86
7981.272
8022.501
8066.201
8111.507
8154.901
8196.446
8236.618
8275.501
8312.872
8348.405
8383.613
8416.706
8447.617
8477.389
8506.224
8533.938
8560.563
8586.37
8612.227
8583.213
8606.172
8624.378
8642.645
8661.885
8681.153
8699.842
8717.684
8734.812
8751.414
8767.407
8782.643
8797.441
8811.968
8826.286
8840.495
8854.798
8869.284
8883.729
8896.866
8906.585
8914.511
8922.965
8931.132
8937.595
8942.242
8945.946
8949.429
8952.908
8956.345
8959.67
8962.854
8965.9
8968.788
8971.554
8974.234
8976.939
8979.911
8983.506
8988.06
8993.654
9000.427
9008.702
9017.544
9023.716
9026.066
9024.55
9018.853
9009.965
9003.618
9002.847
9004.958
9007.426
9009.429
9011.032
9012.491
9013.892
9015.222
9016.455
9017.591
9018.642
9019.623
9020.542
9021.406
9022.219
9022.988
9023.716
9024.41
9025.072
9025.707
9026.318
9026.908
9027.48
9028.036
9028.579
9029.109
9029.629
9030.14
9030.642
9031.135
9031.621
9032.099
9032.567
9033.026
9033.474
9033.91
9034.334
9034.743
9035.135
9035.504
9035.848
9036.162
9036.443
9036.69
9036.911
9037.134
9037.419
9037.849
9038.466
9039.046
9039.342
9039.404
9039.356
9039.264
9039.139
9038.976
9038.766
9038.5
9038.176
9037.794
9037.354
9036.854
9036.3
9035.684
9035.016
9034.275
9033.467
9032.593
9031.649
9030.636
9029.552
9028.396
9027.164
9025.867
9024.496
9023.051
9021.523
9019.911
9018.219
9016.448
9014.595
9012.66
9010.641
9008.539
9006.352
9004.081
9001.724
8999.298
8996.746
8994.135
8991.424
8988.634
8985.736
8982.775
8979.724
8976.72
8973.746
8970.894
9031.213
9028.714
9025.273
9021.933
9018.627
9015.26
9011.837
9008.397
9004.929
9001.443
8997.945
8994.436
8990.917
8987.391
8983.858
8980.32
8976.776
8973.229
8969.678
8966.123
8962.562
8958.993
8955.412
8951.813
8948.189
8944.529
8940.818
8937.034
8933.151
8929.127
8924.902
8920.421
8915.546
8910.318
8905.246
8901.567
8901.351
8903.303
8904.603
8905.421
8906.113
8906.634
8907.042
8907.391
8907.711
8908.025
8908.351
8908.705
8909.098
8909.541
8910.041
8910.604
8911.238
8911.945
8912.731
8913.598
8914.549
8915.587
8916.713
8917.929
8919.237
8920.636
8922.129
8923.716
8925.401
8927.188
8929.08
8931.068
8933.203
8936.38
8878.832
8883.381
8884.944
8885.072
8885.636
8887.176
8889.38
8891.842
8894.361
8896.905
8899.508
8902.193
8904.954
8907.773
8910.633
8913.519
8916.425
8919.347
8922.279
8925.216
8928.152
8931.082
8934.002
8936.908
8939.796
8942.664
8945.506
8948.32
8951.102
8953.848
8956.558
8959.228
8961.857
8964.444
8966.988
8969.488
8971.945
8974.358
8976.731
8979.067
8981.369
8983.637
8985.856
8987.97
8989.87
8991.435
8992.535
8993.201
8993.689
8994.154
8994.564
8994.849
8994.888
8994.466
8992.87
8991.234
8990.84
8991.201
8991.299
8990.749
8989.788
8988.607
8987.283
8985.824
8984.212
8982.44
8980.51
8978.421
8976.172
8973.763
8971.196
8968.473
8965.605
8962.577
8959.395
8956.06
8952.573
8948.941
8945.19
8941.286
8937.253
8933.098
8928.826
8924.445
8919.962
8915.383
8910.716
8905.968
8901.145
8896.25
8891.317
8886.312
8881.263
8876.178
8871.062
8865.922
8860.763
8855.592
8850.412
8845.229
8840.046
8834.87
8829.696
8824.53
8819.377
8814.234
8809.103
8803.983
8798.875
8793.775
8788.683
8783.594
8778.504
8773.409
8768.303
8763.178
8758.027
8752.842
8747.611
8742.323
8736.966
8731.526
8725.986
8720.332
8714.541
8708.595
8702.463
8696.125
8689.533
8682.67
8675.463
8667.913
8659.943
8651.715
8643.417
8635.982
8630.187
8626.585
8622.522
6364.574
6541.043
6739.212
6955.611
7184.104
7423.082
7657.777
7889.243
8108.257
8303.327
8459.681
8606.461
8724.547
8813.367
8873.456
8906.385
8914.523
8900.848
8870.185
8776.777
8717.811
8647.569
8570.282
8487.567
8401.534
8313.663
8225.077
8137.065
8051.412
7962.246
7878.477
7796.396
7716.983
7640.702
7567.636
7498.076
7432.695
7372.789
7311.415
7253.174
7201.798
7155.576
7113.886
7076.071
7042.61
7013.557
6989.405
6967.255
6950.322
6939.3
6931.745
6927.991
6928.711
6933.849
6943.259
6958.308
6914.023
6936.917
6961.933
6989.312
7019.485
7052.764
7089.03
7127.87
7168.862
7211.732
7256.434
7301.986
7347.94
7394.831
7442.637
7491.12
7539.894
7588.583
7636.72
7684.098
7729.862
7773.692
7816.734
7859.281
7900.981
7941.378
7980.211
8017.468
8053.167
8087.282
8119.898
8151.245
8181.214
8209.913
8237.331
8263.696
8289.047
8314.504
8339.174
8360.5
8380.093
8399.543
8419.098
8438.458
8457.053
8474.825
8491.882
8508.285
8524.132
8539.481
8554.401
8569.038
8583.146
8597.091
8610.764
8624.158
8637.065
8649.401
8659.747
8668.147
8676.039
8683.686
8690.32
8695.548
8699.846
8703.76
8707.53
8711.181
8714.677
8718.014
8721.235
8724.245
8727.214
8730.176
8733.225
8736.512
8740.239
8744.655
8749.847
8755.512
8761.771
8768.132
8772.856
8774.887
8774.216
8771.11
8766.009
8761.808
8760.686
8761.802
8763.515
8765.075
8766.413
8767.673
8768.923
8770.142
8771.294
8772.365
8773.365
8774.302
8775.184
8776.014
8776.797
8777.537
8778.239
8778.906
8779.543
8780.153
8780.738
8781.303
8781.85
8782.381
8782.899
8783.405
8783.901
8784.387
8784.866
8785.337
8785.801
8786.257
8786.705
8787.145
8787.575
8787.995
8788.404
8788.799
8789.178
8789.538
8789.877
8790.194
8790.49
8790.766
8791.031
8791.304
8791.61
8791.976
8792.397
8792.798
8793.056
8793.132
8793.108
8793.046
8792.959
8792.829
8792.642
8792.397
8792.092
8791.729
8791.307
8790.826
8790.284
8789.674
8788.998
8788.253
8787.442
8786.564
8785.618
8784.602
8783.515
8782.356
8781.125
8779.824
8778.445
8776.988
8775.455
8773.845
8772.158
8770.393
8768.547
8766.621
8764.614
8762.525
8760.354
8758.101
8755.761
8753.325
8750.836
8748.238
8745.559
8742.804
8739.977
8737.094
8734.178
8731.257
8728.328
8725.519
8723.052
8720.4
8717.408
8714.166
8710.822
8707.448
8704.052
8700.632
8697.191
8693.73
8690.251
8686.757
8683.252
8679.738
8676.217
8672.69
8669.157
8665.62
8662.08
8658.536
8654.987
8651.432
8647.868
8644.289
8640.691
8637.066
8633.402
8629.686
8625.904
8622.038
8618.077
8614.034
8609.995
8606.139
8602.819
8600.482
8599.439
8599.453
8599.861
8600.242
8600.518
8600.734
8600.934
8601.137
8601.352
8601.588
8601.854
8602.161
8602.52
8602.937
8603.418
8603.97
8604.596
8605.3
8606.085
8606.955
8607.912
8608.957
8610.092
8611.319
8612.637
8614.049
8615.554
8617.154
8618.847
8620.639
8622.521
8624.515
8626.594
8628.801
8630.659
8631.614
8632.763
8634.658
8637.121
8639.823
8642.581
8645.335
8648.075
8650.812
8653.566
8656.358
8659.192
8662.059
8664.954
8667.867
8670.796
8673.736
8676.684
8679.635
8682.585
8685.529
8688.464
8691.384
8694.286
8697.167
8700.023
8702.851
8705.646
8708.407
8711.131
8713.815
8716.457
8719.056
8721.61
8724.118
8726.578
8728.99
8731.352
8733.664
8735.918
8738.102
8740.189
8742.14
8743.909
8745.444
8746.668
8747.565
8748.216
8748.752
8749.196
8749.521
8749.676
8749.829
8750.316
8750.724
8750.217
8749.323
8748.216
8747.04
8745.78
8744.435
8742.998
8741.456
8739.789
8737.985
8736.035
8733.935
8731.687
8729.279
8726.711
8723.984
8721.14
8718.098
8714.902
8711.555
8708.062
8704.429
8700.639
8696.735
8692.701
8688.543
8684.269
8679.885
8675.396
8670.811
8666.137
8661.38
8656.548
8651.648
8646.696
8641.69
8636.641
8631.553
8626.434
8621.291
8616.13
8610.956
8605.775
8600.592
8595.409
8590.232
8585.064
8579.905
8574.759
8569.625
8564.505
8559.399
8554.306
8549.226
8544.154
8539.089
8534.026
8528.96
8523.886
8518.796
8513.683
8508.539
8503.353
8498.114
8492.81
8487.429
8481.956
8476.374
8470.666
8464.815
8458.797
8452.593
8446.177
8439.533
8432.639
8425.516
8418.196
8410.841
8403.608
8396.846
8390.708
8385.496
8379.302
5389
5399.187
5411.593
5413.233
5434.228
5444.086
5495.963
5567.428
5658.79
5745.11
5832.775
5947.407
6089.63
6255.629
6443.274
6647.876
6865.343
7091.147
7317.985
7540.6
7753.468
7950.428
8123.351
8268.884
8386.336
8474.594
8534.135
8566.683
8574.717
8561.608
8533.693
8399.458
8345.836
8280.868
8203.395
8120.149
8034.766
7948.409
7861.7
7775.22
7689.646
7605.543
7523.489
7443.721
7366.625
7292.484
7221.525
7153.948
7089.873
7029.204
6971.923
6918.498
6869.116
6823.813
6782.789
6746.124
6713.807
6685.801
6661.972
6642.491
6627.431
6616.467
6609.716
6607.394
6609.349
6615.515
6625.506
6640.004
6659.506
6681.811
6705.654
6732.461
6762.98
6796.965
6833.926
6873.346
6914.874
6958.166
7002.924
7049.056
7096.188
7144.089
7192.7
7241.777
7290.935
7339.765
7388.014
7435.442
7481.876
7527.203
7571.455
7614.726
7656.84
7697.519
7736.621
7774.135
7810.099
7844.598
7877.619
7909.101
7939.185
7967.947
7995.592
8022.061
8047.637
8071.513
8094.711
8116.999
8138.041
8158.145
8177.62
8196.511
8214.733
8232.274
8249.162
8265.437
8281.158
8296.353
8311.045
8325.273
8339.363
8353.012
8366.232
8379.034
8391.249
8402.643
8412.758
8421.583
8429.596
8437.034
8443.644
8449.273
8454.085
8458.395
8462.423
8466.251
8469.892
8473.352
8476.638
8479.916
8483.095
8486.256
8489.501
8492.927
8496.668
8500.835
8505.43
8510.315
8515.319
8520.062
8523.728
8525.656
8525.67
8524.091
8521.498
8519.071
8518.081
8518.481
8519.592
8520.824
8521.988
8523.113
8524.237
8525.348
8526.416
8527.425
8528.374
8529.27
8530.115
8530.913
8531.667
8532.381
8533.058
8533.701
8534.315
8534.903
8535.467
8536.011
8536.537
8537.047
8537.545
8538.031
8538.507
8538.975
8539.435
8539.887
8540.334
8540.773
8541.205
8541.63
8542.046
8542.454
8542.85
8543.235
8543.606
8543.962
8544.3
8544.621
8544.926
8545.216
8545.499
8545.782
8546.078
8546.393
8546.719
8547.022
8547.24
8547.347
8547.369
8547.337
8547.259
8547.131
8546.944
8546.699
8546.395
8546.031
8545.608
8545.123
8544.575
8543.962
8543.284
8542.541
8541.73
8540.851
8539.903
8538.885
8537.796
8536.634
8535.4
8534.092
8532.709
8531.251
8529.716
8528.104
8526.413
8524.644
8522.796
8520.869
8518.861
8516.772
8514.601
8512.348
8510.012
8507.592
8505.107
8502.544
8499.905
8497.195
8494.419
8491.591
8488.719
8485.827
8482.983
8480.134
8477.315
8474.421
8471.362
8468.213
8464.97
8461.67
8458.336
8454.967
8451.567
8448.14
8444.69
8441.221
8437.738
8434.243
8430.738
8427.225
8423.706
8420.183
8416.656
8413.126
8409.593
8406.056
8402.513
8398.963
8395.402
8391.824
8388.227
8384.604
8380.952
8377.274
8373.589
8369.937
8366.399
8363.098
8360.257
8358.066
8356.697
8356.099
8355.969
8355.967
8355.959
8355.958
8355.988
8356.058
8356.167
8356.315
8356.509
8356.757
8357.063
8357.435
8357.879
8358.396
8358.992
8359.67
8360.432
8361.281
8362.219
8363.247
8364.366
8365.579
8366.884
8368.283
8369.774
8371.36
8373.037
8374.808
8376.664
8378.604
8380.583
8382.538
8384.417
8386.454
8388.699
8391.004
8393.279
8395.573
8397.955
8400.441
8403.009
8405.637
8408.317
8411.052
8413.837
8416.667
8419.534
8422.428
8425.345
8428.278
8431.223
8434.175
8437.127
8440.076
8443.017
8445.946
8448.857
8451.749
8454.616
8457.456
8460.265
8463.039
8465.777
8468.474
8471.13
8473.74
8476.304
8478.818
8481.28
8483.688
8486.038
8488.323
8490.534
8492.657
8494.67
8496.55
8498.265
8499.779
8501.048
8502.06
8502.848
8503.484
8504.003
8504.413
8504.706
8504.917
8504.92
8504.608
8504.027
8503.284
8502.495
8501.644
8500.661
8499.517
8498.219
8496.773
8495.174
8493.417
8491.506
8489.434
8487.212
8484.805
8482.242
8479.522
8476.608
8473.576
8470.388
8467.047
8463.557
8459.921
8456.134
8452.214
8448.165
8443.992
8439.702
8435.301
8430.795
8426.193
8421.5
8416.726
8411.876
8406.961
8401.988
8396.963
8391.892
8386.785
8381.648
8376.486
8371.308
8366.118
8360.922
8355.725
8350.531
8345.345
8340.169
8335.005
8329.856
8324.723
8319.607
8314.508
8309.425
8304.358
8299.303
8294.257
8289.217
8284.178
8279.134
8274.078
8269.003
8263.901
8258.762
8253.575
8248.329
8243.012
8237.61
8232.109
8226.494
8220.75
8214.859
8208.807
8202.58
8196.173
8189.583
8182.846
8175.989
8169.15
8162.365
8155.984
8149.799
8144.169
8136.233
5389.153
5372.344
5356.947
5318.132
5289.748
5230.843
5205.888
5183.205
5163.312
5146.847
5134.28
5124.887
5121.373
5124.327
5134.262
5152.62
5129.03
5173.46
5231.052
5302.205
5386.746
5488.255
5611.867
5758.53
5927.945
6117.411
6323.981
6543.956
6772.143
7002.402
7227.269
7440.191
7634.349
7802.799
7943.117
8054.18
8135.757
8188.805
8215.354
8218.247
8200.243
8164.387
8113.097
8053.981
7988.178
7914.251
7834.421
7751.493
7667.105
7582.08
7497
7412.769
7329.943
7249.074
7170.58
7094.594
7021.447
6951.439
6884.742
6821.436
6761.681
6705.412
6652.564
6603.539
6558.677
6518.105
6481.816
6449.774
6421.965
6398.46
6379.205
6364.155
6353.445
6347.123
6345.12
6347.403
6353.881
6364.688
6379.579
6398.039
6419.727
6444.386
6472.33
6503.728
6538.324
6575.706
6615.537
6657.49
6701.256
6746.614
6793.365
6841.185
6889.78
6938.97
6988.535
7038.173
7087.586
7136.53
7184.787
7232.191
7278.528
7323.655
7367.547
7410.147
7451.331
7490.991
7529.078
7565.601
7600.576
7633.997
7665.878
7696.34
7725.451
7753.322
7779.916
7805.33
7829.458
7852.751
7875.201
7896.473
7916.62
7935.943
7954.638
7972.727
7990.175
8006.974
8023.153
8038.756
8053.819
8068.379
8082.492
8096.211
8109.472
8122.254
8134.523
8146.155
8157.016
8166.932
8175.83
8183.848
8191.155
8197.751
8203.584
8208.715
8213.322
8217.577
8221.58
8225.371
8228.975
8232.426
8235.784
8239.071
8242.356
8245.699
8249.174
8252.83
8256.721
8260.824
8265.044
8269.178
8272.953
8275.948
8277.787
8278.299
8277.719
8276.488
8275.197
8274.611
8274.847
8275.626
8276.62
8277.641
8278.655
8279.671
8280.684
8281.671
8282.617
8283.515
8284.367
8285.174
8285.939
8286.664
8287.35
8288.002
8288.623
8289.214
8289.781
8290.324
8290.848
8291.354
8291.846
8292.324
8292.792
8293.25
8293.7
8294.142
8294.578
8295.008
8295.432
8295.85
8296.261
8296.665
8297.061
8297.447
8297.823
8298.187
8298.539
8298.876
8299.198
8299.507
8299.804
8300.092
8300.376
8300.659
8300.943
8301.218
8301.466
8301.656
8301.767
8301.803
8301.779
8301.703
8301.574
8301.389
8301.146
8300.845
8300.484
8300.063
8299.58
8299.034
8298.423
8297.747
8297.004
8296.193
8295.314
8294.365
8293.345
8292.254
8291.09
8289.851
8288.539
8287.152
8285.69
8284.15
8282.532
8280.837
8279.063
8277.211
8275.281
8273.27
8271.179
8269.007
8266.756
8264.425
8262.017
8259.536
8256.98
8254.353
8251.66
8248.905
8246.099
8243.252
8240.381
8237.513
8234.631
8231.737
8228.796
8225.782
8222.621
8219.395
8216.112
8212.801
8209.447
8206.061
8202.647
8199.209
8195.753
8192.28
8188.795
8185.3
8181.798
8178.289
8174.777
8171.263
8167.747
8164.231
8160.715
8157.2
8153.683
8150.166
8146.648
8143.128
8139.61
8136.099
8132.608
8129.165
8125.81
8122.613
8119.67
8117.063
8114.969
8113.459
8112.507
8111.958
8111.609
8111.347
8111.15
8111.021
8110.959
8110.958
8111.016
8111.135
8111.319
8111.572
8111.899
8112.3
8112.783
8113.348
8113.999
8114.737
8115.565
8116.483
8117.495
8118.599
8119.798
8121.09
8122.477
8123.957
8125.53
8127.193
8128.944
8130.775
8132.676
8134.626
8136.621
8138.698
8140.875
8143.076
8145.227
8147.401
8149.685
8152.103
8154.634
8157.245
8159.914
8162.632
8165.398
8168.209
8171.062
8173.949
8176.862
8179.797
8182.747
8185.708
8188.674
8191.643
8194.607
8197.564
8200.508
8203.437
8206.345
8209.23
8212.087
8214.913
8217.705
8220.46
8223.174
8225.845
8228.47
8231.046
8233.569
8236.036
8238.443
8240.784
8243.052
8245.237
8247.326
8249.302
8251.147
8252.835
8254.342
8255.644
8256.734
8257.628
8258.362
8258.961
8259.433
8259.763
8259.927
8259.895
8259.72
8259.403
8258.905
8258.232
8257.395
8256.396
8255.242
8253.941
8252.497
8250.904
8249.146
8247.247
8245.164
8242.913
8240.521
8237.963
8235.241
8232.343
8229.289
8226.081
8222.72
8219.209
8215.551
8211.748
8207.81
8203.74
8199.544
8195.23
8190.804
8186.273
8181.644
8176.924
8172.122
8167.245
8162.301
8157.299
8152.245
8147.147
8142.012
8136.848
8131.662
8126.459
8121.247
8116.03
8110.814
8105.603
8100.402
8095.213
8090.041
8084.886
8079.751
8074.637
8069.543
8064.47
8059.415
8054.377
8049.352
8044.338
8039.328
8034.318
8029.301
8024.27
8019.216
8014.131
8009.004
8003.825
7998.583
7993.264
7987.856
7982.346
7976.722
7970.97
7965.082
7959.047
7952.87
7946.552
7940.129
7933.616
7927.129
7920.643
7914.472
7908.166
7902.376
7893.805
5460.329
5433.954
5405.105
5363.019
5334.363
5271.365
5242.956
5214.59
5186.297
5157.566
5129.077
5100.585
5072.059
5044.234
5016
4925.556
4900.852
4878.045
4857.896
4840.734
4827.029
4817.371
4812.326
4812.643
4819.372
4834.033
4856.83
4892.758
4941.146
5003.964
5083.127
5182.143
5302.667
5445.741
5611.388
5798.513
6004.099
6223.459
6451.359
6682.1
6906.603
7118.96
7312.279
7480.566
7620.471
7730.752
7811.547
7864.119
7890.699
7894.173
7877.559
7844.607
7798.309
7741.881
7678.329
7608.355
7532.842
7453.612
7372.363
7290.28
7208.145
7126.635
7046.324
6967.634
6890.832
6816.286
6744.478
6675.743
6610.216
6547.968
6489.092
6433.599
6381.56
6333.264
6288.98
6248.82
6212.805
6180.956
6153.312
6129.927
6110.792
6095.946
6085.477
6079.391
6077.626
6080.165
6086.945
6097.914
6112.742
6131.232
6153.339
6178.901
6207.737
6239.821
6274.984
6312.904
6353.286
6395.845
6440.313
6486.434
6533.955
6582.596
6632.077
6682.161
6732.612
6783.169
6833.553
6883.503
6932.787
6981.196
7028.524
7074.621
7119.414
7162.846
7204.826
7245.256
7284.072
7321.257
7356.814
7390.77
7423.16
7454.061
7483.528
7511.639
7538.424
7563.986
7588.381
7611.732
7634.065
7655.298
7675.492
7694.839
7713.487
7731.475
7748.794
7765.451
7781.476
7796.909
7811.787
7826.143
7840.006
7853.396
7866.299
7878.685
7890.511
7901.701
7912.172
7921.833
7930.629
7938.611
7945.879
7952.484
7958.433
7963.767
7968.595
7973.041
7977.198
7981.119
7984.841
7988.402
7991.847
7995.216
7998.558
8001.911
8005.322
8008.837
8012.468
8016.189
8019.888
8023.419
8026.592
8029.16
8030.908
8031.737
8031.792
8031.38
8030.934
8030.742
8030.996
8031.606
8032.433
8033.333
8034.25
8035.176
8036.103
8037.015
8037.899
8038.745
8039.551
8040.32
8041.05
8041.744
8042.404
8043.031
8043.628
8044.199
8044.745
8045.269
8045.774
8046.263
8046.737
8047.199
8047.65
8048.092
8048.526
8048.954
8049.376
8049.792
8050.203
8050.608
8051.008
8051.402
8051.788
8052.167
8052.536
8052.895
8053.244
8053.58
8053.903
8054.215
8054.514
8054.804
8055.085
8055.357
8055.619
8055.864
8056.078
8056.245
8056.35
8056.391
8056.373
8056.301
8056.175
8055.995
8055.757
8055.461
8055.105
8054.688
8054.209
8053.666
8053.059
8052.385
8051.645
8050.836
8049.957
8049.009
8047.989
8046.898
8045.732
8044.493
8043.177
8041.787
8040.319
8038.775
8037.153
8035.453
8033.675
8031.821
8029.888
8027.873
8025.776
8023.6
8021.346
8019.013
8016.606
8014.125
8011.572
8008.951
8006.267
8003.524
8000.731
7997.895
7995.028
7992.137
7989.219
7986.272
7983.279
7980.222
7977.079
7973.866
7970.607
7967.294
7963.944
7960.575
7957.172
7953.744
7950.296
7946.832
7943.355
7939.868
7936.374
7932.875
7929.373
7925.87
7922.369
7918.871
7915.377
7911.89
7908.409
7904.939
7901.48
7898.037
7894.616
7891.23
7887.895
7884.638
7881.498
7878.526
7875.788
7873.366
7871.341
7869.75
7868.575
7867.736
7867.121
7866.646
7866.276
7866
7865.81
7865.701
7865.667
7865.708
7865.825
7866.02
7866.296
7866.655
7867.099
7867.63
7868.25
7868.962
7869.767
7870.665
7871.658
7872.747
7873.931
7875.211
7876.586
7878.054
7879.616
7881.267
7883.004
7884.821
7886.712
7888.672
7890.7
7892.795
7894.934
7897.09
7899.272
7901.53
7903.898
7906.372
7908.934
7911.565
7914.252
7916.99
7919.774
7922.603
7925.472
7928.373
7931.301
7934.251
7937.217
7940.194
7943.178
7946.163
7949.146
7952.121
7955.085
7958.033
7960.961
7963.866
7966.744
7969.591
7972.404
7975.178
7977.912
7980.602
7983.244
7985.834
7988.369
7990.845
7993.257
7995.597
7997.859
8000.033
8002.108
8004.068
8005.899
8007.581
8009.097
8010.435
8011.589
8012.565
8013.38
8014.047
8014.571
8014.941
8015.152
8015.212
8015.13
8014.878
8014.423
8013.78
8012.976
8012.023
8010.919
8009.664
8008.261
8006.713
8004.952
8003.035
8000.978
7998.748
7996.354
7993.794
7991.065
7988.167
7985.107
7981.887
7978.511
7974.981
7971.302
7967.478
7963.514
7959.416
7955.192
7950.847
7946.388
7941.823
7937.159
7932.403
7927.565
7922.651
7917.67
7912.631
7907.54
7902.406
7897.236
7892.038
7886.818
7881.584
7876.342
7871.098
7865.857
7860.624
7855.404
7850.199
7845.014
7839.851
7834.711
7829.596
7824.505
7819.439
7814.397
7809.375
7804.373
7799.385
7794.407
7789.434
7784.46
7779.477
7774.477
7769.452
7764.392
7759.287
7754.126
7748.898
7743.591
7738.194
7732.697
7727.089
7721.364
7715.516
7709.55
7703.469
7697.302
7691.057
7684.82
7678.533
7672.459
7666.053
7660.26
7651.455
5472.53
5400.551
5338.521
5278.569
5226.843
5184.985
5148.534
5115.919
5086.293
5056.707
4963.177
4935.029
4906.846
4878.501
4849.838
4821.135
4792.434
4763.76
4735.254
4708.034
4682.229
4657.382
4633.893
4612.62
4593.851
4578.04
4565.782
4557.45
4553.68
4555.62
4564.654
4582.952
4612.588
4654.686
4711.61
4785.903
4880.948
4998.819
5139.75
5303.276
5488.428
5692.047
5909.355
6135.198
6362.943
6584.707
6793.431
6982.581
7146.849
7283.009
7389.921
7468.025
7518.943
7545.121
7549.5
7535.232
7505.532
7463.196
7410.697
7350.653
7284.694
7213.817
7139.232
7062.388
6984.417
6906.08
6828.124
6751.121
6675.345
6601.068
6528.862
6459.187
6392.311
6328.379
6267.492
6209.754
6155.279
6104.209
6056.744
6013.079
5973.352
5937.648
5906.041
5878.601
5855.392
5836.459
5821.857
5811.624
5805.768
5804.262
5807.076
5814.139
5825.341
5840.521
5859.552
5882.288
5908.599
5938.314
5971.204
6007.094
6045.759
6086.939
6130.359
6175.752
6222.849
6271.386
6321.096
6371.707
6422.955
6474.587
6526.338
6577.931
6629.098
6679.595
6729.201
6777.723
6825.004
6870.932
6915.418
6958.37
6999.701
7039.35
7077.293
7113.539
7148.116
7181.06
7212.431
7242.285
7270.703
7297.748
7323.511
7348.053
7371.436
7393.727
7414.964
7435.209
7454.572
7473.154
7491.008
7508.163
7524.642
7540.478
7555.706
7570.361
7584.47
7598.054
7611.126
7623.679
7635.689
7647.122
7657.931
7668.062
7677.464
7686.109
7694.017
7701.246
7707.849
7713.856
7719.31
7724.284
7728.87
7733.145
7737.166
7740.975
7744.61
7748.112
7751.52
7754.869
7758.195
7761.53
7764.896
7768.286
7771.661
7774.952
7778.05
7780.82
7783.107
7784.792
7785.834
7786.326
7786.457
7786.468
7786.568
7786.9
7787.495
7788.237
7789.044
7789.881
7790.731
7791.584
7792.429
7793.252
7794.046
7794.808
7795.536
7796.231
7796.893
7797.524
7798.125
7798.699
7799.248
7799.774
7800.279
7800.767
7801.239
7801.697
7802.144
7802.58
7803.008
7803.429
7803.845
7804.254
7804.659
7805.059
7805.455
7805.846
7806.231
7806.611
7806.983
7807.348
7807.704
7808.05
7808.386
7808.71
7809.023
7809.324
7809.613
7809.89
7810.154
7810.402
7810.627
7810.82
7810.971
7811.07
7811.113
7811.1
7811.034
7810.914
7810.739
7810.507
7810.217
7809.866
7809.455
7808.981
7808.444
7807.841
7807.172
7806.436
7805.631
7804.755
7803.809
7802.792
7801.702
7800.537
7799.297
7797.982
7796.592
7795.122
7793.572
7791.944
7790.238
7788.454
7786.597
7784.664
7782.65
7780.551
7778.372
7776.114
7773.78
7771.371
7768.89
7766.338
7763.719
7761.037
7758.297
7755.505
7752.666
7749.788
7746.875
7743.926
7740.939
7737.906
7734.815
7731.658
7728.44
7725.178
7721.874
7718.539
7715.158
7711.753
7708.33
7704.885
7701.423
7697.949
7694.465
7690.975
7687.482
7683.987
7680.494
7677.005
7673.523
7670.051
7666.59
7663.144
7659.717
7656.313
7652.94
7649.607
7646.326
7643.117
7640.006
7637.022
7634.208
7631.619
7629.308
7627.317
7625.664
7624.342
7623.305
7622.489
7621.837
7621.314
7620.903
7620.594
7620.381
7620.257
7620.22
7620.269
7620.405
7620.629
7620.942
7621.346
7621.842
7622.432
7623.117
7623.898
7624.776
7625.751
7626.824
7627.995
7629.263
7630.627
7632.087
7633.64
7635.283
7637.014
7638.828
7640.72
7642.686
7644.721
7646.815
7648.96
7651.157
7653.416
7655.751
7658.171
7660.674
7663.251
7665.895
7668.598
7671.353
7674.157
7677.004
7679.891
7682.81
7685.758
7688.727
7691.713
7694.711
7697.716
7700.723
7703.727
7706.725
7709.712
7712.683
7715.634
7718.562
7721.463
7724.334
7727.169
7729.967
7732.723
7735.433
7738.094
7740.703
7743.254
7745.743
7748.164
7750.511
7752.776
7754.951
7757.023
7758.983
7760.815
7762.506
7764.045
7765.42
7766.629
7767.672
7768.555
7769.285
7769.866
7770.294
7770.57
7770.69
7770.646
7770.423
7770.017
7769.44
7768.703
7767.81
7766.755
7765.539
7764.167
7762.58
7760.888
7759.004
7756.947
7754.718
7752.319
7749.75
7747.01
7744.1
7741.024
7737.784
7734.383
7730.826
7727.116
7723.258
7719.258
7715.123
7710.858
7706.47
7701.966
7697.355
7692.644
7687.84
7682.952
7677.989
7672.959
7667.869
7662.729
7657.547
7652.33
7647.085
7641.822
7636.546
7631.264
7625.982
7620.707
7615.443
7610.195
7604.967
7599.761
7594.582
7589.43
7584.308
7579.215
7574.152
7569.117
7564.109
7559.125
7554.161
7549.213
7544.275
7539.342
7534.407
7529.461
7524.496
7519.503
7514.472
7509.393
7504.256
7499.05
7493.764
7488.391
7482.92
7477.346
7471.667
7465.884
7460.001
7454.038
7447.995
7441.936
7435.783
7429.769
7423.314
7417.546
7408.632
5187.422
5112.45
4980.222
4935.587
4895.379
4860.258
4828.87
4799.92
4772.337
4745.547
4719.115
4691.928
4664.312
4636.136
4607.516
4578.529
4549.325
4520.119
4491.033
4462.629
4436.006
4410.477
4386.112
4363.612
4343.192
4325.386
4310.416
4298.729
4291.299
4289.538
4295.278
4309.977
4335.505
4373.59
4426.841
4498.107
4590.412
4705.76
4844.153
5005.264
5187.549
5387.871
5601.622
5823.063
6045.318
6260.771
6462.21
6643.58
6800.375
6929.935
7031.476
7105.762
7154.671
7180.708
7186.692
7175.478
7149.818
7112.216
7064.927
7010.033
6949.261
6883.822
6814.645
6742.919
6669.658
6595.557
6521.445
6447.918
6375.351
6304.086
6234.594
6167.281
6102.42
6040.202
5980.783
5924.312
5870.949
5820.853
5774.198
5731.159
5691.901
5656.557
5625.242
5598.052
5575.075
5556.383
5542.032
5532.058
5526.479
5525.285
5528.447
5535.9
5547.557
5563.302
5582.97
5606.507
5633.697
5664.301
5698.113