/*--------------------------------*- C++ -*----------------------------------*\
| =========                 |                                                 |
| \\      /  F ield         | foam-extend: Open Source CFD                    |
|  \\    /   O peration     | Version:     3.1                                |
|   \\  /    A nd           | Web:         http://www.extend-project.de       |
|    \\/     M anipulation  |                                                 |
\*---------------------------------------------------------------------------*/
FoamFile
{
    version     2.0;
    format      ascii;
    class       surfaceScalarField;
    location    "4.5";
    object      phi;
}
// * * * * * * * * * * * * * * * * * * * * * * * * * * * * * * * * * * * * * //

dimensions      [0 3 -1 0 0 0 0];

internalField   nonuniform List<scalar> 
275122
(
-0.0001029531
0.0001038882
-2.636347e-08
-9.087012e-07
-9.274515e-05
8.844913e-05
3.562773e-07
3.939745e-06
-9.16583e-05
9.420455e-05
-7.888794e-08
-2.467365e-06
-0.0001026191
0.0001054657
-9.601515e-08
-2.750534e-06
-0.0001129351
0.0001140811
-9.16497e-08
-1.054329e-06
-0.0001149551
0.0001151498
-8.654392e-08
-1.081948e-07
-0.000115358
0.0001153338
-7.351011e-08
9.768772e-08
-0.0001150842
0.0001149461
-6.142412e-08
1.994958e-07
-0.0001144428
0.0001142458
-5.124867e-08
2.482491e-07
-0.0001135766
0.0001133262
-4.308135e-08
2.935187e-07
-0.0001125007
0.0001122016
-3.661083e-08
3.357733e-07
-0.0001112406
0.0001108994
-3.139367e-08
3.725015e-07
-0.0001098201
0.0001094421
-2.711983e-08
4.050493e-07
-0.0001082589
0.0001078489
-2.359031e-08
4.335941e-07
-0.0001065756
0.0001061383
-2.066053e-08
4.579537e-07
-0.0001047889
0.0001043301
-1.830342e-08
4.770961e-07
-0.0001029232
0.0001024528
-1.706564e-08
4.874886e-07
-0.0001010276
0.0001005707
-2.03776e-08
4.772068e-07
-9.925399e-05
9.888737e-05
-4.530391e-08
4.119223e-07
-9.82267e-05
9.846668e-05
-1.64062e-07
-7.591497e-08
-0.0001094704
0.0001132224
-3.117674e-07
-3.440228e-06
-0.0001153313
0.0001159612
-1.075308e-07
-5.223566e-07
-0.0001176248
0.0001185222
-4.522424e-08
-8.521871e-07
-0.0001315658
0.0001365014
1.278919e-07
-5.063561e-06
-0.0001380548
0.000138418
1.729761e-07
-5.362186e-07
-0.0001401907
0.0001405752
-1.204024e-09
-3.832462e-07
-0.0001412393
0.0001412722
-1.613069e-08
-1.674486e-08
-0.0001405857
0.00013971
-1.364148e-08
8.894201e-07
-0.000132314
0.0001240839
-1.455342e-08
8.244658e-06
-0.0001640205
0.0001681316
3.8836e-09
-4.114933e-06
-0.0001254796
0.0001306549
-3.392557e-08
-5.141389e-06
-0.0001455394
0.0001504887
3.323564e-09
-4.952659e-06
-0.0001651405
0.0001699393
3.242815e-09
-4.802055e-06
-0.000184128
0.000188806
3.080269e-09
-4.681066e-06
-0.0002027787
0.0002074111
2.893299e-09
-4.635353e-06
-0.0002212353
0.0002258074
2.664759e-09
-4.574718e-06
-0.0002394255
0.0002439276
2.172002e-09
-4.504274e-06
-0.0002573319
0.000261766
1.96761e-09
-4.436114e-06
-0.0002749775
0.0002793456
1.894868e-09
-4.370021e-06
-0.0002923154
0.0002976261
8.736282e-08
-5.398018e-06
3.997238e-06
-0.0002016794
0.000201957
-5.594593e-10
-4.27429e-06
3.872177e-06
-0.0002026295
0.000202847
-5.967274e-10
-4.088994e-06
3.910967e-06
-0.0002033704
0.0002034945
-6.898396e-10
-4.034357e-06
3.989789e-06
-0.0002036502
0.0002036417
-6.465542e-10
-3.980633e-06
4.045639e-06
-0.0002034308
0.0002033115
-6.387654e-10
-3.925707e-06
4.081209e-06
-0.0002028134
0.0002026124
-5.191057e-10
-3.879693e-06
4.099123e-06
-0.0002019133
0.0002016577
-4.746782e-10
-3.843038e-06
4.091606e-06
-0.0002008318
0.0002005585
-3.804752e-10
-3.817912e-06
4.293754e-06
-0.0001992571
0.0001981306
-3.7846e-10
-3.166817e-06
3.069913e-06
-0.0008256101
0.0008245613
7.437229e-12
-1.224603e-05
3.589105e-06
3.060708e-06
3.575097e-06
3.660434e-06
-0.0008223021
0.0008199945
1.712698e-11
-1.257596e-05
3.791451e-06
3.651025e-06
3.780706e-06
3.791033e-06
-0.0008178098
0.0008154454
1.166051e-11
-1.296974e-05
3.884271e-06
3.782511e-06
3.876317e-06
3.894119e-06
-0.0008130279
0.0008104726
5.877675e-12
-1.311164e-05
3.946842e-06
3.886338e-06
3.939654e-06
3.923874e-06
-0.0008078693
0.000805248
-8.397883e-13
-1.310785e-05
3.947621e-06
3.916838e-06
3.940772e-06
3.921367e-06
-0.0008026618
0.0008001315
-5.340738e-12
-1.316095e-05
3.930423e-06
3.91605e-06
3.923465e-06
3.934251e-06
-0.0007976568
0.0007951873
-1.224964e-11
-1.326619e-05
3.938916e-06
3.928318e-06
3.934301e-06
3.943595e-06
-0.0007928403
0.000790483
-2.217712e-11
-1.334636e-05
3.912352e-06
3.938543e-06
3.909208e-06
3.896684e-06
-0.000788468
0.000786156
-2.326398e-11
-1.322864e-05
3.878267e-06
3.891677e-06
3.874047e-06
3.544386e-06
-0.0007839645
0.0007834952
-1.817723e-11
-1.42113e-05
3.795441e-06
3.543796e-06
3.797019e-06
3.983297e-06
-0.000781313
0.0007790576
-1.650577e-11
-1.351427e-05
3.902574e-06
3.982288e-06
3.901473e-06
3.894206e-06
-0.0007771671
0.0007754647
-1.559307e-11
-1.378333e-05
3.848082e-06
3.894968e-06
3.848473e-06
3.90944e-06
-0.0007738151
0.0007722547
-1.259272e-11
-1.404306e-05
3.892992e-06
3.909354e-06
3.891682e-06
3.934983e-06
-0.0007707503
0.0007693273
-8.820283e-12
-1.431383e-05
3.92942e-06
3.939219e-06
3.933309e-06
3.973136e-06
-0.0007679362
0.0007666192
-6.039665e-12
-1.457838e-05
3.974848e-06
3.972952e-06
3.974444e-06
4.023186e-06
-0.0007653466
0.0007641168
-4.034689e-12
-1.485663e-05
4.028802e-06
4.013732e-06
4.020798e-06
4.124555e-06
-0.0007629363
0.0007618023
-5.777335e-12
-1.528139e-05
4.140049e-06
4.066667e-06
4.084165e-06
4.447251e-06
-0.0007606785
0.0007592954
1.564763e-13
-1.603631e-05
4.524234e-06
4.193986e-06
4.253946e-06
5.61907e-06
-0.0007568034
0.0007519264
-1.721945e-12
-1.655787e-05
5.981941e-06
4.945481e-06
4.888429e-06
7.031362e-06
-0.0007463108
0.0007512794
1.864841e-12
-1.200001e-05
7.086454e-06
-0.0007543379
0.0007544773
1.687614e-12
-7.225847e-06
1.144396e-05
-0.0007527684
0.0007514829
-1.215739e-12
-1.015845e-05
1.061487e-05
-0.0007504003
0.000749244
-5.98989e-12
-9.45859e-06
6.868191e-06
-0.0007481854
0.0007480827
-9.820417e-12
-6.765412e-06
3.600182e-06
-0.0007487287
0.0007492285
-8.866926e-12
-4.09995e-06
2.525749e-06
-0.0007496914
0.0007501433
-4.659713e-12
-2.977688e-06
1.93041e-06
-0.0007506125
0.0007510824
-6.674449e-13
-2.400343e-06
1.554298e-06
-0.0007515532
0.0007520193
1.360805e-12
-2.020461e-06
1.302538e-06
-0.0007524822
0.0007529637
1.103577e-12
-1.784055e-06
1.115377e-06
-0.0007534627
0.0007539925
-3.868292e-13
-1.64512e-06
9.804581e-07
-0.0007545518
0.0007551455
-1.524168e-12
-1.574159e-06
8.795066e-07
-0.0007557741
0.0007564457
-1.782712e-12
-1.551148e-06
8.100398e-07
-0.0007571534
0.0007579134
-1.195194e-12
-1.570051e-06
7.72221e-07
-0.0007587096
0.0007595664
1.919986e-13
-1.629017e-06
7.774849e-07
-0.0007604574
0.0007614238
1.876168e-12
-1.743919e-06
8.596752e-07
-0.0007624223
0.0007635194
3.652357e-12
-1.956754e-06
1.110624e-06
-0.0007646424
0.0007658921
5.023981e-12
-2.360408e-06
1.787003e-06
-0.0007671312
0.0007684826
5.710329e-12
-3.138433e-06
3.533929e-06
-0.0007696048
0.0007705921
5.54602e-12
-4.521176e-06
5.722826e-06
-0.0007705567
0.0007710075
4.657251e-12
-6.173594e-06
4.776755e-06
-0.0007722682
0.0007738955
4.203624e-12
-6.404126e-06
8.482197e-06
-0.0007749714
0.0007752319
3.646139e-12
-8.742644e-06
1.447955e-05
-0.0007719517
0.0007690083
3.69586e-12
-1.153618e-05
7.013454e-06
-0.0007678667
0.0007685372
3.980775e-12
-7.683934e-06
2.870207e-06
-0.0007692999
0.0007696955
4.327788e-12
-3.265733e-06
-6.480014e-07
-0.00076991
0.0007700754
4.537347e-12
4.825721e-07
-7.212133e-06
-0.0007705916
0.0007717623
4.545033e-12
6.041433e-06
-2.475942e-05
-0.0007743049
0.0007849248
4.423449e-12
1.413954e-05
-4.700387e-06
-0.0007962065
0.0007976473
4.974921e-12
1.427697e-05
-3.156261e-06
-4.700411e-06
-3.160683e-06
-1.679556e-06
-0.0007979444
0.0007993024
6.765078e-12
5.18187e-06
-1.591032e-06
-1.67624e-06
-1.592993e-06
-9.04911e-07
-0.0008003163
0.0008009162
7.676739e-12
2.804868e-06
-7.9327e-07
-9.092722e-07
-7.973021e-07
-5.751565e-07
-0.0008014403
0.0008020874
8.390643e-12
1.604016e-06
-5.453683e-07
-5.79552e-07
-5.51093e-07
-4.541906e-07
-0.0008028279
0.0008036646
9.046436e-12
9.616226e-07
-4.387056e-07
-4.602656e-07
-4.452122e-07
-3.817705e-07
-0.0008045583
0.0008055084
9.72139e-12
5.702191e-07
-3.715296e-07
-3.887096e-07
-3.783374e-07
-3.409537e-07
-0.0008065051
0.0008075455
1.007959e-11
3.276144e-07
-3.360096e-07
-3.480522e-07
-3.429608e-07
-3.217388e-07
-0.0008086187
0.0008097198
9.596285e-12
1.954481e-07
-3.196912e-07
-3.286275e-07
-3.26466e-07
-3.148161e-07
-0.0008108411
0.0008119831
8.297037e-12
1.294292e-07
-3.14436e-07
-3.213609e-07
-3.208567e-07
-3.143055e-07
-0.0008131402
0.0008143145
6.327542e-12
9.592132e-08
-3.14756e-07
-3.204377e-07
-3.207793e-07
-3.169759e-07
-0.0008155015
0.0008167033
3.922358e-12
7.953129e-08
-3.179176e-07
-3.227774e-07
-3.236156e-07
-3.216963e-07
-0.0008179162
0.0008191417
1.261012e-12
7.447263e-08
-3.228958e-07
-3.271327e-07
-3.282042e-07
-3.278537e-07
-0.0008203767
0.0008216227
-1.529355e-12
7.816915e-08
-3.293115e-07
-3.328337e-07
-3.34163e-07
-3.350627e-07
-0.000822877
0.0008241412
-4.293578e-12
8.82731e-08
-3.366568e-07
-3.396366e-07
-3.411081e-07
-3.428014e-07
-0.0008254127
0.0008266936
-6.807992e-12
1.01899e-07
-3.444528e-07
-3.46993e-07
-3.485274e-07
-3.507257e-07
-0.0008279814
0.0008292782
-8.904069e-12
1.170041e-07
-3.523982e-07
-3.545613e-07
-3.5612e-07
-3.587009e-07
-0.0008305817
0.0008318941
-1.045403e-11
1.326682e-07
-3.60383e-07
-3.622093e-07
-3.637853e-07
-3.667067e-07
-0.0008332131
0.000834541
-1.138895e-11
1.485952e-07
-3.683921e-07
-3.699201e-07
-3.715118e-07
-3.747353e-07
-0.0008358754
0.0008372189
-1.169142e-11
1.646196e-07
-3.764157e-07
-3.776827e-07
-3.792851e-07
-3.827529e-07
-0.0008385689
0.0008399281
-1.142721e-11
1.805078e-07
-3.844198e-07
-3.85458e-07
-3.870619e-07
-3.90716e-07
-0.0008412938
0.0008426689
-1.069586e-11
1.959909e-07
-3.92363e-07
-3.931902e-07
-3.94793e-07
-3.985894e-07
-0.0008440505
0.0008454418
-9.613519e-12
2.10859e-07
-4.002126e-07
-4.008444e-07
-4.024343e-07
-4.063641e-07
-0.0008468397
0.0008482474
-8.312123e-12
2.250452e-07
-4.07966e-07
-4.084215e-07
-4.09993e-07
-4.140658e-07
-0.0008496619
0.0008510864
-6.902079e-12
2.386191e-07
-4.156573e-07
-4.1594e-07
-4.175017e-07
-4.217452e-07
-0.0008525179
0.0008539597
-5.476229e-12
2.517233e-07
-4.233414e-07
-4.234359e-07
-4.249945e-07
-4.294435e-07
0.000856868
-4.119805e-12
2.645025e-07
-4.310123e-07
-4.309545e-07
-4.325132e-07
-0.0008554086
-4.370188e-07
-0.0008583347
0.0008598119
-2.900908e-12
2.770036e-07
-4.386142e-07
-4.385071e-07
-4.401076e-07
-4.446503e-07
-0.0008612965
0.0008627917
-1.840775e-12
2.893123e-07
-4.461707e-07
-4.460898e-07
-4.475884e-07
-4.522838e-07
-0.0008642942
0.0008658073
-9.362011e-13
3.016111e-07
-4.53848e-07
-4.535499e-07
-4.550918e-07
-4.600162e-07
-0.0008673278
0.000868859
-1.600096e-13
3.143877e-07
-4.61583e-07
-4.611826e-07
-4.627346e-07
-4.678387e-07
-0.0008703974
0.0008719463
4.379013e-13
3.277724e-07
-4.69415e-07
-4.689254e-07
-4.704898e-07
-4.757739e-07
-0.0008735024
0.0008750688
9.053082e-13
3.419398e-07
-4.773622e-07
-4.767903e-07
-4.78368e-07
-4.838295e-07
-0.0008766422
0.0008782256
1.241457e-12
3.570306e-07
-4.854277e-07
-4.847825e-07
-4.863712e-07
-4.920077e-07
-0.0008798158
0.0008814157
1.476805e-12
3.731554e-07
-4.936155e-07
-4.929031e-07
-4.945022e-07
-5.003104e-07
-0.0008830222
0.000884638
1.690615e-12
3.904213e-07
-5.019299e-07
-5.011529e-07
-5.027636e-07
-5.08746e-07
-0.0008862601
0.000887891
2.079454e-12
4.089789e-07
-5.103867e-07
-5.095399e-07
-5.111691e-07
-5.174365e-07
-0.000889528
0.0008911738
3.403198e-12
4.288791e-07
-5.191818e-07
-5.181834e-07
-5.199159e-07
-5.262769e-07
-0.0008928269
0.0008944872
4.22998e-12
4.494526e-07
-5.278966e-07
-5.269834e-07
-5.286044e-07
-5.332331e-07
-0.0008961489
0.0008978164
3.944681e-12
4.693401e-07
-5.344955e-07
-5.339558e-07
-5.352054e-07
-5.426898e-07
-0.0008994898
0.0009011728
1.007379e-13
4.915416e-07
-5.441961e-07
-5.430719e-07
-5.44552e-07
-5.526316e-07
-0.0009028632
0.0009045579
-1.01626e-12
5.185784e-07
-5.534472e-07
-5.531617e-07
-5.540423e-07
-5.603326e-07
-0.0009062548
0.000907957
-6.707813e-13
5.439225e-07
-5.621657e-07
-5.609498e-07
-5.627015e-07
-5.694168e-07
-0.0009096633
0.0009113751
1.50531e-12
5.708908e-07
-5.712816e-07
-5.700375e-07
-5.719416e-07
-5.781177e-07
-0.0009130889
0.0009148097
2.681996e-12
5.968654e-07
-5.800852e-07
-5.787226e-07
-5.807164e-07
-5.864116e-07
-0.0009165318
0.0009182615
1.725271e-12
6.209107e-07
-5.884071e-07
-5.869062e-07
-5.888976e-07
-5.944123e-07
-0.000919992
0.0009217358
-6.220055e-13
6.385693e-07
-5.963081e-07
-5.948269e-07
-5.967714e-07
-6.000265e-07
-0.0009234787
0.0009252438
-1.351905e-12
6.384678e-07
-6.013304e-07
-6.003869e-07
-6.018047e-07
-5.980585e-07
-0.0009270105
0.0009288119
-7.702485e-13
5.871948e-07
-5.958188e-07
-5.983927e-07
-5.963036e-07
-5.600912e-07
-0.0009305979
0.0009323442
5.084842e-12
4.426216e-07
-5.337754e-07
-5.606125e-07
-5.344669e-07
-3.964013e-07
-0.0009338386
0.0009352712
5.355323e-12
8.715545e-08
-3.631289e-07
-3.964086e-07
-3.638209e-07
-2.8503e-07
-0.0009370336
0.0009382728
1.809007e-12
-2.521769e-08
-3.261191e-07
-2.80131e-07
-3.227727e-07
-5.668911e-07
-0.0009399756
0.0009417271
1.254399e-12
4.989072e-07
-5.607275e-07
-5.645777e-07
-5.581988e-07
-5.900447e-07
-0.0009433947
0.0009450289
8.256064e-13
7.07715e-07
-5.837672e-07
-5.871342e-07
-5.809328e-07
-6.116778e-07
-0.0009466553
0.0009482665
5.218413e-13
8.22727e-07
-6.079774e-07
-6.089264e-07
-6.05348e-07
-6.288881e-07
-0.0009498782
0.0009514727
4.432188e-13
9.105368e-07
-6.261939e-07
-6.262711e-07
-6.236639e-07
-6.446225e-07
-0.0009530648
0.0009546485
3.913161e-13
9.868442e-07
-6.431269e-07
-6.420391e-07
-6.407186e-07
-6.596855e-07
-0.0009562335
0.0009578106
3.333083e-13
1.056281e-06
-6.591596e-07
-6.574776e-07
-6.57027e-07
-6.74576e-07
-0.0009593902
0.0009609656
2.080567e-13
1.119498e-06
-6.747911e-07
-6.726239e-07
-6.728698e-07
-6.898447e-07
-0.0009625431
0.0009641138
3.558782e-14
1.186824e-06
-6.907161e-07
-6.880789e-07
-6.889446e-07
-7.05401e-07
-0.0009656864
0.000967253
-5.373658e-14
1.254259e-06
-7.06598e-07
-7.037714e-07
-7.050836e-07
-7.207036e-07
-0.000968821
0.0009703831
3.164121e-13
1.321134e-06
-7.222422e-07
-7.193704e-07
-7.209985e-07
-7.358738e-07
-0.0009719462
0.0009735034
1.221844e-12
1.38737e-06
-7.375067e-07
-7.347687e-07
-7.364014e-07
-7.508534e-07
-0.000975061
0.0009766133
1.616163e-12
1.452492e-06
-7.525915e-07
-7.4979e-07
-7.51578e-07
-7.656514e-07
-0.0009781657
0.0009797128
1.010837e-12
1.517199e-06
-7.674717e-07
-7.646808e-07
-7.665279e-07
-7.802982e-07
-0.0009812595
0.0009828023
3.140364e-13
1.580453e-06
-7.821895e-07
-7.79428e-07
-7.813193e-07
-7.948904e-07
-0.0009843444
0.0009858807
7.90628e-14
1.64574e-06
-7.968686e-07
-7.941114e-07
-7.961165e-07
-8.100517e-07
-0.0009874147
0.0009889428
3.355575e-13
1.714602e-06
-8.119894e-07
-8.093586e-07
-8.112932e-07
-8.248298e-07
-0.0009904696
0.0009919904
4.00775e-13
1.781116e-06
-8.26786e-07
-8.242009e-07
-8.261539e-07
-8.396217e-07
-0.0009935097
0.0009950226
1.253215e-13
1.848404e-06
-8.416002e-07
-8.39049e-07
-8.410397e-07
-8.543507e-07
-0.0009965336
0.0009980381
-3.757615e-13
1.915932e-06
-8.563572e-07
-8.538283e-07
-8.558407e-07
-8.692111e-07
-0.00099954
0.001001035
1.3907e-13
1.98535e-06
-8.712863e-07
-8.686947e-07
-8.70807e-07
-8.838209e-07
-0.001002527
0.001004011
1.129897e-12
2.054552e-06
-8.859165e-07
-8.833457e-07
-8.854769e-07
-8.98986e-07
-0.001005492
0.001006965
-1.782568e-13
2.127141e-06
-9.014368e-07
-8.985886e-07
-9.010222e-07
-9.140823e-07
-0.001008434
0.001009895
-1.325e-12
2.201719e-06
-9.178252e-07
-9.136291e-07
-9.174261e-07
-9.250863e-07
-0.001011348
0.001012785
-3.163301e-13
2.267378e-06
-9.272582e-07
-9.245753e-07
-9.266748e-07
-9.418951e-07
0.001015642
7.507336e-12
2.35174e-06
-0.001014224
-9.43516e-07
-9.412952e-07
-9.429326e-07
-9.541084e-07
-0.001017045
0.001018444
-4.452932e-11
2.426574e-06
-9.590204e-07
-9.535948e-07
-9.586434e-07
-9.74687e-07
-0.001019846
0.001021233
-5.49002e-12
2.512251e-06
-9.748708e-07
-9.746936e-07
-9.748649e-07
-9.898735e-07
-0.001022612
0.001023971
-4.392918e-12
2.601249e-06
-9.905595e-07
-9.896523e-07
-9.903227e-07
-1.005413e-06
-0.00102532
0.001026649
-3.861581e-12
2.694417e-06
-1.006512e-06
-1.00513e-06
-1.006232e-06
-1.021317e-06
-0.001027967
0.001029264
-7.771173e-13
2.790562e-06
-1.022594e-06
-1.02104e-06
-1.022319e-06
-1.037253e-06
-0.001030548
0.00103181
1.73305e-12
2.889644e-06
-1.038577e-06
-1.036986e-06
-1.038321e-06
-1.05305e-06
-0.001033058
0.001034281
2.09235e-12
2.991668e-06
-1.054359e-06
-1.05279e-06
-1.054101e-06
-1.068641e-06
-0.001035488
0.001036668
2.164158e-13
3.096739e-06
-1.069887e-06
-1.068374e-06
-1.069619e-06
-1.084048e-06
-0.001037831
0.001038964
-1.322497e-12
3.205245e-06
-1.085262e-06
-1.083781e-06
-1.08501e-06
-1.099121e-06
-0.001040078
0.00104116
-1.642092e-12
3.316455e-06
-1.1002e-06
-1.098867e-06
-1.099959e-06
-1.113932e-06
-0.001042221
0.001043248
-1.572782e-12
3.429835e-06
-1.114894e-06
-1.113665e-06
-1.114618e-06
-1.128716e-06
-0.001044255
0.001045228
-1.751942e-12
3.54404e-06
-1.129973e-06
-1.128489e-06
-1.129707e-06
-1.143837e-06
-0.00104618
0.0010471
-1.953441e-12
3.657849e-06
-1.145262e-06
-1.143569e-06
-1.144992e-06
-1.159122e-06
-0.001047996
0.001048851
-2.442973e-12
3.778169e-06
-1.157861e-06
-1.15881e-06
-1.157493e-06
-1.170745e-06
-0.00104968
0.001050479
-2.810284e-12
3.895115e-06
-1.176509e-06
-1.170665e-06
-1.176253e-06
-1.185756e-06
-0.001051255
0.001051999
-3.055714e-12
4.005213e-06
-1.18919e-06
-1.185375e-06
-1.188878e-06
-1.196833e-06
-0.001052715
0.0010534
-3.484857e-12
4.110591e-06
-1.201449e-06
-1.196641e-06
-1.201302e-06
-1.207252e-06
-0.001054054
0.001054682
-4.463896e-12
4.211617e-06
-1.212459e-06
-1.207165e-06
-1.21228e-06
-1.215012e-06
-0.001055274
0.001055846
-4.155175e-12
4.30014e-06
-1.221379e-06
-1.214843e-06
-1.221139e-06
-1.220448e-06
-0.001056376
0.001056898
-3.742708e-12
4.375374e-06
-1.228259e-06
-1.220259e-06
-1.227996e-06
-1.222035e-06
-0.001057376
0.001057865
-3.198766e-12
4.416675e-06
-1.231316e-06
-1.221859e-06
-1.231032e-06
-1.218714e-06
-0.001058316
0.001058821
-2.193568e-12
4.389717e-06
-1.228949e-06
-1.2185e-06
-1.228525e-06
-1.185826e-06
-0.00105931
0.001059868
5.965333e-13
4.189107e-06
-1.188093e-06
-1.18543e-06
-1.188016e-06
-9.803752e-07
-0.001060336
0.001060194
4.09791e-12
3.52591e-06
-7.08376e-07
-9.830039e-07
-7.125499e-07
-2.124533e-07
-0.0002646749
0.0002635788
-9.820247e-11
1.308678e-06
-9.745569e-07
-0.0002622448
0.0002618533
-7.61816e-11
1.366204e-06
-1.060006e-06
-0.0002609025
0.0002606323
-5.919044e-11
1.330179e-06
-1.10379e-06
-0.0002599312
0.0002597278
-4.695809e-11
1.307261e-06
-1.119658e-06
-0.0002591922
0.0002590278
-4.012926e-11
1.284171e-06
-1.163144e-06
-0.0002586038
0.0002584776
-4.042045e-11
1.289335e-06
-1.174092e-06
-0.0002581477
0.0002580475
-4.334586e-11
1.27433e-06
-1.184494e-06
-0.0002577681
0.0002576799
-5.103193e-11
1.272717e-06
-1.195501e-06
-0.0002574352
0.0002573574
-5.361799e-11
1.273342e-06
-1.202229e-06
-0.0002571353
0.0002570643
-5.390705e-11
1.27324e-06
-1.208786e-06
-0.0002568605
0.000256794
-6.760582e-11
1.275358e-06
-1.21443e-06
-0.0002566008
0.0002565381
-6.873956e-11
1.277276e-06
-1.219053e-06
-0.0002563532
0.0002562936
-6.430383e-11
1.27876e-06
-1.222276e-06
-0.0002561164
0.0002560587
-6.131846e-11
1.280032e-06
-1.224983e-06
-0.0002558861
0.0002558296
-5.495678e-11
1.281459e-06
-1.228142e-06
-0.0002556617
0.0002556068
-5.316496e-11
1.283056e-06
-1.230244e-06
-0.0002554436
0.0002553899
-5.402186e-11
1.283985e-06
-1.231743e-06
-0.0002552306
0.0002551779
-4.954285e-11
1.284463e-06
-1.232732e-06
-0.0002550219
0.0002549702
-5.088315e-11
1.284501e-06
-1.23315e-06
-0.000254817
0.0002547663
-4.843602e-11
1.28396e-06
-1.233278e-06
-0.0002546158
0.0002545661
-4.191724e-11
1.28302e-06
-1.233371e-06
-0.0002544184
0.0002543702
-4.283659e-11
1.281545e-06
-1.233444e-06
-0.0002542261
0.00025418
-4.126178e-11
1.279562e-06
-1.233305e-06
-0.0002540398
0.0002539961
-3.305923e-11
1.277009e-06
-1.232508e-06
-0.0002538605
0.0002538195
-2.629651e-11
1.273576e-06
-1.230618e-06
-0.0002536903
0.0002536517
-2.166106e-11
1.269222e-06
-1.227045e-06
-0.0002535303
0.0002534941
-3.203961e-11
1.263283e-06
-1.222217e-06
-0.0002533831
0.0002533492
-3.39859e-11
1.256098e-06
-1.215013e-06
-0.0002532523
0.0002532215
-2.577864e-11
1.245792e-06
-1.206092e-06
-0.000253143
0.0002531163
-1.888196e-11
1.232849e-06
-1.196964e-06
-0.0002530615
0.0002530416
-1.480761e-11
1.216912e-06
-1.180946e-06
-0.0002530274
0.0002530264
-1.383739e-11
1.181923e-06
-1.159145e-06
-0.000253053
0.000253071
-1.388592e-11
1.141162e-06
-1.108308e-06
-0.0002531942
0.000253249
-9.689282e-12
1.05344e-06
-1.023284e-06
-0.0002535426
0.000253735
-1.530615e-11
8.309042e-07
2.563428e-07
-0.0002543865
0.0002542252
8.972672e-12
-9.500989e-08
8.871744e-07
-0.0002539428
0.0002539428
-1.983541e-11
-8.871394e-07
1.00899e-06
-0.0002539522
0.0002539658
-2.622689e-12
-1.02255e-06
1.074257e-06
-0.0002541047
0.0002541622
-7.415707e-13
-1.131704e-06
1.109937e-06
-0.0002543499
0.0002544192
1.131364e-11
-1.17917e-06
1.139743e-06
-0.0002546341
0.0002547104
5.675303e-12
-1.216042e-06
1.161878e-06
-0.0002549486
0.0002550313
5.253973e-12
-1.244603e-06
1.18128e-06
-0.0002552847
0.0002553714
1.021146e-11
-1.267948e-06
1.19817e-06
-0.0002556352
0.0002557248
1.335934e-11
-1.287751e-06
1.213034e-06
-0.0002559963
0.0002560881
4.985163e-12
-1.304883e-06
1.226443e-06
-0.0002563658
0.0002564595
-2.908444e-12
-1.320153e-06
1.238653e-06
-0.0002567422
0.0002568375
1.474194e-12
-1.333973e-06
1.24993e-06
-0.0002571246
0.0002572213
4.819448e-12
-1.346616e-06
1.260399e-06
-0.0002575121
0.00025761
6.442955e-12
-1.358292e-06
1.270074e-06
-0.0002579042
0.0002580032
4.246367e-12
-1.3691e-06
1.279117e-06
-0.0002583006
0.0002584008
2.17136e-12
-1.379241e-06
1.287694e-06
-0.0002587012
0.0002588023
2.93957e-12
-1.388844e-06
1.295884e-06
-0.0002591057
0.0002592078
1.443137e-12
-1.398014e-06
1.303726e-06
-0.000259514
0.0002596171
-9.584691e-13
-1.406822e-06
1.311299e-06
-0.0002599261
0.0002600301
-7.227237e-14
-1.415346e-06
1.318665e-06
-0.0002603418
0.0002604468
1.280234e-12
-1.423652e-06
1.325839e-06
-0.0002607611
0.000260867
8.095613e-13
-1.431753e-06
1.332892e-06
-0.0002611838
0.0002612906
3.373941e-12
-1.4397e-06
1.339866e-06
-0.0002616099
0.0002617176
9.582726e-12
-1.447541e-06
1.346811e-06
-0.0002620392
0.0002621476
1.178604e-11
-1.455305e-06
1.353636e-06
-0.0002624713
0.0002625806
5.030089e-12
-1.462943e-06
1.360285e-06
-0.0002629064
0.0002630165
-2.085417e-12
-1.470367e-06
1.366813e-06
-0.0002633442
0.000263455
-8.229785e-13
-1.477626e-06
1.373266e-06
-0.0002637844
0.0002638959
2.908779e-12
-1.484758e-06
1.379826e-06
-0.0002642268
0.0002643388
5.734161e-12
-1.491865e-06
1.386585e-06
-0.0002646708
0.0002647835
6.218797e-12
-1.499246e-06
1.395788e-06
-0.0002651143
0.0002652256
1.950242e-12
-1.507069e-06
1.394718e-06
-0.0002655507
0.0002656674
7.213947e-12
-1.511432e-06
1.390885e-06
-0.000265994
0.000266119
4.804194e-11
-1.515906e-06
1.377871e-06
-0.0002665303
0.0002666326
1.461376e-10
-1.480343e-06
1.955215e-06
-0.0002645845
0.00108824
3.553119e-12
-6.528533e-06
2.590345e-07
1.958884e-06
2.435577e-07
-0.0002645904
-0.0002784758
-0.0002784777
9.107714e-07
-0.001092786
0.001093964
3.30244e-13
-5.687664e-06
1.366919e-06
8.874622e-07
1.344869e-06
1.14215e-06
-0.00109458
0.00109551
3.095315e-12
-5.619557e-06
1.220838e-06
1.123854e-06
1.203511e-06
1.196225e-06
-0.001096971
0.001098433
-3.51845e-13
-6.330395e-06
1.254327e-06
1.180059e-06
1.238482e-06
1.277194e-06
-0.001099853
0.001101005
-4.567528e-12
-6.346269e-06
1.334882e-06
1.262286e-06
1.319961e-06
1.325506e-06
-0.001102056
0.001103019
-6.241782e-12
-6.301855e-06
1.358217e-06
1.311504e-06
1.344422e-06
1.332212e-06
-0.001104028
0.001105042
-5.607803e-12
-6.351177e-06
1.350117e-06
1.318279e-06
1.33619e-06
1.344439e-06
-0.001106107
0.001107153
-4.34382e-12
-6.427356e-06
1.359421e-06
1.330783e-06
1.346902e-06
1.360102e-06
-0.001108225
0.001109278
-5.362547e-12
-6.501564e-06
1.37653e-06
1.348268e-06
1.364367e-06
1.387714e-06
-0.001110332
0.001111355
-6.137055e-12
-6.569075e-06
1.397e-06
1.375657e-06
1.385101e-06
1.403612e-06
-0.001112405
0.001113441
-3.213396e-12
-6.637905e-06
1.408955e-06
1.391799e-06
1.397603e-06
1.420442e-06
-0.001114476
0.001115498
-3.54305e-12
-6.693648e-06
1.425895e-06
1.410054e-06
1.415956e-06
1.43547e-06
-0.001116521
0.00111753
-9.012924e-13
-6.741925e-06
1.440178e-06
1.426287e-06
1.431116e-06
1.449808e-06
-0.001118538
0.001119533
-8.501585e-13
-6.78571e-06
1.45368e-06
1.441143e-06
1.445139e-06
1.462726e-06
-0.001120527
0.001121509
-2.136886e-13
-6.824187e-06
1.465846e-06
1.454875e-06
1.458179e-06
1.474181e-06
-0.001122489
0.001123458
1.222306e-12
-6.857252e-06
1.476694e-06
1.467099e-06
1.469749e-06
1.484221e-06
-0.001124424
0.00112538
9.525294e-13
-6.88455e-06
1.486275e-06
1.477833e-06
1.479971e-06
1.492969e-06
-0.001126332
0.001127275
9.409593e-13
-6.906383e-06
1.494602e-06
1.487189e-06
1.488919e-06
1.500432e-06
-0.001128212
0.001129141
-4.701484e-13
-6.923e-06
1.50175e-06
1.495207e-06
1.496628e-06
1.506769e-06
-0.001130065
0.00113098
-9.532925e-13
-6.935059e-06
1.50788e-06
1.502027e-06
1.503203e-06
1.512216e-06
-0.001131889
0.001132791
3.921414e-13
-6.943393e-06
1.513118e-06
1.50786e-06
1.508806e-06
1.516802e-06
-0.001133686
0.001134574
4.857055e-13
-6.948299e-06
1.517469e-06
1.512831e-06
1.513586e-06
1.520545e-06
-0.001135456
0.001136329
-1.656964e-12
-6.949976e-06
1.52109e-06
1.516996e-06
1.517641e-06
1.523562e-06
-0.001137197
0.001138056
-3.100757e-12
-6.948515e-06
1.524104e-06
1.520355e-06
1.520974e-06
1.525964e-06
-0.00113891
0.001139755
-3.511257e-12
-6.944084e-06
1.526418e-06
1.522967e-06
1.523395e-06
1.52769e-06
-0.001140594
0.001141425
-3.266825e-12
-6.936258e-06
1.527897e-06
1.524858e-06
1.525038e-06
1.528724e-06
-0.001142249
0.001143065
-2.705361e-12
-6.925364e-06
1.528782e-06
1.526095e-06
1.526223e-06
1.529111e-06
-0.001143874
0.001144673
-2.879697e-12
-6.911939e-06
1.529334e-06
1.526723e-06
1.527041e-06
1.529279e-06
-0.001145466
0.00114625
-2.321305e-12
-6.896585e-06
1.529435e-06
1.527114e-06
1.527285e-06
1.529564e-06
-0.001147026
0.001147793
-2.310343e-12
-6.880583e-06
1.52949e-06
1.52757e-06
1.527506e-06
1.529905e-06
-0.001148552
0.001149301
-1.981902e-12
-6.865142e-06
1.529992e-06
1.528049e-06
1.528165e-06
1.530737e-06
-0.001150043
0.001150773
1.282228e-13
-6.850889e-06
1.531073e-06
1.529033e-06
1.529423e-06
1.532337e-06
-0.001151497
0.001152208
-1.858373e-12
-6.838458e-06
1.532622e-06
1.53077e-06
1.531061e-06
1.534344e-06
-0.001152912
0.001153604
-2.118222e-12
-6.827049e-06
1.53485e-06
1.532881e-06
1.533385e-06
1.536648e-06
-0.001154288
0.001154959
-2.342305e-12
-6.816142e-06
1.537229e-06
1.535323e-06
1.53594e-06
1.539021e-06
-0.001155622
0.001156272
6.321661e-13
-6.804534e-06
1.53961e-06
1.537779e-06
1.538384e-06
1.541043e-06
-0.001156915
0.001157543
-3.333805e-13
-6.79111e-06
1.541714e-06
1.5399e-06
1.540571e-06
1.542426e-06
-0.001158164
0.00115877
1.056428e-12
-6.774165e-06
1.543105e-06
1.541379e-06
1.542079e-06
1.543025e-06
-0.001159369
0.00115995
-4.820662e-12
-6.752239e-06
1.543699e-06
1.542101e-06
1.542787e-06
1.542067e-06
-0.001160525
0.001161079
-1.123422e-12
-6.72249e-06
1.543157e-06
1.541222e-06
1.542366e-06
1.539286e-06
-0.001161627
0.00116215
-4.357769e-13
-6.681223e-06
1.540901e-06
1.53846e-06
1.540039e-06
1.533358e-06
-0.001162666
0.00116315
5.726275e-12
-6.619839e-06
1.535273e-06
1.532528e-06
1.534409e-06
1.522364e-06
-0.001163621
0.001164051
3.804247e-13
-6.522355e-06
1.524329e-06
1.521574e-06
1.52356e-06
1.498668e-06
-0.001164453
0.001164808
-2.039621e-12
-6.347132e-06
1.498072e-06
1.498015e-06
1.497429e-06
1.429561e-06
-0.001165138
0.00116549
4.089146e-13
-6.038777e-06
1.414563e-06
1.428925e-06
1.413968e-06
1.279306e-06
-0.001165933
0.00116649
-4.847601e-12
-5.57424e-06
1.229855e-06
1.278731e-06
1.229239e-06
1.09385e-06
-0.001167105
0.001167697
-5.883799e-13
-4.919752e-06
1.070265e-06
1.093359e-06
1.069814e-06
1.053121e-06
-0.001168245
0.001168732
-2.45686e-12
-4.710387e-06
1.05907e-06
1.052703e-06
1.058663e-06
1.047161e-06
-0.001169202
0.001169655
-4.471277e-12
-4.639442e-06
1.046422e-06
1.046746e-06
1.046005e-06
1.023355e-06
-0.001170105
0.001170511
-5.499285e-12
-4.497895e-06
1.022898e-06
1.022999e-06
1.022531e-06
1.012605e-06
-0.001170883
0.001171211
-2.853255e-12
-4.38633e-06
1.016911e-06
1.012242e-06
1.016545e-06
9.86299e-07
-0.001171525
0.00117181
9.748138e-12
-4.231527e-06
9.87267e-07
9.85873e-07
9.866999e-07
9.418461e-07
-0.00117208
0.001172407
5.204415e-11
-4.047266e-06
9.190313e-07
9.414246e-07
9.181968e-07
7.007221e-07
-0.00117313
0.001174577
4.127933e-11
-4.37693e-06
7.651175e-07
6.992989e-07
7.640755e-07
1.056173e-06
-0.001175978
0.001174789
-4.299347e-11
-2.818177e-06
9.427028e-07
1.060765e-06
9.468986e-07
9.409197e-07
-0.00117414
0.001174242
-3.4874e-11
-3.684836e-06
8.425658e-07
9.493041e-07
8.503887e-07
8.958775e-07
-0.001174232
0.001174265
-1.235746e-11
-3.517106e-06
8.380957e-07
9.036446e-07
8.456189e-07
8.423389e-07
-0.001174199
0.00117429
-8.845001e-12
-3.383818e-06
7.972578e-07
8.493103e-07
8.03851e-07
8.101452e-07
-0.001174381
0.001174543
-7.247061e-12
-3.360581e-06
7.833003e-07
8.161964e-07
7.891005e-07
8.006263e-07
-0.001174673
0.001174818
-8.632172e-12
-3.324612e-06
7.837172e-07
8.061341e-07
7.890345e-07
7.917411e-07
-0.001174934
0.001175048
-8.030619e-12
-3.268514e-06
7.800265e-07
7.970023e-07
7.850811e-07
7.812522e-07
-0.001175137
0.001175221
-5.894147e-12
-3.200985e-06
7.726228e-07
7.858613e-07
7.770479e-07
7.713088e-07
-0.001175285
0.001175341
-6.77978e-12
-3.137518e-06
7.656128e-07
7.753272e-07
7.695024e-07
7.654345e-07
-0.001175379
0.001175406
-8.869576e-12
-3.089733e-06
7.622368e-07
7.6899e-07
7.6569e-07
7.636562e-07
-0.001175417
0.001175415
-8.661975e-12
-3.055506e-06
7.620305e-07
7.668448e-07
7.651406e-07
7.634416e-07
-0.001175398
0.001175364
-7.587443e-12
-3.024046e-06
7.624772e-07
7.663325e-07
7.653065e-07
7.626152e-07
-0.001175317
0.001175251
-7.323226e-12