/*--------------------------------*- C++ -*----------------------------------*\
| =========                 |                                                 |
| \\      /  F ield         | foam-extend: Open Source CFD                    |
|  \\    /   O peration     | Version:     3.1                                |
|   \\  /    A nd           | Web:         http://www.extend-project.de       |
|    \\/     M anipulation  |                                                 |
\*---------------------------------------------------------------------------*/
FoamFile
{
    version     2.0;
    format      ascii;
    class       volScalarField;
    location    "1";
    object      k;
}
// * * * * * * * * * * * * * * * * * * * * * * * * * * * * * * * * * * * * * //

dimensions      [0 2 -2 0 0 0 0];

internalField   nonuniform List<scalar> 
119952
(
0.01396047
0.01111288
0.01192214
0.01357604
0.01444944
0.01439264
0.01445703
0.01451522
0.01454424
0.01454139
0.0145105
0.01445669
0.0143849
0.01429935
0.01420374
0.01410135
0.01399555
0.01389145
0.01380314
0.01381034
0.01562808
0.01510163
0.01508537
0.01696531
0.01647658
0.0162175
0.01597266
0.01570396
0.0148622
0.01598486
0.01480833
0.01197625
0.01284078
0.01441052
0.01584614
0.01703233
0.01803197
0.01890755
0.01970143
0.02064076
0.02452582
0.02895173
0.0326505
0.03559221
0.0379279
0.03984157
0.0414752
0.04292365
0.04422649
0.05267854
0.05389557
0.05530757
0.05684615
0.058392
0.05986083
0.06121746
0.06245894
0.06359542
0.0646028
0.06544654
0.06631693
0.06730007
0.06838292
0.06950736
0.07062033
0.07169464
0.07273452
0.07377112
0.07415545
0.0742354
0.07455847
0.07502711
0.07548777
0.07585687
0.07617434
0.076453
0.07668843
0.07688024
0.07703797
0.07716432
0.07726188
0.07733498
0.07738794
0.07742629
0.07745763
0.07749407
0.07756095
0.07770522
0.07792373
0.07815177
0.07847028
0.07892883
0.07923935
0.07928958
0.07913508
0.07867559
0.07759292
0.07626453
0.07562971
0.07507964
0.07457326
0.07413143
0.07376142
0.07345699
0.07320619
0.07299611
0.07281523
0.07265423
0.07250607
0.07236549
0.07222855
0.07209226
0.07195437
0.07181328
0.07166806
0.07151859
0.07136558
0.07121047
0.07105524
0.07090202
0.07075272
0.07060871
0.07047048
0.07033765
0.07020942
0.07008471
0.06996226
0.06984097
0.06972007
0.06959921
0.06947832
0.06935749
0.06923686
0.06911662
0.0689969
0.06887777
0.06875925
0.06864131
0.06852386
0.06840682
0.06829014
0.06817381
0.06805786
0.06794251
0.06782857
0.06771874
0.06762319
0.0675412
0.0672629
0.06681317
0.06629513
0.06577624
0.06528925
0.06484563
0.06444615
0.06408689
0.06376232
0.06346677
0.06319506
0.06294273
0.06270591
0.06248161
0.0622675
0.06206109
0.06186009
0.06166384
0.0614716
0.06128257
0.06109607
0.06091154
0.06072852
0.06054671
0.06036605
0.06018679
0.06000949
0.05983497
0.05966393
0.05949697
0.05933441
0.05917635
0.05902255
0.05887256
0.05872574
0.05858154
0.0584393
0.05829841
0.05815843
0.0580189
0.05787977
0.05774037
0.05760073
0.05746067
0.05732014
0.05717922
0.05703847
0.05690042
0.05676629
0.0526316
0.0483743
0.04667601
0.04548424
0.04454323
0.04378568
0.04316609
0.04264808
0.04220405
0.04181385
0.04146311
0.04114237
0.04084463
0.04056313
0.04029306
0.04003263
0.03977988
0.03953318
0.03929129
0.03905333
0.03881862
0.03858672
0.03835722
0.03812982
0.03790426
0.03768056
0.03745916
0.03724045
0.03702522
0.03681437
0.03660912
0.03641114
0.03622388
0.0360521
0.03592104
0.03600074
0.03647377
0.03694243
0.0373575
0.03772101
0.03804654
0.0383436
0.03862003
0.03888111
0.03913043
0.03937028
0.03960242
0.03982801
0.0400481
0.04026352
0.04047498
0.040683
0.04088806
0.04109059
0.04129093
0.04148933
0.04168597
0.0418809
0.04207407
0.04226532
0.04245445
0.04264107
0.04282499
0.04300577
0.04318335
0.04335769
0.04352887
0.0436971
0.04386339
0.04402805
0.05132859
0.0515345
0.05190045
0.05250421
0.05328791
0.05414656
0.05499218
0.05577325
0.05646934
0.057079
0.05761002
0.05807358
0.05848131
0.05884391
0.0591706
0.05946902
0.05974525
0.06000406
0.06024903
0.06048285
0.06070752
0.06092446
0.0611347
0.06133898
0.06153779
0.06173149
0.06192028
0.06210428
0.0622835
0.0624579
0.06262739
0.06279188
0.06295133
0.06310571
0.06325511
0.06339968
0.06353963
0.0636752
0.06380665
0.06393421
0.06405797
0.06417777
0.06429326
0.06440256
0.06450233
0.06458395
0.06464612
0.06470265
0.06475795
0.06481376
0.06487057
0.06492845
0.0649876
0.06504324
0.06498421
0.06490446
0.06494473
0.06515184
0.06550536
0.06594788
0.06641932
0.06687667
0.06729694
0.06767215
0.06800296
0.06829413
0.06855175
0.06878187
0.06898992
0.06918048
0.06935733
0.06952348
0.06968129
0.06983252
0.06997849
0.07012011
0.07025803
0.07039264
0.07052416
0.07065269
0.07077817
0.07090041
0.07101916
0.0711341
0.0712449
0.07135131
0.07145318
0.07155048
0.07164333
0.07173198
0.07181676
0.07189806
0.07197632
0.07205197
0.07212542
0.07219703
0.07226715
0.07233606
0.07240399
0.07247114
0.07253767
0.0726037
0.07266934
0.07273467
0.07279976
0.07286464
0.07292936
0.07299395
0.07305843
0.07312284
0.07318721
0.07325156
0.07331593
0.07338036
0.07344489
0.07350957
0.07357445
0.07363961
0.07370513
0.0737711
0.07383764
0.07390489
0.07397302
0.07404224
0.07411283
0.07418512
0.07425959
0.07433683
0.07441769
0.07450339
0.07459575
0.07469766
0.07481394
0.0749533
0.07513276
0.07538884
0.07580502
0.07654519
0.07697629
0.01220206
0.01205359
0.01363333
0.01524662
0.01656593
0.01764698
0.01857834
0.01941368
0.02021774
0.02250464
0.02760235
0.03193944
0.03533885
0.0379571
0.04003611
0.04176926
0.04328157
0.0446469
0.05333274
0.05453341
0.05595346
0.05754771
0.0591757
0.06072717
0.06215444
0.06345183
0.06463247
0.06570902
0.06660393
0.06745236
0.06841226
0.06949875
0.07065082
0.07180073
0.07290505
0.07394518
0.07491536
0.07554154
0.07603943
0.07670019
0.07749957
0.07840018
0.07935363
0.08031772
0.08126406
0.08217661
0.08304186
0.08382855
0.0845595
0.0852904
0.08605854
0.08686883
0.08770506
0.08854516
0.08936864
0.09013804
0.09789927
0.09862953
0.09927865
0.09989654
0.1005081
0.1011162
0.1017141
0.1023119
0.1029079
0.1034925
0.1040554
0.1045976
0.1051297
0.1056642
0.1062088
0.1067654
0.1073298
0.1078924
0.1084266
0.1088687
0.109224
0.1095287
0.1097829
0.1099837
0.1101427
0.1102776
0.1104007
0.1105184
0.1106329
0.1107436
0.1108494
0.1109479
0.1110409
0.1111307
0.1112199
0.1113129
0.1114157
0.1115306
0.1116625
0.1118083
0.1119654
0.1121382
0.1122997
0.1123932
0.1123881
0.1122678
0.1120115
0.1116549
0.1113452
0.111095
0.1108684
0.110649
0.1104329
0.1102221
0.1100199
0.1098292
0.1096509
0.1094848
0.1093296
0.1091836
0.1090446
0.1089104
0.1087791
0.1086489
0.1085185
0.1083871
0.1082547
0.1081217
0.1079894
0.1078592
0.1077326
0.107611
0.1074953
0.1073859
0.1072828
0.1071854
0.1070927
0.107004
0.1069181
0.1068344
0.1067522
0.1066712
0.1065912
0.1065121
0.1064339
0.1063565
0.1062801
0.1062045
0.1061298
0.1060559
0.1059827
0.1059104
0.1058387
0.105768
0.1056984
0.1056306
0.1055664
0.1055095
0.1054678
0.1054316
0.1053796
0.1053006
0.1051933
0.1050619
0.1049125
0.104751
0.1045825
0.1044106
0.1042379
0.104066
0.103896
0.1037283
0.1035631
0.1034004
0.1032399
0.1030815
0.1029248
0.10277
0.1026167
0.1024649
0.1023148
0.1021664
0.1020198
0.1018757
0.1017344
0.1015969
0.1014639
0.1013362
0.1012143
0.1010986
0.1009894
0.100886
0.1007878
0.1006943
0.1006049
0.1005189
0.1004359
0.100355
0.100276
0.1001982
0.1001214
0.1000453
0.09996976
0.09989462
0.09981999
0.09974587
0.09967146
0.09958952
0.09475877
0.09290724
0.09236898
0.09205808
0.09176705
0.09146648
0.09116119
0.09085959
0.0905677
0.09028861
0.09002334
0.08977158
0.0895322
0.08930367
0.08908446
0.08887329
0.0886691
0.08847104
0.08827846
0.08809089
0.08790804
0.08772972
0.08755579
0.08738663
0.0872222
0.08706308
0.08690993
0.08676365
0.08662537
0.08649643
0.0863785
0.08627394
0.08618667
0.08612459
0.08610437
0.08614966
0.08625061
0.08638705
0.08654535
0.08671605
0.08689245
0.08706988
0.08724528
0.08741681
0.08758351
0.087745
0.08790127
0.08805253
0.08819912
0.08834144
0.08847992
0.08861497
0.08874697
0.08887628
0.08900316
0.08912781
0.08925032
0.08937066
0.08948868
0.08960411
0.08971661
0.0898258
0.08993131
0.09003285
0.09013025
0.09022346
0.09031258
0.09039779
0.09047836
0.09053844
0.09751594
0.097738
0.09786778
0.09796009
0.09805362
0.09817131
0.09832213
0.09850514
0.09871398
0.09894047
0.09917676
0.09941644
0.09965475
0.09988852
0.1001158
0.1003357
0.1005476
0.1007524
0.1009522
0.1011476
0.1013385
0.101525
0.1017071
0.1018846
0.1020573
0.102225
0.1023875
0.1025443
0.1026954
0.1028403
0.1029788
0.1031107
0.1032359
0.1033544
0.1034664
0.1035721
0.1036717
0.1037657
0.1038544
0.1039382
0.1040172
0.1040917
0.1041614
0.1042258
0.1042837
0.1043343
0.1043786
0.1044188
0.1044561
0.1044917
0.104526
0.1045592
0.1045905
0.1046163
0.1046288
0.1046267
0.104617
0.1046124
0.1046257
0.1046655
0.1047344
0.1048299
0.1049466
0.1050785
0.1052199
0.1053665
0.1055151
0.1056634
0.1058104
0.1059553
0.1060979
0.1062384
0.1063766
0.1065129
0.1066472
0.1067796
0.1069099
0.1070379
0.1071633
0.1072859
0.1074051
0.1075206
0.1076317
0.1077381
0.1078393
0.1079351
0.1080252
0.1081097
0.1081888
0.1082626
0.1083317
0.1083964
0.1084572
0.1085147
0.1085694
0.1086218
0.1086721
0.108721
0.1087685
0.1088151
0.1088608
0.108906
0.1089506
0.1089949
0.109039
0.1090828
0.1091264
0.1091699
0.1092134
0.1092568
0.1093002
0.1093436
0.1093871
0.1094308
0.1094746
0.1095186
0.109563
0.1096077
0.1096529
0.1096987
0.1097452
0.1097926
0.1098411
0.1098909
0.1099424
0.109996
0.1100522
0.1101117
0.1101755
0.1102448
0.1103216
0.1104089
0.1105108
0.1106343
0.1107899
0.1109925
0.1112571
0.1115693
0.1118123
0.014119
0.01162162
0.01293057
0.01461632
0.01599545
0.01708746
0.01800029
0.01880323
0.01953717
0.02044251
0.02460647
0.02921797
0.03297405
0.03589805
0.03819253
0.0400686
0.04167728
0.04311289
0.04440915
0.05303209
0.05436567
0.05594653
0.05766271
0.05936588
0.06096602
0.06243393
0.06377329
0.06499982
0.06609025
0.06702715
0.06804431
0.06921713
0.07049396
0.07178499
0.07302548
0.07418669
0.07526308
0.07624816
0.07667913
0.07733064
0.07815983
0.07912437
0.08016212
0.08121582
0.08224734
0.08323696
0.08417524
0.08503991
0.08582383
0.08659023
0.08739369
0.08824706
0.08913138
0.09001842
0.09088326
0.09169322
0.09961506
0.1003668
0.1010127
0.1016068
0.1021824
0.1027666
0.1033642
0.103971
0.1045798
0.1051813
0.1057622
0.1063187
0.1068608
0.1074033
0.1079572
0.108526
0.1091069
0.1096934
0.1102761
0.11084
0.1113751
0.1118851
0.1123826
0.112881
0.1133888
0.1139089
0.1144395
0.114976
0.1155115
0.1160375
0.1165494
0.1170493
0.1175438
0.1180401
0.1185427
0.1190534
0.1195733
0.1201161
0.1204759
0.1208915
0.1213297
0.1217794
0.1222396
0.1227123
0.1231989
0.1236974
0.124204
0.1247137
0.1252209
0.1257222
0.1262171
0.1267078
0.1271967
0.1276852
0.1281714
0.1286495
0.1291057
0.1295179
0.1298828
0.1302057
0.1304837
0.1307146
0.1309041
0.1310626
0.1312002
0.1313247
0.1314413
0.1315531
0.1316615
0.1317671
0.1318708
0.1319734
0.1320763
0.1321814
0.1322911
0.1324074
0.1325313
0.1326602
0.1327909
0.1329182
0.1330263
0.1330881
0.1330799
0.1329804
0.1327942
0.1325524
0.1323273
0.1321356
0.1319638
0.1318004
0.1316396
0.1314794
0.1313202
0.131163
0.1310092
0.1308594
0.1307138
0.1305722
0.1304337
0.1302973
0.1301619
0.1300264
0.1298901
0.1297527
0.1296142
0.1294754
0.1293376
0.1292022
0.1290706
0.1289444
0.1288244
0.1287112
0.1286047
0.1285046
0.12841
0.12832
0.1282336
0.1281501
0.1280686
0.1279888
0.1279102
0.1278328
0.1277564
0.1276809
0.1276064
0.1275328
0.1274602
0.1273884
0.1273174
0.1272473
0.1271781
0.1271098
0.1270427
0.1269771
0.126914
0.1268545
0.1268013
0.1267537
0.1267058
0.126651
0.1265845
0.1265043
0.1264098
0.1263023
0.1261836
0.1260555
0.12592
0.1257787
0.125633
0.1254841
0.1253327
0.1251795
0.1250249
0.1248693
0.1247131
0.1245565
0.1243997
0.1242431
0.124087
0.1239319
0.1237784
0.123627
0.1234787
0.1233343
0.1231949
0.1230611
0.1229338
0.1228133
0.1226999
0.1225935
0.1224938
0.1224002
0.122312
0.1222287
0.1221493
0.1220733
0.1219999
0.1219288
0.1218593
0.1217912
0.1217243
0.1216582
0.1215931
0.1215282
0.121461
0.1213801
0.1212354
0.1212503
0.1212631
0.1212461
0.1211973
0.1211196
0.1210173
0.120895
0.120757
0.1206072
0.1204489
0.1202847
0.1201166
0.1199461
0.1197741
0.1196017
0.1194294
0.119258
0.1190878
0.1189195
0.1187535
0.1185904
0.118431
0.1182757
0.1181256
0.1179814
0.1178442
0.1177151
0.1175954
0.1174865
0.11739
0.1173083
0.1172443
0.1172031
0.1171903
0.1172085
0.1172528
0.1173178
0.1173987
0.1174916
0.1175936
0.1177022
0.1178151
0.1179308
0.1180479
0.1181655
0.1182828
0.1183992
0.1185144
0.1186283
0.1187408
0.1188517
0.1189611
0.1190691
0.1191755
0.1192803
0.1193835
0.1194847
0.1195838
0.1196804
0.119774
0.1198643
0.1199511
0.120034
0.1201128
0.1201876
0.1202585
0.1203264
0.1203948
0.1204834
0.1203969
0.1203729
0.1203753
0.1203897
0.1204141
0.1204513
0.1205056
0.1205796
0.1206741
0.1207883
0.1209203
0.1210675
0.1212272
0.1213968
0.121574
0.1217569
0.1219438
0.1221331
0.1223235
0.1225141
0.122704
0.1228924
0.1230786
0.1232619
0.1234417
0.1236173
0.1237881
0.1239535
0.124113
0.124266
0.1244121
0.1245511
0.1246826
0.1248067
0.1249235
0.1250331
0.1251358
0.1252321
0.1253223
0.1254068
0.1254861
0.1255603
0.1256295
0.1256936
0.1257521
0.1258051
0.125853
0.125897
0.1259379
0.1259764
0.126013
0.1260477
0.1260803
0.1261094
0.1261328
0.1261498
0.1261612
0.1261703
0.1261821
0.1262019
0.1262339
0.1262803
0.1263418
0.1264177
0.1265062
0.1266054
0.1267133
0.1268281
0.1269483
0.1270726
0.1272001
0.12733
0.1274617
0.1275947
0.1277284
0.1278624
0.127996
0.1281287
0.1282598
0.1283886
0.1285146
0.1286369
0.1287549
0.1288679
0.1289754
0.1290771
0.1291727
0.1292621
0.1293455
0.1294231
0.1294953
0.1295626
0.1296255
0.1296846
0.1297404
0.1297934
0.1298442
0.1298931
0.1299405
0.1299867
0.1300319
0.1300764
0.1301203
0.1301638
0.1302069
0.1302497
0.1302924
0.1303349
0.1303773
0.1304197
0.130462
0.1305044
0.1305469
0.1305895
0.1306323
0.1306754
0.1307187
0.1307626
0.130807
0.130852
0.1308979
0.1309448
0.1309929
0.1310426
0.1310941
0.131148
0.1312048
0.1312652
0.1313303
0.1314013
0.1314802
0.1315693
0.1316724
0.1317941
0.1319409
0.1321195
0.1323322
0.1325614
0.1327437
0.02199351
0.02787407
0.03352701
0.04891039
0.05727633
0.07171257
0.07460218
0.07686109
0.07825639
0.07899064
0.07929189
0.0794478
0.07926188
0.07905146
0.07912366
0.07943161
0.07991677
0.08051766
0.08118659
0.08189277
0.08261743
0.08334219
0.08403112
0.08471228
0.0854462
0.08626347
0.08715403
0.08808613
0.08902646
0.08994792
0.09080858
0.09875019
0.09959131
0.1003568
0.1011002
0.1018378
0.1025774
0.1033277
0.1040831
0.1048334
0.1055641
0.1062637
0.1069378
0.1076028
0.1082737
0.1089562
0.1096476
0.1103403
0.1110245
0.111687
0.1123128
0.1129029
0.1134717
0.1140369
0.1146106
0.1151968
0.1157932
0.1163944
0.116993
0.1175796
0.1181471
0.1186962
0.1192347
0.1197715
0.1203125
0.1208597
0.1214142
0.1219893
0.1223735
0.1228167
0.1232798
0.1237513
0.1242309
0.1247201
0.1252197
0.1257292
0.1262464
0.1267671
0.1272859
0.1277985
0.1283043
0.128806
0.1293077
0.1298123
0.1303211
0.1308333
0.1313462
0.1318556
0.1323566
0.1328458
0.1333235
0.1337932
0.1342589
0.1347241
0.1351909
0.1356593
0.1361279
0.1365938
0.1370545
0.1375088
0.1379576
0.1384034
0.1388487
0.1392958
0.139746
0.1401979
0.1406281
0.1410522
0.1414755
0.1419017
0.142336
0.1427871
0.1432635
0.1437541
0.1442533
0.1447572
0.1452629
0.145768
0.1462706
0.1467701
0.1472657
0.1477566
0.1482402
0.1487117
0.1491621
0.1495803
0.1499628
0.1503099
0.1506195
0.1508897
0.151123
0.1513251
0.1515027
0.151662
0.151808
0.1519444
0.1520739
0.1521982
0.1523189
0.1524372
0.1525543
0.1526714
0.15279
0.152911
0.1530342
0.1531574
0.1532767
0.1533862
0.1534745
0.1535246
0.1535187
0.1534343
0.1532815
0.1530808
0.1528734
0.1526799
0.1525014
0.1523342
0.1521743
0.1520194
0.1518679
0.1517191
0.1515729
0.1514291
0.1512874
0.1511473
0.151008
0.1508688
0.1507288
0.1505872
0.1504435
0.1502976
0.15015
0.1500016
0.1498538
0.1497082
0.1495666
0.1494304
0.1493007
0.1491782
0.1490629
0.1489545
0.1488521
0.1487549
0.1486618
0.1485719
0.1484845
0.148399
0.1483149
0.1482321
0.1481503
0.1480696
0.1479898
0.1479111
0.1478332
0.1477563
0.1476804
0.1476053
0.1475312
0.147458
0.147386
0.1473154
0.1472464
0.1471794
0.1471148
0.1470523
0.14699
0.1469251
0.1468545
0.1467762
0.1466889
0.1465919
0.1464855
0.14637
0.1462463
0.1461153
0.1459779
0.1458348
0.1456869
0.1455349
0.1453794
0.1452207
0.1450595
0.1448962
0.1447312
0.1445652
0.1443988
0.1442324
0.144067
0.1439035
0.1437429
0.1435862
0.1434346
0.1432892
0.1431506
0.1430194
0.142896
0.1427803
0.1426727
0.1425723
0.1424785
0.1423905
0.1423074
0.1422284
0.1421528
0.14208
0.1420094
0.1419407
0.1418735
0.1418076
0.1417427
0.1416785
0.1416138
0.1415453
0.1414692
0.1414137
0.1413696
0.1413267
0.1412778
0.1412183
0.1411458
0.1410595
0.1409598
0.1408477
0.1407245
0.1405918
0.140451
0.1403034
0.1401505
0.1399933
0.1398329
0.1396703
0.1395065
0.1393423
0.1391787
0.1390168
0.1388573
0.1387015
0.1385506
0.1384055
0.1382676
0.1381382
0.1380189
0.1379111
0.1378166
0.1377375
0.1376763
0.1376362
0.1376203
0.1376291
0.1376578
0.1377034
0.1377633
0.1378345
0.137915
0.1380028
0.1380963
0.1381941
0.1382953
0.1383987
0.1385037
0.1386096
0.1387161
0.1388226
0.1389289
0.1390348
0.1391401
0.1392448
0.1393486
0.1394513
0.1395527
0.1396525
0.1397503
0.1398458
0.1399384
0.1400279
0.1401139
0.140196
0.1402741
0.1403481
0.1404182
0.1404846
0.1405479
0.1406077
0.1406432
0.1406709
0.1406959
0.1407198
0.1407447
0.1407735
0.1408096
0.1408566
0.1409172
0.1409933
0.1410857
0.1411946
0.1413192
0.1414586
0.1416113
0.1417758
0.1419507
0.1421338
0.1423216
0.1425125
0.1427053
0.1428989
0.143092
0.1432839
0.1434734
0.1436597
0.1438418
0.144019
0.1441903
0.1443551
0.1445129
0.1446631
0.1448055
0.14494
0.1450664
0.145185
0.1452962
0.1454002
0.1454975
0.1455886
0.1456739
0.1457538
0.1458283
0.1458976
0.1459617
0.1460207
0.1460751
0.1461256
0.1461728
0.1462173
0.1462594
0.1462994
0.1463372
0.1463723
0.1464042
0.146433
0.1464592
0.1464841
0.1465099
0.1465393
0.1465748
0.1466185
0.1466719
0.1467355
0.1468094
0.1468933
0.1469863
0.1470875
0.1471962
0.1473113
0.1474322
0.1475579
0.1476879
0.1478213
0.1479574
0.1480954
0.1482346
0.1483742
0.1485131
0.1486506
0.1487856
0.1489173
0.1490447
0.1491672
0.1492841
0.1493947
0.1494989
0.1495965
0.1496876
0.1497724
0.1498513
0.1499247
0.1499933
0.1500576
0.1501183
0.1501758
0.1502308
0.1502836
0.1503347
0.1503844
0.1504331
0.1504808
0.1505279
0.1505745
0.1506206
0.1506665
0.1507121
0.1507575
0.1508028
0.150848
0.1508933
0.1509385
0.1509839
0.1510294
0.1510751
0.1511212
0.1511676
0.1512145
0.151262
0.1513103
0.1513596
0.15141
0.1514618
0.1515154
0.1515711
0.1516294
0.1516909
0.1517564
0.151827
0.151904
0.151989
0.1520843
0.152193
0.1523186
0.1524655
0.152637
0.1528322
0.1530361
0.1532004
0.02367518
0.03129406
0.03982942
0.07330834
0.08121742
0.1017352
0.1072721
0.1108146
0.1132591
0.1154103
0.1170021
0.1173116
0.1178576
0.1181904
0.1181968
0.1178941
0.1246306
0.1237278
0.1227158
0.1216396
0.1205205
0.1194032
0.1183557
0.1174219
0.116625
0.1159857
0.1155186
0.1152276
0.1151046
0.1151331
0.1152919
0.1155579
0.1159075
0.1163173
0.1167712
0.1172628
0.1177918
0.1183577
0.1189569
0.1195831
0.1202306
0.1209075
0.1214012
0.1219572
0.1225415
0.1231452
0.1237688
0.1244132
0.1250753
0.12575
0.126431
0.12711
0.1277795
0.1284359
0.1290807
0.129718
0.1303514
0.1309829
0.1316118
0.1322354
0.1328494
0.1334489
0.13403
0.134593
0.1351422
0.1356833
0.136221
0.1367579
0.1372943
0.1378285
0.1383572
0.1388768
0.1393857
0.1398845
0.1403761
0.1408639
0.1413509
0.1418391
0.1423272
0.1427917
0.1432508
0.1437115
0.1441822
0.1446685
0.1451627
0.1456629
0.1461687
0.1466795
0.147194
0.1477098
0.1482252
0.1487389
0.1492508
0.1497618
0.1502725
0.1507836
0.1512948
0.151805
0.1523124
0.1528151
0.1533112
0.1538
0.154282
0.1547585
0.1552311
0.1557011
0.1561693
0.1566356
0.1570994
0.1575599
0.1580166
0.1584697
0.1589198
0.1593682
0.159816
0.1602641
0.1607117
0.1611547
0.161594
0.1620316
0.1624701
0.1629123
0.1633614
0.1638184
0.1642818
0.1647498
0.1652213
0.1656948
0.1661688
0.1666418
0.1671125
0.1675792
0.1680402
0.1684929
0.1689335
0.1693562
0.1697549
0.1701262
0.1704691
0.1707817
0.171063
0.1713138
0.1715371
0.171737
0.1719177
0.1720832
0.1722368
0.1723812
0.1725186
0.1726506
0.1727787
0.172904
0.1730272
0.1731492
0.1732701
0.1733891
0.1735042
0.173612
0.1737072
0.1737825
0.1738268
0.1738281
0.1737696
0.1736545
0.1734998
0.1733286
0.1731573
0.1729921
0.1728341
0.1726827
0.1725369
0.1723955
0.1722576
0.1721223
0.171989
0.171857
0.1717254
0.1715935
0.1714602
0.1713248
0.1711866
0.1710452
0.1709008
0.1707538
0.1706054
0.170457
0.1703105
0.1701676
0.1700299
0.1698985
0.1697742
0.1696572
0.1695471
0.1694433
0.1693449
0.1692509
0.1691604
0.1690725
0.1689868
0.1689027
0.1688199
0.1687382
0.1686575
0.1685778
0.1684991
0.1684213
0.1683445
0.1682686
0.1681937
0.1681196
0.1680466
0.1679745
0.1679036
0.1678341
0.1677658
0.1676988
0.1676329
0.1675673
0.1675006
0.1674312
0.1673575
0.1672783
0.1671924
0.1670993
0.1669989
0.1668909
0.1667756
0.1666534
0.1665244
0.1663894
0.1662486
0.1661026
0.1659519
0.165797
0.1656385
0.1654769
0.165313
0.1651474
0.164981
0.1648147
0.1646497
0.1644871
0.1643282
0.1641742
0.1640262
0.163885
0.1637515
0.1636258
0.163508
0.1633979
0.163295
0.1631987
0.1631081
0.1630226
0.1629413
0.1628634
0.1627885
0.1627158
0.162645
0.1625758
0.1625078
0.162441
0.1623749
0.162309
0.1622422
0.1621739
0.1621085
0.1620465
0.1619857
0.161923
0.1618554
0.1617806
0.1616969
0.1616035
0.1615
0.1613866
0.1612639
0.1611324
0.160993
0.1608466
0.1606944
0.1605373
0.1603763
0.1602124
0.1600467
0.1598804
0.1597146
0.1595505
0.1593895
0.1592328
0.1590821
0.1589386
0.1588041
0.1586801
0.1585684
0.1584706
0.1583888
0.1583251
0.1582819
0.1582613
0.1582633
0.1582833
0.1583195
0.1583694
0.1584312
0.1585027
0.1585821
0.1586682
0.1587595
0.158855
0.158954
0.1590555
0.1591591
0.159264
0.1593701
0.159477
0.1595842
0.1596915
0.1597987
0.1599056
0.1600119
0.1601171
0.1602211
0.1603232
0.160423
0.1605201
0.1606143
0.1607048
0.1607914
0.160874
0.1609523
0.1610265
0.1610968
0.1611632
0.161225
0.1612786
0.1613253
0.1613673
0.1614064
0.1614448
0.1614847
0.161529
0.1615802
0.1616409
0.161713
0.1617978
0.1618962
0.1620081
0.162133
0.1622702
0.1624183
0.1625759
0.1627415
0.1629138
0.1630913
0.1632729
0.1634573
0.1636433
0.1638298
0.1640155
0.1641992
0.1643799
0.1645565
0.164728
0.1648936
0.1650525
0.165204
0.1653478
0.1654836
0.1656114
0.1657313
0.1658435
0.1659484
0.1660464
0.1661381
0.1662237
0.1663039
0.1663788
0.1664487
0.1665139
0.1665745
0.1666309
0.1666837
0.1667334
0.1667803
0.1668248
0.1668671
0.1669073
0.1669453
0.166981
0.1670147
0.1670467
0.1670778
0.167109
0.1671418
0.1671777
0.1672181
0.1672645
0.1673178
0.1673788
0.1674478
0.167525
0.1676102
0.1677032
0.1678036
0.1679109
0.1680246
0.1681441
0.1682687
0.1683976
0.16853
0.1686649
0.1688015
0.1689385
0.169075
0.1692099
0.169342
0.1694704
0.1695942
0.1697126
0.1698249
0.1699308
0.1700302
0.1701229
0.1702092
0.1702895
0.1703642
0.1704339
0.1704991
0.1705605
0.1706187
0.1706741
0.1707272
0.1707785
0.1708284
0.170877
0.1709248
0.1709718
0.1710183
0.1710643
0.1711099
0.1711553
0.1712005
0.1712456
0.1712906
0.1713355
0.1713806
0.1714256
0.1714709
0.1715164
0.1715621
0.1716083
0.171655
0.1717024
0.1717505
0.1717996
0.1718499
0.1719017
0.1719552
0.172011
0.1720693
0.172131
0.1721966
0.1722671
0.1723437
0.1724279
0.1725215
0.1726267
0.1727462
0.1728826
0.1730376
0.1732095
0.1733864
0.1735298
0.01421695
0.02007861
0.02583316
0.0476515
0.06501304
0.08900426
0.1015378
0.113007
0.1223706
0.1302567
0.1364798
0.1413199
0.1451501
0.1478656
0.1493616
0.1573097
0.157227
0.1569941
0.1566338
0.1561741
0.1556258
0.1549581
0.1541736
0.1532671
0.152231
0.1510898
0.1496458
0.1482226
0.1467912
0.1453522
0.1439182
0.1425186
0.1412007
0.1400079
0.1389692
0.1381019
0.137414
0.1369066
0.1365736
0.1364033
0.1363798
0.1364845
0.136697
0.136997
0.1373663
0.1377907
0.1382598
0.1387666
0.1393052
0.1398703
0.1404567
0.1410573
0.1416439
0.1422316
0.1428264
0.1434349
0.1440693
0.1447315
0.1454098
0.1460986
0.1467933
0.147489
0.1481813
0.1488667
0.1495438
0.1502125
0.1508734
0.1515271
0.1521734
0.1528114
0.1534395
0.1540559
0.154659
0.1552484
0.155825
0.1563911
0.156949
0.1575004
0.1580464
0.1585869
0.1591212
0.1596481
0.1601668
0.1606774
0.1611808
0.1616785
0.1621723
0.1626633
0.1631514
0.1636323
0.1641075
0.1645798
0.1650516
0.165524
0.1659966
0.1664702
0.1669454
0.1674226
0.1679018
0.1683825
0.1688639
0.1693453
0.1698262
0.1703063
0.1707856
0.1712639
0.171741
0.1722164
0.1726891
0.1731582
0.173623
0.1740826
0.174537
0.1749864
0.1754314
0.1758726
0.1763107
0.1767459
0.1771783
0.1776077
0.1780341
0.1784576
0.1788786
0.1792974
0.1797148
0.1801313
0.1805469
0.1809608
0.1813729
0.1817836
0.1821936
0.182604
0.1830158
0.1834295
0.1838451
0.1842626
0.1846816
0.1851017
0.185522
0.1859415
0.1863589
0.1867728
0.1871813
0.1875822
0.1879726
0.1883489
0.1887074
0.1890454
0.1893615
0.1896545
0.1899235
0.1901686
0.1903916
0.1905945
0.1907801
0.1909511
0.1911099
0.1912589
0.1913999
0.1915346
0.1916641
0.1917894
0.1919112
0.1920297
0.1921448
0.1922555
0.1923601
0.1924558
0.192539
0.1926045
0.192646
0.1926562
0.192627
0.19255
0.1924374
0.1923065
0.192168
0.1920284
0.1918911
0.1917574
0.1916277
0.1915018
0.1913791
0.1912591
0.1911411
0.1910244
0.1909079
0.1907903
0.1906707
0.1905481
0.1904219
0.1902918
0.1901579
0.1900208
0.1898816
0.189742
0.1896035
0.1894679
0.1893369
0.1892117
0.189093
0.1889811
0.1888758
0.1887765
0.1886824
0.1885927
0.1885065
0.1884231
0.1883419
0.1882624
0.1881844
0.1881075
0.1880316
0.1879566
0.1878825
0.1878094
0.1877371
0.1876658
0.1875954
0.1875258
0.1874571
0.1873893
0.1873225
0.1872567
0.1871919
0.187128
0.1870649
0.1870021
0.1869389
0.1868745
0.1868078
0.1867378
0.1866636
0.1865844
0.1864995
0.1864089
0.1863118
0.1862083
0.1860982
0.1859818
0.1858592
0.1857307
0.1855966
0.1854573
0.1853134
0.1851653
0.1850139
0.1848599
0.1847042
0.1845479
0.184392
0.184238
0.184087
0.1839404
0.1837993
0.1836646
0.183537
0.183417
0.1833046
0.1831996
0.1831016
0.18301
0.1829242
0.1828433
0.1827666
0.1826934
0.182623
0.1825549
0.1824887
0.182424
0.1823606
0.1822982
0.1822366
0.1821756
0.1821145
0.1820532
0.181992
0.1819312
0.1818702
0.1818078
0.1817425
0.1816729
0.1815974
0.1815151
0.1814251
0.181327
0.1812207
0.1811062
0.1809839
0.1808543
0.180718
0.1805758
0.1804286
0.1802774
0.1801231
0.179967
0.1798103
0.1796544
0.1795005
0.1793503
0.1792052
0.179067
0.1789372
0.1788176
0.1787098
0.1786155
0.1785364
0.1784742
0.1784306
0.1784076
0.1784026
0.1784135
0.1784389
0.1784771
0.1785264
0.1785852
0.1786519
0.1787254
0.1788046
0.1788884
0.1789762
0.1790672
0.1791608
0.1792565
0.179354
0.1794528
0.1795527
0.1796534
0.1797545
0.1798557
0.1799567
0.1800572
0.1801567
0.1802547
0.1803507
0.1804444
0.1805352
0.1806227
0.1807067
0.1807868
0.1808629
0.1809351
0.1810035
0.1810682
0.1811291
0.1811854
0.1812375
0.1812859
0.1813315
0.1813758
0.1814202
0.1814667
0.1815172
0.1815734
0.1816371
0.1817096
0.1817919
0.1818844
0.1819873
0.1821005
0.1822234
0.1823554
0.1824958
0.1826435
0.1827978
0.1829574
0.1831213
0.1832884
0.1834573
0.1836269
0.183796
0.1839634
0.1841278
0.1842882
0.1844436
0.1845932
0.1847362
0.1848721
0.1850007
0.1851217
0.1852352
0.1853414
0.1854407
0.1855333
0.1856199
0.1857007
0.1857763
0.1858471
0.1859133
0.1859753
0.1860334
0.1860879
0.1861392
0.1861876
0.1862335
0.1862772
0.1863188
0.1863585
0.1863964
0.1864325
0.186467
0.1865002
0.1865325
0.1865645
0.186597
0.186631
0.1866673
0.1867072
0.1867515
0.1868011
0.1868566
0.1869186
0.1869875
0.1870633
0.1871463
0.1872362
0.1873329
0.187436
0.1875449
0.1876591
0.1877777
0.1878998
0.1880245
0.1881506
0.1882772
0.1884029
0.1885267
0.1886475
0.1887643
0.1888763
0.1889829
0.1890835
0.189178
0.1892663
0.1893485
0.1894249
0.189496
0.1895622
0.1896242
0.1896824
0.1897374
0.1897897
0.1898398
0.1898882
0.189935
0.1899807
0.1900254
0.1900694
0.1901129
0.1901558
0.1901985
0.1902409
0.190283
0.1903251
0.190367
0.1904089
0.1904509
0.1904929
0.190535
0.1905774
0.19062
0.190663
0.1907066
0.1907507
0.1907955
0.1908413
0.1908882
0.1909365
0.1909865
0.1910385
0.1910929
0.1911503
0.1912113
0.1912767
0.1913475
0.1914248
0.1915099
0.1916045
0.1917104
0.1918292
0.1919617
0.1921061
0.1922532
0.1923725
0.003923916
0.02149468
0.0347234
0.04745767
0.05899564
0.06989069
0.08098759
0.09179874
0.1024283
0.1134177
0.1293215
0.1386813
0.1476914
0.155634
0.1622036
0.1672361
0.170974
0.1735344
0.1750305
0.1756392
0.1753421
0.1750435
0.1747553
0.1744855
0.1742325
0.1739857
0.1737455
0.173453
0.1730373
0.1724565
0.1716884
0.1707021
0.1695607
0.1682983
0.1669489
0.1655496
0.1641448
0.162787
0.1615252
0.1603981
0.1594315
0.1586399
0.1580284
0.1575939
0.1573277
0.1572165
0.157244
0.1573922
0.1576428
0.1579784
0.1583833
0.1588442
0.1593504
0.1598928
0.1604643
0.1610583
0.1616682
0.162285
0.1629069
0.1635347
0.1641705
0.1648165
0.1654722
0.1661354
0.1668039
0.1674754
0.1681473
0.1688166
0.1694809
0.1701383
0.1707874
0.1714278
0.172059
0.1726808
0.1732928
0.1738944
0.1744851
0.1750642
0.1756316
0.1761875
0.1767328
0.1772686
0.1777958
0.1783153
0.1788274
0.1793322
0.1798296
0.1803192
0.1808013
0.1812761
0.1817443
0.182207
0.1826648
0.1831181
0.183566
0.1840084
0.1844457
0.1848784
0.1853074
0.1857331
0.1861567
0.1865792
0.1870014
0.1874238
0.1878468
0.18827
0.1886934
0.1891165
0.1895389
0.1899604
0.1903806
0.1907991
0.1912155
0.1916295
0.1920404
0.1924479
0.1928516
0.1932512
0.1936467
0.1940384
0.1944265
0.1948113
0.1951931
0.195572
0.1959481
0.1963215
0.1966924
0.1970608
0.1974271
0.1977915
0.1981543
0.1985158
0.1988757
0.1992341
0.1995909
0.1999463
0.2003007
0.2006544
0.2010077
0.2013611
0.2017147
0.2020686
0.2024226
0.2027763
0.2031291
0.20348
0.2038278
0.204171
0.204508
0.2048366
0.2051546
0.2054596
0.2057497
0.2060238
0.2062808
0.2065202
0.206742
0.2069468
0.2071358
0.2073107
0.207473
0.2076245
0.2077667
0.2079011
0.2080289
0.2081511
0.2082684
0.2083812
0.2084898
0.2085937
0.2086922
0.2087839
0.2088668
0.2089384
0.2089955
0.2090344
0.2090508
0.2090408
0.209001
0.2089314
0.2088391
0.2087349
0.2086256
0.208515
0.2084053
0.2082977
0.2081926
0.2080898