/*--------------------------------*- C++ -*----------------------------------*\
| =========                 |                                                 |
| \\      /  F ield         | foam-extend: Open Source CFD                    |
|  \\    /   O peration     | Version:     3.1                                |
|   \\  /    A nd           | Web:         http://www.extend-project.de       |
|    \\/     M anipulation  |                                                 |
\*---------------------------------------------------------------------------*/
FoamFile
{
    version     2.0;
    format      ascii;
    class       volScalarField;
    location    "17.5";
    object      alpha1;
}
// * * * * * * * * * * * * * * * * * * * * * * * * * * * * * * * * * * * * * //

dimensions      [0 0 0 0 0 0 0];

internalField   nonuniform List<scalar> 
119952
(
1
1
1
1
1
1
1
1
1
1
1
1
1
1
1
1
1
1
1
1
1
1
1
1
1
1
1
1
1
1
1
1
1
1
1
1
1
1
1
1
1
1
1
1
1
1
1
1
1
1
1
1
1
1
1
1
1
1
1
1
1
1
1
1
1
1
1
1
1
1
1
1
1
1
1
1
1
1
1
1
1
1
1
1
1
1
1
1
1
1
1
1
1
1
1
1
1
1
1
1
1
1
1
1
1
1
1
0.9999999
1
1
1
0.9999999
1
1
1
1
1
0.9999999
1
1
1
1
1
1
1
1
1
1
1
1
1
1
1
1
1
1
1
1
1
1
1
1
1
1
1
0.9999999
1
0.9999998
0.9999998
1
0.9999999
0.9999999
1
1
1
1
1
1
0.9999999
1
1
1
1
1
1
1
1
1
1
1
1
1
1
1
1
1
1
1
1
1
1
1
1
1
1
1
1
0.9999999
1
0.9999999
0.9999999
1
1
0.9999998
1
1
1
0.9999997
1
1
1
0.9999998
1
1
1
1
1
0.9999997
1
1
1
1
1
1
1
0.9999999
1
1
1
1
0.9999999
1
1
1
1
0.9999998
1
1
0.9999999
1
1
0.9999999
1
1
1
0.9999999
1
1
1
1
1
1
0.9999998
1
1
1
1
1
1
1
1
1
1
1
1
1
1
1
1
0.9999999
1
1
1
0.9999998
1
1
0.9999999
1
1
1
1
1
1
1
1
1
1
1
1
1
1
1
1
1
1
1
1
1
1
1
1
1
1
1
1
1
1
1
1
1
1
1
1
1
1
1
1
1
1
1
1
1
1
1
1
1
1
1
1
1
1
1
1
1
1
1
1
1
1
1
1
1
1
1
1
1
1
1
1
1
1
1
1
1
1
1
1
1
1
1
1
1
1
1
1
1
1
1
1
1
1
1
1
1
1
1
1
1
1
1
1
1
1
1
1
0.9999999
1
1
1
0.9999999
0.9999999
1
1
1
1
1
1
1
1
1
1
1
1
1
1
1
1
0.9999996
0.9999998
1
1
1
1
1
1
1
1
1
1
1
1
1
1
1
1
1
1
1
1
1
1
1
1
1
1
1
1
1
1
1
1
1
1
1
1
1
1
1
1
1
1
1
1
1
1
1
1
1
1
1
1
1
1
1
1
1
1
1
1
1
1
1
1
1
1
1
1
1
1
1
1
1
1
1
1
1
1
1
1
1
1
1
1
1
1
1
1
1
1
1
1
1
1
1
1
1
1
1
1
1
1
1
1
1
1
1
1
1
1
1
1
1
1
1
1
1
1
1
1
1
1
1
1
1
1
1
1
1
1
1
1
1
1
1
1
1
1
1
1
1
1
1
1
1
1
1
1
1
1
1
1
1
1
1
1
1
1
1
1
1
1
1
1
1
1
1
1
1
1
1
1
1
1
1
1
1
1
1
1
1
1
1
1
1
1
1
1
1
1
1
1
1
1
1
1
1
1
1
1
1
1
1
1
1
1
1
0.9999999
0.9999999
0.9999999
1
1
1
1
1
1
1
1
0.9999999
0.9999999
1
1
1
1
1
0.9999999
0.9999999
1
1
1
1
1
0.9999999
0.9999999
1
1
1
1
1
1
1
1
1
1
1
1
1
1
1
1
1
1
1
1
1
1
1
1
1
1
1
1
1
1
1
1
1
1
1
1
1
1
1
1
1
1
1
1
1
1
1
1
1
1
1
1
1
1
1
1
1
1
1
1
1
1
1
1
1
1
1
1
1
1
1
1
1
1
1
1
1
0.9999998
0.9999995
0.9999996
0.9999999
1
1
1
1
1
1
1
1
1
1
1
1
1
1
1
1
1
1
1
0.9999999
0.9999999
0.9999999
0.9999999
1
1
1
1
1
0.9999999
0.9999999
0.9999999
0.9999999
1
1
1
1
1
1
1
1
1
1
1
1
1
1
1
1
1
1
1
1
1
1
1
1
1
1
1
1
1
1
1
1
1
1
1
1
1
1
1
1
1
1
1
1
1
1
1
1
1
1
1
1
1
1
0.9999999
0.9999999
1
1
1
1
1
1
1
1
1
1
1
1
1
1
1
1
1
1
1
1
1
1
1
1
1
1
1
1
1
1
1
1
1
1
1
1
1
1
1
1
1
1
1
1
1
1
1
1
1
1
1
1
1
1
1
1
1
1
1
1
1
1
1
1
1
1
1
1
1
1
1
1
1
1
1
1
1
1
1
1
1
1
1
1
1
1
1
1
1
1
1
1
1
1
1
1
1
1
1
1
1
1
1
1
1
1
1
1
1
1
1
1
1
1
1
1
1
1
1
1
1
1
1
1
1
1
1
1
1
1
1
1
1
1
1
1
1
1
1
1
1
1
1
1
1
1
1
1
1
1
1
1
1
1
1
1
1
1
1
1
1
1
1
1
1
1
1
1
1
1
1
1
1
1
1
1
1
1
1
1
1
1
1
1
1
1
1
1
1
1
1
1
1
1
1
1
1
1
1
1
1
1
1
1
1
1
1
1
1
1
1
1
1
1
1
1
1
1
1
1
1
1
1
1
1
1
1
1
1
1
1
0.9999999
0.9999995
0.9999985
0.9999983
0.9999985
0.9999989
0.9999993
0.9999996
0.9999999
0.9999999
0.9999999
0.9999995
0.9999989
0.9999979
0.9999965
0.9999933
0.9999845
0.9999787
0.9999879
0.9999981
0.9999999
1
1
1
1
1
1
1
0.9999999
0.9999999
0.9999999
1
1
1
1
1
1
1
1
1
1
1
1
0.9999999
1
1
1
1
1
1
1
1
1
1
1
1
1
1
1
1
1
1
1
1
1
1
1
1
1
1
1
1
1
1
1
1
1
1
1
1
1
1
1
1
1
1
1
1
1
1
1
1
1
1
1
1
1
1
1
1
1
1
1
1
1
1
1
1
1
1
1
1
1
1
1
1
1
1
1
1
1
1
1
0.9999999
0.9999993
0.9999952
0.9999891
0.9999922
0.999998
0.9999998
0.9999999
1
1
1
1
1
1
1
1
1
1
1
1
1
1
1
1
1
1
1
1
1
1
1
1
0.9999999
0.9999999
0.9999999
0.9999999
1
1
1
1
0.9999999
0.9999999
0.9999999
1
1
1
1
1
1
1
1
1
1
1
1
1
1
1
1
1
1
1
1
1
1
1
1
1
1
1
1
1
1
1
1
1
1
1
1
1
1
1
1
1
1
1
1
1
1
1
1
1
1
1
1
1
1
1
1
1
0.9999999
0.9999999
1
1
1
1
1
1
1
1
1
1
1
1
1
1
1
1
1
1
1
1
1
1
1
1
1
1
1
1
1
1
1
1
1
1
1
1
1
1
1
1
1
1
1
1
1
1
1
1
1
1
1
1
1
1
1
1
1
1
1
1
1
1
1
1
1
1
1
1
1
1
1
1
1
1
1
1
1
1
1
1
1
1
1
1
1
1
1
1
1
1
1
1
1
1
1
1
1
1
1
1
1
1
1
1
1
1
1
1
1
1
1
1
1
1
1
1
1
1
1
1
1
1
1
1
1
1
1
1
1
1
1
1
1
1
1
1
1
1
1
1
1
1
1
1
1
1
1
1
1
1
1
1
1
1
1
1
1
1
1
1
1
1
1
1
1
1
1
1
1
1
1
1
1
1
1
1
1
1
1
1
1
1
1
1
1
1
1
1
1
1
1
1
1
1
1
1
1
1
1
1
1
1
1
1
1
1
1
1
1
1
1
1
1
1
1
1
1
1
1
1
1
1
1
1
1
1
1
1
1
1
1
1
1
1
1
1
1
1
0.9999999
0.9999989
0.9999878
0.9999548
0.999948
0.9999586
0.9999799
0.9999955
0.9999996
0.9999998
0.999999
0.9999927
0.9999593
0.9997755
0.9990752
0.9987545
0.9993851
0.9999113
0.9999965
0.9999999
1
1
1
1
1
1
1
1
1
1
0.9999999
0.9999999
0.9999999
0.9999999
1
1
1
1
1
1
1
1
1
1
1
1
1
1
1
1
1
1
1
1
1
1
1
1
1
1
1
1
1
1
1
1
1
1
1
1
1
1
1
1
1
1
1
1
1
1
1
1
1
1
1
1
1
1
1
1
1
1
1
1
1
1
1
1
1
1
1
1
1
1
1
1
1
1
1
1
1
1
0.9999999
0.9999998
0.9999998
0.9999998
0.9999999
1
1
1
1
1
0.9999999
0.9999985
0.9999793
0.9999668
0.9999729
0.9999919
0.9999992
0.9999999
0.9999999
0.9999999
0.9999999
1
1
1
1
1
1
1
1
1
1
1
1
1
1
1
1
1
1
1
1
1
1
1
1
0.9999999
0.9999999
0.9999999
1
1
1
1
1
1
1
1
1
1
1
1
1
1
1
1
1
1
1
1
1
1
1
1
1
1
1
1
1
1
1
1
1
1
1
1
1
1
1
1
1
1
1
1
1
1
1
1
1
1
1
1
1
1
1
1
1
1
1
1
1
1
1
0.9999999
1
1
1
1
1
1
1
1
1
1
1
1
1
1
1
1
1
1
1
1
1
1
1
1
1
1
1
1
1
1
1
1
1
1
1
1
1
1
1
1
1
1
1
1
1
1
1
1
1
1
1
1
1
1
1
1
1
1
1
1
1
1
1
1
1
1
1
1
1
1
1
1
1
1
1
1
1
1
1
1
1
1
1
1
1
1
1
1
1
1
1
1
1
1
1
1
1
1
1
1
1
1
1
1
1
1
1
1
1
1
1
1
1
1
1
1
1
1
1
1
1
1
1
1
1
1
1
1
1
1
1
1
1
1
1
1
1
1
1
1
1
1
1
1
1
1
1
1
1
1
1
1
1
1
1
1
1
1
1
1
1
1
1
1
1
1
1
1
1
1
1
1
1
1
1
1
1
1
1
1
1
1
1
1
1
1
1
1
1
1
1
1
1
1
1
1
1
1
1
1
1
1
1
1
1
1
1
1
1
1
1
1
1
1
1
1
1
1
1
1
1
1
1
1
1
1
1
1
1
1
1
1
1
1
1
1
1
1
1
1
1
1
1
1
1
1
1
1
1
1
0.9999999
0.9999989
0.9999829
0.9998462
0.9996943
0.9997506
0.9998716
0.9999635
0.9999917
0.9999937
0.9999893
0.9998939
0.9984907
0.992601
0.9933499
0.9977382
0.9997257
0.9999889
0.9999999
1
1
1
1
1
1
1
0.9999998
0.9999997
0.9999999
1
1
0.9999999
0.9999999
0.9999999
1
1
1
1
1
1
1
1
1
1
1
1
1
1
1
1
1
1
1
1
1
1
1
1
1
1
1
1
1
1
1
1
1
1
1
1
1
1
1
1
1
1
1
1
1
1
1
1
1
1
1
1
1
1
1
1
1
1
1
1
1
1
1
1
1
1
1
1
1
1
1
1
1
1
1
1
0.9999998
0.9999989
0.9999964
0.9999959
0.9999977
0.9999996
0.9999998
0.9999998
0.9999997
0.9999991
0.999997
0.9999941
0.9999943
0.9999963
0.9999973
0.9999969
0.9999877
0.9999845
0.9999882
0.9999929
0.9999957
0.9999972
0.9999986
0.9999998
1
1
1
1
1
1
1
1
1
0.9999999
0.9999999
0.9999999
1
1
1
1
1
1
1
1
1
1
1
1
1
1
1
1
1
1
1
1
1
1
1
1
1
1
0.9999998
0.9999998
0.9999999
1
1
1
1
1
1
1
1
1
1
1
1
1
1
1
1
1
1
1
1
1
1
1
1
1
1
1
1
1
1
1
1
1
1
1
1
1
1
1
1
1
1
1
1
1
1
1
1
1
1
1
1
1
1
1
1
1
1
1
1
1
1
1
1
1
1
1
1
1
1
1
1
1
1
1
1
1
1
1
1
1
1
1
1
1
1
1
1
1
1
1
1
1
1
1
1
1
1
1
1
1
1
1
1
1
1
1
1
1
1
1
1
1
1
1
1
1
1
1
1
1
1
1
1
1
1
1
1
1
1
1
1
1
1
1
1
1
1
1
1
1
1
1
1
1
1
1
1
1
1
1
1
1
1
1
1
1
1
1
1
1
1
1
1
1
1
1
1
1
1
1
1
1
1
1
1
1
1
1
1
1
1
1
1
1
1
1
1
1
1
1
1
1
1
1
1
1
1
1
1
1
1
1
1
1
1
1
1
1
1
1
1
1
1
1
1
1
1
1
1
1
1
1
1
1
1
1
1
1
1
1
1
1
1
1
1
1
1
1
1
1
1
1
1
1
1
1
1
1
1
1
1
1
1
1
1
1
1
1
1
1
1
1
1
1
1
1
1
1
1
1
1
1
1
1
1
1
1
1
1
1
1
1
1
1
1
1
1
1
1
1
1
1
1
1
1
1
1
1
1
1
1
1
1
1
1
1
1
1
0.9999997
0.9999938
0.9999328
0.9996984
0.9992927
0.9988066
0.9979224
0.9969359
0.9971436
0.9979993
0.9983529
0.9973264
0.98973
0.9888409
0.9955938
0.9993863
0.9999761
0.9999998
1
1
1
1
1
0.9999997
0.9999982
0.9999949
0.9999964
0.9999992
0.9999999
1
1
1
1
1
1
1
1
1
1
1
1
1
1
1
1
1
1
1
1
1
1
1
1
1
1
1
1
1
1
1
1
1
1
1
1
1
1
1
1
1
1
1
1
1
1
1
1
1
1
1
1
1
1
1
1
1
1
1
1
1
1
1
1
1
1
1
1
1
1
1
1
1
1
0.9999999
0.9999998
0.9999997
0.9999999
0.9999999
0.9999998
0.9999988
0.999992
0.9999718
0.9999722
0.9999895
0.9999987
0.9999993
0.9999965
0.9999805
0.9999166
0.9997491
0.9994751
0.9993772
0.9995454
0.9998795
0.999988
0.9999883
0.9999791
0.9999519
0.999865
0.999715
0.9997489
0.9999223
0.9999937
0.9999999
1
1
1
1
1
1
0.9999999
0.9999996
0.9999989
0.9999986
0.9999991
0.9999998
1
1
1
1
1
1
1
1
1
1
1
1
1
1
1
1
1
1
1
1
1
1
1
1
1
1
0.9999998
0.9999995
0.9999996
0.9999999
1
1
1
1
1
1
1
1
1
1
1
1
1
1
1
1
1
1
1
1
1
1
1
1
1
1
1
1
1
1
1
1
1
1
1
1
1
1
1
1
1
1
1
1
1
1
1
1
1
1
1
1
1
1
1
1
1
1
1
1
1
1
1
1
1
1
1
1
1
1
1
1
1
1
1
1
1
1
1
1
1
1
1
1
1
1
1
1
1
1
1
1
1
1
1
1
1
1
1
1
1
1
1
1
1
1
1
1
1
1
1
1
1
1
1
1
1
1
1
1
1
1
1
1
1
1
1
1
1
1
1
1
1
1
1
1
1
1
1
1
1
1
1
1
1
1
1
1
1
1
1
1
1
1
1
1
1
1
1
1
1
1
1
1
1
1
1
1
1
1
1
1
1
1
1
1
1
1
1
1
1
1
1
1
1
1
1
1
1
1
1
1
1
1
1
1
1
1
1
1
1
1
1
1
1
1
1
1
1
1
1
1
1
1
1
1
1
1
1
1
1
1
1
1
1
1
1
1
1
1
1
1
1
1
1
1
1
1
1
1
1
1
1
1
1
1
1
1
1
1
1
1
1
1
1
1
1
1
1
1
1
1
1
1
1
1
1
1
1
1
1
1
1
1
1
1
1
1
1
1
1
1
1
1
1
1
1
1
1
1
1
1
1
1
1
1
1
1
1
1
1
1
1
1
1
1
1
1
1
0.9999999
0.9999998
0.9999996
0.9999985
0.9999889
0.9998879
0.9990902
0.9950485
0.9825575
0.9586119
0.9177204
0.855994
0.8455247
0.8633263
0.9051544
0.9455094
0.9683409
0.9836708
0.9957393
0.9996736
0.9999947
1
1
0.9999999
0.9999996
0.9999976
0.9999798
0.9999345
0.9999537
0.9999879
0.9999988
0.9999999
1
1
1
1
1
1
1
1
1
1
1
1
1
1
1
1
1
1
1
1
1
1
1
1
1
1
1
1
1
1
1
1
1
1
1
1
1
1
1
1
1
1
1
1
1
1
1
1
1
1
1
1
1
1
1
1
1
1
1
1
1
1
1
1
1
1
0.9999999
0.9999999
1
1
1
1
1
1
0.9999999
0.9999993
0.999999
0.9999995
0.9999998
0.9999995
0.9999957
0.9999671
0.9998827
0.9999084
0.9999731
0.9999974
0.9999993
0.9999977
0.9999581
0.9994214
0.9959053
0.9897249
0.9903722
0.9959379
0.9994776
0.9999652
0.9999258
0.9996227
0.9982484
0.9952562
0.9951852
0.9979704
0.9997502
0.9999904
0.9999998
1
1
1
1
0.9999999
0.9999997
0.9999991
0.9999968
0.9999895
0.9999866
0.9999934
0.9999991
1
1
1
1
1
1
1
1
1
1
1
1
1
1
1
1
1
1
1
1
1
1
1
1
1
1
0.9999999
0.9999993
0.9999985
0.9999992
0.9999999
1
1
1
1
1
0.9999999
1
1
1
1
1
1
1
1
1
1
1
1
1
1
1
1
1
1
1
1
1
1
1
1
1
1
1
1
1
1
1
1
1
1
1
1
1
1
1
1
1
1
1
1
1
1
1
1
1
1
1
1
1
1
1
1
1
1
1
1
1
1
1
1
1
1
1
1
1
1
1
1
1
1
1
1
1
1
1
1
1
1
1
1
1
1
1
1
1
1
1
1
1
1
1
1
1
1
1
1
1
1
1
1
1
1
1
1
1
1
1
1
1
1
1
1
1
1
1
1
1
1
1
1
1
1
1
1
1
1
1
1
1
1
1
1
1
1
1
1
1
1
1
1
1
1
1
1
1
1
1
1
1
1
1
1
1
1
1
1
1
1
1
1
1
1
1
1
1
1
1
1
1
1
1
1
1
1
1
1
1
1
0.9999999
0.9999999
0.9999999
0.9999999
0.9999999
0.9999999
0.9999999
0.9999998
0.9999996
0.9999994
0.9999991
0.9999991
0.9999993
0.9999995
0.9999996
0.9999995
0.9999993
0.9999987
0.9999973
0.9999959
0.9999956
0.9999964
0.9999981
0.9999988
0.9999988
0.9999981
0.9999963
0.999994
0.9999939
0.9999949
0.9999964
0.9999966
0.999996
0.9999934
0.9999895
0.9999888
0.9999904
0.9999945
0.9999974
0.9999977
0.9999975
0.9999966
0.9999954
0.9999952
0.9999955
0.9999965
0.9999975
0.9999976
0.9999973
0.9999963
0.9999954
0.9999953
0.9999956
0.9999967
0.9999978
0.9999979
0.9999978
0.9999972
0.9999963
0.999996
0.9999962
0.9999975
0.9999988
0.999999
0.999999
0.9999989
0.9999985
0.9999982
0.9999982
0.9999984
0.9999989
0.9999994
0.9999996
0.9999997
0.9999997
0.9999997
0.9999997
0.9999998
0.9999999
1
1
1
0.9999999
0.9999999
0.9999999
0.9999999
0.9999999
1
1
1
1
1
1
1
1
1
1
1
1
1
1
1
1
1
1
1
1
1
1
1
1
0.9999997
0.9999991
0.9999991
0.9999997
1
1
1
1
1
0.9999998
0.9999991
0.9999971
0.9999891
0.9999334
0.9994865
0.9952629
0.9621154
0.8599114
0.6935985
0.5046918
0.3100312
0.1610609
0.1525754
0.168171
0.1796222
0.2210402
0.508729
0.875995
0.98748
0.9994196
0.999983
0.9999991
0.9999987
0.9999854
0.9998103
0.9995257
0.9996482
0.9998918
0.9999848
0.9999984
0.9999999
1
1
1
1
1
1
1
1
1
0.9999999
1
1
1
1
1
1
1
1
1
1
1
1
1
1
1
1
1
1
1
1
1
1
1
1
1
1
1
1
1
1
1
1
1
1
1
1
1
1
1
1
1
1
1
1
1
1
1
1
1
1
1
1
1
1
0.9999999
0.9999996
0.9999994
0.9999996
0.9999999
1
1
1
1
1
1
0.9999999
0.9999992
0.9999985
0.9999988
0.9999982
0.9999897
0.9999081
0.9997468
0.9998039
0.9999297
0.9999875
0.9999928
0.9999896
0.9999548
0.99956
0.9951893
0.9672419
0.957984
0.9765696
0.9961385
0.9998388
0.9999655
0.9997299
0.9948712
0.9667147
0.971227
0.9906724
0.9990762
0.9999774
0.9999999
1
0.9999999
0.9999996
0.9999985
0.9999959
0.9999906
0.9999796
0.9999522
0.9999026
0.9999069
0.9999684
0.999997
0.9999999
1
1
1
1
1
1
1
1
1
1
1
1
1
1
1
1
1
1
1
1
0.9999999
0.9999999
1
1
1
1
0.9999996
0.9999972
0.9999974
0.9999991
0.9999999
1
1
1
1
1
0.9999999
0.9999999
1
1
1
1
1
1
1
1
1
1
1
1
1
1
1
1
1
1
1
1
1
1
1
1
1
1
1
1
1
1
1
1
1
1
1
1
1
1
1
1
1
1
1
1
1
1
1
1
1
1
1
1
1
1
1
1
1
1
1
1
1
1
1
1
1
1
1
1
1
1
1
1
1
1
1
1
1
1
1
1
1
1
1
1
1
1
1
1
1
1
1
1
1
1
1
1
1
1
1
1
1
1
1
1
1
1
1
1
1
1
1
1
1
1
1
1
1
1
1
1
1
1
1
1
1
1
1
1
1
1
1
1
1
1
1
1
1
1
1
1
1
1
1
1
1
1
1
1
1
1
1
1
1
1
1
1
1
1
1
1
1
1
1
1
1
1
0.9999999
0.9999999
0.9999999
0.9999999
1
1
1
0.9999999
0.9999996
0.9999991
0.9999987
0.9999984
0.9999981
0.999998
0.9999983
0.9999991
0.9999993
0.999999
0.9999979
0.9999957
0.9999922
0.9999871
0.9999827
0.9999824
0.9999862
0.9999938
0.9999961
0.9999955
0.9999917
0.99998
0.9999563
0.999928
0.9999172
0.999921
0.9999445
0.9999737
0.9999781
0.9999711
0.9999356
0.9998464
0.9996869
0.9995358
0.9995214
0.9996354
0.9998445
0.9999135
0.9999053
0.9998509
0.999688
0.9993417
0.9990022
0.9989801
0.9992325
0.999657
0.9997588
0.9997273
0.9995496
0.9991145
0.998831
0.998927
0.9993419
0.9995549
0.9995025
0.9992051
0.9984272
0.9976061
0.9975107
0.9979098
0.9990835
0.9997406
0.9997421
0.9996588
0.9994232
0.9990428
0.9988171
0.9988502
0.9993356
0.9997952
0.9998064
0.9997417
0.999496
0.9989088
0.9985065
0.998855
0.9996877
0.9999131
0.9998956
0.9997863
0.9993471
0.9986208
0.9986891
0.9995162
0.9999536
0.9999834
0.9999713
0.9999042
0.999636
0.9992071
0.9992865
0.9997589
0.9999721
0.9999804
0.9999729
0.9999328
0.999784
0.9995851
0.9996882
0.9999241
0.9999956
0.9999988
0.999998
0.9999934
0.9999766
0.9999559
0.9999633
0.9999866
0.9999969
0.9999973
0.9999955
0.9999846
0.9999616
0.9999681
0.9999903
0.9999991
0.9999997
0.9999996
0.9999991
0.9999981
0.9999961
0.9999909
0.9999794
0.9999786
0.9999901
0.9999984
0.999999
0.9999989
0.9999986
0.9999986
0.9999989
0.9999996
0.9999994
0.9999948
0.9999806
0.9999838
0.9999949
0.9999996
1
1
0.9999999
0.9999999
0.9999999
0.9999999
0.9999996
0.9999975
0.9999878
0.9998955
0.9984401
0.9817659
0.8999123
0.5571098
0.1369201
0.01608193
0.002659048
0.002477304
0.002663486
0.003214455
0.004609036
0.007881478
0.01657556
0.0438817
0.1190195
0.4558265
0.8800011
0.9916085
0.9998432
0.9999884
0.9998474
0.9990909
0.9989827
0.9994366
0.9999102
0.9999965
1
1
1
1
1
1
1
1
1
0.9999999
0.9999998
0.9999999
1
1
1
1
1
1
1
1
1
1
1
1
1
1
1
1
1
1
1
1
1
1
1
1
1
1
1
1
1
1
1
1
1
1
1
1
1
1
1
1
1
1
0.9999999
0.9999998
0.9999996
0.9999997
0.9999999
1
1
1
1
1
0.9999999
0.9999993
0.9999977
0.9999979
0.9999992
0.9999999
1
1
1
1
1
1
1
0.9999998
0.9999993
0.9999972
0.9999874
0.9999474
0.9997617
0.9996436
0.9997165
0.9998639
0.9998276
0.9996487
0.9995969
0.999533
0.9983959
0.991449
0.9621901
0.957984
0.957984
0.9653656
0.9906324
0.9994253
0.9999532
0.9994249
0.9853674
0.9619163
0.9619163
0.9768675
0.9961847
0.9998616
0.9999992
1
0.9999999
0.9999978
0.9999564
0.9996861
0.9990248
0.9985515
0.9986023
0.9992287
0.9998724
0.9999941
0.9999999
1
1
1
1
0.9999999
0.9999999
0.9999999
1
1
1
1
1
1
1
1
1
1
1
1
1
0.9999999
0.9999997
0.9999999
1
1
1
0.9999998
0.9999973
0.9999937
0.9999969
0.9999994
1
1
1
1
1
1
0.9999998
0.9999998
0.9999999
1
1
1
1
1
1
1
1
1
1
1
1
1
1
1
1
1
1
1
1
1
1
1
1
1
1
1
1
1
1
1
1
1
1
1
1
1
1
1
1
1
1
1
1
1
1
1
1
1
1
1
1
1
1
1
1
1
1
1
1
1
1
1
1
1
1
1
1
1
1
1
1
1
1
1
1
1
1
1
1
1
1
1
1
1
1
1
1
1
1
1
1
1
1
1
1
1
1
1
1
1
1
1
1
1
1
1
1
1
1
1
1
1
1
1
1
1
1
1
1
1
1
1
1
1
1
1
1
1
1
1
1
1
1
1
1
1
1
1
1
1
1
1
1
1
1
1
1
1
1
1
1
1
1
1
1
1
1
1
1
1
1
1
1
1
1
1
0.9999999
0.9999997
0.9999995
0.9999995
0.9999995
0.9999996
0.9999997
0.9999996
0.9999985
0.9999934
0.9999773
0.9999421
0.9999061
0.9999002
0.9999075
0.9999363
0.9999719
0.9999819
0.9999775
0.9999373
0.9997699
0.9993945
0.9989789
0.9988558
0.9989394
0.99936
0.9997997
0.999891
0.9998737
0.9997344
0.9992189
0.9979045
0.9961052
0.9956544
0.9962225
0.9979837
0.9993965
0.9996129
0.9995654
0.9991852
0.9974893
0.9925643
0.9864208
0.9857089
0.9888788
0.9954048
0.9985654
0.9987207
0.9983947
0.9956557
0.9841675
0.9623492
0.9557409
0.9642369
0.9835622
0.9945483
0.9959892
0.9954533
0.9905426
0.9742496
0.9473753
0.9404257
0.9548457
0.9844923
0.9954651
0.9939486
0.9842689
0.9580494
0.9371074
0.9426588
0.9714831
0.9940469
0.9946352
0.9872791
0.955863
0.8979191
0.8875266
0.9199098
0.9784061
0.9975543
0.997367
0.9944588
0.9850243
0.962009
0.9479359
0.9622579
0.9909985
0.9989811
0.9985126
0.9956665
0.9834721
0.9596049
0.9616848
0.9864459
0.9986934
0.9992407
0.998514
0.9945163
0.9817841
0.975585
0.985046
0.9972532
0.9997565
0.9997367
0.9993684
0.9973418
0.9906123
0.9877271
0.9933527
0.9989389
0.9996869
0.9995553
0.9984843
0.9926427
0.9839418
0.9890182
0.9974877
0.9998433
0.9999722
0.9999692
0.9999222
0.9996293
0.9990473
0.9991889
0.999717
0.9999385
0.9999383
0.9998446
0.9992207
0.9987641
0.9992014
0.9998146
0.9999866
0.9999921
0.9999917
0.9999909
0.9999791
0.999582
0.9970322
0.9966898
0.998114
0.9996858
0.9999815
0.9999886
0.9999839
0.9999243
0.9995112
0.9993691
0.9996154
0.9999297
0.9999968
0.9999992
0.9999863
0.9999593
0.9999768
0.9999956
0.9999998
0.9999998
0.9999995
0.9999973
0.9999931
0.9999943
0.9999987
0.9999984
0.9999928
0.999917
0.9986274
0.9778541
0.7518274
0.208235
0.01726286
0.002139851
0.002134492
0.002134492
0.002134492
0.002134492
0.002134492
0.002134492
0.003051813
0.005750483
0.005541822
0.007613039
0.03386652
0.2536945
0.7950079
0.984909
0.9996408
0.9998933
0.9995654
0.9994108
0.9996791
0.9999447
0.9999981
1
1
1
0.9999999
0.9999998
0.9999998
0.9999999
0.9999999
0.9999995
0.9999992
0.9999995
0.9999999
1
1
1
1
1
1
1
1
1
1
0.9999999
0.9999998
0.9999997
0.9999995
0.9999996
0.9999999
1
1
1
1
1
1
1
1
1
1
1
1
1
1
1
1
1
1
0.9999999
0.9999999
1
1
1
1
0.9999998
0.999999
0.9999971
0.999997
0.9999987
0.9999998
1
1
1
1
0.9999998
0.9999989
0.9999944
0.9999921
0.9999951
0.9999989
0.9999999
1
1
1
1
1
1
1
0.9999999
0.9999985
0.9999825
0.9998894
0.9995482
0.9993495
0.9993705
0.9997239
0.9997495
0.9995586
0.9975052
0.9904109
0.9896961
0.9920622
0.9836246
0.9580743
0.957984
0.9643636
0.9869513
0.9980799
0.9993846
0.9995106
0.999801
0.9996108
0.9962571
0.9753423
0.9728824
0.9878012
0.9983197
0.9999484
0.9999995
0.9999994
0.9999968
0.9999778
0.9997938
0.9972831
0.9788415
0.978406
0.9913954
0.9988867
0.9999622
0.9999998
1
0.9999999
0.9999994
0.9999985
0.999999
0.9999997
1
1
1
1
1
1
1
1
1
1
1
1
1
1
0.9999998
0.9999993
0.9999995
0.9999999
1
1
0.9999999
0.9999985
0.9999896
0.9999916
0.9999976
0.9999998
1
1
1
1
1
1
0.9999998
0.9999996
0.9999998
1
1
1
1
1
1
1
1
1
1
1
1
1
1
1
1
1
1
1
1
1
1
0.9999999
0.9999999
1
1
1
1
1
1
1
1
1
1
1
1
1
1
1
1
1
1
1
1
1
1
1
1
1
1
1
1
1
1
1
1
1
1
1
1
1
1
1
1
1
1
1
1
1
1
1
1
1
1
1
1
1
1
1
1
1
1
1
1
1
1
1
1
1
1
1
1
1
1
1
1
1
1
1
1
1
1
1
1
1
1
1
1
1
1
1
1
1
1
1
1
1
1
1
1
1
1
1
1
1
1
1
1
1
1
1
1
1
1
1
1
1
1
1
1
1
1
1
1
1
1
1
1
1
1
1
1
1
1
1
1
1
1
1
1
1
1
1
1
1
1
1
1
1
1
1
1
1
1
1
1
0.9999999
0.9999997
0.9999975
0.9999835
0.9999246
0.9997825
0.9996462
0.999621
0.9996336
0.9996912
0.9997952
0.9998498
0.9998101
0.9994239
0.9976357
0.9924551
0.9860033
0.9846482
0.985766
0.9903746
0.99608
0.9981585
0.9982601
0.9976965
0.991849
0.9653346
0.923517
0.9175786
0.9384836
0.9762793
0.991073
0.9929045
0.993388
0.9912626
0.9741233
0.9138209
0.8353018
0.8316196
0.8809205
0.9510832
0.9787978
0.9827552
0.9816239
0.9726264
0.9418063
0.8212948
0.6440165
0.6444681
0.7630187
0.9271609
0.9667901
0.955049
0.9390971
0.9246129
0.7625864
0.3638341
0.3582869
0.6257876
0.8587061
0.8672879
0.871958
0.8979976
0.8588007
0.4567343
0.1472366
0.2589371
0.6955652
0.9120466
0.9329679
0.9279411
0.7203256
0.2167334
0.200106
0.5729021
0.9008492
0.9383972
0.9379292
0.825242
0.3083619
0.09990714
0.1834173
0.6579409
0.9378666
0.974613
0.9717674
0.8290689
0.2995911
0.2638461
0.6394908
0.9456557
0.9916013
0.9910306
0.9588442
0.6525819
0.4821944
0.6825206
0.9296986
0.9917778
0.9925506
0.9783541
0.8714915
0.7379742
0.7737268
0.8973677
0.9817567
0.9946263
0.9932694
0.9824509
0.9412031
0.8934316
0.9021843
0.9628626
0.9954696
0.9957425
0.9890235
0.9401887
0.815197
0.8313975
0.9483444
0.9957426
0.9993394
0.9993491
0.9992618
0.9982429
0.9937013
0.9924623
0.9960829
0.9989018
0.9990847
0.9985666
0.9949204
0.9896184
0.9929028
0.998374
0.999699
0.9998251
0.9998399
0.9998113
0.9990763
0.9958396
0.9961235
0.9984473
0.9995462
0.9995462
0.9995402
0.9995452
0.9993832
0.9975747
0.9959247
0.9966066
0.9988458
0.9998307
0.999968
0.9999933
0.9999982
0.9999975
0.999986
0.9999597
0.9999701
0.9999876
0.9999924
0.9999857
0.9999346
0.9999281
0.9999659
0.9999952
0.9999989
0.9999974
0.9999628
0.9991396
0.9796512
0.6903298
0.1451909
0.007843066
0.002134492
0.002134492
0.002134492
0.002134492
0.002134492
0.002134492
0.003808823
0.008258902
0.007665614
0.00323118
0.00301855
0.003019019
0.003287469
0.02455645
0.3354036
0.8706507
0.9944028
0.9999226
0.9999527
0.999925
0.9999406
0.9999812
0.9999987
1
0.9999999
0.9999993
0.9999988
0.9999994
0.9999997
0.9999995
0.999998
0.9999977
0.9999988
0.9999998
1
1
1
1
1
1
1
0.9999999
0.9999994
0.9999969
0.9999911
0.9999809
0.9999813
0.9999926
0.999999
1
1
1
1
1
1
1
1
1
1
1
1
1
0.9999999
0.9999999
0.9999999
0.9999997
0.9999992
0.9999991
0.9999993
0.9999998
1
0.9999999
0.9999998
0.9999992
0.999998
0.9999933
0.99998
0.9999841
0.9999952
0.9999995
1
1
1
0.9999998
0.9999987
0.9999924
0.9999715
0.9999731
0.9999907
0.999999
1
1
1
1
0.9999997
0.9999988
0.9999978
0.9999988
0.9999991
0.9999967
0.9999668
0.9996327
0.9982948
0.9982577
0.9993049
0.9995795
0.9994689
0.998105
0.9932318
0.9743027
0.9559361
0.9561279
0.9575952
0.9832378
0.9972874
0.9991525
0.9990792
0.9967069
0.989352
0.9727623
0.9771837
0.9925469
0.9990774
0.9991195
0.9971654
0.9965115
0.997476
0.9992357
0.9999397
0.9999921
0.9999775
0.9999
0.999337
0.9937635
0.9734841
0.9705954
0.9705954
0.978485
0.9954008
0.9997958
0.9999978
0.9999988
0.9999952
0.9999945
0.9999977
0.9999997
1
1
1
1
1
1
1
1
1
1
1
1
1
1
0.9999996
0.9999981
0.9999984
0.9999995
1
1
1
0.9999991
0.9999882
0.9999812
0.9999919
0.9999988
1
1
1
1
1
1
0.9999999
0.9999995
0.9999992
0.9999995
0.9999999
1
1
1
1
1
1
1
1
1
1
1
1
1
1
1
1
1
1
1
1
1
0.9999999
0.9999999
0.9999999
1
1
1
1
1
1
1
1
1
1
1
1
1
1
1
1
1
1
1
1
1
1
1
1
1
1
1
1
1
1
1
1
1
1
1
1
1
1
1
1
1
1
1
1
1
1
1
1
1
1
1
1
1
1
1
1
1
1
1
1
1
1
1
1
1
1
1
1
1
1
1
1
1
1
1
1
1
1
1
1
1
1
1
1
1
1
1
1
1
1
1
1
1
1
1
1
1
1
1
1
1
1
1
1
1
1
1
1
1
1
1
1
1
1
1
1
1
1
1
1
1
1
1
1
1
1
1
1
1
1
1
1
1
1
1
1
1
1
1
1
1
1
1
1
1
1
1
1
1
1
1
1
1
1
1
0.9999999
0.9999993
0.9999961
0.9999882
0.9999806
0.9999774
0.9999745
0.9999667
0.9999502
0.9999248
0.9998031
0.9989417
0.9943707
0.9811058
0.9698115
0.9689749
0.9708149
0.9753169
0.980865
0.9866657
0.9884958
0.9831104
0.945993
0.8352333
0.7132164
0.693016
0.7110798
0.794759
0.9149166
0.9483046
0.9399032
0.9279534
0.9039813
0.6561536
0.2189512
0.2080546
0.4838601
0.8094185
0.8301236
0.8166202
0.8344566
0.8429852
0.6447638
0.1893496
0.04679567
0.07095105
0.2763209
0.5651274
0.6696994
0.7472369
0.7484497
0.5342773
0.1589365
0.02245708
0.01175514
0.01273897
0.04760553
0.3866434
0.6977574
0.5497324
0.1851204
0.02374275
0.008307781
0.008318227
0.01210673
0.0521722
0.1910787
0.2246134
0.1612531
0.05770766
0.0158544
0.01188662
0.01329045
0.03344723
0.09695563
0.1310521
0.1180069
0.07029546
0.02718215
0.02361064
0.05840001
0.1460066
0.1588417
0.1301352
0.06387842
0.02213416
0.01939005
0.06675928
0.1791998
0.1536662
0.08759252
0.06169271
0.06623924
0.05946894
0.05552523
0.1098846
0.1880349
0.1836977
0.146445
0.1290801
0.1400276
0.18518
0.1933738
0.1747061
0.2142128
0.4728666
0.5693598
0.443922
0.1918209
0.09498047
0.09122205
0.1471496
0.5438904
0.8459556
0.7529134
0.340116
0.1090563
0.1974535
0.6838901
0.9684537
0.9762997
0.7255158
0.1763631
0.1119252
0.256523
0.761991
0.9730869
0.9839922
0.9675604
0.8357403
0.7172178
0.7856343
0.934664
0.9946156
0.9968644
0.9809598
0.8776472
0.8223258
0.8744191
0.9626789
0.997362
0.9983184
0.9773198
0.8809422
0.899159
0.96238
0.9943453
0.9986157
0.9987305
0.9987836
0.9987385
0.9976841
0.9875056
0.9744045
0.97631
0.9903908
0.9985029
0.9997541
0.9999189
0.9999367
0.999946
0.9999572
0.9999575
0.9999501
0.9999357
0.9999296
0.9999088
0.9995543
0.999146
0.9994321
0.9998591
0.9999844
0.999998
0.9999988
0.9999986
0.9999844
0.9995918
0.9883792
0.7491549
0.1697737
0.009233525
0.002134506
0.004319905
0.006243908
0.005013324
0.002454813
0.002134492
0.002134492
0.007259116
0.007773916
0.00358827
0.003004335
0.003012088
0.00301855
0.00300982
0.005806704
0.1079753
0.6871169
0.9749653
0.9996174
0.9999981
0.9999985
0.9999977
0.9999982
0.9999989
0.9999984
0.999996
0.9999965
0.9999986
0.9999989
0.999997
0.9999927
0.9999945
0.9999982
0.9999998
1
1
1
1
1
1
0.9999998
0.9999985
0.9999897
0.9999432
0.9997678
0.9997568
0.9998928
0.9999851
0.9999994
0.9999999
1
0.9999999
0.9999999
0.9999999
0.9999999
0.9999998
0.9999995
0.9999969
0.9999883
0.999987
0.9999933
0.9999987
0.9999994
0.9999992
0.9999966
0.9999933
0.999994
0.9999977
0.9999997
0.9999999
0.9999998
0.9999985
0.9999929
0.9999824
0.999967
0.9999656
0.9999656
0.9999656
0.9999816
0.9999953
0.9999957
0.9999959
0.9999982
0.9999992
0.9999969
0.9999703
0.9998948
0.9999146
0.9999752
0.999998
1
1
0.9999999
0.9999994
0.9999939
0.999966
0.9999436
0.9999572
0.99999
0.9999963
0.9999756
0.9993208
0.9975942
0.9979326
0.9992042
0.9994974
0.9991641
0.9957971
0.973126
0.9256242
0.9241523
0.9536766
0.9902974
0.9991315
0.9997261
0.9997247
0.9990194
0.9932004
0.938525
0.9078571
0.9317072
0.9837689
0.9989517
0.9999475
0.9999518
0.9999291
0.9998966
0.9998979
0.9999382
0.9999573
0.9999132
0.999561
0.9966988
0.9800915
0.9705954
0.9705954
0.9705954
0.9740217
0.9906885
0.9989375
0.9999622
0.9999942
0.9999815
0.9999829
0.9999942
0.9999994
1
1
1
1
1
1
1
1
1
1
1
1
1
0.9999998
0.9999979
0.9999959
0.9999966
0.9999988
0.9999999
1
1
0.9999993
0.9999891
0.9999628
0.9999791
0.9999954
0.9999997
1
1
1
1
1
1
0.9999999
0.9999984
0.9999978
0.9999989
0.9999998
1
1
1
1
1
1
1
1
1
1
0.9999999
0.9999999
1
1
1
1
1
1
1
1
1
0.9999999
0.9999999
0.9999999
1
1
1
1
1
1
1
1
1
1
1
1
1
1
1
1
1
1
1
1
1
1
1
1
1
1
1
1
1
1
1
1
1
1
1
1
1
1
1
1
1
1
1
1
1
1
1
1
1
1
1
1
1
1
1
1
1
1
1
1
1
1
1
1
1
1
1
1
1
1
1
1
1
1
1
1
1
1
1
1
1
1
1
1
1
1
1
1
1
1
1
1
1
1
1
1
1
1
1
1
1
1
1
1
1
1
1
1
1
1
1
1
1
1
1
1
1
1
1
1
1
1
1
1
1
1
1
1
1
1
1
1
1
1
1
1
1
1
1
1
1
1
1
1
1
1
1
1
1
1
1
1
1
1
1
1
1
1
1
1
1
1
1
1
1
1
1
0.9999997
0.9999947
0.9999315
0.9993935
0.997388
0.9954834
0.9951634
0.99506
0.9944782
0.992453
0.9899333
0.9868255
0.9701589
0.8943
0.7082461
0.6021805
0.6068477
0.6368418
0.6847431
0.7198901
0.7545219
0.7873824
0.7507068
0.4424628
0.1197196
0.08387882
0.0836807
0.07791655
0.1201439
0.4113336
0.6055209
0.4914715
0.2001468
0.04043867
0.01381375
0.01244956
0.01304652
0.0243534
0.09499466
0.1802816
0.1628808
0.08881442
0.02477598
0.008735045
0.007935034
0.00848033
0.01155871
0.01807277
0.02620968
0.02821692
0.02741761
0.02256621
0.01247732
0.004900758
0.004317351
0.009106812
0.01012042
0.007466783
0.005204512
0.004915897
0.005034249
0.005680354
0.008140849
0.00892338
0.008351329
0.004061166
0.001933319
0.002300126
0.003836694
0.007660408
0.008165779
0.004739021
0.003169917
0.003305145
0.003892236
0.003922319
0.008301733
0.02651501
0.09706936
0.071963
0.02548219
0.006347196
0.004517142
0.008986403
0.06898292
0.1124703
0.09219933
0.02788477
0.004414687
0.0007800367
0.0004507092
0.0004535804
0.0008724551
0.007953768
0.06544609
0.07001449
0.03380165
0.00896899
0.009244526
0.03096745
0.1193963
0.07346212
0.01884792
0.0183011
0.06770337
0.349284
0.2616583
0.0653249
0.04064865
0.04064865
0.04063937
0.04063066
0.04383012
0.06450783
0.1671113
0.1083015
0.06829769
0.06702957
0.06702907
0.08747248
0.3223312
0.8045917
0.843817
0.657035
0.1451982
0.1017618
0.1615529
0.4077422
0.3041218
0.1857803
0.1033621
0.07702255
0.2478009
0.8001935
0.9869226
0.9918088
0.9653212
0.6362007
0.386207
0.386207
0.7420008
0.9708914
0.9972538
0.9968765
0.9927203
0.9577248
0.924848
0.9616698
0.9881759
0.9899706
0.9760094
0.8956315
0.8814523
0.9216752
0.9846651
0.9985782
0.9991158
0.9991136
0.9990988
0.9990137
0.998909
0.998882
0.9988571
0.9987177
0.9983274
0.997571
0.9955732
0.9945304
0.9973774
0.9994772
0.9998932
0.9999797
0.9999985
0.9999989
0.9999979
0.9999885
0.9998147
0.9951982
0.8594873
0.2571696
0.01601894
0.004789038
0.0299172
0.1106026
0.1546743
0.1193911
0.03623839
0.005758528
0.003143871
0.003179461
0.003237043
0.003001274
0.003002737
0.00300426
0.003010159
0.003001693
0.003000529
0.02434758
0.3785555
0.8985227
0.9966659
0.9999833
0.9999991
0.999998
0.9999903
0.9999803
0.9999819
0.9999902
0.9999962
0.999995
0.999983
0.9999838
0.9999931
0.9999984
0.9999998
1
1
1
1
1
0.9999998
0.9999986
0.9999887
0.9998604
0.9991615
0.9990023
0.9992992
0.9998431
0.9999903
0.9999997
0.9999997
0.9999997
0.9999995
0.999999
0.9999975
0.9999896
0.999933
0.9996885
0.9996364
0.9997922
0.9999637
0.9999948
0.9999949
0.999987
0.999961
0.9999637
0.9999841
0.9999975
0.9999997
0.9999997
0.9999988
0.9999935
0.9999836
0.9999457
0.9998447
0.9998364
0.999894
0.9999796
0.9999944
0.9999926
0.9999807
0.9999376
0.99992
0.999953
0.9999913
0.999999
0.9999931
0.9998912
0.9997674
0.9998849
0.9999819
0.9999993
0.9999997
0.9999988
0.9999898
0.9999391
0.9997735
0.9995449
0.9997194
0.9999291
0.9999951
0.9999969
0.9999622
0.9989284
0.9979594
0.9992399
0.9994453
0.9988892
0.9945674
0.946012
0.916503
0.916503
0.9625904
0.9899683
0.9965995
0.9993264
0.9998398
0.9994483
0.9934646
0.9289625
0.8995871
0.9065502
0.9637467
0.9958427
0.9998159
0.999838
0.9998253
0.9998282
0.9998796
0.9999562
0.9999562
0.9999484
0.999549
0.9943988
0.9737487
0.9705954
0.9705954
0.9743789
0.988482
0.9966053
0.9994725
0.9999693
0.9999974
0.9999868
0.9999779
0.9999834
0.9999959
0.9999998
1
1
1
1
1
1
1
1
1
1
1
0.9999997
0.9999965
0.9999899
0.9999913
0.9999966
0.9999995
1
1
1
0.9999995
0.9999911
0.9999395
0.9999494
0.9999853
0.9999987
1
1
1
1
1
1
1
0.9999997
0.9999974
0.9999968
0.9999977
0.9999995
1
1
1
1
1
1
1
1
0.9999997
0.9999994
0.9999996
0.9999999
1
1
1
1
1
1
1
1
1
1
1
1
1
1
1
1
1
1
1
1
1
1
1
1
1
1
1
1
1
1
1
1
1
1
1
1
1
1
1
1
1
1
1
1
1
1
1
1
1
1
1
1
1
1
1
1
1
1
1
1
1
1
1
1
1
1
1
1
1
1
1
1
1
1
1
1
1
1
1
1
1
1
1
1
1
1