/*--------------------------------*- C++ -*----------------------------------*\
| =========                 |                                                 |
| \\      /  F ield         | foam-extend: Open Source CFD                    |
|  \\    /   O peration     | Version:     3.1                                |
|   \\  /    A nd           | Web:         http://www.extend-project.de       |
|    \\/     M anipulation  |                                                 |
\*---------------------------------------------------------------------------*/
FoamFile
{
    version     2.0;
    format      ascii;
    class       volScalarField;
    location    "17.5";
    object      k;
}
// * * * * * * * * * * * * * * * * * * * * * * * * * * * * * * * * * * * * * //

dimensions      [0 2 -2 0 0 0 0];

internalField   nonuniform List<scalar> 
119952
(
0.08253371
0.07878824
0.07797034
0.07635328
0.0745915
0.07318065
0.07269794
0.07267231
0.07287762
0.07319594
0.07356419
0.07394303
0.07430805
0.07464547
0.07495063
0.07522268
0.07547056
0.07571437
0.07602245
0.07673692
0.0792812
0.07703462
0.07698841
0.07919286
0.07603503
0.07433666
0.07293939
0.07164862
0.06915644
0.01867349
0.1005788
0.09788896
0.09555454
0.0942016
0.09376103
0.09402471
0.09471202
0.09563277
0.09664201
0.09769961
0.09300226
0.09311124
0.09565001
0.09921279
0.1029827
0.1065391
0.1097363
0.1125501
0.1149606
0.1260312
0.1272385
0.1280153
0.1283645
0.1284911
0.1285623
0.128658
0.1288068
0.1290018
0.1291539
0.1297404
0.1300788
0.1302079
0.1302489
0.1302426
0.1302067
0.1301343
0.1299699
0.1299123
0.1322943
0.1322442
0.1313567
0.1312332
0.1312598
0.1310128
0.1303452
0.1294382
0.1284792
0.1275095
0.1265351
0.1255651
0.1246069
0.1236715
0.1227666
0.121898
0.1210637
0.1202498
0.1194197
0.1185534
0.1178653
0.1173153
0.1164279
0.1160319
0.1165993
0.1168062
0.1167934
0.1171103
0.1175122
0.1153934
0.11336
0.1117944
0.1103935
0.1092139
0.1081697
0.1072312
0.106387
0.1056206
0.1049207
0.1042789
0.1036863
0.1031323
0.1026068
0.1021008
0.1016065
0.1011181
0.1006323
0.100146
0.09965492
0.0991535
0.0986376
0.09810838
0.0975728
0.09704081
0.09652119
0.0960187
0.09553322
0.09506057
0.09459381
0.09412474
0.09364491
0.09314614
0.09262162
0.09206791
0.09148669
0.09088564
0.09027778
0.0896801
0.08911193
0.08859158
0.08813365
0.08774518
0.08742463
0.08716139
0.0869316
0.08670528
0.08644424
0.08610996
0.08568384
0.08524853
0.08489298
0.08432317
0.0837483
0.08308198
0.08238593
0.08172007
0.08124096
0.08117882
0.08170445
0.08280393
0.08424211
0.085524
0.0863723
0.08675675
0.08690528
0.08709874
0.08761781
0.08876229
0.09084757
0.09416171
0.09886776
0.1049064
0.111939
0.1193924
0.1266068
0.1329617
0.1379674
0.1412677
0.1426059
0.1421853
0.1405449
0.1378271
0.1341504
0.1297963
0.1228776
0.1136346
0.1288
0.1510217
0.168483
0.1658087
0.1476867
0.1297453
0.1157746
0.1058726
0.09908563
0.09385254
0.08917624
0.084689
0.08027478
0.07503853
0.06735866
0.06265076
0.05941525
0.05686051
0.05460489
0.05259956
0.05083546
0.04938899
0.0482804
0.04745851
0.04689376
0.04653675
0.04629729
0.04609022
0.04588492
0.04571007
0.04558425
0.0455121
0.04547662
0.04544448
0.04537521
0.04523426
0.04500201
0.04467472
0.0442576
0.04376121
0.04320367
0.04261548
0.04202946
0.04146973
0.04095025
0.04048101
0.04006677
0.03970811
0.03938474
0.03961663
0.03997707
0.04030752
0.04060046
0.0408396
0.04102721
0.04117322
0.04128654
0.04137448
0.04144222
0.04149343
0.04153054
0.04155528
0.04156884
0.04157215
0.04156607
0.04155151
0.04152957
0.04150152
0.04146885
0.04143321
0.04139636
0.04136008
0.04132616
0.04129641
0.04127231
0.04125523
0.04124643
0.04124696
0.04125773
0.04127922
0.04131297
0.04136049
0.04140943
0.04310745
0.04327201
0.04336587
0.04330701
0.04320733
0.04312421
0.04309664
0.04314229
0.04327102
0.04348198
0.04376751
0.04411611
0.04451436
0.04494778
0.04539985
0.04585148
0.04628441
0.04668362
0.04703472
0.04733538
0.04758361
0.04779896
0.04798249
0.04824945
0.04874964
0.04952759
0.04965881
0.05053016
0.0542542
0.05982222
0.06607681
0.07178081
0.07538683
0.07556531
0.0731308
0.06952628
0.06557831
0.0618444
0.05846711
0.05510693
0.05176855
0.04869088
0.04606841
0.04400802
0.04259305
0.04174182
0.04127155
0.04107933
0.04108405
0.04122092
0.0414349
0.04169093
0.04197037
0.042308
0.04267223
0.04283492
0.04305554
0.0432762
0.0434913
0.04369133
0.04386785
0.04400995
0.04410444
0.04413906
0.04410484
0.04399694
0.04381426
0.04355874
0.0432349
0.0428494
0.04241006
0.04192516
0.04140328
0.04085303
0.04028279
0.03970044
0.03911324
0.03852774
0.03794953
0.03738316
0.03683213
0.03629898
0.0357854
0.03529236
0.03482028
0.03436919
0.03393884
0.03352889
0.03313895
0.03276873
0.03241805
0.03208675
0.03177464
0.03148135
0.03120627
0.03094877
0.03070816
0.03048322
0.03027327
0.03007739
0.02989457
0.02972387
0.02956431
0.02941489
0.02927464
0.02914265
0.02901814
0.02890051
0.02878907
0.02868338
0.02858318
0.02848848
0.02839964
0.02831737
0.02824284
0.02817772
0.02812403
0.02808413
0.02806066
0.02805641
0.02807428
0.02811709
0.02818753
0.02828809
0.02842089
0.02858762
0.02878949
0.02902715
0.02930066
0.02960954
0.02995271
0.03032856
0.03073484
0.03116851
0.03162425
0.03208882
0.03253966
0.03304798
0.03431516
0.09750735
0.09284921
0.09900829
0.1070938
0.1143155
0.1202129
0.1249609
0.1288234
0.1321502
0.1351739
0.1448215
0.1558523
0.1659948
0.1746273
0.181612
0.1871056
0.191375
0.1946808
0.2201905
0.2202108
0.2200222
0.2193993
0.218612
0.2178166
0.2170926
0.2164489
0.2158627
0.2151879
0.2147242
0.2141128
0.2131141
0.2119227
0.2106658
0.2094064
0.208163
0.206946
0.2057372
0.2047415
0.2038251
0.2026347
0.2013283
0.2000194
0.1987277
0.1974586
0.1962107
0.1949812
0.1937879
0.192689
0.1915821
0.19053
0.1895397
0.188581
0.187635
0.1866873
0.185729
0.1847809
0.1938234
0.1926559
0.1915214
0.1904592
0.1894484
0.1884583
0.1874643
0.186446
0.1854042
0.1843206
0.1832069
0.182121
0.1810709
0.1800467
0.1790459
0.1780589
0.1770892
0.1762262
0.1756363
0.1750926
0.1741743
0.1732568
0.1725506
0.1718487
0.1709814
0.1699743
0.1688977
0.1677628
0.1665717
0.1653422
0.1640751
0.1627728
0.161443
0.160101
0.1587633
0.1574423
0.1561433
0.1548761
0.1536658
0.1525422
0.1514551
0.1504632
0.1497695
0.1493055
0.1487527
0.1481422
0.1474019
0.1462581
0.14468
0.1432498
0.1420294
0.1408669
0.1397422
0.1386421
0.1375528
0.1364709
0.1353992
0.1343457
0.1333198
0.1323269
0.1313677
0.1304382
0.1295334
0.1286485
0.127779
0.1269182
0.1260548
0.1251733
0.1242584
0.1233022
0.1223091
0.1212943
0.1202788
0.1192824
0.1183199
0.1174008
0.1165294
0.1157073
0.1149336
0.1142034
0.1135081
0.1128356
0.1121737
0.1115123
0.1108457
0.1101742
0.1095047
0.1088475
0.1082153
0.1076188
0.1070658
0.1065562
0.1060903
0.1056627
0.1052662
0.1048887
0.1045257
0.1041763
0.1038405
0.1034753
0.1030355
0.1025036
0.1018396
0.1010039
0.09999949
0.09888202
0.09775191
0.09671448
0.09584391
0.09517378
0.09472308
0.09454122
0.09474999
0.09560645
0.09743974
0.1006796
0.1058268
0.1133484
0.1234817
0.1360299
0.1503131
0.1653051
0.1798362
0.1928229
0.2034839
0.2114645
0.2166507
0.2191946
0.2195541
0.2184273
0.2159196
0.21204
0.2054397
0.1946159
0.1818018
0.1701362
0.1622341
0.1584135
0.1588275
0.1619775
0.165699
0.1684812
0.1694326
0.1679125
0.1634488
0.1563636
0.1474737
0.1382538
0.1304561
0.1181208
0.1084667
0.1012062
0.09562495
0.09115442
0.08746807
0.08438272
0.08178968
0.0795968
0.07770647
0.07607159
0.07468624
0.073515
0.07250846
0.07163352
0.07089044
0.07030696
0.06989402
0.06964668
0.06956276
0.06962896
0.06981688
0.07008619
0.07038838
0.07067321
0.07089342
0.07101063
0.07100023
0.07085373
0.07057807
0.07018985
0.06970965
0.06915629
0.06854351
0.06789971
0.06731755
0.0668114
0.06634812
0.06591854
0.06551823
0.06514178
0.06478416
0.06444057
0.06410635
0.06377706
0.06344857
0.06311714
0.06277951
0.06243302
0.06207567
0.06170623
0.06132425
0.06093006
0.06052482
0.06011038
0.05968923
0.05926434
0.05883901
0.05841671
0.05800088
0.05759489
0.05720182
0.05682458
0.05646561
0.05612743
0.05581198
0.05552307
0.05526202
0.05502997
0.05690605
0.05677774
0.05671374
0.05671148
0.05676414
0.05687163
0.05703992
0.05727527
0.05758158
0.05795921
0.05840482
0.05891168
0.05946948
0.06006277
0.06067094
0.06126999
0.06183225
0.06232868
0.06273668
0.06304278
0.06323086
0.06328088
0.06317965
0.06291864
0.06242745
0.06153282
0.06021913
0.05879756
0.05755604
0.05670674
0.05650407
0.05726101
0.05919505
0.06222835
0.06592714
0.06992086
0.07386071
0.07754356
0.08067941
0.08268941
0.08301138
0.08159454
0.07897774
0.0758874
0.07288159
0.07024944
0.06819233
0.06675968
0.0658672
0.06537567
0.06514867
0.06508834
0.065137
0.06526764
0.06540371
0.06548559
0.06555066
0.0656306
0.0656992
0.06572457
0.06569062
0.06558801
0.06541061
0.06515446
0.06481742
0.06439897
0.06390013
0.06332338
0.06267277
0.06195385
0.06117347
0.06033957
0.05946102
0.05854734
0.05760815
0.05665298
0.05569121
0.05473196
0.05378371
0.05285413
0.05194989
0.05107657
0.05023862
0.04943931
0.04868079
0.04796417
0.0472896
0.04665643
0.04606338
0.0455087
0.04499035
0.04450613
0.04405377
0.04363084
0.04323477
0.04286301
0.04251344
0.04218366
0.04187024
0.04157097
0.04128447
0.04100987
0.04074662
0.04049434
0.04025285
0.04002213
0.03980258
0.03959537
0.03940087
0.0392187
0.03904882
0.03889166
0.038748
0.03861878
0.03850533
0.03840944
0.03833327
0.03827925
0.03825013
0.03824893
0.03827884
0.03834309
0.03844489
0.0385872
0.03877269
0.03900345
0.03928108
0.03960613
0.03997851
0.0403966
0.04085811
0.04135892
0.04189367
0.04245592
0.04303593
0.04363454
0.044274
0.04505829
0.04587885
0.05789504
0.06242791
0.06770512
0.07347376
0.07977042
0.08671626
0.09452201
0.1035166
0.1142545
0.1267887
0.1852775
0.202153
0.2189274
0.2358059
0.2521537
0.2676804
0.2821459
0.2993889
0.3279734
0.3908939
0.4021668
0.4118234
0.419723
0.4264308
0.4317991
0.436062
0.4392051
0.4411619
0.4425125
0.4435376
0.4449342
0.4455357
0.4449375
0.4432238
0.4406193
0.4373214
0.4334907
0.4296029
0.4231713
0.4172846
0.411804
0.4066181
0.4016649
0.3968684
0.392169
0.3875126
0.382877
0.3782956
0.373551
0.3687165
0.3637932
0.3588016
0.3537965
0.3488321
0.3439408
0.3391288
0.3472784
0.3427759
0.3382019
0.3336376
0.3291178
0.3246342
0.3201924
0.3158015
0.3114925
0.3072779
0.3031368
0.299114
0.2952491
0.2915197
0.2879066
0.2843931
0.2809563
0.2775864
0.2742881
0.2710367
0.267844
0.2647809
0.2618612
0.2590706
0.256393
0.2538039
0.2512752
0.2487842
0.2463107
0.2438821
0.2415348
0.2392785
0.2371276
0.2350888
0.2331488
0.2312796
0.2294443
0.2275836
0.2256537
0.2237679
0.2219623
0.2202502
0.2186263
0.2170724
0.21556
0.2140568
0.2125364
0.2109888
0.2094345
0.2079045
0.2064181
0.2049882
0.2036188
0.2023074
0.2010616
0.1998976
0.1988371
0.1978466
0.1968358
0.1958074
0.1948463
0.1939234
0.1929672
0.191938
0.1908455
0.1897105
0.1885351
0.1873092
0.1860299
0.1846856
0.1832793
0.1818313
0.1803734
0.1789345
0.1775354
0.176183
0.1748879
0.1736506
0.1724768
0.1713799
0.1704093
0.1695213
0.1686654
0.1677292
0.1667085
0.1654457
0.1640096
0.1625592
0.1611949
0.1599063
0.1586726
0.1574633
0.156255
0.1550393
0.1538206
0.1526119
0.1514276
0.1502769
0.1491611
0.148076
0.1470159
0.1459769
0.1449563
0.1439477
0.1429361
0.1418977
0.1408058
0.1396424
0.1384084
0.1371231
0.135816
0.1345169
0.133249
0.1320274
0.1308606
0.1297539
0.1287099
0.1277275
0.1268
0.1259163
0.1250626
0.1242266
0.1233998
0.1225805
0.1217742
0.1209909
0.1202425
0.1195402
0.1188887
0.1182841
0.1177219
0.1171966
0.1167003
0.1162256
0.1157697
0.1153326
0.1149125
0.1144927
0.1140466
0.1135512
0.1129756
0.1122903
0.1114873
0.110591
0.1096547
0.1087455
0.107926
0.107257
0.1068264
0.1067825
0.1073823
0.1090771
0.1124562
0.1181955
0.1269939
0.1393547
0.1552909
0.1741164
0.1944967
0.2148967
0.2337875
0.2499724
0.2627295
0.271778
0.2771497
0.2791475
0.2782914
0.2752723
0.2705284
0.2642186
0.2557428
0.2443772
0.2311571
0.2172708
0.2037369
0.1914068
0.1810512
0.1731043
0.167778
0.164989
0.1641815
0.1639166
0.1629357
0.1607048
0.157068
0.1520538
0.1464826
0.1399414
0.1329926
0.1260613
0.1194775
0.1134796
0.1082402
0.103755
0.09995193
0.09675733
0.09410534
0.09190117
0.0900523
0.08849547
0.08716838
0.08601466
0.08498878
0.08405952
0.08321276
0.08245647
0.08180749
0.08127395
0.08085774
0.08055922
0.08037379
0.08028921
0.08028433
0.08033028
0.08039351
0.08044028
0.08044055
0.08037111
0.08021664
0.07997243
0.07964371
0.0792412
0.07879709
0.07833215
0.07785314
0.07737069
0.07689392
0.07642817
0.07597592
0.07553731
0.07511079
0.07469359
0.07428217
0.07387255
0.0734606
0.0730424
0.07261443
0.07217384
0.07171859
0.07124761
0.07076089
0.07025945
0.06974534
0.06922147
0.06869152
0.06815961
0.06763029
0.06710804
0.06659769
0.06610321
0.06562977
0.0651798
0.06476033
0.06437103
0.0640245
0.06371579
0.06343472
0.06321358
0.06306563
0.06298954
0.06299138
0.06308474
0.063283
0.06359519
0.06402597
0.06457576
0.06524011
0.06600918
0.06686757
0.06779364
0.06875815
0.06972407
0.07065076
0.07149947
0.07223538
0.07283132
0.07327369
0.07355041
0.07363497
0.07349189
0.0730875
0.07230733
0.07113139
0.06971414
0.06814658
0.06646175
0.0647629
0.06323078
0.06207312
0.06147432
0.06156871
0.06243676
0.06412928
0.06666605
0.06980388
0.07319271
0.07655456
0.07958899
0.08201727
0.08360741
0.08426935
0.08411354
0.08340426
0.08244006
0.08145765
0.08058688
0.07985626
0.07930261
0.07892302
0.07867427
0.07850221
0.0783812
0.07826919
0.07811662
0.07793736
0.07772901
0.07747477
0.07716404
0.07678989
0.0763477
0.07583455
0.07524901
0.07459097
0.07386162
0.07306356
0.07220077
0.07127826
0.07030202
0.06927931
0.06821854
0.06712846
0.06601781
0.06489571
0.0637716
0.06265477
0.06155406
0.06047766
0.05943287
0.05842604
0.0574624
0.05654602
0.05567974
0.05486526
0.05410311
0.05339278
0.05273283
0.05212107
0.05155476
0.05103073
0.05054562
0.05009626
0.04967665
0.04928008
0.04890214
0.04854117
0.04819572
0.04786456
0.04754676
0.04724162
0.04694871
0.04666772
0.0463984
0.04614037
0.04589282
0.04565601
0.04543106
0.04521911
0.04502159
0.04484066
0.04467871
0.04453669
0.04441585
0.0443179
0.04424496
0.04419943
0.044184
0.0442016
0.04425531
0.04434821
0.04448333
0.04466339
0.04489075
0.04516717
0.04549378
0.04587055
0.04629655
0.04676893
0.04728447
0.04783724
0.0484245
0.04903863
0.04968746
0.05036633
0.05111223
0.05182932
0.04322633
0.04885131
0.05386492
0.08245088
0.1115779
0.1476929
0.1721012
0.1965764
0.2197263
0.2412806
0.2600107
0.2761578
0.2918962
0.3079968
0.3242524
0.3407321
0.3573941
0.3741811
0.3906655
0.4064955
0.42176
0.4363146
0.4503364
0.4639788
0.4771933
0.4899433
0.5021978
0.5139998
0.5253846
0.5362879
0.5469402
0.5806792
0.5848903
0.5883309
0.5897008
0.5896235
0.588304
0.5858469
0.582312
0.577888
0.5728862
0.5673057
0.5612626
0.5548658
0.5481876
0.5412905
0.5342335
0.5270735
0.5198616
0.5126209
0.5053434
0.4980927
0.490843
0.4836069
0.4764122
0.4692769
0.4621541
0.4550261
0.4479703
0.4409998
0.434097
0.4272545
0.4204527
0.4136826
0.406978
0.4003509
0.3938958
0.387558
0.3809426
0.3746625
0.3687047
0.3629979
0.3574862
0.3521323
0.3469126
0.3418153
0.3368361
0.3319795
0.3272585
0.322704
0.3183381
0.3141634
0.3101665
0.3063188
0.3025798
0.2989095
0.2952814
0.2916915
0.2881673
0.2847571
0.2814994
0.2784145
0.2754994
0.2727215
0.2700277
0.2673681
0.2647171
0.2620855
0.2595117
0.2570396
0.2547133
0.2525514
0.2505449
0.2486407
0.2467841
0.2449089
0.2430076
0.241111
0.2392648
0.2375112
0.2358768
0.234357
0.2329082
0.2314655
0.2299763
0.2284218
0.22682
0.2252142
0.2236561
0.2221833
0.2208049
0.2195088
0.2182767
0.2170895
0.215954
0.2148914
0.213892
0.2129414
0.2120557
0.2112195
0.2103742
0.2094728
0.2085142
0.2075232
0.2065132
0.2054609
0.2043399
0.2031171
0.2017849
0.20037
0.198923
0.1974951
0.1961213
0.1948091
0.1935507
0.1923287
0.1911344
0.1899652
0.1888484
0.1877878
0.1867582
0.1856976
0.1845631
0.1832998
0.181903
0.1804554
0.1790388
0.1776874
0.1763835
0.1750919
0.1737822
0.1724415
0.1710778
0.1697136
0.1683737
0.1670735
0.165815
0.1645914
0.1633948
0.1622237
0.1610807
0.1599631
0.158853
0.1577154
0.1565055
0.1551888
0.1537596
0.152243
0.1506808
0.1491154
0.1475792
0.1460922
0.1446656
0.1433074
0.1420239
0.1408166
0.1396794
0.1385996
0.137561
0.1365487
0.1355517
0.1345679
0.133605
0.1326758
0.1317962
0.1309824
0.1302384
0.1295562
0.12893
0.1283542
0.1278164
0.127305
0.126816
0.1263504
0.1259101
0.1254913
0.1250827
0.1246693
0.1242324
0.123754
0.123231
0.1226843
0.122156
0.1217002
0.1213819
0.1212942
0.1215934
0.1225364
0.1245287
0.1282016
0.1344438
0.1441687
0.1581996
0.1768818
0.1997857
0.2256613
0.2526202
0.278581
0.3016229
0.3204944
0.3346571
0.3439466
0.3485107
0.3487835
0.3454025
0.3391794
0.3308425
0.3208344
0.309117
0.2955466
0.2806749
0.2651481
0.2493746
0.233521
0.2181488
0.204111
0.1921305
0.1825339
0.1752524
0.1698345
0.165719
0.1622986
0.1591055
0.1554829
0.1513091
0.1464328
0.14092
0.1349664
0.1288745
0.1229457
0.1174188
0.1124671
0.1081797
0.1045546
0.1015304
0.09902459
0.09695958
0.09525921
0.09384013
0.09263481
0.09158713
0.09064496
0.089764
0.0889112
0.08806953
0.08724659
0.08646149
0.08572362
0.08504331
0.08442942
0.08388664
0.08341363
0.08300263
0.08264033
0.08230987
0.08199321
0.08167407
0.0813404
0.08098524
0.08060757
0.08021117
0.079805
0.07939585
0.07898829
0.07858759
0.07819854
0.07782434
0.07746618
0.07712332
0.07679337
0.0764727
0.07615682
0.0758408
0.07551961
0.07518855
0.07484347
0.07448111
0.07409927
0.07369698
0.07327459
0.0728337
0.07237709
0.07190856
0.07143263
0.07095448
0.07047946
0.07001332
0.06956136
0.06912945
0.0687223
0.06834596
0.06800495
0.06770607
0.06745369
0.06725211
0.06711536
0.06705676
0.0670878
0.06722282
0.0674786
0.06787123
0.06841347
0.06911342
0.06997366
0.07098969
0.07214939
0.0734329
0.07481095
0.07624251
0.07767561
0.07905372
0.08032133
0.08143025
0.0823485
0.08306071
0.08355286
0.08380356
0.08378822
0.08346829
0.08280156
0.08176419
0.08042365
0.07883524
0.07700658
0.0749559
0.07273691
0.07046512
0.06831588
0.0664745
0.06510163
0.06432852
0.06425026
0.06490674
0.06631717
0.06848942
0.07130862
0.07443331
0.07766462
0.08079147
0.08361584
0.08595958
0.08770428
0.08883298
0.08942565
0.08962146
0.08956116
0.08935838
0.08909036
0.08879707
0.08848549
0.08813917
0.08773305
0.08726488
0.08676475
0.08623426
0.08566569
0.08505413
0.08439635
0.08369018
0.08293413
0.08212718
0.08126869
0.08035867
0.07939846
0.0783903
0.07733686
0.07624227
0.07511257
0.07395419
0.07277317
0.07157656
0.07037276
0.06917051
0.06797853
0.0668053
0.06565884
0.06454651
0.06347486
0.06244946
0.06147481
0.06055427
0.05969007
0.05888323
0.05813367
0.05744024
0.05680074
0.05621223
0.05567131
0.05517195
0.05470812
0.05427565
0.05387038
0.05348857
0.05312691
0.0527826
0.05245339
0.05213756
0.05183392
0.05154175
0.05126072
0.05099085
0.05073235
0.05048568
0.05025166
0.05003124
0.04982533
0.0496345
0.04945988
0.04930406
0.04916935
0.04905802
0.04897279
0.04891606
0.04889003
0.04889709
0.04893984
0.04902101
0.04914336
0.04930953
0.04952189
0.0497819
0.05009055
0.0504483
0.05085519
0.05131031
0.051812
0.05235698
0.05294119
0.05356018
0.05421149
0.05489581
0.0556115
0.05629492
0.02104591
0.0235018
0.0258768
0.03451682
0.04605671
0.065587
0.07947334
0.09432912
0.1104252
0.1268728
0.14398
0.1628972
0.1832534
0.2042154
0.2262031
0.2510633
0.2892495
0.3071812
0.3253971
0.3438598
0.3627514
0.3812423
0.3988228
0.4156205
0.4319922
0.4482299
0.4641443
0.4795825
0.4947622
0.5096145
0.5240743
0.5380327
0.5513563
0.5638306
0.5753635
0.5858768
0.5953636
0.6038194
0.6114654
0.6181836
0.6244096
0.6272527
0.6247069
0.6222638
0.6189521
0.6143093
0.6084258
0.6014662
0.5936232
0.5850997
0.5761082
0.5668861
0.5575535
0.5481888
0.5388754
0.5296941
0.5207156
0.5119985
0.5035892
0.4955138
0.4877792
0.4803462
0.4731792
0.4662202
0.4594127
0.4527256
0.4461648
0.4397467
0.4335444
0.4274614
0.4214496
0.4155548
0.4097633
0.4040349
0.3983301
0.3926427
0.386989
0.3814249
0.3759767
0.3706527
0.3655463
0.3606971
0.3560624
0.3515823
0.3472089
0.342906
0.3386498
0.3344298
0.3302572
0.3261634
0.3221912
0.318387
0.3147839
0.3113796
0.3081356
0.3049887
0.3018696
0.2987297
0.2955586
0.2923862
0.2892782
0.2863163
0.2835636
0.2810346
0.2786764
0.2764033
0.2741333
0.2718196
0.2694651
0.2671225
0.2648732
0.2627982
0.2609435
0.2592988
0.25779
0.2563194
0.2548039
0.2532117
0.2515716
0.2499577
0.2484558
0.2471231
0.2459563
0.2448867
0.2438083
0.2426335
0.2413299
0.2399235
0.2384865
0.2371092
0.2358585
0.2347457
0.2337355
0.2327756
0.2318284
0.2309068
0.2300613
0.2293345
0.2287358
0.2282406
0.2277884
0.2273032
0.2267402
0.2261075
0.2254407
0.2247569
0.2240248
0.2231851
0.2221899
0.2210177
0.2197055
0.2183302
0.2169709
0.2156781
0.2144585
0.2132866
0.2121232
0.2109365
0.2097162
0.2084872
0.2072811
0.2061018
0.2049209
0.2036914
0.2023639
0.2009227
0.1994217
0.1979269
0.19648
0.1950742
0.1936735
0.1922381
0.1907461
0.1892068
0.1876557
0.1861315
0.1846565
0.183232
0.1818452
0.1804831
0.1791438
0.1778358
0.1765633
0.1753109
0.1740347
0.1726688
0.171157
0.1694873
0.1676949
0.1658403
0.1639828
0.1621648
0.1604091
0.1587263
0.1571241
0.1556115
0.1541928
0.1528622
0.151604
0.1503982
0.1492266
0.148076
0.146944
0.145841
0.1447824
0.1437885
0.1428805
0.1420626
0.1413236
0.1406554
0.1400531
0.1395035
0.1389915
0.1385119
0.1380685
0.1376684
0.1373167
0.1370138
0.1367553
0.1365346
0.1363481
0.1362045
0.1361302
0.136169
0.1363841
0.1368678
0.1377705
0.1393395
0.1419642
0.146227
0.1529466
0.1633298
0.1784872
0.1992806
0.2258797
0.2573584
0.2916893
0.3261817
0.3580093
0.3850071
0.4061082
0.4210744
0.4299739
0.4330724
0.4309033
0.4242027
0.4139155
0.4010587
0.3862305
0.3697755
0.3520006
0.3335439
0.314935
0.2963699
0.2778516
0.2596278
0.2421553
0.2259974
0.2116175
0.1992779
0.1889571
0.1804239
0.1733186
0.167249
0.1617799
0.1565724
0.1513553
0.1459811
0.1404238
0.1347723
0.1291869
0.1238399
0.1188664
0.1143611
0.1104201
0.1070816
0.1043171
0.1020685
0.1002436
0.09875888
0.09753893
0.09650859
0.09560581
0.09477661
0.09397011
0.09314982
0.09229583
0.09140787
0.09050021
0.08958176
0.0886649
0.0877629
0.08688741
0.08604688
0.08524581
0.08448484
0.08376152
0.08307159
0.08241053
0.08177528
0.08116574
0.08058285
0.08002886
0.07951081
0.07903211
0.07859341
0.07819532
0.07783741
0.07751758
0.077232
0.07697536
0.07674119
0.0765223
0.07631121
0.0761006
0.07588365
0.07565442
0.07540819
0.07514162
0.074853
0.07454223
0.07421083
0.07386172
0.07349898
0.07312765
0.07275345
0.07238242
0.07202106
0.07167563
0.07135263
0.07105801
0.07079797
0.07057872
0.0704066
0.07029041
0.07023895
0.07026393
0.07038168
0.07061121
0.07097308
0.07148901
0.07218007
0.07306363
0.07415104
0.07544577
0.07694056
0.07861717
0.08044738
0.08239076
0.08439095
0.08637322
0.08826074
0.08998201
0.09147676
0.09270773
0.09366038
0.09432649
0.09468899
0.09472266
0.09439673
0.09371991
0.09268779
0.09134004
0.08971268
0.08780599
0.08563163
0.08321961
0.08063134
0.07796272
0.07532641
0.07284298
0.07064385
0.06885693
0.06758642
0.06690909
0.06687527
0.06750434
0.06878868
0.07071878
0.07324201
0.07613929
0.0791609
0.08214121
0.0849133
0.08734796
0.08935456
0.09089607
0.09198505
0.09267184
0.09302603
0.09311637
0.09300045
0.09272151
0.09230424
0.09176083
0.09112043
0.09040959
0.0896458
0.08884065
0.08800176
0.08713379
0.08623884
0.08531693
0.08436607
0.08338527
0.08237446
0.08133227
0.08025853
0.07915599
0.07802828
0.07687759
0.07570725
0.07452337
0.07333307
0.07214383
0.0709634
0.0697996
0.06865998
0.06755164
0.06648102
0.06545376
0.06447457
0.0635472
0.06267433
0.06185761
0.0610976
0.06039373
0.05974446
0.05914721
0.05859788
0.05809314
0.05762921
0.05720188
0.05680675
0.05643947
0.05609593
0.05577244
0.05546588
0.05517374
0.05489418
0.05462602
0.05436865
0.054122
0.05388645
0.05366282
0.0534522
0.05325593
0.05307539
0.05291195
0.0527672
0.05264299
0.05254113
0.05246314
0.0524113
0.05238818
0.05239614
0.05243755
0.0525147
0.05262986
0.05278519
0.05298276
0.05322473
0.05351283
0.0538482
0.05423128
0.05466183
0.05513853
0.05565983
0.05622245
0.05682466
0.05746137
0.0581299
0.0588163
0.05946113
0.008939097
0.0104196
0.01155583
0.01718712
0.02368395
0.0322414
0.03931685
0.04736473
0.05612399
0.0655179
0.07588959
0.08818491
0.1017656
0.1170578
0.1355096
0.1640592
0.1793674
0.195576
0.2121356
0.2289906
0.2460526
0.2631634
0.2801564
0.2968954
0.3131974
0.3289989
0.3445164
0.361513
0.3787605
0.3964739
0.4146498
0.4327257
0.4502275
0.4670779
0.4832814
0.4985602
0.5131134
0.527136
0.540657
0.5536437
0.5660004
0.5775905
0.5882286
0.5977803
0.6061438
0.6131706
0.6188194
0.6229629
0.6257853
0.6260068
0.6243662
0.6203166
0.613522
0.6053381
0.5956391
0.5846398
0.5726903
0.5601111
0.5471953
0.5342123
0.5213923
0.5089167
0.4969092
0.4854356
0.4745308
0.4642192
0.4545264
0.4454797
0.437107
0.4294229
0.4224164
0.416022
0.410144
0.4046468
0.3994632
0.3945455
0.3898532
0.3853488
0.3808743
0.3765902
0.37256
0.3687937
0.3652211
0.3617325
0.3582263
0.3546466
0.3509955
0.3473225
0.3437085
0.3402313
0.3369568
0.3339122
0.3310657
0.3283484
0.3256862
0.3230173
0.3202986
0.3175104
0.3146649
0.311805
0.3090001
0.3063254
0.3038405
0.3015635
0.29945
0.297409
0.2953408
0.2931687
0.2908677
0.2884788
0.2861073
0.2838796
0.2818914
0.2801687
0.2786421
0.2771854
0.2756818
0.2740649
0.2723411
0.2705883
0.2689283
0.2674778
0.2663048
0.2653933
0.2646348
0.26388
0.2630125
0.2619957
0.2608821
0.2597887
0.2588484
0.2581476
0.2576672
0.2572825
0.2568281
0.2561823
0.25532
0.2543056
0.2532657
0.2523458
0.2516394
0.2511361
0.2507539
0.2504093
0.2500545
0.2497433
0.2495784
0.2496381
0.249917
0.2503173
0.2506991
0.2509477
0.2510242
0.250971
0.2508587
0.250702
0.2504194
0.2498953
0.249093
0.2479993
0.2466816
0.2452652
0.2438735
0.2425748
0.2413621
0.240172
0.2389474
0.237633
0.2362165
0.2347438
0.2332796
0.2318503
0.2304306
0.2289769
0.2274171
0.2257432
0.2240095
0.2222911
0.22063
0.2190165
0.217407
0.2157562
0.2140366
0.2122581
0.2104677
0.2087144
0.2070203
0.2053788
0.2037672
0.2021647
0.2005676
0.1989836
0.1974129
0.1958381
0.194219
0.1924847
0.1905688
0.188464
0.1862207
0.1839207
0.1816427
0.1794392
0.177334
0.1753329
0.1734388
0.1716576
0.1699927
0.168437
0.1669725
0.1655778
0.1642343
0.1629299
0.1616646
0.160451
0.1593065
0.1582506
0.1573015
0.1564579
0.1557046
0.155031
0.1544254
0.1538723
0.1533626
0.152897
0.1524849
0.1521402
0.1518776
0.1517096
0.1516455
0.1516926
0.1518615
0.1521738
0.1526683
0.1534047
0.1544724
0.1560104
0.1582418
0.1615291
0.1664282
0.1737256
0.1844518
0.2000489
0.2220653
0.2514312
0.2879097
0.3295283
0.3728701
0.4142277
0.4506661
0.4804296
0.5030341
0.5186404
0.5272838
0.5290927
0.5246042
0.5145639
0.4998254
0.4818578
0.4615679
0.4396388
0.4166605
0.3932708
0.369964
0.3470231
0.3246902
0.3031673
0.2826782
0.2634491
0.2456999
0.2296793
0.2155046
0.2031233
0.192371
0.1830264
0.1748158
0.1674659
0.160715
0.1543388
0.148186
0.1421987
0.1364001
0.1308642
0.1256822
0.1209377
0.1166902
0.1129906
0.1098812
0.1073259
0.1052654
0.1036205
0.1022923
0.1012002
0.100277
0.09945229
0.09866429
0.09786353
0.09701888
0.09611537
0.09515637
0.09414715
0.09309583
0.09201468
0.09091777
0.08981913
0.08873152
0.08766578
0.08663053
0.08563236
0.0846763
0.08376641
0.08290651
0.08210006
0.08134998
0.08066067
0.0800446
0.07950341
0.07903534
0.07863695
0.0783028
0.07802554
0.07779631
0.07760519
0.07744172
0.07729543
0.07715638
0.0770156
0.07686549
0.07670017
0.07651566
0.07631004
0.07608342
0.07583772
0.07557648
0.07530456
0.07502776
0.07475252
0.0744857
0.07423437
0.07400555
0.07380619
0.07364301
0.07352279
0.07345274
0.0734408
0.0734972
0.07363447
0.07386862
0.07422033
0.07471448
0.07537897
0.07624303
0.0773332
0.07866964
0.0802637
0.08211496
0.08420901
0.08651452
0.08899595
0.09160359
0.09426506
0.0968873
0.09936847
0.1016092
0.10353
0.1050871
0.1062709
0.1070795
0.1074933
0.1074819
0.1070226
0.1061543
0.1049088
0.1033294
0.1014642
0.0993421
0.0969842
0.0944148
0.09165742
0.08875617
0.08578063
0.08280696
0.0799208
0.07720693
0.0747364
0.07257395
0.07079535
0.06949014
0.06874874
0.06864131
0.06919599
0.07038006
0.07212189
0.07432221
0.07683301
0.07940322
0.08187832
0.08415675
0.08615465
0.0878186
0.08912962
0.09008874
0.09071815
0.09105299
0.09113352
0.0909995
0.09068614
0.09021227
0.08960611
0.08891107
0.0881584
0.08736942
0.08655745
0.08572947
0.08488795
0.08403237
0.08315912
0.08226119
0.08133531
0.0803821
0.0794024
0.07839689
0.07736598
0.07631255
0.07524109
0.07415724
0.07306757
0.07197918
0.07089935
0.06983527
0.06879378
0.06778117
0.06680308
0.06586441
0.06496926
0.06412086
0.06332154
0.0625727
0.06187474
0.0612269
0.06062845
0.06007842
0.05957488
0.05911498
0.05869524
0.05831169
0.05796014
0.0576364
0.05733651
0.05705689
0.05679452
0.05654704
0.05631275
0.05609067
0.05588045
0.05568234
0.05549707
0.05532574
0.05516964
0.05503023
0.05490915
0.0548081
0.05472885
0.0546731
0.05464251
0.0546388
0.0546638
0.05471936
0.05480738
0.05492979
0.05508853
0.05528549
0.0555225
0.05580115
0.05612268
0.05648769
0.05689638
0.05734791
0.05784144
0.05837423
0.0589451
0.05954916
0.06018452
0.06083378
0.06143971
0.002192407
0.008477007
0.01264855
0.01750339
0.02293891
0.0291833
0.03634311
0.04424282
0.05313232
0.06389147
0.08019648
0.09004195
0.1007665
0.112114
0.1241327
0.1367628
0.1499479
0.1635744
0.1774618
0.1914739
0.2055871
0.2216236
0.2379904
0.2544731
0.2709444
0.2873066
0.3034602
0.3193467
0.3349977
0.3503408
0.3654602
0.3806979
0.3965032
0.4126169
0.4290171
0.4455357
0.4617391
0.4772135
0.4917616
0.5052313
0.5179016
0.530022
0.5417086
0.5529416
0.5636726
0.5737868
0.583146
0.5914678
0.5985251
0.6041991
0.6082514
0.6102074
0.6092747
0.6061139
0.6004569
0.5924355
0.5820679
0.569597
0.5555591
0.5403527
0.5243906
0.5080817
0.4917937
0.4758435
0.4604995
0.4459783
0.4324275
0.4199226
0.4084714
0.3980352
0.3885565
0.3799927
0.3723365
0.3656045
0.3598233
0.355005
0.3510239
0.3476917
0.3447801
0.3419403
0.3390403
0.3361419
0.333356
0.3307629
0.3285199
0.3266956
0.3252432
0.3240123
0.3228104
0.3214763
0.3199298
0.3181815
0.3163097
0.3144304
0.3126592
0.3110805
0.3097222
0.3085433
0.3074562
0.3063632
0.3051847
0.3038673
0.3023925
0.3007845
0.2991073
0.2974509
0.2959201
0.2945964
0.2934968
0.2925572
0.2916442
0.2906267
0.2894235
0.288025
0.2865049
0.2850081
0.2837061
0.2827182
0.2820335
0.2815227