/*--------------------------------*- C++ -*----------------------------------*\
| =========                 |                                                 |
| \\      /  F ield         | foam-extend: Open Source CFD                    |
|  \\    /   O peration     | Version:     3.1                                |
|   \\  /    A nd           | Web:         http://www.extend-project.de       |
|    \\/     M anipulation  |                                                 |
\*---------------------------------------------------------------------------*/
FoamFile
{
    version     2.0;
    format      ascii;
    class       volScalarField;
    location    "17.5";
    object      nut;
}
// * * * * * * * * * * * * * * * * * * * * * * * * * * * * * * * * * * * * * //

dimensions      [0 2 -1 0 0 0 0];

internalField   nonuniform List<scalar> 
119952
(
5.482218e-05
3.723615e-05
3.864535e-05
4.307494e-05
4.609229e-05
4.392515e-05
4.252242e-05
4.148534e-05
4.066623e-05
3.994304e-05
3.926614e-05
3.860824e-05
3.794968e-05
3.728404e-05
3.660339e-05
3.590558e-05
3.518741e-05
3.444684e-05
3.366709e-05
3.279698e-05
4.112854e-05
3.913082e-05
3.824124e-05
4.909749e-05
4.76322e-05
4.66235e-05
4.601992e-05
4.5856e-05
4.58579e-05
2.955235e-05
3.307486e-05
3.621711e-05
4.104318e-05
4.58652e-05
5.087144e-05
5.611768e-05
6.162595e-05
6.728871e-05
7.305026e-05
8.309841e-05
0.0003779848
0.0004360529
0.0005012561
0.0005703062
0.0006407417
0.0007110323
0.0007804215
0.0008486066
0.0009150625
0.001288944
0.001354128
0.001418901
0.001482718
0.001545872
0.00160883
0.001671729
0.001734446
0.001797052
0.001858214
0.001922567
0.0019844
0.002044862
0.002105156
0.002165639
0.00222653
0.002287994
0.002350141
0.00241672
0.00224257
0.00249155
0.002504442
0.002526167
0.002542805
0.002548539
0.00254533
0.002533306
0.002517393
0.002498905
0.002478516
0.002456863
0.002434547
0.002412229
0.00239053
0.002369911
0.002350659
0.002333249
0.002318995
0.002311306
0.002310929
0.002311805
0.002313418
0.002326634
0.002344377
0.002345697
0.002330548
0.002292589
0.002193182
0.002014215
0.001950923
0.001906352
0.001876262
0.001853779
0.001834793
0.001818394
0.001803893
0.001790717
0.001778495
0.00176685
0.001755369
0.00174362
0.001731222
0.001717842
0.001703218
0.001687221
0.001669916
0.001651578
0.001632661
0.001613747
0.00159548
0.001578498
0.001563343
0.001550384
0.001539791
0.001531549
0.001525494
0.001521329
0.001518643
0.001516929
0.001515614
0.00151409
0.001511775
0.001508182
0.001502985
0.001496049
0.001487431
0.001477374
0.001466277
0.001454644
0.001442995
0.001431777
0.001421288
0.001411596
0.001402377
0.001392897
0.001382268
0.00136969
0.001355404
0.00133838
0.001313475
0.001281612
0.001244638
0.001199403
0.001147821
0.001093358
0.001044589
0.001011359
0.0009994747
0.001009238
0.001034833
0.001069179
0.001107917
0.001150211
0.001200295
0.001260427
0.001332777
0.001419763
0.001524403
0.001649444
0.001795479
0.001958727
0.00212986
0.002295269
0.002440182
0.002551358
0.002616909
0.002628247
0.002569192
0.002441645
0.002267262
0.002046844
0.001776701
0.00143305
0.000954992
0.0006720486
0.0004863809
0.0005214583
0.000613519
0.0007396438
0.0008458762
0.0009349388
0.001036348
0.001113825
0.001168789
0.001210068
0.001231822
0.001237082
0.001228153
0.001101607
0.0009296373
0.0008472073
0.0007986195
0.0007617539
0.0007251275
0.0006893958
0.0006549853
0.000624294
0.0005978824
0.0005751434
0.0005562922
0.0005409489
0.0005276889
0.0005152355
0.0005031013
0.0004919697
0.0004825194
0.0004751149
0.0004697181
0.0004659601
0.0004632604
0.0004610135
0.0004587262
0.0004560845
0.0004528753
0.0004489396
0.0004442488
0.0004388938
0.0004332334
0.0004275202
0.0004218548
0.0004163679
0.0004111961
0.0004067811
0.0004078434
0.0004186738
0.000429953
0.0004405757
0.0004505966
0.0004598856
0.0004684829
0.0004764879
0.0004839974
0.0004910925
0.0004978298
0.0005042505
0.000510389
0.0005162721
0.0005219235
0.0005273659
0.0005326233
0.0005377216
0.0005426888
0.0005475548
0.0005523507
0.0005571078
0.0005618562
0.0005666242
0.0005714371
0.0005763189
0.0005812857
0.0005863502
0.0005915279
0.0005968302
0.0006022706
0.0006078712
0.0006136664
0.000619585
0.0006257235
0.0008211123
0.000837473
0.0008545875
0.0008714972
0.0008887225
0.0009063913
0.000924676
0.0009436354
0.0009633099
0.0009836741
0.001004496
0.001025417
0.00104603
0.001065869
0.001084382
0.001100874
0.001114597
0.00112474
0.001130353
0.001130554
0.001124469
0.001111148
0.001087324
0.001045721
0.0009674208
0.0008292851
0.0006714105
0.0005915192
0.0005479992
0.0005161967
0.000527026
0.0005600521
0.0006084253
0.0006710112
0.0007386581
0.0008025265
0.0008699505
0.0009262351
0.0009733449
0.001006603
0.001025672
0.001035681
0.001041563
0.001047593
0.001059862
0.00107928
0.001103124
0.001130779
0.001161612
0.001194456
0.001227773
0.001260608
0.00129259
0.001323584
0.0013531
0.001380811
0.001412264
0.001445532
0.001479203
0.001511693
0.001541695
0.001568113
0.001590107
0.001607141
0.001618976
0.001625615
0.001627235
0.001624129
0.001616703
0.001605441
0.001590862
0.001573479
0.001553802
0.001532333
0.001509561
0.001485957
0.001461969
0.001438015
0.001414471
0.001391658
0.001369842
0.001349235
0.001329993
0.001312225
0.001295994
0.00128133
0.001268227
0.001256661
0.001246588
0.001237958
0.001230716
0.001224808
0.00122017
0.001216733
0.00121442
0.001213147
0.001212833
0.001213382
0.001214712
0.00121674
0.001219383
0.001222565
0.001226209
0.001230241
0.001234588
0.001239181
0.001243961
0.001248869
0.001253845
0.001258836
0.001263791
0.001268669
0.001273443
0.001278098
0.001282648
0.001287134
0.001291618
0.001296184
0.001300942
0.00130602
0.001311563
0.001317728
0.001324681
0.001332588
0.001341614
0.001351915
0.001363635
0.001376904
0.001391834
0.001408526
0.001427063
0.001447535
0.001470051
0.001494801
0.001522136
0.001552804
0.001588699
0.001636745
0.001551609
5.333785e-05
5.736328e-05
6.718642e-05
7.864304e-05
8.994863e-05
0.0001006466
0.0001107314
0.0001202958
0.0001308481
0.0004525975
0.0006136992
0.00078277
0.0009433821
0.001088944
0.001217807
0.001331727
0.001433623
0.001526432
0.002182927
0.00228551
0.002391534
0.002495469
0.002596488
0.002693771
0.002787224
0.002876695
0.002962137
0.003042624
0.003119388
0.003192303
0.003261944
0.003330452
0.003398789
0.003466881
0.003534216
0.003600565
0.003665684
0.003712755
0.003743271
0.003778133
0.003817618
0.003861281
0.003907934
0.003956467
0.004005982
0.004055975
0.004106193
0.004157762
0.004209088
0.004260958
0.00431342
0.004365862
0.004417695
0.004468385
0.004517569
0.00456447
0.005340873
0.005381401
0.005420202
0.005458435
0.005495729
0.00553154
0.005565486
0.005597396
0.005627724
0.005656668
0.005684784
0.005713393
0.005742716
0.005772561
0.005802845
0.00583321
0.005863408
0.005894658
0.005929339
0.005960442
0.005980071
0.005997747
0.00601626
0.006029318
0.006033983
0.006031661
0.006024369
0.006011259
0.005992104
0.005968799
0.005941972
0.005912415
0.005881081
0.005849033
0.005817235
0.005786505
0.005757601
0.005731525
0.005709893
0.005692843
0.00567706
0.005663132
0.005654304
0.005645459
0.005621911
0.005585801
0.005532353
0.005455739
0.005372931
0.005309993
0.005252711
0.005198679
0.005147466
0.005097664
0.005049
0.005001425
0.004954995
0.004909805
0.004865771
0.004822577
0.00477974
0.004736689
0.004692846
0.004647702
0.004600862
0.004552087
0.004501357
0.004448978
0.004395671
0.004342576
0.004291095
0.004242609
0.004198223
0.004158632
0.004124134
0.004094704
0.004070093
0.004049893
0.004033561
0.004020428
0.004009723
0.004000658
0.003992503
0.003984646
0.003976624
0.003968113
0.003958923
0.003948898
0.003937904
0.003925733
0.003912157
0.003896843
0.003879609
0.003860188
0.003838458
0.003814217
0.0037874
0.003757639
0.003724708
0.003684712
0.003636931
0.00357977
0.003510801
0.003430169
0.003341391
0.00325185
0.003170526
0.003104877
0.003058621
0.003033283
0.003030504
0.003052362
0.003100935
0.003185463
0.003317533
0.003510775
0.003779769
0.004135523
0.004577954
0.005089481
0.005636594
0.006178137
0.00667499
0.007096999
0.007426171
0.00765767
0.007790617
0.007824538
0.007750555
0.007558669
0.00722065
0.006689118
0.005857377
0.004757364
0.003746898
0.002961238
0.002446338
0.002109398
0.001917089
0.001671102
0.001475399
0.001438343
0.001483781
0.001568649
0.001688686
0.001823615
0.001999172
0.002141313
0.002374292
0.002415413
0.002454405
0.002493446
0.002528454
0.002555629
0.002573156
0.002580707
0.00257849
0.002566287
0.002543781
0.002512073
0.002472685
0.00242584
0.002371291
0.00230917
0.002242869
0.002177724
0.002116654
0.00206146
0.002013863
0.001975053
0.001945604
0.001925584
0.001914523
0.001911676
0.001915909
0.001925984
0.001940706
0.001959055
0.001980243
0.002003667
0.002028895
0.002055695
0.002083808
0.002113136
0.002144934
0.002178589
0.002212969
0.002247518
0.002281807
0.002315493
0.002348321
0.0023801
0.002410688
0.002439976
0.002467885
0.00249436
0.002519375
0.00254293
0.002565059
0.002585826
0.002605332
0.002623706
0.002641109
0.002657724
0.002673748
0.002689387
0.002704846
0.002720321
0.002735993
0.002752023
0.002768553
0.002785709
0.002803599
0.002822327
0.002841992
0.002862732
0.002884616
0.002907193
0.003346374
0.003385485
0.003426218
0.003469086
0.003514424
0.003562635
0.003614127
0.003669172
0.003727831
0.003789885
0.00385482
0.003921831
0.003989792
0.004057137
0.004121868
0.004181646
0.004233728
0.004275099
0.004302898
0.004314186
0.004304431
0.004266125
0.004186118
0.004039764
0.003802753
0.003466501
0.00309765
0.002744197
0.002404201
0.002089763
0.001819687
0.00160857
0.001464059
0.001381203
0.001196388
0.001105699
0.001085521
0.001101334
0.001136091
0.001192233
0.001276226
0.001393826
0.001540532
0.001711006
0.001904
0.002064895
0.002176074
0.002293165
0.002414661
0.002537909
0.002660099
0.002779315
0.002894493
0.003004983
0.003109391
0.003205947
0.003294639
0.003377525
0.003454783
0.003525674
0.003589742
0.003646634
0.003696033
0.003737668
0.003771319
0.003796834
0.003814146
0.003823283
0.003824376
0.003817666
0.003803494
0.0037823
0.003754622
0.003721078
0.003682356
0.003639199
0.003592407
0.003542814
0.003491272
0.003438626
0.003385696
0.003333261
0.003282042
0.003232692
0.003185784
0.003141805
0.003101154
0.003064142
0.003030991
0.003001846
0.002976773
0.002955769
0.002938766
0.002925631
0.002916172
0.002910149
0.002907309
0.002907314
0.002909655
0.00291394
0.002919861
0.002927158
0.002935595
0.002944963
0.00295507
0.002965754
0.002976907
0.002988526
0.003000493
0.003012588
0.003024624
0.003036461
0.003048003
0.003059189
0.003070006
0.003080487
0.003090721
0.003100854
0.003111087
0.003121681
0.003132947
0.00314524
0.003158948
0.00317448
0.003192256
0.003212685
0.003236161
0.003263026
0.003293586
0.003328056
0.003366608
0.003409329
0.003456293
0.003507609
0.003563352
0.00362424
0.003691856
0.003770494
0.003849645
3.139271e-05
3.820575e-05
4.847068e-05
6.057448e-05
7.493367e-05
9.208958e-05
0.0001130001
0.0001388327
0.0001716594
0.0002289145
0.0009775608
0.001142832
0.001318071
0.001506812
0.00169946
0.001881132
0.002019459
0.00218053
0.002557208
0.004584147
0.00481344
0.004966232
0.00510013
0.005226532
0.005339404
0.005441266
0.005534187
0.005621563
0.005747082
0.005992817
0.006207126
0.006352012
0.006448452
0.006515646
0.006565062
0.006602888
0.006632757
0.006662333
0.006557434
0.006545273
0.006573733
0.006618735
0.006668084
0.006715806
0.006759296
0.006797464
0.006830114
0.006857424
0.006878956
0.006898029
0.006915697
0.006932592
0.006948976
0.006964936
0.006980309
0.006993382
0.007762151
0.007776315
0.007783484
0.007786684
0.007787563
0.007786694
0.007784675
0.007781969
0.007779308
0.007777118
0.007775215
0.007774283
0.007774862
0.007776547
0.007778994
0.007781886
0.007784899
0.007788077
0.00779184
0.007795924
0.007800527
0.007806893
0.007815118
0.007824745
0.007835274
0.007846122
0.007856855
0.007867347
0.00787762
0.00788855
0.007900993
0.007915097
0.007930899
0.007948066
0.007965908
0.007983566
0.00800048
0.008017546
0.008017593
0.008019659
0.008024148
0.008030954
0.008039427
0.008048625
0.008057572
0.008065556
0.008072368
0.008078298
0.008084291
0.008091352
0.008099945
0.008110114
0.008121613
0.008134
0.008147183
0.008161312
0.008176645
0.008191562
0.008203495
0.008212989
0.008221514
0.008227367
0.008228697
0.008225029
0.008217048
0.00820526
0.008188868
0.008166942
0.00814064
0.008110485
0.008077506
0.008043086
0.008008633
0.007975204
0.007943465
0.007913687
0.007886476
0.00786176
0.007838761
0.007817838
0.007798924
0.007776608
0.0077468
0.007707329
0.007658261
0.00759524
0.007526672
0.007464147
0.007407377
0.00735269
0.007299175
0.007245944
0.00719252
0.007139065
0.00708595
0.0070335
0.006981815
0.00693067
0.006879574
0.006827909
0.006775064
0.006720499
0.00666371
0.006604206
0.006541589
0.006475773
0.006407242
0.006337199
0.00626744
0.006199939
0.006136414
0.00607806
0.006025505
0.00597892
0.005938168
0.005902917
0.005872677
0.005846796
0.005824511
0.005805038
0.005787678
0.005771879
0.005757251
0.005743552
0.005730606
0.005718123
0.00570569
0.005692639
0.005678095
0.005661027
0.005640711
0.005616466
0.005587991
0.005555031
0.005517858
0.005476634
0.005431578
0.005381492
0.005325095
0.005261989
0.005191022
0.005112179
0.00502777
0.004942347
0.004861952
0.004792668
0.004739569
0.004707401
0.004701859
0.004729845
0.004798992
0.004921909
0.005120452
0.005415749
0.005824493
0.006348688
0.006966371
0.00763172
0.008288719
0.008891998
0.009410635
0.009829402
0.01
0.01
0.01
0.01
0.01
0.01
0.01
0.009605896
0.008936835
0.007997423
0.00692511
0.005860359
0.004907409
0.004109585
0.00350046
0.003075725
0.002803561
0.002652092
0.002592661
0.00251008
0.002363252
0.002348423
0.002398059
0.00252213
0.002470725
0.002676256
0.00290112
0.003133831
0.003356649
0.003451916
0.003544244
0.003632354
0.003714674
0.003789976
0.003857001
0.003913615
0.003957626
0.003987441
0.004001662
0.003999072
0.003979045
0.003941847
0.003888794
0.003824128
0.003753674
0.003681395
0.003610045
0.003542356
0.003480738
0.003427044
0.003382464
0.003347543
0.003322286
0.00330632
0.003299021
0.003299659
0.003307439
0.003321593
0.003341116
0.003364249
0.003392287
0.003425511
0.003462996
0.003503995
0.003547801
0.003593724
0.003641118
0.003689394
0.003738031
0.003786556
0.00383458
0.003881771
0.003927862
0.003972651
0.004016005
0.004057859
0.004098214
0.004137142
0.004174776
0.004211305
0.004246966
0.004282027
0.004316784
0.004351537
0.004386593
0.004422242
0.004458775
0.004496437
0.004535525
0.004576209
0.004618899
0.004663605
0.004711083
0.004762205
0.004807293
0.004857104
0.004912193
0.004972607
0.005038832
0.005111589
0.005191477
0.005278795
0.00537351
0.005475227
0.005583135
0.005695976
0.005812008
0.005928919
0.006043768
0.006153034
0.006252831
0.006339262
0.006408615
0.006457221
0.006480907
0.006473419
0.006423531
0.006309778
0.006108341
0.005809093
0.005432192
0.005002832
0.004526589
0.004016449
0.003503841
0.003027073
0.002623278
0.002310391
0.002084668
0.001934066
0.001846884
0.001810779
0.001742348
0.001575327
0.001491311
0.001468063
0.001492109
0.001559331
0.001670528
0.001827377
0.002026537
0.002261892
0.002522837
0.002788624
0.002991062
0.003152158
0.00331221
0.003469325
0.003621429
0.00376706
0.003904396
0.00403133
0.00414828
0.00425609
0.004355046
0.004445343
0.004527068
0.004600215
0.004664713
0.004720448
0.004767303
0.004805175
0.004834011
0.004853821
0.004864684
0.004866756
0.004860297
0.004845665
0.0048233
0.004793722
0.00475755
0.004715499
0.004668362
0.004616992
0.004562291
0.00450519
0.004446634
0.004387565
0.004328902
0.004271523
0.00421625
0.004163834
0.004114941
0.004070139
0.004029897
0.003994577
0.003964436
0.003939626
0.003920208
0.003905714
0.003895485
0.003889111
0.003886502
0.003887478
0.003891786
0.003899127
0.003909176
0.003921588
0.003936003
0.00395204
0.00396927
0.003987149
0.004005323
0.004023611
0.004041864
0.004059984
0.004077995
0.004095938
0.004113672
0.004131126
0.004148312
0.004165328
0.004182341
0.004199593
0.004217395
0.004236121
0.004256202
0.004278109
0.004302344
0.004329419
0.004359836
0.004394076
0.004432563
0.004475655
0.004523607
0.004576634
0.004634869
0.004698598
0.004767951
0.004843592
0.004925729
0.00501556
0.005103986
3.964708e-05
6.409068e-05
0.0001432399
0.0004831605
0.0008319797
0.001490312
0.002001789
0.002622098
0.003337609
0.003925614
0.004357234
0.004703147
0.005047246
0.005399843
0.005763082
0.00613172
0.006505842
0.006884782
0.007250964
0.007592316
0.007918471
0.008214409
0.008455818
0.008661767
0.008849987
0.009021006
0.009174942
0.009312978
0.009440535
0.009568444
0.009717356
0.01
0.01
0.009805008
0.009524726
0.009275556
0.009061201
0.008885019
0.008755098
0.008655835
0.008561271
0.008509178
0.008494332
0.008506079
0.008541871
0.008599809
0.008676859
0.008769597
0.008874016
0.008998475
0.009128417
0.009243828
0.009382367
0.009534649
0.009698354
0.009884066
0.01
0.01
0.01
0.01
0.01
0.01
0.01
0.01
0.01
0.01
0.01
0.01
0.009994664
0.009968402
0.009945648
0.009925097
0.009905926
0.009887589
0.009869804
0.009852503
0.009835817
0.009819994
0.009805364
0.00979249
0.009781676
0.009772794
0.00976543
0.009759001
0.009752905
0.009746773
0.009740624
0.009734838
0.009730246
0.009727817
0.00972804
0.009730873
0.009735789
0.009741841
0.009748054
0.009753859
0.009759328
0.009765252
0.009772701
0.009782491
0.009795069
0.009810119
0.009826702
0.009843282
0.009858739
0.009872275
0.009883726
0.009894497
0.009905823
0.00991833
0.009931873
0.009945553
0.00995792
0.009967619
0.009974141
0.009978021
0.009980572
0.009983317
0.009987445
0.009993371
0.01
0.01
0.01
0.01
0.01
0.01
0.01
0.01
0.01
0.01
0.01
0.01
0.01
0.01
0.009992424
0.009967865
0.009938298
0.009903752
0.009865049
0.009823764
0.009781734
0.009740403
0.009700558
0.009662248
0.009625249
0.009589112
0.009553535
0.009518244
0.009483463
0.009447807
0.00940933
0.009366036
0.009317179
0.00926166
0.00920164
0.009141247
0.009082969
0.009026776
0.008971253
0.008915471
0.008858926
0.00880171
0.008744364
0.008687548
0.008631681
0.008576734
0.008522282
0.00846771
0.008412454
0.00835609
0.008298233
0.008238336
0.008175675
0.008109552
0.0080397
0.007966715
0.007892159
0.007818156
0.007746777
0.007679601
0.007617558
0.007561038
0.007510084
0.007464551
0.007424142
0.007388354
0.007356511
0.00732787
0.007301767
0.007277706
0.007255383
0.0072347
0.007215656
0.007198109
0.007181762
0.00716601
0.007149781
0.007131793
0.007111077
0.007086793
0.007058278
0.007025185
0.006987668
0.006946062
0.006900717
0.006851595
0.006798384
0.006740896
0.006678932
0.006612762
0.006543936
0.006475381
0.006411266
0.006356547
0.006316545
0.00629765
0.006308233
0.006359231
0.006464102
0.006639411
0.006911829
0.007301239
0.007813517
0.00842908
0.00910427
0.009785353
0.01
0.01
0.01
0.01000001
0.01000001
0.01000001
0.01
0.01
0.01
0.01
0.01
0.01
0.01000001
0.01000004
0.009724078
0.008763589
0.007743333
0.006731685
0.005810106
0.005040193
0.004444311
0.004013511
0.003723119
0.003542469
0.003443945
0.003407566
0.003418567
0.003460995
0.003461473
0.003496146
0.003632107
0.003795115
0.003893109
0.003992654
0.004093527
0.004197293
0.004304985
0.004414333
0.004522405
0.004626009
0.004722295
0.004808384
0.004881011
0.004937501
0.004975794
0.004994197
0.004991611
0.004967772
0.004923375
0.004862625
0.004791329
0.004713128
0.004631709
0.004550685
0.004473235
0.004402004
0.004339
0.00428559
0.004242578
0.004210266
0.004188575
0.004177169
0.004175418
0.004182206
0.004194981
0.004214176
0.004240349
0.004272643
0.00431022
0.00435225
0.004397916
0.004446435
0.004497048
0.004549054
0.00460182
0.004654782
0.004707444
0.004759391
0.004810314
0.004859992
0.004908304
0.004955227
0.005000839
0.005045303
0.005088863
0.005131823
0.005174534
0.005217375
0.005260745
0.005305042
0.005350638
0.005397903
0.005447219
0.005498918
0.005553395
0.005610955
0.005672121
0.005737293
0.005806541
0.005880858
0.005961174
0.006048328
0.006143292
0.006247079
0.006360532
0.006484141
0.006617955
0.006761504
0.006913693
0.007072795
0.007236449
0.007401562
0.007564236
0.007719908
0.007863839
0.007991529
0.008099049
0.00818324
0.008241208
0.008268808
0.008258797
0.008198573
0.008069096
0.007860414
0.00756987
0.007199928
0.006749373
0.006221394
0.005633282
0.005017682
0.004419182
0.003878684
0.003420282
0.003052354
0.002772318
0.002569129
0.00242768
0.002335229
0.002284313
0.002268342
0.002064072
0.001911996
0.001840398
0.001838672
0.00189858
0.002011892
0.002171334
0.002369777
0.00259674
0.002842609
0.00309838
0.003352896
0.003595922
0.003827787
0.004047956
0.004217899
0.004366382
0.004505933
0.004636766
0.004759092
0.004873065
0.004978745
0.005076095
0.005165004
0.005245298
0.005316776
0.005379229
0.005432502
0.005476493
0.00551113
0.005536423
0.00555248
0.005559471
0.005557608
0.005547212
0.005528722
0.005502672
0.005469682
0.005430454
0.005385767
0.005336466
0.005283453
0.005227679
0.005170126
0.005111792
0.005053676
0.004996755
0.004941965
0.004890179
0.004842185
0.004798669
0.00476022
0.004726857
0.004698519
0.004675394
0.004657531
0.004644883
0.004637306
0.004634577
0.004636405
0.004642447
0.00465232
0.004665611
0.004681883
0.004700687
0.004721565
0.004744084
0.004767846
0.004792483
0.004817636
0.004842892
0.004867928
0.00489273
0.004917305
0.004941701
0.004966073
0.004990544
0.00501525
0.005040409
0.005066321
0.005093359
0.00512196
0.005152608
0.005185821
0.005222058
0.005261801
0.005305574
0.00535394
0.005407478
0.005466726
0.005532075
0.005603691
0.005681616
0.005765913
0.005857009
0.005954275
0.006049175
2.225693e-05
3.602299e-05
5.435257e-05
0.0002359665
0.0003863358
0.0006542677
0.0009194281
0.00116299
0.001469909
0.001770931
0.00209794
0.002522804
0.003029407
0.003606306
0.004260663
0.005102534
0.00669508
0.00734667
0.007976055
0.008544175
0.009045158
0.009476195
0.009853946
0.01
0.01
0.01
0.01
0.01
0.01
0.01
0.01
0.01
0.01
0.01
0.01
0.01
0.01
0.01
0.01
0.01
0.01
0.009584701
0.009427064
0.009083941
0.008745754
0.008441388
0.008174754
0.007951373
0.007771004
0.007630556
0.007525463
0.007443518
0.007393446
0.007379264
0.007396566
0.007441595
0.007511861
0.00760478
0.00771668
0.007844352
0.007983611
0.008136424
0.008296574
0.008468817
0.008665945
0.008899904
0.009168556
0.009472927
0.009804118
0.01
0.01
0.01
0.01
0.01
0.01
0.01
0.01
0.01
0.01
0.01
0.01
0.01
0.01
0.01
0.01
0.01
0.01
0.01
0.01
0.01
0.01
0.01
0.01
0.01
0.01
0.01
0.01
0.01
0.01
0.01
0.01
0.01
0.01
0.01
0.01
0.01
0.01
0.01
0.01
0.01
0.01
0.01
0.01
0.01
0.01
0.01
0.01
0.01
0.01
0.01
0.01
0.01
0.01
0.01
0.01
0.01
0.01
0.01
0.01
0.01
0.01
0.01
0.01
0.01
0.01
0.01
0.01
0.01
0.01
0.01
0.01
0.01
0.01
0.01
0.01
0.01
0.01
0.01
0.01
0.01
0.01
0.01
0.01
0.01
0.01
0.01
0.01
0.01
0.01
0.01
0.01
0.01
0.01
0.01
0.01
0.01
0.01
0.01
0.009964241
0.009904756
0.009846109
0.009787419
0.009728258
0.009668874
0.009610014
0.009552402
0.009496338
0.009441653
0.009387923
0.009334775
0.009282105
0.009229977
0.009178271
0.0091264
0.009073255
0.009017494
0.00895833
0.008896206
0.008832652
0.008769599
0.008708737
0.008651183
0.008597499
0.008547903
0.008502485
0.008461252
0.008424
0.008390261
0.008359389
0.008330746
0.008303847
0.008278398
0.008254385
0.008231976
0.008211272
0.008192312
0.008174899
0.008158243
0.008141289
0.008123209
0.008103307
0.00808087
0.008055398
0.00802684
0.007995442
0.00796154
0.007925392
0.007887106
0.00784675
0.007804472
0.007760768
0.007716882
0.007675014
0.007638297
0.007611055
0.007598755
0.007608908
0.007651696
0.007740544
0.007891895
0.008122657
0.008455713
0.008901621
0.009454383
0.01
0.01
0.01
0.01
0.01
0.01
0.01000003
0.01000005
0.01000004
0.01000002
0.01000001
0.01
0.01
0.01
0.01000002
0.01000025
0.01000123
0.01000111
0.01000038
0.01000005
0.00922666
0.008252257
0.007326647
0.00650804
0.005829159
0.005296956
0.004899048
0.004615138
0.004424555
0.004309153
0.004252275
0.004241663
0.004264632
0.004311968
0.004377127
0.004455753
0.00454517
0.004643698
0.004748835
0.004858451
0.004974194
0.00509599
0.005220618
0.005344499
0.005463571
0.005574252
0.005673129
0.005756849
0.005822595
0.005868146
0.00589174
0.005892475
0.005870419
0.005827852
0.005769459
0.005698554
0.005618865
0.0055342
0.005448274
0.005364504
0.005285855
0.005214754
0.005153038
0.005101971
0.005062288
0.005034229
0.005017534
0.005011171
0.005012775
0.005022711
0.005041296
0.005067623
0.005100745
0.005139685
0.005183455
0.005231078
0.005281612
0.005334172
0.005387946
0.005442217
0.005496355
0.00554986
0.005602341
0.005653561
0.005703412
0.005751919
0.005799233
0.005845618
0.005891427
0.005937081
0.005983049
0.006029842
0.006077925
0.006127797
0.006179945
0.00623484
0.00629292
0.006354646
0.006420484
0.00649095
0.006566688
0.006648373
0.006736884
0.006833331
0.00693894
0.007054964
0.007182596
0.007322791
0.007476035
0.007642193
0.007820402
0.008008906
0.008205128
0.008405842
0.008607094
0.008804042
0.008990885
0.00916242
0.009314374
0.009443343
0.009547175
0.00962456
0.009673613
0.009690292
0.009667262
0.009592425
0.009458088
0.009257469
0.008985471
0.008635739
0.008201848
0.007685479
0.007099964
0.006472557
0.005839283
0.005234581
0.004684959
0.004206663
0.003804287
0.003473718
0.003208232
0.003002246
0.002851096
0.002750413
0.002696162
0.002684165
0.002621782
0.002417847
0.002312759
0.002292372
0.002340713
0.002442607
0.002584542
0.002758347
0.00295669
0.003172075
0.00339698
0.003624382
0.00384717
0.004063571
0.004270903
0.004465042
0.004646536
0.004815884
0.004973825
0.005121163
0.005258658
0.005387283
0.005507762
0.005617505
0.005702537
0.005778683
0.005845696
0.005903404
0.005951756
0.005990741
0.006020336
0.006040602
0.006051735
0.006054019
0.006047812
0.006033551
0.00601175
0.005983001
0.005947967
0.005907383
0.005862057
0.005812861
0.005760731
0.005706651
0.005651645
0.005596749
0.00554299
0.005491359
0.005442759
0.005397757
0.005357061
0.005321241
0.005290708
0.00526572
0.005246394
0.005232718
0.005224568
0.00522173
0.005223911
0.005230756
0.005241868
0.005256817
0.005275152
0.005296422
0.005320179
0.00534599
0.005373444
0.005402148
0.005431755
0.005461986
0.005492628
0.005523523
0.005554508
0.005585594
0.005616912
0.00564863
0.005680968
0.005714199
0.00574865
0.005784701
0.005822794
0.005863501
0.005907427
0.005955182
0.006007368
0.006064572
0.006127313
0.006196089
0.006271229
0.006353107
0.006441726
0.006536784
0.006637038
0.006733529
2.032441e-05
3.129942e-05
6.207063e-05
0.0001877935
0.0003017374
0.0004786557
0.000613169
0.0007655583
0.0009449812
0.001120342
0.00132573
0.001591633
0.001895497
0.002258508
0.002731953
0.003641448
0.004072177
0.004537832
0.005029926
0.005547405
0.00609558
0.006664841
0.00723972
0.00780514
0.008344183
0.008846185
0.009329743
0.009860743
0.01
0.01
0.01
0.01
0.01
0.01
0.01
0.01
0.01
0.01
0.01
0.01
0.01
0.01
0.01
0.01
0.01
0.01
0.01
0.01
0.01
0.009612808
0.009140589
0.008687735
0.008303077
0.007891947
0.007562023
0.007291245
0.007065212
0.006883165
0.006743553
0.006642169
0.006575401
0.006539782
0.006535026
0.006563762
0.006626476
0.006722301
0.006849901
0.00700908
0.007195796
0.007407408
0.007638068
0.007885568
0.008143797
0.008428087
0.008746643
0.009105995
0.009523513
0.01
0.01
0.01
0.01
0.01
0.01
0.01
0.01
0.01
0.01
0.01
0.01
0.01
0.01
0.01
0.01
0.01
0.01
0.01
0.01
0.01
0.01
0.01
0.01
0.01
0.01
0.01
0.01
0.01
0.01
0.01
0.01
0.01
0.01
0.01
0.01
0.01
0.01
0.01
0.01
0.01
0.01
0.01
0.01
0.01
0.01
0.01
0.01
0.01
0.01
0.01
0.01
0.01
0.01
0.01
0.01
0.01
0.01
0.01
0.01
0.01
0.01
0.01
0.01
0.01
0.01
0.01
0.01
0.01
0.01
0.01
0.01
0.01
0.01
0.01
0.01
0.01
0.01
0.01
0.01
0.01
0.01
0.01
0.01
0.01
0.01
0.01
0.01
0.01
0.01
0.01
0.01
0.01
0.01
0.01
0.01
0.01
0.01
0.01
0.01
0.01
0.009956722
0.009903982
0.009853634
0.009804343
0.009754578
0.009703522
0.009651599
0.009599953
0.009549653
0.009501294
0.009455043
0.009411013
0.009369769
0.009332402
0.009299946
0.009272725
0.009249746
0.009228285
0.009204895
0.009177199
0.009145218
0.009110304
0.009074134
0.009038091
0.009003043
0.008969478
0.008937765
0.008908275
0.008881254
0.008856649
0.008834108
0.008813147
0.008793309
0.00877425
0.00875588
0.008738377
0.008721992
0.008707019
0.008693684
0.00868175
0.008670728
0.008660265
0.008649935
0.008639211
0.008627751
0.008615462
0.008602461
0.008588972
0.008575244
0.008561509
0.008547991
0.008534988
0.008523061
0.008513305
0.008507566
0.008508604
0.00852026
0.008548285
0.008600519
0.008687594
0.008823075
0.009021953
0.009297454
0.009663381
0.01
0.01
0.01
0.01
0.01
0.01
0.01
0.01000001
0.01000005
0.01000012
0.0100002
0.01000034
0.01000051
0.01000047
0.01000033
0.01000027
0.01000044
0.01000172
0.01000187
0.01000073
0.0100001
0.01
0.01
0.01
0.009472922
0.00859191
0.007788166
0.007092631
0.006517823
0.006060732
0.005710323
0.005452874
0.005273971
0.005160789
0.005100656
0.005082188
0.00509613
0.005135334
0.005194597
0.005270218
0.005359366
0.005459544
0.005567691
0.005682395
0.005804967
0.00593225
0.006060313
0.006185091
0.006302469
0.00640909
0.006501903
0.00657785
0.00663448
0.006670111
0.006683892
0.006675754
0.006647808
0.006602735
0.006543286
0.006472664
0.006394339
0.006311872
0.006228746
0.006148203
0.006073109
0.006005847
0.005948262
0.005901623
0.005866606
0.005843215
0.005830579
0.00582669
0.005832648
0.005848103
0.005872147
0.005903745
0.005941783
0.005985109
0.006032576
0.006083076
0.006135575
0.006189137
0.006242951
0.006296354
0.006348819
0.006400012
0.006449768
0.006498092
0.006545147
0.006591234
0.006636768
0.006682247
0.006728235
0.006775315
0.006824064
0.006875087
0.006928956
0.006986219
0.007047402
0.00711303
0.007183663
0.007259921
0.007342562
0.007432495
0.007530832
0.007638925
0.007758293
0.007890489
0.008036915
0.008198496
0.008375406
0.00856696
0.008771465
0.008986125
0.009206914
0.00943007
0.009651369
0.009865691
0.01
0.01
0.01
0.01
0.01
0.01000001
0.01000004
0.01000009
0.0100001
0.01000008
0.01000002
0.01
0.01
0.01
0.009770605
0.009371257
0.008899117
0.008361149
0.007773767
0.007161017
0.006548743
0.005960624
0.005413789
0.004917614
0.004477117
0.004096052
0.003777123
0.003521299
0.003327777
0.00319369
0.003113759
0.003081335
0.003089744
0.003131762
0.003056624
0.002937675
0.002900647
0.002928487
0.003008295
0.003128321
0.0032775
0.003447344
0.003631948
0.003825764
0.004024791
0.004225006
0.004421354
0.004611669
0.004795103