/*--------------------------------*- C++ -*----------------------------------*\
| =========                 |                                                 |
| \\      /  F ield         | foam-extend: Open Source CFD                    |
|  \\    /   O peration     | Version:     3.1                                |
|   \\  /    A nd           | Web:         http://www.extend-project.de       |
|    \\/     M anipulation  |                                                 |
\*---------------------------------------------------------------------------*/
FoamFile
{
    version     2.0;
    format      ascii;
    class       volScalarField;
    location    "17.5";
    object      omega;
}
// * * * * * * * * * * * * * * * * * * * * * * * * * * * * * * * * * * * * * //

dimensions      [0 0 -1 0 0 0 0];

internalField   nonuniform List<scalar> 
119952
(
409.0773
522.7664
497.6941
434.5452
390.6985
394.5114
401.4261
409.9201
419.4492
429.7342
440.6361
452.0764
464.0182
476.4543
489.4082
502.9176
517.0576
531.9502
547.9042
566.2719
474.2799
472.4638
477.3147
401.1256
393.0493
388.6355
384.9658
381.5442
374.4498
194.7304
830.1403
697.0964
590.2929
512.8168
454.7483
409.8907
373.9283
344.4198
319.5975
292.0254
246.0476
213.532
190.8206
173.9641
160.7242
149.8372
140.6116
132.6293
125.6314
97.77861
93.9634
90.22144
86.57379
83.11885
79.91045
76.96102
74.26398
71.78528
69.50431
67.48288
65.55068
63.67565
61.87137
60.1405
58.47966
56.87703
55.303
53.75564
53.3158
53.0771
52.44947
51.94953
51.62007
51.40704
51.20954
51.0946
51.0366
51.02614
51.05278
51.10788
51.18279
51.26857
51.3554
51.43571
51.50204
51.53751
51.49632
51.29284
51.00342
50.74618
50.32723
49.87117
49.73574
49.79592
50.11415
51.08211
53.58068
57.28952
58.10583
58.64311
58.83694
58.91419
58.95474
58.97026
58.97635
58.98229
58.99411
59.01967
59.06808
59.14835
59.2684
59.43551
59.65559
59.93174
60.26188
60.63654
61.03832
61.44301
61.82316
62.15299
62.41291
62.59146
62.68462
62.69383
62.62444
62.48521
62.28839
62.04952
61.78676
61.51953
61.26682
61.04563
60.86998
60.75043
60.69376
60.70238
60.77426
60.90259
61.07688
61.28412
61.51084
61.7467
61.98875
62.24818
62.53799
62.86821
63.21646
63.69529
64.63237
65.79461
67.28729
69.26942
71.77596
74.74229
77.77316
80.26711
81.7474
82.046
81.40649
79.99034
77.95917
75.42684
72.40326
69.10258
65.74079
62.5191
59.59553
57.08693
55.06485
53.55846
52.55697
52.01675
51.88417
52.11409
52.72152
53.74977
55.50611
58.2334
61.98884
67.33641
75.50535
90.57341
125.3136
169.0868
206.6714
220.0922
214.3744
190.1579
158.0407
130.318
109.6819
95.05325
84.77633
77.55975
72.39378
68.45867
65.36218
68.11736
72.45693
73.94974
74.39744
74.6442
75.30385
76.29805
77.61312
79.11174
80.75233
82.51596
84.297
86.028
87.73594
89.45467
91.20412
92.91237
94.47133
95.79176
96.81684
97.52869
97.94752
98.11918
98.10212
97.95273
97.7258
97.47683
97.25107
97.09748
97.01342
97.00064
97.07192
97.22415
97.43957
97.61544
96.56828
94.62411
92.98008
91.4883
90.1038
88.80383
87.57462
86.4098
85.30323
84.24988
83.24576
82.28733
81.37038
80.49103
79.64546
78.82981
78.04027
77.27328
76.52557
75.79428
75.07703
74.37199
73.67785
72.99385
72.31971
71.65548
71.00176
70.35936
69.72862
69.11005
68.50364
67.90784
67.32155
66.75515
66.17849
52.49886
51.66974
50.74479
49.69266
48.61734
47.57791
46.60729
45.71924
44.9191
44.20364
43.5716
43.0226
42.55555
42.17006
41.86702
41.65008
41.5257
41.50613
41.61066
41.8692
42.31652
43.01766
44.12897
46.1399
50.39136
59.72323
73.96192
85.42437
93.6373
101.6836
107.6909
109.8751
107.8698
101.7496
93.0205
83.67365
74.77018
66.76966
60.06824
54.74544
50.47283
47.0134
44.23008
42.00868
40.18735
38.67562
37.41335
36.32834
35.36813
34.51021
33.74801
33.07208
32.46998
31.96473
31.53664
31.02157
30.48689
29.9379
29.40185
28.90226
28.4543
28.06555
27.73678
27.46434
27.24243
27.06479
26.9256
26.81976
26.74264
26.6901
26.65854
26.64489
26.64644
26.66067
26.6851
26.71709
26.75382
26.79231
26.82949
26.86233
26.88787
26.90339
26.90646
26.89506
26.86762
26.82307
26.76086
26.68094
26.58373
26.46999
26.34079
26.19738
26.04117
25.87367
25.69644
25.51114
25.31937
25.12252
24.92217
24.71966
24.51615
24.31272
24.11034
23.90987
23.71208
23.51766
23.32721
23.14134
22.96063
22.78565
22.61701
22.4554
22.30147
22.15587
22.01916
21.89182
21.77426
21.66677
21.56949
21.48238
21.40521
21.33754
21.27873
21.22794
21.1841
21.14602
21.11231
21.08147
21.05183
21.02166
20.98906
20.95187
20.90732
20.85128
20.77622
20.66508
20.48195
20.19128
20.29795
758.2899
626.6665
560.7773
514.5863
475.669
441.3226
410.8178
383.7471
358.646
298.6626
235.9813
199.1035
175.9572
160.3639
149.1304
140.4985
133.4905
127.5398
100.8694
96.35086
92.00044
87.91907
84.19529
80.85939
77.88848
75.24223
72.87397
70.72445
68.83536
67.07159
65.33347
63.6318
61.98261
60.40197
58.89933
57.47599
56.1252
55.14543
54.45106
53.63356
52.73662
51.8013
50.85237
49.90782
48.97942
48.07258
47.19405
46.34441
45.5163
44.7153
43.94185
43.19445
42.47352
41.77961
41.1126
40.48244
36.29058
35.80032
35.33475
34.89264
34.47193
34.06976
33.68336
33.30942
32.94478
32.58466
32.22759
31.87615
31.53053
31.19009
30.85485
30.52503
30.20243
29.89591
29.62157
29.37578
29.12579
28.88698
28.6807
28.50217
28.33641
28.18035
28.03575
27.9081
27.79852
27.70107
27.6129
27.53068
27.45125
27.37222
27.29189
27.20853
27.1195
27.02179
26.91221
26.79543
26.67843
26.56889
26.4877
26.44701
26.45945
26.52121
26.64361
26.80811
26.92757
26.9774
27.03925
27.09667
27.14776
27.19717
27.24358
27.2864
27.32579
27.36274
27.39952
27.43905
27.48427
27.53785
27.60232
27.68002
27.77283
27.88131
28.00373
28.13528
28.26835
28.39379
28.503
28.58956
28.64994
28.68307
28.68964
28.67136
28.63064
28.57047
28.49431
28.40579
28.3082
28.20426
28.09609
27.98549
27.87432
27.76489
27.66023
27.56403
27.48043
27.41368
27.36747
27.34423
27.34562
27.37241
27.42409
27.49941
27.59827
27.72388
27.87884
28.08232
28.33034
28.63413
29.00751
29.44576
29.9275
30.40793
30.83145
31.14921
31.33566
31.37649
31.25655
30.97314
30.55529
30.01336
29.37114
28.67731
27.99821
27.40848
26.97311
26.72766
26.66736
26.75647
26.94179
27.16964
27.40091
27.61473
27.80919
28.01375
28.32753
28.89759
29.90307
31.69925
35.07368
40.90836
48.5206
57.45442
66.31714
75.09892
82.84826
88.44576
91.40435
91.59814
89.34551
85.11216
79.26392
72.43375
65.2816
58.59538
54.94527
48.90294
44.19265
40.58888
37.81954
35.66809
33.99253
32.69752
31.71999
31.01633
30.54763
30.2824
30.2045
30.30497
30.57762
31.02132
31.60703
32.28461
33.02099
33.78513
34.54195
35.25422
35.88442
36.39737
36.76548
36.96923
37.0025
36.86978
36.58475
36.16729
35.64112
35.0307
34.35843
33.64132
32.89338
32.13221
31.38444
30.66729
29.9815
29.32948
28.7133
28.133
27.58744
27.07473
26.59256
26.1384
25.7097
25.30394
24.91868
24.5516
24.20049
23.86326
23.53798
23.2229
22.91644
22.61724
22.32418
22.03637
21.75318
21.47419
21.19921
20.9282
20.66127
20.39861
20.14041
19.88693
19.63834
19.39513
19.15749
18.9289
17.00529
16.77093
16.55287
16.34767
16.15176
15.96336
15.78249
15.60986
15.4464
15.29313
15.15111
15.02147
14.90541
14.80422
14.71928
14.65212
14.60468
14.57947
14.5801
14.6129
14.68972
14.83334
15.09266
15.57483
16.41639
17.7507
19.44026
21.42615
23.93978
27.13549
31.05153
35.59746
40.43216
45.05036
49.06236
52.17954
54.19745
55.14953
55.14061
54.08694
51.85771
48.59584
44.75445
40.83627
37.19962
34.02083
31.33732
29.11246
27.27803
25.75966
24.49107
23.41884
22.50377
21.71981
21.03425
20.42629
19.89616
19.43157
19.01688
18.6417
18.29954
17.98591
17.69751
17.43185
17.18694
16.96123
16.75345
16.56257
16.38771
16.2282
16.0835
15.95314
15.83675
15.73397
15.64437
15.56743
15.50248
15.44872
15.40519
15.37071
15.34393
15.32331
15.30712
15.29354
15.28063
15.26644
15.24903
15.22659
15.19746
15.16024
15.1138
15.05738
14.99057
14.91331
14.82587
14.7288
14.62295
14.5095
14.39011
14.26624
14.13919
14.01013
13.88019
13.75037
13.62162
13.49476
13.37045
13.24913
13.13147
13.01828
12.91031
12.80822
12.71259
12.62386
12.54243
12.46863
12.40269
12.34475
12.29478
12.25267
12.21816
12.19083
12.17016
12.15544
12.14586
12.14045
12.13817
12.13785
12.13829
12.1382
12.13628
12.1311
12.12099
12.10395
12.07737
12.03964
11.99234
11.95024
11.91768
630.0792
556.8205
496.9406
452.9221
419.4585
393.6374
373.548
358.3291
347.4938
332.6616
189.5304
176.8878
166.0968
156.4932
148.3728
142.2975
139.7136
137.3009
128.2545
85.2708
83.5508
82.92472
82.29654
81.58964
80.87027
80.1398
79.36219
78.47673
76.99778
74.01153
71.68119
70.14088
68.99912
68.02453
67.11579
66.23183
65.35604
64.48234
64.53307
63.75358
62.64386
61.43441
60.23693
59.09468
58.0192
57.0084
56.05719
55.16585
54.30345
53.45245
52.60398
51.75577
50.91348
50.08403
49.27301
48.49282
44.73997
44.07947
43.45123
42.84719
42.26197
41.69089
41.13112
40.58118
40.04116
39.51051
38.98757
38.47481
37.97483
37.48703
37.01078
36.54553
36.0899
35.64248
35.20197
34.76646
34.33666
33.91629
33.507
33.10914
32.72291
32.34769
31.98165
31.62237
31.26714
30.91596
30.57019
30.23065
29.89921
29.57811
29.26833
28.96946
28.67882
28.3857
28.14481
27.90242
27.66179
27.42516
27.19426
26.97012
26.75248
26.53962
26.32888
26.11797
25.90636
25.69465
25.48389
25.27562
25.07123
24.87183
24.67867
24.49332
24.31769
24.15248
23.99414
23.84118
23.69956
23.57053
23.45051
23.33584
23.22556
23.1206
23.02334
22.93505
22.852
22.77122
22.69009
22.60716
22.52236
22.43636
22.34987
22.26307
22.17566
22.088
22.00307
21.92164
21.85036
21.79888
21.77226
21.7623
21.76845
21.78281
21.79045
21.77867
21.7614
21.748
21.73843
21.73123
21.72466
21.71704
21.70783
21.69786
21.68886
21.68288
21.68174
21.68688
21.69955
21.72113
21.75309
21.79636
21.85036
21.91209
21.97604
22.03536
22.08372
22.11684
22.13279
22.13155
22.11417
22.08215
22.0372
21.98131
21.91673
21.84572
21.77008
21.69086
21.60842
21.52273
21.43381
21.34228
21.2498
21.1592
21.07413
20.99909
20.93813
20.89446
20.87004
20.8666
20.88413
20.92258
20.98092
21.05902
21.15637
21.27528
21.41682
21.57952
21.76365
21.96525
22.17431
22.37621
22.55364
22.68997
22.77126
22.78476
22.72003
22.57632
22.37601
22.16154
21.96217
21.8244
21.80342
21.95016
22.2915
22.81482
23.46523
24.16743
24.8429
25.43109
25.89617
26.22572
26.42679
26.52621
26.5807
26.69296
26.95387
27.50588
28.61671
30.557
33.37956
37.07465
41.51619
46.5757
51.72212
56.28081
59.84458
62.21089
63.32547
63.2438
62.05472
59.87854
56.91728
53.38204
49.74446
45.91677
42.18203
38.70755
35.59427
32.87437
30.53971
28.56412
26.90733
25.5298
24.39858
23.48242
22.75412
22.19355
21.78304
21.50865
21.35909
21.32491
21.39809
21.56216
21.79398
22.07695
22.39798
22.7417
23.09102
23.42812
23.73545
23.99679
24.19825
24.32925
24.38316
24.3574
24.2534
24.07653
23.83746
23.55391
23.22831
22.86729
22.48144
22.08071
21.67368
21.26712
20.86609
20.47418
20.09368
19.72599
19.37166
19.03063
18.70244
18.38631
18.08126
17.78619
17.49996
17.22146
16.94962
16.68353
16.42239
16.16558
15.91266
15.66334
15.4175
15.17512
14.93632
14.70124
14.47016
14.24319
14.02073
13.80285
13.59019
13.37947
13.19552
13.01466
12.83859
12.66731
12.50119
12.34151
12.18979
12.04729
11.91511
11.79417
11.68521
11.58874
11.50507
11.4344
11.3767
11.33166
11.299
11.27883
11.27161
11.27905
11.30609
11.36191
11.46332
11.6473
11.9652
12.44727
13.09442
13.93494
15.05473
16.54739
18.4834
20.88842
23.66243
26.60775
29.53405
32.28264
34.72295
36.81622
38.59755
40.06011
41.10855
41.62815
41.5228
40.72893
39.27617
37.30814
35.04555
32.71396
30.48882
28.47238
26.69829
25.15819
23.82791
22.67711
21.67714
20.80699
20.04643
19.37738
18.78788
18.26301
17.78965
17.3584
16.96239
16.59655
16.25707
15.94107
15.64637
15.37126
15.11448
14.87504
14.65219
14.44535
14.25413
14.07826
13.91754
13.77172
13.64057
13.52383
13.42115
13.33207
13.25598
13.19209
13.13939
13.09665
13.06244
13.0351
13.01281
12.99358
12.97535
12.95603
12.9336
12.90619
12.87213
12.83005
12.77898
12.71897
12.65056
12.57412
12.48968
12.39768
12.29887
12.1942
12.0848
11.97186
11.85663
11.74037
11.6244
11.51018
11.39883
11.29112
11.18769
11.0891
10.99576
10.90805
10.82651
10.75151
10.68336
10.6222
10.56811
10.52102
10.48078
10.44713
10.41967
10.3979
10.38118
10.36877
10.35983
10.35343
10.34854
10.34408
10.33886
10.33171
10.32116
10.30616
10.28505
10.25839
10.22515
10.19073
10.15467
361.9018
263.0163
376.0469
170.6491
134.1113
99.10205
85.97368
74.96913
65.83345
61.46314
59.67334
58.71766
57.83276
57.03811
56.26371
55.56876
54.93433
54.34902
53.87773
53.54038
53.2628
53.11576
53.25757
53.5663
53.92023
54.31139
54.73579
55.19178
55.652
56.04755
56.28488
55.05419
55.57729
56.17391
56.63119
56.97264
57.19845
57.30343
57.27988
57.13621
56.88941
56.52226
56.05435
55.5122
54.9134
54.26942
53.5895
52.88164
52.15274
51.40838
50.65747
49.90446
49.14385
48.37562
47.603
46.82968
46.06142
45.30423
44.56384
43.84296
43.14026
42.45488
41.7851
41.12964
40.4891
39.86332
39.25563
38.65695
38.1146
37.58501
37.07197
36.57374
36.08812
35.61357
35.14889
34.69325
34.24587
33.80649
33.37545
32.95423
32.54433
32.14673
31.76168
31.38834
31.02458
30.66753
30.31442
29.96367
29.61562
29.27245
28.93691
28.61146
28.29759
27.99486
27.70068
27.41152
27.12452
26.83858
26.55476
26.27547
26.00423
25.74397
25.49634
25.25993
25.03201
24.80775
24.58664
24.36819
24.15395
23.94669
23.74948
23.564
23.38924
23.22174
23.05726
22.8925
22.72615
22.55905
22.39372
22.23307
22.07899
21.93204
21.7918
21.65724
21.5284
21.40689
21.29345
21.18837
21.09357
21.0094
20.9329
20.86077
20.79187
20.72699
20.66698
20.61233
20.56085
20.50911
20.45453
20.39646
20.33617
20.27586
20.21752
20.16189
20.10865
20.05699
20.00667
19.95801
19.91344
19.87634
19.84819
19.8267
19.80891
19.79125
19.76854
19.74079
19.71148
19.68448
19.66097
19.63911
19.61662
19.59182
19.56435
19.53527
19.50648
19.47985
19.45665
19.43753
19.42297
19.41383
19.41145
19.41691
19.42995
19.4481
19.46659
19.47965
19.48258
19.47301
19.45077
19.41708
19.37356
19.32171
19.26285
19.1984
19.13001
19.05926
18.98718
18.91403
18.83942
18.7626
18.68292
18.60034
18.51599
18.43203
18.35152
18.27829
18.21572
18.16601
18.13087
18.11174
18.10872
18.12123
18.14855
18.19023
18.24594
18.31563
18.39888
18.49448
18.60064
18.71442
18.83132
18.94627
19.05333
19.14565
19.2165
19.26023
19.27535
19.26906
19.26466
19.30919
19.45125
19.74579
20.24691
20.98471
21.94417
23.06113
24.23667
25.36193
26.34099
27.11608
27.66772
27.99953
28.1314
28.09568
27.93888
27.72972
27.53633
27.43875
27.54871
27.98866
28.86391
30.25566
32.20508
34.68983
37.54644
40.49667
43.23066
45.47986
47.07139
47.9424
48.11894
47.62891
46.54158
44.92433
42.8927
40.5726
38.089
35.56319
33.10322
30.79296
28.68401
26.79516
25.12894
23.68526
22.45053
21.40605
20.5323
19.81106
19.22555
18.76148
18.40654
18.15006
17.98297
17.8976
17.88804
17.94228
18.04541
18.18826
18.36111
18.55312
18.75302
18.94902
19.12944
19.2833
19.40091
19.47459
19.49925
19.47261
19.39572
19.27393
19.12074
18.93727
18.7239
18.48699
18.23285
17.96738
17.69573
17.42209
17.14976
16.88117
16.61793
16.36099
16.11082
15.8675
15.6307
15.39992
15.17451
14.95376
14.73692
14.52333
14.31237
14.10358
13.89663
13.6913
13.48754
13.28537
13.08504
12.88674
12.69078
12.49742
12.30706
12.12003
11.93664
11.75706
11.58213
11.41251
11.24892
11.09196
10.94248
10.80162
10.67068
10.55089
10.44332
10.34883
10.26798
10.20097
10.14764
10.10745
10.07934
10.06173
10.05281
10.05081
10.0543
10.06307
10.07871
10.10458
10.14719
10.21985
10.34419
10.53399
10.80127
11.17006
11.68038
12.37771
13.3059
14.49612
15.94529
17.61316
19.43539
21.32833
23.20387
25.00858
26.73611
28.39857
29.9825
31.43644
32.68116
33.62427
34.18195
34.30403
33.97328
33.21766
32.11652
30.78089
29.32546
27.84551
26.41034
25.06425
23.82967
22.71167
21.70513
20.80018
19.98563
19.25567
18.59793
18.00043
17.45393
16.95133
16.48712
16.05694
15.65729
15.28533
14.9387
14.61545
14.31396
14.03285
13.77104
13.52775
13.30238
13.09433
12.90316
12.72858
12.57035
12.42824
12.30197
12.19118
12.09537
12.0139
11.94592
11.89039
11.846
11.81122
11.78429
11.76327
11.74604
11.7304
11.71413
11.69511
11.67201
11.64369
11.60879
11.56629
11.51559
11.45642
11.38887
11.31338
11.23062
11.14152
11.04716
10.94874
10.84753
10.74482
10.64182
10.5397
10.43952
10.34228
10.24894
10.16036
10.077
9.999247
9.927354
9.861472
9.801749
9.748273
9.701016
9.659837
9.624494
9.59464
9.569818
9.54948
9.533005
9.519659
9.508547
9.498647
9.488768
9.477701
9.464257
9.447558
9.426927
9.402066
9.37267
9.33976
9.306215
321.7153
216.6589
163.7198
146.2785
119.2142
100.2449
86.4378
81.10912
75.12384
71.64185
68.62922
64.56989
60.49149
56.62731
53.09105
49.20365
43.20329
41.8123
40.79674
40.24494
40.10448
40.23158
40.47341
40.77545
41.13165
41.54247
42.02599
42.59261
43.21006
43.86408
44.55012
45.26272
45.99631
46.74916
47.51661
48.29746
49.09271
49.91222
50.77915
51.69979
52.67518
53.63033
54.24454
54.83859
55.34826
55.71198
55.918
55.96194
55.84686
55.58217
55.18276
54.67178
54.06072
53.35996
52.58471
51.7523
50.87963
49.98197
49.07266
48.16179
47.25688
46.35997
45.47307
44.59532
43.72523
42.86379
42.01607
41.18805
40.39168
39.63133
38.90899
38.22243
37.56733
36.93846
36.33083
35.74134
35.16856
34.61341
34.07608
33.55917
33.06602
32.59832
32.15336
31.727
31.3154
30.91526
30.52385
30.13913
29.76039
29.38831
29.02469
28.67228
28.33389
28.01068
27.7015
27.40299
27.11043
26.81926
26.52665
26.23221
25.93874
25.65143
25.3755
25.11408
24.86638
24.62836
24.39441
24.15965
23.92164
23.68139
23.44306
23.21246
22.99484
22.79289
22.60509
22.42666
22.25156
22.07535
21.89695
21.71911
21.54726
21.38702
21.24166
21.11031
20.9879
20.86802
20.74603
20.6204
20.49323
20.36939
20.25415
20.15048
20.05812
19.97515
19.89972
19.83231
19.77618
19.73483
19.71005
19.70117
19.70471
19.71534
19.72908
19.74482
19.76311
19.78348
19.8034
19.82136
19.83452
19.84061
19.84036
19.83686
19.83377
19.83356
19.83644
19.84069
19.84386
19.84394
19.8403
19.83456
19.82926
19.82557
19.82245
19.81727
19.8069
19.78941
19.76676
19.74238
19.71851
19.695
19.67006
19.64135
19.60743
19.56865
19.5271
19.48531
19.44503
19.40677
19.37012
19.33449
19.29991
19.2672
19.2371
19.2092
19.18107
19.14821
19.1059
19.05163
18.9858
18.91082
18.82968
18.74481
18.65765
18.56903
18.47979
18.39107
18.30399
18.21901
18.13577
18.05339
17.97078
17.88703
17.80193
17.7164
17.63215
17.55164
17.47795
17.41338
17.35888
17.31525
17.28344
17.26343
17.25445
17.25609
17.2684
17.29168
17.32618
17.37187
17.42827
17.49441
17.56889
17.6502
17.7368
17.82714
17.91921
18.01188
18.10647
18.21028
18.34034
18.52876
18.82962
19.31591
20.05109
21.07812
22.39245
23.92597
25.55564
27.13236
28.51701
29.61768
30.40617
30.8979
31.12142
31.10954
30.90042
30.53601
30.06502
29.54404
29.02831
28.58212
28.28435
28.22543
28.48388
29.10962
30.114
31.46143
33.05131
34.72587
36.30326
37.62121
38.57018
39.09394
39.17199
38.8125
38.0455
36.91296
35.49083
33.85488
32.08127
30.2468
28.4229
26.66839
25.03063
23.53859
22.19859
21.01291
19.98176
19.09785
18.34763
17.71698
17.19315
16.76414
16.41979
16.15103
15.94947
15.80827
15.72219
15.68466
15.68608
15.72009
15.77986
15.85828
15.94769
16.04004
16.12715
16.20112
16.25478
16.28225
16.2793
16.24385
16.17642
16.08064
15.96498
15.83026
15.67694
15.50893
15.33018
15.14439
14.95481
14.76407
14.57422
14.38671
14.2025
14.02208
13.84565
13.67307
13.50407
13.33817
13.17485
13.01357
12.85381
12.69512
12.53715
12.37965
12.22247
12.06556
11.90907
11.75317
11.5981
11.44418
11.29174
11.14114
10.99274
10.84689
10.70409
10.56483
10.42974
10.29976
10.17608
10.06002
9.953088
9.856907
9.773046
9.702848
9.647301
9.606875
9.581469
9.570413
9.572425
9.585478
9.606754
9.632907
9.660553
9.686905
9.710488
9.731394
9.750906
9.771531
9.798292
9.840758
9.90897
10.01222
10.1653
10.38854
10.70564
11.142
11.72113
12.45742
13.35142
14.39015
15.54826
16.79332
18.09983
19.45651
20.85544
22.27508
23.67663
25.01031
26.22943
27.28671
28.14327
28.76439
29.117
29.18257
28.96867
28.50134
27.82432
26.99091
26.05597
25.06924
24.07022
23.08769
22.14058
21.2385
20.38518
19.58685
18.84585
18.16066
17.52802
16.94406
16.4048
15.90643
15.4454
15.01842
14.62249
14.25488
13.91319
13.5953
13.2996
13.02481
12.76965
12.53306
12.31438
12.11312
11.92891
11.76147
11.61053
11.47584
11.3571
11.25389
11.16566
11.09171
11.0311
10.98268
10.94506
10.91662
10.89552
10.87972
10.86714
10.85597
10.84422
10.83003
10.81176
10.78803
10.75777
10.72023
10.67503
10.62213
10.56177
10.4945
10.4211
10.3425
10.2598
10.17412
10.08666
9.998559
9.910949
9.824868
9.741224
9.660808
9.584299
9.512249
9.445146
9.383299
9.326864
9.275903
9.23039
9.190212
9.155169
9.124965
9.099199
9.077295
9.058568
9.042243
9.027462
9.013304
8.99881
8.983059
8.965141
8.944389
8.920183
8.892737
8.861829
8.830603
164.4781
121.3279
186.1724
91.52141
78.49193
67.35823
64.12074
61.86953
59.39165
58.48028
57.24364
55.40529
53.68807
51.82972
49.60175
45.0533
44.04705
43.099
42.1747
41.27886
40.36574
39.48532
38.69713
38.03844
37.53482
37.19105
36.92667
36.66184
36.58683
36.72784
37.06615
37.54085
38.08538
38.6706
39.29084
39.96079
40.67268
41.41328
42.17542
42.95658
43.75337
44.5614
45.37341
46.18959
47.01731
47.86853
48.72664
49.60889
50.53966
51.4959
52.37897
53.12652
53.65276
54.04641
54.2336
54.2038
53.97208
53.55497
52.97248
52.24899
51.40981
50.47928
49.47812
48.42283
47.32906
46.21309
45.09169
43.98109
42.89646
41.84926
40.847
39.88988
38.97433
38.09206
37.24263
36.4277
35.64788
34.9068
34.21093
33.56261
32.96119
32.4047
31.88688
31.3988
30.93128
30.47725
30.03316
29.59891
29.17745
28.77287
28.38935
28.02941
27.69226
27.37415
27.0701
26.77504
26.48449
26.19507
25.90523
25.61572
25.32965
25.05159
24.78675
24.53859
24.30661
24.08649
23.87154
23.65465
23.43071
23.19854
22.96216
22.72915
22.50749
22.30312
22.11627
21.94131
21.77024
21.5957
21.41354
21.22461
21.03448
20.85138
20.68331
20.53487
20.40452
20.2853
20.16868
20.04846
19.92329
19.7972
19.67807
19.57423
19.48977
19.42223
19.36414
19.30745
19.24805
19.18695
19.13005
19.0863
19.06336
19.0633
19.08326
19.11987
19.17387
19.25568
19.37661
19.54198
19.74627
19.97505
20.21176
20.44487
20.66973
20.88815
21.10136
21.30363
21.48227
21.62843
21.74651
21.84006
21.9167
21.98566
22.0539
22.12326
22.19044
22.24659
22.29053
22.32006
22.33663
22.34591
22.35286
22.35857
22.35825
22.34936
22.32331
22.28625
22.24427
22.20155
22.1589
22.11399
22.06364
22.00619
21.94217
21.87434
21.80651
21.74119
21.67831
21.61588
21.55116
21.48172
21.40582
21.3218
21.22732
21.1198
20.99722
20.85812
20.70298
20.53611
20.36263
20.18821
20.01763
19.85366
19.69711
19.54773
19.40517
19.26946
19.14062
19.01814
18.90089
18.78759
18.67719
18.5691
18.46354
18.36165
18.26492
18.17506
18.09377
18.02148
17.95751
17.90142
17.85278
17.81093
17.77551
17.74682
17.72573
17.71343
17.71116
17.71996
17.74049
17.77303
17.81771
17.87482
17.945
18.02936
18.13001
18.25049
18.39909
18.59308
18.86284
19.25587
19.83896
20.70175
21.91846
23.49869
25.36976
27.38416
29.35436
31.09574
32.48632
33.4833
34.11354
34.4331
34.48513
34.30439
33.92863
33.39148
32.72007
31.96555
31.17623
30.39938
29.69047
29.11628
28.74091
28.61364
28.76111
29.18279
29.84065
30.66246
31.54785
32.38281
33.06389
33.51465
33.68829
33.56513
33.14691
32.44968
31.50869
30.36858
29.07813
27.69025
26.25808
24.83088
23.45095
22.15161
20.95846
19.88433
18.92883
18.09194
17.36964
16.75327
16.23051
15.79011
15.42271
15.11927
14.87144
14.67195
14.51533
14.39768
14.31395
14.25881
14.22769
14.21589
14.21848
14.23019
14.24549
14.25876
14.26461
14.25816
14.23547
14.19379
14.13194
14.0505
13.9523
13.84331
13.72355
13.59473
13.45936
13.31984
13.17833
13.03661
12.89604
12.75756
12.62175
12.48889
12.35896
12.23178
12.10705
11.98438
11.86332
11.74345
11.6244
11.50585
11.38754
11.26935
11.15118
11.03307
10.91515
10.79759
10.68062
10.56454
10.44967
10.33635
10.22497
10.11592
10.00975
9.9071
9.808826
9.716071
9.630273
9.553143
9.486604
9.432608
9.392934
9.368983
9.361602
9.371004
9.39669
9.437464
9.491254
9.554836
9.623783
9.693011
9.757464
9.813021
9.857409
9.890292
9.912184
9.923597
9.926008
9.923976
9.92643
9.941031
9.977755
10.04877
10.16745
10.34911
10.60946
10.9623
11.4174
11.97883
12.64471
13.40813
14.26116
15.19769
16.20998
17.2838
18.39764
19.52369
20.62677
21.66647
22.60293
23.40605
24.05449
24.53348
24.83596
24.95819
24.90118
24.67463
24.2978
23.79799
23.20331
22.54187
21.83905
21.11594
20.38879
19.66901
18.96302
18.27845
17.62456
17.00672
16.42736
15.88692
15.38444
14.91816
14.48589
14.08519
13.71338
13.36777
13.0462
12.74689
12.46824
12.20876
11.96729
11.743
11.53522
11.3435
11.16752
11.00706
10.86195
10.732
10.61701
10.51667
10.43056
10.3581
10.29854
10.25088
10.21393
10.18625
10.16619
10.15202
10.1419
10.13397
10.12641
10.11749
10.10568
10.08966
10.06836
10.04102
10.00718
9.966709
9.919735
9.866665
9.808124
9.744914
9.677964
9.608285
9.53692
9.4649
9.393206
9.322757
9.254379
9.188797
9.126617
9.068314
9.014241
8.964636
8.919625
8.879214
8.843304
8.811681
8.784025
8.759917
8.738843
8.7202
8.703305
8.687426
8.671776
8.655606
8.638119
8.618714
8.59672
8.571868
8.543675
8.51518
67.72995
50.26616
48.49779
46.05458
45.02224
43.78305
42.81113
42.00685
41.34296
40.28554
37.64059
37.55143
37.48237
37.42566
37.34816
37.23669
37.1279
37.05139
37.01763
37.01228
36.88714
36.51728
36.14851
35.78567
35.43677
35.10757
34.8231
34.60355
34.45917
34.39402
34.40079
34.47009
34.6218
34.88724
35.27884
35.78319
36.3636
36.98217
37.61949
38.29306
38.99989
39.73522
40.49828
41.28352
42.09045
42.91778
43.76696
44.62083
45.47196
46.3364
47.27657
48.1869
49.0903
49.94247
50.67651
51.24303
51.59166
51.70473
51.58611
51.23325
50.65988
49.8914
48.95709
47.88912
46.72194
45.48936
44.22014
42.93705
41.6561
40.38882
39.14471
37.93534
36.77441
35.67706
34.65802
33.72804
32.88388
32.11481
31.40467
30.73947
30.11103
29.51558
28.95342
28.42479
27.93768
27.49698
27.10198
26.74554
26.4162
26.1018
25.79288
25.48457
25.17667
24.87294
24.57934
24.30213
24.04568
23.81075
23.5943
23.39093
23.19456
22.9993
22.80034
22.59512
22.38408
22.17074
21.96171
21.76458
21.58497
21.42402
21.27668
21.13451
20.98869
20.83242
20.66352
20.48598
20.30951
20.14577
20.00221
19.87887
19.76935
19.66444
19.55572
19.4386
19.31444
19.1909
19.07936
18.98972
18.92515
18.88033
18.84457
18.80824
18.76746
18.72534
18.69063
18.67471
18.68665
18.72795
18.78839
18.85208
18.9114
18.97276
19.05318
19.17429
19.35431
19.59798
19.89184
20.21564
20.55949
20.93869
21.39878
21.96281
22.62095
23.32778
24.02898
24.68159
25.26524
25.78641
26.26811
26.72121
27.12944
27.45991
27.68663
27.81788
27.88471
27.91784
27.94309
27.97366
28.00826
28.03579
28.0387
28.01879
27.97819
27.92522
27.87223
27.82543
27.78246
27.7316
27.66789
27.5788
27.48079
27.3862
27.29965
27.21769
27.13141
27.03439
26.92637
26.81312
26.70337
26.60305
26.51198
26.42495
26.33515
26.23689
26.12616
25.99903
25.84919
25.66738
25.44457
25.17631
24.86626
24.52658
24.1744
23.82331
23.48337
23.16103
22.85928
22.57871
22.31853
22.07708
21.85192
21.63998
21.43803
21.24361
21.05584
20.87548
20.70501
20.54689
20.40292
20.27468
20.16337
20.06736
19.98251
19.90504
19.83199
19.76009
19.68679
19.61185
19.53679
19.46389
19.39631
19.33695
19.28793
19.25127
19.22885
19.22256
19.23467
19.26806
19.32666
19.41638
19.5464
19.73315
20.00607
20.41336
21.02285
21.91998
23.18823
24.88562
26.93966
29.18666
31.43209
33.4501
35.06937
36.23928
36.99195
37.40035
37.53754
37.44586
37.14837
36.6731
36.03979
35.259
34.37801
33.43153
32.45731
31.50456
30.62806
29.87951
29.29953
28.91675
28.74662
28.78213
28.9894
29.30988
29.67089
29.99766
30.2223
30.29227
30.17578
29.8593
29.34263
28.64003
27.77473
26.77603
25.67878
24.52098
23.3411
22.17511
21.05421
20.00329
19.04024
18.17604
17.41059
16.74183
16.16423
15.66931
15.24685
14.88723
14.58208
14.32297
14.10232
13.91485
13.75694
13.62584
13.51796
13.42998
13.35878
13.3012
13.25394
13.21346
13.17607
13.13805
13.09587
13.04642
12.98726
12.91682
12.83462
12.74145
12.6399
12.53374
12.42328
12.31009
12.19567
12.08137
11.96824
11.85703
11.74823
11.64202
11.53838
11.43715
11.33802
11.24067
11.14472
11.04984
10.95575
10.86222
10.76908
10.67626
10.58372
10.4915
10.39971
10.3085
10.21806
10.12865
10.04053
9.954017
9.869471
9.787297
9.708002
9.63224
9.560878
9.495064
9.436272
9.386333
9.347401
9.321779
9.311679
9.318942
9.344911
9.390373
9.455421
9.539334
9.640537
9.755972
9.880709
10.00808
10.13024
10.23964
10.33069
10.4008
10.44982
10.47792
10.48424
10.46823
10.43239
10.38471
10.33362
10.28784
10.25715
10.25151
10.28134
10.35771
10.49105
10.69061
10.9639
11.31584
11.7485
12.26151
12.85334
13.5213
14.25942
15.05664
15.89546
16.75104
17.59498
18.40076
19.14376
19.80174
20.35648
20.79281
21.10454
21.28975
21.34883
21.28658
21.11223
20.83751
20.47677
20.04637
19.56327
19.04404
18.50426
17.95846
17.41367
16.86951
16.33525
15.81862
15.32479
14.85691
14.41648
14.00367
13.61779
13.2575
12.92084
12.60623
12.31269
12.03865
11.78226
11.5422
11.31752
11.10743
10.91134
10.72884
10.55967
10.4037
10.26083
10.13104
10.0143
9.910506
9.819517
9.741058
9.674717
9.619908
9.575854
9.541548
9.515737
9.497047
9.483979
9.474956
9.468372
9.462651
9.456302
9.447971
9.436488
9.420909
9.40054
9.374953
9.343983
9.307721
9.26649
9.220808
9.171352
9.118916
9.064365
9.008591
8.952481
8.89688
8.842569
8.790237
8.740467
8.693735
8.650398
8.610695
8.574749
8.542564
8.514037
8.488958
8.46702
8.447823
8.430887
8.415653
8.401521
8.387828
8.37394
8.359161
8.34294
8.324617
8.303823
8.279959
8.255547
92.14876
38.9026
32.51258
31.19236
30.52172
30.24538
30.27062
30.47169
30.80281
31.22544
31.58204
31.75608
31.9324
32.09553
32.24766
32.38129
32.50424
32.61759
32.70833
32.75386
32.72896
32.6507
32.57383
32.50523
32.45255
32.42177
32.42547
32.47182
32.56025
32.6918
32.86759
33.09031
33.37036
33.71473
34.12987
34.60828
35.13113
35.67903
36.28704
36.95242
37.66915
38.43816
39.26134
40.10731
40.9775
41.86891
42.80624
43.73882
44.64905
45.55727
46.47478
47.34252
48.09269
48.67321
49.03251
49.14041
48.98988
48.5933
47.93781
47.05236
45.97076
44.73209
43.37799
41.95011
40.48945
39.03494
37.61759
36.25831
34.966
33.7418
32.58372
31.49237
30.48023
29.56445
28.75235
28.04341
27.42977
26.89561
26.41943
25.97572
25.5465
25.12589
24.71776
24.33199
23.98048
23.67189
23.40737
23.17896
22.9725
22.77305
22.56954
22.3571
22.13666
21.91334
21.69467
21.48874
21.30174
21.13547