/*--------------------------------*- C++ -*----------------------------------*\
| =========                 |                                                 |
| \\      /  F ield         | foam-extend: Open Source CFD                    |
|  \\    /   O peration     | Version:     3.1                                |
|   \\  /    A nd           | Web:         http://www.extend-project.de       |
|    \\/     M anipulation  |                                                 |
\*---------------------------------------------------------------------------*/
FoamFile
{
    version     2.0;
    format      ascii;
    class       surfaceScalarField;
    location    "17.5";
    object      phi;
}
// * * * * * * * * * * * * * * * * * * * * * * * * * * * * * * * * * * * * * //

dimensions      [0 3 -1 0 0 0 0];

internalField   nonuniform List<scalar> 
275122
(
-0.0004039032
0.0004095532
-4.057677e-07
-5.244261e-06
-0.000361594
0.0003447175
1.387502e-06
1.548903e-05
-0.000358781
0.0003680441
-3.888809e-07
-8.874264e-06
-0.0003992076
0.0004099605
-4.730772e-07
-1.027984e-05
-0.0004367907
0.0004399707
-5.50101e-07
-2.629937e-06
-0.0004399395
0.0004392478
-4.834099e-07
1.175145e-06
-0.0004353439
0.0004338259
-4.494555e-07
1.96747e-06
-0.0004286463
0.0004267464
-4.249934e-07
2.324926e-06
-0.0004207131
0.0004186198
-4.036795e-07
2.497043e-06
-0.0004121812
0.0004099859
-3.814136e-07
2.576709e-06
-0.0004032715
0.000400993
-3.594957e-07
2.637996e-06
-0.0003940996
0.0003917652
-3.728693e-07
2.707307e-06
-0.0003847014
0.0003823059
-3.357578e-07
2.731312e-06
-0.0003750918
0.0003726532
-3.083038e-07
2.746876e-06
-0.0003653641
0.0003629134
-2.839563e-07
2.734689e-06
-0.0003555818
0.0003531131
-2.550512e-07
2.723785e-06
-0.0003457734
0.0003433164
-2.316916e-07
2.688694e-06
-0.0003361194
0.0003337968
-2.265455e-07
2.549202e-06
-0.0003271978
0.0003253197
-2.546629e-07
2.132783e-06
-0.000321358
0.0003216697
-6.527254e-07
3.409982e-07
-0.0003561261
0.0003699806
-1.295359e-06
-1.255908e-05
-0.0003732923
0.0003729836
-2.813561e-07
5.90088e-07
-0.0003760488
0.0003780098
-1.556982e-07
-1.805283e-06
-0.0004184815
0.0004333695
3.333136e-07
-1.522132e-05
-0.0004348502
0.0004339226
6.116075e-07
3.160656e-07
-0.0004356306
0.0004361514
-2.574948e-07
-2.632854e-07
-0.0004356921
0.0004344982
-2.482332e-07
1.442177e-06
-0.0004294839
0.000425467
-2.121538e-07
4.229099e-06
-0.0004000788
0.0003737334
-2.895412e-07
2.66349e-05
-0.0001717408
0.0001763018
4.551424e-09
-4.565586e-06
-0.0002679875
0.0002817048
-7.16935e-08
-1.364561e-05
-0.0003208832
0.0003338773
7.557959e-09
-1.300163e-05
-0.000373556
0.000386992
8.588252e-09
-1.344464e-05
-0.0004276964
0.0004414361
9.674533e-09
-1.374935e-05
-0.0004833805
0.0004974949
1.122237e-08
-1.412554e-05
-0.0005406927
0.0005553173
9.532362e-09
-1.463417e-05
-0.0005995523
0.0006144346
9.318884e-09
-1.489154e-05
-0.0006593636
0.0006744493
7.739538e-09
-1.509344e-05
-0.0007197997
0.0007350008
9.074365e-09
-1.52102e-05
-0.0007801624
0.0007965843
2.357287e-07
-1.665757e-05
1.314176e-05
-0.0005408827
0.0005429997
9.872281e-10
-1.525979e-05
1.342098e-05
-0.0005494007
0.0005513742
-5.155765e-10
-1.53939e-05
1.366329e-05
-0.0005569208
0.0005586925
-8.063421e-10
-1.543414e-05
1.402307e-05
-0.0005636202
0.0005651344
-1.859408e-09
-1.553542e-05
1.442422e-05
-0.0005692494
0.0005704722
-2.498068e-09
-1.564449e-05
1.473317e-05
-0.0005738798
0.0005749076
-2.365045e-09
-1.575857e-05
1.496499e-05
-0.0005778038
0.0005786865
-3.784016e-09
-1.584391e-05
1.510244e-05
-0.0005811976
0.0005820201
-2.233802e-09
-1.592271e-05
1.557688e-05
-0.0005842559
0.0005840115
-7.25831e-10
-1.533174e-05
1.384214e-05
-0.002378294
0.002387526
4.295035e-10
-6.501157e-05
1.409388e-05
1.380254e-05
1.404035e-05
1.468708e-05
-0.002394471
0.002400147
3.76992e-10
-6.545953e-05
1.523631e-05
1.465916e-05
1.520118e-05
1.505876e-05
-0.002404732
0.002408825
2.975873e-10
-6.485706e-05
1.535184e-05
1.502805e-05
1.532508e-05
1.513317e-05
-0.002413171
0.002417396
2.393647e-10
-6.500149e-05
1.528396e-05
1.510367e-05
1.525625e-05
1.516701e-05
-0.002421391
0.002425283
2.512366e-10
-6.496391e-05
1.539932e-05
1.513675e-05
1.536856e-05
1.537982e-05
-0.00242892
0.002432222
5.058091e-11
-6.502155e-05
1.550721e-05
1.535278e-05
1.547947e-05
1.54438e-05
-0.002435532
0.002438552
1.818666e-11
-6.489619e-05
1.551778e-05
1.541888e-05
1.54956e-05
1.54244e-05
-0.002441671
0.002444457
-4.0646e-11
-6.445519e-05
1.543145e-05
1.540021e-05
1.541262e-05
1.533104e-05
-0.002447779
0.002450786
-2.881688e-10
-6.432768e-05
1.53616e-05
1.529515e-05
1.533331e-05
1.489994e-05
-0.002450286
0.002453547
-2.840148e-12
-6.291762e-05
1.494823e-05
1.487242e-05
1.493604e-05
1.552249e-05
-0.002456911
0.002458893
-6.066932e-11
-6.427602e-05
1.563425e-05
1.551418e-05
1.562314e-05
1.543849e-05
-0.002460306
0.002461409
-6.206362e-11
-6.257779e-05
1.530571e-05
1.543143e-05
1.529944e-05
1.5314e-05
-0.002462552
0.002463678
-9.782848e-11
-6.217164e-05
1.521627e-05
1.530595e-05
1.520978e-05
1.529546e-05
-0.002464748
0.002465663
-9.752139e-11
-6.19517e-05
1.522956e-05
1.528658e-05
1.522523e-05
1.531533e-05
-0.002466543
0.00246735
-1.053083e-10
-6.194648e-05
1.526389e-05
1.530023e-05
1.525932e-05
1.540802e-05
-0.002468107
0.002469037
-1.008096e-10
-6.240961e-05
1.536346e-05
1.536061e-05
1.534703e-05
1.570232e-05
-0.002469993
0.002470779
-7.784236e-11
-6.31487e-05
1.566587e-05
1.548089e-05
1.551308e-05
1.704376e-05
-0.002471152
0.002469152
-5.425915e-11
-6.479647e-05
1.732588e-05
1.608071e-05
1.634617e-05
2.168989e-05
-0.002462731
0.002447525
-4.197873e-11
-6.704708e-05
2.308117e-05
1.902594e-05
1.845619e-05
2.85091e-05
-0.002427907
0.002450056
-2.867951e-11
-5.065811e-05
2.085248e-05
-0.002471213
0.002474047
-1.515924e-11
-2.36859e-05
4.156608e-05
-0.002467088
0.002463648
4.619063e-13
-3.812652e-05
3.597599e-05
-0.002461363
0.002459667
1.231484e-11
-3.428017e-05
2.005342e-05
-0.00245741
0.002459091
1.53305e-11
-2.173469e-05
4.639073e-06
-0.002463829
0.002468643
1.24415e-11
-9.453757e-06
-9.309448e-08
-0.00247237
0.002475518
8.723979e-12
-3.05438e-06
-3.204393e-06
-0.002478769
0.002481559
5.832714e-12
4.149599e-07
-5.116453e-06
-0.002484043
0.002486202
7.843642e-13
2.957435e-06
-6.670778e-06
-0.002488161
0.002489793
-4.682865e-12
5.038668e-06
-7.866004e-06
-0.002491251
0.002492414
-6.854358e-12
6.702938e-06
-8.826147e-06
-0.002493421
0.00249416
-7.774894e-12
8.087854e-06
-9.646671e-06
-0.002494758
0.002495118
-8.431202e-12
9.286364e-06
-1.03273e-05
-0.002495348
0.002495387
1.218649e-11
1.028829e-05
-1.07724e-05
-0.002495307
0.002495075
3.835221e-11
1.100457e-05
-1.096603e-05
-0.002494762
0.002494391
1.044583e-10
1.13374e-05
-1.077333e-05
-0.002493992
0.00249362
4.49609e-11
1.114465e-05
-9.828504e-06
-0.002493312
0.002493072
2.911471e-11
1.006849e-05
-7.34322e-06
-0.002492789
0.002492433
3.674892e-11
7.698398e-06
-1.59644e-06
-0.002491894
0.002490119
-2.815931e-12
3.372168e-06
8.146515e-06
-0.002483701
0.002477992
-1.843173e-11
-2.437963e-06
1.615287e-06
-0.002478748
0.002479366
-1.423724e-11
-2.233152e-06
1.379386e-05
-0.002478553
0.002474443
-1.561221e-11
-9.683734e-06
3.72912e-05
-0.002457106
0.002438808
-1.010617e-11
-1.899303e-05
7.850587e-06
-0.002429041
0.002427539
-4.256196e-12
-6.348367e-06
-6.931458e-06
-0.002425483
0.002421252
-1.211604e-12
1.11623e-05
-1.869713e-05
-0.00241471
0.002410264
-2.05579e-12
2.314281e-05
-3.936958e-05
-0.002406774
0.002406287
-4.022292e-12
3.985643e-05
-9.030478e-05
-0.002406702
0.002432796
-4.547996e-12
6.421016e-05
-1.998756e-05
-0.002464371
0.002461859
-6.352784e-12
6.847281e-05
-1.320683e-05
-1.984631e-05
-1.292043e-05
-7.671986e-06
-0.002450892
0.002447134
-9.676623e-12
3.446681e-05
-8.064571e-06
-7.314934e-06
-7.657815e-06
-7.169486e-06
-0.002446466
0.002443652
-1.641658e-11
3.02424e-05
-6.840292e-06
-6.870166e-06
-6.547558e-06
-5.593743e-06
-0.002438542
0.002433251
-2.043739e-11
2.66943e-05
-5.354304e-06
-5.340317e-06
-5.114447e-06
-5.02723e-06
-0.002428388
0.002423993
-2.538523e-11
2.402825e-05
-4.998774e-06
-4.815044e-06
-4.791848e-06
-4.841425e-06
-0.002419887
0.002415836
-2.824455e-11
2.296577e-05
-4.800389e-06
-4.655253e-06
-4.6183e-06
-4.644906e-06
-0.002411734
0.002407627
-2.953522e-11
2.228427e-05
-4.60453e-06
-4.480803e-06
-4.446042e-06
-4.526104e-06
-0.002403502
0.002399379
-3.05864e-11
2.19097e-05
-4.507311e-06
-4.383913e-06
-4.369362e-06
-4.466637e-06
-0.002395214
0.002391021
-3.100487e-11
2.179197e-05
-4.454589e-06
-4.342944e-06
-4.334273e-06
-4.428713e-06
-0.002386777
0.002382501
-3.041101e-11
2.176318e-05
-4.421067e-06
-4.321201e-06
-4.316259e-06
-4.407942e-06
-0.002378189
0.002373845
-3.003306e-11
2.178279e-05
-4.403953e-06
-4.314628e-06
-4.313035e-06
-4.405602e-06
-0.002369473
0.002365068
-2.878646e-11
2.186951e-05
-4.406769e-06
-4.324411e-06
-4.327226e-06
-4.426506e-06
-0.002360632
0.002356152
-2.76205e-11
2.205605e-05
-4.432235e-06
-4.354987e-06
-4.36181e-06
-4.468018e-06
-0.002351633
0.002347058
-2.670108e-11
2.233996e-05
-4.477785e-06
-4.404453e-06
-4.414939e-06
-4.529905e-06
-0.002342438
0.002337751
-2.638949e-11
2.272124e-05
-4.54378e-06
-4.4729e-06
-4.487165e-06
-4.608678e-06
-0.002333008
0.002328185
-2.685008e-11
2.318781e-05
-4.625009e-06
-4.557278e-06
-4.573921e-06
-4.699496e-06
-0.002323296
0.002318312
-2.802953e-11
2.372645e-05
-4.717514e-06
-4.653344e-06
-4.671697e-06
-4.796383e-06
-0.002313246
0.00230806
-2.951976e-11
2.432501e-05
-4.814065e-06
-4.755417e-06
-4.773597e-06
-4.88994e-06
-0.002302771
0.002297335
-3.097147e-11
2.495644e-05
-4.905602e-06
-4.854325e-06
-4.87065e-06
-4.970096e-06
-0.002291774
0.002286043
-3.27684e-11
2.557526e-05
-4.981557e-06
-4.939986e-06
-4.952266e-06
-5.024429e-06
-0.002280171
0.002274125
-3.475609e-11
2.610471e-05
-5.02967e-06
-4.998726e-06
-5.005128e-06
-5.039194e-06
-0.002267943
0.002261612
-3.641953e-11
2.644335e-05
-5.03597e-06
-5.019354e-06
-5.017376e-06
-5.002414e-06
-0.002255173
0.002248643
-3.767292e-11
2.648874e-05
-4.989517e-06
-4.988794e-06
-4.977229e-06
-4.908764e-06
-0.002242052
0.002235447
-3.861951e-11
2.618258e-05
-4.886195e-06
-4.901638e-06
-4.880516e-06
-4.761629e-06
-0.002228837
0.002222292
-3.991266e-11
2.553092e-05
-4.730912e-06
-4.761042e-06
-4.731762e-06
-4.571829e-06
0.002209427
-4.238671e-11
2.459345e-05
-4.53529e-06
-4.577247e-06
-4.541988e-06
-0.002215794
-4.353672e-06
-0.002203148
0.002197049
-4.564397e-11
2.34554e-05
-4.313948e-06
-4.364007e-06
-4.325351e-06
-4.122314e-06
-0.002191067
0.002185299
-4.871532e-11
2.220413e-05
-4.082009e-06
-4.135659e-06
-4.095987e-06
-3.892092e-06
-0.002179665
0.002174269
-5.240199e-11
2.091607e-05
-3.853912e-06
-3.905772e-06
-3.867509e-06
-3.676015e-06
-0.00216902
0.002164023
-5.578079e-11
1.965636e-05
-3.642048e-06
-3.687481e-06
-3.652895e-06
-3.484e-06
-0.002159182
0.002154598
-5.869329e-11
1.847827e-05
-3.455691e-06
-3.491732e-06
-3.462551e-06
-3.323141e-06
-0.002150176
0.002146005
-6.084983e-11
1.742659e-05
-3.301397e-06
-3.326879e-06
-3.304297e-06
-3.19773e-06
-0.002141995
0.002138221
-6.214498e-11
1.653504e-05
-3.182818e-06
-3.198173e-06
-3.182589e-06
-3.108425e-06
-0.0021346
0.002131195
-6.287154e-11
1.581736e-05
-3.099835e-06
-3.106471e-06
-3.09739e-06
-3.051622e-06
-0.002127932
0.002124862
-6.366632e-11
1.526247e-05
-3.048134e-06
-3.048063e-06
-3.044234e-06
-3.020169e-06
-0.002121922
0.002119154
-6.461696e-11
1.483915e-05
-3.019911e-06
-3.015588e-06
-3.015015e-06
-3.005188e-06
-0.002116507
0.002114012
-6.614248e-11
1.45068e-05
-3.006053e-06
-3.000123e-06
-3.000809e-06
-2.998392e-06
-0.00211163
0.002109384
-6.76312e-11
1.422931e-05
-2.99836e-06
-2.993416e-06
-2.993366e-06
-2.991409e-06
-0.002107241
0.00210522
-6.818487e-11
1.397505e-05
-2.989599e-06
-2.987004e-06
-2.985687e-06
-2.97794e-06
-0.00210329
0.002101457
-6.726227e-11
1.373457e-05
-2.975508e-06
-2.975091e-06
-2.973133e-06
-2.958437e-06
-0.002099692
0.002097995
-6.479512e-11
1.351693e-05
-2.951394e-06
-2.958114e-06
-2.951405e-06
-2.932751e-06
-0.002096336
0.002094697
-6.089788e-11
1.335957e-05
-2.924694e-06
-2.93484e-06
-2.927589e-06
-2.909937e-06
-0.002093048
0.002091354
-5.588886e-11
1.332434e-05
-2.90015e-06
-2.914795e-06
-2.905881e-06
-2.896891e-06
-0.002089596
0.002087712
-5.171532e-11
1.346092e-05
-2.886004e-06
-2.902573e-06
-2.891223e-06
-2.907476e-06
-0.002085708
0.002083506
-4.880117e-11
1.38375e-05
-2.902585e-06
-2.916494e-06
-2.909618e-06
-2.960108e-06
-0.002081126
0.002078485
-4.713413e-11
1.449682e-05
-2.964014e-06
-2.964643e-06
-2.966763e-06
-3.080523e-06
-0.002075639
0.002072522
-4.929145e-11
1.545211e-05
-3.086363e-06
-3.081481e-06
-3.086694e-06
-3.249378e-06
-0.00206919
0.002065566
-4.523312e-11
1.663008e-05
-3.254635e-06
-3.248124e-06
-3.253724e-06
-3.422654e-06
-0.002061745
0.002057546
-8.511886e-11
1.781675e-05
-3.390433e-06
-3.419313e-06
-3.384885e-06
-3.451654e-06
-0.002052922
0.002046828
-4.971576e-11
1.908596e-05
-3.050855e-06
-3.443541e-06
-3.045819e-06
-3.233188e-06
-0.002040234
0.00203295
-6.351601e-11
2.014482e-05
-3.211778e-06
-3.21998e-06
-3.19561e-06
-4.660831e-06
-0.002027935
0.002022548
-6.288689e-11
2.446037e-05
-4.885832e-06
-4.650071e-06
-4.876097e-06
-4.917063e-06
-0.002015622
0.002007791
-6.239191e-11
2.728797e-05
-4.829383e-06
-4.899575e-06
-4.810672e-06
-5.225876e-06
-0.001999974
0.001992418
-5.336341e-11
2.875518e-05
-5.406552e-06
-5.198073e-06
-5.368376e-06
-5.941481e-06
-0.001984416
0.00197586
-4.122621e-11
3.234898e-05
-6.003553e-06
-5.894641e-06
-5.953361e-06
-6.502037e-06
-0.001967205
0.001958545
-3.6115e-11
3.488672e-05
-6.680452e-06
-6.435206e-06
-6.608506e-06
-7.136181e-06
-0.00194977
0.001941036
-3.017331e-11
3.733412e-05
-7.218951e-06
-7.081164e-06
-7.163611e-06
-7.407088e-06
-0.001932416
0.001923848
-2.80687e-11
3.813441e-05
-7.397414e-06
-7.382699e-06
-7.378755e-06
-6.830841e-06
-0.001915254
0.001906633
-1.38781e-11
3.565347e-05
-6.660247e-06
-6.849777e-06
-6.692124e-06
-5.431851e-06
-0.001897734
0.001888805
-1.207949e-11
3.022864e-05
-5.16768e-06
-5.480026e-06
-5.219537e-06
-3.523381e-06
-0.001879609
0.001870518
2.605259e-12
2.265052e-05
-3.213564e-06
-3.567692e-06
-3.254441e-06
-1.957776e-06
-0.001861592
0.001853503
2.008623e-11
1.555857e-05
-1.757003e-06
-1.979313e-06
-1.775313e-06
-8.55056e-07
-0.001846079
0.001839862
3.936819e-11
9.392576e-06
-7.184842e-07
-8.700831e-07
-7.316516e-07
-8.45939e-08
-0.001834663
0.001831192
5.543652e-11
3.70314e-06
-2.827219e-08
-8.985559e-08
-2.935346e-08
5.95492e-07
-0.001829113
0.001828764
5.731252e-11
-2.191477e-06
6.934425e-07
5.801568e-07
6.715315e-07
1.376005e-06
-0.001829706
0.001832624
4.734644e-11
-8.599493e-06
1.490983e-06
1.348551e-06
1.466315e-06
2.124891e-06
-0.001836843
0.001843161
3.737433e-11
-1.498658e-05
2.218932e-06
2.114174e-06
2.210994e-06
2.732525e-06
-0.001850809
0.00186062
3.286851e-11
-2.08705e-05
2.79446e-06
2.734141e-06
2.798557e-06
3.208656e-06
-0.001871723
0.001884946
3.240672e-11
-2.617075e-05
3.256686e-06
3.216911e-06
3.265514e-06
3.629062e-06
-0.00189932
0.00191566
2.873566e-11
-3.09583e-05
3.674781e-06
3.634923e-06
3.679663e-06
3.998615e-06
-0.001932965
0.001952056
2.348309e-11
-3.516563e-05
4.035842e-06
4.001311e-06
4.038446e-06
4.295155e-06
-0.001971981
0.001993485
1.637019e-11
-3.874868e-05
4.324316e-06
4.29786e-06
4.327149e-06
4.498286e-06
-0.002015714
0.002039143
1.09831e-11
-4.146719e-05
4.518588e-06
4.500705e-06
4.520948e-06
4.560344e-06
-0.002063102
0.002087698
4.598598e-12
-4.283479e-05
4.557e-06
4.562597e-06
4.559428e-06
4.409582e-06
-0.002112582
0.002137446
1.578052e-13
-4.242827e-05
4.37196e-06
4.408655e-06
4.374033e-06
3.987775e-06
0.002186362
-1.248786e-12
-3.98628e-05
-0.002162277
3.901963e-06
3.982512e-06
3.905806e-06
3.244933e-06
-0.002210025
0.002232221
-1.665661e-12
-3.494429e-05
3.1284e-06
3.246914e-06
3.12744e-06
2.004492e-06
-0.002253862
0.002273652
7.020762e-12
-2.753881e-05
1.867729e-06
2.00761e-06
1.868668e-06
7.407973e-07
-0.002292299
0.002308237
2.113133e-11
-1.85721e-05
5.755102e-07
7.405575e-07
5.772918e-07
-7.478889e-07
-0.002322379
0.002333427
3.314906e-11
-7.686961e-06
-9.347477e-07
-7.476868e-07
-9.308236e-07
-2.323372e-06
-0.00234227
0.002347441
7.950156e-11
4.608326e-06
-2.566496e-06
-2.322554e-06
-2.566898e-06
-4.318124e-06
-0.00235024
0.002349159
1.017701e-10
1.898721e-05
-4.645556e-06
-4.307939e-06
-4.635123e-06
-6.933762e-06
-0.002344208
0.002333534
2.045898e-10
3.954961e-05
-7.516238e-06
-6.921728e-06
-7.503792e-06
-1.045306e-05
-0.002319379
0.002299246
6.822313e-10
6.354759e-05
-1.137055e-05
-1.036918e-05
-1.122272e-05
-1.693044e-05
-0.002271164
0.002242578
7.893231e-10
9.938737e-05
-1.908916e-05
-1.647879e-05
-1.83031e-05
-3.702351e-05
-0.002217255
0.002194945
1.666426e-09
0.0001821637
-4.37394e-05
-3.626706e-05
-4.282541e-05
-4.556862e-05
-0.002177373
0.002143621
5.508147e-10
0.0002103481
-4.301858e-05
-4.506726e-05
-4.294265e-05
-2.807703e-05
-0.002083683
0.001999829
4.352766e-10
0.0001926525
-2.512485e-05
-2.959747e-05
-2.599892e-05
-1.03359e-05
-0.001895354
0.00177259
-3.034888e-10
0.0001598195
-7.784037e-06
-1.078957e-05
-8.145212e-06
3.485495e-06
-0.001637601
0.001497589
2.461977e-09
0.0001270427
3.121935e-06
3.363226e-06
2.99601e-06
-1.960403e-06
-0.001372012
0.001269106
1.600197e-09
0.0001139091
-3.51155e-06
-1.989406e-06
-3.542993e-06
-6.309912e-06
-0.001192072
0.001134364
-3.56512e-10
8.322906e-05
-6.441537e-06
-6.319706e-06
-6.448929e-06
-5.148895e-06
-0.00109033
0.00105486
-1.212928e-09
5.566435e-05
-4.947038e-06
-5.149837e-06
-4.947129e-06
-4.172661e-06
-0.001024801
0.0009989823
-1.72297e-09
4.218456e-05
-4.011002e-06
-4.170929e-06
-4.009131e-06
-2.798921e-06
-0.0009774312
0.0009612189
-1.786131e-09
2.695795e-05
-2.574606e-06
-2.797212e-06
-2.573102e-06
-1.124818e-06
-0.0009499118
0.0009436613
-1.508024e-09
1.041761e-05
-9.59067e-07
-1.123703e-06
-9.579825e-07
4.890182e-08
-0.000941531
0.0009421994
-1.142147e-09
-9.903268e-07
1.11545e-07
5.011568e-08
1.125578e-07
4.648458e-07
-0.0009446556
0.0009486252
-8.030369e-10
-5.852584e-06
4.763041e-07
4.657721e-07
4.768736e-07
5.561192e-07
-0.0009532551
0.0009585247
-5.281559e-10
-7.535244e-06
5.765677e-07
5.571094e-07
5.764553e-07
8.140082e-07
-0.0009630661
0.000967292
-3.113112e-10
-7.867378e-06
1.006064e-06
8.155374e-07
1.006188e-06
1.401465e-06
-0.0002394909
0.0002392827
-3.098043e-10
-1.192919e-06
4.141808e-07
-0.0002393615
0.0002396446
-1.821674e-10
-6.970981e-07
2.169447e-07
-0.0002411442
0.0002417876
-1.830849e-10
-8.601637e-07
1.173671e-07
-0.0002439228
0.0002446814
-2.58012e-10
-8.757025e-07
1.670645e-09
-0.0002470176
0.0002477975
-3.59415e-10
-7.812349e-07
-2.041862e-07
-0.0002502117
0.0002510018
4.343973e-10
-5.864121e-07
-3.652451e-07
-0.0002532949
0.0002540267
2.238406e-09
-3.688256e-07
-5.397492e-07
-0.0002561262
0.0002567903
2.659438e-09
-1.269817e-07
-6.862513e-07
-0.000258698
0.0002592996
1.823134e-09
8.282375e-08
-8.025815e-07
-0.0002610252
0.0002615665
1.205908e-09
2.600761e-07
-9.03046e-07
-0.0002630899
0.0002635547
8.266683e-10
4.374026e-07
-9.778617e-07
-0.0002648403
0.0002652254
8.251522e-11
5.927399e-07
-1.026584e-06
-0.0002662878
0.0002666065
-8.026019e-10
7.086924e-07
-1.075444e-06
-0.0002674759
0.0002677283
-1.541313e-09
8.245936e-07
-1.13993e-06
-0.0002683843
0.0002685589
-1.592478e-09
9.668969e-07
-1.225098e-06
-0.0002689579
0.0002690517
-9.019501e-10
1.132264e-06
-1.302182e-06
-0.0002692189
0.0002692299
8.169553e-12
1.291161e-06
-1.350913e-06
-0.0002691497
0.0002690813
6.4092e-11
1.419198e-06
-1.3688e-06
-0.0002687789
0.0002686433
-2.560881e-10
1.504637e-06
-1.360613e-06
-0.0002681614
0.000267975
-4.925324e-10
1.54748e-06
-1.333648e-06
-0.0002673679
0.0002671501
-5.416149e-10
1.552032e-06
-1.298504e-06
-0.0002664737
0.0002662416
-4.887898e-10
1.531161e-06
-1.263082e-06
-0.000265543
0.0002653108
-4.48822e-10
1.495709e-06
-1.231449e-06
-0.0002646286
0.0002644076
-4.617561e-10
1.452884e-06
-1.203065e-06
-0.0002637708
0.0002635692
-4.841571e-10
1.405214e-06
-1.178168e-06
-0.0002629997
0.0002628241
-4.717619e-10
1.354322e-06
-1.156778e-06
-0.0002623392
0.0002621943
-4.130184e-10
1.302095e-06
-1.136178e-06
-0.0002618032
0.0002616904
-3.234059e-10
1.249291e-06
-1.121432e-06
-0.0002614098
0.0002613367
-2.8733e-10
1.194831e-06
-1.101148e-06
-0.0002611706
0.000261138
-2.439355e-10
1.133952e-06
-1.072306e-06
-0.0002611036
0.0002611176
-1.906608e-10
1.058483e-06
-1.041665e-06
-0.0002612327
0.0002613035
-1.383148e-10
9.710022e-07
-9.998172e-07
-0.0002615962
0.000261735
-8.108999e-11
8.61137e-07
-9.373111e-07
-0.0002622476
0.0002624777
-3.348782e-11
7.072243e-07
-8.043085e-07
-0.0002633208
0.0002637146
-1.739768e-12
4.105814e-07
5.782062e-07
-0.0002651204
0.0002651086
5.315661e-11
-5.664644e-07
1.355705e-06
-0.0002655954
0.0002657815
4.522483e-11
-1.541777e-06
1.445264e-06
-0.0002665667
0.0002668928
8.957646e-11
-1.771468e-06
1.557833e-06
-0.0002679686
0.0002683593
8.410597e-11
-1.94863e-06
1.644697e-06
-0.0002696138
0.0002700623
8.706625e-11
-2.093325e-06
1.712442e-06
-0.000271479
0.0002719777
1.071965e-10
-2.211249e-06
1.773995e-06
-0.0002735371
0.0002740805
1.238448e-10
-2.317526e-06
1.830527e-06
-0.000275766
0.0002763483
1.377097e-10
-2.412987e-06
1.88288e-06
-0.0002781434
0.0002787597
1.446341e-10
-2.499312e-06
1.931679e-06
-0.00028065
0.0002812956
1.346895e-10
-2.577394e-06
1.977259e-06
-0.0002832669
0.0002839373
1.311874e-10
-2.647771e-06
2.019335e-06
-0.0002859763
0.0002866674
1.436783e-10
-2.710627e-06
2.058697e-06
-0.0002887611
0.0002894689
1.459749e-10
-2.766645e-06
2.09599e-06
-0.0002916056
0.0002923259
1.50482e-10
-2.816438e-06
2.131281e-06
-0.0002944954
0.0002952246
1.470581e-10
-2.860554e-06
2.164207e-06
-0.0002974176
0.0002981529
1.49815e-10
-2.899703e-06
2.195475e-06
-0.0003003614
0.0003011007
1.546935e-10
-2.934896e-06
2.225644e-06
-0.0003033183
0.0003040596
1.522904e-10
-2.967061e-06
2.254892e-06
-0.0003062815
0.0003070235
1.512416e-10
-2.997063e-06
2.283847e-06
-0.0003092464
0.0003099882
1.562827e-10
-3.025847e-06
2.312858e-06
-0.0003122099
0.0003129511
1.563506e-10
-3.054167e-06
2.342099e-06
-0.0003151708
0.0003159111
1.527953e-10
-3.082643e-06
2.371891e-06
-0.0003181288
0.0003188685
1.580226e-10
-3.111815e-06
2.402436e-06
-0.0003210848
0.0003218242
1.668572e-10
-3.142037e-06
2.433831e-06
-0.0003240403
0.0003247798
1.701304e-10
-3.173519e-06
2.465976e-06
-0.0003269972
0.0003277372
1.570186e-10
-3.206195e-06
2.498704e-06
-0.0003299574
0.0003306986
1.552813e-10
-3.240054e-06
2.531779e-06
-0.0003329232
0.0003336663
1.684617e-10
-3.274993e-06
2.565614e-06
-0.0003358963
0.0003366417
1.738455e-10
-3.311181e-06
2.600101e-06
-0.0003388785
0.0003396267
1.679314e-10
-3.348453e-06
2.636044e-06
-0.0003418721
0.0003426241
1.731498e-10
-3.388187e-06
2.680337e-06
-0.0003448789
0.0003456332
1.725436e-10
-3.43477e-06
2.729887e-06
-0.0003478678
0.0003486221
4.850643e-11
-3.484175e-06
2.682589e-06
-0.0003508346
0.0003516435
9.158527e-10
-3.492392e-06
2.788656e-06
-0.0003540958
0.0003549347
4.134629e-10
-3.627957e-06
3.616821e-06
-0.0003549547
0.001451849
7.296622e-11
-1.680787e-05
1.367185e-06
3.618838e-06
1.337872e-06
-0.0003549583
-0.0003675347
-0.0003675346
2.149651e-06
-0.001462459
0.001470237
1.338562e-11
-1.741829e-05
2.693279e-06
2.124495e-06
2.672394e-06
2.529989e-06
-0.001477049
0.001483633
1.021364e-11
-1.701861e-05
2.706726e-06
2.510319e-06
2.68833e-06
2.667132e-06
-0.001490477
0.001497416
2.101259e-11
-1.777774e-05
2.769114e-06
2.649908e-06
2.752636e-06
2.788994e-06
-0.001504513
0.001511615
2.562986e-11
-1.84091e-05
2.880958e-06
2.77181e-06
2.86497e-06
2.953097e-06
-0.001518705
0.001525809
1.709581e-11
-1.900324e-05
3.01159e-06
2.937454e-06
2.997044e-06
3.045131e-06
-0.001533061
0.001540363
1.361722e-11
-1.954889e-05
3.092695e-06
3.030323e-06
3.078452e-06
3.155189e-06
-0.001547752
0.001555239
1.263829e-11
-2.016357e-05
3.196105e-06
3.141427e-06
3.183071e-06
3.262768e-06
-0.001562828
0.001570521
1.221675e-11
-2.078968e-05
3.298031e-06
3.25007e-06
3.285638e-06
3.367622e-06
-0.001578316
0.001586212
1.169554e-11
-2.139717e-05
3.394579e-06
3.355975e-06
3.383131e-06
3.459821e-06
-0.001594201
0.001602275
1.091925e-11
-2.193739e-05
3.482155e-06
3.449371e-06
3.471981e-06
3.536374e-06
-0.00161043
0.001618636
1.008172e-11
-2.237091e-05
3.555466e-06
3.526945e-06
3.546333e-06
3.593167e-06
-0.001626906
0.001635186
8.810434e-12
-2.266789e-05
3.609121e-06
3.584424e-06
3.600982e-06
3.626344e-06
-0.001643515
0.001651798
8.063019e-12
-2.279246e-05
3.636122e-06
3.618486e-06
3.628091e-06
3.625821e-06
-0.001660106
0.001668293
7.368087e-12
-2.268691e-05
3.631183e-06
3.618706e-06
3.624157e-06
3.582331e-06
-0.001676469
0.001684432
6.579452e-12
-2.228326e-05
3.584116e-06
3.5756e-06
3.577656e-06
3.486704e-06
-0.001692338
0.001699929
6.492222e-12
-2.151761e-05
3.483245e-06
3.480585e-06
3.476666e-06
3.328106e-06
-0.001707408
0.001714432
6.769622e-12
-2.029681e-05
3.314019e-06
3.322034e-06
3.30803e-06
3.078812e-06
-0.001721249
0.001727446
6.343664e-12
-1.845377e-05
3.055605e-06
3.07282e-06
3.049055e-06
2.716114e-06
-0.00173334
0.001738585
8.702925e-12
-1.597049e-05
2.653834e-06
2.708949e-06
2.646208e-06
2.15027e-06
-0.001743541
0.001747735
7.662143e-12
-1.262857e-05
2.073676e-06
2.143955e-06
2.067393e-06
1.523923e-06
-0.00175152
0.001754288
1.729407e-11
-8.649115e-06
1.42288e-06
1.517251e-06
1.416971e-06
6.17282e-07
-0.001756257
0.001757084
9.865401e-12
-3.022891e-06
4.850051e-07
6.13117e-07
4.798209e-07
-4.319363e-07
-0.001757108
0.001755497
4.63659e-11
3.547362e-06
-5.341944e-07
-4.345604e-07
-5.35761e-07
-2.14429e-06
-0.001751813
0.001747126
5.769964e-11
1.41342e-05
-2.571501e-06
-2.153274e-06
-2.577963e-06
-6.569033e-06
-0.001742776
0.001738981
1.596292e-10
3.258842e-05
-7.817638e-06
-6.579958e-06
-7.827372e-06
-1.365768e-05
-0.001736705
0.001735642
7.175255e-12
5.75128e-05
-1.456404e-05
-1.366081e-05
-1.456776e-05
-1.151774e-05
-0.001734062
0.001724635
-6.385924e-11
5.258123e-05
-1.00571e-05
-1.152212e-05
-1.005773e-05
-5.195165e-06
-0.001705299
0.001681537
-5.515838e-12
4.323891e-05
-4.542196e-06
-5.196491e-06
-4.542568e-06
-4.180376e-06
-0.001654361
0.001624168
1.237826e-10
4.690068e-05
-4.178885e-06
-4.175378e-06
-4.173753e-06
-3.892079e-06
-0.001590331
0.001552105
2.363778e-10
5.333909e-05
-3.66654e-06
-3.890035e-06
-3.664791e-06
-2.590457e-06
-0.00150869
0.001460756
3.663865e-10
5.795324e-05
-2.420398e-06
-2.589167e-06
-2.419268e-06
-2.382803e-06
-0.001409711
0.001357758
4.380812e-10
6.171231e-05
-2.49729e-06
-2.382281e-06
-2.496924e-06
-3.696608e-06
-0.001307987
0.001262904
4.897203e-10
6.052133e-05
-4.026128e-06
-3.693129e-06
-4.022478e-06
-4.154496e-06
-0.001223091
0.001187557
5.29943e-10
5.208467e-05
-4.123479e-06
-4.152366e-06
-4.121135e-06
-3.764814e-06
-0.001155625
0.001126252
4.318087e-10
4.438019e-05
-3.740989e-06
-3.763078e-06
-3.739255e-06
-3.448823e-06
-0.001099092
0.001073886
1.234165e-10
3.882119e-05
-3.359484e-06
-3.447693e-06
-3.358495e-06
-2.329086e-06
-0.001051304
0.001032056
-2.308124e-10
2.809895e-05
-2.096584e-06
-2.328549e-06
-2.096053e-06
-6.245318e-07
-0.001016559
0.001005132
-4.825522e-10
1.357024e-05
-4.469034e-07
-6.244685e-07
-4.468302e-07
6.519229e-07
-0.0009970844
0.0009912368
-6.063167e-10
3.027674e-06
7.58159e-07
6.52029e-07
7.583359e-07
1.040139e-06
-0.0009870428
0.0009831187
-6.063643e-10
-1.700316e-07
1.007155e-06
1.040191e-06
1.007198e-06
7.04063e-07
-0.0009792398
0.0009746969
-5.191674e-10
1.8714e-06
6.319972e-07
7.040711e-07
6.319293e-07
1.640997e-07
-0.0009694707
0.0009635468
-3.897187e-10
5.410014e-06
9.29813e-08
1.641373e-07
9.297069e-08
-2.931435e-07
-0.0009568862
0.0009496738
-2.71535e-10
8.473706e-06
-3.374753e-07
-2.930555e-07
-3.373768e-07
-5.895105e-07
-0.0009421223
0.0009344106
-1.825414e-10
1.011549e-05
-6.124477e-07
-5.893376e-07
-6.122642e-07
-7.829181e-07
-0.0009267326
0.0009192176
-1.229902e-10
1.078811e-05
-8.536235e-07
-7.828519e-07
-8.53588e-07
-9.627086e-07
-0.0009119481
0.0009048226
-8.384038e-11
1.09728e-05
-9.609928e-07
-9.625807e-07
-9.608923e-07
-9.649309e-07
-0.0008978789
0.000891215
-5.815235e-11
1.05054e-05
-9.559208e-07
-9.647723e-07
-9.557565e-07
-8.684454e-07
-0.0008847389
0.0008786044
-4.106037e-11
9.568765e-06
-8.487969e-07
-8.682946e-07
-8.486405e-07
-7.135003e-07
-0.0008726925
0.0008671819
-2.908698e-11
8.315719e-06
-6.891349e-07
-7.133767e-07
-6.890019e-07
-5.460831e-07
-0.0008619298
0.0008571059
-2.050785e-11
6.963857e-06
-5.23948e-07
-5.460087e-07
-5.238661e-07
-3.872304e-07
-0.0008525536
0.0008483875
-1.408253e-11
5.671898e-06
-3.655634e-07
-3.873232e-07
-3.656176e-07
-2.481622e-07
-0.0008444895
0.000841041
-9.032198e-12
4.325972e-06
-1.90125e-07
-2.485899e-07
-1.905885e-07
-2.976736e-07
-0.000838314
0.0008364686
-5.080213e-12
2.446118e-06
-6.981889e-10
-2.995334e-07
-2.784982e-09
2.221912e-07
-0.0008343461
0.0008312021
-2.33193e-12
2.379727e-06
1.560403e-07
2.263653e-07
1.596327e-07
2.928489e-07
-0.0008289218
0.0008275872
6.390205e-13
2.665848e-07
2.367208e-07
2.97528e-07
2.408603e-07
4.915795e-07
-0.0008266503
0.0008261685
1.608709e-12
-1.477875e-06
4.844409e-07
4.956217e-07
4.880786e-07
6.581829e-07
-0.0008260356
0.0008263529
3.420658e-12
-2.98917e-06
6.752753e-07
6.607394e-07
6.776785e-07
8.743787e-07
-0.000826898
0.0008278624
6.803616e-12
-4.515028e-06
8.989261e-07
8.76438e-07
9.008773e-07
1.076218e-06
-0.0008290406
0.0008306275
8.448385e-12
-5.95238e-06
1.105192e-06
1.077576e-06
1.106471e-06
1.27166e-06
-0.0008324164
0.0008345893
9.060127e-12
-7.315336e-06
1.298641e-06
1.272574e-06
1.299517e-06
1.447505e-06
-0.0008369612
0.0008396868
9.457838e-12
-8.565126e-06
1.471691e-06
1.448097e-06
1.472251e-06
1.601272e-06
-0.0008425985
0.0008458295
8.916768e-12
-9.67846e-06
1.622153e-06
1.601613e-06
1.622457e-06
1.732403e-06
-0.0008492292
0.0008529089
8.272839e-12
-1.064463e-05
1.749924e-06
1.732544e-06
1.750035e-06
1.841357e-06
-0.0008567361
0.0008608003
8.036765e-12
-1.145821e-05
1.855645e-06
1.841336e-06
1.855601e-06
1.928664e-06
-0.0008649888
0.0008693696
7.859982e-12
-1.211744e-05
1.939832e-06
1.928521e-06
1.939677e-06
1.99473e-06
-0.0008738497
0.0008784764
7.454784e-12
-1.262098e-05
2.002649e-06
1.994499e-06
2.002401e-06
2.038659e-06
-0.0008831787
0.000887984
6.889369e-12
-1.296843e-05