/*--------------------------------*- C++ -*----------------------------------*\
| =========                 |                                                 |
| \\      /  F ield         | foam-extend: Open Source CFD                    |
|  \\    /   O peration     | Version:     3.1                                |
|   \\  /    A nd           | Web:         http://www.extend-project.de       |
|    \\/     M anipulation  |                                                 |
\*---------------------------------------------------------------------------*/
FoamFile
{
    version     2.0;
    format      ascii;
    class       volScalarField;
    location    "14";
    object      H;
}
// * * * * * * * * * * * * * * * * * * * * * * * * * * * * * * * * * * * * * //

dimensions      [0 1 0 0 0 0 0];

internalField   nonuniform List<scalar> 
2539
(
0.858567
0.857864
0.856931
0.856008
0.855085
0.854161
0.853237
0.852313
0.851389
0.850464
0.849539
0.848614
0.847689
0.846763
0.845837
0.844911
0.843985
0.843059
0.842132
0.841205
0.840278
0.839351
0.838423
0.837495
0.836567
0.835639
0.83471
0.833781
0.832852
0.831923
0.830993
0.830063
0.829133
0.828203
0.827272
0.826342
0.82541
0.824479
0.823547
0.822616
0.821683
0.820751
0.819818
0.818885
0.817952
0.817019
0.816085
0.815151
0.814217
0.813282
0.812347
0.811412
0.810477
0.809541
0.808605
0.807669
0.806732
0.805796
0.804858
0.803921
0.802983
0.802045
0.801107
0.800168
0.79923
0.79829
0.797351
0.796411
0.795471
0.794531
0.79359
0.792649
0.791707
0.790766
0.789824
0.788881
0.787939
0.786996
0.786053
0.785109
0.784165
0.783221
0.782276
0.781331
0.780386
0.779441
0.778495
0.777548
0.776602
0.775655
0.774707
0.77376
0.772812
0.771863
0.770915
0.769966
0.769016
0.768066
0.767116
0.766166
0.765215
0.764263
0.763312
0.76236
0.761407
0.760454
0.759501
0.758548
0.757594
0.756639
0.755685
0.754729
0.753774
0.752818
0.751862
0.750905
0.749948
0.74899
0.748032
0.747074
0.746115
0.745156
0.744196
0.743236
0.742275
0.741314
0.740353
0.739391
0.738429
0.737466
0.736503
0.735539
0.734575
0.733611
0.732646
0.73168
0.730714
0.729748
0.728781
0.727814
0.726846
0.725878
0.724909
0.72394
0.72297
0.722
0.721029
0.720058
0.719086
0.718113
0.717141
0.716167
0.715194
0.714219
0.713244
0.712269
0.711293
0.710316
0.709339
0.708362
0.707384
0.706405
0.705426
0.704446
0.703466
0.702485
0.701503
0.700521
0.699539
0.698555
0.697571
0.696587
0.695602
0.694616
0.69363
0.692643
0.691656
0.690668
0.689679
0.688689
0.687699
0.686709
0.685717
0.684726
0.683504
0.682148
0.681348
0.68103
0.680737
0.680446
0.680154
0.679863
0.679571
0.679279
0.678988
0.678696
0.678404
0.678112
0.67782
0.677528
0.677236
0.676944
0.676652
0.676359
0.676067
0.675774
0.675482
0.675189
0.674897
0.674604
0.674312
0.674019
0.673726
0.673433
0.67314
0.672847
0.672554
0.672261
0.671968
0.671674
0.671381
0.671088
0.670794
0.670501
0.670207
0.669914
0.66962
0.669326
0.669032
0.668738
0.668445
0.668151
0.667856
0.667562
0.667268
0.666974
0.666679
0.666385
0.666091
0.665796
0.665502
0.665207
0.664912
0.664617
0.664323
0.664028
0.663733
0.663438
0.663142
0.662847
0.662552
0.662257
0.661961
0.661666
0.66137
0.661075
0.660779
0.660483
0.660188
0.659892
0.659596
0.6593
0.659004
0.658708
0.658411
0.658115
0.657819
0.657522
0.657226
0.656929
0.656633
0.656336
0.656039
0.655743
0.655446
0.655149
0.654852
0.654555
0.654257
0.65396
0.653663
0.653365
0.653068
0.65277
0.652473
0.652175
0.651877
0.651579
0.651282
0.650984
0.650686
0.650387
0.650089
0.649791
0.649493
0.649194
0.648896
0.648597
0.648298
0.648
0.647701
0.647402
0.647103
0.646804
0.646505
0.646206
0.645906
0.645607
0.645308
0.645008
0.644709
0.644409
0.644109
0.643809
0.64351
0.64321
0.64291
0.642609
0.642309
0.642009
0.641709
0.641408
0.641108
0.640807
0.640506
0.640206
0.639905
0.639604
0.639303
0.639002
0.638701
0.638399
0.638098
0.637797
0.637495
0.637193
0.636892
0.63659
0.636288
0.635986
0.635684
0.635382
0.63508
0.634778
0.634475
0.634173
0.63387
0.633568
0.633265
0.632962
0.632659
0.632356
0.632053
0.63175
0.631447
0.631144
0.63084
0.630537
0.630233
0.62993
0.629626
0.629322
0.629018
0.628714
0.62841
0.628106
0.627801
0.627497
0.627193
0.626888
0.626583
0.626279
0.625974
0.625669
0.625364
0.625059
0.624753
0.624448
0.624143
0.623837
0.623532
0.623226
0.622926
0.622505
0.624545
0.599273
0.573651
0.545137
0.528502
0.517973
0.510456
0.504555
0.499595
0.495232
0.491275
0.487615
0.484184
0.480938
0.477845
0.474884
0.472037
0.469291
0.466635
0.46406
0.461559
0.459126
0.456754
0.45444
0.452179
0.449967
0.447802
0.44568
0.443598
0.441555
0.439548
0.437575
0.435635
0.433725
0.431844
0.429992
0.428165
0.426365
0.424588
0.422834
0.421103
0.419393
0.417704
0.416034
0.414383
0.412749
0.411134
0.409535
0.407952
0.406385
0.404832
0.403294
0.40177
0.40026
0.398762
0.397276
0.395803
0.394341
0.392889
0.391449
0.390018
0.388598
0.387186
0.385783
0.384389
0.383003
0.381624
0.380252
0.378887
0.377528
0.376174
0.374826
0.373482
0.372142
0.370805
0.369471
0.368139
0.366807
0.365476
0.364143
0.362809
0.36147
0.360127
0.358776
0.357416
0.356043
0.354655
0.353248
0.351816
0.350352
0.348849
0.347297
0.345681
0.343986
0.342191
0.340272
0.338202
0.335949
0.333488
0.330798
0.327884
0.320318
0.317099
0.31414
0.311398
0.308843
0.306447
0.304192
0.302059
0.300035
0.298108
0.296268
0.294508
0.292819
0.291196
0.289633
0.288125
0.286669
0.285259
0.283894
0.28257
0.281284
0.280035
0.278819
0.277635
0.276481
0.275355
0.274257
0.273184
0.272135
0.271109
0.270106
0.269123
0.26816
0.267217
0.266292
0.265384
0.264494
0.263619
0.26276
0.261916
0.261087
0.260271
0.259469
0.25868
0.257903
0.257139
0.256386
0.255645
0.254914
0.254194
0.253485
0.252785
0.252095
0.251415
0.250743
0.250081
0.249427
0.248782
0.248145
0.247515
0.246894
0.24628
0.245674
0.245075
0.244483
0.243897
0.243319
0.242747
0.242181
0.241622
0.241068
0.240521
0.239979
0.239444
0.238913
0.238389
0.237869
0.237355
0.236846
0.236343
0.235844
0.235349
0.23486
0.234375
0.233895
0.23342
0.232948
0.232481
0.232019
0.23156
0.231106
0.230656
0.23021
0.229767
0.229327
0.228888
0.22845
0.22802
0.227617
0.227269
0.226976
0.226705
0.226436
0.226168
0.225902
0.225636
0.225373
0.225111
0.22485
0.22459
0.224332
0.224075
0.22382
0.223566
0.223313
0.223062
0.222812
0.222563
0.222315
0.222069
0.221824
0.22158
0.221337
0.221096
0.220855
0.220616
0.220378
0.220141
0.219906
0.219671
0.219438
0.219206
0.218975
0.218745
0.218516
0.218288
0.218061
0.217835
0.21761
0.217387
0.217164
0.216943
0.216722
0.216502
0.216284
0.216066
0.21585
0.215634
0.215419
0.215206
0.214993
0.214781
0.21457
0.21436
0.214151
0.213943
0.213736
0.213529
0.213324
0.213119
0.212915
0.212713
0.212511
0.21231
0.212109
0.21191
0.211711
0.211513
0.211316
0.21112
0.210925
0.21073
0.210537
0.210344
0.210151
0.20996
0.209769
0.20958
0.20939
0.209202
0.209015
0.208828
0.208642
0.208456
0.208272
0.208088
0.207904
0.207722
0.20754
0.207359
0.207179
0.206999
0.20682
0.206642
0.206464
0.206287
0.206111
0.205935
0.20576
0.205586
0.205412
0.205239
0.205067
0.204895
0.204724
0.204554
0.204384
0.204215
0.204046
0.203878
0.203711
0.203544
0.203378
0.203212
0.203047
0.202883
0.202719
0.202556
0.202393
0.202231
0.20207
0.201909
0.201748
0.201588
0.201429
0.201271
0.201112
0.200955
0.200798
0.200641
0.200485
0.20033
0.200175
0.200021
0.199867
0.199713
0.199561
0.199408
0.199257
0.199105
0.198954
0.198804
0.198654
0.198505
0.198356
0.198208
0.19806
0.197913
0.197766
0.19762
0.197474
0.197329
0.197184
0.197039
0.196895
0.196752
0.196609
0.196466
0.196324
0.196182
0.196041
0.1959
0.19576
0.19562
0.19548
0.195341
0.195203
0.195065
0.194927
0.19479
0.194653
0.194516
0.19438
0.194245
0.194109
0.193975
0.19384
0.193706
0.193573
0.19344
0.193307
0.193175
0.193043
0.192911
0.19278
0.192649
0.192519
0.192389
0.19226
0.19213
0.192002
0.191873
0.191745
0.191618
0.19149
0.191363
0.191237
0.191111
0.190985
0.190859
0.190734
0.19061
0.190485
0.190361
0.190238
0.190115
0.189992
0.189869
0.189747
0.189625
0.189504
0.189382
0.189262
0.189141
0.189021
0.188901
0.188782
0.188663
0.188544
0.188425
0.188307
0.18819
0.188072
0.187955
0.187838
0.187722
0.187606
0.18749
0.187374
0.187259
0.187144
0.18703
0.186915
0.186801
0.186688
0.186574
0.186461
0.186349
0.186236
0.186124
0.186012
0.185901
0.18579
0.185679
0.185568
0.185458
0.185348
0.185238
0.185129
0.18502
0.184911
0.184802
0.184694
0.184586
0.184478
0.184371
0.184264
0.184157
0.18405
0.183944
0.183838
0.183732
0.183627
0.183521
0.183416
0.183312
0.183207
0.183103
0.182999
0.182896
0.182792
0.182689
0.182587
0.182484
0.182382
0.18228
0.182178
0.182076
0.181975
0.181874
0.181774
0.181673
0.181573
0.181473
0.181373
0.181274
0.181174
0.181075
0.180977
0.180878
0.18078
0.180682
0.180584
0.180487
0.180389
0.180292
0.180195
0.180099
0.180002
0.179906
0.17981
0.179715
0.179619
0.179524
0.179429
0.179335
0.17924
0.179146
0.179052
0.178958
0.178864
0.178771
0.178678
0.178585
0.178492
0.1784
0.178308
0.178216
0.178124
0.178032
0.177941
0.17785
0.177759
0.177668
0.177577
0.177487
0.177397
0.177307
0.177217
0.177128
0.177039
0.17695
0.176861
0.176772
0.176684
0.176595
0.176507
0.17642
0.176332
0.176245
0.176157
0.17607
0.175984
0.175897
0.17581
0.175724
0.175639
0.175556
0.175472
0.175378
0.175271
0.175157
0.175044
0.17493
0.174818
0.174705
0.174593
0.174481
0.17437
0.174259
0.174148
0.174037
0.173927
0.173817
0.173707
0.173598
0.173489
0.17338
0.173272
0.173164
0.173056
0.172948
0.172841
0.172734
0.172627
0.172521
0.172415
0.172309
0.172203
0.172098
0.171993
0.171888
0.171784
0.17168
0.171576
0.171472
0.171369
0.171266
0.171163
0.171061
0.170958
0.170857
0.170755
0.170653
0.170552
0.170451
0.170351
0.17025
0.17015
0.17005
0.169951
0.169851
0.169752
0.169654
0.169555
0.169457
0.169359
0.169261
0.169163
0.169066
0.168969
0.168872
0.168776
0.168679
0.168583
0.168487
0.168392
0.168296
0.168201
0.168106
0.168012
0.167917
0.167823
0.167729
0.167636
0.167542
0.167449
0.167356
0.167263
0.167171
0.167078
0.166986
0.166895
0.166803
0.166712
0.16662
0.166529
0.166439
0.166348
0.166258
0.166168
0.166078
0.165988
0.165899
0.16581
0.165721
0.165632
0.165544
0.165455
0.165367
0.165279
0.165192
0.165104
0.165017
0.16493
0.164843
0.164756
0.16467
0.164584
0.164498
0.164412
0.164326
0.164241
0.164156
0.164071
0.163986
0.163901
0.163817
0.163733
0.163649
0.163565
0.163481
0.163398
0.163315
0.163231
0.163149
0.163066
0.162984
0.162901
0.162819
0.162737
0.162656
0.162574
0.162493
0.162412
0.162331
0.16225
0.162169
0.162089
0.162009
0.161929
0.161849
0.161769
0.16169
0.16161
0.161531
0.161452
0.161374
0.161295
0.161217
0.161138
0.16106
0.160982
0.160905
0.160827
0.16075
0.160673
0.160596
0.160519
0.160442
0.160366
0.160289
0.160213
0.160137
0.160061
0.159986
0.15991
0.159835
0.15976
0.159685
0.15961
0.159535
0.159461
0.159388
0.159314
0.159235
0.159147
0.159063
0.159035
0.159118
0.159175
0.159185
0.159164
0.159147
0.159131
0.159117
0.15911
0.159111
0.159117
0.159123
0.159132
0.159146
0.159167
0.159192
0.159221
0.159254
0.159292
0.159336
0.159384
0.159436
0.159491
0.159549
0.159612
0.159681
0.159755
0.159835
0.159919
0.160006
0.160098
0.160196
0.160299
0.160407
0.160518
0.160633
0.160753
0.160876
0.161005
0.161141
0.16128
0.161424
0.161575
0.161732
0.161892
0.162058
0.162228
0.162402
0.162581
0.162766
0.162956
0.163149
0.163349
0.163556
0.163769
0.163988
0.164211
0.164439
0.164672
0.164909
0.165153
0.165405
0.165665
0.16593
0.1662
0.166473
0.166751
0.167036
0.16733
0.167632
0.16794
0.168254
0.168575
0.168903
0.169236
0.169576
0.169922
0.170275
0.170637
0.171009
0.171392
0.171782
0.172177
0.172576
0.172977
0.173383
0.173796
0.174232
0.174703
0.175209
0.175723
0.176182
0.176514
0.176708
0.176907
0.17745
0.17874
0.180887
0.183187
0.183819
0.180474
0.172545
0.163969
0.156473
0.156403
0.156334
0.156264
0.156195
0.156126
0.156057
0.155988
0.155919
0.155851
0.155782
0.155714
0.155646
0.155578
0.15551
0.155442
0.155375
0.155307
0.15524
0.155173
0.155106
0.155039
0.154972
0.154906
0.154839
0.154773
0.154707
0.15464
0.154575
0.154509
0.154443
0.154378
0.154312
0.154247
0.154182
0.154117
0.154052
0.153987
0.153923
0.153858
0.153794
0.15373
0.153666
0.153602
0.153538
0.153475
0.153411
0.153348
0.153284
0.153221
0.153158
0.153095
0.153032
0.15297
0.152907
0.152845
0.152783
0.152721
0.152658
0.152597
0.152535
0.152473
0.152412
0.15235
0.152289
0.152228
0.152167
0.152106
0.152045
0.151984
0.151924
0.151863
0.151803
0.151743
0.151683
0.151623
0.151563
0.151503
0.151444
0.151384
0.151325
0.151266
0.151207
0.151148
0.151087
0.151024
0.150964
0.150926
0.150918
0.150923
0.150927
0.150932
0.150937
0.150941
0.150946
0.15095
0.150955
0.15096
0.150964
0.150969
0.150973
0.150978
0.150983
0.150987
0.150992
0.150996
0.151001
0.151006
0.15101
0.151015
0.151019
0.151024
0.151029
0.151033
0.151038
0.151042
0.151047
0.151052
0.151056
0.151061
0.151065
0.15107
0.151074
0.151079
0.151084
0.151088
0.151093
0.151097
0.151102
0.151107
0.151111
0.151116
0.15112
0.151125
0.151129
0.151134
0.151139
0.151143
0.151148
0.151152
0.151157
0.151161
0.151166
0.151171
0.151175
0.15118
0.151184
0.151189
0.151193
0.151198
0.151202
0.151207
0.151212
0.151216
0.151221
0.151225
0.15123
0.151234
0.151239
0.151244
0.151248
0.151253
0.151257
0.151262
0.151266
0.151271
0.151275
0.15128
0.151284
0.151289
0.151294
0.151298
0.151303
0.151307
0.151312
0.151316
0.151321
0.151325
0.15133
0.151334
0.151339
0.151343
0.151348
0.151353
0.151357
0.151362
0.151366
0.151371
0.151375
0.15138
0.151384
0.151389
0.151393
0.151398
0.151402
0.151407
0.151411
0.151416
0.15142
0.151425
0.15143
0.151434
0.151439
0.151443
0.151448
0.151452
0.151457
0.151461
0.151466
0.15147
0.151475
0.151479
0.151484
0.151488
0.151493
0.151497
0.151502
0.151506
0.151511
0.151515
0.15152
0.151524
0.151529
0.151533
0.151538
0.151542
0.151547
0.151551
0.151556
0.15156
0.151565
0.151569
0.151574
0.151578
0.151583
0.151587
0.151592
0.151596
0.151601
0.151605
0.15161
0.151614
0.151618
0.151623
0.151627
0.151632
0.151637
0.151641
0.151646
0.15165
0.151655
0.15166
0.151664
0.151669
0.151673
0.151677
0.151681
0.151685
0.151689
0.151693
0.151697
0.151702
0.151706
0.151711
0.151715
0.15172
0.151727
0.151739
0.151754
0.151759
0.151725
0.151639
0.15159
0.151821
0.152559
0.153392
0.152434
0.146986
0.138449
0.139206
0.173077
0.275294
0.437394
0.547628
0.58528
0.594648
0.596887
0.597541
0.597853
0.598091
0.598314
0.598534
0.598753
0.598972
0.599191
0.59941
0.59963
0.59985
0.60007
0.600291
0.600513
0.600735
0.600958
0.601183
0.601408
0.601635
0.601864
0.602094
0.602325
0.602558
0.602793
0.603029
0.603266
0.603504
0.603744
0.603984
0.604224
0.604465
0.604707
0.604948
0.605189
0.60543
0.60567
0.60591
0.60615
0.606389
0.606629
0.606868
0.607107
0.607347
0.607588
0.607829
0.608072
0.608316
0.608562
0.608809
0.609059
0.609311
0.609564
0.60982
0.610077
0.610336
0.610596
0.610857
0.611119
0.611381
0.611643
0.611905
0.612166
0.612426
0.612684
0.612942
0.613198
0.613453
0.613707
0.613961
0.614214
0.614467
0.614721
0.614976
0.615233
0.615492
0.615754
0.61602
0.61629
0.616563
0.616841
0.617124
0.617411
0.617703
0.617998
0.618297
0.6186
0.618905
0.619212
0.619521
0.619832
0.620144
0.620457
0.620771
0.621086
0.621404
0.621724
0.622049
0.62238
0.622718
0.623066
0.623426
0.623784
0.624072
0.624238
0.624338
0.624438
0.62456
0.62471
0.624892
0.625109
0.625361
0.625649
0.625975
0.626339
0.626739
0.627176
0.627648
0.628154
0.628691
0.629259
0.629854
0.630473
0.631115
0.631775
0.632452
0.633141
0.63384
0.634546
0.635255
0.635965
0.636673
0.637376
0.638071
0.638756
0.63943
0.640089
0.640732
0.641358
0.641964
0.64255
0.643114
0.643656
0.644175
0.64467
0.645141
0.645588
0.646011
0.64641
0.646785
0.647136
0.647465
0.647771
0.648056
0.648319
0.648563
0.648787
0.648993
0.649182
0.649354
0.649511
0.649653
0.649783
0.649899
0.650004
0.650099
0.650183
0.650259
0.650327
0.650388
0.650441
0.650489
0.650532
0.65057
0.650604
0.650634
0.650661
0.650685
0.650707
0.650727
0.650745
0.650761
0.650776
0.650791
0.650804
0.650817
0.650829
0.650841
0.650852
0.650863
0.650875
0.650886
0.650897
0.650908
0.650919
0.650931
0.650942
0.650954
0.650965
0.650977
0.650989
0.651002
0.651014
0.651027
0.65104
0.651052
0.651066
0.651079
0.651092
0.651105
0.651119
0.651133
0.651147
0.65116
0.651174
0.651189
0.651203
0.651217
0.651231
0.651246
0.65126
0.651275
0.65129
0.651305
0.65132
0.651335
0.65135
0.651366
0.651382
0.651397
0.651413
0.65143
0.651446
0.651463
0.651481
0.651498
0.651516
0.651535
0.651553
0.651573
0.651593
0.651613
0.651634
0.651656
0.651678
0.651701
0.651726
0.65175
0.651776
0.651803
0.651831
0.65186
0.651891
0.651922
0.651955
0.651989
0.652025
0.652063
0.652102
0.652142
0.652185
0.65223
0.652276
0.652325
0.652376
0.65243
0.652485
0.652544
0.652605
0.652669
0.652735
0.652805
0.652878
0.652954
0.653033
0.653116
0.653203
0.653293
0.653388
0.653486
0.653588
0.653695
0.653807
0.653922
0.654043
0.654169
0.654299
0.654435
0.654576
0.654722
0.654874
0.655032
0.655195
0.655365
0.65554
0.655722
0.655909
0.656104
0.656304
0.656511
0.656724
0.656945
0.657171
0.657404
0.657644
0.65789
0.658143
0.658403
0.658668
0.65894
0.659218
0.659502
0.659792
0.660087
0.660388
0.660693
0.661004
0.661319
0.661638
0.66196
0.662287
0.662616
0.662947
0.66328
0.663615
0.663951
0.664287
0.664624
0.664959
0.665293
0.665626
0.665956
0.666283
0.666606
0.666925
0.667239
0.667548
0.667851
0.668147
0.668435
0.668716
0.668989
0.669253
0.669508
0.669753
0.669987
0.670211
0.670424
0.670625
0.670815
0.670992
0.671157
0.671309
0.671448
0.671574
0.671686
0.671785
0.67187
0.671942
0.671999
0.672043
0.672073
0.672089
0.672091
0.67208
0.672054
0.672016
0.671964
0.671899
0.671821
0.67173
0.671627
0.671512
0.671386
0.671248
0.671099
0.67094
0.67077
0.670591
0.670403
0.670206
0.670001
0.669788
0.669568
0.669341
0.669109
0.668871
0.668628
0.668381
0.66813
0.667876
0.667619
0.66736
0.667099
0.666838
0.666575
0.666313
0.666052
0.665791
0.665531
0.665274
0.665018
0.664765
0.664515
0.664269
0.664025
0.663786
0.66355
0.663319
0.663092
0.66287
0.662653
0.66244
0.662233
0.66203
0.661833
0.661641
0.661454
0.661273
0.661096
0.660925
0.660759
0.660598
0.660442
0.660291
0.660146
0.660004
0.659868
0.659736
0.659609
0.659486
0.659368
0.659254
0.659144
0.659038
0.658936
0.658837
0.658743
0.658652
0.658564
0.65848
0.658399
0.658322
0.658247
0.658175
0.658107
0.658041
0.657978
0.657917
0.657859
0.657804
0.657751
0.6577
0.657652
0.657606
0.657562
0.65752
0.65748
0.657443
0.657407
0.657373
0.657341
0.657311
0.657282
0.657255
0.65723
0.657207
0.657185
0.657164
0.657146
0.657128
0.657112
0.657098
0.657085
0.657073
0.657063
0.657054
0.657046
0.657039
0.657034
0.65703
0.657027
0.657025
0.657024
0.657024
0.657026
0.657028
0.657032
0.657036
0.657042
0.657048
0.657056
0.657064
0.657073
0.657083
0.657094
0.657106
0.657119
0.657132
0.657146
0.657161
0.657177
0.657194
0.657211
0.657229
0.657247
0.657267
0.657287
0.657307
0.657329
0.65735
0.657373
0.657396
0.65742
0.657444
0.657469
0.657494
0.65752
0.657547
0.657574
0.657602
0.65763
0.657658
0.657687
0.657717
0.657747
0.657778
0.657809
0.65784
0.657872
0.657905
0.657937
0.657971
0.658005
0.658039
0.658074
0.658109
0.658145
0.658181
0.658217
0.658255
0.658292
0.65833
0.658369
0.658408
0.658447
0.658487
0.658528
0.658569
0.658611
0.658653
0.658696
0.658739
0.658783
0.658828
0.658873
0.658919
0.658966
0.659013
0.659061
0.65911
0.65916
0.65921
0.659261
0.659313
0.659366
0.65942
0.659475
0.659531
0.659587
0.659645
0.659704
0.659764
0.659825
0.659887
0.65995
0.660015
0.66008
0.660147
0.660215
0.660285
0.660355
0.660427
0.660501
0.660575
0.660651
0.660729
0.660808
0.660888
0.660969
0.661052
0.661137
0.661222
0.661309
0.661398
0.661488
0.661579
0.661671
0.661764
0.661859
0.661955
0.662052
0.66215
0.662248
0.662348
0.662449
0.662551
0.662653
0.662756
0.662859
0.662963
0.663068
0.663173
0.663278
0.663383
0.663488
0.663593
0.663699
0.663804
0.663908
0.664013
0.664117
0.66422
0.664323
0.664424
0.664526
0.664626
0.664725
0.664824
0.664921
0.665017
0.665112
0.665205
0.665298
0.665388
0.665478
0.665566
0.665653
0.665738
0.665821
0.665903
0.665983
0.666062
0.666139
0.666215
0.666289
0.666361
0.666432
0.666502
0.666569
0.666636
0.6667
0.666764
0.666825
0.666886
0.666945
0.667002
0.667059
0.667114
0.667168
0.66722
0.667272
0.667322
0.667371
0.667419
0.667466
0.667512
0.667558
0.667602
0.667645
0.667688
0.66773
0.667771
0.667811
0.667851
0.66789
0.667928
0.667966
0.668004
0.66804
0.668077
0.668112
0.668148
0.668183
0.668217
0.668252
0.668286
0.668319
0.668352
0.668385
0.668418
0.668451
0.668483
0.668515
0.668547
0.668578
0.66861
0.668641
0.668672
0.668703
0.668734
0.668765
0.668796
0.668826
0.668857
0.668887
0.668917
0.668948
0.668978
0.669008
0.669038
0.669068
0.669098
0.669128
0.669158
0.669188
0.669218
0.669248
0.669278
0.669308
0.669338
0.669368
0.669399
0.669429
0.669459
0.669489
0.66952
0.66955
0.66958
0.669611
0.669641
0.669672
0.669703
0.669734
0.669765
0.669796
0.669827
0.669858
0.66989
0.669921
0.669953
0.669985
0.670017
0.670049
0.670081
0.670113
0.670146
0.670178
0.670211
0.670244
0.670277
0.67031
0.670344
0.670377
0.670411
0.670444
0.670478
0.670512
0.670547
0.670581
0.670616
0.67065
0.670685
0.67072
0.670755
0.67079
0.670825
0.670861
0.670896
0.670932
0.670968
0.671003
0.671039
0.671075
0.671112
0.671148
0.671184
0.671221
0.671257
0.671294
0.67133
0.671367
0.671404
0.67144
0.671477
0.671514
0.671551
0.671588
0.671625
0.671662
0.671699
0.671737
0.671774
0.671811
0.671848
0.671886
0.671923
0.67196
0.671998
0.672035
0.672072
0.67211
0.672147
0.672185
0.672223
0.67226
0.672298
0.672335
0.672373
0.672411
0.672449
0.672486
0.672524
0.672562
0.6726
0.672638
0.672676
0.672714
0.672752
0.672791
0.672829
0.672867
0.672905
0.672944
0.672982
0.673021
0.673059
0.673098
0.673137
0.673175
0.673214
0.673253
0.673292
0.673331
0.67337
0.673409
0.673449
0.673488
0.673527
0.673567
0.673606
0.673646
0.673685
0.673725
0.673765
0.673805
0.673845
0.673885
0.673925
0.673965
0.674005
0.674046
0.674086
0.674126
0.674167
0.674207
0.674248
0.674289
0.674329
0.67437
0.674411
0.674452
0.674493
0.674534
0.674575
0.674617
0.674658
0.674699
0.674741
0.674782
0.674824
0.674865
0.674907
0.674949
0.674991
0.675032
0.675074
0.675116
0.675159
0.675201
0.675243
0.675285
0.675328
0.67537
0.675413
0.675455
0.675498
0.675541
0.675584
0.675627
0.67567
0.675713
0.675756
0.6758
0.675843
0.675887
0.675931
0.675975
0.676019
0.676063
0.676107
0.676152
0.676196
0.676241
0.676286
0.676331
0.676377
0.676422
0.676468
0.676514
0.67656
0.676606
0.676653
0.6767
0.676747
0.676794
0.676842
0.676889
0.676938
0.676986
0.677035
0.677084
0.677133
0.677182
0.677232
0.677283
0.677333
0.677384
0.677435
0.677487
0.677539
0.677591
0.677644
0.677697
0.67775
0.677804
0.677858
0.677913
0.677967
0.678023
0.678078
0.678134
0.678191
0.678247
0.678305
0.678362
0.67842
0.678478
0.678537
0.678595
0.678655
0.678714
0.678774
0.678834
0.678895
0.678955
0.679017
0.679078
0.679139
0.679201
0.679263
0.679325
0.679388
0.679451
0.679513
0.679576
0.679639
0.679702
0.679766
0.679829
0.679892
0.679956
0.680019
0.680082
0.680145
0.680208
0.680271
0.680334
0.680397
0.68046
0.680522
0.680584
0.680646
0.680707
0.680768
0.680829
0.680889
0.680949
0.681009
0.681068
0.681126
0.681184
0.681241
0.681298
0.681354
0.681409
0.681463
0.681517
0.68157
0.681622
0.681673
0.681723
0.681773
0.681821
0.681868
0.681914
0.681959
0.682003
0.682046
0.682088
0.682129
0.682168
0.682206
0.682243
0.682279
0.682313
0.682347
0.682379
0.68241
0.68244
0.682468
0.682496
0.682522
0.682547
0.682572
0.682595
0.682618
0.68264
0.682661
0.682682
0.682702
0.682721
0.68274
0.682759
0.682778
0.682796
0.682818
)
;

boundaryField
{
    inlet
    {
        type            criticalFlowDepthInlet;
        criticalH       0.38;
        value           uniform 0.858568;
    }
    outlet
    {
        type            zeroGradient;
    }
    right
    {
        type            empty;
    }
    left
    {
        type            empty;
    }
    atmosphere
    {
        type            empty;
    }
    bottomWall
    {
        type            empty;
    }
}


// ************************************************************************* //
