/*--------------------------------*- C++ -*----------------------------------*\
| =========                 |                                                 |
| \\      /  F ield         | foam-extend: Open Source CFD                    |
|  \\    /   O peration     | Version:     3.1                                |
|   \\  /    A nd           | Web:         http://www.extend-project.de       |
|    \\/     M anipulation  |                                                 |
\*---------------------------------------------------------------------------*/
FoamFile
{
    version     2.0;
    format      ascii;
    class       volVectorField;
    location    "14";
    object      U;
}
// * * * * * * * * * * * * * * * * * * * * * * * * * * * * * * * * * * * * * //

dimensions      [0 1 -1 0 0 0 0];

internalField   nonuniform List<vector> 
2539
(
(0.727763 0 0)
(0.728162 0 0)
(0.728969 0 0)
(0.729759 0 0)
(0.730553 0 0)
(0.731348 0 0)
(0.732145 0 0)
(0.732944 0 0)
(0.733745 0 0)
(0.734548 0 0)
(0.735353 0 0)
(0.73616 0 0)
(0.736969 0 0)
(0.73778 0 0)
(0.738592 0 0)
(0.739407 0 0)
(0.740224 0 0)
(0.741043 0 0)
(0.741863 0 0)
(0.742686 0 0)
(0.743511 0 0)
(0.744337 0 0)
(0.745166 0 0)
(0.745997 0 0)
(0.74683 0 0)
(0.747665 0 0)
(0.748502 0 0)
(0.749341 0 0)
(0.750182 0 0)
(0.751025 0 0)
(0.751871 0 0)
(0.752718 0 0)
(0.753568 0 0)
(0.75442 0 0)
(0.755274 0 0)
(0.75613 0 0)
(0.756988 0 0)
(0.757848 0 0)
(0.758711 0 0)
(0.759576 0 0)
(0.760443 0 0)
(0.761312 0 0)
(0.762183 0 0)
(0.763057 0 0)
(0.763933 0 0)
(0.764811 0 0)
(0.765691 0 0)
(0.766574 0 0)
(0.767459 0 0)
(0.768346 0 0)
(0.769235 0 0)
(0.770127 0 0)
(0.771021 0 0)
(0.771918 0 0)
(0.772817 0 0)
(0.773718 0 0)
(0.774621 0 0)
(0.775527 0 0)
(0.776435 0 0)
(0.777346 0 0)
(0.778259 0 0)
(0.779175 0 0)
(0.780093 0 0)
(0.781013 0 0)
(0.781936 0 0)
(0.782861 0 0)
(0.783789 0 0)
(0.784719 0 0)
(0.785652 0 0)
(0.786587 0 0)
(0.787525 0 0)
(0.788465 0 0)
(0.789408 0 0)
(0.790353 0 0)
(0.791301 0 0)
(0.792252 0 0)
(0.793205 0 0)
(0.79416 0 0)
(0.795119 0 0)
(0.79608 0 0)
(0.797043 0 0)
(0.79801 0 0)
(0.798979 0 0)
(0.79995 0 0)
(0.800925 0 0)
(0.801902 0 0)
(0.802881 0 0)
(0.803864 0 0)
(0.804849 0 0)
(0.805837 0 0)
(0.806828 0 0)
(0.807821 0 0)
(0.808818 0 0)
(0.809817 0 0)
(0.810819 0 0)
(0.811824 0 0)
(0.812831 0 0)
(0.813842 0 0)
(0.814855 0 0)
(0.815872 0 0)
(0.816891 0 0)
(0.817913 0 0)
(0.818938 0 0)
(0.819966 0 0)
(0.820997 0 0)
(0.822031 0 0)
(0.823068 0 0)
(0.824109 0 0)
(0.825152 0 0)
(0.826198 0 0)
(0.827247 0 0)
(0.828299 0 0)
(0.829355 0 0)
(0.830413 0 0)
(0.831475 0 0)
(0.83254 0 0)
(0.833608 0 0)
(0.834679 0 0)
(0.835753 0 0)
(0.836831 0 0)
(0.837912 0 0)
(0.838996 0 0)
(0.840083 0 0)
(0.841174 0 0)
(0.842268 0 0)
(0.843365 0 0)
(0.844466 0 0)
(0.84557 0 0)
(0.846677 0 0)
(0.847788 0 0)
(0.848902 0 0)
(0.85002 0 0)
(0.851141 0 0)
(0.852265 0 0)
(0.853393 0 0)
(0.854525 0 0)
(0.85566 0 0)
(0.856798 0 0)
(0.857941 0 0)
(0.859086 0 0)
(0.860236 0 0)
(0.861389 0 0)
(0.862545 0 0)
(0.863706 0 0)
(0.86487 0 0)
(0.866037 0 0)
(0.867209 0 0)
(0.868384 0 0)
(0.869563 0 0)
(0.870746 0 0)
(0.871932 0 0)
(0.873123 0 0)
(0.874317 0 0)
(0.875515 0 0)
(0.876718 0 0)
(0.877924 0 0)
(0.879134 0 0)
(0.880348 0 0)
(0.881566 0 0)
(0.882788 0 0)
(0.884014 0 0)
(0.885244 0 0)
(0.886479 0 0)
(0.887717 0 0)
(0.88896 0 0)
(0.890206 0 0)
(0.891457 0 0)
(0.892713 0 0)
(0.893972 0 0)
(0.895236 0 0)
(0.896504 0 0)
(0.897776 0 0)
(0.899053 0 0)
(0.900335 0 0)
(0.90162 0 0)
(0.90291 0 0)
(0.904205 0 0)
(0.905504 0 0)
(0.906808 0 0)
(0.908116 0 0)
(0.909428 0 0)
(0.910746 0 0)
(0.912068 0 0)
(0.913395 0 0)
(0.914726 0 0)
(0.916677 0 0)
(0.918378 0 0)
(0.918846 0 0)
(0.919249 0 0)
(0.91965 0 0)
(0.920051 0 0)
(0.920452 0 0)
(0.920854 0 0)
(0.921256 0 0)
(0.921659 0 0)
(0.922062 0 0)
(0.922466 0 0)
(0.922869 0 0)
(0.923274 0 0)
(0.923679 0 0)
(0.924084 0 0)
(0.924489 0 0)
(0.924895 0 0)
(0.925302 0 0)
(0.925709 0 0)
(0.926116 0 0)
(0.926524 0 0)
(0.926932 0 0)
(0.92734 0 0)
(0.927749 0 0)
(0.928159 0 0)
(0.928569 0 0)
(0.928979 0 0)
(0.92939 0 0)
(0.929801 0 0)
(0.930213 0 0)
(0.930625 0 0)
(0.931038 0 0)
(0.931451 0 0)
(0.931864 0 0)
(0.932278 0 0)
(0.932692 0 0)
(0.933107 0 0)
(0.933522 0 0)
(0.933938 0 0)
(0.934354 0 0)
(0.93477 0 0)
(0.935188 0 0)
(0.935605 0 0)
(0.936023 0 0)
(0.936441 0 0)
(0.93686 0 0)
(0.937279 0 0)
(0.937699 0 0)
(0.938119 0 0)
(0.93854 0 0)
(0.938961 0 0)
(0.939383 0 0)
(0.939805 0 0)
(0.940227 0 0)
(0.94065 0 0)
(0.941074 0 0)
(0.941497 0 0)
(0.941922 0 0)
(0.942347 0 0)
(0.942772 0 0)
(0.943198 0 0)
(0.943624 0 0)
(0.944051 0 0)
(0.944478 0 0)
(0.944905 0 0)
(0.945333 0 0)
(0.945762 0 0)
(0.946191 0 0)
(0.946621 0 0)
(0.947051 0 0)
(0.947481 0 0)
(0.947912 0 0)
(0.948344 0 0)
(0.948775 0 0)
(0.949208 0 0)
(0.949641 0 0)
(0.950074 0 0)
(0.950508 0 0)
(0.950942 0 0)
(0.951377 0 0)
(0.951813 0 0)
(0.952248 0 0)
(0.952685 0 0)
(0.953122 0 0)
(0.953559 0 0)
(0.953997 0 0)
(0.954435 0 0)
(0.954874 0 0)
(0.955313 0 0)
(0.955753 0 0)
(0.956193 0 0)
(0.956634 0 0)
(0.957075 0 0)
(0.957517 0 0)
(0.957959 0 0)
(0.958402 0 0)
(0.958845 0 0)
(0.959289 0 0)
(0.959734 0 0)
(0.960178 0 0)
(0.960624 0 0)
(0.96107 0 0)
(0.961516 0 0)
(0.961963 0 0)
(0.96241 0 0)
(0.962858 0 0)
(0.963307 0 0)
(0.963756 0 0)
(0.964205 0 0)
(0.964655 0 0)
(0.965106 0 0)
(0.965557 0 0)
(0.966008 0 0)
(0.96646 0 0)
(0.966913 0 0)
(0.967366 0 0)
(0.96782 0 0)
(0.968274 0 0)
(0.968729 0 0)
(0.969184 0 0)
(0.96964 0 0)
(0.970096 0 0)
(0.970553 0 0)
(0.971011 0 0)
(0.971469 0 0)
(0.971927 0 0)
(0.972386 0 0)
(0.972846 0 0)
(0.973306 0 0)
(0.973767 0 0)
(0.974228 0 0)
(0.97469 0 0)
(0.975152 0 0)
(0.975615 0 0)
(0.976078 0 0)
(0.976542 0 0)
(0.977007 0 0)
(0.977472 0 0)
(0.977938 0 0)
(0.978404 0 0)
(0.978871 0 0)
(0.979338 0 0)
(0.979806 0 0)
(0.980274 0 0)
(0.980744 0 0)
(0.981213 0 0)
(0.981683 0 0)
(0.982154 0 0)
(0.982625 0 0)
(0.983097 0 0)
(0.98357 0 0)
(0.984043 0 0)
(0.984516 0 0)
(0.984991 0 0)
(0.985465 0 0)
(0.985941 0 0)
(0.986417 0 0)
(0.986893 0 0)
(0.98737 0 0)
(0.987848 0 0)
(0.988326 0 0)
(0.988805 0 0)
(0.989285 0 0)
(0.989765 0 0)
(0.990245 0 0)
(0.990727 0 0)
(0.991208 0 0)
(0.991691 0 0)
(0.992174 0 0)
(0.992658 0 0)
(0.993142 0 0)
(0.993627 0 0)
(0.994112 0 0)
(0.994598 0 0)
(0.995085 0 0)
(0.995572 0 0)
(0.99606 0 0)
(0.996549 0 0)
(0.997038 0 0)
(0.997528 0 0)
(0.998018 0 0)
(0.998509 0 0)
(0.999001 0 0)
(0.999493 0 0)
(0.999986 0 0)
(1.00048 0 0)
(1.00097 0 0)
(1.00147 0 0)
(1.00196 0 0)
(1.00246 0 0)
(1.00296 0 0)
(1.00345 0 0)
(1.00395 0 0)
(1.00445 0 0)
(1.00495 0 0)
(1.00545 0 0)
(1.00595 0 0)
(1.00643 0 0)
(1.00732 0 0)
(0.999867 0 0)
(1.05759 0 0)
(1.1277 0 0)
(1.17189 0 0)
(1.20009 0 0)
(1.22011 0 0)
(1.23573 0 0)
(1.24884 0 0)
(1.2604 0 0)
(1.27095 0 0)
(1.2808 0 0)
(1.29011 0 0)
(1.29902 0 0)
(1.30759 0 0)
(1.31589 0 0)
(1.32396 0 0)
(1.33182 0 0)
(1.3395 0 0)
(1.34703 0 0)
(1.35441 0 0)
(1.36167 0 0)
(1.36881 0 0)
(1.37585 0 0)
(1.38279 0 0)
(1.38965 0 0)
(1.39642 0 0)
(1.40313 0 0)
(1.40976 0 0)
(1.41633 0 0)
(1.42284 0 0)
(1.4293 0 0)
(1.4357 0 0)
(1.44206 0 0)
(1.44838 0 0)
(1.45466 0 0)
(1.46089 0 0)
(1.4671 0 0)
(1.47327 0 0)
(1.4794 0 0)
(1.48551 0 0)
(1.4916 0 0)
(1.49766 0 0)
(1.50369 0 0)
(1.50971 0 0)
(1.51571 0 0)
(1.52169 0 0)
(1.52765 0 0)
(1.5336 0 0)
(1.53953 0 0)
(1.54545 0 0)
(1.55136 0 0)
(1.55727 0 0)
(1.56316 0 0)
(1.56905 0 0)
(1.57493 0 0)
(1.58081 0 0)
(1.58669 0 0)
(1.59256 0 0)
(1.59843 0 0)
(1.60431 0 0)
(1.61019 0 0)
(1.61607 0 0)
(1.62195 0 0)
(1.62785 0 0)
(1.63375 0 0)
(1.63966 0 0)
(1.64558 0 0)
(1.65151 0 0)
(1.65746 0 0)
(1.66343 0 0)
(1.66942 0 0)
(1.67542 0 0)
(1.68146 0 0)
(1.68752 0 0)
(1.69361 0 0)
(1.69973 0 0)
(1.70589 0 0)
(1.7121 0 0)
(1.71835 0 0)
(1.72466 0 0)
(1.73102 0 0)
(1.73746 0 0)
(1.74397 0 0)
(1.75057 0 0)
(1.75727 0 0)
(1.7641 0 0)
(1.77106 0 0)
(1.77819 0 0)
(1.78551 0 0)
(1.79308 0 0)
(1.80094 0 0)
(1.80915 0 0)
(1.81782 0 0)
(1.82703 0 0)
(1.83694 0 0)
(1.8477 0 0)
(1.8595 0 0)
(1.87256 0 0)
(1.88705 0 0)
(1.90313 0 0)
(1.94684 0 0)
(1.96738 0 0)
(1.98659 0 0)
(2.00466 0 0)
(2.02175 0 0)
(2.038 0 0)
(2.05351 0 0)
(2.06836 0 0)
(2.08264 0 0)
(2.09639 0 0)
(2.10967 0 0)
(2.12253 0 0)
(2.13499 0 0)
(2.1471 0 0)
(2.15889 0 0)
(2.17037 0 0)
(2.18157 0 0)
(2.1925 0 0)
(2.2032 0 0)
(2.21367 0 0)
(2.22392 0 0)
(2.23398 0 0)
(2.24384 0 0)
(2.25353 0 0)
(2.26305 0 0)
(2.2724 0 0)
(2.28161 0 0)
(2.29067 0 0)
(2.29959 0 0)
(2.30839 0 0)
(2.31705 0 0)
(2.3256 0 0)
(2.33403 0 0)
(2.34235 0 0)
(2.35057 0 0)
(2.35869 0 0)
(2.3667 0 0)
(2.37462 0 0)
(2.38246 0 0)
(2.3902 0 0)
(2.39786 0 0)
(2.40544 0 0)
(2.41294 0 0)
(2.42036 0 0)
(2.42771 0 0)
(2.43499 0 0)
(2.4422 0 0)
(2.44934 0 0)
(2.45641 0 0)
(2.46343 0 0)
(2.47038 0 0)
(2.47726 0 0)
(2.4841 0 0)
(2.49087 0 0)
(2.49759 0 0)
(2.50425 0 0)
(2.51087 0 0)
(2.51743 0 0)
(2.52394 0 0)
(2.5304 0 0)
(2.53682 0 0)
(2.54318 0 0)
(2.54951 0 0)
(2.55578 0 0)
(2.56202 0 0)
(2.56821 0 0)
(2.57436 0 0)
(2.58047 0 0)
(2.58653 0 0)
(2.59256 0 0)
(2.59856 0 0)
(2.60451 0 0)
(2.61042 0 0)
(2.61631 0 0)
(2.62215 0 0)
(2.62796 0 0)
(2.63374 0 0)
(2.63948 0 0)
(2.64519 0 0)
(2.65086 0 0)
(2.65651 0 0)
(2.66212 0 0)
(2.66771 0 0)
(2.67326 0 0)
(2.67878 0 0)
(2.68428 0 0)
(2.68974 0 0)
(2.69518 0 0)
(2.70059 0 0)
(2.70597 0 0)
(2.71132 0 0)
(2.71665 0 0)
(2.72195 0 0)
(2.72722 0 0)
(2.73248 0 0)
(2.73773 0 0)
(2.743 0 0)
(2.74827 0 0)
(2.75339 0 0)
(2.75804 0 0)
(2.76186 0 0)
(2.76519 0 0)
(2.7685 0 0)
(2.77181 0 0)
(2.7751 0 0)
(2.77838 0 0)
(2.78165 0 0)
(2.78492 0 0)
(2.78817 0 0)
(2.79142 0 0)
(2.79465 0 0)
(2.79788 0 0)
(2.80109 0 0)
(2.8043 0 0)
(2.80749 0 0)
(2.81068 0 0)
(2.81386 0 0)
(2.81703 0 0)
(2.82019 0 0)
(2.82334 0 0)
(2.82649 0 0)
(2.82962 0 0)
(2.83275 0 0)
(2.83586 0 0)
(2.83897 0 0)
(2.84207 0 0)
(2.84516 0 0)
(2.84824 0 0)
(2.85132 0 0)
(2.85439 0 0)
(2.85744 0 0)
(2.86049 0 0)
(2.86354 0 0)
(2.86657 0 0)
(2.8696 0 0)
(2.87261 0 0)
(2.87563 0 0)
(2.87863 0 0)
(2.88162 0 0)
(2.88461 0 0)
(2.88759 0 0)
(2.89056 0 0)
(2.89353 0 0)
(2.89649 0 0)
(2.89944 0 0)
(2.90238 0 0)
(2.90531 0 0)
(2.90824 0 0)
(2.91116 0 0)
(2.91408 0 0)
(2.91698 0 0)
(2.91988 0 0)
(2.92278 0 0)
(2.92566 0 0)
(2.92854 0 0)
(2.93141 0 0)
(2.93428 0 0)
(2.93714 0 0)
(2.93999 0 0)
(2.94283 0 0)
(2.94567 0 0)
(2.9485 0 0)
(2.95133 0 0)
(2.95415 0 0)
(2.95696 0 0)
(2.95977 0 0)
(2.96257 0 0)
(2.96536 0 0)
(2.96815 0 0)
(2.97093 0 0)
(2.9737 0 0)
(2.97647 0 0)
(2.97923 0 0)
(2.98199 0 0)
(2.98474 0 0)
(2.98748 0 0)
(2.99022 0 0)
(2.99295 0 0)
(2.99567 0 0)
(2.99839 0 0)
(3.00111 0 0)
(3.00382 0 0)
(3.00652 0 0)
(3.00922 0 0)
(3.01191 0 0)
(3.01459 0 0)
(3.01727 0 0)
(3.01994 0 0)
(3.02261 0 0)
(3.02527 0 0)
(3.02793 0 0)
(3.03058 0 0)
(3.03323 0 0)
(3.03587 0 0)
(3.0385 0 0)
(3.04113 0 0)
(3.04376 0 0)
(3.04638 0 0)
(3.04899 0 0)
(3.0516 0 0)
(3.0542 0 0)
(3.0568 0 0)
(3.05939 0 0)
(3.06198 0 0)
(3.06456 0 0)
(3.06714 0 0)
(3.06971 0 0)
(3.07228 0 0)
(3.07484 0 0)
(3.0774 0 0)
(3.07995 0 0)
(3.08249 0 0)
(3.08504 0 0)
(3.08757 0 0)
(3.09011 0 0)
(3.09263 0 0)
(3.09516 0 0)
(3.09767 0 0)
(3.10019 0 0)
(3.10269 0 0)
(3.1052 0 0)
(3.10769 0 0)
(3.11019 0 0)
(3.11268 0 0)
(3.11516 0 0)
(3.11764 0 0)
(3.12012 0 0)
(3.12259 0 0)
(3.12505 0 0)
(3.12751 0 0)
(3.12997 0 0)
(3.13242 0 0)
(3.13487 0 0)
(3.13731 0 0)
(3.13975 0 0)
(3.14219 0 0)
(3.14461 0 0)
(3.14704 0 0)
(3.14946 0 0)
(3.15188 0 0)
(3.15429 0 0)
(3.1567 0 0)
(3.1591 0 0)
(3.1615 0 0)
(3.1639 0 0)
(3.16629 0 0)
(3.16867 0 0)
(3.17106 0 0)
(3.17343 0 0)
(3.17581 0 0)
(3.17818 0 0)
(3.18054 0 0)
(3.18291 0 0)
(3.18526 0 0)
(3.18762 0 0)
(3.18997 0 0)
(3.19231 0 0)
(3.19465 0 0)
(3.19699 0 0)
(3.19932 0 0)
(3.20165 0 0)
(3.20398 0 0)
(3.2063 0 0)
(3.20862 0 0)
(3.21093 0 0)
(3.21324 0 0)
(3.21554 0 0)
(3.21785 0 0)
(3.22014 0 0)
(3.22244 0 0)
(3.22473 0 0)
(3.22701 0 0)
(3.2293 0 0)
(3.23158 0 0)
(3.23385 0 0)
(3.23612 0 0)
(3.23839 0 0)
(3.24065 0 0)
(3.24291 0 0)
(3.24517 0 0)
(3.24742 0 0)
(3.24967 0 0)
(3.25192 0 0)
(3.25416 0 0)
(3.2564 0 0)
(3.25863 0 0)
(3.26086 0 0)
(3.26309 0 0)
(3.26531 0 0)
(3.26753 0 0)
(3.26975 0 0)
(3.27196 0 0)
(3.27417 0 0)
(3.27638 0 0)
(3.27858 0 0)
(3.28078 0 0)
(3.28298 0 0)
(3.28517 0 0)
(3.28736 0 0)
(3.28954 0 0)
(3.29172 0 0)
(3.2939 0 0)
(3.29608 0 0)
(3.29825 0 0)
(3.30042 0 0)
(3.30258 0 0)
(3.30474 0 0)
(3.3069 0 0)
(3.30906 0 0)
(3.31121 0 0)
(3.31336 0 0)
(3.3155 0 0)
(3.31764 0 0)
(3.31978 0 0)
(3.32192 0 0)
(3.32405 0 0)
(3.32618 0 0)
(3.3283 0 0)
(3.33042 0 0)
(3.33254 0 0)
(3.33466 0 0)
(3.33677 0 0)
(3.33888 0 0)
(3.34099 0 0)
(3.34309 0 0)
(3.34519 0 0)
(3.34729 0 0)
(3.34938 0 0)
(3.35147 0 0)
(3.35356 0 0)
(3.35564 0 0)
(3.35773 0 0)
(3.3598 0 0)
(3.36188 0 0)
(3.36395 0 0)
(3.36602 0 0)
(3.36809 0 0)
(3.37015 0 0)
(3.37221 0 0)
(3.37427 0 0)
(3.37632 0 0)
(3.37837 0 0)
(3.38042 0 0)
(3.38247 0 0)
(3.38451 0 0)
(3.38655 0 0)
(3.38858 0 0)
(3.39062 0 0)
(3.39265 0 0)
(3.39468 0 0)
(3.3967 0 0)
(3.39872 0 0)
(3.40074 0 0)
(3.40276 0 0)
(3.40477 0 0)
(3.40678 0 0)
(3.40879 0 0)
(3.41079 0 0)
(3.41279 0 0)
(3.41479 0 0)
(3.41679 0 0)
(3.41878 0 0)
(3.42077 0 0)
(3.42276 0 0)
(3.42475 0 0)
(3.42673 0 0)
(3.42871 0 0)
(3.43068 0 0)
(3.43266 0 0)
(3.43463 0 0)
(3.4366 0 0)
(3.43856 0 0)
(3.44053 0 0)
(3.44249 0 0)
(3.44444 0 0)
(3.4464 0 0)
(3.44835 0 0)
(3.4503 0 0)
(3.45225 0 0)
(3.45419 0 0)
(3.45613 0 0)
(3.45807 0 0)
(3.46001 0 0)
(3.46194 0 0)
(3.46387 0 0)
(3.4658 0 0)
(3.46773 0 0)
(3.46965 0 0)
(3.47157 0 0)
(3.47349 0 0)
(3.47541 0 0)
(3.47732 0 0)
(3.47923 0 0)
(3.48114 0 0)
(3.48304 0 0)
(3.48494 0 0)
(3.48685 0 0)
(3.48874 0 0)
(3.49064 0 0)
(3.49253 0 0)
(3.49442 0 0)
(3.49631 0 0)
(3.49819 0 0)
(3.50008 0 0)
(3.50196 0 0)
(3.50383 0 0)
(3.50571 0 0)
(3.50758 0 0)
(3.50945 0 0)
(3.51132 0 0)
(3.51318 0 0)
(3.51505 0 0)
(3.51691 0 0)
(3.51877 0 0)
(3.52062 0 0)
(3.52247 0 0)
(3.52432 0 0)
(3.52617 0 0)
(3.52802 0 0)
(3.52986 0 0)
(3.5317 0 0)
(3.53354 0 0)
(3.53538 0 0)
(3.53721 0 0)
(3.53904 0 0)
(3.54087 0 0)
(3.5427 0 0)
(3.54453 0 0)
(3.54635 0 0)
(3.54817 0 0)
(3.54999 0 0)
(3.5518 0 0)
(3.55361 0 0)
(3.55542 0 0)
(3.55723 0 0)
(3.55904 0 0)
(3.56084 0 0)
(3.56264 0 0)
(3.56444 0 0)
(3.56624 0 0)
(3.56804 0 0)
(3.56983 0 0)
(3.57162 0 0)
(3.57341 0 0)
(3.5752 0 0)
(3.57698 0 0)
(3.57876 0 0)
(3.5805 0 0)
(3.58221 0 0)
(3.58398 0 0)
(3.58609 0 0)
(3.58845 0 0)
(3.5908 0 0)
(3.59315 0 0)
(3.5955 0 0)
(3.59784 0 0)
(3.60019 0 0)
(3.60252 0 0)
(3.60486 0 0)
(3.60719 0 0)
(3.60951 0 0)
(3.61184 0 0)
(3.61416 0 0)
(3.61648 0 0)
(3.61879 0 0)
(3.6211 0 0)
(3.62341 0 0)
(3.62571 0 0)
(3.62801 0 0)
(3.63031 0 0)
(3.6326 0 0)
(3.63489 0 0)
(3.63718 0 0)
(3.63946 0 0)
(3.64174 0 0)
(3.64402 0 0)
(3.6463 0 0)
(3.64857 0 0)
(3.65083 0 0)
(3.6531 0 0)
(3.65536 0 0)
(3.65762 0 0)
(3.65987 0 0)
(3.66212 0 0)
(3.66437 0 0)
(3.66662 0 0)
(3.66886 0 0)
(3.6711 0 0)
(3.67333 0 0)
(3.67557 0 0)
(3.6778 0 0)
(3.68002 0 0)
(3.68225 0 0)
(3.68447 0 0)
(3.68668 0 0)
(3.6889 0 0)
(3.69111 0 0)
(3.69332 0 0)
(3.69552 0 0)
(3.69772 0 0)
(3.69992 0 0)
(3.70212 0 0)
(3.70431 0 0)
(3.7065 0 0)
(3.70869 0 0)
(3.71087 0 0)
(3.71305 0 0)
(3.71523 0 0)
(3.7174 0 0)
(3.71957 0 0)
(3.72174 0 0)
(3.72391 0 0)
(3.72607 0 0)
(3.72823 0 0)
(3.73039 0 0)
(3.73254 0 0)
(3.7347 0 0)
(3.73684 0 0)
(3.73899 0 0)
(3.74113 0 0)
(3.74327 0 0)
(3.74541 0 0)
(3.74754 0 0)
(3.74967 0 0)
(3.7518 0 0)
(3.75393 0 0)
(3.75605 0 0)
(3.75817 0 0)
(3.76029 0 0)
(3.7624 0 0)
(3.76451 0 0)
(3.76662 0 0)
(3.76873 0 0)
(3.77083 0 0)
(3.77293 0 0)
(3.77503 0 0)
(3.77712 0 0)
(3.77921 0 0)
(3.7813 0 0)
(3.78339 0 0)
(3.78547 0 0)
(3.78755 0 0)
(3.78963 0 0)
(3.79171 0 0)
(3.79378 0 0)
(3.79585 0 0)
(3.79792 0 0)
(3.79998 0 0)
(3.80204 0 0)
(3.8041 0 0)
(3.80616 0 0)
(3.80821 0 0)
(3.81026 0 0)
(3.81231 0 0)
(3.81436 0 0)
(3.8164 0 0)
(3.81844 0 0)
(3.82048 0 0)
(3.82251 0 0)
(3.82455 0 0)
(3.82658 0 0)
(3.82861 0 0)
(3.83063 0 0)
(3.83265 0 0)
(3.83467 0 0)
(3.83669 0 0)
(3.8387 0 0)
(3.84072 0 0)
(3.84273 0 0)
(3.84473 0 0)
(3.84674 0 0)
(3.84874 0 0)
(3.85074 0 0)
(3.85274 0 0)
(3.85473 0 0)
(3.85672 0 0)
(3.85871 0 0)
(3.8607 0 0)
(3.86268 0 0)
(3.86466 0 0)
(3.86664 0 0)
(3.86862 0 0)
(3.87059 0 0)
(3.87257 0 0)
(3.87454 0 0)
(3.8765 0 0)
(3.87847 0 0)
(3.88043 0 0)
(3.88239 0 0)
(3.88435 0 0)
(3.8863 0 0)
(3.88825 0 0)
(3.8902 0 0)
(3.89215 0 0)
(3.89409 0 0)
(3.89604 0 0)
(3.89798 0 0)
(3.89992 0 0)
(3.90185 0 0)
(3.90378 0 0)
(3.90571 0 0)
(3.90764 0 0)
(3.90957 0 0)
(3.91149 0 0)
(3.91341 0 0)
(3.91533 0 0)
(3.91725 0 0)
(3.91916 0 0)
(3.92107 0 0)
(3.92298 0 0)
(3.92489 0 0)
(3.9268 0 0)
(3.9287 0 0)
(3.9306 0 0)
(3.9325 0 0)
(3.93439 0 0)
(3.93629 0 0)
(3.93818 0 0)
(3.94006 0 0)
(3.94195 0 0)
(3.94384 0 0)
(3.94572 0 0)
(3.9476 0 0)
(3.94945 0 0)
(3.95129 0 0)
(3.95317 0 0)
(3.95527 0 0)
(3.95763 0 0)
(3.95954 0 0)
(3.95907 0 0)
(3.95645 0 0)
(3.95532 0 0)
(3.95596 0 0)
(3.95642 0 0)
(3.95684 0 0)
(3.95725 0 0)
(3.95755 0 0)
(3.95763 0 0)
(3.95753 0 0)
(3.95739 0 0)
(3.95724 0 0)
(3.957 0 0)
(3.95657 0 0)
(3.95599 0 0)
(3.95535 0 0)
(3.95459 0 0)
(3.95372 0 0)
(3.95274 0 0)
(3.95159 0 0)
(3.95039 0 0)
(3.94907 0 0)
(3.94768 0 0)
(3.94622 0 0)
(3.94461 0 0)
(3.94285 0 0)
(3.94095 0 0)
(3.93894 0 0)
(3.93685 0 0)
(3.93469 0 0)
(3.93238 0 0)
(3.92991 0 0)
(3.92733 0 0)
(3.92466 0 0)
(3.92193 0 0)
(3.91908 0 0)
(3.91614 0 0)
(3.91311 0 0)
(3.9099 0 0)
(3.90656 0 0)
(3.90317 0 0)
(3.89965 0 0)
(3.89592 0 0)
(3.89211 0 0)
(3.88822 0 0)
(3.88421 0 0)
(3.88011 0 0)
(3.87593 0 0)
(3.8716 0 0)
(3.86715 0 0)
(3.86262 0 0)
(3.858 0 0)
(3.85322 0 0)
(3.84829 0 0)
(3.84322 0 0)
(3.83806 0 0)
(3.83282 0 0)
(3.82746 0 0)
(3.82201 0 0)
(3.81648 0 0)
(3.81076 0 0)
(3.80488 0 0)
(3.79886 0 0)
(3.79276 0 0)
(3.7866 0 0)
(3.78035 0 0)
(3.774 0 0)
(3.76748 0 0)
(3.7608 0 0)
(3.75397 0 0)
(3.74703 0 0)
(3.74 0 0)
(3.73282 0 0)
(3.72553 0 0)
(3.71816 0 0)
(3.71065 0 0)
(3.70304 0 0)
(3.69533 0 0)
(3.68741 0 0)
(3.67929 0 0)
(3.67099 0 0)
(3.6626 0 0)
(3.65419 0 0)
(3.64575 0 0)
(3.63728 0 0)
(3.62876 0 0)
(3.62002 0 0)
(3.61068 0 0)
(3.60056 0 0)
(3.58987 0 0)
(3.57958 0 0)
(3.57123 0 0)
(3.56614 0 0)
(3.56343 0 0)
(3.55814 0 0)
(3.54169 0 0)
(3.50692 0 0)
(3.45808 0 0)
(3.41952 0 0)
(3.43445 0 0)
(3.54659 0 0)
(3.75526 0 0)
(4.02508 0 0)
(4.02691 0 0)
(4.02874 0 0)
(4.03057 0 0)
(4.03239 0 0)
(4.03422 0 0)
(4.03604 0 0)
(4.03786 0 0)
(4.03968 0 0)
(4.04149 0 0)
(4.04331 0 0)
(4.04512 0 0)
(4.04693 0 0)
(4.04873 0 0)
(4.05054 0 0)
(4.05234 0 0)
(4.05414 0 0)
(4.05594 0 0)
(4.05774 0 0)
(4.05953 0 0)
(4.06133 0 0)
(4.06312 0 0)
(4.06491 0 0)
(4.06669 0 0)
(4.06848 0 0)
(4.07026 0 0)
(4.07204 0 0)
(4.07382 0 0)
(4.07559 0 0)
(4.07737 0 0)
(4.07914 0 0)
(4.08091 0 0)
(4.08268 0 0)
(4.08444 0 0)
(4.08621 0 0)
(4.08797 0 0)
(4.08973 0 0)
(4.09148 0 0)
(4.09324 0 0)
(4.09499 0 0)
(4.09675 0 0)
(4.0985 0 0)
(4.10024 0 0)
(4.10199 0 0)
(4.10373 0 0)
(4.10547 0 0)
(4.10721 0 0)
(4.10895 0 0)
(4.11069 0 0)
(4.11242 0 0)
(4.11415 0 0)
(4.11588 0 0)
(4.11761 0 0)
(4.11934 0 0)
(4.12106 0 0)
(4.12278 0 0)
(4.1245 0 0)
(4.12622 0 0)
(4.12794 0 0)
(4.12965 0 0)
(4.13136 0 0)
(4.13307 0 0)
(4.13478 0 0)
(4.13649 0 0)
(4.13819 0 0)
(4.1399 0 0)
(4.1416 0 0)
(4.1433 0 0)
(4.14499 0 0)
(4.14669 0 0)
(4.14838 0 0)
(4.15007 0 0)
(4.15176 0 0)
(4.15345 0 0)
(4.15514 0 0)
(4.15682 0 0)
(4.1585 0 0)
(4.16018 0 0)
(4.16186 0 0)
(4.16354 0 0)
(4.16521 0 0)
(4.16688 0 0)
(4.16855 0 0)
(4.1702 0 0)
(4.17188 0 0)
(4.17364 0 0)
(4.17547 0 0)
(4.17703 0 0)
(4.17764 0 0)
(4.17755 0 0)
(4.17746 0 0)
(4.17737 0 0)
(4.17728 0 0)
(4.1772 0 0)
(4.17711 0 0)
(4.17702 0 0)
(4.17694 0 0)
(4.17685 0 0)
(4.17676 0 0)
(4.17667 0 0)
(4.17659 0 0)
(4.1765 0 0)
(4.17641 0 0)
(4.17633 0 0)
(4.17624 0 0)
(4.17615 0 0)
(4.17607 0 0)
(4.17598 0 0)
(4.17589 0 0)
(4.17581 0 0)
(4.17572 0 0)
(4.17563 0 0)
(4.17555 0 0)
(4.17546 0 0)
(4.17538 0 0)
(4.17529 0 0)
(4.1752 0 0)
(4.17512 0 0)
(4.17503 0 0)
(4.17495 0 0)
(4.17486 0 0)
(4.17478 0 0)
(4.17469 0 0)
(4.1746 0 0)
(4.17452 0 0)
(4.17443 0 0)
(4.17435 0 0)
(4.17426 0 0)
(4.17418 0 0)
(4.17409 0 0)
(4.17401 0 0)
(4.17392 0 0)
(4.17384 0 0)
(4.17375 0 0)
(4.17367 0 0)
(4.17358 0 0)
(4.1735 0 0)
(4.17341 0 0)
(4.17333 0 0)
(4.17325 0 0)
(4.17316 0 0)
(4.17308 0 0)
(4.17299 0 0)
(4.17291 0 0)
(4.17282 0 0)
(4.17274 0 0)
(4.17266 0 0)
(4.17257 0 0)
(4.17249 0 0)
(4.1724 0 0)
(4.17232 0 0)
(4.17224 0 0)
(4.17215 0 0)
(4.17207 0 0)
(4.17199 0 0)
(4.1719 0 0)
(4.17182 0 0)
(4.17174 0 0)
(4.17165 0 0)
(4.17157 0 0)
(4.17149 0 0)
(4.1714 0 0)
(4.17132 0 0)
(4.17124 0 0)
(4.17115 0 0)
(4.17107 0 0)
(4.17099 0 0)
(4.17091 0 0)
(4.17082 0 0)
(4.17074 0 0)
(4.17066 0 0)
(4.17058 0 0)
(4.17049 0 0)
(4.17041 0 0)
(4.17033 0 0)
(4.17025 0 0)
(4.17017 0 0)
(4.17008 0 0)
(4.17 0 0)
(4.16992 0 0)
(4.16984 0 0)
(4.16976 0 0)
(4.16967 0 0)
(4.16959 0 0)
(4.16951 0 0)
(4.16943 0 0)
(4.16935 0 0)
(4.16927 0 0)
(4.16919 0 0)
(4.1691 0 0)
(4.16902 0 0)
(4.16894 0 0)
(4.16886 0 0)
(4.16878 0 0)
(4.1687 0 0)
(4.16862 0 0)
(4.16854 0 0)
(4.16846 0 0)
(4.16838 0 0)
(4.16829 0 0)
(4.16821 0 0)
(4.16813 0 0)
(4.16805 0 0)
(4.16797 0 0)
(4.16789 0 0)
(4.16781 0 0)
(4.16773 0 0)
(4.16765 0 0)
(4.16757 0 0)
(4.16749 0 0)
(4.16741 0 0)
(4.16733 0 0)
(4.16725 0 0)
(4.16717 0 0)
(4.16709 0 0)
(4.16701 0 0)
(4.16693 0 0)
(4.16685 0 0)
(4.16677 0 0)
(4.16669 0 0)
(4.16662 0 0)
(4.16654 0 0)
(4.16646 0 0)
(4.16638 0 0)
(4.1663 0 0)
(4.16622 0 0)
(4.16614 0 0)
(4.16606 0 0)
(4.16598 0 0)
(4.1659 0 0)
(4.16583 0 0)
(4.16575 0 0)
(4.16567 0 0)
(4.16559 0 0)
(4.16551 0 0)
(4.16543 0 0)
(4.16535 0 0)
(4.16528 0 0)
(4.1652 0 0)
(4.16512 0 0)
(4.16504 0 0)
(4.16497 0 0)
(4.16489 0 0)
(4.16481 0 0)
(4.16473 0 0)
(4.16466 0 0)
(4.16458 0 0)
(4.1645 0 0)
(4.16442 0 0)
(4.16434 0 0)
(4.16426 0 0)
(4.16418 0 0)
(4.1641 0 0)
(4.16402 0 0)
(4.16395 0 0)
(4.16387 0 0)
(4.1638 0 0)
(4.16372 0 0)
(4.16365 0 0)
(4.16358 0 0)
(4.16351 0 0)
(4.16344 0 0)
(4.16336 0 0)
(4.16329 0 0)
(4.16322 0 0)
(4.16316 0 0)
(4.1631 0 0)
(4.16294 0 0)
(4.16263 0 0)
(4.16226 0 0)
(4.16238 0 0)
(4.16388 0 0)
(4.16664 0 0)
(4.16695 0 0)
(4.15673 0 0)
(4.13172 0 0)
(4.11301 0 0)
(4.16638 0 0)
(4.37408 0 0)
(4.65643 0 0)
(4.41539 0 0)
(3.18006 0 0)
(2.00025 0 0)
(1.50665 0 0)
(1.37055 0 0)
(1.33909 0 0)
(1.33212 0 0)
(1.33051 0 0)
(1.33006 0 0)
(1.32984 0 0)
(1.32967 0 0)
(1.32951 0 0)
(1.32935 0 0)
(1.32919 0 0)
(1.32902 0 0)
(1.32884 0 0)
(1.32866 0 0)
(1.32848 0 0)
(1.32829 0 0)
(1.3281 0 0)
(1.3279 0 0)
(1.32771 0 0)
(1.3275 0 0)
(1.3273 0 0)
(1.3271 0 0)
(1.32689 0 0)
(1.32669 0 0)
(1.32648 0 0)
(1.32627 0 0)
(1.32607 0 0)
(1.32586 0 0)
(1.32566 0 0)
(1.32545 0 0)
(1.32524 0 0)
(1.32503 0 0)
(1.32482 0 0)
(1.3246 0 0)
(1.32438 0 0)
(1.32416 0 0)
(1.32393 0 0)
(1.32369 0 0)
(1.32345 0 0)
(1.3232 0 0)
(1.32295 0 0)
(1.32268 0 0)
(1.32242 0 0)
(1.32214 0 0)
(1.32186 0 0)
(1.32157 0 0)
(1.32128 0 0)
(1.32099 0 0)
(1.32069 0 0)
(1.3204 0 0)
(1.3201 0 0)
(1.31981 0 0)
(1.31952 0 0)
(1.31923 0 0)
(1.31894 0 0)
(1.31866 0 0)
(1.31839 0 0)
(1.31811 0 0)
(1.31784 0 0)
(1.31758 0 0)
(1.31731 0 0)
(1.31704 0 0)
(1.31677 0 0)
(1.3165 0 0)
(1.31623 0 0)
(1.31595 0 0)
(1.31566 0 0)
(1.31536 0 0)
(1.31506 0 0)
(1.31475 0 0)
(1.31442 0 0)
(1.31409 0 0)
(1.31375 0 0)
(1.31341 0 0)
(1.31306 0 0)
(1.31271 0 0)
(1.31235 0 0)
(1.312 0 0)
(1.31165 0 0)
(1.31131 0 0)
(1.31097 0 0)
(1.31065 0 0)
(1.31033 0 0)
(1.31003 0 0)
(1.30975 0 0)
(1.30947 0 0)
(1.30921 0 0)
(1.30897 0 0)
(1.30874 0 0)
(1.30851 0 0)
(1.3083 0 0)
(1.30809 0 0)
(1.30789 0 0)
(1.3077 0 0)
(1.30751 0 0)
(1.30732 0 0)
(1.30713 0 0)
(1.30695 0 0)
(1.30677 0 0)
(1.30661 0 0)
(1.30645 0 0)
(1.30632 0 0)
(1.30621 0 0)
(1.30613 0 0)
(1.30609 0 0)
(1.3061 0 0)
(1.30624 0 0)
(1.30675 0 0)
(1.30762 0 0)
(1.30867 0 0)
(1.30984 0 0)
(1.31113 0 0)
(1.31253 0 0)
(1.31406 0 0)
(1.31573 0 0)
(1.31752 0 0)
(1.31946 0 0)
(1.32154 0 0)
(1.32376 0 0)
(1.32612 0 0)
(1.32861 0 0)
(1.33124 0 0)
(1.33399 0 0)
(1.33686 0 0)
(1.33984 0 0)
(1.34291 0 0)
(1.34608 0 0)
(1.34932 0 0)
(1.35263 0 0)
(1.35598 0 0)
(1.35938 0 0)
(1.36281 0 0)
(1.36625 0 0)
(1.3697 0 0)
(1.37314 0 0)
(1.37657 0 0)
(1.37996 0 0)
(1.38332 0 0)
(1.38663 0 0)
(1.38988 0 0)
(1.39307 0 0)
(1.39618 0 0)
(1.39922 0 0)
(1.40218 0 0)
(1.40505 0 0)
(1.40782 0 0)
(1.4105 0 0)
(1.41309 0 0)
(1.41557 0 0)
(1.41795 0 0)
(1.42023 0 0)
(1.42241 0 0)
(1.42449 0 0)
(1.42647 0 0)
(1.42835 0 0)
(1.43013 0 0)
(1.43182 0 0)
(1.43341 0 0)
(1.43492 0 0)
(1.43635 0 0)
(1.43769 0 0)
(1.43895 0 0)
(1.44014 0 0)
(1.44126 0 0)
(1.44231 0 0)
(1.4433 0 0)
(1.44423 0 0)
(1.44511 0 0)
(1.44593 0 0)
(1.4467 0 0)
(1.44743 0 0)
(1.44812 0 0)
(1.44878 0 0)
(1.44939 0 0)
(1.44998 0 0)
(1.45053 0 0)
(1.45106 0 0)
(1.45157 0 0)
(1.45205 0 0)
(1.45251 0 0)
(1.45296 0 0)
(1.45338 0 0)
(1.4538 0 0)
(1.4542 0 0)
(1.45459 0 0)
(1.45496 0 0)
(1.45533 0 0)
(1.45569 0 0)
(1.45604 0 0)
(1.45638 0 0)
(1.45672 0 0)
(1.45705 0 0)
(1.45738 0 0)
(1.4577 0 0)
(1.45802 0 0)
(1.45833 0 0)
(1.45864 0 0)
(1.45895 0 0)
(1.45925 0 0)
(1.45955 0 0)
(1.45985 0 0)
(1.46015 0 0)
(1.46045 0 0)
(1.46074 0 0)
(1.46104 0 0)
(1.46133 0 0)
(1.46162 0 0)
(1.46191 0 0)
(1.4622 0 0)
(1.46249 0 0)
(1.46278 0 0)
(1.46306 0 0)
(1.46335 0 0)
(1.46364 0 0)
(1.46392 0 0)
(1.46421 0 0)
(1.46449 0 0)
(1.46478 0 0)
(1.46506 0 0)
(1.46535 0 0)
(1.46563 0 0)
(1.46592 0 0)
(1.4662 0 0)
(1.46649 0 0)
(1.46677 0 0)
(1.46705 0 0)
(1.46734 0 0)
(1.46762 0 0)
(1.46791 0 0)
(1.46819 0 0)
(1.46848 0 0)
(1.46876 0 0)
(1.46905 0 0)
(1.46933 0 0)
(1.46961 0 0)
(1.46989 0 0)
(1.47018 0 0)
(1.47046 0 0)
(1.47074 0 0)
(1.47102 0 0)
(1.4713 0 0)
(1.47158 0 0)
(1.47186 0 0)
(1.47213 0 0)
(1.47241 0 0)
(1.47268 0 0)
(1.47295 0 0)
(1.47322 0 0)
(1.47349 0 0)
(1.47376 0 0)
(1.47402 0 0)
(1.47428 0 0)
(1.47454 0 0)
(1.47479 0 0)
(1.47505 0 0)
(1.47529 0 0)
(1.47554 0 0)
(1.47578 0 0)
(1.47601 0 0)
(1.47624 0 0)
(1.47647 0 0)
(1.47669 0 0)
(1.4769 0 0)
(1.47711 0 0)
(1.47731 0 0)
(1.47751 0 0)
(1.47769 0 0)
(1.47787 0 0)
(1.47804 0 0)
(1.47821 0 0)
(1.47836 0 0)
(1.4785 0 0)
(1.47864 0 0)
(1.47876 0 0)
(1.47887 0 0)
(1.47897 0 0)
(1.47906 0 0)
(1.47914 0 0)
(1.4792 0 0)
(1.47924 0 0)
(1.47928 0 0)
(1.47929 0 0)
(1.47929 0 0)
(1.47928 0 0)
(1.47924 0 0)
(1.47919 0 0)
(1.47912 0 0)
(1.47903 0 0)
(1.47891 0 0)
(1.47878 0 0)
(1.47863 0 0)
(1.47845 0 0)
(1.47825 0 0)
(1.47802 0 0)
(1.47777 0 0)
(1.47749 0 0)
(1.47718 0 0)
(1.47685 0 0)
(1.47649 0 0)
(1.4761 0 0)
(1.47568 0 0)
(1.47523 0 0)
(1.47474 0 0)
(1.47423 0 0)
(1.47368 0 0)
(1.4731 0 0)
(1.47249 0 0)
(1.47184 0 0)
(1.47115 0 0)
(1.47043 0 0)
(1.46968 0 0)
(1.46889 0 0)
(1.46806 0 0)
(1.46719 0 0)
(1.46629 0 0)
(1.46535 0 0)
(1.46438 0 0)
(1.46337 0 0)
(1.46232 0 0)
(1.46124 0 0)
(1.46012 0 0)
(1.45896 0 0)
(1.45777 0 0)
(1.45655 0 0)
(1.45529 0 0)
(1.45399 0 0)
(1.45267 0 0)
(1.45131 0 0)
(1.44992 0 0)
(1.4485 0 0)
(1.44706 0 0)
(1.44558 0 0)
(1.44407 0 0)
(1.44254 0 0)
(1.44098 0 0)
(1.4394 0 0)
(1.43779 0 0)
(1.43616 0 0)
(1.43451 0 0)
(1.43283 0 0)
(1.43114 0 0)
(1.42942 0 0)
(1.42768 0 0)
(1.42593 0 0)
(1.42415 0 0)
(1.42236 0 0)
(1.42055 0 0)
(1.41872 0 0)
(1.41687 0 0)
(1.415 0 0)
(1.41312 0 0)
(1.41122 0 0)
(1.4093 0 0)
(1.40737 0 0)
(1.40542 0 0)
(1.40345 0 0)
(1.40146 0 0)
(1.39945 0 0)
(1.39742 0 0)
(1.39538 0 0)
(1.39331 0 0)
(1.39123 0 0)
(1.38913 0 0)
(1.387 0 0)
(1.38486 0 0)
(1.38269 0 0)
(1.38051 0 0)
(1.3783 0 0)
(1.37607 0 0)
(1.37383 0 0)
(1.37156 0 0)
(1.36926 0 0)
(1.36695 0 0)
(1.36462 0 0)
(1.36227 0 0)
(1.3599 0 0)
(1.35751 0 0)
(1.3551 0 0)
(1.35268 0 0)
(1.35023 0 0)
(1.34778 0 0)
(1.3453 0 0)
(1.34282 0 0)
(1.34032 0 0)
(1.33781 0 0)
(1.33529 0 0)
(1.33276 0 0)
(1.33022 0 0)
(1.32768 0 0)
(1.32514 0 0)
(1.32259 0 0)
(1.32004 0 0)
(1.3175 0 0)
(1.31495 0 0)
(1.31242 0 0)
(1.30988 0 0)
(1.30736 0 0)
(1.30484 0 0)
(1.30234 0 0)
(1.29985 0 0)
(1.29737 0 0)
(1.29491 0 0)
(1.29246 0 0)
(1.29004 0 0)
(1.28763 0 0)
(1.28525 0 0)
(1.28288 0 0)
(1.28054 0 0)
(1.27823 0 0)
(1.27593 0 0)
(1.27367 0 0)
(1.27143 0 0)
(1.26922 0 0)
(1.26703 0 0)
(1.26487 0 0)
(1.26275 0 0)
(1.26064 0 0)
(1.25857 0 0)
(1.25653 0 0)
(1.25451 0 0)
(1.25253 0 0)
(1.25057 0 0)
(1.24864 0 0)
(1.24674 0 0)
(1.24486 0 0)
(1.24302 0 0)
(1.2412 0 0)
(1.2394 0 0)
(1.23763 0 0)
(1.23589 0 0)
(1.23418 0 0)
(1.23248 0 0)
(1.23082 0 0)
(1.22917 0 0)
(1.22755 0 0)
(1.22595 0 0)
(1.22437 0 0)
(1.22282 0 0)
(1.22128 0 0)
(1.21976 0 0)
(1.21827 0 0)
(1.21679 0 0)
(1.21533 0 0)
(1.21389 0 0)
(1.21247 0 0)
(1.21106 0 0)
(1.20967 0 0)
(1.20829 0 0)
(1.20693 0 0)
(1.20558 0 0)
(1.20425 0 0)
(1.20294 0 0)
(1.20163 0 0)
(1.20034 0 0)
(1.19906 0 0)
(1.19779 0 0)
(1.19654 0 0)
(1.1953 0 0)
(1.19407 0 0)
(1.19285 0 0)
(1.19163 0 0)
(1.19043 0 0)
(1.18924 0 0)
(1.18806 0 0)
(1.18689 0 0)
(1.18573 0 0)
(1.18458 0 0)
(1.18344 0 0)
(1.1823 0 0)
(1.18117 0 0)
(1.18005 0 0)
(1.17894 0 0)
(1.17784 0 0)
(1.17674 0 0)
(1.17566 0 0)
(1.17457 0 0)
(1.1735 0 0)
(1.17243 0 0)
(1.17137 0 0)
(1.17032 0 0)
(1.16927 0 0)
(1.16823 0 0)
(1.1672 0 0)
(1.16617 0 0)
(1.16515 0 0)
(1.16414 0 0)
(1.16313 0 0)
(1.16212 0 0)
(1.16113 0 0)
(1.16014 0 0)
(1.15915 0 0)
(1.15817 0 0)
(1.15719 0 0)
(1.15623 0 0)
(1.15526 0 0)
(1.1543 0 0)
(1.15335 0 0)
(1.1524 0 0)
(1.15146 0 0)
(1.15052 0 0)
(1.14959 0 0)
(1.14866 0 0)
(1.14774 0 0)
(1.14682 0 0)
(1.14591 0 0)
(1.145 0 0)
(1.1441 0 0)
(1.1432 0 0)
(1.1423 0 0)
(1.14142 0 0)
(1.14053 0 0)
(1.13965 0 0)
(1.13878 0 0)
(1.13791 0 0)
(1.13704 0 0)
(1.13618 0 0)
(1.13532 0 0)
(1.13447 0 0)
(1.13362 0 0)
(1.13277 0 0)
(1.13193 0 0)
(1.1311 0 0)
(1.13027 0 0)
(1.12944 0 0)
(1.12862 0 0)
(1.1278 0 0)
(1.12698 0 0)
(1.12617 0 0)
(1.12536 0 0)
(1.12456 0 0)
(1.12376 0 0)
(1.12296 0 0)
(1.12217 0 0)
(1.12138 0 0)
(1.1206 0 0)
(1.11981 0 0)
(1.11904 0 0)
(1.11826 0 0)
(1.11749 0 0)
(1.11672 0 0)
(1.11596 0 0)
(1.1152 0 0)
(1.11444 0 0)
(1.11369 0 0)
(1.11293 0 0)
(1.11219 0 0)
(1.11144 0 0)
(1.1107 0 0)
(1.10996 0 0)
(1.10922 0 0)
(1.10848 0 0)
(1.10775 0 0)
(1.10702 0 0)
(1.10629 0 0)
(1.10557 0 0)
(1.10484 0 0)
(1.10412 0 0)
(1.1034 0 0)
(1.10268 0 0)
(1.10197 0 0)
(1.10125 0 0)
(1.10054 0 0)
(1.09983 0 0)
(1.09911 0 0)
(1.0984 0 0)
(1.0977 0 0)
(1.09699 0 0)
(1.09628 0 0)
(1.09557 0 0)
(1.09487 0 0)
(1.09416 0 0)
(1.09345 0 0)