/*--------------------------------*- C++ -*----------------------------------*\
| =========                 |                                                 |
| \\      /  F ield         | foam-extend: Open Source CFD                    |
|  \\    /   O peration     | Version:     3.1                                |
|   \\  /    A nd           | Web:         http://www.extend-project.de       |
|    \\/     M anipulation  |                                                 |
\*---------------------------------------------------------------------------*/
FoamFile
{
    version     2.0;
    format      ascii;
    class       volScalarField;
    location    "3";
    object      k;
}
// * * * * * * * * * * * * * * * * * * * * * * * * * * * * * * * * * * * * * //

dimensions      [0 2 -2 0 0 0 0];

internalField   nonuniform List<scalar> 
119952
(
0.01180265
0.01135226
0.01126643
0.01095697
0.0106509
0.01046998
0.01041852
0.01042964
0.01047327
0.01053519
0.01060604
0.01067945
0.01075169
0.01082016
0.01088347
0.01094124
0.01099403
0.01104438
0.01110236
0.01121468
0.01131576
0.01105999
0.01107964
0.0112172
0.01088086
0.01072826
0.01061039
0.0104885
0.01018359
0.009879601
0.01508415
0.01516526
0.0149219
0.01469136
0.01454076
0.01446443
0.01443782
0.01443879
0.0144502
0.01445905
0.01314413
0.01270116
0.01269802
0.01288846
0.01315813
0.01344777
0.01373506
0.01401523
0.01427585
0.01573929
0.01587544
0.01597127
0.01605498
0.0161515
0.01627633
0.0164352
0.0166281
0.01685029
0.01711025
0.01740664
0.01767252
0.01793419
0.01819722
0.0184651
0.01874023
0.01902439
0.0193195
0.01966521
0.0202424
0.02041769
0.02055643
0.02076173
0.02093966
0.02104653
0.02109631
0.02113069
0.02116362
0.02119889
0.02123886
0.02128445
0.02133559
0.02139188
0.02145275
0.02151753
0.02158572
0.02165761
0.02173588
0.02183128
0.02197041
0.02211132
0.02224963
0.02249492
0.02278235
0.02297072
0.02308849
0.02317103
0.02315644
0.02285772
0.02270735
0.02261872
0.02256584
0.02252423
0.02248497
0.02244569
0.0224057
0.02236563
0.02232623
0.02228822
0.02225223
0.02221874
0.02218811
0.02216056
0.02213608
0.02211456
0.02209619
0.02208147
0.02207063
0.02206342
0.02205936
0.02205807
0.02205943
0.02206293
0.02206875
0.02207692
0.02208738
0.02209999
0.02211457
0.02213086
0.02214861
0.02216756
0.02218745
0.02220808
0.02222924
0.02225079
0.02227257
0.02229445
0.02231632
0.02233806
0.02235958
0.02238079
0.02240161
0.02242199
0.02244188
0.02246125
0.02248012
0.02249891
0.02252231
0.02256921
0.0226106
0.02262813
0.02261753
0.02257975
0.0225201
0.02244499
0.02235994
0.0222698
0.02217844
0.0220889
0.02200335
0.02192313
0.02184897
0.02178118
0.02171973
0.02166436
0.02161458
0.02156983
0.02152948
0.02149291
0.02145953
0.02142875
0.02140007
0.02137301
0.02134714
0.02132208
0.02129753
0.02127319
0.02124883
0.02122422
0.0211992
0.0211736
0.0211473
0.02112021
0.02109221
0.02106324
0.02103324
0.02100213
0.02096988
0.02093642
0.02090173
0.02086579
0.02082856
0.02079007
0.02075032
0.02070938
0.02066738
0.02062519
0.02059151
0.01957168
0.01816858
0.01757408
0.01717855
0.01685244
0.01657021
0.01632451
0.0161101
0.01592252
0.01575726
0.01561016
0.01547758
0.01535653
0.01524462
0.01514002
0.01504128
0.01494727
0.01485708
0.01476998
0.0146854
0.01460287
0.01452204
0.01444259
0.01436432
0.01428704
0.01421064
0.01413506
0.01406029
0.01398643
0.01391361
0.01384215
0.01377265
0.01370629
0.01364424
0.01359397
0.01360038
0.01378732
0.01399252
0.01418331
0.0143544
0.01450589
0.01464115
0.01476338
0.01487543
0.01497962
0.01507768
0.01517092
0.0152603
0.01534658
0.0154303
0.01551189
0.01559165
0.01566985
0.01574667
0.01582227
0.01589679
0.01597032
0.01604295
0.01611474
0.01618576
0.01625606
0.01632567
0.01639461
0.01646286
0.01653045
0.01659737
0.01666362
0.01672923
0.01679447
0.01685812
0.019413
0.01943221
0.01944523
0.0194927
0.01959005
0.01973338
0.01990997
0.02010536
0.02030696
0.02050564
0.0206957
0.02087414
0.02103986
0.0211929
0.02133402
0.02146426
0.02158476
0.02169665
0.02180096
0.02189864
0.02199049
0.02207724
0.02215952
0.02223787
0.02231277
0.02238461
0.02245375
0.02252048
0.02258507
0.02264776
0.02270876
0.02276823
0.02282635
0.02288323
0.02293902
0.02299379
0.02304764
0.02310062
0.02315276
0.02320408
0.02325453
0.02330401
0.02335231
0.02339902
0.02344346
0.02348298
0.02351384
0.02354068
0.02356612
0.02359082
0.02361534
0.02363992
0.02366437
0.02369831
0.02370246
0.02366546
0.02362971
0.02360698
0.02360568
0.02362989
0.02367894
0.02374897
0.02383449
0.02392972
0.02402957
0.02413009
0.02422845
0.02432288
0.02441236
0.02449649
0.02457522
0.02464877
0.02471749
0.02478178
0.02484209
0.02489885
0.02495245
0.02500326
0.02505163
0.02509786
0.02514221
0.02518491
0.02522619
0.02526622
0.02530516
0.02534316
0.02538033
0.02541678
0.02545261
0.02548789
0.02552268
0.02555705
0.02559105
0.02562471
0.02565806
0.02569114
0.02572397
0.02575655
0.02578891
0.02582105
0.02585298
0.0258847
0.02591621
0.02594753
0.02597864
0.02600954
0.02604024
0.02607074
0.02610104
0.02613115
0.02616107
0.02619082
0.02622041
0.02624987
0.0262792
0.02630845
0.02633764
0.02636682
0.02639604
0.02642535
0.02645481
0.02648452
0.02651456
0.02654504
0.02657611
0.02660793
0.02664072
0.02667475
0.0267104
0.02674815
0.02678872
0.02683312
0.02688295
0.02694078
0.02701106
0.02710213
0.02723269
0.02747752
0.02786008
0.01826802
0.01695496
0.01651015
0.01647659
0.01662467
0.01682408
0.0170141
0.01716805
0.01728349
0.01689323
0.01693756
0.01748933
0.01819016
0.01886693
0.0194703
0.01997171
0.02038953
0.02073425
0.02339239
0.02344528
0.02348115
0.02348273
0.02350605
0.0235727
0.02369197
0.02386194
0.02407682
0.02431568
0.02461168
0.02487964
0.02511964
0.02535159
0.02558028
0.02580519
0.0260244
0.0262345
0.0264283
0.02662371
0.02676654
0.02684821
0.02689294
0.02690749
0.02689361
0.02685494
0.02679577
0.02671989
0.02663237
0.02653758
0.02643591
0.0263339
0.0262327
0.02613615
0.02604879
0.02597435
0.02591612
0.02587694
0.02804545
0.02802797
0.02803817
0.02807298
0.02812912
0.02820536
0.02829987
0.02841179
0.02853895
0.02868068
0.0288383
0.02900977
0.02919257
0.02938555
0.02958804
0.02979866
0.03001901
0.03025089
0.03050049
0.03072257
0.03090244
0.03108728
0.03127544
0.03145468
0.03160648
0.03173664
0.03185275
0.03195848
0.03205656
0.03214916
0.03223786
0.03232391
0.03240838
0.03249224
0.03257653
0.03266264
0.03275313
0.03285207
0.03296538
0.03309299
0.03323016
0.03339244
0.03357482
0.03373224
0.0338458
0.03392392
0.03394797
0.03391832
0.03388904
0.0338994
0.03392825
0.03396696
0.03400931
0.03405221
0.03409412
0.0341342
0.0341721
0.03420774
0.03424124
0.03427281
0.03430277
0.03433145
0.03435922
0.03438646
0.03441358
0.03444106
0.03446937
0.03449892
0.03453
0.03456283
0.03459767
0.0346346
0.03467361
0.03471495
0.03475868
0.03480475
0.03485306
0.03490346
0.03495572
0.0350096
0.03506485
0.03512119
0.03517838
0.03523617
0.03529435
0.03535271
0.03541108
0.0354693
0.0355272
0.03558466
0.03564157
0.03569782
0.03575334
0.03580809
0.03586211
0.03591563
0.03596921
0.03602379
0.03607893
0.03613367
0.03618862
0.03624198
0.03629178
0.03633633
0.03637439
0.03640531
0.03642902
0.03644594
0.03645683
0.0364627
0.03646462
0.03646367
0.03646087
0.03645707
0.036453
0.03644919
0.03644603
0.03644377
0.03644252
0.03644232
0.0364431
0.03644476
0.03644715
0.03645009
0.0364534
0.03645691
0.03646043
0.03646379
0.03646685
0.03646946
0.03647151
0.03647289
0.0364735
0.03647329
0.03647217
0.03647009
0.03646702
0.03646292
0.03645774
0.03645149
0.03644414
0.03643572
0.03642623
0.03641575
0.03640438
0.03639246
0.03638037
0.0363687
0.03485522
0.03406181
0.03381009
0.03370425
0.03363368
0.033568
0.03349982
0.03342851
0.03335531
0.03328172
0.03320897
0.03313793
0.03306912
0.03300279
0.03293904
0.03287781
0.03281899
0.0327624
0.03270785
0.03265516
0.03260414
0.03255461
0.03250642
0.03245947
0.03241365
0.03236892
0.03232527
0.03228277
0.03224155
0.03220189
0.03216424
0.0321294
0.03209881
0.03207529
0.03206513
0.03207851
0.03211067
0.03215392
0.0322029
0.03225499
0.03230855
0.03236245
0.03241589
0.03246831
0.03251935
0.0325688
0.03261657
0.03266265
0.0327071
0.03274999
0.03279143
0.03283152
0.03287038
0.0329081
0.0329448
0.03298055
0.03301543
0.03304952
0.03308287
0.03311553
0.03314753
0.03317892
0.03320971
0.03323992
0.03326954
0.03329857
0.03332696
0.03335464
0.03338133
0.03340296
0.03591513
0.03598769
0.03603474
0.03606395
0.03608237
0.03609577
0.03610842
0.03612302
0.03614132
0.03616402
0.03619116
0.03622235
0.03625697
0.03629433
0.03633374
0.03637457
0.03641626
0.03645837
0.03650051
0.03654241
0.03658384
0.03662464
0.0366647
0.03670396
0.03674237
0.03677992
0.03681663
0.03685252
0.03688763
0.03692199
0.03695567
0.03698871
0.03702117
0.0370531
0.03708454
0.03711554
0.03714613
0.03717632
0.03720613
0.03723552
0.03726445
0.03729285
0.03732059
0.03734747
0.03737315
0.03739695
0.03741863
0.03743876
0.03745784
0.03747613
0.03749382
0.03751095
0.03752794
0.03754475
0.03755853
0.03756903
0.0375771
0.03758306
0.03758758
0.03759165
0.03759638
0.03760282
0.03761176
0.03762368
0.03763876
0.03765692
0.03767788
0.03770126
0.0377266
0.03775345
0.03778141
0.03781007
0.03783914
0.03786834
0.03789748
0.0379264
0.037955
0.03798321
0.038011
0.03803836
0.03806528
0.0380918
0.03811793
0.03814373
0.03816923
0.03819447
0.03821949
0.03824432
0.03826901
0.03829358
0.03831807
0.03834249
0.03836686
0.03839119
0.0384155
0.03843979
0.03846406
0.03848831
0.03851253
0.03853671
0.03856085
0.03858494
0.03860895
0.03863289
0.03865673
0.03868047
0.03870408
0.03872758
0.03875095
0.03877418
0.03879728
0.03882025
0.03884311
0.03886587
0.03888854
0.03891117
0.03893378
0.03895642
0.03897913
0.039002
0.03902508
0.03904848
0.0390723
0.03909666
0.03912173
0.0391477
0.03917481
0.03920335
0.03923372
0.03926643
0.03930217
0.03934185
0.03938676
0.03943865
0.03949995
0.03957439
0.03966931
0.03979346
0.03991889
0.03643133
0.03945209
0.04252699
0.04571668
0.0484192
0.05052818
0.05227702
0.05361542
0.05490539
0.05857823
0.08958329
0.09334012
0.09343292
0.09260172
0.09140501
0.09007438
0.08855468
0.08686636
0.08496626
0.09398262
0.09174031
0.08952741
0.08746781
0.08548278
0.08350049
0.08149412
0.07946645
0.07743108
0.07542521
0.07335572
0.07123997
0.06919362
0.06725588
0.06542556
0.06369151
0.06203925
0.06045344
0.05895584
0.05741176
0.05584447
0.05432613
0.05287691
0.05149687
0.05018566
0.04894139
0.04776156
0.04664421
0.04559147
0.04458336
0.04363149
0.04273098
0.04188052
0.04108466
0.04034617
0.03966758
0.03904901
0.04115199
0.0406168
0.04014305
0.03972983
0.03937189
0.03906615
0.03881103
0.03860498
0.03844622
0.03832993
0.03825229
0.0382112
0.03819999
0.03821126
0.03823864
0.03827575
0.03831628
0.03835463
0.03838475
0.03840123
0.03840048
0.03838014
0.03833713
0.0382695
0.03817668
0.03805923
0.0379189
0.03775778
0.03757923
0.03738806
0.03718821
0.03698406
0.03678082
0.03658325
0.03639557
0.03622176
0.03606497
0.03593373
0.03579542
0.03568546
0.03560395
0.03555024
0.03552351
0.03552292
0.03554693
0.03559421
0.03566269
0.03575152
0.03585896
0.03598257
0.03612096
0.03627301
0.03643765
0.03661341
0.03679996
0.03699475
0.03719524
0.03738288
0.03755745
0.03773451
0.0379125
0.03807317
0.03821078
0.03833122
0.03844077
0.03854332
0.03864116
0.03873583
0.03882849
0.03892003
0.03901121
0.03910276
0.03919555
0.03929078
0.03939036
0.03949669
0.03961278
0.03973825
0.03987096
0.04001509
0.04016219
0.04028934
0.04038577
0.0404507
0.04048133
0.04048119
0.04048285
0.04050757
0.04055092
0.04060389
0.0406622
0.04072347
0.04078621
0.0408493
0.04091201
0.0409739
0.04103468
0.04109423
0.04115249
0.0412095
0.04126532
0.04132007
0.04137396
0.04142722
0.04148014
0.04153301
0.04158606
0.04163957
0.04169378
0.04174896
0.04180515
0.04186265
0.04192162
0.04198213
0.04204417
0.04210771
0.04217261
0.04223874
0.04230591
0.04237392
0.04244257
0.04251165
0.04258099
0.0426504
0.04271973
0.04278883
0.04285757
0.04292583
0.04299349
0.04306045
0.04312666
0.04319206
0.0432567
0.04332071
0.0433843
0.04344769
0.04351034
0.04357175
0.04363234
0.04369197
0.04375015
0.04380623
0.04385948
0.04390926
0.04395508
0.04399665
0.04403394
0.04406713
0.04409654
0.04412262
0.0441459
0.04416691
0.04418616
0.04420413
0.04422118
0.04423764
0.04425374
0.04426963
0.04428539
0.04430107
0.04431665
0.04433207
0.04434727
0.04436217
0.04437667
0.04439067
0.04440409
0.04441682
0.0444288
0.04443996
0.04445023
0.04445956
0.0444679
0.04447522
0.0444815
0.0444867
0.04449082
0.04449384
0.04449577
0.04449663
0.04449645
0.04449528
0.04449316
0.04449004
0.04448507
0.04447385
0.04442824
0.04444772
0.04447343
0.04449284
0.04450436
0.04450848
0.04450594
0.04449738
0.04448363
0.04446545
0.0444436
0.04441879
0.04439164
0.0443627
0.04433243
0.04430123
0.04426939
0.04423717
0.04420475
0.04417229
0.04413988
0.04410764
0.04407564
0.04404396
0.0440127
0.04398192
0.04395178
0.04392245
0.04389419
0.0438674
0.04384269
0.04382066
0.04380283
0.04379126
0.04378719
0.04378794
0.04379398
0.04380427
0.04381771
0.04383349
0.04385097
0.04386971
0.04388937
0.0439096
0.0439302
0.04395099
0.04397184
0.04399263
0.04401325
0.04403365
0.0440538
0.04407366
0.04409322
0.04411251
0.04413158
0.04415019
0.04416854
0.04418664
0.04420447
0.04422202
0.0442393
0.04425631
0.04427306
0.04428945
0.04430552
0.04432126
0.04433674
0.04435186
0.04436798
0.04439243
0.04436327
0.04434998
0.04434474
0.04434313
0.0443429
0.04434312
0.04434357
0.04434442
0.04434631
0.04434962
0.04435466
0.04436159
0.04437046
0.04438123
0.04439377
0.0444079
0.04442343
0.04444015
0.04445786
0.04447635
0.04449546
0.04451504
0.04453495
0.04455508
0.04457536
0.0445957
0.04461606
0.04463641
0.04465673
0.04467699
0.04469722
0.0447174
0.04473755
0.04475768
0.04477781
0.04479793
0.04481806
0.04483818
0.04485829
0.04487835
0.04489832
0.04491814
0.04493771
0.04495692
0.04497558
0.04499345
0.04501036
0.04502641
0.04504182
0.04505672
0.04507122
0.04508538
0.04509927
0.04511288
0.04512566
0.04513727
0.04514781
0.0451573
0.04516582
0.04517352
0.04518063
0.04518746
0.04519434
0.04520157
0.04520941
0.04521805
0.04522761
0.04523815
0.04524964
0.04526204
0.04527526
0.0452892
0.04530375
0.04531882
0.0453343
0.04535012
0.04536621
0.04538251
0.04539898
0.0454156
0.04543236
0.04544925
0.04546628
0.04548344
0.04550075
0.04551823
0.04553589
0.04555374
0.0455718
0.04559006
0.04560855
0.04562727
0.04564621
0.04566538
0.04568477
0.04570436
0.04572415
0.04574412
0.04576425
0.04578453
0.04580493
0.04582543
0.045846
0.04586663
0.0458873
0.04590797
0.04592864
0.04594929
0.0459699
0.04599046
0.04601097
0.04603142
0.04605183
0.0460722
0.04609255
0.04611291
0.04613331
0.04615379
0.0461744
0.04619522
0.0462163
0.04623776
0.04625969
0.04628224
0.04630555
0.04632982
0.04635528
0.04638223
0.04641104
0.04644214
0.04647614
0.04651377
0.04655596
0.0466039
0.046659
0.04672308
0.046798
0.04688339
0.04696213
0.03214612
0.03799832
0.04330004
0.07090329
0.09582134
0.1275753
0.1451182
0.161471
0.1755848
0.1883373
0.1986446
0.2060633
0.2113526
0.2147576
0.2166577
0.2172792
0.2167769
0.2151891
0.2125032
0.2087881
0.2043327
0.1997046
0.1947568
0.1895564
0.1841922
0.1786887
0.1731134
0.1675426
0.1620098
0.1565028
0.1509881
0.1506009
0.1457285
0.140884
0.1361349
0.1315166
0.1270459
0.1227319
0.1185816
0.1145962
0.1107676
0.1070923
0.1035695
0.1001902
0.09695152
0.09385101
0.09088547
0.08805118
0.08534422
0.08275506
0.08027514
0.07790684
0.07564448
0.07348007
0.07140934
0.06942899
0.06753666
0.06573016
0.06400675
0.06236633
0.06080788
0.05932865
0.05792825
0.05660712
0.05536511
0.05420172
0.05311654
0.05211259
0.05114522
0.05026417
0.04946754
0.048751
0.04811166
0.04754744
0.04705606
0.04663437
0.0462784
0.04598349
0.0457448
0.04555693
0.04541327
0.04530718
0.04523191
0.04518033
0.04514513
0.04511917
0.04509564
0.04506813
0.04503109
0.04498017
0.04491217
0.04482484
0.04471665
0.04458695
0.04443611
0.04426547
0.04407735
0.04387503
0.04366215
0.04344297
0.04322212
0.04300421
0.0427936
0.04259437
0.04241003
0.04224407
0.04209743
0.04197204
0.0418698
0.0417923
0.04174016
0.04171323
0.0417107
0.04173148
0.04177414
0.0418373
0.04191926
0.04201831
0.04213308
0.04226237
0.04240502
0.04255947
0.04272401
0.04289562
0.04307222
0.04324971
0.04342093
0.04358082
0.04373171
0.04387006
0.0439936
0.04410485
0.04420798
0.04430611
0.04440114
0.04449437
0.04458682
0.04467926
0.04477234
0.04486664
0.04496282
0.04506174
0.04516453
0.04527247
0.04538674
0.04550705
0.04563158
0.04575926
0.04588482
0.04599673
0.04608714
0.04615408
0.04619843
0.04622563
0.04625193
0.04628874
0.04633791
0.04639589
0.04645947
0.04652685
0.0465969
0.04666876
0.04674177
0.04681546
0.04688948
0.04696358
0.04703755
0.04711122
0.04718448
0.04725724
0.04732947
0.04740121
0.04747252
0.04754348
0.04761421
0.04768484
0.04775554
0.04782646
0.04789777
0.04796964
0.04804222
0.0481156
0.04818984
0.04826493
0.04834083
0.04841744
0.04849462
0.04857222
0.04865006
0.04872795
0.04880571
0.04888315
0.04896007
0.04903629
0.04911193
0.04918699
0.04926138
0.049335
0.0494078
0.04947973
0.0495508
0.04962105
0.04969054
0.04975926
0.0498269
0.04989312
0.04995802
0.05002168
0.05008404
0.05014491
0.05020406
0.05026116
0.05031591
0.05036803
0.05041736
0.05046381
0.05050741
0.05054826
0.05058658
0.0506226
0.05065659
0.05068883
0.05071958
0.05074907
0.0507775
0.05080501
0.05083171
0.05085769
0.05088297
0.05090757
0.05093147
0.05095465
0.05097707
0.05099867
0.05101942
0.05103926
0.05105814
0.05107603
0.05109289
0.05110869
0.05112341
0.05113702
0.0511495
0.05116086
0.05117108
0.05118017
0.05118815
0.05119502
0.05120084
0.05120563
0.05120942
0.05121218
0.05121357
0.0512125
0.05120691
0.05120668
0.05121059
0.05121622
0.05122175
0.05122603
0.05122849
0.05122851
0.05122581
0.05122061
0.05121299
0.05120307
0.05119105
0.05117717
0.05116164
0.05114471
0.05112658
0.05110744
0.05108748
0.05106689
0.05104569
0.05102409
0.05100219
0.05098017
0.05095825
0.05093621
0.05091448
0.05089328
0.05087289
0.05085376
0.05083624
0.0508208
0.05080858
0.05080005
0.05079308
0.05078882
0.05078767
0.05078931
0.05079321
0.05079887
0.05080587
0.05081391
0.05082283
0.05083226
0.05084197
0.05085204
0.05086237
0.05087286
0.05088345
0.05089409
0.05090474
0.0509154
0.05092605
0.05093677
0.05094744
0.05095785
0.05096828
0.05097869
0.05098906
0.05099936
0.05100958
0.05101972
0.05102984
0.05103976
0.05104938
0.05105896
0.05106835
0.05107738
0.0510865
0.05109567
0.05109915
0.05110076
0.05110188
0.05110284
0.0511036
0.05110401
0.05110397
0.05110357
0.05110296
0.05110235
0.05110193
0.05110189
0.0511024
0.05110358
0.05110549
0.05110819
0.05111167
0.05111592
0.0511209
0.05112657
0.05113287
0.05113974
0.05114713
0.05115499
0.05116326
0.05117192
0.05118093
0.05119027
0.05119992
0.05120987
0.05122012
0.05123066
0.0512415
0.05125264
0.05126407
0.0512758
0.05128783
0.05130013
0.0513127
0.05132549
0.05133848
0.0513516
0.05136479
0.05137797
0.05139104
0.05140385
0.05141631
0.05142842
0.05144024
0.05145184
0.05146328
0.05147457
0.05148574
0.05149677
0.05150749
0.05151776
0.05152756
0.0515369
0.05154575
0.05155408
0.0515619
0.05156924
0.05157615
0.05158273
0.05158909
0.05159531
0.05160152
0.05160779
0.05161419
0.05162078
0.0516276
0.05163466
0.05164198
0.05164957
0.05165743
0.05166556
0.05167397
0.05168265
0.05169162
0.05170089
0.05171047
0.05172037
0.05173061
0.05174121
0.05175218
0.05176354
0.0517753
0.05178748
0.05180008
0.05181311
0.05182658
0.05184048
0.0518548
0.05186954
0.05188468
0.05190021
0.05191611
0.05193235
0.05194892
0.05196578
0.05198291
0.05200027
0.05201785
0.0520356
0.0520535
0.05207152
0.05208964
0.05210783
0.05212608
0.05214436
0.05216268
0.05218102
0.05219939
0.05221779
0.05223624
0.05225475
0.05227337
0.05229214
0.05231109
0.05233031
0.05234986
0.05236983
0.05239035
0.05241153
0.05243355
0.05245657
0.05248085
0.05250664
0.05253429
0.05256421
0.05259689
0.05263292
0.05267303
0.05271804
0.05276883
0.05282628
0.05289067
0.05295972
0.05301999
0.01791779
0.02078855
0.02364674
0.03393418
0.04613929
0.06786667
0.08161582
0.09539153
0.1094113
0.1230524
0.1365621
0.1507163
0.165372
0.1796468
0.1936776
0.2091054
0.2370869
0.2464108
0.2548493
0.2613707
0.2664881
0.2702067
0.271765
0.2714147
0.2695878
0.266268
0.2613561
0.2555597
0.2493392
0.2427883
0.2360809
0.2293782
0.222826
0.2163859
0.2100687
0.20391
0.1979245
0.1921145
0.186484
0.1810241
0.1757593
0.170606
0.165106
0.159834
0.1547394
0.1497841
0.1449734
0.1403193
0.1358275
0.1314989
0.1273325
0.1233242
0.1194692
0.1157621
0.1121985
0.1087759
0.1054912
0.1023403
0.09931891
0.09642242
0.0936458
0.09098308
0.0884291
0.08598068
0.08363473
0.08138761
0.07923536
0.07717426
0.07520096
0.07331254
0.07150684
0.06978167
0.06813544
0.06656769
0.06507799
0.06366626
0.0623316
0.06107476
0.05989379
0.05878836
0.05775905
0.05680576
0.05592914
0.05513
0.05440843
0.05376389
0.05319461
0.0526982
0.05227149
0.05191039
0.05160998
0.05136471
0.05116847
0.05101453
0.05089563
0.0508043
0.05073296
0.05067405
0.0506201
0.05056468
0.05050257
0.05042966
0.05034259
0.05023863
0.05011594
0.04997375
0.04981237
0.04963315
0.04943846
0.04923147
0.04901596
0.04879616
0.04857646
0.04836125
0.04815468
0.04796057
0.04778225
0.04762231
0.04748287
0.04736595
0.04727306
0.04720491
0.04716155
0.0471425
0.0471469
0.04717359
0.04722122
0.04728816
0.04737217
0.04747142
0.04758508
0.04771251
0.04785365
0.04800567
0.04816494
0.04832676
0.04848149
0.04862787
0.04876714
0.0488998
0.04902401
0.04913848
0.04924439
0.04934426
0.04944032
0.04953412
0.0496268
0.04971926
0.04981221
0.04990622
0.05000181
0.05009945
0.05019971
0.05030321
0.05041051
0.05052195
0.05063698
0.05075399
0.05087096
0.05098413
0.05108716
0.05117512
0.05124658
0.05130285
0.05134822
0.05139152
0.05144003
0.05149592
0.05155799
0.05162468
0.05169493
0.05176808
0.05184357
0.05192096
0.05199991
0.05208017
0.05216149
0.05224367
0.05232651
0.05240982
0.05249343
0.0525772
0.05266102
0.0527448
0.0528285
0.05291209
0.05299558
0.05307903
0.0531625
0.05324609
0.05332992
0.05341409
0.0534987
0.05358381
0.05366946
0.05375563
0.05384229
0.05392937
0.05401678
0.05410441
0.05419216
0.05427988
0.05436746
0.05445477
0.05454169
0.0546281
0.05471391
0.054799
0.05488329
0.05496672
0.05504922
0.05513078
0.05521139
0.05529101
0.0553696
0.05544693
0.05552277
0.05559708
0.05566988
0.05574119
0.05581095
0.0558791
0.05594552
0.05601007
0.05607258
0.05613295
0.05619108
0.05624692
0.0563005
0.05635189
0.0564012
0.05644856
0.05649415
0.05653811
0.0565806
0.05662176
0.0566617
0.05670051
0.05673825
0.05677496
0.05681066
0.05684534
0.05687899
0.05691158
0.05694308
0.05697346
0.05700267
0.0570307
0.0570575
0.05708305
0.05710732
0.0571303
0.05715197
0.05717232
0.05719135
0.05720906
0.05722545
0.05724055
0.05725438
0.05726696
0.05727835
0.05728857
0.05729764
0.0573055
0.05731193
0.05731678
0.05732121
0.05732584
0.05733074
0.05733568
0.05734026
0.05734415
0.05734711
0.05734855
0.05734855
0.05734698
0.05734381
0.05733901
0.05733265
0.0573248
0.05731555
0.05730502
0.05729334
0.05728063
0.05726718
0.0572529
0.05723774
0.05722186
0.0572058
0.05718947
0.05717271
0.0571561
0.05713982
0.0571241
0.05710929
0.05709567
0.05708378
0.05707396
0.05706484
0.0570571
0.05705139
0.05704785
0.05704632
0.05704647
0.05704799
0.05705057
0.05705397
0.05705803
0.05706264
0.05706744
0.05707253
0.05707784
0.05708331
0.05708891
0.0570946
0.05710036
0.0571062
0.0571121
0.05711808
0.05712406
0.05713009
0.05713618
0.05714231
0.05714848
0.05715466
0.05716085
0.05716703
0.05717321
0.05717941
0.05718538
0.05719128
0.05719702
0.05720262
0.0572081
0.05721333
0.05721758
0.05722093
0.05722357
0.05722563
0.05722716
0.05722813
0.05722852
0.05722835
0.05722765
0.05722652
0.05722507
0.0572234
0.05722165
0.05721993
0.05721834
0.05721696
0.05721587
0.05721511
0.05721472
0.05721473
0.05721514
0.05721597
0.05721721
0.05721887
0.05722093
0.0572234
0.05722628
0.05722956
0.05723326
0.05723737
0.0572419
0.05724687
0.05725228
0.05725813
0.05726444
0.05727121
0.05727842
0.05728609
0.05729418
0.05730267
0.05731152
0.0573207
0.05733015
0.0573398
0.05734959
0.05735942
0.05736923
0.057379
0.05738874
0.05739846
0.05740819
0.05741793
0.05742769
0.05743743
0.05744709
0.0574566
0.05746592
0.05747504
0.05748393
0.05749254
0.05750082
0.05750872
0.05751621
0.05752328
0.05752993
0.05753618
0.05754206
0.05754761
0.05755289
0.05755795
0.05756283
0.05756758
0.05757227
0.05757693
0.05758162
0.05758637
0.05759125
0.05759629
0.05760153
0.05760703
0.05761283
0.05761896
0.05762546
0.05763238
0.05763974
0.05764758
0.05765592
0.05766478
0.05767418
0.05768413
0.05769464
0.05770571
0.05771733
0.0577295
0.05774221
0.05775543
0.05776914
0.05778333
0.05779796
0.057813
0.05782843
0.0578442
0.05786028
0.05787664
0.05789326
0.05791008
0.05792709
0.05794426
0.05796156
0.05797898
0.05799651
0.05801413
0.05803185
0.05804967
0.0580676
0.05808567
0.05810391
0.05812237
0.05814109
0.05816014
0.05817961
0.05819959
0.0582202
0.05824157
0.05826387
0.0582873
0.05831208
0.05833848
0.05836684
0.05839754
0.05843103
0.05846782
0.05850852
0.05855376
0.05860416
0.05866021
0.05872166
0.05878581
0.05884068
0.008520829
0.01004004
0.01132587
0.01779184
0.02515355
0.03509383
0.04280705
0.05134399
0.06034031
0.06975013
0.07972046
0.0912832
0.1036136
0.1169682
0.1326156
0.1586478
0.1714114
0.1845985
0.1977408
0.2107563
0.223561
0.2361631
0.2482709
0.2596071
0.2697193
0.2783988
0.2858973
0.2918394
0.2950658
0.2962929
0.29594
0.2940654
0.2901331
0.2840837
0.2768693
0.2686928
0.2598241
0.2506407
0.2414834
0.232576
0.2240809
0.2160884
0.2086535
0.2017703
0.1954057
0.1895225
0.184078
0.1790241
0.1743034
0.1698634
0.1656554
0.1616281
0.1576946
0.15386
0.1500981
0.146327
0.1425804
0.1388873
0.1352688
0.1317363
0.1282958
0.1249498
0.121698
0.1185398
0.1154754
0.1125048
0.1096274
0.1068423
0.1041479
0.1015425
0.0990241
0.09658937
0.09423538
0.091961
0.08976507
0.0876455
0.08559974
0.0836253
0.08171999
0.07988188
0.07810937
0.07640134
0.07475721
0.07317685
0.07166038
0.07020835
0.0688212
0.06750009
0.06624565
0.06505874
0.06394017
0.06289133
0.06191418
0.06101064
0.06018198
0.05942916
0.05875216
0.0581503
0.057622
0.05716466
0.05677472
0.05644775
0.05617835
0.05596029
0.05578658
0.05565037
0.05554462
0.05546126
0.05539029
0.05532413
0.05525899
0.05519021
0.0551132
0.05502388
0.05491899
0.05479647
0.05465544
0.05449626
0.05432042
0.05413043
0.05392954
0.0537216
0.05351081
0.05330149
0.05309788
0.05290392
0.05272314
0.05255863
0.05241296
0.05228834
0.05218643
0.05210824
0.05205418
0.05202419
0.05201779
0.05203401
0.05207195
0.05213118
0.0522105
0.05230695
0.05241821
0.05254169
0.05267378
0.05281346
0.05295875
0.05310663
0.05325288
0.05339479
0.05353175
0.05366351
0.0537891
0.05390777
0.05402006
0.05412744
0.05423149
0.05433345
0.05443434
0.05453498
0.05463604
0.05473808
0.05484154
0.05494682
0.05505426
0.05516416
0.05527671
0.05539178
0.0555087
0.05562606
0.05574195
0.05585361
0.05595733
0.05605007
0.05613089
0.05620082
0.05626284
0.05632204
0.05638306
0.05644803
0.05651701
0.05658943
0.0566648
0.05674277
0.05682306
0.05690545
0.05698974
0.0570758
0.05716347
0.05725262
0.05734307
0.05743467
0.05752723
0.05762059
0.05771459
0.05780909
0.05790397
0.05799914
0.05809454
0.05819015
0.05828598
0.05838207
0.05847847
0.05857527
0.05867252
0.05877028
0.05886858
0.05896743
0.05906681
0.05916668
0.05926699
0.05936767
0.05946866
0.05956986
0.05967121
0.05977264
0.05987408
0.05997519
0.06007574
0.06017564
0.06027477
0.06037307
0.06047046
0.06056689
0.06066231
0.06075667
0.06084987
0.06094174
0.0610321
0.06112084
0.06120792
0.0612933
0.06137697
0.06145887
0.06153896
0.06161718
0.06169345
0.06176773
0.06183997
0.06191016
0.0619783
0.06204447
0.06210871
0.06217114
0.06223186
0.06229097
0.06234857
0.06240477
0.06245963
0.06251321
0.06256554
0.06261663
0.0626665
0.06271511
0.06276244
0.06280846
0.06285312
0.06289639
0.06293823
0.06297858
0.06301742
0.06305472
0.06309044
0.06312457
0.06315709
0.06318799
0.06321726
0.06324491
0.06327094
0.06329536
0.0633182
0.0633395
0.06335929
0.06337763
0.06339455
0.06341006
0.06342415
0.0634368
0.06344815
0.06345844
0.0634679
0.06347662
0.06348458
0.06349169
0.06349784
0.06350286
0.06350665
0.06350915
0.06351027
0.06351
0.06350834
0.0635053
0.06350093
0.06349529
0.06348845
0.0634805
0.0634716
0.06346208
0.06345135
0.06343965
0.06342751
0.0634149
0.06340199
0.06338899
0.06337608
0.06336351
0.06335155
0.06334052
0.06333074
0.06332115
0.06331223
0.06330461
0.06329859
0.06329423
0.06329141
0.06328993
0.06328956
0.06329006
0.06329126
0.06329298
0.0632951
0.06329748
0.06330006
0.0633028
0.06330564
0.06330857
0.06331156
0.06331461
0.06331771
0.06332087
0.06332409
0.06332736
0.0633307
0.0633341
0.06333756
0.06334108
0.06334464
0.06334824
0.06335186
0.06335548
0.06335909
0.06336263
0.06336611
0.06336948
0.06337273
0.06337583
0.06337871
0.06338118
0.06338316
0.06338466
0.0633857
0.0633863
0.06338645
0.06338615
0.06338539
0.06338419
0.06338258
0.06338061
0.06337832
0.06337579
0.06337309
0.06337028
0.06336744
0.06336463
0.0633619
0.0633593
0.06335688
0.06335467
0.0633527
0.063351
0.0633496
0.0633485
0.06334775
0.06334736
0.06334735
0.06334774
0.06334855
0.06334982
0.06335156
0.06335379
0.06335653
0.0633598
0.06336361
0.06336796
0.06337285
0.06337827
0.06338421
0.06339063
0.06339751
0.06340478
0.06341242
0.06342035
0.06342852
0.06343688
0.0634454
0.06345406
0.06346287
0.06347182
0.0634809
0.06349011
0.0634994
0.06350874
0.06351808
0.06352739
0.06353663
0.06354579
0.0635548
0.06356361
0.06357217
0.06358041
0.06358828
0.06359574
0.06360275
0.06360932
0.06361542
0.06362109
0.06362633
0.06363119
0.0636357
0.06363991
0.06364389
0.06364768
0.06365135
0.06365497
0.06365859
0.0636623
0.06366616
0.06367022
0.06367456
0.06367924
0.06368431
0.06368982
0.06369581
0.06370234
0.06370943
0.06371711
0.06372541
0.06373433
0.0637439
0.0637541
0.06376494
0.0637764
0.06378848
0.06380115
0.06381438
0.06382816
0.06384244
0.0638572
0.06387239
0.06388799
0.06390395
0.06392025
0.06393684
0.06395369
0.06397077
0.06398807
0.06400555
0.0640232
0.06404102
0.06405899
0.06407714
0.06409547
0.06411401
0.06413278
0.06415185
0.06417126
0.06419109
0.06421143
0.06423237
0.06425406
0.06427662
0.06430024
0.06432511
0.06435148
0.06437963
0.06440986
0.06444257
0.06447816
0.06451713
0.06456
0.06460729
0.06465952
0.06471697
0.06477922
0.06484345