/*--------------------------------*- C++ -*----------------------------------*\
| =========                 |                                                 |
| \\      /  F ield         | foam-extend: Open Source CFD                    |
|  \\    /   O peration     | Version:     3.1                                |
|   \\  /    A nd           | Web:         http://www.extend-project.de       |
|    \\/     M anipulation  |                                                 |
\*---------------------------------------------------------------------------*/
FoamFile
{
    version     2.0;
    format      ascii;
    class       volScalarField;
    location    "3";
    object      p;
}
// * * * * * * * * * * * * * * * * * * * * * * * * * * * * * * * * * * * * * //

dimensions      [1 -1 -2 0 0 0 0];

internalField   nonuniform List<scalar> 
119952
(
8976.83
8764.801
8712.728
8727.734
8746.273
8705.395
8682.274
8661.229
8641.871
8623.129
8604.832
8586.862
8569.034
8551.337
8533.67
8515.959
8498.05
8479.507
8458.832
8428.704
8466.385
8416.346
8388.163
8439.689
8408.801
8401.506
8388.279
8389.441
8432.636
7083.698
8811.664
8807.166
8807.797
8807.976
8808.022
8807.224
8806.059
8804.707
8803.774
8796.326
8776.199
8771.574
8764.656
8757.469
8749.984
8742.401
8734.637
8726.347
8717.743
8683.374
8670.536
8658.881
8649.394
8639.407
8629.425
8619.43
8609.248
8598.784
8588.299
8575.89
8565.328
8554.745
8543.711
8532.661
8521.548
8510.404
8500.203
8496.769
8504.887
8472.516
8454.815
8450.787
8440.539
8422.695
8402.626
8383.837
8365.711
8347.914
8330.446
8313.205
8296.111
8279.102
8262.123
8245.105
8227.954
8210.551
8192.965
8175.961
8162.917
8148.547
8131.933
8128.698
8129.366
8116.555
8104.598
8092.427
8070.278
8020.33
8000.519
7990.34
7977.116
7964.055
7950.429
7936.534
7922.488
7908.33
7894.096
7879.8
7865.453
7851.059
7836.618
7822.127
7807.582
7792.978
7778.307
7763.564
7748.741
7733.833
7718.835
7703.739
7688.541
7673.236
7657.818
7642.283
7626.63
7610.855
7594.958
7578.936
7562.791
7546.521
7530.129
7513.616
7496.985
7480.238
7463.38
7446.414
7429.346
7412.181
7394.924
7377.58
7360.157
7342.66
7325.094
7307.46
7289.754
7271.967
7254.23
7236.849
7219.38
7201.609
7183.973
7166.333
7148.733
7131.176
7113.676
7096.242
7078.886
7061.619
7044.448
7027.384
7010.438
6993.619
6976.937
6960.402
6944.022
6927.807
6911.766
6895.906
6880.236
6864.763
6849.496
6834.441
6819.605
6804.994
6790.614
6776.472
6762.573
6748.92
6735.52
6722.376
6709.493
6696.873
6684.519
6672.435
6660.623
6649.085
6637.823
6626.837
6616.129
6605.699
6595.547
6585.673
6576.075
6566.747
6557.678
6548.843
6540.411
6564.286
6556.09
6548.464
6541.109
6534.004
6527.152
6520.558
6514.224
6508.145
6502.317
6496.737
6491.404
6486.314
6481.463
6476.848
6472.464
6468.309
6464.376
6460.663
6457.164
6453.876
6450.793
6447.911
6445.223
6442.726
6440.412
6438.275
6436.307
6434.501
6432.842
6431.315
6429.895
6428.539
6427.163
6425.495
6423.412
6424.241
6424.805
6425.298
6425.814
6426.396
6427.06
6427.813
6428.661
6429.605
6430.644
6431.779
6433.008
6434.33
6435.741
6437.242
6438.828
6440.498
6442.249
6444.079
6445.985
6447.964
6450.014
6452.132
6454.316
6456.564
6458.872
6461.239
6463.663
6466.142
6468.673
6471.257
6473.893
6476.586
6479.29
6454.602
6455.502
6457.343
6460.103
6462.842
6465.678
6468.562
6471.49
6474.451
6477.436
6480.443
6483.468
6486.508
6489.564
6492.632
6495.712
6498.801
6501.898
6505.003
6508.112
6511.227
6514.344
6517.463
6520.583
6523.702
6526.82
6529.936
6533.049
6536.157
6539.26
6542.358
6545.45
6548.534
6551.611
6554.68
6557.742
6560.795
6563.841
6566.879
6569.913
6572.943
6575.976
6579.021
6582.094
6585.205
6588.247
6591.01
6593.668
6596.379
6599.094
6601.811
6604.533
6607.255
6609.865
6611.551
6614.632
6617.444
6620.017
6622.576
6625.12
6627.645
6630.154
6632.645
6635.115
6637.563
6639.987
6642.387
6644.763
6647.113
6649.439
6651.739
6654.014
6656.262
6658.485
6660.681
6662.851
6664.994
6667.109
6669.197
6671.258
6673.29
6675.295
6677.271
6679.218
6681.136
6683.025
6684.885
6686.715
6688.514
6690.283
6692.021
6693.728
6695.404
6697.048
6698.66
6700.239
6701.785
6703.298
6704.778
6706.223
6707.634
6709.01
6710.35
6711.655
6712.923
6714.154
6715.348
6716.503
6717.62
6718.697
6719.734
6720.73
6721.685
6722.596
6723.464
6724.286
6725.063
6725.791
6726.47
6727.098
6727.671
6728.189
6728.646
6729.041
6729.366
6729.618
6729.786
6729.862
6729.832
6729.675
6729.364
6728.857
6728.088
6726.949
6725.251
6722.722
6719.606
6720.151
6736.652
8390.89
8404.513
8416.319
8428.103
8440.659
8452.675
8464.731
8476.944
8488.549
8477.494
8489.524
8497.146
8504.473
8511.364
8518.387
8524.863
8531.155
8536.72
8515.377
8521.114
8522.554
8526.008
8529.828
8533.313
8536.56
8539.54
8542.172
8544.569
8546.136
8546.176
8547.54
8548.308
8548.635
8548.586
8548.176
8547.398
8546.441
8545.34
8540.701
8537.653
8534.956
8531.696
8527.894
8523.666
8519.005
8513.924
8508.221
8501.775
8495.91
8489.128
8481.841
8474.372
8466.701
8458.722
8450.547
8442.056
8369.679
8360.968
8351.511
8341.646
8331.662
8321.632
8311.49
8301.156
8290.597
8279.915
8269.282
8258.297
8247.114
8235.97
8224.969
8214.202
8203.961
8194.51
8185.712
8176.092
8162.486
8147.554
8134.446
8121.334
8105.988
8088.754
8071.051
8053.589
8036.381
8019.313
8002.339
7985.45
7968.629
7951.855
7935.112
7918.411
7901.842
7885.616
7870.101
7855.659
7842.291
7830.07
7819.859
7810.512
7798.762
7784.246
7766.748
7746.123
7721.754
7700.395
7684.443
7670.246
7656.147
7641.906
7627.637
7613.377
7599.1
7584.789
7570.444
7556.065
7541.652
7527.199
7512.701
7498.152
7483.544
7468.871
7454.125
7439.299
7424.387
7409.383
7394.281
7379.074
7363.759
7348.329
7332.782
7317.115
7301.324
7285.41
7269.37
7253.204
7236.914
7220.5
7203.964
7187.309
7170.538
7153.655
7136.665
7119.573
7102.384
7085.103
7067.738
7050.294
7032.778
7015.198
6997.562
6979.885
6962.192
6944.524
6926.904
6909.298
6891.619
6873.949
6856.309
6838.705
6821.146
6803.644
6786.211
6768.856
6751.59
6734.425
6717.369
6700.434
6683.628
6666.961
6650.443
6634.083
6617.889
6601.871
6586.037
6570.395
6554.952
6539.716
6524.694
6509.893
6495.319
6480.978
6466.876
6453.018
6439.408
6426.052
6412.954
6400.117
6387.545
6375.241
6363.207
6351.446
6339.96
6328.75
6317.817
6307.163
6296.788
6286.692
6276.874
6267.335
6258.076
6249.104
6240.447
6232.065
6287.3
6279.47
6271.774
6264.401
6257.296
6250.455
6243.877
6237.557
6231.493
6225.681
6220.118
6214.802
6209.728
6204.894
6200.295
6195.927
6191.787
6187.87
6184.171
6180.687
6177.412
6174.343
6171.473
6168.798
6166.313
6164.01
6161.884
6159.927
6158.129
6156.481
6154.967
6153.568
6152.257
6151.008
6149.84
6148.97
6148.881
6149.143
6149.499
6149.949
6150.49
6151.128
6151.863
6152.697
6153.631
6154.664
6155.793
6157.019
6158.338
6159.749
6161.249
6162.836
6164.507
6166.259
6168.091
6169.998
6171.98
6174.032
6176.152
6178.339
6180.589
6182.9
6185.27
6187.697
6190.178
6192.713
6195.3
6197.944
6200.652
6203.458
6145.582
6148.413
6151.056
6153.741
6156.548
6159.426
6162.336
6165.273
6168.238
6171.226
6174.235
6177.262
6180.306
6183.363
6186.434
6189.515
6192.606
6195.706
6198.812
6201.924
6205.04
6208.159
6211.279
6214.401
6217.522
6220.641
6223.759
6226.872
6229.982
6233.086
6236.185
6239.277
6242.363
6245.44
6248.51
6251.572
6254.625
6257.671
6260.709
6263.74
6266.766
6269.789
6272.809
6275.822
6278.81
6281.735
6284.562
6287.326
6290.074
6292.815
6295.549
6298.278
6301.005
6303.709
6306.258
6308.751
6311.311
6313.875
6316.419
6318.948
6321.465
6323.967
6326.452
6328.916
6331.357
6333.776
6336.17
6338.54
6340.885
6343.205
6345.499
6347.768
6350.011
6352.228
6354.419
6356.583
6358.721
6360.831
6362.914
6364.969
6366.997
6368.996
6370.967
6372.909
6374.822
6376.705
6378.559
6380.383
6382.177
6383.94
6385.672
6387.373
6389.043
6390.68
6392.286
6393.859
6395.398
6396.905
6398.377
6399.815
6401.219
6402.587
6403.92
6405.217
6406.477
6407.7
6408.886
6410.033
6411.141
6412.21
6413.238
6414.225
6415.169
6416.071
6416.929
6417.741
6418.507
6419.225
6419.893
6420.51
6421.072
6421.578
6422.024
6422.407
6422.721
6422.962
6423.122
6423.191
6423.16
6423.011
6422.728
6422.284
6421.656
6420.827
6419.858
6418.951
6418.783
6419.781
6422.603
7000.852
7138.156
7280.672
7421.546
7557.188
7686.022
7802.259
7903.801
7989.004
8053.08
8087.729
8123.418
8147.239
8161.139
8167.055
8167.347
8163.612
8157.025
8149.973
8108.019
8099.054
8090.654
8083.386
8077.395
8072.813
8069.697
8068.054
8067.995
8070.029
8070.668
8074.016
8078.492
8083.837
8089.997
8096.896
8104.413
8112.5
8121.607
8128.894
8136.36
8145.708
8154.902
8164.006
8173.05
8181.935
8190.674
8199.254
8207.049
8215.064
8222.841
8229.986
8236.84
8243.549
8249.979
8256.172
8262.567
8206.692
8211.776
8216.652
8220.795
8224.417
8227.75
8230.831
8233.611
8236.037
8238.006
8239.667
8240.995
8241.763
8242.119
8242.19
8241.964
8241.39
8240.427
8238.999
8237.119
8234.768
8231.794
8228.419
8224.771
8220.796
8216.425
8211.635
8206.409
8200.763
8194.763
8188.303
8181.476
8174.364
8166.963
8159.269
8151.289
8143.008
8134.51
8125.939
8116.801
8107.065
8097.223
8087.396
8077.479
8067.404
8057.124
8046.669
8036.014
8025.18
8014.225
8003.197
7992.154
7981.153
7970.28
7959.525
7948.946
7938.351
7927.712
7914.999
7900.689
7886.725
7872.775
7857.68
7841.318
7824.417
7807.505
7790.683
7773.907
7757.166
7740.477
7723.847
7707.281
7690.794
7674.431
7658.273
7642.457
7627.165
7612.639
7598.916
7585.81
7573.586
7561.752
7548.696
7533.643
7516.855
7498.113
7477.802
7458.572
7442.226
7427.255
7412.633
7398.079
7383.602
7369.2
7354.832
7340.467
7326.093
7311.703
7297.289
7282.844
7268.359
7253.826
7239.238
7224.587
7209.864
7195.063
7180.175
7165.195
7150.116
7134.932
7119.638
7104.229
7088.701
7073.052
7057.278
7041.378
7025.351
7009.196
6992.916
6976.509
6959.979
6943.328
6926.559
6909.677
6892.685
6875.59
6858.398
6841.113
6823.742
6806.292
6788.772
6771.189
6753.555
6735.883
6718.191
6700.497
6682.821
6665.154
6647.464
6629.776
6612.112
6594.484
6576.9
6559.371
6541.911
6524.528
6507.234
6490.04
6472.955
6455.99
6439.155
6422.458
6405.91
6389.52
6373.297
6357.249
6341.385
6325.713
6310.241
6294.976
6279.925
6265.095
6250.493
6236.124
6221.994
6208.109
6194.472
6181.09
6167.966
6155.103
6142.506
6130.177
6118.119
6106.335
6094.825
6083.593
6072.639
6061.963
6051.568
6041.452
6031.616
6022.06
6012.784
6003.786
5995.058
5986.561
5978.254
5970.477
5962.927
5955.617
5948.573
5941.794
5935.276
5929.014
5923.008
5917.254
5911.749
5906.489
5901.472
5896.693
5892.148
5887.835
5883.747
5879.883
5876.236
5872.803
5869.579
5866.559
5863.738
5861.112
5858.674
5856.419
5854.341
5852.433
5850.687
5849.095
5847.65
5846.342
5845.169
5844.141
5843.287
5842.742
5842.55
5842.637
5842.899
5843.292
5843.803
5844.427
5845.159
5845.997
5846.94
5847.984
5849.128
5850.369
5851.705
5853.133
5854.651
5856.255
5857.944
5859.714
5861.563
5863.488
5865.486
5867.555
5869.692
5871.895
5874.16
5876.486
5878.871
5881.311
5883.805
5886.351
5888.947
5891.592
5894.278
5897.003
5899.668
5902.313
5905.042
5907.862
5910.738
5913.648
5916.58
5919.535
5922.511
5925.507
5928.521
5931.553
5934.6
5937.661
5940.734
5943.818
5946.912
5950.013
5953.122
5956.235
5959.353
5962.474
5965.597
5968.721
5971.844
5974.966
5978.086
5981.202
5984.314
5987.421
5990.522
5993.617
5996.705
5999.785
6002.857
6005.921
6008.976
6012.022
6015.059
6018.088
6021.108
6024.119
6027.118
6030.1
6033.053
6035.962
6038.809
6041.605
6044.376
6047.133
6049.876
6052.604
6055.309
6057.993
6060.654
6063.246
6065.797
6068.334
6070.864
6073.387
6075.901
6078.402
6080.886
6083.351
6085.795
6088.215
6090.613
6092.985
6095.334
6097.657
6099.954
6102.226
6104.472
6106.693
6108.886
6111.053
6113.194
6115.307
6117.393
6119.451
6121.481
6123.483
6125.456
6127.401
6129.317
6131.203
6133.06
6134.886
6136.682
6138.448
6140.183
6141.886
6143.558
6145.198
6146.806
6148.381
6149.923
6151.431
6152.906
6154.346
6155.751
6157.122
6158.456
6159.755
6161.017
6162.242
6163.429
6164.578
6165.688
6166.758
6167.788
6168.776
6169.723
6170.626
6171.486
6172.301
6173.069
6173.789
6174.46
6175.08
6175.646
6176.157
6176.609
6176.999
6177.323
6177.577
6177.755
6177.85
6177.856
6177.763
6177.564
6177.253
6176.836
6176.34
6175.845
6175.485
6175.49
6176.118
6177.392
6130.197
6140.057
6149.222
6150.587
6169.401
6170.322
6212.024
6267.121
6337.643
6411.721
6495.315
6597.969
6713.369
6839.237
6972.473
7106.878
7237.161
7359.672
7470.806
7567.996
7650.136
7718.312
7770.756
7807.964
7833.562
7849.591
7858.063
7860.971
7860.037
7856.456
7852.519
7776.904
7772.61
7768.355
7763.087
7758.508
7755.392
7753.758
7753.494
7754.522
7756.738
7760.054
7764.246
7769.314
7775.29
7782.08
7789.538
7797.531
7805.935
7814.619
7823.523
7832.358
7841.259
7850.309
7859.424
7868.487
7877.414
7886.149
7894.643
7902.892
7910.793
7918.342
7925.614
7932.611
7939.306
7945.68
7951.678
7957.382
7962.729
7967.704
7972.079
7975.991
7979.629
7983.026
7986.132
7988.897
7991.287
7993.307
7994.942
7996.116
7996.883
7997.31
7997.409
7997.159
7996.532
7995.498
7994.059
7992.198
7989.8
7986.886
7983.622
7980.053
7976.125
7971.79
7967.038
7961.886
7956.323
7950.347
7944.014
7937.344
7930.334
7923
7915.361
7907.43
7899.231
7890.766
7881.972
7872.769
7863.255
7853.588
7843.799
7833.839
7823.687
7813.334
7802.795
7792.07
7781.198
7770.215
7759.13
7747.966
7736.761
7725.576
7714.387
7703.194
7691.774
7679.999
7667.152
7653.41
7639.379
7625.042
7610
7594.16
7577.836
7561.35
7544.828
7528.294
7511.762
7495.259
7478.806
7462.424
7446.141
7430.002
7414.071
7398.442
7383.225
7368.531
7354.373
7340.646
7327.3
7314.011
7299.993
7284.768
7268.363
7250.81
7232.636
7215.143
7198.885
7183.51
7168.564
7153.823
7139.223
7124.729
7110.3
7095.902
7081.515
7067.125
7052.722
7038.294
7023.832
7009.326
6994.766
6980.144
6965.45
6950.678
6935.82
6920.868
6905.815
6890.655
6875.384
6859.996
6844.487
6828.853
6813.093
6797.205
6781.187
6765.039
6748.762
6732.357
6715.827
6699.172
6682.398
6665.507
6648.505
6631.397
6614.19
6596.888
6579.498
6562.029
6544.489
6526.887
6509.235
6491.543
6473.826
6456.098
6438.371
6420.647
6402.916
6385.193
6367.493
6349.828
6332.207
6314.644
6297.147
6279.729
6262.4
6245.17
6228.049
6211.048
6194.178
6177.446
6160.864
6144.439
6128.182
6112.101
6096.205
6080.501
6064.997
6049.701
6034.62
6019.761
6005.13
5990.734
5976.577
5962.666
5949.005
5935.598
5922.451
5909.566
5896.948
5884.599
5872.521
5860.718
5849.191
5837.943
5826.973
5816.283
5805.874
5795.746
5785.899
5776.333
5767.046
5758.038
5749.304
5740.842
5732.66
5724.83
5717.261
5709.94
5702.883
5696.091
5689.56
5683.287
5677.27
5671.505
5665.99
5660.721
5655.695
5650.907
5646.355
5642.034
5637.94
5634.069
5630.417
5626.978
5623.749
5620.725
5617.901
5615.272
5612.832
5610.577
5608.501
5606.598
5604.863
5603.289
5601.873
5600.612
5599.509
5598.574
5597.85
5597.365
5597.146
5597.162
5597.355
5597.691
5598.157
5598.746
5599.451
5600.268
5601.194
5602.224
5603.357
5604.589
5605.918
5607.34
5608.853
5610.453
5612.139
5613.907
5615.754
5617.677
5619.675
5621.743
5623.88
5626.083
5628.349
5630.675
5633.06
5635.5
5637.994
5640.538
5643.13
5645.766
5648.437
5651.141
5653.853
5656.59
5659.38
5662.216
5665.088
5667.992
5670.923
5673.878
5676.857
5679.856
5682.875
5685.911
5688.963
5692.029
5695.107
5698.196
5701.295
5704.401
5707.514
5710.633
5713.755
5716.881
5720.008
5723.136
5726.263
5729.389
5732.513
5735.633
5738.749
5741.86
5744.965
5748.063
5751.154
5754.237
5757.312
5760.378
5763.434
5766.481
5769.518
5772.544
5775.558
5778.559
5781.544
5784.509
5787.445
5790.346
5793.201
5796.018
5798.807
5801.576
5804.326
5807.057
5809.765
5812.453
5815.112
5817.718
5820.289
5822.845
5825.392
5827.927
5830.448
5832.953
5835.439
5837.906
5840.352
5842.774
5845.174
5847.549
5849.9
5852.226
5854.527
5856.802
5859.052
5861.275
5863.472
5865.642
5867.785
5869.902
5871.99
5874.052
5876.085
5878.09
5880.066
5882.014
5883.932
5885.821
5887.681
5889.51
5891.309
5893.078
5894.815
5896.521
5898.196
5899.838
5901.448
5903.026
5904.57
5906.081
5907.558
5909.001
5910.409
5911.782
5913.119
5914.42
5915.684
5916.912
5918.101
5919.253
5920.365
5921.438
5922.471
5923.463
5924.412
5925.319
5926.183
5927.001
5927.774
5928.499
5929.176
5929.802
5930.376
5930.896
5931.359
5931.763
5932.104
5932.379
5932.585
5932.718
5932.774
5932.75
5932.647
5932.47
5932.236
5931.977
5931.752
5931.643
5931.762
5932.172
5932.891
6039.814
6033.526
6028.127
6000.532
5983.011
5934.524
5919.283
5904.354
5890.97
5879.403
5870.1
5862.036
5859.01
5860.986
5868.235
5882.476
5850.84
5888.771
5935.685
5995.014
6069.359
6160.245
6266.749
6386.297
6516.267
6652.365
6789.781
6923.295
7047.75
7159.793
7256.991
7338.249
7403.72
7453.846
7489.673
7513.587
7528.102
7535.325
7537.052
7534.887
7530.292
7524.243
7516.981
7511.813
7508.073
7504.511
7501.476
7499.625
7499.121
7499.886
7501.854
7504.952
7509.025
7513.982
7519.82
7526.473
7533.833
7541.777
7550.186
7558.959
7568.007
7577.176
7586.32
7595.539
7604.857
7614.183
7623.414
7632.483
7641.345
7649.964
7658.292
7666.306
7674.019
7681.421
7688.498
7695.241
7701.646
7707.686
7713.418
7718.762
7723.62
7728.021
7732.065
7735.814
7739.25
7742.34
7745.064
7747.415
7749.389
7750.961
7752.131
7752.934
7753.379
7753.462
7753.175
7752.506
7751.441
7749.968
7748.06
7745.688
7742.876
7739.675
7736.115
7732.172
7727.829
7723.085
7717.946
7712.408
7706.486
7700.21
7693.582
7686.605
7679.299
7671.682
7663.763
7655.551
7647.03
7638.197
7629.067
7619.667
7610.038
7600.211
7590.19
7579.973
7569.563
7558.967
7548.195
7537.273
7526.204
7515.013
7503.715
7492.314
7480.849
7469.264
7457.556
7445.638
7433.292
7420.299
7406.608
7392.456
7377.929
7362.906
7347.34
7331.37
7315.188
7298.907
7282.574
7266.222
7249.879
7233.575
7217.339
7201.202
7185.205
7169.401
7153.852
7138.622
7123.754
7109.245
7095.011
7080.932
7066.788
7052.196
7036.88
7020.823
7004.168
6987.229
6970.558
6954.509
6939.07
6924.027
6909.216
6894.561
6880.024
6865.565
6851.155
6836.77
6822.392
6808.01
6793.608
6779.176
6764.702
6750.177
6735.59
6720.932
6706.194
6691.368
6676.446
6661.422
6646.288
6631.039
6615.671
6600.178
6584.558
6568.808
6552.926
6536.911
6520.763
6504.483
6488.071
6471.529
6454.861
6438.07
6421.159
6404.133
6386.997
6369.758
6352.423
6334.998
6317.491
6299.913
6282.272
6264.579
6246.845
6229.082
6211.301
6193.514
6175.725
6157.937
6140.161
6122.407
6104.69
6087.018
6069.404
6051.857
6034.39
6017.013
5999.736
5982.569
5965.523
5948.608
5931.834
5915.21
5898.744
5882.448
5866.328
5850.395
5834.655
5819.117
5803.788
5788.675
5773.786
5759.126
5744.702
5730.52
5716.584
5702.9
5689.472
5676.305
5663.402
5650.767
5638.403
5626.312
5614.497
5602.959
5591.701
5580.724
5570.028
5559.614
5549.483
5539.635
5530.069
5520.784
5511.781
5503.06
5494.622
5486.472
5478.619
5471.036
5463.717
5456.663
5449.874
5443.348
5437.081
5431.071
5425.314
5419.807
5414.547
5409.53
5404.752
5400.209
5395.898
5391.815
5387.955
5384.313
5380.886
5377.669
5374.657
5371.846
5369.231
5366.807
5364.568
5362.511
5360.631
5358.922
5357.381
5356.007
5354.799
5353.761
5352.904
5352.242
5351.795
5351.572
5351.553
5351.707
5352.011
5352.453
5353.023
5353.715
5354.523
5355.443
5356.471
5357.603
5358.836
5360.167
5361.592
5363.108
5364.714
5366.404
5368.178
5370.031
5371.96
5373.964
5376.039
5378.183
5380.392
5382.665
5384.998
5387.388
5389.835
5392.333
5394.882
5397.477
5400.116
5402.793
5405.508
5408.25
5411.02
5413.823
5416.663
5419.537
5422.443
5425.379
5428.339
5431.324
5434.33
5437.355
5440.398
5443.456
5446.529
5449.613
5452.709
5455.814
5458.927
5462.047
5465.172
5468.301
5471.433
5474.566
5477.7
5480.833
5483.964
5487.093
5490.219
5493.34
5496.455
5499.565
5502.667
5505.762
5508.849
5511.927
5514.995
5518.054
5521.101
5524.137
5527.161
5530.171
5533.166
5536.143
5539.098
5542.027
5544.924
5547.786
5550.615
5553.417
5556.196
5558.954
5561.689
5564.401
5567.088
5569.745
5572.366
5574.96
5577.536
5580.096
5582.64
5585.166
5587.674
5590.164
5592.632
5595.08
5597.504
5599.906
5602.284
5604.637
5606.966
5609.269
5611.547
5613.799
5616.025
5618.225
5620.398
5622.544
5624.663
5626.755
5628.819
5630.855
5632.863
5634.842
5636.792
5638.714
5640.605
5642.468
5644.3
5646.102
5647.873
5649.613
5651.322
5652.999
5654.645
5656.258
5657.838
5659.385
5660.899
5662.379
5663.824
5665.236
5666.611
5667.952
5669.256
5670.524
5671.755
5672.948
5674.103
5675.219
5676.296
5677.333
5678.329
5679.284
5680.196
5681.065
5681.89
5682.67
5683.403
5684.089
5684.725
5685.311
5685.844
5686.323
5686.746
5687.111
5687.415
5687.657
5687.835
5687.948
5687.997
5687.987
5687.927
5687.834
5687.736
5687.675
5687.701
5687.872
5688.189
5688.71
6016.121
5999.336
5979.181
5945.513
5924.704
5871.853
5852.391
5833.443
5815.113
5797.217
5779.199
5761.714
5744.611
5727.631
5709.952
5632.115
5616.896
5602.007
5588.146
5575.768
5565.112
5556.491
5550.989
5549.808
5553.274
5562.846
5580.328
5610.881
5652.93
5707.968
5778.287
5865.808
5970.44
6089.965
6220.213
6357.236
6495.817
6630.702
6756.932
6870.736
6969.636
7052.469
7119.27
7170.842
7208.526
7234.437
7250.931
7260.155
7263.974
7263.905
7261.354
7257.589
7253.068
7249.132
7246.234
7243.877
7242.274
7241.791
7242.552
7244.517
7247.615
7251.759
7256.842
7262.787
7269.527
7276.976
7285.034
7293.598
7302.564
7311.833
7321.307
7330.876
7340.472
7350.094
7359.72
7369.287
7378.723
7387.973
7396.997
7405.76
7414.229
7422.391
7430.234
7437.741
7444.904
7451.719
7458.183
7464.282
7470.012
7475.339
7480.242
7484.748
7488.885
7492.668
7496.094
7499.156
7501.848
7504.168
7506.11
7507.669
7508.85
7509.662
7510.104
7510.175
7509.872
7509.181
7508.086
7506.584
7504.68
7502.346
7499.567
7496.36
7492.779
7488.809
7484.443
7479.681
7474.527
7468.985
7463.066
7456.784
7450.146
7443.163
7435.849
7428.218
7420.276
7412.029
7403.479
7394.637
7385.512
7376.112
7366.463
7356.594
7346.518
7336.239
7325.763
7315.097
7304.25
7293.256
7282.031
7270.68
7259.201
7247.602
7235.859
7223.978
7211.897
7199.547
7186.801
7173.553
7159.771
7145.55
7130.953
7115.952
7100.538
7084.788
7068.82
7052.722
7036.548
7020.334
7004.114
6987.92
6971.783
6955.736
6939.814
6924.058
6908.509
6893.203
6878.156
6863.353
6848.726
6834.172
6819.545
6804.642
6789.309
6773.533
6757.42
6741.153
6725.018
6709.253
6693.9
6678.861
6664.037
6649.368
6634.819
6620.356
6605.951
6591.58
6577.225
6562.87
6548.5
6534.103
6519.666
6505.177
6490.627
6476.003
6461.298
6446.503
6431.608
6416.607
6401.493
6386.26
6370.903
6355.417
6339.799
6324.046
6308.157
6292.13
6275.966
6259.664
6243.227
6226.657
6209.956
6193.128
6176.177
6159.109
6141.93
6124.646
6107.265
6089.793
6072.238
6054.61
6036.919
6019.174
6001.386
5983.567
5965.726
5947.875
5930.021
5912.17
5894.333
5876.521
5858.746
5841.017
5823.347
5805.746
5788.226
5770.797
5753.469
5736.254
5719.161
5702.2
5685.382
5668.716
5652.211
5635.876
5619.721
5603.754
5587.982
5572.414
5557.057
5541.919
5527.006
5512.325
5497.882
5483.682
5469.732
5456.034
5442.595
5429.419
5416.509
5403.868
5391.5
5379.407
5367.592
5356.056
5344.801
5333.829
5323.14
5312.734
5302.613
5292.776
5283.223
5273.954
5264.968
5256.266
5247.847
5239.711
5231.862
5224.289
5216.986
5209.951
5203.182
5196.676
5190.431
5184.443
5178.708
5173.225
5167.988
5162.995
5158.242
5153.725
5149.439
5145.381
5141.546
5137.931
5134.53
5131.34
5128.356
5125.573
5122.987
5120.593
5118.386
5116.363
5114.518
5112.849
5111.352
5110.025
5108.869
5107.888
5107.088
5106.477
5106.062
5105.846
5105.816
5105.956
5106.248
5106.682
5107.248
5107.939
5108.749
5109.673
5110.707
5111.847
5113.088
5114.429
5115.865
5117.392
5119.009
5120.711
5122.497
5124.362
5126.303
5128.319
5130.406
5132.562
5134.782
5137.066
5139.41
5141.812
5144.268
5146.777
5149.335
5151.939
5154.586
5157.273
5159.997
5162.753
5165.538
5168.355
5171.207
5174.092
5177.009
5179.953
5182.923
5185.916
5188.93
5191.963
5195.014
5198.08
5201.16
5204.253
5207.356
5210.468
5213.588
5216.715
5219.846
5222.982
5226.12
5229.259
5232.399
5235.538
5238.675
5241.809
5244.94
5248.065
5251.185
5254.299
5257.406
5260.504
5263.594
5266.674
5269.744
5272.804
5275.852
5278.887
5281.909
5284.916
5287.907
5290.879
5293.829
5296.754
5299.651
5302.518
5305.356
5308.167
5310.954
5313.718
5316.458
5319.174
5321.865
5324.529
5327.163
5329.773
5332.36
5334.929
5337.479
5340.01
5342.522
5345.013
5347.484
5349.933
5352.359
5354.762
5357.141
5359.496
5361.827
5364.132
5366.412
5368.666
5370.894
5373.095
5375.27
5377.419
5379.54
5381.634
5383.7
5385.738
5387.748
5389.729
5391.681
5393.605
5395.499
5397.363
5399.198
5401.002
5402.776
5404.518
5406.23
5407.909
5409.557
5411.173
5412.756
5414.306
5415.822
5417.305
5418.754
5420.168
5421.547
5422.89
5424.198
5425.469
5426.703
5427.9
5429.059
5430.18
5431.261
5432.303
5433.304
5434.265
5435.183
5436.059
5436.891
5437.679
5438.422
5439.118
5439.766
5440.366
5440.915
5441.413
5441.858
5442.249
5442.585
5442.865
5443.089
5443.258
5443.376
5443.448
5443.485
5443.501
5443.518
5443.567
5443.677
5443.883
5444.171
5444.624
5964
5906.555
5860.278
5813.821
5774.004
5742.23
5715.259
5691.644
5670.124
5649.286
5565.847
5546.841
5528.403
5510.402
5492.825
5475.665
5458.823
5442.069
5425.292
5408.893
5392.244
5376.761
5361.249
5345.961
5331.338
5317.909
5306.239
5297.207
5291.788
5291.679
5298.834
5313.802
5339.619
5377.662
5429.353
5496.853
5581.859
5684.076
5801.391
5930.184
6066.007
6203.624
6337.669
6463.192
6576.381
6674.819
6757.447
6824.367
6876.566
6915.587
6943.4
6962.166
6973.922
6980.568
6983.52
6984.105
6983.505
6982.053
6980.26
6978.734
6977.911
6978.178
6979.59
6982.132
6985.77
6990.439
6996.051
7002.514
7009.74
7017.644
7026.137
7035.129
7044.526
7054.239
7064.178
7074.253
7084.386
7094.514
7104.598
7114.606
7124.493
7134.209
7143.708
7152.952
7161.91
7170.559
7178.883
7186.868
7194.5
7201.774
7208.681
7215.219
7221.375
7227.142
7232.511
7237.479
7242.047
7246.224
7250.022
7253.446
7256.499
7259.181
7261.488
7263.421
7264.981
7266.169
7266.986
7267.43
7267.497
7267.196
7266.5
7265.378
7263.828
7261.888
7259.541
7256.728
7253.516
7249.929
7245.936
7241.541
7236.746
7231.556
7225.976
7220.015
7213.684
7206.994
7199.957
7192.585
7184.889
7176.878
7168.561
7159.944
7151.036
7141.845
7132.383
7122.669
7112.723
7102.558
7092.179
7081.593
7070.803
7059.818
7048.622
7037.325
7025.842
7014.197
7002.392
6990.407
6978.227
6965.822
6953.139
6940.106
6926.667
6912.796
6898.531
6883.908
6868.933
6853.619
6838.016
6822.201
6806.243
6790.192
6774.086
6757.961
6741.848
6725.78
6709.787
6693.9
6678.151
6662.568
6647.172
6631.967
6616.937
6602.03
6587.173
6572.269
6557.203
6541.889
6526.319
6510.557
6494.721
6478.978
6463.472
6448.246
6433.264
6418.471
6403.827
6389.299
6374.86
6360.483
6346.146
6331.83
6317.517
6303.192
6288.841
6274.451
6260.008
6245.502
6230.921
6216.255
6201.495
6186.632
6171.659
6156.568
6141.353
6126.009
6110.532
6094.917
6079.162
6063.265
6047.226
6031.044
6014.72
5998.255
5981.653
5964.916
5948.049
5931.055
5913.94
5896.712
5879.377
5861.943
5844.415
5826.804
5809.117
5791.366
5773.559
5755.707
5737.822
5719.913
5701.992
5684.066
5666.146
5648.241
5630.361
5612.52
5594.726
5576.992
5559.329
5541.748
5524.259
5506.874
5489.603
5472.456
5455.444
5438.577
5421.863
5405.314
5388.937
5372.741
5356.736
5340.93
5325.329
5309.943
5294.777
5279.84
5265.136
5250.673
5236.456
5222.49
5208.779
5195.33
5182.145
5169.229
5156.584
5144.215
5132.122
5120.309
5108.778
5097.529
5086.565
5075.886
5065.492
5055.385
5045.563
5036.027
5026.777
5017.811
5009.13
5000.732
4992.618
4984.786
4977.232
4969.951
4962.939
4956.195
4949.715
4943.496
4937.535
4931.829
4926.374
4921.167
4916.203
4911.48
4906.993
4902.738
4898.711
4894.908
4891.324
4887.956
4884.799
4881.848
4879.099
4876.548
4874.19
4872.021
4870.036
4868.233
4866.607
4865.156
4863.878
4862.774
4861.845
4861.095
4860.527
4860.143
4859.942
4859.918
4860.058
4860.351
4860.786
4861.355
4862.051
4862.869
4863.802
4864.846
4865.998
4867.252
4868.606
4870.056
4871.598
4873.229
4874.946
4876.746
4878.626
4880.583
4882.614
4884.716
4886.886
4889.121
4891.419
4893.777
4896.192
4898.661
4901.182
4903.752
4906.369
4909.028
4911.727
4914.463
4917.233
4920.035
4922.869
4925.737
4928.636
4931.565
4934.52
4937.501
4940.504
4943.528
4946.572
4949.632
4952.707
4955.796
4958.898
4962.009
4965.13
4968.258
4971.393
4974.532
4977.675
4980.82
4983.966
4987.113
4990.258
4993.401
4996.541
4999.677
5002.808
5005.934
5009.052
5012.163
5015.265
5018.358
5021.442
5024.514
5027.575
5030.624
5033.66
5036.681
5039.687
5042.675
5045.644
5048.592
5051.516
5054.414
5057.286
5060.13
5062.949
5065.742
5068.512
5071.258
5073.98
5076.676
5079.348
5081.992
5084.612
5087.21
5089.786
5092.342
5094.878
5097.394
5099.889
5102.362
5104.813
5107.242
5109.647
5112.028
5114.385
5116.717
5119.024
5121.306
5123.562
5125.792
5127.995
5130.173
5132.323
5134.446
5136.542
5138.61
5140.65
5142.663
5144.646
5146.601
5148.527
5150.423
5152.29
5154.127
5155.934
5157.71
5159.455
5161.169
5162.851
5164.502
5166.12
5167.706
5169.259
5170.779
5172.265
5173.716
5175.134
5176.516
5177.863
5179.174
5180.449
5181.688
5182.889
5184.052
5185.178
5186.264
5187.311
5188.318
5189.285
5190.21
5191.093
5191.934
5192.731
5193.483
5194.191
5194.852
5195.467
5196.033
5196.551
5197.019
5197.437
5197.805
5198.123
5198.392
5198.614
5198.793
5198.936
5199.052
5199.155
5199.26
5199.39
5199.564
5199.803
5200.093
5200.526
5692.069
5629.526
5513.788
5479.587
5449.556
5423.926
5401.489
5380.931
5361.293
5342.475
5323.832
5305.53
5287.532
5269.853
5252.597
5235.688
5219.044
5202.519
5185.921
5169.343
5152.934
5136.537
5119.758
5103.047
5086.577
5071.098
5057.227
5045.949
5038.332
5035.964
5040.355
5052.739
5075.669
5111.235
5160.688
5225.823
5308.116
5407.176
5521.186
5646.816
5779.358
5913.399
6043.658
6165.445
6275.239
6370.892
6451.561
6517.479
6569.708
6609.843
6639.689
6661.217
6676.232
6686.464
6693.278
6697.409
6699.807
6701.336
6702.392
6703.61
6705.658
6708.708
6712.712
6717.638
6723.476
6730.181
6737.678
6745.881
6754.699
6764.052
6773.86
6784.038
6794.492
6805.144
6815.929
6826.772
6837.599
6848.35
6858.984
6869.467
6879.765
6889.84
6899.655
6909.177
6918.381
6927.24
6935.749
6943.899
6951.682
6959.085
6966.1
6972.724
6978.952
6984.782
6990.209
6995.23