/*--------------------------------*- C++ -*----------------------------------*\
| =========                 |                                                 |
| \\      /  F ield         | foam-extend: Open Source CFD                    |
|  \\    /   O peration     | Version:     3.1                                |
|   \\  /    A nd           | Web:         http://www.extend-project.de       |
|    \\/     M anipulation  |                                                 |
\*---------------------------------------------------------------------------*/
FoamFile
{
    version     2.0;
    format      ascii;
    class       volScalarField;
    location    "5.5";
    object      k;
}
// * * * * * * * * * * * * * * * * * * * * * * * * * * * * * * * * * * * * * //

dimensions      [0 2 -2 0 0 0 0];

internalField   nonuniform List<scalar> 
119952
(
0.01271133
0.01065856
0.01014121
0.01027578
0.0102883
0.01003118
0.01008809
0.0102769
0.01050164
0.01068066
0.01078674
0.0108327
0.01083554
0.01081065
0.01076975
0.01072117
0.01067108
0.01062549
0.01059532
0.01062259
0.01144678
0.01111579
0.01110626
0.01189659
0.01143763
0.01121702
0.01102974
0.01086258
0.01048938
0.01852825
0.03983364
0.03894512
0.03751127
0.03619773
0.03512896
0.03430319
0.03366788
0.03316184
0.03273558
0.03237556
0.03093066
0.03114238
0.032131
0.0333809
0.03461674
0.03566508
0.03648821
0.03712384
0.03761949
0.03993803
0.04043477
0.040792
0.0410509
0.04125294
0.04140754
0.04151058
0.04158436
0.04164243
0.04180339
0.04198055
0.04207051
0.04216296
0.04225699
0.04234551
0.04242921
0.04250529
0.04256821
0.04253093
0.04303445
0.04304858
0.0429618
0.04309497
0.04324297
0.04330799
0.04324047
0.04310649
0.04293269
0.04271464
0.04244728
0.04212843
0.04176104
0.04135177
0.04090935
0.04044247
0.03995848
0.03946179
0.03895369
0.03843575
0.038003
0.03761737
0.03714349
0.03688384
0.0369553
0.03687497
0.03675032
0.03669124
0.03652242
0.03552887
0.03482351
0.03434623
0.03397798
0.03366342
0.03338282
0.03312866
0.03289635
0.03268417
0.03249207
0.03231874
0.0321619
0.03201979
0.03188988
0.03176841
0.0316525
0.03153983
0.03142844
0.03131656
0.03120263
0.03108529
0.03096348
0.03083644
0.03070363
0.03056466
0.03041926
0.03026723
0.03010845
0.02994292
0.0297707
0.02959189
0.02940669
0.02921532
0.02901805
0.02881521
0.02860713
0.02839461
0.02817856
0.02795906
0.02773608
0.02751028
0.02728232
0.02705177
0.02681928
0.02658545
0.02635076
0.02611558
0.02587999
0.02564311
0.0254086
0.02519408
0.02501992
0.0248432
0.02465751
0.02446138
0.02425675
0.02404626
0.02383213
0.02361631
0.02340053
0.0231862
0.02297438
0.02276591
0.0225614
0.02236132
0.022166
0.02197571
0.02179059
0.02161076
0.02143626
0.0212669
0.02110263
0.02094348
0.02078984
0.02064165
0.02049841
0.02035988
0.02022589
0.02009628
0.01997091
0.01984964
0.0197323
0.01961877
0.01950889
0.01940254
0.01929959
0.01919993
0.01910347
0.01901013
0.01891983
0.01883256
0.01874825
0.01866695
0.01858862
0.01851333
0.01844023
0.01836913
0.01829905
0.01822817
0.01816313
0.0181775
0.01818664
0.01811061
0.01800938
0.0179002
0.01777501
0.01763786
0.01749871
0.01736325
0.01723479
0.01711495
0.01700447
0.01690364
0.01681258
0.0167313
0.01665992
0.01659877
0.01654651
0.01650247
0.01646748
0.01644162
0.01642481
0.01641704
0.01641825
0.0164285
0.01644787
0.01647638
0.01651427
0.01656165
0.01661882
0.01668607
0.01676021
0.01683774
0.01691868
0.01700353
0.01704551
0.01715299
0.01728495
0.01742137
0.01755276
0.01767748
0.01779487
0.01790439
0.01800585
0.01809943
0.01818546
0.01826436
0.01833665
0.01840285
0.01846353
0.01851921
0.01857042
0.01861764
0.01866128
0.01870172
0.01873927
0.01877416
0.0188066
0.01883672
0.01886464
0.01889047
0.01891423
0.01893593
0.0189556
0.01897323
0.01898879
0.01900223
0.01901363
0.01902405
0.01903329
0.01837776
0.01849244
0.01855471
0.01856015
0.01854374
0.01851238
0.01846296
0.01840691
0.01835148
0.01830045
0.01825544
0.01821736
0.01818637
0.01816194
0.01814329
0.01812948
0.01811958
0.01811266
0.0181079
0.01810456
0.01810206
0.01809989
0.01809766
0.01809511
0.01809204
0.01808833
0.01808392
0.01807879
0.01807296
0.01806648
0.01805941
0.01805185
0.01804388
0.01803561
0.01802712
0.01801848
0.01800977
0.01800106
0.01799241
0.01798389
0.01797561
0.01796772
0.01796055
0.01795498
0.01795334
0.01795695
0.01795749
0.01795448
0.0179527
0.01795196
0.01795156
0.01795241
0.01795493
0.01797216
0.01804846
0.01802227
0.01799804
0.01797085
0.01793657
0.01789518
0.01784644
0.01779144
0.01773231
0.01767119
0.01760996
0.01755017
0.01749296
0.01743916
0.01738931
0.01734367
0.01730231
0.01726516
0.01723208
0.01720279
0.01717696
0.01715424
0.01713434
0.01711702
0.01710205
0.01708916
0.01707801
0.01706834
0.01705997
0.01705271
0.01704639
0.01704084
0.01703592
0.01703149
0.01702747
0.01702379
0.01702036
0.01701713
0.01701401
0.01701099
0.017008
0.01700502
0.017002
0.01699894
0.0169958
0.01699259
0.01698931
0.01698596
0.01698256
0.01697912
0.01697563
0.01697209
0.01696856
0.01696507
0.01696165
0.01695829
0.01695502
0.01695186
0.01694883
0.01694595
0.01694322
0.01694068
0.01693832
0.01693616
0.0169342
0.01693243
0.01693085
0.01692944
0.01692819
0.01692709
0.0169261
0.01692521
0.01692434
0.0169235
0.01692258
0.01692154
0.01692007
0.01691799
0.01691431
0.01690776
0.01689376
0.01686214
0.0167846
0.01666022
0.01689294
0.0484279
0.04546082
0.04585991
0.04742807
0.04922043
0.05088747
0.05231991
0.05351265
0.0544987
0.05367109
0.05391044
0.0555414
0.05763007
0.05964484
0.06138994
0.06281408
0.06393291
0.064784
0.07150415
0.07115241
0.07069052
0.07004146
0.06931813
0.06859795
0.06791037
0.06726742
0.06666694
0.0660729
0.06562443
0.06511913
0.06449493
0.06382113
0.0631259
0.06242444
0.06172665
0.06104148
0.060365
0.05987222
0.05947497
0.05890705
0.05830621
0.05770693
0.05710551
0.05650941
0.05592755
0.05536568
0.05483187
0.05429786
0.05377553
0.05330921
0.0528851
0.05249055
0.05212513
0.05178438
0.05147778
0.05126135
0.05401333
0.05374557
0.053558
0.05343452
0.05334274
0.05326882
0.05321208
0.05317185
0.05314708
0.05313904
0.05314849
0.05315406
0.05315133
0.05314136
0.05313179
0.05312528
0.05314153
0.05319425
0.05331837
0.05344294
0.05347074
0.0535182
0.05362738
0.05373676
0.05380705
0.05383971
0.05384674
0.05382796
0.05377945
0.05369735
0.05357899
0.05342323
0.0532303
0.05300124
0.05273783
0.05244208
0.05211754
0.05177046
0.05141835
0.05108142
0.05074317
0.05043171
0.05022161
0.05008607
0.0499362
0.04979233
0.04959324
0.04923768
0.04874027
0.04830698
0.0479549
0.04764773
0.04737544
0.04713057
0.04690816
0.0467051
0.04652035
0.04634969
0.04619067
0.04604077
0.04589741
0.04575835
0.04562181
0.04548623
0.04535015
0.04521219
0.04507107
0.04492561
0.04477475
0.04461759
0.04445337
0.04428148
0.04410143
0.04391286
0.0437155
0.04350914
0.0432937
0.04306912
0.04283545
0.0425928
0.04234133
0.04208123
0.04181284
0.04153652
0.04125246
0.04096093
0.04066232
0.04035711
0.04004588
0.03972918
0.03940746
0.03908119
0.03875088
0.03841697
0.0380798
0.03773991
0.03739855
0.03705821
0.03672099
0.0363859
0.03605148
0.03571836
0.03538663
0.03505665
0.034729
0.03440431
0.03408311
0.0337658
0.03345277
0.03314436
0.03284087
0.0325426
0.03224978
0.03196262
0.0316813
0.03140594
0.03113663
0.03087343
0.03061639
0.03036567
0.03012152
0.0298836
0.02965161
0.02942532
0.02920444
0.0289887
0.0287778
0.02857145
0.02836935
0.02817122
0.02797674
0.02778566
0.02759763
0.02741244
0.02722973
0.02704935
0.02687088
0.02669429
0.02651908
0.02634539
0.02617253
0.02600096
0.02582954
0.02565926
0.02548806
0.02531796
0.02514661
0.02498559
0.0245744
0.02404961
0.02364344
0.02331538
0.02303904
0.02279741
0.02257982
0.0223793
0.02219112
0.02201204
0.02183985
0.02167305
0.02151058
0.02135178
0.02119621
0.0210436
0.0208939
0.02074716
0.02060342
0.02046278
0.02032543
0.02019153
0.0200613
0.01993491
0.01981257
0.01969445
0.0195807
0.01947145
0.01936679
0.01926676
0.01917155
0.01908093
0.01899434
0.01891118
0.01883156
0.01875487
0.01869385
0.01865176
0.0186202
0.01859577
0.01857723
0.01856378
0.01855474
0.01854959
0.01854792
0.01854936
0.01855352
0.01856006
0.01856859
0.01857874
0.01859011
0.01860232
0.01861499
0.01862773
0.01864016
0.01865193
0.01866268
0.0186721
0.01867987
0.01868571
0.01868938
0.01869067
0.01868939
0.01868539
0.01867856
0.01866882
0.01865619
0.01864069
0.0186222
0.01859979
0.01927624
0.01923859
0.01921563
0.01919575
0.01917364
0.01914789
0.01911882
0.0190869
0.01905234
0.0190155
0.01897684
0.01893683
0.01889589
0.01885444
0.01881287
0.01877154
0.01873078
0.0186909
0.01865216
0.01861482
0.01857906
0.01854508
0.018513
0.01848293
0.01845497
0.01842916
0.01840555
0.01838413
0.01836491
0.01834785
0.01833291
0.01832004
0.01830918
0.01830026
0.0182932
0.01828791
0.0182843
0.01828229
0.01828179
0.01828272
0.01828503
0.01828874
0.01829395
0.01830076
0.01830896
0.01831763
0.01832567
0.01833273
0.01833981
0.01834719
0.01835509
0.01836322
0.01837284
0.01838997
0.01841105
0.01842105
0.0184242
0.01842695
0.01843067
0.01843551
0.01844141
0.01844816
0.01845551
0.0184632
0.018471
0.01847871
0.0184862
0.01849336
0.01850011
0.0185064
0.01851223
0.01851759
0.0185225
0.01852702
0.0185312
0.01853508
0.0185387
0.01854211
0.01854535
0.01854847
0.01855155
0.01855461
0.01855772
0.01856091
0.01856423
0.01856768
0.0185713
0.01857509
0.01857909
0.01858331
0.01858775
0.01859243
0.01859734
0.01860248
0.01860785
0.01861345
0.01861925
0.01862526
0.01863145
0.01863783
0.01864437
0.01865107
0.01865791
0.01866489
0.01867199
0.01867922
0.01868654
0.01869396
0.01870148
0.01870907
0.01871676
0.01872452
0.01873236
0.01874027
0.01874826
0.01875633
0.01876448
0.01877271
0.01878104
0.01878947
0.01879803
0.01880669
0.01881553
0.01882448
0.01883367
0.01884296
0.01885259
0.01886225
0.01887237
0.01888234
0.01889281
0.01890257
0.01891243
0.01891969
0.01892489
0.01892528
0.01893374
0.01897571
0.01904891
0.05334946
0.0553394
0.05783119
0.06065892
0.06382456
0.06736875
0.07135959
0.07588515
0.08106404
0.08664921
0.1205269
0.130501
0.1402089
0.1493706
0.157506
0.1640655
0.1699708
0.176727
0.188665
0.2150863
0.2157168
0.215079
0.2137253
0.2117992
0.2093238
0.2063389
0.2029252
0.1991191
0.1950932
0.1907843
0.1868085
0.1829176
0.178989
0.1749917
0.1709184
0.1668335
0.1627891
0.1589414
0.1545411
0.1503827
0.1464714
0.1427668
0.139255
0.1359121
0.1327207
0.1296693
0.1267548
0.1239774
0.1213042
0.1187177
0.116227
0.1138251
0.1115111
0.1092895
0.1071597
0.1051192
0.1059682
0.104184
0.1024381
0.100751
0.09912365
0.09754938
0.09602435
0.09454533
0.09311151
0.0917137
0.09034966
0.08903599
0.08776664
0.086532
0.08532744
0.08415227
0.08300421
0.08188366
0.08078969
0.07971921
0.07867631
0.07766266
0.07668484
0.07574182
0.07483037
0.07394962
0.07309866
0.07227738
0.07148686
0.07073018
0.069993
0.06927815
0.06858379
0.06791782
0.0672691
0.06665196
0.06603175
0.06540969
0.06490772
0.0644139
0.06390359
0.0633895
0.06289097
0.06241905
0.0619745
0.06155536
0.0611599
0.06078727
0.06043302
0.06009374
0.05977013
0.05946257
0.05917345
0.05890354
0.05865994
0.05844509
0.0582672
0.05810707
0.05794683
0.05779516
0.05767085
0.05757303
0.05749033
0.05741676
0.05735321
0.0573018
0.05726158
0.05722852
0.0571971
0.05716172
0.0571173
0.05705933
0.05698416
0.05688906
0.05677347
0.05663937
0.05649409
0.0563465
0.05620141
0.05607045
0.05597337
0.05590301
0.05583133
0.05573221
0.05559417
0.05535973
0.05505641
0.05474298
0.05446437
0.05422188
0.05400672
0.05381166
0.05363287
0.05346744
0.0533115
0.05316628
0.05302996
0.05290019
0.05277493
0.05265238
0.05253089
0.05240885
0.05228477
0.05215723
0.0520249
0.05188655
0.05174109
0.05158755
0.05142511
0.05125312
0.05107104
0.05087845
0.05067504
0.0504606
0.05023501
0.04999822
0.04975027
0.04949127
0.0492214
0.04894089
0.04865004
0.04834917
0.04803862
0.04771878
0.04739012
0.04705311
0.04670829
0.04635619
0.04599733
0.04563225
0.04526152
0.0448857
0.04450538
0.04412134
0.04373466
0.04334693
0.04295963
0.04257305
0.04218646
0.04179986
0.04141394
0.04102958
0.04064755
0.04026851
0.03989307
0.03952176
0.03915509
0.03879355
0.03843753
0.03808743
0.03774357
0.03740622
0.0370756
0.0367519
0.03643523
0.03612566
0.0358232
0.03552777
0.03523898
0.03495672
0.03468096
0.03441161
0.03414851
0.03389146
0.03364023
0.03339454
0.03315408
0.03291853
0.03268758
0.03246083
0.032238
0.03201866
0.03180256
0.03158924
0.03137855
0.03116992
0.0309634
0.03075823
0.03055478
0.03035192
0.0301506
0.02994894
0.0297491
0.02954772
0.02934953
0.02914663
0.02893538
0.02872888
0.02852509
0.02832275
0.02812169
0.02792158
0.02772229
0.0275238
0.02732615
0.02712945
0.02693388
0.02673961
0.02654688
0.02635593
0.02616702
0.0259804
0.02579635
0.02561515
0.02543708
0.0252624
0.02509138
0.02492432
0.02476147
0.0246031
0.02444945
0.02430078
0.02415728
0.02401916
0.02388657
0.02375945
0.02363727
0.02351997
0.02340717
0.0232985
0.02319448
0.02309793
0.0230126
0.02293851
0.02287334
0.02281598
0.02276568
0.0227217
0.02268339
0.02265022
0.0226217
0.0225974
0.02257688
0.02255973
0.02254553
0.02253385
0.02252427
0.02251637
0.02250971
0.02250387
0.02249842
0.02249293
0.02248699
0.02248019
0.02247213
0.02246246
0.02245081
0.02243688
0.02242036
0.02240102
0.02237862
0.02235302
0.02232407
0.02229171
0.02225609
0.02221856
0.02218356
0.02214487
0.02209911
0.02204604
0.02198845
0.02192873
0.02186794
0.02180635
0.02174398
0.02168095
0.02161749
0.02155391
0.02149052
0.02142762
0.02136551
0.02130448
0.02124481
0.02118676
0.02113058
0.02107649
0.02102469
0.02097534
0.02092859
0.02088454
0.02084329
0.02080487
0.02076933
0.02073667
0.02070686
0.02067987
0.02065564
0.02063409
0.02061513
0.02059868
0.02058462
0.02057283
0.02056321
0.02055561
0.02054994
0.02054607
0.02054389
0.02054334
0.02054431
0.02054666
0.02055015
0.0205544
0.02055892
0.02056349
0.02056815
0.02057317
0.02057845
0.02058407
0.02058943
0.02059426
0.02059831
0.02060352
0.02061055
0.02061896
0.0206274
0.0206354
0.02064307
0.02065057
0.02065801
0.02066546
0.02067297
0.02068056
0.02068823
0.02069595
0.02070373
0.02071155
0.0207194
0.02072728
0.02073518
0.02074311
0.02075104
0.02075898
0.02076691
0.02077482
0.02078272
0.02079061
0.02079849
0.02080635
0.02081421
0.02082206
0.02082991
0.02083776
0.02084562
0.02085349
0.02086138
0.02086929
0.02087722
0.02088519
0.02089319
0.02090123
0.02090931
0.02091743
0.0209256
0.02093381
0.02094207
0.02095038
0.02095874
0.02096715
0.02097563
0.02098416
0.02099275
0.02100141
0.02101014
0.02101894
0.02102783
0.02103682
0.0210459
0.02105509
0.02106441
0.02107385
0.02108343
0.02109316
0.02110304
0.0211131
0.02112333
0.02113376
0.0211444
0.02115527
0.02116638
0.02117778
0.02118946
0.02120153
0.02121392
0.02122683
0.0212401
0.02125402
0.02126828
0.02128331
0.02129848
0.02131458
0.02133095
0.02134995
0.02137296
0.02140578
0.02144622
0.04552268
0.04930329
0.05264788
0.07588408
0.09987343
0.1286373
0.1473684
0.1654627
0.1817251
0.1961291
0.2079008
0.2170885
0.225452
0.2334571
0.2410678
0.2483676
0.2553736
0.2621057
0.2683059
0.273793
0.2787033
0.2829702
0.2865934
0.2896137
0.2920262
0.2937826
0.2947472
0.294781
0.2940416
0.2924037
0.2898943
0.2911931
0.2847251
0.2781236
0.2715595
0.2648722
0.2580851
0.2512431
0.2443993
0.2376109
0.230963
0.2244635
0.2181372
0.212
0.2060656
0.2003376
0.1948169
0.1895022
0.1843901
0.1794614
0.1746194
0.1699066
0.1653276
0.1608938
0.1566141
0.1524967
0.1485493
0.1447788
0.1411855
0.1377636
0.1345106
0.1314208
0.1284888
0.1257068
0.1230723
0.1205751
0.1182174
0.1159772
0.1137434
0.1116423
0.1096711
0.1078147
0.1060577
0.1043895
0.1028029
0.1012916
0.09984874
0.09846767
0.09714528
0.09587711
0.09465367
0.09346817
0.09231726
0.09119884
0.09011005
0.08904869
0.0880117
0.08700084
0.0860136
0.08504498
0.08408875
0.08314587
0.08221907
0.08130972
0.08041901
0.07954783
0.07869781
0.07787023
0.07706341
0.07628015
0.07551945
0.07478499
0.07407153
0.07338671
0.07271754
0.07208174
0.07147581
0.07087751
0.07028264
0.06969991
0.06913824
0.06860012
0.06808247
0.06758136
0.06709405
0.06661905
0.06615535
0.06570254
0.06526072
0.06482989
0.06441073
0.06400378
0.06361102
0.06323392
0.06287452
0.06253052
0.06219525
0.06186745
0.06155681
0.06127071
0.06100921
0.06077024
0.0605553
0.06036808
0.06021092
0.06008336
0.05998273
0.05990519
0.05984634
0.05980142
0.05976563
0.05973445
0.05970436
0.05967314
0.05964093
0.05960996
0.05958319
0.05956357
0.05955753
0.05956191
0.05956169
0.0595369
0.05947681
0.05936264
0.05919476
0.0590008
0.05881458
0.05864747
0.05849648
0.05835744
0.05822842
0.05810831
0.05799504
0.05788527
0.05778085
0.05768127
0.05758474
0.05748968
0.05739462
0.05729811
0.05719869
0.05709494
0.05698549
0.05686903
0.0567444
0.05661054
0.05646653
0.0563116
0.05614513
0.05596661
0.05577565
0.05557197
0.05535539
0.05512584
0.0548833
0.05462786
0.0543597
0.05407902
0.05378611
0.05348133
0.05316505
0.05283771
0.05249977
0.05215172
0.0517941
0.05142746
0.05105238
0.05066944
0.05027926
0.0498825
0.04947988
0.04907222
0.04866054
0.04824601
0.04782981
0.04741256
0.04699424
0.04657506
0.04615574
0.04573715
0.04532012
0.04490533
0.04449345
0.04408515
0.04368104
0.0432817
0.04288767
0.04249946
0.0421175
0.04174218
0.04137386
0.04101281
0.04065923
0.04031328
0.03997504
0.03964451
0.03932164
0.03900641
0.03869869
0.03839831
0.03810507
0.03781872
0.03753897
0.03726553
0.03699806
0.03673617
0.03647952
0.03622768
0.03598029
0.03573691
0.03549719
0.03526067
0.03502705
0.03479585
0.03456685
0.03433952
0.03411378
0.033889
0.03366535
0.03344199
0.03321952
0.03299693
0.03277567
0.03255467
0.03233522
0.03211562
0.03189481
0.0316729
0.03145053
0.03122816
0.03100599
0.03078419
0.03056293
0.0303424
0.03012284
0.02990449
0.0296876
0.02947245
0.02925932
0.02904851
0.02884031
0.02863503
0.02843297
0.02823443
0.02803973
0.02784916
0.02766301
0.02748157
0.02730509
0.02713383
0.02696799
0.02680774
0.02665321
0.02650447
0.0263615
0.02622417
0.02609235
0.0259661
0.02584603
0.0257335
0.02563028
0.02553716
0.02545357
0.02537864
0.02531162
0.02525192
0.02519901
0.02515243
0.02511172
0.02507645
0.02504618
0.0250205
0.02499897
0.02498114
0.02496658
0.02495481
0.02494538
0.02493783
0.02493167
0.02492645
0.02492168
0.02491691
0.02491167
0.02490551
0.02489804
0.02488883
0.02487753
0.02486375
0.02484727
0.02482769
0.02480501
0.02477881
0.02474947
0.02471636
0.02468004
0.02464002
0.02459674
0.02455051
0.02450126
0.02444896
0.02439375
0.0243359
0.02427574
0.02421364
0.02415002
0.02408531
0.02401993
0.02395431
0.02388883
0.0238239
0.02375985
0.02369704
0.02363579
0.02357636
0.02351904
0.02346403
0.02341154
0.02336171
0.02331469
0.02327056
0.02322938
0.0231912
0.02315602
0.02312382
0.02309455
0.02306816
0.02304457
0.02302367
0.02300538
0.02298957
0.02297611
0.02296488
0.02295575
0.02294858
0.02294325
0.02293961
0.02293753
0.02293682
0.02293729
0.02293871
0.02294081
0.02294336
0.02294626
0.02294954
0.02295321
0.02295723
0.02296161
0.02296664
0.02297244
0.02297845
0.02298389
0.02298883
0.02299362
0.02299853
0.02300369
0.02300913
0.02301485
0.02302083
0.02302709
0.0230336
0.02304034
0.0230473
0.02305446
0.02306183
0.02306939
0.02307714
0.02308507
0.02309318
0.02310144
0.02310986
0.02311841
0.02312709
0.02313587
0.02314476
0.02315373
0.02316278
0.0231719
0.02318107
0.02319028
0.02319953
0.02320881
0.02321811
0.02322741
0.02323672
0.02324602
0.02325532
0.0232646
0.02327386
0.02328309
0.02329231
0.02330149
0.02331063
0.02331975
0.02332883
0.02333788
0.02334691
0.02335592
0.02336491
0.0233739
0.0233829
0.02339193
0.02340098
0.0234101
0.02341928
0.02342857
0.02343797
0.02344751
0.02345722
0.02346713
0.02347725
0.0234876
0.02349822
0.02350911
0.02352031
0.02353182
0.02354368
0.02355591
0.02356856
0.02358163
0.02359522
0.02360934
0.02362411
0.02363954
0.02365581
0.02367291
0.02369109
0.02371042
0.02373125
0.02375398
0.02377902
0.02380768
0.02383977
0.02387516
0.02479592
0.02699802
0.02912391
0.03728959
0.04877811
0.06788557
0.08149635
0.09579636
0.1109791
0.126108
0.1414318
0.157924
0.1751939
0.1924261
0.2100703
0.229878
0.2607129
0.2725421
0.284079
0.2953193
0.3064229
0.3164685
0.324889
0.3318987
0.3378795
0.3429869
0.3469754
0.3499277
0.3519579
0.353264
0.3538564
0.3537014
0.3527537
0.350919
0.3481259
0.3443094
0.3394942
0.3336859
0.3268559
0.3193342
0.3115716
0.3022313
0.2918672
0.2824393
0.2731626
0.264054
0.2551644
0.246542
0.2382305
0.2302624
0.2226637
0.2154441
0.208607
0.2021365
0.1960122
0.1902205
0.1847432
0.1795596
0.1746535
0.1700053
0.1655982
0.1613884
0.1573608
0.1534731
0.1496913
0.1460377
0.1425278
0.1391729
0.135978
0.132945
0.1300704
0.12735
0.1247783
0.1223506
0.1200609
0.1179042
0.1158735
0.1139628
0.1121607
0.1104502
0.1088354
0.1073167
0.105884
0.1045276
0.1032412
0.1020205
0.1008607
0.09975654
0.09870271
0.09769349
0.09672223
0.09578308
0.0948715
0.09398423
0.09311766
0.09226705
0.09142962
0.09060159
0.08977662
0.08895325
0.0881312
0.08731154
0.08649575
0.08568497
0.08487995
0.08408163
0.0832914
0.08251087
0.08174233
0.08098762
0.08024922
0.07952849
0.07882809
0.07814804
0.07749072
0.07685459
0.07623953
0.07564417
0.07506452
0.07449787
0.07394472
0.07340653
0.07288315
0.07237239
0.07187141
0.07137783
0.07089008
0.07040716
0.0699282
0.06945256
0.0689798
0.0685102
0.06804423
0.06758307
0.06712785
0.06667961
0.06623828
0.06580165
0.06536948
0.06494673
0.06453941
0.06415084
0.06378278
0.06343828
0.06312176
0.06283731
0.06258742
0.06237288
0.06219313
0.06204664
0.06193105
0.0618433
0.0617799
0.06173729
0.06171217
0.06170211
0.0617057
0.06172202
0.06174966
0.06178765
0.06183154
0.06187139
0.06189416
0.06189038
0.06185098
0.06177522
0.06167649
0.06157215
0.06147089
0.06137427
0.06128205
0.06119435
0.06111162
0.0610337
0.0609593
0.06088592
0.06081448
0.06074531
0.0606771
0.06060858
0.06053848
0.06046553
0.06038837
0.06030564
0.06021601
0.06011824
0.06001116
0.05989373
0.05976504
0.05962431
0.05947089
0.05930425
0.05912398
0.05892977
0.05872145
0.05849891
0.05826217
0.05801131
0.05774651
0.05746801
0.05717613
0.05687123
0.05655371
0.05622404
0.05588269
0.05553019
0.0551671
0.05479401
0.05441151
0.05402027
0.05362095
0.05321432
0.05280121
0.05238255
0.05195934
0.05153257
0.05110298
0.05067104
0.05023718
0.04980208
0.04936655
0.0489314
0.04849741
0.04806531
0.04763585
0.04720976
0.04678771
0.04637033
0.04595819
0.04555186
0.04515184
0.04475858
0.04437244
0.04399375
0.04362276
0.04325967
0.04290459
0.0425576
0.04221872
0.04188788
0.04156496
0.04124979
0.04094216
0.0406418
0.04034841
0.04006164
0.03978113
0.03950647
0.03923725
0.03897304
0.03871339
0.03845788
0.03820604
0.03795747
0.03771172
0.03746841
0.03722709
0.03698747
0.0367491
0.0365118
0.03627516
0.03603918
0.03580355
0.03556855
0.03533392
0.03509961
0.03486555
0.03463155
0.0343973
0.03416268
0.03392771
0.03369248
0.03345712
0.03322181
0.03298678
0.03275229
0.03251859
0.03228597
0.03205472
0.03182516
0.0315976
0.03137238
0.03114983
0.03093028
0.03071408
0.03050156
0.03029305
0.03008889
0.02988938
0.02969482
0.02950548
0.02932163
0.02914347
0.02897117
0.02880488
0.02864469
0.02849066
0.02834291
0.0282017
0.02806752
0.0279412
0.0278238
0.02771608
0.02761806
0.0275292
0.02744894
0.02737681
0.0273124
0.02725531
0.02720516
0.02716153
0.02712402
0.02709222
0.02706571
0.02704406
0.02702681
0.0270135
0.02700365
0.02699678
0.02699239
0.02698999
0.02698907
0.02698912
0.02698964
0.02699013
0.02699013
0.02698915
0.02698675
0.02698248
0.02697599
0.02696688
0.02695489
0.02693969
0.02692113
0.0268989
0.02687292
0.02684319
0.02680984
0.02677294
0.02673253
0.02668876
0.02664189
0.02659221
0.02653999
0.02648551
0.02642907
0.02637101
0.02631172
0.02625155
0.0261909
0.02613015
0.02606967
0.02600982
0.02595095
0.02589337
0.02583738
0.02578325
0.02573121
0.02568146
0.02563417
0.02558949
0.02554751
0.02550831
0.02547192
0.02543837
0.02540765
0.02537971
0.0253545
0.02533195
0.02531197
0.02529446
0.02527931
0.02526639
0.02525558
0.02524674
0.02523975
0.02523445
0.0252307
0.02522833
0.02522718
0.02522706
0.02522776
0.02522912
0.02523101
0.02523339
0.02523623
0.02523952
0.02524322
0.02524732
0.02525169
0.02525611
0.02526056
0.02526519
0.02527005
0.02527512
0.02528034
0.0252857
0.0252912
0.02529687
0.02530274
0.02530882
0.02531513
0.02532165
0.02532841
0.02533541
0.02534265
0.02535014
0.02535786
0.02536582
0.02537401
0.02538241
0.02539101
0.02539979
0.02540875
0.02541787
0.02542713
0.02543653
0.02544604
0.02545565
0.02546536
0.02547514
0.02548498
0.02549488
0.02550481
0.02551476
0.02552472
0.02553468
0.02554462
0.02555454
0.02556443
0.02557427
0.02558406
0.02559379
0.02560346
0.02561306
0.0256226
0.02563206
0.02564147
0.02565081
0.0256601
0.02566935
0.02567858
0.0256878
0.02569703
0.02570631
0.02571566
0.02572512
0.02573473
0.02574452
0.02575454
0.02576482
0.02577541
0.02578634
0.02579765
0.02580936
0.0258215
0.02583412
0.02584723
0.02586089
0.02587514
0.02589002
0.02590562
0.02592201
0.02593928
0.02595756
0.02597699
0.02599774
0.02602003
0.02604407
0.02607027
0.0260987
0.02613016
0.02616359
0.02619784
0.009892271
0.01138937
0.01255229
0.0180658
0.02466722
0.03340232
0.0409883
0.04970667
0.05925672
0.06950672
0.08075666
0.09403508
0.1085419
0.1246543
0.143816
0.1726613
0.1874155
0.2026157
0.2176302
0.2324013
0.2468132
0.260727
0.2739679
0.2864153
0.2979468
0.3085078
0.3182763
0.3288381
0.3391666
0.3493382
0.3591975
0.3680284
0.3751679
0.3804839
0.3842259
0.3863229
0.3872208
0.387049
0.3859077
0.3838125
0.3807819
0.3768127
0.3718978
0.3660384
0.3591279
0.3510917
0.3421082
0.3324048
0.3215818
0.3098361
0.298471
0.2869481
0.2752333
0.2637833
0.2526052
0.241822
0.2315394
0.2218251
0.2127129
0.2042124
0.1963164
0.1890043
0.1822481
0.1760125
0.1702589
0.1649501
0.1600504
0.1555241
0.1513397
0.1474613
0.1438766
0.1405542
0.1374282
0.1344269
0.1315511
0.1288106
0.1262108
0.1237532
0.1214358
0.1192554
0.1172068
0.1152843
0.1134821
0.1117949
0.1102172
0.1087433
0.1073676
0.1060832
0.1048846
0.1037646
0.1027179
0.1017401
0.1008242
0.09996316
0.09915115
0.09838319
0.09765435
0.09695951
0.09629333
0.09565023
0.09502506
0.0944135
0.0938122
0.09321746
0.09262507
0.09203288
0.09143841
0.0908394
0.09023322
0.08961706
0.0889896
0.08835091
0.08770188
0.08704375
0.086378
0.08570642
0.08503135
0.08435539
0.08368179
0.08301358
0.08235406
0.08170596
0.0810725
0.08045546
0.07985697
0.07927735
0.0787165
0.07817471
0.07765075
0.07714176
0.07664538
0.07616052
0.07568626
0.07522077
0.0747614
0.07430541
0.07385046
0.07339466
0.07293645
0.07247466
0.07200857
0.07153806
0.07106338
0.07058519
0.07010431
0.06962148
0.06913722
0.0686516
0.06816548
0.06768191
0.06720527
0.0667396
0.06628827
0.06585505
0.06544442
0.06506097
0.06470863
0.06439023
0.06410762
0.06386171
0.06365259
0.06347952
0.063341
0.06323498
0.06315903
0.06311059
0.06308712
0.06308591
0.06310361
0.06313627
0.06317843
0.06322225
0.06325825
0.06327848
0.06327698
0.06325218
0.06320879
0.06315467
0.06309589
0.06303542
0.06297446
0.06291383
0.0628546
0.06279767
0.06274328
0.06269068
0.06263833
0.06258632
0.06253514
0.062484
0.06243196
0.062378
0.06232099
0.06225972
0.06219289
0.06211924
0.06203752
0.06194659
0.06184537
0.06173291
0.06160837
0.06147103
0.06132028
0.06115564
0.06097674
0.06078333
0.06057525
0.06035247
0.06011503
0.05986307
0.0595968
0.0593165
0.05902251
0.05871523
0.05839507
0.05806254
0.05771813
0.05736241
0.05699596
0.05661941
0.05623344
0.05583876
0.05543618
0.05502654
0.05461073
0.05418964
0.05376405
0.05333459
0.05290188
0.0524666
0.05202953
0.05159151
0.05115334
0.05071583
0.05027974
0.04984586
0.04941498
0.04898777
0.0485649
0.04814701
0.04773471
0.04732852
0.04692894
0.0465364
0.04615126
0.04577381
0.0454043
0.04504289
0.04468967
0.04434469
0.04400791
0.04367922
0.04335848
0.04304547
0.04273993
0.04244153
0.04214994
0.04186476
0.04158557
0.04131195
0.04104343
0.04077954
0.04051982
0.0402638
0.04001102
0.03976103
0.03951338
0.03926768
0.03902351
0.03878054
0.03853845
0.03829705
0.0380561
0.03781551
0.03757515
0.03733492
0.03709475
0.03685446
0.03661381
0.03637267
0.03613105
0.035889
0.03564662
0.03540404
0.03516143
0.03491901
0.034677
0.03443568
0.03419531
0.0339562
0.03371868
0.03348307
0.03324973
0.03301902
0.03279128
0.03256688
0.03234617
0.03212952
0.03191726
0.03170973
0.03150723
0.03131007
0.0311185
0.03093278
0.03075311
0.0305797
0.03041275
0.03025252
0.03009935
0.02995374
0.0298163
0.0296878
0.0295688
0.02945947
0.02935958
0.0292688
0.02918678
0.02911322
0.02904781
0.0289902
0.02894004
0.02889698
0.02886063
0.0288306
0.02880648
0.02878783
0.02877419
0.02876509
0.02876004
0.02875854
0.02876006
0.02876408
0.02877007
0.0287775
0.02878587
0.02879464
0.02880331
0.02881138
0.02881833
0.02882368
0.02882697
0.02882776
0.02882566
0.0288204
0.02881177
0.02879963
0.02878388
0.02876441
0.02874115
0.02871414
0.02868351
0.02864948
0.02861226
0.02857205
0.02852912
0.02848373
0.0284362
0.02838686
0.02833609
0.02828423
0.02823167
0.02817877
0.0281259
0.0280734
0.02802161
0.02797084
0.02792138
0.02787349
0.02782739
0.02778329
0.02774136
0.02770172
0.0276645
0.02762975
0.02759754
0.02756786
0.02754073
0.0275161
0.02749394
0.02747418
0.02745673
0.0274415
0.02742839
0.02741728
0.02740806
0.02740059
0.02739475
0.02739039
0.02738737
0.02738554
0.02738474
0.02738483
0.02738564
0.02738707
0.02738906
0.02739155
0.0273945
0.02739785
0.02740152
0.02740546
0.02740964
0.02741402
0.0274186
0.02742336
0.02742828
0.02743337
0.02743863
0.02744407
0.02744972
0.02745559
0.02746169
0.02746803
0.02747461
0.02748145
0.02748853
0.02749587
0.02750347
0.02751132
0.02751941
0.02752774
0.02753629
0.02754506
0.02755403
0.02756319
0.02757252
0.02758202
0.02759166
0.02760145
0.02761136
0.02762138
0.0276315
0.0276417
0.02765198
0.02766231
0.0276727
0.02768313
0.02769358
0.02770406
0.02771451
0.02772493
0.02773531
0.02774563
0.02775589
0.02776609
0.02777622
0.02778628
0.02779626
0.02780616
0.02781598
0.02782571
0.02783535
0.02784491
0.02785446
0.027864
0.02787355
0.02788316
0.02789284
0.02790265
0.02791265
0.02792288
0.02793341
0.0279443
0.02795559
0.02796733
0.02797958
0.02799237
0.02800575
0.02801975
0.02803442
0.02804982
0.02806599
0.02808302
0.02810099
0.02812
0.02814018
0.02816167
0.02818464
0.02820927
0.02823576
0.02826436
0.02829511
0.02832843
0.02836325
0.02839721
0.002388187
0.00876292
0.01258797
0.01714424
0.02240903
0.02860967
0.03589592
0.04414737
0.05361151
0.06520314
0.08242202
0.09332116