/*--------------------------------*- C++ -*----------------------------------*\
| =========                 |                                                 |
| \\      /  F ield         | foam-extend: Open Source CFD                    |
|  \\    /   O peration     | Version:     3.1                                |
|   \\  /    A nd           | Web:         http://www.extend-project.de       |
|    \\/     M anipulation  |                                                 |
\*---------------------------------------------------------------------------*/
FoamFile
{
    version     2.0;
    format      ascii;
    class       volScalarField;
    location    "5.5";
    object      omega;
}
// * * * * * * * * * * * * * * * * * * * * * * * * * * * * * * * * * * * * * //

dimensions      [0 0 -1 0 0 0 0];

internalField   nonuniform List<scalar> 
119952
(
160.6968
192.687
179.8604
159.6646
145.2864
146.265
149.7549
154.3817
159.4682
164.411
169.0013
173.3256
177.5066
181.6625
185.8912
190.271
194.8694
199.7608
205.075
211.265
180.5239
179.7978
181.6299
155.657
152.6357
151.1623
149.9001
148.7643
146.0387
193.9609
522.7662
439.877
369.9427
317.9383
278.3768
247.5915
222.9474
202.8169
186.0042
168.0997
147.8717
133.817
123.9613
116.4704
110.3349
105.0138
100.2485
95.90975
92.06615
75.33924
73.7359
71.97078
70.12088
68.25805
66.40994
64.58865
62.80227
61.05906
59.44499
57.94538
56.43821
54.99069
53.58494
52.20106
50.82642
49.44381
48.03724
46.53233
45.71579
44.68945
43.4895
42.42097
41.3769
40.34791
39.2797
38.20774
37.15299
36.12271
35.12351
34.16023
33.23643
32.35445
31.51555
30.71972
29.96532
29.24601
28.54969
27.86164
27.21977
26.62374
25.98686
25.39859
24.99118
24.6142
24.29088
24.17544
24.55407
25.25748
25.22707
25.04728
24.81393
24.56946
24.32655
24.09227
23.8696
23.65981
23.46339
23.28035
23.11066
22.95345
22.80902
22.67798
22.56021
22.45531
22.36275
22.28195
22.21236
22.15347
22.10472
22.06555
22.03542
22.01385
22.00042
21.99475
21.99652
22.00543
22.02123
22.04373
22.07274
22.10812
22.14976
22.19752
22.25119
22.31004
22.37393
22.44322
22.51789
22.59814
22.68441
22.77643
22.8744
22.97837
23.08828
23.20378
23.32357
23.44149
23.5405
23.69398
23.91211
24.13928
24.36335
24.57846
24.78335
24.97828
25.16438
25.34317
25.51629
25.68528
25.85149
26.01609
26.1801
26.34438
26.50963
26.67646
26.84541
27.01696
27.19168
27.36929
27.55028
27.73482
27.92473
28.11944
28.31921
28.52433
28.73517
28.95208
29.1755
29.40586
29.6436
29.88919
30.1431
30.40585
30.67798
30.96004
31.25264
31.55642
31.87199
32.20009
32.54141
32.89675
33.26695
33.65085
34.04789
34.45778
34.87943
35.30431
35.65432
37.60915
41.30811
44.30847
46.69393
48.61345
50.1684
51.45761
52.56583
53.55345
54.46299
55.32388
56.15729
56.97872
57.79932
58.62747
59.47158
60.33322
61.21221
62.11585
63.0478
64.01015
65.00401
66.03129
67.09367
68.19276
69.33017
70.50781
71.72696
72.98836
74.29262
75.63979
77.02538
78.42498
79.84022
81.15995
81.25833
80.07567
79.00102
77.98377
77.00286
76.04974
75.11819
74.20387
73.304
72.4177
71.54508
70.68682
69.84375
69.01692
68.20744
67.4163
66.64434
65.89218
65.16018
64.44847
63.75699
63.08541
62.43329
61.80008
61.18515
60.58768
60.00696
59.4422
58.89252
58.35696
57.83452
57.32408
56.8251
56.34078
55.87182
43.81123
43.60205
43.29632
42.83735
42.34104
41.82645
41.30633
40.80028
40.31946
39.86813
39.4467
39.0536
38.68641
38.3416
38.01553
37.70477
37.40624
37.11722
36.83541
36.55894
36.28632
36.01643
35.74847
35.48188
35.21629
34.95153
34.68754
34.42437
34.16217
33.90115
33.64151
33.38345
33.12718
32.87288
32.62077
32.37104
32.12391
31.8796
31.63833
31.40034
31.16595
30.93565
30.71039
30.49223
30.28548
30.09431
29.91736
29.7478
29.58392
29.42573
29.27279
29.12587
28.98534
28.85403
28.81601
28.68356
28.56507
28.44332
28.30697
28.15683
27.99411
27.82102
27.6409
27.45692
27.27185
27.08805
26.90732
26.731
26.56001
26.39488
26.23582
26.0828
25.93566
25.79407
25.65761
25.52588
25.39845
25.27495
25.155
25.03817
24.924
24.81215
24.7023
24.59417
24.48752
24.3821
24.27773
24.17424
24.07149
23.96937
23.86778
23.76661
23.66577
23.5652
23.46483
23.36463
23.26454
23.16455
23.06462
22.96474
22.86489
22.76509
22.66533
22.56563
22.46599
22.36646
22.26706
22.16782
22.06879
21.96997
21.8714
21.77308
21.67504
21.57728
21.4798
21.38256
21.28554
21.18869
21.09193
20.99517
20.89833
20.80128
20.70388
20.60597
20.50736
20.40782
20.30705
20.20468
20.10025
19.9931
19.88228
19.76639
19.64303
19.50784
19.35151
19.15355
18.86967
18.45608
18.33142
534.6817
438.6861
381.775
342.5194
312.1639
287.1577
265.8364
247.3344
230.3177
195.1205
158.6738
135.5728
119.9903
108.8085
100.3241
93.59731
88.07387
83.40077
64.68701
61.99107
59.39
56.90994
54.60755
52.512
50.62106
48.92315
47.40168
46.02527
44.83524
43.75211
42.71944
41.74127
40.81763
39.94816
39.13165
38.36704
37.64944
37.15655
36.87609
36.52264
36.1308
35.72222
35.30148
34.8741
34.44686
34.0261
33.61674
33.21305
32.82435
32.46293
32.12734
31.81501
31.52673
31.26254
31.02061
30.81324
27.27257
27.07634
26.91608
26.78958
26.69754
26.6295
26.57671
26.53282
26.49329
26.45974
26.42458
26.37585
26.31269
26.23399
26.13971
26.03037
25.90824
25.78058
25.65688
25.55883
25.43975
25.2908
25.14718
25.00233
24.83968
24.65018
24.43408
24.19201
23.92433
23.632
23.31668
22.98059
22.62631
22.25658
21.87408
21.48125
21.08019
20.67286
20.26315
19.8592
19.46325
19.0834
18.73477
18.41333
18.11038
17.83506
17.58448
17.33928
17.07435
16.81464
16.57488
16.34865
16.13464
15.93184
15.73943
15.55633
15.3813
15.21454
15.0555
14.90368
14.75862
14.61986
14.487
14.35969
14.2376
14.12043
14.0079
13.89975
13.79574
13.69564
13.59925
13.50636
13.4168
13.3304
13.247
13.16645
13.08861
13.01336
12.94058
12.87015
12.80197
12.73595
12.672
12.6101
12.55021
12.49226
12.43619
12.38195
12.32949
12.27875
12.22967
12.18216
12.13615
12.09152
12.04812
12.0058
11.96447
11.92431
11.88582
11.84933
11.81471
11.78235
11.75236
11.72446
11.69839
11.67395
11.65095
11.62918
11.60847
11.58865
11.56956
11.55108
11.53307
11.51542
11.49804
11.48084
11.46373
11.44664
11.42951
11.41221
11.39452
11.37641
11.35794
11.33913
11.32003
11.30063
11.28096
11.26104
11.24089
11.22053
11.19998
11.17929
11.15848
11.13761
11.11669
11.09579
11.07494
11.05423
11.03366
11.01333
10.99323
10.97346
10.95393
10.93466
10.91521
10.89518
10.87343
10.83772
11.13934
11.49997
11.76242
11.95195
12.08882
12.18776
12.25965
12.31241
12.35175
12.38175
12.40535
12.42463
12.44107
12.45573
12.46939
12.48256
12.49563
12.50888
12.52255
12.53677
12.55163
12.56719
12.58348
12.60049
12.61818
12.63652
12.65541
12.67469
12.69411
12.71328
12.73165
12.74801
12.75999
12.76178
12.74231
12.70666
12.66099
12.61235
12.56184
12.50972
12.45672
12.40346
12.3504
12.29795
12.24643
12.19615
12.14737
12.1003
12.05512
12.01198
11.97101
11.93231
11.89594
11.86195
11.83038
11.80124
11.77454
11.75025
11.72835
11.7088
11.69155
11.67655
11.66372
11.65299
11.64428
11.63749
11.63255
11.62937
11.62788
11.62952
10.01022
9.980771
9.962025
9.949941
9.941752
9.936017
9.93209
9.929483
9.927653
9.926108
9.924463
9.922419
9.919742
9.916242
9.911774
9.906226
9.899518
9.891592
9.882419
9.871987
9.860305
9.8474
9.833311
9.818088
9.80179
9.784489
9.766258
9.747183
9.727346
9.706837
9.685739
9.664138
9.642115
9.619752
9.597124
9.574312
9.551392
9.528443
9.505547
9.482798
9.460311
9.438236
9.416771
9.396125
9.376432
9.357702
9.339716
9.322189
9.305065
9.288421
9.272272
9.256551
9.241353
9.228239
9.217375
9.204611
9.189967
9.175043
9.160465
9.146198
9.13215
9.118249
9.1044
9.090503
9.076468
9.062232
9.047745
9.032969
9.017872
9.002437
8.986652
8.970513
8.954029
8.937215
8.920092
8.902681
8.885005
8.867086
8.848949
8.830621
8.812129
8.793499
8.774754
8.75592
8.737021
8.718073
8.699093
8.680098
8.661098
8.642106
8.623127
8.604167
8.585228
8.566311
8.547415
8.528534
8.509663
8.49079
8.471906
8.452997
8.434049
8.415048
8.395982
8.376839
8.357606
8.338274
8.318831
8.299265
8.27957
8.259738
8.239761
8.219633
8.199346
8.178894
8.158273
8.137474
8.116492
8.095317
8.07394
8.052348
8.030526
8.00845
7.9861
7.963429
7.940405
7.916948
7.892998
7.868419
7.843097
7.816779
7.789213
7.759887
7.728181
7.693031
7.653222
7.607835
7.557144
7.506794
7.461554
604.837
524.2574
459.278
411.532
375.1969
346.9538
324.5658
306.799
292.7033
275.014
159.239
145.2511
133.281
123.0904
115.0113
110.2987
107.3271
104.3868
96.11981
65.38284
63.69196
62.60965
61.41505
60.15371
58.93208
57.6897
56.42415
55.12009
53.66356
51.59225
49.52927
47.74881
46.23299
44.90586
43.7132
42.61393
41.58381
40.60191
40.23604
39.53376
38.68558
37.78087
36.87304
35.98873
35.14041
34.33316
33.56955
32.85133
32.17152
31.5209
30.89612
30.29394
29.71322
29.15485
28.61988
28.11438
25.45288
25.05911
24.69186
24.34799
24.0249
23.72034
23.43279
23.16132
22.90521
22.66326
22.43496
22.22192
22.0231
21.83674
21.66156
21.49682
21.34169
21.19528
21.05692
20.92543
20.80079
20.68177
20.56421
20.44665
20.32925
20.21241
20.09651
19.98204
19.8697
19.76077
19.65753
19.56189
19.47464
19.39636
19.32728
19.2682
19.21627
19.16372
19.20704
19.25895
19.30936
19.35976
19.41367
19.47304
19.53684
19.60308
19.66954
19.73405
19.79374
19.8463
19.88965
19.92298
19.94491
19.95633
19.95662
19.94931
19.93484
19.91867
19.89911
19.86694
19.82726
19.78403
19.73567
19.67688
19.60561
19.52144
19.42387
19.31203
19.18496
19.04191
18.88241
18.70637
18.51399
18.30583
18.08289
17.84679
17.59987
17.34554
17.08749
16.82896
16.57673
16.33529
16.10363
15.87768
15.65928
15.43821
15.21257
14.98588
14.76749
14.55946
14.361
14.17126
13.98982
13.81661
13.65187
13.49447
13.3438
13.19941
13.06089
12.92787
12.79996
12.67683
12.55814
12.44358
12.33287
12.22574
12.12193
12.02123
11.92342
11.82833
11.73578
11.64564
11.55777
11.47204
11.38835
11.3066
11.22669
11.14856
11.07211
10.9973
10.92405
10.85232
10.78205
10.71321
10.64575
10.57965
10.51486
10.45137
10.38912
10.32807
10.26819
10.20944
10.15176
10.09512
10.03954
9.985108
9.931961
9.880112
9.829412
9.779779
9.731217
9.683751
9.637377
9.592072
9.547798
9.504503
9.462127
9.420605
9.37987
9.339849
9.30047
9.26166
9.223344
9.185451
9.147911
9.110657
9.073636
9.036852
9.000394
8.964168
8.928056
8.891962
8.855804
8.819512
8.783035
8.746319
8.709336
8.672059
8.634466
8.596544
8.558297
8.519713
8.480817
8.441599
8.40211
8.362327
8.32234
8.282087
8.241718
8.201078
8.160413
8.119387
8.078418
8.036815
7.995325
7.95294
7.927538
7.893294
7.853554
7.810484
7.765733
7.72036
7.675044
7.630219
7.586154
7.543012
7.500884
7.459819
7.419839
7.380945
7.343129
7.306373
7.270654
7.235952
7.202238
7.169479
7.137637
7.106672
7.076541
7.047186
7.01855
6.990562
6.963131
6.936136
6.909416
6.882755
6.856303
6.82983
6.802943
6.775233
6.746453
6.716719
6.686645
6.656666
6.626857
6.597289
6.568045
6.539196
6.510804
6.482928
6.455626
6.428956
6.402971
6.377722
6.353255
6.329616
6.306847
6.284986
6.264067
6.244122
6.225177
6.207257
6.19038
6.174561
6.159811
6.146135
6.133534
6.12201
6.111552
6.102158
6.093806
6.086492
6.080183
6.074893
6.070533
6.065032
6.083679
6.100563
6.115581
6.128753
6.140525
6.151337
6.161448
6.170964
6.179909
6.188283
6.196078
6.203283
6.209886
6.21587
6.221214
6.2259
6.229909
6.233227
6.235844
6.237754
6.238959
6.239466
6.239285
6.238436
6.23694
6.234825
6.232122
6.228868
6.225102
6.220864
6.216197
6.211141
6.205742
6.200041
6.194083
6.187912
6.181572
6.175107
6.168565
6.161997
6.155459
6.149012
6.142718
6.136636
6.130799
6.125227
6.119874
6.114691
6.109616
6.10467
6.099825
6.095091
6.090406
6.085705
6.081074
6.076672
6.072559
6.06871
6.064912
6.061043
6.057097
6.053084
6.048999
6.044841
6.040612
6.036309
6.03193
6.027468
6.022915
6.018263
6.013501
6.008622
6.00362
5.998488
5.993222
5.987818
5.982271
5.976581
5.970745
5.964766
5.958641
5.952374
5.945967
5.939423
5.932746
5.925941
5.919013
5.911966
5.904806
5.897536
5.890162
5.882686
5.875114
5.86745
5.859695
5.851854
5.843927
5.835915
5.827817
5.819632
5.811358
5.802992
5.794532
5.785974
5.777315
5.76855
5.759676
5.750689
5.741584
5.732358
5.723006
5.713525
5.70391
5.694159
5.684267
5.674234
5.664054
5.653726
5.643244
5.632605
5.621798
5.610819
5.59965
5.588284
5.576686
5.564844
5.552695
5.540217
5.527296
5.513891
5.499785
5.484908
5.468877
5.451632
5.432675
5.412232
5.389899
5.367067
5.344841
371.3602
264.2193
384.8266
168.543
130.4986
95.20325
81.29296
69.81449
60.56482
56.21116
54.43451
53.39143
52.29434
51.25069
50.26328
49.38212
48.59311
47.89474
47.34289
46.95042
46.66356
46.51771
46.55897
46.69143
46.84777
47.00948
47.1606
47.27845
47.32921
47.23843
46.90093
45.55163
45.15636
44.61985
43.98304
43.25831
42.45409
41.58101
40.65361
39.69005
38.70908
37.71857
36.72612
35.74164
34.77561
33.83418
32.92011
32.03704
31.18691
30.3696
29.58795
28.84293
28.13231
27.45538
26.81036
26.19575
25.61043
25.05356
24.52406
24.02049
23.54174
23.08663
22.6541
22.24313
21.85308
21.48304
21.13271
20.79675
20.50374
20.2239
19.95892
19.70848
19.47178
19.24844
19.03827
18.84114
18.65673
18.48468
18.32482
18.17666
18.03922
17.91163
17.79324
17.68346
17.58147
17.4862
17.39514
17.3045
17.2144
17.12469
17.0386
16.95702
16.87945
16.8053
16.7342
16.66594
16.60049
16.5376
16.47808
16.42198
16.37039
16.3234
16.28254
16.24714
16.22004
16.20033
16.19229
16.19472
16.20581
16.22525
16.25332
16.2898
16.33354
16.38291
16.43607
16.49121
16.54651
16.60028
16.6507
16.69633
16.73576
16.76832
16.79332
16.81114
16.82204
16.82723
16.82673
16.81888
16.8046
16.78583
16.76304
16.73545
16.70239
16.66375
16.61937
16.56876
16.51104
16.4452
16.37021
16.2851
16.18905
16.08147
15.9621
15.8311
15.68917
15.53764
15.37841
15.21338
15.04541
14.87671
14.70765
14.53681
14.36425
14.18781
14.00663
13.82323
13.64263
13.46734
13.29764
13.13335
12.97448
12.82122
12.67382
12.53259
12.39657
12.26533
12.13864
12.01624
11.8979
11.78336
11.67237
11.5647
11.4601
11.35834
11.25923
11.16256
11.06815
10.97586
10.88554
10.79708
10.71036
10.62529
10.54178
10.45977
10.37918
10.29996
10.22206
10.14544
10.07005
9.995873
9.922871
9.851022
9.780302
9.71069
9.642167
9.574714
9.508315
9.442949
9.378598
9.315246
9.252882
9.191504
9.131132
9.07181
9.01359
8.956475
8.900395
8.845287
8.791135
8.737948
8.685723
8.634445
8.584094
8.534642
8.486064
8.438326
8.39139
8.345212
8.299742
8.254931
8.210725
8.167067
8.123901
8.081165
8.038801
7.996748
7.954955
7.913375
7.871947
7.83061
7.789305
7.747972
7.706557
7.665011
7.623291
7.581357
7.539177
7.496723
7.453975
7.410917
7.367543
7.323846
7.279838
7.235513
7.190904
7.146003
7.100862
7.055462
7.009881
6.964074
6.918163
6.872077
6.826034
6.780011
6.734899
6.690122
6.645335
6.600442
6.555485
6.51053
6.465646
6.420894
6.376351
6.332088
6.288172
6.244664
6.201619
6.159085
6.117108
6.075719
6.034956
5.994844
5.955404
5.916645
5.87858
5.841208
5.804529
5.768539
5.733229
5.69857
5.664537
5.631092
5.598181
5.565734
5.533679
5.501915
5.47033
5.438822
5.407357
5.376011
5.344986
5.31448
5.284564
5.255241
5.226513
5.198387
5.170876
5.143991
5.117752
5.092173
5.067273
5.043073
5.019592
4.996847
4.974857
4.953641
4.933215
4.913596
4.894795
4.876826
4.8597
4.843422
4.828001
4.813437
4.799734
4.786887
4.774898
4.763756
4.753463
4.743997
4.735367
4.727534
4.720529
4.714209
4.709394
4.705833
4.703402
4.701913
4.701185
4.701066
4.701441
4.702223
4.703333
4.704702
4.706264
4.707961
4.709741
4.711553
4.713351
4.715093
4.71674
4.718257
4.719613
4.720781
4.721741
4.722475
4.722971
4.723222
4.723222
4.722973
4.72248
4.72175
4.720794
4.719625
4.718258
4.71671
4.715
4.713147
4.711171
4.709094
4.706938
4.704726
4.702483
4.700234
4.698004
4.695822
4.693712
4.691695
4.689789
4.688002
4.686323
4.684732
4.68321
4.681749
4.680352
4.679013
4.677752
4.67659
4.675534
4.674551
4.67353
4.672454
4.671342
4.670219
4.669092
4.667958
4.666809
4.66564
4.664447
4.663227
4.661974
4.660683
4.659349
4.657966
4.656527
4.655027
4.653461
4.651824
4.650111
4.64832
4.646446
4.644488
4.642442
4.640307
4.638081
4.635763
4.633352
4.630848
4.62825
4.62556
4.622778
4.619904
4.61694
4.613887
4.610745
4.607517
4.604203
4.600806
4.597327
4.593768
4.590129
4.586412
4.582616
4.578742
4.574789
4.570756
4.566642
4.562446
4.558165
4.553797
4.549337
4.544784
4.540133
4.535381
4.530523
4.525556
4.520479
4.515287
4.509979
4.504554
4.49901
4.493346
4.487561
4.481652
4.475615
4.469449
4.463146
4.4567
4.450096
4.443324
4.436356
4.429173
4.421728
4.413985
4.405866
4.397319
4.388227
4.378548
4.368146
4.357063
4.345173
4.332876
4.320624
349.058
232.1681
173.6641
156.9288
126.7775
106.7283
90.99813
84.62082
77.62531
73.34305
69.56468
64.71199
60.04691
55.71632
51.82913
47.76804
42.19516
40.76888
39.7477
39.19848
39.05502
39.14936
39.3232
39.5284
39.75953
40.01728
40.31513
40.64792
41.00175
41.36689
41.74133
42.12051
42.49582
42.85674
43.19081
43.48524
43.72628
43.90141
44.00154
44.02513
44.01851
43.82537
43.25348
42.67332
41.96929
41.15734
40.25504
39.279
38.24811
37.18138
36.09829
35.01432
33.94346
32.89376
31.87134
30.88265
29.93151
29.01988
28.14946
27.3205
26.53306
25.78289
25.07021
24.39766
23.76393
23.16667
22.60371
22.07313
21.57304
21.10166
20.65711
20.2377
19.84189
19.46838
19.11601
18.78374
18.47063
18.17575
17.8979
17.63673
17.39201
17.16352
16.95028
16.75131
16.56598
16.39387
16.23457
16.08762
15.95251
15.82868
15.71538
15.6119
15.51758
15.43171
15.35325
15.27925
15.20646
15.13629
15.07164
15.01131
14.95432
14.90005
14.84803
14.79789
14.74931
14.70209
14.65612
14.61147
14.56828
14.52701
14.48799
14.45186
14.41909
14.39053
14.36661
14.34833
14.33561
14.32907
14.32935
14.33645
14.3502
14.37054
14.39724
14.42977
14.46728
14.50871
14.55291
14.59862
14.64452
14.68921
14.73137
14.76982
14.80361
14.83201
14.85463
14.87129
14.88204
14.88681
14.88541
14.87825
14.86623
14.85003
14.83009
14.80668
14.78014
14.75081
14.71875
14.68377
14.64539
14.60297
14.55575
14.50293
14.44372
14.37742
14.30356
14.222
14.1328
14.03644
13.93357
13.82508
13.71171
13.59365
13.47046
13.34198
13.20793
13.06856
12.92567
12.7819
12.63905
12.49802
12.35935
12.22349
12.09087
11.96189
11.8369
11.71629
11.59948
11.48603
11.37583
11.26874
11.1646
11.06324
10.96448
10.86814
10.77402
10.68195
10.59177
10.50331
10.41645
10.33107
10.24706
10.16432
10.08279
10.0024
9.923096
9.844829
9.767565
9.691275
9.615936
9.541532
9.468048
9.395476
9.323807
9.253036
9.183158
9.114169
9.046067
8.978849
8.912512
8.847055
8.782478
8.718786
8.655989
8.594109
8.533173
8.473211
8.414231
8.356214
8.299133
8.242976
8.187746
8.133442
8.080061
8.027591
7.976028
7.925352
7.87555
7.826602
7.778477
7.731145
7.684567
7.638705
7.593515
7.548948
7.504951
7.461468
7.418442
7.375814
7.333526
7.291516
7.249721
7.208079
7.166527
7.125006
7.083458
7.041827
7.000062
6.958117
6.91595
6.873524
6.830808
6.787779
6.744414
6.700704
6.656639
6.612222
6.56745
6.52234
6.476896
6.43115
6.385111
6.338832
6.292333
6.245696
6.198954
6.152189
6.10546
6.058799
6.01221
5.965704
5.919305
5.87304
5.826941
5.781045
5.735391
5.690016
5.64496
5.600259
5.555949
5.512061
5.46863
5.425684
5.38325
5.341351
5.300007
5.259233
5.219044
5.179448
5.140452
5.102056
5.064257
5.027048
4.990412
4.954329
4.918768
4.883693
4.849062
4.814836
4.780989
4.747523
4.714484
4.681966
4.650071
4.618851
4.588307
4.558432
4.529224
4.500687
4.472825
4.445646
4.419156
4.393363
4.368275
4.343901
4.32025
4.297334
4.275158
4.253733
4.233067
4.213166
4.194036
4.175681
4.158103
4.141304
4.125284
4.110039
4.095569
4.081872
4.068941
4.056774
4.045358
4.034688
4.024746
4.015518
4.006968
3.999113
3.991955
3.985486
3.979675
3.974479
3.96986
3.965788
3.962227
3.959138
3.956478
3.954203
3.952267
3.950629
3.949249
3.948087
3.947105
3.946268
3.945544
3.944902
3.944315
3.943758
3.943209
3.942651
3.942069
3.94145
3.940786
3.940071
3.939301
3.938476
3.937596
3.936666
3.935689
3.934673
3.933624
3.932551
3.931464
3.930374
3.929291
3.928228
3.927197
3.92621
3.92528
3.924417
3.923632
3.922931
3.922317
3.921785
3.921328
3.920936
3.920604
3.920332
3.92012
3.919968
3.919869
3.919814
3.919789
3.919787
3.919808
3.919849
3.919902
3.919956
3.920003
3.920038
3.920057
3.920058
3.920037
3.919992
3.91992
3.919816
3.919677
3.919499
3.919279
3.919013
3.918698
3.918332
3.917912
3.917437
3.916905
3.916315
3.915666
3.914956
3.914184
3.91335
3.912453
3.911493
3.910469
3.909382
3.90823
3.907015
3.905737
3.904396
3.902994
3.90153
3.900006
3.898423
3.896782
3.895084
3.89333
3.89152
3.889654
3.887732
3.885754
3.883717
3.881622
3.879465
3.877243
3.874954
3.872595
3.870161
3.867649
3.865054
3.862373
3.859601
3.856737
3.853777
3.85072
3.847565
3.84431
3.840956
3.837502
3.833947
3.830289
3.826528
3.822658
3.818676
3.814572
3.810336
3.805955
3.801407
3.796672
3.791718
3.786516
3.781024
3.775217
3.769045
3.762523
3.75559
3.748421
3.741279
172.9482
126.8123
199.2139
98.22225
85.01606
74.03961
70.7068
68.36642
65.61693
64.47514
62.83428
60.48562
58.22293
55.77404
52.91308
47.75233
46.32386
44.98709
43.71124
42.5092
41.34175
40.26122
39.31965
38.54078
37.93721
37.50088
37.14275
36.82838
36.70341
36.78411
37.04132
37.4032
37.79892
38.19322
38.57306
38.94913
39.30972
39.65208
39.97964
40.29702
40.60645
40.90693
41.19468
41.46058
41.6917
41.87573
41.9882
42.01941
41.95101
41.73764
41.40433
40.94896
40.30417
39.54465
38.64951
37.64381
36.5585
35.42136
34.25648
33.08477
31.92405
30.78838
29.68874
28.63243
27.62395
26.66633
25.76087
24.90749
24.10551
23.35243
22.64965
21.99501
21.38554
20.8169
20.2844
19.78554
19.31801
18.8796
18.46824
18.08204
17.71922
17.37819
17.05753
16.75603
16.47263
16.20637
15.95639
15.72185
15.50211
15.29649
15.10449
14.9257
14.75959
14.60561
14.46328
14.33222
14.21203
14.10229
14.00252
13.91219
13.83074
13.75759
13.69211
13.63313
13.5766
13.52327
13.4756
13.43273
13.39391
13.35827
13.325
13.29347
13.26312
13.23355
13.20443
13.17556
13.14686
13.11842
13.09044
13.06327
13.03733
13.01315
12.99133
12.97251
12.95728
12.94625
12.93984
12.93855
12.94279
12.95267
12.96806
12.98885
13.01489
13.04582
13.08109
13.11992
13.16141
13.20456
13.24828
13.29145
13.33294
13.37172
13.40686
13.43759
13.4633
13.48354
13.49809
13.50678
13.50957
13.50671
13.49871
13.48612
13.46968
13.44997
13.42756
13.40303
13.37681
13.34915
13.32009
13.28947
13.25698
13.22216
13.18445
13.14328
13.09807
13.04854
12.99411
12.93457
12.8698
12.79972
12.72427
12.64326
12.55645
12.46361
12.36485
12.26039
12.15123
12.03885
11.92463
11.80961
11.69454
11.58007
11.46679
11.35523
11.24587
11.13907
11.03529
10.93429
10.83562
10.73925
10.64514
10.55321
10.46336
10.37545
10.28936
10.20491
10.12199
10.04044
9.96013
9.880957
9.802814
9.725614
9.649282
9.573757
9.498991
9.424944
9.35159
9.278907
9.206885
9.135517
9.064802
8.994744
8.925348
8.85662
8.788571
8.721208
8.654542
8.588583
8.52334
8.458824
8.395046
8.332023
8.269771
8.208312
8.147672
8.087874
8.028934
7.970854
7.91363
7.857262
7.801758
7.747125
7.693371
7.640499
7.588509
7.537404
7.487178
7.437826
7.389338
7.341695
7.294876
7.248856
7.203604
7.159084
7.115258
7.07208
7.029503
6.987473
6.945937
6.904835
6.864106
6.823686
6.783512
6.743518
6.703639
6.663811
6.623973
6.584066
6.544033
6.503822
6.463387
6.422685
6.381679
6.340339
6.29864
6.256565
6.214101
6.171242
6.127984
6.084339
6.040316
5.995941
5.951238
5.906246
5.861003
5.815549
5.769931
5.724183
5.678331
5.632404
5.58644
5.54048
5.494564
5.44873
5.403018
5.357468
5.312118
5.267005
5.222165
5.177632
5.133439
5.089616
5.046192
5.003194
4.960645
4.918567
4.876977
4.835893
4.795325
4.755283
4.715774
4.676799
4.638356
4.60044
4.563042
4.526148
4.489749
4.453834
4.418405
4.383477
4.349085
4.315285
4.282133
4.249659
4.217871
4.186766
4.156342
4.126601
4.097546
4.06918
4.041507
4.014532
3.988258
3.962692
3.937839
3.913703
3.89029
3.867604
3.845649
3.824429
3.803946
3.784203
3.765199
3.746931
3.729398
3.712596
3.696522
3.681174
3.666547
3.652639
3.639441
3.626949
3.615149
3.604026
3.59356
3.583734
3.574532
3.565932
3.557909
3.550441
3.54351
3.537099
3.531187
3.525751
3.520764
3.516198
3.512026
3.508219
3.504748
3.501585
3.498701
3.496069
3.493663
3.491456
3.489425
3.487548
3.485804
3.484174
3.482643
3.481196
3.479821
3.478507
3.477247
3.476034
3.474864
3.473735
3.472643
3.47159
3.470576
3.469603
3.468675
3.467795
3.466966
3.466195
3.465486
3.464844
3.464275
3.463782
3.46337
3.46304
3.462792
3.462624
3.462529
3.462504
3.462544
3.462647
3.462809
3.463028
3.463296
3.46361
3.463967
3.46436
3.464783
3.46523
3.465693
3.466169
3.466652
3.467137
3.467622
3.468101
3.468571
3.469029
3.46947
3.469891
3.470287
3.470656
3.470995
3.471301
3.471573
3.47181
3.472009
3.47217
3.472292
3.472375
3.472418
3.47242
3.472381
3.472299
3.472175
3.472008
3.471798
3.471543
3.471245
3.470902
3.470514
3.470081
3.469603
3.46908
3.468515
3.467907
3.467258
3.466565
3.465827
3.465044
3.464215
3.46334
3.462419
3.461452
3.460439
3.459382
3.458282
3.457138
3.455943
3.454694
3.453389
3.452026
3.4506
3.449109
3.447546
3.44591
3.444195
3.442401
3.440526
3.438568
3.436527
3.434405
3.432199
3.429911
3.42754
3.425082
3.422535
3.419895
3.417153
3.414302
3.411329
3.408221
3.404964
3.401538
3.397931
3.394122
3.390115
3.385878
3.381509
3.377179
70.64181
52.96107
50.85146
48.94202
48.55254
47.85118
47.32193
46.78181
46.23763
45.1318
42.29822
42.13632
41.94933
41.72604
41.44348
41.09853
40.74261
40.41571
40.1325
39.87572
39.47755
38.83046
38.20296
37.60816
37.0585
36.55897
36.12642
35.77184
35.49986
35.30667
35.18088
35.11744
35.14141
35.25884
35.47646
35.77381
36.10895
36.44123
36.76374
37.08679
37.39226
37.68125
37.96217
38.24284
38.52914
38.82316
39.12231
39.41871
39.68506
39.90285
40.05084
40.0771
39.9663
39.71007
39.28904
38.70016
37.95262
37.05607
36.02797
34.90175
33.70864
32.47819
31.23672
30.00625
28.80456
27.64543
26.53849
25.49024
24.50405
23.58094
22.72011
21.92007
21.17786
20.49208
19.86067
19.27949
18.74448
18.25025
17.79082
17.36301
16.96419
16.59196
16.24411
15.91867
15.61393
15.32839
15.06071
14.80975
14.57451
14.35415
14.14787
13.95502
13.77494
13.6071
13.45096
13.30601
13.17181
13.0479
12.93387
12.82925
12.73364
12.64663
12.56782
12.49676
12.43302
12.37613
12.32559
12.28052
12.2378
12.1999
12.16734
12.13934
12.11509
12.09383
12.07479
12.05729
12.04074
12.02462
12.00855
11.99221
11.97542
11.95813
11.94038
11.92239
11.90445
11.88701
11.87056
11.85569
11.84301
11.83316
11.82671
11.82421
11.82614
11.83285
11.84454
11.86122
11.88286
11.90931
11.94029
11.97532
12.01376
12.05486
12.09774
12.14144
12.185
12.2274
12.26767
12.30493
12.33836
12.3673
12.39118
12.40968
12.42256
12.42973
12.4313
12.42758
12.41898
12.40622
12.3899
12.37065
12.3491
12.32586
12.30139
12.27603
12.24998
12.22326
12.19577
12.16726
12.13741
12.10581
12.07224
12.03602
11.99671
11.95389
11.90707
11.85581
11.79967
11.73839
11.67165
11.59957
11.52196
11.4393
11.35242
11.26225
11.16963
11.07526
10.97981
10.88391
10.78814
10.69305
10.5991
10.50669
10.41633
10.32802
10.24128
10.15619
10.07277
9.99101
9.910856
9.832229
9.755028
9.679139
9.604442
9.530822
9.458164
9.386366
9.315334
9.244987
9.175255
9.106081
9.037418
8.969235
8.901505
8.834216
8.767361
8.700939
8.634957
8.569425
8.504354
8.439759
8.375657
8.312063
8.248996
8.186474
8.124513
8.063133
8.002355
7.9422
7.882692
7.823855
7.765712
7.708283
7.651581
7.595615
7.540395
7.485934
7.432249
7.379355
7.327263
7.275986
7.225536
7.175918
7.127141
7.079209
7.032119
6.985867
6.94044
6.895825
6.852002
6.808948
6.766633
6.725023
6.684078
6.643755
6.604006
6.564777
6.526011
6.487649
6.449627
6.41188
6.374343
6.336949
6.299633
6.262329
6.224975
6.187511
6.149881
6.112034
6.073923
6.035507
5.99675
5.957624
5.918105
5.878175
5.837825
5.797052
5.755861
5.714265
5.672282
5.629937
5.587255
5.544266
5.500992
5.457461
5.4137
5.369748
5.325642
5.281421
5.237126
5.192796
5.148472
5.104193
5.06
5.01593
4.972022
4.928311
4.884832
4.841618
4.798699
4.756105
4.713861
4.671992
4.630519
4.589462
4.548836
4.508656
4.468933
4.429675
4.390888
4.352575
4.314742
4.277391
4.240531
4.204174
4.168343
4.133067
4.098385
4.064332
4.030933
3.998197
3.966127
3.934724
3.903992
3.873931
3.844547
3.81584
3.787816
3.760476
3.733825
3.707867
3.682605
3.658041
3.634178
3.611017
3.58856
3.56681
3.545769
3.525435
3.505804
3.486868
3.468626
3.45107
3.434197
3.418006
3.402494
3.387662
3.373511
3.36005
3.347264
3.335119
3.323594
3.312669
3.302326
3.292546
3.283316
3.27462
3.266445
3.258773
3.251588
3.24487
3.238601
3.232758
3.227322
3.22227
3.21758
3.213229
3.209196
3.205458
3.201993
3.198782
3.195802
3.193036
3.190466
3.188075
3.185849
3.183772
3.181835
3.180025
3.178333
3.176752
3.175275
3.173896
3.172611
3.171417
3.170312
3.169293
3.168361
3.167514
3.166753
3.166079
3.165492
3.164993
3.164582
3.164259
3.164022
3.163871
3.163801
3.163809
3.16389
3.164041
3.164257
3.164535
3.16487
3.165259
3.165698
3.166183
3.166707
3.167265
3.16785
3.16846
3.16909
3.169735
3.170391
3.171055
3.171722
3.172388
3.173051
3.173705
3.174348
3.174977
3.17559
3.176184
3.176758
3.177311
3.177842
3.17835
3.178834
3.179295
3.179731
3.180141
3.180526
3.180885
3.181216
3.181519
3.181792
3.182035
3.182252
3.182444
3.182612
3.182753
3.182866
3.182949
3.183
3.183013
3.182986
3.182917
3.182806
3.182652
3.182453
3.182209
3.181919
3.181583
3.1812
3.180769
3.180292
3.179768
3.179201
3.178599
3.177967
3.177309
3.176625
3.175908
3.175143
3.174328
3.17346
3.172534
3.171546
3.170495
3.169378
3.168194
3.166942
3.165623
3.164237
3.162784
3.161263
3.159675
3.158016
3.156285
3.154477
3.152587
3.150609
3.148535
3.146358
3.144069
3.141659
3.139131
3.136462
3.133719
3.131006
93.14259
40.67459
34.19343
33.37103
33.20978
33.28691
33.6167
34.04761
34.56078
35.12972
35.55826
35.71164
35.83254
35.9009
35.93214
35.91948
35.87969
35.81842
35.72121
35.5641
35.32421
35.03327
34.74827
34.48723
34.25853
34.06514
33.91236
33.79952
33.72548
33.68928
33.68352
33.7071
33.76616
33.86013
33.9944
34.15971
34.33617
34.53257
34.76919
35.03054
35.31099
35.61074
35.93704
36.29263
36.66709
37.05281
37.43934
37.80964
38.09151
38.26887
38.31511
38.19647
37.89469
37.40326
36.7204
35.85578
34.83747
33.70412
32.4729
31.18668
29.88093
28.58449
27.3202
26.10511
24.95128
23.86641
22.85422
21.9159
21.05007
20.25389
19.52348
18.85446
18.24424
17.68775
17.17992
16.71367
16.2837
15.88643
15.51839
15.17675
14.8591
14.56334
14.28761
14.03032
13.79013
13.56586
13.3565
13.16119
12.97917
12.80975
12.65234
12.50635
12.37125
12.24651
12.1316
12.02598