/*--------------------------------*- C++ -*----------------------------------*\
| =========                 |                                                 |
| \\      /  F ield         | foam-extend: Open Source CFD                    |
|  \\    /   O peration     | Version:     3.1                                |
|   \\  /    A nd           | Web:         http://www.extend-project.de       |
|    \\/     M anipulation  |                                                 |
\*---------------------------------------------------------------------------*/
FoamFile
{
    version     2.0;
    format      ascii;
    class       volScalarField;
    location    "11.5";
    object      nut;
}
// * * * * * * * * * * * * * * * * * * * * * * * * * * * * * * * * * * * * * //

dimensions      [0 2 -1 0 0 0 0];

internalField   nonuniform List<scalar> 
119952
(
5.048733e-05
3.30993e-05
3.311115e-05
3.643219e-05
3.858534e-05
3.651424e-05
3.535268e-05
3.474647e-05
3.445514e-05
3.431142e-05
3.421756e-05
3.405827e-05
3.384666e-05
3.363172e-05
3.341837e-05
3.320402e-05
3.297889e-05
3.269575e-05
3.227075e-05
3.165223e-05
4.090457e-05
3.80745e-05
3.551771e-05
4.198603e-05
3.917227e-05
3.959508e-05
4.122116e-05
4.264822e-05
4.294821e-05
2.641304e-05
3.279312e-05
3.538846e-05
3.988733e-05
4.453501e-05
4.948088e-05
5.47044e-05
6.023537e-05
6.594197e-05
7.176751e-05
8.182438e-05
0.0003619961
0.0004236511
0.0004922006
0.0005642009
0.0006375749
0.0007110694
0.0007842562
0.0008570783
0.0009290258
0.001323553
0.001400561
0.001477528
0.001553149
0.001627197
0.001699141
0.00176804
0.001832686
0.00189181
0.001945102
0.001992536
0.002030425
0.002061061
0.002084989
0.002101608
0.00210977
0.00210855
0.002098713
0.002084367
0.001925264
0.001977701
0.001942433
0.001925442
0.001914453
0.001904494
0.00190932
0.001931437
0.001971225
0.002028643
0.002103134
0.002193659
0.002301212
0.00243684
0.002603827
0.002802018
0.003028005
0.003272389
0.003517047
0.003733321
0.003883403
0.003904303
0.00373395
0.003407529
0.002978651
0.002551054
0.002206138
0.001953365
0.001777547
0.001644008
0.001611013
0.001620674
0.001665696
0.001739159
0.001841574
0.001979739
0.002149453
0.002344709
0.002557454
0.002775499
0.00298035
0.00314621
0.00323706
0.003220077
0.003043202
0.002614566
0.001773451
0.001177635
0.0007197203
0.0005834499
0.0006780978
0.0008533081
0.001047657
0.001270148
0.001396651
0.001513762
0.001618845
0.001699845
0.001763031
0.001815008
0.001859661
0.001899228
0.001935165
0.001968833
0.002001423
0.002031965
0.002060569
0.002087643
0.0021135
0.002138323
0.002162189
0.002185091
0.002206933
0.002227478
0.002246532
0.002264185
0.002280291
0.002294628
0.002306743
0.002291434
0.002261141
0.002235719
0.002215565
0.002199376
0.002185459
0.002172385
0.002158942
0.002144279
0.002127799
0.002109056
0.002087801
0.002063796
0.002036716
0.002005871
0.001970543
0.001931887
0.001890724
0.001847339
0.001801768
0.001752914
0.001699001
0.001642248
0.001584309
0.001526424
0.001470154
0.00141735
0.00136728
0.001319855
0.001275323
0.001233885
0.001195557
0.001160299
0.001127965
0.001098421
0.001071489
0.001047029
0.001024897
0.00100497
0.0009871611
0.0009714114
0.0009576798
0.0009459423
0.0009361891
0.0009284392
0.0009226952
0.0009190523
0.0009175612
0.0009186839
0.0009262154
0.0008532517
0.0007530315
0.000699184
0.0006704889
0.000655898
0.0006493432
0.0006477588
0.0006494174
0.0006533521
0.0006586987
0.0006638857
0.0006694644
0.000675168
0.000680433
0.0006846573
0.0006872844
0.0006872467
0.0006810134
0.000670677
0.0006578902
0.0006445499
0.0006327372
0.0006240964
0.0006193591
0.0006180648
0.0006185707
0.0006186072
0.0006160383
0.0006093493
0.0005976861
0.000580626
0.0005585036
0.0005324996
0.0005039966
0.0004756875
0.0004554764
0.000449286
0.0004426803
0.0004346575
0.0004264009
0.0004083598
0.0003509655
0.0002473265
0.000218953
0.0002623023
0.0003167622
0.0003656127
0.0004040069
0.0004308592
0.0004470399
0.0004488402
0.0004231731
0.0003369135
0.0002880704
0.0003060718
0.0003396544
0.0003685016
0.0003924189
0.0004147338
0.0004359278
0.0004506282
0.0004536594
0.0004551679
0.0004555875
0.0004553124
0.0004557972
0.0004554101
0.0004508349
0.0004415474
0.0004292671
0.0005401592
0.0005308949
0.0005267345
0.0005280029
0.0005353909
0.0005506966
0.0005757545
0.0006117997
0.0006592615
0.0007163561
0.0007784977
0.0008411498
0.0009017092
0.0009599585
0.001016945
0.001073039
0.00112839
0.001182984
0.00123672
0.001289436
0.001340703
0.001389737
0.001436936
0.001485227
0.001532006
0.00157589
0.001616576
0.001653954
0.001688017
0.001718842
0.00174657
0.001771379
0.001793465
0.001813022
0.001830245
0.001845338
0.0018585
0.001869903
0.001879674
0.001887899
0.001894631
0.001899893
0.001903685
0.001905962
0.001906597
0.001905238
0.001901459
0.001895905
0.001888918
0.001880604
0.00187107
0.001860409
0.00184873
0.00183624
0.001821661
0.001807706
0.00179784
0.001790952
0.001785428
0.001779912
0.001773431
0.001765382
0.001755483
0.001743703
0.001730175
0.001715122
0.001698808
0.0016815
0.001663446
0.001644869
0.001625958
0.001606869
0.001587728
0.001568634
0.001549664
0.001530874
0.001512305
0.001493995
0.001475979
0.001458287
0.001440941
0.001423957
0.001407343
0.001391107
0.001375255
0.001359791
0.001344721
0.001330049
0.001315778
0.001301908
0.001288439
0.001275371
0.001262699
0.001250418
0.001238521
0.001226997
0.001215836
0.001205022
0.001194538
0.001184364
0.001174476
0.001164848
0.001155448
0.001146244
0.0011372
0.001128279
0.001119445
0.001110661
0.00110189
0.001093101
0.00108427
0.00107537
0.001066363
0.001057218
0.001047919
0.001038467
0.001028879
0.001019187
0.001009433
0.0009996737
0.0009899742
0.0009804096
0.0009710615
0.0009620175
0.0009533662
0.0009451967
0.0009375943
0.0009306364
0.0009243927
0.0009189236
0.0009142795
0.0009104962
0.0009076225
0.0009057575
0.0009050646
0.0009058487
0.0009087674
0.0009158643
0.0007151479
5.505382e-05
5.989909e-05
7.121105e-05
8.37063e-05
9.558192e-05
0.0001065889
0.0001168742
0.000126601
0.0001373909
0.000452949
0.0006287922
0.0008105554
0.0009797527
0.001129632
0.001259627
0.001372835
0.00147311
0.001564063
0.002237835
0.002345737
0.002457608
0.002567594
0.002674286
0.002776991
0.002875249
0.002968726
0.00305726
0.003139828
0.003217538
0.003289959
0.003358411
0.003424999
0.003490287
0.003554026
0.003615781
0.003675186
0.003732131
0.003768744
0.003787181
0.003809663
0.003836957
0.003868489
0.003903219
0.003940536
0.003979983
0.004021201
0.004064109
0.004108241
0.004153501
0.004200709
0.004250534
0.00430376
0.004361223
0.004423393
0.004490149
0.004559975
0.005365955
0.005435591
0.005502695
0.005567051
0.005627169
0.005681371
0.005727824
0.005765019
0.005791434
0.005806102
0.005809741
0.00580298
0.00578659
0.005761108
0.005728531
0.005693572
0.005653732
0.005600496
0.005532552
0.005435305
0.005316757
0.005204989
0.005098918
0.005000703
0.00491633
0.004854057
0.00481889
0.004813406
0.004839941
0.004901327
0.005001766
0.005147185
0.005346694
0.005618576
0.005965337
0.006378832
0.006837879
0.00730709
0.007739383
0.008081308
0.008281061
0.008297545
0.008112879
0.007712976
0.007141307
0.006476993
0.005802875
0.00519431
0.004718379
0.00439817
0.004205822
0.004119516
0.004122105
0.004203001
0.004370029
0.00463643
0.004992604
0.005417659
0.005877504
0.006329734
0.006731967
0.007031371
0.006710258
0.006105729
0.005317538
0.004878398
0.004437828
0.003363494
0.002684439
0.002324688
0.001880722
0.001522907
0.001470959
0.001552128
0.001723261
0.001986542
0.002330027
0.002711028
0.003002716
0.003184794
0.003351895
0.003501356
0.003634062
0.003755654
0.003871563
0.003982822
0.004090467
0.004195382
0.00429817
0.004399174
0.004498539
0.004596269
0.004692266
0.004786372
0.004878365
0.004967965
0.005054787
0.005138432
0.00521785
0.005291931
0.005360242
0.005422441
0.005478275
0.005527523
0.005569906
0.005605077
0.005632663
0.00565232
0.005663766
0.005666801
0.005661275
0.005647098
0.005624281
0.005593016
0.005553695
0.005506752
0.005452605
0.005391647
0.005324267
0.005250943
0.005172281
0.005088949
0.005001572
0.00491059
0.004816388
0.004718736
0.004616768
0.004513197
0.004411537
0.004314063
0.004221275
0.004133641
0.004051598
0.003975564
0.003905914
0.003842984
0.003787069
0.003738451
0.003697366
0.003664075
0.00363878
0.003621759
0.003613206
0.003613478
0.003622844
0.003642035
0.003671567
0.003714335
0.003571853
0.00345209
0.003405251
0.003405048
0.003436603
0.003491212
0.003563562
0.003650146
0.003748304
0.00385557
0.003969185
0.004085823
0.004201607
0.004312446
0.004414424
0.004504036
0.004578319
0.00463532
0.004675323
0.00470195
0.004722096
0.004744031
0.004774697
0.00481744
0.004870493
0.004927316
0.004979095
0.005017538
0.005036363
0.005030987
0.004997688
0.004933799
0.004838883
0.004715296
0.004568005
0.004404204
0.004229443
0.004042522
0.003833701
0.003584657
0.003273584
0.002872538
0.002456867
0.002136438
0.001873684
0.001638729
0.001446216
0.001313412
0.001239777
0.00119683
0.001088119
0.001069319
0.001141699
0.001262194
0.001303538
0.001334626
0.001349086
0.001339681
0.00131273
0.001273974
0.00120901
0.001164657
0.001149898
0.00117242
0.001239357
0.001351837
0.001475036
0.001538224
0.001588263
0.001623443
0.001829905
0.001851842
0.001873532
0.001900269
0.001936904
0.001987385
0.002054463
0.002140037
0.002245112
0.002369169
0.002509719
0.002662775
0.002823868
0.002988982
0.003154939
0.003319484
0.003481154
0.00363894
0.00379205
0.003939736
0.004081222
0.004215679
0.004342247
0.004460797
0.004573092
0.004677479
0.004773276
0.004860303
0.00493866
0.005008655
0.005070746
0.005125498
0.005173524
0.005215431
0.005251787
0.005283148
0.005310039
0.005332901
0.005352072
0.005367793
0.005380233
0.005389506
0.005395685
0.005398803
0.005398828
0.005395606
0.005389042
0.005379265
0.005366406
0.005350548
0.005331749
0.005310117
0.005285606
0.005258359
0.005228456
0.005196092
0.00516166
0.005125459
0.005087604
0.005048105
0.005006987
0.004964329
0.004920267
0.004874987
0.004828702
0.004781632
0.004733992
0.004685976
0.004637762
0.004589498
0.004541312
0.004493306
0.004445564
0.00439815
0.004351116
0.004304499
0.004258334
0.004212646
0.004167461
0.004122801
0.004078685
0.004035132
0.00399216
0.003949789
0.003908036
0.003866925
0.003826478
0.003786717
0.003747665
0.003709342
0.003671768
0.003634956
0.00359892
0.003563667
0.003529198
0.003495513
0.003462601
0.003430446
0.003399024
0.003368302
0.003338236
0.003308773
0.003279848
0.003251384
0.003223293
0.003195476
0.003167825
0.003140222
0.003112546
0.003084673
0.003056479
0.003027843
0.002998651
0.002968803
0.002938218
0.002906839
0.002874639
0.00284162
0.002807825
0.002773324
0.002738235
0.002702702
0.002666919
0.002631102
0.002595509
0.002560415
0.002526113
0.0024929
0.002461055
0.002430828
0.002402416
0.002376009
0.002351746
0.002329866
0.002310431
0.002294005
0.002281349
0.002275258
0.002274509
2.943143e-05
3.578674e-05
4.531361e-05
5.656862e-05
6.987578e-05
8.572259e-05
0.0001049589
0.0001285432
0.0001581006
0.0002091348
0.0009015832
0.001057106
0.00122107
0.001396277
0.001581029
0.001766299
0.001928247
0.002092306
0.002494107
0.004436843
0.004675703
0.004840772
0.004991672
0.005133984
0.005267565
0.005385406
0.005494023
0.005601071
0.005778179
0.006094978
0.006320948
0.0064593
0.006551947
0.006620553
0.006674542
0.006718393
0.006754759
0.006790369
0.006685227
0.006688871
0.006735028
0.006794941
0.006855174
0.006910146
0.006957851
0.00699779
0.007030781
0.007057747
0.007079098
0.007098618
0.007117277
0.007135535
0.007153165
0.007169772
0.007184884
0.0071966
0.0079826
0.007995094
0.008000457
0.008002189
0.008002061
0.008000785
0.007998976
0.007997012
0.00799539
0.007994102
0.007992521
0.007990886
0.007989241
0.007986919
0.007983501
0.007978665
0.007972179
0.007964153
0.007955021
0.007944395
0.007932441
0.007920478
0.007908754
0.007897211
0.00788595
0.007875195
0.00786526
0.00785646
0.007849025
0.007843384
0.007840029
0.007839307
0.007842021
0.007849262
0.007862181
0.007881495
0.00790733
0.007940104
0.007961518
0.007987915
0.008017755
0.008049199
0.008080275
0.008108969
0.008133137
0.008150543
0.00815908
0.008157306
0.008144856
0.008122152
0.008090893
0.008056161
0.008017524
0.00796487
0.007897697
0.007813151
0.007712361
0.007588491
0.007444725
0.007295275
0.007147877
0.007007558
0.006880795
0.006775806
0.006699309
0.006656447
0.006652141
0.006692096
0.006783753
0.006936511
0.00715966
0.007464738
0.007859835
0.008333208
0.008856487
0.00938997
0.009885031
0.01
0.01
0.01
0.01
0.01
0.009948373
0.009349141
0.008660012
0.007957292
0.007320416
0.006810257
0.006442863
0.006214969
0.006119395
0.006150886
0.006306937
0.006595711
0.007003912
0.007495491
0.008020744
0.008528384
0.008978133
0.009329573
0.009066153
0.008463229
0.00786066
0.007587335
0.007570669
0.006341038
0.005239412
0.004368969
0.003732849
0.003306642
0.003023637
0.002371898
0.002122484
0.00211535
0.002267819
0.002537482
0.002892969
0.003294002
0.00368744
0.003938352
0.004132177
0.004313592
0.004484737
0.004650016
0.004810532
0.004967378
0.00512143
0.005273221
0.005422989
0.005570764
0.005716443
0.005859836
0.006000685
0.006138658
0.006273346
0.006404281
0.006530885
0.006652432
0.006768251
0.006877655
0.006979942
0.007074456
0.007160571
0.007237681
0.007305234
0.007362738
0.007409792
0.007446123
0.007471586
0.007486138
0.007489832
0.007482861
0.007465564
0.007438356
0.007401685
0.007356017
0.007301855
0.007239752
0.007170314
0.007094194
0.007012072
0.006924623
0.006832499
0.006736247
0.006636349
0.006533255
0.006426321
0.006316763
0.006208539
0.006102863
0.006000861
0.00590359
0.005812049
0.005727169
0.005649825
0.005580813
0.005520882
0.005470692
0.005430878
0.005401991
0.005384541
0.005378988
0.005385634
0.005404711
0.005435918
0.005478467
0.005519698
0.005584573
0.005670233
0.005775108
0.005898392
0.006039525
0.006197728
0.006371609
0.006558899
0.006756288
0.006959316
0.007162517
0.007360074
0.0075466
0.007717447
0.007868743
0.007997576
0.008102926
0.008187283
0.008257384
0.008322379
0.008390713
0.008467082
0.008550676
0.008635144
0.008711341
0.008770684
0.008807006
0.008816548
0.008796803
0.00874626
0.008665191
0.008556044
0.008422646
0.008268219
0.008093234
0.007895813
0.007670078
0.007406299
0.007099261
0.006746316
0.006356045
0.0059478
0.005520638
0.005057707
0.004555696
0.004037352
0.00353893
0.003097825
0.002741985
0.002483838
0.002318902
0.002231403
0.00215194
0.002013125
0.001996737
0.002058622
0.002155628
0.002244054
0.002215656
0.002172341
0.002126081
0.002088345
0.002042406
0.001928694
0.001839495
0.00180898
0.001853133
0.002005534
0.0022478
0.00236845
0.002433515
0.002501441
0.002575297
0.002658846
0.002755219
0.002866898
0.002995795
0.003143142
0.003309562
0.003493937
0.003693343
0.003903498
0.004119418
0.004336032
0.004549008
0.004756483
0.004957344
0.005150649
0.005335564
0.005511215
0.005676636
0.005830769
0.005972442
0.006103196
0.006223758
0.00633421
0.006434602
0.006525109
0.006606094
0.006678103
0.006741828
0.006798043
0.006847505
0.006890895
0.006928942
0.006962356
0.006991708
0.007017416
0.007039778
0.007059003
0.00707524
0.007088583
0.007099083
0.007106735
0.007111457
0.007113144
0.007111758
0.007107301
0.007099748
0.007089048
0.007075128
0.007057871
0.007037153
0.007012994
0.006985446
0.006954716
0.006920953
0.00688418
0.006844424
0.0068018
0.006756524
0.006708885
0.006659215
0.006607856
0.006555157
0.006501424
0.006446942
0.006391956
0.006336673
0.006281277
0.006225901
0.006170657
0.006115632
0.006060895
0.006006494
0.005952475
0.005898864
0.005845685
0.005792958
0.005740702
0.005688941
0.005637691
0.005586976
0.00553682
0.005487255
0.005438314
0.00539003
0.005342439
0.005295579
0.005249481
0.005204174
0.005159687
0.005116041
0.005073258
0.005031347
0.004990314
0.004950156
0.004910861
0.004872406
0.004834758
0.004797866
0.004761666
0.004726074
0.004690994
0.004656311
0.00462189
0.004587585
0.004553233
0.004518665
0.004483702
0.004448165
0.004411876
0.004374665
0.00433638
0.00429689
0.004256091
0.004213915
0.004170329
0.004125348
0.004079028
0.004031474
0.003982839
0.003933329
0.003883188
0.003832715
0.003782248
0.003732163
0.003682839
0.003634724
0.003588211
0.003543681
0.003501407
0.003461947
0.003425493
0.003392785
0.003363932
0.003340141
0.003321584
3.685921e-05
5.957322e-05
0.0001320576
0.0004451162
0.0007663508
0.001370645
0.001840689
0.002409904
0.003069605
0.003613867
0.004017955
0.004343408
0.004669559
0.005008581
0.005358789
0.005717229
0.006085823
0.006464296
0.006850996
0.007226021
0.007575948
0.00790104
0.008169372
0.008398287
0.008611687
0.008810181
0.008995144
0.00916874
0.009336897
0.009512334
0.009723183
0.01
0.01
0.01
0.01
0.009974811
0.009740672
0.009521689
0.009353698
0.009208256
0.009053045
0.008952583
0.008896134
0.008870181
0.008872695
0.008902119
0.008953976
0.009023988
0.009109639
0.009213536
0.009322623
0.00942088
0.00954379
0.009680991
0.009837698
0.01
0.01
0.01
0.01
0.01
0.01
0.01
0.01
0.01
0.01
0.01
0.01
0.01
0.01
0.01
0.01
0.01
0.01
0.01
0.01
0.01
0.01
0.01
0.01
0.01
0.01
0.01
0.01
0.009992662
0.009976006
0.009957326
0.009936684
0.009914358
0.009890978
0.009867306
0.0098438
0.009820624
0.009797804
0.009775403
0.009753638
0.009732828
0.009713259
0.009695139
0.009678657
0.009664093
0.009652146
0.00964386
0.009640608
0.009643351
0.009652479
0.009666986
0.00968494
0.009705303
0.009727027
0.009748937
0.0097699
0.009788748
0.009804115
0.009814336
0.009817572
0.00981211
0.009796972
0.009772718
0.009743282
0.009706118
0.009659641
0.009603998
0.009538015
0.009458741
0.009363647
0.009249412
0.00911581
0.008968438
0.008814982
0.008662435
0.008518197
0.00839027
0.008286639
0.008214816
0.008182234
0.008197252
0.008270252
0.008413651
0.008639235
0.008953853
0.009362579
0.009851416
0.01
0.01
0.01
0.01
0.01
0.01
0.01
0.01
0.01
0.01
0.01
0.01
0.009559317
0.009003774
0.008562548
0.008257168
0.008098264
0.008093059
0.008243457
0.008540519
0.008956677
0.009443466
0.009945852
0.01
0.01
0.01
0.01
0.01
0.01
0.01
0.01
0.009278829
0.00816221
0.00704516
0.00601603
0.005158618
0.004515452
0.004079641
0.003822847
0.003167832
0.002831213
0.002781508
0.002935312
0.003227706
0.003601531
0.004014271
0.004421003
0.004631196
0.004819006
0.005004871
0.005192025
0.005380014
0.005568304
0.005756473
0.005944065
0.006130579
0.006315506
0.006498349
0.006678616
0.006855801
0.007029366
0.007198727
0.007363254
0.00752225
0.007674998
0.007820763
0.00795879
0.008088331
0.008208622
0.008318969
0.008418859
0.008507811
0.00858534
0.008650995
0.008704635
0.00874629
0.008776073
0.008794189
0.008800938
0.008796691
0.008781857
0.008756878
0.008722232
0.00867844
0.008626068
0.008565729
0.008498077
0.008423793
0.00834356
0.00825804
0.008167855
0.008073544
0.00797545
0.00787357
0.007768545
0.007663139
0.007558622
0.007456282
0.007357406
0.007263261
0.007175092
0.007094085
0.007021388
0.006958064
0.006905134
0.006863523
0.006834093
0.006817593
0.006814663
0.006825697
0.006850804
0.006890155
0.006945241
0.007018128
0.00711044
0.007223467
0.007358043
0.007514297
0.00769136
0.007887109
0.008098112
0.008319718
0.008546028
0.008770115
0.008984885
0.009185395
0.009367694
0.009528632
0.009665904
0.009779037
0.00987137
0.009950961
0.01
0.01000001
0.01000003
0.01000006
0.01000005
0.01000003
0.01000006
0.01000031
0.01000085
0.01000081
0.01000039
0.01000006
0.01
0.01000001
0.01000005
0.009871105
0.009706418
0.009515491
0.009289338
0.009025106
0.0087265
0.008398133
0.008039917
0.007637569
0.00717151
0.006635167
0.006041149
0.005417164
0.004801254
0.004234535
0.003751954
0.003375149
0.003108313
0.002939241
0.002845694
0.002803101
0.002789004
0.002785236
0.002778898
0.002762375
0.002732852
0.002691742
0.002644686
0.002600157
0.002568036
0.002555653
0.002466853
0.002263506
0.00216718
0.00218522
0.002342122
0.002602729
0.002883923
0.00300553
0.003121687
0.003256304
0.003410158
0.003582957
0.003711522
0.003830389
0.003986051
0.00418638
0.004440018
0.004755635
0.00513459
0.005430905
0.005655216
0.005868179
0.006070005
0.006260759
0.006440323
0.006608361
0.006764358
0.006907631
0.007038768
0.007159377
0.007269943
0.007370619
0.00746155
0.007543048
0.007615647
0.007680085
0.007737308
0.007788171
0.007833223
0.007873235
0.007909362
0.007942335
0.007972606
0.008000468
0.008026117
0.008049679
0.008071232
0.008090811
0.008108405
0.008123953
0.008137362
0.00814853
0.008157363
0.008163736
0.00816748
0.008168353
0.008165973
0.008159805
0.008149772
0.008135906
0.008118231
0.008096688
0.008071242
0.008041926
0.008008894
0.007972415
0.00793283
0.007890519
0.007845868
0.007799253
0.007751026
0.007701506
0.007650974
0.007599675
0.007547815
0.007495567
0.007443072
0.007390444
0.007337776
0.007285137
0.007232585
0.007180163
0.007127908
0.007075848
0.007024012
0.006972424
0.006921113
0.006870109
0.006819447
0.006769167
0.006719315
0.006669938
0.006621086
0.00657281
0.006525159
0.006478179
0.006431915
0.006386406
0.006341687
0.006297788
0.006254733
0.00621254
0.006171214
0.006130752
0.006091138
0.00605234
0.006014309
0.005976974
0.005940248
0.005904016
0.005868145
0.005832479
0.00579684
0.005761036
0.005724856
0.005688083
0.005650493
0.005611864
0.005571982
0.005530651
0.005487696
0.005442973
0.005396375
0.005347835
0.005297332
0.005244893
0.005190598
0.005134581
0.005077028
0.005018183
0.004958348
0.004897888
0.004837227
0.004776847
0.004717319
0.004659182
0.004602937
0.004549143
0.004498376
0.004451075
0.00440773
0.004368822
0.00433695
2.050968e-05
3.31985e-05
5.009238e-05
0.0002155863
0.0003534253
0.0005993081
0.0008427029
0.001066638
0.001349259
0.001627057
0.001929157
0.002321657
0.002790806
0.003326936
0.003937944
0.004729158
0.006243427
0.006873277
0.007490667
0.008051483
0.008551139
0.008988857
0.009380562
0.009740349
0.01
0.01
0.01
0.01
0.01
0.01
0.01
0.01
0.01
0.01
0.01
0.01
0.01
0.01
0.01
0.01
0.01
0.01
0.01
0.009932995
0.009591377
0.009249122
0.008937204
0.008658991
0.008419528
0.008219894
0.008055666
0.00791125
0.007805522
0.007742246
0.007715141
0.007719799
0.007754037
0.007814287
0.007896031
0.007993641
0.00810406
0.008227255
0.008351384
0.00848875
0.008644288
0.008819488
0.009037631
0.009297602
0.009597973
0.009928554
0.01
0.01
0.01
0.01
0.01
0.01
0.01
0.01
0.01
0.01
0.01
0.01
0.01
0.01
0.01
0.01
0.01
0.01
0.01
0.01
0.01
0.01
0.01
0.01
0.01
0.01
0.01
0.01
0.01
0.01
0.01
0.01
0.01
0.01
0.01
0.01
0.01
0.01
0.01
0.01
0.01
0.01
0.01
0.01
0.01
0.01
0.01
0.01
0.01
0.01
0.01
0.01
0.01
0.01
0.01
0.01
0.01
0.01
0.01
0.01
0.01
0.01
0.01
0.01
0.01
0.01
0.01
0.01
0.01
0.009994049
0.009859788
0.00972644
0.009601993
0.009495007
0.009414344
0.009369302
0.009370435
0.009430564
0.009564415
0.009785305
0.01
0.01
0.01
0.01
0.01
0.01
0.01
0.01
0.01
0.01
0.01
0.01
0.01
0.01
0.01
0.01
0.01
0.01
0.009968205
0.009810421
0.009813216
0.009978048
0.01
0.01
0.01
0.01
0.01
0.01
0.01
0.01000001
0.01000003
0.01000006
0.01000007
0.01000004
0.01000001
0.01
0.009547465
0.008446837
0.007361233
0.006392906
0.005612436
0.005044684
0.00467607
0.00447166
0.003929474
0.003646145
0.003637895
0.00382608
0.004149035
0.004547988
0.004956635
0.005120719
0.005288114
0.005463008
0.005648501
0.005843293
0.006044719
0.006250533
0.006458856
0.006668114
0.006876996
0.007084395
0.007289346
0.007490967
0.007688417
0.007880872
0.008067504
0.008247494
0.008420032
0.008584326
0.008739588
0.008865582
0.008966569
0.009074594
0.009198049
0.009336744
0.009445559
0.009521467
0.009585031
0.009636531
0.009676243
0.009704457
0.009721499
0.009727728
0.009723526
0.0097093
0.009685491
0.009652581
0.0096111
0.009561628
0.009504782
0.009441195
0.009371488
0.009296251
0.009215998
0.009131031
0.00904164
0.008947929
0.008851542
0.008753778
0.008655914
0.008559249
0.008465101
0.00837481
0.008289711
0.008211156
0.00814048
0.008078995
0.008027966
0.007988603
0.007962035
0.00794931
0.007951313
0.007968738
0.008001949
0.008053858
0.008126303
0.008220879
0.008338813
0.008480726
0.008646342
0.008834083
0.009040681
0.009261119
0.00949005
0.009720989
0.009946804
0.01
0.01
0.01
0.01
0.01
0.01
0.01
0.01
0.01000002
0.01000018
0.0100009
0.01000128
0.01000077
0.01000011
0.01000013
0.01000123
0.01000248
0.0100023
0.01000086
0.0100001
0.01000004
0.01000018
0.01000043
0.01000109
0.01001044
0.01002342
0.01002342
0.0100234
0.01002342
0.009882369
0.009581573
0.009228549
0.008807202
0.008308824
0.007736598
0.007105291
0.006441609
0.005781277
0.005163178
0.004622498
0.004183212
0.003852207
0.003620243
0.003469103
0.003377506
0.003325016
0.003294363
0.003272497
0.003250482
0.003222846
0.003187472
0.003145413
0.003100934
0.003060822
0.00303326
0.003024889
0.002827709
0.002533717
0.002418412
0.002485103
0.002690903
0.002968758
0.00324227
0.003463716
0.003631892
0.003768573
0.003898357
0.004042836
0.004218603
0.004438627
0.004715098
0.005060074
0.005480758
0.005967865
0.006225867
0.006434553
0.006628569
0.006809557
0.006978598
0.007136228
0.007282519
0.007417181
0.007540431
0.007653876
0.007758074
0.007853072
0.007938848
0.008015574
0.008083761
0.008144079
0.008197831
0.00824633
0.008285131
0.00818919
0.008117267
0.008069025
0.008040104
0.008027904
0.008029863
0.008043707
0.00806763
0.008100527
0.008142202
0.008193243
0.008254222
0.008323918
0.008400014
0.008481436
0.008568997
0.0086629
0.008756958
0.008800811
0.008808144
0.00881176
0.008811315
0.008806136
0.008796065
0.008781293
0.00876211
0.008738881
0.008712014
0.008681929
0.008649037
0.00861373
0.008576373
0.008537295
0.00849679
0.008455116
0.008412492
0.008369105
0.008325109
0.008280632
0.008235777
0.008190626
0.008145244
0.008099683
0.008053985
0.008008184
0.007962311
0.007916395
0.007870466
0.007824558
0.007778711
0.007732972
0.007687394
0.007642035
0.007596956
0.007552221
0.007507892
0.00746403
0.007420691
0.007377932
0.007335802
0.007294349
0.007253614
0.007213632
0.007174432
0.007136031
0.007098437
0.00706164
0.007025615
0.006990314
0.006955667
0.006921578
0.006887925
0.006854561
0.006821311
0.006787975
0.006754333
0.006720149
0.006685172
0.006649147
0.006611818
0.006572942
0.006532288
0.006489654
0.006444866
0.006397788
0.006348323
0.006296426
0.006242097
0.006185393
0.006126425
0.006065366
0.006002453
0.005937998
0.005872392
0.0058061
0.005739697
0.005673816
0.005609055
0.00554601
0.005485375
0.005427644
0.005373439
0.005323314
0.005281165
1.861899e-05
2.86415e-05
5.601379e-05
0.0001695657
0.0002730401
0.0004334377
0.0005558475
0.0006950108
0.0008591074
0.001019992
0.001208612
0.001453104
0.001733522
0.00206872
0.002506649
0.003350655
0.003752754
0.004189099
0.004652021
0.00514083
0.005661112
0.006204758
0.006757948
0.00730699
0.007837063
0.008335212
0.008817243
0.009354493
0.009861895
0.01
0.01
0.01
0.01
0.01
0.01
0.01
0.01
0.01
0.01
0.01
0.01
0.01
0.01
0.01
0.01
0.01
0.01
0.01
0.01
0.01
0.009990569
0.009584952
0.009183281
0.008731384
0.008346256
0.008009354
0.007714934
0.007472068
0.007271774
0.007108894
0.006980624
0.006883715
0.006820083
0.00679275
0.006802534
0.006848191
0.006928365
0.007041207
0.00718213
0.007345742
0.007523986
0.007712164
0.007904409
0.008106465
0.008337424
0.00862345
0.008962941
0.009367623
0.009850945
0.01
0.01
0.01
0.01
0.01
0.01
0.01
0.01
0.01
0.01
0.01
0.01
0.01
0.01
0.01
0.01
0.01
0.01
0.01
0.01
0.01
0.01
0.01
0.01
0.01
0.01
0.01
0.01
0.01
0.01
0.01
0.01
0.01
0.01
0.01
0.01
0.01
0.01
0.01
0.01
0.01
0.01
0.01
0.01
0.01
0.01
0.01
0.01
0.01
0.01
0.01
0.01
0.01
0.01
0.01
0.01
0.01
0.01
0.01
0.01
0.01
0.01
0.01
0.01
0.01
0.01
0.01
0.01
0.01
0.01
0.01
0.01
0.01
0.01
0.01
0.01
0.01
0.01
0.01
0.01
0.01
0.01
0.01
0.01
0.01
0.01
0.01
0.01
0.01
0.01
0.01
0.01
0.01
0.01
0.01
0.01
0.01
0.01
0.01000001
0.01000001
0.01
0.01
0.01
0.01
0.01
0.01
0.01
0.01
0.01
0.01
0.01000008
0.01000061
0.01000069
0.01000029
0.01000004
0.01
0.01
0.01
0.01
0.009436241
0.008359933
0.007368586
0.006538696
0.005906886
0.005473887
0.005214046
0.005088317
0.004749132
0.004611241
0.00471835
0.004994378
0.005351151
0.005477574
0.005607677
0.005751555
0.005909556
0.006084321
0.006274811
0.006477205
0.006688036
0.006904352
0.007123701
0.007344056
0.00756373
0.007781278
0.007995428
0.008205024
0.008408993
0.008606334
0.008796111
0.008977456
0.00914956
0.009311687
0.009463149
0.009603289
0.009731544
0.009847667
0.00995177
0.01
0.01
0.01
0.01
0.01
0.01
0.01
0.01
0.01
0.01
0.01
0.01
0.01
0.01
0.01
0.01
0.01
0.01
0.009980673
0.009905888
0.009826496
0.009743172
0.009657041
0.00956917
0.009480704
0.009392845
0.009306825
0.009223791
0.00914519
0.009072576
0.009007498
0.008951489
0.008906063
0.0088727
0.008852846
0.008847876
0.008859047
0.00888729
0.008934826
0.009004776
0.009098862
0.009218185
0.009362784
0.009531961
0.009723543
0.009933499
0.01
0.01
0.01
0.01000001
0.01000001
0.01000001
0.01000001
0.01
0.01
0.01
0.01
0.01000003
0.01000032
0.01000295
0.01000754
0.01000437
0.01000093
0.01000005
0.01000007
0.01000071
0.01000245
0.0100023
0.01000089
0.01000008
0.01000009
0.01000152
0.01001576
0.01002055
0.01001409
0.01000344
0.0100004
0.01000029
0.01000043
0.0100005
0.01000036
0.01000011
0.00996306
0.009520315
0.009006563
0.008426172
0.007793797
0.007133811
0.006478478
0.005863287
0.005319412
0.004866401
0.004510534
0.004246677
0.004061303
0.003937249
0.003857426
0.003806933
0.003773577
0.003748066
0.003722269
0.003691311
0.003653206
0.003608877
0.003562217
0.003520322
0.00349216
0.00348154
0.00300913
0.002719614
0.002672418
0.002822397
0.003084878
0.003370621
0.00362052
0.003821555
0.003991884
0.004158452
0.004346469
0.004575862
0.004863492
0.005224414
0.005668258
0.006184002
0.006540452
0.00673917
0.006920103
0.007086623
0.007241108
0.007384977
0.007518817
0.007642587
0.007756368
0.007861433
0.007958079
0.008046053
0.00812503
0.008194952
0.008256369
0.008248131
0.008049846
0.007887447
0.007758485
0.007660249
0.0075913
0.007548812
0.007529242
0.007528538
0.007543156
0.00757038
0.007608332
0.007656
0.007713288
0.007780575
0.007857664
0.007943226
0.008036011
0.008135824
0.008243391
0.008359565
0.008483323
0.008613711
0.008756915
0.008926198
0.009114465
0.009210237
0.009215585
0.009215307
0.009209963
0.009200097
0.009186224
0.009168823
0.009148342
0.009125192
0.009099749
0.009072353
0.009043301
0.009012856
0.00898124
0.008948641
0.008915215
0.008881089
0.008846367
0.008811128
0.008775435
0.008739339
0.008702875
0.008666073
0.008628959
0.008591554