/*--------------------------------*- C++ -*----------------------------------*\
| =========                 |                                                 |
| \\      /  F ield         | foam-extend: Open Source CFD                    |
|  \\    /   O peration     | Version:     3.1                                |
|   \\  /    A nd           | Web:         http://www.extend-project.de       |
|    \\/     M anipulation  |                                                 |
\*---------------------------------------------------------------------------*/
FoamFile
{
    version     2.0;
    format      ascii;
    class       volScalarField;
    location    "11.5";
    object      p;
}
// * * * * * * * * * * * * * * * * * * * * * * * * * * * * * * * * * * * * * //

dimensions      [1 -1 -2 0 0 0 0];

internalField   nonuniform List<scalar> 
119952
(
5664.757
4837.49
4696.362
4871.29
5045.19
5011.56
5039.336
5079.808
5128.66
5180.172
5232.96
5285.938
5337.669
5388.647
5438.884
5488.464
5537.527
5585.021
5624.578
5609.952
5907.025
5826.418
5826.569
6167.065
6120.391
6136.859
6181.344
6257.175
6427.413
7951.612
3263.29
3224.404
3232.502
3238.235
3245.621
3253.572
3261.299
3275.785
3289.582
3279.616
3271.875
3296.889
3306.622
3318.691
3330.174
3342.983
3356.717
3370.539
3386.334
3392.009
3403.354
3404.835
3420.288
3442.396
3467.666
3497.057
3531.134
3569.61
3616.679
3652.903
3705.954
3767.062
3832.51
3903.211
3979.486
4061.695
4154.897
4286.542
4472.221
4433.283
4492.315
4600.451
4681.993
4733.55
4770.266
4816.825
4867.628
4918.861
4970.89
5022.141
5073.723
5123.956
5172.46
5220.302
5267.856
5315.093
5362.73
5415.635
5483.942
5556.768
5608.787
5713.536
5822.48
5860.918
5894.09
5913.894
5873.132
5730.397
5693.734
5719.056
5725.069
5731.364
5739.093
5749.408
5762.677
5780.973
5806.578
5841.872
5889.553
5952.415
6034.219
6139.395
6272.35
6425.587
6564.523
6597.148
6475.921
6325.862
6375.944
6414.9
6474.674
6526.73
6560.73
6585.579
6601.051
6609.491
6616.389
6625.664
6639.661
6659.066
6683.798
6713.206
6746.305
6782.349
6820.361
6859.612
6899.501
6939.558
6979.422
7018.815
7057.527
7095.391
7132.264
7168.035
7202.635
7235.984
7268.172
7298.749
7328.083
7356.091
7382.506
7407.108
7430.027
7451.229
7470.737
7488.498
7504.526
7518.844
7531.524
7542.626
7552.27
7560.609
7567.568
7573.289
7578.121
7582.193
7585.654
7588.624
7591.414
7593.937
7596.389
7598.878
7601.504
7604.455
7607.857
7611.423
7615.408
7619.882
7624.883
7630.435
7636.544
7643.217
7650.432
7658.185
7666.456
7675.219
7684.439
7694.079
7704.093
7714.432
7725.04
7735.851
7746.78
7757.817
7768.608
7779.284
7792.273
7837.348
7845.634
7855.747
7865.75
7875.159
7883.849
7891.703
7898.587
7904.359
7909.018
7911.798
7913.365
7913.233
7911.345
7907.663
7902.175
7895.043
7886.446
7876.385
7865.598
7854.627
7843.956
7833.876
7824.443
7815.491
7806.695
7797.719
7788.314
7778.386
7767.908
7756.841
7744.929
7731.863
7716.617
7696.021
7671.148
7692.7
7707.618
7720.569
7735.485
7757.227
7788.782
7780.364
7723.467
7754.804
7790.031
7813.687
7831.524
7847.57
7864.075
7879.471
7889.906
7886.683
7863.453
7862.758
7874.7
7886.778
7896.94
7905.204
7912.212
7918.288
7923.309
7927.397
7930.815
7934.069
7937.954
7943.046
7948.958
7954.801
7959.655
7944.021
7936.901
7931.858
7926.887
7919.219
7908.511
7895.29
7879.235
7860.517
7839.323
7815.915
7790.678
7764.098
7736.905
7709.654
7683.126
7658.011
7634.907
7614.334
7596.73
7582.404
7571.588
7564.236
7560.437
7559.972
7562.66
7568.166
7576.099
7586.035
7597.537
7610.178
7623.561
7637.332
7651.188
7664.875
7678.186
7690.962
7703.085
7714.476
7725.083
7734.878
7743.855
7752.029
7759.444
7766.141
7771.913
7776.33
7779.858
7782.785
7785.076
7786.766
7787.928
7788.74
7789.134
7786.959
7786.059
7785.308
7783.626
7781.645
7779.406
7776.935
7774.249
7771.363
7768.295
7765.068
7761.7
7758.213
7754.626
7750.957
7747.22
7743.428
7739.591
7735.717
7731.814
7727.885
7723.936
7719.967
7715.981
7711.978
7707.96
7703.927
7699.879
7695.817
7691.74
7687.648
7683.543
7679.422
7675.288
7671.14
7666.978
7662.803
7658.615
7654.415
7650.203
7645.98
7641.746
7637.501
7633.247
7628.984
7624.713
7620.434
7616.147
7611.854
7607.555
7603.248
7598.935
7594.614
7590.284
7585.943
7581.589
7577.216
7572.826
7568.42
7563.992
7559.543
7555.065
7550.553
7546.002
7541.405
7536.755
7532.043
7527.26
7522.394
7517.432
7512.356
7507.146
7501.773
7496.205
7490.395
7484.299
7477.842
7470.873
7463.233
7454.622
7444.569
7432.648
7420.994
7423.941
7466.586
5762.472
5621.581
5454.74
5292.405
5131.579
4974.032
4820.919
4672.831
4530.476
4369.152
4237.131
4118.935
4002.629
3897.185
3799.794
3710.396
3629.333
3553.104
3439.056
3397.62
3334.098
3274.111
3226.782
3185.548
3149.237
3117.965
3090.631
3068.617
3052.862
3023.863
3009.097
2997.723
2986.977
2979.081
2973.013
2968.495
2967.41
2974.896
2958.964
2954.068
2959.353
2965.02
2971.018
2978.254
2986.476
2995.468
3004.428
3012.002
3026.419
3039.021
3049.876
3060.955
3072.616
3084.706
3097.97
3118.552
3056.698
3072.328
3092.87
3113.652
3134.745
3158.405
3186.419
3219.278
3257.037
3300.149
3349.399
3403.114
3461.192
3524.997
3595.781
3674.992
3762.723
3858.582
3959.891
4056.519
4134.827
4202.411
4275.929
4350.31
4417.276
4476.106
4531.222
4585.552
4639.53
4692.436
4743.535
4792.904
4842.111
4885.678
4930.135
4974.776
5020.402
5068.614
5121.638
5180.608
5243.322
5307.451
5375.318
5440.596
5490.387
5521.659
5533.797
5523.424
5491.408
5466.81
5462.449
5459.809
5458.963
5458.931
5455.166
5456.392
5464.746
5482.144
5510.955
5552.481
5609.04
5684.322
5772.404
5872.017
5972.4
6044.723
6073.152
6070.717
6044.019
6040.149
6137.298
6199.312
6269.945
6328.193
6330.463
6315.525
6307.742
6309.315
6317.999
6333.016
6354.165
6380.618
6411.308
6445.911
6482.873
6521.416
6560.896
6600.748
6640.56
6680.023
6718.899
6757.005
6794.197
6830.362
6865.409
6899.27
6931.882
6963.195
6993.156
7021.611
7048.617
7074.141
7098.062
7120.328
7140.917
7159.824
7177.039
7192.578
7206.479
7218.795
7229.601
7238.99
7247.068
7253.955
7259.768
7264.709
7268.951
7272.644
7275.922
7278.934
7281.802
7284.641
7287.551
7290.623
7293.964
7297.615
7301.919
7306.539
7311.565
7317.097
7323.202
7329.809
7336.947
7344.616
7352.798
7361.475
7370.615
7380.186
7390.139
7400.431
7411.008
7421.808
7432.782
7443.854
7454.978
7466.184
7477.265
7489.049
7560.844
7569.844
7579.495
7589.092
7597.891
7605.905
7612.974
7618.963
7623.735
7627.131
7629.029
7629.332
7627.948
7624.843
7620.036
7613.585
7605.643
7596.434
7586.301
7575.811
7565.454
7555.521
7546.047
7536.881
7527.732
7518.318
7508.492
7498.251
7487.691
7476.936
7466.037
7454.996
7443.797
7432.515
7422.216
7416.863
7421.501
7431.503
7441.893
7454.013
7466.556
7479.111
7478.542
7473.413
7490.205
7514.158
7535.575
7554.63
7572.854
7588.939
7600.735
7607.379
7602.115
7593.035
7595.142
7603.63
7613.583
7623.244
7631.904
7639.551
7645.991
7651.377
7655.874
7659.155
7661.732
7664.96
7669.674
7675.481
7681.242
7686.563
7635.599
7636.117
7630.116
7622.883
7614.595
7603.992
7590.326
7573.614
7554.186
7532.241
7508.001
7481.868
7454.405
7426.294
7398.301
7371.253
7345.838
7322.598
7302.014
7284.494
7270.342
7259.75
7252.774
7249.363
7249.356
7252.496
7258.432
7266.762
7277.044
7288.824
7301.668
7315.171
7328.982
7342.81
7356.415
7369.596
7382.203
7394.132
7405.314
7415.703
7425.274
7434.021
7441.944
7449.045
7455.304
7460.665
7465.082
7468.659
7471.54
7473.794
7475.462
7476.591
7477.21
7477.334
7476.974
7475.833
7474.31
7472.577
7470.617
7468.408
7465.967
7463.319
7460.485
7457.48
7454.325
7451.039
7447.64
7444.147
7440.575
7436.936
7433.243
7429.505
7425.729
7421.922
7418.088
7414.23
7410.351
7406.452
7402.533
7398.597
7394.643
7390.672
7386.683
7382.677
7378.654
7374.614
7370.556
7366.482
7362.392
7358.285
7354.163
7350.026
7345.873
7341.706
7337.526
7333.331
7329.124
7324.905
7320.674
7316.432
7312.18
7307.918
7303.647
7299.367
7295.078
7290.78
7286.473
7282.155
7277.824
7273.481
7269.121
7264.746
7260.354
7255.943
7251.509
7247.048
7242.555
7238.026
7233.455
7228.834
7224.156
7219.412
7214.59
7209.68
7204.662
7199.524
7194.238
7188.787
7183.087
7177.152
7170.994
7164.402
7157.42
7150.188
7143.129
7137.064
7133.462
7132.393
7133.689
3103.457
3138.058
3189.282
3255.854
3337.882
3434.773
3546.311
3671.981
3811.374
3962.305
4106.717
4277.478
4454.375
4637.041
4823.821
5012.306
5199.058
5381.507
5560.695
5719.881
5877.811
6024.011
6155.993
6270.062
6363.685
6434.846
6482.287
6504.659
6507.407
6481.601
6430.517
6357.477
6264.291
6153.217
6026.926
5888.247
5740.344
5586.328
5416.821
5256.794
5093.145
4930.013
4768.757
4610.71
4457.162
4309.316
4168.854
4035.435
3906.637
3789.222
3678.536
3575.989
3481.854
3395.496
3317.289
3255.331
3086.347
3028.012
2980.669
2934.77
2891.029
2851.65
2817.574
2788.482
2763.664
2741.774
2722.574
2707.113
2693.665
2681.57
2671.497
2663.871
2658.524
2655.084
2652.986
2651.628
2651.78
2652.846
2654.943
2658.724
2664.307
2671.39
2679.668
2689.007
2699.383
2710.757
2722.647
2734.551
2746.499
2758.455
2770.097
2781.256
2791.61
2802.029
2813.053
2826.454
2841.891
2858.02
2876.026
2897.573
2923.808
2955.032
2991.532
3033.245
3079.635
3131.064
3188.197
3251.904
3322.773
3400.618
3485.24
3575.771
3669.283
3764.916
3852.846
3930
4006.665
4085.78
4161.804
4230.484
4293.185
4352.923
4410.597
4465.536
4516.919
4564.431
4607.429
4652.286
4693.659
4733.909
4774.596
4817.415
4864.026
4915.76
4972.463
5030.561
5087.879
5143.856
5193.026
5232.339
5259.922
5275.884
5276.856
5270.569
5266.058
5261.677
5253.041
5239.412
5222.778
5209.142
5202.24
5205.026
5220.207
5248.883
5290.997
5346.319
5414.971
5490.746
5571.038
5644.988
5691.679
5708.149
5717.695
5762.498
5855.802
5952.429
6018.556
6044.768
6063.524
6078.935
6080.598
6075.961
6078.098
6089.935
6109.783
6135.745
6166.778
6201.665
6239.338
6277.812
6317.204
6356.88
6396.401
6435.474
6473.897
6511.509
6548.183
6583.818
6618.335
6651.671
6683.768
6714.563
6744.002
6772.015
6798.577
6823.652
6847.166
6869.065
6889.32
6907.914
6924.85
6940.157
6953.877
6966.052
6976.746
6986.056
6994.098
7000.996
7006.89
7011.957
7016.358
7020.243
7023.753
7027.023
7030.175
7033.326
7036.583
7040.033
7043.759
7047.834
7052.332
7057.218
7062.556
7068.278
7074.898
7081.9
7089.398
7097.427
7105.971
7115.006
7124.5
7134.415
7144.703
7155.313
7166.19
7177.266
7188.498
7199.808
7211.179
7222.577
7233.984
7245.162
7256.204
7267.036
7276.978
7285.966
7294.185
7301.577
7307.946
7313.112
7316.916
7319.221
7319.914
7318.898
7316.081
7311.492
7305.227
7297.41
7288.23
7277.98
7267.088
7256.129
7245.758
7236.341
7227.475
7218.834
7210.038
7200.554
7190.24
7179.291
7168.147
7157.45
7147.37
7137.899
7129.356
7122.322
7117.608
7116.454
7119.051
7124.664
7131.635
7139.234
7144.923
7151.674
7160.539
7167.887
7179.878
7193.526
7209.51
7225.427
7241.05
7255.636
7268.647
7277.073
7282.389
7285.551
7291.19
7299.349
7307.627
7315.515
7323.234
7330.533
7337.329
7343.279
7348.426
7353.635
7359.397
7366.158
7373.214
7379.183
7383.454
7387.562
7391.423
7390.829
7387.573
7382.089
7374.214
7363.675
7350.014
7333.208
7313.513
7291.095
7266.2
7239.255
7210.844
7181.686
7152.667
7124.693
7098.461
7074.449
7053.142
7034.97
7020.257
7009.211
7001.907
6998.289
6998.228
7001.402
7007.465
7015.996
7026.526
7038.573
7051.675
7065.408
7079.407
7093.388
7107.124
7120.38
7133.014
7144.947
7156.117
7166.481
7176.015
7184.708
7192.557
7199.563
7205.721
7211.024
7215.468
7219.107
7222.038
7224.333
7226.037
7227.191
7227.844
7227.969
7227.546
7226.626
7225.344
7223.755
7221.88
7219.74
7217.365
7214.783
7212.017
7209.086
7206.01
7202.808
7199.496
7196.093
7192.612
7189.066
7185.465
7181.819
7178.134
7174.416
7170.67
7166.898
7163.103
7159.286
7155.448
7151.589
7147.711
7143.814
7139.896
7135.96
7132.004
7128.028
7124.033
7120.02
7115.987
7111.936
7107.867
7103.781
7099.677
7095.556
7091.419
7087.266
7083.097
7078.914
7074.716
7070.505
7066.281
7062.045
7057.797
7053.537
7049.267
7044.986
7040.693
7036.389
7032.073
7027.743
7023.398
7019.039
7014.663
7010.27
7005.856
7001.418
6996.952
6992.455
6987.92
6983.343
6978.716
6974.032
6969.282
6964.456
6959.541
6954.524
6949.387
6944.114
6938.682
6933.07
6927.263
6921.304
6915.185
6909.17
6903.474
6898.518
6894.617
6892.19
6891.059
2994.544
2970.123
2942.6
2902.141
2876.293
2826.08
2818.022
2824.581
2843.299
2843.323
2827.414
2823.92
2839.427
2870.734
2917.91
2979.277
3055.301
3145.432
3249.529
3367.732
3497.974
3641.038
3795.347
3959.099
4130.721
4308.367
4490.053
4673.536
4856.432
5036.686
5213.759
5357
5519.808
5663.327
5789.829
5898.274
5986.315
6052.548
6096.057
6116.375
6113.589
6085.459
6031.846
5954.954
5857.501
5742.302
5612.384
5470.896
5320.833
5164.985
5005.553
4844.634
4683.063
4522.054
4363.076
4207.53
4056.509
3911.617
3774.318
3644.525
3522.018
3407.669
3301.827
3204.264
3114.644
3032.399
2956.925
2886.793
2818.633
2761.017
2712.713
2667.267
2624.441
2586.266
2553.534
2525.852
2502.235
2482.06
2465.012
2450.017
2436.721
2425.502
2416.468
2409.586
2404.709
2401.507
2399.746
2399.552
2400.202
2401.155
2403.521
2407.918
2414.12
2421.694
2430.434
2440.393
2451.605
2463.798
2476.709
2490.073
2503.304
2515.853
2527.261
2537.445
2546.576
2555.39
2564.48
2574.342
2585.596
2598.696
2614.426
2633.7
2657.286
2685.641
2719.02
2757.373
2800.653
2849.345
2904.143
2965.622
3034.129
3109.586
3191.672
3279.809
3372.144
3466.714
3558.57
3645.686
3731.419
3817.378
3900.769
3978.655
4050.844
4118.508
4182.071
4241
4294.661
4342.987
4386.509
4427.053
4464.042
4498.641
4532.628
4568.324
4607.661
4651.816
4700.614
4751.774
4803.271
4854.395
4904.034
4951.331
4994.085
5029.306
5053.293
5066.674
5071.604
5066.729
5050.508
5024.6
4992.642
4961.037
4935.491
4919.932
4916.746
4927.089
4951.219
4988.378
5037.539
5097.627
5167.573
5237.214
5288.073
5327.662
5377.766
5450.093
5545.275
5634.815
5699.792
5752.898
5798.696
5823.305
5831.877
5837.584
5845.218
5857.438
5875.264
5898.913
5928.317
5962.774
6000.21
6039.103
6078.214
6117.419
6156.433
6194.961
6232.802
6269.811
6305.873
6340.896
6374.811
6407.558
6439.083
6469.331
6498.25
6525.784
6551.882
6576.501
6599.586
6621.095
6640.99
6659.234
6675.82
6690.78
6704.181
6716.084
6726.525
6735.582
6743.394
6750.108
6755.872
6760.849
6765.197
6769.067
6772.6
6775.928
6779.174
6782.45
6785.854
6789.471
6793.381
6797.652
6802.349
6807.512
6813.197
6819.52
6826.022
6833.24
6841.048
6849.407
6858.301
6867.708
6877.595
6887.921
6898.636
6909.683
6921.002
6932.526
6944.196
6955.942
6967.703
6979.428
6991.013
7002.422
7013.454
7023.863
7033.533
7042.427
7050.491
7057.577
7063.506
7068.11
7071.218
7072.696
7072.456
7070.432
7066.572
7060.929
7053.635
7044.844
7034.776
7023.778
7012.293
7000.844
6990.286
6981.376
6972.972
6964.963
6956.909
6947.615
6937.015
6925.621
6914.085
6903.447
6894.051
6885.807
6879.132
6874.44
6871.769
6871.786
6873.489
6877.26
6884.405
6892.375
6900.695
6908.5
6915.357
6920.404
6926.428
6934.633
6945.674
6958.363
6972.408
6986.815
7001.07
7013.677
7023.302
7030.775
7040.064
7049.8
7058.931
7067.233
7074.871
7082.095
7089.167
7096.205
7103.192
7109.908
7116.301
7122.379
7128.892
7136.353
7144.098
7149.051
7151.333
7151.192
7148.4
7142.762
7134.341
7123.106
7108.754
7091.165
7070.534
7047.098
7021.129
6993.064
6963.501
6933.154
6902.927
6873.942
6846.977
6822.325
6800.453
6781.85
6766.87
6755.734
6748.525
6745.193
6745.503
6749.207
6755.907
6765.139
6776.389
6789.134
6802.873
6817.153
6831.565
6845.862
6859.891
6873.381
6886.143
6898.143
6909.339
6919.693
6929.186
6937.809
6945.564
6952.457
6958.494
6963.687
6968.055
6971.646
6974.53
6976.766
6978.405
6979.493
6980.096
6980.208
6979.823
6978.988
6977.788
6976.267
6974.433
6972.315
6969.956
6967.388
6964.638
6961.727
6958.677
6955.506
6952.234
6948.875
6945.442
6941.949
6938.404
6934.816
6931.19
6927.533
6923.847
6920.135
6916.4
6912.642
6908.861
6905.06
6901.237
6897.393
6893.528
6889.641
6885.734
6881.805
6877.855
6873.885
6869.894
6865.883
6861.853
6857.803
6853.734
6849.646
6845.541
6841.417
6837.276
6833.119
6828.945
6824.756
6820.553
6816.335
6812.104
6807.86
6803.604
6799.335
6795.055
6790.762
6786.456
6782.137
6777.804
6773.456
6769.093
6764.714
6760.315
6755.895
6751.451
6746.979
6742.476
6737.936
6733.355
6728.727
6724.045
6719.302
6714.489
6709.597
6704.618
6699.541
6694.363
6689.079
6683.692
6678.299
6672.874
6667.62
6662.72
6658.437
6654.877
6652.159
6649.607
3187.449
3163.613
3139.101
3090.179
3050.243
2975.457
2934.206
2892.332
2850.885
2809.583
2769.318
2731.225
2694.039
2659.344
2628.388
2600.736
2515.384
2500.9
2493.812
2490.265
2486.169
2485.857
2494.665
2515.668
2550.393
2599.074
2661.016
2736.781
2827.697
2932.892
3051.946
3184.072
3328.189
3483.33
3648.353
3821.274
4000.062
4182.611
4366.657
4549.802
4729.893
4903.027
5058.828
5214.873
5356.333
5482.222
5590.11
5677.729
5743.975
5787.406
5807.035
5802.748
5773.804
5719.92
5642.438
5543.868
5427.218
5295.812
5153.175
5002.592
4846.947
4688.184
4528.272
4368.702
4209.923
4052.922
3898.765
3748.32
3603.986
3467.339
3338.358
3217.549
3105.819
3003.176
2909.057
2822.689
2743.525
2670.436
2603.452
2542.267
2487.478
2438.924
2394.678
2354.229
2318.359
2287.584
2261.75
2240.072
2221.694
2205.814
2191.734
2179.434
2169.117
2160.746
2154.242
2149.596
2146.706
2145.367
2145.302
2146.042
2147.687
2150.876
2155.862
2162.486
2170.38
2179.464
2190.032
2202.258
2215.982
2230.808
2246.106
2261.008
2274.674
2286.388
2295.867
2303.283
2309.3
2314.95
2321.175
2328.653
2338.143
2350.234
2365.643
2385.015
2408.815
2437.413
2471.149
2510.197
2554.799
2605.917
2664.178
2729.781
2802.883
2883.297
2970.473
3062.977
3158.777
3255.603
3351.874
3447.53
3542.627
3635.671
3724.527
3807.946
3885.586
3957.16
4022.031
4079.589
4129.767
4173.094
4210.498
4242.266
4269.682
4294.539
4319.782
4347.806
4379.898
4416.645
4457.797
4502.22
4550.077
4604.413
4664.7
4726.973
4784.512
4832.059
4865.891
4882.835
4880.358
4857.503
4817.371
4766.397
4712.951
4664.059
4624.977
4597.904
4584.578
4586.458
4603.105
4634.326
4680.092
4739.166
4805.392
4869.831
4935.774
5010.775
5097.806
5195.645
5290.67
5375.575
5452.456
5513.965
5555.845
5583.304
5602.221
5617.919
5634.368
5653.183
5675.593
5702.336
5734.148
5769.919
5807.349
5845.303
5883.383
5921.295
5958.825
5995.717
6031.802
6066.967
6101.127
6134.212
6166.166
6196.935
6226.467
6254.709
6281.602
6307.089
6331.119
6353.643
6374.614
6393.995
6411.765
6427.928
6442.488
6455.439
6466.868
6476.888
6485.572
6493.037
6499.441
6504.941
6509.696
6513.865
6517.601
6521.044
6524.328
6527.57
6530.881
6534.354
6538.075
6542.119
6546.55
6551.424
6556.793
6562.706
6569.163
6576.09
6583.621
6591.751
6600.461
6609.743
6619.579
6629.936
6640.772
6652.024
6663.633
6675.535
6687.657
6699.925
6712.258
6724.573
6736.794
6748.809
6760.532
6771.728
6782.302
6792.169
6801.213
6809.287
6816.231
6821.888
6826.103
6828.698
6829.548
6828.592
6825.751
6820.979
6814.39
6806.164
6796.432
6785.356
6773.264
6760.563
6747.763
6736.417
6729.098
6721.837
6714.602
6707.783
6698.642
6687.649
6676.057
6664.345
6653.491
6644.062
6636.38
6630.899
6627.632
6626.053
6629.685
6637.172
6645.347
6652.757
6660.611
6669.49
6674.998
6676.675
6675.315
6674.256
6677.285
6683.877
6692.739
6703.505
6716.307
6730.984
6745.351
6757.351
6768.181
6780.283
6792.812
6804.399
6814.21
6822.914
6831.118
6838.997
6846.541
6853.709
6860.626
6867.719
6875.133
6882.74
6890.186
6897.368
6903.984
6908.904
6910.226
6907.622
6901.615
6892.613
6880.65
6865.537
6847.106
6825.501
6801.024
6773.976
6744.773
6714.017
6682.454
6650.942
6620.725
6592.852
6567.563
6545.169
6526.221
6511.117
6500.089
6493.218
6490.43
6491.456
6496.024
6503.703
6513.978
6526.279
6540.018
6554.623
6569.676
6584.716
6599.442
6613.742
6627.453
6640.457
6652.668
6664.008
6674.44
6683.95
6692.538
6700.214
6706.995
6712.899
6717.953
6722.193
6725.665
6728.424
6730.523
6732.01
6732.936
6733.346
6733.265
6732.729
6731.794
6730.58
6729.143
6727.39
6725.291
6722.922
6720.341
6717.58
6714.666
6711.62
6708.463
6705.211
6701.881
6698.484
6695.031
6691.531
6687.991
6684.416
6680.811
6677.178
6673.521
6669.839
6666.134
6662.406
6658.656
6654.883
6651.088
6647.27
6643.43
6639.566
6635.68
6631.771
6627.84
6623.887
6619.912
6615.917
6611.901
6607.864
6603.807
6599.73
6595.634
6591.519
6587.385
6583.234
6579.066
6574.882
6570.682
6566.468
6562.239
6557.997
6553.741
6549.472
6545.19
6540.895
6536.587
6532.265
6527.929
6523.578
6519.212
6514.828
6510.426
6506.003
6501.557
6497.085
6492.583
6488.05
6483.48
6478.869
6474.213
6469.507
6464.747
6459.931
6455.057
6450.131
6445.163
6440.188
6435.216
6430.314
6425.678
6421.384
6417.593
6414.272
6411.489
6408.563
3299.021
3270.122
3237.047
3192.223
3159.565
3092.395
3060.302
3027.875
2994.736
2960.85
2926.406
2891.67
2854.917
2817.43
2777.229
2669.739
2628.233
2586.843
2545.466
2504.341
2463.675
2424.21
2386.199
2349.926
2316.258
2286.837
2261.771
2241.354
2226.038
2215.189
2208.948
2209.715
2219.62
2240.309
2273.026
2318.883
2379.155
2453.702
2542.522
2645.65
2762.745
2893.092
3035.659
3189.186
3352.331
3523.27
3700.16
3880.871
4063.19
4244.502
4422.217
4593.212
4754.23
4907.397
5047.116
5171.314
5277.095
5361.973
5424.697
5464.254
5479.905
5471.442
5438.754
5381.862
5301.677
5200.364
5080.954
4947.013
4802.504
4650.844
4495.352
4338.412
4181.102
4024.902
3870.143
3717.08
3567.009
3420.861
3279.428
3143.639
3015.435
2896.958
2788.801
2690.401
2600.831
2519.048
2444.371
2376.081
2313.988
2257.359
2205.474
2158.358
2115.798
2077.581
2043.995
2015.46
1992.133
1973.12
1957.03
1942.939
1930.312
1919.12
1909.538
1901.581
1895.339
1891.051
1888.685
1887.881
1888.203
1889.445
1891.955
1896.015
1901.458
1908.393
1916.553
1925.968
1937.341
1951.138
1967.222
1984.834
2002.94
2020.465
2036.25
2049.003
2057.852
2062.728
2064.578
2065.529
2067.433
2070.448
2075.23
2082.012
2091.851
2105.572
2123.507
2146.085
2174.119
2207.825
2246.638
2292.923
2347.545
2410.495
2481.609
2560.496
2646.95
2740.38
2838.764
2940.95
3046.061
3152.702
3259.683
3365.384
3467.587
3564.288
3654.106
3735.994
3808.924
3872.096
3925.346
3969.008
4003.416
4029.171
4047.441
4060.448
4071.317
4082.854
4097.007
4115.469
4140.863
4174.879
4219.807
4282.602
4362.967
4453.547
4541.855
4618.185
4674.601
4704.788
4705.305
4675.906
4619.923
4545.867
4465.334
4387.34
4318.807
4262.725
4220.826
4195.343
4187.225
4196.821
4227.256
4276.777
4344.442
4425.43
4516.403
4616.627
4723.787
4835.783
4946.04
5048.852
5140.544
5217.612
5280.815
5330.339
5367.76
5396.391
5420.16
5442.225
5464.715
5489.565
5518.023
5550.084
5584.506
5620.023
5656.012
5692.097
5727.921
5763.296
5797.989
5831.848
5864.781
5896.714
5927.585
5957.338
5985.915
6013.259
6039.304
6063.988
6087.249
6109.031
6129.277
6147.956
6165.083
6180.665
6194.693
6207.104
6217.929
6227.346
6235.509
6242.545
6248.58
6253.756
6258.23
6262.163
6265.71
6269.013
6272.204
6275.4
6278.707
6282.219
6286.016
6290.169
6294.734
6299.76
6305.286
6311.345
6317.971
6325.178
6333.008
6341.466
6350.552
6360.261
6370.577
6381.481
6392.93
6404.84
6417.139
6429.763
6442.633
6455.662
6468.756
6481.812
6494.727
6507.377
6519.618
6531.361
6542.418
6552.672
6561.977
6570.178
6577.128
6582.695
6586.705
6588.948
6589.303
6587.7
6583.987
6578.111
6570.257
6560.717
6549.641
6537.077
6523.339
6508.747
6493.582
6480.206
6476.637
6474.341
6468.247
6460.259
6450.348
6438.458
6426.548
6414.809
6403.39
6393.376
6386.112
6382.625
6383.732
6389.32
6398.943
6407.186
6413.999
6419.444
6423.893
6427.907
6429.432
6426.611
6421.433
6418.523
6418.979
6422.4
6428.405
6436.804
6447.164
6458.939
6472.275
6488.147
6504.876
6519.928
6533.367
6546.261
6558.329
6568.99
6578.508
6587.049
6594.929
6602.51
6610.056
6617.704
6625.433
6633.257
6640.87
6647.872
6654.175
6659.804
6663.373
6662.794
6657.805
6648.824
6636.294
6620.416
6601.239
6578.871
6553.502
6525.41
6495.028
6462.98
6430.079
6397.286
6365.836
6336.925
6310.891
6287.991
6268.773
6253.671
6242.925
6236.609
6234.626
6236.594
6242.275
6251.196
6262.781
6276.37
6291.339
6306.949
6322.656
6338.262
6353.554
6368.282
6382.324
6395.638
6408.076
6419.554
6430.045
6439.55
6448.085
6455.671
6462.336
6468.112
6473.037
6477.155
6480.515
6483.166
6485.153
6486.521
6487.308
6487.533
6487.24
6486.514
6485.413
6484.011
6482.4
6480.566
6478.431
6476.02
6473.402
6470.616
6467.688
6464.64
6461.492
6458.259
6454.955
6451.591
6448.178
6444.722
6441.23
6437.707
6434.154
6430.576
6426.972
6423.344
6419.693
6416.018
6412.319
6408.596
6404.849
6401.078
6397.282
6393.461
6389.616
6385.747
6381.854
6377.938
6373.999
6370.038
6366.054
6362.049
6358.021
6353.972
6349.903
6345.812
6341.702
6337.573
6333.426
6329.261
6325.079
6320.881
6316.668
6312.44
6308.197
6303.941
6299.672
6295.388
6291.092
6286.781
6282.457
6278.119
6273.767
6269.399
6265.015
6260.613
6256.193
6251.753
6247.291
6242.805
6238.294
6233.755
6229.187
6224.589
6219.962
6215.306
6210.629
6205.941
6201.257
6196.621
6192.025
6187.552
6183.394
6179.551
6176.097
6172.978
6170.28
6167.378
3228.32
3187.496
3153.983
3109.466
3063.786
3021.988
2983.246
2947.541
2914.29
2880.926
2782.649
2750.866
2719.132
2686.759
2653.47
2619.23
2583.915
2547.192
2509.099
2470.209
2431.329
2390.553
2349.272
2307.692
2266.182
2224.872
2184.063
2144.141
2105.114
2067.332
2032.299
2001.905
1976.202
1955.342
1940.292
1932.272
1932.645
1942.666
1963.528
1996.115
2041.495
2100.405
2173.286
2260.339
2361.606
2476.788
2605.231
2745.971
2897.715
3059.099
3228.088
3402.821
3580.703
3759.227
3936.642
4110.252
4277.748
4437.244
4586.68
4722.553
4841.758
4941.566
5019.887
5075.55
5107.958
5116.834
5102.16
5064.018
5002.646
4918.686
4813.953
4691.453
4554.667
4408.213
4255.536
4100.158
3945.57
3792.546
3641.487
3493.34
3347.529
3203.351
3062.048
2924.759
2792.592
2668.397
2554.516
2451.545
2358.877
2275.308
2199.655
2131.207
2069.278
2012.997
1961.289
1913.306
1869.015
1828.72
1792.731
1761.524
1735.656
1715.89
1700.766
1687.937
1676.456
1665.678
1655.62
1646.608
1638.724
1632.441
1628.547
1627.023
1627.214
1628.385
1630.125
1633.223
1638.241
1644.307
1651.823
1660.035
1669.397
1681.701
1697.712
1717.206
1738.921
1761.273
1782.84
1802.036
1816.738
1825
1826.267
1821.972
1816.35
1812.586
1810.552
1809.799
1810.476
1813.53
1820.038
1830.348
1845.008
1865.78
1893.65
1924.247
1964.865
2016.045
2076.83
2146.429
2223.771
2308.845
2403.003
2504.127
2612.292
2727.181
2846.629
2968.338
3089.75
3208.036
3320.553
3425.132
3519.982
3603.507
3674.502
3732.448
3777.214
3808.849
3827.368
3833.47
3830.323
3821.776
3810.79
3800.373
3793.687
3797.627
3815.551
3855.084
3930.824
4042.911
4173.554
4303.152
4416.054
4500.351
4546.648
4549.932
4511.137
4434.872
4331.418
4215.532
4102.062
3998.788
3908.827
3834.627
3778.917
3742.506
3722.975
3741.073
3786.825
3861.284
3958.878
4073.726
4200.799
4334.878
4470.201
4599.469
4718.411
4825.798
4921.109
5003.543
5072.309
5128.399
5173.071
5208.572
5237.397
5262.397
5286.73
5312.525
5340.912
5371.531
5403.6
5436.566
5469.928
5503.338
5536.477
5569.164
5601.196
5632.443
5662.815
5692.239
5720.647
5747.971
5774.142
5799.085
5822.726
5844.994
5865.824
5885.165
5902.988
5919.297
5934.064
5947.215
5958.776
5968.848
5977.545
5985.047
5991.506
5997.027
6001.75
6005.838
6009.459
6012.766
6015.902
6018.994
6022.152
6025.477
6029.056
6032.962
6037.253
6041.978
6047.174
6052.869
6059.086
6065.895
6073.346
6081.467
6090.265
6099.75
6109.923
6120.769
6132.257
6144.346
6156.981
6170.086
6183.578
6197.362
6211.335
6225.385
6239.392
6253.228
6266.755
6279.827
6292.307
6304.018
6314.81
6324.521
6332.998
6340.093
6345.658
6349.499
6351.464
6351.343
6348.945
6344.115
6336.776
6327.245
6316.037
6303.327
6289.049
6273.537
6256.759
6238.354
6225.65
6231.391
6234.206
6225.432
6214.78
6201.808
6188.012
6174.976
6162.731
6150.895
6140.735
6133.941
6132.298
6137.586
6149.529
6163.614
6169.346
6169.877
6172.885
6174.4
6174.625
6173.227
6169.59
6164.924
6161.393
6160.39
6161.952
6165.864
6172.086
6180.765
6192.008
6205.6
6220.782
6236.917
6255.169
6273.41
6288.648
6301.531
6313.293
6324.56
6334.301
6342.853
6350.799
6358.427
6365.917
6373.394
6380.891
6388.322
6395.465
6401.566
6406.486
6410.254
6411.948
6409.527
6401.794
6389.509
6373.391
6353.706
6330.657
6304.469
6275.43
6243.956
6210.678
6176.481
6142.445
6109.869
6079.951
6053.094
6029.701
6010.304
5995.337
5985.036
5979.466
5978.575
5981.591
5988.572
5998.934
6012.038
6027.065
6043.054
6059.342
6075.664
6091.896
6107.845
6123.177
6137.69
6151.287
6163.871
6175.392
6185.846
6195.256
6203.66
6211.095
6217.597
6223.209
6227.975
6231.946
6235.172
6237.701
6239.577
6240.843
6241.54
6241.711
6241.415
6240.685
6239.525
6237.968
6236.099
6233.982
6231.649
6229.133
6226.456
6223.636
6220.693
6217.645
6214.509
6211.299
6208.026
6204.701
6201.332
6197.925
6194.485
6191.016
6187.52
6183.998
6180.452
6176.881
6173.285
6169.664
6166.018
6162.347
6158.649
6154.925
6151.174
6147.397
6143.593
6139.764
6135.91
6132.03
6128.127
6124.2
6120.249
6116.275
6112.277
6108.257
6104.213
6100.148
6096.061
6091.954
6087.827
6083.681
6079.518
6075.337
6071.14
6066.928
6062.7
6058.458
6054.201
6049.931
6045.646
6041.348
6037.037
6032.712
6028.373
6024.021
6019.655
6015.275
6010.881
6006.472
6002.049
5997.61
5993.157
5988.69
5984.209
5979.716
5975.215
5970.713
5966.218
5961.745
5957.312
5952.95
5948.688
5944.568
5940.745
5937.224
5934.051
5931.158
5928.607
5925.83
2975.016
2920.492
2807.749
2768.598
2730.177
2694.209
2660.488
2628.514
2597.67
2567.646
2538.382
2508.286
2477.578
2445.967
2413.408
2379.641
2344.546
2307.975
2269.776
2230.269
2190.536
2149.765
2108.214
2066.304
2024.224
1981.768
1938.727
1895.494
1852.971
1811.83
1773.225
1738.994
1710.155
1686.961
1670.333
1661.35
1661.107
1670.621
1690.822
1722.767
1767.22
1824.867
1896.237
1981.649
2081.151
2194.459
2320.937
2459.667
2609.244
2768.253
2934.203
3104.355
3276.839
3450.072
3622.763
3792.803
3956.77
4111.733
4254.909
4383.426
4494.191
4584.588
4652.793
4698.037
4720.279
4719.841
4697.151
4652.365
4585.776
4497.872
4389.838
4264.86
4126.136
3978.262
3825.438
3670.966
3518.498
3370.48
3227.206
3087.758
2950.311
2813.229
2677.937
2546.765
2421.079
2302.783
2194.267
2097.312
2011.395
1934.658
1865.933
1804.908
1750.946
1702.311
1657.084